/*--------------------------------*- C++ -*----------------------------------*\
| =========                 |                                                 |
| \\      /  F ield         | OpenFOAM: The Open Source CFD Toolbox           |
|  \\    /   O peration     | Version:  4.0                                   |
|   \\  /    A nd           | Web:      www.OpenFOAM.org                      |
|    \\/     M anipulation  |                                                 |
\*---------------------------------------------------------------------------*/
FoamFile
{
    version     2.0;
    format      ascii;
    class       volScalarField;
    location    "746";
    object      G;
}
// * * * * * * * * * * * * * * * * * * * * * * * * * * * * * * * * * * * * * //

dimensions      [1 0 -3 0 0 0 0];

internalField   nonuniform List<scalar> 
5000
(
3967.9357
3955.9731
3942.9967
3928.9454
3913.7571
3897.3704
3879.7269
3860.7736
3840.465
3818.7659
3795.654
3771.1244
3745.1931
3717.9013
3689.3211
3659.5598
3628.766
3597.1338
3564.9082
3532.388
3499.9278
3467.9379
3436.8798
3407.2592
3379.6127
3354.4896
3332.4274
3313.9225
3299.3956
3289.1571
3283.3738
3282.0447
3284.9916
3291.8698
3302.2059
3315.4579
3331.095
3348.6756
3367.904
3388.6387
3410.8383
3434.4515
3459.2872
3484.9279
3510.7178
3535.9507
3559.7595
3582.587
3600.6758
3630.5714
4860.7469
4863.0698
4865.3917
4867.6577
4869.8075
4871.7675
4873.447
4874.7362
4875.502
4875.586
4874.8001
4872.9245
4869.704
4864.8462
4858.0199
4848.8555
4836.9469
4821.8563
4803.1228
4780.2751
4752.8498
4720.4152
4682.6025
4639.1421
4589.9068
4534.9569
4474.5852
4409.3563
4340.1306
4268.0664
4194.588
4121.3129
4049.9354
3982.0698
3919.074
3861.8849
3810.9116
3766.0354
3726.7484
3692.4245
3662.6568
3637.5391
3617.7445
3604.3156
3598.1825
3599.6883
3607.9901
3622.2491
3636.9326
3665.3132
5122.9985
5123.4435
5123.9738
5124.6019
5125.3411
5126.2044
5127.2039
5128.3503
5129.6506
5131.1066
5132.7118
5134.4475
5136.278
5138.1444
5139.9569
5141.5852
5142.8472
5143.4965
5143.208
5141.5629
5138.0347
5131.9771
5122.6178
5109.0602
5090.2994
5065.2566
5032.8378
4992.0205
4941.9717
4882.1911
4812.6699
4734.042
4647.6911
4555.7716
4461.0929
4366.8358
4276.1017
4191.3595
4113.929
4043.7019
3979.296
3918.7308
3860.4832
3804.5288
3752.81
3708.8632
3676.2255
3658.2234
3651.2911
3668.0137
5259.5717
5259.6387
5259.7115
5259.7911
5259.8797
5259.981
5260.0998
5260.2428
5260.4188
5260.6396
5260.9203
5261.2794
5261.74
5262.3291
5263.0772
5264.017
5265.1807
5266.5945
5268.2716
5270.1998
5272.3252
5274.5288
5276.5971
5278.1839
5278.7673
5277.6016
5273.6739
5265.6716
5251.9797
5230.7255
5199.8932
5157.5302
5102.0521
5032.6322
4949.6202
4854.8854
4751.9328
4645.6262
4541.4091
4444.0679
4356.3344
4277.8761
4205.3067
4133.5843
4058.4729
3979.0903
3898.8634
3825.0531
3765.6155
3717.4335
5357.9266
5357.9341
5357.9407
5357.9455
5357.9477
5357.9462
5357.94
5357.9277
5357.9078
5357.8789
5357.8399
5357.7903
5357.7305
5357.663
5357.5928
5357.5293
5357.4876
5357.4907
5357.5713
5357.7739
5358.1552
5358.7831
5359.7309
5361.0654
5362.8244
5364.9803
5367.3838
5369.6863
5371.2391
5370.9776
5367.3071
5358.025
5340.3323
5311.0014
5266.7698
5204.9975
5124.5451
5026.695
4915.7737
4799.0197
4685.3013
4582.6621
4495.3396
4421.601
4353.92
4282.0729
4198.5646
4100.5365
4004.9904
3865.8483
5434.9708
5434.9745
5434.9766
5434.9775
5434.9765
5434.9733
5434.9669
5434.9564
5434.9404
5434.9174
5434.8852
5434.8411
5434.7819
5434.7035
5434.601
5434.469
5434.3013
5434.0922
5433.8367
5433.5332
5433.1854
5432.8068
5432.4257
5432.0911
5431.879
5431.8964
5432.2778
5433.1696
5434.6893
5436.849
5439.4275
5441.7843
5442.6196
5439.7201
5429.7727
5408.3884
5370.5211
5311.4445
5228.3113
5122.0062
4998.5776
4869.1946
4747.719
4645.9215
4568.1108
4507.8295
4451.2632
4377.4811
4299.1321
4114.0651
5498.2864
5498.2893
5498.2897
5498.2892
5498.2873
5498.2837
5498.2781
5498.2697
5498.2579
5498.2417
5498.22
5498.1913
5498.154
5498.1056
5498.0432
5497.9629
5497.8598
5497.7274
5497.5574
5497.3395
5497.0613
5496.7081
5496.2647
5495.7173
5495.0587
5494.2956
5493.4601
5492.6251
5491.9198
5491.5397
5491.7377
5492.7719
5494.7791
5497.5366
5500.09
5500.27
5494.2192
5476.1848
5438.9751
5375.4842
5281.4073
5158.5519
5017.1788
4875.1467
4752.5916
4662.5974
4605.7231
4559.2881
4526.6634
4377.3131
5551.6571
5551.6617
5551.6626
5551.6628
5551.6618
5551.6596
5551.6559
5551.6502
5551.6419
5551.6303
5551.6146
5551.594
5551.5671
5551.5326
5551.4886
5551.433
5551.363
5551.275
5551.1645
5551.0258
5550.8511
5550.6303
5550.3501
5549.9928
5549.5359
5548.9519
5548.2104
5547.2835
5546.1569
5544.8502
5543.4464
5542.1274
5541.2021
5541.0938
5542.2289
5544.7471
5547.9549
5549.5181
5544.5778
5525.2808
5481.5295
5403.7495
5287.7343
5139.8744
4979.4529
4833.429
4727.0289
4661.3854
4643.3907
4567.0188
5597.6633
5597.6697
5597.6709
5597.6716
5597.6713
5597.6701
5597.6677
5597.6637
5597.6577
5597.6492
5597.6376
5597.6221
5597.6017
5597.5755
5597.5421
5597.4997
5597.4463
5597.3794
5597.296
5597.1923
5597.0637
5596.9045
5596.7074
5596.463
5596.1585
5595.7765
5595.2931
5594.6754
5593.8807
5592.8577
5591.5546
5589.9398
5588.0423
5586.0125
5584.1942
5583.1608
5583.6173
5586.0104
5589.6779
5591.5084
5584.4917
5557.2018
5495.8032
5389.684
5239.789
5064.2179
4897.1788
4768.9066
4706.1317
4663.0248
5637.9822
5637.9911
5637.9928
5637.9943
5637.9948
5637.9945
5637.9934
5637.9911
5637.9872
5637.9813
5637.973
5637.9616
5637.9464
5637.9266
5637.9011
5637.8686
5637.8275
5637.7757
5637.7106
5637.6294
5637.5284
5637.4032
5637.2486
5637.0582
5636.8241
5636.5365
5636.1828
5635.7457
5635.2009
5634.5133
5633.6326
5632.4902
5631.0024
5629.0911
5626.7349
5624.0652
5621.4961
5619.8185
5620.0759
5622.9136
5627.0973
5627.2673
5611.9798
5564.323
5467.8266
5317.2561
5129.82
4942.5624
4802.3555
4714.2934
5673.8054
5673.8169
5673.8194
5673.8216
5673.8229
5673.8235
5673.8236
5673.8227
5673.8206
5673.8168
5673.8111
5673.803
5673.7918
5673.7771
5673.7579
5673.7331
5673.7015
5673.6614
5673.6107
5673.547
5673.4672
5673.3678
5673.2444
5673.0917
5672.9032
5672.6712
5672.3865
5672.0377
5671.611
5671.088
5670.4433
5669.6389
5668.6169
5667.2906
5665.5426
5663.2466
5660.3415
5656.9862
5653.782
5651.9157
5652.8448
5656.9357
5660.6781
5653.2699
5615.5824
5525.7702
5373.3947
5173.7054
4975.703
4786.9367
5705.989
5706.0036
5706.0067
5706.0097
5706.0118
5706.0134
5706.0146
5706.015
5706.0145
5706.0126
5706.0091
5706.0036
5705.9959
5705.9852
5705.971
5705.9524
5705.9283
5705.8974
5705.858
5705.8081
5705.7451
5705.6662
5705.5676
5705.4449
5705.2927
5705.1045
5704.8722
5704.5861
5704.2348
5703.8046
5703.2787
5702.6365
5701.8495
5700.8744
5699.6411
5698.0368
5695.8978
5693.0426
5689.4009
5685.2891
5681.768
5680.7013
5683.6773
5688.8647
5686.1877
5654.4169
5567.0673
5407.3704
5206.9488
4918.0539
5735.1712
5735.189
5735.193
5735.1968
5735.1998
5735.2022
5735.2045
5735.2061
5735.207
5735.2067
5735.2052
5735.2021
5735.1971
5735.1899
5735.1798
5735.1663
5735.1484
5735.125
5735.0947
5735.0558
5735.0062
5734.9435
5734.8646
5734.7659
5734.6428
5734.4898
5734.3002
5734.0656
5733.7759
5733.419
5732.9803
5732.4423
5731.7847
5730.9825
5730.0017
5728.7894
5727.253
5725.2332
5722.4944
5718.8023
5714.1961
5709.4977
5706.7332
5708.4017
5714.0458
5713.7786
5684.5631
5590.1775
5441.5127
5102.9599
5761.8384
5761.8596
5761.8644
5761.8692
5761.8729
5761.8763
5761.8795
5761.8824
5761.8845
5761.8858
5761.886
5761.885
5761.8825
5761.8782
5761.8717
5761.8625
5761.8497
5761.8326
5761.8098
5761.78
5761.7413
5761.6918
5761.6288
5761.5494
5761.4496
5761.325
5761.1696
5760.9767
5760.7376
5760.4417
5760.0763
5759.6256
5759.0709
5758.3899
5757.5571
5756.5412
5755.2999
5753.7608
5751.7855
5749.1264
5745.4454
5740.5491
5735.007
5730.9082
5731.5399
5737.148
5738.8384
5701.2909
5628.5313
5308.8458
5786.3694
5786.3943
5786.3999
5786.4056
5786.4102
5786.4144
5786.4187
5786.4227
5786.4261
5786.4288
5786.4306
5786.4314
5786.4311
5786.4294
5786.426
5786.4205
5786.4122
5786.4004
5786.384
5786.3618
5786.3323
5786.2938
5786.244
5786.1805
5786.0999
5785.9983
5785.8709
5785.7117
5785.5135
5785.2673
5784.9621
5784.5845
5784.1178
5783.5418
5782.8318
5781.9594
5780.892
5779.5908
5777.9973
5775.9959
5773.3469
5769.6465
5764.5164
5758.2921
5753.2601
5752.9457
5760.4871
5753.3505
5745.4791
5497.3279
5809.0649
5809.0936
5809.1001
5809.1067
5809.1121
5809.1173
5809.1226
5809.1277
5809.1323
5809.1363
5809.1397
5809.1422
5809.1439
5809.1445
5809.1439
5809.1417
5809.1373
5809.1301
5809.1193
5809.1037
5809.082
5809.0528
5809.0142
5808.9639
5808.8994
5808.817
5808.7128
5808.5815
5808.4169
5808.2114
5807.9555
5807.6378
5807.2439
5806.7563
5806.1532
5805.4076
5804.4877
5803.357
5801.9752
5800.2908
5798.2069
5795.495
5791.7082
5786.28
5779.5315
5773.3605
5775.0596
5774.2461
5800.3894
5642.4533
5830.1673
5830.2
5830.2073
5830.2149
5830.2212
5830.2272
5830.2335
5830.2398
5830.2455
5830.2509
5830.2556
5830.2598
5830.2633
5830.2661
5830.268
5830.2687
5830.2679
5830.2648
5830.2588
5830.249
5830.2341
5830.213
5830.1839
5830.1451
5830.0942
5830.0281
5829.9434
5829.8356
5829.6992
5829.5276
5829.3127
5829.0445
5828.7106
5828.2961
5827.782
5827.145
5826.356
5825.3794
5824.1737
5822.694
5820.8908
5818.6781
5815.8439
5811.8505
5806.1503
5798.2655
5793.8263
5787.9701
5818.1677
5737.7075
5849.8748
5849.9116
5849.9198
5849.9284
5849.9355
5849.9424
5849.9497
5849.957
5849.964
5849.9705
5849.9767
5849.9824
5849.9876
5849.9924
5849.9966
5850.0001
5850.0024
5850.0031
5850.0015
5849.9967
5849.9879
5849.9738
5849.9531
5849.9242
5849.885
5849.833
5849.7651
5849.6773
5849.5648
5849.422
5849.2417
5849.0151
5848.7316
5848.3779
5847.9377
5847.391
5846.7126
5845.8708
5844.8264
5843.5322
5841.9373
5839.9882
5837.6164
5834.5649
5830.4025
5823.6728
5816.988
5805.932
5823.7656
5792.325
5868.3513
5868.3923
5868.4015
5868.411
5868.419
5868.4268
5868.4351
5868.4435
5868.4516
5868.4593
5868.4668
5868.474
5868.4808
5868.4875
5868.4939
5868.4998
5868.5051
5868.5092
5868.5116
5868.5114
5868.508
5868.5002
5868.4869
5868.4667
5868.4379
5868.3981
5868.3447
5868.2742
5868.1824
5868.0643
5867.9135
5867.7225
5867.4817
5867.1796
5866.8018
5866.3307
5865.7445
5865.0161
5864.111
5862.9858
5861.5875
5859.8554
5857.7425
5855.1417
5851.949
5846.951
5840.9303
5828.8971
5832.1722
5822.1566
5885.7339
5885.7793
5885.7894
5885.7999
5885.8088
5885.8175
5885.8268
5885.8362
5885.8455
5885.8544
5885.8632
5885.8717
5885.8802
5885.8886
5885.897
5885.9054
5885.9134
5885.9206
5885.9266
5885.9307
5885.9321
5885.93
5885.9234
5885.911
5885.8913
5885.8623
5885.8216
5885.7663
5885.6925
5885.5958
5885.4707
5885.3103
5885.1063
5884.8484
5884.524
5884.1174
5883.6094
5882.9761
5882.188
5881.2074
5879.9868
5878.4637
5876.5784
5874.2424
5871.4919
5867.6716
5863.0399
5853.2596
5847.5206
5841.3559
5902.1385
5902.1884
5902.1994
5902.211
5902.2208
5902.2303
5902.2406
5902.2512
5902.2615
5902.2717
5902.2817
5902.2916
5902.3016
5902.3117
5902.322
5902.3326
5902.3432
5902.3534
5902.3627
5902.3707
5902.3766
5902.3797
5902.3791
5902.3737
5902.3622
5902.3428
5902.3135
5902.2715
5902.2136
5902.1357
5902.033
5901.8993
5901.7273
5901.5078
5901.2295
5900.8784
5900.4376
5899.8858
5899.1969
5898.3382
5897.2688
5895.9337
5894.2698
5892.179
5889.6725
5886.4533
5882.7551
5875.9091
5867.5763
5858.4133
5917.6639
5917.7183
5917.7304
5917.7429
5917.7536
5917.7641
5917.7754
5917.787
5917.7984
5917.8097
5917.821
5917.8322
5917.8437
5917.8554
5917.8677
5917.8803
5917.8933
5917.9063
5917.9189
5917.9304
5917.9405
5917.9483
5917.9532
5917.9542
5917.9501
5917.9394
5917.9203
5917.8902
5917.8464
5917.7852
5917.7022
5917.5921
5917.4481
5917.2621
5917.024
5916.7214
5916.3389
5915.8576
5915.2542
5914.4997
5913.5584
5912.3832
5910.9178
5909.0699
5906.7937
5903.9197
5900.6293
5895.8138
5888.6766
5876.3954
5932.3947
5932.4538
5932.4669
5932.4805
5932.4921
5932.5035
5932.5158
5932.5285
5932.541
5932.5534
5932.5659
5932.5784
5932.5913
5932.6046
5932.6187
5932.6334
5932.6487
5932.6643
5932.6798
5932.6948
5932.7088
5932.721
5932.731
5932.7378
5932.7405
5932.7377
5932.7277
5932.7085
5932.6773
5932.631
5932.5656
5932.4764
5932.3572
5932.2008
5931.9981
5931.7378
5931.4063
5930.9866
5930.4577
5929.7937
5928.9627
5927.9235
5926.627
5924.9975
5922.9622
5920.3818
5917.3037
5913.409
5908.4348
5895.2097
5946.4044
5946.4682
5946.4823
5946.4969
5946.5095
5946.5218
5946.5351
5946.5488
5946.5625
5946.5761
5946.5897
5946.6035
5946.6178
5946.6327
5946.6484
5946.6651
5946.6826
5946.7008
5946.7191
5946.7374
5946.7549
5946.7713
5946.786
5946.7982
5946.8071
5946.8116
5946.81
5946.8005
5946.7808
5946.7479
5946.6983
5946.6277
5946.5307
5946.4006
5946.2292
5946.0064
5945.7199
5945.3543
5944.8908
5944.3061
5943.5713
5942.65
5941.4978
5940.0535
5938.244
5935.9471
5933.1096
5929.5091
5926.1529
5913.8094
5959.7566
5959.8253
5959.8404
5959.8561
5959.8696
5959.8828
5959.8972
5959.912
5959.9267
5959.9414
5959.9562
5959.9713
5959.9869
5960.0033
5960.0207
5960.0393
5960.059
5960.0795
5960.1006
5960.1219
5960.1429
5960.1632
5960.1823
5960.1996
5960.2143
5960.2254
5960.2315
5960.231
5960.2217
5960.201
5960.1657
5960.1119
5960.0347
5959.9281
5959.7847
5959.5953
5959.3487
5959.031
5958.6252
5958.1104
5957.4604
5956.6425
5955.6162
5954.3291
5952.7167
5950.6737
5948.1338
5944.6825
5942.1242
5931.3999
5972.5074
5972.5809
5972.597
5972.6139
5972.6283
5972.6424
5972.6578
5972.6736
5972.6894
5972.7052
5972.7212
5972.7375
5972.7545
5972.7723
5972.7914
5972.8118
5972.8336
5972.8565
5972.8802
5972.9044
5972.9287
5972.9526
5972.9759
5972.9979
5973.018
5973.0353
5973.0486
5973.0563
5973.0566
5973.047
5973.0247
5972.9861
5972.9269
5972.8415
5972.7232
5972.5637
5972.3527
5972.0777
5971.7233
5971.2704
5970.6954
5969.9689
5969.0539
5967.9034
5966.4613
5964.6327
5962.391
5959.1594
5956.8798
5947.7191
5984.7058
5984.7842
5984.8014
5984.8193
5984.8346
5984.8497
5984.8661
5984.883
5984.8999
5984.9168
5984.9339
5984.9515
5984.9697
5984.989
5985.0097
5985.0319
5985.0557
5985.0808
5985.1071
5985.1341
5985.1615
5985.189
5985.2162
5985.2426
5985.2678
5985.2909
5985.3108
5985.3262
5985.3352
5985.3359
5985.3255
5985.3009
5985.2579
5985.1918
5985.0962
5984.9636
5984.7847
5984.548
5984.2394
5983.8418
5983.3336
5982.6881
5981.8721
5980.8422
5979.5496
5977.9032
5975.9167
5972.9824
5970.8049
5962.8609
5996.3953
5996.4787
5996.4969
5996.5159
5996.5322
5996.5482
5996.5656
5996.5835
5996.6014
5996.6195
5996.6377
5996.6565
5996.6761
5996.6968
5996.719
5996.743
5996.7688
5996.7961
5996.8248
5996.8545
5996.8849
5996.9157
5996.9467
5996.9774
5997.0074
5997.0359
5997.062
5997.0845
5997.1017
5997.1118
5997.1124
5997.1005
5997.0725
5997.0239
5996.9489
5996.8407
5996.6908
5996.4886
5996.2213
5995.8732
5995.4248
5994.8517
5994.1239
5993.2015
5992.0416
5990.556
5988.7754
5986.1533
5984.0828
5977.0335
6007.6145
6007.7029
6007.7222
6007.7423
6007.7595
6007.7765
6007.7948
6007.8138
6007.8328
6007.8519
6007.8713
6007.8913
6007.9121
6007.9343
6007.9581
6007.9838
6008.0114
6008.0409
6008.0719
6008.1043
6008.1376
6008.1716
6008.2062
6008.2409
6008.2754
6008.3091
6008.341
6008.3702
6008.3951
6008.414
6008.4247
6008.4246
6008.4103
6008.3777
6008.3216
6008.2356
6008.112
6007.9411
6007.7111
6007.4077
6007.0131
6006.505
6005.856
6005.0298
6003.988
6002.6481
6001.0378
5998.6965
5996.777
5990.4192
6018.3979
6018.4914
6018.5118
6018.5329
6018.551
6018.5689
6018.5883
6018.6083
6018.6284
6018.6486
6018.6691
6018.6903
6018.7124
6018.7359
6018.7612
6018.7886
6018.8181
6018.8497
6018.8831
6018.9179
6018.954
6018.9912
6019.0292
6019.0678
6019.1066
6019.1451
6019.1826
6019.218
6019.2501
6019.2772
6019.2973
6019.3081
6019.3065
6019.2887
6019.2499
6019.1843
6019.0847
6018.9422
6018.7462
6018.4833
6018.1373
6017.6878
6017.1099
6016.3701
6015.4337
6014.2261
6012.765
6010.6603
6008.9133
6003.1386
6028.7764
6028.875
6028.8964
6028.9187
6028.9377
6028.9565
6028.9769
6028.998
6029.0191
6029.0404
6029.062
6029.0844
6029.1077
6029.1326
6029.1594
6029.1885
6029.2198
6029.2534
6029.289
6029.3264
6029.3652
6029.4053
6029.4466
6029.4889
6029.5319
6029.5751
6029.6178
6029.6591
6029.6979
6029.7327
6029.7617
6029.7827
6029.7929
6029.7887
6029.7659
6029.719
6029.6414
6029.525
6029.3598
6029.1338
6028.832
6028.4356
6027.9219
6027.2602
6026.4184
6025.3299
6024.0047
6022.1001
6020.5199
6015.2658
6038.7778
6038.8814
6038.9039
6038.9272
6038.9472
6038.967
6038.9883
6039.0105
6039.0327
6039.055
6039.0778
6039.1013
6039.1259
6039.1521
6039.1804
6039.2111
6039.2443
6039.2799
6039.3177
6039.3574
6039.3989
6039.4419
6039.4864
6039.5323
6039.5792
6039.6268
6039.6745
6039.7215
6039.7666
6039.8087
6039.846
6039.8765
6039.8976
6039.9061
6039.8981
6039.8685
6039.8112
6039.7187
6039.5819
6039.3895
6039.128
6038.78
6038.3246
6037.7337
6036.9774
6035.996
6034.7954
6033.0655
6031.6341
6026.8522
6048.427
6048.5358
6048.5593
6048.5837
6048.6047
6048.6253
6048.6477
6048.6709
6048.6941
6048.7176
6048.7415
6048.7661
6048.7919
6048.8195
6048.8492
6048.8815
6048.9165
6048.9541
6048.994
6049.0361
6049.0802
6049.126
6049.1736
6049.2229
6049.2736
6049.3255
6049.378
6049.4303
6049.4815
6049.5304
6049.5755
6049.6149
6049.6463
6049.6667
6049.6724
6049.6588
6049.6203
6049.5498
6049.4391
6049.2777
6049.053
6048.7493
6048.347
6047.8205
6047.142
6046.2571
6045.1704
6043.5973
6042.296
6037.9409
6057.7468
6057.8607
6057.8853
6057.9108
6057.9327
6057.9543
6057.9777
6058.0019
6058.0262
6058.0507
6058.0757
6058.1015
6058.1285
6058.1574
6058.1886
6058.2225
6058.2592
6058.2987
6058.3408
6058.3852
6058.4317
6058.4803
6058.531
6058.5835
6058.638
6058.6939
6058.751
6058.8084
6058.8654
6058.9207
6058.9732
6059.021
6059.0621
6059.0936
6059.1121
6059.1134
6059.0923
6059.0423
6058.9556
6058.8227
6058.6319
6058.3687
6058.0152
6057.5475
6056.94
6056.1426
6055.1593
6053.729
6052.5431
6048.5716
6066.7577
6066.8769
6066.9025
6066.9292
6066.952
6066.9745
6066.9988
6067.0241
6067.0495
6067.075
6067.1011
6067.1281
6067.1563
6067.1865
6067.2191
6067.2546
6067.293
6067.3344
6067.3786
6067.4252
6067.4742
6067.5255
6067.5791
6067.6349
6067.6928
6067.7527
6067.8142
6067.8765
6067.939
6068.0005
6068.06
6068.1158
6068.1659
6068.2078
6068.2384
6068.2537
6068.2487
6068.2176
6068.1532
6068.0467
6067.8872
6067.6614
6067.3525
6066.9388
6066.3963
6065.6788
6064.7896
6063.4895
6062.408
6058.7809
6075.4786
6075.603
6075.6296
6075.6574
6075.6812
6075.7046
6075.73
6075.7563
6075.7827
6075.8093
6075.8365
6075.8646
6075.894
6075.9255
6075.9595
6075.9965
6076.0367
6076.08
6076.1262
6076.175
6076.2265
6076.2803
6076.3367
6076.3957
6076.4571
6076.5208
6076.5865
6076.6535
6076.7212
6076.7887
6076.8548
6076.9181
6076.9769
6077.0286
6077.0705
6077.0988
6077.109
6077.0956
6077.0519
6076.9698
6076.8393
6076.6479
6076.3803
6076.0161
6075.5333
6074.889
6074.0858
6072.9045
6071.9185
6068.6019
6083.9265
6084.0561
6084.0839
6084.1128
6084.1375
6084.1618
6084.1882
6084.2155
6084.243
6084.2707
6084.299
6084.3281
6084.3588
6084.3915
6084.427
6084.4655
6084.5074
6084.5525
6084.6007
6084.6517
6084.7055
6084.762
6084.8211
6084.8831
6084.9479
6085.0153
6085.085
6085.1566
6085.2294
6085.3025
6085.375
6085.4455
6085.5123
6085.5734
6085.6259
6085.6665
6085.6909
6085.694
6085.6696
6085.6103
6085.5066
6085.3472
6085.1177
6084.7993
6084.3715
6083.7945
6083.0701
6081.9974
6081.0992
6078.064
6092.1171
6092.252
6092.2809
6092.3109
6092.3365
6092.3618
6092.3892
6092.4176
6092.4461
6092.4748
6092.5042
6092.5345
6092.5663
6092.6003
6092.6371
6092.6772
6092.7207
6092.7677
6092.8178
6092.871
6092.9271
6092.9861
6093.048
6093.1129
6093.1809
6093.2519
6093.3256
6093.4016
6093.4792
6093.5577
6093.6363
6093.7136
6093.7882
6093.8581
6093.9207
6093.9728
6094.0106
6094.0292
6094.0229
6093.9848
6093.9062
6093.7764
6093.5823
6093.3063
6092.9292
6092.4144
6091.7624
6090.7892
6089.9721
6087.193
6100.0649
6100.2051
6100.235
6100.2662
6100.2928
6100.319
6100.3474
6100.3768
6100.4063
6100.4361
6100.4665
6100.4979
6100.5309
6100.5662
6100.6044
6100.646
6100.6912
6100.7399
6100.792
6100.8473
6100.9057
6100.9671
6101.0317
6101.0995
6101.1707
6101.2452
6101.3227
6101.4029
6101.4852
6101.569
6101.6533
6101.7372
6101.8192
6101.8974
6101.9696
6102.0326
6102.083
6102.1161
6102.1268
6102.1085
6102.0533
6101.9512
6101.79
6101.5533
6101.2233
6100.7659
6100.181
6099.2992
6098.5568
6096.0118
6107.7831
6107.9286
6107.9596
6107.9918
6108.0194
6108.0466
6108.0759
6108.1064
6108.137
6108.1678
6108.1993
6108.2318
6108.2659
6108.3025
6108.342
6108.3851
6108.4319
6108.4824
6108.5365
6108.5939
6108.6545
6108.7183
6108.7855
6108.8561
6108.9304
6109.0083
6109.0895
6109.1738
6109.2607
6109.3495
6109.4394
6109.5296
6109.6186
6109.7049
6109.7861
6109.8595
6109.9217
6109.9686
6109.9953
6109.9956
6109.9622
6109.886
6109.7554
6109.5554
6109.2691
6108.8649
6108.3421
6107.5446
6106.8713
6104.5412
6115.2839
6115.4347
6115.4668
6115.5001
6115.5287
6115.5568
6115.5871
6115.6186
6115.6502
6115.6821
6115.7146
6115.7483
6115.7836
6115.8213
6115.8622
6115.9068
6115.9552
6116.0075
6116.0634
6116.1229
6116.1857
6116.2519
6116.3216
6116.395
6116.4724
6116.5535
6116.6384
6116.7267
6116.8179
6116.9116
6117.0069
6117.1031
6117.1989
6117.2928
6117.3826
6117.4658
6117.5393
6117.5992
6117.6409
6117.6587
6117.6459
6117.5939
6117.492
6117.3261
6117.0806
6116.7259
6116.2607
6115.5413
6114.932
6112.7995
6122.5785
6122.7346
6122.7679
6122.8023
6122.8318
6122.8609
6122.8922
6122.9248
6122.9574
6122.9903
6123.0239
6123.0586
6123.095
6123.134
6123.1763
6123.2223
6123.2723
6123.3263
6123.3842
6123.4456
6123.5106
6123.5791
6123.6514
6123.7275
6123.8078
6123.8922
6123.9806
6124.0727
6124.1682
6124.2666
6124.3672
6124.4692
6124.5715
6124.6726
6124.7707
6124.8633
6124.9475
6125.0197
6125.0755
6125.1099
6125.1164
6125.0871
6125.0121
6124.8782
6124.6707
6124.3621
6123.9506
6123.3036
6122.7538
6120.8037
6129.6775
6129.8389
6129.8733
6129.9089
6129.9393
6129.9693
6130.0017
6130.0352
6130.0689
6130.1028
6130.1374
6130.1732
6130.2108
6130.251
6130.2946
6130.3421
6130.3937
6130.4494
6130.5091
6130.5726
6130.6397
6130.7105
6130.7852
6130.8641
6130.9473
6131.0348
6131.1266
6131.2226
6131.3222
6131.4251
6131.5307
6131.6383
6131.7468
6131.8549
6131.9609
6132.0625
6132.1568
6132.2407
6132.31
6132.36
6132.3847
6132.3768
6132.327
6132.2231
6132.0513
6131.7858
6131.4243
6130.8446
6130.3503
6128.5688
6136.5904
6136.7573
6136.7927
6136.8294
6136.8609
6136.8918
6136.9251
6136.9597
6136.9944
6137.0293
6137.065
6137.1019
6137.1406
6137.182
6137.2269
6137.2758
6137.329
6137.3864
6137.448
6137.5134
6137.5826
6137.6557
6137.7329
6137.8144
6137.9004
6137.991
6138.0862
6138.1858
6138.2894
6138.3968
6138.5073
6138.6202
6138.7348
6138.8496
6138.9632
6139.0733
6139.1773
6139.2723
6139.3544
6139.4192
6139.4611
6139.4734
6139.4474
6139.3716
6139.2332
6139.0081
6138.6934
6138.1765
6137.7339
6136.1088
6143.3264
6143.4986
6143.5351
6143.573
6143.6054
6143.6373
6143.6716
6143.7072
6143.7429
6143.7789
6143.8156
6143.8535
6143.8934
6143.936
6143.9822
6144.0325
6144.0873
6144.1464
6144.2097
6144.2771
6144.3484
6144.4238
6144.5033
6144.5874
6144.6762
6144.7698
6144.8683
6144.9715
6145.0791
6145.1907
6145.3059
6145.4241
6145.5445
6145.6658
6145.7866
6145.9049
6146.0182
6146.1238
6146.218
6146.2968
6146.355
6146.3864
6146.3828
6146.3336
6146.2266
6146.0393
6145.7685
6145.3102
6144.9161
6143.4364
6149.8938
6150.0713
6150.1089
6150.148
6150.1813
6150.2141
6150.2495
6150.2861
6150.3228
6150.3598
6150.3975
6150.4365
6150.4775
6150.5213
6150.5688
6150.6205
6150.6768
6150.7376
6150.8028
6150.8721
6150.9455
6151.023
6151.1049
6151.1915
6151.2831
6151.3797
6151.4814
6151.5881
6151.6995
6151.8153
6151.9351
6152.0583
6152.1843
6152.3119
6152.4396
6152.5658
6152.688
6152.8037
6152.9095
6153.0016
6153.0753
6153.1247
6153.1424
6153.1182
6153.0407
6152.8891
6152.6595
6152.2561
6151.9073
6150.5632
6156.3003
6156.4832
6156.522
6156.5621
6156.5965
6156.6302
6156.6665
6156.7041
6156.7418
6156.7798
6156.8186
6156.8587
6156.9007
6156.9458
6156.9945
6157.0477
6157.1055
6157.168
6157.2349
6157.3061
6157.3816
6157.4613
6157.5455
6157.6346
6157.7288
6157.8284
6157.9333
6158.0434
6158.1585
6158.2784
6158.4026
6158.5308
6158.6622
6158.7958
6158.9303
6159.064
6159.1948
6159.3201
6159.4369
6159.5418
6159.6302
6159.6967
6159.7344
6159.7339
6159.6844
6159.5662
6159.3754
6159.0235
6158.7174
6157.4999
6162.5533
6162.7416
6162.7815
6162.8228
6162.858
6162.8927
6162.93
6162.9686
6163.0074
6163.0464
6163.0862
6163.1273
6163.1705
6163.2167
6163.2667
6163.3213
6163.3806
6163.4447
6163.5134
6163.5865
6163.664
6163.7458
6163.8323
6163.9239
6164.0208
6164.1232
6164.2312
6164.3447
6164.4634
6164.5873
6164.7159
6164.8488
6164.9855
6165.1249
6165.2659
6165.4069
6165.5458
6165.6804
6165.8079
6165.9248
6166.0272
6166.11
6166.1668
6166.1887
6166.1656
6166.0791
6165.9247
6165.6213
6165.3553
6164.2562
6168.6596
6168.8533
6168.8942
6168.9367
6168.9729
6169.0085
6169.0468
6169.0864
6169.1262
6169.1662
6169.207
6169.2491
6169.2934
6169.3408
6169.3921
6169.4481
6169.5089
6169.5747
6169.6451
6169.7201
6169.7995
6169.8835
6169.9723
6170.0663
6170.1658
6170.271
6170.382
6170.4988
6170.6211
6170.7489
6170.8817
6171.0193
6171.161
6171.3061
6171.4534
6171.6014
6171.7482
6171.8917
6172.0293
6172.1578
6172.2736
6172.3719
6172.4467
6172.4899
6172.4918
6172.4352
6172.3154
6172.0575
6171.8293
6170.8413
6174.6256
6174.8246
6174.8667
6174.9102
6174.9474
6174.9839
6175.0232
6175.0639
6175.1046
6175.1456
6175.1874
6175.2306
6175.276
6175.3245
6175.3772
6175.4345
6175.4968
6175.5642
6175.6364
6175.7132
6175.7946
6175.8806
6175.9717
6176.0681
6176.1702
6176.2782
6176.3922
6176.5121
6176.638
6176.7695
6176.9065
6177.0486
6177.1953
6177.3459
6177.4993
6177.654
6177.8084
6177.9604
6178.1077
6178.2473
6178.3759
6178.489
6178.581
6178.6444
6178.67
6178.6418
6178.5546
6178.3398
6178.1473
6177.2636
6180.4572
6180.6616
6180.7047
6180.7494
6180.7876
6180.825
6180.8653
6180.9069
6180.9487
6180.9907
6181.0335
6181.0777
6181.1242
6181.1739
6181.2278
6181.2864
6181.3503
6181.4192
6181.4932
6181.5718
6181.6552
6181.7433
6181.8365
6181.9353
6182.0399
6182.1506
6182.2676
6182.3907
6182.52
6182.6552
6182.7963
6182.9428
6183.0943
6183.2502
6183.4095
6183.5708
6183.7325
6183.8928
6184.0494
6184.1996
6184.3404
6184.4676
6184.5761
6184.6587
6184.7069
6184.7055
6184.6492
6184.4751
6184.3163
6183.5308
6186.1601
6186.3698
6186.414
6186.4599
6186.499
6186.5373
6186.5786
6186.6212
6186.664
6186.707
6186.7508
6186.7961
6186.8436
6186.8945
6186.9496
6187.0096
6187.0749
6187.1455
6187.2211
6187.3016
6187.3868
6187.477
6187.5725
6187.6735
6187.7807
6187.8941
6188.0139
6188.1402
6188.2728
6188.4117
6188.5567
6188.7075
6188.8638
6189.0248
6189.1898
6189.3574
6189.5262
6189.6944
6189.86
6190.0205
6190.1729
6190.3137
6190.4378
6190.5388
6190.6084
6190.6326
6190.6057
6190.4699
6190.3432
6189.6502
6191.7395
6191.9546
6191.9999
6192.0468
6192.0869
6192.1262
6192.1684
6192.212
6192.2558
6192.2997
6192.3446
6192.3909
6192.4395
6192.4915
6192.5478
6192.6092
6192.676
6192.7481
6192.8254
6192.9077
6192.9949
6193.0871
6193.1847
6193.2881
6193.3977
6193.5138
6193.6365
6193.7658
6193.9017
6194.0442
6194.193
6194.348
6194.5089
6194.675
6194.8455
6195.0193
6195.1949
6195.3708
6195.545
6195.7153
6195.879
6196.0327
6196.1718
6196.2903
6196.3804
6196.4289
6196.4298
6196.3306
6196.2342
6195.6285
6197.2004
6197.4208
6197.4672
6197.5152
6197.5563
6197.5964
6197.6397
6197.6843
6197.729
6197.774
6197.8198
6197.8671
6197.9168
6197.97
6198.0275
6198.0903
6198.1585
6198.2322
6198.3112
6198.3953
6198.4844
6198.5786
6198.6783
6198.784
6198.896
6199.0147
6199.1402
6199.2725
6199.4117
6199.5576
6199.7103
6199.8694
6200.0347
6200.2058
6200.3817
6200.5614
6200.7437
6200.927
6201.1095
6201.2893
6201.4637
6201.6298
6201.7834
6201.9186
6202.0282
6202.0998
6202.1273
6202.0627
6201.9951
6201.472
6202.5474
6202.7732
6202.8206
6202.8698
6202.9118
6202.9529
6202.9971
6203.0427
6203.0884
6203.1344
6203.1812
6203.2295
6203.2803
6203.3345
6203.3933
6203.4574
6203.5271
6203.6023
6203.683
6203.7689
6203.8598
6203.956
6204.0579
6204.1658
6204.2802
6204.4015
6204.5297
6204.6651
6204.8074
6204.9568
6205.1131
6205.2763
6205.446
6205.6218
6205.803
6205.9885
6206.1773
6206.3677
6206.5583
6206.7471
6206.932
6207.11
6207.2773
6207.4286
6207.5568
6207.6506
6207.7033
6207.6716
6207.6314
6207.1866
6207.785
6208.0161
6208.0647
6208.1149
6208.1579
6208.1999
6208.245
6208.2917
6208.3383
6208.3853
6208.4331
6208.4824
6208.5343
6208.5896
6208.6497
6208.715
6208.7861
6208.863
6208.9453
6209.0329
6209.1257
6209.2239
6209.3279
6209.438
6209.5548
6209.6786
6209.8096
6209.9478
6210.0933
6210.2461
6210.4061
6210.5732
6210.7472
6210.9277
6211.114
6211.3051
6211.5001
6211.6975
6211.8959
6212.0935
6212.2884
6212.4779
6212.6584
6212.825
6212.9711
6213.086
6213.1629
6213.1625
6213.1484
6212.7778
6212.9174
6213.1538
6213.2034
6213.2548
6213.2987
6213.3416
6213.3877
6213.4354
6213.483
6213.5309
6213.5797
6213.6301
6213.6829
6213.7394
6213.8007
6213.8674
6213.9399
6214.0182
6214.1022
6214.1916
6214.2862
6214.3864
6214.4924
6214.6047
6214.7239
6214.8502
6214.9839
6215.125
6215.2736
6215.4297
6215.5932
6215.7642
6215.9424
6216.1275
6216.3187
6216.5154
6216.7164
6216.9206
6217.1265
6217.3326
6217.5372
6217.7377
6217.9309
6218.1122
6218.2755
6218.4106
6218.5105
6218.54
6218.5508
6218.2507
6217.9484
6218.1901
6218.2408
6218.2933
6218.3381
6218.382
6218.4291
6218.4777
6218.5263
6218.5752
6218.625
6218.6763
6218.7302
6218.7879
6218.8503
6218.9183
6218.9922
6219.0721
6219.1577
6219.2488
6219.3453
6219.4474
6219.5554
6219.67
6219.7915
6219.9203
6220.0566
6220.2005
6220.3522
6220.5115
6220.6786
6220.8533
6221.0357
6221.2252
6221.4213
6221.6234
6221.8303
6222.041
6222.2542
6222.4686
6222.6824
6222.8936
6223.099
6223.2945
6223.4742
6223.6286
6223.7506
6223.8086
6223.8432
6223.6101
6222.8818
6223.1288
6223.1806
6223.2342
6223.2799
6223.3247
6223.3728
6223.4224
6223.4719
6223.5218
6223.5726
6223.6249
6223.6799
6223.7386
6223.8022
6223.8715
6223.9469
6224.0283
6224.1155
6224.2083
6224.3066
6224.4106
6224.5207
6224.6374
6224.7612
6224.8925
6225.0314
6225.1782
6225.3328
6225.4953
6225.6659
6225.8444
6226.0307
6226.2246
6226.4255
6226.6328
6226.8454
6227.0625
6227.2828
6227.5051
6227.728
6227.9494
6228.1667
6228.3758
6228.5713
6228.7442
6228.8873