/*--------------------------------*- C++ -*----------------------------------*\
| =========                 |                                                 |
| \\      /  F ield         | OpenFOAM: The Open Source CFD Toolbox           |
|  \\    /   O peration     | Version:  4.0                                   |
|   \\  /    A nd           | Web:      www.OpenFOAM.org                      |
|    \\/     M anipulation  |                                                 |
\*---------------------------------------------------------------------------*/
FoamFile
{
    version     2.0;
    format      ascii;
    class       volScalarField;
    location    "746";
    object      ILambda_2_0;
}
// * * * * * * * * * * * * * * * * * * * * * * * * * * * * * * * * * * * * * //

dimensions      [1 0 -3 0 0 0 0];

internalField   nonuniform List<scalar> 
5000
(
496.84446
494.15422
491.21243
487.99763
484.48699
480.65621
476.47957
471.93001
466.97928
461.59804
455.75611
449.42277
442.56714
435.15866
427.16775
418.56654
409.3298
399.43608
388.86899
377.61876
365.68394
353.07341
339.80852
325.92546
311.47763
296.53815
281.20211
265.58858
249.84194
234.13238
218.65505
203.62755
189.28513
175.8733
163.63749
152.80952
143.59114
136.13546
130.5275
126.76631
124.75155
124.27838
125.04444
126.67181
128.74493
130.86065
132.68729
133.99954
134.7666
134.92922
639.18777
639.30901
639.42156
639.51915
639.5949
639.64041
639.64528
639.59674
639.47917
639.27356
638.95691
638.5015
637.8741
637.03508
635.93742
634.52564
632.73465
630.48857
627.69956
624.2667
620.07507
614.99512
608.88249
601.57849
592.91162
582.70028
570.75718
556.89579
540.93935
522.73268
502.15723
479.14936
453.72151
425.9855
396.17631
364.67367
332.01793
298.91517
266.22595
234.93178
206.07446
180.66669
159.5777
143.40584
132.35961
126.17832
124.11571
125.0855
127.48504
131.70824
680.99266
680.94047
680.88776
680.83517
680.78359
680.73407
680.68783
680.64628
680.61098
680.58365
680.56604
680.55985
680.56658
680.58722
680.62189
680.66937
680.72631
680.78633
680.83868
680.86665
680.84533
680.73896
680.4975
680.05255
679.31239
678.15636
676.42844
673.9305
670.41562
665.58215
659.06992
650.45988
639.27964
625.01736
607.14705
585.16828
558.66257
527.36724
491.26402
450.67511
406.35269
359.54035
311.97808
265.82102
223.44469
187.14664
158.7091
139.20498
127.87719
124.90351
702.74793
702.67686
702.59867
702.51258
702.4179
702.31386
702.19971
702.07469
701.93808
701.7892
701.62751
701.45264
701.26448
701.06328
700.84979
700.62538
700.39224
700.15355
699.91363
699.67817
699.45421
699.25017
699.07549
698.93996
698.85242
698.81859
698.83768
698.89722
698.96577
698.98271
698.84474
698.38861
697.37017
695.44056
692.12158
686.78407
678.63561
666.72669
649.98707
627.30585
597.66715
560.34716
515.16366
462.74712
404.76845
344.03727
284.37413
229.89868
186.3966
144.32063
718.41055
718.34872
718.2805
718.20533
718.12248
718.03115
717.93042
717.8193
717.69666
717.56127
717.41174
717.24653
717.06398
716.86221
716.63921
716.39281
716.12074
715.82064
715.49022
715.12735
714.73036
714.29829
713.83138
713.33163
712.80355
712.25501
711.6982
711.15054
710.6352
710.18093
709.82031
709.58545
709.49944
709.56182
709.72533
709.86187
709.71576
708.84471
706.55276
701.82615
693.29238
679.23391
657.69783
626.74131
584.85552
531.45794
467.87434
395.74505
328.3157
229.22125
730.67835
730.62809
730.57236
730.51097
730.44333
730.3688
730.28668
730.19616
730.09637
729.98633
729.86496
729.73103
729.5832
729.41994
729.23955
729.0401
728.8194
728.57497
728.304
728.00327
727.66916
727.29757
726.88389
726.42312
725.90986
725.33867
724.70443
724.00316
723.23315
722.39669
721.50243
720.5683
719.62487
718.71832
717.9117
717.2818
716.90754
716.84399
717.07436
717.43223
717.48914
716.41096
712.80681
704.60673
689.11248
663.03362
624.05947
567.04107
507.87194
378.17019
740.7594
740.71761
740.67086
740.61937
740.56264
740.50015
740.43131
740.35547
740.27189
740.17979
740.07827
739.96636
739.84298
739.70692
739.55686
739.39131
739.20861
739.00689
738.78405
738.53775
738.26529
737.96362
737.62923
737.25806
736.84538
736.38562
735.87225
735.29762
734.65287
733.92795
733.11204
732.19436
731.16598
730.02286
728.77074
727.43201
726.0545
724.72028
723.55064
722.69894
722.31832
722.48382
723.05352
723.42842
722.33815
717.20247
705.50211
678.35019
649.89323
539.64199
749.25659
749.22146
749.18163
749.13772
749.08935
749.03605
748.97732
748.91262
748.84131
748.76273
748.67611
748.58063
748.47538
748.35935
748.23141
748.09032
747.93469
747.76298
747.57346
747.36421
747.13309
746.87772
746.5954
746.28314
745.93751
745.55463
745.13
744.65838
744.13356
743.5481
742.89291
742.15684
741.32627
740.38482
739.31367
738.09301
736.70577
735.14481
733.42515
731.60158
729.79008
728.18263
727.04494
726.62932
727.09914
727.81822
728.46456
722.09772
719.57995
658.03589
756.58093
756.55103
756.51644
756.47829
756.43624
756.3899
756.33884
756.28257
756.22055
756.1522
756.07685
755.9938
755.90225
755.80134
755.69011
755.56749
755.43227
755.28312
755.11856
754.93694
754.7364
754.51491
754.27018
753.99966
753.70051
753.36954
753.00316
752.59733
752.14746
751.64833
751.09388
750.47696
749.78895
749.01912
748.15384
747.1755
746.06143
744.78335
743.30869
741.60587
739.65736
737.48246
735.17918
732.94633
731.18868
730.14919
730.88068
730.43681
735.96942
716.22764
762.99959
762.97401
762.94359
762.91001
762.87297
762.83214
762.78713
762.73751
762.68282
762.62252
762.55604
762.48276
762.40198
762.31295
762.21483
762.10668
761.98746
761.85599
761.71098
761.55097
761.37435
761.17934
760.96393
760.72591
760.4628
760.1718
759.8498
759.49329
759.09832
758.66047
758.17473
757.63545
757.03622
756.36964
755.62703
754.79787
753.86884
752.82232
751.63432
750.27186
748.69175
746.84195
744.67758
742.17755
739.45188
736.63907
734.57932
732.8114
734.84739
733.35186
768.70236
768.68043
768.65339
768.6235
768.5905
768.55411
768.51397
768.46971
768.42091
768.36708
768.30772
768.24226
768.17012
768.0906
768.00298
767.90643
767.80002
767.68271
767.55334
767.41063
767.25315
767.07931
766.88735
766.67532
766.44103
766.18203
765.89556
765.57854
765.22749
764.83849
764.40714
763.92842
763.39671
762.80562
762.14792
761.4154
760.59865
759.68659
758.66556
757.51762
756.21758
754.7281
752.99659
750.94789
748.51753
745.62971
742.4699
739.17293
736.74179
736.2539
773.82561
773.80686
773.78262
773.75578
773.72612
773.69338
773.65726
773.61741
773.57344
773.52492
773.4714
773.41237
773.34729
773.27556
773.19654
773.10947
773.01354
772.9078
772.79122
772.66264
772.52078
772.36421
772.19137
772.00052
771.7897
771.55674
771.29919
771.0143
770.69901
770.34984
769.96288
769.5337
769.05731
768.52798
767.93924
767.28371
766.55301
765.73762
764.82676
763.80803
762.66658
761.38309
759.93009
758.26343
756.31683
753.98903
751.17042
747.8264
744.12005
739.87654
778.47096
778.45505
778.43317
778.4089
778.38205
778.35238
778.31962
778.28346
778.24353
778.19945
778.15079
778.09711
778.03792
777.97268
777.9008
777.82163
777.73442
777.63831
777.53236
777.41552
777.28664
777.14441
776.98744
776.81415
776.62278
776.41138
776.17774
775.91943
775.63366
775.31736
774.96702
774.57872
774.14799
773.66979
773.13834
772.54705
771.88838
771.15369
770.33306
769.41524
768.38745
767.23523
765.9416
764.48475
762.83179
760.92735
758.68579
755.89006
752.9222
746.74594
782.71588
782.70254
782.68269
782.66062
782.63616
782.60911
782.57921
782.54618
782.50968
782.46936
782.42482
782.37567
782.32145
782.26168
782.19585
782.12335
782.04349
781.95551
781.85853
781.75161
781.63366
781.50353
781.35992
781.2014
781.0264
780.83312
780.61959
780.38358
780.12258
779.83381
779.51412
779.15998
778.76739
778.33182
777.84813
777.31046
776.7121
776.04533
775.30129
774.46969
773.53868
772.49464
771.32217
770.00376
768.52065
766.83935
764.95558
762.59959
760.51122
754.62176
786.62069
786.60973
786.59165
786.57148
786.54909
786.52429
786.49686
786.46652
786.43297
786.39588
786.35488
786.30959
786.25963
786.20456
786.14389
786.07709
786.00352
785.92249
785.83319
785.73472
785.62612
785.50631
785.3741
785.22819
785.06714
784.88931
784.69288
784.47584
784.2359
783.97052
783.67684
783.35166
782.99135
782.59183
782.14846
781.65596
781.10832
780.49869
779.81915
779.06057
778.21235
777.26206
776.19534
774.99487
773.64442
772.11103
770.42293
768.32588
766.64914
761.73823
790.23327
790.22453
790.208
790.18951
790.16893
790.1461
790.12081
790.09282
790.06184
790.02754
789.98961
789.94768
789.9014
789.85038
789.79418
789.7323
789.66418
789.58915
789.50648
789.41533
789.3148
789.20389
789.08152
788.94649
788.79745
788.63293
788.45124
788.25052
788.02869
787.78341
787.51207
787.21173
786.87909
786.51043
786.10152
785.64759
785.14319
784.58212
783.9573
783.26057
782.4825
781.61204
780.63644
779.53964
778.30662
776.90413
775.35847
773.44948
771.90393
767.76129
793.59222
793.58557
793.57042
793.55341
793.53443
793.51334
793.48995
793.46402
793.43529
793.40344
793.36819
793.32919
793.28613
793.23864
793.18634
793.12877
793.0654
792.99561
792.91872
792.83395
792.74046
792.63731
792.52352
792.39795
792.25938
792.10643
791.93756
791.75103
791.54493
791.3171
791.06513
790.78633
790.47766
790.13569
789.75658
789.33594
788.86882
788.34956
787.77175
787.12801
786.40988
785.60746
784.70943
783.70157
782.57037
781.28591
779.86665
778.12478
776.66311
772.98188
796.72907
796.72441
796.71051
796.69483
796.67728
796.65773
796.63602
796.61192
796.58518
796.55551
796.52261
796.4862
796.44597
796.4016
796.35273
796.29895
796.23975
796.17458
796.10278
796.02363
795.93632
795.84
795.73373
795.61648
795.4871
795.34431
795.18668
795.0126
794.82028
794.60774
794.37273
794.11276
793.82503
793.50639
793.15327
792.76165
792.32697
791.84408
791.30708
790.70928
790.04298
789.29925
788.46789
787.5362
786.49209
785.3096
784.00291
782.4082
781.04947
777.67895
799.66993
799.66719
799.65442
799.63993
799.62367
799.60551
799.5853
799.56284
799.53787
799.51013
799.47934
799.44523
799.40751
799.3659
799.32008
799.26965
799.21416
799.15308
799.0858
799.01162
798.92979
798.83952
798.73992
798.63003
798.50878
798.37497
798.22728
798.06419
797.88405
797.68499
797.46495
797.22159
796.95231
796.6542
796.32394
795.95783
795.55164
795.10063
794.59939
794.04178
793.42076
792.7282
791.95481
791.08915
790.12024
789.02507
787.81639
786.3466
785.09436
781.98526
802.43665
802.43576
802.42402
802.41062
802.39552
802.37861
802.35976
802.33877
802.3154
802.28939
802.26049
802.22842
802.19296
802.15381
802.1107
802.06327
802.0111
801.95367
801.89041
801.82067
801.74374
801.65886
801.5652
801.46187
801.34786
801.22206
801.08321
800.92991
800.76059
800.57353
800.36677
800.13816
799.88526
799.60535
799.29535
798.95182
798.57083
798.14799
797.67832
797.15613
796.57499
795.92742
795.20494
794.39711
793.49393
792.47453
791.35102
789.98786
788.8294
785.95654
805.04768
805.04858
805.03779
805.02538
805.01134
804.99557
804.97796
804.9583
804.93637
804.91193
804.88472
804.8545
804.82105
804.78413
804.74345
804.69872
804.64951
804.59537
804.53573
804.46997
804.39743
804.31739
804.22906
804.13161
804.02409
803.90545
803.77453
803.62998
803.47036
803.29402
803.09915
802.88371
802.64544
802.38178
802.08985
801.76644
801.4079
801.01012
800.5685
800.07777
799.53198
798.92426
798.2468
797.49004
796.64483
795.69201
794.64312
793.37291
792.294
789.63091
807.51874
807.52138
807.51146
807.49997
807.4869
807.47218
807.45569
807.43725
807.41663
807.3936
807.36793
807.33938
807.30776
807.27283
807.23436
807.19206
807.14554
807.09435
807.03798
806.97582
806.90725
806.83157
806.74805
806.65589
806.55422
806.44205
806.31825
806.1816
806.0307
805.86401
805.67982
805.47622
805.25109
805.00201
804.7263
804.42093
804.08249
803.70715
803.29061
802.82799
802.31375
801.74155
801.10418
800.39281
799.59906
798.70525
797.72229
796.53421
795.52429
793.0446
809.86332
809.86766
809.85856
809.84791
809.83575
809.82198
809.80652
809.78919
809.76977
809.74804
809.72376
809.69674
809.66677
809.63366
809.59719
809.55708
809.513
809.46451
809.4111
809.35221
809.28723
809.2155
809.13634
809.04899
808.95261
808.84628
808.72895
808.59943
808.45642
808.29845
808.12392
807.93102
807.71775
807.48183
807.22075
806.93164
806.6113
806.25616
805.86218
805.42481
804.93891
804.39856
803.79709
803.12632
802.37853
801.53735
800.61305
799.49794
798.54929
796.23041
812.09309
812.0991
812.09076
812.0809
812.06957
812.05669
812.04218
812.02587
812.00756
811.98701
811.96401
811.93837
811.90991
811.87846
811.84381
811.80572
811.76385
811.71781
811.66711
811.61119
811.54948
811.48136
811.40616
811.32318
811.23163
811.13062
811.01916
810.89613
810.76028
810.61024
810.44448
810.26129
810.05878
809.8348
809.58697
809.31258
809.00864
808.67177
808.29818
807.88362
807.42327
806.91164
806.3425
805.70826
805.00174
804.20777
803.33602
802.28604
801.39233
799.21582
814.21821
814.22585
814.21823
814.20911
814.19855
814.1865
814.17287
814.15751
814.14021
814.12076
814.09893
814.07456
814.04748
814.01754
813.98456
813.94831
813.90848
813.86468
813.81645
813.76326
813.70455
813.63972
813.56815
813.48917
813.40202
813.30587
813.19977
813.08266
812.95335
812.81054
812.65278
812.47844
812.28573
812.07263
811.83686
811.57587
811.28684
810.96656
810.61149
810.21762
809.78045
809.29483
808.75495
808.15374
807.4845
806.73308
805.90866
804.91714
804.07289
802.02348
816.24758
816.25683
816.24988
816.24146
816.23162
816.22033
816.20753
816.19304
816.17669
816.15824
816.1375
816.1143
816.08849
816.05994
816.02849
815.99393
815.95597
815.91424
815.86828
815.81759
815.76163
815.69983
815.63158
815.55626
815.47315
815.38146
815.28027
815.16859
815.04528
814.90909
814.75865
814.59242
814.40868
814.20551
813.98076
813.73203
813.4566
813.15147
812.81328
812.43827
812.0222
811.56025
811.04697
810.47575
809.84033
809.12748
808.34589
807.40714
806.60756
804.67234
818.18901
818.19984
818.19354
818.18577
818.17661
818.16604
818.154
818.14034
818.12485
818.10734
818.0876
818.06548
818.04085
818.01358
817.98354
817.95054
817.91431
817.87447
817.83061
817.78223
817.72881
817.66979
817.60462
817.53267
817.45328
817.36568
817.26902
817.16233
817.04453
816.91443
816.77072
816.61192
816.43642
816.24238
816.02774
815.79023
815.52727
815.23602
814.91329
814.55553
814.15875
813.71842
813.22943
812.68556
812.08097
811.4032
810.66056
809.76968
809.01065
807.17851
820.04944
820.06183
820.05613
820.04898
820.04046
820.03057
820.01925
820.00635
819.99168
819.97503
819.95623
819.93511
819.91156
819.88548
819.85675
819.82519
819.79055
819.75248
819.71056
819.66431
819.61323
819.55679
819.49445
819.42562
819.34966
819.26585
819.17337
819.07128
818.95857
818.83408
818.69657
818.54463
818.37672
818.19108
817.98576
817.75857
817.50708
817.22858
816.92005
816.57813
816.19906
815.77856
815.31182
814.793
814.2166
813.5709
812.86382
812.01654
811.29448
809.55584
821.835
821.84894
821.84382
821.83725
821.82934
821.82008
821.80943
821.79725
821.78335
821.76751
821.74957
821.72939
821.70685
821.68187
821.65435
821.62413
821.59096
821.55453
821.51441
821.47014
821.42124
821.36719
821.30747
821.24153
821.16875
821.08845
820.99983
820.90201
820.794
820.67471
820.54293
820.39734
820.23643
820.05856
819.86183
819.64418
819.40328
819.13653
818.84109
818.51377
818.151
817.74875
817.30248
816.80667
816.25616
815.63988
814.96538
814.15798
813.46976
811.8163
823.55119
823.56665
823.56209
823.55607
823.54874
823.54008
823.53007
823.51856
823.50537
823.4903
823.47317
823.45385
823.43225
823.4083
823.38191
823.35293
823.32114
823.28623
823.24779
823.20536
823.15848
823.10665
823.04938
822.98612
822.9163
822.83925
822.75422
822.66036
822.55672
822.44225
822.31579
822.17607
822.02167
821.85099
821.66223
821.45341
821.22229
820.96643
820.68309
820.36925
820.02154
819.63613
819.20874
818.73416
818.2075
817.61829
816.97377
816.20299
815.54584
813.97029
825.20292
825.21989
825.21586
825.21038
825.20359
825.1955
825.18609
825.17522
825.1627
825.14835
825.13197
825.11347
825.09274
825.06975
825.04441
825.01659
824.98609
824.9526
824.91572
824.87501
824.83002
824.78026
824.72526
824.66451
824.59744
824.52342
824.44174
824.35156
824.25198
824.14199
824.02048
823.88623
823.73787
823.57387
823.39251
823.19188
822.96986
822.72409
822.45197
822.15063
821.81687
821.44705
821.03714
820.58218
820.07757
819.51336
818.8965
818.15945
817.53095
816.02693
826.79461
826.81308
826.80956
826.80459
826.79832
826.79077
826.78193
826.77166
826.75978
826.7461
826.73044
826.71269
826.69279
826.67069
826.64633
826.6196
826.5903
826.55813
826.52272
826.48362
826.4404
826.39258
826.3397
826.28128
826.21678
826.1456
826.06703
825.98029
825.88451
825.7787
825.66181
825.53265
825.38992
825.23214
825.05767
824.86467
824.65111
824.41472
824.15303
823.86331
823.5425
823.18717
822.79347
822.35672
821.87253
821.33148
820.74022
820.03434
819.43233
817.99421
828.33025
828.3502
828.34718
828.34269
828.33693
828.32989
828.3216
828.3119
828.30062
828.28756
828.27258
828.25554
828.23641
828.21515
828.19171
828.166
828.13783
828.10691
828.07287
828.03528
827.99371
827.9477
827.89681
827.84058
827.77849
827.70996
827.63431
827.55079
827.45854
827.35665
827.24406
827.11967
826.9822
826.83023
826.66219
826.47631
826.27064
826.043
825.79104
825.51213
825.20339
824.86154
824.48293
824.0631
823.59791
823.07837
822.51087
821.83388
821.25643
819.87921
829.81346
829.83488
829.83233
829.82832
829.82302
829.81649
829.8087
829.79955
829.78884
829.77638
829.76203
829.74567
829.72726
829.70679
829.68422
829.65946
829.63235
829.6026
829.56985
829.53368
829.49366
829.44935
829.40034
829.34616
829.28632
829.22028
829.14737
829.06686
828.97794
828.8797
828.77116
828.65122
828.51867
828.37215
828.21012
828.0309
827.8326
827.61314
827.37026
827.10146
826.80398
826.47471
826.11017
825.70612
825.25863
824.75911
824.21373
823.5636
823.00898
821.6882
831.24751
831.27039
831.2683
831.26474
831.2599
831.25384
831.24655
831.23791
831.22774
831.21585
831.2021
831.18637
831.16865
831.14891
831.12716
831.10331
831.07719
831.04854
831.017
830.98217
830.94361
830.90091
830.85365
830.8014
830.74369
830.67998
830.60964
830.53196
830.44616
830.35136
830.24661
830.13086
830.00292
829.8615
829.70512
829.53214
829.34074
829.12894
828.89457
828.63523
828.34828
828.03077
827.67939
827.29009
826.85913
826.37831
825.85355
825.22844
824.69511
823.4268
832.63539
832.65972
832.65808
832.65495
832.65055
832.64494
832.63812
832.62998
832.62032
832.60898
832.59579
832.58066
832.56358
832.54455
832.52356
832.50056
832.47538
832.44777
832.41738
832.38381
832.34663
832.30544
832.25983
832.2094
832.15369
832.09218
832.02426
831.94925
831.86638
831.77482
831.67363
831.56181
831.43822
831.30159
831.15051
830.98338
830.79847
830.59387
830.36747
830.117
829.83993
829.53345
829.19438
828.8189
828.40341
827.94008
827.43461
826.83288
826.31944
825.10001
833.97983
834.00559
834.00439
834.00168
833.99771
833.99253
833.98616
833.97849
833.96933
833.95849
833.94584
833.93128
833.91481
833.89644
833.87618
833.85398
833.82969
833.80307
833.77376
833.74138
833.7055
833.66574
833.6217
833.57298
833.51915
833.45971
833.39408
833.32158
833.24148
833.15297
833.05514
832.94703
832.82752
832.69541
832.54931
832.3877
832.20889
832.01104
831.79214
831.55
831.28222
830.98609
830.65859
830.29607
829.8951
829.44816
828.96078
828.38093
827.88611
826.71235
835.28333
835.31051
835.30973
835.30743
835.30387
835.2991
835.29317
835.28595
835.27726
835.26692
835.25477
835.24076
835.22486
835.20711
835.18754
835.1661
835.14266
835.11697
835.08869
835.05743
835.02279
834.98437
834.94181
834.89471
834.84267
834.78519
834.72171
834.65159
834.57411
834.48847
834.39381
834.28919
834.17354
834.04569
833.90429
833.74787
833.57481
833.38333
833.17149
832.9372
832.67815
832.39176
832.07515
831.72481
831.33748
830.90595
830.43555
829.87622
829.39888
828.26787
836.54817
836.57677
836.5764
836.57449
836.57132
836.56697
836.56145
836.55466
836.54643
836.53655
836.52489
836.51139
836.49604
836.47889
836.45996
836.43925
836.4166
836.39179
836.36449
836.3343
836.30082
836.26369
836.22253
836.17697
836.12661
836.07099
836.00955
835.94167
835.86666
835.78375
835.69209
835.59077
835.47877
835.35493
835.21797
835.06646
834.89883
834.71335
834.50818
834.28128
834.03046
833.75325
833.4469
833.10804
832.73356
832.31653
831.8621
831.32207
830.86116
829.77025
837.77646
837.80647
837.8065
837.80498
837.8022
837.79823
837.79311
837.78674
837.77894
837.76951
837.75832
837.7453
837.73047
837.71388
837.69558
837.67554
837.65366
837.62969
837.60331
837.57413
837.54177
837.50585
837.46602
837.42192
837.37316
837.31929
837.25979
837.19404
837.12137
837.04103
836.95222
836.85403
836.74547
836.62544
836.49268
836.34581
836.18331
836.00351
835.80463
835.58472
835.34167
835.07313
834.77645
834.44843
834.08606
833.6827
833.24333
832.72148
832.27605
831.22283
838.97016
839.00157
839.00199
839.00084
838.99843
838.99484
838.99011
838.98414
838.97675
838.96775
838.957
838.94445
838.93011
838.91406
838.89634
838.87696
838.8558
838.83263
838.80713
838.77892
838.74761
838.71285
838.67427
838.63156
838.58432
838.53212
838.47446
838.41073
838.34028
838.26239
838.17626
838.08104
837.97575
837.85932
837.73054
837.58807
837.43042
837.256
837.06307
836.84977
836.61408
836.35373
836.0662
835.74842
835.3975
835.00706
834.58191
834.07719
833.64637
832.62866
840.13105
840.16385
840.16465
840.16387
840.16182
840.15859
840.15424
840.14866
840.14166
840.13307
840.12275
840.11064
840.09678
840.08124
840.06408
840.04532
840.02484
840.00244
839.97777
839.95048
839.92018
839.88651
839.84914
839.80774
839.76195
839.71134
839.65542
839.59361
839.52527
839.4497
839.36613
839.27372
839.17154
839.05853
838.93353
838.79522
838.64218
838.47285
838.28556
838.07853
837.84981
837.59722
837.31835
837.01026
836.67018
836.29195
835.88025
835.39173
834.97471
833.99049
841.26079
841.29498
841.29616
841.29573
841.29403
841.29115
841.28717
841.28196
841.27535
841.26715
841.25723
841.24555
841.23214
841.21708
841.20046
841.18229
841.16247
841.14079
841.11693
841.09052
841.06117
841.02855
840.99233
840.95218
840.90776
840.85866
840.80441
840.74442
840.6781
840.60473
840.52359
840.43386
840.33463
840.22487
840.10345
839.9691
839.82043
839.65594
839.47401
839.27292
839.0508
838.80557
838.53492
838.23601
837.90621
837.53955
837.14058
836.6674
836.26345
835.31088
842.36094
842.39651
842.39804
842.39796
842.39661
842.39407
842.39044
842.38559
842.37935
842.37153
842.36201
842.35073
842.33775
842.32316
842.30704
842.28944
842.27025
842.24926
842.22616
842.20059
842.17216
842.14054
842.1054
842.06645
842.02334
841.97569
841.92301
841.86477
841.80036
841.7291
841.65028
841.56309
841.46666
841.36
841.24199
841.11141
840.96689
840.80699
840.63015
840.43471
840.21886
839.98062
839.71777
839.42759
839.10753
838.75186
838.36497
837.90632
837.51476
836.59216
843.43292
843.46985
843.47175
843.47201
843.47098
843.46878
843.46549
843.46099
843.45511
843.44765
843.4385
843.42762
843.41505
843.4009
843.38528
843.36821
843.34962
843.3293
843.30693
843.28216
843.2546
843.22393
843.18984
843.15203
843.11018
843.0639
843.01273
842.95615
842.89356
842.82431
842.74769
842.66293
842.56918
842.46546
842.35071
842.2237
842.08314
841.92762
841.75562
841.56555
841.35567
841.12408
840.86864
840.58675
840.27596
839.93072
839.5553
839.11045
838.73066
837.83645
844.47806
844.51636
844.51861
844.5192
844.51849
844.51662
844.51365
844.50949
844.50396
844.49686
844.48807
844.47755
844.46538
844.45166
844.4365
844.41995
844.40193
844.38224
844.36058
844.33657
844.30986
844.2801
844.24701
844.21029
844.16963
844.12466
844.07494
844.01995
843.9591
843.89177
843.81725
843.73481
843.64361
843.5427
843.43104
843.30745
843.17067
843.01931
842.85192
842.66696
842.46277
842.2375
841.98913
841.71512
841.41315
841.07784
840.71334
840.2816
839.91299
839.04574
845.49761
845.53726
845.53986
845.54077
845.54038
845.53883
845.53618
845.53235
845.52715
845.52039
845.51194
845.50179
845.48999
845.47668
845.46197
845.44591
845.42844
845.40937
845.38837
845.3651
845.33919
845.31031
845.27817
845.2425
845.20298
845.15927
845.11093
845.05746
844.99827
844.93277
844.86026
844.78004
844.69127
844.59305
844.48434
844.36402
844.23083
844.08344
843.92045
843.74037
843.54159
843.32236
843.08071
842.81423
842.52065
842.1948
841.84069
841.42144
841.06347
840.22185
846.49272
846.53372
846.53666
846.53789
846.53781
846.53656
846.53423
846.53072
846.52584
846.51941
846.5113
846.50149
846.49006
846.47713
846.46285
846.44727
846.43033
846.41184
846.39149
846.36892
846.34378
846.31574
846.28452
846.24984
846.21142
846.16892
846.1219
846.06987
846.01228
845.94853
845.87795
845.79984
845.7134
845.61775
845.51187
845.39465
845.2649
845.12131
844.96252
844.78709
844.59349
844.38001
844.14478
843.88547
843.59991
843.28307
842.93888
842.53152
842.1837
841.36646
847.46448
847.50683
847.5101
847.51164
847.51187
847.51092
847.50889
847.50569
847.50112
847.495
847.48722
847.47775
847.46666
847.45411
847.44024
847.42512
847.40868
847.39076
847.37103
847.34914
847.32473
847.2975
847.26715
847.23344
847.19607
847.15472
847.10897
847.05833
847.00227
846.94019
846.87146
846.79537
846.71116
846.61796
846.51478
846.40055
846.27408
846.13412
845.97934
845.80836
845.61969
845.41172
845.18262
844.93016
844.65225
844.34402
844.00929
843.61328
843.27514
842.48115
848.41391
848.45759
848.46119
848.46304
848.46356
848.4629
848.46117
848.45827
848.45401
848.4482
848.44073
848.43158
848.42083
848.40864
848.39516
848.38048
848.36453
848.34714
848.32801
848.30677
848.28308
848.25662
848.22711
848.19432
848.15796
848.11772
848.07318
848.02388
847.96928
847.90881
847.84184
847.7677
847.68562
847.59477
847.49418
847.3828
847.25948
847.12299
846.97205
846.80532
846.62138
846.41866
846.19542
845.94952
845.67892
845.37892
845.05323
844.66806
844.33917
843.56735
849.34195
849.38696
849.39088
849.39303
849.39384
849.39348
849.39204
849.38943
849.38546
849.37995
849.37278
849.36394
849.35351
849.34167
849.32857
849.31431
849.29884
849.28197
849.26341
849.2428
849.21979
849.19407
849.16537
849.13347
849.09808
849.0589
849.01553
848.9675
848.91431
848.85538
848.79011
848.71783
848.6378
848.5492
848.45109
848.34245
848.22213
848.08897
847.94171
847.77905
847.59963
847.40195
847.18432
846.94468
846.68109
846.38896
846.07192
845.69711
845.37707
844.62643
850.2495
850.29584
850.30008
850.30252
850.30362
850.30353
850.30237
850.30005
850.29637
850.29115
850.28427
850.27573
850.26561
850.25411
850.24138
850.22752
850.2125
850.19613
850.17812
850.15812
850.13577
850.11076
850.08285
850.05179
850.01733
849.97917
849.93692
849.89013
849.83829
849.78084
849.7172
849.6467
849.56864
849.4822
849.38648
849.28045
849.16302
849.03305
848.88931
848.73056
848.55547
848.36261
848.15036
847.91672
847.65983
847.37525
847.06649
846.7016
846.39002
845.65964
851.1374
851.18506
851.18961
851.19234
851.19372
851.19391
851.19303
851.19098
851.18758
851.18265
851.17605
851.16779
851.15798
851.14679
851.13442
851.12095
851.10636
851.09048
851.07301
851.05358
851.03187
851.00755
850.98039
850.95015
850.91659
850.87941
850.83824
850.79263
850.74209
850.68607
850.62398
850.55521
850.47903
850.39467
850.30123
850.19772
850.08306
849.95615
849.81579
849.66078
849.48985
849.30161
849.09452
848.86664
848.61618
848.33882
848.038
847.68262
847.37915
846.66815
852.00643
852.05541
852.06027
852.06329
852.06494
852.0654
852.06478
852.06301
852.05989
852.05522
852.0489
852.04092
852.0314
852.02053
852.00849
851.9954
851.98123
851.96582
851.94886
851.93
851.90889
851.88524
851.8588
851.82935
851.79666
851.76043
851.72029
851.67582
851.62653
851.57188
851.5113
851.44417
851.36981
851.28745
851.1962
851.0951
850.98312
850.85913
850.72202
850.57061
850.40367
850.21987
850.01772
849.79537
849.55108
849.28066
848.98745
848.64119
848.3455
847.65307
852.85735
852.90763
852.9128
852.9161
852.91802
852.91874
852.9184
852.91689
852.91403
852.90963
852.90358
852.89587
852.88663
852.87605
852.86434
852.85162
852.83786
852.8229
852.80643
852.78811
852.7676
852.74459
852.71885
852.69016
852.6583
852.62298
852.58384
852.54047
852.49238
852.43905
852.37992
852.31438
852.24177
852.16132
852.07219
851.97341
851.86398
851.74283
851.60883
851.46087
851.29777
851.11823
850.92083
850.70379
850.46543
850.20167
849.91577
849.57826
849.29004
848.61542
853.69086
853.74244
853.74791
853.75149
853.75367
853.75465
853.75456
853.75332
853.75072
853.74658
853.74078
853.73333
853.72436
853.71408
853.70269
853.69031
853.67695
853.66242
853.64644
853.62864
853.6087
853.58631
853.56124
853.53328
853.50223
853.46779
853.42962
853.38731
853.34037
853.28831
853.23057
853.16657
853.09564
853.01704
852.92994
852.8334
852.72643
852.60799
852.477
852.33236
852.17294
851.9975
851.80467
851.59273
851.36006
851.1027
850.82384
850.49473
850.21369
849.55616
854.50761
854.56049
854.56626
854.57011
854.57255
854.57378
854.57395
854.57296
854.57061
854.56672
854.56118
854.55398
854.54528
854.53527
854.52419
854.51215
854.49917
854.48506
854.46954
854.45226
854.43286
854.41107
854.38665
854.35941
854.32912
854.29554
854.2583
854.21701
854.17119
854.12036
854.06396
854.00143
853.93212
853.85531
853.77016
853.67578
853.57118
853.45535
853.32725
853.1858
853.02992
852.85843
852.67
852.46297
852.23578
851.98458
851.71248
851.39145
851.11731
850.47621
855.30823
855.3624
855.36847
855.37258
855.37528
855.37677
855.37718
855.37644
855.37434
855.3707
855.3654
855.35845
855.35
855.34026
855.32947
855.31777
855.30515
855.29146
855.27639
855.25959
855.24073
855.21952
855.19573
855.16917
855.13964
855.10687
855.07053
855.03022
854.98549
854.93583
854.88074
854.81963
854.75188
854.67678
854.59352
854.50122
854.39891
854.28559
854.16027
854.0219
853.86944
853.70174
853.51754
853.31524
853.09333
852.84806
852.58246
852.26921
852.00171
851.3764
856.09332
856.14878
856.15513
856.15952
856.16247
856.1642
856.16486
856.16436
856.1625
856.1591
856.15403
856.14732
856.13912
856.12965
856.11915
856.10776
856.0955
856.0822
856.06756
856.05125
856.0329
856.01225
855.98907
855.96317
855.93436
855.90239
855.86692
855.82756
855.78387
855.73536
855.68151
855.62178
855.55554
855.4821
855.40066
855.31035
855.21025
855.09936
854.97671
854.84131
854.69214
854.5281
854.34798
854.15024