/*--------------------------------*- C++ -*----------------------------------*\
| =========                 |                                                 |
| \\      /  F ield         | OpenFOAM: The Open Source CFD Toolbox           |
|  \\    /   O peration     | Version:  4.0                                   |
|   \\  /    A nd           | Web:      www.OpenFOAM.org                      |
|    \\/     M anipulation  |                                                 |
\*---------------------------------------------------------------------------*/
FoamFile
{
    version     2.0;
    format      ascii;
    class       volScalarField;
    location    "746";
    object      ILambda_11_0;
}
// * * * * * * * * * * * * * * * * * * * * * * * * * * * * * * * * * * * * * //

dimensions      [1 0 -3 0 0 0 0];

internalField   nonuniform List<scalar> 
5000
(
498.64935
499.71887
500.89511
502.1877
503.60791
505.16798
506.88123
508.76214
510.82639
513.09089
515.57385
518.29473
521.27427
524.53438
528.09803
531.98903
536.23175
540.85065
545.86973
551.31175
557.19725
563.54331
570.36207
577.65892
585.43052
593.66251
602.32727
611.38169
620.76542
630.39991
640.18876
650.01996
659.77047
669.31356
678.52887
687.31435
695.59866
703.35165
710.5896
717.37281
723.79392
729.95855
735.96275
741.8762
747.72992
753.54388
759.2479
765.09764
769.94765
778.79708
639.50774
640.30722
641.18075
642.13359
643.17196
644.30238
645.53163
646.86669
648.31467
649.88273
651.5779
653.40702
655.37645
657.49192
659.75824
662.17896
664.75601
667.4893
670.37629
673.41147
676.58594
679.88696
683.2976
686.79659
690.35835
693.95346
697.54953
701.11272
704.60989
708.01156
711.29542
714.45031
717.48011
720.4068
723.27185
726.13474
729.06779
732.1472
735.44091
738.9958
742.82768
746.91809
751.22
755.67318
760.21712
764.82435
769.42088
774.23704
778.2669
785.87296
681.17128
681.48669
681.83131
682.20701
682.61623
683.06151
683.54553
684.07107
684.641
685.25826
685.92584
686.64675
687.42399
688.26054
689.15929
690.12305
691.15451
692.25624
693.43067
694.68019
696.00715
697.41402
698.90355
700.47903
702.14455
703.90536
705.76829
707.74207
709.8376
712.06806
714.44863
716.99572
719.72572
722.6529
725.78693
729.13001
732.6744
736.40111
740.28059
744.2762
748.35011
752.47067
756.61828
760.78902
764.98742
769.2384
773.49995
777.99829
781.77333
788.95413
702.8789
703.08058
703.30185
703.5442
703.80953
704.09988
704.41746
704.76465
705.144
705.55826
706.01037
706.50344
707.04083
707.62607
708.26295
708.95545
709.70778
710.52438
711.40992
712.36927
713.40754
714.53001
715.74212
717.04946
718.45766
719.97229
721.59876
723.34209
725.20671
727.19613
729.31264
731.55696
733.92798
736.42265
739.03612
741.76222
744.5944
747.52698
750.55649
753.68274
756.90894
760.24071
763.68352
767.2409
770.9081
774.68965
778.52632
782.61669
786.05847
792.69526
718.51364
718.66673
718.83475
719.01903
719.22107
719.44251
719.68514
719.95087
720.24178
720.56011
720.90828
721.28887
721.70467
722.15863
722.65393
723.1939
723.78212
724.42231
725.11841
725.87451
726.69487
727.58388
728.54601
729.58582
730.70787
731.9167
733.21676
734.61235
736.10757
737.70627
739.41202
741.22809
743.15747
745.20293
747.36706
749.65228
752.06086
754.59471
757.25514
760.04234
762.95495
765.98974
769.14151
772.40462
775.77007
779.24335
782.77387
786.5562
789.74386
795.95596
730.76173
730.88559
731.02134
731.1703
731.3337
731.51291
731.7094
731.92478
732.16077
732.41924
732.70222
733.01189
733.35059
733.72086
734.12537
734.56703
735.04891
735.57426
736.14654
736.76938
737.4466
738.18219
738.98028
739.84516
740.78121
741.79291
742.88478
744.06136
745.32717
746.68663
748.14404
749.70351
751.36888
753.14367
755.03097
757.03335
759.15282
761.39069
763.74758
766.22343
768.81762
771.52915
774.35667
777.29945
780.35355
783.52759
786.77495
790.27956
793.24005
799.06727
740.82885
740.93253
741.04579
741.17013
741.30654
741.45622
741.62042
741.8005
741.99791
742.21427
742.45131
742.71089
742.99504
743.30594
743.64593
744.01752
744.4234
744.86645
745.34972
745.87644
746.45004
747.07413
747.75248
748.48902
749.28784
750.15315
751.08925
752.10055
753.19146
754.3664
755.62974
756.98577
758.4386
759.99214
761.65006
763.41568
765.29198
767.28154
769.38651
771.60857
773.94892
776.40829
778.98662
781.68397
784.49679
787.43328
790.44914
793.7197
796.48567
801.97605
749.31561
749.40473
749.50158
749.60792
749.72461
749.85267
749.99322
750.14742
750.31654
750.50198
750.70525
750.92798
751.17194
751.43905
751.73137
752.05113
752.4007
752.78265
753.1997
753.65478
754.15097
754.69155
755.27998
755.91988
756.61505
757.36945
758.18715
759.07237
760.0294
761.0626
762.17636
763.37503
764.66294
766.04427
767.52306
769.10315
770.78807
772.58107
774.485
776.50228
778.63486
780.88423
783.2512
785.7367
788.3384
791.06524
793.87611
796.93909
799.53276
804.72231
756.63191
756.71018
756.79459
756.88727
756.98897
757.1006
757.22316
757.35766
757.50524
757.66711
757.84462
758.03922
758.25247
758.48609
758.74191
759.02192
759.32826
759.66323
760.0293
760.4291
760.86546
761.34137
761.86
762.42472
763.03904
763.70668
764.43148
765.21746
766.06873
766.98953
767.98416
769.05697
770.21231
771.45448
772.7877
774.21608
775.7435
777.37364
779.10987
780.95523
782.91237
784.98354
787.1704
789.47476
791.89524
794.44126
797.07423
799.95541
802.39749
807.31831
763.04416
763.11416
763.18886
763.27088
763.36086
763.45965
763.56814
763.68724
763.81795
763.96136
764.11868
764.29122
764.48037
764.68767
764.91479
765.16352
765.43579
765.73369
766.05948
766.41556
766.80451
767.22909
767.69222
768.19703
768.7468
769.34499
769.99525
770.70138
771.46731
772.29713
773.19502
774.16524
775.21212
776.33999
777.55316
778.85586
780.25222
781.7462
783.34154
785.04173
786.84992
788.76894
790.80107
792.94876
795.21143
797.59886
800.07479
802.79435
805.1013
809.78011
768.74166
768.80525
768.87219
768.9457
769.02631
769.11481
769.21203
769.31879
769.43598
769.56459
769.70572
769.86053
770.03032
770.21647
770.42049
770.64403
770.88884
771.15684
771.45009
771.7708
772.12136
772.5043
772.92236
773.37842
773.87556
774.41704
775.00629
775.64691
776.34266
777.09745
777.91534
778.80048
779.7571
780.78953
781.90207
783.09903
784.38468
785.76314
787.23843
788.81432
790.49435
792.2818
794.17944
796.19028
798.31439
800.56185
802.89851
805.47386
807.65997
812.12003
773.86046
773.91903
773.97966
774.04623
774.11918
774.19928
774.2873
774.38398
774.49012
774.60663
774.7345
774.87482
775.02875
775.19756
775.38265
775.58551
775.80777
776.05119
776.31767
776.60925
776.92815
777.27673
777.65752
778.07323
778.52675
779.02113
779.55961
780.14562
780.78274
781.47472
782.22546
783.03899
783.91946
784.87111
785.89822
787.00513
788.19613
789.4755
790.84738
792.31579
793.88455
795.55726
797.3371
799.2275
801.2291
803.3522
805.56456
808.01044
810.08781
814.34919
778.50199
778.55659
778.61199
778.67281
778.73942
778.81255
778.89293
778.98123
779.07819
779.18464
779.3015
779.42976
779.57049
779.72487
779.89418
780.07981
780.28325
780.50615
780.75026
781.01749
781.30989
781.62967
781.9792
782.36101
782.77783
783.23253
783.72819
784.26805
784.85553
785.49423
786.18789
786.94042
787.75585
788.63833
789.5921
790.62146
791.73072
792.92422
794.20619
795.58082
797.05213
798.62397
800.29983
802.08349
803.97605
805.988
808.08878
810.41786
812.39695
816.47717
782.74354
782.79502
782.84603
782.90202
782.96328
783.03054
783.1045
783.18575
783.27498
783.37295
783.48053
783.59861
783.72821
783.87041
784.0264
784.19747
784.38501
784.59054
784.81572
785.06231
785.33224
785.62758
785.95055
786.30354
786.68911
787.10999
787.56908
788.06949
788.61446
789.20744
789.85205
790.55204
791.31135
792.13401
793.0242
793.98615
795.02418
796.14262
797.34578
798.63794
800.02326
801.50579
803.08927
804.77774
806.57271
808.48476
810.4849
812.70811
814.59797
818.51238
786.64535
786.69436
786.74165
786.79354
786.85026
786.91252
786.98099
787.05624
787.13888
787.22963
787.32929
787.4387
787.5588
787.6906
787.83521
787.99383
788.16777
788.35846
788.56742
788.79633
789.047
789.32136
789.62153
789.94974
790.30842
790.70016
791.12772
791.59404
792.10225
792.65564
793.25769
793.91203
794.62246
795.39293
796.22752
797.1304
798.10585
799.15819
800.29176
801.51088
802.81983
804.22279
805.7237
807.32681
809.03397
810.85581
812.76475
814.8916
816.70014
820.46226
790.25521
790.3023
790.34639
790.39476
790.44757
790.50553
790.56929
790.63938
790.71634
790.80087
790.89371
790.99565
791.10756
791.23039
791.36519
791.51307
791.67527
791.85312
792.04808
792.2617
792.49569
792.75189
793.03228
793.33899
793.67432
794.04073
794.44084
794.87748
795.35362
795.87242
796.43723
797.05156
797.7191
798.44368
799.22929
800.08003
801.00012
801.99385
803.06555
804.2196
805.46031
806.79199
808.21871
809.74488
811.37264
813.11266
814.93862
816.97744
818.71156
822.33339
793.61166
793.65726
793.6986
793.74393
793.79334
793.84756
793.90724
793.97284
794.04488
794.124
794.21092
794.30636
794.41115
794.52619
794.65244
794.79098
794.94296
795.10963
795.29237
795.49265
795.71209
795.95242
796.21553
796.50344
796.81833
797.16254
797.53859
797.94915
798.3971
798.88546
799.41745
799.99648
800.62611
801.31006
802.05223
802.85665
803.72745
804.66889
805.6853
806.78103
807.96046
809.22795
810.58767
812.04419
813.59986
815.26535
817.01551
818.97362
820.63944
824.13163
796.7462
796.79069
796.82963
796.8723
796.91875
796.9697
797.0258
797.08748
797.15521
797.22961
797.31133
797.40109
797.49965
797.60785
797.72662
797.85696
797.99996
798.15682
798.32883
798.5174
798.72404
798.95042
799.19832
799.46966
799.76652
800.09115
800.44593
800.83345
801.25645
801.71784
802.22073
802.7684
803.36431
804.01207
804.71549
805.47851
806.3052
807.19975
808.16646
809.20967
810.33378
811.5432
812.84217
814.23536
815.72531
817.32266
819.00335
820.88721
822.49014
825.86222
799.6849
799.72859
799.76543
799.80577
799.84961
799.89769
799.95064
800.00886
800.0728
800.14303
800.22018
800.30493
800.39798
800.50016
800.61232
800.73543
800.87051
801.0187
801.18123
801.35943
801.55475
801.76877
802.00319
802.25984
802.54072
802.84795
803.18385
803.55087
803.95165
804.38901
804.86593
805.38559
805.95133
806.56669
807.23536
807.96119
808.74818
809.60047
810.5223
811.51801
812.59197
813.74863
814.99229
816.32767
817.75749
819.29235
820.90915
822.72451
824.26934
827.52986
802.44958
802.49275
802.52773
802.56601
802.60755
802.65307
802.70324
802.7584
802.81897
802.88551
802.95861
803.03891
803.12709
803.22392
803.33022
803.4469
803.57494
803.71543
803.86952
804.03851
804.22375
804.42677
804.64917
804.89273
805.15934
805.45105
805.77007
806.11875
806.49965
806.91547
807.3691
807.86361
808.40225
808.98844
809.62578
810.31805
811.06917
811.8832
812.76434
813.71688
814.7452
815.85374
817.04684
818.32929
819.70391
821.18125
822.73912
824.4911
825.98215
829.13878
805.05867
805.10153
805.13487
805.17134
805.21082
805.25407
805.30175
805.35419
805.41177
805.47502
805.54451
805.62084
805.70467
805.79673
805.8978
806.00874
806.1305
806.26411
806.41067
806.57141
806.74764
806.9408
807.15245
807.38428
807.63809
807.91587
808.21973
808.55194
808.91495
809.31139
809.74403
810.21585
810.73001
811.28983
811.89882
812.56067
813.27922
814.05847
814.90256
815.81575
816.80237
817.86687
819.01361
820.24741
821.5712
822.99546
824.49882
826.19201
827.63311
830.69281
807.52788
807.57063
807.60251
807.63735
807.67499
807.71622
807.76168
807.81168
807.86658
807.92688
807.99314
808.06592
808.14586
808.23364
808.33002
808.43582
808.55194
808.67936
808.81916
808.97249
809.14062
809.32493
809.5269
809.74816
809.99045
810.25567
810.54585
810.8632
811.21005
811.58896
812.00261
812.45388
812.94583
813.48171
814.06494
814.69911
815.38799
816.13551
816.94575
817.82291
818.77131
819.79537
820.89947
822.08842
823.36527
824.74041
826.19322
827.83174
829.22637
832.19542
809.87067
809.91349
809.94407
809.97747
810.01346
810.05286
810.09632
810.14413
810.19662
810.25428
810.31763
810.38722
810.46365
810.54758
810.63974
810.7409
810.85195
810.9738
811.1075
811.25415
811.41497
811.59128
811.78451
811.99621
812.22808
812.48193
812.75973
813.06359
813.39579
813.75878
814.15518
814.58776
815.05951
815.57358
816.1333
816.74219
817.40394
818.12241
818.90161
819.7457
820.65895
821.64577
822.71052
823.85803
825.09141
826.42096
827.82678
829.41436
830.76564
833.64978
812.09873
812.14176
812.17118
812.20327
812.23777
812.27553
812.31719
812.36303
812.41335
812.46862
812.52934
812.59605
812.66931
812.74977
812.83811
812.93509
813.04153
813.15835
813.28652
813.42712
813.58132
813.75037
813.93567
814.13872
814.36112
814.60464
814.87118
815.16278
815.48164
815.83013
816.21079
816.62632
817.07961
817.57374
818.11195
818.69768
819.33454
820.02633
820.77699
821.59062
822.47146
823.42387
824.45222
825.56133
826.75435
828.04151
829.40355
830.94354
832.25432
835.05875
814.22218
814.26557
814.29393
814.32486
814.35802
814.39428
814.43432
814.47837
814.52672
814.57983
814.63818
814.70227
814.77267
814.84997
814.93485
815.02803
815.1303
815.24255
815.3657
815.5008
815.64897
815.81144
815.98952
816.18467
816.39845
816.63256
816.88882
817.16923
817.47591
817.81115
818.17741
818.57732
819.0137
819.48953
820.00799
820.57244
821.18641
821.85361
822.57795
823.36345
824.21432
825.13487
826.12946
827.20289
828.35836
829.60601
830.92717
832.42264
833.69548
836.42497
816.24993
816.29378
816.3212
816.35107
816.38301
816.41792
816.45648
816.49891
816.54548
816.59662
816.65281
816.71454
816.78232
816.85676
816.93848
817.02821
817.12669
817.23476
817.35335
817.48343
817.62611
817.78255
817.95405
818.14199
818.34789
818.57338
818.82025
819.09041
819.38592
819.70901
820.06206
820.44763
820.86847
821.32747
821.82775
822.37257
822.96541
823.60992
824.30991
825.06937
825.89245
826.78343
827.74663
828.78685
829.90731
831.11805
832.40097
833.85468
835.09194
837.75085
818.18978
818.2342
818.26078
818.28969
818.32052
818.3542
818.39142
818.43237
818.47731
818.52667
818.58089
818.64045
818.70586
818.77768
818.85653
818.9431
819.03811
819.14238
819.25678
819.38229
819.51994
819.67087
819.83633
820.01767
820.21634
820.43395
820.67219
820.93293
821.21818
821.53009
821.87099
822.24336
822.64987
823.09335
823.57683
824.10353
824.67683
825.30031
825.97773
826.71303
827.51028
828.37375
829.3077
830.31693
831.40468
832.58087
833.82795
835.24246
836.44627
839.03862
820.04866
820.09374
820.11955
820.1476
820.17742
820.20997
820.24596
820.28557
820.32903
820.37675
820.42917
820.48676
820.54999
820.61942
820.69564
820.77932
820.87116
820.97194
821.08252
821.20382
821.33686
821.48274
821.64266
821.81793
822.00996
822.2203
822.45061
822.70269
822.97848
823.28009
823.60977
823.96995
824.36322
824.79235
825.26029
825.77019
826.32537
826.92933
827.58579
828.29861
829.07181
829.90962
830.81628
831.79653
832.85366
833.99746
835.21089
836.5885
837.76084
840.29031
821.8327
821.87853
821.90365
821.93091
821.95981
821.99133
822.0262
822.06458
822.10668
822.1529
822.20368
822.25945
822.32069
822.38793
822.46175
822.54277
822.6317
822.72928
822.83634
822.95378
823.08258
823.22381
823.37863
823.54831
823.73423
823.93787
824.16085
824.40493
824.672
824.96409
825.2834
825.63229
826.01329
826.42912
826.88264
827.37695
827.91528
828.5011
829.13803
829.82989
830.58066
831.39449
832.27561
833.22874
834.25713
835.37052
836.5523
837.89515
839.03782
841.50781
823.5474
823.59405
823.61854
823.64509
823.67314
823.70372
823.73756
823.77481
823.81567
823.86052
823.90979
823.9639
824.02331
824.08853
824.16013
824.23872
824.32496
824.41959
824.52342
824.6373
824.76219
824.89913
825.04925
825.21378
825.39404
825.5915
825.80771
826.04439
826.30337
826.58664
826.89634
827.23476
827.60439
828.00785
828.44797
828.92776
829.45042
830.01931
830.63803
831.31031
832.0401
832.8315
833.68869
834.61635
835.61776
836.70253
837.85449
839.16455
840.27921
842.69286
825.19766
825.2452
825.26912
825.29502
825.3223
825.35201
825.38491
825.42112
825.46083
825.50442
825.5523
825.60488
825.66261
825.72598
825.79554
825.87188
825.95565
826.04757
826.1484
826.259
826.38029
826.51327
826.65904
826.81879
826.99383
827.18555
827.3955
827.62531
827.8768
828.15188
828.45264
828.78134
829.14037
829.53233
829.95997
830.42623
830.93425
831.48734
832.08903
832.743
833.45313
834.22349
835.05822
835.96195
836.93797
837.99578
839.11961
840.39867
841.48685
843.84709
826.78791
826.8364
826.8598
826.88511
826.91168
826.94058
826.97261
827.00788
827.04654
827.08896
827.13557
827.18674
827.24291
827.30457
827.37225
827.44652
827.52801
827.61741
827.71548
827.82305
827.94099
828.0703
828.21205
828.36738
828.53757
828.72397
828.92809
829.15154
829.39605
829.66352
829.95597
830.27561
830.62477
831.006
831.42198
831.87561
832.36994
832.90825
833.49399
834.13079
834.82248
835.57308
836.38669
837.2679
838.21999
839.25236
840.34962
841.59935
842.66247
844.97199
828.32212
828.37162
828.39455
828.41932
828.44523
828.4734
828.50464
828.53902
828.57671
828.61807
828.66349
828.71336
828.7681
828.82818
828.89412
828.96647
829.04585
829.13293
829.22844
829.33319
829.44804
829.57395
829.71196
829.86318
830.02886
830.21033
830.40904
830.62655
830.86457
831.12494
831.40964
831.72082
832.06078
832.43198
832.83707
833.27887
833.76039
834.28484
834.85562
835.4763
836.15066
836.88267
837.67639
838.53637
839.46588
840.47421
841.54634
842.76828
843.80764
846.06896
829.80392
829.85447
829.87698
829.90125
829.92656
829.95405
829.98455
830.01813
830.05492
830.09529
830.13962
830.18829
830.2417
830.30032
830.36465
830.43522
830.51265
830.59757
830.69071
830.79285
830.90483
831.02758
831.1621
831.30951
831.471
831.64787
831.84152
832.0535
832.28547
832.53922
832.81668
833.11996
833.4513
833.81312
834.208
834.63872
835.10822
835.61967
836.17638
836.78191
837.43996
838.15446
838.92942
839.76936
840.67752
841.66311
842.71144
843.90702
844.92384
847.1393
831.23657
831.28822
831.31034
831.33417
831.35892
831.38579
831.4156
831.44843
831.4844
831.52385
831.56717
831.61473
831.66692
831.72418
831.78702
831.85595
831.93155
832.01448
832.10542
832.20512
832.31443
832.43423
832.56553
832.70938
832.86696
833.03953
833.22848
833.4353
833.6616
833.90916
834.17985
834.47574
834.79901
835.15203
835.53733
835.95765
836.41586
836.91507
837.45857
838.04982
838.6925
839.39048
840.14772
840.96871
841.85669
842.82073
843.84649
845.01704
846.01244
848.18422
832.62307
832.67586
832.69763
832.72105
832.74529
832.77157
832.80075
832.83289
832.86809
832.9067
832.94909
832.99562
833.04667
833.10268
833.16412
833.23152
833.30544
833.38651
833.47539
833.57284
833.67966
833.79672
833.925
834.06553
834.21946
834.38802
834.57257
834.77456
834.99557
835.23733
835.50168
835.79063
836.10633
836.45109
836.8274
837.23793
837.68553
838.17323
838.70426
839.28205
839.91022
840.59259
841.33309
842.13614
843.00499
843.9486
844.95293
846.09968
847.07472
849.20485
833.96614
834.02011
834.04156
834.0646
834.08837
834.11411
834.14271
834.17421
834.2087
834.24653
834.28805
834.33362
834.38361
834.43846
834.49861
834.56459
834.63694
834.71628
834.80325
834.89859
835.00309
835.11759
835.24305
835.38048
835.531
835.69582
835.87624
836.07371
836.28976
836.52608
836.78448
837.06692
837.3755
837.7125
838.08036
838.48168
838.91927
839.39611
839.91538
840.48046
841.09492
841.76253
842.48717
843.27324
844.12394
845.04815
846.03211
847.15622
848.11187
850.20225
835.26827
835.32346
835.34462
835.36732
835.39065
835.41589
835.44395
835.47486
835.50869
835.54579
835.58651
835.63119
835.6802
835.73396
835.79292
835.85757
835.92846
836.00618
836.09138
836.18475
836.28708
836.39919
836.52202
836.65655
836.80388
836.96518
837.14175
837.33497
837.54637
837.77758
838.03039
838.30671
838.6086
838.93829
839.29818
839.69082
840.11897
840.58556
841.09372
841.64679
842.24827
842.9019
843.61152
844.38146
845.21493
846.12071
847.0853
848.18783
849.125
851.17743
836.53176
836.58819
836.6091
836.63149
836.6544
836.67918
836.70675
836.73711
836.77033
836.80675
836.84672
836.89058
836.93868
836.99143
837.04927
837.11269
837.18222
837.25843
837.34196
837.4335
837.5338
837.64368
837.76404
837.89586
838.04019
838.1982
838.37114
838.56038
838.76741
838.99382
839.24137
839.51192
839.80751
840.13032
840.48269
840.86714
841.28637
841.74328
842.24094
842.78263
843.37182
844.01219
844.70755
845.46219
846.27929
847.16752
848.11365
849.19562
850.11517
852.13131
837.75871
837.81643
837.8371
837.8592
837.88174
837.90609
837.93319
837.96304
837.9957
838.03149
838.07077
838.11386
838.1611
838.21291
838.26971
838.33199
838.40024
838.47505
838.55702
838.64684
838.74525
838.85303
838.97109
839.10035
839.24188
839.3968
839.56634
839.75184
839.95475
840.17665
840.41924
840.68436
840.97401
841.29032
841.63559
842.0123
842.4231
842.87084
843.35855
843.88946
844.467
845.09479
845.77661
846.5167
847.31821
848.18973
849.11828
850.18062
851.08334
853.06476
838.95108
839.01009
839.03055
839.05239
839.07459
839.09854
839.12521
839.15459
839.18672
839.22192
839.26056
839.30293
839.34939
839.40032
839.45615
839.51735
839.58441
839.65791
839.73843
839.82664
839.92327
840.02909
840.14498
840.27186
840.41075
840.56276
840.72909
840.91107
841.11011
841.32775
841.56567
841.82567
842.10971
842.41988
842.75844
843.12783
843.53065
843.96971
844.44799
844.96867
845.53514
846.15099
846.81993
847.54617
848.33284
849.18844
850.10021
851.14379
852.03044
853.97862
840.11064
840.17099
840.19125
840.21286
840.23473
840.25831
840.28458
840.31352
840.34517
840.37983
840.41786
840.45957
840.50529
840.5554
840.61033
840.67052
840.73648
840.80874
840.8879
840.97461
841.06957
841.17355
841.2874
841.41203
841.54845
841.69772
841.86105
842.03971
842.23509
842.44872
842.68223
842.9374
843.21613
843.52049
843.8527
844.21516
844.61042
845.04124
845.51057
846.02155
846.57751
847.18199
847.83867
848.55172
849.32425
850.16465
851.06039
852.08605
852.95733
854.87365
841.23907
841.30077
841.32086
841.34226
841.36383
841.38706
841.41296
841.4415
841.47269
841.50685
841.54432
841.58541
841.63044
841.67979
841.73387
841.79312
841.85804
841.92915
842.00703
842.09233
842.18573
842.28798
842.39992
842.52244
842.65652
842.80322
842.96371
843.13924
843.33118
843.54102
843.77036
844.02095
844.29467
844.59353
844.91973
845.27561
845.66371
846.08672
846.54755
847.04929
847.59525
848.18891
848.83392
849.5344
850.29343
851.11932
851.99975
853.00825
853.86482
855.75059
842.33791
842.40098
842.42092
842.44212
842.46342
842.48633
842.51188
842.54004
842.57081
842.6045
842.64145
842.68196
842.72635
842.77498
842.82827
842.88665
842.9506
843.02063
843.09732
843.18129
843.27322
843.37385
843.48399
843.60452
843.7364
843.88068
844.03849
844.21106
844.39975
844.60601
844.83141
845.07767
845.34664
845.6403
845.96079
846.31044
846.69172
847.10731
847.56005
848.05302
848.58945
849.17281
849.80669
850.49517
851.24131
852.05333
852.91911
853.9112
854.75368
856.61013
843.40858
843.47304
843.49285
843.51388
843.53492
843.55753
843.58276
843.61057
843.64095
843.6742
843.71066
843.75063
843.79442
843.84239
843.89495
843.9525
844.01554
844.08456
844.16012
844.24285
844.3334
844.4325
844.54095
844.65961
844.78942
844.93141
845.08669
845.25648
845.44209
845.64496
845.86663
846.1088
846.37326
846.66198
846.97706
847.32079
847.6956
848.10412
848.54918
849.03379
849.56115
850.13468
850.75794
851.43496
852.16878
852.96753
853.8193
854.79564
855.62463
857.45293
844.45242
844.51829
844.53798
844.55885
844.57966
844.60199
844.62693
844.65441
844.68442
844.71726
844.75328
844.79274
844.83597
844.88333
844.93518
844.99197
845.05415
845.12222
845.19674
845.2783
845.36755
845.46522
845.57207
845.68897
845.81682
845.95665
846.10954
846.27669
846.45939
846.65905
846.8772
847.11548
847.37567
847.6597
847.96964
848.30774
848.67639
849.0782
849.51593
849.99257
850.51128
851.07543
851.68855
852.35462
853.07666
853.86272
854.70105
855.66231
856.47834
858.27959
845.47068
845.53797
845.55756
845.57829
845.59887
845.62095
845.64561
845.67279
845.70246
845.73492
845.77052
845.80952
845.85222
845.89899
845.9502
846.00627
846.06765
846.13483
846.20836
846.28882
846.37685
846.47317
846.57852
846.69375
846.81976
846.95755
847.10818
847.27284
847.45278
847.64941
847.8642
848.09879
848.35493
848.6345
848.93956
849.2723
849.6351
850.0305
850.46126
850.9303
851.44075
851.99595
852.59937
853.25496
853.96573
854.73962
855.56509
856.51186
857.31547
859.0907
846.4645
846.53324
846.55274
846.57334
846.59372
846.61555
846.63996
846.66686
846.69622
846.72833
846.76353
846.80209
846.84431
846.89053
846.94114
846.99654
847.05716
847.12351
847.19611
847.27553
847.36242
847.45746
847.56139
847.67505
847.79932
847.93518
848.08368
848.24597
848.42331
848.61705
848.82867
849.05976
849.31204
849.58738
849.88779
850.21543
850.57265
850.96195
851.38605
851.84784
852.3504
852.89703
853.49118
854.13676
854.83672
855.59896
856.41207
857.34494
858.13661
859.88683
847.43498
847.50518
847.52459
847.54509
847.56528
847.58689
847.61106
847.6377
847.66676
847.69854
847.73338
847.77153
847.8133
847.85901
847.90905
847.96382
848.02374
848.0893
848.16103
848.23948
848.32529
848.41912
848.52172
848.6339
848.75652
848.89055
849.03703
849.19708
849.37195
849.56295
849.77155
849.99932
850.24794
850.51925
850.81523
851.13802
851.48992
851.8734
852.29114
852.746
853.24102
853.77947
854.36474
855.00071
855.69032
856.44138
857.24265
858.16216
858.94236
860.66848
848.38313
848.45479
848.47415
848.49454
848.51456
848.53596
848.55991
848.58631
848.6151
848.64658
848.68107
848.71884
848.76018
848.80543
848.85494
848.90911
848.96837
849.0332
849.1041
849.18164
849.26643
849.35913
849.46047
849.57124
849.69231
849.82461
849.96917
850.12711
850.29962
850.48803
850.69377
850.91837
851.1635
851.43098
851.72275
852.0409
852.38772
852.76565
853.17732
853.62555
854.11336
854.64397
855.22075
855.84752
856.5272
857.26753
858.05741
858.96408
859.73324
861.43617
849.3099
849.38304
849.40234
849.42265
849.44251
849.46372
849.48747
849.51364
849.54218
849.57337
849.60755
849.64496
849.68591
849.73071
849.77972
849.83334
849.89198
849.95612
850.02625
850.10292
850.18675
850.27838
850.37853
850.48798
850.60758
850.73824
850.88099
851.03691
851.20719
851.39314
851.59615
851.81774
852.05956
852.32339
852.61113
852.92487
853.26684
853.63946
854.04533
854.48723
854.96813
855.49124
856.05986
856.67781
857.34796
858.07799
858.85692
859.75124
860.5098
862.19036
850.21618
850.29082
850.31007
850.3303
850.35001
850.37104
850.39461
850.42058
850.44888
850.47981
850.51369
850.55078
850.59135
850.63573
850.68428
850.73738
850.79544
850.85893
850.92833
851.0042
851.08712
851.17774
851.27676
851.38496
851.50316
851.63228
851.7733
851.92731
852.09548
852.27908
852.4795
852.69823
852.93689
853.19723
853.48114
853.79066
854.128
854.49555
854.89586
855.3317
855.80599
856.3219
856.88272
857.4922
858.1532
858.87332
859.64174
860.52417
861.2725
862.9315
851.10281
851.17896
851.19818
851.21834
851.23792
851.25878
851.28217
851.30795
851.33603
851.36672
851.40032
851.4371
851.47733
851.52133
851.56944
851.62205
851.67957
851.74245
851.81117
851.88627
851.96834
852.058
852.15597
852.26298
852.37986
852.50751
852.6469
852.79909
852.96525
853.14662
853.34457
853.56057
853.79622
854.05324
854.33348
854.63898
854.9719
855.33459
855.72959
856.15962
856.62758
857.13659
857.6899
858.29125
858.94347
859.65406
860.41236
861.28334
862.02183
863.66003
851.97059
852.04824
852.06744
852.08755
852.107
852.12771
852.15094
852.17655
852.20443
852.23489
852.26824
852.30473
852.34464
852.38827
852.43598
852.48813
852.54514
852.60744
852.67552
852.7499
852.83116
852.91993
853.01689
853.12278
853.23841
853.36466
853.50251
853.65298
853.81722
853.99647
854.19207
854.40547
854.63825
854.89209
855.16884
855.47048
855.79917
856.15722
856.54713
856.97159
857.43347
857.93586
858.48198
859.07552
859.71928
860.42071
861.16927
862.02922
862.75823
864.37635
852.82025
852.89943
852.91861
852.93867
852.95801
852.97858
853.00166
853.02711
853.0548
853.08505
853.11816
853.15439
853.19399
853.23729
853.28462
853.33635
853.39287
853.45463
853.52211
853.59581
853.67632
853.76423
853.86024
853.96507
854.07951
854.20445
854.34082
854.48965
854.65208
854.82931
855.02267
855.23359
855.46362
855.71444
855.98784
856.28581
856.61044
856.96404
857.34908
857.7682
858.22425
858.72029
859.25949
859.84552
860.48115
861.17376
861.91294
862.76225
863.48212
865.08085
853.6525
853.73321
853.75238
853.77241
853.79164
853.81208
853.83503
853.86032
853.88785
853.9179
853.95079
853.98677
854.0261
854.06908
854.11605
854.16738
854.22346
854.28471
854.35162
854.42468
854.50447
854.59159
854.68669
854.79051
854.90384
855.02752
855.16249
855.30977
855.47046
855.64577
855.83699
856.04555
856.27296
856.52088
856.7911
857.08553
857.40629
857.75563
858.13599
858.54999
859.00045
859.49038
860.02294
860.60174
861.22955
861.91367
862.6438
863.48286
864.1939
865.77391
854.468
854.55024
854.56942
854.58942
854.60856
854.62888
854.6517
854.67686
854.70422
854.73409
854.76678
854.80253
854.8416
854.88429
854.93093
854.98188
855.03754
855.09832
855.16469
855.23715
855.31626
855.40262
855.49688
855.59975
855.712
855.83449
855.96814
856.11394
856.27298
856.44645
856.63564
856.84194
857.06686
857.31201
857.57916
857.87023
858.18727
858.53252
858.9084
859.31748
859.76257
860.24663
860.7728
861.34465
861.96493
862.64086
863.36227
864.19143
864.89396
866.45587
855.26737
855.35117
855.37034
855.39033
855.40938
855.42959
855.4523
855.47733
855.50455
855.53425
855.56676
855.60229
855.64112
855.68353
855.72987
855.78047
855.83573
855.89606
855.96193
856.03383
856.1123
856.19794
856.29139
856.39336
856.50461
856.62597
856.75835
856.90274
857.06021
857.23194
857.41919
857.62333
857.84585
858.08836
858.35259
858.64042
858.9539
859.29524
859.6668
860.07117
860.51109
860.98951
861.50953
862.07469
862.68771
863.35576
864.06876
864.88836
865.58267
867.12708
856.05122
856.13656
856.15575
856.17572
856.19471
856.21481
856.23741
856.26233
856.28942
856.31897
856.3513
856.38664
856.42524
856.4674
856.51344
856.56372
856.61861
856.67852
856.74392
856.81528
856.89315
856.97812
857.07081
857.17192
857.28221
857.4025
857.53368
857.67673
857.8327
858.00276
858.18816
858.39024
858.61048
858.85045
859.11188
859.39662
859.70669
860.04426
860.41169
860.81153
861.24648
861.71947
862.23357
862.79229