/*--------------------------------*- C++ -*----------------------------------*\
| =========                 |                                                 |
| \\      /  F ield         | OpenFOAM: The Open Source CFD Toolbox           |
|  \\    /   O peration     | Version:  4.0                                   |
|   \\  /    A nd           | Web:      www.OpenFOAM.org                      |
|    \\/     M anipulation  |                                                 |
\*---------------------------------------------------------------------------*/
FoamFile
{
    version     2.0;
    format      ascii;
    class       volScalarField;
    location    "746";
    object      ILambda_0_0;
}
// * * * * * * * * * * * * * * * * * * * * * * * * * * * * * * * * * * * * * //

dimensions      [1 0 -3 0 0 0 0];

internalField   nonuniform List<scalar> 
5000
(
495.02326
488.58499
481.60179
474.04236
465.87384
457.06394
447.58217
437.40099
426.49705
414.85267
402.45747
389.31035
375.42166
360.81558
345.53269
329.63263
313.19681
296.33088
279.16684
261.86454
244.61204
227.62461
211.1418
195.42193
180.73384
167.3452
155.50748
145.43775
137.29818
131.17498
127.05915
124.83269
124.26424
125.01827
126.6809
128.80264
130.95446
132.78803
134.08646
134.78996
134.98444
134.85206
134.59758
134.37784
134.26298
134.24304
134.26867
134.29557
134.30661
134.30455
639.27033
639.49572
639.62276
639.61473
639.43065
639.02202
638.33112
637.28961
635.8171
633.81976
631.18903
627.80047
623.51293
618.16826
611.59173
603.59353
593.97167
582.51676
569.01903
553.2782
535.11655
514.3956
491.03623
465.04226
436.52617
405.73535
373.07581
339.1293
304.65835
270.59281
237.99163
207.97472
181.62348
159.855
143.28407
132.09743
125.97387
124.08598
125.20909
127.93701
130.96402
133.35258
134.68961
135.0625
134.86338
134.52009
134.2936
134.23208
134.25959
134.29951
680.95689
680.84567
680.74727
680.66612
680.60603
680.57032
680.56143
680.58028
680.62529
680.69112
680.76689
680.83393
680.86283
680.80984
680.61222
680.18288
679.40396
678.11961
676.12825
673.17476
668.94351
663.05342
655.05702
644.44576
630.66465
613.13948
591.32018
564.74264
533.10981
496.38901
454.91691
409.4964
361.4609
312.67499
265.43813
222.26658
185.5523
157.13806
137.8993
127.46699
124.23124
125.70372
129.18087
132.486
134.4756
135.07443
134.8578
134.4734
134.25926
134.24819
702.69973
702.5281
702.33937
702.13265
701.90745
701.66375
701.40218
701.12427
700.83265
700.53136
700.22614
699.92458
699.63634
699.37295
699.1474
698.97302
698.86148
698.81953
698.84376
698.91308
698.97788
698.94558
698.66175
697.88707
696.27076
693.32281
688.38924
680.63737
669.0613
652.52077
629.82838
599.89817
561.96124
515.83765
462.2276
402.95105
341.03327
280.52158
225.95146
181.47874
149.85429
131.58543
124.69593
125.3458
129.18021
132.82036
134.73158
135.05491
134.68291
134.2985
718.36889
718.21912
718.05372
717.87098
717.66889
717.44529
717.19774
716.92361
716.62009
716.28424
715.91318
715.50425
715.05535
714.56537
714.03489
713.46691
712.86796
712.24922
711.62776
711.02752
710.47959
710.02098
709.69081
709.52194
709.52619
709.66998
709.83803
709.78282
709.06015
706.95546
702.41308
693.99109
679.8769
658.00894
626.35045
583.34204
528.50743
463.09923
390.5627
316.51584
247.97498
191.77856
152.5797
131.22064
124.42742
126.25786
130.69949
133.94379
135.06357
134.70802
730.64488
730.52256
730.38756
730.23861
730.07417
729.89259
729.69196
729.47014
729.22466
728.95273
728.65115
728.31622
727.94376
727.52896
727.06644
726.55029
725.97422
725.33203
724.61823
723.82928
722.96534
722.0328
721.04762
720.03917
719.05407
718.1583
717.435
716.97337
716.84191
717.03782
717.40354
717.50507
716.47643
712.85455
704.45967
688.41395
661.4194
620.4064
563.57407
491.64793
408.90354
323.28253
244.99862
183.61238
144.56829
127.02763
124.58444
128.74116
133.03938
134.94865
740.73212
740.62956
740.51633
740.3915
740.25379
740.10191
739.93436
739.74947
739.54535
739.31992
739.07081
738.79538
738.49058
738.15295
737.77847
737.36245
736.89937
736.38268
735.80464
735.15611
734.42654
733.60421
732.67697
731.63397
730.46873
729.18426
727.80051
726.3641
724.95855
723.71069
722.7844
722.34683
722.48604
723.05636
723.43665
722.21607
716.88371
703.68833
677.9237
634.90679
571.73856
489.4899
394.83125
299.72672
218.26772
161.34582
131.90772
124.09891
127.20581
133.14283
749.23439
749.14701
749.05041
748.94395
748.82649
748.69695
748.55411
748.39653
748.22264
748.03069
747.81874
747.58463
747.32592
747.03991
746.72355
746.3734
745.98554
745.55549
745.07803
744.547
743.955
743.29298
742.54976
741.7115
740.7613
739.67934
738.44417
737.03635
735.44594
733.6855
731.8093
729.9366
728.26984
727.08696
726.67043
727.12116
728.00701
727.84178
723.51009
709.95095
680.61381
629.20579
552.77849
455.14254
348.41088
250.36356
177.44744
137.03847
123.86624
128.18944
756.56293
756.48708
756.40308
756.31053
756.20839
756.09578
755.97164
755.83475
755.68374
755.5171
755.33317
755.13009
754.90577
754.65789
754.38387
754.08078
753.74539
753.37403
752.96259
752.50642
752.00022
751.43789
750.81224
750.11464
749.33438
748.45779
747.46709
746.33909
745.04446
743.54877
741.81791
739.83157
737.60906
735.24925
732.97685
731.16662
730.28224
730.6288
731.80984
731.86883
726.35379
707.96477
667.7901
598.86905
501.39713
386.63481
275.36724
189.51842
140.08531
124.33407
762.98527
762.91858
762.84456
762.763
762.67295
762.57367
762.46427
762.34366
762.21064
762.06389
761.90197
761.72324
761.52589
761.30789
761.06699
760.80066
760.50606
760.18
759.81891
759.41876
758.97503
758.4826
757.93569
757.32775
756.65124
755.89737
755.05548
754.11216
753.0496
751.84335
750.45952
748.85293
746.96948
744.75924
742.20969
739.4072
736.62098
734.3644
733.31798
733.91813
735.41497
734.44136
723.75055
692.5902
630.36279
533.57825
412.40757
290.63786
195.66468
133.53018
768.69135
768.63208
768.56609
768.49338
768.41305
768.32449
768.22694
768.11942
768.00085
767.87008
767.72582
767.56663
767.39091
767.19688
766.98254
766.74568
766.48378
766.19407
765.87339
765.51821
765.12453
764.68785
764.20305
763.66436
763.06523
762.39823
761.65493
760.82567
759.89911
758.86134
757.69405
756.37133
754.85485
753.08856
750.99754
748.50199
745.56463
742.29004
739.0669
736.66102
736.01793
737.40077
738.62068
732.86844
708.02783
650.24817
552.75067
424.86351
297.7896
170.96331
773.81767
773.76455
773.70517
773.63976
773.56743
773.48767
773.39986
773.30309
773.19638
773.07872
772.94895
772.80578
772.64778
772.47336
772.28075
772.06797
771.8328
771.57276
771.28506
770.96657
770.61378
770.22268
769.78877
769.30693
768.77132
768.1753
767.51127
766.77061
765.9435
765.01879
763.98367
762.82283
761.51641
760.03563
758.33511
756.34289
753.95567
751.05974
747.61329
743.82244
740.36969
738.45326
739.10455
741.19397
738.36979
717.19884
660.97878
558.83473
431.69531
245.26012
778.46592
778.418
778.36416
778.30486
778.23922
778.16683
778.08716
777.99937
777.90258
777.79586
777.67818
777.54837
777.40515
777.24708
777.07257
776.87983
776.66688
776.43149
776.17116
775.88311
775.56417
775.21081
774.81901
774.38423
773.90129
773.36431
772.76653
772.10019
771.35639
770.52489
769.594
768.55046
767.37923
766.06271
764.57813
762.89109
760.9428
758.6329
755.81369
752.33946
748.24017
744.04585
741.05581
740.87483
743.24039
741.89454
722.30293
661.39864
566.64757
350.87171
782.71363
782.67016
782.62104
782.56694
782.50697
782.44084
782.36807
782.2879
782.19952
782.10208
781.99465
781.87617
781.74546
781.60122
781.44201
781.26622
781.07203
780.85744
780.6202
780.35777
780.06733
779.74568
779.38922
778.99388
778.55504
778.06745
777.5251
776.92111
776.24756
775.49527
774.6536
773.71023
772.65099
771.45981
770.11866
768.6067
766.89633
764.94175
762.65614
759.88454
756.41569
752.13226
747.40468
743.57216
742.74153
745.08384
744.98442
720.0121
672.86303
469.11778
786.62114
786.58155
786.53649
786.48688
786.4318
786.37104
786.3042
786.23059
786.14944
786.05997
785.96134
785.85257
785.73259
785.60022
785.45412
785.29284
785.11472
784.91792
784.70041
784.45987
784.19374
783.89912
783.57275
783.21095
782.80954
782.3638
781.86834
781.317
780.70271
780.01732
779.25138
778.39385
777.43183
776.35021
775.13154
773.75612
772.20221
770.44464
768.44663
766.13607
763.36331
759.87576
755.43934
750.27651
745.85432
744.43113
748.01747
742.31482
736.20606
577.29972
790.23637
790.20018
790.15868
790.11298
790.06214
790.00605
789.94438
789.87647
789.80159
789.71904
789.62805
789.52772
789.41705
789.29497
789.16024
789.01153
788.84731
788.66592
788.46546
788.24384
787.99871
787.7274
787.42696
787.09403
786.72481
786.31501
785.85975
785.35345
784.78975
784.16133
783.45973
782.67515
781.79612
780.80914
779.69823
778.44451
777.02622
775.41925
773.5977
771.52941
769.15442
766.33054
762.77821
758.14446
752.64351
747.49832
747.36382
745.65082
761.1945
659.20481
793.59792
793.56476
793.52638
793.48412
793.43702
793.38503
793.32789
793.26498
793.19561
793.11914
793.03485
792.94191
792.8394
792.72633
792.60156
792.46385
792.3118
792.14387
791.95831
791.75321
791.52638
791.27541
790.99755
790.68974
790.3485
789.9699
789.54949
789.08219
788.56221
787.98292
787.33667
786.61464
785.80657
784.90044
783.88209
782.73461
781.43776
779.96759
778.29693
776.39716
774.23766
771.76572
768.84996
765.1539
760.33695
754.10667
750.06559
745.11344
763.27171
710.3737
796.73735
796.70691
796.6713
796.63211
796.58831
796.53995
796.48683
796.42834
796.36385
796.29276
796.21439
796.12799
796.0327
795.92759
795.81162
795.68362
795.54231
795.38625
795.21383
795.02328
794.81257
794.57948
794.32147
794.03572
793.71902
793.36777
792.97786
792.54466
792.06286
791.5264
790.92832
790.26059
789.51393
788.67751
787.73866
786.68237
785.49073
784.14205
782.6101
780.86425
778.87235
776.60151
774.01062
770.94023
767.12245
761.63808
756.17084
747.88727
758.17852
736.38793
799.68077
799.65279
799.61967
799.58322
799.54237
799.49725
799.44771
799.39318
799.33304
799.26674
799.19367
799.11309
799.02423
798.92621
798.81807
798.69871
798.56695
798.42144
798.2607
798.08307
797.88667
797.66943
797.42902
797.16279
796.86781
796.54072
796.17776
795.77463
795.32645
794.82766
794.27188
793.65176
792.95884
792.18325
791.31351
790.33612
789.23511
787.99132
786.58144
784.97673
783.14315
781.04241
778.64639
775.88963
772.71157
768.34476
763.30823
754.39296
755.40765
747.18965
802.45003
802.42429
802.39342
802.35944
802.32125
802.27903
802.23272
802.18174
802.12551
802.06352
801.99519
801.91985
801.83675
801.7451
801.64397
801.53236
801.40915
801.2731
801.1228
800.95672
800.77311
800.57003
800.34532
800.09652
799.82088
799.51532
799.17631
798.7999
798.38157
797.91617
797.39784
796.8198
796.17429
795.45229
794.64329
793.73502
792.71301
791.56007
790.25561
788.77431
787.08504
785.14796
782.92589
780.36452
777.49116
773.89214
769.75175
762.27003
757.54255
751.71928
805.06358
805.0399
805.01107
804.97933
804.94355
804.90396
804.86056
804.8128
804.7601
804.702
804.63796
804.56734
804.48946
804.40354
804.30874
804.20412
804.08863
803.96108
803.8202
803.66451
803.49241
803.30206
803.09145
802.85829
802.60002
802.31374
801.99619
801.64368
801.25202
800.81644
800.33149
799.79092
799.18756
798.51311
797.75793
796.91076
795.95839
794.8852
793.6726
792.29813
790.73456
788.94613
786.89315
784.51413
781.81974
778.62283
775.09133
769.4823
763.10709
755.33142
807.53714
807.51537
807.4884
807.4587
807.42511
807.38791
807.34716
807.30233
807.25285
807.19828
807.13813
807.07181
806.99865
806.91795
806.8289
806.73061
806.62211
806.50228
806.36992
806.22365
806.06195
805.88312
805.68526
805.46622
805.22361
804.95472
804.65651
804.32552
803.95784
803.54904
803.09404
802.58704
802.0214
801.38943
800.68224
799.88947
798.99899
797.99649
796.865
795.58418
794.12974
792.47067
790.5709
788.37218
785.84794
782.89093
779.63543
775.32719
769.72102
759.93101
809.88422
809.86422
809.83895
809.81114
809.77954
809.74453
809.70621
809.66404
809.6175
809.56617
809.50958
809.44717
809.37833
809.30239
809.21858
809.12607
809.02393
808.91114
808.78653
808.64882
808.49659
808.32823
808.14195
807.93574
807.70734
807.45422
807.17352
806.86201
806.51602
806.13141
805.70343
805.2267
804.69501
804.10122
803.43711
802.69307
801.85793
800.9185
799.85924
798.66153
797.30322
795.75681
793.99026
791.95533
789.60762
786.85812
783.75517
780.04378
775.82458
765.41639
812.11649
812.09814
812.07444
812.04836
812.0186
811.9856
811.9495
811.90979
811.86595
811.81758
811.76426
811.70545
811.64057
811.56898
811.48997
811.40276
811.30646
811.20009
811.08258
810.95271
810.80913
810.65033
810.47462
810.28011
810.06467
809.82592
809.56117
809.26737
808.9411
808.57845
808.175
807.72568
807.22471
806.66545
806.0402
805.34007
804.55469
803.6719
802.67734
801.55392
800.28129
798.83454
797.18434
795.29113
793.10988
790.56135
787.62958
784.11808
780.94019
771.08473
814.2441
814.22729
814.20506
814.18058
814.15252
814.12137
814.08733
814.04988
814.00852
813.96289
813.91258
813.85708
813.79585
813.72827
813.65369
813.57134
813.48041
813.37996
813.26897
813.1463
813.01066
812.86063
812.69461
812.51083
812.30726
812.08165
811.83148
811.55388
811.24561
810.903
810.5219
810.09755
809.62452
809.09661
808.50662
807.84626
807.10588
806.27419
805.33791
804.28127
803.08551
801.72785
800.18111
798.41086
796.37706
794.01055
791.28651
787.88383
785.22625
776.39954
816.27595
816.2606
816.23971
816.21673
816.19025
816.16081
816.12867
816.09332
816.05427
816.01117
815.96364
815.91121
815.85335
815.78949
815.71898
815.64114
815.55516
815.46017
815.3552
815.23916
815.11084
814.96889
814.8118
814.63788
814.44523
814.23171
813.99493
813.73219
813.44042
813.11618
812.75554
812.35402
811.90653
811.40722
810.84936
810.2252
809.52572
808.74038
807.85686
806.86054
805.73407
804.45654
803.0028
801.34141
799.4373
797.22727
794.71139
791.46331
788.9961
781.16782
818.21986
818.20588
818.18627
818.16468
818.13966
818.11182
818.08144
818.04805
818.01114
817.97039
817.92545
817.87586
817.82113
817.76071
817.694
817.62032
817.53893
817.449
817.3496
817.2397
817.11816
816.98369
816.83485
816.67004
816.48746
816.28509
816.06066
815.81161
815.53505
815.2277
814.88586
814.5053
814.08123
813.60814
813.07969
812.48862
811.82645
811.08337
810.24784
809.30628
808.24259
807.03744
805.66767
804.10407
802.31564
800.2411
797.90581
794.86231
792.47342
785.42664
820.08276
820.07008
820.05165
820.03137
820.00771
819.98136
819.95264
819.92107
819.88615
819.84759
819.80506
819.75813
819.70631
819.6491
819.58592
819.51612
819.439
819.35377
819.25955
819.15536
819.0401
818.91256
818.77137
818.61501
818.44177
818.24973
818.03672
817.80033
817.53781
817.24605
816.92156
816.56033
816.15782
815.70884
815.20743
814.64671
814.01876
813.31434
812.52266
811.63104
810.62448
809.48502
808.19133
806.71615
805.03192
803.07878
800.89235
798.06324
795.75609
789.28872
821.87079
821.85935
821.84204
821.82298
821.80061
821.77564
821.74847
821.7186
821.68555
821.64904
821.60877
821.56431
821.51522
821.46101
821.40111
821.33494
821.26181
821.18096
821.09157
820.99269
820.88329
820.7622
820.62814
820.47963
820.31506
820.13261
819.93021
819.70556
819.45606
819.17876
818.87032
818.52696
818.14438
817.71766
817.24117
816.70843
816.11194
815.44304
814.69159
813.8457
812.89136
811.81182
810.58731
809.19243
807.60233
805.76033
803.69979
801.06507
798.86771
792.85275
823.58944
823.57919
823.56292
823.54502
823.52385
823.50019
823.47447
823.4462
823.4149
823.38032
823.34216
823.30003
823.25349
823.20208
823.14527
823.08249
823.01308
822.93634
822.85146
822.75755
822.65362
822.53856
822.41114
822.26996
822.11348
821.93996
821.74744
821.53372
821.29632
821.03245
820.73892
820.41215
820.04804
819.64194
819.18851
818.68162
818.11419
817.47804
816.76362
815.95977
815.05335
814.02867
812.86735
811.54571
810.04088
808.30083
806.35234
803.88395
801.80992
796.18009
825.24363
825.23451
825.21923
825.20243
825.18239
825.15996
825.1356
825.10884
825.07919
825.04642
825.01025
824.9703
824.92616
824.87739
824.82348
824.76388
824.69797
824.62507
824.54442
824.45517
824.35637
824.24695
824.12574
823.99142
823.8425
823.67733
823.49403
823.29051
823.06441
822.81304
822.53341
822.22207
821.87514
821.4882
821.05617
820.57325
820.03273
819.42687
818.74667
817.9816
817.1193
816.14507
815.04169
813.78711
812.35992
810.71288
808.86743
806.54193
804.58752
799.30431
826.83778
826.82974
826.81541
826.79964
826.78067
826.7594
826.73633
826.71099
826.6829
826.65183
826.61754
826.57965
826.53777
826.49148
826.44029
826.38369
826.32107
826.2518
826.17512
826.09024
825.99625
825.89213
825.77676
825.64887
825.50704
825.34968
825.17502
824.98105
824.7655
824.52583
824.25916
823.96223
823.63132
823.26223
822.85012
822.38949
821.87397
821.29623
820.64773
819.91855
819.09702
818.16932
817.11928
815.92631
814.57024
813.00789
811.25788
809.05883
807.21236
802.24593
828.37587
828.36887
828.35544
828.34066
828.32269
828.30252
828.28067
828.25668
828.23006
828.20061
828.16808
828.13214
828.0924
828.04845
827.99984
827.94606
827.88655
827.82068
827.74776
827.667
827.57754
827.47841
827.36852
827.24667
827.1115
826.96149
826.79493
826.60991
826.40427
826.17556
825.92103
825.63757
825.32164
824.96922
824.57571
824.13586
823.64364
823.09205
822.47303
821.77716
820.99342
820.10877
819.108
817.97182
816.68121
815.19621
813.53423
811.45001
809.69937
805.02143
829.86152
829.85553
829.84294
829.8291
829.8121
829.79296
829.77227
829.74955
829.72433
829.69641
829.66556
829.63146
829.59374
829.55201
829.50584
829.45473
829.39815
829.33551
829.26612
829.18926
829.10407
829.00964
828.90493
828.78877
828.65987
828.51678
828.35785
828.18124
827.9849
827.76648
827.52335
827.25253
826.95063
826.61383
826.23772
825.81731
825.34683
824.81966
824.2281
823.56323
822.81463
821.96994
821.01482
819.93114
818.701
817.28702
815.70598
813.72726
812.06277
807.64622
831.29801
831.29299
831.28121
831.26827
831.25218
831.23403
831.21444
831.19293
831.16903
831.14257
831.11331
831.08096
831.04516
831.00553
830.96166
830.91309
830.85929
830.7997
830.73367
830.66048
830.57933
830.48935
830.38952
830.27874
830.15577
830.01919
829.86745
829.69878
829.5112
829.30247
829.07006
828.81111
828.5224
828.20025
827.84047
827.43827
826.98816
826.48381
825.91792
825.28199
824.56612
823.75863
822.84593
821.81094
820.63679
819.28837
817.78178
815.90026
814.31455
810.13478
832.68833
832.68424
832.67324
832.66115
832.64593
832.62872
832.61018
832.58983
832.56719
832.5421
832.51437
832.48368
832.4497
832.41207
832.37039
832.32422
832.27307
832.21637
832.15351
832.08381
832.0065
831.92072
831.82552
831.71983
831.60245
831.47204
831.3271
831.16592
830.98661
830.78701
830.5647
830.31695
830.04066
829.73229
829.38785
829.00276
828.57176
828.08882
827.54696
826.9381
826.25283
825.48004
824.60686
823.61714
822.49499
821.20731
819.76943
817.97749
816.46461
812.50012
834.03519
834.03201
834.02176
834.01049
833.9961
833.97979
833.96225
833.94299
833.92156
833.89779
833.8715
833.84239
833.81015
833.77442
833.73483
833.69095
833.6423
833.58835
833.52852
833.46213
833.38846
833.30667
833.21586
833.115
833.00292
832.87835
832.73984
832.58575
832.41425
832.22329
832.01053
831.77334
831.50875
831.21338
830.8834
830.5144
830.10137
829.63854
829.11925
828.53578
827.87915
827.13882
826.30256
825.35507
824.2813
823.05007
821.67586
819.96658
818.52132
814.75354
835.34111
835.33881
835.32927
835.31879
835.30519
835.28973
835.27315
835.25495
835.23467
835.21215
835.18724
835.15965
835.12906
835.09515
835.05755
835.01584
834.96959
834.91826
834.86129
834.79806
834.72784
834.64986
834.56322
834.46693
834.3599
834.24087
834.10845
833.96108
833.79699
833.6142
833.41047
833.18327
832.92975
832.64666
832.33031
831.97649
831.5804
831.13651
830.63844
830.07882
829.44909
828.73919
827.93749
827.02947
826.00086
824.8222
823.50719
821.87437
820.49202
816.90484
836.60837
836.60692
836.59807
836.58834
836.57551
836.56087
836.5452
836.528
836.50882
836.48751
836.46392
836.43777
836.40876
836.37659
836.34089
836.30127
836.25729
836.20846
836.15424
836.09401
836.02709
835.95272
835.87004
835.77812
835.67587
835.5621
835.43548
835.29449
835.13743
834.96239
834.76722
834.54949
834.30644
834.03496
833.73151
833.39204
833.01194
832.58591
832.10784
831.57068
830.96624
830.28494
829.51567
828.64463
827.65825
826.52867
825.26888
823.70702
822.38324
818.9625
837.83907
837.83845
837.83027
837.82127
837.80917
837.79531
837.78052
837.76429
837.74616
837.72601
837.70368
837.67891
837.65142
837.6209
837.58702
837.54939
837.50759
837.46115
837.40954
837.35218
837.2884
837.21748
837.13859
837.05082
836.95313
836.84438
836.72327
836.58834
836.43797
836.2703
836.08326
835.8745
835.64139
835.38092
835.08968
834.76379
834.39882
833.98966
833.53048
833.01451
832.43391
831.77952
831.04074
830.20442
829.25765
828.17398
826.9658
825.46997
824.20084
820.93401
839.03517
839.03536
839.02781
839.01952
839.00812
838.99501
838.98106
838.96577
838.94865
838.9296
838.90848
838.88504
838.859
838.83008
838.79793
838.76221
838.7225
838.67834
838.62924
838.57461
838.51384
838.44622
838.37094
838.28713
838.19379
838.08982
837.97397
837.84482
837.7008
837.54014
837.36083
837.16062
836.93694
836.68692
836.40727
836.09425
835.7436
835.35043
834.90911
834.41316
833.85507
833.22606
832.51601
831.71235
830.80278
829.76218
828.60234
827.16814
825.9501
822.82597
840.19846
840.19944
840.19251
840.18489
840.17417
840.16179
840.14865
840.13424
840.1181
840.10011
840.08016
840.05799
840.03335
840.00595
839.97547
839.94157
839.90386
839.8619
839.81519
839.76319
839.7053
839.64082
839.569
839.48898
839.3998
839.30039
839.18955
839.06591
838.92796
838.77398
838.60203
838.40994
838.19525
837.95516
837.68652
837.38573
837.04867
836.67065
836.24626
835.76926
835.23246
834.62743
833.94448
833.17162
832.29707
831.29693
830.18246
828.80592
827.63575
824.64429
841.3306
841.33235
841.32601
841.31905
841.30898
841.2973
841.28494
841.27139
841.25618
841.23922
841.22039
841.19945
841.17614
841.15021
841.12134
841.08919
841.0534
841.01354
840.96913
840.91965
840.86451
840.80305
840.73453
840.65814
840.57294
840.47789
840.37184
840.25347
840.12131
839.9737
839.80878
839.62443
839.41829
839.18767
838.9295
838.64034
838.3162
837.95257
837.54424
837.08521
836.56857
835.98624
835.32892
834.58513
833.74362
832.78157
831.70977
830.38728
829.26206
826.39426
842.43313
842.43564
842.42987
842.42355
842.4141
842.40309
842.39148
842.37877
842.36446
842.34849
842.33073
842.31097
842.28896
842.26443
842.2371
842.20665
842.1727
842.13485
842.09265
842.04559
841.99309
841.93453
841.86918
841.79626
841.71487
841.62401
841.52254
841.40921
841.28259
841.14107
840.98285
840.8059
840.60792
840.38631
840.13813
839.86004
839.5482
839.19825
838.80518
838.36322
837.86571
837.3049
836.67184
835.95555
835.14524
834.21913
833.18753
831.91582
830.83288
828.08062
843.50749
843.51073
843.50552
843.49982
843.49098
843.48061
843.46973
843.45782
843.44439
843.42936
843.41264
843.39402
843.37325
843.35008
843.32424
843.29541
843.26324
843.22733
843.18725
843.14251
843.09256
843.03677
842.97447
842.90488
842.82714
842.74028
842.64321
842.53471
842.41338
842.27769
842.12589
841.956
841.76582
841.55283
841.31418
841.04664
840.74652
840.4096
840.03106
839.60533
839.126
838.5856
837.97556
837.28532
836.50454
835.61238
834.61872
833.39481
832.35173
829.70765
844.555
844.55896
844.5543
844.54919
844.54094
844.5312
844.52102
844.50988
844.49729
844.48318
844.46747
844.44995
844.43038
844.40852
844.38411
844.35684
844.32638
844.29235
844.25431
844.2118
844.16429
844.11118
844.0518
843.98542
843.91119
843.82817
843.73532
843.63144
843.51519
843.38509
843.23942
843.0763
842.89357
842.68881
842.45926
842.2018
841.91287
841.58838
841.22368
840.8134
840.35137
839.83039
839.24221
838.57668
837.82388
836.96386
836.00607
834.82723
833.82177
831.27922
845.57692
845.58158
845.57745
845.57292
845.56523
845.5561
845.5466
845.53621
845.52443
845.51121
845.49647
845.48001
845.4616
845.44101
845.41798
845.39222
845.36341
845.33118
845.29511
845.25476
845.2096
845.15906
845.1025
845.03919
844.96833
844.88901
844.80021
844.70077
844.5894
844.46465
844.32487
844.16823
843.99264
843.79575
843.57491
843.32709
843.04884
842.73622
842.38473
841.98918
841.54363
841.04113
840.47374
839.8317
839.10546
838.27589
837.35207
836.2158
835.24593
832.79881
846.57439
846.57975
846.57612
846.57216
846.56503
846.55648
846.54764
846.53797
846.52698
846.51462
846.50082
846.48538
846.46809
846.44873
846.42704
846.40274
846.37552
846.34503
846.31086
846.27258
846.22969
846.18163
846.12778
846.06744
845.99983
845.92406
845.83915
845.74397
845.63729
845.51767
845.38355
845.23312
845.06438
844.87504
844.66254
844.42394
844.15591
843.85463
843.51576
843.13428
842.70445
842.21957
841.67198
841.05228
840.35128
839.55063
838.65902
837.56302
836.62685
834.26964
847.5485
847.55454
847.55142
847.548
847.5414
847.53343
847.52522
847.51626
847.50603
847.4945
847.48161
847.46717
847.45096
847.43278
847.41238
847.3895
847.36382
847.335
847.30267
847.2664
847.22569
847.18003
847.12879
847.07131
847.00682
846.93447
846.85331
846.76224
846.66006
846.54539
846.41669
846.27223
846.11005
845.92796
845.72346
845.49369
845.23545
844.94503
844.61822
844.2502
843.83538
843.36731
842.83859
842.24018
841.56321
840.79004
839.92902
838.87118
837.96697
835.69459
848.50028
848.50698
848.50434
848.50146
848.49538
848.48796
848.48038
848.47209
848.46261
848.45189
848.43988
848.4264
848.41124
848.39421
848.37506
848.35354
848.32935
848.30216
848.2716
848.23726
848.19868
848.15532
848.1066
848.05188
847.9904
847.92136
847.8438
847.75669
847.65884
847.54892
847.42544
847.28672
847.13086
846.95572
846.75888
846.5376
846.28873
846.00872
845.69347
845.33831
844.93785
844.48584
843.97515
843.39704
842.74296
841.99595
841.16402
840.1424
839.26854
837.07634
849.43066
849.43802
849.43585
849.4335
849.42792
849.42103
849.41405
849.40643
849.39767
849.38773
849.37658
849.36403
849.34989
849.33397
849.31603
849.29583
849.27309
849.24747
849.21863
849.18617
849.14962
849.10849
849.06222
849.01015
848.95159
848.88573
848.81165
848.72836
848.63468
848.52934
848.41089
848.27768
848.12789
847.95943
847.76997
847.55683
847.31696
847.04693
846.74276
846.39992
846.0132
845.57656
845.0831
844.52437
843.89214
843.17006
842.36583
841.37861
840.53362
838.41731
850.34054
850.34855
850.34684
850.345
850.33991
850.33354
850.32715
850.32017
850.31211
850.30293
850.29261
850.28097
850.26782
850.25298
850.23622
850.2173
850.19595
850.17186
850.14468
850.11403
850.07946
850.0405
849.99658
849.94709
849.89133
849.82854
849.75783
849.67821
849.58856
849.48764
849.37402
849.24613
849.10218
848.94016
848.75778
848.55246
848.32125
848.06079
847.76725
847.43623
847.06268
846.64076
846.16378
845.62359
845.01222
844.31392
843.5361
842.58163
841.76411
839.71976
851.23077
851.23941
851.23815
851.2368
851.2322
851.22633
851.22051
851.21416
851.20678
851.19834
851.18883
851.17807
851.16588
851.15209
851.13647
851.1188
851.0988
851.07619
851.05062
851.02173
850.98908
850.9522
850.91056
850.86356
850.81053
850.7507
850.68324
850.60717
850.52141
850.42475
850.3158
850.19303
850.05471
849.89888
849.72333
849.52553
849.30264
849.05139
848.76805
848.44838
848.08746
847.67964
847.21845
846.696
846.10459
845.429
844.67639
843.75311
842.96179
840.98574
852.10212
852.11139
852.11058
852.10971
852.10557
852.1002
852.09493
852.08919
852.08247
852.07476
852.06603
852.05613
852.04488
852.0321
852.01759
852.00112
851.98245
851.96127
851.93727
851.91008
851.87928
851.84443
851.805
851.76041
851.71001
851.65306
851.58873
851.5161
851.4341
851.34154
851.2371
851.11928
850.98639
850.83653
850.66754
850.477
850.26211
850.01971
849.74619
849.43741
849.08862
848.69434
848.24829
847.74283
847.17052
846.51666
845.78813
844.8946
844.12828
842.21717
852.95535
852.96523
852.96485
852.96447
852.96078
852.95589
852.95116
852.94602
852.93994
852.93293
852.92497
852.9159
852.90556
852.89377
852.88034
852.86505
852.84765
852.82787
852.80538
852.77984
852.75085
852.71796
852.68067
852.63842
852.59057
852.5364
852.47512
852.4058
852.32743
852.23885
852.13876
852.02571
851.89806
851.75396
851.59131
851.40775
851.20057
850.9667
850.70262
850.40432
850.06719
849.68591
849.25439
848.76523
848.21121
847.57816
846.87266
846.00753
845.26511
843.4158
853.79116
853.80165
853.80169
853.80177
853.79852
853.7941
853.7899
853.78534
853.77989
853.77356
853.76635
853.7581
853.74864
853.73781
853.72543
853.71129
853.69513
853.6767
853.65569
853.63176
853.60452
853.57353
853.53832
853.49833
853.45295
853.40148
853.34314
853.27704
853.20218
853.11744
853.02157
852.91313
852.79054
852.652
852.49547
852.31864
852.1189
851.89324
851.63825
851.35004
851.02413
850.65534
850.23777
849.76426
849.2278
848.61467
847.93123
847.09326
846.37368
844.58327
854.61021
854.6213
854.62175
854.62229
854.61947
854.61551
854.61182
854.60783
854.603
854.59733
854.59084
854.58339
854.57479
854.5649
854.55354
854.54051
854.52557
854.50846
854.48888
854.46651
854.44096
854.41183
854.37863
854.34084
854.29786
854.249
854.19351
854.13053
854.05908
853.97806
853.88625
853.78228
853.66458
853.53141
853.38079
853.21047
853.01789
852.80015
852.55393
852.27544
851.96032
851.60355
851.19941
850.74093
850.22131
849.6273
848.965
848.15302
847.45532
845.7211
855.41313
855.4248
855.42566
855.42664
855.42425
855.42074
855.41755
855.41411
855.40988
855.40487
855.39909
855.3924
855.38465
855.37567
855.36531
855.35336
855.3396
855.32377
855.30559
855.28473
855.26084
855.23351
855.20227
855.16661
855.12595
855.07963
855.02691
854.96695
854.8988
854.82139
854.73352
854.63386
854.5209
854.39292
854.24801
854.08397
853.89832
853.68823
853.45046
853.18134
852.87662
852.53143
852.1402
851.69617
851.19275
850.61709
849.97507
849.18799
848.51124
846.83069
856.2005
856.21276
856.21402
856.21543
856.21346
856.21038
856.20768
856.20479
856.20114
856.19676
856.19168
856.18574
856.17881
856.17073
856.16134
856.15044
856.13783
856.12325
856.10643
856.08705
856.06477
856.03918
856.00985
855.97627
855.93787
855.89401
855.84398
855.78694
855.72199
855.64807
855.56403
855.46855
855.36017
855.23722
855.09783
854.93986
854.76091
854.5582
854.3286
854.06851
853.77382
853.43979
853.06099
852.63088
852.14303
851.585
850.96246