/*--------------------------------*- C++ -*----------------------------------*\
| =========                 |                                                 |
| \\      /  F ield         | OpenFOAM: The Open Source CFD Toolbox           |
|  \\    /   O peration     | Version:  4.0                                   |
|   \\  /    A nd           | Web:      www.OpenFOAM.org                      |
|    \\/     M anipulation  |                                                 |
\*---------------------------------------------------------------------------*/
FoamFile
{
    version     2.0;
    format      ascii;
    class       volScalarField;
    location    "746";
    object      ILambda_14_0;
}
// * * * * * * * * * * * * * * * * * * * * * * * * * * * * * * * * * * * * * //

dimensions      [1 0 -3 0 0 0 0];

internalField   nonuniform List<scalar> 
5000
(
134.29993
134.29993
134.29993
134.29993
134.29994
134.29994
134.29994
134.29994
134.29994
134.29995
134.29995
134.29995
134.29996
134.29996
134.29996
134.29997
134.29997
134.29998
134.29999
134.29999
134.3
134.30001
134.30002
134.30003
134.30004
134.30005
134.30007
134.30008
134.3001
134.30011
134.30013
134.30016
134.30018
134.30021
134.30024
134.30027
134.3003
134.30034
134.30038
134.30043
134.30048
134.30054
134.3006
134.30066
134.30074
134.30081
134.30089
134.30098
134.30106
134.30114
134.2995
134.2995
134.2995
134.2995
134.2995
134.2995
134.29951
134.29951
134.29951
134.29951
134.29952
134.29952
134.29952
134.29953
134.29953
134.29954
134.29954
134.29955
134.29955
134.29956
134.29957
134.29958
134.29959
134.2996
134.29961
134.29962
134.29963
134.29965
134.29966
134.29968
134.2997
134.29972
134.29975
134.29977
134.2998
134.29983
134.29987
134.29991
134.29995
134.3
134.30005
134.30011
134.30017
134.30024
134.30032
134.30041
134.3005
134.30061
134.30072
134.30085
134.29927
134.29927
134.29927
134.29927
134.29927
134.29928
134.29928
134.29928
134.29928
134.29928
134.29929
134.29929
134.29929
134.2993
134.2993
134.29931
134.29931
134.29932
134.29932
134.29933
134.29934
134.29935
134.29936
134.29937
134.29938
134.29939
134.2994
134.29942
134.29944
134.29945
134.29947
134.29949
134.29952
134.29954
134.29957
134.29961
134.29964
134.29968
134.29972
134.29977
134.29982
134.29988
134.29994
134.3
134.30008
134.30016
134.30025
134.30035
134.30046
134.30058
134.29899
134.29899
134.29899
134.29899
134.299
134.299
134.299
134.299
134.29901
134.29901
134.29901
134.29901
134.29902
134.29902
134.29903
134.29903
134.29904
134.29904
134.29905
134.29905
134.29906
134.29907
134.29908
134.29909
134.2991
134.29911
134.29913
134.29914
134.29916
134.29918
134.2992
134.29922
134.29924
134.29927
134.2993
134.29933
134.29936
134.2994
134.29945
134.29949
134.29954
134.2996
134.29966
134.29973
134.29981
134.29989
134.29998
134.30008
134.30019
134.30031
134.29872
134.29873
134.29873
134.29873
134.29873
134.29873
134.29873
134.29874
134.29874
134.29874
134.29875
134.29875
134.29875
134.29876
134.29876
134.29876
134.29877
134.29878
134.29878
134.29879
134.2988
134.2988
134.29881
134.29882
134.29884
134.29885
134.29886
134.29888
134.29889
134.29891
134.29893
134.29895
134.29898
134.299
134.29903
134.29906
134.2991
134.29914
134.29918
134.29923
134.29928
134.29933
134.2994
134.29947
134.29954
134.29962
134.29971
134.29981
134.29993
134.30005
134.29846
134.29846
134.29846
134.29846
134.29846
134.29846
134.29847
134.29847
134.29847
134.29847
134.29848
134.29848
134.29848
134.29849
134.29849
134.2985
134.2985
134.29851
134.29851
134.29852
134.29853
134.29854
134.29855
134.29856
134.29857
134.29858
134.29859
134.29861
134.29862
134.29864
134.29866
134.29868
134.29871
134.29873
134.29876
134.2988
134.29883
134.29887
134.29891
134.29896
134.29901
134.29907
134.29913
134.2992
134.29927
134.29936
134.29945
134.29955
134.29966
134.29978
134.29819
134.29819
134.29819
134.29819
134.2982
134.2982
134.2982
134.2982
134.2982
134.29821
134.29821
134.29821
134.29822
134.29822
134.29822
134.29823
134.29823
134.29824
134.29825
134.29825
134.29826
134.29827
134.29828
134.29829
134.2983
134.29831
134.29833
134.29834
134.29836
134.29838
134.29839
134.29842
134.29844
134.29847
134.2985
134.29853
134.29856
134.2986
134.29864
134.29869
134.29874
134.2988
134.29886
134.29893
134.29901
134.29909
134.29918
134.29928
134.29939
134.29951
134.29792
134.29792
134.29792
134.29793
134.29793
134.29793
134.29793
134.29793
134.29794
134.29794
134.29794
134.29794
134.29795
134.29795
134.29796
134.29796
134.29797
134.29797
134.29798
134.29799
134.29799
134.298
134.29801
134.29802
134.29803
134.29804
134.29806
134.29807
134.29809
134.29811
134.29813
134.29815
134.29817
134.2982
134.29823
134.29826
134.2983
134.29833
134.29838
134.29842
134.29847
134.29853
134.29859
134.29866
134.29874
134.29882
134.29891
134.29901
134.29912
134.29924
134.29765
134.29766
134.29766
134.29766
134.29766
134.29766
134.29766
134.29767
134.29767
134.29767
134.29767
134.29768
134.29768
134.29768
134.29769
134.29769
134.2977
134.2977
134.29771
134.29772
134.29773
134.29773
134.29774
134.29775
134.29776
134.29778
134.29779
134.29781
134.29782
134.29784
134.29786
134.29788
134.29791
134.29793
134.29796
134.29799
134.29803
134.29807
134.29811
134.29816
134.29821
134.29826
134.29833
134.29839
134.29847
134.29855
134.29864
134.29874
134.29885
134.29898
134.29739
134.29739
134.29739
134.29739
134.29739
134.29739
134.2974
134.2974
134.2974
134.2974
134.29741
134.29741
134.29741
134.29742
134.29742
134.29743
134.29743
134.29744
134.29744
134.29745
134.29746
134.29747
134.29748
134.29749
134.2975
134.29751
134.29752
134.29754
134.29755
134.29757
134.29759
134.29761
134.29764
134.29766
134.29769
134.29773
134.29776
134.2978
134.29784
134.29789
134.29794
134.298
134.29806
134.29813
134.2982
134.29829
134.29838
134.29848
134.29859
134.29871
134.29712
134.29712
134.29712
134.29712
134.29712
134.29713
134.29713
134.29713
134.29713
134.29714
134.29714
134.29714
134.29715
134.29715
134.29715
134.29716
134.29716
134.29717
134.29718
134.29718
134.29719
134.2972
134.29721
134.29722
134.29723
134.29724
134.29726
134.29727
134.29729
134.2973
134.29732
134.29735
134.29737
134.2974
134.29743
134.29746
134.29749
134.29753
134.29757
134.29762
134.29767
134.29773
134.29779
134.29786
134.29793
134.29802
134.29811
134.29821
134.29832
134.29844
134.29685
134.29685
134.29685
134.29686
134.29686
134.29686
134.29686
134.29686
134.29687
134.29687
134.29687
134.29687
134.29688
134.29688
134.29689
134.29689
134.2969
134.2969
134.29691
134.29692
134.29692
134.29693
134.29694
134.29695
134.29696
134.29697
134.29699
134.297
134.29702
134.29704
134.29706
134.29708
134.2971
134.29713
134.29716
134.29719
134.29722
134.29726
134.29731
134.29735
134.2974
134.29746
134.29752
134.29759
134.29767
134.29775
134.29784
134.29794
134.29805
134.29817
134.29658
134.29659
134.29659
134.29659
134.29659
134.29659
134.29659
134.2966
134.2966
134.2966
134.2966
134.29661
134.29661
134.29661
134.29662
134.29662
134.29663
134.29663
134.29664
134.29665
134.29666
134.29666
134.29667
134.29668
134.29669
134.29671
134.29672
134.29673
134.29675
134.29677
134.29679
134.29681
134.29683
134.29686
134.29689
134.29692
134.29696
134.297
134.29704
134.29709
134.29714
134.29719
134.29726
134.29732
134.2974
134.29748
134.29757
134.29767
134.29778
134.29791
134.29632
134.29632
134.29632
134.29632
134.29632
134.29632
134.29633
134.29633
134.29633
134.29633
134.29634
134.29634
134.29634
134.29635
134.29635
134.29636
134.29636
134.29637
134.29637
134.29638
134.29639
134.2964
134.29641
134.29642
134.29643
134.29644
134.29645
134.29647
134.29648
134.2965
134.29652
134.29654
134.29657
134.29659
134.29662
134.29665
134.29669
134.29673
134.29677
134.29682
134.29687
134.29693
134.29699
134.29706
134.29713
134.29721
134.29731
134.29741
134.29752
134.29764
134.29605
134.29605
134.29605
134.29605
134.29605
134.29606
134.29606
134.29606
134.29606
134.29607
134.29607
134.29607
134.29608
134.29608
134.29608
134.29609
134.29609
134.2961
134.29611
134.29611
134.29612
134.29613
134.29614
134.29615
134.29616
134.29617
134.29618
134.2962
134.29622
134.29623
134.29625
134.29628
134.2963
134.29633
134.29636
134.29639
134.29642
134.29646
134.2965
134.29655
134.2966
134.29666
134.29672
134.29679
134.29686
134.29695
134.29704
134.29714
134.29725
134.29737
134.29578
134.29578
134.29578
134.29579
134.29579
134.29579
134.29579
134.29579
134.2958
134.2958
134.2958
134.2958
134.29581
134.29581
134.29582
134.29582
134.29583
134.29583
134.29584
134.29584
134.29585
134.29586
134.29587
134.29588
134.29589
134.2959
134.29592
134.29593
134.29595
134.29597
134.29599
134.29601
134.29603
134.29606
134.29609
134.29612
134.29615
134.29619
134.29624
134.29628
134.29633
134.29639
134.29645
134.29652
134.2966
134.29668
134.29677
134.29687
134.29698
134.2971
134.29551
134.29551
134.29552
134.29552
134.29552
134.29552
134.29552
134.29553
134.29553
134.29553
134.29553
134.29554
134.29554
134.29554
134.29555
134.29555
134.29556
134.29556
134.29557
134.29558
134.29558
134.29559
134.2956
134.29561
134.29562
134.29564
134.29565
134.29566
134.29568
134.2957
134.29572
134.29574
134.29576
134.29579
134.29582
134.29585
134.29589
134.29593
134.29597
134.29602
134.29607
134.29612
134.29619
134.29625
134.29633
134.29641
134.2965
134.2966
134.29671
134.29683
134.29525
134.29525
134.29525
134.29525
134.29525
134.29525
134.29526
134.29526
134.29526
134.29526
134.29527
134.29527
134.29527
134.29528
134.29528
134.29529
134.29529
134.2953
134.2953
134.29531
134.29532
134.29533
134.29534
134.29535
134.29536
134.29537
134.29538
134.2954
134.29541
134.29543
134.29545
134.29547
134.2955
134.29552
134.29555
134.29558
134.29562
134.29566
134.2957
134.29575
134.2958
134.29586
134.29592
134.29599
134.29606
134.29614
134.29624
134.29634
134.29645
134.29657
134.29498
134.29498
134.29498
134.29498
134.29498
134.29499
134.29499
134.29499
134.29499
134.295
134.295
134.295
134.29501
134.29501
134.29501
134.29502
134.29502
134.29503
134.29504
134.29504
134.29505
134.29506
134.29507
134.29508
134.29509
134.2951
134.29511
134.29513
134.29515
134.29516
134.29518
134.29521
134.29523
134.29526
134.29529
134.29532
134.29535
134.29539
134.29543
134.29548
134.29553
134.29559
134.29565
134.29572
134.29579
134.29588
134.29597
134.29607
134.29618
134.2963
134.29471
134.29471
134.29471
134.29472
134.29472
134.29472
134.29472
134.29472
134.29473
134.29473
134.29473
134.29473
134.29474
134.29474
134.29475
134.29475
134.29476
134.29476
134.29477
134.29477
134.29478
134.29479
134.2948
134.29481
134.29482
134.29483
134.29485
134.29486
134.29488
134.2949
134.29492
134.29494
134.29496
134.29499
134.29502
134.29505
134.29508
134.29512
134.29517
134.29521
134.29526
134.29532
134.29538
134.29545
134.29553
134.29561
134.2957
134.2958
134.29591
134.29603
134.29444
134.29444
134.29445
134.29445
134.29445
134.29445
134.29445
134.29446
134.29446
134.29446
134.29446
134.29447
134.29447
134.29447
134.29448
134.29448
134.29449
134.29449
134.2945
134.29451
134.29451
134.29452
134.29453
134.29454
134.29455
134.29457
134.29458
134.29459
134.29461
134.29463
134.29465
134.29467
134.29469
134.29472
134.29475
134.29478
134.29482
134.29486
134.2949
134.29494
134.295
134.29505
134.29512
134.29518
134.29526
134.29534
134.29543
134.29553
134.29564
134.29576
134.29418
134.29418
134.29418
134.29418
134.29418
134.29418
134.29419
134.29419
134.29419
134.29419
134.2942
134.2942
134.2942
134.29421
134.29421
134.29422
134.29422
134.29423
134.29423
134.29424
134.29425
134.29426
134.29426
134.29428
134.29429
134.2943
134.29431
134.29433
134.29434
134.29436
134.29438
134.2944
134.29443
134.29445
134.29448
134.29451
134.29455
134.29459
134.29463
134.29468
134.29473
134.29479
134.29485
134.29492
134.29499
134.29507
134.29517
134.29527
134.29538
134.2955
134.29391
134.29391
134.29391
134.29391
134.29391
134.29392
134.29392
134.29392
134.29392
134.29393
134.29393
134.29393
134.29393
134.29394
134.29394
134.29395
134.29395
134.29396
134.29397
134.29397
134.29398
134.29399
134.294
134.29401
134.29402
134.29403
134.29404
134.29406
134.29408
134.29409
134.29411
134.29414
134.29416
134.29419
134.29421
134.29425
134.29428
134.29432
134.29436
134.29441
134.29446
134.29452
134.29458
134.29465
134.29472
134.29481
134.2949
134.295
134.29511
134.29523
134.29364
134.29364
134.29364
134.29364
134.29365
134.29365
134.29365
134.29365
134.29365
134.29366
134.29366
134.29366
134.29367
134.29367
134.29368
134.29368
134.29369
134.29369
134.2937
134.2937
134.29371
134.29372
134.29373
134.29374
134.29375
134.29376
134.29378
134.29379
134.29381
134.29383
134.29385
134.29387
134.29389
134.29392
134.29395
134.29398
134.29401
134.29405
134.2941
134.29414
134.29419
134.29425
134.29431
134.29438
134.29446
134.29454
134.29463
134.29473
134.29484
134.29496
134.29337
134.29337
134.29338
134.29338
134.29338
134.29338
134.29338
134.29338
134.29339
134.29339
134.29339
134.2934
134.2934
134.2934
134.29341
134.29341
134.29342
134.29342
134.29343
134.29344
134.29344
134.29345
134.29346
134.29347
134.29348
134.2935
134.29351
134.29352
134.29354
134.29356
134.29358
134.2936
134.29362
134.29365
134.29368
134.29371
134.29375
134.29379
134.29383
134.29387
134.29393
134.29398
134.29404
134.29411
134.29419
134.29427
134.29436
134.29446
134.29457
134.29469
134.29311
134.29311
134.29311
134.29311
134.29311
134.29311
134.29312
134.29312
134.29312
134.29312
134.29313
134.29313
134.29313
134.29314
134.29314
134.29315
134.29315
134.29316
134.29316
134.29317
134.29318
134.29319
134.29319
134.2932
134.29322
134.29323
134.29324
134.29326
134.29327
134.29329
134.29331
134.29333
134.29336
134.29338
134.29341
134.29344
134.29348
134.29352
134.29356
134.29361
134.29366
134.29372
134.29378
134.29385
134.29392
134.294
134.2941
134.2942
134.29431
134.29443
134.29284
134.29284
134.29284
134.29284
134.29284
134.29285
134.29285
134.29285
134.29285
134.29285
134.29286
134.29286
134.29286
134.29287
134.29287
134.29288
134.29288
134.29289
134.29289
134.2929
134.29291
134.29292
134.29293
134.29294
134.29295
134.29296
134.29297
134.29299
134.29301
134.29302
134.29304
134.29307
134.29309
134.29312
134.29314
134.29318
134.29321
134.29325
134.29329
134.29334
134.29339
134.29345
134.29351
134.29358
134.29365
134.29374
134.29383
134.29393
134.29404
134.29416
134.29257
134.29257
134.29257
134.29257
134.29258
134.29258
134.29258
134.29258
134.29258
134.29259
134.29259
134.29259
134.2926
134.2926
134.29261
134.29261
134.29262
134.29262
134.29263
134.29263
134.29264
134.29265
134.29266
134.29267
134.29268
134.29269
134.29271
134.29272
134.29274
134.29276
134.29278
134.2928
134.29282
134.29285
134.29288
134.29291
134.29294
134.29298
134.29303
134.29307
134.29312
134.29318
134.29324
134.29331
134.29339
134.29347
134.29356
134.29366
134.29377
134.29389
134.2923
134.2923
134.29231
134.29231
134.29231
134.29231
134.29231
134.29231
134.29232
134.29232
134.29232
134.29233
134.29233
134.29233
134.29234
134.29234
134.29235
134.29235
134.29236
134.29237
134.29237
134.29238
134.29239
134.2924
134.29241
134.29243
134.29244
134.29245
134.29247
134.29249
134.29251
134.29253
134.29255
134.29258
134.29261
134.29264
134.29268
134.29272
134.29276
134.2928
134.29286
134.29291
134.29297
134.29304
134.29312
134.2932
134.29329
134.29339
134.2935
134.29362
134.29203
134.29204
134.29204
134.29204
134.29204
134.29204
134.29205
134.29205
134.29205
134.29205
134.29206
134.29206
134.29206
134.29207
134.29207
134.29208
134.29208
134.29209
134.29209
134.2921
134.29211
134.29212
134.29212
134.29213
134.29215
134.29216
134.29217
134.29219
134.2922
134.29222
134.29224
134.29226
134.29229
134.29231
134.29234
134.29237
134.29241
134.29245
134.29249
134.29254
134.29259
134.29264
134.29271
134.29278
134.29285
134.29293
134.29302
134.29313
134.29324
134.29336
134.29177
134.29177
134.29177
134.29177
134.29177
134.29178
134.29178
134.29178
134.29178
134.29178
134.29179
134.29179
134.29179
134.2918
134.2918
134.29181
134.29181
134.29182
134.29182
134.29183
134.29184
134.29185
134.29186
134.29187
134.29188
134.29189
134.2919
134.29192
134.29194
134.29195
134.29197
134.292
134.29202
134.29205
134.29207
134.29211
134.29214
134.29218
134.29222
134.29227
134.29232
134.29238
134.29244
134.29251
134.29258
134.29267
134.29276
134.29286
134.29297
134.29309
134.2915
134.2915
134.2915
134.2915
134.29151
134.29151
134.29151
134.29151
134.29151
134.29152
134.29152
134.29152
134.29153
134.29153
134.29154
134.29154
134.29155
134.29155
134.29156
134.29156
134.29157
134.29158
134.29159
134.2916
134.29161
134.29162
134.29164
134.29165
134.29167
134.29169
134.29171
134.29173
134.29175
134.29178
134.29181
134.29184
134.29187
134.29191
134.29196
134.292
134.29205
134.29211
134.29217
134.29224
134.29232
134.2924
134.29249
134.29259
134.2927
134.29282
134.29123
134.29123
134.29124
134.29124
134.29124
134.29124
134.29124
134.29124
134.29125
134.29125
134.29125
134.29126
134.29126
134.29126
134.29127
134.29127
134.29128
134.29128
134.29129
134.2913
134.2913
134.29131
134.29132
134.29133
134.29134
134.29136
134.29137
134.29138
134.2914
134.29142
134.29144
134.29146
134.29148
134.29151
134.29154
134.29157
134.29161
134.29165
134.29169
134.29173
134.29179
134.29184
134.2919
134.29197
134.29205
134.29213
134.29222
134.29232
134.29243
134.29255
134.29096
134.29097
134.29097
134.29097
134.29097
134.29097
134.29097
134.29098
134.29098
134.29098
134.29099
134.29099
134.29099
134.291
134.291
134.291
134.29101
134.29102
134.29102
134.29103
134.29104
134.29105
134.29105
134.29106
134.29108
134.29109
134.2911
134.29112
134.29113
134.29115
134.29117
134.29119
134.29122
134.29124
134.29127
134.2913
134.29134
134.29138
134.29142
134.29147
134.29152
134.29157
134.29164
134.29171
134.29178
134.29186
134.29195
134.29206
134.29217
134.29229
134.2907
134.2907
134.2907
134.2907
134.2907
134.29071
134.29071
134.29071
134.29071
134.29071
134.29072
134.29072
134.29072
134.29073
134.29073
134.29074
134.29074
134.29075
134.29075
134.29076
134.29077
134.29078
134.29079
134.2908
134.29081
134.29082
134.29083
134.29085
134.29087
134.29088
134.2909
134.29093
134.29095
134.29098
134.291
134.29104
134.29107
134.29111
134.29115
134.2912
134.29125
134.29131
134.29137
134.29144
134.29151
134.2916
134.29169
134.29179
134.2919
134.29202
134.29043
134.29043
134.29043
134.29043
134.29044
134.29044
134.29044
134.29044
134.29044
134.29045
134.29045
134.29045
134.29046
134.29046
134.29047
134.29047
134.29048
134.29048
134.29049
134.29049
134.2905
134.29051
134.29052
134.29053
134.29054
134.29055
134.29057
134.29058
134.2906
134.29062
134.29064
134.29066
134.29068
134.29071
134.29074
134.29077
134.2908
134.29084
134.29089
134.29093
134.29098
134.29104
134.2911
134.29117
134.29125
134.29133
134.29142
134.29152
134.29163
134.29175
134.29016
134.29016
134.29017
134.29017
134.29017
134.29017
134.29017
134.29017
134.29018
134.29018
134.29018
134.29019
134.29019
134.29019
134.2902
134.2902
134.29021
134.29021
134.29022
134.29023
134.29023
134.29024
134.29025
134.29026
134.29027
134.29029
134.2903
134.29031
134.29033
134.29035
134.29037
134.29039
134.29041
134.29044
134.29047
134.2905
134.29054
134.29058
134.29062
134.29066
134.29072
134.29077
134.29083
134.2909
134.29098
134.29106
134.29115
134.29125
134.29136
134.29148
134.28989
134.2899
134.2899
134.2899
134.2899
134.2899
134.2899
134.28991
134.28991
134.28991
134.28992
134.28992
134.28992
134.28993
134.28993
134.28993
134.28994
134.28995
134.28995
134.28996
134.28997
134.28998
134.28998
134.28999
134.29001
134.29002
134.29003
134.29005
134.29006
134.29008
134.2901
134.29012
134.29015
134.29017
134.2902
134.29023
134.29027
134.29031
134.29035
134.2904
134.29045
134.2905
134.29057
134.29064
134.29071
134.29079
134.29088
134.29099
134.2911
134.29122
134.28963
134.28963
134.28963
134.28963
134.28963
134.28964
134.28964
134.28964
134.28964
134.28964
134.28965
134.28965
134.28965
134.28966
134.28966
134.28967
134.28967
134.28968
134.28968
134.28969
134.2897
134.28971
134.28972
134.28973
134.28974
134.28975
134.28976
134.28978
134.2898
134.28981
134.28983
134.28986
134.28988
134.28991
134.28993
134.28997
134.29
134.29004
134.29008
134.29013
134.29018
134.29024
134.2903
134.29037
134.29044
134.29053
134.29062
134.29072
134.29083
134.29095
134.28936
134.28936
134.28936
134.28936
134.28937
134.28937
134.28937
134.28937
134.28937
134.28938
134.28938
134.28938
134.28939
134.28939
134.2894
134.2894
134.28941
134.28941
134.28942
134.28942
134.28943
134.28944
134.28945
134.28946
134.28947
134.28948
134.2895
134.28951
134.28953
134.28955
134.28957
134.28959
134.28961
134.28964
134.28967
134.2897
134.28973
134.28977
134.28982
134.28986
134.28991
134.28997
134.29003
134.2901
134.29018
134.29026
134.29035
134.29045
134.29056
134.29068
134.28909
134.28909
134.2891
134.2891
134.2891
134.2891
134.2891
134.2891
134.28911
134.28911
134.28911
134.28912
134.28912
134.28912
134.28913
134.28913
134.28914
134.28914
134.28915
134.28916
134.28916
134.28917
134.28918
134.28919
134.2892
134.28922
134.28923
134.28924
134.28926
134.28928
134.2893
134.28932
134.28934
134.28937
134.2894
134.28943
134.28947
134.28951
134.28955
134.28959
134.28965
134.2897
134.28976
134.28983
134.28991
134.28999
134.29008
134.29018
134.29029
134.29041
134.28882
134.28883
134.28883
134.28883
134.28883
134.28883
134.28883
134.28884
134.28884
134.28884
134.28885
134.28885
134.28885
134.28886
134.28886
134.28886
134.28887
134.28888
134.28888
134.28889
134.2889
134.28891
134.28891
134.28892
134.28894
134.28895
134.28896
134.28898
134.28899
134.28901
134.28903
134.28905
134.28908
134.2891
134.28913
134.28916
134.2892
134.28924
134.28928
134.28933
134.28938
134.28943
134.2895
134.28957
134.28964
134.28972
134.28981
134.28991
134.29003
134.29015
134.28856
134.28856
134.28856
134.28856
134.28856
134.28857
134.28857
134.28857
134.28857
134.28857
134.28858
134.28858
134.28858
134.28859
134.28859
134.2886
134.2886
134.28861
134.28861
134.28862
134.28863
134.28864
134.28865
134.28866
134.28867
134.28868
134.28869
134.28871
134.28873
134.28874
134.28876
134.28879
134.28881
134.28884
134.28886
134.2889
134.28893
134.28897
134.28901
134.28906
134.28911
134.28917
134.28923
134.2893
134.28937
134.28946
134.28955
134.28965
134.28976
134.28988
134.28829
134.28829
134.28829
134.28829
134.2883
134.2883
134.2883
134.2883
134.2883
134.28831
134.28831
134.28831
134.28832
134.28832
134.28833
134.28833
134.28834
134.28834
134.28835
134.28835
134.28836
134.28837
134.28838
134.28839
134.2884
134.28841
134.28843
134.28844
134.28846
134.28848
134.2885
134.28852
134.28854
134.28857
134.2886
134.28863
134.28866
134.2887
134.28875
134.28879
134.28884
134.2889
134.28896
134.28903
134.28911
134.28919
134.28928
134.28938
134.28949
134.28961
134.28802
134.28802
134.28803
134.28803
134.28803
134.28803
134.28803
134.28803
134.28804
134.28804
134.28804
134.28805
134.28805
134.28805
134.28806
134.28806
134.28807
134.28807
134.28808
134.28809
134.28809
134.2881
134.28811
134.28812
134.28813
134.28815
134.28816
134.28817
134.28819
134.28821
134.28823
134.28825
134.28827
134.2883
134.28833
134.28836
134.2884
134.28844
134.28848
134.28852
134.28858
134.28863
134.28869
134.28876
134.28884
134.28892
134.28901
134.28911
134.28922
134.28934
134.28776
134.28776
134.28776
134.28776
134.28776
134.28776
134.28777
134.28777
134.28777
134.28777
134.28778
134.28778
134.28778
134.28779
134.28779
134.2878
134.2878
134.28781
134.28781
134.28782
134.28783
134.28784
134.28784
134.28785
134.28787
134.28788
134.28789
134.28791
134.28792
134.28794
134.28796
134.28798
134.28801
134.28803
134.28806
134.28809
134.28813
134.28817
134.28821
134.28826
134.28831
134.28836
134.28843
134.2885
134.28857
134.28865
134.28874
134.28885
134.28896
134.28908
134.28749
134.28749
134.28749
134.28749
134.28749
134.2875
134.2875
134.2875
134.2875
134.28751
134.28751
134.28751
134.28751
134.28752
134.28752
134.28753
134.28753
134.28754
134.28755
134.28755
134.28756
134.28757
134.28758
134.28759
134.2876
134.28761
134.28762
134.28764
134.28766
134.28767
134.28769
134.28772
134.28774
134.28777
134.28779
134.28783
134.28786
134.2879
134.28794
134.28799
134.28804
134.2881
134.28816
134.28823
134.2883
134.28839
134.28848
134.28858
134.28869
134.28881
134.28722
134.28722
134.28722
134.28723
134.28723
134.28723
134.28723
134.28723
134.28724
134.28724
134.28724
134.28724
134.28725
134.28725
134.28726
134.28726
134.28727
134.28727
134.28728
134.28728
134.28729
134.2873
134.28731
134.28732
134.28733
134.28734
134.28736
134.28737
134.28739
134.28741
134.28743
134.28745
134.28747
134.2875
134.28753
134.28756
134.28759
134.28763
134.28768
134.28772
134.28777
134.28783
134.28789
134.28796
134.28804
134.28812
134.28821
134.28831
134.28842
134.28854
134.28695
134.28696
134.28696
134.28696
134.28696
134.28696
134.28696
134.28697
134.28697
134.28697
134.28697
134.28698
134.28698
134.28698
134.28699
134.28699
134.287
134.287
134.28701
134.28702
134.28703
134.28703
134.28704
134.28705
134.28706
134.28708
134.28709
134.2871
134.28712
134.28714
134.28716
134.28718
134.2872
134.28723
134.28726
134.28729
134.28733
134.28737
134.28741
134.28745
134.28751
134.28756
134.28762
134.28769
134.28777
134.28785
134.28794
134.28804
134.28815
134.28827
134.28669
134.28669
134.28669
134.28669
134.28669
134.28669
134.2867
134.2867
134.2867
134.2867
134.28671
134.28671
134.28671
134.28672
134.28672
134.28673
134.28673
134.28674
134.28674
134.28675
134.28676
134.28677
134.28678
134.28679
134.2868
134.28681
134.28682
134.28684
134.28685
134.28687
134.28689
134.28691
134.28694
134.28696
134.28699
134.28702
134.28706
134.2871
134.28714
134.28719
134.28724
134.2873
134.28736
134.28743
134.2875
134.28758
134.28768
134.28778
134.28789
134.28801
134.28642
134.28642
134.28642
134.28642
134.28643
134.28643
134.28643
134.28643
134.28643
134.28644
134.28644
134.28644
134.28645
134.28645
134.28645
134.28646
134.28646
134.28647
134.28648
134.28648
134.28649
134.2865
134.28651
134.28652
134.28653
134.28654
134.28656
134.28657
134.28659
134.2866
134.28662
134.28665
134.28667
134.2867
134.28673
134.28676
134.28679
134.28683
134.28687
134.28692
134.28697
134.28703
134.28709
134.28716
134.28723
134.28732
134.28741
134.28751
134.28762
134.28774
134.28615
134.28615
134.28615
134.28616
134.28616
134.28616
134.28616
134.28616
134.28617
134.28617
134.28617
134.28618
134.28618
134.28618
134.28619
134.28619
134.2862
134.2862
134.28621
134.28622
134.28622
134.28623
134.28624
134.28625
134.28626
134.28627
134.28629
134.2863
134.28632
134.28634
134.28636
134.28638
134.2864
134.28643
134.28646
134.28649
134.28653
134.28656
134.28661
134.28665
134.2867
134.28676
134.28682
134.28689
134.28697
134.28705
134.28714
134.28724
134.28735
134.28747
134.28588
134.28589
134.28589
134.28589
134.28589
134.28589
134.28589
134.2859
134.2859
134.2859
134.2859
134.28591
134.28591
134.28592
134.28592
134.28592
134.28593
134.28594
134.28594
134.28595
134.28596
134.28596
134.28597
134.28598
134.286
134.28601
134.28602
134.28604
134.28605
134.28607
134.28609
134.28611
134.28614
134.28616
134.28619
134.28622
134.28626
134.2863
134.28634
134.28639
134.28644
134.28649
134.28656
134.28662
134.2867
134.28678
134.28687
134.28697
134.28708
134.2872
134.28562
134.28562
134.28562
134.28562
134.28562
134.28563
134.28563
134.28563
134.28563
134.28564
134.28564
134.28564
134.28564
134.28565
134.28565
134.28566
134.28566
134.28567
134.28567
134.28568
134.28569
134.2857
134.28571
134.28572
134.28573
134.28574
134.28575
134.28577
134.28579
134.2858
134.28582
134.28585
134.28587
134.2859
134.28592
134.28596
134.28599
134.28603
134.28607
134.28612
134.28617
134.28623
134.28629
134.28636
134.28643
134.28652
134.28661
134.28671
134.28682
134.28694
134.28535
134.28535
134.28535
134.28536
134.28536
134.28536
134.28536
134.28536
134.28537
134.28537
134.28537
134.28537
134.28538
134.28538
134.28539
134.28539
134.2854
134.2854
134.28541
134.28541
134.28542
134.28543
134.28544
134.28545
134.28546
134.28547
134.28549
134.2855
134.28552
134.28554
134.28556
134.28558
134.2856
134.28563
134.28566
134.28569
134.28572
134.28576
134.28581
134.28585
134.2859
134.28596
134.28602
134.28609
134.28617
134.28625
134.28634
134.28644
134.28655
134.28667
134.28508
134.28509
134.28509
134.28509
134.28509
134.28509
134.28509
134.2851
134.2851
134.2851
134.2851
134.28511
134.28511
134.28511
134.28512
134.28512
134.28513
134.28513
134.28514
134.28515
134.28516
134.28516
134.28517
134.28518
134.28519
134.28521
134.28522
134.28524
134.28525
134.28527
134.28529
134.28531
134.28534
134.28536
134.28539
134.28542
134.28546
134.2855
134.28554
134.28558
134.28564
134.28569
134.28575
134.28582
134.2859
134.28598
134.28607
134.28617
134.28628
134.2864
134.28482
134.28482
134.28482
134.28482
134.28482
134.28483
134.28483
134.28483
134.28483
134.28483
134.28484
134.28484
134.28484
134.28485
134.28485
134.28486
134.28486
134.28487
134.28487
134.28488
134.28489
134.2849
134.28491
134.28492
134.28493
134.28494
134.28495
134.28497
134.28498
134.285
134.28502
134.28504
134.28507
134.28509
134.28512
134.28516
134.28519
134.28523
134.28527
134.28532
134.28537
134.28543
134.28549
134.28556
134.28563
134.28571
134.2858
134.2859
134.28602
134.28614
134.28455
134.28455
134.28455
134.28456
134.28456
134.28456
134.28456
134.28456
134.28457
134.28457
134.28457
134.28457
134.28458
134.28458
134.28459
134.28459
134.2846
134.2846
134.28461
134.28461
134.28462
134.28463
134.28464
134.28465
134.28466
134.28467
134.28469
134.2847
134.28472
134.28474
134.28476
134.28478
134.2848
134.28483
134.28486
134.28489
134.28492
134.28496
134.285
134.28505
134.2851
134.28516
134.28522
134.28529
134.28536
134.28545
134.28554
134.28564
134.28575
134.28587
134.28428
134.28429
134.28429
134.28429
134.28429
134.28429
134.28429
134.2843
134.2843
134.2843
134.2843
134.28431
134.28431
134.28432
134.28432
134.28432
134.28433
134.28434
134.28434
134.28435
134.28436
134.28436
134.28437
134.28438
134.28439
134.28441
134.28442
134.28444
134.28445
134.28447
134.28449
134.28451
134.28454
134.28456
134.28459
134.28462
134.28466
134.2847
134.28474
134.28478
134.28484
134.28489
134.28495
134.28502
134.2851
134.28518
134.28527