/*--------------------------------*- C++ -*----------------------------------*\
| =========                 |                                                 |
| \\      /  F ield         | OpenFOAM: The Open Source CFD Toolbox           |
|  \\    /   O peration     | Version:  4.0                                   |
|   \\  /    A nd           | Web:      www.OpenFOAM.org                      |
|    \\/     M anipulation  |                                                 |
\*---------------------------------------------------------------------------*/
FoamFile
{
    version     2.0;
    format      ascii;
    class       volScalarField;
    location    "746";
    object      ILambda_9_0;
}
// * * * * * * * * * * * * * * * * * * * * * * * * * * * * * * * * * * * * * //

dimensions      [1 0 -3 0 0 0 0];

internalField   nonuniform List<scalar> 
5000
(
498.34857
498.79213
499.27989
499.81623
500.40599
501.05444
501.76737
502.55113
503.41269
504.35966
505.40037
506.54392
507.80026
509.18022
510.69562
512.35929
514.18514
516.18823
518.38478
520.79225
523.42928
526.31569
529.47243
532.92143
536.68541
540.78761
545.25135
550.09952
555.35387
561.03404
567.1565
573.73308
580.76937
588.26283
596.20071
604.5579
613.29488
622.35603
631.66863
641.14308
650.67475
660.14812
669.44303
678.44509
687.05126
695.20497
702.80557
710.14875
716.03606
726.05798
639.28192
639.61482
639.9799
640.38011
640.81867
641.29907
641.82507
642.40071
643.03035
643.71864
644.47054
645.29134
646.18661
647.16223
648.22437
649.37939
650.63389
651.99458
653.46819
655.0614
656.78066
658.63205
660.62105
662.75229
665.02928
667.45405
670.02678
672.7454
675.60514
678.59814
681.71299
684.93448
688.24337
691.61649
695.02708
698.44561
701.84112
705.18319
708.44458
711.60445
714.65201
717.59021
720.43841
723.2349
726.03156
728.90725
731.88467
735.23749
738.12819
744.32653
681.08191
681.21337
681.3575
681.51546
681.6885
681.87799
682.0854
682.31232
682.56045
682.83162
683.12776
683.45096
683.8034
684.18743
684.60548
685.06013
685.55405
686.09001
686.67087
687.29955
687.97902
688.71224
689.50221
690.35186
691.26408
692.24171
693.28747
694.40405
695.5941
696.8603
698.20548
699.63275
701.14573
702.74884
704.44755
706.24877
708.16114
710.19529
712.36389
714.68139
717.16342
719.82553
722.68125
725.74058
729.00349
732.47411
736.08868
740.01822
743.37177
749.82165
702.82191
702.90576
702.99785
703.09896
703.20997
703.33182
703.46554
703.61225
703.77318
703.94965
704.1431
704.3551
704.58735
704.84168
705.12007
705.42468
705.75781
706.12193
706.51972
706.95403
707.42792
707.94466
708.50771
709.12077
709.78775
710.5128
711.30028
712.1548
713.08116
714.0844
715.16974
716.34256
717.60836
718.97271
720.44114
722.01897
723.7112
725.52226
727.45569
729.5139
731.6978
734.00662
736.43757
738.98675
741.64621
744.419
747.26012
750.33266
752.92579
758.07576
718.4706
718.53414
718.60396
718.68067
718.76495
718.85751
718.95917
719.0708
719.19334
719.32785
719.47545
719.63739
719.81501
720.00977
720.22327
720.45722
720.71348
720.99408
721.30118
721.63713
722.00443
722.4058
722.8441
723.32243
723.84404
724.41241
725.03119
725.70421
726.4355
727.22921
728.08967
729.02127
730.02851
731.1159
732.28793
733.54904
734.90352
736.35546
737.90875
739.56698
741.33347
743.21128
745.2031
747.31198
749.5383
751.89275
754.34113
757.03714
759.33249
763.98981
730.72728
730.77854
730.83491
730.89686
730.96493
731.03973
731.12189
731.21214
731.31124
731.42006
731.53952
731.67064
731.81453
731.9724
732.14556
732.33544
732.54359
732.77168
733.02153
733.2951
733.59451
733.92204
734.28013
734.67142
735.09871
735.565
736.07346
736.62746
737.23055
737.88647
738.59911
739.37254
740.21095
741.11865
742.10004
743.15958
744.30175
745.53099
746.85167
748.26806
749.78419
751.40391
753.13059
754.96773
756.91605
758.98517
761.14394
763.52987
765.56175
769.70973
740.80056
740.84328
740.89027
740.94194
740.99874
741.06114
741.12971
741.20503
741.28776
741.37862
741.47838
741.58791
741.70815
741.84012
741.98493
742.1438
742.31804
742.50908
742.71847
742.94788
743.19913
743.47418
743.77515
744.10431
744.46411
744.85717
745.28628
745.75441
746.26471
746.82053
747.42538
748.08294
748.79707
749.57175
750.41109
751.31933
752.30074
753.35966
754.50041
755.72728
757.04446
758.45601
759.96567
761.57741
763.29282
765.12179
767.03712
769.16582
770.98038
774.72489
749.29202
749.32849
749.36864
749.4128
749.46135
749.51471
749.57335
749.63776
749.70851
749.78621
749.87154
749.96525
750.06814
750.1811
750.3051
750.44119
750.5905
750.75427
750.93386
751.13071
751.34641
751.58268
751.84138
752.12451
752.43424
752.77287
753.14289
753.54696
753.9879
754.46872
754.99262
755.56295
756.18325
756.8572
757.58867
758.38162
759.24014
760.16841
761.17067
762.25118
763.4142
764.66393
766.00439
767.43986
768.9725
770.61219
772.33475
774.2576
775.89813
779.30962
756.61211
756.64383
756.67878
756.71725
756.75955
756.80604
756.85713
756.91325
756.97489
757.04259
757.11694
757.19859
757.28827
757.38674
757.49487
757.61357
757.74385
757.8868
758.04361
758.21555
758.40403
758.61059
758.83686
759.08464
759.35585
759.65257
759.97703
760.33163
760.71891
761.14161
761.60264
762.10508
762.65218
763.24737
763.89423
764.59649
765.35803
766.18285
767.07503
768.03874
769.07819
770.19761
771.4011
772.69309
774.07608
775.55982
777.12255
778.87344
780.36813
783.49759
763.02754
763.05553
763.08642
763.12045
763.15787
763.199
763.2442
763.29384
763.34836
763.40823
763.47398
763.5462
763.62552
763.71264
763.80832
763.91339
764.02874
764.15534
764.29425
764.44661
764.61369
764.79684
764.99756
765.21745
765.45826
765.72186
766.01028
766.32567
766.67038
767.04689
767.45788
767.90618
768.3948
768.92691
769.50587
770.13519
770.81851
771.55964
772.3625
773.23113
774.16965
775.18224
776.27302
777.44646
778.70531
780.05908
781.48806
783.09422
784.46601
787.35518
768.72781
768.75282
768.78046
768.81093
768.84445
768.88129
768.92178
768.96624
769.01505
769.06865
769.12751
769.19215
769.26316
769.34116
769.42685
769.52096
769.62432
769.73777
769.86229
769.99889
770.14873
770.31303
770.49314
770.69053
770.90678
771.1436
771.40283
771.68646
771.99663
772.33563
772.70591
773.11011
773.551
774.03156
774.55491
775.12435
775.74332
776.41545
777.14447
777.93429
778.78889
779.71239
780.70886
781.78277
782.937
784.18081
785.49622
786.97882
788.24555
790.92731
773.8491
773.87166
773.89665
773.92422
773.95456
773.98791
774.02455
774.06478
774.10893
774.1574
774.21062
774.26906
774.33326
774.40379
774.48129
774.56644
774.65996
774.76264
774.87535
774.99902
775.1347
775.28351
775.44668
775.62555
775.82158
776.03634
776.27151
776.52893
776.81056
777.11853
777.4551
777.82273
778.224
778.66168
779.13871
779.65819
780.22337
780.83769
781.50473
782.22822
783.01204
783.86019
784.77668
785.76592
786.83088
787.98056
789.19842
790.57442
791.75043
794.25155
778.49292
778.51344
778.53622
778.56139
778.58909
778.61955
778.653
778.68971
778.73
778.7742
778.82272
778.87601
778.93454
778.99885
779.06953
779.1472
779.23253
779.32623
779.42909
779.54198
779.66584
779.80171
779.95073
780.11412
780.29324
780.48953
780.70454
780.93998
781.19767
781.47957
781.78781
782.12465
782.49253
782.89404
783.33194
783.80913
784.32872
784.89396
785.50827
786.17523
786.89859
787.68223
788.53008
789.44648
790.43444
791.50268
792.63592
793.91907
795.016
797.35848
782.73663
782.75542
782.77634
782.79949
782.82498
782.853
782.88377
782.91753
782.95455
782.99516
783.03972
783.08864
783.14238
783.20145
783.26637
783.33772
783.41612
783.50223
783.59678
783.70054
783.8144
783.93932
784.07634
784.22662
784.39139
784.57201
784.76991
784.98668
785.22401
785.48374
785.76784
786.07844
786.41783
786.78843
787.19285
787.63384
788.11432
788.6374
789.20634
789.82458
790.49573
791.22357
792.01192
792.86504
793.78595
794.78309
795.84227
797.04389
798.07131
800.27346
786.64049
786.65781
786.67714
786.69857
786.72218
786.74813
786.77661
786.80785
786.8421
786.87964
786.92081
786.96601
787.01566
787.07023
787.13023
787.19618
787.26866
787.34828
787.4357
787.53165
787.63695
787.75248
787.87923
788.01826
788.17073
788.33789
788.5211
788.72183
788.94165
789.18229
789.44561
789.7336
790.0484
790.39232
790.7678
791.17745
791.62405
792.11055
792.64007
793.21592
793.84157
794.52069
795.257
796.05467
796.91669
797.85127
798.84513
799.97462
800.94053
803.01771
790.25234
790.26837
790.28634
790.30629
790.32828
790.35245
790.37898
790.40805
790.4399
790.47479
790.51304
790.55503
790.60114
790.65183
790.70756
790.76885
790.83622
790.91022
790.99149
791.08069
791.17858
791.28599
791.40384
791.53313
791.67493
791.83043
792.0009
792.18769
792.39232
792.61638
792.86162
793.12993
793.42333
793.74398
794.09421
794.4765
794.89348
795.34796
795.84294
796.38158
796.96725
797.60349
798.29393
799.04263
799.85258
800.7317
801.66757
802.73284
803.64394
805.6092
793.61072
793.62563
793.6424
793.66108
793.68167
793.7043
793.72912
793.75631
793.78608
793.81867
793.85438
793.89356
793.93659
793.98389
794.03592
794.09313
794.15604
794.22515
794.30105
794.38436
794.47578
794.5761
794.68617
794.80694
794.93943
795.08473
795.24404
795.41865
795.60996
795.81948
796.04888
796.29992
796.57452
796.87473
797.20276
797.56096
797.95183
798.37807
798.84254
799.3483
799.89857
800.49681
801.14653
801.85171
802.61529
803.44495
804.329
805.33675
806.19875
808.06323
796.74715
796.76107
796.7768
796.79436
796.81372
796.83501
796.85835
796.88389
796.91183
796.9424
796.97588
797.01259
797.05291
797.09724
797.14601
797.19965
797.25863
797.32345
797.39462
797.47275
797.55848
797.65256
797.75579
797.86906
797.99334
798.12965
798.27912
798.44298
798.62254
798.81923
799.03462
799.2704
799.52837
799.81049
800.11885
800.45568
800.8234
801.22455
801.66191
802.13839
802.65713
803.22146
803.83482
804.50107
805.22313
806.00842
806.84593
807.80189
808.61966
810.39297
799.68772
799.70076
799.71557
799.73215
799.75043
799.77054
799.79257
799.81667
799.843
799.87178
799.90328
799.93782
799.97574
800.01743
800.06331
800.11379
800.1693
800.23031
800.29731
800.37085
800.45154
800.54008
800.63725
800.74387
800.86085
800.98919
801.12993
801.28424
801.45336
801.63865
801.84159
802.06378
802.30694
802.57294
802.86376
803.18154
803.52858
803.90732
804.32041
804.77069
805.26117
805.79509
806.37579
807.00704
807.6917
808.437
809.23249
810.14159
810.91934
812.60982
802.45425
802.4665
802.48049
802.4962
802.51354
802.5326
802.55347
802.57629
802.60119
802.62839
802.65813
802.69072
802.72651
802.76586
802.80916
802.85682
802.90925
802.96687
803.03014
803.09959
803.17579
803.2594
803.35115
803.45183
803.56232
803.68353
803.81648
803.96225
804.12204
804.29712
804.48892
804.69895
804.92886
805.18042
805.45551
805.7562
806.08466
806.44326
806.83454
807.26123
807.72625
808.23274
808.78396
809.38358
810.03442
810.74348
811.50087
812.3674
813.10878
814.72369
805.06517
805.07672
805.08998
805.10491
805.12141
805.13954
805.15938
805.18105
805.20468
805.23046
805.25863
805.28948
805.32335
805.3606
805.4016
805.44674
805.4964
805.55098
805.61092
805.6767
805.74888
805.82807
805.91496
806.01032
806.11497
806.22979
806.35573
806.49384
806.64523
806.81115
806.99293
807.19202
807.40999
807.64853
807.90945
808.19472
808.50642
808.84683
809.21839
809.62375
810.06572
810.54736
811.07185
811.64277
812.26288
812.93898
813.66166
814.48936
815.19755
816.74327
807.53619
807.5471
807.5597
807.57395
807.58969
807.60699
807.62592
807.64656
807.66905
807.69356
807.72031
807.7496
807.78175
807.8171
807.85603
807.89889
807.94606
807.99791
808.05485
808.11733
808.18588
808.26108
808.3436
808.43415
808.53354
808.64259
808.76221
808.8934
809.03722
809.19485
809.36757
809.55676
809.76393
809.9907
810.23879
810.51008
810.80659
811.13049
811.48416
811.87013
812.29115
812.75019
813.25033
813.79508
814.38716
815.03316
815.72413
816.51626
817.19407
818.67623
809.8808
809.89113
809.90314
809.91677
809.93183
809.94839
809.96649
809.98622
810.00768
810.03103
810.05651
810.08438
810.11497
810.14861
810.18566
810.22647
810.27139
810.32077
810.37499
810.43449
810.49975
810.57134
810.6499
810.73611
810.83072
810.93454
811.04843
811.17334
811.31029
811.4604
811.6249
811.80511
812.00246
812.21852
812.45494
812.71352
812.99619
813.30507
813.64241
814.0107
814.4126
814.85099
815.32888
815.84969
816.4161
817.03452
817.69639
818.45586
819.10574
820.52933
812.11066
812.12045
812.13193
812.145
812.15946
812.17535
812.19271
812.21161
812.23213
812.25445
812.27877
812.30535
812.33452
812.36661
812.40196
812.4409
812.48378
812.53091
812.58267
812.63945
812.70173
812.77004
812.84499
812.92724
813.01751
813.11657
813.22525
813.34445
813.47514
813.6184
813.7754
813.94741
814.13582
814.3421
814.56786
814.81482
815.08486
815.37998
815.7024
816.0545
816.43888
816.85833
817.31582
817.81466
818.35748
818.95054
819.58562
820.315
820.93915
822.3086
814.23593
814.24523
814.25622
814.26878
814.28269
814.29798
814.31467
814.33282
814.3525
814.37387
814.39713
814.42255
814.45042
814.48109
814.51489
814.55213
814.59314
814.63823
814.68774
814.74205
814.80161
814.86692
814.93858
815.01722
815.10353
815.19824
815.30215
815.41612
815.54109
815.67808
815.82822
815.99274
816.17295
816.37028
816.58628
816.82259
817.08103
817.36354
817.67225
818.00948
818.37775
818.77979
819.21848
819.69709
820.21818
820.78784
821.39821
822.09977
822.70013
824.01941
816.26548
816.27432
816.28487
816.29698
816.3104
816.32514
816.34122
816.35868
816.3776
816.3981
816.4204
816.44474
816.47144
816.50081
816.53318
816.56887
816.60818
816.6514
816.69885
816.7509
816.80796
816.87053
816.93918
817.01451
817.09718
817.18791
817.28745
817.39663
817.51634
817.64758
817.79143
817.94906
818.12174
818.31084
818.51786
818.74438
818.99215
819.26304
819.55912
819.88265
820.23606
820.62204
821.04339
821.50331
822.00432
822.55233
823.13983
823.8156
824.39392
825.6666
818.20713
818.21556
818.2257
818.2374
818.25036
818.26462
818.28015
818.29698
818.3152
818.33491
818.35632
818.37968
818.40529
818.43347
818.46454
818.4988
818.53654
818.57805
818.62362
818.67358
818.72836
818.78841
818.85428
818.92657
819.0059
819.09296
819.18848
819.29325
819.40814
819.53408
819.67213
819.82341
819.98915
820.17068
820.36941
820.5869
820.82481
821.08498
821.36939
821.68025
822.01993
822.39104
822.79634
823.23894
823.72133
824.24929
824.81555
825.46738
826.02522
827.2545
820.06781
820.07586
820.08562
820.09694
820.1095
820.1233
820.13833
820.1546
820.17217
820.19116
820.21175
820.23421
820.25882
820.2859
820.31576
820.34871
820.38502
820.42494
820.46877
820.51683
820.56949
820.62723
820.69054
820.76002
820.83628
820.91996
821.01177
821.11247
821.22289
821.34395
821.47664
821.62205
821.78138
821.9559
822.14697
822.3561
822.58489
822.83512
823.10873
823.40784
823.73479
824.09211
824.48251
824.90903
825.37413
825.88342
826.42993
827.05946
827.59823
828.78701
821.85366
821.86135
821.87077
821.88175
821.89393
821.90732
821.92189
821.93764
821.95462
821.97294
821.99278
822.0144
822.03809
822.06415
822.09291
822.12465
822.15963
822.1981
822.24032
822.28661
822.33733
822.39292
822.45387
822.52076
822.59416
822.67471
822.76309
822.86003
822.96632
823.08285
823.21058
823.35056
823.50395
823.67196
823.85594
824.0573
824.27764
824.51864
824.78221
825.07041
825.38552
825.73002
826.10655
826.51811
826.9671
827.45901
827.9871
828.59582
829.11679
830.2677
823.57017
823.57751
823.58662
823.59728
823.60912
823.62214
823.63629
823.65156
823.668
823.6857
823.70486
823.7257
823.74853
823.77366
823.80139
823.832
823.86575
823.90288
823.94362
823.98827
824.03718
824.09078
824.14955
824.21403
824.2848
824.36245
824.44765
824.54109
824.64355
824.75587
824.879
825.01394
825.1618
825.32377
825.50114
825.6953
825.90775
826.14018
826.3944
826.67243
826.97651
827.30905
827.67266
828.07025
828.50421
828.97988
829.49078
830.08004
830.58436
831.69978
825.22224
825.22927
825.23808
825.24845
825.25999
825.27266
825.28643
825.30126
825.31719
825.33433
825.35284
825.37297
825.395
825.41926
825.44603
825.47561
825.50822
825.54409
825.58346
825.62659
825.67384
825.72559
825.78233
825.84457
825.91288
825.98784
826.07007
826.16027
826.25916
826.36758
826.48641
826.61666
826.75937
826.91572
827.08694
827.27437
827.47948
827.7039
827.94939
828.21794
828.51171
828.83309
829.18461
829.56916
829.98905
830.44954
830.94432
831.51535
832.00408
833.0862
826.81429
826.82102
826.82957
826.83968
826.85093
826.86329
826.8767
826.89113
826.9066
826.92321
826.94112
826.96058
826.98187
827.00532
827.03121
827.05982
827.09137
827.12608
827.16417
827.20589
827.25158
827.30161
827.35646
827.41662
827.48264
827.55509
827.63457
827.72174
827.81731
827.92207
828.03691
828.16277
828.30069
828.45178
828.61725
828.7984
828.99666
829.21358
829.45092
829.7106
829.99472
830.30565
830.64586
831.01817
831.42489
831.87114
832.35082
832.90473
833.37882
834.42963
828.35031
828.35677
828.36506
828.37493
828.38592
828.39799
828.41108
828.42513
828.44018
828.4563
828.47365
828.49249
828.5131
828.53578
828.56085
828.58856
828.61913
828.65276
828.68965
828.73006
828.77429
828.82273
828.87581
828.93403
828.99792
829.06802
829.14492
829.22926
829.32172
829.42308
829.53418
829.65595
829.78938
829.93555
830.09565
830.27091
830.46274
830.67266
830.90236
831.15371
831.4288
831.72992
832.05951
832.42035
832.8147
833.24757
833.71306
834.25089
834.71121
835.73253
829.83392
829.84011
829.84817
829.85782
829.86856
829.88037
829.89316
829.90688
829.92152
829.93718
829.95402
829.97228
829.99224
830.01422
830.03852
830.06538
830.09503
830.12766
830.16344
830.20262
830.2455
830.29243
830.34386
830.40027
830.46216
830.53007
830.60457
830.68626
830.77581
830.87398
830.98158
831.09951
831.22873
831.3703
831.52535
831.6951
831.88091
832.08424
832.30676
832.5503
832.8169
833.10881
833.42842
833.77848
834.1612
834.58148
835.03362
835.55629
836.00365
836.99715
831.26839
831.27433
831.28217
831.29161
831.30214
831.31371
831.32622
831.33961
831.35389
831.36913
831.38548
831.4032
831.42256
831.44388
831.46745
831.49353
831.52232
831.554
831.58875
831.62678
831.66838
831.71392
831.76381
831.81851
831.87853
831.94439
832.01662
832.09583
832.18266
832.27784
832.38215
832.49647
832.62175
832.759
832.90931
833.07388
833.25402
833.45117
833.66694
833.90313
834.16174
834.44498
834.7552
835.0951
835.46686
835.87529
836.31484
836.82322
837.25835
838.22559
832.6567
832.66241
832.67005
832.67929
832.68962
832.70097
832.71322
832.72632
832.74026
832.7551
832.771
832.78821
832.807
832.8277
832.8506
832.87594
832.90393
832.93473
832.9685
833.00545
833.04587
833.09009
833.13853
833.19164
833.2499
833.31383
833.38394
833.46082
833.54509
833.63746
833.73868
833.84962
833.97118
834.10436
834.25022
834.40991
834.58472
834.77604
834.98546
835.21472
835.4658
835.74086
836.04224
836.37255
836.73398
837.13122
837.55889
838.05377
838.47735
839.41974
834.00158
834.00707
834.01451
834.02359
834.03373
834.04487
834.05689
834.06972
834.08334
834.09781
834.11329
834.13001
834.14828
834.1684
834.19066
834.21531
834.24254
834.27251
834.30537
834.34132
834.38062
834.4236
834.47068
834.52229
834.5789
834.64101
834.70913
834.78382
834.86568
834.9554
835.05372
835.16146
835.27953
835.40887
835.55053
835.70563
835.87541
836.06124
836.26466
836.48739
836.73136
836.99871
837.29172
837.61298
837.96465
838.35132
838.76775
839.24987
839.66252
840.58138
835.30552
835.3108
835.31807
835.32698
835.33695
835.34791
835.35971
835.37229
835.38561
835.39973
835.41481
835.43109
835.44886
835.46843
835.4901
835.5141
835.54062
835.56981
835.60181
835.63681
835.67506
835.71688
835.76268
835.81288
835.86794
835.92834
835.99458
836.0672
836.14679
836.23401
836.32959
836.43433
836.5491
836.67483
836.81252
836.96329
837.12831
837.30895
837.5067
837.72326
837.96051
838.22056
838.50567
838.81838
839.1608
839.53747
839.94327
840.41329
840.81561
841.71215
836.57083
836.57591
836.58301
836.59177
836.60159
836.61236
836.62397
836.63631
836.64935
836.66315
836.67786
836.69371
836.71101
836.73007
836.75117
836.77457
836.80042
836.82888
836.86008
836.89418
836.93144
836.97217
837.01676
837.06562
837.11922
837.17801
837.24248
837.31315
837.3906
837.47547
837.56846
837.67036
837.78201
837.90432
838.03827
838.18493
838.34547
838.5212
838.71359
838.9243
839.15519
839.40834
839.68595
839.99055
840.32423
840.69142
841.08714
841.5457
841.93821
842.81357
837.7996
837.80448
837.81143
837.82006
837.82973
837.84035
837.85177
837.86389
837.87667
837.89017
837.90452
837.91998
837.93683
837.9554
837.97598
837.9988
838.02403
838.05179
838.08223
838.11549
838.15182
838.19152
838.23497
838.28258
838.33479
838.39206
838.45486
838.52369
838.59911
838.68175
838.77229
838.87151
838.98021
839.09929
839.22969
839.37247
839.52875
839.69983
839.88714
840.09232
840.31718
840.56378
840.83429
841.13121
841.45659
841.81478
842.20094
842.64862
843.03182
843.88705
838.99378
838.99848
839.00528
839.01378
839.02332
839.03379
839.04504
839.05696
839.0695
839.08271
839.09673
839.11181
839.12825
839.14636
839.16644
839.18871
839.21335
839.24047
839.27019
839.30266
839.3381
839.37683
839.41919
839.46562
839.51652
839.57235
839.63357
839.70066
839.77416
839.8547
839.94292
840.03959
840.1455
840.26152
840.38856
840.52766
840.67991
840.84658
841.02907
841.22899
841.44814
841.68852
841.95229
842.24191
842.55941
842.90906
843.28614
843.72348
844.09782
844.9339
840.15516
840.15969
840.16635
840.17473
840.18415
840.19448
840.20558
840.21731
840.22962
840.24256
840.25627
840.271
840.28704
840.30471
840.32432
840.34608
840.37016
840.39667
840.42571
840.45743
840.49204
840.52984
840.57119
840.61649
840.66616
840.72063
840.78034
840.84578
840.91747
840.99601
841.08204
841.1763
841.27956
841.39267
841.51653
841.65213
841.80056
841.96304
842.14095
842.33588
842.54959
842.78406
843.04143
843.32412
843.63412
843.97566
844.3441
844.7716
845.13752
845.95536
841.28541
841.28977
841.2963
841.30458
841.31388
841.32409
841.33504
841.34659
841.35869
841.37138
841.3848
841.39918
841.41485
841.43212
841.45127
841.47255
841.4961
841.52203
841.55043
841.58144
841.61527
841.6522
841.69258
841.73682
841.78531
841.83849
841.89678
841.96066
842.03063
842.10727
842.19122
842.28318
842.38393
842.49428
842.61511
842.74739
842.89218
843.05068
843.22425
843.41443
843.62296
843.85182
844.1031
844.37918
844.68206
845.01586
845.37608
845.79421
846.15212
846.95257
842.38606
842.39026
842.39667
842.40485
842.41404
842.42414
842.43496
842.44635
842.45825
842.4707
842.48383
842.4979
842.51322
842.53009
842.54883
842.56965
842.5927
842.61808
842.64588
842.67622
842.7093
842.7454
842.78486
842.82809
842.87547
842.92742
842.98437
843.04676
843.11509
843.18993
843.2719
843.36169
843.46005
843.56777
843.68572
843.81485
843.95618
844.11089
844.28031
844.46597
844.66959
844.89309
845.13856
845.40836
845.70445
846.03089
846.38328
846.79247
847.14273
847.9266
843.45855
843.46259
843.46889
843.47697
843.48608
843.49607
843.50676
843.518
843.52972
843.54194
843.55481
843.56858
843.58355
843.60006
843.6184
843.63878
843.66136
843.68622
843.71345
843.74315
843.77552
843.81084
843.84944
843.8917
843.93803
843.98881
844.04448
844.10545
844.17223
844.24536
844.32545
844.41317
844.50925
844.61448
844.72969
844.8558
844.99384
845.14494
845.31042
845.49177
845.69069
845.9091
846.14903
846.41284
846.70245
847.02187
847.36678
847.76745
848.11042
848.87844
844.50421
844.5081
844.5143
844.52229
844.53131
844.54121
844.55178
844.56288
844.57442
844.58643
844.59905
844.61254
844.62719
844.64335
844.6613
844.68127
844.7034
844.72777
844.75446
844.78355
844.81526
844.84983
844.8876
844.92895
844.97427
845.02395
845.0784
845.13803
845.20333
845.27483
845.35312
845.43887
845.53279
845.63564
845.74824
845.87148
846.00637
846.15403
846.31575
846.49299
846.68743
846.90097
847.13563
847.39371
847.67714
847.98986
848.32764
848.72016
849.05617
849.80905
845.52428
845.52803
845.53412
845.54204
845.55098
845.56079
845.57126
845.58222
845.5936
845.60541
845.6178
845.63101
845.64536
845.66118
845.67877
845.69835
845.72006
845.74396
845.77013
845.79865
845.82972
845.86358
845.90057
845.94105
845.98541
846.03404
846.08732
846.14568
846.20957
846.27952
846.3561
846.43997
846.53182
846.6324
846.74251
846.86302
846.99491
847.13929
847.29741
847.47072
847.66089
847.86978
848.0994
848.35202
848.62954
848.93585
849.26681
849.65156
849.98091
850.7193
846.51992
846.52354
846.52953
846.53738
846.54624
846.55597
846.56634
846.57718
846.5884
846.60003
846.61219
846.62514
846.6392
846.65471
846.67196
846.69117
846.71247
846.73593
846.76161
846.78959
846.82004
846.85323
846.88947
846.92913
846.97258
847.0202
847.07238
847.12952
847.19206
847.26053
847.33549
847.41756
847.50744
847.60586
847.71358
847.83149
847.96051
848.10175
848.25643
848.426
848.61208
848.81652
849.04131
849.28871
849.56059
849.86077
850.18522
850.56252
850.8855
851.61003
847.49221
847.4957
847.5016
847.50938
847.51818
847.52783
847.53811
847.54884
847.55992
847.57136
847.58331
847.59602
847.60981
847.62501
847.64193
847.66079
847.68171
847.70475
847.72996
847.75742
847.7873
847.81984
847.85537
847.89424
847.93683
847.98349
848.03461
848.09059
848.15185
848.2189
848.29231
848.37267
848.46067
848.55701
848.66247
848.77787
848.90416
849.04239
849.19379
849.35976
849.54194
849.74213
849.9623
850.2047
850.47118
850.7655
851.08371
851.45388
851.77077
852.48201
848.44218
848.44553
848.45135
848.45907
848.4678
848.47739
848.48759
848.49821
848.50916
848.52043
848.53218
848.54465
848.55817
848.57309
848.5897
848.60822
848.62878
848.65142
848.67618
848.70315
848.73248
848.76441
848.79926
848.83738
848.87914
848.92489
848.975
849.02987
849.08991
849.15561
849.22752
849.30625
849.39245
849.48681
849.59009
849.70311
849.82677
849.96213
850.11039
850.27293
850.45136
850.64747
850.86323
851.10084
851.36214
851.65085
851.96308
852.32644
852.63748
853.33599
849.37076
849.37399
849.37972
849.38739
849.39607
849.4056
849.41572
849.42625
849.43706
849.44817
849.45973
849.47198
849.48525
849.49989
849.51621
849.53441
849.55462
849.57687
849.60122
849.62772
849.65652
849.68787
849.72207
849.75947
849.80044
849.84532
849.89447
849.94827
850.00714
850.07155
850.14205
850.21921
850.30369
850.39616
850.49735
850.60808
850.72924
850.86184
851.00708
851.16633
851.34117
851.53339
851.74491
851.97793
852.23428
852.51761
852.82411
853.18092
853.48636
854.17264
850.27885
850.28196
850.28762
850.29524
850.30387
850.31334
850.32339
850.33383
850.34452
850.35548
850.36686
850.37889
850.39193
850.40631
850.42234
850.44023
850.46011
850.48201
850.50595
850.532
850.56031
850.59109
850.62468
850.6614
850.7016
850.74565
850.79388
850.84667
850.90442
850.9676
851.03673
851.11239
851.19522
851.28587
851.38508
851.49362
851.61237
851.74233
851.88468
852.04078
852.21217
852.40064
852.60811
852.83673
853.08832
853.36649
853.6675
854.01802
854.3181
854.99264
851.1673
851.17029
851.17588
851.18345
851.19203
851.20146
851.21145
851.22179
851.23238
851.2432
851.25439
851.26623
851.27903
851.29316
851.30892
851.32653
851.34609
851.36764
851.3912
851.41683
851.44465
851.47491
851.5079
851.54396
851.58345
851.6267
851.67405
851.72586
851.78254
851.84454
851.91237
851.98659
852.06784
852.15676
852.25405
852.36049
852.47693
852.60436
852.74394
852.897
853.0651
853.24998
853.45354
853.67794
853.92496
854.19818
854.49392
854.83841
855.13333
855.79661
852.03688
852.03977
852.04528
852.05281
852.06136
852.07073
852.08067
852.09093
852.10141
852.1121
852.12313
852.13477
852.14736
852.16125
852.17675
852.19408
852.21334
852.23456
852.25776
852.28297
852.31034
852.34009
852.37251
852.40795
852.44674
852.48923
852.53574
852.58662
852.64227
852.70314
852.76971
852.84257
852.9223
853.00955
853.105
853.20942
853.32365
853.44866
853.58557
853.73573
853.90065
854.08208
854.2819
854.50224
854.74488
855.01334
855.30401
855.64271
855.93268
856.58512
852.88835
852.89113
852.89658
852.90407
852.91258
852.92192
852.9318
852.94199
852.95237
852.96293
852.9738
852.98525
852.99763
853.0113
853.02655
853.04362
853.06259
853.0835
853.10634
853.13117
853.1581
853.18737
853.21925
853.25408
853.29222
853.33397
853.37967
853.42966
853.48433
853.54411
853.60949
853.68102
853.75929
853.84494
853.93864
854.04112
854.15322
854.27589
854.41025
854.55761
854.71948
854.89759
855.09381
855.31026
855.54868
855.81257
856.09838
856.43151
856.71671
857.35873
853.72241
853.72508
853.73047
853.73792
853.7464
853.7557
853.76554
853.77566
853.78595
853.79638
853.80711
853.81838
853.83056
853.84401
853.85903
853.87584
853.89454
853.91515
853.93766
853.96212
853.98863
854.01743
854.04879
854.08305
854.12055
854.1616
854.20653
854.25567
854.30939
854.36812
854.43235
854.50262
854.57949
854.66361
854.75561
854.85623
854.96629
855.08671
855.21861
855.36328
855.52222
855.69714
855.8899
856.1026
856.33697
856.59647
856.87759
857.20537
857.48599
858.11798
854.53972
854.54228
854.54761
854.55504
854.56349
854.57276
854.58255
854.59261
854.60281
854.61313
854.62371
854.63482
854.64681
854.66004
854.67484
854.6914
854.70984
854.73017
854.75236
854.77646
854.80258
854.83093
854.86179
854.8955
854.93239
854.97277
855.01696
855.06527
855.11809
855.17582
855.23894
855.30799
855.38353
855.46616
855.55654
855.65537
855.76346
855.88173
856.01126
856.15334
856.30946
856.48131
856.67074
856.87983
857.11031
857.36557
857.64219
857.96482
858.24103
858.86336
855.3409
855.34337
855.34864
855.35603
855.36446
855.37371
855.38346
855.39346
855.40358
855.41379
855.42423
855.43518
855.44698
855.46002
855.4746
855.49093
855.50912
855.52917
855.55106
855.57482
855.60056
855.62848
855.65887
855.69205
855.72835
855.76809
855.81156
855.85909
855.91103
855.9678
856.02987
856.09774
856.17199
856.2532
856.34201
856.43913
856.54532
856.66151
856.78876
856.92835
857.08175
857.25065
857.43688
857.64249
857.86921
858.1204
858.39268
858.71035
858.98231
859.59534
856.12654
856.12892
856.13414
856.14151
856.14992
856.15914
856.16885
856.17881
856.18884
856.19895
856.20926
856.22005
856.23168
856.24452
856.2589
856.27501
856.29296
856.31275
856.33435
856.35778
856.38315
856.41066
856.4406
856.47327
856.50901
856.54813
856.59092
856.63769
856.6888
856.74464
856.80568
856.87243
856.94544
857.02528
857.11259
857.20805
857.31242
857.4266
857.55166
857.68885
857.83964
858.00569
858.18882
858.39109
858.61419
858.86146