/*--------------------------------*- C++ -*----------------------------------*\
| =========                 |                                                 |
| \\      /  F ield         | OpenFOAM: The Open Source CFD Toolbox           |
|  \\    /   O peration     | Version:  4.0                                   |
|   \\  /    A nd           | Web:      www.OpenFOAM.org                      |
|    \\/     M anipulation  |                                                 |
\*---------------------------------------------------------------------------*/
FoamFile
{
    version     2.0;
    format      ascii;
    class       surfaceScalarField;
    location    "746";
    object      phi;
}
// * * * * * * * * * * * * * * * * * * * * * * * * * * * * * * * * * * * * * //

dimensions      [1 0 -1 0 0 0 0];

internalField   nonuniform List<scalar> 
9850
(
1.1463282e-10
1.7787941e-10
4.7084813e-10
6.0392544e-10
1.0949325e-09
1.1678226e-09
2.0032859e-09
1.901246e-09
3.197332e-09
2.8396332e-09
4.6582542e-09
4.0207981e-09
6.342316e-09
5.4825171e-09
8.1779361e-09
7.258893e-09
1.0065924e-08
9.3755617e-09
1.1884224e-08
1.1844218e-08
1.3498011e-08
1.4657514e-08
1.4774868e-08
1.7785975e-08
1.5603176e-08
2.117899e-08
1.5910118e-08
2.4771667e-08
1.5674672e-08
2.8498346e-08
1.4931407e-08
3.2311569e-08
1.3763221e-08
3.6203205e-08
1.2284696e-08
4.0223059e-08
1.0621043e-08
4.4490836e-08
8.8885602e-09
4.9199746e-08
7.1810536e-09
5.4612887e-08
5.5635533e-09
6.1055374e-08
4.0719427e-09
6.8905387e-08
2.7158357e-09
7.8586608e-08
1.4823593e-09
9.0564047e-08
3.3981568e-10
1.0534514e-07
-7.5780261e-10
1.2348792e-07
-1.8665525e-09
1.4561905e-07
-3.0470618e-09
1.7246182e-07
-4.3569173e-09
2.0487267e-07
-5.8432134e-09
2.4388536e-07
-7.5375064e-09
2.9076005e-07
-9.4534885e-09
3.4703578e-07
-1.158814e-08
4.1458717e-07
-1.3925495e-08
4.9568857e-07
-1.6442815e-08
5.9308956e-07
-1.9119309e-08
7.1010599e-07
-2.1946722e-08
8.5072919e-07
-2.4943529e-08
1.0197567e-06
-2.8173594e-08
1.2229448e-06
-3.1758103e-08
1.467177e-06
-3.5937064e-08
1.7607027e-06
-4.1040397e-08
2.1132243e-06
-4.7630702e-08
2.5364273e-06
-5.6947915e-08
3.04385e-06
-6.9066466e-08
3.6500711e-06
-9.1554422e-08
4.3784711e-06
-1.2222991e-07
5.2339579e-06
-2.3191171e-07
6.3601506e-06
6.74514e-06
-8.1323717e-11
2.5920289e-10
-3.4889363e-10
8.7149492e-10
-8.4745575e-10
1.6663843e-09
-1.6287754e-09
2.6825654e-09
-2.7525527e-09
3.9634101e-09
-4.2876192e-09
5.5558638e-09
-6.3132737e-09
7.5081712e-09
-8.9203521e-09
9.8659709e-09
-1.2211077e-08
1.2666285e-08
-1.6296009e-08
1.592915e-08
-2.1285765e-08
1.9647268e-08
-2.7275098e-08
2.3775308e-08
-3.4318401e-08
2.8222292e-08
-4.2399131e-08
3.2852399e-08
-5.1400702e-08
3.7499919e-08
-6.1090429e-08
4.2001299e-08
-7.1127748e-08
4.6240528e-08
-8.1100732e-08
5.0196049e-08
-9.0583408e-08
5.3973514e-08
-9.9196846e-08
5.7813186e-08
-1.0665583e-07
6.2071872e-08
-1.1279024e-07
6.7189795e-08
-1.1754136e-07
7.3656503e-08
-1.2094123e-07
8.1986478e-08
-1.230859e-07
9.2708733e-08
-1.2411058e-07
1.0636983e-07
-1.2417051e-07
1.2354783e-07
-1.2342702e-07
1.4487555e-07
-1.2203774e-07
1.7107252e-07
-1.2014991e-07
2.0298484e-07
-1.1789719e-07
2.4163263e-07
-1.1540095e-07
2.8826384e-07
-1.1277712e-07
3.4441196e-07
-1.1014719e-07
4.1195724e-07
-1.0765099e-07
4.9319235e-07
-1.0545831e-07
5.9089687e-07
-1.0377795e-07
7.0842563e-07
-1.0286513e-07
8.4981633e-07
-1.0302686e-07
1.0199184e-06
-1.0464343e-07
1.2245614e-06
-1.0817537e-07
1.470709e-06
-1.1421934e-07
1.7667467e-06
-1.237111e-07
2.122716e-06
-1.3733819e-07
2.5500544e-06
-1.5837065e-07
3.0648824e-06
-1.8587647e-07
3.677577e-06
-2.312965e-07
4.4238912e-06
-3.1848714e-07
5.3211485e-06
-5.0409017e-07
6.5457535e-06
6.24105e-06
-3.7892004e-11
2.970946e-10
-1.6805351e-10
1.001656e-09
-4.2168316e-10
1.9200137e-09
-8.3826638e-10
3.0991485e-09
-1.4673989e-09
4.5925427e-09
-2.3708426e-09
6.4593076e-09
-3.624769e-09
8.7620979e-09
-5.3220593e-09
1.1563261e-08
-7.5743453e-09
1.4918572e-08
-1.0513119e-08
1.8867924e-08
-1.4288541e-08
2.3422691e-08
-1.906355e-08
2.8550316e-08
-2.4999718e-08
3.4158459e-08
-3.2231083e-08
4.0083762e-08
-4.0824553e-08
4.6093391e-08
-5.0732119e-08
5.1908865e-08
-6.1749483e-08
5.7257893e-08
-7.3502207e-08
6.1948773e-08
-8.5475636e-08
6.5946943e-08
-9.7087436e-08
6.9424988e-08
-1.0778107e-07
7.2765511e-08
-1.1710949e-07
7.6518224e-08
-1.2478608e-07
8.133309e-08
-1.3069671e-07
8.789711e-08
-1.3488144e-07
9.6893461e-08
-1.3749976e-07
1.0898814e-07
-1.3879191e-07
1.2483999e-07
-1.3904358e-07
1.4512723e-07
-1.3855626e-07
1.7058519e-07
-1.3762401e-07
2.0205259e-07
-1.3651663e-07
2.4052526e-07
-1.3546921e-07
2.8721643e-07
-1.3467922e-07
3.4362199e-07
-1.343114e-07
4.1158941e-07
-1.345095e-07
4.9339043e-07
-1.3541329e-07
5.9180066e-07
-1.371793e-07
7.1019163e-07
-1.4000674e-07
8.5264371e-07
-1.4416418e-07
1.0240758e-06
-1.500277e-07
1.230425e-06
-1.5815551e-07
1.4788368e-06
-1.6919833e-07
1.7777896e-06
-1.8452914e-07
2.1380468e-06
-2.0494951e-07
2.5704748e-06
-2.3379041e-07
3.0937234e-06
-2.7295905e-07
3.7167458e-06
-3.3025627e-07
4.4811884e-06
-4.5641744e-07
5.4473097e-06
-5.8914551e-07
6.6784815e-06
5.6519046e-06
-2.7254581e-11
3.243491e-10
-1.2152816e-10
1.0959295e-09
-3.0637036e-10
2.1048555e-09
-6.121591e-10
3.4049367e-09
-1.0779534e-09
5.0583368e-09
-1.7537223e-09
7.1350762e-09
-2.7029698e-09
9.7113455e-09
-4.0056914e-09
1.2865983e-08
-5.7614454e-09
1.6674326e-08
-8.092096e-09
2.1198574e-08
-1.1143357e-08
2.6473952e-08
-1.5083635e-08
3.2490594e-08
-2.0097714e-08
3.9172538e-08
-2.637182e-08
4.6357866e-08
-3.4066237e-08
5.3787809e-08
-4.3273745e-08
6.1116374e-08
-5.3968386e-08
6.7952538e-08
-6.5959347e-08
7.3939737e-08
-7.887275e-08
7.8860352e-08
-9.2180681e-08
8.2732926e-08
-1.0527781e-07
8.586265e-08
-1.1758224e-07
8.8822654e-08
-1.286258e-07
9.237666e-08
-1.3810784e-07
9.7379146e-08
-1.4590563e-07
1.0469124e-07
-1.5205146e-07
1.1513396e-07
-1.5669253e-07
1.2948105e-07
-1.6004772e-07
1.4848241e-07
-1.6237011e-07
1.7290755e-07
-1.6391871e-07
2.0360117e-07
-1.6494042e-07
2.4154698e-07
-1.6566162e-07
2.8793765e-07
-1.6628897e-07
3.4424935e-07
-1.6701854e-07
4.1231897e-07
-1.6805151e-07
4.944234e-07
-1.6961369e-07
5.9336286e-07
-1.7197482e-07
7.1255275e-07
-1.7546762e-07
8.5613648e-07
-1.805096e-07
1.0291177e-06
-1.8760371e-07
1.2375191e-06
-1.974606e-07
1.4886937e-06
-2.1080378e-07
1.7911328e-06
-2.2897429e-07
2.1562173e-06
-2.5329986e-07
2.5948005e-06
-2.853337e-07
3.1257573e-06
-3.304488e-07
3.761861e-06
-3.9577218e-07
4.5465117e-06
-5.26713e-07
5.5782505e-06
-5.5674181e-07
6.7085102e-06
5.0951628e-06
-2.0641827e-11
3.4499078e-10
-9.2163524e-11
1.1674511e-09
-2.3268252e-10
2.2453746e-09
-4.6576894e-10
3.6380234e-09
-8.2199089e-10
5.4145586e-09
-1.3408826e-09
7.6539679e-09
-2.0733956e-09
1.0443858e-08
-3.0848616e-09
1.3877448e-08
-4.458425e-09
1.8047889e-08
-6.2987148e-09
2.3038864e-08
-8.7352066e-09
2.8910443e-08
-1.1924153e-08
3.567954e-08
-1.6047157e-08
4.3295541e-08
-2.1303341e-08
5.161405e-08
-2.7891174e-08
6.0375643e-08
-3.5976157e-08
6.9201356e-08
-4.5643724e-08
7.7620107e-08
-5.6844385e-08
8.5140401e-08
-6.9348769e-08
9.1364741e-08
-8.2736846e-08
9.6121014e-08
-9.6438528e-08
9.9564338e-08
-1.0982087e-07
1.0220501e-07
-1.2229415e-07
1.0484994e-07
-1.3340132e-07
1.0848632e-07
-1.4286789e-07
1.1415782e-07
-1.506089e-07
1.2287496e-07
-1.5670425e-07
1.355764e-07
-1.6135795e-07
1.5313611e-07
-1.6485346e-07
1.7640307e-07
-1.6751284e-07
2.0626057e-07
-1.6966341e-07
2.4369754e-07
-1.716135e-07
2.8988776e-07
-1.73639e-07
3.4627486e-07
-1.7598075e-07
4.1466073e-07
-1.7885316e-07
4.9729585e-07
-1.8246273e-07
5.9697242e-07
-1.8703272e-07
7.1712275e-07
-1.9283052e-07
8.6193425e-07
-2.002099e-07
1.0364971e-06
-2.0961215e-07
1.2469213e-06
-2.2168222e-07
1.5007639e-06
-2.3722004e-07
1.8066706e-06
-2.5719041e-07
2.1761877e-06
-2.8352747e-07
2.6211376e-06
-3.1647817e-07
3.158708e-06
-3.6304846e-07
3.8084313e-06
-4.3424215e-07
4.6177054e-06
-5.4870888e-07
5.6927173e-06
-5.0572068e-07
6.6655221e-06
4.5894422e-06
-1.8427165e-11
3.6341786e-10
-8.2157727e-11
1.2311814e-09
-2.0710863e-10
2.3703253e-09
-4.1386488e-10
3.844779e-09
-7.2899237e-10
5.7296859e-09
-1.1867013e-09
8.1116763e-09
-1.830926e-09
1.1088083e-08
-2.7178975e-09
1.4764419e-08
-3.9192221e-09
1.9249213e-08
-5.5253978e-09
2.464504e-08
-7.6494765e-09
3.1034521e-08
-1.0430164e-08
3.8460226e-08
-1.4032988e-08
4.6898364e-08
-1.8647169e-08
5.622823e-08
-2.4474671e-08
6.6203144e-08
-3.1707289e-08
7.6433973e-08
-4.0488766e-08
8.6401581e-08
-5.0863812e-08
9.5515449e-08
-6.2725069e-08
1.03226e-07
-7.5778883e-08
1.0917484e-07
-8.9552789e-08
1.1333826e-07
-1.0345437e-07
1.161066e-07
-1.1686735e-07
1.1826293e-07
-1.2925265e-07
1.2087164e-07
-1.4022293e-07
1.2512809e-07
-1.495751e-07
1.3222712e-07
-1.5728442e-07
1.4328572e-07
-1.6347358e-07
1.5932527e-07
-1.6837103e-07
1.8130054e-07
-1.722692e-07
2.1015875e-07
-1.75488e-07
2.4691634e-07
-1.7834692e-07
2.9274671e-07
-1.8114725e-07
3.4907522e-07
-1.8416538e-07
4.1767886e-07
-1.8765709e-07
5.0078756e-07
-1.9187166e-07
6.0118697e-07
-1.9707336e-07
7.2232445e-07
-2.0356158e-07
8.6842248e-07
-2.117051e-07
1.0446406e-06
-2.2195716e-07
1.2571733e-06
-2.3487152e-07
1.5136783e-06
-2.5130036e-07
1.8230994e-06
-2.7186047e-07
2.1967479e-06
-2.9844178e-07
2.6477189e-06
-3.3141039e-07
3.1916767e-06
-3.774991e-07
3.8545201e-06
-4.5078156e-07
4.690988e-06
-5.4041788e-07
5.7823537e-06
-4.4333556e-07
6.5684399e-06
4.1461066e-06
-1.6166094e-11
3.7958397e-10
-7.2106876e-11
1.2871223e-09
-1.8185206e-10
2.4800703e-09
-3.6357858e-10
4.0265055e-09
-6.4078117e-10
6.0068882e-09
-1.0437578e-09
8.5146523e-09
-1.6114776e-09
1.1655802e-08
-2.3939005e-09
1.5546842e-08
-3.4547834e-09
2.0310095e-08
-4.8749597e-09
2.6065216e-08
-6.755915e-09
3.2915476e-08
-9.223197e-09
4.0927507e-08
-1.2428675e-08
5.0103841e-08
-1.6549829e-08
6.0349381e-08
-2.1783163e-08
7.1436474e-08
-2.8327848e-08
8.2978653e-08
-3.635577e-08
9.4429497e-08
-4.5967028e-08
1.051267e-07
-5.7136977e-08
1.1439595e-07
-6.9670835e-08
1.2170871e-07
-8.3188605e-08
1.2685603e-07
-9.7157572e-08
1.3007558e-07
-1.109706e-07
1.3207597e-07
-1.2404616e-07
1.3394721e-07
-1.3591728e-07
1.3699923e-07
-1.4628601e-07
1.4259586e-07
-1.5503777e-07
1.5203747e-07
-1.6222443e-07
1.6651193e-07
-1.6802969e-07
1.871058e-07
-1.7272812e-07
2.1485718e-07
-1.7664537e-07
2.5083358e-07
-1.8012359e-07
2.9622491e-07
-1.8349498e-07
3.524466e-07
-1.8706577e-07
4.2124968e-07
-1.9111259e-07
5.048344e-07
-1.9589057e-07
6.0596495e-07
-2.0165335e-07
7.2808726e-07
-2.0867698e-07
8.7544616e-07
-2.1728676e-07
1.0532504e-06
-2.2790843e-07
1.267795e-06
-2.4100597e-07
1.5267758e-06
-2.5737745e-07
1.8394709e-06
-2.7756992e-07
2.2169404e-06
-3.0298145e-07
2.6731306e-06
-3.3489702e-07
3.2235923e-06
-3.7943449e-07
3.8990576e-06
-4.4923373e-07
4.7607873e-06
-5.112817e-07
5.8444017e-06
-3.7803591e-07
6.4351942e-06
3.7680707e-06
-1.4697923e-11
3.9428206e-10
-6.5543995e-11
1.3379684e-09
-1.6526121e-10
2.5797878e-09
-3.3032072e-10
4.191565e-09
-5.8199934e-10
6.2585669e-09
-9.4772484e-10
8.8803777e-09
-1.4627713e-09
1.2170849e-08
-2.172373e-09
1.6256444e-08
-3.13431e-09
2.1272032e-08
-4.4219652e-09
2.7352871e-08
-6.1277594e-09
3.4621271e-08
-8.3666236e-09
4.3166372e-08
-1.127877e-08
5.3015985e-08
-1.5030336e-08
6.4100941e-08
-1.9809508e-08
7.6215639e-08
-2.5814681e-08
8.8983818e-08
-3.3230731e-08
1.0184554e-07
-4.2191012e-08
1.1408698e-07
-5.2727879e-08
1.2493281e-07
-6.4723321e-08
1.3370415e-07
-7.7879975e-08
1.4001269e-07
-9.1732796e-08
1.4392842e-07
-1.0570813e-07
1.4605133e-07
-1.1921514e-07
1.4745425e-07
-1.3173953e-07
1.4952364e-07
-1.4291187e-07
1.5376822e-07
-1.5253802e-07
1.6166364e-07
-1.6059525e-07
1.7456915e-07
-1.6720592e-07
1.9371646e-07
-1.7260104e-07
2.2025231e-07
-1.7708209e-07
2.5531461e-07
-1.8098563e-07
3.0012846e-07
-1.8465422e-07
3.5611517e-07
-1.884153e-07
4.2501075e-07
-1.9257111e-07
5.0899021e-07
-1.973999e-07
6.1079381e-07
-2.0316878e-07
7.3385614e-07
-2.1015563e-07
8.8243304e-07
-2.1866335e-07
1.0617582e-06
-2.2908107e-07
1.2782128e-06
-2.4181952e-07
1.5395143e-06
-2.5751128e-07
1.8551627e-06
-2.7673961e-07
2.2361688e-06
-3.0040488e-07
2.6967958e-06
-3.3057161e-07
3.2537591e-06
-3.7308776e-07
3.9415739e-06
-4.3564805e-07
4.8233477e-06
-4.7151201e-07
5.8802658e-06
-3.184613e-07
6.2821434e-06
3.4496096e-06
-1.342543e-11
4.0770783e-10
-5.987557e-11
1.3844189e-09
-1.5098375e-10
2.6708962e-09
-3.0181617e-10
4.3423977e-09
-5.3184331e-10
6.4885943e-09
-8.6617647e-10
9.2147112e-09
-1.3371309e-09
1.2641803e-08
-1.9861821e-09
1.6905495e-08
-2.8663709e-09
2.2152221e-08
-4.0451846e-09
2.8531684e-08
-5.6078428e-09
3.6183928e-08
-7.6607598e-09
4.5219288e-08
-1.033459e-08
5.5689812e-08
-1.3785702e-08
6.7552049e-08
-1.8194083e-08
8.0624011e-08
-2.3754611e-08
9.4544333e-08
-3.0657964e-08
1.0874887e-07
-3.9058095e-08
1.2248709e-07
-4.902693e-08
1.3490163e-07
-6.0504505e-08
1.4518171e-07
-7.3261727e-08
1.5276992e-07
-8.6896569e-08
1.5756327e-07
-1.0087591e-07
1.600307e-07
-1.1461577e-07
1.6119413e-07
-1.2757451e-07
1.6248242e-07
-1.3933014e-07
1.6552389e-07
-1.4962373e-07
1.7195724e-07
-1.5836753e-07
1.8331296e-07
-1.656273e-07
2.0097624e-07
-1.7159069e-07
2.2621569e-07
-1.7653094e-07
2.6025486e-07
-1.8077152e-07
3.0436903e-07
-1.846545e-07
3.5999817e-07
-1.8851564e-07
4.2887189e-07
-1.9266842e-07
5.13143e-07
-1.9739989e-07
6.155253e-07
-2.0297745e-07
7.3943372e-07
-2.0966959e-07
8.8912516e-07
-2.1775861e-07
1.0698473e-06
-2.2758706e-07
1.2880412e-06
-2.3954264e-07
1.5514699e-06
-2.5410232e-07
1.8697224e-06
-2.7186825e-07
2.2539348e-06
-2.9353061e-07
2.7184582e-06
-3.2152704e-07
3.2817556e-06
-3.614011e-07
3.9814481e-06
-4.1468561e-07
4.8766322e-06
-4.2727693e-07
5.8928573e-06
-2.6564417e-07
6.1205109e-06
3.1839655e-06
-1.2424891e-11
4.201333e-10
-5.5411649e-11
1.4274061e-09
-1.3972125e-10
2.7552064e-09
-2.7928918e-10
4.4819663e-09
-4.921241e-10
6.7014302e-09
-8.0145472e-10
9.5240424e-09
-1.237179e-09
1.3077529e-08
-1.8376886e-09
1.7506006e-08
-2.6521195e-09
2.2966654e-08
-3.743075e-09
2.9622641e-08
-5.189772e-09
3.7630625e-08
-7.091452e-09
4.7120966e-08
-9.5705742e-09
5.8168931e-08
-1.2774849e-08
7.0756316e-08
-1.6876386e-08
8.4725536e-08
-2.2065275e-08
9.9733203e-08
-2.8534058e-08
1.1521763e-07
-3.6449737e-08
1.3040274e-07
-4.5912631e-08
1.443645e-07
-5.6907661e-08
1.5617672e-07
-6.9262384e-08
1.6512463e-07
-8.2631815e-08
1.7093271e-07
-9.6525571e-08
1.7392449e-07
-1.1037628e-07
1.7504489e-07
-1.2362912e-07
1.7573531e-07
-1.3582396e-07
1.7771875e-07
-1.4664863e-07
1.8278195e-07
-1.5595757e-07
1.9262191e-07
-1.6376212e-07
2.0878078e-07
-1.7020414e-07
2.3265772e-07
-1.7552281e-07
2.6557353e-07
-1.8002039e-07
3.0886662e-07
-1.8403052e-07
3.6400834e-07
-1.8789103e-07
4.3273241e-07
-1.9192379e-07
5.1717575e-07
-1.9642487e-07
6.2002633e-07
-2.0166517e-07
7.4467398e-07
-2.0790486e-07
8.9536484e-07
-2.1540939e-07
1.0773518e-06
-2.2447307e-07
1.297105e-06
-2.3544874e-07
1.5624456e-06
-2.487018e-07
1.8829755e-06
-2.6478116e-07
2.2700141e-06
-2.8439499e-07
2.7380721e-06
-3.100607e-07
3.3074214e-06
-3.4661109e-07
4.0179986e-06
-3.8979378e-07
4.9198149e-06
-3.8292842e-07
5.885992e-06
-2.20217e-07
5.9577996e-06
2.9637485e-06
-1.1578845e-11
4.3171298e-10
-5.1639642e-11
1.4674674e-09
-1.302108e-10
2.8337782e-09
-2.6028006e-10
4.6120364e-09
-4.58633e-10
6.8997844e-09
-7.4692351e-10
9.8123346e-09
-1.1530313e-09
1.3483638e-08
-1.7127698e-09
1.8065747e-08
-2.4720074e-09
2.3725894e-08
-3.4892448e-09
3.063988e-08
-4.8386345e-09
3.8980016e-08
-6.6133145e-09
4.8895646e-08
-8.9286823e-09
6.0484294e-08
-1.1924794e-08
7.3752418e-08
-1.5766433e-08
8.856716e-08
-2.0638438e-08
1.0460518e-07
-2.6732987e-08
1.2131215e-07
-3.4225388e-08
1.378951e-07
-4.3236771e-08
1.5337584e-07
-5.3787293e-08
1.6672721e-07
-6.575165e-08
1.7708896e-07
-7.8835568e-08
1.8401664e-07
-9.2590638e-08
1.876796e-07
-1.0647131e-07
1.8892561e-07
-1.1991899e-07
1.8918306e-07
-1.3244638e-07
1.9024619e-07
-1.4369825e-07
1.9403385e-07
-1.5347895e-07
2.0240264e-07
-1.6175026e-07
2.1705211e-07
-1.6861002e-07
2.3951751e-07
-1.7426191e-07
2.7122541e-07
-1.7898274e-07
3.1358745e-07
-1.8309126e-07
3.6811684e-07
-1.8691989e-07
4.3656106e-07
-1.907921e-07
5.2104795e-07
-1.95008e-07
6.2424224e-07
-1.998405e-07
7.4950648e-07
-2.0554285e-07
9.010672e-07
-2.1236644e-07
1.0841755e-06
-2.2057061e-07
1.3053091e-06
-2.3046481e-07
1.5723398e-06
-2.4235532e-07
1.894866e-06
-2.567155e-07
2.2843744e-06
-2.7436576e-07
2.7557224e-06
-2.9774824e-07
3.3308039e-06
-3.3056248e-07
4.0508129e-06
-3.6380799e-07
4.9530605e-06
-3.4147153e-07
5.8636556e-06
-1.8234302e-07
5.7986713e-06
2.7814054e-06
-1.0864851e-11
4.4257915e-10
-4.8455571e-11
1.5050594e-09
-1.2218114e-10
2.9075051e-09
-2.4422685e-10
4.7340834e-09
-4.3034136e-10
7.0859003e-09
-7.0084168e-10
1.0082837e-08
-1.0818917e-09
1.3864691e-08
-1.6071114e-09
1.8590969e-08
-2.3195818e-09
2.4438368e-08
-3.2742963e-09
3.1594597e-08
-4.5410577e-09
4.0246779e-08
-6.2077275e-09
5.0562316e-08
-8.3835227e-09
6.2660085e-08
-1.1201681e-08
7.6570565e-08
-1.4820202e-08
9.2185659e-08
-1.9418532e-08
1.0920348e-07
-2.5187129e-08
1.2708069e-07
-3.2306424e-08
1.4501434e-07
-4.091301e-08
1.6198236e-07
-5.105513e-08
1.7686926e-07
-6.2647048e-08
1.8868083e-07
-7.5439471e-08
1.9680905e-07
-8.9024092e-08
2.0126425e-07
-1.0287998e-07
2.0278157e-07
-1.1645135e-07
2.0275451e-07
-1.2923199e-07
2.0302692e-07
-1.4083177e-07
2.056337e-07
-1.510117e-07
2.1258262e-07
-1.5968863e-07
2.2572909e-07
-1.6691884e-07
2.4674773e-07
-1.7287065e-07
2.7717721e-07
-1.777937e-07
3.1851049e-07
-1.8198853e-07
3.7231166e-07
-1.8577824e-07
4.4035076e-07
-1.8948412e-07
5.2475385e-07
-1.9340791e-07
6.2816603e-07
-1.978236e-07
7.5392217e-07
-2.0297916e-07
9.0622276e-07
-2.0911186e-07
1.0903082e-06
-2.1645546e-07
1.3126528e-06
-2.2527329e-07
1.5811576e-06
-2.3584131e-07
1.9054341e-06
-2.4857798e-07
2.2971111e-06
-2.6441798e-07
2.7715625e-06
-2.8563743e-07
3.3520235e-06
-3.1453226e-07
4.0797078e-06
-3.3853924e-07
4.9770675e-06
-3.0427263e-07
5.8293891e-06
-1.5133798e-07
5.6457367e-06
2.6300676e-06
-1.0249864e-11
4.5283069e-10
-4.5713579e-11
1.5405244e-09
-1.152663e-10
2.9770593e-09
-2.3040195e-10
4.8492209e-09
-4.0597617e-10
7.261477e-09
-6.6115599e-10
1.033802e-08
-1.0206271e-09
1.4224166e-08
-1.5161177e-09
1.9086464e-08
-2.1883027e-09
2.5110557e-08
-3.0891399e-09
3.2495438e-08
-4.284653e-09
4.1442294e-08
-5.8580946e-09
5.2135756e-08
-7.9132371e-09
6.4715221e-08
-1.057721e-08
7.9234523e-08
-1.4001761e-08
9.5610184e-08
-1.8361015e-08
1.1356269e-07
-2.3842888e-08
1.3256251e-07
-3.0630753e-08
1.5180212e-07
-3.8872773e-08
1.7022429e-07
-4.8639788e-08
1.866362e-07
-5.9879557e-08
1.9992053e-07
-7.2382676e-08
2.0931214e-07
-8.5778663e-08
2.1466025e-07
-9.9572596e-08
2.1657558e-07
-1.1321606e-07
2.1639807e-07
-1.2619049e-07
2.1600146e-07
-1.3807759e-07
2.1752089e-07
-1.4860097e-07
2.2310608e-07
-1.5763716e-07
2.3476534e-07
-1.6520372e-07
2.5431433e-07
-1.7143488e-07
2.8340838e-07
-1.7655253e-07
3.2362812e-07
-1.8083687e-07
3.7659597e-07
-1.845985e-07
4.441124e-07
-1.8815346e-07
5.2830882e-07
-1.9180294e-07
6.3181552e-07
-1.9582153e-07
7.5794077e-07
-2.0045445e-07
9.1085571e-07
-2.0592757e-07
1.0957813e-06
-2.1245656e-07
1.3191818e-06
-2.2026629e-07
1.5889674e-06
-2.2961509e-07
1.914783e-06
-2.4089938e-07
2.3083955e-06
-2.5512752e-07
2.7857908e-06
-2.7434074e-07
3.3712368e-06
-2.9933103e-07
4.1046982e-06
-3.150597e-07
4.9927963e-06
-2.718441e-07
5.7861736e-06
-1.2636188e-07
5.5002546e-06
2.5037059e-06
-9.7145457e-12
4.6254732e-10
-4.3326569e-11
1.5741381e-09
-1.0924655e-10
3.0429813e-09
-2.1836629e-10
4.9583435e-09
-3.847644e-10
7.4278786e-09
-6.2660553e-10
1.0579865e-08
-9.6728619e-10
1.4564851e-08
-1.4368836e-09
1.9556067e-08
-2.0739708e-09
2.574765e-08
-2.9278476e-09
3.334932e-08
-4.0612207e-09
4.2575672e-08
-5.5532789e-09
5.3627815e-08
-7.5029536e-09
6.6664891e-08
-1.0031884e-08
8.1763437e-08
-1.3286061e-08
9.8864329e-08
-1.7434451e-08
1.1771103e-07
-2.2661945e-08
1.3778992e-07
-2.9153321e-08
1.5829339e-07
-3.7065404e-08
1.7813625e-07
-4.6487407e-08
1.9605808e-07
-5.739557e-08
2.1082859e-07
-6.9615955e-08
2.2153247e-07
-8.2813455e-08
2.2785776e-07
-9.6519641e-08
2.3028184e-07
-1.1019677e-07
2.3007533e-07
-1.23319e-07
2.2912383e-07
-1.3544554e-07
2.2964756e-07
-1.4626782e-07
2.3392848e-07
-1.5562628e-07
2.441239e-07
-1.6350289e-07
2.6219102e-07
-1.6999961e-07
2.8990513e-07
-1.7531102e-07
3.2893954e-07
-1.7969624e-07
3.8098115e-07
-1.8345157e-07
4.4786771e-07
-1.8688542e-07
5.3174267e-07
-1.902967e-07
6.3522678e-07
-1.9395984e-07
7.6160392e-07
-1.9811881e-07
9.1501466e-07
-2.0299099e-07
1.1006535e-06
-2.0877894e-07
1.3249699e-06
-2.156811e-07
1.5958696e-06
-2.2394522e-07
1.9230471e-06
-2.3397526e-07
2.3184256e-06
-2.468044e-07
2.7986201e-06
-2.641823e-07
3.3886147e-06
-2.8543425e-07
4.1259502e-06
-2.9392537e-07
5.0012875e-06
-2.4415333e-07
5.7364017e-06
-1.0649692e-07
5.3625983e-06
2.397209e-06
-9.2432664e-12
4.7179328e-10
-4.1225922e-11
1.606123e-09
-1.0394922e-10
3.1057073e-09
-2.0777566e-10
5.0621736e-09
-3.6609932e-10
7.5862066e-09
-5.9620172e-10
1.0809973e-08
-9.2034479e-10
1.4889e-08
-1.3671515e-09
2.000288e-08
-1.9733403e-09
2.6353846e-08
-2.7858642e-09
3.4161851e-08
-3.8644925e-09
4.3654305e-08
-5.2847967e-09
5.5048121e-08
-7.1413824e-09
6.852147e-08
-9.5509156e-09
8.4172953e-08
-1.265409e-08
1.0196747e-07
-1.6614933e-08
1.2167181e-07
-2.1615032e-08
1.4278992e-07
-2.7839494e-08
1.6451772e-07
-3.5451618e-08
1.8574821e-07
-4.4555614e-08
2.051619e-07
-5.5152102e-08
2.2142494e-07
-6.7098723e-08
2.33479e-07
-8.0093324e-08
2.4085234e-07
-9.3693874e-08
2.4388245e-07
-1.0737565e-07
2.4375725e-07
-1.2060954e-07
2.4235792e-07
-1.32937e-07
2.419752e-07
-1.4402185e-07
2.450135e-07
-1.5367235e-07
2.5377453e-07
-1.6183791e-07
2.7035668e-07
-1.6859022e-07
2.9665751e-07
-1.7409766e-07
3.3444702e-07
-1.7859819e-07
3.8548168e-07
-1.8237287e-07
4.5164237e-07
-1.8572102e-07
5.3509077e-07
-1.8893784e-07
6.3844355e-07
-1.9229722e-07
7.6496329e-07
-1.9604268e-07
9.1876018e-07
-2.0038685e-07
1.1049977e-06
-2.0552268e-07
1.3301057e-06
-2.1163368e-07
1.6019807e-06
-2.1896245e-07
1.930376e-06
-2.2793744e-07
2.3274006e-06
-2.3957289e-07
2.8102556e-06
-2.5527744e-07
3.4043193e-06
-2.7303423e-07
4.143707e-06
-2.7527956e-07
5.003533e-06
-2.2079696e-07
5.6819192e-06
-9.0829591e-08
5.232631e-06
2.3063794e-06
-8.824631e-12
4.8062134e-10
-3.9360598e-11
1.6366615e-09
-9.9245805e-11
3.1655957e-09
-1.9837253e-10
5.1613045e-09
-3.4952639e-10
7.737366e-09
-5.6920562e-10
1.1029659e-08
-8.7866381e-10
1.5198466e-08
-1.3052306e-09
2.0429456e-08
-1.8839746e-09
2.69326e-08
-2.6597579e-09
3.4937645e-08
-3.6897261e-09
4.4684282e-08
-5.0462152e-09
5.6404615e-08
-6.8199306e-09
7.0295182e-08
-9.1230306e-09
8.6476033e-08
-1.2091319e-08
1.0493571e-07
-1.5884122e-08
1.2546453e-07
-2.0679594e-08
1.4758527e-07
-2.6662386e-08
1.7050035e-07
-3.4000595e-08
1.9308622e-07
-4.2810744e-08
2.1397184e-07
-5.3114427e-08
2.3172842e-07
-6.4797444e-08
2.4516188e-07
-7.7588237e-08
2.536431e-07
-9.1070729e-08
2.5736501e-07
-1.0473484e-07
2.5742154e-07
-1.1805147e-07
2.5567477e-07
-1.3054823e-07
2.544722e-07
-1.4186529e-07
2.5633078e-07
-1.5178224e-07
2.6369167e-07
-1.6021881e-07
2.7879337e-07
-1.6721862e-07
3.036574e-07
-1.7292518e-07
3.4015361e-07
-1.7755574e-07
3.9011223e-07
-1.8137572e-07
4.5546235e-07
-1.8467435e-07
5.3838939e-07
-1.8774208e-07
6.4151125e-07
-1.908518e-07
7.68073e-07
-1.9424728e-07
9.2215568e-07
-1.981391e-07
1.1088895e-06
-2.0271434e-07
1.3346811e-06
-2.0815117e-07
1.6074175e-06
-2.1469255e-07
1.9369175e-06
-2.2279605e-07
2.3355042e-06
-2.3342215e-07
2.8208817e-06
-2.4759914e-07
3.4184964e-06
-2.621346e-07
4.1582425e-06
-2.5902657e-07
5.0004251e-06
-2.0123217e-07
5.6241249e-06
-7.8545974e-08
5.109945e-06
2.2278334e-06
-8.4495422e-12
4.8907537e-10
-3.7689884e-11
1.6659056e-09
-9.503425e-11
3.2229443e-09
-1.8995401e-10
5.2562295e-09
-3.3469094e-10
7.8821095e-09
-5.4504116e-10
1.1240017e-08
-8.4135487e-10
1.549479e-08
-1.249805e-09
2.0837918e-08
-1.8039807e-09
2.7486788e-08
-2.5468679e-09
3.5680544e-08
-3.5332545e-09
4.567068e-08
-4.8325579e-09
5.7703925e-08
-6.5319534e-09
7.1994574e-08
-8.7394826e-09
8.8683542e-08
-1.1586432e-08
1.0778261e-07
-1.5227675e-08
1.2910568e-07
-1.9837889e-08
1.5219534e-07
-2.5600721e-08
1.7626298e-07
-3.2687758e-08
2.00173e-07
-4.1225675e-08
2.2250947e-07
-5.1254158e-08
2.4175665e-07
-6.2684217e-08
2.5659175e-07
-7.527267e-08
2.6623146e-07
-8.8628641e-08
2.7072103e-07
-1.0225782e-07
2.7105089e-07
-1.1563364e-07
2.6905083e-07
-1.282732e-07
2.6711207e-07
-1.3979652e-07
2.678544e-07
-1.4995765e-07
2.7385304e-07
-1.5864927e-07
2.8748515e-07
-1.6588903e-07
3.1089727e-07
-1.7179702e-07
3.4606168e-07
-1.7657069e-07
3.948859e-07
-1.8045986e-07
4.5935152e-07
-1.8374309e-07
5.416726e-07
-1.867052e-07
6.4447333e-07
-1.8961761e-07
7.7098539e-07
-1.9272464e-07
9.252627e-07
-1.9623705e-07
1.112402e-06
-2.0033972e-07
1.3387838e-06
-2.0521218e-07
1.6122901e-06
-2.111031e-07
1.9428085e-06
-2.1849499e-07
2.3428962e-06
-2.2826777e-07
2.8306546e-06
-2.41043e-07
3.4312717e-06
-2.5262968e-07
4.1698293e-06
-2.4494147e-07
4.992737e-06
-1.8487921e-07
5.5640628e-06
-6.8938094e-08
4.9940042e-06
2.1588953e-06
-8.1115112e-12
4.9719227e-10
-3.6184506e-11
1.6939828e-09
-9.123861e-11
3.2780037e-09
-1.8236599e-10
5.3473636e-09
-3.2131814e-10
8.0210701e-09
-5.2325906e-10
1.1441968e-08
-8.0772555e-10
1.5779268e-08
-1.1998455e-09
2.1230051e-08
-1.7318739e-09
2.8018831e-08
-2.4451018e-09
3.6393787e-08
-3.3921848e-09
4.6617777e-08
-4.6398949e-09
5.8951644e-08
-6.2721938e-09
7.3626871e-08
-8.393354e-09
9.0804679e-08
-1.1130476e-08
1.1051967e-07
-1.4634223e-08
1.3260932e-07
-1.9075815e-08
1.5663677e-07
-2.4637489e-08
1.8182441e-07
-3.1493312e-08
2.0702851e-07
-3.9778336e-08
2.3079415e-07
-4.9547952e-08
2.5152594e-07
-6.073573e-08
2.6777927e-07
-7.312473e-08
2.7862034e-07
-8.6348498e-08
2.8394484e-07
-9.9929179e-08
2.8463174e-07
-1.1334476e-07
2.8246669e-07
-1.2610471e-07
2.7987235e-07
-1.3781179e-07
2.7956181e-07
-1.481973e-07
2.8423881e-07
-1.5712924e-07
2.964173e-07
-1.6460131e-07
3.1836949e-07
-1.7071174e-07
3.5217221e-07
-1.7563904e-07
3.9981325e-07
-1.7961787e-07
4.6333034e-07
-1.8291583e-07
5.4497053e-07
-1.8581151e-07
6.4736897e-07
-1.885743e-07
7.7374819e-07
-1.9144928e-07
9.281377e-07
-1.9464908e-07
1.1156018e-06
-1.9835945e-07
1.3424942e-06
-2.0276619e-07
1.6166969e-06
-2.0812757e-07
1.94817e-06
-2.1494151e-07
2.3497102e-06
-2.239863e-07
2.8396995e-06
-2.3546345e-07
3.4427489e-06
-2.4435322e-07
4.1787191e-06
-2.3273808e-07
4.9811221e-06
-1.7118055e-07
5.5025053e-06
-6.141451e-08
4.8842384e-06
2.0974808e-06
-7.8046096e-12
5.0500335e-10
-3.4818257e-11
1.7210018e-09
-8.7794924e-11
3.3309868e-09
-1.7548264e-10
5.4350593e-09
-3.0918835e-10
8.1547858e-09
-5.0350253e-10
1.1636295e-08
-7.7722362e-10
1.6053003e-08
-1.1545322e-09
2.1607376e-08
-1.6664719e-09
2.8530789e-08
-2.3527944e-09
3.7080129e-08
-3.2642173e-09
4.7529218e-08
-4.4650994e-09
6.0152537e-08
-6.0364644e-09
7.5198236e-08
-8.0791165e-09
9.2847306e-08
-1.0716269e-08
1.1315676e-07
-1.4094611e-08
1.3598755e-07
-1.8381959e-08
1.6092392e-07
-2.3758859e-08
1.8720103e-07
-3.0401051e-08
2.1367034e-07
-3.8450531e-08
2.3884321e-07
-4.7976337e-08
2.6105132e-07
-5.8932299e-08
2.787349e-07
-7.1125802e-08
2.9081366e-07
-8.4213812e-08
2.9703285e-07
-9.7735297e-08
2.981534e-07
-1.1117442e-07
2.9590615e-07
-1.240354e-07
2.9273372e-07
-1.3590638e-07
2.9143316e-07
-1.4649829e-07
2.9483105e-07
-1.5565666e-07
3.0557594e-07
-1.6335305e-07
3.2606607e-07
-1.6966524e-07
3.5848454e-07
-1.7475389e-07
4.0490198e-07
-1.7883893e-07
4.6741538e-07
-1.8217702e-07
5.483086e-07
-1.8504003e-07
6.5023198e-07
-1.87695e-07
7.7640314e-07
-1.9038767e-07
9.3083038e-07
-1.9333363e-07
1.1185479e-06
-1.9672234e-07
1.345883e-06
-2.007488e-07
1.6207234e-06
-2.0568304e-07
1.9531043e-06
-2.1202655e-07
2.3560538e-06
-2.2043894e-07
2.8481119e-06
-2.3070095e-07
3.453011e-06
-2.3711797e-07
4.1851363e-06
-2.2212293e-07
4.9661271e-06
-1.596418e-07
5.4400243e-06
-5.5496915e-08
4.7800938e-06
2.041984e-06
-7.5246411e-12
5.125355e-10
-3.3572227e-11
1.7470554e-09
-8.4654203e-11
3.382076e-09
-1.6920509e-10
5.5196192e-09
-2.9812612e-10
8.2837181e-09
-4.8548412e-10
1.1823667e-08
-7.4940439e-10
1.631694e-08
-1.1132033e-09
2.1971195e-08
-1.6068204e-09
2.9024428e-08
-2.2686015e-09
3.7741934e-08
-3.1474901e-09
4.8408129e-08
-4.3056379e-09
6.1310701e-08
-5.8213693e-09
7.6713969e-08
-7.792288e-09
9.48182e-08
-1.0337993e-08
1.157024e-07
-1.3601412e-08
1.3925084e-07
-1.7747038e-08
1.6506933e-07
-2.2953536e-08
1.9240721e-07
-2.9397682e-08
2.2011406e-07
-3.7227205e-08
2.4667224e-07
-4.6523047e-08
2.7034666e-07
-5.7257295e-08
2.8946872e-07
-6.9259829e-08
3.0281595e-07
-8.221003e-08
3.0998304e-07
-9.5663863e-08
3.1160744e-07
-1.0911296e-07
3.0935563e-07
-1.220582e-07
3.0567944e-07
-1.3407538e-07
3.0345079e-07
-1.4485727e-07
3.0561334e-07
-1.5422885e-07
3.1494785e-07
-1.6214114e-07
3.3397858e-07
-1.686529e-07
3.6499643e-07
-1.7390781e-07
4.10157e-07
-1.7811172e-07
4.7161936e-07
-1.8151056e-07
5.5170743e-07
-1.843692e-07
6.5309061e-07
-1.8695177e-07
7.7898572e-07
-1.8950476e-07
9.3338335e-07
-1.9224739e-07
1.1212905e-06
-1.9537493e-07
1.3490106e-06
-1.9909313e-07
1.6244417e-06
-2.0368437e-07
1.9576956e-06
-2.096409e-07
2.3620104e-06
-2.1749009e-07
2.8559612e-06
-2.2660135e-07
3.4621224e-06
-2.3074097e-07
4.189276e-06
-2.1282225e-07
4.9482085e-06
-1.4984143e-07
5.3770436e-06
-5.080385e-08
4.6810565e-06
1.9911803e-06
-7.2674196e-12
5.1981195e-10
-3.242885e-11
1.7722241e-09
-8.1773446e-11
3.4314293e-09
-1.6344791e-10
5.6013046e-09
-2.8798211e-10
8.4082659e-09
-4.6896371e-10
1.2004665e-08
-7.2390096e-10
1.6571898e-08
-1.0753188e-09
2.2322636e-08
-1.5521428e-09
2.9501278e-08
-2.1914295e-09
3.8381249e-08
-3.040495e-09
4.9257221e-08
-4.1594575e-09
6.2429684e-08
-5.6241545e-09
7.817867e-08
-7.5292226e-09
9.6723243e-08
-9.9908916e-09
1.1816399e-07
-1.3148539e-08
1.4240833e-07
-1.7163422e-08
1.6908396e-07
-2.2212184e-08
1.974556e-07
-2.8472136e-08
2.2637353e-07
-3.6095755e-08
2.5429528e-07
-4.5174384e-08
2.794247e-07
-5.5696561e-08
2.9999038e-07
-6.7513037e-08
3.1463209e-07
-8.0324562e-08
3.227945e-07
-9.3704063e-08