/*--------------------------------*- C++ -*----------------------------------*\
| =========                 |                                                 |
| \\      /  F ield         | OpenFOAM: The Open Source CFD Toolbox           |
|  \\    /   O peration     | Version:  4.0                                   |
|   \\  /    A nd           | Web:      www.OpenFOAM.org                      |
|    \\/     M anipulation  |                                                 |
\*---------------------------------------------------------------------------*/
FoamFile
{
    version     2.0;
    format      ascii;
    class       volScalarField;
    location    "746";
    object      Qin;
}
// * * * * * * * * * * * * * * * * * * * * * * * * * * * * * * * * * * * * * //

dimensions      [1 0 -3 0 0 0 0];

internalField   uniform 0;

boundaryField
{
    LeftWedge
    {
        type            wedge;
    }
    RightWedge
    {
        type            wedge;
    }
    Inlet
    {
        type            calculated;
        value           nonuniform List<scalar> 
50
(
993.99678
995.185
996.49187
997.92829
999.50691
1001.2415
1003.147
1005.2399
1007.5378
1010.0602
1012.8276
1015.8628
1019.1896
1022.8339
1026.823
1031.1857
1035.9519
1041.1528
1046.82
1052.985
1059.6786
1066.9298
1074.7645
1083.2043
1092.2644
1101.9517
1112.2628
1123.1819
1134.6787
1146.7068
1159.2036
1172.0903
1185.2747
1198.6552
1212.1274
1225.5913
1238.9599
1252.1658
1265.1647
1277.9335
1290.463
1302.7452
1314.7612
1326.476
1337.833
1348.8034
1359.253
1369.615
1378.0483
1392.8701
)
;
    }
    Outlet
    {
        type            calculated;
        value           nonuniform List<scalar> 
50
(
1674.7746
1674.4307
1673.8944
1673.2999
1672.6384
1671.9108
1671.1151
1670.2434
1669.2879
1668.242
1667.0993
1665.8531
1664.4967
1663.0235
1661.4267
1659.7001
1657.8374
1655.833
1653.6818
1651.3803
1648.9272
1646.3238
1643.5747
1640.6876
1637.6747
1634.553
1631.3449
1628.0785
1624.7869
1621.5082
1618.2838
1615.1569
1612.1699
1609.3612
1606.7617
1604.3914
1602.2578
1600.3554
1598.668
1597.1742
1595.8537
1594.6933
1593.6904
1592.8503
1592.1793
1591.672
1591.311
1591.0335
1590.8626
1590.4313
)
;
    }
    Outterwall
    {
        type            calculated;
        value           nonuniform List<scalar> 
100
(
1376.4121
1396.3789
1396.3182
1428.7976
1531.3559
1704.692
1890.1199
2025.6994
2094.4064
2123.0749
2148.5645
2191.4883
2252.1375
2319.4616
2381.083
2429.1948
2462.088
2482.6576
2495.6398
2505.2229
2513.9241
2522.6703
2531.4599
2540.0082
2548.1007
2555.6762
2562.7754
2569.4709
2575.8261
2581.8853
2587.678
2593.2262
2598.5487
2603.6626
2608.5839
2613.3265
2617.9032
2622.3254
2626.603
2630.7453
2634.7604
2638.6559
2642.4387
2646.115
2649.6906
2653.1708
2656.5605
2659.8641
2663.086
2666.2299
2669.2994
2672.298
2675.2288
2678.0947
2680.8985
2683.6427
2686.3297
2688.9619
2691.5414
2694.0702
2696.5502
2698.9831
2701.3708
2703.7148
2706.0168
2708.278
2710.5
2712.6836
2714.8298
2716.9401
2719.0171
2721.0657
2723.0914
2725.0926
2727.0471
2728.9024
2730.5947
2732.1333
2733.7542
2736.0517
2739.8642
2745.6369
2752.215
2755.5805
2748.6486
2723.2315
2674.2747
2604.895
2529.4639
2470.9887
2448.5965
2455.4562
2442.7467
2339.863
2119.1498
1848.1666
1647.0917
1574.5393
1580.3813
1591.2119
)
;
    }
    fluid_to_cencil
    {
        type            calculated;
        value           nonuniform List<scalar> 
100
(
421.91702
421.91635
421.916
421.91557
421.91512
421.91457
421.91392
421.9132
421.91246
421.91171
421.91096
421.91019
421.90939
421.90856
421.90771
421.90686
421.90601
421.90516
421.90432
421.90348
421.90264
421.90178
421.90091
421.90004
421.89917
421.89829
421.89743
421.89657
421.89571
421.89486
421.89401
421.89316
421.89231
421.89145
421.89059
421.88972
421.88885
421.88797
421.88709
421.88619
421.88529
421.88438
421.88347
421.88255
421.88163
421.88071
421.87978
421.87886
421.87793
421.87701
421.87608
421.87516
421.87424
421.87331
421.87239
421.87147
421.87054
421.86962
421.8687
421.86777
421.86685
421.86592
421.86499
421.86407
421.86314
421.86222
421.86129
421.86036
421.85943
421.8585
421.85756
421.85664
421.85572
421.85482
421.85391
421.85297
421.85198
421.85092
421.84983
421.84879
421.84789
421.84719
421.8467
421.84632
421.84597
421.84558
421.84513
421.84464
421.84412
421.84362
421.84361
421.8462
421.85646
421.87333
421.81131
421.10284
417.33368
405.82485
413.71185
749.93444
)
;
    }
}


// ************************************************************************* //
