/*--------------------------------*- C++ -*----------------------------------*\
| =========                 |                                                 |
| \\      /  F ield         | OpenFOAM: The Open Source CFD Toolbox           |
|  \\    /   O peration     | Version:  4.0                                   |
|   \\  /    A nd           | Web:      www.OpenFOAM.org                      |
|    \\/     M anipulation  |                                                 |
\*---------------------------------------------------------------------------*/
FoamFile
{
    version     2.0;
    format      ascii;
    class       volScalarField;
    location    "746";
    object      Qr;
}
// * * * * * * * * * * * * * * * * * * * * * * * * * * * * * * * * * * * * * //

dimensions      [1 0 -3 0 0 0 0];

internalField   uniform 0;

boundaryField
{
    LeftWedge
    {
        type            wedge;
    }
    RightWedge
    {
        type            wedge;
    }
    Inlet
    {
        type            calculated;
        value           nonuniform List<scalar> 
50
(
572.07676
573.26497
574.57185
576.00827
577.5869
579.32149
581.22704
583.31991
585.61787
588.14017
590.90767
593.9428
597.26965
600.91396
604.90304
609.26568
614.03193
619.23284
624.9
631.06499
637.75858
645.00977
652.84453
661.28433
670.34437
680.03166
690.34279
701.2619
712.75866
724.78682
737.28359
750.17028
763.35467
776.73522
790.20738
803.67128
817.03988
830.24577
843.24465
856.01352
868.54294
880.82514
892.8412
904.55601
915.91297
926.88337
937.33303
947.69497
956.12831
970.95008
)
;
    }
    Outlet
    {
        type            calculated;
        value           nonuniform List<scalar> 
50
(
-1296.6258
-1205.6856
-1110.8692
-1012.3603
-910.55986
-805.92501
-698.96696
-590.23417
-480.28394
-369.6583
-258.8672
-148.3808
-38.635311
69.944938
176.91228
281.75597
383.87014
482.54139
576.96225
666.26801
749.58873
826.10724
895.118
956.08563
1008.6999
1052.9198
1088.9961
1117.4625
1139.0934
1154.832
1165.7053
1172.7351
1176.864
1178.9085
1179.5344
1179.2555
1178.4458
1177.362
1176.1693
1174.9675
1173.8152
1172.7494
1171.7983
1170.9858
1170.329
1169.8288
1169.4713
1169.1954
1169.0251
1168.5939
)
;
    }
    Outterwall
    {
        type            calculated;
        value           nonuniform List<scalar> 
100
(
954.49253
974.46012
974.4003
1006.8805
1109.4397
1282.7766
1468.2054
1603.7857
1672.4936
1701.1629
1726.6533
1769.5779
1830.228
1897.5529
1959.1752
2007.2878
2040.1819
2060.7523
2073.7354
2083.3193
2092.0214
2100.7683
2109.5588
2118.1079
2126.2013
2133.7776
2140.8777
2147.574
2153.9301
2159.9901
2165.7836
2171.3326
2176.656
2181.7708
2186.6928
2191.4363
2196.0139
2200.4369
2204.7153
2208.8584
2212.8744
2216.7708
2220.5544
2224.2316
2227.808
2231.289
2234.6795
2237.984
2241.2067
2244.3515
2247.4219
2250.4213
2253.3529
2256.2197
2259.0243
2261.7693
2264.4572
2267.0902
2269.6705
2272.2002
2274.681
2277.1148
2279.5033
2281.8482
2284.1509
2286.413
2288.6358
2290.8202
2292.9673
2295.0784
2297.1562
2299.2057
2301.2322
2303.2342
2305.1896
2307.0457
2308.7388
2310.2783
2311.8999
2314.1983
2318.0116
2323.7852
2330.3641
2333.7304
2326.7993
2301.383
2252.427
2183.0481
2107.6178
2049.1434
2026.752
2033.6124
2020.9037
1918.0209
1697.3084
1426.326
1225.2518
1152.7002
1158.5429
1169.3745
)
;
    }
    fluid_to_cencil
    {
        type            calculated;
        value           nonuniform List<scalar> 
100
(
-1143.0296
-1585.9497
-1717.5708
-1785.9403
-1835.1318
-1873.6544
-1905.3115
-1931.9952
-1954.996
-1975.1526
-1993.0607
-2009.1486
-2023.7353
-2037.064
-2049.3243
-2060.6665
-2071.2118
-2081.0592
-2090.2908
-2098.9752
-2107.1704
-2114.9257
-2122.2836
-2129.2807
-2135.9489
-2142.3163
-2148.4073
-2154.2437
-2159.8448
-2165.2279
-2170.4084
-2175.4003
-2180.216
-2184.8669
-2189.3633
-2193.7147
-2197.9295
-2202.0157
-2205.9804
-2209.8303
-2213.5714
-2217.2095
-2220.7497
-2224.1968
-2227.5555
-2230.8298
-2234.0237
-2237.1409
-2240.1846
-2243.1582
-2246.0646
-2248.9066
-2251.6868
-2254.4078
-2257.0718
-2259.6812
-2262.2378
-2264.7439
-2267.2011
-2269.6112
-2271.976
-2274.2971
-2276.5758
-2278.8137
-2281.0121
-2283.1723
-2285.2956
-2287.3831
-2289.4359
-2291.4552
-2293.4419
-2295.397
-2297.3214
-2299.2161
-2301.082
-2302.9197
-2304.7303
-2306.5143
-2308.2726
-2310.0057
-2311.7143
-2313.399
-2315.0605
-2316.6994
-2318.3162
-2319.9117
-2321.4863
-2323.0406
-2324.575
-2326.09
-2327.5857
-2329.0615
-2330.5148
-2331.9502
-2333.4123
-2335.3042
-2338.7658
-2347.743
-2335.4807
-2176.3149
)
;
    }
}


// ************************************************************************* //
