/*--------------------------------*- C++ -*----------------------------------*\
| =========                 |                                                 |
| \\      /  F ield         | OpenFOAM: The Open Source CFD Toolbox           |
|  \\    /   O peration     | Version:  4.0                                   |
|   \\  /    A nd           | Web:      www.OpenFOAM.org                      |
|    \\/     M anipulation  |                                                 |
\*---------------------------------------------------------------------------*/
FoamFile
{
    version     2.0;
    format      ascii;
    class       volScalarField;
    location    "746";
    object      rho;
}
// * * * * * * * * * * * * * * * * * * * * * * * * * * * * * * * * * * * * * //

dimensions      [1 -3 0 0 0 0 0];

internalField   nonuniform List<scalar> 
5000
(
0.86674682
0.88213286
0.89913725
0.91777387
0.93799537
0.95967505
0.98258968
1.0064073
1.0306847
1.0548799
1.0783843
1.1005741
1.1208765
1.1388376
1.154176
1.1668086
1.17684
1.1845233
1.1902022
1.1942543
1.1970444
1.1988956
1.2000757
1.2007952
1.2012121
1.2014398
1.2015558
1.2016102
1.2016333
1.201642
1.2016447
1.2016454
1.2016455
1.2016455
1.2016455
1.2016455
1.2016455
1.2016455
1.2016455
1.2016455
1.2016455
1.2016455
1.2016455
1.2016455
1.2016455
1.2016455
1.2016455
1.2016455
1.2016455
1.2016455
0.81209118
0.82268903
0.83442588
0.84744419
0.86189749
0.8779428
0.89572707
0.91536579
0.93691225
0.96031776
0.98538613
1.0117312
1.0387526
1.0656483
1.0914823
1.1153073
1.1363192
1.1539951
1.1681651
1.1789955
1.1868988
1.1924139
1.1960984
1.1984552
1.1998965
1.2007366
1.2012009
1.2014424
1.2015597
1.201612
1.2016333
1.2016409
1.2016433
1.2016439
1.201644
1.201644
1.201644
1.201644
1.201644
1.201644
1.201644
1.201644
1.201644
1.201644
1.201644
1.201644
1.201644
1.201644
1.201644
1.201644
0.79874829
0.8082126
0.81864456
0.83014965
0.84284453
0.85685632
0.87231961
0.88936983
0.90813045
0.92869166
0.95107794
0.97520413
1.0008241
1.0274835
1.0544971
1.0809768
1.1059279
1.128406
1.1476918
1.1634195
1.1756093
1.1845998
1.1909224
1.1951701
1.1978992
1.1995757
1.2005582
1.2011055
1.2013935
1.2015355
1.2016004
1.2016276
1.2016378
1.2016413
1.2016422
1.2016425
1.2016425
1.2016425
1.2016425
1.2016425
1.2016425
1.2016425
1.2016425
1.2016425
1.2016425
1.2016425
1.2016425
1.2016425
1.2016425
1.2016425
0.79222148
0.80114141
0.81095571
0.82175692
0.83364631
0.84673338
0.86113417
0.87696763
0.8943488
0.91337696
0.93411655
0.95656857
0.98063147
1.0060542
1.0323913
1.0589793
1.0849601
1.1093712
1.1312984
1.1500487
1.165278
1.1770235
1.1856354
1.19165
1.1956591
1.1982123
1.1997656
1.2006667
1.2011632
1.2014216
1.2015476
1.2016046
1.2016282
1.201637
1.2016399
1.2016408
1.201641
1.201641
1.201641
1.201641
1.201641
1.201641
1.201641
1.201641
1.201641
1.201641
1.201641
1.201641
1.201641
1.201641
0.78768171
0.79622631
0.80561695
0.81593926
0.82728677
0.83976059
0.85346811
0.86852029
0.88502648
0.90308573
0.92277292
0.94411781
0.96707547
0.99148829
1.0170434
1.0432364
1.0693618
1.0945518
1.1178806
1.1385189
1.155893
1.1697852
1.180336
1.1879577
1.1932047
1.1966534
1.1988195
1.2001189
1.2008616
1.2012645
1.2014706
1.2015691
1.2016127
1.2016303
1.2016367
1.2016388
1.2016394
1.2016395
1.2016395
1.2016395
1.2016395
1.2016395
1.2016395
1.2016395
1.2016395
1.2016395
1.2016395
1.2016395
1.2016395
1.2016395
0.78421301
0.79247255
0.80154224
0.8115029
0.82244286
0.83445772
0.84764947
0.86212425
0.87798834
0.89534105
0.91426344
0.93480124
0.95694043
0.98057505
1.0054691
1.0312191
1.0572318
1.0827363
1.106851
1.1287077
1.1476073
1.1631516
1.1752984
1.184322
1.1907051
1.1950128
1.1977904
1.1995022
1.2005093
1.2010734
1.2013725
1.2015217
1.2015911
1.2016208
1.2016323
1.2016364
1.2016376
1.2016379
1.201638
1.201638
1.201638
1.201638
1.201638
1.201638
1.201638
1.201638
1.201638
1.201638
1.201638
1.201638
0.78141706
0.78944787
0.79826036
0.80793162
0.8185459
0.83019457
0.84297538
0.85699083
0.87234475
0.88913647
0.90745133
0.92734608
0.94882784
0.97182571
0.99615601
1.0214857
1.0473044
1.0729219
1.0975102
1.1202021
1.1402317
1.1570771
1.1705495
1.180794
1.1882091
1.1933276
1.1967028
1.198831
1.2001138
1.2008514
1.2012544
1.2014624
1.2015629
1.201608
1.2016265
1.2016334
1.2016357
1.2016363
1.2016365
1.2016365
1.2016365
1.2016365
1.2016365
1.2016365
1.2016365
1.2016365
1.2016365
1.2016365
1.2016365
1.2016365
0.77909735
0.78693909
0.79553922
0.80497177
0.8153177
0.82666488
0.83910758
0.85274514
0.86767915
0.88400847
0.90182113
0.92118157
0.94211221
0.96456792
0.98840402
1.0133408
1.0389328
1.0645568
1.0894377
1.1127251
1.1336188
1.1515117
1.1660986
1.1774101
1.1857594
1.1916351
1.1955848
1.1981243
1.1996865
1.2006047
1.201119
1.2013919
1.2015283
1.2015918
1.2016191
1.2016298
1.2016335
1.2016346
1.2016349
1.201635
1.201635
1.201635
1.201635
1.201635
1.201635
1.201635
1.201635
1.201635
1.201635
1.201635
0.77712421
0.78480564
0.79322584
0.80245631
0.81257523
0.82366751
0.83582444
0.84914261
0.86372148
0.87965914
0.89704521
0.91594962
0.93640613
0.95838925
0.98178455
1.0063546
1.0317067
1.057275
1.0823335
1.1060565
1.1276284
1.1463819
1.1619198
1.1741721
1.1833697
1.189952
1.1944511
1.197393
1.1992347
1.2003378
1.2009686
1.2013114
1.2014875
1.2015722
1.2016099
1.2016253
1.201631
1.2016328
1.2016334
1.2016335
1.2016335
1.2016335
1.2016335
1.2016335
1.2016335
1.2016335
1.2016335
1.2016335
1.2016335
1.2016335
0.7754147
0.7829576
0.79122244
0.80027856
0.81020173
0.82107434
0.83298507
0.84602804
0.86030073
0.87590027
0.89291715
0.91142523
0.93146687
0.95303187
0.97602991
1.0002578
1.0253669
1.0508407
1.0759991
1.1000443
1.1221571
1.1416283
1.1579866
1.1710749
1.1810464
1.1882885
1.1933118
1.1966454
1.1987643
1.2000543
1.2008052
1.2012218
1.2014408
1.201549
1.2015989
1.20162
1.2016281
1.2016309
1.2016317
1.201632
1.201632
1.201632
1.201632
1.201632
1.201632
1.201632
1.201632
1.201632
1.201632
1.201632
0.77391095
0.78133228
0.78946087
0.79836417
0.80811588
0.81879614
0.83049136
0.84329343
0.85729798
0.87260109
0.88929362
0.90745231
0.92712615
0.94831711
0.97095439
0.99486312
1.0197318
1.0450872
1.0702911
1.0945751
1.1171244
1.137201
1.1542739
1.1681101
1.1787905
1.1866501
1.1921734
1.1958872
1.1982798
1.1997572
1.2006308
1.201124
1.2013886
1.2015226
1.201586
1.2016137
1.2016248
1.2016288
1.2016301
1.2016304
1.2016305
1.2016305
1.2016305
1.2016305
1.2016305
1.2016305
1.2016305
1.2016305
1.2016305
1.2016305
0.77257192
0.77988521
0.7878928
0.79666046
0.80626006
0.81676976
0.82827391
0.84086242
0.85462917
0.86966914
0.88607328
0.90392038
0.92326469
0.94411801
0.96642559
0.99003635
1.0146705
1.0398928
1.0651034
1.0895636
1.1124682
1.1330599
1.1507599
1.1652691
1.1766014
1.1850399
1.1910403
1.1951227
1.1977845
1.199449
1.2004468
1.2010189
1.2013313
1.2014928
1.2015712
1.2016065
1.2016211
1.2016265
1.2016283
1.2016289
1.201629
1.201629
1.201629
1.201629
1.201629
1.201629
1.201629
1.201629
1.201629
1.201629
0.77136738
0.77858367
0.78648267
0.79512866
0.80459188
0.81494873
0.8262817
0.83867887
0.85223252
0.86703649
0.88318162
0.9007482
0.91979465
0.94034083
0.96234545
0.98567755
1.0100848
1.0351654
1.0603547
1.0849432
1.1081387
1.1291719
1.1474257
1.1625434
1.1744772
1.1834596
1.1899156
1.194355
1.1972812
1.1991318
1.2002547
1.2009074
1.2012694
1.20146
1.2015545
1.2015982
1.2016168
1.201624
1.2016265
1.2016273
1.2016275
1.2016275
1.2016275
1.2016275
1.2016275
1.2016275
1.2016275
1.2016275
1.2016275
1.2016275
0.77027454
0.77740297
0.78520367
0.79373957
0.80307944
0.81329807
0.8244763
0.83670052
0.85006151
0.864652
0.88056253
0.89787452
0.91664972
0.93691469
0.95863951
0.98171051
1.0058993
1.0308337
1.0559814
1.0806611
1.1040956
1.1255096
1.1442549
1.1599251
1.1724157
1.1819101
1.1888013
1.1935866
1.1967719
1.1988071
1.2000557
1.2007902
1.2012033
1.2014244
1.2015361
1.2015889
1.2016121
1.2016213
1.2016246
1.2016257
1.2016259
1.201626
1.201626
1.201626
1.201626
1.201626
1.201626
1.201626
1.201626
1.201626
0.7692758
0.77632407
0.7840351
0.79247063
0.80169809
0.81179081
0.82282811
0.83489482
0.84808032
0.86247627
0.87817279
0.8952521
0.91377868
0.93378473
0.95525
0.97807582
1.0020548
1.0268412
1.0519324
1.0766741
1.1003056
1.1220495
1.1412334
1.1574072
1.1704145
1.1803916
1.1876991
1.1928193
1.1962585
1.1984765
1.1998506
1.2006679
1.2011333
1.201386
1.2015159
1.2015786
1.2016068
1.2016183
1.2016226
1.201624
1.2016244
1.2016245
1.2016245
1.2016245
1.2016245
1.2016245
1.2016245
1.2016245
1.2016245
1.2016245
0.76835734
0.77533199
0.78296071
0.79130414
0.80042849
0.81040576
0.82131385
0.8332362
0.84626081
0.86047833
0.8759784
0.8928438
0.91114124
0.93090766
0.95213122
0.97472628
0.99850399
1.0231426
1.0481664
1.0729469
1.0967408
1.1187721
1.1383487
1.154983
1.168471
1.1789041
1.1866099
1.1920546
1.1957423
1.198141
1.1996406
1.2005412
1.2010599
1.2013451
1.2014941
1.2015673
1.2016009
1.2016151
1.2016205
1.2016223
1.2016229
1.201623
1.201623
1.201623
1.201623
1.201623
1.201623
1.201623
1.201623
1.201623
0.76750807
0.77441474
0.78196748
0.79022593
0.79925517
0.80912598
0.81991495
0.8317042
0.8445805
0.85863346
0.87395222
0.89061993
0.90870512
0.92824882
0.94924644
0.97162384
0.99520868
1.0197007
1.0446492
1.0694502
1.0933779
1.11566
1.1355898
1.1526465
1.1665829
1.1774472
1.1855347
1.1912936
1.1952246
1.1978017
1.1994262
1.2004106
1.2009833
1.201302
1.2014707
1.2015551
1.2015945
1.2016115
1.2016182
1.2016206
1.2016213
1.2016215
1.2016215
1.2016215
1.2016215
1.2016215
1.2016215
1.2016215
1.2016215
1.2016215
0.76671901
0.7735626
0.78104486
0.7892245
0.79816557
0.80793772
0.81861632
0.83028228
0.84302116
0.85692162
0.87207224
0.88855639
0.90644413
0.92578
0.94656574
0.96873739
0.99213739
1.016485
1.0413525
1.0661591
1.0901966
1.1126987
1.132947
1.1503922
1.1647475
1.1760205
1.1844738
1.1905372
1.1947062
1.1974594
1.1992082
1.2002767
1.2009039
1.2012567
1.2014459
1.2015419
1.2015876
1.2016077
1.2016158
1.2016188
1.2016197
1.20162
1.20162
1.20162
1.20162
1.20162
1.20162
1.20162
1.20162
1.20162
0.76598278
0.77276757
0.78018417
0.78829042
0.79714939
0.8068297
0.8174056
0.82895682
0.84156784
0.85532635
0.87032037
0.8866334
0.90433674
0.92347796
0.9440644
0.96604117
0.98926398
1.0134699
1.0382523
1.0630524
1.0871798
1.109875
1.1304114
1.148215
1.1629626
1.1746231
1.1834276
1.1897862
1.194188
1.1971149
1.1989871
1.2001397
1.2008221
1.2012096
1.2014197
1.2015278
1.2015801
1.2016036
1.2016133
1.2016169
1.2016181
1.2016184
1.2016185
1.2016185
1.2016185
1.2016185
1.2016185
1.2016185
1.2016185
1.2016185
0.76529323
0.77202302
0.77937821
0.78741583
0.79619806
0.80579255
0.81627249
0.82771653
0.84020809
0.85383397
0.8686816
0.8848345
0.90236502
0.92132337
0.94172184
0.96351364
0.9865665
1.0106336
1.0353283
1.0601122
1.0843124
1.1071776
1.1279754
1.1461102
1.1612258
1.1732545
1.1823962
1.1890411
1.1936706
1.1967686
1.1987634
1.2000001
1.2007379
1.2011606
1.2013922
1.2015129
1.2015721
1.2015992
1.2016106
1.201615
1.2016164
1.2016169
1.201617
1.201617
1.201617
1.201617
1.201617
1.201617
1.201617
1.201617
0.76464521
0.77132336
0.77862091
0.78659414
0.79530439
0.8048184
0.81520837
0.82655192
0.83893151
0.85243302
0.86714332
0.88314589
0.90051394
0.91929998
0.93952071
0.96113662
0.98402636
1.007958
1.032563
1.0573228
1.0815814
1.1045965
1.125632
1.1440736
1.1595349
1.1719137
1.1813795
1.1883022
1.1931544
1.1964212
1.1985376
1.1998582
1.2006518
1.2011101
1.2013636
1.2014971
1.2015636
1.2015945
1.2016078
1.201613
1.2016148
1.2016153
1.2016155
1.2016155
1.2016155
1.2016155
1.2016155
1.2016155
1.2016155
1.2016155
0.76403435
0.77066387
0.77790714
0.78581977
0.79446229
0.80390058
0.81420592
0.82545499
0.83772926
0.8511138
0.86569488
0.88155588
0.89877074
0.91739398
0.93744625
0.95889463
0.98162768
1.0054271
1.0299415
1.0546707
1.0789752
1.1021227
1.1233747
1.1421012
1.1578879
1.1706
1.1803775
1.1875698
1.1926399
1.1960729
1.1983099
1.1997143
1.2005638
1.2010581
1.2013339
1.2014806
1.2015546
1.2015895
1.2016048
1.2016109
1.2016131
1.2016138
1.201614
1.201614
1.201614
1.201614
1.201614
1.201614
1.201614
1.201614
0.76345691
0.7700405
0.77723254
0.78508795
0.79366656
0.80303341
0.81325893
0.82441887
0.83659381
0.84986801
0.86432715
0.88005448
0.89712453
0.9155936
0.93548587
0.95677438
0.97935679
1.0030275
1.0274507
1.0521439
1.0764839
1.0997482
1.121198
1.1401892
1.1562827
1.1693126
1.1793901
1.1868441
1.1921275
1.1957242
1.1980808
1.1995687
1.2004742
1.2010047
1.2013031
1.2014634
1.2015451
1.2015842
1.2016017
1.2016088
1.2016114
1.2016122
1.2016125
1.2016125
1.2016125
1.2016125
1.2016125
1.2016125
1.2016125
1.2016125
0.76290968
0.76944978
0.77659331
0.78439458
0.79291272
0.802212
0.81236202
0.82343767
0.83551868
0.84868853
0.86303233
0.87863312
0.89556594
0.91388867
0.93362866
0.95476441
0.97720188
1.0007471
1.0250791
1.0497321
1.0740984
1.097466
1.1190966
1.1383345
1.1547174
1.1680505
1.1784171
1.1861253
1.1916173
1.1953754
1.1978504
1.1994214
1.2003831
1.2009501
1.2012714
1.2014455
1.2015352
1.2015787
1.2015984
1.2016066
1.2016096
1.2016107
1.2016109
1.201611
1.201611
1.201611
1.201611
1.201611
1.201611
1.201611
0.76238987
0.76888869
0.77598621
0.78373612
0.7921969
0.8014321
0.81151054
0.8225063
0.83449828
0.8475692
0.86180362
0.87728435
0.89408686
0.91227039
0.93186519
0.95285472
0.97515261
0.99857567
1.0228169
1.0474261
1.0718108
1.0952695
1.1170658
1.1365338
1.1531902
1.1668129
1.1774582
1.1854135
1.1911097
1.1950266
1.1976189
1.1992728
1.2002906
1.2008943
1.2012388
1.201427
1.2015249
1.2015729
1.201595
1.2016043
1.2016078
1.2016091
1.2016094
1.2016095
1.2016095
1.2016095
1.2016095
1.2016095
1.2016095
1.2016095
0.76189506
0.76835463
0.77540838
0.78310946
0.79151572
0.80069003
0.81070047
0.82162032
0.83352772
0.84650466
0.86063512
0.87600172
0.8926802
0.91073109
0.93018723
0.95103661
0.97319996
0.99650413
1.020655
1.0452176
1.0696138
1.0931531
1.1151013
1.1347843
1.1516996
1.1655991
1.1765131
1.1847086
1.1906047
1.1946782
1.1973867
1.199123
1.2001969
1.2008375
1.2012053
1.2014078
1.2015141
1.2015669
1.2015914
1.2016019
1.201606
1.2016075
1.2016079
1.201608
1.201608
1.201608
1.201608
1.201608
1.201608
1.201608
0.76142313
0.76784528
0.77485733
0.78251189
0.79086623
0.79998255
0.80992824
0.82077584
0.83260272
0.84549019
0.85952168
0.87477953
0.89133978
0.90926403
0.92858752
0.94930241
0.97133596
0.9945244
1.0185858
1.0430993
1.0675012
1.0911114
1.1131991
1.1330833
1.1502438
1.1644083
1.1755816
1.1840107
1.1901026
1.1943301
1.1971537
1.198972
1.2001021
1.2007797
1.2011711
1.2013881
1.201503
1.2015606
1.2015877
1.2015995
1.2016042
1.2016058
1.2016064
1.2016065
1.2016065
1.2016065
1.2016065
1.2016065
1.2016065
1.2016065
0.76097219
0.76735862
0.77433086
0.78194103
0.79024582
0.79930682
0.80919075
0.81996943
0.83171952
0.84452166
0.85845873
0.87361281
0.89006013
0.90786329
0.92705969
0.94764535
0.96955358
0.99262935
1.0166023
1.0410649
1.0654671
1.0891397
1.1113558
1.1314284
1.1488215
1.1632396
1.1746635
1.1833198
1.1896034
1.1939828
1.1969202
1.1988201
1.2000062
1.200721
1.2011362
1.2013679
1.2014915
1.201554
1.2015838
1.2015969
1.2016023
1.2016042
1.2016048
1.201605
1.201605
1.201605
1.201605
1.201605
1.201605
1.201605
0.76054059
0.76689286
0.77382703
0.78139475
0.78965218
0.79866032
0.80848524
0.81919807
0.8308748
0.84359541
0.85744225
0.87249712
0.88883642
0.90652362
0.92559809
0.94605941
0.96784654
0.99081262
1.0146981
1.0391083
1.0635064
1.0872337
1.1095679
1.1298173
1.1474311
1.1620924
1.1737583
1.1826359
1.1891072
1.1936361
1.1966863
1.1986673
1.1999094
1.2006615
1.2011006
1.2013471
1.2014796
1.2015472
1.2015798
1.2015943
1.2016003
1.2016025
1.2016033
1.2016035
1.2016035
1.2016035
1.2016035
1.2016035
1.2016035
1.2016035
0.76012686
0.7664464
0.77334412
0.78087119
0.78908328
0.79804081
0.80780924
0.81845907
0.8300656
0.84270819
0.85646867
0.87142856
0.88766436
0.90524034
0.92419768
0.94453925
0.96620926
0.98906852
1.0128676
1.0372243
1.0616143
1.0853895
1.1078325
1.1282478
1.1460714
1.1609659
1.1728659
1.1819588
1.1886141
1.1932903
1.1964522
1.1985138
1.1998118
1.2006011
1.2010643
1.2013259
1.2014674
1.2015402
1.2015756
1.2015917
1.2015983
1.2016009
1.2016017
1.201602
1.201602
1.201602
1.201602
1.201602
1.201602
1.201602
0.75972968
0.76601782
0.77288057
0.78036866
0.78853727
0.79744629
0.80716058
0.81775002
0.82928927
0.84185709
0.8555348
0.87040361
0.88654011
0.90400928
0.92285397
0.94308007
0.96463673
0.98739194
1.011106
1.0354081
1.0597865
1.0836035
1.1061468
1.126718
1.1447411
1.1598595
1.1719859
1.1812886
1.1881241
1.1929455
1.1962178
1.1983596
1.1997133
1.2005401
1.2010274
1.2013042
1.2014548
1.201533
1.2015713
1.2015889
1.2015963
1.2015992
1.2016002
1.2016005
1.2016005
1.2016005
1.2016005
1.2016005
1.2016005
1.2016005
0.75934787
0.76560584
0.772435
0.77988566
0.78801253
0.79687497
0.80653729
0.81706877
0.82854345
0.84103951
0.85463777
0.86941913
0.88546024
0.90282671
0.92156291
0.94167757
0.96312444
0.98577827
1.0094084
1.0336554
1.0580191
1.0818723
1.1045081
1.125226
1.143439
1.1587725
1.171118
1.1806251
1.1876373
1.1926016
1.1959834
1.1982048
1.1996141
1.2004783
1.20099
1.201282
1.201442
1.2015255
1.2015669
1.2015861
1.2015943
1.2015975
1.2015986
1.2015989
1.201599
1.201599
1.201599
1.201599
1.201599
1.201599
0.75898036
0.76520932
0.77200617
0.77942084
0.78750757
0.79632524
0.80593761
0.81641338
0.82782602
0.84025312
0.85377502
0.86847231
0.88442167
0.90168926
0.92032087
0.94032789
0.96166834
0.98422336
1.007771
1.0319622
1.0563087
1.0801929
1.1029141
1.1237701
1.1421641
1.1577042
1.170262
1.1799683
1.1871537
1.1922589
1.1957489
1.1980494
1.1995143
1.2004159
1.200952
1.2012594
1.2014288
1.2015179
1.2015624
1.2015832
1.2015922
1.2015958
1.201597
1.2015974
1.2015975
1.2015975
1.2015975
1.2015975
1.2015975
1.2015975
0.7586262
0.76482721
0.77159296
0.77897297
0.78702106
0.79579565
0.80535995
0.81578212
0.82713506
0.83949581
0.85294422
0.86756059
0.88342159
0.90059389
0.91912458
0.93902751
0.96026473
0.98272341
1.0061898
1.0303251
1.0546518
1.0785626
1.1013625
1.1223487
1.1409152
1.1566542
1.1694175
1.1793181
1.1866733
1.1919174
1.1955144
1.1978937
1.1994138
1.2003529
1.2009135
1.2012365
1.2014153
1.20151
1.2015577
1.2015802
1.20159
1.201594
1.2015954
1.2015959
1.201596
1.201596
1.2015961
1.2015961
1.2015961
1.2015961
0.75828453
0.76445859
0.77119435
0.77854096
0.78655181
0.79528487
0.80480287
0.8151734
0.82646884
0.83876566
0.85214329
0.86668168
0.8824575
0.89953786
0.91797106
0.93777325
0.95891029
0.98127501
1.0046615
1.0287405
1.0530455
1.0769787
1.0998513
1.1209603
1.1396915
1.1556218
1.1685844
1.1786744
1.1861962
1.191577
1.1952801
1.1977375
1.1993128
1.2002893
1.2008746
1.2012131
1.2014016
1.201502
1.2015529
1.2015771
1.2015879
1.2015922
1.2015938
1.2015944
1.2015945
1.2015945
1.2015946
1.2015946
1.2015946
1.2015946
0.75795454
0.7641026
0.77080942
0.77812379
0.78609872
0.79479173
0.80426505
0.8145858
0.82582577
0.83806096
0.85137031
0.86583349
0.88152709
0.89851866
0.91685762
0.93656224
0.95760197
0.97987502
1.0031828
1.0272056
1.051487
1.0754388
1.0983786
1.1196035
1.1384919
1.1546064
1.1677623
1.1780372
1.1857222
1.1912379
1.195046
1.1975809
1.1992112
1.2002252
1.2008351
1.2011894
1.2013876
1.2014938
1.2015479
1.201574
1.2015857
1.2015905
1.2015922
1.2015928
1.201593
1.201593
1.2015931
1.2015931
1.2015931
1.2015931
0.75763554
0.76375846
0.77043732
0.77772056
0.7856608
0.79431513
0.80374532
0.81401799
0.82520443
0.83738012
0.85062356
0.8650141
0.88062829
0.89753404
0.91578178
0.93539183
0.95633699
0.97852058
1.0017511
1.0257177
1.0499738
1.0739408
1.0969426
1.1182769
1.1373155
1.1536076
1.166951
1.1774063
1.1852516
1.1909002
1.194812
1.1974241
1.1991092
1.2001606
1.2007953
1.2011654
1.2013733
1.2014854
1.2015429
1.2015708
1.2015834
1.2015887
1.2015906
1.2015913
1.2015915
1.2015915
1.2015916
1.2015916
1.2015916
1.2015916
0.75732685
0.76342547
0.77007729
0.77733043
0.78523713
0.79385407
0.80324259
0.8134688
0.82460351
0.83672171
0.84990146
0.86422179
0.8797592
0.8965819
0.91474131
0.93425962
0.95511282
0.97720906
1.0003636
1.024274
1.0485035
1.0724827
1.0955417
1.1169794
1.1361616
1.1526249
1.1661502
1.1767816
1.1847841
1.1905637
1.1945784
1.1972671
1.1990067
1.2000956
1.200755
1.201141
1.2013588
1.2014768
1.2015377
1.2015675
1.2015811
1.2015868
1.201589
1.2015898
1.20159
1.20159
1.2015901
1.2015901
1.2015901
1.2015901
0.75702788
0.76310298
0.76972863
0.77695263
0.78482689
0.79340766
0.80275586
0.81293714
0.82402182
0.83608441
0.84920255
0.86345497
0.87891806
0.89566035
0.91373414
0.9331634
0.95392712
0.97593805
0.99901783
1.0228723
1.0470739
1.0710624
1.0941742
1.1157097
1.1350293
1.1516577
1.1653597
1.176163
1.1843199
1.1902287
1.194345
1.1971098
1.1989038
1.2000301
1.2007143
1.2011163
1.2013441
1.201468
1.2015325
1.2015642
1.2015788
1.201585
1.2015874
1.2015882
1.2015885
1.2015885
1.2015886
1.2015886
1.2015886
1.2015886
0.75673808
0.76279039
0.76939069
0.77658648
0.7844293
0.79297506
0.80228422
0.812422
0.82345824
0.83546701
0.84852551
0.86271217
0.87810329
0.89476765
0.91275839
0.93210114
0.95277775
0.97470533
0.99771165
1.0215104
1.0456831
1.0696782
1.0928387
1.1144667
1.1339179
1.1507056
1.1645792
1.1755505
1.1838589
1.189895
1.194112
1.1969523
1.1988005
1.1999641
1.2006733
1.2010913
1.2013291
1.2014591
1.2015271
1.2015607
1.2015764
1.2015831
1.2015857
1.2015867
1.201587
1.201587
1.2015871
1.2015871
1.2015871
1.2015871
0.75645694
0.76248715
0.76906288
0.77623132
0.78404368
0.79255549
0.80182683
0.81192246
0.82291178
0.8348684
0.84786912
0.86199206
0.87731341
0.8939022
0.91181232
0.93107099
0.95166274
0.97350886
0.99644296
1.0201863
1.0443291
1.0683284
1.0915339
1.1132495
1.1328267
1.1497681
1.1638085
1.1749439
1.1834011
1.1895627
1.1938794
1.1967947
1.1986969
1.1998978
1.2006319
1.201066
1.2013139
1.2014501
1.2015216
1.2015573
1.201574
1.2015812
1.2015841
1.2015851
1.2015854
1.2015855
1.2015856
1.2015856
1.2015856
1.2015856
0.756184
0.76219277
0.76874465
0.77588655
0.78366937
0.79214827
0.80138292
0.81143768
0.82238151
0.83428757
0.84723226
0.8612934
0.87654708
0.89306251
0.91089432
0.93007121
0.95058027
0.97234674
0.99520984
1.0188981
1.0430102
1.0670116
1.0902584
1.112057
1.131755
1.148845
1.1630474
1.1743432
1.1829464
1.1892319
1.1936472
1.1966371
1.198593
1.1998312
1.2005902
1.2010404
1.2012985
1.2014408
1.201516
1.2015537
1.2015715
1.2015793
1.2015824
1.2015836
1.2015839
1.201584
1.2015841
1.2015841
1.2015841
1.2015841
0.75591883
0.76190677
0.76843549
0.77555164
0.78330578
0.79175272
0.80095178
0.81096689
0.82186657
0.83372356
0.84661388
0.86061506
0.87580303
0.89224722
0.91000291
0.92910021
0.94952865
0.97121722
0.99401053
1.0176441
1.0417247
1.0657262
1.0890111
1.1108883
1.130702
1.1479356
1.1622957
1.1737483
1.182495
1.1889025
1.1934155
1.1964793
1.1984888
1.1997642
1.2005481
1.2010146
1.2012829
1.2014315
1.2015103
1.2015501
1.201569
1.2015774
1.2015808
1.201582
1.2015824
1.2015825
1.2015826
1.2015826
1.2015826
1.2015826
0.75566102
0.76162872
0.76813495
0.77522607
0.78295235
0.79136826
0.80053275
0.81050934
0.82136615
0.83317551
0.84601304
0.85995598
0.87508013
0.89145507
0.90913673
0.92815653
0.94850631
0.97011867
0.99284336
1.0164226
1.0404712
1.0644709
1.0877909
1.1097425
1.1296674
1.1470397
1.1615531
1.173159
1.1820466
1.1885746
1.1931842
1.1963215
1.1983843
1.1996968
1.2005058
1.2009885
1.2012671
1.2014219
1.2015045
1.2015464
1.2015665
1.2015754
1.2015791
1.2015804
1.2015809
1.201581
1.2015811
1.2015811
1.2015811
1.2015811
0.75541021
0.76135823
0.76784259
0.77490938
0.78260857
0.79099433
0.80012521
0.81006438
0.82087954
0.83264261
0.84542884
0.85931518
0.87437729
0.8906849
0.90829451
0.9272388
0.94751182
0.96904959
0.99170681
1.0152322
1.0392482
1.0632445
1.0865966
1.1086188
1.1286503
1.1461569
1.1608195
1.1725753
1.1816014
1.1882482
1.1929535
1.1961637
1.1982796
1.1996292
1.2004631
1.2009622
1.2012511
1.2014123
1.2014986
1.2015427
1.2015639
1.2015734
1.2015774
1.2015789
1.2015794
1.2015795
1.2015796
1.2015796
1.2015796
1.2015796
0.75516605
0.76109492
0.767558
0.77460112
0.78227398
0.79063039
0.7997286
0.80963138
0.82040604
0.8321241
0.84486046
0.85869175
0.87369352
0.8899356
0.90747506
0.92634575
0.94654381
0.96800856
0.99059944
1.0140714
1.0380543
1.0620456
1.0854273
1.1075165
1.1276503
1.1452868
1.1600946
1.1719971
1.1811592
1.1879232
1.1927232
1.1960059
1.1981746
1.1995612
1.2004202
1.2009356
1.2012349
1.2014025
1.2014926
1.2015389
1.2015613
1.2015714
1.2015757
1.2015773
1.2015778
1.201578
1.2015781
1.2015781
1.2015781
1.2015781
0.75492822
0.76083845
0.76728082
0.7743009
0.78194811
0.79027598
0.79934239
0.80920976
0.81994502
0.8316193
0.84430713
0.85808486
0.8730279
0.88920618
0.90667729
0.92547619
0.94560103
0.96699428
0.98951991
1.0129389
1.0368884
1.0608733
1.0842819
1.1064347
1.1266668
1.1444291
1.1593782
1.1714243
1.1807201
1.1875997
1.1924935
1.1958482
1.1980695
1.199493
1.200377
1.2009088
1.2012185
1.2013926
1.2014866
1.201535
1.2015586
1.2015694
1.201574
1.2015757
1.2015763
1.2015765
1.2015766
1.2015766
1.2015766
1.2015766
0.75469643
0.7605885
0.76701068
0.77400833
0.78163057
0.78993064
0.79896609
0.80879899
0.81949589
0.83112755
0.84376814
0.85749373
0.87237956
0.8884957
0.90590017
0.92462903
0.94468231
0.96600551
0.98846698
1.0118335
1.0357492
1.0597264
1.0831597
1.1053728
1.1256994
1.1435835
1.1586702
1.1708568
1.1802841
1.1872778
1.1922644
1.1956905
1.1979642
1.1994246
1.2003336
1.2008818
1.201202
1.2013825
1.2014804
1.2015311
1.2015559
1.2015674
1.2015722
1.2015741
1.2015748
1.201575
1.2015751
1.2015751
1.2015751
1.2015751
0.7544704
0.76034477
0.76674728
0.77372305
0.78132097
0.78959395
0.79859925
0.80839857
0.8190581
0.83064824
0.84324281
0.8569176
0.87174772
0.88780327
0.90514275
0.92380323
0.94378656
0.96504112
0.98743948
1.010754
1.0346357
1.058604
1.0820597
1.1043301
1.1247476
1.1427495
1.1579705
1.1702946
1.179851
1.1869573
1.1920358
1.1955328
1.1978587
1.1993559
1.2002899
1.2008546
1.2011853
1.2013723
1.2014741
1.2015271
1.2015532
1.2015653
1.2015705
1.2015725
1.2015733
1.2015735
1.2015736
1.2015736
1.2015736
1.2015736
0.75424986
0.76010697
0.7664903
0.77344475
0.78101895
0.78926553
0.79824142
0.80800801
0.81863113
0.83018081
0.84273053
0.85635582
0.8711316
0.88712807
0.90440415
0.92299784
0.94291275
0.96410004
0.9864363
1.0096994
1.0335468
1.0575051
1.0809812
1.1033059
1.1238108
1.141927
1.1572787
1.1697374
1.1794209
1.1866383
1.1918079
1.1953753
1.1977531
1.199287
1.200246
1.2008272
1.2011684
1.201362
1.2014678
1.201523
1.2015504
1.2015632
1.2015687
1.2015709
1.2015717
1.201572
1.201572
1.2015721
1.2015721
1.2015721
0.75403458
0.75987484
0.76623947
0.77317312
0.78072417
0.788945
0.79789222
0.8076269
0.8182145
0.82972472
0.84223072
0.85580772
0.87053052
0.88646934
0.90368351
0.92221196
0.94205993
0.96318125
0.98545643
1.0086685
1.0324815
1.0564287
1.0799234
1.1022997
1.1228886
1.1411156
1.1565947
1.1691854
1.1789938
1.1863208
1.1915805
1.1952178
1.1976473
1.1992178
1.2002018
1.2007996
1.2011514
1.2013516
1.2014613
1.2015189
1.2015476
1.2015611
1.201567
1.2015693
1.2015702
1.2015705
1.2015705
1.2015706
1.2015706
1.2015706
0.75382433
0.75964815
0.7659945
0.77290785
0.78043632
0.78863202
0.79755127
0.8072548
0.81780776
0.8292795
0.84174283
0.85527272
0.86994381
0.88582637
0.90298007
0.92144474
0.94122719
0.96228381
0.98449888
1.0076605
1.0314389
1.0553742
1.0788855
1.1013109
1.1219806
1.1403151
1.1559184
1.1686383
1.1785695
1.1860048
1.1913537
1.1950605
1.1975414
1.1991485
1.2001575
1.2007718
1.2011342
1.2013411
1.2014548
1.2015147
1.2015448
1.201559
1.2015652
1.2015677
1.2015686
1.201569
1.201569
1.2015691
1.2015691
1.2015691
0.7536189
0.75942665
0.76575516
0.77264869
0.7801551
0.78832627
0.79721821
0.80689134
0.81741049
0.82884465
0.84126635
0.85475026
0.86937086
0.88519846
0.90229309
0.92069538
0.94041368
0.96140684
0.98356275
1.0066745
1.0304181
1.0543406
1.077867
1.1003388
1.1210865
1.1395251
1.1552496
1.168096
1.1781482
1.1856903
1.1911276
1.1949033
1.1974354
1.1990789
1.2001129
1.2007438
1.2011169
1.2013304
1.2014482
1.2015105
1.2015419
1.2015568
1.2015634
1.2015661
1.2015671
1.2015674
1.2015675
1.2015676
1.2015676
1.2015676
0.75341808
0.75921013
0.76552122
0.77239537
0.77988025
0.78802744
0.79689271
0.80653616
0.81702229
0.82841977
0.84080079
0.8542398
0.86881109
0.884585
0.90162188
0.91996315
0.93961862
0.96054951
0.98264719
1.0057095
1.0294184
1.0533272
1.076867
1.0993831
1.1202057
1.1387455
1.1545882
1.1675586
1.1777297
1.1853773
1.1909021
1.1947463
1.1973294
1.1990092
1.2000681
1.2007156
1.2010994
1.2013197
1.2014415
1.2015062
1.201539
1.2015546
1.2015616
1.2015645
1.2015656
1.2015659
1.201566
1.2015661
1.2015661
1.2015661
0.75322168
0.75899839
0.76529244
0.77214766
0.77961149
0.78773526
0.79657447
0.80618891
0.81664278
0.82800442
0.84034572
0.85374085
0.86826396
0.88398539
0.90096579
0.91924735
0.93884126
0.95971101
0.98175138
1.0047648
1.0284389
1.0523334
1.075885
1.0984431
1.119338
1.1379759
1.153934
1.167026
1.1773141
1.1850658
1.1906772
1.1945894
1.1972232
1.1989393
1.2000232
1.2006873
1.2010818
1.2013088
1.2014347
1.2015019
1.201536
1.2015524
1.2015598
1.2015628
1.201564
1.2015644
1.2015645
1.2015646
1.2015646
1.2015646
0.75302953
0.75879123
0.76506862
0.77190533
0.77934858
0.78744946
0.79626318
0.80584928
0.81627161
0.82759822
0.8399007
0.85325295
0.86772895
0.88339906
0.90032421
0.91854731
0.93808089
0.95889063
0.98087456
1.0038395
1.0274789
1.0513583
1.0749205
1.0975184
1.118483
1.1372161
1.1532868
1.166498
1.1769012
1.1847558
1.190453
1.1944327
1.197117
1.1988692
1.199978
1.2006587
1.2010641
1.2012978
1.2014279
1.2014975
1.201533
1.2015502
1.2015579
1.2015612
1.2015624
1.2015629
1.201563
1.2015631
1.2015631
1.2015631
0.75284146
0.75858848
0.76484957
0.77166817
0.77909129
0.78716977
0.79595858
0.80551695
0.81590846
0.82720082
0.83946533
0.85277564
0.86720558
0.88282548
0.89969657
0.91786241
0.93733684
0.95808765
0.98001601
1.0029331
1.0265377
1.0504015
1.0739728
1.0966086
1.1176403
1.1364659
1.1526465
1.1659745
1.1764911
1.1844472
1.1902294
1.1942761
1.1970107
1.198799
1.1999327
1.20063
1.2010462
1.2012867
1.2014209
1.201493
1.20153
1.2015479
1.2015561
1.2015595
1.2015609
1.2015614
1.2015615
1.2015616
1.2015616
1.2015616
0.75265732
0.75838997
0.7646351
0.77143598
0.7788394
0.78689598
0.79566041
0.80519166
0.815553