/*--------------------------------*- C++ -*----------------------------------*\
| =========                 |                                                 |
| \\      /  F ield         | OpenFOAM: The Open Source CFD Toolbox           |
|  \\    /   O peration     | Version:  4.0                                   |
|   \\  /    A nd           | Web:      www.OpenFOAM.org                      |
|    \\/     M anipulation  |                                                 |
\*---------------------------------------------------------------------------*/
FoamFile
{
    version     2.0;
    format      ascii;
    class       surfaceScalarField;
    location    "746";
    object      snGradRho;
}
// * * * * * * * * * * * * * * * * * * * * * * * * * * * * * * * * * * * * * //

dimensions      [1 -4 0 0 0 0 0];

internalField   nonuniform List<scalar> 
9850
(
155.7401
-3.6437092
156.46216
-3.9629219
155.87986
-4.3140916
153.74865
-4.6886453
149.8392
-5.0731922
143.96627
-5.4488165
136.02596
-5.7908408
126.03775
-6.0694355
114.18367
-6.2514969
100.83223
-6.3041435
86.532869
-6.199876
71.970189
-5.9228552
57.878145
-5.4749265
44.930588
-4.8792837
33.63796
-4.17958
24.281902
-3.4334154
16.906062
-2.7013885
11.359129
-2.0352156
7.3677265
-1.4691422
4.6116242
-1.0172511
2.7814384
-0.67637284
1.611823
-0.43211324
0.89333993
-0.26515252
0.47055807
-0.1560003
0.23362795
-0.087706159
0.10820019
-0.046880657
0.046140882
-0.02366197
0.017806422
-0.011185593
0.0060677772
-0.0049118993
0.0017549008
-0.0019963536
0.0003975396
-0.0007639872
5.4403451e-05
-0.00030000583
-4.2193736e-06
-0.00014894075
-5.1899181e-06
-0.00010842099
-1.6259797e-06
-0.00010035985
-2.3334064e-07
-9.9587135e-05
4.0437756e-08
-9.9774197e-05
5.3519548e-08
-9.9885724e-05
4.3593766e-08
-9.9913862e-05
3.9664683e-08
-9.9917573e-05
3.849115e-08
-9.9917708e-05
3.8329374e-08
-9.9918382e-05
3.801931e-08
-9.9919769e-05
3.8806148e-08
-9.9921727e-05
4.16072e-08
-9.9925397e-05
3.8104728e-08
-9.9927191e-05
3.9237439e-08
-9.9940258e-05
-1.088176e-08
-9.9942697e-05
4.2118543e-07
-9.9886784e-05
-0.00010009916
107.27324
-0.88952573
107.994
-0.96509527
108.88738
-1.0520876
109.8917
-1.1529691
110.89725
-1.2701972
111.73362
-1.4057654
112.15955
-1.5604971
111.85998
-1.7330639
110.45687
-1.9187867
107.54174
-2.1084065
102.73721
-2.2872127
95.788169
-2.4351405
86.669332
-2.5285656
75.674974
-2.5443223
63.441292
-2.4656834
50.860752
-2.2887015
38.893541
-2.0260873
28.343172
-1.7059406
19.692597
-1.3648905
13.063021
-1.0383999
8.2864955
-0.75263138
5.0324511
-0.52093705
2.926192
-0.34506376
1.626773
-0.21900307
0.86193057
-0.13314986
0.43303117
-0.077394956
0.20480944
-0.042844635
0.090334906
-0.022462811
0.03670773
-0.011077512
0.013528012
-0.0051040693
0.0044268914
-0.0021918569
0.0012469686
-0.00088986848
0.00028656319
-0.00036442747
4.7397459e-05
-0.00017660642
2.9563592e-06
-0.00011852959
-1.2417537e-06
-0.00010348453
-5.0609156e-07
-0.00010038093
-7.1830604e-08
-9.9924254e-05
2.8567785e-08
-9.9896046e-05
3.9167711e-08
-9.9905458e-05
3.623464e-08
-9.9911729e-05
3.4110942e-08
-9.9915841e-05
3.260529e-08
-9.9919802e-05
2.9580597e-08
-9.9921708e-05
3.7507405e-08
-9.9927269e-05
1.0961875e-08
-9.9927484e-05
3.4631084e-08
-9.9936817e-05
8.509673e-08
-9.9917034e-05
8.9794516e-08
-9.9893462e-05
-0.00010018051
95.799328
-0.43512068
95.987392
-0.47141254
96.230523
-0.51259013
96.522034
-0.55951525
96.842539
-0.61321451
97.151588
-0.67486227
97.376241
-0.74569635
97.397082
-0.82681318
97.033874
-0.91877641
96.035727
-1.02098
94.084165
-1.1307593
90.820419
-1.2423709
85.907713
-1.3461759
79.130301
-1.4286187
70.510305
-1.4737183
60.3959
-1.4664997
49.460195
-1.3978537
38.575784
-1.2689832
28.597296
-1.0928887
20.148082
-0.89139077
13.50836
-0.68875529
8.6356764
-0.50508946
5.2739474
-0.35247085
3.0802618
-0.23467268
1.7199961
-0.14934438
0.91639245
-0.090892654
0.4640157
-0.052840924
0.22195727
-0.029254614
0.099483629
-0.015350787
0.04134912
-0.0075901733
0.015733745
-0.0035192336
0.0053949995
-0.0015330569
0.0016344262
-0.00064344324
0.00042626548
-0.00028327567
9.2176379e-05
-0.00015383144
1.5489128e-05
-0.00011339561
1.7318212e-06
-0.00010269326
5.3828359e-08
-0.00010037124
-9.5492305e-09
-9.9977773e-05
1.6083778e-08
-9.9930045e-05
2.2475887e-08
-9.9927081e-05
2.2059321e-08
-9.9927023e-05
2.7335931e-08
-9.9929054e-05
1.5601109e-08
-9.9928649e-05
3.7016482e-08
-9.9933303e-05
-8.42626e-09
-9.9935311e-05
7.19882e-08
-9.9935628e-05
1.2555968e-07
-9.9919186e-05
-3.5812656e-07
-9.9979015e-05
-0.00010007624
90.289044
-0.30265122
90.304094
-0.32767369
90.343176
-0.35591734
90.397721
-0.38784417
90.451355
-0.42396972
90.476126
-0.46485309
90.427191
-0.51107028
90.235578
-0.56315593
89.798982
-0.62148855
88.97153
-0.68608231
87.555443
-0.75624176
85.300732
-0.83005091
81.922732
-0.90373317
77.148666
-0.97106022
70.798631
-1.0231963
62.888336
-1.0495265
53.713652
-1.0398872
43.859191
-0.98795849
34.092946
-0.89452189
25.172024
-0.76865466
17.647771
-0.62566747
11.762469
-0.48255236
7.4678218
-0.35328917
4.5248637
-0.2461585
2.6195655
-0.1636254
1.4487387
-0.10392186
0.76397506
-0.063071879
0.38269566
-0.036520756
0.18104121
-0.020107076
0.080239846
-0.010475127
0.032982292
-0.0051369814
0.012417948
-0.0023655394
0.0042191021
-0.0010322615
0.0012707034
-0.00044584471
0.00033196858
-0.00021370565
7.3183226e-05
-0.00013246256
1.3110755e-05
-0.00010782879
1.8066239e-06
-0.00010150727
1.8372588e-07
-0.00010017355
2.6993605e-08
-9.9952012e-05
2.2671703e-08
-9.9926964e-05
1.5879191e-08
-9.9926472e-05
2.8457942e-08
-9.9929936e-05
3.902547e-09
-9.9931473e-05
3.2426914e-08
-9.993536e-05
-9.0838102e-09
-9.9938686e-05
1.0303443e-07
-9.993261e-05
2.2859791e-08
-9.993181e-05
-5.0984484e-07
-0.00010000828
-0.0001000327
86.48982
-0.23124716
86.405927
-0.25025077
86.337553
-0.27164756
86.277662
-0.295757
86.212871
-0.32292718
86.12058
-0.35352414
85.965161
-0.38790991
85.69301
-0.42640275
85.226453
-0.46920899
84.456835
-0.51631202
83.237974
-0.56729881
81.382781
-0.62110455
78.66839
-0.67566942
74.857849
-0.72754906
69.746951
-0.77161916
63.238325
-0.80115587
55.427594
-0.80866698
46.662593
-0.78770063
37.525847
-0.73530839
28.717107
-0.65407926
20.873261
-0.55237922
14.410764
-0.442241
9.4630244
-0.33584202
5.9221433
-0.24237826
3.5384003
-0.16664176
2.0202327
-0.10937401
1.1016395
-0.068605401
0.57244977
-0.041110518
0.28226496
-0.023485407
0.13123651
-0.012743564
0.057050316
-0.0065372823
0.02294335
-0.0031585242
0.0084274132
-0.0014409804
0.0027850778
-0.00063536192
0.00081375558
-0.00029164622
0.00020597869
-0.00016043723
4.4089035e-05
-0.00011643899
7.7479694e-06
-0.00010373867
1.0808567e-06
-0.0001006532
1.1919839e-07
-0.00010003832
2.4317732e-08
-9.9942035e-05
5.3445033e-09
-9.9931078e-05
2.4206417e-08
-9.9931948e-05
-5.8681096e-09
-9.993411e-05
2.4825544e-08
-9.9935973e-05
3.5389136e-09
-9.9937652e-05
1.0454519e-07
-9.9929997e-05
-1.0841258e-07
-9.9946893e-05
-5.4794317e-07
-0.00010001404
-9.9999467e-05
83.604454
-0.18639675
83.452759
-0.20164536
83.312721
-0.21879179
83.178947
-0.23808542
83.040805
-0.25979706
82.880037
-0.28421049
82.667589
-0.31160553
82.359535
-0.34222799
81.892075
-0.37623948
81.175882
-0.41363833
80.090606
-0.45414048
78.481371
-0.49701051
76.160718
-0.54083964
72.921446
-0.58328982
68.567195
-0.62087013
62.965607
-0.64889077
56.119603
-0.66182341
48.234531
-0.6542953
39.741289
-0.6227154
31.238557
-0.5670381
23.355527
-0.49170891
16.590626
-0.40496726
11.203694
-0.31659282
7.2043569
-0.23520173
4.4197484
-0.1663964
2.5905882
-0.11234856
1.4513062
-0.07250803
0.77620892
-0.044744835
0.39515276
-0.026369406
0.19052671
-0.014798338
0.086392452
-0.007875643
0.036502294
-0.0039584445
0.014208785
-0.0018779143
0.0050273297
-0.00085150794
0.0015918499
-0.00038727823
0.00044316393
-0.00019771481
0.0001063263
-0.00012902575
2.1492848e-05
-0.00010735274
3.5708661e-06
-0.00010151886
4.7362353e-07
-0.00010020854
6.0983484e-08
-9.9969627e-05
2.6967256e-09
-9.9936022e-05
1.8229057e-08
-9.9933159e-05
-1.0550526e-08
-9.9935324e-05
2.0988039e-08
-9.9935593e-05
1.9440747e-08
-9.9935204e-05
7.2640672e-08
-9.9930726e-05
-2.2367415e-07
-9.995817e-05
-5.2520373e-07
-0.00010000646
-9.9958065e-05
81.289221
-0.15464715
81.086222
-0.1672515
80.892092
-0.18140936
80.70277
-0.19732312
80.509802
-0.21521334
80.298306
-0.23531269
80.044251
-0.25785362
79.710939
-0.28304609
79.244647
-0.31104017
78.569607
-0.34186658
77.582923
-0.37534713
76.150818
-0.41096726
74.108833
-0.4477084
71.270199
-0.48385221
67.447994
-0.51679914
62.496041
-0.54299421
56.368073
-0.55811167
49.18203
-0.55767337
41.25983
-0.5381717
33.106194
-0.49846903
25.310487
-0.44085547
18.401208
-0.3710275
12.719523
-0.29672326
8.3692263
-0.22558721
5.2515423
-0.16331536
3.1479598
-0.11283222
1.8043852
-0.074532549
0.98864229
-0.047115457
0.51675503
-0.028488699
0.25666099
-0.01644243
0.12041057
-0.0090264103
0.052926789
-0.0046940042
0.0215746
-0.0023073257
0.0080557626
-0.0010789838
0.0027159971
-0.00049545967
0.00081345217
-0.00024327682
0.00021253378
-0.00014575337
4.7481141e-05
-0.00011261416
8.8770122e-06
-0.00010291037
1.3531207e-06
-0.0001005119
1.7343678e-07
-0.00010002246
1.1407284e-08
-9.9942855e-05
1.2242037e-08
-9.9932963e-05
-1.1226316e-08
-9.993397e-05
2.1875678e-08
-9.993315e-05
2.8742357e-08
-9.9931491e-05
2.0818897e-08
-9.9932599e-05
-3.0657564e-07
-9.9962726e-05
-4.4967876e-07
-9.9992527e-05
-9.9939625e-05
79.37547
-0.13154242
79.132165
-0.14223047
78.895511
-0.15422566
78.66242
-0.1676976
78.42605
-0.18283169
78.17403
-0.19982473
77.886084
-0.21887564
77.530941
-0.24016862
77.062475
-0.26384456
76.415165
-0.28995534
75.499322
-0.31839434
74.19716
-0.34879656
72.361774
-0.38040522
69.822538
-0.41191175
66.40171
-0.44129822
61.947148
-0.4657483
56.38254
-0.48173933
49.767144
-0.48545546
42.34268
-0.47360972
34.534607
-0.44456781
26.884251
-0.39936068
19.923525
-0.34198243
14.044361
-0.27859306
9.4234843
-0.21587223
6.0284755
-0.15931226
3.6837747
-0.11220851
2.1530626
-0.075582278
1.2039812
-0.048754772
0.64335127
-0.030120849
0.32750812
-0.017797461
0.15803446
-0.010028289
0.071768136
-0.0053680101
0.030389569
-0.0027217496
0.011862421
-0.0013109319
0.0042114895
-0.00061254573
0.0013391805
-0.00029591529
0.00037493089
-0.00016651421
9.0708742e-05
-0.00011967781
1.8589647e-05
-0.00010494648
3.1548487e-06
-0.00010099975
4.398252e-07
-0.00010011735
4.1500539e-08
-9.9956918e-05
9.4568218e-09
-9.9933658e-05
-9.165456e-09
-9.9931964e-05
2.5666942e-08
-9.9930242e-05
2.6440563e-08
-9.9928436e-05
-3.6071124e-08
-9.9934753e-05
-3.5773016e-07
-9.996358e-05
-3.6712941e-07
-9.9977793e-05
-9.9926539e-05
77.752677
-0.11396729
77.476599
-0.12320261
77.205286
-0.13355968
76.936401
-0.14518347
76.664338
-0.15823295
76.378657
-0.17287786
76.061975
-0.1892916
75.687212
-0.20763821
75.214119
-0.22804999
74.585142
-0.25059148
73.720944
-0.27520418
72.516413
-0.30162638
70.838864
-0.32928428
68.531322
-0.3571581
65.425124
-0.38364282
61.366537
-0.4064523
56.259886
-0.42265366
50.122554
-0.42894857
43.134769
-0.42229356
35.655428
-0.40081814
28.177426
-0.36475743
21.222223
-0.31690981
15.212475
-0.26221185
10.381041
-0.20647995
6.7534
-0.15489064
4.1961781
-0.1109005
2.494242
-0.075953081
1.4194029
-0.04984202
0.7728598
-0.031358921
0.401729
-0.01890166
0.19850571
-0.010889627
0.092658721
-0.0059759585
0.040514041
-0.0031137547
0.016418389
-0.0015414992
0.0060891684
-0.00073530325
0.0020367544
-0.00035439419
0.00060445036
-0.00019108545
0.00015633261
-0.00012863674
3.4572e-05
-0.0001077311
6.4031194e-06
-0.00010172344
9.7669763e-07
-0.00010027087
1.1225618e-07
-9.9981795e-05
1.4142661e-08
-9.9935351e-05
-4.838368e-09
-9.992948e-05
2.9794069e-08
-9.9927113e-05
1.3319326e-08
-9.9926384e-05
-9.0506561e-08
-9.9936108e-05
-3.8212755e-07
-9.996128e-05
-2.8715067e-07
-9.9963061e-05
-9.991508e-05
76.350454
-0.10025002
76.047125
-0.10835482
75.746936
-0.11743813
75.448129
-0.127626
75.146062
-0.13905699
74.831812
-0.1518797
74.490273
-0.16624731
74.097673
-0.18230717
73.618429
-0.20018294
73.001338
-0.21994556
72.175376
-0.24156838
71.045743
-0.26486149
69.491546
-0.28938139
67.367605
-0.31431732
64.514067
-0.33836799
60.778289
-0.35964469
56.052118
-0.37566954
50.322226
-0.38356656
43.720489
-0.38053632
36.549481
-0.36461293
29.255803
-0.33550884
22.342854
-0.29515122
16.250426
-0.24751052
11.254444
-0.19764864
7.4304063
-0.15038833
4.6850948
-0.10922579
2.8263099
-0.075891588
1.6330811
-0.050544055
0.90377522
-0.032301581
0.47827001
-0.019804156
0.24117746
-0.011628507
0.11525404
-0.0065197797
0.051797041
-0.0034792034
0.021677661
-0.0017660095
0.0083480316
-0.00086061482
0.0029171173
-0.00041726201
0.00091047721
-0.00021904769
0.00024946128
-0.000139489
5.8900155e-05
-0.00011134263
1.1750281e-05
-0.00010273465
1.9440458e-06
-0.00010050377
2.5353728e-07
-0.00010002371
3.0377969e-08
-9.9939471e-05
1.1118664e-09
-9.992708e-05
3.1459174e-08
-9.9923997e-05
-6.8794613e-09
-9.9924954e-05
-1.3803905e-07
-9.9936366e-05
-3.8518487e-07
-9.9956923e-05
-2.1227974e-07
-9.99505e-05
-9.9910619e-05
75.119882
-0.089268907
74.793453
-0.09647097
74.46874
-0.10453787
74.144444
-0.11358064
73.816699
-0.12372159
73.477797
-0.13509245
73.11447
-0.14782998
72.705623
-0.16206759
72.219452
-0.17792074
71.60993
-0.19546313
70.812845
-0.21468963
69.741932
-0.23546149
68.286235
-0.25743033
66.31084
-0.27994053
63.664233
-0.30191982
60.196449
-0.3217851
55.791472
-0.33741825
50.413143
-0.34629427
44.154783
-0.34584758
37.271059
-0.33409938
30.165372
-0.31041509
23.318899
-0.27607262
17.179054
-0.23426688
12.054558
-0.18940237
8.0638959
-0.14594142
5.1514425
-0.10734564
3.1486676
-0.075539458
1.8439774
-0.050966573
1.0351127
-0.033017964
0.55637407
-0.020544073
0.28554316
-0.012262838
0.13925751
-0.0070045689
0.06409146
-0.003817037
0.027584062
-0.0019816293
0.010977198
-0.00098608116
0.0039856488
-0.0004831728
0.0013003507
-0.00024989684
0.0003748453
-0.00015215502
9.3758329e-05
-0.00011582673
1.9962554e-05
-0.00010407822
3.5505106e-06
-0.00010083731
5.0978795e-07
-0.00010008973
6.4642083e-08
-9.9947995e-05
8.8617765e-09
-9.9925533e-05
2.9271654e-08
-9.9921431e-05
-3.0584967e-08
-9.9924054e-05
-1.7685776e-07
-9.9935926e-05
-3.7415828e-07
-9.995184e-05
-1.5004828e-07
-9.9940378e-05
-9.9908391e-05
74.026375
-0.080302691
73.680065
-0.086769318
73.334211
-0.094008679
72.987885
-0.10211966
72.637852
-0.11121141
72.277402
-0.12140187
71.894775
-0.13281423
71.471082
-0.14557004
70.977643
-0.15977716
70.372723
-0.17550979
69.597794
-0.19277746
68.57377
-0.21147868
67.198174
-0.23133602
65.345088
-0.25181161
62.870773
-0.27200961
59.628832
-0.29058651
55.498513
-0.30571337
50.426546
-0.31515951
44.475204
-0.31657696
37.858264
-0.30802271
30.939373
-0.28863356
24.175399
-0.25919773
18.014611
-0.22228132
12.790349
-0.18171634
8.6578832
-0.14161313
5.5964131
-0.10535198
3.4611738
-0.074984225
2.0514764
-0.051178529
1.1662029
-0.033555399
0.63548681
-0.021149636
0.33120753
-0.012806466
0.1644211
-0.0074348621
0.077262923
-0.0041268736
0.034078586
-0.0021862342
0.013959541
-0.0011096549
0.0052431903
-0.00055083349
0.0017793297
-0.0002830604
0.00053667745
-0.00016648679
0.00014133417
-0.00012119546
3.1892924e-05
-0.00010578977
6.0521735e-06
-0.00010129225
9.4095068e-07
-0.00010018747
1.2675377e-07
-9.9963002e-05
1.9174263e-08
-9.9925272e-05
2.3276903e-08
-9.99195e-05
-5.5246449e-08
-9.9923385e-05
-2.0690661e-07
-9.9934896e-05
-3.5448464e-07
-9.9946541e-05
-1.001336e-07
-9.9932228e-05
-9.9907246e-05
73.044531
-0.07285611
72.680894
-0.078713171
72.316586
-0.085267002
71.950986
-0.092606495
71.581381
-0.10082992
71.201892
-0.11004378
70.80202
-0.12035987
70.364723
-0.13188962
69.863945
-0.14473384
69.261565
-0.15896596
68.503866
-0.17460557
67.517883
-0.1915788
66.208459
-0.20966229
64.457606
-0.22840926
62.128774
-0.24706232
59.079597
-0.26446903
55.186737
-0.27903606
50.384018
-0.28878121
44.708512
-0.29155528
38.338979
-0.28547878
31.60279
-0.26954111
24.931728
-0.24415851
18.770094
-0.21138377
13.469293
-0.17455049
9.2159406
-0.13743331
6.02126
-0.1033018
3.7639232
-0.074284972
2.2552126
-0.05122919
1.2965772
-0.033949569
0.71519125
-0.021643497
0.37785613
-0.01327154
0.19053561
-0.0078154802
0.091189563
-0.004409243
0.041101721
-0.0023784862
0.017273458
-0.0012297071
0.0066866985
-0.00061906364
0.0023505929
-0.00031793236
0.00073843736
-0.0001822782
0.00020371982
-0.00012742585
4.844914e-05
-0.00010789282
9.7491395e-06
-0.00010188759
1.6237852e-06
-0.00010032512
2.3108802e-07
-9.9987047e-05
3.3682818e-08
-9.992689e-05
1.4399533e-08
-9.9918272e-05
-7.9156501e-08
-9.9922823e-05
-2.28896e-07
-9.9933495e-05
-3.299164e-07
-9.9941485e-05
-6.1150391e-08
-9.9926038e-05
-9.9907719e-05
72.155239
-0.066582299
71.77634
-0.071926726
71.395755
-0.077904326
71.013117
-0.08459564
70.626156
-0.092089827
70.229694
-0.10048375
69.8143
-0.10987955
69.364499
-0.12037986
68.856467
-0.13207909
68.255171
-0.14504912
67.511016
-0.15931645
66.556319
-0.17482803
65.302299
-0.19140238
63.638006
-0.20866447
61.433514
-0.22596732
58.550689
-0.24231308
54.865092
-0.25630275
50.300786
-0.26616525
44.874243
-0.26993108
38.734122
-0.26579896
32.174856
-0.25266722
25.603205
-0.23066819
19.456077
-0.20143344
14.097684
-0.16786263
9.7412229
-0.13341507
6.4272074
-0.10123179
4.0571356
-0.07348271
2.4549776
-0.051154308
1.4259037
-0.034227436
0.79517069
-0.022043599
0.42523817
-0.013668352
0.21742574
-0.0081510632
0.10576291
-0.0046652045
0.048595857
-0.0025576567
0.020894691
-0.0013450075
0.0083100337
-0.00068684033
0.0030153595
-0.00035391627
0.00098278892
-0.00019928545
0.00028281924
-0.00013446385
7.0555468e-05
-0.0001103972
1.4977724e-05
-0.00010263905
2.6521909e-06
-0.00010051079
3.9744002e-07
-0.00010002292
5.5346725e-08
-9.9931084e-05
4.0002441e-09
-9.9917834e-05
-1.0132511e-07
-9.9922376e-05
-2.4398448e-07
-9.9931961e-05
-3.0339963e-07
-9.9936939e-05
-3.2565491e-08
-9.9921428e-05
-9.9908504e-05
71.343781
-0.061231097
70.951316
-0.066138996
70.556245
-0.071626137
70.158418
-0.077765995
69.755937
-0.084639995
69.344226
-0.092336789
68.914768
-0.10095024
68.453437
-0.11057529
67.938332
-0.12130055
67.337081
-0.13319586
66.603666
-0.1462925
65.675001
-0.16055332
64.467914
-0.17582976
62.877733
-0.19180411
60.780632
-0.20791876
58.042745
-0.22330256
54.539573
-0.23671848
50.187799
-0.24657603
44.986942
-0.25106724
39.059697
-0.24847576
32.670665
-0.2376481
26.202155
-0.2184993
20.0813
-0.19231374
14.680879
-0.16161306
10.236522
-0.12956329
6.815419
-0.099167082
4.3410975
-0.072607624
2.6506646
-0.050981249
1.5539457
-0.034410384
0.87518157
-0.022364784
0.47315194
-0.014005933
0.24494444
-0.008446132
0.12088734
-0.0048962318
0.056506653
-0.0027235246
0.024797747
-0.001454695
0.010104757
-0.00075331871
0.0037731202
-0.00039045624
0.0012715506
-0.00021724634
0.00038027766
-0.00014223074
9.9114634e-05
-0.00011329933
2.2099634e-05
-0.00010355813
4.1362728e-06
-0.00010075207
6.513851e-07
-0.0001000735
8.8652818e-08
-9.993858e-05
-6.3791882e-09
-9.9918226e-05
-1.212351e-07
-9.9922024e-05
-2.5338425e-07
-9.9930387e-05
-2.7677382e-07
-9.9932934e-05
-1.2398557e-08
-9.9917993e-05
-9.9909256e-05
70.598602
-0.056617915
70.193986
-0.061150057
69.785923
-0.066215201
69.374449
-0.071880768
68.95799
-0.078221554
68.532487
-0.085319144
68.090218
-0.093260212
67.618223
-0.10213297
67.096274
-0.11202075
66.494325
-0.12299111
65.769479
-0.13507857
64.862698
-0.14825824
63.695772
-0.16240785
62.169669
-0.17725609
60.166171
-0.19231854
57.555632
-0.2068291
54.214218
-0.21968706
50.053048
-0.22945734
45.057622
-0.23447684
39.328147
-0.23311601
33.102235
-0.22419695
26.738635
-0.20746831
20.65307
-0.18392711
15.223479
-0.15576534
10.704318
-0.12587809
7.1869876
-0.097125231
4.6161313
-0.071682501
2.8422359
-0.050731474
1.6805349
-0.034515731
0.9550358
-0.022619529
0.5214349
-0.01429228
0.2729687
-0.008705054
0.13647937
-0.0051040963
0.064783946
-0.0028762853
0.028957042
-0.0015582441
0.012060872
-0.00081784129
0.0046219269
-0.00042706013
0.0016057237
-0.00023589774
0.000497436
-0.00015063035
0.00013497378
-0.00011658335
3.1489697e-05
-0.00010465163
6.2004459e-06
-0.00010105565
1.0244818e-06
-0.00010014175
1.3981657e-07
-9.995021e-05
-1.5058302e-08
-9.9919546e-05
-1.3860673e-07
-9.992179e-05
-2.5819421e-07
-9.9928852e-05
-2.511266e-07
-9.9929477e-05
1.2348225e-09
-9.9915492e-05
-9.9910019e-05
69.910476
-0.052603751
69.494898
-0.056809384
69.075106
-0.061507983
68.651293
-0.066761739
68.222165
-0.072639707
67.784115
-0.079217334
67.330113
-0.086575014
66.848227
-0.094795012
66.319693
-0.10395584
65.716508
-0.1141227
64.998533
-0.12533224
64.110312
-0.13756915
62.978063
-0.15073233
61.507838
-0.16458846
59.58659
-0.17871379
57.088778
-0.19243018
53.891744
-0.20475265
49.902447
-0.21438069
45.094737
-0.21978105
39.549278
-0.21940985
33.479261
-0.21208409
27.220938
-0.19742506
21.177555
-0.17619117
15.729468
-0.15028646
11.146824
-0.12235682
7.542933
-0.09511871
4.8825764
-0.070724902
3.0297018
-0.050422121
1.805554
-0.034557728
1.0345881
-0.022818445
0.56995602
-0.014534502
0.30139602
-0.0089319929
0.15246684
-0.0052907537
0.073382275
-0.0030164558
0.033347772
-0.0016554195
0.014167491
-0.00087993461
0.0055587088
-0.00046331506
0.0019855655
-0.00025499092
0.00063531002
-0.0001595571
0.00017889664
-0.00012022331
4.3523107e-05
-0.00010592157
8.9805192e-06
-0.00010142698
1.5541338e-06
-0.00010023051
2.1690029e-07
-9.996688e-05
-2.0187537e-08
-9.9921943e-05
-1.5327597e-07
-9.9921715e-05
-2.5937426e-07
-9.9927407e-05
-2.2712046e-07
-9.9926525e-05
9.7744266e-09
-9.9913672e-05
-9.9910561e-05
69.271924
-0.049082033
68.846402
-0.053001584
68.415956
-0.05737914
67.980921
-0.062272335
67.540245
-0.067745208
67.090721
-0.073867835
66.625929
-0.080715082
66.134841
-0.088363923
65.599991
-0.096888488
64.995185
-0.10635161
64.282735
-0.11679124
63.410379
-0.12819962
62.308308
-0.1404929
60.887183
-0.15346921
59.038729
-0.16675552
56.641366
-0.17974806
53.573964
-0.19156087
49.740418
-0.20101059
45.104861
-0.20668048
39.730905
-0.2071095
33.809642
-0.20112293
27.65597
-0.18824507
21.660005
-0.16903545
16.202315
-0.14514625
11.566017
-0.1189948
7.884204
-0.093156085
5.1407774
-0.069748322
3.2131057
-0.050066914
1.9289241
-0.034548116
1.1137268
-0.022970545
0.61860987
-0.014738877
0.33014135
-0.0091308463
0.16878792
-0.0054582396
0.082261084
-0.0031447834
0.037946545
-0.0017462233
0.016413399
-0.00093929393
0.006579591
-0.00049889364
0.0024106959
-0.00027430262
0.00079459304
-0.00016890333
0.00023154399
-0.00012418585
5.8563551e-05
-0.00010736547
1.2620152e-05
-0.00010187006
2.2831539e-06
-0.00010034246
3.2986138e-07
-9.9989532e-05
-1.9667117e-08
-9.9925603e-05
-1.6510052e-07
-9.9921832e-05
-2.5770895e-07
-9.9926066e-05
-2.0505725e-07
-9.9924005e-05
1.4629359e-08
-9.9912333e-05
-9.9910864e-05
68.676809
-0.045969748
68.242215
-0.049636782
67.802043
-0.053731061
67.356748
-0.058306214
66.905496
-0.063421872
66.445431
-0.069143372
65.970675
-0.075540681
65.471002
-0.082686048
64.930106
-0.0906496
64.323405
-0.099491828
63.615401
-0.10925143
62.756701
-0.11992663
61.681081
-0.13144772
60.303394
-0.14363914
58.519781
-0.15617064
56.21246
-0.16850184
53.26207
-0.1798321
49.570303
-0.1890806
45.09316
-0.19493529
39.879331
-0.19601421
34.09988
-0.19116018
28.04953
-0.17982411
22.104917
-0.16239936
16.645057
-0.14031739
11.963674
-0.11578628
8.2116802
-0.091243135
5.3910761
-0.06876316
3.3925144
-0.049676857
2.0505947
-0.034496569
1.192366
-0.023083451
0.66731167
-0.01491089
0.3591343
-0.0093051819
0.18539001
-0.0056085675
0.091384682
-0.0032621528
0.04273179
-0.0018308355
0.018787504
-0.00099575771
0.0076801883
-0.00053355119
0.0028802195
-0.0002936412
0.00097567743
-0.00017856508
0.00029346287
-0.00012843294
7.6953139e-05
-0.00010897705
1.7267063e-05
-0.00010238734
3.2590948e-06
-0.00010047995
4.9056262e-07
-0.00010001914
-1.1049737e-08
-9.9930763e-05
-1.7389612e-07
-9.992219e-05
-2.5381751e-07
-9.9924839e-05
-1.8502117e-07
-9.9921853e-05
1.6921073e-08
-9.991134e-05
-9.9910985e-05
68.120034
-0.043201305
67.677126
-0.046643974
67.228033
-0.05048664
66.773316
-0.054779389
66.312334
-0.059577949
65.842543
-0.064943451
65.358551
-0.070941498
64.850852
-0.077640091
64.304173
-0.085105704
63.695383
-0.093396548
62.990955
-0.10255165
62.144083
-0.11257397
61.091793
-0.12340558
59.75277
-0.134893
58.027248
-0.14674244
55.801075
-0.15846789
52.956817
-0.16934275
49.394643
-0.17837643
45.063733
-0.18435107
39.999677
-0.18595954
34.355369
-0.18206855
28.406521
-0.1720741
22.516172
-0.15623037
17.060367
-0.13577502
12.341391
-0.11272478
8.5261765
-0.089383566
5.6338066
-0.067777436
3.5680096
-0.049260813
2.1705371
-0.034411071
1.2704406
-0.023163599
0.7159933
-0.015055302
0.38831678
-0.009458217
0.20222862
-0.0057436668
0.10072197
-0.0033695168
0.047683961
-0.0019095601
0.021279162
-0.0010492799
0.0088558555
-0.00056711844
0.0033928507
-0.00031284924
0.0011786886
-0.00018844642
0.00036508358
-0.00013292445
9.90046e-05
-0.00011074692
2.306929e-05
-0.00010297984
4.53338e-06
-0.00010064501
7.1271648e-07
-0.00010005667
8.541102e-09
-9.9937698e-05
-1.7939953e-07
-9.9922849e-05
-2.4817903e-07
-9.9923733e-05
-1.6697546e-07
-9.9920009e-05
1.7476094e-08
-9.9910586e-05
-9.9910927e-05
67.597325
-0.040724238
67.146764
-0.04396637
66.689453
-0.047584211
66.226048
-0.0516247
65.756078
-0.056140084
65.277282
-0.06118774
64.784702
-0.066829364
64.269478
-0.073129122
63.717272
-0.08015014
63.106261
-0.087948435
62.404699
-0.096563048
61.568128
-0.10600074
60.536533
-0.11621339
59.232116
-0.12706629
57.558909
-0.13829684
55.406224
-0.14946608
52.658654
-0.15991199
49.215385
-0.16872373
45.019864
-0.17476843
40.096146
-0.17680936
34.580621
-0.17374128
28.731122
-0.16491989
22.897133
-0.15048254
17.450606
-0.13149641
12.700612
-0.10980329
8.8284477
-0.087579324
5.8692921
-0.066797117
3.7396834
-0.048825769
2.2887386
-0.034298099
1.3479012
-0.023216327
0.76460004
-0.015176159
0.41764085
-0.0095927741
0.21926627
-0.0058653102
0.1102461
-0.0034678276
0.052785587
-0.0019827749
0.023878392
-0.0010998993
0.010101889
-0.0005994893
0.0039470297
-0.00033180246
0.001403526
-0.00019846201
0.00044672313
-0.00013762017
0.00012499596
-0.00011266345
3.0171774e-05
-0.00010364718
6.160317e-06
-0.00010083924
1.0117778e-06
-0.00010010306
4.2473732e-08
-9.9946715e-05
-1.8123605e-07
-9.992388e-05
-2.4114633e-07
-9.9922753e-05
-1.5080036e-07
-9.9918419e-05
1.6943849e-08
-9.9909991e-05
-9.991073e-05
67.105064
-0.038496089
66.647432
-0.041558014
66.182523
-0.044973884
65.711076
-0.048787817
65.232775
-0.053048946
64.745611
-0.05781128
64.24502
-0.063132995
63.722727
-0.069074783
63.165238
-0.075696695
62.551919
-0.083052651
61.852641
-0.091181478
61.025085
-0.10009298
60.011943
-0.10974728
58.738655
-0.1200257
57.112787
-0.13069257
55.026948
-0.14134982
52.367817
-0.15139211
49.034024
-0.1599794
44.9642
-0.16605567
40.172213
-0.16845019
34.779435
-0.16608842
29.026908
-0.15829721
23.250731
-0.14511575
17.817869
-0.12746098
13.042637
-0.10701479
9.1191922
-0.085831289
6.0978431
-0.065826763
3.9076339
-0.048377349
2.4051988
-0.034162988
1.424711
-0.02324611
0.81308781
-0.015276912
0.44706687
-0.0097113194
0.23647136
-0.0059751062
0.11993394
-0.0035580024
0.058021207
-0.0020508943
0.026575997
-0.0011477155
0.011413676
-0.00063060935
0.0045410233
-0.00035040691
0.0016499063
-0.00020853815
0.00053859339
-0.00014248146
0.00015516755
-0.00011471357
3.8713449e-05
-0.00010438783
8.1960699e-06
-0.00010106384
1.4047931e-06
-0.0001001592
9.4654156e-08
-9.9958144e-05
-1.7889505e-07
-9.9925368e-05
-2.3296211e-07
-9.9921909e-05
-1.3633337e-07
-9.9917042e-05
1.5789988e-08
-9.9909504e-05
-9.9910438e-05
66.640164
-0.036482154
66.175977
-0.039381351
65.704017
-0.042614887
65.225101
-0.046224348
64.739051
-0.050256062
64.244088
-0.054761001
63.736003
-0.059794159
63.207055
-0.065413068
62.644518
-0.071674949
62.028836
-0.078631721
61.331363
-0.086321835
60.511731
-0.094757539
59.515122
-0.10390591
58.269962
-0.11366208
56.687115
-0.12381371
54.662327
-0.13399853
52.084388
-0.14366117
48.851716
-0.15202472
44.898892
-0.15810279
40.230768
-0.16078641
34.955032
-0.15903326
29.296965
-0.15215041
23.579533
-0.14009451
18.164022
-0.12364986
13.368651
-0.10435212
9.3990568
-0.084139326
6.3197563
-0.064869644
4.0719623
-0.047919943
2.5199261
-0.034010029
1.5008427
-0.023256612
0.86142107
-0.015360444
0.47656195
-0.0098159616
0.25381726
-0.006074472
0.12976565
-0.0036408889
0.063377229
-0.0021143381
0.029363607
-0.0011928648
0.012786794
-0.00066046282
0.005173008
-0.00036859472
0.0019174042
-0.00021861297
0.0006408121
-0.00014747226
0.00018972109
-0.00011688339
4.8824919e-05
-0.00010519925
1.0697644e-05
-0.00010131959
1.9102069e-06
-0.00010022592
1.6955132e-07
-9.9972337e-05
-1.7170874e-07
-9.9927414e-05
-2.2377193e-07
-9.9921216e-05
-1.2339377e-07
-9.9915846e-05
1.4332076e-08
-9.9909087e-05
-9.9910075e-05
66.199972
-0.034653799
65.729687
-0.037405391
65.251165
-0.040473585
64.765291
-0.043897674
64.272013
-0.047721453
63.769759
-0.051993144
63.254647
-0.056764848
62.71942
-0.062091217
62.152054
-0.068026858
61.533985
-0.074621789
60.837916
-0.081913965
60.025279
-0.089917593
59.043545
-0.098605676
57.823908
-0.10788524
56.280312
-0.11756437
54.31149
-0.1273122
51.808343
-0.1366177
48.669355
-0.14476046
44.825699
-0.15081733
40.274234
-0.15373702
35.110156
-0.15251015
29.543962
-0.14643126
23.885798
-0.13538751
18.490731
-0.1200459
13.679725
-0.10180836
9.6686409
-0.082502718
6.5353145
-0.063928153
4.232771
-0.04745705
2.6329355
-0.03384275
1.5762769
-0.023250903
0.90957099
-0.015429199
0.50609869
-0.0099085165
0.27128142
-0.0061646568
0.13972421
-0.0037172624
0.068841741
-0.0021735153
0.032233674
-0.0012355044
0.014217079
-0.0006890626
0.0058411338
-0.00038631987
0.00220549
-0.00022863571
0.00075341534
-0.00015255982
0.00022882032
-0.00011915888
6.0626745e-05
-0.00010607818
1.3721945e-05
-0.00010160688
2.5476453e-06
-0.00010030394
2.7220515e-07
-9.9989654e-05
-1.5883412e-07
-9.9930131e-05
-2.1363069e-07
-9.9920696e-05
-1.1179181e-07
-9.9914805e-05
1.27905e-08
-9.9908716e-05
-9.9909669e-05
65.782191
-0.032987195
65.306217
-0.035604353
64.82157
-0.038521994
64.329195