/*--------------------------------*- C++ -*----------------------------------*\
| =========                 |                                                 |
| \\      /  F ield         | OpenFOAM: The Open Source CFD Toolbox           |
|  \\    /   O peration     | Version:  4.0                                   |
|   \\  /    A nd           | Web:      www.OpenFOAM.org                      |
|    \\/     M anipulation  |                                                 |
\*---------------------------------------------------------------------------*/
FoamFile
{
    version     2.0;
    format      ascii;
    class       volScalarField;
    location    "746";
    object      T;
}
// * * * * * * * * * * * * * * * * * * * * * * * * * * * * * * * * * * * * * //

dimensions      [0 0 0 1 0 0 0];

internalField   nonuniform List<scalar> 
5000
(
407.18142
400.07941
392.51315
384.54265
376.2526
367.75281
359.17657
350.6763
342.41625
334.56244
327.27035
320.67192
314.86359
309.89775
305.77935
302.46881
299.89054
297.94534
296.52372
295.51762
294.82883
294.37359
294.08412
293.90791
293.8059
293.75021
293.72185
293.70855
293.7029
293.70078
293.70011
293.69994
293.69992
293.69992
293.69992
293.69992
293.69992
293.69992
293.69992
293.69992
293.69992
293.69992
293.69992
293.69992
293.69992
293.69992
293.69992
293.69992
293.69992
293.69992
434.58492
428.98661
422.95258
416.45525
409.47164
401.98812
394.00682
385.5536
376.68691
367.50604
358.15663
348.83036
339.75615
331.1811
323.34246
316.43527
310.58401
305.82677
302.11703
299.34174
297.3485
295.97322
295.0615
294.48125
294.12752
293.92173
293.80813
293.74905
293.7204
293.70759
293.7024
293.70053
293.69995
293.6998
293.69978
293.69978
293.69978
293.69978
293.69978
293.69978
293.69978
293.69978
293.69978
293.69978
293.69978
293.69978
293.69978
293.69978
293.69978
293.69978
441.84378
436.66971
431.10525
425.13054
418.72724
411.87998
404.57873
396.82251
388.62475
380.0206
371.07576
361.89548
352.63136
343.48189
334.68274
326.48431
319.11842
312.76152
307.50588
303.34884
300.20344
297.92505
296.34337
295.29015
294.6174
294.20567
293.96489
293.83094
293.76051
293.72579
293.70992
293.70328
293.70078
293.69994
293.6997
293.69964
293.69963
293.69963
293.69963
293.69963
293.69963
293.69963
293.69963
293.69963
293.69963
293.69963
293.69963
293.69963
293.69963
293.69963
445.48318
440.52316
435.19189
429.47171
423.34662
416.80339
409.83317
402.43372
394.61265
386.39178
377.81297
368.94516
359.89193
350.79755
341.84843
333.26557
325.28509
318.12737
311.96132
306.87514
302.86451
299.84223
297.66432
296.16191
295.16888
294.53992
294.15858
293.93782
293.81631
293.75312
293.72231
293.70839
293.70262
293.70047
293.69975
293.69955
293.6995
293.69949
293.69949
293.69949
293.69949
293.69949
293.69949
293.69949
293.69949
293.69949
293.69949
293.69949
293.69949
293.69949
448.04993
443.24174
438.07511
432.5331
426.60024
420.26351
413.51367
406.34714
398.76856
390.79428
382.45675
373.81006
364.93608
355.95048
347.00658
338.29411
330.02931
322.43401
315.70521
309.98233
305.32302
301.69704
299.00022
297.08191
295.77551
294.92309
294.39021
294.07148
293.88959
293.79103
293.74064
293.71655
293.70589
293.70159
293.70002
293.69952
293.69938
293.69935
293.69934
293.69934
293.69934
293.69934
293.69934
293.69934
293.69934
293.69934
293.69934
293.69934
293.69934
293.69934
450.03094
445.3405
440.30133
434.89692
429.11202
422.93349
416.35149
409.36108
401.96447
394.17395
386.01578
377.53493
368.80051
359.91138
351.00047
342.23583
333.81527
325.95205
318.85062
312.67628
307.5269
303.41713
300.28129
297.99339
296.39591
295.32747
294.64262
294.22215
293.97532
293.83727
293.7641
293.72762
293.71066
293.7034
293.70058
293.6996
293.69929
293.69921
293.6992
293.69919
293.69919
293.69919
293.69919
293.69919
293.69919
293.69919
293.69919
293.69919
293.69919
293.69919
451.64039
447.04599
442.11077
436.81853
431.1542
425.10457
418.65932
411.81246
404.56425
396.92388
388.91287
380.56936
371.95315
363.15102
354.28135
345.49627
336.9789
328.93308
321.56374
315.04985
309.51561
305.0095
301.499
298.88322
297.018
295.74402
294.90989
294.38635
294.0717
293.89107
293.79248
293.74162
293.71704
293.70601
293.70149
293.69981
293.69925
293.6991
293.69906
293.69905
293.69905
293.69905
293.69905
293.69905
293.69905
293.69905
293.69905
293.69905
293.69905
293.69905
452.98432
448.47039
443.62223
438.42392
432.86057
426.91893
420.58837
413.86209
406.73893
399.22568
391.34023
383.11544
374.60387
365.88288
357.05934
348.27265
339.69367
331.5172
323.94592
317.16629
311.32059
306.48312
302.64925
299.74167
297.63111
296.16355
295.18515
294.55949
294.17593
293.95093
293.82508
293.75832
293.72498
293.70946
293.70279
293.70019
293.69928
293.699
293.69892
293.6989
293.6989
293.6989
293.6989
293.6989
293.6989
293.6989
293.6989
293.6989
293.6989
293.6989
454.13367
449.68875
444.91525
439.79749
434.32073
428.47176
422.23971
415.61719
408.60194
401.19889
393.42306
385.30314
376.8859
368.24106
359.46611
350.68978
342.0723
333.79989
326.07164
319.07796
312.97391
307.85401
303.73721
300.56776
298.23162
296.58194
295.46481
294.73888
294.28625
294.0158
293.86137
293.7775
293.73445
293.71375
293.70452
293.70076
293.69937
293.69892
293.69879
293.69876
293.69876
293.69875
293.69875
293.69875
293.69875
293.69875
293.69875
293.69875
293.69875
293.69876
455.13407
450.74938
446.04101
440.99351
435.59232
429.82424
423.67824
417.14652
410.22591
402.9199
395.24121
387.21515
378.88374
370.31044
361.58488
352.8267
344.18672
335.84314
327.99065
320.82132
314.49934
309.13535
304.76835
301.36216
298.81778
296.99661
295.74639
294.92251
294.40121
294.08475
293.90083
293.79891
293.74536
293.71889
293.70671
293.70155
293.69956
293.69888
293.69868
293.69862
293.69861
293.69861
293.69861
293.69861
293.69861
293.69861
293.69861
293.69861
293.69861
293.69861
456.01763
451.68624
447.0355
442.0502
436.71588
431.01942
424.94968
418.4985
411.66204
404.44258
396.85097
388.90974
380.65698
372.15087
363.47437
354.73929
346.08809
337.69146
329.73931
322.42378
315.9156
310.33831
305.74808
302.12651
299.3891
297.40615
296.02827
295.10897
294.51974
294.15705
293.94302
293.82232
293.75761
293.72485
293.70935
293.70256
293.69985
293.69888
293.69857
293.69849
293.69847
293.69846
293.69846
293.69846
293.69846
293.69846
293.69846
293.69846
293.69846
293.69846
456.80721
452.52355
447.92441
442.99477
437.72033
432.08801
426.08661
419.70769
412.94684
405.80538
398.29259
390.42866
382.24837
373.80541
365.17702
356.46815
347.8138
339.37769
331.34477
323.90622
317.23731
311.47199
306.68119
302.86259
299.9456
297.80973
296.30938
295.29723
294.641
294.23211
293.98755
293.84751
293.77109
293.73161
293.71245
293.70382
293.70026
293.69892
293.69848
293.69835
293.69832
293.69832
293.69832
293.69832
293.69832
293.69831
293.69832
293.69832
293.69832
293.69832
457.51974
453.27923
448.72674
443.84742
438.6271
433.05277
427.11318
420.79969
414.10742
407.03685
399.59596
391.80295
383.68978
375.30626
366.72466
358.04387
349.39224
340.92696
332.82807
325.28504
318.47621
312.5439
307.57182
303.57217
300.48757
298.20688
296.58895
295.48652
294.76435
294.30944
294.03408
293.87429
293.78572
293.73911
293.71601
293.70533
293.70078
293.69902
293.69841
293.69823
293.69818
293.69817
293.69817
293.69817
293.69817
293.69817
293.69817
293.69817
293.69817
293.69817
458.16806
453.96686
449.45688
444.6234
439.4524
433.93093
428.04771
421.79391
415.1643
408.15864
400.78379
393.05625
385.00551
376.67804
368.14171
359.49008
350.84544
342.35899
334.20589
326.57343
319.64188
313.56036
308.42357
304.25688
301.0154
298.59732
296.86642
295.67624
294.88927
294.38863
294.08235
293.90246
293.80138
293.74732
293.72
293.70709
293.70143
293.69918
293.69837
293.69811
293.69804
293.69803
293.69802
293.69802
293.69802
293.69802
293.69802
293.69802
293.69802
293.69802
458.76209
454.59697
450.12599
445.33458
440.20882
434.73585
428.90437
422.70543
416.13343
409.18757
401.87373
394.20692
386.2145
377.93997
369.44734
360.82537
352.1909
343.68953
335.49168
327.78217
320.74233
314.52673
309.2396
304.91826
301.52957
298.98092
297.14141
295.86592
295.01531
294.46933
294.13209
293.93188
293.81799
293.75619
293.72442
293.70909
293.70222
293.6994
293.69835
293.69801
293.69791
293.69788
293.69788
293.69788
293.69788
293.69788
293.69788
293.69788
293.69788
293.69788
459.30967
455.17786
450.74287
445.99028
440.90629
435.47809
429.69439
423.54612
417.02741
410.13695
402.87975
395.26954
387.33178
379.10737
370.65685
362.06468
353.44271
344.93135
336.6965
328.92023
321.78427
315.4476
310.02271
305.55772
302.03056
299.35764
297.41362
296.05521
295.14214
294.55127
294.18308
293.96239
293.83544
293.76567
293.72925
293.71134
293.70314
293.69968
293.69836
293.69791
293.69777
293.69774
293.69773
293.69773
293.69773
293.69773
293.69773
293.69773
293.69773
293.69773
459.81711
455.7162
451.3146
446.59803
441.55278
436.16612
430.42677
424.32555
417.85637
411.01745
403.81308
396.25583
388.36949
380.19261
371.78263
363.22013
354.6124
346.09502
337.82951
329.99511
322.77344
316.32696
310.77536
306.17657
302.51888
299.72752
297.68284
296.2438
295.26947
294.63419
294.23515
293.99385
293.85366
293.7757
293.73445
293.71383
293.70419
293.70003
293.6984
293.69782
293.69764
293.6976
293.69759
293.69758
293.69758
293.69758
293.69758
293.69758
293.69758
293.69758
460.28952
456.21741
451.84693
447.16392
442.15478
436.80685
431.10883
425.0515
418.62855
411.83781
404.6829
397.17538
389.33754
381.20582
372.83488
364.30175
355.70953
347.1893
338.89842
331.0132
323.71475
317.16829
311.49978
306.77601
302.99504
300.09063
297.94894
296.43149
295.39707
294.71789
294.28813
294.02615
293.87257
293.78626
293.74001
293.71654
293.70538
293.70045
293.69847
293.69775
293.69752
293.69746
293.69744
293.69744
293.69744
293.69744
293.69744
293.69744
293.69744
293.69744
460.73113
456.68597
452.34461
447.69301
442.71765
437.40595
431.74663
425.73039
419.35076
412.60521
405.49678
398.03611
390.24414
382.15542
373.82207
365.31788
356.7421
348.22161
339.90977
331.97997
324.61246
317.97465
312.19793
307.35717
303.45955
300.4471
298.21183
296.61808
295.52474
294.80221
294.34188
294.05919
293.89209
293.79728
293.7459
293.71947
293.70669
293.70095
293.69858
293.69769
293.6974
293.69732
293.6973
293.69729
293.69729
293.69729
293.69729
293.69729
293.69729
293.69729
461.14545
457.12561
452.8116
448.18948
443.24586
437.96818
432.3452
426.36758
420.02868
413.32566
406.26104
398.84464
391.09616
383.04845
374.75131
366.27555
357.71688
349.19824
340.86917
332.90013
325.47032
318.74876
312.87161
307.92107
303.91289
300.79706
298.47145
296.80345
295.65234
294.88698
294.39628
294.09288
293.91217
293.80874
293.7521
293.72261
293.70814
293.70151
293.69872
293.69765
293.69729
293.69718
293.69715
293.69715
293.69714
293.69714
293.69715
293.69715
293.69715
293.69715
461.53546
457.53946
453.25122
448.65689
443.74315
438.49753
432.9088
426.96758
420.66709
414.00423
406.98102
399.60655
391.8994
383.89088
375.62863
367.18076
358.63966
350.12459
341.78144
333.7778
326.29157
319.49302
313.52243
308.46868
304.35554
301.14066
298.72778
296.98749
295.77972
294.97211
294.45124
294.12714
293.93275
293.82059
293.75859
293.72595
293.7097
293.70215
293.6989
293.69763
293.69718
293.69704
293.69701
293.697
293.697
293.697
293.697
293.697
293.697
293.697
461.90366
457.9302
453.66631
449.09822
444.21273
438.9974
433.44104
427.53423
421.27007
414.64521
407.66126
400.32659
392.65882
384.68779
376.45919
368.03862
359.51539
351.00531
342.65078
334.61655
327.07911
320.20959
314.15186
309.00088
304.78794
301.47809
298.98083
297.17012
295.9068
295.05748
294.50666
294.16191
293.95377
293.8328
293.76535
293.72947
293.71139
293.70285
293.69911
293.69762
293.69708
293.69691
293.69687
293.69685
293.69685
293.69685
293.69685
293.69685
293.69685
293.69685
462.25221
458.30011
454.05928
449.51607
444.65732
439.47069
433.945
428.0708
421.84109
415.2523
408.30563
401.00886
393.37866
385.44355
377.24744
368.85357
360.34839
351.84445
343.48087
335.41956
327.8355
320.90039
314.76121
309.51848
305.21053
301.8095
299.23062
297.3513
296.03348
295.143
294.56248
294.19712
293.97521
293.84535
293.77236
293.73316
293.71319
293.70362
293.69936
293.69763
293.69699
293.69678
293.69672
293.69671
293.69671
293.69671
293.69671
293.69671
293.69671
293.69671
462.58298
458.65116
454.43223
449.91263
445.07929
439.91991
434.42335
428.58014
422.38317
415.82868
408.91751
401.65687
394.06258
386.16195
377.99721
369.62944
361.1424
352.64557
344.27492
336.18961
328.56303
321.56717
315.35172
310.02226
305.62373
302.13508
299.47718
297.53098
296.1597
295.22862
294.61862
294.23272
293.99701
293.85819
293.7796
293.73702
293.7151
293.70446
293.69965
293.69766
293.69691
293.69666
293.69658
293.69656
293.69656
293.69656
293.69656
293.69656
293.69656
293.69656
462.89756
458.98505
454.78697
450.28984
445.48068
440.34724
434.87841
429.06469
422.89891
416.37711
409.49981
402.27369
394.71379
386.84629
378.71187
370.36959
361.9007
353.41179
345.03578
336.92919
329.26374
322.21148
315.92447
310.5129
306.02792
302.45501
299.72055
297.70913
296.2854
295.31427
294.67504
294.26867
294.01914
293.87133
293.78706
293.74104
293.71711
293.70536
293.69998
293.6977
293.69683
293.69653
293.69644
293.69642
293.69641
293.69641
293.69641
293.69641
293.69641
293.69641
463.19738
459.30327
455.12508
450.64939
445.86328
440.75458
435.31219
429.52662
423.3906
416.90001
410.05507
402.86199
395.33508
387.49945
379.39437
371.07698
362.62619
354.14585
345.76599
337.64051
329.93945
322.83475
316.48049
310.99108
306.42348
302.76944
299.96079
297.88574
296.41054
295.39989
294.73169
294.30493
294.04158
293.88472
293.79473
293.74521
293.71923
293.70633
293.70034
293.69777
293.69676
293.69641
293.6963
293.69627
293.69627
293.69627
293.69627
293.69627
293.69627
293.69627
463.48367
459.60715
455.44795
450.99274
446.22867
441.1436
435.72648
429.9678
423.86023
417.3995
410.58555
403.42414
395.9289
388.12399
380.0473
371.75422
363.32144
354.8502
346.46779
338.32557
330.59184
323.43828
317.02071
311.4574
306.81076
303.07856
300.19794
298.0608
296.53509
295.48545
294.78853
294.34147
294.0643
293.89835
293.80258
293.74952
293.72144
293.70736
293.70074
293.69785
293.69671
293.6963
293.69617
293.69613
293.69612
293.69612
293.69612
293.69612
293.69612
293.69612
463.75751
459.89783
455.75681
451.3212
446.57821
441.51577
436.12284
430.3899
424.30958
417.87746
411.09322
403.96222
396.49744
388.72214
380.67297
372.40363
363.98872
355.52703
347.14321
338.98615
331.22239
324.02324
317.54598
311.91241
307.19009
303.38252
300.43206
298.2343
296.65901
295.57091
294.84552
294.37825
294.08728
293.91221
293.81062
293.75395
293.72374
293.70845
293.70117
293.69796
293.69666
293.69618
293.69603
293.69599
293.69598
293.69598
293.69598
293.69598
293.69598
293.69598
464.01987
460.17634
456.05275
451.63593
446.91316
441.87239
436.50265
430.79441
424.74022
418.33555
411.57984
404.47807
397.04263
389.29592
381.27342
373.02726
364.63007
356.1783
347.79405
339.62385
331.83247
324.5907
318.05709
312.35666
307.56178
303.68149
300.66322
298.40626
296.78229
295.65623
294.90263
294.41526
294.11049
293.92627
293.81882
293.75852
293.72613
293.70959
293.70164
293.69808
293.69662
293.69607
293.69589
293.69584
293.69583
293.69583
293.69583
293.69583
293.69583
293.69583
464.27162
460.44359
456.33674
451.93796
447.23459
442.21464
436.86717
431.18263
425.15355
418.77525
412.04698
404.97334
397.56619
389.84711
381.85048
373.62697
365.24731
356.80575
348.42197
340.24015
332.42332
325.14165
318.55476
312.79063
307.92614
303.97562
300.89147
298.57668
296.90489
295.74139
294.95983
294.45246
294.13391
293.94053
293.82717
293.7632
293.72861
293.71079
293.70214
293.69822
293.69659
293.69597
293.69576
293.6957
293.69569
293.69568
293.69568
293.69568
293.69568
293.69568
464.51353
460.7004
456.60964
452.2282
447.54348
442.54356
437.21748
431.55575
425.55081
419.19789
412.49604
405.44951
398.06966
390.37732
382.40581
374.20441
365.84209
357.41098
349.02843
340.83636
332.99605
325.67699
319.03968
313.21478
308.28344
304.26506
301.11687
298.74556
297.02682
295.82636
295.01711
294.48984
294.15754
293.95497
293.83568
293.768
293.73116
293.71205
293.70268
293.69838
293.69657
293.69587
293.69563
293.69556
293.69554
293.69554
293.69554
293.69554
293.69554
293.69554
464.74629
460.94751
456.87223
452.50749
447.84073
442.86007
437.5546
431.91481
425.93313
419.60467
412.92828
405.90791
398.55443
390.88797
382.94087
374.76108
366.41589
357.99542
349.61477
341.41369
333.55172
326.19756
319.51247
313.62954
308.63395
304.54996
301.33949
298.91292
297.14805
295.91113
295.07443
294.52737
294.18134
293.96958
293.84433
293.7729
293.73379
293.71336
293.70325
293.69856
293.69656
293.69577
293.6955
293.69542
293.6954
293.69539
293.69539
293.69539
293.69539
293.69539
464.97051
461.18556
457.12521
452.77656
448.12711
443.16501
437.87941
432.26078
426.30151
419.99664
413.34483
406.34973
399.02176
391.38038
383.45701
375.29833
366.97006
358.56037
350.18223
341.97325
334.09125
326.70413
319.97369
314.03531
308.97792
304.83044
301.55939
299.07878
297.26858
295.99567
295.13178
294.56504
294.20532
293.98435
293.85311
293.77791
293.7365
293.71471
293.70385
293.69876
293.69656
293.69568
293.69537
293.69528
293.69525
293.69525
293.69524
293.69524
293.69524
293.69524
465.18677
461.41516
457.36922
453.03609
448.40334
443.45916
438.19272
432.59451
426.65689
420.37479
413.74672
406.77605
399.47277
391.85572
383.95543
375.81739
367.50581
359.10701
350.73191
342.51605
334.61554
327.1974
320.4239
314.43247
309.31559
305.10664
301.77662
299.24315
297.38839
296.07998
295.18913
294.60284
294.22945
293.99927
293.86201
293.78301
293.73928
293.71612
293.70448
293.69898
293.69657
293.6956
293.69525
293.69514
293.69511
293.6951
293.6951
293.6951
293.6951
293.6951
465.39556
461.63685
457.60482
453.28669
448.67007
443.7432
438.49528
432.91679
427.00007
420.73999
414.13488
407.18785
399.9085
392.31507
384.43723
376.31939
368.02427
359.63644
351.26485
343.04302
335.12537
327.67803
320.8636
314.82137
309.64718
305.37868
301.99124
299.40604
297.5075
296.16403
295.24649
294.64074
294.25372
294.01433
293.87104
293.78821
293.74212
293.71757
293.70514
293.69921
293.69658
293.69552
293.69512
293.695
293.69496
293.69495
293.69495
293.69495
293.69495
293.69495
465.59736
461.85112
457.83255
453.52892
448.92789
444.01775
438.78773
433.22832
427.33183
421.09304
414.51015
407.58603
400.32988
392.75939
384.90343
376.80532
368.52643
360.14964
351.78197
343.555
335.6215
328.14664
321.29325
315.20235
309.97291
305.6467
302.20331
299.56749
297.62589
296.24781
295.30382
294.67874
294.27813
294.02952
293.88018
293.7935
293.74504
293.71907
293.70583
293.69947
293.69661
293.69544
293.695
293.69486
293.69482
293.69481
293.69481
293.69481
293.69481
293.69481
465.79259
462.05841
458.05287
453.76327
449.17733
444.2834
439.0707
433.52976
427.65284
421.43468
414.87332
407.97141
400.73777
393.18957
385.35493
377.27614
369.01325
360.64752
352.28414
344.05279
336.1046
328.60378
321.71329
315.57571
310.29298
305.9108
302.41289
299.72749
297.74356
296.33132
295.36112
294.71681
294.30266
294.04483
293.88942
293.79887
293.74801
293.72061
293.70655
293.69974
293.69665
293.69537
293.69488
293.69472
293.69467
293.69466
293.69466
293.69466
293.69466
293.69466
465.98164
462.25915
458.26622
453.99021
449.4189
444.54065
439.34474
433.82168
427.96374
421.76557
415.22509
408.34472
401.13296
393.60644
385.79258
377.7327
369.48557
361.13092
352.77215
344.53712
336.57533
329.04999
322.12413
315.94174
310.60758
306.17109
302.62003
299.88608
297.86051
296.41454
295.41838
294.75496
294.3273
294.06026
293.89877
293.80432
293.75105
293.7222
293.7073
293.70003
293.6967
293.6953
293.69477
293.69458
293.69453
293.69452
293.69451
293.69451
293.69451
293.69451
466.16485
462.45369
458.473
454.21017
449.65303
444.79
439.61036
434.10465
428.26511
422.08632
415.5661
408.70665
401.51614
394.01073
386.21714
378.17577
369.94419
361.60061
353.24674
345.00865
337.03426
329.48576
322.52615
316.30074
310.91689
306.42769
302.82479
300.04327
297.97674
296.49747
295.47558
294.79318
294.35205
294.07579
293.90821
293.80985
293.75414
293.72383
293.70808
293.70033
293.69676
293.69524
293.69465
293.69445
293.69439
293.69437
293.69437
293.69437
293.69437
293.69437
466.34256
462.6424
458.67357
454.42354
449.88015
445.03187
439.86803
434.37915
428.55746
422.3975
415.89696
409.05784
401.888
394.40314
386.62934
378.6061
370.38981
362.0573
353.70858
345.46802
337.48195
329.91155
322.91973
316.65295
311.22109
306.68069
303.02721
300.19908
298.09226
296.5801
295.53272
294.83144
294.37689
294.09144
293.91774
293.81545
293.75729
293.72549
293.70888
293.70065
293.69683
293.69519
293.69454
293.69431
293.69424
293.69423
293.69422
293.69422
293.69422
293.69422
466.51506
462.82558
458.86828
454.63066
450.10063
445.26669
440.11817
434.64564
428.8413
422.69962
416.2182
409.39885
402.24913
394.78431
387.02982
379.02433
370.82313
362.50164
354.15831
345.9158
337.91891
330.32778
323.30518
316.99863
311.52034
306.93019
303.22734
300.35353
298.20706
296.66242
295.58978
294.86974
294.40182
294.10717
293.92736
293.82112
293.76049
293.7272
293.70971
293.70099
293.69691
293.69514
293.69443
293.69418
293.6941
293.69408
293.69408
293.69407
293.69407
293.69407
466.68263
463.00353
459.05743
454.83188
450.31483
445.49481
440.3612
434.90455
429.11707
422.99317
416.53034
409.73023
402.6001
395.15481
387.41919
379.4311
371.24476
362.93426
354.59652
346.35254
338.34563
330.73488
323.68284
317.338
311.8148
307.1763
303.42524
300.50665
298.32115
296.74443
295.64676
294.90808
294.42684
294.123
293.93706
293.82686
293.76374
293.72894
293.71056
293.70135
293.697
293.69509
293.69432
293.69405
293.69396
293.69394
293.69393
293.69393
293.69393
293.69393
466.84553
463.17652
459.24132
455.0275
450.52307
445.71659
440.59747
435.15627
429.38518
423.27858
416.83385
410.05247
402.94143
395.51519
387.79802
379.82698
371.65527
363.35572
355.02373
346.77874
338.76255
331.1332
324.053
317.6713
312.10462
307.41909
303.62096
300.65844
298.43453
296.82613
295.70365
294.94645
294.45193
294.13892
293.94684
293.83267
293.76705
293.73072
293.71144
293.70172
293.6971
293.69505
293.69422
293.69392
293.69382
293.69379
293.69378
293.69378
293.69378
293.69378
467.00399
463.34481
459.4202
455.2178
450.72566
445.93235
440.82733
435.40117
429.64604
423.55627
417.12916
410.36602
403.2736
395.86595
388.16682
380.21249
372.05521
363.76654
355.44047
347.19486
339.17009
331.52311
324.41595
317.99873
312.38994
307.65866
303.81453
300.80893
298.5472
296.9075
295.76045
294.98484
294.47708
294.15491
293.9567
293.83854
293.7704
293.73253
293.71235
293.70211
293.6972
293.69502
293.69412
293.69379
293.69368
293.69365
293.69364
293.69364
293.69364
293.69364
467.15823
463.50861
459.59432
455.40305
450.92286
446.14239
441.05109
435.63957
429.89998
423.82661
417.41667
410.67132
403.59705
396.20757
388.52607
380.58814
372.44506
364.16722
355.8472
347.60137
339.56864
331.90495
324.77195
318.32049
312.67089
307.89509
304.00601
300.95815
298.65918
296.98855
295.81715
295.02324
294.50231
294.17098
293.96663
293.84447
293.7738
293.73438
293.71328
293.70251
293.69732
293.69499
293.69402
293.69366
293.69354
293.6935
293.69349
293.69349
293.69349
293.69349
467.30846
463.66816
459.76392
455.58349
451.11494
446.34697
441.26905
435.87179
430.14734
424.08996
417.69676
410.96875
403.91221
396.54047
388.87623
380.95439
372.8253
364.55822
356.24438
347.99865
339.95858
332.27902
325.12126
318.63677
312.94762
308.12847
304.19544
301.1061
298.77046
297.06927
295.87373
295.06165
294.52759
294.18713
293.97663
293.85045
293.77725
293.73626
293.71423
293.70293
293.69745
293.69496
293.69393
293.69353
293.6934
293.69336
293.69335
293.69334
293.69334
293.69334
467.45486
463.82364
459.92922
455.75934
451.30215
446.54636
441.48148
436.09813
430.38845
424.34665
417.96978
411.2587
404.21946
396.86506
389.21772
381.31166
373.19636
364.93997
356.6324
348.38711
340.34025
332.64562
325.46412
318.94775
313.22024
308.35886
304.38286
301.25281
298.88104
297.14966
295.93021
295.10006
294.55292
294.20334
293.98669
293.85649
293.78073
293.73818
293.7152
293.70336
293.69758
293.69495
293.69383
293.69341
293.69326
293.69321
293.6932
293.6932
293.6932
293.6932
467.59761
463.97526
460.09039
455.93082
451.48471
446.7408
441.68864
436.31885
430.62357
424.59698
418.23604
411.54149
404.51916
397.18172
389.55092
381.66036
373.55865
365.31287
357.01167
348.7671
340.71399
333.00505
325.80076
319.2536
313.48888
308.58635
304.56832
301.39829
298.99095
297.22973
295.98657
295.13847
294.5783
294.21962
293.99682
293.86259
293.78426
293.74012
293.7162
293.70381
293.69773
293.69493
293.69374
293.69328
293.69312
293.69307
293.69306
293.69305
293.69305
293.69305
467.73688
464.12318
460.24765
456.09812
451.66282
446.93052
441.89076
436.53421
430.85299
424.84125
418.49587
411.81746
404.81165
397.4908
389.87622
382.00086
373.91254
365.6773
357.38254
349.13898
341.08008
333.35755
326.13138
319.55448
313.75363
308.81101
304.75185
301.54257
299.10017
297.30946
296.04281
295.17687
294.60373
294.23596
294.00701
293.86874
293.78784
293.7421
293.71722
293.70427
293.69788
293.69493
293.69366
293.69316
293.69298
293.69293
293.69291
293.69291
293.6929
293.6929
467.87283
464.26757
460.40115
456.26144
451.83669
447.11571
442.08808
436.74445
431.07696
425.07971
418.74953
412.0869
405.09725
397.79264
390.19394
382.33352
374.2584
366.03361
357.74537
349.50305
341.43884
333.70339
326.4562
319.85056
314.01463
309.0329
304.93349
301.68567
299.20871
297.38886
296.09892
295.21525
294.62919
294.25236
294.01725
293.87494
293.79145
293.7441
293.71825
293.70475
293.69805
293.69492
293.69357
293.69304
293.69284
293.69278
293.69276
293.69276
293.69276
293.69276
468.00559
464.40859
460.55106
456.42094
452.0065
447.29658
442.28079
436.94979
431.2957
425.31262
418.9973
412.3501
405.37625
398.08754
390.50441
382.65867
374.59655
366.38213
358.10046
349.85963
341.79054
334.04279
326.7754
320.14197
314.27196
309.2521
305.11328
301.82759
299.31659
297.46793
296.1549
295.25363
294.6547
294.26881
294.02755
293.88118
293.7951
293.74614
293.71932
293.70524
293.69822
293.69493
293.69349
293.69292
293.69271
293.69264
293.69262
293.69261
293.69261
293.69261
468.13531
464.54636
460.69754
456.57679
452.17243
447.47332
442.46909
437.15043
431.50946
425.54023
419.23943
412.60732
405.64894
398.3758
390.80794
382.97661
374.92732
366.72319
358.44813
350.209
342.13542
334.37599
327.08918
320.42886
314.52573
309.46866
305.29126
301.96837
299.42381
297.54667
296.21076
295.29198
294.68023
294.28531
294.03791
293.88747
293.79879
293.7482
293.7204
293.70575
293.69841
293.69494
293.69341
293.6928
293.69257
293.6925
293.69247
293.69247
293.69247
293.69247
468.2621
464.68105
460.84073
456.72914
452.33463
447.64609
442.65317
437.34658
431.71842
425.76274
419.47615
412.8588
405.91557
398.65768
391.10481
383.28765
375.25099
367.05706
358.78867
350.55142
342.47375
334.7032
327.39771
320.71137
314.77604
309.68265
305.46746
302.10801
299.53037
297.62507
296.26648
295.33031
294.7058
294.30187
294.04831
293.89381
293.80251
293.7503
293.7215
293.70627
293.6986
293.69495
293.69334
293.69268
293.69244
293.69235
293.69233
293.69232
293.69232
293.69232
468.3861
464.81276
460.98076
456.87813
452.49326
447.81505
442.8332
437.53841
431.9228
425.98036
419.70768
413.10479
406.17639
398.93346
391.39528
383.59205
375.56786
367.38403
359.12233
350.88717
342.80575
335.02462
327.70115
320.98962
315.02298
309.89414
305.64192
302.24653
299.63628
297.70314
296.32206
295.36861
294.73139
294.31847
294.05877
293.9002
293.80628
293.75242
293.72262
293.7068
293.6988
293.69498
293.69327
293.69257
293.6923
293.69221
293.69218
293.69218
293.69217
293.69217
468.50741
464.94162
461.11776
457.0239
452.64846
447.98037
443.00935
437.72611
432.12277
426.1933
419.93423
413.3455
406.43163
399.20336
391.67962
383.89008
375.87817
367.70437
359.44939
351.21648
343.13165
335.34044
327.99967
321.26374
315.26664
310.10317
305.81467
302.38396
299.74155
297.78087
296.37751
295.40689
294.75701
294.33512
294.06927
293.90662
293.81007
293.75457
293.72377
293.70735
293.69901
293.695
293.6932
293.69245
293.69217
293.69207
293.69204
293.69203
293.69203
293.69203
468.62614
465.06774
461.25185
457.16658
452.80037
448.14219
443.18176
437.90983
432.3185
426.40174
420.156
413.58113
406.68151
399.46762
391.95805
384.18198
376.18219
368.01832
359.77008
351.53957
343.45165
335.65085
328.29341
321.53384
315.50709
310.30981
305.98575
302.5203
299.84617
297.85828
296.43281
295.44513
294.78265
294.35181
294.07982
293.91309
293.81391
293.75674
293.72493
293.70792
293.69923
293.69504
293.69314
293.69234
293.69204
293.69193
293.69189
293.69188
293.69188
293.69188
468.74239
465.19122
461.38315
457.30629
452.94911
448.30063
443.35059
438.08973
432.51017
426.60585
420.37317
413.81189
406.92624
399.72646
392.2308
384.46798
376.48014
368.32612
360.08463
351.85667
343.76595
335.95603
328.58253
321.80004
315.74443
310.51411
306.15519
302.65558
299.95017
297.93535
296.48798
295.48334
294.80831
294.36854
294.09042
293.9196
293.81777
293.75894
293.72611
293.70849
293.69946
293.69508
293.69308
293.69223
293.6919
293.69179
293.69175
293.69174
293.69174
293.69174
468.85625
465.31218
461.51176
457.44313
453.09481
448.45583
443.51596
438.26595
432.69792
426.80579
420.58592
414.03797
407.16601
399.98008
392.49809
384.7483
376.77225
368.62799
360.39326
352.16799
344.07475
336.25613
328.86716
322.06245
315.97874
310.71612
306.32302
302.78981
300.05355
298.01209
296.543
295.52151
294.83399
294.38531
294.10106
293.92615
293.82167
293.76117
293.72731
293.70909
293.6997
293.69512
293.69302
293.69213
293.69177
293.69165
293.69161
293.69159
293.69159
293.69159
468.96782
465.4307
461.63777
457.57722
453.23758
448.60792
443.67801
438.43864
432.88191
427.00173
420.79441
414.25952
407.401
400.22866
392.76011
385.02315
377.05873
368.92413
360.69618
352.47371
344.37823
336.55132
329.14743
322.32117
316.21008
310.91589
306.48926
302.92301
300.1563
298.08851
296.59788
295.55965
294.85968
294.40212
294.11174
293.93274
293.8256
293.76343
293.72854
293.70969
293.69995
293.69517
293.69297
293.69202
293.69164
293.69151