/*--------------------------------*- C++ -*----------------------------------*\
| =========                 |                                                 |
| \\      /  F ield         | OpenFOAM: The Open Source CFD Toolbox           |
|  \\    /   O peration     | Version:  4.0                                   |
|   \\  /    A nd           | Web:      www.OpenFOAM.org                      |
|    \\/     M anipulation  |                                                 |
\*---------------------------------------------------------------------------*/
FoamFile
{
    version     2.0;
    format      ascii;
    class       volVectorField;
    location    "746";
    object      U;
}
// * * * * * * * * * * * * * * * * * * * * * * * * * * * * * * * * * * * * * //

dimensions      [0 1 -1 0 0 0 0];

internalField   nonuniform List<vector> 
5000
(
(1.5009572e-05 9.0208607e-21 0.0091349804)
(6.7413824e-05 2.6888653e-20 0.026458267)
(0.00019266783 4.632474e-20 0.043481987)
(0.00036038626 6.5277435e-20 0.059912456)
(0.00057124207 7.4634231e-20 0.075431396)
(0.00081214599 6.6463374e-20 0.089707785)
(0.0010668366 6.3043486e-20 0.10241406)
(0.0013174498 9.0488027e-20 0.11324625)
(0.0015452527 6.1402741e-20 0.12194698)
(0.0017326468 5.5799473e-20 0.12832969)
(0.0018650676 8.6262796e-20 0.1323013)
(0.0019326591 2.3363614e-20 0.13387999)
(0.0019314853 5.4518896e-20 0.13320424)
(0.0018640077 7.699415e-20 0.13053003)
(0.0017386806 1.0248859e-19 0.12621438)
(0.001568659 1.0943479e-19 0.12068617)
(0.0013698056 1.2430022e-19 0.11440787)
(0.0011583779 1.510815e-19 0.10783402)
(0.00094889692 1.1804297e-19 0.10137279)
(0.00075264473 -5.2631708e-20 0.095356037)
(0.00057701532 -3.5283285e-20 0.09002094)
(0.00042565706 9.8147509e-21 0.085504119)
(0.00029913779 1.038052e-20 0.081847236)
(0.00019581262 1.0896106e-20 0.079011912)
(0.00011265255 1.1076736e-20 0.076901059)
(4.5901282e-05 8.6991439e-21 0.075383266)
(-8.712018e-06 -1.7111651e-20 0.074316597)
(-5.4459309e-05 -1.196267e-19 0.073568185)
(-9.4097879e-05 -3.5267646e-20 0.073027646)
(-0.00013056197 -2.8280078e-20 0.072612746)
(-0.00016543798 -9.7279064e-20 0.072268604)
(-0.00019943268 -7.7420817e-20 0.0719625)
(-0.00023252937 -2.2039595e-20 0.071677047)
(-0.00026421306 -6.8490856e-21 0.071403903)
(-0.00029372911 -1.5056536e-21 0.071139172)
(-0.0003203261 9.3503735e-21 0.070880653)
(-0.0003434552 3.3976472e-20 0.070626472)
(-0.0003628949 4.0389443e-21 0.070374496)
(-0.00037896308 -5.997569e-21 0.070122153)
(-0.00039228362 -3.4289778e-20 0.069866188)
(-0.00040437919 -3.1003966e-22 0.069602507)
(-0.00041721812 -3.005922e-21 0.06932646)
(-0.00043204515 -5.3802488e-21 0.0690297)
(-0.00045696554 -9.6345077e-21 0.068707306)
(-0.00048538165 7.2918865e-22 0.068340293)
(-0.00054321213 1.4737468e-22 0.067914234)
(-0.00062670629 4.5107214e-21 0.067428223)
(-0.00071226998 9.4332818e-22 0.066722863)
(-0.0011157914 3.6519369e-21 0.066645428)
(-0.00073227912 -2.1806542e-21 0.060643805)
(-1.0514174e-05 3.4465115e-21 0.011182705)
(-6.0361094e-05 1.1226947e-20 0.032685823)
(-0.00015808838 2.2908741e-20 0.054174064)
(-0.00031125999 3.9840184e-20 0.075326499)
(-0.0005224287 4.9609045e-20 0.095763476)
(-0.00079334386 8.7245295e-20 0.11504912)
(-0.0011245873 1.0718718e-19 0.13270021)
(-0.0015153715 9.6078711e-20 0.14820385)
(-0.0019634415 1.6147333e-19 0.16104624)
(-0.0024648773 1.9741075e-19 0.17075382)
(-0.0030136785 2.2705871e-19 0.17694593)
(-0.0036010758 1.7391908e-19 0.17939491)
(-0.0042146437 4.5555222e-20 0.17808446)
(-0.0048374781 -1.057765e-20 0.17325286)
(-0.0054478779 -7.6803111e-20 0.16540424)
(-0.0060200108 -1.0193306e-19 0.15527467)
(-0.0065258804 -2.675339e-19 0.14375008)
(-0.0069385157 -3.2060946e-19 0.13174992)
(-0.0072357789 1.3277272e-19 0.1201054)
(-0.00740377 6.2334082e-19 0.10946419)
(-0.007438782 8.5678871e-20 0.10024262)
(-0.007347245 -3.4747063e-19 0.092627357)
(-0.0071438377 -1.8678824e-19 0.08661356)
(-0.0068485464 -1.370376e-19 0.082060411)
(-0.0064835996 -1.5035672e-19 0.078747964)
(-0.0060709142 -1.9749e-19 0.076425384)
(-0.0056304696 -2.9308346e-19 0.074846751)
(-0.0051793425 -2.5961716e-19 0.073794354)
(-0.0047312897 4.7091564e-20 0.073091005)
(-0.0042968878 -3.4372304e-20 0.072603684)
(-0.0038837037 0 0.072240541)
(-0.0034967908 4.2482081e-20 0.071943705)
(-0.0031392546 -6.5664023e-20 0.071680231)
(-0.0028128556 -9.5247011e-21 0.071433295)
(-0.0025185317 8.8976557e-21 0.071195128)
(-0.0022567505 1.0289455e-20 0.07096223)
(-0.0020277792 -5.6520903e-21 0.07073267)
(-0.0018315904 -8.5503285e-21 0.070504772)
(-0.0016680761 9.3707262e-20 0.070276571)
(-0.0015374718 1.7225218e-19 0.070045908)
(-0.0014377735 0 0.069809043)
(-0.0013737063 -1.273134e-20 0.069563672)
(-0.0013380908 5.5006955e-21 0.069303402)
(-0.0013397077 2.6979265e-20 0.069018884)
(-0.00139806 6.8794257e-21 0.068724771)
(-0.0014291774 1.1591919e-21 0.068330203)
(-0.0017299661 -1.6725765e-20 0.068026938)
(-0.0016608403 -3.5028169e-21 0.067563225)
(-0.002514081 -2.2172998e-20 0.068637749)
(-0.0017861177 6.1910892e-23 0.056792955)
(-4.0977738e-06 -2.7417196e-20 0.013151602)
(-2.9889918e-05 -8.3645887e-20 0.038610182)
(-7.9923844e-05 -1.442561e-19 0.064257681)
(-0.00016222903 -1.8537674e-19 0.089755968)
(-0.00028176698 -2.3235632e-19 0.11469735)
(-0.00044384692 -2.6685964e-19 0.13860207)
(-0.00065381478 -3.2058567e-19 0.16092036)
(-0.00091671654 -4.0076693e-19 0.18104181)
(-0.0012369493 -4.5224317e-19 0.19831514)
(-0.0016178364 -4.5492849e-19 0.21208225)
(-0.0020610864 -4.1222182e-19 0.22172961)
(-0.002566086 -3.8930678e-19 0.22675804)
(-0.0031289535 -2.4504776e-19 0.22686722)
(-0.0037413234 -9.3023241e-20 0.22204379)
(-0.0043889752 4.30224e-20 0.21263257)
(-0.0050507064 1.6656948e-19 0.1993636)
(-0.0056981549 3.0801018e-19 0.18330938)
(-0.0062973574 2.8003039e-19 0.16576265)
(-0.0068124202 6.7665856e-19 0.14805415)
(-0.0072107873 1.0943315e-18 0.13135819)
(-0.0074686723 6.4333958e-19 0.11654282)
(-0.0075749155 -1.3422086e-19 0.10410291)
(-0.0075321098 -2.203592e-19 0.09417903)
(-0.007354951 -2.6934434e-19 0.086635972)
(-0.0070667113 -3.051449e-19 0.081164061)
(-0.0066950814 -3.2743705e-19 0.077373679)
(-0.0062683968 -3.2399656e-19 0.074867216)
(-0.0058128337 -1.1818441e-19 0.073285089)
(-0.005350652 9.2580846e-20 0.072329368)
(-0.0048993524 -8.4470736e-20 0.071770984)
(-0.0044715695 1.0880726e-20 0.071446121)
(-0.0040754532 4.120303e-19 0.071246315)
(-0.0037153775 -2.4801572e-20 0.071105665)
(-0.0033928319 4.6697167e-21 0.070987846)
(-0.0031073784 4.7932236e-20 0.070874897)
(-0.0028574311 6.0412297e-20 0.070758856)
(-0.0026410491 1.5109395e-19 0.070636438)
(-0.0024565983 -2.0040479e-20 0.07050621)
(-0.002301832 -2.99877e-20 0.07036694)
(-0.0021784411 3.4949812e-19 0.070218059)
(-0.0020828783 2.3770336e-19 0.070057732)
(-0.0020186973 -3.0978044e-20 0.069883103)
(-0.0020008581 -5.1879707e-20 0.06970086)
(-0.0019747037 -1.0951941e-19 0.069477281)
(-0.0021149595 1.1371516e-20 0.06928931)
(-0.002056922 -2.1472941e-20 0.068954301)
(-0.002509713 4.7877905e-21 0.068821212)
(-0.002430077 6.7166377e-21 0.068968651)
(-0.0031853829 1.0131761e-19 0.070209069)
(-0.0021468013 -7.9677814e-21 0.052035435)
(-2.8665264e-06 -8.6525469e-20 0.014725898)
(-2.1836491e-05 -2.6283599e-19 0.043361912)
(-5.8602073e-05 -4.4033281e-19 0.072370521)
(-0.00011956029 -6.4184104e-19 0.10140736)
(-0.00020893559 -8.4245237e-19 0.1300521)
(-0.00033151282 -1.0012211e-18 0.1578033)
(-0.0004924944 -1.0331947e-18 0.18407686)
(-0.00069732824 -9.6532224e-19 0.20821029)
(-0.00095149707 -9.1624222e-19 0.22947609)
(-0.0012601999 -8.8722136e-19 0.24710802)
(-0.0016278847 -8.0039873e-19 0.26034477)
(-0.0020575995 -8.583011e-19 0.26849473)
(-0.0025501342 -1.0603273e-18 0.27102301)
(-0.0031029319 -1.1343655e-18 0.26765582)
(-0.003708795 -9.2978032e-19 0.25848746)
(-0.0043545115 -8.5172309e-19 0.24406266)
(-0.0050197478 -7.2985588e-19 0.22539821)
(-0.0056768342 -5.9148291e-19 0.20391122)
(-0.0062922194 -3.9747144e-19 0.18124563)
(-0.0068300572 1.8959553e-19 0.15902903)
(-0.0072575025 1.0625815e-22 0.13862848)
(-0.0075502572 -1.2011535e-19 0.12097963)
(-0.0076965125 -2.1671203e-19 0.10653146)
(-0.0076980484 -3.0078953e-19 0.095300115)
(-0.0075684715 -4.6731268e-19 0.086989387)
(-0.0073295847 -6.1797017e-19 0.081127959)
(-0.0070072076 -7.6248457e-19 0.077187176)
(-0.0066275009 -5.5388856e-19 0.074663514)
(-0.006214339 -1.1276972e-19 0.073125411)
(-0.0057878088 -1.3148762e-19 0.072231967)
(-0.005363669 -9.5188091e-20 0.071732721)
(-0.0049534981 2.0770761e-19 0.071456459)
(-0.0045652753 5.7791709e-20 0.07129489)
(-0.0042041486 3.1760248e-20 0.071185276)
(-0.0038733315 1.274836e-19 0.071094758)
(-0.0035748045 1.9562154e-19 0.07100799)
(-0.0033095965 3.2686549e-19 0.07091857)
(-0.0030795174 -2.1241799e-19 0.070824216)
(-0.0028837348 -1.0254775e-19 0.070723691)
(-0.0027244454 2.6067584e-20 0.070616203)
(-0.0026070236 4.2348557e-19 0.070503142)
(-0.0025075011 2.6437565e-20 0.070374909)
(-0.0025050596 7.5366176e-20 0.070255657)
(-0.0024230888 -1.4965116e-19 0.070086743)
(-0.0026118835 1.6994276e-20 0.06997282)
(-0.0025129387 1.2063781e-19 0.069739574)
(-0.0029385067 9.4949502e-20 0.069755427)
(-0.0029604014 1.8619474e-20 0.070617823)
(-0.0033882134 1.3010426e-19 0.070959431)
(-0.0019971703 6.0710406e-21 0.047151443)
(-2.1104077e-06 -4.2132276e-20 0.015923833)
(-1.6679059e-05 -1.3047151e-19 0.046993349)
(-4.4806708e-05 -2.2385971e-19 0.078595909)
(-9.1594981e-05 -3.4564865e-19 0.11038862)
(-0.00016046866 -4.8205551e-19 0.14194921)
(-0.00025538933 -6.5005371e-19 0.17276918)
(-0.0003807954 -7.7122228e-19 0.20224973)
(-0.00054153708 -7.2107176e-19 0.22970263)
(-0.00074279932 -5.7878981e-19 0.25435874)
(-0.00098995357 -5.9001704e-19 0.27538821)
(-0.0012882893 -5.7295668e-19 0.29193669)
(-0.0016425715 -6.2188945e-19 0.30318248)
(-0.0020563645 -9.2621293e-19 0.3084181)
(-0.0025310688 -1.2600136e-18 0.3071559)
(-0.0030646522 -1.3236743e-18 0.29924898)
(-0.0036501399 -1.213722e-18 0.28500655)
(-0.0042740851 -1.0872944e-18 0.26526834)
(-0.0049154797 -6.9233856e-19 0.24139539)
(-0.0055458086 -3.640801e-19 0.21514526)
(-0.0061309821 -5.8513764e-20 0.18843591)
(-0.0066354251 -2.2462523e-19 0.16305256)
(-0.0070276325 -6.7887037e-19 0.14038575)
(-0.0072855702 -5.4961157e-19 0.12127995)
(-0.0074001305 -5.4939078e-19 0.10602251)
(-0.0073756598 -6.5438121e-19 0.094445809)
(-0.0072277961 -7.5567445e-19 0.086084834)
(-0.0069796995 -8.1670265e-19 0.080334197)
(-0.0066579262 -8.2597497e-19 0.076571101)
(-0.006288867 -6.393495e-19 0.074233831)
(-0.0058961936 -4.1411368e-19 0.072860638)
(-0.005499382 -1.7885283e-19 0.072099808)
(-0.0051131654 -7.0475612e-20 0.071701802)
(-0.0047477249 -2.388956e-20 0.071502014)
(-0.0044093022 1.0797368e-19 0.071400187)
(-0.0041011235 1.8463636e-19 0.071340507)
(-0.0038246593 2.2486683e-19 0.071294937)
(-0.0035794637 1.6326428e-19 0.071250777)
(-0.0033662017 -3.7962375e-19 0.07120301)
(-0.0031850895 3.2002357e-20 0.071149993)
(-0.0030295532 -2.0603386e-20 0.071089365)
(-0.0029266483 3.4947113e-19 0.071026644)
(-0.0028090557 8.529033e-20 0.070947034)
(-0.0028249964 2.3101115e-19 0.07088146)
(-0.0027169939 2.5449616e-20 0.070776434)
(-0.0028909032 4.9926756e-20 0.07070117)
(-0.0028150833 1.687418e-19 0.070595435)
(-0.0031466138 1.1211638e-19 0.070811997)
(-0.003227532 3.0699805e-20 0.072169603)
(-0.0033982161 1.0165365e-20 0.070885145)
(-0.0017455244 1.4745982e-22 0.04248161)
(-1.9449402e-06 -3.7750987e-21 0.016949463)
(-1.4926608e-05 -1.1660674e-20 0.050100111)
(-4.0085587e-05 -3.13427e-20 0.083918501)
(-8.1859614e-05 -5.219735e-20 0.11806301)
(-0.00014322625 -7.8444943e-20 0.15211031)
(-0.00022761175 -1.4846778e-19 0.18554748)
(-0.00033883846 -2.9313832e-19 0.21776639)
(-0.00048107693 -4.215552e-19 0.24806231)
(-0.00065880341 -4.9761459e-19 0.27563931)
(-0.00087671763 -5.5292682e-19 0.29962606)
(-0.0011395876 -6.2731025e-19 0.31910643)
(-0.0014519784 -7.1261217e-19 0.33317004)
(-0.0018178075 -8.2690252e-19 0.34098725)
(-0.0022396574 -9.9840952e-19 0.34191068)
(-0.0027177877 -1.1130357e-18 0.33559914)
(-0.0032488312 -1.029114e-18 0.32214869)
(-0.003824282 -8.7681427e-19 0.30220079)
(-0.0044290764 -6.7803567e-19 0.27698395)
(-0.0050408279 -2.2823019e-20 0.2482445)
(-0.0056304527 2.1998073e-19 0.21804684)
(-0.0061647805 2.3541987e-20 0.1884731)
(-0.0066110861 -4.1205091e-19 0.16130397)
(-0.0069424932 -5.792619e-19 0.13778045)
(-0.0071425389 -6.6231422e-19 0.11851226)
(-0.0072074159 -8.1353257e-19 0.10353427)
(-0.0071454167 -8.6643863e-19 0.092459642)
(-0.0069741865 -9.0280796e-19 0.084662026)
(-0.006716944 -7.9682323e-19 0.079435152)
(-0.0063987583 -7.3459591e-19 0.076105481)
(-0.0060435717 -5.5142277e-19 0.074096187)
(-0.0056722251 -1.6706211e-19 0.072952393)
(-0.005301437 -2.9966483e-20 0.072340464)
(-0.004943621 -1.0894949e-19 0.072032502)
(-0.0046072558 1.3819965e-19 0.071884206)
(-0.0042974243 1.7861877e-19 0.071811631)
(-0.0040173664 1.9580188e-19 0.071770518)
(-0.0037680313 9.8409916e-20 0.071739937)
(-0.0035492595 -1.082695e-19 0.071711004)
(-0.0033670656 1.4025969e-19 0.071681456)
(-0.0032023141 2.6202242e-19 0.071647453)
(-0.0031037011 3.2768362e-19 0.071615558)
(-0.0029741419 1.51101e-19 0.071573172)
(-0.0029847412 2.6259819e-19 0.071539747)
(-0.0028810501 1.5171425e-19 0.071491091)
(-0.0030093345 7.7101832e-20 0.071438515)
(-0.0029641612 5.8041656e-20 0.071453939)
(-0.0032299096 1.9002375e-20 0.071931347)
(-0.0032925455 2.196562e-20 0.073457289)
(-0.0032530318 -4.8503859e-20 0.070136338)
(-0.0014725861 -2.7925135e-22 0.038337547)
(-1.7127298e-06 2.6426529e-20 0.017839969)
(-1.3152722e-05 7.9422153e-20 0.052799639)
(-3.5341818e-05 1.289925e-19 0.088546739)
(-7.222478e-05 1.9220344e-19 0.12474156)
(-0.00012647594 2.6696789e-19 0.16096089)
(-0.00020118436 2.850813e-19 0.19668927)
(-0.00029981182 1.9403837e-19 0.23131221)
(-0.00042615618 -3.4527743e-21 0.26411309)
(-0.00058432137 -1.7569753e-19 0.29427617)
(-0.00077865742 -1.2873686e-19 0.32089914)
(-0.0010136452 -2.7117254e-19 0.34301944)
(-0.0012936943 -2.9943148e-19 0.35965954)
(-0.0016228099 -3.5934428e-19 0.36989617)
(-0.0020040682 -4.5669624e-19 0.37295713)
(-0.0024388356 -8.0074681e-19 0.36834407)
(-0.0029256886 -5.3303559e-19 0.35597079)
(-0.003459062 -7.6023608e-20 0.33629191)
(-0.0040278083 -9.9692376e-20 0.31038145)
(-0.0046140834 3.6075424e-19 0.27991229)
(-0.0051932022 5.7164901e-19 0.24700103)
(-0.0057351473 4.6225395e-19 0.21392487)
(-0.0062080244 -1.1625659e-19 0.18277565)
(-0.0065829315 -3.7423256e-19 0.15515563)
(-0.0068388643 -4.9185139e-19 0.13200724)
(-0.0069660523 -5.0258249e-19 0.11360971)
(-0.0069667717 -3.9506944e-19 0.09970824)
(-0.0068537272 -1.7247624e-19 0.089705623)
(-0.0066468836 1.131823e-20 0.082850056)
(-0.0063698396 -4.5403466e-19 0.078380088)
(-0.0060465778 -6.8877905e-19 0.075615537)
(-0.0056990359 -2.9084481e-19 0.074001126)
(-0.0053455835 8.9414592e-20 0.073116218)
(-0.0050003604 -3.770475e-20 0.072663776)
(-0.0046734032 2.4394694e-19 0.072448737)
(-0.0043708056 4.091768e-19 0.072352826)
(-0.0040962293 1.5644487e-19 0.072310603)
(-0.0038516796 1.1870324e-19 0.072289563)
(-0.0036341778 2.2448774e-19 0.072274987)
(-0.0034550349 1.0508e-19 0.072262572)
(-0.0032864801 4.4925599e-19 0.072248333)
(-0.0031850037 2.4040802e-19 0.07223612)
(-0.0030534642 1.1476392e-19 0.072221796)
(-0.0030424515 1.0143652e-19 0.072207044)
(-0.0029473292 2.4928968e-20 0.072195617)
(-0.0030325369 6.6412457e-20 0.072168654)
(-0.0029936739 -1.2983482e-19 0.072296513)
(-0.0032178935 5.1831969e-20 0.07303652)
(-0.0032189138 2.7692298e-20 0.07442168)
(-0.0030013006 1.5741336e-19 0.068917795)
(-0.0012077249 -1.7276189e-21 0.034753256)
(-1.5733038e-06 1.4753883e-20 0.018639948)
(-1.1991819e-05 4.4347834e-20 0.055224589)
(-3.2227569e-05 7.7133347e-20 0.092704082)
(-6.5863061e-05 1.3186232e-19 0.13074059)
(-0.00011533811 1.8800423e-19 0.16891128)
(-0.00018347249 2.5117796e-19 0.20669899)
(-0.00027343034 3.0615335e-19 0.24348442)
(-0.00038869078 2.5415025e-19 0.27854177)
(-0.00053302756 2.0929618e-19 0.3110398)
(-0.00071046517 3.1036171e-19 0.34005178)
(-0.00092519055 4.6859994e-19 0.36457835)
(-0.0011813958 7.1349965e-19 0.38358844)
(-0.001483014 1.0021258e-18 0.39608364)
(-0.001833299 8.1343933e-19 0.40119026)
(-0.0022341883 2.715576e-19 0.39827984)
(-0.0026853993 -1.2018655e-19 0.3871104)
(-0.00318325 -1.6637623e-19 0.3679682)
(-0.0037193076 -5.3127101e-19 0.34177284)
(-0.0042791642 -8.5223637e-19 0.31009645)
(-0.0048418641 -6.1519892e-19 0.27505179)
(-0.0053806481 -2.0526996e-19 0.23903731)
(-0.005865487 2.314418e-20 0.20438537)
(-0.0062672405 -1.6184461e-19 0.17301267)
(-0.0065624347 -2.4325697e-19 0.14618125)
(-0.0067371483 -2.8935595e-19 0.12443131)
(-0.0067887957 -2.534735e-19 0.10767394)
(-0.0067254944 -2.1680149e-19 0.095378681)
(-0.0065635924 1.1246291e-20 0.086780698)
(-0.0063243552 1.762116e-19 0.081054155)
(-0.0060307144 -1.4991774e-19 0.077429958)
(-0.005704649 2.0674459e-20 0.075259404)
(-0.0053653846 2.176828e-19 0.074036427)
(-0.0050283733 1.3150702e-19 0.073392969)
(-0.0047051837 2.5175368e-19 0.073079502)
(-0.0044034251 4.5266215e-19 0.072939224)
(-0.0041275224 4.2919678e-19 0.072881703)
(-0.0038813294 5.7658657e-19 0.072859905)
(-0.0036603689 4.7177263e-19 0.072851609)
(-0.0034781581 1.8062387e-19 0.072848688)
(-0.0033064838 4.9185838e-19 0.072847568)
(-0.0031954601 2.6996778e-19 0.072847755)
(-0.0030647361 2.3210359e-19 0.072852276)
(-0.0030317223 -4.3021814e-19 0.072850991)
(-0.0029375369 -2.1003866e-19 0.072859737)
(-0.0029938449 2.8691567e-20 0.072866755)
(-0.0029463698 -1.6894699e-19 0.073108187)
(-0.0031375889 7.95359e-20 0.07405603)
(-0.0030661377 3.8880185e-20 0.07504457)
(-0.0027058632 1.4956948e-19 0.067403902)
(-0.00097895256 2.0296725e-20 0.031693054)
(-1.443787e-06 -4.3534237e-20 0.019366666)
(-1.0984615e-05 -1.269654e-19 0.057428043)
(-2.952918e-05 -2.0506713e-19 0.096482645)
(-6.0367168e-05 -2.8156184e-19 0.13619461)
(-0.00010575102 -3.7108508e-19 0.17614185)
(-0.00016828868 -4.1132801e-19 0.21580614)
(-0.00025091351 -3.4807556e-19 0.2545646)
(-0.00035686097 -3.9682262e-19 0.2916841)
(-0.00048965477 -4.6223199e-19 0.32632083)
(-0.00065307404 -5.6321942e-19 0.35752804)
(-0.0008510832 -4.8665575e-19 0.384276)
(-0.0010877036 -5.4837361e-19 0.40548924)
(-0.0013667965 -6.5335227e-19 0.42010658)
(-0.0016917114 -3.7480555e-19 0.42716893)
(-0.0020647492 7.0594385e-20 0.42593685)
(-0.0024863839 -4.9508009e-19 0.41603281)
(-0.002954221 -1.0707633e-18 0.39759144)
(-0.0034617523 -1.2249488e-18 0.37138445)
(-0.0039971178 -1.8504916e-18 0.33887191)
(-0.0045423059 -2.0356702e-18 0.30212949)
(-0.0050733925 -1.5995656e-18 0.26362569)
(-0.0055623635 -7.2642797e-19 0.2258769)
(-0.0059806005 -4.1096756e-19 0.19106911)
(-0.006303344 -2.9770331e-19 0.16076193)
(-0.0065138059 -2.4053937e-19 0.13575932)
(-0.0066056252 -4.4515815e-19 0.11615875)
(-0.0065830541 -5.5485741e-19 0.10152456)
(-0.0064591559 -1.452343e-19 0.09110599)
(-0.006252872 4.7095352e-19 0.084034346)
(-0.0059858645 3.7304992e-19 0.07946625)
(-0.0056797848 4.9421562e-19 0.076667896)
(-0.0053542748 2.8602619e-19 0.075051144)
(-0.0050256671 2.0587514e-19 0.074176747)
(-0.0047065946 2.0250032e-19 0.073738334)
(-0.0044059 1.6817217e-19 0.073537151)
(-0.0041285781 4.655798e-19 0.073454277)
(-0.0038796013 7.4052471e-19 0.073425096)
(-0.0036546926 2.9137381e-19 0.073417985)
(-0.003466163 1.1804448e-19 0.073419549)
(-0.0032905488 3.2730323e-19 0.073425801)
(-0.0031673596 3.0840364e-20 0.073433272)
(-0.0030332018 1.8097592e-19 0.073447259)
(-0.0029820005 -3.7633214e-19 0.073454951)
(-0.0028802119 -2.2060521e-19 0.073473258)
(-0.0029162384 7.4182245e-21 0.073519792)
(-0.0028551727 -5.2465574e-21 0.073876145)
(-0.0030118046 1.9333522e-20 0.074947883)
(-0.0028703264 2.7588692e-20 0.075352001)
(-0.0023990892 -1.206975e-19 0.065740635)
(-0.00078655554 7.7083208e-21 0.029130837)
(-1.3430741e-06 -3.3565486e-20 0.020035761)
(-1.0189206e-05 -1.0092099e-19 0.05945697)
(-2.7395773e-05 -1.7032958e-19 0.099962264)
(-5.6014238e-05 -2.3848191e-19 0.14121775)
(-9.814162e-05 -3.1547847e-19 0.18280225)
(-0.00015620848 -3.9006502e-19 0.22419694)
(-0.00023295266 -4.5996445e-19 0.26477613)
(-0.00033140038 -5.1355301e-19 0.30380076)
(-0.00045485754 -5.4951844e-19 0.34041662)
(-0.00060688543 -5.7685768e-19 0.37366019)
(-0.00079124471 -5.7252783e-19 0.40247618)
(-0.0010117898 -6.5073476e-19 0.42575146)
(-0.0012722867 -7.8496346e-19 0.44237137)
(-0.0015761155 -9.6765377e-19 0.45130342)
(-0.0019258073 -1.0226997e-18 0.45171176)
(-0.0023223657 -1.028834e-18 0.44309923)
(-0.0027643371 -1.2272663e-18 0.42546322)
(-0.0032466624 -1.4758836e-18 0.39943567)
(-0.0037594653 -1.6780156e-18 0.36636067)
(-0.0042871268 -1.9127832e-18 0.32825652)
(-0.0048081814 -1.7970516e-18 0.28762558)
(-0.005296593 -1.2106102e-18 0.24712399)
(-0.0057246504 -8.6812705e-19 0.20916695)
(-0.0060670477 -5.7711672e-19 0.17558697)
(-0.0063050288 -2.7187816e-19 0.14744673)
(-0.0064292851 -2.2606598e-20 0.12504141)
(-0.0064407929 -2.9195668e-19 0.10805043)
(-0.0063496206 -4.9919998e-19 0.095758916)
(-0.0061723958 5.4491367e-20 0.087274077)
(-0.0059293137 4.8807905e-19 0.081692007)
(-0.005641385 3.6929193e-19 0.07820256)
(-0.0053283163 2.6531567e-19 0.076140089)
(-0.0050070396 2.0534605e-19 0.074995534)
(-0.0046910419 1.9316216e-19 0.074404822)
(-0.0043902638 2.0866844e-19 0.074125037)
(-0.0041105517 4.0390246e-19 0.074006067)
(-0.0038574148 5.7969655e-19 0.073963069)
(-0.003627968 3.8734178e-19 0.073952928)
(-0.0034321665 2.9979658e-19 0.073955877)
(-0.0032514187 2.7641841e-19 0.0739657)
(-0.0031173677 -9.6628772e-20 0.073977609)
(-0.0029762288 2.4904173e-20 0.073995179)
(-0.0029108047 -2.4837906e-19 0.074008144)
(-0.0027979753 -1.9540872e-19 0.074033034)
(-0.002816984 5.0191318e-21 0.074123056)
(-0.0027425892 5.2199814e-20 0.074588628)
(-0.0028594373 -1.3118633e-20 0.075691404)
(-0.0026576984 1.2591173e-20 0.075388354)
(-0.0021046398 -1.0936557e-19 0.064026101)
(-0.00062806526 6.474885e-21 0.026999854)
(-1.2565365e-06 -6.7894377e-20 0.020657088)
(-9.5151559e-06 -2.0396266e-19 0.061341268)
(-2.5588026e-05 -3.4868647e-19 0.10319422)
(-5.2327065e-05 -5.0434581e-19 0.14588402)
(-9.1698816e-05 -6.4076677e-19 0.18899054)
(-0.00014598488 -7.8260904e-19 0.23199465)
(-0.00021775902 -9.2418566e-19 0.27426848)
(-0.00030987154 -9.6272055e-19 0.31506807)
(-0.00042544412 -9.9873168e-19 0.3535304)
(-0.00056785175 -9.1419828e-19 0.38867768)
(-0.00074067726 -5.0248262e-19 0.41943264)
(-0.00094762319 -6.6728029e-20 0.44464971)
(-0.001192357 4.4955634e-19 0.46316778)
(-0.0014782546 -2.1651879e-20 0.47389033)
(-0.0018079964 -8.9943809e-19 0.47589658)
(-0.0021829684 -1.161876e-18 0.46858255)
(-0.0026024265 -1.1963252e-18 0.4518207)
(-0.0030624351 -4.6262309e-19 0.42611145)
(-0.0035546974 -2.2107871e-19 0.39268269)
(-0.0040655625 2.5087357e-19 0.35348251)
(-0.0045756814 -9.2333076e-19 0.31102107)
(-0.0050608635 -1.0239465e-18 0.26805929)
(-0.0054944676 -9.4635534e-19 0.22720705)
(-0.0058510904 -9.7250656e-19 0.19054529)
(-0.0061106306 -1.131228e-18 0.15938641)
(-0.0062614718 -6.041086e-19 0.1342288)
(-0.0063018358 6.6763365e-20 0.11488155)
(-0.0062391257 -6.6048603e-20 0.10068336)
(-0.006087786 -3.2459469e-19 0.090733476)
(-0.005866507 2.8495308e-19 0.08408003)
(-0.0055954986 4.1875501e-19 0.079845044)
(-0.0052942881 3.3308311e-19 0.077290325)
(-0.0049801391 3.6292213e-19 0.075839136)
(-0.0046671678 4.7734008e-19 0.075069756)
(-0.004366133 6.1627672e-19 0.07469374)
(-0.0040838179 3.9169648e-19 0.074527688)
(-0.003826006 5.3362252e-19 0.074464323)
(-0.0035913122 9.1622811e-19 0.074446979)
(-0.0033881063 5.6181146e-19 0.074448519)
(-0.0032006486 2.5585387e-19 0.074458905)
(-0.0030569835 9.4168122e-20 0.074472617)
(-0.0029070005 -1.1691893e-19 0.07449027)
(-0.002829331 -4.2725936e-19 0.074505404)
(-0.0027059876 -2.0063495e-19 0.074538284)
(-0.0027086291 2.4057729e-21 0.074674479)
(-0.002624046 4.7825827e-20 0.075234914)
(-0.0026973899 -8.7203864e-21 0.076280488)
(-0.0024474419 7.6286564e-21 0.075201672)
(-0.0018381892 -8.6654081e-20 0.062322637)
(-0.00050071138 2.7083705e-21 0.025230676)
(-1.1832503e-06 -2.9530953e-20 0.021238394)
(-8.94481e-06 -9.1328997e-20 0.063104344)
(-2.4057903e-05 -1.5904174e-19 0.10621852)
(-4.9204919e-05 -2.3193143e-19 0.15025092)
(-8.6240702e-05 -2.9849415e-19 0.19478256)
(-0.00013731889 -3.6740975e-19 0.23929424)
(-0.00020487165 -4.3273451e-19 0.28315637)
(-0.00029159686 -4.6838832e-19 0.32562087)
(-0.00040045556 -4.8970312e-19 0.36581718)
(-0.00053465862 -5.0482066e-19 0.40275516)
(-0.00069762977 -4.7805244e-19 0.43533841)
(-0.00089293093 -3.6983319e-19 0.46239295)
(-0.0011241289 -2.9663159e-19 0.48271691)
(-0.0013945721 -3.4226666e-19 0.49515713)
(-0.0017070353 -5.1374769e-19 0.4987172)
(-0.0020631852 -5.7314986e-19 0.49269699)
(-0.0024628237 -5.807018e-19 0.4768546)
(-0.0029029075 -5.4292227e-19 0.45156687)
(-0.003376426 -3.1502055e-19 0.41794722)
(-0.0038713758 -2.2093212e-19 0.37786553)
(-0.0043702464 -3.9646208e-19 0.33382042)
(-0.0048505474 -7.0517194e-19 0.28864968)
(-0.0052867695 -7.4763008e-19 0.2451282)
(-0.0056536973 -6.5144491e-19 0.20556219)
(-0.0059303303 -4.9816074e-19 0.17150275)
(-0.0061032341 -5.5339332e-19 0.14365301)
(-0.0061683018 -4.4089291e-19 0.12196226)
(-0.0061305676 1.5287327e-19 0.10583705)
(-0.0060024401 3.3313891e-19 0.094382631)
(-0.0058011176 1.3653822e-19 0.086610488)
(-0.0055459225 3.6612026e-19 0.081582874)
(-0.0052560502 3.8068273e-19 0.078494104)
(-0.0049489067 3.8057072e-19 0.076702357)
(-0.0046390888 4.4572125e-19 0.07572897)
(-0.0043379896 5.9059088e-19 0.075239306)
(-0.0040532624 5.3002485e-19 0.075015138)
(-0.0037910456 5.394934e-19 0.074924934)
(-0.0035509918 9.0516617e-19 0.074896591)
(-0.0033410033 5.46781e-19 0.074894395)
(-0.0031463824 2.4549517e-19 0.074903382)
(-0.0029940823 1.5299219e-19 0.074916752)
(-0.0028353778 -1.147649e-19 0.07493275)
(-0.002746127 -4.3475146e-19 0.074948277)
(-0.0026146816 -1.9878658e-19 0.074992458)
(-0.0026005443 6.1930784e-21 0.075175996)
(-0.0025088307 4.0411581e-20 0.075809777)
(-0.0025376458 -1.2357152e-20 0.076722012)
(-0.0022499391 -1.9511905e-21 0.074840071)
(-0.0016054087 -6.2685438e-20 0.060670425)
(-0.00039980664 8.8550076e-22 0.023764748)
(-1.1197479e-06 3.6986498e-21 0.021785516)
(-8.4525549e-06 1.0417418e-20 0.064763862)
(-2.2737066e-05 1.6772603e-20 0.10906538)
(-4.6509252e-05 2.6292105e-20 0.154362)
(-8.1527056e-05 7.2131864e-21 0.20023586)
(-0.00012983321 -1.1586547e-20 0.24616794)
(-0.00019373695 -3.2905994e-20 0.29152725)
(-0.00027580319 -1.7112095e-19 0.3355622)
(-0.00037885216 -3.0186521e-19 0.37739572)
(-0.00050594979 -3.9202619e-19 0.41602681)
(-0.00066037721 -7.0435173e-19 0.45034223)
(-0.00084556705 -9.9955316e-19 0.47914287)
(-0.0010649877 -1.3468474e-18 0.50119063)
(-0.0013219465 -1.2328676e-18 0.51528178)
(-0.0016192747 -2.7262935e-19 0.52035194)
(-0.0019588469 -2.5953907e-19 0.51561379)
(-0.0023408932 -1.6227448e-19 0.50072021)
(-0.0027630902 -5.6718147e-19 0.47593201)
(-0.0032194896 -4.0199185e-19 0.44225095)
(-0.0036994824 -6.7216733e-19 0.40146376)
(-0.0041871644 -1.017706e-19 0.35604309)
(-0.0046616023 -3.9414626e-19 0.30888108)
(-0.0050984276 -4.5061082e-19 0.26289206)
(-0.0054727988 -2.9437967e-19 0.22058605)
(-0.005763141 2.187635e-20 0.18374082)
(-0.0059545861 -1.0946855e-19 0.15326322)
(-0.006041054 -4.6930701e-19 0.12925012)
(-0.0060254737 3.2481522e-20 0.11118757)
(-0.0059183705 5.3360284e-19 0.098198898)
(-0.0057354956 3.5490592e-19 0.089269121)
(-0.005495241 4.4546855e-19 0.083408252)
(-0.0052163694 3.9887926e-19 0.079748048)
(-0.0049162797 4.0259984e-19 0.077584407)
(-0.0046099054 3.8800597e-19 0.076382838)
(-0.0043091498 2.1953233e-19 0.075762363)
(-0.0040223779 5.1414788e-19 0.075468886)
(-0.003756249 6.0723848e-19 0.075345146)
(-0.0035110443 6.6149713e-19 0.07530203)
(-0.0032948905 3.4815847e-19 0.075293897)
(-0.003093449 1.3116621e-19 0.0753001)
(-0.0029331085 -1.5274612e-19 0.075311578)
(-0.0027669887 -1.3746989e-19 0.075325338)
(-0.0026664535 -1.1095242e-19 0.07534114)
(-0.0025297787 -1.8129887e-19 0.075400445)
(-0.002498819 3.6086821e-21 0.075630866)
(-0.0024019177 3.3067464e-20 0.076311938)
(-0.0023878738 -9.5786852e-21 0.077028843)
(-0.0020708317 -1.8073227e-21 0.074345178)
(-0.0014071797 -5.7602691e-20 0.059090007)
(-0.00032091383 -2.7167697e-21 0.022544701)
(-1.0642347e-06 -2.476819e-20 0.022303066)
(-8.0231941e-06 -7.3939125e-20 0.066333774)
(-2.1584755e-05 -1.2647217e-19 0.1117587)
(-4.4157086e-05 -1.873532e-19 0.15825162)
(-7.7413276e-05 -2.4120479e-19 0.20539591)
(-0.00012329876 -3.1568667e-19 0.25267277)
(-0.00018401454 -3.8974088e-19 0.29945015)
(-0.00026200808 -4.5638431e-19 0.34497346)
(-0.00035997482 -5.3853988e-19 0.38835986)
(-0.00048085139 -6.619402e-19 0.42859879)
(-0.00062779029 -7.9383762e-19 0.46456199)
(-0.00080410538 -8.5226039e-19 0.49502791)
(-0.00101317 -9.1935459e-19 0.51872593)
(-0.0012582426 -9.1675809e-19 0.53440681)
(-0.0015421848 -7.4793972e-19 0.54094462)
(-0.0018670265 -5.1610914e-19 0.53747239)
(-0.002233338 -4.8569146e-19 0.5235459)
(-0.0026393836 -6.0935888e-19 0.49931681)
(-0.0030801034 -7.1815827e-19 0.46567867)
(-0.0035460813 -9.0312006e-19 0.42433229)
(-0.0040228248 -3.7694454e-19 0.37771348)
(-0.0044908227 -1.1722877e-19 0.32875033)
(-0.0049268274 -1.179718e-19 0.28047462)
(-0.0053064914 -5.3850757e-21 0.23558039)
(-0.0056079082 1.5129574e-19 0.19605976)
(-0.0058150813 1.8399181e-19 0.16302042)
(-0.0059202535 -8.6436227e-20 0.13671193)
(-0.005924484 -1.0734132e-19 0.11670932)
(-0.0058365617 2.4363992e-19 0.10216445)
(-0.0056708529 3.8399194e-19 0.092045074)
(-0.0054448084 4.3335885e-19 0.085315934)
(-0.0051766929 3.7794596e-19 0.081050987)
(-0.0048837944 3.5999576e-19 0.078486701)
(-0.0045812598 3.3494818e-19 0.077034125)
(-0.0042814125 3.0034099e-19 0.076266153)
(-0.0039931708 4.7587714e-19 0.075892183)
(-0.0037237868 6.7145606e-19 0.075728059)
(-0.0034739956 6.3577466e-19 0.075666335)
(-0.0032522778 3.7550018e-19 0.07565012)
(-0.0030448463 8.651316e-20 0.075652411)
(-0.0028768919 -2.8112835e-19 0.075660988)
(-0.002704998 -2.2298534e-19 0.075672559)
(-0.0025936132 -6.6174233e-21 0.07568981)
(-0.0024540764 -1.3966434e-19 0.075767603)