/*--------------------------------*- C++ -*----------------------------------*\
| =========                 |                                                 |
| \\      /  F ield         | OpenFOAM: The Open Source CFD Toolbox           |
|  \\    /   O peration     | Version:  3.0.1                                 |
|   \\  /    A nd           | Web:      www.OpenFOAM.org                      |
|    \\/     M anipulation  |                                                 |
\*---------------------------------------------------------------------------*/
FoamFile
{
    version     2.0;
    format      ascii;
    class       surfaceScalarField;
    location    "2736";
    object      phi;
}
// * * * * * * * * * * * * * * * * * * * * * * * * * * * * * * * * * * * * * //

dimensions      [1 0 -1 0 0 0 0];

internalField   nonuniform List<scalar> 
7860
(
-2.6803133e-11
4.7807598e-09
-1.8615087e-10
1.4281247e-08
-5.3965129e-10
2.499964e-08
-1.0866231e-09
3.6762263e-08
-1.7769843e-09
4.950081e-08
-2.5363277e-09
6.3261149e-08
-3.2897894e-09
7.8193158e-08
-3.9783145e-09
9.4529771e-08
-4.5659801e-09
1.1256372e-07
-5.0398531e-09
1.3262786e-07
-5.405357e-09
1.5508189e-07
-5.6799477e-09
1.8030563e-07
-5.8870066e-09
2.0869781e-07
-6.0510057e-09
2.4067886e-07
-6.1943346e-09
2.7669601e-07
-6.3358002e-09
3.1722945e-07
-6.4900376e-09
3.6279842e-07
-6.6678311e-09
4.1396632e-07
-6.8766752e-09
4.7134405e-07
-7.1213769e-09
5.3559043e-07
-7.4045589e-09
6.0740844e-07
-7.7268992e-09
6.8753503e-07
-8.0872707e-09
7.7672145e-07
-8.4825726e-09
8.7569932e-07
-8.9075292e-09
9.8512617e-07
-9.3545522e-09
1.105501e-06
-9.81298e-09
1.2370377e-06
-1.0269118e-08
1.379479e-06
-1.0705366e-08
1.5318302e-06
-1.1100015e-08
1.6919821e-06
-1.1426656e-08
1.85619e-06
-1.1653759e-08
2.0183622e-06
-1.174333e-08
2.1691079e-06
-1.1651139e-08
2.2944737e-06
-1.1319401e-08
2.3743032e-06
-1.0676593e-08
2.3800729e-06
-9.5947591e-09
2.2721063e-06
-7.8567749e-09
1.9956332e-06
-4.8460016e-09
1.475337e-06
6.0604811e-07
-3.5284989e-10
5.1336097e-09
-1.3620009e-09
1.5290397e-08
-2.992316e-09
2.6629958e-08
-5.1215733e-09
3.8891517e-08
-7.5636851e-09
5.1942923e-08
-1.0104224e-08
6.5801687e-08
-1.2538141e-08
8.0627077e-08
-1.4700095e-08
9.6691718e-08
-1.6481477e-08
1.143451e-07
-1.7833626e-08
1.3398001e-07
-1.8760003e-08
1.5600826e-07
-1.930221e-08
1.8084785e-07
-1.9524405e-08
2.0892e-07
-1.9499119e-08
2.4065357e-07
-1.9296735e-08
2.7649364e-07
-1.8979044e-08
3.1691172e-07
-1.8596034e-08
3.6241545e-07
-1.8186197e-08
4.1355644e-07
-1.7777277e-08
4.7093516e-07
-1.7388911e-08
5.3520206e-07
-1.7034159e-08
6.0705371e-07
-1.6721315e-08
6.8722218e-07
-1.6454658e-08
7.7645476e-07
-1.6234844e-08
8.7547957e-07
-1.6059282e-08
9.8495056e-07
-1.5921157e-08
1.1053629e-06
-1.5809466e-08
1.236926e-06
-1.5708221e-08
1.3793778e-06
-1.5595934e-08
1.5317179e-06
-1.5445031e-08
1.6918313e-06
-1.5221884e-08
1.8559668e-06
-1.4886305e-08
2.0180267e-06
-1.4391862e-08
2.1686135e-06
-1.3686502e-08
2.2937682e-06
-1.2708495e-08
2.3733252e-06
-1.1386466e-08
2.3787509e-06
-9.6040753e-09
2.2703239e-06
-7.1671682e-09
1.9931964e-06
-3.6771626e-09
1.471847e-06
6.0237083e-07
-3.6800547e-10
5.5016141e-09
-1.4828788e-09
1.6405272e-08
-3.3909753e-09
2.8538056e-08
-6.036025e-09
4.1536561e-08
-9.2593445e-09
5.5166247e-08
-1.2824299e-08
6.9366644e-08
-1.6457812e-08
8.4260584e-08
-1.9896525e-08
1.0013043e-07
-2.2925425e-08
1.1737401e-07
-2.5401164e-08
1.3645574e-07
-2.7258292e-08
1.5786539e-07
-2.8501266e-08
1.8209083e-07
-2.9187405e-08
2.0960614e-07
-2.940636e-08
2.4087252e-07
-2.9260774e-08
2.7634806e-07
-2.8851058e-08
3.1650202e-07
-2.8265608e-08
3.6182998e-07
-2.7575866e-08
4.1286674e-07
-2.6836074e-08
4.7019532e-07
-2.608456e-08
5.3445056e-07
-2.5347244e-08
6.0631639e-07
-2.464029e-08
6.865152e-07
-2.3972453e-08
7.7578694e-07
-2.3346792e-08
8.7485393e-07
-2.2761329e-08
9.8436509e-07
-2.2209137e-08
1.1048107e-06
-2.1678036e-08
1.2363949e-06
-2.1150359e-08
1.3788502e-06
-2.060233e-08
1.5311698e-06
-2.000322e-08
1.6912322e-06
-1.9315642e-08
1.8552793e-06
-1.8495286e-08
2.0172064e-06
-1.7491248e-08
2.1676094e-06
-1.62464e-08
2.2925234e-06
-1.4695105e-08
2.3717739e-06
-1.2760252e-08
2.376816e-06
-1.0324438e-08
2.2678882e-06
-7.2101374e-09
1.990082e-06
-3.2627308e-09
1.4678998e-06
5.9910803e-07
-3.3220398e-10
5.833817e-09
-1.3743463e-09
1.7447416e-08
-3.2282503e-09
3.039196e-08
-5.9146662e-09
4.4222976e-08
-9.3523528e-09
5.8603933e-08
-1.3358829e-08
7.3373122e-08
-1.7674969e-08
8.8576721e-08
-2.2006503e-08
1.0446197e-07
-2.6070562e-08
1.2143806e-07
-2.9635309e-08
1.4002049e-07
-3.2545058e-08
1.6077513e-07
-3.4728176e-08
1.8427396e-07
-3.6190111e-08
2.1106807e-07
-3.6995836e-08
2.4167826e-07
-3.7247861e-08
2.7660009e-07
-3.7064388e-08
3.1631855e-07
-3.6561572e-08
3.6132717e-07
-3.5841689e-08
4.1214687e-07
-3.4987268e-08
4.6934089e-07
-3.4060007e-08
5.335233e-07
-3.310291e-08
6.053593e-07
-3.2143831e-08
6.8555611e-07
-3.1198889e-08
7.7484202e-07
-3.0275477e-08
8.739305e-07
-2.9373816e-08
9.8346344e-07
-2.8488031e-08
1.1039249e-06
-2.7606237e-08
1.2355131e-06
-2.6710156e-08
1.377954e-06
-2.5774652e-08
1.5302343e-06
-2.4767481e-08
1.690225e-06
-2.3648833e-08
1.8541606e-06
-2.2371487e-08
2.015929e-06
-2.0881009e-08
2.1661189e-06
-1.9116633e-08
2.290759e-06
-1.7008979e-08
2.3696664e-06
-1.4476587e-08
2.3742835e-06
-1.1403396e-08
2.264815e-06
-7.6398013e-09
1.9863184e-06
-3.2361825e-09
1.4634959e-06
5.9587191e-07
-2.9744214e-10
6.1312584e-09
-1.247881e-09
1.8397854e-08
-2.9756887e-09
3.2119768e-08
-5.547563e-09
4.6794852e-08
-8.9450372e-09
6.2001407e-08
-1.3050472e-08
7.7478559e-08
-1.7653769e-08
9.3180011e-08
-2.2479593e-08
1.0928779e-07
-2.7228124e-08
1.261866e-07
-3.1618522e-08
1.4441089e-07
-3.542529e-08
1.6458189e-07
-3.850096e-08
1.8734963e-07
-4.078306e-08
2.1335016e-07
-4.2286653e-08
2.4318186e-07
-4.3086895e-08
2.7740033e-07
-4.3296442e-08
3.1652811e-07
-4.3043042e-08
3.6107375e-07
-4.2450882e-08
4.1155471e-07
-4.1628197e-08
4.6851821e-07
-4.0661057e-08
5.3255616e-07
-3.961242e-08
6.0431067e-07
-3.8524578e-08
6.8446826e-07
-3.7422967e-08
7.737404e-07
-3.6320008e-08
8.7282757e-07
-3.5218252e-08
9.8236163e-07
-3.411179e-08
1.1028185e-06
-3.29879e-08
1.2343891e-06
-3.1826243e-08
1.3767924e-06
-3.0599338e-08
1.5290074e-06
-2.9272033e-08
1.6888976e-06
-2.7800852e-08
1.8526895e-06
-2.6135046e-08
2.0142632e-06
-2.4216018e-08
2.1641999e-06
-2.1978446e-08
2.2885216e-06
-1.9348849e-08
2.3670368e-06
-1.6240707e-08
2.3711753e-06
-1.2540838e-08
2.2611151e-06
-8.1383277e-09
1.9819159e-06
-3.2698976e-09
1.4586278e-06
5.9260193e-07
-2.6995292e-10
6.4012106e-09
-1.1416485e-09
1.926955e-08
-2.7466762e-09
3.3724795e-08
-5.1759076e-09
4.9224081e-08
-8.4523086e-09
6.5277811e-08
-1.2510739e-08
8.1536986e-08
-1.7192911e-08
9.7862188e-08
-2.2261397e-08
1.1435628e-07
-2.7429943e-08
1.3135514e-07
-3.2402735e-08
1.493837e-07
-3.6913664e-08
1.6909281e-07
-4.0757367e-08
1.9119334e-07
-4.3807687e-08
2.1640048e-07
-4.6021708e-08
2.4539586e-07
-4.7430887e-08
2.7880953e-07
-4.8123192e-08
3.172204e-07
-4.8220382e-08
3.6117094e-07
-4.7855863e-08
4.1119018e-07
-4.7156413e-08
4.6781877e-07
-4.6230256e-08
5.3162999e-07
-4.5161317e-08
6.0324175e-07
-4.4008987e-08
6.8331594e-07
-4.2810892e-08
7.7254229e-07
-4.1586893e-08
8.716036e-07
-4.034331e-08
9.81118e-07
-3.9075357e-08
1.1015506e-06
-3.7769324e-08
1.2330831e-06
-3.6403145e-08
1.3754262e-06
-3.4946278e-08
1.5275506e-06
-3.3360147e-08
1.6873115e-06
-3.1597482e-08
1.8509267e-06
-2.9602519e-08
2.0122683e-06
-2.7312402e-08
2.1619097e-06
-2.4656433e-08
2.2858655e-06
-2.1555794e-08
2.3639362e-06
-1.7919488e-08
2.367539e-06
-1.3639322e-08
2.2568351e-06
-8.6508273e-09
1.976927e-06
-3.3553222e-09
1.4533326e-06
5.8924653e-07
-2.4764985e-10
6.6488606e-09
-1.053e-09
2.0074901e-08
-2.5486382e-09
3.5220433e-08
-4.8380977e-09
5.1513544e-08
-7.9709832e-09
6.8410695e-08
-1.1920923e-08
8.5486923e-08
-1.6574095e-08
1.0251536e-07
-2.1733529e-08
1.1951572e-07
-2.7139653e-08
1.3676126e-07
-3.2502603e-08
1.5474665e-07
-3.7539205e-08
1.7412942e-07
-4.2007002e-08
1.9566114e-07
-4.572962e-08
2.2012309e-07
-4.8609983e-08
2.4827623e-07
-5.0630857e-08
2.8083041e-07
-5.1844002e-08
3.1843352e-07
-5.2351212e-08
3.6167816e-07
-5.2282127e-08
4.1112111e-07
-5.1772627e-08
4.6730925e-07
-5.0947675e-08
5.3080505e-07
-4.9910766e-08
6.0220482e-07
-4.8739243e-08
6.8214446e-07
-4.7485119e-08
7.7128814e-07
-4.6178061e-08
8.7029654e-07
-4.482988e-08
9.7976982e-07
-4.343824e-08
1.1001589e-06
-4.1989314e-08
1.2316342e-06
-4.0459237e-08
1.3738961e-06
-3.8814871e-08
1.5259062e-06
-3.7013782e-08
1.6855104e-06
-3.5004547e-08
1.8489175e-06
-3.2726849e-08
2.0099907e-06
-3.0112461e-08
2.1592953e-06
-2.7085255e-08
2.2828383e-06
-2.3561085e-08
2.360412e-06
-1.9444895e-08
2.3634229e-06
-1.4636183e-08
2.2520263e-06
-9.1198864e-09
1.9714108e-06
-3.4449817e-09
1.4476575e-06
5.8580158e-07
-2.2941096e-10
6.8782715e-09
-9.7917316e-10
2.0824662e-08
-2.3800628e-09
3.6621325e-08
-4.5420244e-09
5.3675506e-08
-7.5318575e-09
7.1400528e-08
-1.1351371e-08
8.9306433e-08
-1.5922549e-08
1.0708654e-07
-2.1085422e-08
1.2467859e-07
-2.6610678e-08
1.4228651e-07
-3.2225023e-08
1.60361e-07
-3.7643812e-08
1.7954821e-07
-4.2604539e-08
2.0062187e-07
-4.6895313e-08
2.2441386e-07
-5.0374269e-08
2.5175519e-07
-5.2977709e-08
2.8343385e-07
-5.4716807e-08
3.2017261e-07
-5.5664445e-08
3.6262581e-07
-5.5935659e-08
4.1139232e-07
-5.5665498e-08
4.6703908e-07
-5.4988723e-08
5.3012829e-07
-5.4024606e-08
6.0124071e-07
-5.2867907e-08
6.8098772e-07
-5.1585854e-08
7.7000613e-07
-5.0220028e-08
8.6893072e-07
-4.8789844e-08
9.783396e-07
-4.7296794e-08
1.0986659e-06
-4.5728137e-08
1.2300655e-06
-4.4058997e-08
1.372227e-06
-4.2253907e-08
1.5241011e-06
-4.0266977e-08
1.6835235e-06
-3.8042684e-08
1.8466932e-06
-3.5516127e-08
2.0074641e-06
-3.2613493e-08
2.1563928e-06
-2.9253625e-08
2.2794784e-06
-2.5346775e-08
2.3565051e-06
-2.0795017e-08
2.3588713e-06
-1.5507994e-08
2.2467391e-06
-9.5235936e-09
1.9654265e-06
-3.5202744e-09
1.4416542e-06
5.8228114e-07
-2.141725e-10
7.0924434e-09
-9.1675928e-10
2.152725e-08
-2.2355353e-09
3.79401e-08
-4.2833414e-09
5.5723313e-08
-7.1382374e-09
7.4255426e-08
-1.082261e-08
9.2990802e-08
-1.5286799e-08
1.1155073e-07
-2.0402762e-08
1.2979456e-07
-2.5970768e-08
1.4785452e-07
-3.1738535e-08
1.6612876e-07
-3.7429133e-08
1.8523881e-07
-4.2772218e-08
2.0596495e-07
-4.7533089e-08
2.2917474e-07
-5.153556e-08
2.5575766e-07
-5.4675566e-08
2.8657385e-07
-5.6924373e-08
3.2242141e-07
-5.832165e-08
3.6402311e-07
-5.8960324e-08
4.1203096e-07
-5.8965974e-08
4.6704473e-07
-5.8475712e-08
5.2963804e-07
-5.7619501e-08
6.003845e-07
-5.6506955e-08
6.7987519e-07
-5.522073e-08
7.6871989e-07
-5.3815189e-08
8.6752517e-07
-5.2319055e-08
9.7684346e-07
-5.073947e-08
1.0970862e-06
-4.9065872e-08
1.228392e-06
-4.727366e-08
1.3704347e-06
-4.5325242e-08
1.5221528e-06
-4.317215e-08
1.6813703e-06
-4.075477e-08
1.8442759e-06
-3.8003794e-08
2.0047131e-06
-3.4840654e-08
2.1532297e-06
-3.1178683e-08
2.2758164e-06
-2.6923514e-08
2.3522499e-06
-2.1975679e-08
2.3539234e-06
-1.6256939e-08
2.2410205e-06
-9.8598353e-09
1.9590293e-06
-3.577877e-09
1.4353721e-06
5.7870344e-07
-2.0123661e-10
7.29368e-09
-8.6332698e-10
2.2189341e-08
-2.1105393e-09
3.9187311e-08
-4.0565986e-09
5.7669374e-08
-6.7869847e-09
7.6985811e-08
-1.0339263e-08
9.6543083e-08
-1.4686238e-08
1.158977e-07
-1.9726853e-08
1.3483518e-07
-2.5288523e-08
1.5341618e-07
-3.1141144e-08
1.7198137e-07
-3.7020463e-08
1.9111815e-07
-4.2656402e-08
2.1160088e-07
-4.7801255e-08
2.3431959e-07
-5.2254039e-08
2.6021044e-07
-5.5877598e-08
2.9019743e-07
-5.8606985e-08
3.251508e-07
-6.0448001e-08
3.6586413e-07
-6.1467006e-08
4.1304996e-07
-6.1773749e-08
4.6735145e-07
-6.150068e-08
5.2936499e-07
-6.0782833e-08
5.9966665e-07
-5.9741247e-08
6.7883358e-07
-5.8472421e-08
7.6745107e-07
-5.7044017e-08
8.6609678e-07
-5.5495297e-08
9.7529473e-07
-5.3840366e-08
1.0954313e-06
-5.2072577e-08
1.2266242e-06
-5.016796e-08
1.3685302e-06
-4.8088342e-08
1.5200731e-06
-4.5782618e-08
1.6790646e-06
-4.3187995e-08
1.8416812e-06
-4.0230986e-08
2.0017561e-06
-3.6828504e-08
2.1498272e-06
-3.2889037e-08
2.2718769e-06
-2.8314035e-08
2.347675e-06
-2.300395e-08
2.3486133e-06
-1.68955e-08
2.2349122e-06
-1.0135134e-08
1.9522686e-06
-3.6181675e-09
1.4288554e-06
5.7508518e-07
-1.9009725e-10
7.4837769e-09
-8.1701307e-10
2.2816259e-08
-2.0013772e-09
4.0371673e-08
-3.856603e-09
5.9524596e-08
-6.473016e-09
7.9602229e-08
-9.8995602e-09
9.9969622e-08
-1.4126882e-08
1.2012502e-07
-1.9076638e-08
1.3978494e-07
-2.4600476e-08
1.5894002e-07
-3.0489943e-08
1.7787084e-07
-3.6495872e-08
1.9712408e-07
-4.2353505e-08
2.1745853e-07
-4.7809301e-08
2.3977537e-07
-5.2645286e-08
2.6504644e-07
-5.6698465e-08
2.942506e-07
-5.9872487e-08
3.2832481e-07
-6.2141004e-08
3.6813263e-07
-6.3542142e-08
4.1445113e-07
-6.4165469e-08
4.6797476e-07
-6.4133159e-08
5.2933266e-07
-6.3579734e-08
5.9911325e-07
-6.2633583e-08
6.7788741e-07
-6.1402807e-08
7.6622032e-07
-5.996783e-08
8.6466177e-07
-5.8378944e-08
9.7370585e-07
-5.6658602e-08
1.093711e-06
-5.4804976e-08
1.2247706e-06
-5.2796419e-08
1.3665216e-06
-5.0594368e-08
1.5178712e-06
-4.8146181e-08
1.6766163e-06
-4.5386117e-08
1.8389212e-06
-4.2237132e-08
1.9986071e-06
-3.8612091e-08
2.1462021e-06
-3.4415065e-08
2.2676799e-06
-2.9544146e-08
2.342804e-06
-2.390081e-08
2.3429701e-06
-1.7439442e-08
2.2284507e-06
-1.0358534e-08
1.9451879e-06
-3.645017e-09
1.4221416e-06
5.7144042e-07
-1.8038695e-10
7.6641643e-09
-7.7644664e-10
2.3412316e-08
-1.9051825e-09
4.1500411e-08
-3.6789848e-09
6.1298397e-08
-6.1913153e-09
8.2114562e-08
-9.4996782e-09
1.0327798e-07
-1.3609067e-08
1.2423441e-07
-1.8460206e-08
1.4463608e-07
-2.3926133e-08
1.6440594e-07
-2.9818788e-08
1.8376351e-07
-3.5904916e-08
2.0321019e-07
-4.1928131e-08
2.2348176e-07
-4.7634024e-08
2.4548126e-07
-5.2793933e-08
2.7020633e-07
-5.7225122e-08
2.9868181e-07
-6.0805141e-08
3.3190481e-07
-6.3478406e-08
3.7080593e-07
-6.525524e-08
4.1622798e-07
-6.6202463e-08
4.6892197e-07
-6.6427777e-08
5.2955796e-07
-6.6060435e-08
5.9874593e-07
-6.5231819e-08
6.7705877e-07
-6.4058832e-08
7.6504733e-07
-6.2633201e-08
8.6323615e-07
-6.1016492e-08
9.7208915e-07
-5.9240142e-08
1.0919346e-06
-5.7308425e-08
1.2228389e-06
-5.520289e-08
1.364416e-06
-5.2885613e-08
1.5155539e-06
-5.030296e-08
1.6740337e-06
-4.7386967e-08
1.8360051e-06
-4.4057289e-08
1.9952775e-06
-4.0223229e-08
2.142368e-06
-3.5784832e-08
2.2632416e-06
-3.0638079e-08
2.3376571e-06
-2.4686989e-08
2.3370189e-06
-1.7904257e-08
2.221668e-06
-1.0540379e-08
1.937824e-06
-3.6608248e-09
1.4152626e-06
5.6777915e-07
-1.7183727e-10
7.836e-09
-7.4056611e-10
2.3981047e-08
-1.8197079e-09
4.2579553e-08
-3.520187e-09
6.2998873e-08
-5.9373959e-09
8.4531772e-08
-9.135345e-09
1.0647593e-07
-1.3130645e-08
1.2822971e-07
-1.7880117e-08
1.4938555e-07
-2.3275581e-08
1.6980141e-07
-2.91478e-08
1.8963573e-07
-3.5279331e-08
2.0934171e-07
-4.1423994e-08
2.2962642e-07
-4.7329849e-08
2.5138712e-07
-5.2762197e-08
2.7563868e-07
-5.7523922e-08
3.0344355e-07
-6.1471249e-08
3.3585213e-07
-6.4523037e-08
3.7385775e-07
-6.6663226e-08
4.1836812e-07
-6.7934989e-08
4.7019375e-07
-6.8428803e-08
5.3005178e-07
-6.8264769e-08
5.9858186e-07
-6.7573092e-08
6.763671e-07
-6.6476384e-08
7.6395062e-07
-6.5075925e-08
8.6183567e-07
-6.3443838e-08
9.7045706e-07
-6.1620993e-08
1.0901117e-06
-5.9618694e-08
1.2208366e-06
-5.7422481e-08
1.3622198e-06
-5.4996287e-08
1.5131277e-06
-5.2285909e-08
1.6713232e-06
-4.9221563e-08
1.8329409e-06
-4.5720626e-08
1.9917765e-06
-4.1688702e-08
2.1383361e-06
-3.7023061e-08
2.258576e-06
-3.1617443e-08
2.3322515e-06
-2.5380248e-08
2.3307817e-06
-1.8304104e-08
2.2145919e-06
-1.0688624e-08
1.9302087e-06
-3.6698949e-09
1.4082438e-06
5.6410934e-07
-1.6423688e-10
8.0002363e-09
-7.0857707e-10
2.4525386e-08
-1.7432017e-09
4.3614178e-08
-3.3773182e-09
6.4632988e-08
-5.7074111e-09
8.6861866e-08
-8.8024795e-09
1.09571e-07
-1.2688571e-08
1.3211581e-07
-1.7336178e-08
1.5403315e-07
-2.2653601e-08
1.7511883e-07
-2.8488793e-08
1.9547092e-07
-3.4639624e-08
2.1549254e-07
-4.0870933e-08
2.3585774e-07
-4.6935577e-08
2.5745177e-07
-5.2596294e-08
2.8129937e-07
-5.7645773e-08
3.0849305e-07
-6.1923324e-08
3.4012968e-07
-6.5325888e-08
3.772603e-07
-6.7813065e-08
4.2085529e-07
-6.9404953e-08
4.7178564e-07
-7.0173012e-08
5.3081988e-07
-7.022516e-08
5.9863398e-07
-6.9687067e-08
6.7582899e-07
-6.8683638e-08
7.6294725e-07
-6.732369e-08
8.6047563e-07
-6.5688694e-08
9.6882211e-07
-6.3829157e-08
1.0882521e-06
-6.1763742e-08
1.2187712e-06
-5.9483149e-08
1.3599392e-06
-5.6953636e-08
1.5105982e-06
-5.4121376e-08
1.668491e-06
-5.0915684e-08
1.8297351e-06
-4.7251189e-08
1.9881121e-06
-4.3031158e-08
2.134116e-06
-3.8149861e-08
2.2536948e-06
-3.2500413e-08
2.3266019e-06
-2.5996039e-08
2.3242774e-06
-1.8650517e-08
2.2072464e-06
-1.0810834e-08
1.9223691e-06
-3.6734286e-09
1.4011063e-06
5.604359e-07
-1.5742951e-10
8.1576664e-09
-6.7984439e-10
2.50478e-08
-1.6742605e-09
4.4608593e-08
-3.24803e-09
6.6206759e-08
-5.4981303e-09
8.9111963e-08
-8.4973565e-09
1.1257023e-07
-1.2279566e-08
1.3589801e-07
-1.6826823e-08
1.5858042e-07
-2.2061969e-08
1.8035397e-07
-2.7848565e-08
2.0125752e-07
-3.3999038e-08
2.2164301e-07
-4.0289547e-08
2.4214825e-07
-4.6479209e-08
2.6364142e-07
-5.2330707e-08
2.8715088e-07
-5.7630039e-08
3.1379237e-07
-6.2203135e-08
3.4470281e-07
-6.592856e-08
3.809857e-07
-6.8744112e-08
4.2367084e-07
-7.0647802e-08
4.7368933e-07
-7.1691559e-08
5.3186362e-07
-7.1968839e-08
5.9891131e-07
-7.1598005e-08
6.7545811e-07
-7.0703282e-08
7.6205256e-07
-6.9398272e-08
8.5917064e-07
-6.7772992e-08
9.6719678e-07
-6.5886545e-08
1.0863657e-06
-6.3765826e-08
1.2166505e-06
-6.1406971e-08
1.3575803e-06
-5.8779581e-08
1.5079709e-06
-5.5831015e-08
1.6655424e-06
-5.2489611e-08
1.8263937e-06
-4.8668611e-08
1.9842911e-06
-4.4268771e-08
2.1297162e-06
-3.9182309e-08
2.2486083e-06
-3.3301735e-08
2.3207214e-06
-2.6546895e-08
2.3175227e-06
-1.8953303e-08
2.1996526e-06
-1.0912496e-08
1.9143282e-06
-3.6734457e-09
1.3938673e-06
5.5676252e-07
-1.5129172e-10
8.3089588e-09
-6.5386991e-10
2.5550378e-08
-1.6117672e-09
4.5566489e-08
-3.1304147e-09
6.7725406e-08
-5.3068284e-09
9.128838e-08
-8.2167495e-09
1.1548015e-07
-1.1900423e-08
1.3958169e-07
-1.6349905e-08
1.630299e-07
-2.1500793e-08
1.8550486e-07
-2.7230814e-08
2.0698754e-07
-3.3366083e-08
2.2777829e-07
-3.9694068e-08
2.4847622e-07
-4.5980986e-08
2.6992835e-07
-5.1991411e-08
2.931613e-07
-5.7507135e-08
3.193081e-07
-6.2344038e-08
3.495397e-07
-6.6365186e-08
3.8500682e-07
-6.9489288e-08
4.2679498e-07
-7.1693776e-08
4.7589381e-07
-7.3011068e-08
5.3318093e-07
-7.3519135e-08
5.9941934e-07
-7.3326308e-08
6.752653e-07
-7.255371e-08
7.6127998e-07
-7.1317405e-08
8.5793435e-07
-6.9713902e-08
9.6559327e-07
-6.781069e-08
1.0844625e-06
-6.5642493e-08
1.2144822e-06
-6.3211681e-08
1.3551495e-06
-6.0491837e-08
1.5052511e-06
-5.743185e-08
1.6624824e-06
-5.3960224e-08
1.8229221e-06
-4.998879e-08
1.9803197e-06
-4.5416401e-08
2.1251438e-06
-4.0133682e-08
2.2433256e-06
-3.4033696e-08
2.3146213e-06
-2.7043356e-08
2.3105326e-06
-1.9220182e-08
2.1918293e-06
-1.0997648e-08
1.9061057e-06
-3.6709355e-09
1.3865407e-06
5.5309155e-07
-1.4572444e-10
8.4546828e-09
-6.3025883e-10
2.6034912e-08
-1.5548135e-09
4.6491046e-08
-3.0228947e-09
6.9193484e-08
-5.1312413e-09
9.3396729e-08
-7.9578178e-09
1.1830672e-07
-1.1548214e-08
1.4317209e-07
-1.5903056e-08
1.6738474e-07
-2.0969218e-08
1.9057102e-07
-2.6637288e-08
2.1265562e-07
-3.2746179e-08
2.3388718e-07
-3.9094341e-08
2.5482438e-07
-4.545572e-08
2.7628973e-07
-5.1597998e-08
2.9930359e-07
-5.7300908e-08
3.2501099e-07
-6.2372686e-08
3.5461149e-07
-6.6663777e-08
3.8929792e-07
-7.0076365e-08
4.3020752e-07
-7.2568787e-08
4.7838626e-07
-7.4154832e-08
5.3476695e-07
-7.489607e-08
6.001606e-07
-7.4889497e-08
6.752587e-07
-7.4250523e-08
7.60641e-07
-7.309544e-08
8.5677928e-07
-7.1525535e-08
9.6402336e-07
-6.9615584e-08
1.0825526e-06
-6.7407906e-08
1.2122746e-06
-6.4911488e-08
1.3526531e-06
-6.21045e-08
1.502444e-06
-5.8937931e-08
1.6593159e-06
-5.5341033e-08
1.8193252e-06
-5.1224658e-08
1.9762034e-06
-4.6486323e-08
2.1204054e-06
-4.1015388e-08
2.2378546e-06
-3.4705991e-08
2.308312e-06
-2.7493774e-08
2.3033201e-06
-1.9456919e-08
2.1837927e-06
-1.1070073e-08
1.8977186e-06
-3.6668837e-09
1.3791378e-06
5.4942445e-07
-1.4064425e-10
8.5953274e-09
-6.0868155e-10
2.6502947e-08
-1.5026633e-09
4.738503e-08
-2.9241674e-09
7.0614987e-08
-4.9694445e-09
9.5442005e-08
-7.7181277e-09
1.2105541e-07
-1.1220266e-08
1.4667422e-07
-1.5483894e-08
1.7164837e-07
-2.0465914e-08
1.9555304e-07
-2.6068543e-08
2.1825825e-07
-3.2142627e-08
2.3996125e-07
-3.8497214e-08
2.6117898e-07
-4.4914235e-08
2.8270675e-07
-5.1165415e-08
3.0555478e-07
-5.7029958e-08
3.3087553e-07
-6.2310618e-08
3.5989216e-07
-6.6847578e-08
3.9383489e-07
-7.0528616e-08
4.3388857e-07
-7.3295163e-08
4.8115278e-07
-7.5142981e-08
5.3661478e-07
-7.6117464e-08
6.0113508e-07
-7.6302819e-08
6.7544404e-07
-7.5806989e-08
7.6014518e-07
-7.4744424e-08
8.557167e-07
-7.3219286e-08
9.6249822e-07
-7.1312466e-08
1.0806457e-06
-6.907353e-08
1.2100357e-06
-6.6518062e-08
1.3500976e-06
-6.3628985e-08
1.4995549e-06
-6.0360641e-08
1.6560475e-06
-5.6642971e-08
1.8156076e-06
-5.2386855e-08
1.9719472e-06
-4.7488365e-08
2.115507e-06
-4.1836418e-08
2.2322026e-06
-3.5327056e-08
2.3018027e-06
-2.7904424e-08
2.2958974e-06
-1.9668958e-08
2.1755574e-06
-1.1131874e-08
1.8891816e-06
-3.6620577e-09
1.371668e-06
5.4576232e-07
-1.3598761e-10
8.7313164e-09
-5.8887122e-10
2.6955828e-08
-1.4547002e-09
4.8250857e-08
-2.8331455e-09
7.1993437e-08
-4.8198114e-09
9.7428666e-08
-7.4955637e-09
1.2373116e-07
-1.0914194e-08
1.5009285e-07
-1.5090161e-08
1.7582434e-07
-1.9989294e-08
2.0045217e-07
-2.5524381e-08
2.2379334e-07
-3.1557311e-08
2.4599419e-07
-3.7907392e-08
2.6752906e-07
-4.4364492e-08
2.8916383e-07
-5.0705037e-08
3.1189535e-07
-5.6708976e-08
3.3687943e-07
-6.217519e-08
3.6535839e-07
-6.6935681e-08
3.9859536e-07
-7.0865916e-08
4.3781882e-07
-7.3892115e-08
4.8417896e-07
-7.5993359e-08
5.3871605e-07
-7.7198974e-08
6.0234069e-07
-7.7579773e-08
6.7582485e-07
-7.7234849e-08
7.598002e-07
-7.6274698e-08
8.5475657e-07
-7.4804834e-08
9.610283e-07
-7.2910733e-08
1.0787517e-06
-7.0648639e-08
1.2077736e-06
-6.8040565e-08
1.3474896e-06
-6.5074961e-08
1.4965893e-06
-6.1709314e-08
1.6526819e-06
-5.7875416e-08
1.8117736e-06
-5.3483907e-08
1.9675558e-06
-4.843077e-08
2.1104537e-06
-4.2604291e-08
2.2263762e-06
-3.5903234e-08
2.2951017e-06
-2.8281125e-08
2.288275e-06
-1.9859878e-08
2.1671362e-06
-1.1185531e-08
1.8805073e-06
-3.6566414e-09
1.364139e-06
5.4210596e-07
-1.3170286e-10
8.8630196e-09
-5.7060754e-10
2.7394733e-08
-1.4104061e-09
4.9090655e-08
-2.7489231e-09
7.3331955e-08
-4.6809605e-09
9.9360706e-08
-7.2883164e-09
1.2633851e-07
-1.0627874e-08
1.5343241e-07
-1.4719749e-08
1.7991622e-07
-1.9537693e-08
2.0527011e-07
-2.5004142e-08
2.2925979e-07
-3.0991263e-08
2.5198131e-07
-3.7328052e-08
2.7386584e-07
-4.3812302e-08
2.9564809e-07
-5.022567e-08
3.183087e-07
-5.6349525e-08
3.4300329e-07
-6.1980502e-08
3.7098936e-07
-6.6943928e-08
4.035588e-07
-7.1104977e-08
4.4197986e-07
-7.4376238e-08
4.8745022e-07
-7.6721501e-08
5.4106132e-07
-7.8154549e-08
6.0377372e-07
-7.8732487e-08
6.764028e-07
-7.8544273e-08
7.59612e-07
-7.7695249e-08
8.5390752e-07
-7.6290161e-08
9.5962322e-07
-7.4418122e-08
1.0768796e-06
-7.2140929e-08
1.2054964e-06
-6.9487045e-08
1.3448357e-06
-6.6450146e-08
1.4935524e-06
-6.2991753e-08
1.6492235e-06
-5.904564e-08
1.8078275e-06
-5.4523371e-08
1.9630335e-06
-4.9320282e-08
2.1052507e-06
-4.3325301e-08
2.2203813e-06
-3.644027e-08
2.2882167e-06
-2.8628204e-08
2.2804629e-06
-2.0032842e-08
2.158541e-06
-1.1232408e-08
1.8717067e-06
-3.6504972e-09
1.3565573e-06
5.3845526e-07
-1.2774388e-10
8.9907617e-09
-5.5370649e-10
2.78207e-08
-1.3693613e-09
4.9906307e-08
-2.670723e-09
7.4633319e-08
-4.5517278e-09
1.0124171e-07
-7.0947975e-09
1.2888158e-07
-1.0359442e-08
1.5669706e-07
-1.4370721e-08
1.8392749e-07
-1.9109484e-08
2.1000887e-07
-2.4506935e-08
2.3465725e-07
-3.0444822e-08
2.5791918e-07
-3.6761302e-08
2.8018234e-07
-4.3262025e-08
3.021488e-07
-4.9733968e-08
3.2478065e-07
-5.5960842e-08
3.4923017e-07
-6.1737953e-08
3.7676647e-07
-6.6885532e-08
4.087064e-07
-7.1259969e-08
4.463543e-07
-7.4761949e-08
4.9095221e-07
-7.7341179e-08
5.4364055e-07
-7.8996605e-08
6.0542916e-07
-7.9771751e-08
6.7717792e-07
-7.9744659e-08
7.5958492e-07
-7.9014015e-08
8.5317685e-07
-7.7682507e-08
9.5829174e-07
-7.5841287e-08
1.0750384e-06
-7.3556937e-08
1.203212e-06
-7.0863753e-08
1.3421426e-06
-6.7761007e-08
1.4904497e-06
-6.4214432e-08
1.6456769e-06
-6.0160255e-08
1.8037733e-06
-5.5511071e-08
1.9583842e-06
-5.0162571e-08
2.0999023e-06
-4.4004814e-08
2.2142234e-06
-3.6942703e-08
2.2811546e-06
-2.8949671e-08
2.2724699e-06
-2.0190629e-08
2.1497819e-06
-1.1273413e-08
1.8627895e-06
-3.6444587e-09
1.3489282e-06
5.3481086e-07
-1.2406761e-10
9.1148299e-09
-5.3801587e-10
2.8234647e-08
-1.3311938e-09
5.0699486e-08
-2.5978892e-09
7.5900013e-08
-4.4310957e-09
1.0307492e-07
-6.9136278e-09
1.3136411e-07
-1.0107254e-08
1.5989068e-07
-1.4041309e-08
1.8786155e-07
-1.8703054e-08
2.1467061e-07
-2.4031711e-08
2.3998591e-07
-2.9917895e-08
2.6380535e-07
-3.620849e-08
2.8647295e-07
-4.2716718e-08
3.0865704e-07
-4.9235154e-08
3.3129907e-07
-5.5550263e-08
3.5554529e-07
-6.1456939e-08
3.8267314e-07
-6.6771515e-08
4.1402099e-07
-7.1343049e-08
4.5092582e-07
-7.506176e-08
4.946709e-07
-7.7864491e-08
5.4644332e-07
-7.9736383e-08
6.0730104e-07
-8.0707405e-08
6.7814894e-07
-8.0844324e-08
7.5972187e-07
-8.0238097e-08
8.5257062e-07
-7.8988057e-08
9.5704167e-07
-7.7185863e-08
1.0732362e-06
-7.4902119e-08
1.2009282e-06
-7.2176248e-08
1.3394167e-06
-6.9013137e-08
1.4872865e-06
-6.5382828e-08
1.6420466e-06
-6.1224486e-08
1.799615e-06
-5.6452258e-08
1.953612e-06
-5.096282e-08
2.0944128e-06
-4.4647018e-08
2.2079077e-06
-3.7414343e-08
2.273922e-06
-2.924874e-08
2.2643042e-06
-2.0335238e-08
2.1408684e-06
-1.1310006e-08
1.8537643e-06
-3.6382159e-09
1.3412564e-06
5.311727e-07
-1.206495e-10
9.2354792e-09
-5.2339609e-10
2.8637395e-08
-1.2956007e-09
5.1471689e-08
-2.5298535e-09
7.7134267e-08
-4.3181868e-09
1.0486325e-07
-6.7436335e-09
1.3378956e-07
-9.8698282e-09
1.6301687e-07
-1.372991e-08
1.9172164e-07
-1.83169e-08
2.192576e-07
-2.3577367e-08
2.4524638e-07
-2.9410134e-08
2.6963811e-07
-3.5670404e-08
2.9273322e-07
-4.2178714e-08
3.1516535e-07
-4.8733245e-08
3.3785359e-07
-5.5123646e-08
3.619357e-07
-6.1145086e-08
3.886946e-07
-6.6611092e-08
4.1948696e-07
-7.1364477e-08
4.5567921e-07
-7.5286386e-08
4.9859282e-07
-7.8302187e-08
5.4945909e-07
-8.0383843e-08
6.093827e-07
-8.1548346e-08
6.7931344e-07
-8.185098e-08
7.6002448e-07
-8.1373999e-08
8.5209368e-07
-8.0212306e-08
9.5587993e-07
-7.8456914e-08
1.0714809e-06
-7.6181089e-08
1.1986524e-06
-7.3429194e-08
1.3366648e-06
-7.0211115e-08
1.4840685e-06
-6.6501486e-08
1.638337e-06
-6.224295e-08
1.7953564e-06
-5.7351469e-08
1.9487205e-06
-5.1724909e-08
2.0887862e-06
-4.5255955e-08
2.2014388e-06
-3.7858756e-08
2.2665248e-06
-2.952794e-08
2.2559733e-06
-2.0468462e-08
2.131809e-06
-1.1342663e-08
1.8446384e-06
-3.6320246e-09
1.3335458e-06
5.2754072e-07
-1.1745691e-10
9.3529375e-09
-5.0974081e-10
2.9029677e-08
-1.2623121e-09
5.222426e-08
-2.4661352e-09
7.8338094e-08
-4.212252e-09
1.0660937e-07
-6.5837576e-09
1.3616107e-07
-9.6458637e-09
1.6607897e-07
-1.3435079e-08
1.9551086e-07
-1.7949618e-08
2.2377214e-07
-2.3142777e-08
2.5043954e-07
-2.8921041e-08
2.7541638e-07
-3.5147443e-08
2.9895961e-07
-4.1649614e-08
3.2166752e-07
-4.8231292e-08
3.4443529e-07
-5.4685677e-08
3.6839007e-07
-6.0808742e-08
3.9481766e-07
-6.6411918e-08
4.2509015e-07
-7.1333082e-08
4.6060035e-07
-7.5445365e-08
5.0270509e-07
-7.8663643e-08
5.526774e-07
-8.0947947e-08
6.1166701e-07
-8.2302682e-08
6.8066815e-07
-8.2771502e-08
7.604933e-07
-8.2427635e-08
8.5174983e-07
-8.1360248e-08
9.5481254e-07
-7.965877e-08
1.0697794e-06
-7.7398057e-08
1.1963917e-06
-7.4626444e-08
1.3338933e-06
-7.1358898e-08
1.4808009e-06
-6.7574573e-08
1.6345527e-06
-6.3219584e-08
1.7910015e-06
-5.821239e-08
1.9437134e-06
-5.2452516e-08
2.0830263e-06
-4.5834995e-08
2.1948212e-06
-3.8278679e-08
2.2589686e-06
-2.9789477e-08
2.247484e-06
-2.0591841e-08
2.1226113e-06
-1.1371988e-08
1.8354186e-06
-3.6259385e-09
1.3257997e-06
5.2391478e-07
-1.1447229e-10
9.4674092e-09
-4.9694658e-10
2.9412152e-08
-1.2310971e-09
5.2958408e-08
-2.4063152e-09
7.9513313e-08
-4.1126207e-09
1.0831567e-07
-6.4330746e-09
1.3848153e-07
-9.4342022e-09
1.690801e-07
-1.3155511e-08
1.9923216e-07
-1.7599883e-08
2.2821652e-07
-2.2726823e-08
2.5556648e-07
-2.8449965e-08
2.8113951e-07
-3.4639694e-08
3.0514935e-07
-4.1130519e-08
3.2815833e-07
-4.7731718e-08
3.5103649e-07
-5.4240131e-08
3.7489847e-07
-6.0453023e-08
4.0103057e-07
-6.618056e-08
4.3081766e-07
-7.1256362e-08
4.6567617e-07
-7.5546759e-08
5.0699549e-07
-7.8957292e-08
5.5608796e-07
-8.143685e-08
6.1414653e-07
-8.2977758e-08
6.8220908e-07
-8.3612379e-08
7.6112792e-07
-8.3404396e-08
8.5154185e-07
-8.2436518e-08
9.5384464e-07
-8.0795359e-08
1.0681383e-06
-7.8556497e-08
1.1941528e-06
-7.5771565e-08
1.3311083e-06
-7.2459896e-08
1.4774892e-06
-6.8605355e-08
1.6306982e-06
-6.4157835e-08
1.786554e-06
-5.9038448e-08
1.938594e-06
-5.3148899e-08
2.0771368e-06
-4.6386797e-08
2.1880591e-06
-3.8676757e-08
2.2512585e-06
-3.0035612e-08
2.2388429e-06
-2.0706527e-08
2.1132824e-06
-1.1398646e-08
1.8261107e-06
-3.6199831e-09
1.3180209e-06
5.2029486e-07
-1.1167051e-10
9.5790785e-09
-4.8493281e-10
2.9785416e-08
-1.2017556e-09
5.3675231e-08
-2.3500199e-09
8.0661576e-08
-4.0187231e-09
1.0998437e-07
-6.2907846e-09
1.4075359e-07
-9.2338294e-09
1.7202314e-07
-1.2890012e-08
2.0288835e-07
-1.7266496e-08
2.32593e-07
-2.2328456e-08
2.6062844e-07
-2.7996196e-08
2.8680726e-07
-3.4147103e-08
3.1130026e-07
-4.0622217e-08
3.3463345e-07
-4.7236338e-08
3.576506e-07
-5.3790019e-08
3.8145216e-07
-6.0082246e-08
4.0732281e-07
-6.5922406e-08
4.366578e-07
-7.1140807e-08
4.7089456e-07
-7.5597767e-08
5.1145247e-07
-7.9190565e-08
5.5968074e-07
-8.1857707e-08
6.1681368e-07
-8.3580336e-08
6.8393173e-07
-8.4379605e-08
7.6192716e-07
-8.4309366e-08
8.5147164e-07
-8.3445316e-08
9.5298057e-07