/*--------------------------------*- C++ -*----------------------------------*\
| =========                 |                                                 |
| \\      /  F ield         | OpenFOAM: The Open Source CFD Toolbox           |
|  \\    /   O peration     | Version:  3.0.1                                 |
|   \\  /    A nd           | Web:      www.OpenFOAM.org                      |
|    \\/     M anipulation  |                                                 |
\*---------------------------------------------------------------------------*/
FoamFile
{
    version     2.0;
    format      ascii;
    class       volScalarField;
    location    "2736";
    object      Qr;
}
// * * * * * * * * * * * * * * * * * * * * * * * * * * * * * * * * * * * * * //

dimensions      [1 0 -3 0 0 0 0];

internalField   uniform 0;

boundaryField
{
    LeftWedge
    {
        type            wedge;
    }
    RightWedge
    {
        type            wedge;
    }
    Inlet
    {
        type            calculated;
        value           nonuniform List<scalar> 
40
(
4.4295935
4.4295935
4.4295935
4.4295935
4.4295935
4.4295935
4.4295935
4.4295935
4.4295935
4.4295935
4.4295935
4.4295935
4.4295935
4.4295935
4.4295935
4.4295935
4.4295935
4.4295935
4.4295935
4.4295935
4.4295935
4.4295935
4.4295935
4.4295935
4.4295935
4.4295935
4.4295935
4.4295935
4.4295935
4.4295935
4.4295935
4.4295935
4.4295935
4.4295935
4.4295935
4.4295935
4.4295935
4.4295935
4.4295935
4.4295935
)
;
    }
    Outlet
    {
        type            calculated;
        value           nonuniform List<scalar> 
40
(
-188.47361
-168.23561
-150.04826
-133.48101
-118.25015
-104.17687
-91.153926
-79.121337
-68.047263
-57.914623
-48.712374
-40.428891
-33.0468
-26.542363
-20.891753
-16.04429
-11.938912
-8.5075499
-5.6773549
-3.3733322
-1.520702
-0.052303032
1.0979238
1.9889834
2.6716169
3.1888672
3.5765929
3.8641368
4.0751125
4.2282339
4.3381212
4.4160425
4.4705672
4.5081225
4.5334572
4.5500239
4.5602983
4.5660604
4.5686645
4.56932
)
;
    }
    Outterwall
    {
        type            calculated;
        value           nonuniform List<scalar> 
100
(
4.4310806
4.4327894
4.4344875
4.4361787
4.4378661
4.439551
4.4412344
4.4429166
4.444598
4.4462789
4.4479592
4.4496392
4.4513189
4.4529983
4.4546775
4.4563565
4.4580353
4.459714
4.4613925
4.4630709
4.4647492
4.4664274
4.4681054
4.4697833
4.4714611
4.4731387
4.4748162
4.4764935
4.4781706
4.4798474
4.481524
4.4832002
4.4848759
4.4865512
4.4882258
4.4898997
4.4915727
4.4932447
4.4949156
4.496585
4.4982528
4.4999188
4.5015826
4.5032439
4.5049025
4.5065579
4.5082098
4.5098577
4.5115012
4.5131397
4.5147729
4.5164
4.5180205
4.5196338
4.5212393
4.5228361
4.5244237
4.5260013
4.527568
4.5291231
4.5306657
4.532195
4.53371
4.5352098
4.5366935
4.5381601
4.5396085
4.5410377
4.5424468
4.5438345
4.5451998
4.5465416
4.5478587
4.54915
4.5504142
4.5516502
4.5528567
4.5540325
4.5551762
4.5562867
4.5573626
4.5584026
4.5594053
4.5603694
4.5612934
4.562176
4.5630157
4.5638112
4.5645608
4.5652631
4.5659166
4.5665197
4.5670709
4.5675685
4.5680107
4.5683959
4.5687217
4.5689866
4.5691865
4.56932
)
;
    }
    Innerwall
    {
        type            calculated;
        value           nonuniform List<scalar> 
100
(
-115.29667
-134.66452
-143.42682
-148.77417
-152.52231
-155.36209
-157.62475
-159.49171
-161.07236
-162.4373
-163.6345
-164.69796
-165.65255
-166.51696
-167.30559
-168.02975
-168.69844
-169.31896
-169.89731
-170.43845
-170.94654
-171.42511
-171.87715
-172.30525
-172.71163
-173.09824
-173.46678
-173.81874
-174.15545
-174.47808
-174.78768
-175.08518
-175.37144
-175.64721
-175.91317
-176.16996
-176.41815
-176.65824
-176.89072
-177.11601
-177.33453
-177.54663
-177.75267
-177.95294
-178.14775
-178.33735
-178.52202
-178.70197
-178.87743
-179.0486
-179.21567
-179.37881
-179.53821
-179.69401
-179.84636
-179.99541
-180.14127
-180.28409
-180.42396
-180.56101
-180.69534
-180.82704
-180.95622
-181.08296
-181.20734
-181.32944
-181.44935
-181.56713
-181.68286
-181.79659
-181.9084
-182.01834
-182.12647
-182.23285
-182.33753
-182.44055
-182.54197
-182.64184
-182.74019
-182.83707
-182.93252
-183.02658
-183.11929
-183.21068
-183.30079
-183.38965
-183.4773
-183.56376
-183.64908
-183.73328
-183.81642
-183.89858
-183.97999
-184.06113
-184.14393
-184.23267
-184.34458
-184.49156
-184.80938
-185.17189
)
;
    }
}


// ************************************************************************* //
