/*--------------------------------*- C++ -*----------------------------------*\
| =========                 |                                                 |
| \\      /  F ield         | OpenFOAM: The Open Source CFD Toolbox           |
|  \\    /   O peration     | Version:  3.0.1                                 |
|   \\  /    A nd           | Web:      www.OpenFOAM.org                      |
|    \\/     M anipulation  |                                                 |
\*---------------------------------------------------------------------------*/
FoamFile
{
    version     2.0;
    format      ascii;
    class       volScalarField;
    location    "2736";
    object      rho;
}
// * * * * * * * * * * * * * * * * * * * * * * * * * * * * * * * * * * * * * //

dimensions      [1 -3 0 0 0 0 0];

internalField   nonuniform List<scalar> 
4000
(
1.1663688
1.1768595
1.1850387
1.1910006
1.19511
1.1978098
1.1995098
1.2005395
1.2011411
1.2014803
1.201665
1.2017621
1.2018114
1.2018354
1.2018467
1.2018518
1.201854
1.201855
1.2018553
1.2018555
1.2018555
1.2018555
1.2018555
1.2018555
1.2018555
1.2018555
1.2018555
1.2018555
1.2018555
1.2018555
1.2018555
1.2018555
1.2018555
1.2018555
1.2018555
1.2018555
1.2018555
1.2018555
1.2018555
1.2018555
1.1592501
1.1687797
1.1770892
1.1840129
1.1894951
1.1936187
1.1965713
1.1985895
1.1999097
1.2007379
1.2012367
1.2015253
1.2016857
1.2017712
1.201815
1.2018364
1.2018464
1.2018509
1.2018528
1.2018536
1.2018539
1.201854
1.201854
1.201854
1.201854
1.201854
1.201854
1.201854
1.201854
1.201854
1.201854
1.201854
1.201854
1.201854
1.201854
1.201854
1.201854
1.201854
1.201854
1.201854
1.1560913
1.164977
1.1729278
1.1798556
1.1856766
1.1903676
1.1939853
1.1966549
1.1985415
1.1998195
1.2006501
1.2011681
1.201478
1.2016558
1.2017535
1.2018048
1.2018306
1.2018429
1.2018485
1.2018509
1.2018519
1.2018523
1.2018525
1.2018525
1.2018525
1.2018525
1.2018525
1.2018525
1.2018525
1.2018525
1.2018525
1.2018525
1.2018525
1.2018525
1.2018525
1.2018525
1.2018525
1.2018525
1.2018525
1.2018525
1.1541815
1.1626561
1.170312
1.1771119
1.1829927
1.1879119
1.1918758
1.194947
1.1972333
1.1988688
1.1999931
1.2007357
1.2012069
1.2014936
1.2016609
1.2017542
1.2018039
1.2018292
1.2018414
1.201847
1.2018494
1.2018504
1.2018508
1.201851
1.201851
1.201851
1.201851
1.201851
1.201851
1.201851
1.201851
1.201851
1.201851
1.201851
1.201851
1.201851
1.201851
1.201851
1.201851
1.201851
1.1528505
1.1610335
1.1684624
1.1751291
1.1809902
1.1860042
1.1901585
1.1934829
1.1960485
1.1979568
1.1993244
1.2002682
1.2008951
1.2012952
1.2015405
1.2016844
1.2017652
1.2018085
1.2018305
1.2018412
1.201846
1.2018482
1.201849
1.2018494
1.2018495
1.2018495
1.2018495
1.2018495
1.2018495
1.2018495
1.2018495
1.2018495
1.2018495
1.2018495
1.2018495
1.2018495
1.2018495
1.2018495
1.2018495
1.2018495
1.1518462
1.1598073
1.1670563
1.1736038
1.1794212
1.1844724
1.1887376
1.1922289
1.1949939
1.1971106
1.1986757
1.199793
1.2005622
1.2010725
1.2013981
1.2015976
1.2017145
1.2017801
1.2018151
1.2018329
1.2018414
1.2018453
1.201847
1.2018476
1.2018479
1.201848
1.201848
1.201848
1.201848
1.201848
1.201848
1.201848
1.201848
1.201848
1.201848
1.201848
1.201848
1.201848
1.201848
1.201848
1.1510483
1.1588324
1.1659343
1.1723776
1.1781451
1.1832061
1.1875387
1.1911449
1.1940569
1.1963353
1.1980612
1.1993261
1.2002223
1.2008355
1.20124
1.2014967
1.201653
1.2017442
1.2017949
1.2018218
1.2018353
1.2018417
1.2018446
1.2018458
1.2018463
1.2018464
1.2018465
1.2018465
1.2018465
1.2018465
1.2018465
1.2018465
1.2018465
1.2018465
1.2018465
1.2018465
1.2018465
1.2018465
1.2018465
1.2018465
1.1503915
1.1580294
1.165008
1.17136
1.1770773
1.1821343
1.1865089
1.1901972
1.1932207
1.1956272
1.1974852
1.198876
1.1998844
1.2005919
1.2010716
1.2013851
1.2015823
1.2017013
1.2017699
1.2018076
1.2018273
1.2018371
1.2018417
1.2018437
1.2018445
1.2018449
1.201845
1.201845
1.201845
1.201845
1.201845
1.201845
1.201845
1.201845
1.201845
1.201845
1.201845
1.201845
1.201845
1.201845
1.1498364
1.1573505
1.1642234
1.170495
1.176164
1.1812097
1.1856107
1.1893593
1.1924696
1.1949796
1.1969478
1.1984465
1.1995538
1.2003471
1.2008972
1.2012659
1.2015041
1.2016521
1.2017403
1.2017904
1.2018175
1.2018315
1.2018382
1.2018413
1.2018427
1.2018432
1.2018434
1.2018435
1.2018435
1.2018435
1.2018435
1.2018435
1.2018435
1.2018435
1.2018435
1.2018435
1.2018435
1.2018435
1.2018435
1.2018435
1.1493577
1.1567649
1.1635458
1.1697459
1.1753693
1.1803997
1.1848169
1.188611
1.1917903
1.1943855
1.1964467
1.1980386
1.1992336
1.2001045
1.2007201
1.2011415
1.2014202
1.2015978
1.2017064
1.2017701
1.2018057
1.2018246
1.2018341
1.2018386
1.2018407
1.2018415
1.2018419
1.201842
1.201842
1.201842
1.201842
1.201842
1.201842
1.201842
1.201842
1.201842
1.201842
1.201842
1.201842
1.201842
1.1489383
1.1562518
1.1629515
1.1690872
1.174668
1.1796811
1.1841077
1.1879364
1.1911718
1.1938381
1.1959788
1.1976522
1.198925
1.1998664
1.2005427
1.201014
1.201332
1.2015391
1.2016689
1.201747
1.2017919
1.2018165
1.2018293
1.2018356
1.2018385
1.2018397
1.2018402
1.2018404
1.2018405
1.2018405
1.2018405
1.2018405
1.2018405
1.2018405
1.2018405
1.2018405
1.2018405
1.2018405
1.2018405
1.2018405
1.1485661
1.1557965
1.1624236
1.1685011
1.174042
1.1790367
1.183468
1.1873237
1.190605
1.1933316
1.1955411
1.1972862
1.1986286
1.1996341
1.2003666
1.200885
1.2012408
1.201477
1.2016282
1.2017213
1.2017762
1.2018071
1.2018237
1.201832
1.201836
1.2018378
1.2018386
1.2018389
1.201839
1.201839
1.201839
1.201839
1.201839
1.201839
1.201839
1.201839
1.201839
1.201839
1.201839
1.201839
1.1482323
1.155388
1.1619498
1.1679742
1.1734778
1.1784537
1.1828864
1.1867631
1.1900828
1.192861
1.1951306
1.1969392
1.1983444
1.1994084
1.2001929
1.2007556
1.2011476
1.2014122
1.2015849
1.2016933
1.2017588
1.2017965
1.2018172
1.201828
1.2018333
1.2018358
1.2018368
1.2018373
1.2018374
1.2018375
1.2018375
1.2018375
1.2018375
1.2018375
1.2018375
1.2018375
1.2018375
1.2018375
1.2018375
1.2018375
1.1479301
1.1550183
1.1615207
1.1674965
1.172965
1.1779222
1.1823539
1.1862472
1.1895992
1.1924221
1.1947446
1.19661
1.198072
1.1991896
1.2000224
1.2006268
1.2010533
1.2013455
1.2015393
1.2016633
1.2017396
1.2017846
1.2018099
1.2018235
1.2018303
1.2018336
1.201835
1.2018357
1.2018359
1.201836
1.201836
1.201836
1.201836
1.201836
1.201836
1.201836
1.201836
1.201836
1.201836
1.201836
1.1476546
1.1546812
1.1611293
1.1670601
1.1724958
1.1774345
1.1818635
1.1857698
1.1891492
1.1920111
1.1943806
1.1962972
1.1978108
1.1989778
1.1998555
1.2004991
1.2009586
1.2012774
1.201492
1.2016315
1.201719
1.2017716
1.2018018
1.2018184
1.201827
1.2018312
1.2018332
1.201834
1.2018343
1.2018345
1.2018345
1.2018345
1.2018345
1.2018345
1.2018345
1.2018345
1.2018345
1.2018345
1.2018345
1.2018345
1.1474017
1.1543718
1.1607698
1.1666591
1.1720639
1.1769844
1.1814093
1.185326
1.1887289
1.1916251
1.1940366
1.1959994
1.1975603
1.1987728
1.1996924
1.200373
1.2008638
1.2012084
1.2014432
1.2015982
1.201697
1.2017575
1.201793
1.2018128
1.2018234
1.2018287
1.2018312
1.2018323
1.2018328
1.2018329
1.201833
1.201833
1.201833
1.201833
1.201833
1.201833
1.201833
1.201833
1.201833
1.201833
1.1471683
1.1540862
1.1604379
1.1662884
1.171664
1.1765669
1.1809869
1.1849116
1.1883347
1.1912613
1.1937105
1.1957154
1.1973198
1.1985746
1.1995333
1.2002487
1.2007695
1.2011388
1.2013934
1.2015637
1.2016738
1.2017423
1.2017833
1.2018067
1.2018194
1.2018259
1.2018291
1.2018305
1.2018311
1.2018314
1.2018315
1.2018315
1.2018315
1.2018315
1.2018315
1.2018315
1.2018315
1.2018315
1.2018315
1.2018315
1.1469517
1.1538212
1.1601299
1.1659442
1.1712922
1.1761779
1.1805922
1.1845232
1.1879638
1.1909175
1.1934009
1.1954442
1.1970887
1.1983827
1.1993783
1.2001266
1.2006758
1.2010689
1.2013428
1.2015281
1.2016495
1.2017263
1.2017729
1.2018
1.201815
1.2018229
1.2018269
1.2018287
1.2018295
1.2018298
1.20183
1.20183
1.20183
1.20183
1.20183
1.20183
1.20183
1.20183
1.20183
1.20183
1.1467498
1.1535743
1.1598428
1.1656231
1.170945
1.175814
1.1802221
1.184158
1.1876138
1.1905917
1.1931061
1.1951848
1.1968663
1.1981971
1.1992271
1.2000067
1.2005831
1.2009991
1.2012917
1.2014917
1.2016244
1.2017094
1.2017618
1.2017928
1.2018103
1.2018197
1.2018245
1.2018268
1.2018278
1.2018283
1.2018284
1.2018285
1.2018285
1.2018285
1.2018285
1.2018285
1.2018285
1.2018285
1.2018285
1.2018285
1.146561
1.1533433
1.1595742
1.1653225
1.1706196
1.1754723
1.179874
1.1838134
1.1872826
1.1902822
1.192825
1.1949362
1.1966522
1.1980173
1.1990799
1.199889
1.2004914
1.2009295
1.2012401
1.2014547
1.2015985
1.2016918
1.2017501
1.2017852
1.2018053
1.2018163
1.201822
1.2018248
1.2018261
1.2018267
1.2018269
1.201827
1.201827
1.201827
1.201827
1.201827
1.201827
1.201827
1.201827
1.201827
1.1463836
1.1531264
1.1593219
1.1650401
1.1703136
1.1751506
1.1795455
1.1834875
1.1869684
1.1899876
1.1925563
1.1946976
1.1964458
1.1978432
1.1989365
1.1997737
1.2004009
1.2008602
1.2011884
1.2014171
1.2015719
1.2016734
1.2017378
1.201777
1.2017999
1.2018127
1.2018194
1.2018228
1.2018244
1.2018251
1.2018254
1.2018255
1.2018255
1.2018255
1.2018255
1.2018255
1.2018255
1.2018255
1.2018255
1.2018255
1.1462166
1.1529221
1.1590843
1.1647739
1.1700249
1.1748467
1.1792346
1.1831784
1.1866695
1.1897066
1.1922991
1.1944684
1.1962466
1.1976743
1.1987967
1.1996608
1.2003117
1.2007913
1.2011366
1.2013791
1.2015447
1.2016546
1.201725
1.2017684
1.2017942
1.2018088
1.2018166
1.2018206
1.2018226
1.2018234
1.2018238
1.201824
1.201824
1.201824
1.201824
1.201824
1.201824
1.201824
1.201824
1.201824
1.1460588
1.1527292
1.1588598
1.1645224
1.1697519
1.1745589
1.1789398
1.1828846
1.1863847
1.189438
1.1920525
1.1942478
1.1960542
1.1975105
1.1986605
1.1995501
1.2002238
1.2007231
1.2010849
1.2013408
1.2015171
1.2016351
1.2017116
1.2017594
1.2017882
1.2018047
1.2018137
1.2018184
1.2018207
1.2018218
1.2018222
1.2018224
1.2018225
1.2018225
1.2018225
1.2018225
1.2018225
1.2018225
1.2018225
1.2018225
1.1459094
1.1525465
1.1586472
1.164284
1.169493
1.1742857
1.1786594
1.1826047
1.1861128
1.1891808
1.1918157
1.1940352
1.1958681
1.1973514
1.1985277
1.1994416
1.2001372
1.2006555
1.2010333
1.2013024
1.2014891
1.2016153
1.2016978
1.20175
1.2017818
1.2018003
1.2018106
1.2018161
1.2018188
1.2018201
1.2018207
1.2018209
1.201821
1.201821
1.201821
1.201821
1.201821
1.201821
1.201821
1.201821
1.1457675
1.152373
1.1584453
1.1640576
1.1692469
1.1740258
1.1783923
1.1823375
1.1858527
1.1889342
1.1915879
1.1938301
1.195688
1.1971969
1.1983981
1.1993354
1.2000519
1.2005886
1.2009819
1.2012638
1.2014608
1.201595
1.2016836
1.2017403
1.2017752
1.2017958
1.2018074
1.2018137
1.2018168
1.2018184
1.2018191
1.2018193
1.2018195
1.2018195
1.2018195
1.2018195
1.2018195
1.2018195
1.2018195
1.2018195
1.1456325
1.152208
1.1582532
1.1638422
1.1690125
1.173778
1.1781373
1.1820821
1.1856034
1.1886974
1.1913685
1.193632
1.1955134
1.1970467
1.1982717
1.1992313
1.1999681
1.2005224
1.2009308
1.2012252
1.2014323
1.2015744
1.2016691
1.2017302
1.2017682
1.201791
1.201804
1.2018111
1.2018148
1.2018166
1.2018174
1.2018178
1.2018179
1.201818
1.201818
1.201818
1.201818
1.201818
1.201818
1.201818
1.1455038
1.1520506
1.1580701
1.1636366
1.1687889
1.1735413
1.1778934
1.1818373
1.1853642
1.1884695
1.191157
1.1934405
1.1953441
1.1969005
1.1981483
1.1991293
1.1998855
1.200457
1.20088
1.2011865
1.2014036
1.2015535
1.2016542
1.2017198
1.201761
1.201786
1.2018005
1.2018085
1.2018127
1.2018148
1.2018158
1.2018162
1.2018164
1.2018165
1.2018165
1.2018165
1.2018165
1.2018165
1.2018165
1.2018165
1.1453808
1.1519003
1.1578951
1.1634403
1.168575
1.1733148
1.1776598
1.1816026
1.1851343
1.1882501
1.1909528
1.1932552
1.1951798
1.1967582
1.1980277
1.1990293
1.1998043
1.2003923
1.2008296
1.201148
1.2013748
1.2015324
1.201639
1.2017091
1.2017536
1.2017808
1.2017968
1.2018058
1.2018106
1.201813
1.2018141
1.2018147
1.2018149
1.201815
1.201815
1.201815
1.201815
1.201815
1.201815
1.201815
1.1452632
1.1517565
1.1577277
1.1632523
1.1683703
1.1730977
1.1774357
1.181377
1.184913
1.1880385
1.1907554
1.1930756
1.1950202
1.1966196
1.1979099
1.1989313
1.1997244
1.2003284
1.2007795
1.2011096
1.2013458
1.201511
1.2016236
1.2016981
1.2017459
1.2017754
1.201793
1.2018029
1.2018083
1.2018111
1.2018125
1.2018131
1.2018134
1.2018135
1.2018135
1.2018135
1.2018135
1.2018135
1.2018135
1.2018135
1.1451504
1.1516187
1.1575673
1.1630722
1.1681739
1.1728894
1.1772203
1.18116
1.1846998
1.1878342
1.1905645
1.1929014
1.1948651
1.1964844
1.1977948
1.1988352
1.1996458
1.2002654
1.2007299
1.2010713
1.2013168
1.2014895
1.2016079
1.2016869
1.2017379
1.2017698
1.201789
1.2018
1.201806
1.2018092
1.2018108
1.2018115
1.2018118
1.2018119
1.201812
1.201812
1.201812
1.201812
1.201812
1.201812
1.1450421
1.1514864
1.1574133
1.1628992
1.1679853
1.1726892
1.1770131
1.1809509
1.1844941
1.1876367
1.1903796
1.1927323
1.1947141
1.1963526
1.1976821
1.1987409
1.1995684
1.2002031
1.2006807
1.2010331
1.2012878
1.2014678
1.2015921
1.2016755
1.2017298
1.2017641
1.2017849
1.201797
1.2018037
1.2018072
1.201809
1.2018099
1.2018103
1.2018104
1.2018105
1.2018105
1.2018105
1.2018105
1.2018105
1.2018105
1.144938
1.1513593
1.1572653
1.1627329
1.1678039
1.1724965
1.1768135
1.1807493
1.1842954
1.1874457
1.1902004
1.1925681
1.1945671
1.196224
1.1975719
1.1986484
1.1994922
1.2001416
1.2006319
1.2009951
1.2012588
1.2014461
1.201576
1.2016638
1.2017215
1.2017581
1.2017806
1.2017938
1.2018013
1.2018052
1.2018073
1.2018083
1.2018087
1.2018089
1.201809
1.201809
1.201809
1.201809
1.201809
1.201809
1.1448379
1.1512369
1.1571229
1.1625728
1.1676292
1.1723108
1.1766211
1.1805547
1.1841033
1.1872607
1.1900264
1.1924085
1.1944239
1.1960983
1.197464
1.1985576
1.1994173
1.2000809
1.2005836
1.2009574
1.2012298
1.2014242
1.2015598
1.201652
1.201713
1.2017521
1.2017762
1.2017906
1.2017988
1.2018032
1.2018055
1.2018066
1.2018071
1.2018074
1.2018075
1.2018075
1.2018075
1.2018075
1.2018075
1.2018075
1.1447413
1.151119
1.1569856
1.1624186
1.1674608
1.1721316
1.1764352
1.1803665
1.1839174
1.1870814
1.1898576
1.1922532
1.1942843
1.1959756
1.1973584
1.1984684
1.1993435
1.2000209
1.2005358
1.2009199
1.2012009
1.2014023
1.2015435
1.2016401
1.2017043
1.2017458
1.2017717
1.2017872
1.2017962
1.2018011
1.2018037
1.201805
1.2018056
1.2018058
1.2018059
1.201806
1.201806
1.201806
1.201806
1.201806
1.1446482
1.1510053
1.1568532
1.1622697
1.1672982
1.1719586
1.1762556
1.1801844
1.1837372
1.1869074
1.1896935
1.192102
1.1941482
1.1958556
1.1972548
1.1983809
1.1992709
1.1999617
1.2004884
1.2008826
1.2011721
1.2013804
1.2015271
1.201628
1.2016955
1.2017394
1.2017671
1.2017838
1.2017935
1.201799
1.2018018
1.2018033
1.201804
1.2018043
1.2018044
1.2018045
1.2018045
1.2018045
1.2018045
1.2018045
1.1445582
1.1508954
1.1567253
1.1621259
1.1671411
1.1717914
1.1760818
1.1800081
1.1835626
1.1867384
1.1895339
1.1919547
1.1940152
1.1957383
1.1971534
1.1982949
1.1991993
1.1999033
1.2004415
1.2008455
1.2011433
1.2013584
1.2015106
1.2016157
1.2016865
1.2017329
1.2017623
1.2017803
1.2017908
1.2017968
1.2018
1.2018016
1.2018024
1.2018027
1.2018029
1.201803
1.201803
1.201803
1.201803
1.201803
1.1444712
1.1507892
1.1566017
1.1619869
1.1669891
1.1716295
1.1759135
1.1798372
1.1833931
1.1865743
1.1893786
1.1918111
1.1938854
1.1956234
1.1970539
1.1982104
1.1991289
1.1998456
1.200395
1.2008087
1.2011146
1.2013364
1.201494
1.2016033
1.2016774
1.2017263
1.2017574
1.2017766
1.201788
1.2017945
1.2017981
1.2017999
1.2018008
1.2018012
1.2018014
1.2018015
1.2018015
1.2018015
1.2018015
1.2018015
1.144387
1.1506864
1.156482
1.1618523
1.1668421
1.1714727
1.1757504
1.1796715
1.1832285
1.1864147
1.1892273
1.191671
1.1937586
1.195511
1.1969563
1.1981273
1.1990594
1.1997886
1.200349
1.2007722
1.2010861
1.2013144
1.2014773
1.2015909
1.2016682
1.2017195
1.2017524
1.2017729
1.2017852
1.2017922
1.2017961
1.2017981
1.2017992
1.2017996
1.2017999
1.2017999
1.2018
1.2018
1.2018
1.2018
1.1443055
1.1505869
1.1563661
1.161722
1.1666995
1.1713208
1.1755921
1.1795105
1.1830686
1.1862593
1.1890799
1.1915343
1.1936345
1.1954009
1.1968605
1.1980456
1.198991
1.1997323
1.2003035
1.200736
1.2010576
1.2012925
1.2014606
1.2015783
1.2016589
1.2017126
1.2017474
1.2017691
1.2017823
1.2017899
1.2017941
1.2017964
1.2017975
1.2017981
1.2017983
1.2017984
1.2017985
1.2017985
1.2017985
1.2017985
1.1442264
1.1504904
1.1562538
1.1615956
1.1665613
1.1711733
1.1754385
1.1793541
1.182913
1.186108
1.1889362
1.1914008
1.1935132
1.195293
1.1967665
1.1979652
1.1989236
1.1996767
1.2002584
1.2007
1.2010293
1.2012705
1.2014438
1.2015657
1.2016495
1.2017056
1.2017422
1.2017652
1.2017793
1.2017875
1.2017921
1.2017946
1.2017959
1.2017965
1.2017968
1.2017969
1.201797
1.201797
1.201797
1.201797
1.1441496
1.1503967
1.1561448
1.161473
1.1664271
1.1710301
1.1752892
1.179202
1.1827615
1.1859606
1.1887959
1.1912703
1.1933945
1.1951872
1.1966742
1.1978862
1.1988572
1.1996218
1.2002137
1.2006642
1.2010011
1.2012486
1.201427
1.201553
1.2016399
1.2016985
1.2017369
1.2017613
1.2017762
1.2017851
1.2017901
1.2017928
1.2017942
1.2017949
1.2017952
1.2017954
1.2017955
1.2017955
1.2017955
1.2017955
1.1440751
1.1503058
1.1560389
1.1613539
1.1662968
1.170891
1.1751441
1.1790541
1.1826141
1.1858169
1.188659
1.1911428
1.1932782
1.1950835
1.1965835
1.1978084
1.1987916
1.1995675
1.2001695
1.2006288
1.2009731
1.2012268
1.2014102
1.2015402
1.2016303
1.2016913
1.2017315
1.2017572
1.2017731
1.2017826
1.201788
1.201791
1.2017925
1.2017933
1.2017937
1.2017939
1.2017939
1.201794
1.201794
1.201794
1.1440027
1.1502174
1.1559361
1.1612382
1.1661702
1.1707557
1.1750029
1.17891
1.1824703
1.1856767
1.1885253
1.191018
1.1931644
1.1949817
1.1964943
1.1977318
1.198727
1.1995139
1.2001258
1.2005936
1.2009452
1.201205
1.2013934
1.2015273
1.2016206
1.2016841
1.2017261
1.2017531
1.20177
1.2017801
1.2017859
1.2017891
1.2017909
1.2017917
1.2017921
1.2017923
1.2017924
1.2017925
1.2017925
1.2017925
1.1439322
1.1501315
1.1558361
1.1611256
1.1660469
1.1706241
1.1748655
1.1787697
1.1823302
1.1855399
1.1883946
1.1908959
1.1930528
1.1948818
1.1964067
1.1976564
1.1986633
1.199461
1.2000825
1.2005587
1.2009175
1.2011832
1.2013765
1.2015145
1.2016109
1.2016767
1.2017206
1.2017489
1.2017667
1.2017775
1.2017838
1.2017873
1.2017892
1.2017901
1.2017906
1.2017908
1.2017909
1.201791
1.201791
1.201791
1.1438637
1.1500479
1.1557387
1.1610161
1.165927
1.1704959
1.1747316
1.1786328
1.1821934
1.1854062
1.1882668
1.1907764
1.1929434
1.1947838
1.1963206
1.1975821
1.1986004
1.1994086
1.2000396
1.200524
1.2008899
1.2011615
1.2013597
1.2015015
1.201601
1.2016693
1.201715
1.2017447
1.2017634
1.2017749
1.2017816
1.2017854
1.2017874
1.2017885
1.201789
1.2017893
1.2017894
1.2017894
1.2017895
1.2017895
1.1437969
1.1499665
1.155644
1.1609095
1.1658102
1.170371
1.174601
1.1784994
1.18206
1.1852756
1.1881418
1.1906594
1.1928361
1.1946875
1.1962358
1.197509
1.1985384
1.1993569
1.1999971
1.2004897
1.2008625
1.2011399
1.2013429
1.2014886
1.2015912
1.2016618
1.2017093
1.2017403
1.2017601
1.2017722
1.2017794
1.2017835
1.2017857
1.2017869
1.2017875
1.2017877
1.2017879
1.2017879
1.201788
1.201788
1.1437319
1.1498872
1.1555517
1.1608055
1.1656964
1.1702493
1.1744737
1.1783691
1.1819296
1.185148
1.1880195
1.1905447
1.1927309
1.1945929
1.1961525
1.1974369
1.1984771
1.1993057
1.199955
1.2004556
1.2008352
1.2011184
1.2013261
1.2014756
1.2015812
1.2016542
1.2017035
1.2017359
1.2017567
1.2017695
1.2017771
1.2017815
1.2017839
1.2017852
1.2017859
1.2017862
1.2017864
1.2017864
1.2017864
1.2017865
1.1436684
1.1498099
1.1554617
1.1607043
1.1655854
1.1701306
1.1743495
1.178242
1.1818022
1.1850231
1.1878998
1.1904323
1.1926276
1.1944999
1.1960704
1.1973659
1.1984167
1.1992552
1.1999134
1.2004217
1.2008081
1.2010969
1.2013093
1.2014626
1.2015712
1.2016466
1.2016977
1.2017315
1.2017532
1.2017667
1.2017748
1.2017795
1.2017822
1.2017836
1.2017843
1.2017847
1.2017848
1.2017849
1.2017849
1.2017849
1.1436066
1.1497344
1.1553739
1.1606054
1.1654771
1.1700147
1.1742282
1.1781177
1.1816777
1.1849009
1.1877824
1.1903221
1.1925262
1.1944085
1.1959897
1.1972958
1.198357
1.1992052
1.1998721
1.2003881
1.2007811
1.2010755
1.2012925
1.2014496
1.2015612
1.2016389
1.2016918
1.201727
1.2017497
1.2017639
1.2017725
1.2017776
1.2017804
1.2017819
1.2017827
1.2017831
1.2017833
1.2017834
1.2017834
1.2017834
1.1435461
1.1496608
1.1552882
1.160509
1.1653714
1.1699015
1.1741097
1.1779963
1.1815559
1.1847813
1.1876675
1.1902139
1.1924266
1.1943186
1.1959101
1.1972268
1.1982981
1.1991557
1.1998312
1.2003548
1.2007543
1.2010542
1.2012757
1.2014365
1.2015511
1.2016312
1.2016859
1.2017224
1.2017461
1.201761
1.2017702
1.2017755
1.2017786
1.2017802
1.2017811
1.2017816
1.2017818
1.2017819
1.2017819
1.2017819
1.1434872
1.1495889
1.1552046
1.1604148
1.1652682
1.169791
1.1739939
1.1778776
1.1814367
1.1846642
1.1875548
1.1901078
1.1923287
1.1942302
1.1958318
1.1971586
1.1982399
1.1991068
1.1997907
1.2003218
1.2007277
1.201033
1.201259
1.2014235
1.201541
1.2016234
1.2016799
1.2017178
1.2017425
1.2017582
1.2017678
1.2017735
1.2017767
1.2017785
1.2017795
1.20178
1.2017802
1.2017803
1.2017804
1.2017804
1.1434295
1.1495187
1.1551228
1.1603228
1.1651673
1.1696829
1.1738807
1.1777614
1.18132
1.1845494
1.1874443
1.1900037
1.1922326
1.1941432
1.1957546
1.1970914
1.1981824
1.1990584
1.1997506
1.200289
1.2007012
1.2010119
1.2012423
1.2014104
1.2015309
1.2016156
1.2016739
1.2017131
1.2017388
1.2017552
1.2017654
1.2017714
1.2017749
1.2017768
1.2017779
1.2017784
1.2017787
1.2017788
1.2017789
1.2017789
1.1433732
1.14945
1.155043
1.1602329
1.1650687
1.1695773
1.17377
1.1776477
1.1812057
1.1844369
1.1873359
1.1899014
1.192138
1.1940576
1.1956786
1.1970251
1.1981256
1.1990105
1.1997108
1.2002564
1.2006749
1.2009908
1.2012257
1.2013974
1.2015207
1.2016077
1.2016678
1.2017084
1.2017351
1.2017522
1.2017629
1.2017693
1.201773
1.2017751
1.2017763
1.2017769
1.2017771
1.2017773
1.2017773
1.2017774
1.143318
1.1493829
1.1549649
1.1601449
1.1649723
1.169474
1.1736616
1.1775364
1.1810937
1.1843267
1.1872296
1.1898009
1.1920451
1.1939733
1.1956036
1.1969597
1.1980695
1.1989631
1.1996714
1.2002241
1.2006487
1.2009699
1.2012091
1.2013843
1.2015105
1.2015998
1.2016616
1.2017036
1.2017313
1.2017492
1.2017604
1.2017672
1.2017712
1.2017734
1.2017746
1.2017753
1.2017756
1.2017758
1.2017758
1.2017758
1.1432641
1.1493172
1.1548885
1.1600589
1.1648779
1.1693728
1.1735555
1.1774274
1.180984
1.1842185
1.1871251
1.1897022
1.1919536
1.1938903
1.1955297
1.1968951
1.198014
1.1989163
1.1996324
1.200192
1.2006227
1.200949
1.2011925
1.2013713
1.2015003
1.2015918
1.2016555
1.2016988
1.2017275
1.2017462
1.2017579
1.201765
1.2017693
1.2017717
1.201773
1.2017737
1.2017741
1.2017742
1.2017743
1.2017743
1.1432113
1.149253
1.1548137
1.1599747
1.1647856
1.1692738
1.1734515
1.1773205
1.1808764
1.1841124
1.1870226
1.1896052
1.1918637
1.1938086
1.1954569
1.1968314
1.1979592
1.1988698
1.1995937
1.2001602
1.2005968
1.2009283
1.201176
1.2013582
1.2014901
1.2015838
1.2016492
1.2016939
1.2017237
1.2017431
1.2017553
1.2017629
1.2017673
1.2017699
1.2017713
1.2017721
1.2017725
1.2017727
1.2017728
1.2017728
1.1431596
1.14919
1.1547405
1.1598923
1.1646951
1.1691768
1.1733497
1.1772158
1.1807709
1.1840082
1.1869219
1.1895098
1.1917751
1.193728
1.195385
1.1967684
1.197905
1.1988239
1.1995554
1.2001286
1.2005711
1.2009076
1.2011595
1.2013452
1.2014798
1.2015758
1.201643
1.201689
1.2017198
1.20174
1.2017528
1.2017607
1.2017654
1.2017681
1.2017697
1.2017705
1.2017709
1.2017711
1.2017712
1.2017713
1.143109
1.1491284
1.1546687
1.1598115
1.1646065
1.1690818
1.1732499
1.1771131
1.1806674
1.1839059
1.1868229
1.1894159
1.191688
1.1936487
1.1953141
1.1967062
1.1978513
1.1987784
1.1995173
1.2000973
1.2005456
1.200887
1.201143
1.2013321
1.2014696
1.2015678
1.2016367
1.201684
1.2017159
1.2017368
1.2017501
1.2017584
1.2017634
1.2017664
1.201768
1.2017689
1.2017694
1.2017696
1.2017697
1.2017697
1.1430593
1.1490679
1.1545985
1.1597324
1.1645197
1.1689886
1.173152
1.1770124
1.1805657
1.1838055
1.1867257
1.1893236
1.1916022
1.1935704
1.1952441
1.1966448
1.1977983
1.1987334
1.1994797
1.2000662
1.2005202
1.2008665
1.2011266
1.2013191
1.2014593
1.2015597
1.2016303
1.201679
1.2017119
1.2017336
1.2017475
1.2017562
1.2017615
1.2017646
1.2017663
1.2017673
1.2017678
1.201768
1.2017682
1.2017682
1.1430107
1.1490087
1.1545296
1.1596548
1.1644346
1.1688973
1.1730561
1.1769136
1.180466
1.1837068
1.18663
1.1892328
1.1915177
1.1934933
1.1951751
1.1965841
1.1977459
1.1986888
1.1994423
1.2000353
1.2004949
1.2008461
1.2011103
1.2013061
1.201449
1.2015516
1.201624
1.201674
1.2017079
1.2017303
1.2017448
1.2017539
1.2017595
1.2017627
1.2017646
1.2017657
1.2017662
1.2017665
1.2017666
1.2017666
1.1429629
1.1489506
1.154462
1.1595788
1.1643511
1.1688077
1.1729619
1.1768165
1.180368
1.1836099
1.186536
1.1891434
1.1914344
1.1934173
1.195107
1.1965241
1.197694
1.1986447
1.1994052
1.2000046
1.2004699
1.2008257
1.201094
1.2012931
1.2014388
1.2015435
1.2016176
1.2016689
1.2017039
1.2017271
1.2017421
1.2017516
1.2017574
1.2017609
1.2017629
1.201764
1.2017646
1.2017649
1.2017651
1.2017651
1.1429161
1.1488937
1.1543958
1.1595041
1.1642692
1.1687198
1.1728695
1.1767213
1.1802718
1.1835145
1.1864435
1.1890555
1.1913524
1.1933423
1.1950397
1.1964649
1.1976427
1.1986009
1.1993685
1.1999741
1.2004449
1.2008055
1.2010777
1.2012802
1.2014285
1.2015354
1.2016111
1.2016638
1.2016998
1.2017238
1.2017394
1.2017493
1.2017554
1.2017591
1.2017612
1.2017624
1.201763
1.2017634
1.2017635
1.2017635
1.1428701
1.1488377
1.1543308
1.1594309
1.1641888
1.1686335
1.1727787
1.1766277
1.1801772
1.1834208
1.1863525
1.1889688
1.1912715
1.1932683
1.1949732
1.1964063
1.1975919
1.1985576
1.1993321
1.1999439
1.2004201
1.2007854
1.2010615
1.2012672
1.2014182
1.2015272
1.2016047
1.2016587
1.2016957
1.2017204
1.2017366
1.2017469
1.2017533
1.2017572
1.2017595
1.2017607
1.2017614
1.2017618
1.2017619
1.201762
1.142825
1.1487829
1.154267
1.1593591
1.1641099
1.1685488
1.1726896
1.1765358
1.1800842
1.1833287
1.1862629
1.1888835
1.1911918
1.1931953
1.1949076
1.1963484
1.1975417
1.1985147
1.1992959
1.1999139
1.2003955
1.2007653
1.2010454
1.2012543
1.2014079
1.201519
1.2015982
1.2016535
1.2016915
1.2017171
1.2017338
1.2017446
1.2017513
1.2017553
1.2017577
1.2017591
1.2017598
1.2017602
1.2017604
1.2017604
1.1427807
1.148729
1.1542043
1.1592885
1.1640325
1.1684656
1.172602
1.1764454
1.1799928
1.183238
1.1861747
1.1887994
1.1911132
1.1931232
1.1948428
1.1962911
1.1974919
1.1984721
1.1992601
1.1998841
1.2003709
1.2007454
1.2010293
1.2012414
1.2013976
1.2015108
1.2015917
1.2016484
1.2016874
1.2017137
1.201731
1.2017422
1.2017492
1.2017534
1.201756
1.2017574
1.2017582
1.2017586
1.2017588
1.2017588
1.1427372
1.148676
1.1541428
1.1592192
1.1639564
1.1683838
1.172516
1.1763566
1.1799029
1.1831488
1.1860879
1.1887165
1.1910357
1.1930521
1.1947788
1.1962345
1.1974427
1.19843
1.1992245
1.1998544
1.2003466
1.2007255
1.2010132
1.2012285
1.2013873
1.2015026
1.2015851
1.2016431
1.2016832
1.2017102
1.2017282
1.2017397
1.201747
1.2017515
1.2017542
1.2017557
1.2017566
1.201757
1.2017572
1.2017573
1.1426944
1.148624
1.1540823
1.1591511
1.1638816
1.1683035
1.1724314
1.1762693
1.1798145
1.1830609
1.1860023
1.1886349
1.1909593
1.1929819
1.1947155
1.1961785
1.1973939
1.1983882
1.1991893
1.199825
1.2003223
1.2007057
1.2009972
1.2012156
1.201377
1.2014944
1.2015786
1.2016379
1.2016789
1.2017068
1.2017253
1.2017373
1.2017449
1.2017496
1.2017524
1.201754
1.201755
1.2017554
1.2017556
1.2017557
1.1426523
1.1485729
1.1540229
1.1590842
1.1638081
1.1682246
1.1723483
1.1761834
1.1797275
1.1829745
1.1859181
1.1885544
1.1908838
1.1929126
1.194653
1.1961231
1.1973457
1.1983468
1.1991543
1.1997958
1.2002982
1.2006861
1.2009813
1.2012028
1.2013667
1.2014862
1.201572
1.2016326
1.2016747
1.2017033
1.2017224
1.2017348
1.2017427
1.2017476
1.2017506
1.2017523
1.2017533
1.2017538
1.201754
1.2017541
1.142611
1.1485227
1.1539645
1.1590184
1.1637359
1.1681469
1.1722665
1.1760989
1.1796419
1.1828894
1.1858351
1.188475
1.1908094
1.1928441
1.1945912
1.1960682
1.1972979
1.1983058
1.1991195
1.1997668
1.2002743
1.2006665
1.2009654
1.20119
1.2013564
1.201478
1.2015654
1.2016273
1.2016704
1.2016998
1.2017194
1.2017323
1.2017406
1.2017457
1.2017488
1.2017506
1.2017517
1.2017522
1.2017524
1.2017525
1.1425703
1.1484733
1.1539071
1.1589538
1.1636649
1.1680706
1.1721861
1.1760158
1.1795576
1.1828055
1.1857533
1.1883968
1.190736
1.1927765
1.1945301
1.196014
1.1972505
1.1982651
1.1990851
1.199738
1.2002504
1.200647
1.2009495
1.2011772
1.2013461
1.2014697
1.2015588
1.201622
1.201666
1.2016962
1.2017165
1.2017298
1.2017384
1.2017437
1.201747
1.2017489
1.20175
1.2017506
1.2017508
1.2017509
1.1425303
1.1484247
1.1538506
1.1588902
1.163595
1.1679955
1.1721069
1.175934
1.1794746
1.1827229
1.1856727
1.1883196
1.1906635
1.1927097
1.1944697
1.1959603
1.1972036
1.1982248
1.1990509
1.1997094
1.2002268
1.2006275
1.2009337
1.2011644
1.2013359
1.2014615
1.2015522
1.2016166
1.2016617
1.2016927
1.2017135
1.2017273
1.2017361
1.2017417
1.2017451
1.2017472
1.2017483
1.2017489
1.2017492
1.2017493
1.142491
1.1483768
1.153795
1.1588276
1.1635263
1.1679216
1.172029
1.1758534
1.1793928
1.1826415
1.1855932
1.1882434
1.1905919
1.1926437
1.1944099
1.1959072
1.1971572
1.1981848
1.1990169
1.1996809
1.2002032
1.2006082
1.200918
1.2011517
1.2013256
1.2014532
1.2015455
1.2016113
1.2016573
1.2016891
1.2017105
1.2017247
1.2017339
1.2017397
1.2017433
1.2017454
1.2017467
1.2017473
1.2017476
1.2017477
1.1424522
1.1483298
1.1537403
1.158766
1.1634586
1.1678489
1.1719523
1.1757741
1.1793123
1.1825613
1.1855148
1.1881682
1.1905212
1.1925785
1.1943508
1.1958546
1.1971111
1.1981451
1.1989832
1.1996527
1.2001798
1.2005889
1.2009023
1.201139
1.2013153
1.2014449
1.2015388
1.2016059
1.2016529
1.2016854
1.2017075
1.2017221
1.2017316
1.2017377
1.2017414
1.2017437
1.201745
1.2017457
1.201746
1.201746
1.1424141
1.1482835
1.1536865
1.1587054
1.1633921
1.1677773
1.1718768
1.175696
1.1792329
1.1824822
1.1854374
1.1880941
1.1904514
1.192514
1.1942924
1.1958026
1.1970655
1.1981058
1.1989498
1.1996246
1.2001564
1.2005698
1.2008866
1.2011263
1.2013051
1.2014367
1.2015322
1.2016004
1.2016485
1.2016818
1.2017044
1.2017195
1.2017293
1.2017356
1.2017395
1.2017419
1.2017433
1.201744
1.2017443
1.2017444
1.1423765
1.1482379
1.1536335