/*--------------------------------*- C++ -*----------------------------------*\
| =========                 |                                                 |
| \\      /  F ield         | OpenFOAM: The Open Source CFD Toolbox           |
|  \\    /   O peration     | Version:  3.0.1                                 |
|   \\  /    A nd           | Web:      www.OpenFOAM.org                      |
|    \\/     M anipulation  |                                                 |
\*---------------------------------------------------------------------------*/
FoamFile
{
    version     2.0;
    format      ascii;
    class       volScalarField;
    location    "2736";
    object      T;
}
// * * * * * * * * * * * * * * * * * * * * * * * * * * * * * * * * * * * * * //

dimensions      [0 0 0 1 0 0 0];

internalField   nonuniform List<scalar> 
4000
(
302.63567
299.93792
297.86774
296.37667
295.35757
294.69186
294.27422
294.0218
293.87455
293.79158
293.74642
293.72268
293.71065
293.70477
293.70201
293.70076
293.70022
293.7
293.69991
293.69987
293.69986
293.69986
293.69986
293.69986
293.69986
293.69986
293.69986
293.69986
293.69986
293.69986
293.69986
293.69986
293.69986
293.69986
293.69986
293.69986
293.69986
293.69986
293.69986
293.69987
304.49354
302.01087
299.87886
298.12528
296.75127
295.72608
294.99635
294.49965
294.17563
293.97272
293.85065
293.78006
293.74085
293.71994
293.70926
293.70402
293.70157
293.70048
293.70001
293.69982
293.69975
293.69972
293.69971
293.69971
293.69971
293.69971
293.69971
293.69971
293.69971
293.69971
293.69971
293.69971
293.69971
293.69971
293.69971
293.69971
293.69971
293.69971
293.69972
293.69972
305.32499
302.99616
300.94228
299.17523
297.70644
296.53324
295.63476
294.97523
294.51092
294.19721
293.9937
293.86692
293.79111
293.74764
293.72376
293.71122
293.70492
293.70191
293.70054
293.69995
293.69971
293.69962
293.69958
293.69957
293.69957
293.69956
293.69956
293.69956
293.69956
293.69956
293.69956
293.69956
293.69956
293.69956
293.69957
293.69957
293.69957
293.69957
293.69957
293.69957
305.82968
303.60049
301.61439
299.87204
298.38134
297.14573
296.15748
295.39633
294.83221
294.43
294.15414
293.97221
293.85692
293.78679
293.74589
293.72308
293.71092
293.70475
293.70177
293.7004
293.69981
293.69956
293.69947
293.69943
293.69942
293.69942
293.69942
293.69942
293.69942
293.69942
293.69942
293.69942
293.69942
293.69942
293.69942
293.69942
293.69942
293.69942
293.69943
293.69943
306.18221
304.02423
302.09129
300.37749
298.88675
297.62317
296.5843
295.75818
295.12376
294.65364
294.31765
294.08621
293.93271
293.83479
293.77482
293.73963
293.71988
293.70931
293.70392
293.70132
293.70012
293.69961
293.6994
293.69931
293.69929
293.69928
293.69927
293.69927
293.69927
293.69927
293.69927
293.69927
293.69927
293.69927
293.69927
293.69927
293.69927
293.69928
293.69928
293.69928
306.44865
304.34513
302.45473
300.76736
299.28384
298.00755
296.9383
296.06876
295.38369
294.86141
294.4764
294.20219
294.01368
293.88876
293.80911
293.76035
293.73175
293.71573
293.70717
293.70283
293.70074
293.69979
293.69938
293.69922
293.69916
293.69914
293.69913
293.69913
293.69913
293.69913
293.69913
293.69913
293.69913
293.69913
293.69913
293.69913
293.69913
293.69913
293.69913
293.69913
306.66054
304.60065
302.74526
301.0814
299.6075
298.32597
297.23756
296.33767
295.61497
295.05199
294.62695
294.31621
294.09643
293.94625
293.84727
293.78449
293.74627
293.72399
293.7116
293.70503
293.70173
293.70016
293.69946
293.69916
293.69904
293.699
293.69899
293.69898
293.69898
293.69898
293.69898
293.69898
293.69898
293.69898
293.69898
293.69898
293.69898
293.69898
293.69899
293.69899
306.8351
304.81134
302.98547
301.34243
299.87877
298.59594
297.49501
296.57311
295.82162
295.22621
294.76813
294.42618
294.17874
294.00538
293.88796
293.81126
293.76305
293.73397
293.7172
293.70798
293.70316
293.70077
293.69965
293.69916
293.69895
293.69888
293.69885
293.69884
293.69883
293.69883
293.69883
293.69883
293.69883
293.69883
293.69883
293.69884
293.69884
293.69884
293.69884
293.69884
306.9827
304.98961
303.18912
301.5646
300.1111
298.82914
297.71987
296.78152
296.00742
295.38568
294.89996
294.53119
294.2593
294.06484
293.93013
293.83991
293.78165
293.74547
293.72393
293.71168
293.70504
293.70164
293.69998
293.69922
293.69889
293.69876
293.69871
293.69869
293.69869
293.69869
293.69869
293.69869
293.69869
293.69869
293.69869
293.69869
293.69869
293.69869
293.69869
293.69869
307.11001
305.14346
303.36515
301.75721
300.31348
299.03367
297.91881
296.96786
296.17563
295.5321
295.02297
294.63094
294.33737
294.12377
293.97296
293.86983
293.80166
293.75825
293.73168
293.71612
293.70742
293.7028
293.70047
293.69937
293.69887
293.69867
293.69859
293.69856
293.69855
293.69854
293.69854
293.69854
293.69854
293.69854
293.69854
293.69854
293.69854
293.69855
293.69855
293.69855
307.22158
305.27833
303.51965
301.92669
300.49225
299.21531
298.09673
297.13596
296.32891
295.6671
295.13786
294.72549
294.41261
294.18162
294.01589
293.90051
293.82272
293.77208
293.74034
293.72125
293.71027
293.70426
293.70114
293.69961
293.6989
293.69859
293.69847
293.69842
293.6984
293.6984
293.6984
293.69839
293.6984
293.6984
293.6984
293.6984
293.6984
293.6984
293.6984
293.6984
307.3206
305.39808
303.65696
302.0776
300.65195
299.37832
298.25734
297.28879
296.46945
295.79207
295.2454
294.81509
294.48489
294.23807
294.05851
293.93157
293.84452
293.78675
293.74977
293.72701
293.71359
293.70604
293.70201
293.69996
293.69899
293.69855
293.69836
293.69829
293.69826
293.69825
293.69825
293.69825
293.69825
293.69825
293.69825
293.69825
293.69825
293.69825
293.69826
293.69826
307.40941
305.50551
303.78026
302.21335
300.79599
299.5259
298.40347
297.4287
296.59903
295.90824
295.3463
294.90002
294.55422
294.29292
294.10055
293.96273
293.86679
293.80207
293.75986
293.73334
293.71735
293.70813
293.70307
293.70043
293.69913
293.69853
293.69827
293.69816
293.69812
293.69811
293.6981
293.6981
293.6981
293.6981
293.6981
293.69811
293.69811
293.69811
293.69811
293.69811
307.48978
305.60276
303.89194
302.33649
300.92695
299.66052
298.53734
297.55753
296.71909
296.01665
295.44121
294.98064
294.62068
294.3461
294.14183
293.99376
293.88935
293.81787
293.77049
293.74017
293.72152
293.71052
293.70433
293.70103
293.69935
293.69856
293.6982
293.69805
293.69799
293.69797
293.69796
293.69796
293.69796
293.69796
293.69796
293.69796
293.69796
293.69796
293.69796
293.69796
307.56306
305.69144
303.99386
302.449
301.04685
299.78412
298.6607
297.67681
296.83085
296.11818
295.53072
295.05727
294.6844
294.39759
294.18224
294.02453
293.91203
293.83402
293.78155
293.74743
293.72605
293.71319
293.7058
293.70175
293.69965
293.69862
293.69815
293.69794
293.69786
293.69783
293.69782
293.69781
293.69781
293.69781
293.69781
293.69781
293.69781
293.69782
293.69782
293.69782
307.63032
305.77284
304.08747
302.55244
301.15727
299.89824
298.77498
297.78775
296.93529
296.2136
295.61536
295.13022
294.74554
294.44741
294.22171
294.05491
293.93471
293.85039
293.79295
293.75505
293.73092
293.71613
293.70746
293.70261
293.70003
293.69873
293.69812
293.69785
293.69773
293.69769
293.69767
293.69767
293.69767
293.69767
293.69767
293.69767
293.69767
293.69767
293.69767
293.69767
307.69238
305.84798
304.17391
302.64807
301.25952
300.00414
298.88134
297.89137
297.03327
296.30355
295.69559
295.19979
294.80423
294.4956
294.26022
294.08483
293.95729
293.86691
293.80462
293.76298
293.73607
293.71932
293.70931
293.70359
293.70049
293.69889
293.69812
293.69776
293.69761
293.69755
293.69753
293.69752
293.69752
293.69752
293.69752
293.69752
293.69752
293.69752
293.69752
293.69753
307.74995
305.91769
304.25414
302.73689
301.35462
300.10284
298.98074
297.98852
297.12548
296.38857
295.7718
295.26624
294.86063
294.54223
294.29775
294.11424
293.9797
293.88348
293.81648
293.77117
293.74149
293.72273
293.71133
293.70471
293.70104
293.69911
293.69815
293.6977
293.6975
293.69742
293.69739
293.69738
293.69737
293.69737
293.69737
293.69738
293.69738
293.69738
293.69738
293.69738
307.80359
305.98264
304.32892
302.81975
301.44344
300.1952
299.07396
298.07991
297.21253
296.46916
295.84435
295.32982
294.91489
294.58735
294.33432
294.14312
294.0019
293.90006
293.82848
293.77955
293.74712
293.72634
293.71353
293.70595
293.70167
293.69938
293.69821
293.69765
293.6974
293.69729
293.69725
293.69723
293.69723
293.69723
293.69723
293.69723
293.69723
293.69723
293.69723
293.69723
307.85375
306.04339
304.3989
302.89734
301.52672
300.28192
299.16168
298.16615
297.29492
296.54572
295.91357
295.39074
294.96714
294.63104
294.36994
294.17144
294.02384
293.91659
293.84057
293.78811
293.75295
293.73014
293.71588
293.70731
293.70239
293.6997
293.6983
293.69762
293.6973
293.69717
293.69711
293.69709
293.69708
293.69708
293.69708
293.69708
293.69708
293.69709
293.69709
293.69709
307.90083
306.10042
304.4646
302.97023
301.60504
300.36361
299.24448
298.24774
297.37311
296.61861
295.97972
295.44921
295.01751
294.67336
294.40464
294.1992
294.04549
293.93304
293.85271
293.79679
293.75894
293.73411
293.71837
293.70879
293.70319
293.70008
293.69843
293.69761
293.69722
293.69705
293.69698
293.69695
293.69694
293.69694
293.69694
293.69694
293.69694
293.69694
293.69694
293.69694
307.94516
306.15412
304.52649
303.03894
301.67892
300.44078
299.32284
298.32513
297.44748
296.68816
296.04305
295.5054
295.06612
294.71439
294.43845
294.2264
294.06683
293.94937
293.86487
293.80556
293.76506
293.73821
293.721
293.71037
293.70408
293.70051
293.6986
293.69762
293.69715
293.69694
293.69684
293.69681
293.6968
293.69679
293.69679
293.69679
293.69679
293.69679
293.69679
293.69679
307.98702
306.20483
304.58494
303.10387
301.74881
300.51387
299.39718
298.39871
297.51836
296.75464
296.10378
295.55947
295.11308
294.7542
294.4714
294.25303
294.08786
293.96556
293.87701
293.81441
293.7713
293.74245
293.72375
293.71206
293.70504
293.70101
293.6988
293.69765
293.69709
293.69683
293.69672
293.69667
293.69665
293.69665
293.69665
293.69665
293.69665
293.69665
293.69665
293.69665
308.02664
306.25284
304.64031
303.1654
301.81509
300.58326
299.46788
298.46882
297.58605
296.81829
296.1621
295.61158
295.15849
294.79284
294.50352
294.27912
294.10857
293.9816
293.88912
293.82331
293.77763
293.74679
293.72661
293.71385
293.70608
293.70156
293.69904
293.69771
293.69704
293.69673
293.69659
293.69653
293.69651
293.6965
293.6965
293.6965
293.6965
293.6965
293.6965
293.6965
308.06425
306.2984
304.69286
303.22383
301.87808
300.64929
299.53524
298.53574
297.65081
296.87934
296.2182
295.66184
295.20245
294.83038
294.53485
294.30468
294.12894
293.99748
293.90119
293.83223
293.78403
293.75123
293.72957
293.71572
293.70719
293.70216
293.69931
293.69779
293.69701
293.69664
293.69647
293.6964
293.69637
293.69636
293.69635
293.69635
293.69636
293.69636
293.69636
293.69636
308.10002
306.34174
304.74286
303.27944
301.93808
300.71224
299.59955
298.59974
297.71287
296.93798
296.27222
295.71039
295.24503
294.86687
294.56541
294.32971
294.14899
294.01317
293.91318
293.84116
293.79049
293.75576
293.73261
293.71768
293.70838
293.70281
293.69963
293.69789
293.69699
293.69655
293.69635
293.69626
293.69623
293.69621
293.69621
293.69621
293.69621
293.69621
293.69621
293.69621
308.1341
306.38305
304.79052
303.33247
301.99533
300.77236
299.66105
298.66105
297.77243
296.99439
296.32431
295.75733
295.28633
294.90236
294.59524
294.35423
294.16872
294.02868
293.9251
293.85009
293.797
293.76035
293.73574
293.71971
293.70963
293.70352
293.69998
293.69802
293.69699
293.69648
293.69624
293.69613
293.69609
293.69607
293.69606
293.69606
293.69606
293.69606
293.69606
293.69606
308.16664
306.42249
304.83604
303.38314
302.05006
300.82989
299.71998
298.71987
297.82968
297.04872
296.3746
295.80276
295.3264
294.93691
294.62437
294.37826
294.18811
294.04401
293.93693
293.85901
293.80355
293.76501
293.73894
293.72181
293.71094
293.70428
293.70037
293.69818
293.69701
293.69641
293.69613
293.696
293.69595
293.69593
293.69592
293.69592
293.69592
293.69592
293.69592
293.69592
308.19777
306.46021
304.87958
303.43162
302.10247
300.88503
299.77651
298.77638
297.88477
297.10111
296.42321
295.84677
295.36533
294.97057
294.65283
294.40181
294.2072
294.05914
293.94867
293.8679
293.81011
293.76971
293.7422
293.72398
293.7123
293.70508
293.70079
293.69836
293.69704
293.69636
293.69603
293.69588
293.69581
293.69578
293.69577
293.69577
293.69577
293.69577
293.69577
293.69577
308.22758
306.49635
304.9213
303.4781
302.15273
300.93794
299.83082
298.83075
297.93787
297.15169
296.47023
295.88945
295.40317
295.00337
294.68064
294.4249
294.22597
294.07408
293.96031
293.87676
293.81669
293.77446
293.74551
293.72621
293.71373
293.70593
293.70125
293.69856
293.69708
293.69631
293.69593
293.69575
293.69568
293.69564
293.69563
293.69563
293.69563
293.69563
293.69563
293.69563
308.25619
306.53103
304.96133
303.52271
302.20099
300.9888
299.88307
298.88313
297.98909
297.20057
296.51576
295.93087
295.43998
295.03535
294.70784
294.44755
294.24443
294.08883
293.97184
293.88558
293.82327
293.77924
293.74888
293.72849
293.7152
293.70683
293.70175
293.69879
293.69715
293.69628
293.69584
293.69563
293.69554
293.6955
293.69549
293.69548
293.69548
293.69548
293.69548
293.69548
308.28367
306.56434
304.9998
303.56559
302.24741
301.03775
299.93341
298.93364
298.03856
297.24787
296.5599
295.9711
295.47582
295.06657
294.73445
294.46976
294.2626
294.10339
293.98327
293.89436
293.82985
293.78405
293.75228
293.73082
293.71672
293.70776
293.70228
293.69905
293.69723
293.69626
293.69576
293.69552
293.69541
293.69536
293.69534
293.69534
293.69534
293.69534
293.69534
293.69534
308.3101
306.59639
305.03682
303.60686
302.2921
301.08491
299.98195
298.98242
298.0864
297.29367
296.60272
296.0102
295.51072
295.09704
294.76049
294.49155
294.28047
294.11775
293.99458
293.90308
293.83643
293.78888
293.75573
293.73319
293.71829
293.70874
293.70284
293.69933
293.69733
293.69624
293.69568
293.69541
293.69528
293.69522
293.6952
293.69519
293.69519
293.69519
293.69519
293.69519
308.33557
306.62726
305.07248
303.64662
302.33519
301.1304
300.02882
299.02955
298.13269
297.33806
296.6443
296.04825
295.54475
295.12681
294.78599
294.51294
294.29806
294.13193
294.00579
293.91175
293.84299
293.79373
293.75921
293.7356
293.71989
293.70975
293.70343
293.69963
293.69745
293.69624
293.69561
293.6953
293.69515
293.69509
293.69506
293.69505
293.69504
293.69504
293.69504
293.69504
308.36012
306.65702
305.10687
303.68498
302.37677
301.17433
300.07412
299.07516
298.17753
297.38113
296.6847
296.08528
295.57794
295.15591
294.81096
294.53395
294.31537
294.14593
294.01688
293.92037
293.84954
293.79858
293.76271
293.73805
293.72154
293.7108
293.70405
293.69996
293.69758
293.69625
293.69555
293.6952
293.69503
293.69495
293.69492
293.6949
293.6949
293.6949
293.6949
293.6949
308.38382
306.68576
305.14007
303.72203
302.41694
301.21679
300.11793
299.11932
298.22101
297.42294
296.72398
296.12135
295.61033
295.18436
294.83543
294.55457
294.33242
294.15974
294.02786
293.92892
293.85606
293.80344
293.76624
293.74053
293.72321
293.71188
293.7047
293.70031
293.69773
293.69628
293.6955
293.6951
293.6949
293.69482
293.69478
293.69476
293.69475
293.69475
293.69475
293.69475
308.40672
306.71353
305.17215
303.75784
302.45579
301.25788
300.16036
299.16213
298.2632
297.46357
296.76222
296.15652
295.64196
295.2122
294.85943
294.57484
294.3492
294.17338
294.03873
293.93742
293.86256
293.80831
293.76978
293.74304
293.72493
293.713
293.70538
293.70068
293.6979
293.69631
293.69545
293.695
293.69478
293.69468
293.69464
293.69462
293.69461
293.69461
293.69461
293.69461
308.42888
306.74039
305.2032
303.79249
302.49339
301.29767
300.20149
299.20365
298.30417
297.50307
296.79944
296.19081
295.67286
295.23945
294.88295
294.59475
294.36573
294.18684
294.04948
293.94584
293.86904
293.81317
293.77335
293.74557
293.72667
293.71414
293.70608
293.70108
293.69808
293.69636
293.69541
293.69492
293.69467
293.69455
293.6945
293.69447
293.69447
293.69446
293.69446
293.69446
308.45032
306.76639
305.23325
303.82604
302.52981
301.33623
300.24137
299.24396
298.34398
297.54151
296.83572
296.22428
295.70306
295.26613
294.90604
294.61432
294.38201
294.20012
294.06013
293.95421
293.87548
293.81803
293.77692
293.74813
293.72843
293.71531
293.70681
293.70149
293.69828
293.69642
293.69538
293.69483
293.69455
293.69442
293.69436
293.69433
293.69432
293.69432
293.69432
293.69432
308.4711
306.79159
305.26238
303.85857
302.56513
301.37365
300.28009
299.28312
298.3827
297.57894
296.87109
296.25696
295.73261
295.29227
294.92869
294.63357
294.39805
294.21324
294.07066
293.96251
293.88189
293.82288
293.78051
293.75071
293.73023
293.7165
293.70757
293.70193
293.6985
293.69649
293.69536
293.69475
293.69444
293.69429
293.69422
293.69419
293.69418
293.69417
293.69417
293.69417
308.49125
306.81603
305.29063
303.89012
302.5994
301.40997
300.3177
299.32119
298.42039
297.6154
296.90559
296.28889
295.76151
295.31788
294.95093
294.6525
294.41385
294.22619
294.08108
293.97074
293.88828
293.82773
293.7841
293.75331
293.73204
293.71772
293.70834
293.70239
293.69873
293.69657
293.69534
293.69468
293.69434
293.69417
293.69409
293.69405
293.69403
293.69403
293.69403
293.69403
308.51081
306.83975
305.31804
303.92075
302.63269
301.44526
300.35426
299.35823
298.45708
297.65095
296.93927
296.3201
295.78981
295.343
294.97277
294.67112
294.42943
294.23899
294.0914
293.97891
293.89462
293.83256
293.7877
293.75592
293.73388
293.71897
293.70914
293.70286
293.69898
293.69666
293.69534
293.69461
293.69423
293.69404
293.69395
293.69391
293.69389
293.69388
293.69388
293.69388
308.5298
306.86278
305.34468
303.95051
302.66503
301.47956
300.38983
299.39429
298.49284
297.68563
296.97216
296.35062
295.81752
295.36763
294.99423
294.68945
294.44479
294.25162
294.10161
293.98701
293.90093
293.83738
293.7913
293.75854
293.73574
293.72023
293.70996
293.70335
293.69924
293.69677
293.69534
293.69455
293.69413
293.69392
293.69382
293.69377
293.69375
293.69374
293.69374
293.69374
308.54826
306.88517
305.37056
303.97943
302.69648
301.51294
300.42445
299.42941
298.5277
297.71947
297.0043
296.38048
295.84467
295.39181
295.01532
294.70748
294.45993
294.2641
294.11171
293.99505
293.90721
293.84219
293.79491
293.76118
293.73761
293.72152
293.7108
293.70387
293.69952
293.69689
293.69535
293.6945
293.69404
293.6938
293.69369
293.69363
293.69361
293.6936
293.69359
293.69359
308.56622
306.90694
305.39574
304.00758
302.72709
301.54543
300.45817
299.46365
298.56171
297.75252
297.03572
296.40971
295.87128
295.41553
295.03605
294.72524
294.47486
294.27643
294.12171
294.00302
293.91345
293.84698
293.79851
293.76383
293.7395
293.72282
293.71166
293.7044
293.69981
293.69702
293.69537
293.69445
293.69394
293.69368
293.69355
293.69349
293.69346
293.69345
293.69345
293.69345
308.58369
306.92813
305.42025
304.03497
302.75689
301.57708
300.49103
299.49704
298.5949
297.78481
297.06645
296.43833
295.89737
295.43883
295.05643
294.74274
294.48959
294.28861
294.13161
294.01092
293.91965
293.85175
293.80211
293.76648
293.74141
293.72414
293.71253
293.70494
293.70012
293.69716
293.6954
293.6944
293.69386
293.69357
293.69343
293.69336
293.69332
293.69331
293.6933
293.6933
308.6007
306.94877
305.44412
304.06166
302.78592
301.60792
300.52308
299.52962
298.62731
297.81636
297.09652
296.46636
295.92296
295.46171
295.07648
294.75996
294.50412
294.30065
294.14141
294.01876
293.92581
293.85651
293.80571
293.76914
293.74332
293.72548
293.71343
293.7055
293.70044
293.69731
293.69544
293.69437
293.69377
293.69346
293.6933
293.69322
293.69318
293.69317
293.69316
293.69316
308.61728
306.96888
305.46737
304.08766
302.81422
301.638
300.55435
299.56143
298.65898
297.84723
297.12595
296.49384
295.94808
295.48419
295.09621
294.77694
294.51846
294.31255
294.15111
294.02654
293.93194
293.86125
293.80931
293.77181
293.74525
293.72683
293.71434
293.70608
293.70077
293.69747
293.69549
293.69433
293.69369
293.69335
293.69317
293.69308
293.69304
293.69302
293.69302
293.69302
308.63344
306.98848
305.49005
304.11302
302.84183
301.66735
300.58487
299.59249
298.68994
297.87742
297.15478
296.52078
295.97273
295.50629
295.11562
294.79367
294.53261
294.32431
294.16071
294.03425
293.93802
293.86597
293.8129
293.77449
293.74719
293.72819
293.71526
293.70667
293.70112
293.69765
293.69554
293.69431
293.69362
293.69324
293.69305
293.69295
293.6929
293.69288
293.69287
293.69287
308.64921
307.0076
305.51217
304.13776
302.86877
301.696
300.61467
299.62285
298.72021
297.90697
297.18302
296.5472
295.99693
295.52801
295.13473
294.81016
294.54658
294.33593
294.17022
294.0419
293.94407
293.87067
293.81648
293.77716
293.74914
293.72957
293.7162
293.70727
293.70148
293.69783
293.6956
293.69429
293.69355
293.69314
293.69293
293.69282
293.69277
293.69274
293.69273
293.69273
308.66459
307.02627
305.53376
304.16192
302.89507
301.72398
300.6438
299.65253
298.74983
297.93591
297.2107
296.57313
296.02071
295.54938
295.15355
294.82642
294.56038
294.34743
294.17964
294.04948
293.95008
293.87535
293.82006
293.77984
293.7511
293.73096
293.71715
293.70789
293.70185
293.69802
293.69567
293.69428
293.69348
293.69304
293.69281
293.69269
293.69263
293.6926
293.69259
293.69259
308.67961
307.04449
305.55484
304.1855
302.92076
301.75132
300.67227
299.68156
298.77882
297.96425
297.23783
296.59857
296.04407
295.57039
295.17208
294.84245
294.574
294.35879
294.18896
294.05701
293.95605
293.88
293.82363
293.78252
293.75307
293.73237
293.71811
293.70852
293.70224
293.69823
293.69575
293.69427
293.69342
293.69294
293.69269
293.69256
293.69249
293.69246
293.69245
293.69245
308.69429
307.06229
305.57544
304.20855
302.94587
301.77805
300.70012
299.70997
298.8072
297.99203
297.26445
296.62354
296.06703
295.59107
295.19034
294.85827
294.58745
294.37003
294.1982
294.06447
293.96198
293.88464
293.82719
293.7852
293.75504
293.73378
293.71909
293.70917
293.70263
293.69844
293.69584
293.69427
293.69336
293.69285
293.69257
293.69243
293.69236
293.69232
293.69231
293.69231
308.70863
307.07969
305.59557
304.23108
302.97042
301.80419
300.72736
299.73778
298.835
298.01926
297.29056
296.64807
296.0896
295.61142
295.20833
294.87387
294.60073
294.38115
294.20735
294.07187
293.96788
293.88926
293.83074
293.78788
293.75702
293.7352
293.72008
293.70982
293.70304
293.69867
293.69593
293.69428
293.69331
293.69276
293.69246
293.6923
293.69222
293.69218
293.69217
293.69216
308.72265
307.0967
305.61526
304.25311
302.99443
301.82977
300.75403
299.76501
298.86225
298.04596
297.3162
296.67217
296.1118
295.63146
295.22606
294.88927
294.61386
294.39215
294.21641
294.07921
293.97373
293.89385
293.83428
293.79056
293.759
293.73663
293.72108
293.71049
293.70346
293.6989
293.69604
293.69429
293.69326
293.69267
293.69235
293.69218
293.69209
293.69205
293.69203
293.69203
308.73637
307.11334
305.63451
304.27466
303.01793
301.85481
300.78014
299.79169
298.88895
298.07215
297.34136
296.69585
296.13363
295.65118
295.24354
294.90447
294.62683
294.40303
294.22538
294.0865
293.97955
293.89842
293.83781
293.79324
293.76099
293.73807
293.72208
293.71117
293.70388
293.69915
293.69615
293.69431
293.69322
293.69259
293.69224
293.69205
293.69196
293.69191
293.69189
293.69189
308.7498
307.12963
305.65336
304.29576
303.04093
301.87932
300.80572
299.81784
298.91514
298.09785
297.36607
296.71913
296.15511
295.67062
295.26078
294.91947
294.63965
294.4138
294.23427
294.09373
293.98533
293.90297
293.84133
293.79591
293.76298
293.73952
293.7231
293.71186
293.70432
293.6994
293.69627
293.69433
293.69318
293.69251
293.69213
293.69193
293.69183
293.69178
293.69175
293.69175
308.76294
307.14557
305.67181
304.31642
303.06346
301.90333
300.83078
299.84347
298.94083
298.12308
297.39035
296.74202
296.17625
295.68976
295.27777
294.93428
294.65232
294.42445
294.24309
294.1009
293.99107
293.9075
293.84484
293.79859
293.76498
293.74097
293.72413
293.71255
293.70477
293.69966
293.69639
293.69437
293.69315
293.69243
293.69203
293.69181
293.6917
293.69164
293.69162
293.69161
308.77581
307.16118
305.68988
304.33665
303.08553
301.92686
300.85535
299.86861
298.96604
298.14785
297.4142
296.76453
296.19707
295.70862
295.29454
294.9489
294.66485
294.435
294.25182
294.10801
293.99678
293.912
293.84834
293.80126
293.76698
293.74243
293.72517
293.71326
293.70523
293.69993
293.69653
293.6944
293.69312
293.69236
293.69193
293.69169
293.69157
293.69151
293.69148
293.69147
308.78841
307.17648
305.70759
304.35647
303.10716
301.94993
300.87944
299.89327
298.99079
298.17219
297.43765
296.78667
296.21756
295.72721
295.31108
294.96335
294.67724
294.44544
294.26047
294.11507
294.00245
293.91648
293.85183
293.80392
293.76898
293.7439
293.72621
293.71398
293.70569
293.70021
293.69667
293.69445
293.69309
293.69229
293.69183
293.69158
293.69144
293.69138
293.69135
293.69134
308.80077
307.19147
305.72494
304.37591
303.12836
301.97255
300.90307
299.91747
299.01508
298.19609
297.46071
296.80846
296.23774
295.74554
295.32741
294.97761
294.68949
294.45577
294.26905
294.12207
294.00808
293.92094
293.8553
293.80659
293.77098
293.74537
293.72726
293.7147
293.70617
293.70049
293.69682
293.6945
293.69307
293.69223
293.69174
293.69146
293.69132
293.69124
293.69121
293.6912
308.81288
307.20617
305.74195
304.39496
303.14915
301.99473
300.92626
299.94123
299.03894
298.21959
297.48338
296.82991
296.25763
295.76361
295.34352
294.99171
294.7016
294.466
294.27755
294.12902
294.01368
293.92538
293.85877
293.80924
293.77298
293.74684
293.72832
293.71544
293.70665
293.70079
293.69697
293.69455
293.69306
293.69217
293.69165
293.69135
293.69119
293.69111
293.69108
293.69107
308.82476
307.22058
305.75864
304.41365
303.16955
302.0165
300.94902
299.96455
299.06238
298.24268
297.50569
296.85102
296.27722
295.78144
295.35942
295.00564
294.71358
294.47613
294.28597
294.13592
294.01924
293.9298
293.86222
293.8119
293.77498
293.74832
293.72939
293.71618
293.70714
293.70109
293.69714
293.69462
293.69305
293.69211
293.69156
293.69124
293.69107
293.69099
293.69095
293.69094
308.83642
307.23473
305.77501
304.43199
303.18957
302.03787
300.97137
299.98747
299.08542
298.26539
297.52763
296.87181
296.29652
295.79902
295.37512
295.01941
294.72544
294.48617
294.29433
294.14277
294.02476
293.93419
293.86566
293.81455
293.77699
293.74981
293.73046
293.71693
293.70764
293.7014
293.69731
293.69468
293.69305
293.69205
293.69147
293.69114
293.69095
293.69086
293.69082
293.69081
308.84786
307.2486
305.79107
304.44999
303.20921
302.05885
300.99332
300.00998
299.10807
298.28773
297.54923
296.89229
296.31556
295.81636
295.39063
295.03301
294.73716
294.4961
294.30261
294.14956
294.03025
293.93856
293.86909
293.81719
293.77899
293.7513
293.73154
293.71769
293.70815
293.70172
293.69748
293.69476
293.69305
293.692
293.69139
293.69103
293.69084
293.69073
293.69069
293.69068
308.85908
307.26222
305.80684
304.46766
303.22851
302.07946
301.01488
300.0321
299.13033
298.3097
297.5705
296.91246
296.33432
295.83348
295.40595
295.04647
294.74877
294.50595
294.31082
294.15631
294.03571
293.94291
293.8725
293.81983
293.781
293.75279
293.73263
293.71845
293.70867
293.70205
293.69767
293.69484
293.69305
293.69196
293.69131
293.69093
293.69072
293.69061
293.69056
293.69055
308.87011
307.2756
305.82233
304.48501
303.24746
302.0997
301.03607
300.05385
299.15223
298.33133
297.59144
296.93234
296.35283
295.85037
295.42108
295.05977
294.76026
294.5157
294.31896
294.16301
294.04114
293.94724
293.87591
293.82247
293.783
293.75429
293.73372
293.71922
293.70919
293.70238
293.69786
293.69492
293.69306
293.69192
293.69123
293.69083
293.69061
293.69049
293.69044
293.69043
308.88094
307.28874
305.83754
304.50205
303.26607
302.11959
301.05689
300.07524
299.17377
298.35261
297.61206
296.95193
296.37108
295.86705
295.43602
295.07292
294.77162
294.52536
294.32704
294.16965
294.04653
293.95155
293.8793
293.8251
293.78501
293.75579
293.73481
293.72
293.70972
293.70272
293.69805
293.69501
293.69308
293.69188
293.69116
293.69073
293.69049
293.69037
293.69032
293.6903
308.89157
307.30165
305.85249
304.5188
303.28437
302.13914
301.07737
300.09627
299.19497
298.37356
297.63237
296.97124
296.38908
295.88351
295.45079
295.08593
294.78288
294.53493
294.33505
294.17625
294.05188
293.95583
293.88267
293.82772
293.78701
293.75729
293.73591
293.72078
293.71025
293.70307
293.69826
293.69511
293.6931
293.69185
293.69109
293.69064
293.69038
293.69025
293.69019
293.69018
308.90203
307.31433
305.86718
304.53526
303.30235
302.15836
301.0975
300.11696
299.21583
298.39419
297.65238
296.99028
296.40684
295.89977
295.46539
295.09879
294.79402
294.54441
294.343
294.1828
294.05721
293.96009
293.88604
293.83033
293.78901
293.75879
293.73702
293.72157
293.7108
293.70342
293.69847
293.69521
293.69313
293.69182
293.69102
293.69055
293.69028
293.69014
293.69007
293.69006
308.9123
307.3268
305.88161
304.55145
303.32003
302.17726
301.11731
300.13732
299.23636
298.41451
297.67211
297.00906
296.42438
295.91582
295.47982
295.11152
294.80505
294.55382
294.35088
294.18931
294.0625
293.96434
293.88939
293.83295
293.79101
293.7603
293.73812
293.72236
293.71135
293.70378
293.69868
293.69532
293.69316
293.69179
293.69095
293.69046
293.69017
293.69002
293.68996
293.68994
308.92241
307.33906
305.89581
304.56736
303.33742
302.19585
301.1368
300.15736
299.25658
298.43453
297.69155
297.02758
296.44168
295.93168
295.49408
295.12412
294.81598
294.56313
294.3587
294.19577
294.06776
293.96856
293.89273
293.83555
293.79301
293.7618
293.73924
293.72316
293.7119
293.70415
293.69891
293.69544
293.69319
293.69177
293.69089
293.69037
293.69007
293.68991
293.68984
293.68982
308.93234
307.35112
305.90977
304.58301
303.35453
302.21414
301.15597
300.17709
299.27649
298.45425
297.71071
297.04585
296.45876
295.94735
295.50818
295.13658
294.8268
294.57237
294.36645
294.20219
294.07299
293.97276
293.89606
293.83815
293.79501
293.76331
293.74035
293.72397
293.71246
293.70452
293.69913
293.69556
293.69323
293.69175
293.69084
293.69029
293.68997
293.6898
293.68973
293.68971
308.94212
307.36298
305.92351
304.59841
303.37136
302.23215
301.17485
300.19651
299.29611
298.47369
297.72961
297.06388
296.47563
295.96283
295.52213
295.14891
294.83751
294.58152
294.37415
294.20856
294.07818
293.97694