/*--------------------------------*- C++ -*----------------------------------*\
| =========                 |                                                 |
| \\      /  F ield         | OpenFOAM: The Open Source CFD Toolbox           |
|  \\    /   O peration     | Version:  3.0.1                                 |
|   \\  /    A nd           | Web:      www.OpenFOAM.org                      |
|    \\/     M anipulation  |                                                 |
\*---------------------------------------------------------------------------*/
FoamFile
{
    version     2.0;
    format      ascii;
    class       volVectorField;
    location    "2736";
    object      U;
}
// * * * * * * * * * * * * * * * * * * * * * * * * * * * * * * * * * * * * * //

dimensions      [0 1 -1 0 0 0 0];

internalField   nonuniform List<vector> 
4000
(
(8.7186944e-06 -7.9033461e-19 0.021156974)
(-1.401535e-05 -1.8783534e-18 0.049933593)
(-4.3510325e-05 -2.8935049e-18 0.070293104)
(-9.1614044e-05 -3.8199592e-18 0.084309299)
(-0.00014470774 -4.269455e-18 0.093637604)
(-0.00019443779 -4.7178785e-18 0.099581252)
(-0.00023437716 -5.1643977e-18 0.10314051)
(-0.00026175623 -5.5998244e-18 0.10505986)
(-0.00027651584 -5.6048974e-18 0.10587561)
(-0.00028040954 -5.5800568e-18 0.10596171)
(-0.00027602295 -5.5584045e-18 0.1055707)
(-0.00026606198 -5.5897104e-18 0.10486795)
(-0.00025291541 -5.7219425e-18 0.10395866)
(-0.00023845257 -5.9306994e-18 0.10290807)
(-0.00022399189 -6.1585187e-18 0.10175574)
(-0.00021036583 -6.4196832e-18 0.10052533)
(-0.00019802716 -6.7670903e-18 0.099230867)
(-0.00018715825 -7.8330985e-18 0.097880497)
(-0.00017776599 -8.9377116e-18 0.096478644)
(-0.00016975292 -1.0088593e-17 0.095026986)
(-0.0001629653 -1.1315488e-17 0.09352472)
(-0.00015722291 -1.2617626e-17 0.091968357)
(-0.00015233474 -1.2850202e-17 0.090351173)
(-0.00014810972 -1.0904434e-17 0.088662421)
(-0.00014435836 -1.0290913e-17 0.086886331)
(-0.00014089334 -8.7846807e-18 0.085000922)
(-0.00013753533 -7.4005982e-18 0.082976644)
(-0.0001341018 -7.3348916e-18 0.080774858)
(-0.00013042768 -7.3303883e-18 0.078346207)
(-0.00012632712 -7.456178e-18 0.075628898)
(-0.0001216683 -6.8565395e-18 0.072547043)
(-0.00011623677 -4.7540646e-18 0.069009057)
(-0.00010998891 -2.8988778e-18 0.064906459)
(-0.00010258525 -1.2332025e-18 0.060112792)
(-9.4223213e-05 2.7347244e-19 0.054483438)
(-8.4092955e-05 1.6298256e-18 0.047854591)
(-7.3037448e-05 1.7830524e-18 0.040043572)
(-5.8363231e-05 9.6608053e-19 0.030842715)
(-4.2664838e-05 8.0839171e-19 0.02001358)
(-1.3361908e-05 2.5577588e-19 0.0072441226)
(-1.154695e-05 -9.52686e-19 0.022760258)
(-0.00012062213 -2.1048968e-18 0.053454734)
(-0.00028630153 -3.222411e-18 0.074705686)
(-0.00047305786 -4.30465e-18 0.088808017)
(-0.0006516758 -4.5141879e-18 0.097694176)
(-0.00080264999 -4.8031506e-18 0.10292704)
(-0.00091428732 -5.1113818e-18 0.10570698)
(-0.00098268318 -5.4173998e-18 0.10690689)
(-0.0010099235 -5.6109268e-18 0.1071278)
(-0.0010020789 -5.6915866e-18 0.10676175)
(-0.00096718889 -5.8460017e-18 0.10605093)
(-0.00091362357 -6.1257502e-18 0.10513683)
(-0.00084896143 -5.9656524e-18 0.10409739)
(-0.00077937928 -5.9880718e-18 0.102973)
(-0.00070946153 -6.0865392e-18 0.10178331)
(-0.00064229826 -6.1808793e-18 0.10053744)
(-0.00057973682 -6.5249681e-18 0.099239575)
(-0.00052269304 -7.8947525e-18 0.097891686)
(-0.00047144066 -9.2437273e-18 0.096494541)
(-0.00042584901 -1.0236035e-17 0.095047818)
(-0.00038555948 -1.1467134e-17 0.093549707)
(-0.00035009868 -1.2963534e-17 0.091996272)
(-0.00031894998 -1.297568e-17 0.09038064)
(-0.00029158832 -1.0989903e-17 0.088692062)
(-0.00026750062 -1.0496548e-17 0.086914845)
(-0.00024618964 -8.8256112e-18 0.085027115)
(-0.00022717963 -7.3886321e-18 0.082999451)
(-0.00021001076 -7.3423275e-18 0.080793357)
(-0.00019425122 -7.3389387e-18 0.078359624)
(-0.00017947478 -7.407944e-18 0.075636623)
(-0.00016531475 -6.598358e-18 0.072548626)
(-0.0001513672 -4.4848997e-18 0.069004234)
(-0.0001373907 -2.8750645e-18 0.064895112)
(-0.00012294819 -1.2375417e-18 0.060094991)
(-0.00010806624 2.6537297e-19 0.054459244)
(-9.2018984e-05 1.5961848e-18 0.047824125)
(-7.5433317e-05 1.6759384e-18 0.040006084)
(-5.6075972e-05 1.0393642e-18 0.030796266)
(-3.611964e-05 8.130737e-19 0.019950491)
(-6.6337229e-06 2.2538231e-19 0.0071674178)
(-1.1094271e-05 -7.0132667e-19 0.024596815)
(-0.00012717243 -1.7876734e-18 0.057777049)
(-0.00031772214 -2.747889e-18 0.080516156)
(-0.00054764845 -3.5143205e-18 0.095176548)
(-0.00078521313 -4.1094422e-18 0.10386209)
(-0.0010041134 -4.6366384e-18 0.1083718)
(-0.001184384 -5.0254311e-18 0.11015137)
(-0.0013142694 -5.3518434e-18 0.11028209)
(-0.0013899521 -5.4802386e-18 0.10951212)
(-0.0014142487 -5.4503475e-18 0.10831625)
(-0.0013945796 -5.3433575e-18 0.10696587)
(-0.0013408041 -5.8420873e-18 0.10559485)
(-0.0012633305 -5.9842276e-18 0.10425312)
(-0.0011717332 -6.0586033e-18 0.10294556)
(-0.0010739371 -6.1813127e-18 0.10165741)
(-0.00097590684 -6.4340539e-18 0.10036887)
(-0.00088170994 -6.9904927e-18 0.099062225)
(-0.00079380164 -8.0183167e-18 0.097724198)
(-0.0007134023 -9.2799255e-18 0.096345753)
(-0.0006408718 -1.054924e-17 0.094920711)
(-0.00057602277 -1.1174527e-17 0.09344404)
(-0.00051835908 -1.2284314e-17 0.091910198)
(-0.00046723111 -1.2087615e-17 0.090311625)
(-0.00042193208 -1.1066614e-17 0.088637378)
(-0.00038175174 -1.0269524e-17 0.086871807)
(-0.00034599924 -8.8686701e-18 0.084993201)
(-0.0003140145 -7.6618034e-18 0.082972348)
(-0.00028516837 -7.3872929e-18 0.080770986)
(-0.00025887368 -7.3219679e-18 0.078340148)
(-0.00023456556 -7.2495785e-18 0.075618456)
(-0.00021174301 -6.3782856e-18 0.072530433)
(-0.00018989724 -4.269845e-18 0.068984938)
(-0.00016866786 -2.8279638e-18 0.064873875)
(-0.00014756245 -1.2371529e-18 0.060071221)
(-0.0001264758 2.3959322e-19 0.054432491)
(-0.00010473046 1.4478194e-18 0.047794053)
(-8.2687747e-05 1.4744044e-18 0.039971972)
(-5.8567494e-05 1.0705768e-18 0.030756909)
(-3.3525224e-05 8.3717054e-19 0.019904913)
(-4.9019308e-06 2.4973269e-19 0.0071355708)
(-9.3872326e-06 -5.1036249e-19 0.02626889)
(-0.00011555446 -1.4837371e-18 0.061882718)
(-0.00029781529 -2.3385423e-18 0.086309028)
(-0.00052874783 -3.0007829e-18 0.10189121)
(-0.00078183216 -3.9287765e-18 0.11077884)
(-0.0010316093 -4.8337618e-18 0.11489388)
(-0.0012552552 -5.0251091e-18 0.11586003)
(-0.001435564 -5.2679213e-18 0.11495264)
(-0.0015623188 -5.4615293e-18 0.113093)
(-0.0016324904 -5.5029139e-18 0.11088478)
(-0.0016492338 -5.4210504e-18 0.10867682)
(-0.0016201581 -5.305698e-18 0.1066341)
(-0.0015553454 -5.8227915e-18 0.10480325)
(-0.0014655312 -6.0893832e-18 0.10316486)
(-0.0013607064 -6.3728472e-18 0.1016707)
(-0.0012492426 -6.7169363e-18 0.10026685)
(-0.0011375153 -7.4578226e-18 0.098905866)
(-0.0010299179 -8.1655309e-18 0.097551315)
(-0.00092912947 -9.0825827e-18 0.096177664)
(-0.00083649696 -1.0347417e-17 0.094767917)
(-0.00075242932 -1.105299e-17 0.093310497)
(-0.00067673821 -1.148665e-17 0.091796213)
(-0.00060889249 -1.1464657e-17 0.090215665)
(-0.00054819114 -1.1178476e-17 0.088557105)
(-0.00049387025 -9.969028e-18 0.086804632)
(-0.00044515751 -8.9060232e-18 0.084936554)
(-0.00040130132 -8.0607776e-18 0.082923811)
(-0.00036158074 -7.4745342e-18 0.080728347)
(-0.00032531502 -7.2798239e-18 0.078301436)
(-0.00029185283 -6.9917776e-18 0.075581952)
(-0.00026060685 -6.1468689e-18 0.072494684)
(-0.00023099778 -4.331498e-18 0.068948762)
(-0.00020257818 -2.7993488e-18 0.06483636)
(-0.00017481709 -1.2379944e-18 0.060031712)
(-0.00014750327 1.8996684e-19 0.054390508)
(-0.00012000842 1.1957512e-18 0.0477492)
(-9.2456192e-05 1.3969508e-18 0.039923511)
(-6.3486646e-05 1.0673405e-18 0.030703768)
(-3.3803398e-05 6.8199136e-19 0.019848172)
(-4.3780111e-06 2.6322413e-19 0.0070962056)
(-8.1073981e-06 -5.8643563e-19 0.027747747)
(-0.00010382265 -1.5014692e-18 0.065600454)
(-0.00027210655 -2.3493246e-18 0.091698959)
(-0.00049140343 -3.0601285e-18 0.10834959)
(-0.00074066402 -3.7507431e-18 0.1176947)
(-0.00099791116 -4.48009e-18 0.1217056)
(-0.0012413073 -5.0165607e-18 0.12211359)
(-0.0014519931 -5.3614712e-18 0.12034013)
(-0.0016160838 -5.5400222e-18 0.11746167)
(-0.0017258934 -5.7591455e-18 0.11421914)
(-0.0017800053 -6.0692905e-18 0.11106364)
(-0.0017823822 -5.9153653e-18 0.1082218)
(-0.0017408516 -6.0656528e-18 0.10576462)
(-0.0016653639 -6.3167103e-18 0.10366869)
(-0.0015663715 -6.5813022e-18 0.10186377)
(-0.00145356 -6.9291146e-18 0.10026561)
(-0.001335033 -7.5302761e-18 0.098795524)
(-0.0012169505 -8.3331147e-18 0.097389474)
(-0.0011035382 -9.1939274e-18 0.096000181)
(-0.00099734279 -1.0034625e-17 0.094595032)
(-0.00089960427 -1.1136245e-17 0.093152146)
(-0.0008106466 -1.1389696e-17 0.09165608)
(-0.0007302102 -1.1539404e-17 0.090093955)
(-0.00065770526 -1.093512e-17 0.088452276)
(-0.00059238382 -9.9030112e-18 0.086714384)
(-0.00053343866 -8.9146875e-18 0.084858364)
(-0.00048006202 -8.1149305e-18 0.082855189)
(-0.00043146953 -7.5321477e-18 0.080666965)
(-0.00038691613 -7.2364935e-18 0.078245185)
(-0.00034569252 -6.8638281e-18 0.075528979)
(-0.00030715261 -5.9604544e-18 0.072443405)
(-0.00027067231 -4.5632966e-18 0.068897883)
(-0.0002357483 -2.8056628e-18 0.064784873)
(-0.00020183306 -1.2429838e-18 0.059978886)
(-0.0001686379 1.4250293e-19 0.054335815)
(-0.00013559085 1.1044311e-18 0.047692205)
(-0.00010263731 1.4348152e-18 0.03986358)
(-6.8784038e-05 1.0593455e-18 0.030640437)
(-3.4653421e-05 6.0330043e-19 0.019785206)
(-4.0423954e-06 2.2025422e-19 0.007057783)
(-7.1922169e-06 -7.5522212e-19 0.029081287)
(-9.4422016e-05 -1.6921594e-18 0.068993553)
(-0.00024989565 -2.5609373e-18 0.096692376)
(-0.00045591826 -3.4302334e-18 0.11445153)
(-0.00069552552 -3.7237867e-18 0.12439084)
(-0.00095017017 -4.0773716e-18 0.12849535)
(-0.0012002053 -4.7760686e-18 0.12855777)
(-0.001427173 -5.2822472e-18 0.12610252)
(-0.0016157752 -5.6802402e-18 0.12233173)
(-0.0017555164 -5.9344427e-18 0.11811209)
(-0.0018414656 -6.2111242e-18 0.11400168)
(-0.001874105 -6.4962616e-18 0.11030426)
(-0.001858421 -6.4154998e-18 0.10713531)
(-0.0018025312 -6.5426951e-18 0.10448648)
(-0.0017161635 -6.7970004e-18 0.10228032)
(-0.0016092572 -7.0668621e-18 0.10041135)
(-0.0014908702 -7.4927974e-18 0.098773238)
(-0.0013684834 -8.5057595e-18 0.097273982)
(-0.0012477085 -9.5433336e-18 0.095841769)
(-0.0011323257 -1.0216908e-17 0.094424719)
(-0.0010245411 -1.1045911e-17 0.092987175)
(-0.00092535099 -1.1584741e-17 0.091504663)
(-0.0008349123 -1.1586334e-17 0.089958876)
(-0.00075285721 -1.0594778e-17 0.088333344)
(-0.00067852791 -9.986297e-18 0.086609952)
(-0.00061113125 -8.9015936e-18 0.084766191)
(-0.00054983214 -7.9221509e-18 0.082772892)
(-0.00049380182 -7.5193082e-18 0.080592245)
(-0.00044224422 -7.2016522e-18 0.078175931)
(-0.0003944005 -6.8200951e-18 0.075463322)
(-0.00034957606 -5.8515895e-18 0.072379748)
(-0.00030710821 -4.4987227e-18 0.068834918)
(-0.000266446 -2.7995332e-18 0.064721582)
(-0.00022703047 -1.246962e-18 0.059914534)
(-0.00018850967 1.0857359e-19 0.054269878)
(-0.00015035769 1.1312582e-18 0.04762426)
(-0.00011240101 1.3507254e-18 0.039793154)
(-7.3963679e-05 1.0526376e-18 0.030567778)
(-3.58485e-05 7.1061022e-19 0.019716315)
(-3.8897965e-06 1.8886853e-19 0.0070185456)
(-6.4841673e-06 -5.5144404e-19 0.030296935)
(-8.6741193e-05 -1.169699e-18 0.072112351)
(-0.00023111303 -2.1983066e-18 0.10132818)
(-0.00042457232 -3.0780052e-18 0.12019151)
(-0.0006531156 -3.7210628e-18 0.13079599)
(-0.00090100442 -4.2929386e-18 0.13512353)
(-0.0011508553 -4.8940508e-18 0.13500059)
(-0.0013853942 -5.5009678e-18 0.13202316)
(-0.0015891723 -5.7716543e-18 0.12749206)
(-0.0017502743 -5.9801315e-18 0.12238257)
(-0.0018614253 -6.2336674e-18 0.11735426)
(-0.0019203409 -6.5696334e-18 0.11279264)
(-0.0019293364 -6.6641304e-18 0.1088689)
(-0.0018943777 -6.7785302e-18 0.10560389)
(-0.0018238229 -7.0448968e-18 0.10292641)
(-0.0017270973 -7.3053728e-18 0.10072022)
(-0.0016135004 -7.6720288e-18 0.098857944)
(-0.0014912998 -8.375411e-18 0.097222292)
(-0.0013671786 -8.9490867e-18 0.095716657)
(-0.0012460307 -9.7850951e-18 0.09426785)
(-0.0011310469 -1.1177074e-17 0.092823726)
(-0.0010239864 -1.1400766e-17 0.091348188)
(-0.00092553205 -1.134453e-17 0.089815429)
(-0.00083563517 -1.0600431e-17 0.088204561)
(-0.00075380069 -9.8372361e-18 0.086495111)
(-0.00067929843 -8.9015443e-18 0.08466347)
(-0.0006112969 -8.0175919e-18 0.082680069)
(-0.00054893976 -7.5548825e-18 0.080507061)
(-0.0004913916 -7.3018831e-18 0.078096271)
(-0.00043785157 -6.6749711e-18 0.075387297)
(-0.00038758055 -5.5326242e-18 0.072305744)
(-0.00033988339 -4.3758101e-18 0.068761618)
(-0.00029416774 -2.7773245e-18 0.064647971)
(-0.00024986111 -1.2503497e-18 0.059839887)
(-0.00020656217 8.0973938e-20 0.054193696)
(-0.00016378062 1.1002103e-18 0.047546174)
(-0.00012127331 1.1753837e-18 0.039712926)
(-7.8643273e-05 1.0223469e-18 0.030486474)
(-3.7028991e-05 6.7326126e-19 0.019641891)
(-3.7757168e-06 2.0479948e-19 0.0069781355)
(-5.9237502e-06 -2.1228134e-19 0.031417779)
(-8.0428865e-05 -9.3787203e-19 0.075004142)
(-0.00021533726 -1.5150732e-18 0.10565634)
(-0.00039754965 -1.8465196e-18 0.12560042)
(-0.00061524574 -3.049376e-18 0.13690452)
(-0.00085490669 -3.9893483e-18 0.1415395)
(-0.0011011659 -4.7311649e-18 0.14134901)
(-0.0013381354 -5.3492037e-18 0.13797889)
(-0.0015508264 -5.7534379e-18 0.13280703)
(-0.0017267687 -5.9290948e-18 0.12690057)
(-0.001857251 -6.0367888e-18 0.12101122)
(-0.0019379678 -6.0059606e-18 0.11560474)
(-0.0019690072 -6.6142866e-18 0.11091293)
(-0.0019542724 -7.038962e-18 0.10699474)
(-0.0019005209 -7.3210882e-18 0.10379558)
(-0.0018162123 -7.8778756e-18 0.10119818)
(-0.0017103564 -8.5330594e-18 0.099061529)
(-0.001591517 -8.6583399e-18 0.097247578)
(-0.0014670811 -9.0239714e-18 0.095636649)
(-0.0013428455 -9.822261e-18 0.094133825)
(-0.0012229132 -1.0581685e-17 0.092668796)
(-0.0011098326 -1.0422743e-17 0.091191732)
(-0.0010048829 -1.0412739e-17 0.089667361)
(-0.00090841528 -1.0484206e-17 0.088068833)
(-0.0008201717 -9.3332476e-18 0.086372267)
(-0.00073953576 -8.8569242e-18 0.084552307)
(-0.00066571216 -8.26669e-18 0.082578633)
(-0.00059783821 -7.6031005e-18 0.080413188)
(-0.00053505095 -7.2196016e-18 0.07800786)
(-0.00047651489 -6.4591639e-18 0.075302453)
(-0.00042145117 -5.4920119e-18 0.072222837)
(-0.00036913302 -4.491563e-18 0.068679322)
(-0.0003189303 -2.777212e-18 0.064565274)
(-0.00027025616 -1.2588428e-18 0.059756074)
(-0.00022266786 3.6070539e-20 0.054108303)
(-0.00017570152 8.8431193e-19 0.047458911)
(-0.00012908584 1.1287973e-18 0.039623838)
(-8.2680484e-05 9.8395779e-19 0.030397493)
(-3.8035731e-05 5.8374574e-19 0.019562674)
(-3.6583774e-06 2.248461e-19 0.0069367302)
(-5.4651474e-06 -7.3301912e-19 0.032460148)
(-7.5136509e-05 -1.8869607e-18 0.077704811)
(-0.00020192529 -2.5340748e-18 0.10971929)
(-0.00037418731 -3.3041516e-18 0.13071316)
(-0.0005817584 -3.5754965e-18 0.142731)
(-0.00081287595 -4.0173991e-18 0.14772902)
(-0.0010538909 -4.5296194e-18 0.14755791)
(-0.0012902691 -4.8271126e-18 0.14389836)
(-0.0015077442 -5.5002335e-18 0.13818873)
(-0.0016937902 -5.9129762e-18 0.13157344)
(-0.0018388811 -6.2468967e-18 0.1248864)
(-0.0019373015 -6.628558e-18 0.11866928)
(-0.0019873881 -6.7496008e-18 0.11321539)
(-0.0019912424 -7.1823642e-18 0.10862669)
(-0.0019540358 -7.3891652e-18 0.1048725)
(-0.0018830633 -7.5247446e-18 0.10184238)
(-0.0017867034 -8.2668432e-18 0.09938875)
(-0.0016734279 -9.0859845e-18 0.097357994)
(-0.0015509816 -1.0066383e-17 0.095610351)
(-0.0014258146 -1.0500038e-17 0.094030089)
(-0.0013028074 -1.0306942e-17 0.092528116)
(-0.0011852596 -1.0725224e-17 0.091039413)
(-0.0010750778 -1.0414084e-17 0.089517555)
(-0.00097307364 -1.0254358e-17 0.087928228)
(-0.00087928453 -9.6596281e-18 0.086243003)
(-0.00079326132 -8.8609441e-18 0.084434025)
(-0.00071428214 -8.2436063e-18 0.082469773)
(-0.00064150199 -7.5810581e-18 0.080311741)
(-0.00057404428 -6.9949983e-18 0.077911774)
(-0.00051104547 -6.3806176e-18 0.075209829)
(-0.00045169471 -5.4149092e-18 0.072132035)
(-0.00039523481 -4.1643747e-18 0.068589004)
(-0.00034100223 -2.734235e-18 0.064474428)
(-0.00028839419 -1.2657831e-18 0.059663998)
(-0.00023693464 -1.5572302e-20 0.054014564)
(-0.00018617951 7.5633452e-19 0.047363319)
(-0.00013585944 1.0761198e-18 0.03952676)
(-8.6081374e-05 1.0344201e-18 0.03030173)
(-3.883403e-05 5.8927824e-19 0.019479362)
(-3.5359835e-06 1.7418468e-19 0.0068945337)
(-5.0818509e-06 -7.4170101e-19 0.033436504)
(-7.0632114e-05 -1.3809856e-18 0.080242677)
(-0.00019039405 -2.4556445e-18 0.11355251)
(-0.00035385949 -3.495794e-18 0.1355628)
(-0.00055215484 -3.8957327e-18 0.14829682)
(-0.00077492371 -4.395334e-18 0.15369468)
(-0.0010099639 -4.9692718e-18 0.15360779)
(-0.0012439827 -5.6058639e-18 0.14974111)
(-0.0014635222 -5.7888464e-18 0.1435808)
(-0.0016562775 -6.0236406e-18 0.13633648)
(-0.0018123158 -6.2748816e-18 0.12891487)
(-0.0019249671 -6.6023976e-18 0.12192813)
(-0.0019912339 -6.9063915e-18 0.11572984)
(-0.0020117146 -7.2614771e-18 0.11046717)
(-0.0019901304 -7.5536884e-18 0.10613809)
(-0.0019325753 -7.8255603e-18 0.10264494)
(-0.0018466144 -8.1031579e-18 0.099839595)
(-0.0017403551 -8.8536333e-18 0.097558034)
(-0.0016216096 -9.3995482e-18 0.095643986)
(-0.0014972365 -1.00599e-17 0.093962737)
(-0.0013727258 -1.0829298e-17 0.092406721)
(-0.0012520488 -1.1077361e-17 0.090894963)
(-0.0011377285 -1.0977088e-17 0.089368604)
(-0.0010310679 -1.0071835e-17 0.087784511)
(-0.00093245264 -9.7428373e-18 0.086108561)
(-0.0008416461 -8.860253e-18 0.08430957)
(-0.00075803872 -8.0312511e-18 0.082354287)
(-0.00068082786 -7.5499498e-18 0.080203456)
(-0.00060913917 -7.1523955e-18 0.077808722)
(-0.00054209313 -6.4392765e-18 0.075110131)
(-0.00047885074 -5.3556081e-18 0.072034044)
(-0.00041862983 -4.098352e-18 0.068491375)
(-0.00036073533 -2.6901934e-18 0.064376145)
(-0.00030454864 -1.2686811e-18 0.059564369)
(-0.00024956764 -4.0013654e-20 0.053913193)
(-0.00019536482 9.2068563e-19 0.04726013)
(-0.00014169655 1.0339941e-18 0.039422472)
(-8.891264e-05 8.9100082e-19 0.030199999)
(-3.9435513e-05 6.3564823e-19 0.019392594)
(-3.4086004e-06 1.9143339e-19 0.0068517633)
(-4.7557332e-06 -2.2598615e-19 0.034356414)
(-6.6744906e-05 -9.6323708e-19 0.082640051)
(-0.00018036679 -1.5581739e-18 0.11718506)
(-0.00033602513 -1.9527746e-18 0.14017839)
(-0.00052587494 -3.2047264e-18 0.15362423)
(-0.00074070355 -4.1088313e-18 0.15944622)
(-0.00096952785 -4.8465614e-18 0.15949247)
(-0.0012001651 -5.4458083e-18 0.15548467)
(-0.0014199699 -5.8214779e-18 0.14894704)
(-0.0016170027 -5.9972864e-18 0.14114441)
(-0.0017811865 -6.1407809e-18 0.13304799)
(-0.001905225 -6.1386051e-18 0.12533488)
(-0.0019851193 -6.796727e-18 0.11841648)
(-0.0020202454 -7.4139006e-18 0.11248577)
(-0.0020130562 -7.9324825e-18 0.10757212)
(-0.0019684992 -8.6040302e-18 0.103595)
(-0.001893253 -8.9773338e-18 0.10041063)
(-0.0017948931 -9.1424485e-18 0.097849201)
(-0.0016810799 -9.3589514e-18 0.095741612)
(-0.0015588608 -9.8897669e-18 0.093936547)
(-0.0014341627 -1.0307881e-17 0.092308963)
(-0.0013115205 -1.0087263e-17 0.090761811)
(-0.0011940317 -1.003408e-17 0.08922296)
(-0.0010834986 -1.0071295e-17 0.087639339)
(-0.00098068625 -9.1372801e-18 0.085970051)
(-0.00088561178 -8.78149e-18 0.084179724)
(-0.00079781249 -8.1675222e-18 0.082232785)
(-0.00071655714 -7.5254028e-18 0.080088866)
(-0.00064099107 -7.0049624e-18 0.077699214)
(-0.00057022863 -6.2307118e-18 0.075003869)
(-0.00050341144 -5.2837754e-18 0.071929387)
(-0.00043973394 -4.2239149e-18 0.068386973)
(-0.000378477 -2.6782175e-18 0.064270979)
(-0.0003190047 -1.2763624e-18 0.059457758)
(-0.00026079403 -8.7734506e-20 0.053804783)
(-0.00020343409 7.108383e-19 0.047149976)
(-0.00014672614 9.7419177e-19 0.039311664)
(-9.1259963e-05 8.5459673e-19 0.030093013)
(-3.9872779e-05 5.2771621e-19 0.019302926)
(-3.2846336e-06 1.9967163e-19 0.006808604)
(-4.4741359e-06 -5.4277929e-19 0.035227425)
(-6.3351216e-05 -1.649633e-18 0.084914837)
(-0.00017155962 -2.1624106e-18 0.12064086)
(-0.00032025117 -2.7117889e-18 0.14458495)
(-0.00050241877 -3.351058e-18 0.15873424)
(-0.0007097921 -4.0736775e-18 0.16499615)
(-0.00093242201 -4.7686755e-18 0.1652129)
(-0.0011591086 -5.3906435e-18 0.16111738)
(-0.0013779832 -5.727091e-18 0.1542643)
(-0.0015775425 -5.9731674e-18 0.14596552)
(-0.0017477324 -6.1980673e-18 0.13724948)
(-0.0018808624 -6.4156847e-18 0.12885287)
(-0.0019721892 -6.9050136e-18 0.12124205)
(-0.0020201094 -7.5633532e-18 0.11465526)
(-0.0020259908 -8.1119401e-18 0.10915486)
(-0.0019937317 -8.6286871e-18 0.10468039)
(-0.0019291268 -9.0774443e-18 0.10109624)
(-0.0018391284 -9.4846537e-18 0.09823073)
(-0.0017310919 -1.0035802e-17 0.095905453)
(-0.0016120753 -1.0223789e-17 0.093955065)
(-0.0014882794 -9.8537473e-18 0.092238516)
(-0.0013646835 -1.0023709e-17 0.090643086)
(-0.0012448952 -9.9623208e-18 0.089082978)
(-0.0011311996 -9.7927732e-18 0.087494343)
(-0.0010247577 -9.1927676e-18 0.085828558)
(-0.000925872 -8.7205311e-18 0.084045218)
(-0.00083425944 -8.1457664e-18 0.082105798)
(-0.00074928552 -7.4834206e-18 0.079968403)
(-0.00067013491 -6.7131693e-18 0.077583646)
(-0.00059592873 -6.1385507e-18 0.074891437)
(-0.00052579587 -5.4076318e-18 0.071818469)
(-0.00045891313 -4.1432608e-18 0.068276221)
(-0.00039453924 -2.6590095e-18 0.064159376)
(-0.00033202289 -1.2868006e-18 0.059344634)
(-0.00027082625 -1.4602371e-19 0.053689832)
(-0.00021055821 5.2501194e-19 0.047033399)
(-0.0001510778 9.9848571e-19 0.039194937)
(-9.3210466e-05 8.2647054e-19 0.029981392)
(-4.0181758e-05 5.1788449e-19 0.019210825)
(-3.1652439e-06 1.7548827e-19 0.0067651988)
(-4.2283798e-06 -9.7541154e-19 0.03605559)
(-6.0357759e-05 -2.0387231e-18 0.087081593)
(-0.00016375385 -3.0759061e-18 0.12393973)
(-0.00030619374 -4.2456849e-18 0.14880387)
(-0.00048136248 -4.0957471e-18 0.16364596)
(-0.00068177792 -4.3850947e-18 0.17035768)
(-0.00089837358 -4.898095e-18 0.1707737)
(-0.0011208183 -5.4085626e-18 0.16663405)
(-0.0013379691 -5.8411283e-18 0.15951794)
(-0.0015387877 -6.1453968e-18 0.15077754)
(-0.0017133448 -6.5471863e-18 0.1414922)
(-0.0018537212 -7.090988e-18 0.13245328)
(-0.0019546278 -7.1925562e-18 0.12417904)
(-0.0020136764 -7.5998096e-18 0.11695193)
(-0.0020313209 -8.0229138e-18 0.11086792)
(-0.0020105253 -8.2235708e-18 0.10588863)
(-0.0019562402 -8.6333386e-18 0.10188948)
(-0.0018747628 -9.4947934e-18 0.098700211)
(-0.0017730425 -1.0162417e-17 0.096136215)
(-0.0016580116 -1.0263443e-17 0.094020706)
(-0.0015360048 -1.0263842e-17 0.092198355)
(-0.0014123266 -1.071836e-17 0.090541574)
(-0.0012910163 -1.0569302e-17 0.088950892)
(-0.0011748089 -9.7045944e-18 0.087351138)
(-0.0010652613 -9.5852922e-18 0.085685174)
(-0.00096298139 -8.7335086e-18 0.083906777)
(-0.00086789389 -7.9975249e-18 0.081973826)
(-0.00077948588 -7.4238282e-18 0.079842453)
(-0.00069700168 -6.7503782e-18 0.077462353)
(-0.0006195809 -6.1746951e-18 0.074773155)
(-0.00054634871 -5.2776074e-18 0.071701619)
(-0.00047646972 -3.8735657e-18 0.068159464)
(-0.00040918411 -2.6152707e-18 0.064041701)
(-0.00034382812 -1.2946764e-18 0.059225388)
(-0.00027985259 -1.8186084e-19 0.053568763)
(-0.00021688791 5.7565204e-19 0.046910867)
(-0.00015486451 9.3037009e-19 0.039072812)
(-9.4839383e-05 8.0471375e-19 0.029865663)
(-4.0395352e-05 5.7682737e-19 0.019116675)
(-3.0555794e-06 1.5237437e-19 0.0067216525)
(-4.011431e-06 -7.1741606e-19 0.036845851)
(-5.7694542e-05 -1.8035197e-18 0.089152324)
(-0.00015678138 -2.7340331e-18 0.12709826)
(-0.00029357926 -3.5494139e-18 0.15285352)
(-0.00046235441 -4.0880984e-18 0.16837645)
(-0.00065629147 -4.5661345e-18 0.17554371)
(-0.00086708401 -5.1314896e-18 0.17618135)
(-0.0010851687 -5.5941985e-18 0.17203343)
(-0.0013000733 -5.9871369e-18 0.16469898)
(-0.0015012267 -6.3115049e-18 0.15556483)
(-0.0016788902 -6.6260262e-18 0.14575579)
(-0.001825031 -7.0774135e-18 0.1361134)
(-0.0019339623 -7.361799e-18 0.12720486)
(-0.0020026745 -7.6952274e-18 0.11935538)
(-0.0020308523 -8.1454546e-18 0.11269463)
(-0.0020206387 -8.4869761e-18 0.10720757)
(-0.0019762057 -8.873273e-18 0.10278281)
(-0.0019031941 -9.4477811e-18 0.099254112)
(-0.0018080938 -1.0018494e-17 0.096433408)
(-0.0016976141 -1.0255093e-17 0.094134891)
(-0.0015781045 -1.032032e-17 0.092190781)
(-0.0014550858 -1.0528063e-17 0.090459686)
(-0.0013329454 -1.0318268e-17 0.08882878)
(-0.0012148221 -9.798759e-18 0.087211304)
(-0.0011026555 -9.4274585e-18 0.085541004)
(-0.0009973698 -8.716846e-18 0.083765141)
(-0.00089911812 -7.9903816e-18 0.081837372)
(-0.00080753181 -7.3761257e-18 0.07971138)
(-0.00072193406 -6.7449568e-18 0.077335636)
(-0.00064149679 -6.1239928e-18 0.074649304)
(-0.00056535101 -5.1855274e-18 0.071579117)
(-0.00049265378 -3.8451653e-18 0.068036995)
(-0.00042263047 -2.5791278e-18 0.063918263)
(-0.00035460723 -1.3011782e-18 0.059100351)
(-0.00028802915 -2.1848522e-19 0.053441938)
(-0.00022255149 5.3113003e-19 0.046782789)
(-0.00015818373 8.5332904e-19 0.038945745)
(-9.6209829e-05 7.7197307e-19 0.029746278)
(-4.0538504e-05 5.4087944e-19 0.019020791)
(-2.9555993e-06 1.6353542e-19 0.0066780393)
(-3.8184404e-06 -4.7708515e-19 0.037602294)
(-5.5306952e-05 -1.4226416e-18 0.091137049)
(-0.00015050894 -2.2165856e-18 0.13013044)
(-0.00028218815 -2.7689413e-18 0.15674967)
(-0.00044510436 -3.9445129e-18 0.17294086)
(-0.0006330119 -4.9861527e-18 0.1805664)
(-0.0008382645 -5.2876145e-18 0.18144309)
(-0.0010519796 -5.7053077e-18 0.1773167)
(-0.0012642993 -6.0559074e-18 0.1698022)
(-0.0014651112 -6.295122e-18 0.16031643)
(-0.0016449055 -6.5043016e-18 0.15002491)
(-0.001795617 -6.5689051e-18 0.13981535)
(-0.001911275 -7.1757118e-18 0.13030097)
(-0.0019883743 -7.70614e-18 0.12184821)
(-0.0020259585 -8.2555863e-18 0.11462011)
(-0.0020254553 -8.7293252e-18 0.10862576)
(-0.0019903256 -9.3213604e-18 0.10376849)
(-0.0019255805 -9.5416252e-18 0.099888192)
(-0.0018372271 -9.8080774e-18 0.096795636)
(-0.001731685 -1.0143621e-17 0.094298197)
(-0.0016152248 -1.0197509e-17 0.092217458)
(-0.0014934872 -1.0014828e-17 0.090399442)
(-0.0013711279 -9.9108116e-18 0.088718533)
(-0.0012516326 -9.9726079e-18 0.087076363)
(-0.0011373018 -9.1735483e-18 0.085397157)
(-0.001029375 -8.6742626e-18 0.083621069)
(-0.00092824893 -8.1149932e-18 0.081696947)
(-0.00083371993 -7.3492846e-18 0.079575547)
(-0.00074520594 -6.6891312e-18 0.077203778)
(-0.00066192725 -5.878598e-18 0.074520133)
(-0.00058302894 -5.0662451e-18 0.071451204)
(-0.00050766609 -3.7957982e-18 0.067909062)
(-0.00043505516 -2.5560692e-18 0.063789328)
(-0.00036451426 -1.3098442e-18 0.058969811)
(-0.00029548512 -2.6804993e-19 0.053309676)
(-0.00022765317 3.4801735e-19 0.04664952)
(-0.00016111554 7.7582654e-19 0.038814131)
(-9.7374072e-05 7.2945471e-19 0.02962362)
(-4.0630768e-05 4.1628885e-19 0.018923427)
(-2.8638152e-06 1.7376641e-19 0.0066344092)
(-3.6455282e-06 -8.2373094e-19 0.038328347)
(-5.3152107e-05 -1.824221e-18 0.09304422)
(-0.00014483131 -2.8123241e-18 0.13304822)
(-0.00027184385 -3.8437583e-18 0.16050594)
(-0.0004293728 -4.2083058e-18 0.1773526)
(-0.0006116649 -4.7096761e-18 0.18543702)
(-0.00081165033 -5.0928095e-18 0.1865664)
(-0.0010210526 -5.2833399e-18 0.18248643)
(-0.0012305778 -5.9298531e-18 0.17482492)
(-0.0014305523 -6.3931308e-18 0.16502474)
(-0.0016117171 -6.800454e-18 0.154288)
(-0.0017660335 -7.3564896e-18 0.14354498)
(-0.0018873325 -7.4502211e-18 0.13345217)
(-0.0019717155 -7.815141e-18 0.12441564)
(-0.0020176896 -8.2591375e-18 0.11663126)
(-0.0020260624 -8.4586031e-18 0.11013262)
(-0.0019996549 -8.9001209e-18 0.10483892)
(-0.0019428851 -9.5410321e-18 0.10059782)
(-0.001861274 -9.9958931e-18 0.097220847)
(-0.0017609108 -1.0156673e-17 0.094510509)
(-0.0016479197 -1.0236772e-17 0.092279476)
(-0.0015279779 -1.0367464e-17 0.090362474)
(-0.0014059318 -1.002514e-17 0.088621825)
(-0.0012855591 -9.8239111e-18 0.086947753)
(-0.0011694872 -9.4053949e-18 0.085254727)
(-0.0010592641 -8.6684542e-18 0.083475331)
(-0.0009555384 -8.0431459e-18 0.081553075)
(-0.00085828579 -7.3188756e-18 0.079435318)
(-0.00076703763 -6.6293442e-18 0.077067053)
(-0.00068107417 -5.7969627e-18 0.074385875)
(-0.00059956553 -4.7138384e-18 0.071318101)
(-0.00052167132 -3.5310409e-18 0.067775888)
(-0.00044660264 -2.4890627e-18 0.063655129)
(-0.00037367286 -1.312618e-18 0.058834019)
(-0.00030232556 -3.0754516e-19 0.053172253)
(-0.00023228031 3.2273376e-19 0.046511377)
(-0.00016372495 6.3661939e-19 0.038678319)
(-9.8371594e-05 7.7345247e-19 0.029498017)
(-4.0686416e-05 4.3989828e-19 0.018824792)
(-2.7807828e-06 1.199407e-19 0.0065907962)
(-3.4896612e-06 -6.698752e-19 0.039026911)
(-5.1196048e-05 -1.6846423e-18 0.09488104)
(-0.00013966325 -2.5673431e-18 0.13586183)
(-0.00026240155 -3.3617323e-18 0.16413419)
(-0.00041496125 -3.9052524e-18 0.18162355)
(-0.00059201659 -4.2134645e-18 0.1901659)
(-0.00078700557 -5.1656913e-18 0.19155865)
(-0.00099219358 -6.0132561e-18 0.18754605)
(-0.0011988018 -6.1845435e-18 0.17976616)
(-0.0013975756 -6.5366894e-18 0.16968456)
(-0.001579517 -6.8858079e-18 0.15853634)
(-0.0017366537 -7.3177707e-18 0.14729105)
(-0.0018626836 -7.6167755e-18 0.13664595)
(-0.0019533979 -8.0364026e-18 0.12704512)
(-0.0020068542 -8.5582167e-18 0.11871657)
(-0.0020233226 -9.0505802e-18 0.11171853)
(-0.0020050515 -9.1496065e-18 0.10598683)
(-0.0019559095 -9.5060487e-18 0.10137822)
(-0.0018809427 -9.9221229e-18 0.097706543)
(-0.0017858876 -1.015198e-17 0.094771164)
(-0.0016766716 -1.020799e-17 0.092377426)
(-0.0015589427 -1.0233389e-17 0.090350038)
(-0.0014376705 -1.0168689e-17 0.088540108)
(-0.0013168651 -9.5012629e-18 0.086826802)
(-0.0011994453 -9.2279591e-18 0.085114776)
(-0.0010872525 -8.596908e-18 0.083328703)
(-0.00098118766 -7.8248791e-18 0.081406294)
(-0.00088141844 -7.2572968e-18 0.079291062)
(-0.00078760524 -6.5891002e-18 0.076925732)
(-0.00069910055 -5.9155202e-18 0.074246749)
(-0.00061510899 -4.9285719e-18 0.071180008)
(-0.00053480263 -3.7516885e-18 0.067637669)
(-0.00045739105 -2.4668485e-18 0.063515871)
(-0.0003821857 -1.3130295e-18 0.058693196)
(-0.0003086366 -3.2562699e-19 0.053029918)
(-0.00023650216 4.3004398e-19 0.046368641)
(-0.00016606319 7.2411833e-19 0.038538614)
(-9.923439e-05 6.4834147e-19 0.029369751)
(-4.0716911e-05 5.1935163e-19 0.018725055)