/*--------------------------------*- C++ -*----------------------------------*\
| =========                 |                                                 |
| \\      /  F ield         | OpenFOAM: The Open Source CFD Toolbox           |
|  \\    /   O peration     | Version:  4.0                                   |
|   \\  /    A nd           | Web:      www.OpenFOAM.org                      |
|    \\/     M anipulation  |                                                 |
\*---------------------------------------------------------------------------*/
FoamFile
{
    version     2.0;
    format      ascii;
    class       surfaceScalarField;
    location    "2500";
    object      phi;
}
// * * * * * * * * * * * * * * * * * * * * * * * * * * * * * * * * * * * * * //

dimensions      [1 0 -1 0 0 0 0];

internalField   nonuniform List<scalar> 
261000
(
1.8656618e-13
1.1636583e-12
4.347853e-11
4.1994674e-13
4.2487873e-12
1.6445097e-10
5.9487937e-13
8.8500032e-12
3.5503845e-10
1.0696707e-12
1.538383e-11
6.4699375e-10
2.0513952e-12
2.4935109e-11
1.0845602e-09
3.8381839e-12
3.865844e-11
1.7290955e-09
6.7528421e-12
5.8176042e-11
2.6639113e-09
1.2829099e-11
8.3890695e-11
4.0021131e-09
2.4850214e-11
1.1765831e-10
5.8915904e-09
4.6471023e-11
1.6174466e-10
8.5215567e-09
8.1487034e-11
2.1977431e-10
1.2125224e-08
1.3405322e-10
2.9629517e-10
1.6975118e-08
2.0854767e-10
3.9905658e-10
2.3362084e-08
3.1482349e-10
5.3956712e-10
3.1536778e-08
7.3223611e-10
4.1563974e-08
4.7068494e-10
5.9666785e-13
2.0280744e-12
4.6692782e-11
2.1977306e-12
7.4787978e-12
1.7649308e-10
5.0319979e-12
1.5714922e-11
3.8074312e-10
9.5280654e-12
2.7888464e-11
6.9266819e-10
1.6450824e-11
4.5738609e-11
1.1592226e-09
2.7285202e-11
7.102353e-11
1.8450855e-09
4.482302e-11
1.057921e-10
2.8386812e-09
7.1641605e-11
1.5286117e-10
4.2567157e-09
1.1142899e-10
2.1571474e-10
6.2523266e-09
1.6916143e-10
2.9863887e-10
9.0197313e-09
2.5094913e-10
4.0813957e-10
1.279642e-08
3.6337167e-10
5.5361697e-10
1.785805e-08
5.1402495e-10
7.5057048e-10
2.4498215e-08
7.1628108e-10
1.0233559e-09
3.2974132e-08
1.4086767e-09
4.3375322e-08
9.8373933e-10
1.1073187e-12
2.6129634e-12
5.3241154e-11
4.5457025e-12
9.5913282e-12
2.0099899e-10
1.1203222e-11
2.0138613e-11
4.3291706e-10
2.2796203e-11
3.5638585e-11
7.8632264e-10
4.212801e-11
5.7821553e-11
1.3131754e-09
7.3001288e-11
8.8863601e-11
2.0845482e-09
1.2041745e-10
1.3142792e-10
3.196071e-09
1.9103464e-10
1.8891313e-10
4.7738933e-09
2.9326301e-10
2.6570227e-10
6.9804678e-09
4.3678155e-10
3.6781538e-10
1.0018862e-08
6.3180152e-10
5.0461122e-10
1.4133574e-08
8.8685785e-10
6.9146846e-10
1.960468e-08
1.206091e-09
9.5568695e-10
2.6729606e-08
1.5858577e-09
1.3463454e-09
3.5778363e-08
1.9507842e-09
4.6890881e-08
1.9920605e-09
1.9123449e-12
2.7718707e-12
6.36436e-11
8.0860328e-12
1.0138629e-11
2.3985393e-10
2.0390094e-11
2.1145941e-11
5.1546073e-10
4.203874e-11
3.7083876e-11
9.3370032e-10
7.7595758e-11
5.9542844e-11
1.5541821e-09
1.3336034e-10
9.0513119e-11
2.4574514e-09
2.1777626e-10
1.3242331e-10
3.7503099e-09
3.4185247e-10
1.8833951e-10
5.5712172e-09
5.1933341e-10
2.6234098e-10
8.0948935e-09
7.6643906e-10
3.6039878e-10
1.1534828e-08
1.1012053e-09
4.9232783e-10
1.6142102e-08
1.542694e-09
6.7541522e-10
2.2198311e-08
2.1113902e-09
9.4107696e-10
3.0001307e-08
2.8352949e-09
1.3459985e-09
3.983429e-08
1.9916395e-09
5.1904048e-08
3.7455072e-09
3.6633711e-12
1.7463721e-12
7.8391058e-11
1.5835595e-11
6.4123532e-12
2.9480576e-10
4.0140788e-11
1.3407298e-11
6.3183519e-10
8.218622e-11
2.3565077e-11
1.1406801e-09
1.4953889e-10
3.7897686e-11
1.89107e-09
2.5220824e-10
5.766027e-11
2.9757582e-09
4.0309314e-10
8.4384939e-11
4.5154076e-09
6.1833111e-10
1.2003682e-10
6.6628936e-09
9.1739936e-10
1.6736301e-10
9.605957e-09
1.3229226e-09
2.3071345e-10
1.3566997e-08
1.860561e-09
3.1778684e-10
1.8799106e-08
2.5599939e-09
4.4304466e-10
2.557831e-08
3.4589733e-09
6.3428746e-10
3.4193225e-08
4.6116793e-09
9.465726e-10
4.4930524e-08
1.4998722e-09
5.8054732e-08
6.0705022e-09
5.1813451e-12
9.797214e-11
2.2423567e-11
3.6760742e-10
5.6834411e-11
7.8547637e-10
1.162342e-10
1.4127782e-09
2.1099429e-10
2.3316822e-09
3.5451495e-10
3.6495124e-09
5.6356054e-10
5.5027801e-09
8.5839867e-10
8.0597306e-09
1.2627725e-09
1.1520176e-08
1.8042176e-09
1.6111627e-08
2.5162913e-09
2.2081796e-08
3.4459307e-09
2.9689651e-08
4.6715401e-09
3.9199372e-08
6.3420121e-09
5.0880149e-08
6.5013035e-08
8.747753e-09
3.4032236e-12
1.0318995e-11
2.9754194e-11
1.748524e-11
3.7394055e-11
1.1296926e-10
4.9917496e-11
7.7353555e-11
2.4524273e-10
1.1225372e-10
1.3451999e-10
4.5012072e-10
2.2008056e-10
2.1522677e-10
7.6147858e-10
3.9490786e-10
3.2638933e-10
1.2278327e-09
6.6224057e-10
4.7836774e-10
1.9181352e-09
1.053347e-09
6.8156397e-10
2.9293205e-09
1.5974415e-09
9.5167433e-10
4.3956265e-09
2.3096724e-09
1.310297e-09
6.4987239e-09
3.1686846e-09
1.7899215e-09
9.4758188e-09
4.0852295e-09
2.4392156e-09
1.3618646e-08
4.8622431e-09
3.3364569e-09
1.924757e-08
5.1663309e-09
4.6042314e-09
2.6626526e-08
6.4050409e-09
3.5734811e-08
4.587791e-09
8.4298047e-12
1.6601232e-11
3.1974223e-11
3.934971e-11
6.1612505e-11
1.2133959e-10
1.0458527e-10
1.2958305e-10
2.6325324e-10
2.1946649e-10
2.2944053e-10
4.8282578e-10
4.0522439e-10
3.7252165e-10
8.1610395e-10
6.889313e-10
5.7307582e-10
1.3145869e-09
1.1060099e-09
8.4855406e-10
2.0512507e-09
1.6939697e-09
1.2216945e-09
3.128369e-09
2.4886142e-09
1.7219243e-09
4.6870421e-09
3.5113747e-09
2.3892199e-09
6.9174671e-09
4.7474227e-09
3.282428e-09
1.0067016e-08
6.1156133e-09
4.4887136e-09
1.4439141e-08
7.4330132e-09
6.1476385e-09
2.0367927e-08
8.3854526e-09
8.4871822e-09
2.8136055e-08
1.1873431e-08
3.7755063e-08
8.5337761e-09
1.2957078e-11
2.0320034e-11
3.6557929e-11
6.1829077e-11
7.5115198e-11
1.3860749e-10
1.6619731e-10
1.5773149e-10
3.0037309e-10
3.526013e-10
2.7915982e-10
5.501549e-10
6.5706198e-10
4.5276026e-10
9.2840479e-10
1.1260197e-09
6.9592737e-10
1.4926251e-09
1.8162039e-09
1.0304482e-09
2.323815e-09
2.7921817e-09
1.4846361e-09
3.5347009e-09
4.1178254e-09
2.0967896e-09
5.2795464e-09
5.8373671e-09
2.9235258e-09
7.7644038e-09
7.9417177e-09
4.0560387e-09
1.1254724e-08
1.0354482e-08
5.605718e-09
1.6073638e-08
1.2856045e-08
7.796785e-09
2.2577117e-08
1.4973223e-08
1.1067005e-08
3.1078625e-08
1.619813e-08
4.1654076e-08
1.5881644e-08
1.8628735e-11
2.1515828e-11
4.3811689e-11
8.8113266e-11
7.9569812e-11
1.6589793e-10
2.3608942e-10
1.6624596e-10
3.5894271e-10
5.0075065e-10
2.9196446e-10
6.5619021e-10
9.3325406e-10
4.6950016e-10
1.1048678e-09
1.5997389e-09
7.1515945e-10
1.7716231e-09
2.5815191e-09
1.0492884e-09
2.7495168e-09
3.9720295e-09
1.4983858e-09
4.1666941e-09
5.8679123e-09
2.0991065e-09
6.1962987e-09
8.3494382e-09
2.9101065e-09
9.06614e-09
1.1542652e-08
3.9391047e-09
1.3064976e-08
1.5365441e-08
5.4414153e-09
1.8538611e-08
1.9708949e-08
7.5874904e-09
2.5865375e-08
2.4324609e-08
1.0893193e-08
3.5389774e-08
1.6218395e-08
4.7264535e-08
2.8940151e-08
3.2096428e-11
1.3731727e-11
5.4070964e-11
1.5130284e-10
5.072856e-11
2.0442284e-10
4.0163881e-10
1.0627834e-10
4.414382e-10
8.4221181e-10
1.8687085e-10
8.051549e-10
1.5497826e-09
3.0092138e-10
1.3520056e-09
2.6212511e-09
4.5844571e-10
2.1608913e-09
4.1732176e-09
6.7182822e-10
3.3407301e-09
6.3386332e-09
9.5620757e-10
5.0394e-09
9.2596036e-09
1.3304527e-09
7.4532619e-09
1.3084736e-08
1.8161047e-09
1.0835316e-08
1.7854438e-08
2.4693364e-09
1.5498374e-08
2.3608336e-08
3.4572032e-09
2.180747e-08
3.0292829e-08
4.941342e-09
3.0153219e-08
3.7812954e-08
7.4069671e-09
4.0893943e-08
1.1869783e-08
5.4234847e-08
4.5977664e-08
4.4056222e-11
6.7641697e-11
2.0706497e-10
2.5531431e-10
5.4862048e-10
5.5017902e-10
1.1472203e-09
1.0010173e-09
2.1038041e-09
1.6759697e-09
3.5423949e-09
2.6692899e-09
5.6075573e-09
4.109327e-09
8.4560021e-09
6.1673146e-09
1.2240807e-08
9.0655569e-09
1.7085835e-08
1.3082312e-08
2.3087227e-08
1.8549167e-08
3.0397717e-08
2.5835551e-08
3.9222338e-08
3.5314953e-08
5.0200824e-08
4.730696e-08
6.197448e-08
6.5106817e-08
-2.9704612e-12
3.4217428e-12
2.9301498e-11
-1.4164171e-11
1.2714824e-11
1.1144547e-10
-3.7513068e-11
2.6764632e-11
2.4182207e-10
-7.8053318e-11
4.746474e-11
4.4318793e-10
-1.4210769e-10
7.7333825e-11
7.4818521e-10
-2.3683281e-10
1.1929415e-10
1.2032406e-09
-3.7027654e-10
1.7770792e-10
1.8738331e-09
-5.5015856e-10
2.5780472e-10
2.8513362e-09
-7.8572717e-10
3.6977993e-10
4.2613175e-09
-1.0843666e-09
5.2464412e-10
6.2725663e-09
-1.4486703e-09
7.3581186e-10
9.104076e-09
-1.8720521e-09
1.0183964e-09
1.3023278e-08
-2.3282636e-09
1.3841385e-09
1.8319104e-08
-2.7454973e-09
1.8296918e-09
2.5213049e-08
2.2918983e-09
3.363275e-08
-2.9365211e-09
-2.1787724e-12
5.9225627e-12
3.1648032e-11
-1.0611759e-11
2.219087e-11
1.2028938e-10
-2.8827699e-11
4.7383867e-11
2.6083781e-10
-6.1483884e-11
8.5251068e-11
4.776755e-10
-1.1463742e-10
1.408607e-10
8.0569747e-10
-1.9608068e-10
2.2086007e-10
1.2944111e-09
-3.1494647e-10
3.3429362e-10
2.0134462e-09
-4.8243076e-10
4.938863e-10
3.0596399e-09
-7.0927916e-10
7.1787927e-10
4.5655899e-09
-1.0063883e-09
1.0302069e-09
6.7087112e-09
-1.3759073e-09
1.4550074e-09
9.7168985e-09
-1.8122001e-09
2.0237836e-09
1.3869412e-08
-2.2922007e-09
2.7618218e-09
1.946933e-08
-2.7632404e-09
3.6781539e-09
2.6757226e-08
4.6451053e-09
3.5697023e-08
-3.059949e-09
-1.5754755e-12
7.5166917e-12
3.6534493e-11
-7.4689516e-12
2.8006208e-11
1.3867743e-10
-1.9775764e-11
5.9728887e-11
3.0032114e-10
-4.1086962e-11
1.0751738e-10
5.4917694e-10
-7.4571427e-11
1.7796937e-10
9.2474337e-10
-1.240075e-10
2.8004729e-10
1.4828143e-09
-1.9346553e-10
4.2596241e-10
2.3015097e-09
-2.8592598e-10
6.3186662e-10
3.489035e-09
-4.0374637e-10
9.218073e-10
5.1932145e-09
-5.2983532e-10
1.3078977e-09
7.6124684e-09
-6.4153253e-10
1.8603436e-09
1.0960597e-08
-7.2852058e-10
2.6218921e-09
1.5561821e-08
-7.814137e-10
3.6453305e-09
2.1745516e-08
-8.2708384e-10
5.0090388e-09
2.9791973e-08
6.6901057e-09
3.9757484e-08
-9.7708083e-10
-1.230816e-12
8.2691107e-12
4.428506e-11
-5.3913463e-12
3.0565288e-11
1.6749065e-10
-1.3270841e-11
6.467999e-11
3.6185647e-10
-2.5013314e-11
1.1538835e-10
6.6003744e-10
-3.9736048e-11
1.8929126e-10
1.1082289e-09
-5.4566339e-11
2.9534102e-10
1.7710968e-09
-6.3354558e-11
4.4596503e-10
2.7382025e-09
-5.439182e-11
6.5747457e-10
4.1319561e-09
-1.2268002e-11
9.5893973e-10
6.1167835e-09
8.073063e-11
1.3694327e-09
8.9113124e-09
3.2827204e-10
1.9022488e-09
1.2775101e-08
7.3820445e-10
2.6958527e-09
1.805412e-08
1.3840763e-09
3.758815e-09
2.5105214e-08
2.3242507e-09
5.2030284e-09
3.4254442e-08
7.1027395e-09
4.5659477e-08
3.5151387e-09
2.1363011e-12
5.4926858e-12
5.4706722e-11
1.0234184e-11
2.0265247e-11
2.0661496e-10
2.7732804e-11
4.3048627e-11
4.4555465e-10
6.0374348e-11
7.7097159e-11
8.1077835e-10
1.1719579e-10
1.270355e-10
1.3573981e-09
2.1253431e-10
1.9906417e-10
2.161764e-09
3.6921983e-10
3.0164413e-10
3.3282653e-09
6.2256514e-10
4.4614247e-10
4.9972388e-09
1.0346993e-09
6.4684537e-10
7.3530065e-09
1.702523e-09
9.0763737e-10
1.0628978e-08
2.6236803e-09
1.2903816e-09
1.5188649e-08
3.9395377e-09
1.836985e-09
2.1349879e-08
5.7651866e-09
2.5851969e-09
2.9500379e-08
8.2113023e-09
3.6565538e-09
3.9993143e-08
5.2563771e-09
5.3025053e-08
1.126599e-08
4.9610586e-12
6.8169563e-11
2.3022444e-11
2.5751006e-10
6.183702e-11
5.5440022e-10
1.3333159e-10
1.0065998e-09
2.5563265e-10
1.6806722e-09
4.5589928e-10
2.6680378e-09
7.7429131e-10
4.0925028e-09
1.2687228e-09
6.118912e-09
2.0186897e-09
8.9622688e-09
3.1121089e-09
1.2896294e-08
4.6937807e-09
1.8257551e-08
6.9484905e-09
2.5417392e-08
1.0089693e-08
3.4758397e-08
1.4458968e-08
4.6593565e-08
6.1028243e-08
2.0660785e-08
-6.7060705e-13
4.1595883e-12
2.581294e-11
-2.4382583e-12
1.5212945e-11
9.8001027e-11
-4.9875105e-12
3.1782946e-11
2.1258998e-10
-7.5357116e-12
5.5973241e-11
3.8976549e-10
-8.3594343e-12
9.0534896e-11
6.5847921e-10
-4.3275731e-12
1.3916241e-10
1.0600552e-09
9.9447534e-12
2.0651848e-10
1.6530535e-09
4.6133633e-11
2.978453e-10
2.517321e-09
1.1637905e-10
4.2428147e-10
3.766821e-09
2.3857146e-10
5.9636553e-10
5.5540562e-09
4.3204211e-10
8.3217091e-10
8.0785078e-09
7.1281843e-10
1.156178e-09
1.1586435e-08
1.0785401e-09
1.6044516e-09
1.6349094e-08
1.4787615e-09
2.2256151e-09
2.2587518e-08
3.0703972e-09
3.0270467e-08
1.7710564e-09
1.0413842e-12
6.8557803e-12
2.791143e-11
5.2494087e-12
2.5528473e-11
1.0576798e-10
1.4409538e-11
5.4261223e-11
2.292029e-10
3.1261545e-11
9.7015278e-11
4.197872e-10
5.994474e-11
1.5919391e-10
7.083645e-10
1.0694036e-10
2.4780466e-10
1.138788e-09
1.8227427e-10
3.717752e-10
1.772879e-09
2.9582236e-10
5.446323e-10
2.6993406e-09
4.6769206e-10
7.8146949e-10
4.0365867e-09
7.2261184e-10
1.1041894e-09
5.9460485e-09
1.0893586e-09
1.5438948e-09
8.6385462e-09
1.5928782e-09
2.1477276e-09
1.2374511e-08
2.2386717e-09
2.9853512e-09
1.7442875e-08
2.9814718e-09
4.1530984e-09
2.4087308e-08
5.7806458e-09
3.2308056e-08
3.6606453e-09
2.1647828e-12
9.0934949e-12
3.2132815e-11
1.097889e-11
3.3638562e-11
1.2175495e-10
3.0813036e-11
7.1112932e-11
2.6363789e-10
6.8022003e-11
1.2663304e-10
4.8235432e-10
1.3200972e-10
2.070154e-10
8.1294069e-10
2.3644654e-10
3.2112774e-10
1.3050646e-09
4.0063821e-10
4.8055482e-10
2.0285544e-09
6.5369061e-10
7.0009549e-10
3.0805438e-09
1.0358605e-09
9.9847602e-10
4.594074e-09
1.6048274e-09
1.4000324e-09
6.7477108e-09
2.4007863e-09
1.9352058e-09
9.7734036e-09
3.4602793e-09
2.692736e-09
1.395743e-08
4.779186e-09
3.7913889e-09
1.9620729e-08
6.2703624e-09
5.4047687e-09
2.7049353e-08
7.855864e-09
3.6310703e-08
7.6422047e-09
4.6156532e-12
9.9292253e-12
3.8833686e-11
2.2476376e-11
3.6295952e-11
1.4697241e-10
6.1861498e-11
7.5818518e-11
3.177653e-10
1.3489688e-10
1.3327747e-10
5.8035683e-10
2.5931961e-10
2.1474263e-10
9.7607758e-10
4.6026667e-10
3.2812106e-10
1.5631538e-09
7.7264079e-10
4.8352448e-10
2.4228546e-09
1.2432393e-09
6.9414735e-10
3.6672991e-09
1.9324526e-09
9.7725178e-10
5.4487844e-09
2.92071e-09
1.3531423e-09
7.9699316e-09
4.2046152e-09
1.9345019e-09
1.1491886e-08
5.9315976e-09
2.6850174e-09
1.6334844e-08
8.1568665e-09
3.8129377e-09
2.2858403e-08
1.0925258e-08
5.4936047e-09
3.1397229e-08
8.1500663e-09
4.2099067e-08
1.4191511e-08
1.0273865e-11
6.1070342e-12
4.8254063e-11
4.8260565e-11
2.2568349e-11
1.8235347e-10
1.2913783e-10
4.6968155e-11
3.9352349e-10
2.7346761e-10
8.2584297e-11
7.171351e-10
5.0979434e-10
1.3279962e-10
1.2030035e-09
8.7632479e-10
2.0258846e-10
1.9207494e-09
1.4232152e-09
2.9822298e-10
2.9666501e-09
2.2133693e-09
4.2907526e-10
4.4721181e-09
3.3193442e-09
6.1070358e-10
6.6135233e-09
4.803878e-09
8.7525972e-10
9.6222479e-09
6.8716854e-09
1.2628813e-09
1.3792361e-08
9.6527422e-09
1.7760006e-09
1.9477717e-08
1.3319453e-08
2.5770074e-09
2.7069467e-08
1.8023235e-08
3.8511223e-09
3.6931711e-08
6.1562013e-09
4.9254558e-08
2.3787487e-08
1.3688964e-11
6.0586179e-11
6.5173925e-11
2.2859019e-10
1.7426746e-10
4.9226982e-10
3.6855744e-10
8.948859e-10
6.8515507e-10
1.4968612e-09
1.1739013e-09
2.3818597e-09
1.9003053e-09
3.6642906e-09
2.9500387e-09
5.4982079e-09
4.4360207e-09
8.086925e-09
6.5159494e-09
1.1691536e-08
9.4018583e-09
1.6634415e-08
1.330521e-08
2.3289915e-08
1.8590511e-08
3.2049982e-08
2.5790817e-08
4.3244278e-08
5.697828e-08
3.5996916e-08
-4.6109521e-13
-1.7289648e-12
2.8002732e-11
-2.7410807e-12
-6.1277085e-12
1.0640817e-10
-8.6603193e-12
-1.2211309e-11
2.3071949e-10
-2.1077493e-11
-2.0327344e-11
4.2250814e-10
-4.4368711e-11
-3.0851017e-11
7.1261822e-10
-8.5611492e-11
-4.3496165e-11
1.144789e-09
-1.5593425e-10
-5.7135397e-11
1.7805026e-09
-2.7112458e-10
-7.2696955e-11
2.7051938e-09
-4.4972806e-10
-9.036791e-11
4.0357685e-09
-7.1436514e-10
-1.0994389e-10
5.9285981e-09
-1.0896331e-09
-1.3189373e-10
8.5856059e-09
-1.5806824e-09
-1.7492833e-10
1.225231e-08
-2.2021064e-09
-2.233223e-10
1.7193673e-08
-2.9004561e-09
-3.3040565e-10
2.3615917e-08
-4.3312866e-10
3.1466985e-08
-3.6642822e-09
-2.3639142e-12
-1.7292087e-12
3.0274616e-11
-1.147552e-11
-6.2201259e-12
1.1497045e-10
-3.1130425e-11
-1.2489384e-11
2.4913316e-10
-6.5685601e-11
-2.1906627e-11
4.5591706e-10
-1.2154883e-10
-3.4993383e-11
7.6836242e-10
-2.0702272e-10
-5.2464545e-11
1.2332177e-09
-3.3222476e-10
-7.5098494e-11
1.9160241e-09
-5.0928518e-10
-1.0393064e-10
2.9076029e-09
-7.5007443e-10
-1.4491228e-10
4.3318702e-09
-1.0731184e-09
-1.9495539e-10
6.3540269e-09
-1.5148717e-09
-2.3856364e-10
9.1868505e-09
-2.0757762e-09
-3.2853663e-10
1.3088844e-08
-2.8327085e-09
-3.643591e-10
1.8340567e-08
-3.7787397e-09
-4.6708425e-10
2.5169559e-08
-7.8601083e-10
3.3564645e-08
-4.6829656e-09
-2.5098634e-12
-2.1213845e-12
3.5034071e-11
-1.1878584e-11
-7.9717488e-12
1.3287407e-10
-3.1307714e-11
-1.6996509e-11
2.8757203e-10
-6.5942759e-11
-3.044731e-11
5.255266e-10
-1.2298053e-10
-4.9273295e-11
8.8425256e-10
-2.1312399e-10
-7.3851323e-11
1.4165858e-09
-3.5088828e-10
-1.0501009e-10
2.1962153e-09
-5.5859053e-10
-1.4036074e-10
3.3246523e-09
-8.519874e-10
-1.9693148e-10
4.9394525e-09
-1.2882298e-09
-2.3378776e-10
7.2227263e-09
-1.9053377e-09
-2.5544157e-10
1.0407297e-08
-2.8001975e-09
-2.5084751e-10
1.4774457e-08
-3.8994534e-09
-2.7409049e-10
2.0629491e-08
-5.0946417e-09
-4.5216632e-10
2.8229249e-08
-9.5400525e-10
3.7612319e-08
-6.2287134e-09
-3.1459921e-12
-2.7600872e-12
4.2618139e-11
-1.5784266e-11
-9.6988965e-12
1.6133765e-10
-4.4111717e-11
-1.9463502e-11
3.4855965e-10
-9.5605224e-11
-3.4302869e-11
6.3570581e-10
-1.8389822e-10
-5.2059654e-11
1.0671566e-09
-3.2572653e-10
-7.3838942e-11
1.7049692e-09
-5.4397813e-10
-9.8867764e-11
2.6349627e-09
-8.7033284e-10
-1.20893e-10
3.9741838e-09
-1.3661281e-09
-1.3177017e-10
5.8794123e-09
-2.0501937e-09
-1.3510769e-10
8.5553038e-09
-2.9434588e-09
-1.2971693e-10
1.2259395e-08
-4.0286367e-09
-1.2819344e-10
1.7297303e-08
-5.2690923e-09
-1.7135144e-10
2.3995991e-08
-6.5642515e-09
-3.8965457e-10
3.2629627e-08
-9.8683501e-10
4.325939e-08
-7.6921e-09
-7.5056779e-12
-4.8439183e-13
5.3484661e-11
-3.4621755e-11
-2.2208439e-12
2.019928e-10
-9.1262876e-11
-4.723285e-12
4.3542665e-10
-1.9265628e-10
-7.884784e-12
7.92114e-10
-3.5474719e-10
-1.2688468e-11
1.3257288e-09
-5.9902052e-10
-1.9355963e-11
2.1105487e-09
-9.5179635e-10
-2.7418576e-11
3.2479901e-09
-1.4390929e-09
-3.5691256e-11
4.8742317e-09
-2.0821258e-09
-4.3391786e-11
7.1682021e-09
-2.9020584e-09
-5.1117687e-11
1.0358218e-08
-3.9001332e-09
-6.2980441e-11
1.4723721e-08
-5.0452717e-09
-9.0771911e-11
2.0585433e-08
-6.2590283e-09
-1.6003723e-10
2.8271854e-08
-7.4268044e-09
-3.2972594e-10
3.8039383e-08
-7.2626118e-10
4.9912712e-08
-8.345822e-09
-8.2515558e-12
6.8354768e-11
-3.9244655e-11
2.5736452e-10
-1.0495741e-10
5.5326291e-10
-2.2115884e-10
1.0032082e-09
-4.0940879e-10
1.6724317e-09
-6.966758e-10
2.6497847e-09
-1.1140103e-09
4.0542271e-09
-1.693132e-09
6.0416674e-09
-2.4604946e-09
8.8109331e-09
-3.4265866e-09
1.2606555e-08
-4.5694918e-09
1.7714381e-08
-5.8138527e-09
2.4443532e-08
-7.0085758e-09
3.3084655e-08
-7.9235141e-09
4.3829393e-08
5.6637856e-08
-8.3095762e-09
2.0208284e-13
-3.2942895e-13
2.8130109e-11
1.1430157e-12
-1.1957538e-12
1.0666314e-10
3.3547012e-12
-2.6370298e-12
2.3114504e-10
7.448527e-12
-4.8298005e-12
4.2324449e-10
1.4228192e-11
-8.0736262e-12
7.1391266e-10
2.4709744e-11
-1.2770272e-11
1.1470788e-09
3.9845786e-11
-1.918695e-11
1.7845548e-09
6.1446037e-11
-2.8754426e-11
2.71235e-09
8.8892753e-11
-4.0018607e-11
4.0483429e-09
1.2100959e-10
-5.4101111e-11
5.9505846e-09
1.5491472e-10
-7.2118592e-11
8.6238206e-09
1.83221e-10
-9.4747164e-11
1.2318747e-08
1.9038446e-10
-1.2411642e-10
1.7310611e-08
1.6135025e-10
-1.7333106e-10
2.3818221e-08
-2.1326417e-10
3.1849509e-08
-8.0207368e-12
6.5317088e-13
-1.032134e-12
3.0324289e-11
3.2249504e-12
-3.8949159e-12
1.1509802e-10
8.2560853e-12
-7.9531295e-12
2.494186e-10
1.6996001e-11
-1.3763821e-11
4.5611184e-10
3.0328185e-11
-2.1578066e-11
7.6853565e-10
4.8730695e-11
-3.1539919e-11
1.2335864e-09
7.1418066e-11
-4.2948853e-11
1.9171007e-09
9.2743844e-11
-5.2947381e-11
2.9104728e-09
1.1882733e-10
-7.2828569e-11
4.3385994e-09
1.4428605e-10
-9.4316279e-11
6.3687847e-09
1.669828e-10
-1.2448665e-10
9.2165181e-09
1.8437039e-10
-1.6561219e-10
1.314231e-08
1.2720121e-10
-2.1822869e-10
1.8491816e-08
-4.8506419e-11
-2.9636796e-10
2.5468194e-08
-4.0057431e-10
3.4102742e-08
-3.9944899e-10
-2.3098073e-14
-9.3630355e-13
3.4961742e-11
-7.3480464e-14
-3.4166439e-12
1.3244694e-10
7.9177951e-14
-7.1377576e-12
2.8660502e-10
6.5914331e-13
-1.2492459e-11
5.2367703e-10
1.9974263e-12
-2.0008446e-11
8.8134738e-10
4.7323734e-12
-3.0151553e-11
1.4124667e-09
1.0625402e-11
-4.3441429e-11
2.190821e-09
2.4964993e-11
-6.0657472e-11
3.3180312e-09
4.4040882e-11
-8.3983521e-11
4.931542e-09
4.915506e-11
-1.1430246e-10
7.2376094e-09
2.0490816e-11
-1.5170687e-10
1.046319e-08
-7.074598e-11
-1.9827178e-10
1.4898354e-08
-2.7806199e-10
-2.7573957e-10
2.0894291e-08
-6.414549e-10
-4.0136541e-10
2.8697539e-08
-5.2833639e-10
3.8256783e-08
-1.1583348e-09
1.0735504e-13
-8.2472181e-13
4.2399698e-11
9.9337202e-13
-3.0775236e-12
1.6011375e-10
3.3041613e-12
-6.5833245e-12
3.4569655e-10
7.0016915e-12
-1.1710365e-11
6.3122959e-10
1.0887258e-11
-1.9110505e-11
1.0623784e-09
1.4033145e-11
-2.9238933e-11
1.700919e-09
1.4354158e-11
-4.2786653e-11
2.6339981e-09
6.924324e-12
-6.0284077e-11
3.9812559e-09
-1.7696556e-11
-8.2652027e-11
5.9027293e-09
-8.0515375e-11
-1.1471821e-10
8.6185731e-09
-2.0680872e-10
-1.5695686e-10
1.2390975e-08
-4.4840746e-10
-2.1156491e-10
1.7552224e-08
-7.9123089e-10
-2.8215564e-10
2.434523e-08
-1.2872011e-09
-4.0183109e-10
3.3125968e-08
-5.3630701e-10
4.3934519e-08
-1.9545795e-09
2.5977703e-13
-9.5569807e-13
5.3356754e-11
7.2240334e-13
-3.3516642e-12
2.0180617e-10
9.6116994e-13
-6.7784719e-12
4.353857e-10
5.5873357e-14
-1.1456346e-11
7.927712e-10
-3.9066496e-12
-1.7764201e-11
1.3283541e-09
-1.4067989e-11
-2.5990473e-11
2.1174752e-09
-3.6678953e-11
-3.6559141e-11
3.2643941e-09
-8.3127971e-11
-4.9879859e-11
4.9103064e-09
-1.7512883e-10
-6.5966305e-11
7.243558e-09
-3.1059993e-10
-8.480158e-11
1.0463823e-08
-5.2039384e-10
-1.0752362e-10
1.4884137e-08
-8.4104397e-10
-1.3655254e-10
2.0831117e-08
-1.304911e-09
-1.7873398e-10
2.8632309e-08
-1.9459537e-09
-2.6222687e-10
3.8540696e-08
-4.0667827e-10
5.055798e-08
-2.7211459e-09
-1.1195539e-12
6.8520102e-11
-5.2041861e-12
2.5809978e-10
-1.3826531e-11
5.5511053e-10
-2.959344e-11
1.0075249e-09
-5.4053351e-11
1.6791371e-09
-9.1626081e-11
2.6613823e-09
-1.4915503e-10
4.0752192e-09
-2.3687088e-10
6.0795356e-09
-3.6861548e-10
8.876753e-09
-5.6183441e-10
1.2715024e-08
-8.3964023e-10
1.7884714e-08
-1.2285204e-09
2.4695903e-08
-1.7548293e-09
3.3432236e-08
-2.4579843e-09
4.42702e-08
5.715487e-08
-3.3819954e-09
-7.7440132e-13
-2.3229051e-12
3.1227449e-11
-3.804751e-12
-8.8350467e-12
1.1852852e-10
-1.0086604e-11
-1.9441053e-11
2.5686798e-10
-2.0977178e-11
-3.6046236e-11
4.7018135e-10
-3.8593342e-11
-6.1098051e-11
7.9262685e-10
-6.6019193e-11
-9.8047014e-11
1.2725516e-09
-1.0790223e-10
-1.51311e-10
1.9777488e-09
-1.7553532e-10
-2.2494032e-10
3.0049233e-09
-2.8536728e-10
-3.2360175e-10
4.4817762e-09
-4.6529106e-10
-4.500348e-10
6.5805422e-09
-7.6827201e-10
-5.962364e-10
9.5230357e-09
-1.2119723e-09
-8.1552646e-10
1.3577969e-08
-1.8408707e-09
-1.0950469e-09
1.9034545e-08
-2.601546e-09
-1.5387936e-09
2.6117664e-08
-2.2214408e-09
3.4772521e-08
-3.3031444e-09
1.0922908e-12
-6.8554127e-12
3.3764531e-11
4.5414671e-12
-2.5285659e-11
1.2809953e-10
1.0394735e-11
-5.3342277e-11
2.7746686e-10
1.6519723e-11
-9.3634505e-11
5.0757549e-10
1.9344725e-11
-1.5044134e-10
8.5505423e-10
1.1915307e-11
-2.2867346e-10
1.3716429e-09
-1.7758312e-11
-3.3414859e-10
2.1296133e-09
-9.1843809e-11
-4.7201366e-10
3.2316338e-09
-2.4543369e-10
-6.4413725e-10
4.8127276e-09
-5.1899978e-10
-8.6254594e-10
7.0548645e-09
-9.4307743e-10
-1.1470955e-09
1.0191458e-08
-1.6560278e-09
-1.4649849e-09
1.4504721e-08
-2.5597879e-09
-1.9986025e-09
2.029913e-08
-3.5665748e-09
-2.8815313e-09
2.7817718e-08
-3.8901871e-09
3.7039628e-08
-4.8346986e-09
-2.0668588e-12
-8.8632367e-12
3.9036739e-11
-1.1303901e-11
-3.1796955e-11
1.4819587e-10
-3.3154488e-11
-6.5674569e-11
3.2078905e-10
-7.5202558e-11
-1.1419995e-10
5.8629243e-10
-1.4862574e-10
-1.8225491e-10
9.865874e-10
-2.6951049e-10
-2.7600502e-10
1.5806882e-09
-4.6209436e-10
-4.0171635e-10
2.4509804e-09
-7.51662e-10
-5.691092e-10
3.7047065e-09
-1.1920719e-09
-7.6892072e-10
5.4967533e-09
-1.795153e-09
-1.0487737e-09
8.0269441e-09
-2.610253e-09
-1.4177374e-09
1.1548967e-08
-3.614387e-09
-1.928326e-09
1.6365876e-08
-4.9307769e-09
-2.5893477e-09
2.2801485e-08
-6.5844732e-09
-3.6458052e-09
3.1115604e-08
-4.7366781e-09
4.1312957e-08
-8.794038e-09
-5.1370177e-12
-8.8875198e-12
4.7561995e-11
-2.4213493e-11
-3.2580911e-11
1.7997589e-10
-6.4808111e-11
-6.8091596e-11
3.8871142e-10
-1.3885254e-10
-1.1765795e-10
7.087371e-10
-2.5970173e-10
-1.8837347e-10
1.1893548e-09
-4.4974957e-10
-2.8440152e-10
1.8993769e-09
-7.3963417e-10
-4.1151333e-10
2.9337011e-09
-1.1685039e-09
-5.8022955e-10
4.4212783e-09
-1.7662888e-09
-8.0234888e-10
6.5339895e-09
-2.6130613e-09
-1.078058e-09
9.4946978e-09
-3.7970506e-09
-1.4231221e-09
1.3580439e-08
-5.4169296e-09
-1.8695437e-09
1.9113441e-08
-7.6309637e-09
-2.4541268e-09
2.6424193e-08
-1.0495129e-08
-3.4210304e-09
3.5765571e-08
-4.4153696e-09
4.713251e-08
-1.4014196e-08
-6.0623586e-12
-9.1128698e-12
5.9646364e-11
-3.0789563e-11
-3.1197116e-11
2.2515306e-10
-8.6635439e-11
-6.2039014e-11
4.8518482e-10
-1.8962988e-10
-1.0421816e-10
8.8233543e-10
-3.6655591e-10
-1.5921339e-10
1.4761351e-09
-6.530116e-10
-2.2922262e-10
2.3487756e-09
-1.0953294e-09
-3.1688212e-10
3.6121165e-09
-1.7555518e-09
-4.2525374e-10
5.4156063e-09
-2.7106437e-09
-5.5766527e-10
7.9540419e-09
-4.0792339e-09
-7.1819284e-10
1.1472652e-08
-5.9703347e-09
-9.1304572e-10
1.6265297e-08
-8.5089251e-09
-1.1564959e-09
2.2656833e-08
-1.1807589e-08
-1.4800636e-09
3.0957122e-08
-1.5989248e-08
-2.0662474e-09
4.1367837e-08
-3.0062702e-09
5.3820098e-08
-2.0660181e-08
-1.6810634e-11
7.6220004e-11
-7.6730118e-11
2.8682579e-10
-2.0001754e-10
6.1636452e-10
-4.1390922e-10
1.1172078e-09
-7.5555906e-10
1.8615878e-09
-1.2709297e-09
2.9475524e-09
-2.0182295e-09
4.5056706e-09
-3.0695143e-09
6.7056152e-09
-4.5111992e-09
9.7608408e-09
-6.4424455e-09
1.3928169e-08
-8.9679357e-09
1.9497273e-08
-1.2191488e-08
2.6763099e-08
-1.6212615e-08
3.5973454e-08
-2.1255069e-08
4.7246582e-08
6.0466386e-08
-2.7572656e-08
3.0806844e-15
-1.690125e-12
3.2914979e-11
1.0012476e-13
-6.3743635e-12
1.2480707e-10
4.3724779e-13
-1.3894012e-11
2.7042718e-10
1.151972e-12
-2.5578486e-11
4.9504893e-10
2.3228618e-12
-4.327765e-11
8.347401e-10
3.7661576e-12
-6.9490862e-11
1.34061e-09
4.8979431e-12
-1.07791e-10
2.0844255e-09
5.8659348e-12
-1.6179946e-10
3.1657828e-09
5.8252435e-12
-2.3881395e-10
4.7206717e-09
4.8836614e-12
-3.4886813e-10
6.9304132e-09
-2.9309202e-12
-4.9689832e-10
1.0027866e-08
-3.4255187e-11
-7.0702079e-10
1.4316485e-08
-1.4701855e-10
-9.7934456e-10
2.0126909e-08
-3.5029649e-10
-1.3639426e-09
2.7685364e-08
-1.7813163e-09
3.6935498e-08
-7.3139724e-10
1.6816718e-12
-5.0312826e-12
3.5425491e-11
7.6239176e-12
-1.8669793e-11
1.3445613e-10
1.9255488e-11
-3.9365124e-11
2.91312e-10
3.7943575e-11
-6.9813151e-11
5.3313132e-10
6.4717863e-11
-1.1359196e-10
8.9860911e-10
9.9879013e-11
-1.7551251e-10
1.4425267e-09
1.4196531e-10
-2.6197378e-10
2.2417465e-09
1.9077018e-10
-3.8179264e-10
3.4028782e-09
2.2241507e-10
-5.292078e-10
5.0715613e-09
1.9895765e-10
-7.1287121e-10
7.4424393e-09
1.0715362e-10
-9.8051729e-10
1.0767043e-08
-9.8525635e-11
-1.3240705e-09
1.532775e-08
-4.8482882e-10
-1.7884434e-09
2.1494953e-08
-1.0653848e-09
-2.474899e-09
2.9509862e-08
-3.1246385e-09
3.9354385e-08
-2.0361311e-09
-5.0300006e-13
-6.3714336e-12
4.0882258e-11
-2.8417183e-12
-2.3278427e-11
1.5514729e-10
-8.2497371e-12
-4.899671e-11
3.3583538e-10
-1.8557781e-11
-8.7118415e-11
6.1391683e-10
-3.6736897e-11
-1.4218842e-10
1.0333809e-09
-6.7803548e-11
-2.1998442e-10
1.6562554e-09
-1.2025097e-10
-3.276658e-10
2.5691646e-09
-2.1520946e-10
-4.7367248e-10
3.891613e-09
-3.6520118e-10
-6.6815505e-10
5.785795e-09
-5.9203924e-10
-9.2576112e-10
8.4668245e-09
-9.6962648e-10
-1.2640133e-09
1.2210268e-08
-1.5677805e-09
-1.7095623e-09
1.7349828e-08
-2.4477137e-09
-2.2792966e-09
2.4172698e-08
-3.6741638e-09
-3.1438662e-09
3.301164e-08
-3.8440648e-09
4.3870248e-08
-5.5113422e-09
-1.6380095e-12
-7.0945914e-12
4.9925723e-11
-7.4431776e-12
-2.6343832e-11
1.8885068e-10
-2.0055979e-11
-5.555274e-11
4.0788724e-10
-4.4201298e-11
-9.8122331e-11
7.4389814e-10
-8.7480365e-11
-1.5841233e-10
1.2488768e-09
-1.6191267e-10
-2.4168505e-10
1.9955399e-09
-2.8608953e-10
-3.5418148e-10
3.08444e-09
-4.8777718e-10
-5.0325565e-10
4.6526202e-09
-8.0755847e-10
-6.9752193e-10
6.8832425e-09
-1.3054032e-09
-9.4748481e-10
1.0014419e-08
-2.0651047e-09
-1.2665274e-09
1.4342871e-08
-3.1978227e-09
-1.6762815e-09
2.0213177e-08
-4.8411869e-09
-2.1897486e-09
2.7978417e-08
-7.1404072e-09
-2.9878864e-09
3.790939e-08
-3.6528722e-09
4.9988866e-08
-1.0187315e-08
-2.2118716e-12
-7.8679976e-12
6.2634427e-11
-1.2678272e-11
-2.7055328e-11
2.3633577e-10
-3.8655199e-11
-5.3670344e-11
5.0928739e-10
-9.1195806e-11
-8.9650649e-11
9.264174e-10
-1.8690424e-10
-1.3707563e-10
1.5505278e-09
-3.499639e-10
-1.9830776e-10
2.4684907e-09
-6.147305e-10
-2.7603828e-10
3.7987892e-09
-1.0291351e-09
-3.7329266e-10
5.7001216e-09
-1.6590403e-09
-4.9339771e-10
8.3799301e-09
-2.5939105e-09
-6.4000859e-10
1.2100197e-08
-3.9519854e-09
-8.1821007e-10
1.7175262e-08
-5.8863957e-09
-1.0371435e-09
2.3952387e-08
-8.5611667e-09
-1.318071e-09
3.276059e-08
-1.2172731e-08
-1.8151454e-09
4.3807162e-08
-2.6131113e-09
5.6993852e-08
-1.6385699e-08
-1.1704773e-11
8.0059232e-11
-5.3066535e-11
3.0113594e-10
-1.3748203e-10
6.4711579e-10
-2.8318824e-10
1.1732731e-09
-5.1451429e-10
1.9558537e-09
-8.6379565e-10
3.09855e-09
-1.3738795e-09
4.7397525e-09
-2.1012388e-09
7.0597356e-09
-3.119549e-09
1.028583e-08
-4.523278e-09
1.4691997e-08
-6.4310821e-09
2.0587011e-08
-8.9881832e-09
2.8283245e-08
-1.2369893e-08
3.8037326e-08
-1.6896523e-08
4.9958344e-08
6.3890903e-08
-2.2933822e-08
-8.1739662e-13
-2.2341493e-12
3.5966548e-11
-3.9895736e-12
-8.5345704e-12
1.365139e-10
-1.0623173e-11
-1.8798465e-11
2.9585936e-10
-2.2112819e-11