/*--------------------------------*- C++ -*----------------------------------*\
| =========                 |                                                 |
| \\      /  F ield         | OpenFOAM: The Open Source CFD Toolbox           |
|  \\    /   O peration     | Version:  4.0                                   |
|   \\  /    A nd           | Web:      www.OpenFOAM.org                      |
|    \\/     M anipulation  |                                                 |
\*---------------------------------------------------------------------------*/
FoamFile
{
    version     2.0;
    format      ascii;
    class       volScalarField;
    location    "2500";
    object      rho;
}
// * * * * * * * * * * * * * * * * * * * * * * * * * * * * * * * * * * * * * //

dimensions      [1 -3 0 0 0 0 0];

internalField   nonuniform List<scalar> 
90000
(
1.1519876
1.1524548
1.1530078
1.153661
1.1544279
1.1553226
1.1563537
1.1575308
1.1588522
1.1603024
1.1618449
1.1634147
1.1649085
1.1661742
1.1669916
1.152086
1.1525701
1.1531434
1.1538185
1.1546106
1.155533
1.1566007
1.1578173
1.1591804
1.1606727
1.1622558
1.1638624
1.1653884
1.1666837
1.167537
1.1522446
1.1527615
1.1533735
1.1540949
1.1549407
1.1559252
1.1570595
1.1583489
1.1597883
1.1613568
1.163011
1.1646792
1.1662554
1.1675948
1.1685052
1.1524219
1.1529869
1.1536554
1.1544428
1.1553648
1.1564353
1.1576646
1.1590554
1.160598
1.1622649
1.1640052
1.1657396
1.1673593
1.1687269
1.1696767
1.1525718
1.1531985
1.1539395
1.1548111
1.1558292
1.1570071
1.1583528
1.1598644
1.1615251
1.1632975
1.1651194
1.1669015
1.1685307
1.1698771
1.1708027
1.1526601
1.153361
1.1541884
1.1551594
1.1562897
1.157591
1.1590672
1.1607096
1.1624914
1.164362
1.1662443
1.1680364
1.1696184
1.1708649
1.171656
1.1394674
1.1399211
1.1404591
1.1410953
1.1418452
1.142725
1.1437504
1.1449352
1.1462871
1.1478028
1.1494594
1.1512019
1.1529254
1.1544514
1.155494
1.1396104
1.1400806
1.1406383
1.1412981
1.1420757
1.1429882
1.1440518
1.1452806
1.1466825
1.1482541
1.1499717
1.1517794
1.153572
1.1551724
1.1563014
1.1398487
1.1403514
1.1409477
1.1416533
1.1424851
1.143461
1.1445982
1.1459111
1.1474078
1.1490835
1.1509126
1.1528369
1.1547499
1.1564782
1.1577589
1.140115
1.1406647
1.1413171
1.1420889
1.1429987
1.1440654
1.1453073
1.1467388
1.1483665
1.1501831
1.1521581
1.1542273
1.1562799
1.1581455
1.1595828
1.1403376
1.1409476
1.1416714
1.1425274
1.1435355
1.1447159
1.1460869
1.147662
1.1494446
1.1514214
1.1535535
1.1557658
1.157938
1.1598974
1.1614197
1.1404653
1.1411475
1.1419563
1.1429117
1.1440349
1.1453466
1.1468644
1.1485989
1.1505478
1.1526881
1.1549663
1.1572896
1.1595185
1.1614661
1.1629046
1.1270048
1.1274455
1.1279678
1.1285854
1.1293135
1.130168
1.1311653
1.1323202
1.1336429
1.1351334
1.1367738
1.1385136
1.1402497
1.1417955
1.1428378
1.1272775
1.1277348
1.128277
1.1289185
1.1296751
1.1305638
1.1316019
1.1328051
1.1341842
1.13574
1.1374526
1.1392721
1.1410962
1.1427407
1.1439009
1.1277366
1.1282261
1.1288071
1.1294952
1.1303077
1.1312635
1.1323819
1.1336809
1.1351746
1.1368682
1.1386974
1.1406495
1.1426212
1.1444333
1.1458065
1.1282424
1.1287769
1.1294117
1.1301641
1.1310531
1.1320991
1.1333226
1.134742
1.1363696
1.1382098
1.1402245
1.1423794
1.1445613
1.1465936
1.1482188
1.1286121
1.1292048
1.1299093
1.1307442
1.1317306
1.1328903
1.1342446
1.1358114
1.1375992
1.1395985
1.1418518
1.1442372
1.1466373
1.1488663
1.1506631
1.1287935
1.1294574
1.130246
1.1311802
1.1322829
1.1335781
1.135089
1.1368346
1.1388248
1.1410534
1.1434875
1.1460375
1.1485575
1.1508288
1.1525536
1.1150253
1.1154526
1.1159591
1.1165576
1.1172628
1.1180901
1.1190551
1.1201667
1.1214379
1.1228682
1.1244401
1.1261057
1.1277683
1.1292545
1.1302776
1.1153239
1.1157667
1.1162918
1.1169126
1.1176441
1.1185024
1.1195034
1.1206664
1.1219979
1.1234987
1.1251519
1.1269105
1.1286785
1.1302834
1.131441
1.1158101
1.1162852
1.1168491
1.1175168
1.118305
1.1192316
1.1203148
1.1215716
1.123014
1.1246443
1.1264466
1.1283745
1.1303329
1.1321524
1.1335593
1.1163579
1.1168785
1.1174971
1.1182306
1.1190977
1.1201185
1.1213136
1.1227019
1.1242976
1.126104
1.1281052
1.1302532
1.1324502
1.1345264
1.1362184
1.1168186
1.1173965
1.1180839
1.1188997
1.1198648
1.1210018
1.1223334
1.1238804
1.1256573
1.1276664
1.1298885
1.1322675
1.1346941
1.1369862
1.1388759
1.1170803
1.1177264
1.1184949
1.1194067
1.1204851
1.1217546
1.1232393
1.1249602
1.1269301
1.1291458
1.1315767
1.1341492
1.1367284
1.1390993
1.1409553
1.1027903
1.1032055
1.1036973
1.1042784
1.1049626
1.1057648
1.1066999
1.1077812
1.1090179
1.1104104
1.1119424
1.1135681
1.1151937
1.1166477
1.1176412
1.1031643
1.1035962
1.104108
1.1047132
1.1054264
1.1062634
1.1072403
1.1083717
1.1096683
1.1111318
1.1127473
1.1144707
1.11621
1.1177975
1.1189557
1.1038303
1.1042934
1.1048429
1.1054934
1.1062612
1.107164
1.1082197
1.1094453
1.1108537
1.1124488
1.114217
1.1161146
1.1180482
1.1198489
1.1212418
1.1046297
1.1051365
1.1057386
1.1064526
1.1072968
1.1082913
1.1094565
1.110812
1.1123727
1.1141431
1.1161082
1.1182191
1.1203726
1.122385
1.1239653
1.1053722
1.1059336
1.1066016
1.1073948
1.1083339
1.1094415
1.1107403
1.1122514
1.1139891
1.1159547
1.1181245
1.1204339
1.1227561
1.1248772
1.1264753
1.1058858
1.1065132
1.1072611
1.1081506
1.1092047
1.1104474
1.1119017
1.113586
1.1155076
1.1176542
1.1199799
1.1223897
1.124721
1.1267316
1.128103
1.0914699
1.0918726
1.0923496
1.0929129
1.0935757
1.0943522
1.0952562
1.0963001
1.0974918
1.0988304
1.1002989
1.1018527
1.1034026
1.1047835
1.1057488
1.0918277
1.0922475
1.0927453
1.0933319
1.094023
1.0948333
1.0957779
1.0968704
1.0981199
1.0995273
1.101076
1.1027194
1.1044174
1.1059599
1.1070998
1.0924734
1.0929233
1.093457
1.094088
1.0948325
1.0957068
1.0967278
1.0979104
1.0992647
1.100824
1.10255
1.1043979
1.106303
1.1080704
1.1093793
1.09327
1.0937616
1.0943452
1.0950392
1.095864
1.0968354
1.0979739
1.0992988
1.1008234
1.1025636
1.1044946
1.1065787
1.1086317
1.1105473
1.1120309
1.0940556
1.0946036
1.0952563
1.0960317
1.0969506
1.0980347
1.0993081
1.1007927
1.1025062
1.1044033
1.1064983
1.1087219
1.1109423
1.1129491
1.1144308
1.0946195
1.0952311
1.0959611
1.0968306
1.0978565
1.0990664
1.1004822
1.1021204
1.1039856
1.1060616
1.1083007
1.1106059
1.1128152
1.1146931
1.1159446
1.0807947
1.081187
1.0816515
1.0821999
1.082845
1.0836005
1.0844797
1.0854993
1.0866639
1.0879731
1.0894105
1.0909326
1.0924499
1.0938008
1.0947141
1.0811895
1.0815978
1.0820818
1.0826537
1.0833273
1.0841172
1.0850378
1.0861068
1.08733
1.0887088
1.0902285
1.0918469
1.0934767
1.0949582
1.0960273
1.0818886
1.082328
1.0828496
1.0834673
1.0841967
1.0850549
1.0860593
1.0872169
1.0885469
1.0900525
1.0917197
1.0935054
1.0953184
1.0969937
1.0982645
1.0827388
1.083219
1.0837896
1.0844665
1.085267
1.0862101
1.0873149
1.0885996
1.0900776
1.0917521
1.0936066
1.0955903
1.0975974
1.0994456
1.1008529
1.0835181
1.08405
1.084683
1.085435
1.0863258
1.0873764
1.0886084
1.0900409
1.0916864
1.0935428
1.0955829
1.0977373
1.0998743
1.1017803
1.1031542
1.0840518
1.084646
1.0853549
1.0861985
1.0871985
1.0883776
1.0897568
1.0913519
1.0931672
1.0951854
1.0973553
1.0995753
1.1016804
1.1034393
1.104578
1.0712378
1.0716202
1.0720731
1.0726078
1.0732369
1.0739735
1.0748307
1.0758198
1.0769479
1.0782132
1.079598
1.0810752
1.0825674
1.0838977
1.0848027
1.0715965
1.0719953
1.0724679
1.0730265
1.0736846
1.0744565
1.0753566
1.0763983
1.0775911
1.0789363
1.0804207
1.0819855
1.0835813
1.0850313
1.0860841
1.0722628
1.0726915
1.0732001
1.0738023
1.0745129
1.0753483
1.0763252
1.0774591
1.0787623
1.0802387
1.0818767
1.083638
1.0853901
1.087019
1.088269
1.0730984
1.0735669
1.0741237
1.0747841
1.0755651
1.0764851
1.0775629
1.0788162
1.080258
1.0818913
1.0836999
1.0856342
1.0875929
1.0894031
1.0907998
1.0738601
1.074379
1.0749966
1.0757302
1.0765989
1.0776234
1.0788244
1.0802205
1.0818237
1.0836324
1.0856204
1.0877214
1.0898099
1.0916838
1.0930627
1.0743809
1.0749606
1.0756521
1.076475
1.0774502
1.0785997
1.079944
1.0814984
1.0832669
1.0852333
1.0873485
1.0895161
1.0915796
1.0933213
1.0944888
1.0626465
1.0630209
1.0634641
1.0639872
1.0646026
1.0653231
1.0661615
1.0671291
1.0682331
1.0694824
1.0708547
1.0723096
1.0737641
1.0750671
1.0759645
1.0630304
1.0634201
1.063882
1.0644277
1.0650704
1.0658241
1.0667027
1.067719
1.0688813
1.0701996
1.0716522
1.0732009
1.0747645
1.0761954
1.0772502
1.0637067
1.0641262
1.0646239
1.0652131
1.0659088
1.066727
1.0676844
1.068797
1.0700778
1.071512
1.0731031
1.0748114
1.0765525
1.0781766
1.0794444
1.0645389
1.0649973
1.065542
1.0661881
1.0669522
1.0678525
1.0689075
1.0701345
1.0715466
1.073147
1.0749214
1.0768244
1.0787612
1.0805677
1.0819974
1.0652988
1.0658064
1.0664107
1.0671285
1.0679787
1.0689818
1.0701582
1.0715267
1.0730997
1.0748765
1.076833
1.0789067
1.0809794
1.082863
1.0843038
1.0658188
1.066386
1.0670627
1.067868
1.068823
1.0699493
1.0712675
1.0727931
1.0745311
1.076467
1.0785547
1.0807031
1.082766
1.0845436
1.0858121
1.0550509
1.0554177
1.0558518
1.0563643
1.0569671
1.0576729
1.0584944
1.0594426
1.0605248
1.0617406
1.0630747
1.0644871
1.0658969
1.0671868
1.0681094
1.0553994
1.0557818
1.0562348
1.0567701
1.0574005
1.0581396
1.0590015
1.0599988
1.0611408
1.0624292
1.0638517
1.0653716
1.0669106
1.0683534
1.0694177
1.056058
1.0564691
1.0569568
1.057534
1.0582151
1.0590157
1.0599519
1.061039
1.0622891
1.0637068
1.0652827
1.0669828
1.0687332
1.0703404
1.0716308
1.0568892
1.0573386
1.0578726
1.058506
1.0592552
1.0601378
1.0611724
1.0623765
1.0637636
1.0653386
1.0670893
1.0689744
1.0709053
1.0727285
1.07422
1.0576487
1.0581465
1.0587389
1.0594428
1.0602765
1.0612603
1.0624147
1.0637584
1.0653047
1.0670548
1.0689882
1.0710488
1.0731293
1.075058
1.0766053
1.0581677
1.0587239
1.0593874
1.0601772
1.061114
1.0622193
1.0635137
1.0650135
1.0667252
1.0686374
1.0707097
1.0728602
1.0749559
1.0768149
1.0782339
1.0482336
1.0485941
1.0490207
1.0495242
1.0501163
1.0508094
1.0516159
1.0525468
1.0536096
1.0548039
1.0561157
1.0575253
1.058942
1.0602269
1.0611443
1.0486131
1.0489885
1.0494332
1.0499585
1.0505771
1.0513024
1.052148
1.0531266
1.0542472
1.0555116
1.0569071
1.0584146
1.0599452
1.0613671
1.0624583
1.0492818
1.0496858
1.050165
1.0507322
1.0514015
1.0521885
1.0531093
1.0541794
1.0554115
1.0568121
1.0583749
1.0600331
1.0617447
1.0633756
1.0647155
1.0501186
1.0505602
1.051085
1.0517075
1.0524437
1.0533115
1.054329
1.0555141
1.0568807
1.0584347
1.0601656
1.0620354
1.0639655
1.0658168
1.0673823
1.0508837
1.0513728
1.0519551
1.0526469
1.0534667
1.0544344
1.0555708
1.056895
1.0584212
1.0601526
1.0620721
1.0641297
1.066228
1.0682109
1.0698715
1.0514065
1.051953
1.0526053
1.0533819
1.0543035
1.0553918
1.0566677
1.0581485
1.0598424
1.061741
1.0638089
1.0659724
1.0681101
1.0700563
1.0716264
1.0421217
1.0424761
1.0428955
1.0433904
1.0439724
1.0446537
1.0454466
1.0463618
1.047407
1.048582
1.0498738
1.0512462
1.0526248
1.0539032
1.0548301
1.0424742
1.0428439
1.0432817
1.0437988
1.0444076
1.0451214
1.0459537
1.0469171
1.0480209
1.0492677
1.0506473
1.0521272
1.053636
1.0550698
1.0561877
1.0431394
1.043537
1.0440085
1.0445664
1.0452246
1.0459984
1.0469036
1.0479554
1.0491663
1.0505425
1.0520776
1.0537432
1.0554761
1.057101
1.0584704
1.0439789
1.0444135
1.04493
1.0455425
1.0462671
1.0471211
1.0481228
1.0492901
1.0506374
1.052172
1.0538866
1.055748
1.0576826
1.0595598
1.0611909
1.0447478
1.0452292
1.0458022
1.0464831
1.0472902
1.0482432
1.0493628
1.0506685
1.0521756
1.053889
1.0557955
1.0578513
1.0599685
1.0620045
1.0637703
1.0452727
1.0458106
1.0464525
1.0472172
1.0481248
1.0491972
1.0504556
1.0519179
1.0535941
1.0554791
1.0575428
1.0597196
1.0618995
1.0639302
1.0656396
1.0365296
1.0368791
1.0372926
1.0377803
1.0383537
1.0390248
1.0398057
1.0407071
1.0417366
1.0428944
1.044168
1.0455406
1.0469276
1.0481996
1.0491351
1.0369116
1.0372756
1.0377066
1.0382157
1.038815
1.0395177
1.040337
1.0412853
1.0423718
1.0435992
1.0449567
1.0464288
1.0479338
1.0493513
1.0504774
1.0375854
1.0379772
1.0384419
1.0389918
1.0396407
1.0404037
1.0412966
1.0423349
1.0435318
1.0448949
1.0464207
1.0480487
1.0497454
1.0513918
1.0528009
1.0384291
1.0388575
1.0393665
1.0399702
1.0406845
1.0415266
1.0425147
1.0436666
1.0449975
1.0465153
1.0482137
1.0500627
1.0519966
1.0538968
1.055586
1.0392024
1.0396769
1.0402417
1.040913
1.0417088
1.0426489
1.0437541
1.0450443
1.0465352
1.0482338
1.0501296
1.0521836
1.0543162
1.0563963
1.0582497
1.0397305
1.0402606
1.0408935
1.0416476
1.0425431
1.0436019
1.0448455
1.0462927
1.0479548
1.0498293
1.0518904
1.0540788
1.0562935
1.0583934
1.0602176
1.0314102
1.0317546
1.0321621
1.0326428
1.0332079
1.0338694
1.0346391
1.0355277
1.0365427
1.0376847
1.0389419
1.040281
1.0416324
1.0428975
1.0438378
1.0317658
1.0321252
1.0325506
1.033053
1.0336444
1.0343377
1.0351462
1.0360821
1.0371551
1.0383684
1.0397134
1.0411609
1.0426456
1.044073
1.0452183
1.0324362
1.0328228
1.0332811
1.0338234
1.0344631
1.0352153
1.0360953
1.0371184
1.0382975
1.0396397
1.0411413
1.0427781
1.0444952
1.0461309
1.0475564
1.0332823
1.033705
1.0342072
1.0348028
1.0355074
1.0363382
1.0373134
1.0384507
1.0397657
1.0412673
1.0429518
1.0447929
1.0467278
1.0486433
1.0503749
1.0340588
1.034527
1.0350843
1.0357467
1.036532
1.0374601
1.0385515
1.0398264
1.0413014
1.0429847
1.0448685
1.0469184
1.049061
1.0511748
1.0530968
1.0345885
1.0351116
1.0357361
1.0364802
1.0373643
1.03841
1.0396391
1.0410708
1.0427178
1.0445798
1.0466347
1.0488291
1.0510696
1.0532238
1.0551377
1.0266226
1.0269626
1.0273651
1.0278399
1.0283979
1.029051
1.0298107
1.0306878
1.0316898
1.0328173
1.0340591
1.0354002
1.0367608
1.0380187
1.0389633
1.0270047
1.0273596
1.0277793
1.0282749
1.0288583
1.0295422
1.0303397
1.0312629
1.0323212
1.0335178
1.0348434
1.0362847
1.0377657
1.0391746
1.0403201
1.0276804
1.0280622
1.0285148
1.0290503
1.0296823
1.0304254
1.0312953
1.0323072
1.0334746
1.0348059
1.0362999
1.0379004
1.03958
1.0412309
1.0426825
1.0285269
1.0289443
1.0294402
1.0300284
1.0307244
1.0315451
1.0325086
1.0336329
1.0349335
1.03642
1.0380891
1.0399165
1.041846
1.0437733
1.0455417
1.0293041
1.0297664
1.0303168
1.0309711
1.0317469
1.032664
1.033743
1.0350042
1.0364648
1.0381339
1.0400059
1.04205
1.0441987
1.0463387
1.0483173
1.0298345
1.030351
1.0309678
1.031703
1.0325767
1.0336107
1.0348267
1.0362447
1.0378782
1.0397287
1.0417772
1.0439748
1.0462348
1.0484325
1.0504216
1.0221626
1.0224986
1.022896
1.0233647
1.0239157
1.0245605
1.0253108
1.0261771
1.0271667
1.0282809
1.0295086
1.0308187
1.0321452
1.0333954
1.0343404
1.0225199
1.0228704
1.0232854
1.0237754
1.0243522
1.0250283
1.0258167
1.0267295
1.0277764
1.0289611
1.0302762
1.0316947
1.0331557
1.0345719
1.0357305
1.0231919
1.0235691
1.0240162
1.0245452
1.0251694
1.0259031
1.0267619
1.0277606
1.0289124
1.0302251
1.0316966
1.0333062
1.0350043
1.0366395
1.0380965
1.0240394
1.0244519
1.0249419
1.0255231
1.0262108
1.0270219
1.0279742
1.0290858
1.0303725
1.0318445
1.0335006
1.0353191
1.0372452
1.039178
1.0409705
1.0248178
1.0252747
1.0258186
1.0264651
1.027232
1.0281386
1.0292056
1.0304534
1.0318995
1.0335542
1.0354136
1.0374498
1.0396001
1.0417575
1.0437777
1.0253481
1.0258585
1.0264681
1.0271947
1.0280585
1.0290809
1.030284
1.0316879
1.033307
1.0351442
1.0371833
1.0393792
1.0416508
1.0438794
1.0459234
1.0179256
1.0182577
1.0186507
1.0191142
1.019659
1.0202964
1.0210381
1.0218943
1.0228725
1.0239737
1.025187
1.0264979
1.0278332
1.0290754
1.0300218
1.018303
1.0186498
1.0190599
1.019544
1.0201139
1.0207818
1.0215606
1.0224622
1.0234961
1.0246657
1.0259621
1.0273745
1.0288325
1.0302289
1.0313821
1.018974
1.019347
1.0197892
1.0203123
1.0209296
1.0216555
1.0225052
1.023494
1.0246354
1.0259386
1.0274042
1.0289814
1.030641
1.0322862
1.0337589
1.0198193
1.0202271
1.0207117
1.0212864
1.0219665
1.0227687
1.0237107
1.0248106
1.0260843
1.0275423
1.0291838
1.0309874
1.032904
1.0348395
1.0366518
1.0205965
1.0210482
1.0215861
1.0222254
1.0229838
1.0238806
1.0249364
1.0261717
1.0276041
1.0292448
1.031091
1.0331174
1.0352652
1.0374335
1.0394843
1.0211262
1.0216309
1.0222338
1.0229525
1.0238069
1.0248187
1.0260099
1.0274007
1.0290062
1.0308306
1.0328595
1.035051
1.0373281
1.0395775
1.0416618
1.0139155
1.0142445
1.0146334
1.0150922
1.0156315
1.0162627
1.0169973
1.0178459
1.0188162
1.0199104
1.0211076
1.022387
1.0237076
1.0249363
1.025876
1.014286
1.0146285
1.015034
1.0155126
1.0160758
1.0167358
1.0175052
1.0183957
1.0194163
1.0205701
1.0218604
1.0232518
1.0247074
1.0261025
1.0272616
1.0149526
1.0153216
1.0157589
1.0162763
1.0168866
1.0176043
1.0184443
1.0194216
1.0205496
1.0218371
1.0232842
1.0248736
1.0265148
1.0281515
1.0296271
1.015795
1.0161985
1.0166778
1.0172464
1.0179192
1.0187127
1.0196448
1.0207332
1.0219941
1.0234383
1.0250661
1.0268584
1.0287658
1.0306993
1.0325225
1.01657
1.0170169
1.017549
1.0181816
1.018932
1.0198194
1.0208644
1.0220874
1.0235064
1.0251329
1.0269655
1.0289809
1.0311235
1.0332967
1.0353682
1.0170982
1.0175976
1.018194
1.0189051
1.0197507
1.0207522
1.0219316
1.0233095
1.0249012
1.0267119
1.0287289
1.0309132
1.0331912
1.035454
1.0375679
1.0100842
1.0104093
1.0107937
1.0112468
1.0117792
1.0124019
1.0131262
1.013962
1.0149222
1.0160043
1.0171987
1.0184766
1.0197765
1.0210073
1.0219526
1.0104471
1.0107865
1.0111881
1.0116621
1.0122199
1.0128737
1.0136358
1.0145178
1.0155347
1.0166859
1.0179666
1.0193533
1.020794
1.0221645
1.0233117
1.0111298
1.0114951
1.0119283
1.0124409
1.013046
1.013758
1.0145921
1.0155639
1.016675
1.0179426
1.0193648
1.0209219
1.0225645
1.0242004
1.0256811
1.0119659
1.0123652
1.0128397
1.0134024
1.0140683
1.0148538
1.0157763
1.0168534
1.018101
1.0195303
1.0211424
1.0229204
1.0248185
1.02675
1.0285827
1.0127365
1.0131788
1.0137054
1.0143315
1.0150743
1.0159528
1.0169874
1.0181986
1.0196045
1.0212171
1.0230361
1.02504
1.0271763
1.0293524
1.0314414
1.0132625
1.0137567
1.014347
1.0150509
1.0158881
1.0168799
1.0180482
1.0194137
1.0209923
1.0227898
1.0247952
1.0269716
1.0292489
1.0315223
1.0336623
1.0064128
1.0067349
1.0071157
1.0075649
1.0080938
1.008713
1.0094337
1.0102626
1.0112091
1.012274
1.0134583
1.014725
1.0160143
1.0172151
1.0181648
1.0067768
1.007113
1.0075108
1.0079805
1.0085344
1.0091838
1.009942
1.0108176
1.0118232
1.0129637
1.0142232
1.0155866
1.0169998
1.0183602
1.0195205
1.0074509
1.0078124
1.0082406
1.0087471
1.0093423
1.0100417
1.010859
1.0118161
1.0129211
1.0141817
1.0155965
1.0171485
1.0187931
1.020445
1.0219062
1.0082805
1.0086758
1.0091454
1.0097023
1.0103611
1.0111382
1.0120511
1.0131177
1.0143541
1.0157717
1.0173724
1.0191405
1.0210318
1.0229608
1.024798
1.0090492
1.0094871
1.0100085
1.0106284
1.0113638
1.0122337
1.0132585
1.0144585
1.0158521
1.0174517
1.0192579
1.021251
1.0233806
1.0255579
1.0276608
1.0095734
1.0100627
1.0106471
1.0113442
1.0121733
1.0131556
1.0143131
1.0156666
1.0172321
1.0190165
1.0210099
1.0231776
1.0254528
1.0277341
1.0298959
1.0028826
1.0032018
1.0035791
1.0040239
1.0045465
1.0051581
1.0058696
1.0066912
1.0076303
1.0086887
1.0098572
1.0111085
1.0124066
1.013604
1.0145317
1.0032524
1.0035849
1.0039784
1.0044429
1.0049895
1.0056303
1.0063774
1.0072426
1.0082351
1.0093588
1.0106072
1.0119548
1.0133655
1.014741
1.0158989
1.0039084
1.0042665
1.004691
1.0051931
1.0057855
1.0064821
1.0072975
1.0082464
1.0093422
1.0105937
1.0120017
1.013552
1.0151604
1.0167782
1.0182575
1.0047408
1.0051324
1.0055977
1.0061496
1.0068026
1.0075731
1.0084783
1.009536
1.0107622
1.0121685
1.013757
1.0155119
1.0173899
1.0193118
1.0211546
1.0055076
1.0059413
1.0064578
1.0070719
1.0078006
1.0086626
1.0096783
1.0108679
1.0122499
1.0138371
1.0156304
1.0176116
1.0197329
1.0219092
1.0240236
1.0060297
1.0065143
1.0070933
1.0077838
1.0086052
1.0095787
1.0107261
1.0120681
1.0136213
1.015393
1.0173743
1.0195327
1.021804
1.0240907
1.0262708
0.99948114
0.99979693
1.0001705
1.0006114
1.0011296
1.001736
1.0024419
1.0032574
1.0041849
1.00523
1.0063831
1.0076328
1.0089094
1.0101056
1.011038
0.99983813
1.0001686
1.0005591
1.001019
1.0015599
1.0021937
1.0029324
1.003787
1.0047719
1.005887
1.0071256
1.0084794
1.009883
1.0112409
1.0123862
1.0004984
1.0008533
1.0012739
1.0017714
1.0023585
1.0030488
1.0038572
1.0047984
1.0058859
1.0071292
1.0085302
1.0100416
1.0116458
1.0132572
1.0147354
1.0013265
1.0017145
1.0021755
1.0027224
1.0033695
1.0041329
1.00503
1.0060781
1.0072935
1.0086876
1.0102623
1.0120028
1.0138693
1.0157842
1.0176281
1.0020891
1.0025188
1.0030306
1.003639
1.004361
1.0052152
1.0062216
1.0074007
1.0087708
1.0103448
1.0121246
1.0140929
1.0162042
1.0183763
1.0204959
1.0026085
1.0030886
1.0036623
1.0043465
1.0051604
1.0061251
1.0072624
1.008593
1.0101335
1.0118918
1.0138601
1.0160072
1.0182714
1.0205578
1.0227465
0.99618496
0.99649794
0.99686785
0.99730386
0.99781604
0.99841507
0.99911424
0.9999218
1.0008452
1.0018863
1.0030368
1.00427
1.005528
1.0067259
1.0076589
0.99654215
0.9968689
0.99725546
0.99771166
0.99824837
0.99887716
0.99961251
1.0004641
1.0014417
1.00255
1.0037843
1.0051239
1.0065202
1.0078573
1.0089931
0.99721521
0.99756698
0.99798412
0.99847784
0.99906071
0.99974666
1.0005452
1.0014744
1.002547
1.0037711
1.0051459
1.0066543
1.0082531
1.0098585
1.0113357
0.9980333
0.99841782
0.99887462
0.99941638
1.0000574
1.0008136
1.001702
1.0027398
1.0039433
1.005324
1.0068851
1.0086132
1.0104693
1.0123775
1.0142217
0.99879006
0.99921594
0.99972302
1.0003259
1.0010414
1.0018878
1.0028852
1.0040538
1.0054121
1.0069734
1.0087399
1.0106958
1.0127971
1.0149643
1.0170874
0.99930648
0.99978231
1.0003508
1.0010289
1.0018356
1.0027918
1.0039193
1.0052388
1.0067672
1.0085125
1.0104681
1.0126041
1.0148608
1.017146
1.0193427
0.99300201
0.99331266
0.99368001
0.99411325
0.99462246
0.9952184
0.99591195
0.99671309
0.9976235
0.99865603
0.99979642
1.0010184
1.0022656
1.0034333
1.0043682
0.99335969
0.99368331
0.99406711
0.99452028
0.99505377
0.99567947
0.99640977
0.99725703
0.99822619
0.99931912
1.0005362
1.0018553
1.0032264
1.0045536
1.0057011
0.9940219
0.99436958
0.99478177
0.99526894
0.9958433
0.99651801
0.99730685
0.9982232
0.99929027
1.0005078
1.0018762
1.0033808
1.0049819
1.0066022
1.0080572
0.99483368
0.99521572
0.99566827
0.99620497
0.99683999
0.99758912
0.99846939
0.99949829
1.0006921
1.0020629
1.0036141
1.0053331
1.007182
1.0090852
1.0109277
0.9955897
0.99601187
0.99651451
0.99711217
0.99782136
0.9986605
0.99964947
1.0008085
1.0021562
1.003706
1.005461
1.007406
1.0094987
1.0116618
1.0137891
0.99610477
0.99657646
0.99714001
0.99781224
0.9986121
0.99956034
1.0006786
1.0019877
1.0035047
1.0052381
1.007182
1.009308
1.0115585
1.0138437
1.0160497
0.98991332
0.99022126
0.99058526
0.99101439
0.99151862
0.99210855
0.99279491
0.99358756
0.99449376
0.99551531
0.99664381
0.99785295
0.99908666
1.0002674
1.0011936
0.99027501
0.99059521
0.9909749
0.99142308
0.99195049
0.99256869
0.9932896
0.99412455
0.99508273
0.9961684
0.99737644
0.99868515
1.0000441
1.0013824
1.0025195
0.99091616
0.99126156
0.99167122
0.99215563
0.99272703
0.9933988
0.99418513
0.99510028
0.99615712
0.99736462
0.99872381
1.0002214
1.001821
1.0033961
1.0048603
0.99173237
0.99211133
0.99256029
0.99309278
0.99372292
0.99446641
0.99534015
0.99636143
0.99754638
0.99890716
1.0004474
1.0021553
1.0039931
1.0058873
1.0077304
0.99248622
0.99290483
0.99340329
0.99399602
0.99469943
0.99553183
0.99651298
0.99766305
0.99900062
1.0005394
1.0022827
1.0042166
1.0063002
1.0084594
1.0105918
0.99299894
0.99346664
0.99402547
0.99469212
0.99548543
0.99642603
0.99753551
0.99883467
1.0003407
1.0020626
1.0039951
1.0061114
1.0083559
1.0106418
1.0128585
0.98690954
0.98721453
0.98757502
0.9880003
0.98850047
0.98908569
0.98976663
0.99055317
0.99145273
0.99246756
0.99359043
0.99478249
0.99601865
0.99718128
0.99809371
0.9872642
0.98758353
0.98796149
0.98840685
0.98892958
0.98954219
0.99025642
0.99108339
0.99203195
0.99310577
0.99429847
0.9956001
0.99697098
0.9983018
0.99943919
0.98790905
0.98825182
0.98865802
0.98913843
0.98970517
0.99037154
0.99115169
0.99205989
0.99310912
0.99430873
0.99566075
0.99715447
0.9987118
1.0002889
1.0017558
0.98872081
0.98909566
0.98954097
0.99006916
0.99069424
0.99143179
0.99229861
0.9933119
0.99448772
0.99583826
0.99736726
0.99906278
1.0008884
1.0027756
1.0046187
0.98946945
0.9898846
0.99037895
0.99096682
0.99166449
0.99249014
0.99346344
0.99460444
0.99593174
0.99745913
0.9991905
1.0011126
1.0031865
1.0053407
1.0074763
0.98997901
0.99044284
0.99099706
0.99165824
0.99244508
0.9933781
0.99447878
0.9957679
0.99726272
0.99897267
1.0008933
1.0029989
1.0052359
1.0075202
1.0097434
0.98399075
0.98429329
0.98465091
0.98507283
0.98556909
0.98614982
0.9868257
0.98760301
0.98849138
0.98949231
0.99060855
0.99180676
0.99303377
0.99418975
0.99510209
0.98433753
0.98465421
0.98502892
0.98547031
0.98598819
0.98659485
0.98730172
0.98812328
0.98906584
0.99013305
0.99133048
0.99262836
0.99398093
0.99529824
0.99642516
0.98498643
0.98532649
0.98572957
0.9862064
0.98676907
0.98743088
0.98820609
0.9891092
0.9901536
0.99134953
0.9926763
0.99413776
0.99569367
0.99726734
0.99873272
0.98579368
0.98616551
0.98660726
0.98713124
0.98775136
0.98848309
0.98934309
0.99034841
0.99151489
0.99285433
0.99437033
0.99605271
0.99786764
0.99974749
1.0015886
0.98653776
0.98694956
0.98743991
0.98802303
0.98871509
0.98953412
0.99049967
0.99163169
0.99294874
0.99446473
0.99618392
0.99809402
1.0001576
1.0023052
1.0044404
0.9870445
0.98750458
0.98805433
0.9887102
0.98949077
0.99041642
0.99150855
0.9927879
0.99427181
0.99596999
0.99787858
0.99997302
1.0022013
1.0044813
1.0067066
0.98114315
0.98144334
0.98179804
0.98221603
0.98270691
0.98328251
0.98395245
0.9847264
0.9856116
0.98661011
0.98771431
0.98889931
0.99011118
0.99127093
0.99218595
0.98149081
0.98180422
0.98217493
0.98261233
0.98312673
0.98373087
0.9844355
0.98525192
0.98618948
0.98725304
0.98843884
0.98972772
0.99107533
0.99237361
0.99349023
0.98214748
0.98248496
0.98288516
0.98335888
0.98391826
0.98457338
0.98533991
0.98623183
0.98726158
0.98843759
0.98976002
0.99121468
0.99276292
0.99432895
0.99579065
0.98294513
0.983314
0.98375219
0.98427188
0.98488682
0.98561228
0.98646479
0.98746126
0.98861759
0.989946
0.99145086
0.99312222
0.99492703
0.99679916
0.99863754
0.9836838
0.98409234
0.98457879
0.98515724
0.98584373
0.98665619
0.98761401
0.98873709
0.99004401
0.99154885
0.99325632
0.99515487
0.9972084
0.99934925
1.0014838
0.98418774
0.98464419
0.98518959
0.98584029
0.98661472
0.98753317
0.98861692
0.98988669
0.99135992
0.9930466
0.99494348
0.99702703
0.99924681
1.0015227
1.0037506
0.97837082
0.97866905
0.9790216
0.97943724
0.97992565
0.98049713
0.98116221
0.9819305
0.98280916
0.9837999
0.98490511
0.98607924
0.98728069
0.98841083
0.98932629
0.97872359
0.97903428
0.97940175
0.97983531
0.9803452
0.98094246
0.98164328
0.98245563
0.98338937
0.98445048
0.98562717
0.98689277
0.9882147
0.98950247
0.99062962
0.9793752
0.97970918
0.98010497
0.98057298
0.98112492
0.98177327
0.98253362
0.98341722
0.98443625
0.98559799
0.98690056
0.98835977
0.98991556
0.9914992
0.99294023
0.98016168
0.98052859
0.98096454
0.98148179
0.98209432
0.98281787
0.98366174
0.98464866
0.98579458
0.98711205
0.98860647
0.99026951
0.99206814
0.99393566
0.99577128
0.98090185
0.98130727
0.98179003
0.98236413
0.98304548
0.98385183
0.9848024
0.98591707
0.98721447
0.98870898
0.99040587
0.99229441
0.99433966
0.99647564
0.99861151
0.98140367
0.98185661
0.98239785
0.9830436
0.9838122
0.98472383
0.98579968
0.98706048
0.98852378
0.99019989
0.99208623
0.9941603
0.99637321
0.99864692
1.0008801
0.97567456
0.97597055
0.97632045
0.97673296
0.97721655
0.97778364
0.97844341
0.97920544
0.98007686
0.98105974
0.98214654
0.98331284
0.98450631
0.98562938
0.98654164
0.97602429
0.97633329
0.97669905
0.97713104
0.97763873
0.97823253
0.97892505
0.9797273
0.9806483
0.98169252
0.98285563
0.98411775
0.98543366
0.98671641
0.98784237
0.9766541
0.97698558
0.97737811
0.97784198
0.97839095
0.97903627
0.97979164
0.98067081
0.98168627
0.98284689
0.98415419
0.98559647
0.98713933
0.98871434
0.99015081
0.97744773
0.97781101
0.97824251
0.97875426
0.97935986
0.98007445
0.98091441
0.98189658
0.98303691
0.98434795
0.98583475
0.98748866
0.9892784
0.99113943
0.99297379
0.9781831
0.97858546
0.97906455
0.97963429
0.98031051
0.98111094
0.98205482
0.98316195
0.98445096
0.98593628
0.98762343
0.98950238
0.99153954
0.99367122
0.99580998
0.97868356
0.97913309
0.97967026
0.9803112
0.98107414
0.98197915
0.98304739
0.98429956
0.98575332
0.98741931
0.98929553
0.99136061
0.99356738
0.99584024
0.99808078
0.97303528
0.97332867
0.97367539
0.97408404
0.97456403
0.97512596
0.97578044
0.9765362
0.9774003
0.97837471
0.97945189
0.98060769
0.98179013
0.98292793
0.98383241
0.97337869
0.97368585
0.97404928
0.97447833
0.97498344
0.97557427
0.97626107
0.97705672
0.97797022
0.97900603
0.98015997
0.98141253
0.98271757
0.98401092
0.98512542
0.9740063
0.97433606
0.9747268
0.9751889
0.97573396
0.97637474
0.97712485
0.97799807
0.97900699
0.98016076
0.98146147
0.98289836
0.98443988
0.98597014
0.98741473
0.9747979
0.97515853
0.97558692
0.97609502
0.97669633
0.9774059
0.97824
0.97921542
0.98034807
0.98165051
0.98312791
0.98477176
0.98655072
0.98840197
0.99023426
0.97552936
0.97592876
0.97640434
0.97696993
0.97764126
0.97843595
0.97937312
0.9804725
0.98175269
0.98322821
0.98490484
0.98677316
0.98880082
0.99092628
0.99306509
0.97602711
0.97647333
0.97700655
0.9776428
0.97840019
0.97929868
0.98035935
0.98160283
0.98304687
0.98470232
0.98656772
0.98862269
0.99082158
0.99309085
0.9953341
0.97045333
0.9707446
0.97108882
0.97149454
0.97197112
0.9725291
0.97317907
0.97392978
0.97478842
0.97575738
0.97683019
0.97797062
0.97915648
0.9802777
0.98116881
0.97079292
0.97109786
0.97145869
0.97188464
0.97238604
0.97297243
0.97365388
0.97444305
0.97534857
0.97637433
0.9775149
0.97876196
0.98007943
0.98136619
0.98248094
0.97142275
0.97175015
0.97213809
0.9725969
0.97313811
0.97377443
0.97451943
0.9753869
0.97638953
0.97753687
0.97883186
0.98026611
0.98176781
0.98329994
0.98474603
0.97221171
0.97256974
0.97299504
0.97349946
0.97409644
0.97480092
0.97562909
0.97659765
0.97772246
0.97901604
0.98048356
0.98211625
0.9838837
0.98572737
0.98755684
0.97293963
0.97333613
0.97380827
0.97436976
0.97503622
0.97582518
0.97675565
0.97784727
0.97911862
0.98058426
0.98225024
0.98410771
0.98612551
0.98824393
0.99038063
0.97343495
0.97387794
0.9744073
0.97503896
0.97579092