/*--------------------------------*- C++ -*----------------------------------*\
| =========                 |                                                 |
| \\      /  F ield         | OpenFOAM: The Open Source CFD Toolbox           |
|  \\    /   O peration     | Version:  4.0                                   |
|   \\  /    A nd           | Web:      www.OpenFOAM.org                      |
|    \\/     M anipulation  |                                                 |
\*---------------------------------------------------------------------------*/
FoamFile
{
    version     2.0;
    format      ascii;
    class       surfaceScalarField;
    location    "2500";
    object      snGradRho;
}
// * * * * * * * * * * * * * * * * * * * * * * * * * * * * * * * * * * * * * //

dimensions      [1 -4 0 0 0 0 0];

internalField   nonuniform List<scalar> 
261000
(
13.655625
-0.042455516
-1.2520199
13.53331
-0.2255398
-1.2533712
13.386208
-0.49615081
-1.2548722
13.159957
-0.25293891
-1.2565687
12.855287
-0.24278183
-1.2582683
12.405638
0.1004734
-1.2597623
11.85859
-0.15375491
-1.260326
11.147169
-0.12173553
-1.2595623
10.243374
-0.083250856
-1.2565143
9.123871
-0.036668461
-1.2499557
7.7750076
0.020230745
-1.2385487
6.1959978
0.090978826
-1.2212805
4.3958618
0.18173805
-1.198312
2.3775517
0.30355757
-1.172281
0.47618145
-1.1497606
0.10252806
13.664056
-0.098693537
-1.2475673
13.547279
-0.41761176
-1.2489516
13.359283
-0.4010298
-1.2505041
13.122502
-0.37724444
-1.252045
12.796199
-0.34758786
-1.2534808
12.398473
-0.30942995
-1.2544863
11.826875
-0.26877292
-1.254889
11.09006
-0.21603696
-1.2536744
10.15987
-0.15114294
-1.2497852
9.0152175
-0.071906071
-1.2418597
7.6471698
0.0250725
-1.2284114
6.0619981
0.14577398
-1.2083019
4.2773851
0.30126341
-1.1816391
2.3051393
0.51210805
-1.1511277
0.81648692
-1.1235517
0.1135481
13.670378
-0.13288399
-1.2395883
13.546595
-0.50766649
-1.2410153
13.369732
-0.48573069
-1.2425721
13.122119
-0.45777749
-1.2441556
12.78189
-0.42261681
-1.2455605
12.323632
-0.37889231
-1.24642
11.718522
-0.32521916
-1.2461327
10.937885
-0.26014238
-1.2437765
9.9575667
-0.18209226
-1.2380558
8.7635405
-0.088973809
-1.2273317
7.3578856
0.022788239
-1.2098395
5.7617738
0.16006791
-1.1842299
4.0105132
0.33614789
-1.1505536
2.1348019
0.57594682
-1.11166
0.92553202
-1.0746295
0.12347759
13.679316
-0.14171796
-1.2306951
13.548779
-0.47940577
-1.2322158
13.35869
-0.4560258
-1.2338317
13.089084
-0.42667189
-1.2353918
12.715795
-0.39042377
-1.2366092
12.211203
-0.34633367
-1.2369878
11.546237
-0.29360901
-1.2357329
10.694169
-0.23163328
-1.23166
9.636373
-0.15979612
-1.2231443
8.3694279
-0.076952464
-1.2081864
6.9115405
0.019697577
-1.1847114
5.3045005
0.13647448
-1.1512339
3.6062711
0.28598599
-1.1079436
1.870259
0.49127388
-1.0581318
0.79310416
-1.0093836
0.11061863
13.686763
-0.107209
-1.2234168
13.545071
-0.31971545
-1.2250871
13.334451
-0.29888257
-1.2268104
13.032097
-0.27406654
-1.228369
12.611135
-0.24500074
-1.2293633
12.042086
-0.21155223
-1.2291209
11.296026
-0.17382907
-1.22659
10.349863
-0.13213653
-1.220243
9.193663
-0.086734369
-1.2080491
7.8387408
-0.037277975
-1.1876106
6.3235915
0.018115887
-1.1565926
4.7132457
0.084115427
-1.1135723
3.0878289
0.16956234
-1.0592748
1.5194769
0.28890461
-0.99796584
0.46352297
-0.93829423
0.043255634
13.689275
-1.2194816
13.527812
-1.2213457
13.28607
-1.2232103
12.938281
-1.2247697
12.454989
-1.2254778
11.805433
-1.2244368
10.962015
-1.2202775
9.9071855
-1.211071
8.6421615
-1.1943538
7.1954095
-1.1673887
5.626954
-1.1278029
4.0236872
-1.0746836
2.4825569
-1.0099917
1.0835386
-0.93987501
-0.87513566
-0.14010146
13.260685
0.048539048
-1.2462611
13.165813
-0.12938657
-1.2475635
13.038352
-0.12099143
-1.2491269
12.867845
-0.11015494
-1.2509893
12.640345
-0.096179647
-1.2531789
12.337494
-0.078150677
-1.2556998
11.93553
-0.054881665
-1.2585105
11.404298
-0.024825245
-1.2614942
10.706666
0.014089975
-1.264424
9.7986009
0.064735667
-1.2669393
8.6303293
0.13127236
-1.2685662
7.1486745
0.22000129
-1.2688278
5.3000203
0.34078366
-1.2675681
3.0326015
0.50922055
-1.2655899
0.74950046
-1.265623
0.29789326
13.269022
0.064400784
-1.2332863
13.175835
-0.24592375
-1.2345866
13.049494
-0.23076812
-1.2361364
12.879208
-0.2112484
-1.2379595
12.650613
-0.18619115
-1.2400667
12.34486
-0.15405581
-1.2424356
11.937674
-0.11287636
-1.2449862
11.398638
-0.060098057
-1.2475476
10.690857
0.0076933851
-1.2498274
9.7714948
0.095288847
-1.2514043
8.5935374
0.20980994
-1.2519109
7.1087306
0.36244489
-1.2507296
5.2707869
0.5713584
-1.2475805
3.036727
0.86643483
-1.2431689
1.2965528
-1.2400529
0.36393933
13.282514
0.049185142
-1.2112136
13.190653
-0.31601176
-1.2125293
13.064062
-0.29682729
-1.2140664
12.891067
-0.27211458
-1.2158159
12.656245
-0.24048582
-1.217742
12.339608
-0.20012517
-1.2197473
11.915875
-0.1487886
-1.2216306
11.354106
-0.083661793
-1.2230265
10.61807
-0.001073497
-1.2233214
9.6677889
0.10409493
-1.2215245
8.4626743
0.23958669
-1.2215232
6.9655659
0.41792461
-1.2187403
5.1469024
0.66047996
-1.212867
2.985611
1.0035683
-1.2044849
1.5083225
-1.1952383
0.46350319
13.299008
0.0084912258
-1.187254
13.20798
-0.32107769
-1.1887829
13.079351
-0.3008181
-1.1905352
12.900015
-0.27510036
-1.1924796
12.652829
-0.24274351
-1.1945552
12.315929
-0.20224622
-1.1966314
11.862348
-0.15183304
-1.1984704
11.260293
-0.089340861
-1.1996833
10.47459
-0.011939532
-1.1996916
9.4697924
0.084495193
-1.197328
8.2151499
0.20667441
-1.1933538
6.691286
0.36607557
-1.1847914
4.8938002
0.5823187
-1.1718568
2.8352377
0.88886108
-1.1551912
1.3401446
-1.1364058
0.53927035
13.314005
-0.024731992
-1.1725538
13.220829
-0.23222805
-1.1742771
13.085376
-0.21368036
-1.176211
12.892621
-0.19130647
-1.1783148
12.623197
-0.16446968
-1.1804925
12.25295
-0.13240574
-1.1825638
11.753056
-0.094268565
-1.1842316
11.09118
-0.049070891
-1.1850649
10.23433
0.0045029346
-1.1845425
9.1539322
0.068537875
-1.1822964
7.8322779
0.14667734
-1.1701711
6.2708735
0.24570439
-1.1528608
4.4945739
0.37744325
-1.1300725
2.5519831
0.56142868
-1.1031137
0.82466906
-1.0756664
0.50897376
13.322987
-1.1671767
13.219918
-1.1690054
13.068742
-1.1710271
12.852286
-1.1731542
12.548707
-1.1752049
12.131325
-1.176849
11.569317
-1.1775393
10.829926
-1.1764316
9.8828494
-1.1723042
8.7071042
-1.163464
7.2997851
-1.1478753
5.6850577
-1.1252088
3.9176739
-1.0960988
2.0775479
-1.0637358
-1.0351041
0.2501654
12.880157
-0.1728764
-1.1979514
12.783472
0.04588548
-1.199284
12.657061
0.048709631
-1.2008759
12.492579
0.053771324
-1.202781
12.278685
0.062159479
-1.2050619
12.000001
0.075447671
-1.2077883
11.635766
0.095894857
-1.2110277
11.158128
0.12671913
-1.2153574
10.530143
0.17244505
-1.2205003
9.7036708
0.23952796
-1.2265205
8.6187882
0.33339495
-1.2333692
7.2023379
0.46847557
-1.2407908
5.3699607
0.66511768
-1.2481436
3.0323807
0.95186995
-1.2540937
1.391925
-1.2560166
0.096976823
12.891013
-0.33315247
-1.1953635
12.799177
0.046607036
-1.1968008
12.678034
0.050331967
-1.1985201
12.519054
0.057998287
-1.2005904
12.310596
0.071687283
-1.203095
12.036825
0.09448255
-1.2061393
11.67627
0.13096401
-1.2098566
11.199965
0.18800147
-1.21387
10.569144
0.27602206
-1.218632
9.7265557
0.43334401
-1.2241348
8.6312439
0.56811604
-1.2300681
7.2114789
0.78497447
-1.2361565
5.3877591
1.1163348
-1.2417725
3.0804167
1.6101588
-1.2457316
2.4821517
-1.2459887
0.16211863
12.908989
-0.45770714
-1.1926506
12.825846
-0.016072134
-1.1940921
12.714267
-0.017730148
-1.1957982
12.565551
-0.015816945
-1.197834
12.367901
-0.0083630887
-1.2002699
12.10551
0.007357516
-1.2031915
11.757553
0.035028639
-1.2067014
11.297311
0.079463538
-1.210926
10.692559
0.14443001
-1.2160552
9.6189985
1.2586505
-1.2223886
8.5342495
0.58662645
-1.2250811
7.1230319
0.85771121
-1.2274988
5.3291175
1.2371656
-1.2288321
3.1135217
1.7685896
-1.2280907
2.6581941
-1.2247207
0.47309363
12.900871
-0.15037997
-1.1884564
12.82682
-0.10577917
-1.1898438
12.722516
-0.099267487
-1.191459
12.577615
-0.088754949
-1.1933487
12.378094
-0.072632743
-1.1955443
12.105224
-0.048691466
-1.1980656
11.734466
-0.014067433
-1.2009055
11.234492
0.034751857
-1.2040037
10.566837
0.099178485
-1.2072029
9.6105966
1.3472662
-1.2105797
8.464234
0.50714639
-1.2119366
7.0035885
0.75016083
-1.2126111
5.2021739
1.0599103
-1.2111104
3.0670268
1.4652517
-1.2067199
2.0011564
-1.2000428
0.74050424
12.92195
0.084462767
-1.1793501
12.849136
-0.11580639
-1.1808365
12.742445
-0.097052554
-1.1825367
12.589436
-0.074041874
-1.1844566
12.373221
-0.045400713
-1.1865803
12.071212
-0.0089712486
-1.1888485
11.653655
0.038657202
-1.1911196
11.081938
0.1032182
-1.1930971
10.305644
0.19521504
-1.1941905
9.6346406
0.33669082
-1.1932074
8.3809799
0.38051496
-1.1963271
6.8397101
0.4987199
-1.1969646
4.9986969
0.66300993
-1.19432
2.8851031
0.88124941
-1.1880105
1.1584586
-1.1787184
0.5760214
12.962813
-1.171321
12.885178
-1.1731086
12.771999
-1.1751174
12.610074
-1.1773465
12.381674
-1.1797762
12.06362
-1.1823534
11.626766
-1.1849699
11.036681
-1.1874362
10.257173
-1.1894678
9.2602086
-1.1907656
7.9669186
-1.191088
6.3777002
-1.1888268
4.5133698
-1.1829134
2.4346858
-1.172944
-1.1598354
0.22896068
12.490667
0.12532865
-1.2235002
12.393866
0.1477314
-1.2247181
12.266655
0.15099953
-1.2261767
12.101184
0.15615544
-1.2279251
11.88693
0.16383553
-1.2300202
11.609896
0.17480081
-1.2325265
11.199135
0.51676742
-1.2355181
10.723316
0.2784453
-1.2385508
10.103746
0.32852118
-1.2419938
9.2972745
0.39376578
-1.2457795
8.2497867
0.47930953
-1.2497713
6.895962
0.59232254
-1.253753
5.1620752
0.74297004
-1.2574567
2.9757132
0.94560114
-1.260681
1.2194025
-1.263637
0.29010355
12.481699
0.55566924
-1.2159531
12.387749
0.26423464
-1.2170583
12.262561
0.27876642
-1.218377
12.097477
0.29874099
-1.2199394
11.880764
0.32607524
-1.2217752
11.596577
0.36347172
-1.2239018
11.27612
0.41471754
-1.2263075
10.800029
0.47299136
-1.2294675
10.179141
0.5545543
-1.2329631
9.3699883
0.66411642
-1.236692
8.3188929
0.8104514
-1.240462
6.9619005
1.0066092
-1.2439775
5.227734
1.2719021
-1.2468474
3.0465917
1.6353073
-1.248589
2.1404753
-1.2485318
0.36909587
12.521391
0.60825732
-1.1979728
12.43808
0.26178099
-1.1991763
12.324827
0.27775984
-1.2006222
12.172874
0.29994403
-1.2023431
11.970421
0.33032375
-1.2043787
11.701765
0.3715753
-1.2067632
11.346301
0.42711144
-1.2095165
10.87505
0.50138989
-1.2126302
10.252913
0.60065248
-1.2160258
9.4351017
0.73307044
-1.219554
8.3725404
0.91028261
-1.2229619
7.005736
1.147654
-1.2259982
5.2725277
1.4678651
-1.2284675
3.1180792
1.9054661
-1.2303551
2.5142283
-1.2317559
0.51017054
12.55534
0.48285642
-1.1728171
12.484045
0.16871514
-1.174196
12.382842
0.18459911
-1.1758485
12.242044
0.20649148
-1.1778005
12.048566
0.23625176
-1.1800848
11.785
0.2763831
-1.1827206
11.428578
0.33008846
-1.1857026
10.950146
0.40147909
-1.1889881
10.313462
0.4959127
-1.1924897
9.4746433
0.62061482
-1.1960911
8.3857047
0.78626519
-1.1996979
6.9934167
1.0057837
-1.2034165
5.2515276
1.2984484
-1.2077618
3.132338
1.6931933
-1.2141402
2.2333445
-1.2253005
0.64247488
12.587472
0.24425483
-1.1446425
12.526842
0.045995634
-1.1462835
12.435225
0.060630765
-1.1482265
12.301655
0.079427274
-1.1504878
12.111392
0.10357922
-1.1530879
11.845033
0.13468225
-1.1560326
11.477641
0.17476294
-1.1593103
10.978168
0.2263724
-1.1629013
10.309663
0.29268373
-1.1668126
9.431316
0.37751098
-1.1711667
8.2922631
0.48473658
-1.1764001
6.8512949
0.62245067
-1.1833635
5.0830249
0.80110313
-1.1937916
2.9934742
1.0339161
-1.2109024
1.3325721
-1.2400547
0.64134558
12.609294
-1.1194528
12.55081
-1.1213196
12.459201
-1.1233756
12.322074
-1.1256131
12.122829
-1.1280458
11.839775
-1.1307205
11.445388
-1.1337586
10.906027
-1.1374268
10.182627
-1.1422489
9.2329444
-1.1491596
8.0156878
-1.1596718
6.5017737
-1.1759542
4.6874643
-1.2007428
2.6091603
-1.2367732
-1.2852257
0.34912705
12.121697
0.060471235
-1.1320369
12.022553
0.26857139
-1.1332837
11.89235
0.27224468
-1.1347715
11.723596
0.27842116
-1.1365525
11.50618
0.28826181
-1.1386904
11.226498
0.303438
-1.141263
10.866258
0.32634537
-1.1443652
10.401178
0.3604163
-1.1481083
9.7987969
0.41047344
-1.1526164
9.0164415
0.48334187
-1.1580065
7.9991333
0.58866506
-1.1643448
6.6784371
0.74001974
-1.1715471
4.9736976
0.95629855
-1.1791171
2.798335
1.2638828
-1.1864207
1.7521075
-1.1892454
0.05126532
12.133612
0.13211709
-1.1336623
12.037244
0.4913855
-1.1348625
11.910101
0.49437254
-1.1362729
11.744488
0.50142607
-1.1381221
11.529998
0.51463917
-1.140341
11.252623
0.53703799
-1.1430117
10.8936
0.5729543
-1.1462349
10.427686
0.62854891
-1.1501321
9.8216975
0.71252612
-1.1548382
9.0325139
0.8370071
-1.1604475
8.005528
1.0186588
-1.1671217
6.6744044
1.2800316
-1.1751352
4.9652948
1.6505809
-1.1792573
2.8078396
2.1667225
-1.183762
3.1010018
-1.1855869
0.078052978
12.157719
0.18361187
-1.1356923
12.069959
0.60157374
-1.1370136
11.952255
0.59974166
-1.1385842
11.79652
0.6022825
-1.1405374
11.591755
0.61182184
-1.1428744
11.32308
0.63217583
-1.1457105
10.970506
0.66881084
-1.1491845
10.507435
0.72944842
-1.1534895
9.8989578
0.82486767
-1.1589069
9.1005099
0.96976861
-1.1624754
8.0572814
1.1837838
-1.1666931
6.7055987
1.4924624
-1.1716675
4.9804464
1.9278155
-1.1745226
2.829853
2.5250946
-1.1778465
3.7603825
-1.1862495
0.1354042
12.189136
0.1975635
-1.1359682
12.115574
0.57102377
-1.1374923
12.013051
0.56265597
-1.1393455
11.872744
0.55785096
-1.1413417
11.682525
0.55928322
-1.1432864
11.425892
0.57082944
-1.1455826
11.080683
0.59797134
-1.1482615
10.617696
0.64828041
-1.1513204
9.9991902
0.73201004
-1.1549337
9.1786643
0.86280491
-1.1579457
8.1021081
1.0584686
-1.1613576
6.7124427
1.3416064
-1.1640394
4.9581873
1.740181
-1.1740931
2.8060244
2.2849585
-1.1837692
3.4828641
-1.1934414
0.24036553
12.219948
0.19308177
-1.1316565
12.163528
0.42668581
-1.1330042
12.078342
0.41491262
-1.1345344
11.953965
0.40677677
-1.1363079
11.775947
0.4043305
-1.1383336
11.524685
0.41009613
-1.1406737
11.174316
0.42708567
-1.143226
10.691961
0.45885669
-1.1458639
10.037872
0.50970685
-1.1482917
9.1671772
0.58522257
-1.1551429
8.0338526
0.69357648
-1.1626173
6.5975693
0.84813692
-1.1712006
4.8312729
1.0721083
-1.1813825
2.7230815
1.4050577
-1.1928107
2.1175817
-1.2044535
0.4346135
12.262153
-1.1266237
12.247919
-1.1282047
12.207218
-1.1299951
12.128476
-1.1320008
11.995684
-1.1348188
11.78722
-1.1380988
11.474662
-1.1419533
11.021917
-1.1465555
10.385245
-1.1521992
9.5151512
-1.1592605
8.3615789
-1.1679292
6.8841809
-1.1783752
5.0695696
-1.1905755
2.9574571
-1.2038518
-1.2158442
0.81960333
11.757707
0.48207907
-1.0675174
11.658719
0.32698621
-1.0685613
11.527623
0.3370725
-1.0698093
11.356988
0.34808031
-1.0712977
11.136751
0.36229463
-1.0730688
10.853465
0.38153311
-1.075169
10.489359
0.40747711
-1.0776478
10.021085
0.44234232
-1.0800747
9.4182967
0.48904778
-1.0827822
8.6418877
0.55218672
-1.0857288
7.6431095
0.63579554
-1.0888374
6.3645555
0.74238365
-1.0920117
4.718079
0.94355265
-1.0952667
2.7131652
1.0076202
-1.0982675
1.6595594
-1.103468
0.06810101
11.79559
0.50767385
-1.0638225
11.703595
0.54045448
-1.0649698
11.543475
0.97609805
-1.0663511
11.375624
0.63462794
-1.0678271
11.157692
0.65812563
-1.0695687
10.875743
0.69036262
-1.0716128
10.511436
0.7338938
-1.0740185
10.040894
0.79185634
-1.0763605
9.4335141
0.86759819
-1.0789924
8.6404891
1.0063897
-1.0818516
7.604955
1.1976791
-1.0847551
6.4881557
0.7928092
-1.0872451
4.7945013
1.7190969
-1.0940681
2.7427508
1.813145
-1.1001743
3.1127845
-1.1072558
0.0083837423
11.808174
0.65894442
-1.0584808
11.719471
0.70096584
-1.059525
11.586766
1.2381827
-1.0607442
11.425145
0.80957078
-1.0620715
11.211255
0.84295995
-1.0635738
10.928733
0.89278965
-1.0651987
10.555872
0.96202724
-1.0668501
10.063388
1.0585978
-1.0693531
9.6334652
0.30075373
-1.0717796
8.8297516
1.1966001
-1.0771594
7.7946341
1.3966262
-1.0830347
6.5629819
0.8158094
-1.0892501
4.8808229
1.9881772
-1.0984581
2.6248665
2.5108451
-1.107668
3.6985804
-1.111482
0.0084885157
11.809849
1.1279228
-1.0531213
11.723747
0.83276266
-1.0542624
11.654304
0.85196755
-1.0555552
11.572219
0.2911512
-1.057269
11.37989
0.78926088
-1.0596939
11.122948
0.81325332
-1.0625376
10.780887
0.85422237
-1.0658985
10.327272
0.91877174
-1.0699224
9.7824985
0.0088629806
-1.0745751
9.0041321
0.96786404
-1.0811513
8.0029655
1.0940929
-1.088805
6.3842899
1.3272759
-1.0988418
4.7028902
1.7269898
-1.1034237
2.6073134
2.2460446
-1.1101748
3.3691732
-1.1178035
0.11094655
11.916096
0.57697125
-1.0537491
11.868143
0.58875704
-1.0553636
11.793502
0.58660524
-1.0573259
11.678433
0.092857718
-1.0596672
11.516578
0.49826949
-1.0624841
11.288362
0.49045423
-1.0658363
10.972231
0.48763146
-1.0699691
10.542554
0.48796334
-1.0751801
9.6823237
0.51421894
-1.0819831
8.8454162
0.59817906
-1.0860506
7.7308084
0.70163349
-1.0915454
6.3052777
0.84326398
-1.0984608
4.5686516
1.0477933
-1.1067996
2.5145938
1.349509
-1.1168792
1.9941719
-1.1276639
0.32484588
11.953143
-1.0567761
11.954746
-1.0585103
11.931935
-1.0606223
11.804235
-1.0632084
11.679067
-1.0657942
11.474802
-1.0688789
11.161068
-1.0725384
10.698115
-1.0768468
10.043444
-1.0818457
9.160221
-1.0876132
7.9986735
-1.0945388
6.5232837
-1.1030653
4.7340985
-1.1134826
2.6985861
-1.1253801
-1.1366515
0.72783553
11.451474
0.3459197
-0.95569663
11.352307
0.36893215
-0.95667885
11.221602
0.37486967
-0.95783876
11.052078
0.38371437
-0.95920615
10.833956
0.39661611
-0.96081442
10.554181
0.41517551
-0.96270101
10.243777
0.13942907
-0.96490693
9.7915722
0.42833133
-0.96795556
9.2089936
0.47818682
-0.97160642
8.4567573
0.55015774
-0.97598542
7.4842855
0.65344741
-0.98125137
6.2285963
0.80069626
-0.98573947
4.6150441
1.0098099
-0.98824696
2.5645763
1.3027558
-0.99030882
1.7598281
-0.99113955
-0.020644641
11.46642
0.6274182
-0.95930048
11.371316
0.66221573
-0.96025602
11.245002
0.67159433
-0.96138507
11.079974
0.68643271
-0.96271342
10.866047
0.70916244
-0.96426728
10.589495
0.74328102
-0.96606991
10.276239
0.24291514
-0.96811222
9.8225356
0.76287574
-0.9708442
9.2366296
0.84163766
-0.97389124
8.4781076
0.96083506
-0.9772483
7.4962131
1.1352489
-0.98077883
6.2303882
1.3839131
-0.9861394
4.6068293
1.7316353
-0.98954883
2.561447
2.2081552
-0.99268605
3.0587702
-0.99432254
-0.019313277
11.524451
0.35019886
-0.96257696
11.444183
0.74395363
-0.96365252
11.335749
0.73896008
-0.96494595
11.192062
0.73751872
-0.96650333
11.003512
0.74177356
-0.968382
10.757278
0.75465309
-0.97065454
10.341797
0.78645406
-0.97341616
9.9001034
0.8493761
-0.97577449
9.318318
0.94480786
-0.97845665
8.5523739
1.0862547
-0.98137719
7.5501766
1.2913207
-0.98429593
6.2527635
1.5820404
-0.98674026
4.5971063
1.9816459
-0.99283403
2.5364983
2.5192195
-0.99747723
3.6152824
-0.99954627
0.00084524696
11.53739
0.33166299
-0.96404436
11.470845
0.68466183
-0.96520994
11.375908
0.67533659
-0.96659571
11.243921
0.66943859
-0.96824165
11.062752
0.66961212
-0.97019287
10.815789
0.6797167
-0.97249713
10.481514
0.70518977
-0.97519912
10.032567
0.75328175
-0.97833935
9.4322051
0.83330937
-0.98196034
8.6340345
0.95646647
-0.9860821
7.5846488
1.1380237
-0.99066606
6.225905
1.3967814
-0.99560538
4.5210785
1.7539454
-1.0004589
2.4523565
2.2287826
-1.0042435
3.2466176
-1.0053144
0.079135016
11.569845
0.27248622
-0.96579924
11.521277
0.49319575
-0.96709484
11.444465
0.48123277
-0.96864083
11.329133
0.47293167
-0.97048501
11.160907
0.47026638
-0.97268298
10.920188
0.47559499
-0.97529758
10.580916
0.49158369
-0.97839592
10.109573
0.52117984
-0.98204036
9.4647736
0.56780717
-0.9862669
8.6038199
0.63562061
-0.99103571
7.481
0.73030015
-0.99624349
6.0603159
0.86210883
-1.0015909
4.3295407
1.0498323
-1.0064439
2.3119311
1.325201
-1.0096441
1.904787
-1.0091495
0.25204711
11.614208
-0.96709167
11.608883
-0.96854162
11.577049
-0.97027751
11.506702
-0.97235431
11.381297
-0.97483427
11.178197
-0.97778591
10.867532
-0.98127649
10.411376
-0.98535664
9.7642923
-0.99003184
8.876628
-0.99521709
7.7023587
-1.0006732
6.2150017
-1.0059136
4.4333363
-1.0100822
2.4548039
-1.0117917
-1.0089279
0.6037744
11.165513
0.4937904
-0.85912745
11.069459
0.34656896
-0.85993508
10.942411
0.35598369
-0.86090313
10.77712
0.36869092
-0.86205807
10.563869
0.38586046
-0.86342812
10.289704
0.40913208
-0.86504068
9.9374363
0.44079161
-0.866918
9.4841175
0.48402806
-0.86906956
8.8997018
0.54331468
-0.87147626
8.1449704
0.62498212
-0.87308501
7.2612605
0.42242627
-0.87433119
6.1251213
0.51759754
-0.87655612
4.5446958
0.99982155
-0.88033328
2.542472
1.2732306
-0.8830676
1.7120031
-0.88382414
0.023908553
11.199691
0.58221426
-0.85661021
11.107746
0.61538025
-0.8575142
10.985783
0.62357386
-0.8585948
10.826676
0.63640259
-0.85988377
10.620858
0.65583192
-0.86141769
10.355566
0.68462259
-0.86323827
10.013899
0.72658038
-0.8653929
9.5734035
0.78683833
-0.86793621
9.0051813
0.87238293
-0.87097703
8.2722706
0.99235185
-0.87367266
7.2365148
1.1584072
-0.87684537
6.0899713
0.85537512
-0.87846297
4.5090061
1.7072647
-0.88167658
2.5261721
2.1504605
-0.88359492
2.9756582
-0.88338556
0.026083638
11.24155
0.35319362
-0.85561051
11.159424
0.73762675
-0.85653499
11.048786
0.7334254
-0.85762816
10.902325
0.73332352
-0.85891284
10.710086
0.73975126
-0.86040974
10.458629
0.75614064
-0.86213277
10.129935
0.78725529
-0.86408022
9.7006099
0.83956041
-0.86621792
9.1399555
0.92161143
-0.86845221
8.4091863
1.0444366
-0.87266837
7.4609313
1.2216359
-0.87736291
6.0459815
1.4914475
-0.88265449
4.4722917
1.9013514
-0.8837549
2.5035358
2.4327707
-0.88423942
3.5104255
-0.88245645
0.061477135
11.257119
0.32628525
-0.85594438
11.192097
0.67062056
-0.85695869
11.09908
0.66141571
-0.85816654
10.969658
0.65548412
-0.85959846
10.792278
0.65532864
-0.86128605
10.551253
0.66453916
-0.86326005
10.225566
0.68812088
-0.86554751
9.787525
0.73287132
-0.8681689
9.2014396
0.80780733
-0.87113845
8.4227484
0.92467818
-0.874427
7.3983476
1.0987139
-0.87784673
6.0782307
1.3487559
-0.88098619
4.4333805
1.6942752
-0.88316906
2.4486334
2.150814
-0.88354765
3.1470686
-0.88023457
0.17488628
11.288002
0.26600931
-0.85613463
11.23991
0.4813395
-0.85725842
11.163798
0.46967597
-0.85859354
11.04955
0.46159251
-0.86017076
10.883126
0.45903151
-0.86201976
10.645506
0.46428503
-0.86416539
10.311643
0.47992956
-0.86662168
9.8497546
0.50876942
-0.86938267
9.2215027
0.55390943
-0.87240794
8.384012
0.61919537
-0.87559756
7.2949888
0.71036028
-0.87874791
5.9222817
0.83719218
-0.88147224
4.2576985
1.0168208
-0.88304639
2.3313848
1.2768907
-0.88207988
1.8339761
-0.87588895
0.3928776
11.330821
-0.85620983
11.324617
-0.85746416
11.292032
-0.85894847
11.221351
-0.86069154
11.096375
-0.86271756
10.895287
-0.86504058
10.589553
-0.86765607
10.143231
-0.87052879
9.5134501
-0.87357434
8.653486
-0.87662826
7.5207082
-0.87938824
6.0923378
-0.88130144
4.3912237
-0.88135809
2.5188903
-0.87777284
-0.86766324
0.80577478
10.928731
0.34390998
-0.7595557
10.831942
0.36571263
-0.76032183
10.705187
0.37145857
-0.76122889
10.541557
0.38005335
-0.76229872
10.33181
0.3926347
-0.76355435
10.063634
0.41079117
-0.76501903
9.7207018
0.43671003
-0.76671349
9.281466
0.47336721
-0.76865067
8.7870177
0.20619332
-0.77082565
8.0726923
0.54940303
-0.77417874
7.1531292
0.64940644
-0.77800102
5.969565
0.79014714
-0.78224627
4.4504184
0.98838607
-0.78671588
2.5205502
1.2667462
-0.78803076
1.7085029
-0.78550294
0.088491205
10.943413
0.61651189
-0.76309973
10.851165
0.64943614
-0.76383538
10.729405
0.65830294
-0.7647149
10.571052
0.67218188
-0.76576124
10.366574
0.69328105
-0.76699792
10.103188
0.72476185
-0.76844631
9.7637811
0.77110538
-0.77012031
9.3254815
0.8386415
-0.77201605
8.8218863
0.3537115
-0.77404786
8.0993882
0.96608722
-0.77703242
7.1684947
1.1251284
-0.78005146
5.9731413
1.3574792
-0.7829347
4.4471613
1.6844838
-0.78539062
2.5321379
2.1353707
-0.78419606
2.9612355
-0.7832536
0.12266717
10.997156
0.37408228
-0.76487496
10.917499
0.74956947
-0.76570307
10.810855
0.74496373
-0.7667039
10.6704
0.74402231
-0.76791248
10.486901
0.74893361
-0.76937057
10.248
0.76273742
-0.77112798
9.9373646
0.78952773
-0.77324438
9.533822
0.83458766
-0.77579268
8.8732906
0.91591663
-0.77886951
8.157678
1.0564646
-0.78052344
7.2184717
1.2548564
-0.78204576
5.9999635
1.5325226
-0.78286585
4.4546436
1.9140341
-0.78193088
2.5474665
2.4225633
-0.78361927
3.4862474
-0.78136782
0.21065219
11.011335
0.34740212
-0.764976
10.947043
0.68382071
-0.76587013
10.855906
0.67464724
-0.76693739
10.729807
0.66869834
-0.76820644
10.557523
0.66847463
-0.76970709
10.323677
0.67758965
-0.77146676
10.007403
0.70113931
-0.77350262
9.5806947
0.74617836
-0.77580501
9.0094658
0.8221081
-0.77830354
8.2550279
0.94043257
-0.78084596
7.2685511
1.1145358
-0.78321167
6.0014745
1.3600728
-0.78499853
4.4191837
1.6939708
-0.78559136
2.5209046
2.1302619
-0.78391989
3.1164114
-0.77773873
0.38492861
11.042328
0.28049514
-0.76500421
10.995515
0.49083929
-0.76599502
10.922113
0.47934199
-0.76717461
10.812412
0.47145507
-0.76857293
10.652853
0.46914203
-0.77022005
10.424946
0.47473013
-0.77214179
10.104209
0.49084665
-0.77435049
9.6594869
0.52034843
-0.77682792
9.0532928
0.56633393
-0.77949565
8.2440418
0.63243809
-0.78216789
7.1914891
0.72375378
-0.78447963
5.8670696
0.84872359
-0.78578275
4.2699287
1.0218988
-0.7850092
2.4438372
1.2656332
-0.78050404
1.8057202
-0.76985127
0.67901124
11.085669
-0.76510231
11.08155
-0.76620976
11.052819
-0.7675257
10.988237
-0.7690803
10.872146
-0.77090055
10.68332
-0.77300239
10.393865
-0.77537576
9.9686008
-0.77795829
9.3657876
-0.78059231
8.5407468
-0.78296016
7.4546961
-0.78449738
6.091497
-0.78429373
4.4835068
-0.78101018
2.7412232
-0.77286892
-0.75782016
1.2089922
10.705909
0.48244929
-0.68173648
10.610966
0.34088161
-0.68235669
10.486967
0.34988542
-0.68310572
10.327117
0.36187724
-0.68400586
10.122376
0.37788703
-0.68508124
9.8607761
0.39934831
-0.68635578
9.5265297
0.42823606
-0.68784995
9.0989156
0.46725297
-0.68957526
8.5509359
0.52005993
-0.6915257
7.8470303
0.59155403
-0.69366522
6.9426166
0.68824682
-0.69589757
5.7828615
0.81877378
-0.69618493
4.4023224
0.73563096
-0.69549729
2.5911221
1.1052081
-0.6959881
1.7252354
-0.69651693
0.20728847
10.737356
0.59635414
-0.67862605
10.645059
0.6276075
-0.67932815
10.524336
0.63564626
-0.68016579
10.36845
0.64819129
-0.68116149
10.168384
0.66717089
-0.68233998
9.9121383
0.69530353
-0.68372725
9.5837903
0.73635987
-0.68534852
9.1623308
0.79551214
-0.68722475
8.6202996
0.8797567
-0.68936691
7.9215073
0.99825446
-0.69176848
7.0212813
1.1635945
-0.69446319
5.8647407
1.3920694
-0.69569214
4.4766214
1.2331221
-0.69654193
2.5564683
2.1337622
-0.69863098
2.9590485
-0.69593551
0.23033758
10.777962
0.39642949
-0.67762147
10.695663
0.76437983
-0.6783342
10.586539
0.76037169
-0.67918213
10.44375
0.76041941
-0.68018436
10.258035
0.76693082
-0.68135855
10.016928
0.78330542
-0.68271724
9.7037603
0.81426137
-0.68426087
9.2964321
0.86624198
-0.68596509
8.765986
0.94790369
-0.68775704
8.0770581
1.0705039
-0.68946966
7.1860086
1.2480172
-0.69077757
6.0447143
1.4968243
-0.6949668
4.4079329
1.8591877
-0.69885311
2.603886
2.3850518
-0.69647536
3.481057
-0.69152104
0.35655694
10.794474
0.36876519
-0.67705873
10.730296
0.69813682
-0.67783649
10.640149
0.68903473
-0.6787627
10.516256
0.68312497
-0.67985883
10.347966
0.68285395
-0.6811451
10.120852
0.6917207
-0.68263706
9.8156103
0.71458347
-0.68433975
9.4068593
0.75799825
-0.68623846
8.862059
0.83056811
-0.68828539
8.1410834
0.94328133
-0.69038312
7.1972786
1.1098456
-0.69237196
5.9813766
1.3471548
-0.69389247
4.4618962
1.6745525
-0.69397632
2.6533445
2.1058923
-0.69117071
3.1289824
-0.68377356
0.60588954
10.825763
0.29271445
-0.67650185
10.779635
0.49862692
-0.67736357
10.707906
0.48726725
-0.67838547
10.601256
0.47950019
-0.67958795
10.446743
0.47726969
-0.68098767
10.226819
0.48287533
-0.6825923
9.9183602
0.49890528
-0.68439166
9.4920306
0.52816567
-0.68634319
8.9125376
0.57370803
-0.68834895
8.140701
0.6391577
-0.69021852
7.1386659
0.72962338
-0.69160729
5.8799338
0.85337625
-0.69191253
4.3655082
1.0239386
-0.69012926
2.6405466
1.2602948
-0.68470454
1.8123854
-0.67337283
0.99665058
10.869223
-0.6761196
10.866054
-0.67708112
10.839471
-0.6782139
10.778798
-0.67953413
10.669265
-0.68104949
10.490978
-0.68275078
10.217958
-0.68459836
9.8176063
-0.68650118
9.2513972
-0.6882848
8.4781915
-0.68964391
7.4624071
-0.69007375
6.1896738
-0.68877943
4.6911159
-0.68458007
3.0705231
-0.67586769
-0.66075634
1.6777385
10.523697
0.35043181
-0.6111904
10.426819
0.37103213
-0.61179982
10.301699
0.37667004
-0.61252298
10.141822
0.38507394
-0.61337816
9.9385345
0.39735676
-0.61438478
9.6803714
0.41507787
-0.61556263
9.3521767
0.44039985
-0.61692972
8.9339716
0.47630418
-0.61849771
8.3995692
0.52686853
-0.62026341
7.7150126
0.59760554
-0.62219277
6.9288714
0.3798995
-0.62419184
5.812668
0.80105877
-0.6279084
4.3872082
0.99752596
-0.63171283
2.5772938
1.2742002
-0.6323655
1.721031
-0.63141844
0.28409628
10.538093
0.627465
-0.61389109
10.44593
0.65851219
-0.61446224
10.326041
0.66705686
-0.61514898
10.171804
0.68021311
-0.61597045
9.9743875
0.70000109
-0.61694647
9.7220459
0.72930475
-0.61809536
9.399188
0.77218805
-0.61942981
8.9851636
0.83434045
-0.62094938
8.4527455
0.92368184
-0.62262712
7.7663334
1.051197
-0.6243859
6.9625454
0.65764485
-0.62597807
5.8377779
1.3918961
-0.6287477
4.4130467
1.7026163
-0.63091696
2.6261673
2.1417138
-0.62972964
2.9837412
-0.62706101
0.36454608
10.588445
0.42834813
-0.61423105
10.506818
0.78925519
-0.61487585
10.399606
0.78504159
-0.61565079
10.260351
0.7846798
-0.61657975
10.080347
0.79046833
-0.61768963
9.8479453
0.80563061
-0.61900985
9.5476959
0.8345871
-0.62057088
9.1593794
0.88324574
-0.62240161
8.6571381
0.9592316
-0.62452575
8.0092528
1.0718245
-0.62695966
6.9961819
1.2503016
-0.62972687
5.8871853
1.5330671
-0.62898657
4.4674982
1.9116296
-0.62685821
2.7158173
2.4134123
-0.62746385
3.5211092
-0.62451322
0.5466517
10.60502
0.39854221
-0.61396904
10.541291
0.72159569
-0.61466819
10.452788
0.71241488
-0.615503
10.33209
0.70636852
-0.61649534
10.169017
0.70588326
-0.61766747
9.9497357
0.7144371
-0.61903909
9.6556423
0.73687544
-0.62062119
9.2620718
0.7797779
-0.622404
8.7369748
0.85189073
-0.62433398
8.0398608
0.96470646
-0.6262705