/*--------------------------------*- C++ -*----------------------------------*\
| =========                 |                                                 |
| \\      /  F ield         | OpenFOAM: The Open Source CFD Toolbox           |
|  \\    /   O peration     | Version:  4.0                                   |
|   \\  /    A nd           | Web:      www.OpenFOAM.org                      |
|    \\/     M anipulation  |                                                 |
\*---------------------------------------------------------------------------*/
FoamFile
{
    version     2.0;
    format      ascii;
    class       volScalarField;
    location    "2500";
    object      T;
}
// * * * * * * * * * * * * * * * * * * * * * * * * * * * * * * * * * * * * * //

dimensions      [0 0 0 1 0 0 0];

internalField   nonuniform List<scalar> 
90000
(
306.36028
306.23608
306.08921
305.9159
305.71268
305.47593
305.20355
304.89318
304.54551
304.16489
303.76107
303.35121
302.9622
302.6334
302.42141
306.33411
306.20544
306.05323
305.87415
305.66432
305.4203
305.13837
304.81774
304.45931
304.06785
303.65368
303.23452
302.83745
302.50123
302.28015
306.29196
306.1546
305.99217
305.8009
305.57694
305.31669
305.01738
304.67785
304.29971
303.88874
303.45649
303.02185
302.61231
302.26518
302.02968
306.24482
306.09476
305.9174
305.70873
305.46478
305.182
304.85793
304.49214
304.08742
303.65129
303.19732
302.74621
302.32615
301.9724
301.72718
306.20501
306.0386
305.84208
305.61124
305.34205
305.03118
304.67681
304.27974
303.84471
303.38176
302.90737
302.44476
302.02308
301.6755
301.43701
306.18155
305.99549
305.77612
305.51909
305.22044
304.87734
304.48904
304.05818
303.59214
303.10441
302.61519
302.1509
301.74221
301.42099
301.21746
309.72616
309.60289
309.45684
309.2843
309.08118
308.84323
308.56633
308.24703
307.88349
307.47691
307.03378
306.56906
306.11076
305.70614
305.43029
309.68731
309.55957
309.40821
309.22936
309.01879
308.77211
308.48504
308.15407
307.77732
307.35608
306.89701
306.41534
305.93918
305.51532
305.21701
309.62256
309.48607
309.32431
309.13314
308.90807
308.64444
308.33779
307.9845
307.58278
307.13423
306.6461
306.13425
305.62711
305.17037
304.83278
309.55024
309.40105
309.22421
309.01523
308.76927
308.48136
308.14688
307.76222
307.32598
306.8406
306.31463
305.76549
305.2227
304.73102
304.3533
309.48981
309.32434
309.12824
308.89664
308.62431
308.30607
307.93726
307.51464
307.03774
306.5106
305.94409
305.35846
304.78564
304.27076
303.87194
309.45516
309.27016
309.05112
308.79276
308.48959
308.1363
307.72851
307.2638
306.74332
306.17378
305.56984
304.95641
304.37019
303.85981
303.48393
313.15078
313.02837
312.88342
312.71219
312.5106
312.27431
311.99898
311.68075
311.31712
310.90832
310.45969
309.98526
309.51327
309.09426
308.81235
313.07502
312.94808
312.79769
312.61994
312.41056
312.16497
311.8786
311.54735
311.16852
310.74226
310.27441
309.77888
309.28368
308.83858
308.52535
312.94758
312.81179
312.65079
312.46033
312.23571
311.9719
311.6638
311.30668
310.89706
310.43389
309.93522
309.40479
308.87089
308.38182
308.01223
312.80726
312.65915
312.48341
312.27538
312.02993
311.74163
311.40509
311.01558
310.5701
310.06799
309.52011
308.93628
308.34733
307.80079
307.36514
312.70481
312.54066
312.34581
312.11517
311.84314
311.52392
311.15195
310.72275
310.23442
309.69015
309.07902
308.43467
307.78908
307.19191
306.71223
312.65455
312.47076
312.25275
311.99488
311.69104
311.3349
310.92049
310.44307
309.90054
309.29527
308.63688
307.95016
307.27449
306.66806
306.20912
316.51484
316.39357
316.24999
316.08045
315.88095
315.64723
315.37505
315.06208
314.70495
314.30406
313.8647
313.40047
312.93843
312.52657
312.24368
316.4301
316.3045
316.15573
315.98001
315.77318
315.53087
315.24875
314.92159
314.54786
314.12769
313.66614
313.17664
312.68608
312.24208
311.92261
316.29222
316.1576
315.99796
315.80916
315.58657
315.32531
315.02041
314.66742
314.26326
313.80769
313.30561
312.7703
312.22841
311.72662
311.33972
316.13701
315.98966
315.81472
315.60756
315.36303
315.07564
314.73984
314.35062
313.90447
313.40093
312.84498
312.25041
311.64464
311.07433
310.61111
316.0066
315.84317
315.64898
315.41884
315.14701
314.82736
314.45383
314.021
313.52531
312.96671
312.35121
311.69492
311.02837
310.40135
309.88631
315.93256
315.74995
315.53301
315.27597
314.97254
314.61609
314.20023
313.71957
313.17118
312.55667
311.88523
311.17779
310.47174
309.82552
309.32155
320.02605
319.90561
319.76306
319.59479
319.39688
319.16517
318.89551
318.58424
318.22896
317.82988
317.39201
316.92862
316.46665
316.05458
315.77362
319.91754
319.79236
319.64411
319.46901
319.26289
319.02132
318.73986
318.41449
318.04245
317.62355
317.16242
316.67195
316.17852
315.72947
315.40267
319.72452
319.59044
319.4315
319.24354
319.02196
318.76184
318.45818
318.10637
317.70305
317.24752
316.74407
316.20555
315.65867
315.15111
314.75961
319.49314
319.34663
319.17273
318.96677
318.72359
318.43761
318.10315
317.71498
317.26922
316.76507
316.20735
315.61044
315.00379
314.439
313.99689
319.27855
319.11645
318.92382
318.69539
318.42535
318.10747
317.73549
317.30383
316.80885
316.25084
315.63714
314.98656
314.33506
313.74236
313.29725
319.13026
318.94932
318.73387
318.47803
318.17538
317.81931
317.40361
316.92355
316.37759
315.76996
315.11423
314.43769
313.78593
313.22599
312.84521
323.3449
323.22564
323.08451
322.918
322.72226
322.49328
322.22709
321.92028
321.57074
321.17899
320.75032
320.29802
319.84812
319.44832
319.16945
323.23894
323.1147
322.96752
322.79422
322.59033
322.35157
322.07368
321.7529
321.38679
320.97542
320.52394
320.04628
319.5542
319.10852
318.77995
323.04789
322.91492
322.75729
322.57115
322.35181
322.09457
321.79473
321.44811
321.0521
320.59731
320.09543
319.55986
319.00956
318.50073
318.12495
322.8125
322.66742
322.49535
322.29096
322.04839
321.76315
321.42952
321.04212
320.59751
320.09148
319.53187
318.93008
318.33948
317.79036
317.36638
322.58071
322.41921
322.22708
321.9991
321.72938
321.41172
321.03942
320.60643
320.10815
319.55829
318.95325
318.31357
317.67737
317.10457
316.68295
322.41452
322.23448
322.01984
321.76458
321.46391
321.11002
320.69691
320.22021
319.67918
319.07919
318.43456
317.77359
317.14271
316.60844
316.25337
326.53825
326.41977
326.2796
326.11426
325.91996
325.69274
325.42868
325.12301
324.77458
324.38378
323.95576
323.50379
323.05447
322.65547
322.38629
326.41903
326.29579
326.14986
325.97757
325.77488
325.53752
325.26132
324.94117
324.57563
324.16457
323.71271
323.23287
322.7511
322.31443
322.00003
326.20809
326.07565
325.91859
325.73278
325.51363
325.2562
324.95538
324.6094
324.21279
323.76499
323.27054
322.74264
322.20842
321.71635
321.34411
325.95194
325.80746
325.6359
325.43266
325.19261
324.91028
324.58013
324.19708
323.75751
323.26094
322.71278
322.12847
321.53939
320.99889
320.58853
325.71751
325.5577
325.36769
325.14227
324.87568
324.56178
324.19447
323.76841
323.2804
322.7316
322.13065
321.49843
320.87377
320.3187
319.91976
325.55716
325.3788
325.16627
324.91374
324.61487
324.26321
323.85283
323.37947
322.84249
322.24754
321.61036
320.96103
320.34773
319.8371
319.50736
329.45107
329.33349
329.19437
329.03026
328.83739
328.61185
328.34979
328.0479
327.70428
327.3197
326.89984
326.45318
326.00318
325.60306
325.33143
329.34079
329.21826
329.07318
328.90186
328.70027
328.46414
328.18919
327.87158
327.50868
327.10034
326.65093
326.17851
325.69816
325.2629
324.94762
329.13612
329.00459
328.84866
328.66426
328.44689
328.19173
327.89387
327.54878
327.15309
326.70597
326.21131
325.68112
325.15538
324.66814
324.29521
328.87984
328.73633
328.56591
328.36402
328.12558
327.84516
327.51723
327.13675
326.70012
326.20692
325.6625
325.08226
324.49682
323.9576
323.54282
328.64656
328.48782
328.2991
328.07522
327.81049
327.49885
327.13426
326.71146
326.22729
325.68278
325.08639
324.45848
323.83669
323.28081
322.873
328.48726
328.3101
328.09903
327.84825
327.5515
327.2024
326.79511
326.32543
325.79269
325.20236
324.56973
323.924
323.31168
322.79661
322.45231
332.11422
331.99726
331.8589
331.69572
331.50399
331.27979
331.01928
330.71914
330.37734
329.99143
329.56853
329.12138
328.67556
328.27721
328.00341
331.99429
331.87261
331.72854
331.55847
331.35838
331.12407
330.85133
330.53642
330.17699
329.77028
329.32326
328.84804
328.36963
327.93304
327.61193
331.7832
331.65242
331.49738
331.31399
331.09775
330.8438
330.54714
330.20305
329.80781
329.36637
328.87801
328.35529
327.82424
327.33045
326.94598
331.52382
331.38115
331.21173
331.01102
330.77395
330.4951
330.16891
329.79033
329.35573
328.86455
328.32168
327.74149
327.15306
326.60612
326.17455
331.28736
331.12956
330.94193
330.71933
330.45603
330.14597
329.78303
329.36185
328.87907
328.33542
327.73887
327.10894
326.48172
325.91381
325.48076
331.12573
330.94961
330.73973
330.49029
330.195
329.84741
329.44155
328.97305
328.44094
327.85029
327.2157
326.56518
325.94302
325.40878
325.02862
334.50482
334.38859
334.2511
334.08895
333.89841
333.67558
333.41663
333.11821
332.77827
332.39722
331.98008
331.53958
331.10107
330.7009
330.41522
334.39438
334.27326
334.12989
333.96064
333.76155
333.5284
333.25696
332.94341
332.58509
332.18176
331.7376
331.26435
330.7865
330.33977
330.01103
334.18584
334.05578
333.90164
333.7194
333.50461
333.25249
332.95814
332.617
332.22559
331.78281
331.292
330.76412
330.22237
329.72654
329.3295
333.92302
333.78109
333.61258
333.41295
333.17715
332.89975
332.57519
332.19826
331.76509
331.27461
330.73109
330.14788
329.55261
328.9925
328.53569
333.68321
333.52624
333.3396
333.11816
332.8562
332.54764
332.18631
331.7667
331.28514
330.7418
330.14362
329.50843
328.86961
328.27961
327.80782
333.51954
333.34435
333.13556
332.88738
332.5935
332.24742
331.84304
331.37572
330.84399
330.25198
329.6128
328.95211
328.31079
327.74399
327.31266
336.67994
336.56418
336.4273
336.26591
336.07632
335.85465
335.59708
335.30025
334.96203
334.58276
334.16718
333.72177
333.27531
332.87141
332.58363
336.55807
336.43764
336.29508
336.12683
335.92892
335.69716
335.42734
335.11566
334.75946
334.35845
333.91696
333.44136
332.95988
332.51381
332.17229
336.34361
336.21415
336.06073
335.87933
335.66549
335.41442
335.12116
334.78099
334.39014
333.94699
333.45388
332.93226
332.39555
331.88575
331.46808
336.07558
335.93431
335.76657
335.56785
335.33309
335.05684
334.73346
334.35765
333.9253
333.43502
332.89065
332.30455
331.70175
331.1256
330.63994
335.83089
335.67465
335.48886
335.26838
335.00748
334.70001
334.33969
333.92079
333.43929
332.89473
332.29309
331.65056
330.99788
330.38345
329.87065
335.66389
335.48951
335.28163
335.03444
334.74157
334.39639
333.99261
333.52522
332.99217
332.39672
331.75056
331.07725
330.41464
329.8137
329.33047
338.65414
338.539
338.40286
338.24234
338.05377
337.8333
337.57709
337.28181
336.94526
336.56768
336.15356
335.71471
335.27502
334.86833
334.57409
338.53961
338.41961
338.2776
338.11001
337.91292
337.68212
337.41341
337.10293
336.74788
336.34773
335.90607
335.43361
334.95326
334.49807
334.14403
338.32372
338.19482
338.04209
337.86155
337.64877
337.39899
337.10727
336.76894
336.38025
335.9396
335.44941
334.91917
334.36931
333.85535
333.42341
338.05168
337.911
337.74398
337.54612
337.31237
337.03726
336.71513
336.34057
335.90925
335.41931
334.87362
334.28318
333.67177
333.08059
332.56862
337.80289
337.6473
337.46229
337.24271
336.98284
336.67648
336.31726
335.89929
335.41818
334.87284
334.26814
333.61854
332.95218
332.31385
331.76224
337.63325
337.4596
337.25257
337.00633
336.71449
336.37033
335.96738
335.50034
334.96658
334.36837
333.71587
333.03039
332.34673
331.71239
331.18026
340.48077
340.36601
340.23035
340.07044
339.88264
339.66311
339.40803
339.11405
338.77894
338.40283
337.99006
337.54635
337.09916
336.69008
336.38985
340.35534
340.23591
340.09459
339.92782
339.73171
339.50207
339.2347
338.92577
338.57249
338.17428
337.73495
337.25982
336.77549
336.32054
335.96003
340.13434
340.00593
339.85378
339.67392
339.46191
339.21295
338.92207
338.58446
338.19611
337.75495
337.26245
336.73855
336.1943
335.66783
335.21858
339.85798
339.71783
339.55145
339.35433
339.12143
338.84725
338.52609
338.15243
337.72176
337.23197
336.68556
336.09271
335.47486
334.86998
334.3341
339.60508
339.45009
339.26577
339.04698
338.78796
338.48249
338.12408
337.70666
337.22554
336.67908
336.0713
335.41522
334.73678
334.07766
333.49257
339.43259
339.25961
339.05332
338.80788
338.51685
338.1734
337.7709
337.30372
336.76872
336.16741
335.50872
334.81217
334.11017
333.44729
332.87356
342.17038
342.05615
341.92111
341.76195
341.57501
341.35647
341.10254
340.80983
340.4761
340.10139
339.68983
339.25257
338.81243
338.40143
338.09661
342.05243
341.93334
341.79245
341.62623
341.43077
341.20191
340.93543
340.62744
340.27505
339.87745
339.43776
338.96585
338.4832
338.02043
337.65003
341.83032
341.70238
341.55081
341.37167
341.16055
340.91268
340.62312
340.2871
339.90067
339.46183
338.97226
338.44017
337.88379
337.35551
336.89644
341.55041
341.41076
341.24498
341.04857
340.81649
340.54326
340.22313
339.85051
339.42071
338.93123
338.3838
337.78751
337.16312
336.54725
335.99241
341.29393
341.13949
340.95582
340.73777
340.4796
340.17503
339.81754
339.40089
338.92012
338.37313
337.76308
337.10175
336.41324
335.73675
335.124
341.1192
340.94683
340.74126
340.49661
340.20642
339.86383
339.46204
338.9952
338.45974
337.85644
337.1931
336.48764
335.77035
335.08359
334.47578
343.76568
343.65187
343.51721
343.35854
343.17222
342.95444
342.70142
342.40979
342.07726
341.70381
341.29346
340.8514
340.40409
339.99158
339.68246
343.63778
343.51907
343.3788
343.21329
343.01867
342.7908
342.52548
342.21884
341.868
341.47219
341.03481
340.56045
340.07444
339.61338
339.23944
343.41182
343.2843
343.13323
342.95466
342.74417
342.49699
342.20811
341.87266
341.48648
341.04713
340.55548
340.03033
339.48095
338.94268
338.47082
343.12919
342.99
342.82477
342.62899
342.39765
342.12523
341.80596
341.43418
341.00509
340.51603
339.96851
339.37108
338.74258
338.11709
337.54521
342.87009
342.71616
342.53309
342.31572
342.05831
341.75454
341.39783
340.98181
340.50131
339.95383
339.34192
338.67628
337.97936
337.28812
336.65152
342.69352
342.52172
342.31679
342.07286
341.78342
341.44153
341.04029
340.57362
340.03759
339.4324
338.76495
338.05183
337.3216
336.61452
335.9771
345.26523
345.15177
345.01768
344.85965
344.67407
344.45715
344.20509
343.91453
343.58317
343.2109
342.8016
342.36594
341.92592
341.51228
341.20026
345.1446
345.0263
344.88637
344.7213
344.52721
344.29997
344.03536
343.72948
343.37935
342.984
342.54621
342.07522
341.59151
341.1239
340.74233
344.91791
344.7908
344.64024
344.46229
344.25258
344.00636
343.71865
343.38465
343.00026
342.56318
342.07459
341.54176
340.9814
340.44354
339.9657
344.63245
344.49369
344.32898
344.13383
343.90321
343.63163
343.31327
342.94244
342.5142
342.02558
341.47751
340.87771
340.24473
339.6119
339.02708
344.37067
344.21722
344.03472
343.81801
343.56135
343.25841
342.90254
342.48731
342.00733
341.45978
340.8466
340.17762
339.47401
338.77097
338.11528
344.19257
344.02132
343.81702
343.5738
343.28515
342.94408
342.54361
342.07748
341.54149
340.9353
340.26503
339.54613
338.80567
338.08234
337.42165
346.70195
346.58889
346.45517
346.2976
346.11258
345.89634
345.6451
345.35548
345.0252
344.65416
344.24627
343.80664
343.35998
342.94553
342.6304
346.57346
346.45548
346.31606
346.1516
345.95825
345.73187
345.4683
345.16365
344.81498
344.42142
343.98619
343.5133
343.02648
342.56154
342.17852
346.34524
346.21851
346.06838
345.89094
345.68181
345.43621
345.14914
344.81569
344.43157
343.99406
343.50337
342.97686
342.42458
341.87884
341.3918
346.05818
345.91984
345.75562
345.56104
345.33108
345.06024
344.7427
344.3727
343.94524
343.45721
342.9094
342.30951
341.67436
341.03529
340.43908
345.79464
345.64165
345.45969
345.24361
344.98766
344.68549
344.33043
343.91595
343.43653
342.88908
342.27513
341.60378
340.89505
340.18259
339.51143
345.61525
345.44451
345.2408
344.99824
344.71031
344.36998
343.97018
343.50453
342.96857
342.36158
341.68908
340.96563
340.21714
339.481
338.8017
348.07278
347.9599
347.8265
347.66929
347.48468
347.26887
347.01803
346.72872
346.39848
346.02688
345.62116
345.18867
344.74336
344.33008
344.01466
347.94566
347.82818
347.68925
347.52538
347.33276
347.10728
346.84481
346.54152
346.19456
345.8032
345.36654
344.89692
344.407
343.93875
343.55066
347.71712
347.59076
347.4411
347.26423
347.05579
346.81104
346.525
346.19278
345.81014
345.37441
344.88602
344.35115
343.80059
343.2533
342.76137
347.42877
347.29082
347.12707
346.93306
346.70376
346.43368
346.117
345.74793
345.32137
344.83407
344.28646
343.68556
343.04835
342.4048
341.80021
347.16388
347.01133
346.82988
346.6144
346.35913
346.05773
345.7035
345.28984
344.81112
344.26403
343.6497
342.97662
342.26394
341.54412
340.86078
346.98359
346.81333
346.61019
346.36828
346.08106
345.74151
345.34248
344.87749
344.34187
343.73459
343.06063
342.33378
341.57897
340.83252
340.13812
349.39265
349.28022
349.14741
348.99096
348.80732
348.59277
348.34358
348.05644
347.72713
347.35678
346.94892
346.51361
346.07189
345.6547
345.33499
349.26717
349.1499
349.01123
348.84769
348.65545
348.43042
348.16844
347.86574
347.51743
347.1239
346.68722
346.21557
345.72695
345.2634
344.87633
349.03134
348.90529
348.75594
348.57935
348.37113
348.12646
347.84027
347.50743
347.12765
346.69537
346.21167
345.68364
345.12835
344.57711
344.07965
348.74297
348.6054
348.4421
348.24861
348.01994
347.75059
347.43477
347.06674
346.64144
346.15548
345.609
345.00827
344.36925
343.72145
343.10901
348.47761
348.32548
348.14453
347.92964
347.67504
347.37441
347.02101
346.60822
346.13029
345.58371
344.96926
344.29485
343.5788
342.85246
342.15806
348.29672
348.12693
347.92433
347.68304
347.39652
347.05771
346.65942
346.19506
345.6598
345.05231
344.3771
343.64729
342.88691
342.13122
341.4229
350.66682
350.55465
350.42208
350.26586
350.08208
349.86721
349.61741
349.33054
349.00359
348.63644
348.22901
347.79431
347.35298
346.94292
346.61933
350.54004
350.42305
350.28466
350.12143
349.92916
349.70397
349.44144
349.13874
348.79177
348.39906
347.9664
347.49926
347.01637
346.55281
346.15842
350.30548
350.17985
350.03113
349.85539
349.64905
349.40696
349.12444
348.7942
348.41372
347.98064
347.49587
346.96566
346.40556
345.84478
345.3503
350.01728
349.8801
349.71729
349.52442
349.2965
349.02805
348.71322
348.3461
347.92151
347.43592
346.88928
346.28748
345.64604
344.99423
344.37577
349.75063
349.5989
349.41843
349.20411
348.95018
348.65029
348.2977
347.8857
347.40845
346.86225
346.24758
345.57185
344.85271
344.12059
343.41643
349.56904
349.3997
349.19763
348.95696
348.67113
348.33306
347.93555
347.4719
346.93712
346.32961
345.65346
344.92114
344.15587
343.39192
342.67112
351.90078
351.78884
351.65659
351.5008
351.3179
351.10416
350.8558
350.56945
350.24272
349.87524
349.47037
349.0379
348.59037
348.17857
347.8602
351.77108
351.65454
351.51672
351.35416
351.16304
350.9393
350.67876
350.37754
350.03264
349.64296
349.21104
348.746
348.2605
347.78842
347.39203
351.54122
351.41586
351.26739
351.09192
350.88513
350.6423
350.35846
350.0287
349.64872
349.21571
348.72985
348.19644
347.64475
347.09163
346.58736
351.25
351.11314
350.95068
350.75818
350.53066
350.26261
349.94821
349.58158
349.15749
348.67235
348.12601
347.52444
346.88292
346.22888
345.60407
350.98213
350.83079
350.65075
350.43692
350.18355
349.88427
349.53232
349.12098
348.64432
348.09853
347.48386
346.80735
346.08591
345.34887
344.63578
350.79998
350.63107
350.42949
350.18938
349.90418
349.56679
349.16996
348.70694
348.17261
347.56513
346.88825
346.15388
345.38444
344.61323
343.88116
353.09799
352.98647
352.85462
352.69914
352.51659
352.30317
352.05511
351.76892
351.44401
351.07866
350.67638
350.24145
349.7983
349.38406
349.06184
352.97192
352.85528
352.71757
352.55554
352.36512
352.14228
351.88294
351.58334
351.2387
350.84933
350.41784
349.94745
349.46106
348.99179
348.59699
352.73897
352.61391
352.46579
352.29073
352.08441
351.84208
351.55875
351.22946
350.84973
350.41659
349.92982
349.40621
348.85211
348.29734
347.78995
352.44726
352.31074
352.14867
351.95664
351.72965
351.46222
351.14852
350.78268
350.35944
349.87522
349.32987
348.72908
348.08705
347.43086
346.80133
352.17905
352.02808
351.84849
351.63518
351.38241
351.08383
350.73266
350.32217
349.84636
349.30132
348.68709
348.0103
347.28727
346.54653
345.82675
351.99661
351.82812
351.62703
351.3875
351.10295
350.7663
350.37026
349.90804
349.37439
348.76731
348.09022
347.3546
346.58223
345.80578
345.06575
354.26592
354.15465
354.02324
353.86846
353.68682
353.47462
353.22726
352.94198
352.61635
352.24992
351.8459
351.41386
350.97419
350.55658
350.23198
354.13894
354.02287
353.88564
353.72382
353.53364
353.31109
353.05119
352.75067
352.40633
352.01676
351.58387
351.1153
350.62823
350.16304
349.76887
353.89992
353.77513
353.62725
353.4524
353.24618
353.00381
352.72209
352.39481
352.01779
351.5885
351.10761
350.5815
350.02559
349.46915
348.95871
353.60983
353.47364
353.312
353.12047
352.89411
352.62748
352.31476
351.9501
351.52822
351.0454
350.50115
349.90063
349.25789
348.59959
347.96572
353.34191
353.19131
353.01216
352.79939
352.54726
352.24941
351.89909
351.48952
351.01465
350.47043
349.85666
349.17962
348.45516
347.71113
346.98529
353.15931
352.99123
352.79063
352.55166
352.26776
351.93185
351.5366
351.07516
350.5422
349.93554
349.25831
348.52158
347.74658
346.96531
346.21761
355.40107
355.28992
355.15858
355.0038
354.82205
354.60958
354.36263
354.0778
353.75468
353.38892
352.98584
352.55494
352.11622
351.70647
351.37907
355.2731
355.1574
355.02028
354.85851
354.66825
354.44537
354.18559
353.88468
353.54109
353.15444
352.72487
352.26044
351.77901
351.31423
350.91338
355.03642
354.91229
354.76523
354.59157
354.38706
354.14712
353.867
353.54216
353.16463
352.73486
352.25307
351.72486
351.1645
350.59924
350.09322
354.74672
354.61054
354.44936
354.2584
354.03273
353.76687
353.45498
353.09113
352.66988
352.18744
351.64312
351.04184
350.39742
349.73657
349.09915
354.47733
354.32708
354.14836
353.93609
353.68453
353.38734
353.03773
352.62888
352.15466
351.6109
350.99718
350.31952
349.5933
348.8458
348.11382
354.29404
354.12635
353.92621
353.68776
353.40447
353.06921
352.67465
352.21388
351.68145
351.07501
350.39742
349.65934
348.88145
348.09507
347.3393
356.50958
356.39871
356.26774
356.11347
355.93238
355.72073
355.47481
355.19122
354.86757
354.50341
354.10201
353.67293
353.2362
352.81924
352.49282
356.37936
356.26417
356.12767
355.96668
355.77741
355.55582
355.29777
354.99936
354.65752
354.271
353.8419
353.37822
352.89802
352.42639
352.02666
356.14878
356.02468
355.8776
355.70385
355.49911
355.25871
354.97773
354.65127
354.27502
353.8461
353.36454
352.83545
352.2721
351.71912
351.2066
355.85566
355.71973
355.55883
355.36818
355.14284
354.87732
354.5658
354.20237
353.78162
353.29968
352.75574
352.15457
351.50996
350.84804
350.20635
355.58537
355.43545
355.25711
355.04526
354.79419
354.49753
354.1485
353.74025
353.26662
352.72333
352.10981
351.43175
350.70406
349.95318
349.21475
355.40177
355.23445
355.03475
354.7968
354.51406
354.1794
353.78548
353.32532
352.79339
352.18717
351.50926
350.76988
349.98912
349.1975
348.43326
357.59425
357.48377
357.35328
357.19946
357.01872
356.80748
356.56201
356.27888
355.95562
355.59165
355.18979
354.76416
354.32386
353.91075
353.58722
357.46579
357.3502
357.21349
357.05254
356.86381
356.64288
356.38565
356.08827
355.74779
355.36313
354.93686
354.47282
353.9854
353.51351
353.1112
357.23245
357.10855
356.96183
356.78846
356.58415
356.34422
356.06374
355.73777
355.36193
354.93319
354.45123
353.92027
353.36838
352.81126
352.29462
356.93916
356.80389
356.64332
356.45305
356.22815
355.96314
355.65219
355.28939
354.86931
354.38804
353.84476
353.24424
352.59993
351.93634
351.29065
356.6691
356.51951
356.34156
356.13016
355.87961
355.58356
355.23519
354.82767
354.35478
353.81217
353.19909
352.52097
351.79217
351.03837
350.29429
356.48551
356.31857
356.1193
355.88186
355.5997
355.26571
354.8725
354.41309
353.88185
353.27611
352.59821
351.858
351.07498
350.27901
349.50777
358.65456
358.54432
358.4141
358.26059
358.08019
357.86933
357.62422
357.34275
357.0216
356.66045
356.25856
355.82816
355.38849
354.97527
354.64981
358.52821
358.4129
358.27656
358.11609
357.92799
357.7079
357.45179
357.1546
356.81424
356.42965
355.99912
355.53364
355.04984
354.57992
354.1789
358.29201
358.16836
358.0219
357.84879
357.64475
357.40504
357.12467
356.79859
356.42225
355.99227
355.51647
354.99383
354.4391
353.87981
353.36058
357.99862
357.86363
357.7034
357.51353
357.28908
357.02459
356.71424
356.35214
355.9329
355.45272
354.9108
354.31134
353.66692
353.00191
352.35303
357.7286
357.57934
357.40177
357.19083
356.94082
356.64538
356.29772
355.89098
355.41892
354.87711
354.26467
353.5867
352.85715
352.1011
351.35263
357.54495
357.37836
357.17952
356.94258
356.66101
356.32767
355.93518
355.47651
354.94597
354.34077
353.66304
352.9223
352.1376
351.33832
350.56169
359.69509
359.58507
359.45516
359.30219
359.12271
358.91249
358.66812
358.38622
358.06434
357.70196
357.30207
356.87392
356.43711
356.02009
355.69176
359.56768
359.4529
359.31722
359.15728
358.96936
358.7489
358.49212
358.19506
357.85453
357.46901
357.04017
356.57521
356.09036
355.6245
355.2248
359.32727
359.20384
359.05758
358.88461
358.68058
358.44192
358.16307
357.83916
357.46592
357.04062
356.56357
356.0403
355.48505
354.92517
354.40418
359.03568
358.90099
358.74113
358.55172
358.32784
358.06409
357.75466
357.39364
356.97561
356.49659
355.95548
355.35643
354.71181
354.04561
353.39385
358.76607
358.61713
358.43995
358.22948
357.98003
357.68525
357.33836
356.93247
356.46129
355.92031
355.30846
354.6306
353.90032
353.14218
352.38949
358.58237
358.41614
358.21772
357.98128
357.70029
357.36761
356.97586
356.51795
355.98814
355.38349
354.70595
353.9647
353.17838
352.37582
351.5937
360.71391
360.60399
360.47414
360.32117
360.14158
359.93167
359.68769
359.40626
359.08494
358.72332
358.32078
357.89413
357.45859
357.04988
356.71949
360.5839
360.46947
360.33422
360.17478
359.98745
359.76827
359.51142
359.21415
358.87308
358.48626
358.05828
357.5991
357.12074
356.65597
356.25017
360.34399
360.22115
360.07568
359.90383
359.70136
359.46382
359.18564
358.86291
358.49144
358.06888
357.59628
357.06833
356.50714
355.93772
355.42116
360.05485
359.92012
359.76017
359.57057
359.34631
359.08176
358.77371
358.4141
357.99747
357.51966
356.97922
356.37972
355.7336
355.0652
354.41067
359.78316
359.63452
359.45768
359.24761
358.99862
358.70439
358.35815
357.95299
357.48257
356.94221
356.33065
355.65248
354.92094
354.16016
353.40266
359.59919
359.43331
359.23528
358.9993
358.71884
358.38675
357.99562
357.53834
357.00908
356.40477
355.72711
354.98497
354.19656
353.39013
352.60164
361.71033
361.60063
361.47104
361.31837
361.13957
360.93012
360.68674
360.40605
360.0856
359.72485
359.32679
358.9006
358.46552
358.05707
357.72597
361.58072
361.46628
361.33092
361.17117
360.98362
360.76449
360.50928
360.21408
359.87577
359.49297
359.06755
358.60705
358.12818
357.66261
357.25494
361.34755
361.22495
361.07987
360.90858
360.70608
360.46832
360.19042
359.86751
359.49527
359.07074
358.59377
358.06902
357.50937
356.93987
356.42203
361.05415
360.92001
360.76081
360.57219
360.34922
360.08648
359.77814
359.41826
359.00134
358.52319
357.98248
357.38291
356.73635
356.06652
355.40874
360.78272
360.63438
360.45791
360.24828
359.99978
359.70607
359.36035
358.95568
358.48567
357.94561
357.33413
356.6556
355.92284
355.15929
354.39649
360.59824
360.43268
360.23505
359.99952
359.71957
359.38804
358.99751
358.54081
358.01205
357.408
356.73017
355.98708
355.19641
354.38572
353.59018
362.69102
362.5817
362.45258
362.30053
362.12209
361.91341
361.67067
361.39076
361.07126
360.71165
360.31495
359.89026
359.45682
359.04073
358.71065
362.56306
362.44869
362.31346
362.15393
361.96631
361.7471
361.49261
361.19823
360.86085
360.47905
360.05466
359.59512
359.11759
358.64557
358.23983
362.32944
362.20682
362.06162
361.89005
361.68789
361.45052
361.17305
360.85057
360.47869
360.05436
359.5772
359.05153
358.4893
357.93291
357.40925
362.03521
361.90132
361.74241
361.5541
361.33151
361.0692
360.76133
360.40196
359.98557
359.50795
358.9677
358.36848
357.72227
357.05226
356.39159
361.76375
361.6157
361.43957
361.23032
360.98227
360.68908
360.34393
359.93989
359.47053
358.93108
358.32006
357.64163
356.90824
356.1427
355.37566
361.57926
361.41403
361.21678
360.9817
360.70226
360.37132
359.98143
359.52541
358.99729
358.39375
357.7161
356.97255
356.18033
355.36644
354.56553
363.65557
363.54646
363.41759
363.26582
363.0877
362.87938
362.63702
362.3575
362.03832
361.6788
361.28159
360.86029
360.42325
360.011
359.68404
363.52836
363.41421
363.27922
363.12001
362.93277
362.71404
362.46018
362.16663
361.83039
361.45026
361.02852
360.56853
360.08383
359.61169
359.20367
363.29266
363.17027
363.02534
362.85409
362.65228
362.41531
362.13825
361.81618
361.44463
361.02041
360.54278
360.01526
359.46459
358.90449
358.37744
362.99785
362.86422
362.70561
362.51767
362.2955
362.03367
361.72636
361.36761
360.95188
360.47495
359.93542
359.33705
358.69154
358.02066
357.35741
362.72627
362.5785
362.40271
362.19388
361.94631
361.65367
361.30916
360.90581
360.43719
359.89845
359.28804
358.60989
357.87611
357.10896
356.33851
362.5417
362.37679
362.17992
361.94529
361.66637
361.33602
360.94678
360.49144
359.96398
359.36099
358.6836
357.93976
357.14635
356.32992
355.52475
364.6029
364.49399
364.36538
364.21377
364.03561
363.82734
363.58607
363.30803
362.99083
362.63404
362.23677
361.81082
361.37475
360.96325
360.63628
364.47642
364.36247
364.22775
364.06919
363.88337
363.66602
363.41229
363.11882
362.78256
362.40235
361.97627
361.51472
361.03334
360.56255
360.15429
364.23803
364.11584
363.97115
363.80014
363.59858
363.36178
363.08476
362.76249
362.39034
361.96478
361.49312
360.97372
360.42009
359.85768
359.32803
363.94317
363.80979
363.65147
363.46386
363.24208
362.9807
362.6739
362.31574
361.90074
361.42477
360.88648
360.28906
359.6434
358.97119
358.30506
363.67167
363.52418
363.34872
363.14027
362.89314
362.60103
362.2571