/*--------------------------------*- C++ -*----------------------------------*\
| =========                 |                                                 |
| \\      /  F ield         | OpenFOAM: The Open Source CFD Toolbox           |
|  \\    /   O peration     | Version:  4.0                                   |
|   \\  /    A nd           | Web:      www.OpenFOAM.org                      |
|    \\/     M anipulation  |                                                 |
\*---------------------------------------------------------------------------*/
FoamFile
{
    version     2.0;
    format      ascii;
    class       volVectorField;
    location    "2500";
    object      U;
}
// * * * * * * * * * * * * * * * * * * * * * * * * * * * * * * * * * * * * * //

dimensions      [0 1 -1 0 0 0 0];

internalField   nonuniform List<vector> 
90000
(
(-1.894998e-07 3.2382243e-06 0.0023154745)
(-4.8721179e-07 9.8615946e-06 0.0072617521)
(-2.777923e-06 1.7001067e-05 0.012992582)
(-1.3099993e-06 2.5072448e-05 0.019596695)
(-2.4233091e-06 3.3978882e-05 0.027138561)
(-1.1257882e-06 4.4089711e-05 0.035662307)
(-3.152423e-06 5.4766668e-05 0.04516495)
(-9.6964721e-07 6.591395e-05 0.055604671)
(1.33426e-06 7.7341327e-05 0.066841616)
(4.6500275e-06 8.9052553e-05 0.078626927)
(9.1943974e-06 0.00010130881 0.090576171)
(1.5982923e-05 0.00011445232 0.10214959)
(2.4650913e-05 0.00012910242 0.11263641)
(3.5873117e-05 0.00014612181 0.12112593)
(5.0253853e-05 0.00016600556 0.12640562)
(-6.5323592e-07 5.2837308e-06 0.0024037532)
(-1.713804e-06 1.6390878e-05 0.0075355209)
(-2.6431095e-06 2.8878965e-05 0.013476334)
(-3.4029149e-06 4.3062244e-05 0.020300202)
(-3.918014e-06 5.9350869e-05 0.02807998)
(-3.7941129e-06 7.7771014e-05 0.036859027)
(-2.7803797e-06 9.777643e-05 0.046645719)
(-1.0071115e-07 0.0001192242 0.057362733)
(4.7143144e-06 0.00014207855 0.068858444)
(1.2189934e-05 0.00016638966 0.080866253)
(2.2862626e-05 0.0001927931 0.092984444)
(3.7293617e-05 0.0002221088 0.1046623)
(5.568755e-05 0.00025601394 0.1151936)
(7.8693941e-05 0.00029684456 0.12370081)
(0.00010618555 0.0003468815 0.12905198)
(-1.2330556e-06 6.1709313e-06 0.0025714343)
(-3.3264196e-06 1.9204858e-05 0.0080545714)
(-5.0702993e-06 3.408116e-05 0.014389605)
(-6.265979e-06 5.0917777e-05 0.021656058)
(-6.2790867e-06 6.9887235e-05 0.029916539)
(-4.5128751e-06 9.105865e-05 0.039202472)
(-1.5106812e-07 0.00011448585 0.049495899)
(7.7284266e-06 0.00014026904 0.060707488)
(2.0222903e-05 0.00016861746 0.072652595)
(3.8371175e-05 0.00019998846 0.085028789)
(6.2939455e-05 0.00023539166 0.097400643)
(9.4246759e-05 0.00027656345 0.10919758)
(0.00013173978 0.00032648954 0.11972571)
(0.00017390127 0.00038976749 0.12817757)
(0.00021620124 0.00047248969 0.13358754)
(-1.6070883e-06 5.9823874e-06 0.0028175487)
(-4.2140908e-06 1.8580297e-05 0.0088143112)
(-6.0717255e-06 3.2969252e-05 0.015722629)
(-6.7294907e-06 4.9328961e-05 0.023617799)
(-5.2787954e-06 6.7925823e-05 0.032552378)
(-7.9141706e-07 8.9006305e-05 0.042539666)
(8.0000993e-06 0.00011291603 0.053533733)
(2.2548939e-05 0.00014013995 0.065406478)
(4.4479544e-05 0.00017140167 0.077924758)
(7.5402705e-05 0.00020780248 0.090733029)
(0.00011671744 0.00025110633 0.10334894)
(0.00016948044 0.00030407601 0.11517783)
(0.00023450755 0.00037110764 0.12555174)
(0.0003129883 0.00045906515 0.13376905)
(0.00040482543 0.0005773665 0.13909588)
(-8.3274987e-07 3.4303296e-06 0.0031316717)
(-1.566786e-06 1.105818e-05 0.0097804301)
(-7.4207391e-07 2.0375494e-05 0.017410242)
(2.4792087e-06 3.1789051e-05 0.026088085)
(9.2655612e-06 4.57894e-05 0.035849745)
(2.09693e-05 6.2944124e-05 0.046680644)
(3.9277832e-05 8.3964169e-05 0.058493796)
(6.6101318e-05 0.00010973041 0.071106407)
(0.00010348925 0.00014135664 0.084219877)
(0.00015344785 0.00018028292 0.097410634)
(0.00021779393 0.00022847027 0.11014089)
(0.00029820119 0.00028876679 0.12179612)
(0.00039665867 0.0003656084 0.1317482)
(0.0005161526 0.00046626649 0.13942308)
(0.00065670077 0.00060173509 0.14433457)
(-8.7433594e-08 1.8282952e-06 0.0035016132)
(9.9009118e-07 6.3290894e-06 0.01091436)
(4.3433643e-06 1.2465118e-05 0.019380966)
(1.1123472e-05 2.0833952e-05 0.028955135)
(2.2765759e-05 3.2158487e-05 0.039648188)
(4.0974901e-05 4.7298171e-05 0.051407306)
(6.7775816e-05 6.7292214e-05 0.064091581)
(0.00010539718 9.3350139e-05 0.077449152)
(0.00015614927 0.0001268651 0.091102126)
(0.00022231189 0.00016947422 0.10454872)
(0.00030627152 0.00022327833 0.11719244)
(0.00041127408 0.00029136125 0.12840315)
(0.0005433175 0.00037864561 0.13760238)
(0.00071459065 0.00049210256 0.14434516)
(0.00094425801 0.00063212086 0.14835679)
(-1.2761398e-07 2.8559928e-05 0.001589285)
(-1.577021e-06 8.6808658e-05 0.0050170119)
(1.3786049e-06 0.00015098105 0.009035933)
(1.0806275e-05 0.00022101895 0.013730557)
(2.3974177e-05 0.00029705218 0.019188739)
(5.0322937e-05 0.00037919882 0.025496576)
(8.384286e-05 0.00046677588 0.032729719)
(0.00013931143 0.00055969874 0.040939166)
(0.00021347822 0.00065803036 0.050129478)
(0.00030623789 0.00076248473 0.060225596)
(0.00041115529 0.0008747507 0.071025084)
(0.00051454421 0.00099738534 0.082132105)
(0.00058956846 0.0011343729 0.092868861)
(0.00059998713 0.0012910314 0.10215554)
(0.00051122239 0.0014708185 0.10833213)
(-3.7661265e-06 4.473733e-05 0.0016505003)
(-1.1580416e-05 0.00013843218 0.0052093649)
(-1.2350937e-05 0.00024524738 0.009379921)
(-7.3308746e-06 0.00036576717 0.014248535)
(8.8194624e-06 0.00050154929 0.019904627)
(3.9404696e-05 0.00065260719 0.026435134)
(8.9533422e-05 0.00081921656 0.033915379)
(0.00016385175 0.0010014352 0.042394361)
(0.00026597432 0.0012000042 0.051872086)
(0.00039610174 0.0014163975 0.062265993)
(0.00054869682 0.0016539436 0.073363576)
(0.0007095846 0.0019169518 0.084758801)
(0.00085384583 0.0022135906 0.095769991)
(0.000946218 0.0025576751 0.10533264)
(0.00094731256 0.0029683865 0.11184246)
(-7.7584591e-06 4.9517629e-05 0.0017694406)
(-2.2876631e-05 0.00015388584 0.005582875)
(-2.8200531e-05 0.00027480301 0.010047241)
(-2.3472775e-05 0.00041323995 0.0152522)
(-7.8664005e-07 0.00057118932 0.021289664)
(4.5991845e-05 0.00075006798 0.028247315)
(0.00012531658 0.00095150186 0.036198397)
(0.00024511108 0.0011773117 0.045185673)
(0.00041201916 0.0014301511 0.055197355)
(0.00062779413 0.0017143765 0.066132736)
(0.00088670655 0.0020362269 0.077755997)
(0.0011714436 0.002396623 0.089638716)
(0.0014513052 0.0028088235 0.1010921)
(0.0016715202 0.0033047856 0.11108831)
(0.0017576248 0.0039324456 0.11815283)
(-1.0601637e-05 4.8075041e-05 0.0019421604)
(-3.0468157e-05 0.00014909296 0.0061244159)
(-3.7045664e-05 0.00026741332 0.011012832)
(-2.8814118e-05 0.00040400671 0.016701071)
(4.608923e-06 0.0005624973 0.023283437)
(7.1971249e-05 0.00074577907 0.030846918)
(0.00018494638 0.00095774273 0.039459185)
(0.00035484653 0.001202797 0.049150299)
(0.00059128778 0.0014864014 0.059886251)
(0.00089406672 0.0018150226 0.071533359)
(0.001307496 0.0021933995 0.083814608)
(0.0017377993 0.0026316276 0.096259684)
(0.0022333618 0.0031650743 0.10816311)
(0.0027195808 0.003824288 0.11854426)
(0.0031747397 0.0046841455 0.1261124)
(-4.9210655e-06 2.8194813e-05 0.002160692)
(-8.2571979e-06 9.093865e-05 0.0068080387)
(5.3582493e-06 0.00016929613 0.012228178)
(4.7026442e-05 0.00026912545 0.018518331)
(0.00012537701 0.00039413 0.025773468)
(0.00025445143 0.00055050685 0.034076416)
(0.0004486498 0.00074434255 0.043483288)
(0.00072332149 0.00098222808 0.05400207)
(0.0010922621 0.0012700457 0.065563166)
(0.0015661447 0.0016108608 0.077982385)
(0.0021416717 0.0020086773 0.090920552)
(0.0027952713 0.0024997144 0.10384774)
(0.0035203023 0.0030752273 0.11602571)
(0.0042788566 0.0037815521 0.12651524)
(0.0050381095 0.0046985446 0.13420906)
(1.192242e-06 1.5799656e-05 0.002415269)
(1.2963237e-05 5.3045334e-05 0.0076034805)
(4.8345743e-05 0.00010593402 0.013638409)
(0.00012171015 0.00018242132 0.020619986)
(0.00024335062 0.000287629 0.028641566)
(0.00043039162 0.00043048197 0.037777628)
(0.00069922121 0.00061953466 0.048065728)
(0.0010664341 0.00086385115 0.059480912)
(0.0015445904 0.0011711938 0.071902245)
(0.0021392086 0.0015473132 0.085074051)
(0.0028480217 0.0019957513 0.098569172)
(0.0036678733 0.0025292558 0.11176735)
(0.0046091127 0.0031583002 0.12386519)
(0.0057105005 0.0039163652 0.13392387)
(0.0070949495 0.0048005736 0.14094209)
(1.009199e-06 9.7340016e-06 0.0015915476)
(-1.6185144e-06 2.9781998e-05 0.0050230005)
(-4.5394811e-06 5.2312697e-05 0.0090354407)
(-9.2951171e-06 7.7333396e-05 0.013707069)
(-1.7403544e-05 0.00010484319 0.019117022)
(-2.4996831e-05 0.00013472106 0.025339906)
(-4.5734165e-05 0.00016621227 0.032437298)
(-6.4269144e-05 0.00020059159 0.04044457)
(-9.0486886e-05 0.00023864882 0.049351157)
(-0.00012330404 0.00028064878 0.059071748)
(-0.00016238905 0.000326214 0.069403832)
(-0.00020660587 0.00037427719 0.079967212)
(-0.0002534957 0.00042209055 0.090114295)
(-0.00029641359 0.00046361883 0.098795734)
(-0.00032976308 0.00048447709 0.10435163)
(-1.9864493e-06 1.5930045e-05 0.0016612946)
(-6.758293e-06 4.9713763e-05 0.0052410194)
(-1.2895953e-05 8.8571698e-05 0.0094244412)
(-2.0964143e-05 0.00013299394 0.014292013)
(-3.1546962e-05 0.00018336523 0.019924555)
(-4.5312658e-05 0.00023983545 0.026397671)
(-6.3059403e-05 0.00030229108 0.033772727)
(-8.5620131e-05 0.00037213784 0.042083164)
(-0.00011404388 0.00045081566 0.051314073)
(-0.00014868451 0.000538905 0.06137199)
(-0.00018897821 0.00063478398 0.072034)
(-0.000233582 0.00073715242 0.082915603)
(-0.00027831593 0.00084148574 0.09337094)
(-0.00031937088 0.00093841164 0.10236938)
(-0.00034181788 0.00099771506 0.10831006)
(-3.9989131e-06 1.814139e-05 0.0017984507)
(-1.2555574e-05 5.6680468e-05 0.0056687966)
(-2.2638446e-05 0.00010119152 0.010186366)
(-3.447425e-05 0.00015233638 0.015435587)
(-4.8270289e-05 0.00021078302 0.021500239)
(-6.4169296e-05 0.00027719396 0.028457658)
(-8.2331708e-05 0.0003522791 0.03636943)
(-0.00010258495 0.00043677599 0.045267976)
(-0.0001233193 0.00053190654 0.055138011)
(-0.00014776239 0.00063348805 0.065893307)
(-0.00016568149 0.00075420378 0.07702744)
(-0.00017770277 0.00089331899 0.088378831)
(-0.00017699137 0.0010461944 0.099297511)
(-0.00016866199 0.001211258 0.10879649)
(-0.00013077239 0.0013625054 0.115445)
(-5.9487382e-06 1.7767748e-05 0.0019971062)
(-1.7315514e-05 5.5340931e-05 0.0062758031)
(-3.0378694e-05 9.8072007e-05 0.011258284)
(-4.4858911e-05 0.00014663388 0.01703158)
(-6.0565636e-05 0.00020178754 0.023679207)
(-7.6906798e-05 0.00026447892 0.03127411)
(-9.336921e-05 0.00033599424 0.039867407)
(-0.00010614259 0.00041839961 0.049472338)
(-0.00012678421 0.00051359182 0.060042142)
(-0.00010623639 0.00062720356 0.071463529)
(-4.6843618e-05 0.00076917074 0.083372524)
(-3.678832e-06 0.00093157254 0.095466616)
(9.5822654e-05 0.0011323312 0.1070499)
(0.00022686859 0.0013646306 0.11718384)
(0.00038808252 0.0016224171 0.12462293)
(-3.9168167e-06 1.0398679e-05 0.0022251694)
(-1.0775217e-05 3.2868896e-05 0.0069863599)
(-1.7682356e-05 5.9136426e-05 0.012518623)
(-2.2452992e-05 9.0698895e-05 0.018909891)
(-2.4403171e-05 0.00012835877 0.026242062)
(-2.0983179e-05 0.00017385517 0.034580874)
(-8.9094994e-06 0.00022933682 0.043961936)
(1.6977957e-05 0.00029775419 0.054370823)
(6.506712e-05 0.00038385997 0.065714815)
(0.0001481434 0.00048822725 0.077780145)
(0.0002618398 0.00061901463 0.090673271)
(0.00042316365 0.00079734137 0.10355955)
(0.00064184452 0.0010100222 0.11575453)
(0.00092061307 0.0012748707 0.12634093)
(0.0012450114 0.0015961821 0.13415958)
(-1.5032498e-06 4.911283e-06 0.0024796241)
(-3.4215248e-06 1.5850775e-05 0.0077901032)
(-2.8572273e-06 2.9835549e-05 0.013944721)
(2.246826e-06 4.8056415e-05 0.02103365)
(1.4190168e-05 7.1961923e-05 0.029137415)
(3.6811005e-05 0.00010379077 0.038315571)
(7.5342499e-05 0.00014661758 0.048591689)
(0.00013708264 0.00020470747 0.059933776)
(0.00023125412 0.00028380827 0.072230926)
(0.00036790523 0.00039072694 0.085270503)
(0.00056034844 0.00053313259 0.098708816)
(0.00082708481 0.00072185942 0.11194675)
(0.0011850934 0.00096650062 0.12420526)
(0.0016575649 0.0012784624 0.13449429)
(0.0022723711 0.0016389592 0.14162532)
(-3.4760722e-07 1.1748871e-05 0.0014101017)
(-1.6392145e-06 3.6028356e-05 0.0044500357)
(-3.0322152e-06 6.3070474e-05 0.0080080718)
(-4.5883387e-06 9.2967544e-05 0.012155361)
(-6.017741e-06 0.00012582075 0.016964812)
(-7.9343713e-06 0.00016173486 0.022506716)
(-6.358206e-06 0.00020093843 0.028841825)
(1.0292958e-06 0.00024333043 0.035976934)
(8.6598342e-06 0.00029017906 0.043934804)
(2.6257754e-05 0.00034226893 0.052647721)
(5.1465343e-05 0.00040065978 0.061944617)
(8.6926928e-05 0.00046698699 0.071494583)
(0.00012975406 0.00054288947 0.080724616)
(0.0001725978 0.00062900061 0.088699495)
(0.00019871281 0.00072167038 0.093947748)
(-2.2084037e-06 1.8691051e-05 0.0014733438)
(-6.2452264e-06 5.8252752e-05 0.0046422468)
(-1.0272679e-05 0.00010368534 0.0083482749)
(-1.2984613e-05 0.00015568913 0.012663617)
(-1.4161703e-05 0.00021470997 0.017661505)
(-1.2422867e-05 0.00028125323 0.023411078)
(-6.0648402e-06 0.00035567828 0.029969255)
(5.3892702e-06 0.00043915895 0.037402954)
(2.6970393e-05 0.00053307792 0.04568287)
(5.9441565e-05 0.00063784253 0.054737965)
(0.00010708815 0.00075687111 0.06439227)
(0.00017128177 0.00089439072 0.074309776)
(0.00025047293 0.0010556055 0.083915242)
(0.00033718474 0.001244092 0.092279873)
(0.00041209347 0.0014592206 0.097958742)
(-4.3552924e-06 2.2320595e-05 0.0015901599)
(-1.2721306e-05 6.9578006e-05 0.0050126938)
(-2.0160085e-05 0.00012405773 0.009012844)
(-2.5222371e-05 0.00018654786 0.013667148)
(-2.6500558e-05 0.00025784777 0.019053164)
(-2.1543648e-05 0.00033884701 0.025243994)
(-7.2597558e-06 0.00043056621 0.032300149)
(2.0641717e-05 0.00053417399 0.04025706)
(6.7798588e-05 0.00065072218 0.049105169)
(0.00014084472 0.00078227375 0.05876458)
(0.00024367503 0.00093148579 0.069046026)
(0.00037693073 0.0011125645 0.079601809)
(0.00053573876 0.0013371995 0.089854242)
(0.00070750018 0.0016122614 0.098896305)
(0.0008594514 0.0019524354 0.10536028)
(-5.8634316e-06 2.2197903e-05 0.0017598094)
(-1.6439742e-05 6.8455152e-05 0.005544788)
(-2.4516905e-05 0.00012138353 0.0099622172)
(-2.7624876e-05 0.00018220855 0.015093149)
(-2.3148871e-05 0.00025187482 0.021018569)
(-6.9994979e-06 0.00033202741 0.027812887)
(2.5933045e-05 0.00042470891 0.035534608)
(8.209823e-05 0.00053275704 0.044212554)
(0.00016949106 0.00065989244 0.053826179)
(0.00030212349 0.00081147404 0.06427925)
(0.0004413292 0.0009977962 0.075361831)
(0.00067241029 0.0012332513 0.086705076)
(0.00092608935 0.0015204958 0.097715941)
(0.0012397975 0.0018904497 0.10750836)
(0.0015818975 0.0023719594 0.11481995)
(-2.3568659e-06 1.2831356e-05 0.0019710004)
(-8.022729e-06 3.8939859e-05 0.0062054617)
(-4.0666269e-06 7.3078991e-05 0.01113714)
(6.3799862e-06 0.00011367839 0.016851073)
(3.1143152e-05 0.00016438477 0.023430261)
(7.4019702e-05 0.00022706618 0.030947749)
(0.00014223688 0.00030536269 0.039455865)
(0.00024298569 0.00040364273 0.048970832)
(0.00038396347 0.00052827742 0.059451701)
(0.00057098266 0.00068990677 0.070772664)
(0.00081899607 0.00090249419 0.082688955)
(0.0011529921 0.0011530964 0.094785139)
(0.0015661908 0.0014829621 0.10642987)
(0.0020747669 0.0019084743 0.11673043)
(0.0026472643 0.0024761944 0.12450126)
(9.7348031e-07 5.7538965e-06 0.0022113406)
(2.2585478e-06 1.6412143e-05 0.0069558265)
(1.6445744e-05 3.508891e-05 0.012466749)
(3.9792542e-05 5.921627e-05 0.018831951)
(8.1828379e-05 9.4068952e-05 0.026133871)
(0.00014701711 0.00014214229 0.034440275)
(0.00024424825 0.0002086594 0.043791431)
(0.00038281781 0.00029956948 0.054182254)
(0.0005749042 0.00042314832 0.065538408)
(0.00083577821 0.00059037038 0.077685592)
(0.0011845178 0.00081718959 0.090312003)
(0.0016411542 0.0011138874 0.10292453)
(0.0022272881 0.0015071838 0.11480805)
(0.0029916984 0.00202003 0.1249967)
(0.0039901701 0.0026514628 0.13226857)
(-1.1514603e-06 -8.4902382e-08 0.0015527547)
(-1.9628336e-07 -1.5075858e-07 0.0048979489)
(-4.5937044e-07 -3.1902943e-07 0.0088053572)
(-1.4746608e-06 -5.014874e-07 0.013348292)
(-2.9291654e-06 -5.2334981e-07 0.018599854)
(-1.0103035e-05 -2.6254291e-07 0.024627382)
(-1.1473895e-05 1.4225161e-06 0.031483784)
(-2.4520423e-05 3.7832931e-06 0.039194595)
(-4.2140454e-05 5.7133787e-06 0.047739184)
(-6.7770108e-05 7.1604619e-06 0.057023435)
(-0.00010492531 8.4080384e-06 0.066841503)
(-0.00015280608 8.0963499e-06 0.076821437)
(-0.00021414102 7.3616753e-06 0.086347911)
(-0.00028300574 -5.8746733e-06 0.094447826)
(-0.00034873741 -1.4867619e-05 0.099611663)
(5.5003155e-07 -5.0648147e-06 0.0016221807)
(1.5004921e-06 -1.4988967e-05 0.00511521)
(1.1320123e-06 -2.4986023e-05 0.0091934223)
(-1.0575071e-06 -3.5117172e-05 0.013932562)
(-5.7882735e-06 -4.5176264e-05 0.019407696)
(-1.4131748e-05 -5.4248881e-05 0.02568745)
(-2.7198431e-05 -6.1582046e-05 0.032824956)
(-4.6329137e-05 -6.7984933e-05 0.040844429)
(-7.267268e-05 -7.4018392e-05 0.049721986)
(-0.0001062713 -7.9620803e-05 0.059357725)
(-0.00015183522 -8.4237527e-05 0.069537988)
(-0.00020455866 -0.00010128897 0.079882622)
(-0.00028515489 -0.00011838644 0.089772529)
(-0.00034483083 -0.0001391351 0.098247352)
(-0.00046079585 -0.00016439984 0.10385918)
(2.2806635e-06 -4.0895999e-06 0.0017599183)
(3.7257896e-06 -1.3209455e-05 0.0055451046)
(1.9212534e-06 -2.3383835e-05 0.0099595728)
(1.5775334e-06 -3.4801566e-05 0.015083131)
(-1.9105772e-06 -4.7434362e-05 0.020993787)
(-9.2376162e-06 -6.097342e-05 0.02776154)
(-2.1595547e-05 -7.5364593e-05 0.035438462)
(-4.1887766e-05 -9.0108589e-05 0.044044228)
(-7.0752179e-05 -0.00011193158 0.053545587)
(-0.00010964203 -0.00013331846 0.063828024)
(-0.00018288832 -0.00015490027 0.074657664)
(-0.00024271565 -0.00018103686 0.085630895)
(-0.00036499249 -0.00019894485 0.096109243)
(-0.0004835851 -0.00023941411 0.10513726)
(-0.00061646681 -0.00032871975 0.11133791)
(1.6230939e-06 -5.3611933e-06 0.0019606111)
(4.5955253e-06 -1.6732303e-05 0.0061695844)
(6.1952006e-06 -3.0138469e-05 0.011069673)
(5.7572202e-06 -4.6638461e-05 0.0167452)
(1.6150213e-06 -6.5355121e-05 0.023276566)
(-8.7157121e-06 -8.5839844e-05 0.030733029)
(-2.5971024e-05 -0.00010779903 0.039161219)
(-6.5425428e-05 -0.00013432071 0.048568815)
(-9.755255e-05 -0.0001625906 0.058901879)
(-0.00017502281 -0.00018732512 0.070014831)
(-0.00027076617 -0.00020909931 0.081632273)
(-0.00038860913 -0.00023118586 0.093302208)
(-0.00052199851 -0.00026836334 0.10434618)
(-0.00065233354 -0.00034360377 0.11379615)
(-0.00078283297 -0.00047970913 0.12033036)
(2.2746015e-06 -5.661032e-06 0.0022181147)
(6.0114211e-06 -1.7206996e-05 0.0069674188)
(3.7002168e-06 -3.1917504e-05 0.012482702)
(3.576323e-06 -4.7667819e-05 0.018851282)
(-9.9914154e-06 -6.6358271e-05 0.026152703)
(-3.1972431e-05 -8.7024305e-05 0.034449617)
(-6.708777e-05 -0.00011013449 0.043773633)
(-0.00011883795 -0.00013308224 0.05410599)
(-0.00019063023 -0.00015603944 0.06535222)
(-0.00028207105 -0.00018253345 0.077310972)
(-0.00039288616 -0.00021512938 0.089638324)
(-0.0005187442 -0.00025825325 0.10180982)
(-0.00065175827 -0.0003199256 0.11308479)
(-0.00077321418 -0.0004165672 0.12247045)
(-0.00087549024 -0.00057088717 0.12868866)
(3.1865509e-06 4.2773604e-07 0.0025338037)
(7.8112989e-07 -3.9946606e-06 0.0079388489)
(-2.8906713e-06 -9.182635e-06 0.014193275)
(-1.1618694e-05 -1.6955529e-05 0.021381933)
(-2.759859e-05 -2.8982977e-05 0.029574706)
(-5.3884531e-05 -4.6597767e-05 0.038813954)
(-9.4283776e-05 -7.098422e-05 0.0490968)
(-0.00015276765 -0.00010342273 0.060352441)
(-0.00023254828 -0.00014550254 0.072415045)
(-0.00033529186 -0.00019886656 0.084994264)
(-0.00045954513 -0.00026447296 0.097647163)
(-0.00059907229 -0.00034205475 0.1097569)
(-0.00074095482 -0.00042928825 0.12052433)
(-0.00086381187 -0.0005225793 0.12897742)
(-0.0009321087 -0.00060775385 0.13401093)
(1.2692966e-07 -2.0974163e-07 0.0015713154)
(1.1339111e-07 -5.4592968e-07 0.0049509849)
(6.5061899e-07 -9.4656958e-07 0.0088995022)
(1.283869e-06 -1.4828846e-06 0.013491089)
(2.4372294e-06 -2.3009503e-06 0.018799962)
(4.1241488e-06 -3.7134169e-06 0.02489474)
(6.5674149e-06 -6.4849075e-06 0.031829777)
(9.7759569e-06 -1.0499982e-05 0.039631951)
(1.3816049e-05 -1.3128071e-05 0.048281778)
(1.797852e-05 -1.5197917e-05 0.057686165)
(2.205017e-05 -1.6165157e-05 0.067639624)
(2.4764801e-05 -1.6439558e-05 0.077771633)
(2.4395426e-05 -1.5674729e-05 0.087473737)
(1.9294844e-05 -1.6550602e-05 0.095755399)
(1.2461468e-05 -1.5543887e-05 0.10123335)
(-9.0520298e-08 -9.2939499e-07 0.0016367116)
(1.8451526e-06 -2.7163532e-06 0.0051637608)
(1.6045301e-06 -5.2538632e-06 0.0092849488)
(3.9164945e-06 -7.8843582e-06 0.014062693)
(6.2455569e-06 -1.0990337e-05 0.019584698)
(9.8237924e-06 -1.4466275e-05 0.025921243)
(1.6429063e-05 -1.7883984e-05 0.033127292)
(1.0120525e-05 -2.2144713e-05 0.04122906)
(2.3011885e-05 -2.498363e-05 0.050204341)
(2.2044937e-05 -2.8415483e-05 0.059957458)
(2.5748753e-05 -3.1515348e-05 0.070270922)
(2.5284089e-05 -3.5098851e-05 0.080744796)
(1.9218944e-05 -3.9662833e-05 0.091041966)
(1.2793274e-05 -4.6850007e-05 0.099884183)
(-8.505311e-06 -5.1813391e-05 0.10588763)
(8.4873185e-07 -2.7767608e-06 0.0017688764)
(1.9451018e-06 -8.8142525e-06 0.0055730853)
(3.1518314e-06 -1.517409e-05 0.010012791)
(4.3947263e-06 -2.1953104e-05 0.015163071)
(5.7473984e-06 -2.8784749e-05 0.021109669)
(7.0153588e-06 -3.5152586e-05 0.027922704)
(8.2993048e-06 -3.9958918e-05 0.035654672)
(9.9822342e-06 -4.1991247e-05 0.044323784)
(1.2740325e-05 -4.7064341e-05 0.053891015)
(1.3225435e-05 -5.1671176e-05 0.064450319)
(9.1934498e-06 -5.8182252e-05 0.075597315)
(5.380143e-06 -6.504649e-05 0.086915295)
(-4.7903052e-06 -7.4440659e-05 0.097902038)
(-2.8699903e-05 -9.1080882e-05 0.10738251)
(-7.9287606e-05 -0.00011176066 0.11364801)
(8.3583509e-07 -2.1710055e-06 0.0019640991)
(2.0204834e-06 -6.8816497e-06 0.0061725766)
(4.0655562e-06 -1.1872428e-05 0.011073323)
(6.0198454e-06 -1.7392736e-05 0.01677258)
(8.0715084e-06 -2.331273e-05 0.023374356)
(9.6781992e-06 -2.9537579e-05 0.030924043)
(1.0652654e-05 -3.5921254e-05 0.039477082)
(1.0323784e-05 -4.2638903e-05 0.049053705)
(1.0218665e-05 -4.9654632e-05 0.059601249)
(8.4610616e-06 -5.7617599e-05 0.071059498)
(-4.4254686e-07 -6.7504716e-05 0.08308298)
(-1.8733686e-05 -8.0862455e-05 0.095276851)
(-5.0493167e-05 -0.0001032188 0.10645808)
(-8.9060862e-05 -0.00013512858 0.11606628)
(-0.00015650014 -0.00016888697 0.12265604)
(9.0284528e-07 -1.7589191e-06 0.0022274253)
(2.1835635e-06 -5.7342017e-06 0.0070159386)
(4.0928622e-06 -1.0077018e-05 0.012586519)
(5.7765254e-06 -1.5120142e-05 0.019028078)
(7.6073723e-06 -2.075741e-05 0.02642768)
(8.7746863e-06 -2.703205e-05 0.034852984)
(8.8700946e-06 -3.397293e-05 0.044355739)
(6.6743859e-06 -4.1847149e-05 0.054939195)
(5.248902e-07 -5.1482302e-05 0.066540735)
(-1.1234549e-05 -6.4687757e-05 0.078661334)
(-2.9373306e-05 -8.0922932e-05 0.091223062)
(-5.7034312e-05 -0.00010123108 0.10365572)
(-9.874954e-05 -0.00012816018 0.1151464)
(-0.00015195392 -0.00016669574 0.12464741)
(-0.00023388055 -0.00021229812 0.13082615)
(1.3302805e-06 -1.4981522e-06 0.0025557363)
(2.4990272e-06 -5.2039653e-06 0.0080222758)
(3.502509e-06 -9.1759025e-06 0.01435738)
(3.8622347e-06 -1.3566852e-05 0.021653009)
(3.0099383e-06 -1.8581786e-05 0.029940404)
(7.0676959e-07 -2.4218695e-05 0.039303937)
(-3.697997e-06 -3.0716772e-05 0.049747233)
(-1.1184969e-05 -3.8436513e-05 0.061203481)
(-2.309683e-05 -4.7771097e-05 0.073502063)
(-4.1049377e-05 -5.9436524e-05 0.086337108)
(-6.6849519e-05 -7.4641549e-05 0.099249855)
(-0.00010277852 -9.5181163e-05 0.11158653)
(-0.0001505945 -0.00012340496 0.12249251)
(-0.00021048065 -0.00016399392 0.13094554)
(-0.00029708509 -0.00022882597 0.13584618)
(1.8103233e-07 -6.7130848e-06 0.0017655154)
(7.0658819e-07 -2.0227018e-05 0.0055642967)
(7.7244955e-07 -3.4881451e-05 0.0099993365)
(2.8232738e-07 -5.0484869e-05 0.015152118)
(-1.0472758e-06 -6.6739985e-05 0.021103095)
(-3.1757691e-06 -8.3195743e-05 0.027925069)
(-7.5599282e-06 -9.9464871e-05 0.03567299)
(-1.3894856e-05 -0.00011463111 0.044409658)
(-2.1734322e-05 -0.00012789389 0.054075781)
(-4.9361569e-05 -0.00013879409 0.064557992)
(-5.7544521e-05 -0.00014261494 0.075615618)
(-0.00010504325 -0.00015480271 0.086821048)
(-0.00016442361 -0.00017172636 0.097476626)
(-0.00023432083 -0.00018264726 0.10649241)
(-0.0003307873 -0.00020169671 0.11219902)
(9.9914557e-07 -6.4611741e-06 0.0018445649)
(3.532608e-06 -2.0793081e-05 0.0058124042)
(6.3495798e-06 -3.8679472e-05 0.010443337)
(9.8332809e-06 -6.014899e-05 0.015821485)
(1.2731393e-05 -8.550913e-05 0.022029775)
(1.4341797e-05 -0.00011513117 0.029142818)
(1.5719043e-05 -0.00014882889 0.037214253)
(1.5267198e-05 -0.00018560642 0.046303622)
(5.6180451e-06 -0.00022491492 0.056343678)
(-1.4932814e-05 -0.00026409683 0.067216819)
(-6.6913178e-05 -0.000304463 0.078672683)
(-0.00010675739 -0.00034510935 0.09027134)
(-0.00020284393 -0.00039547408 0.10130612)
(-0.00032153679 -0.00048708176 0.11068998)
(-0.00044592559 -0.00059488183 0.11680471)
(4.3075879e-06 -1.9201332e-05 0.0019992136)
(1.1305516e-05 -5.9174054e-05 0.0063068297)
(2.0823989e-05 -0.00010380054 0.011331068)
(2.5611182e-05 -0.0001533793 0.017162753)
(2.7826506e-05 -0.00020783109 0.023890862)
(2.4393738e-05 -0.00026719614 0.031595653)
(1.3305873e-05 -0.0003308848 0.040337874)
(-9.9833771e-06 -0.00039833409 0.050056554)
(-5.0820448e-05 -0.00046270371 0.060771708)
(-0.00011575292 -0.00053171738 0.072341927)
(-0.00018821426 -0.00060278875 0.084484854)
(-0.00031818514 -0.00067855293 0.096721194)
(-0.00044553725 -0.00079125204 0.10830496)
(-0.00057893887 -0.00095840479 0.11813135)
(-0.00081097778 -0.0011090467 0.12463568)
(8.6244762e-06 -2.0475264e-05 0.0022304041)
(1.912211e-05 -6.4484031e-05 0.0070176822)
(2.9584997e-05 -0.00011330304 0.012589311)
(3.6697025e-05 -0.0001668495 0.019039576)
(3.840113e-05 -0.00022621592 0.026457419)
(3.2275357e-05 -0.00029173451 0.034917663)
(1.2574013e-05 -0.000363582 0.044466943)
(-1.3759773e-05 -0.00043883868 0.055104362)
(-8.552028e-05 -0.00052087243 0.066755917)
(-0.00016105296 -0.00061632192 0.07923769)
(-0.00027738019 -0.00072944694 0.092209457)
(-0.00043208448 -0.00086774377 0.10512063)
(-0.00065172694 -0.001034374 0.11714771)
(-0.00088787059 -0.0012669215 0.12715113)
(-0.0012875671 -0.0014905473 0.13363095)
(1.0750853e-05 -1.8724853e-05 0.0025212568)
(2.3310615e-05 -6.0827163e-05 0.0079183431)
(3.8643686e-05 -0.00010665212 0.014183491)
(4.2807343e-05 -0.00016003176 0.021413773)
(4.5495497e-05 -0.0002199753 0.029696317)
(3.4487639e-05 -0.0002883384 0.039097179)
(5.4049297e-06 -0.00036577651 0.049644277)
(-4.8691653e-05 -0.00045633 0.061303572)
(-0.00013512149 -0.00056171192 0.073947418)
(-0.00026623448 -0.00068193504 0.087314607)
(-0.00045335051 -0.00082263017 0.10096793)
(-0.0007044854 -0.00099193235 0.11424843)
(-0.0010364799 -0.0012007986 0.12624267)
(-0.0014021193 -0.0014716772 0.13577706)
(-0.0019506731 -0.0017611718 0.14145641)
(9.6121359e-06 -1.5944696e-05 0.002879363)
(2.1748088e-05 -4.9183369e-05 0.0090200482)
(2.7680446e-05 -8.6549068e-05 0.016122783)
(2.3222004e-05 -0.00012945244 0.02428101)
(3.3850699e-06 -0.00017862645 0.033569301)
(-3.7486166e-05 -0.00023583404 0.044027828)
(-0.00010577539 -0.0003037164 0.055640309)
(-0.00020886561 -0.00038567578 0.068305367)
(-0.00035515806 -0.00048581723 0.081801993)
(-0.00055359914 -0.00060883534 0.09575228)
(-0.00081227076 -0.00076000571 0.10958853)
(-0.0011385743 -0.00094647055 0.12253622)
(-0.0015331632 -0.001175154 0.13362931)
(-0.001983206 -0.0014698455 0.14177719)
(-0.0025935183 -0.0019035791 0.14590072)
(3.072281e-07 -5.1939632e-06 0.0018744234)
(5.0383606e-07 -1.552209e-05 0.0059049413)
(1.2315946e-06 -2.6575052e-05 0.010612111)
(1.6545386e-06 -3.8179009e-05 0.016083223)
(2.263811e-06 -5.0037275e-05 0.022404919)
(2.7880054e-06 -6.1737984e-05 0.029656244)
(3.1806058e-06 -7.2580544e-05 0.03789792)
(3.4432078e-06 -8.3085539e-05 0.047156294)
(3.5085523e-06 -9.7367241e-05 0.057399779)
(3.3282738e-06 -0.00011374711 0.068505121)
(4.1956087e-06 -0.00012525484 0.080209049)
(2.9647594e-06 -0.00013703092 0.09218795)
(-3.2194479e-06 -0.00014512754 0.10375354)
(-1.4793353e-05 -0.00015616504 0.11356987)
(-4.4427121e-05 -0.00015910806 0.11982312)
(9.044133e-07 -4.6924137e-06 0.0019493183)
(3.4123042e-06 -1.5034361e-05 0.0061486359)
(6.5632695e-06 -2.7552357e-05 0.011052988)
(1.1484663e-05 -4.2361553e-05 0.016753316)
(1.75605e-05 -5.9828458e-05 0.023340162)
(2.4743704e-05 -8.0198426e-05 0.03089649)
(3.0226123e-05 -0.00010424166 0.039486862)
(4.9036774e-05 -0.00013131957 0.049141282)
(5.0874317e-05 -0.00016310991 0.059832041)
(3.2459217e-05 -0.00019927333 0.071441524)
(3.6713357e-05 -0.00024000959 0.08371708)
(1.6753694e-05 -0.00028775453 0.096051444)
(-2.825544e-06 -0.00033804435 0.10796496)
(-4.29808e-05 -0.00040396978 0.11810584)
(-0.00013718801 -0.00045181139 0.12473569)
(3.1933225e-06 -1.4222709e-05 0.0021087467)
(9.4042354e-06 -4.3825052e-05 0.0066541689)
(1.5779914e-05 -7.72374e-05 0.011958107)
(2.1991248e-05 -0.00011485937 0.018117406)
(2.7584662e-05 -0.00015698993 0.02522716)
(3.1892522e-05 -0.00020401113 0.033373298)
(3.3879533e-05 -0.00025634273 0.042620638)
(3.1640627e-05 -0.00031379651 0.052995251)
(2.0951734e-05 -0.00036885449 0.064459424)
(8.3077267e-07 -0.00042375615 0.076876938)
(-3.2473616e-05 -0.00049287482 0.089966149)
(-8.3651293e-05 -0.0005684262 0.10323813)
(-0.00017339667 -0.00065676451 0.11555533)
(-0.00026607675 -0.00077446695 0.12606274)
(-0.00045903481 -0.00084933535 0.1330365)
(5.0957906e-06 -1.5174967e-05 0.0023578209)
(1.4335417e-05 -4.7429687e-05 0.0074207252)
(2.3951322e-05 -8.442491e-05 0.013316153)
(3.3100794e-05 -0.00012664946 0.020145597)
(4.0719351e-05 -0.00017446745 0.028005777)
(4.5192521e-05 -0.00022818472 0.036979736)
(4.4233453e-05 -0.00028803604 0.047122507)
(3.4393966e-05 -0.00035422476 0.058440315)
(1.0994164e-05 -0.00042740359 0.070861135)
(-3.0996589e-05 -0.00050961623 0.084195549)
(-0.00010040147 -0.00060394382 0.098083566)
(-0.00020350811 -0.00071452445 0.11192812)
(-0.0003652183 -0.00084612661 0.12483257)