/*--------------------------------*- C++ -*----------------------------------*\
| =========                 |                                                 |
| \\      /  F ield         | OpenFOAM: The Open Source CFD Toolbox           |
|  \\    /   O peration     | Version:  4.0                                   |
|   \\  /    A nd           | Web:      www.OpenFOAM.org                      |
|    \\/     M anipulation  |                                                 |
\*---------------------------------------------------------------------------*/
FoamFile
{
    version     2.0;
    format      ascii;
    class       volScalarField;
    location    "2000";
    object      rho;
}
// * * * * * * * * * * * * * * * * * * * * * * * * * * * * * * * * * * * * * //

dimensions      [1 -3 0 0 0 0 0];

internalField   nonuniform List<scalar> 
100000
(
1.0870467
1.0936976
1.100815
1.1083518
1.1162376
1.1243781
1.132656
1.1409347
1.149064
1.1568895
1.1642625
1.1710511
1.1771508
1.1824919
1.1870429
1.1908115
1.1938396
1.1961964
1.1979696
1.1992563
1.2001542
1.2007549
1.2011388
1.2013721
1.2015062
1.201579
1.2016159
1.2016333
1.2016409
1.201644
1.2016451
1.2016455
1.2016456
1.2016456
1.2016456
1.2016456
1.2016456
1.2016456
1.2016456
1.2016456
1.2016456
1.2016456
1.2016456
1.2016456
1.2016456
1.2016456
1.2016456
1.2016456
1.2016456
1.2016456
1.0876616
1.0943195
1.1014401
1.1089749
1.1168525
1.1249775
1.1332322
1.1414798
1.1495709
1.1573519
1.1646759
1.1714134
1.1774621
1.1827539
1.1872595
1.190987
1.1939789
1.1963045
1.1980515
1.1993165
1.2001971
1.2007843
1.2011579
1.2013839
1.2015131
1.2015827
1.2016177
1.2016342
1.2016413
1.2016441
1.2016452
1.2016455
1.2016456
1.2016456
1.2016456
1.2016456
1.2016456
1.2016456
1.2016456
1.2016456
1.2016456
1.2016456
1.2016456
1.2016457
1.2016457
1.2016457
1.2016457
1.2016457
1.2016457
1.2016457
1.0893037
1.0960681
1.1032666
1.1108467
1.1187345
1.1268337
1.1350274
1.1431815
1.1511513
1.1587895
1.1659564
1.1725298
1.1784144
1.1835484
1.1879071
1.1915022
1.1943781
1.1966051
1.1982707
1.1994708
1.2003014
1.2008516
1.2011993
1.2014079
1.2015262
1.2015893
1.2016209
1.2016355
1.2016418
1.2016443
1.2016452
1.2016455
1.2016456
1.2016456
1.2016456
1.2016456
1.2016456
1.2016456
1.2016457
1.2016457
1.2016457
1.2016457
1.2016457
1.2016457
1.2016457
1.2016457
1.2016457
1.2016457
1.2016457
1.2016457
1.0962739
1.1030306
1.1101044
1.1174493
1.1250013
1.1326784
1.1403811
1.1479956
1.1553983
1.1624631
1.1690701
1.1751136
1.1805115
1.185211
1.1891925
1.1924697
1.1950857
1.1971066
1.1986142
1.1996973
1.2004443
1.2009378
1.2012487
1.2014347
1.20154
1.201596
1.2016239
1.2016368
1.2016423
1.2016445
1.2016453
1.2016455
1.2016456
1.2016456
1.2016456
1.2016456
1.2016457
1.2016457
1.2016457
1.2016457
1.2016457
1.2016457
1.2016457
1.2016457
1.2016457
1.2016457
1.2016457
1.2016457
1.2016457
1.2016457
1.124104
1.1277011
1.1317667
1.136275
1.1411807
1.146418
1.1518993
1.1575183
1.1631549
1.1686811
1.17397
1.1789038
1.183384
1.1873414
1.1907358
1.1935598
1.195835
1.1976071
1.1989378
1.1998992
1.2005659
1.2010079
1.2012873
1.2014549
1.2015499
1.2016006
1.2016259
1.2016376
1.2016426
1.2016446
1.2016453
1.2016456
1.2016456
1.2016456
1.2016456
1.2016457
1.2016457
1.2016457
1.2016457
1.2016457
1.2016457
1.2016457
1.2016457
1.2016457
1.2016457
1.2016457
1.2016457
1.2016457
1.2016457
1.2016457
1.1241067
1.127704
1.13177
1.1362788
1.1411846
1.1464207
1.1518992
1.1575144
1.1631461
1.1686671
1.173951
1.1788817
1.1833628
1.1873252
1.190726
1.1935554
1.1958338
1.1976063
1.1989369
1.1998983
1.2005651
1.2010074
1.2012869
1.2014547
1.2015498
1.2016005
1.2016258
1.2016376
1.2016426
1.2016446
1.2016453
1.2016456
1.2016456
1.2016456
1.2016456
1.2016457
1.2016457
1.2016457
1.2016457
1.2016457
1.2016457
1.2016457
1.2016457
1.2016457
1.2016457
1.2016457
1.2016457
1.2016457
1.2016457
1.2016457
1.0962856
1.103041
1.1101135
1.1174571
1.1250077
1.1326831
1.1403837
1.1479956
1.1553954
1.1624573
1.1690615
1.1751032
1.1805003
1.1852003
1.1891832
1.1924623
1.19508
1.1971023
1.198611
1.199695
1.200443
1.200937
1.2012482
1.2014345
1.2015399
1.2015959
1.2016239
1.2016368
1.2016423
1.2016445
1.2016453
1.2016455
1.2016456
1.2016456
1.2016456
1.2016456
1.2016457
1.2016457
1.2016457
1.2016457
1.2016457
1.2016457
1.2016457
1.2016457
1.2016457
1.2016457
1.2016457
1.2016457
1.2016457
1.2016457
1.0893047
1.0960677
1.1032649
1.110844
1.1187308
1.1268292
1.1350223
1.1431759
1.1511454
1.1587836
1.1659506
1.1725244
1.1784095
1.1835441
1.1879033
1.191499
1.1943756
1.1966031
1.1982693
1.1994698
1.2003007
1.2008512
1.201199
1.2014077
1.2015261
1.2015893
1.2016209
1.2016355
1.2016418
1.2016443
1.2016452
1.2016455
1.2016456
1.2016456
1.2016456
1.2016456
1.2016456
1.2016456
1.2016457
1.2016457
1.2016457
1.2016457
1.2016457
1.2016457
1.2016457
1.2016457
1.2016457
1.2016457
1.2016457
1.2016457
1.0876133
1.0942749
1.1013993
1.1089378
1.1168191
1.1249478
1.1332061
1.1414572
1.1495516
1.1573357
1.1646626
1.1714027
1.1774537
1.1827474
1.1872546
1.1909834
1.1939763
1.1963027
1.1980503
1.1993157
1.2001966
1.200784
1.2011577
1.2013838
1.2015131
1.2015827
1.2016177
1.2016342
1.2016413
1.2016441
1.2016452
1.2016455
1.2016456
1.2016456
1.2016456
1.2016456
1.2016456
1.2016456
1.2016456
1.2016456
1.2016456
1.2016456
1.2016456
1.2016457
1.2016457
1.2016457
1.2016457
1.2016457
1.2016457
1.2016457
1.0869868
1.0936414
1.1007628
1.1083038
1.1161939
1.1243389
1.1326213
1.1409044
1.149038
1.1568677
1.1642445
1.1710367
1.1771395
1.1824832
1.1870363
1.1908067
1.1938362
1.196194
1.197968
1.1992552
1.2001536
1.2007545
1.2011386
1.2013719
1.2015062
1.2015789
1.2016159
1.2016333
1.2016409
1.201644
1.2016451
1.2016455
1.2016456
1.2016456
1.2016456
1.2016456
1.2016456
1.2016456
1.2016456
1.2016456
1.2016456
1.2016456
1.2016456
1.2016456
1.2016456
1.2016456
1.2016456
1.2016456
1.2016456
1.2016456
1.0620846
1.0677399
1.0738334
1.0803725
1.0873548
1.0947649
1.1025716
1.1107236
1.1191479
1.1277476
1.1364029
1.1449739
1.1533074
1.1612454
1.1686356
1.1753445
1.1812672
1.1863373
1.1905328
1.1938777
1.1964371
1.1983093
1.1996132
1.2004733
1.2010084
1.2013209
1.2014912
1.2015772
1.2016172
1.2016342
1.2016408
1.2016431
1.2016439
1.2016441
1.2016441
1.2016441
1.2016442
1.2016442
1.2016442
1.2016442
1.2016442
1.2016442
1.2016442
1.2016442
1.2016442
1.2016442
1.2016442
1.2016442
1.2016442
1.2016442
1.0631455
1.0688139
1.0749177
1.0814622
1.0884429
1.0958426
1.1036281
1.1117469
1.1201251
1.1286662
1.1372518
1.145745
1.1539961
1.1618507
1.1691607
1.1757943
1.1816481
1.1866562
1.190796
1.1940901
1.1966035
1.1984345
1.1997024
1.2005324
1.2010453
1.2013421
1.2015024
1.2015824
1.2016194
1.201635
1.2016411
1.2016432
1.2016439
1.2016441
1.2016441
1.2016441
1.2016442
1.2016442
1.2016442
1.2016442
1.2016442
1.2016442
1.2016442
1.2016442
1.2016442
1.2016442
1.2016442
1.2016442
1.2016442
1.2016442
1.0655661
1.0714058
1.0776518
1.0843049
1.0913564
1.0987863
1.1065597
1.1146244
1.1229084
1.131319
1.1397433
1.1480506
1.1560978
1.1637369
1.1708248
1.1772347
1.1828672
1.1876603
1.1915963
1.1947034
1.1970492
1.1987429
1.1999041
1.2006567
1.2011158
1.2013788
1.2015198
1.2015901
1.2016225
1.2016362
1.2016415
1.2016433
1.2016439
1.2016441
1.2016441
1.2016441
1.2016442
1.2016442
1.2016442
1.2016442
1.2016442
1.2016442
1.2016442
1.2016442
1.2016442
1.2016442
1.2016442
1.2016442
1.2016442
1.2016442
1.0742471
1.0801092
1.0862784
1.0927586
1.0995473
1.1066329
1.1139913
1.1215826
1.1293475
1.1372062
1.1450568
1.1527792
1.1602407
1.1673034
1.1738334
1.1797122
1.1848497
1.1891943
1.1927346
1.1955141
1.1976037
1.1991004
1.20012
1.2007788
1.2011807
1.2014111
1.2015347
1.2015964
1.2016249
1.2016371
1.2016418
1.2016434
1.201644
1.2016441
1.2016441
1.2016441
1.2016442
1.2016442
1.2016442
1.2016442
1.2016442
1.2016442
1.2016442
1.2016442
1.2016442
1.2016442
1.2016442
1.2016442
1.2016442
1.2016442
1.1025207
1.1054721
1.1088937
1.1128016
1.1172005
1.1220842
1.1274265
1.1331883
1.1393015
1.1456714
1.1521812
1.1587038
1.1650994
1.1712238
1.1769421
1.1821227
1.1866685
1.1905243
1.1936755
1.1961507
1.1980122
1.199349
1.2002634
1.2008567
1.2012205
1.2014302
1.2015434
1.2016001
1.2016264
1.2016376
1.201642
1.2016435
1.201644
1.2016441
1.2016441
1.2016441
1.2016442
1.2016442
1.2016442
1.2016442
1.2016442
1.2016442
1.2016442
1.2016442
1.2016442
1.2016442
1.2016442
1.2016442
1.2016442
1.2016442
1.102518
1.1054695
1.1088912
1.1127989
1.1171983
1.1220799
1.1274213
1.1331738
1.1392739
1.1456363
1.1521581
1.1587025
1.1651205
1.1712584
1.1769674
1.1821338
1.1866687
1.1905189
1.1936726
1.1961478
1.198009
1.1993469
1.2002622
1.2008561
1.2012202
1.2014301
1.2015433
1.2016001
1.2016264
1.2016376
1.201642
1.2016435
1.201644
1.2016441
1.2016441
1.2016441
1.2016442
1.2016442
1.2016442
1.2016442
1.2016442
1.2016442
1.2016442
1.2016442
1.2016442
1.2016442
1.2016442
1.2016442
1.2016442
1.2016442
1.0742361
1.0800983
1.0862677
1.092748
1.0995367
1.1066219
1.1139794
1.1215691
1.1293321
1.1371897
1.1450416
1.1527677
1.1602342
1.167301
1.1738327
1.1797112
1.1848478
1.1891915
1.1927318
1.1955115
1.1976015
1.1990979
1.2001184
1.2007779
1.2011802
1.2014109
1.2015346
1.2015964
1.2016249
1.2016371
1.2016418
1.2016434
1.201644
1.2016441
1.2016441
1.2016441
1.2016442
1.2016442
1.2016442
1.2016442
1.2016442
1.2016442
1.2016442
1.2016442
1.2016442
1.2016442
1.2016442
1.2016442
1.2016442
1.2016442
1.0655396
1.0713792
1.0776255
1.084279
1.0913311
1.0987618
1.1065362
1.1146021
1.1228876
1.1313
1.1397261
1.1480352
1.156084
1.1637245
1.1708137
1.1772249
1.1828588
1.1876534
1.1915907
1.194699
1.1970459
1.1987406
1.1999031
1.2006563
1.2011154
1.2013787
1.2015198
1.20159
1.2016224
1.2016362
1.2016415
1.2016433
1.2016439
1.2016441
1.2016441
1.2016441
1.2016442
1.2016442
1.2016442
1.2016442
1.2016442
1.2016442
1.2016442
1.2016442
1.2016442
1.2016442
1.2016442
1.2016442
1.2016442
1.2016442
1.0630768
1.0687489
1.0748565
1.0814049
1.0883895
1.0957932
1.1035828
1.1117056
1.120088
1.128633
1.1372224
1.1457193
1.1539738
1.1618315
1.1691444
1.1757807
1.1816371
1.1866474
1.1907892
1.194085
1.1965998
1.198432
1.1997007
1.2005322
1.201045
1.201342
1.2015023
1.2015824
1.2016194
1.201635
1.2016411
1.2016432
1.2016439
1.2016441
1.2016441
1.2016441
1.2016442
1.2016442
1.2016442
1.2016442
1.2016442
1.2016442
1.2016442
1.2016442
1.2016442
1.2016442
1.2016442
1.2016442
1.2016442
1.2016442
1.0620045
1.0676634
1.0737609
1.0803042
1.0872908
1.0947056
1.102517
1.110674
1.1191032
1.1277079
1.136368
1.1449438
1.1532818
1.1612241
1.1686182
1.1753306
1.1812563
1.1863291
1.1905268
1.1938736
1.1964344
1.1983076
1.1996122
1.2004728
1.2010082
1.2013208
1.2014911
1.2015771
1.2016172
1.2016342
1.2016408
1.2016431
1.2016439
1.2016441
1.2016441
1.2016441
1.2016442
1.2016442
1.2016442
1.2016442
1.2016442
1.2016442
1.2016442
1.2016442
1.2016442
1.2016442
1.2016442
1.2016442
1.2016442
1.2016442
1.0507581
1.0559608
1.0615696
1.0676014
1.0740684
1.0809766
1.0883229
1.0960915
1.1042506
1.1127479
1.1215067
1.1304237
1.1393683
1.1481847
1.1567003
1.1647352
1.1721181
1.178703
1.1843859
1.189115
1.1928975
1.1957951
1.1979125
1.199383
1.2003492
1.2009469
1.2012929
1.2014794
1.2015724
1.201615
1.2016327
1.2016394
1.2016417
1.2016424
1.2016426
1.2016426
1.2016427
1.2016427
1.2016427
1.2016427
1.2016427
1.2016427
1.2016427
1.2016427
1.2016427
1.2016427
1.2016427
1.2016427
1.2016427
1.2016427
1.0519258
1.0571434
1.0627659
1.0688082
1.0752806
1.082187
1.0895222
1.0972685
1.1053922
1.1138401
1.1225353
1.1313754
1.140231
1.1489501
1.1573626
1.1652932
1.1725753
1.1790674
1.1846676
1.189327
1.1930524
1.1959043
1.197987
1.1994318
1.2003793
1.2009642
1.2013023
1.201484
1.2015744
1.2016157
1.201633
1.2016395
1.2016417
1.2016424
1.2016426
1.2016426
1.2016426
1.2016427
1.2016427
1.2016427
1.2016427
1.2016427
1.2016427
1.2016427
1.2016427
1.2016427
1.2016427
1.2016427
1.2016427
1.2016427
1.0543917
1.0597864
1.0655577
1.0717159
1.0782673
1.0852123
1.0925432
1.1002412
1.1082728
1.1165863
1.1251085
1.1337418
1.1423645
1.1508325
1.158986
1.1666598
1.1736965
1.179962
1.1853607
1.1898462
1.1934269
1.1961634
1.1981579
1.1995385
1.2004419
1.2009985
1.2013195
1.201492
1.2015778
1.201617
1.2016334
1.2016397
1.2016418
1.2016424
1.2016426
1.2016426
1.2016427
1.2016427
1.2016427
1.2016427
1.2016427
1.2016427
1.2016427
1.2016427
1.2016427
1.2016427
1.2016427
1.2016427
1.2016427
1.2016427
1.0630162
1.0684282
1.0741217
1.0801106
1.0864065
1.0930172
1.0999437
1.1071773
1.1146953
1.1224574
1.130402
1.1384447
1.146476
1.154364
1.1619603
1.1691102
1.175666
1.1815009
1.1865247
1.1906948
1.1940207
1.19656
1.1984095
1.1996893
1.2005271
1.2010436
1.2013418
1.2015022
1.2015821
1.2016187
1.201634
1.2016399
1.2016418
1.2016424
1.2016426
1.2016426
1.2016427
1.2016427
1.2016427
1.2016427
1.2016427
1.2016427
1.2016427
1.2016427
1.2016427
1.2016427
1.2016427
1.2016427
1.2016427
1.2016427
1.0906377
1.0932236
1.0962536
1.0997519
1.1037369
1.1082191
1.113199
1.1186643
1.1245863
1.1309159
1.13758
1.1444822
1.151501
1.1584939
1.1653011
1.171762
1.177727
1.1830624
1.1876717
1.1915041
1.1945673
1.1969125
1.1986264
1.1998159
1.2005969
1.2010799
1.2013596
1.2015105
1.2015857
1.2016202
1.2016346
1.20164
1.2016419
1.2016425
1.2016426
1.2016426
1.2016427
1.2016427
1.2016427
1.2016427
1.2016427
1.2016427
1.2016427
1.2016427
1.2016427
1.2016427
1.2016427
1.2016427
1.2016427
1.2016427
1.0906325
1.0932183
1.0962483
1.0997465
1.1037315
1.1082141
1.1131948
1.1186606
1.1245822
1.1309113
1.1375761
1.1444793
1.1514997
1.1584948
1.1653073
1.1717718
1.17773
1.1830553
1.1876579
1.1914945
1.1945634
1.1969122
1.1986261
1.1998154
1.2005964
1.2010795
1.2013595
1.2015105
1.2015857
1.2016202
1.2016346
1.20164
1.2016419
1.2016425
1.2016426
1.2016426
1.2016427
1.2016427
1.2016427
1.2016427
1.2016427
1.2016427
1.2016427
1.2016427
1.2016427
1.2016427
1.2016427
1.2016427
1.2016427
1.2016427
1.0629985
1.0684105
1.074104
1.0800928
1.0863888
1.0929996
1.0999263
1.1071601
1.1146785
1.1224412
1.1303865
1.1384302
1.1464629
1.1543524
1.1619501
1.169101
1.1756568
1.1814917
1.1865161
1.1906882
1.1940164
1.1965577
1.1984085
1.1996891
1.2005272
1.2010437
1.2013417
1.2015021
1.201582
1.2016187
1.201634
1.2016399
1.2016418
1.2016424
1.2016426
1.2016426
1.2016427
1.2016427
1.2016427
1.2016427
1.2016427
1.2016427
1.2016427
1.2016427
1.2016427
1.2016427
1.2016427
1.2016427
1.2016427
1.2016427
1.054359
1.0597536
1.0655251
1.0716836
1.0782355
1.0851813
1.0925131
1.1002122
1.1082452
1.1165602
1.125084
1.1337191
1.1423436
1.1508135
1.1589691
1.1666448
1.1736833
1.1799507
1.1853512
1.1898387
1.1934213
1.1961596
1.1981556
1.1995372
1.2004413
1.2009982
1.2013194
1.201492
1.2015778
1.201617
1.2016334
1.2016396
1.2016418
1.2016424
1.2016426
1.2016426
1.2016427
1.2016427
1.2016427
1.2016427
1.2016427
1.2016427
1.2016427
1.2016427
1.2016427
1.2016427
1.2016427
1.2016427
1.2016427
1.2016427
1.0518582
1.0570788
1.0627044
1.0687498
1.0752254
1.0821351
1.0894737
1.0972235
1.1053508
1.1138023
1.1225013
1.1313451
1.1402044
1.1489271
1.157343
1.1652768
1.1725618
1.1790564
1.1846589
1.1893202
1.1930472
1.1959005
1.1979844
1.1994301
1.2003783
1.2009637
1.2013019
1.2014838
1.2015743
1.2016157
1.201633
1.2016395
1.2016417
1.2016424
1.2016426
1.2016426
1.2016426
1.2016427
1.2016427
1.2016427
1.2016427
1.2016427
1.2016427
1.2016427
1.2016427
1.2016427
1.2016427
1.2016427
1.2016427
1.2016427
1.0506809
1.0558865
1.0614986
1.0675337
1.0740043
1.0809163
1.0882665
1.0960393
1.1042028
1.1127046
1.121468
1.1303897
1.139339
1.1481599
1.1566799
1.1647188
1.1721052
1.1786932
1.1843786
1.1891098
1.1928939
1.1957927
1.197911
1.199382
1.2003486
1.2009465
1.2012927
1.2014793
1.2015724
1.2016149
1.2016327
1.2016394
1.2016417
1.2016424
1.2016426
1.2016426
1.2016427
1.2016427
1.2016427
1.2016427
1.2016427
1.2016427
1.2016427
1.2016427
1.2016427
1.2016427
1.2016427
1.2016427
1.2016427
1.2016427
1.0442974
1.0492425
1.054572
1.0603037
1.066453
1.0730312
1.0800438
1.0874877
1.0953483
1.1035955
1.11218
1.1210284
1.1300408
1.139088
1.1480148
1.1566443
1.1647902
1.1722721
1.1789354
1.1846682
1.1894165
1.1931894
1.196054
1.1981248
1.1995445
1.2004629
1.2010206
1.2013367
1.201503
1.2015835
1.2016192
1.2016336
1.2016388
1.2016405
1.201641
1.2016411
1.2016411
1.2016412
1.2016412
1.2016412
1.2016412
1.2016412
1.2016412
1.2016412
1.2016412
1.2016412
1.2016412
1.2016412
1.2016412
1.2016412
1.0455078
1.0504686
1.0558136
1.061559
1.0677184
1.0743013
1.0813112
1.0887432
1.0965809
1.1047929
1.1133291
1.1221159
1.131053
1.1400131
1.1488413
1.1573637
1.1653973
1.1727667
1.1793214
1.1849554
1.1896184
1.1933214
1.1961339
1.1981687
1.1995652
1.2004705
1.2010219
1.2013359
1.2015018
1.2015827
1.2016188
1.2016334
1.2016387
1.2016405
1.201641
1.2016411
1.2016411
1.2016412
1.2016412
1.2016412
1.2016412
1.2016412
1.2016412
1.2016412
1.2016412
1.2016412
1.2016412
1.2016412
1.2016412
1.2016412
1.0479556
1.0530925
1.0585866
1.0644497
1.0706917
1.0773186
1.0843315
1.0917239
1.0994788
1.1075654
1.115935
1.1245174
1.1332173
1.1419137
1.1504614
1.1586974
1.1664513
1.1735603
1.1798857
1.1853291
1.1898445
1.1934423
1.1961865
1.1981824
1.1995608
1.2004605
1.2010127
1.2013293
1.201498
1.2015807
1.2016179
1.201633
1.2016386
1.2016404
1.201641
1.2016411
1.2016411
1.2016412
1.2016412
1.2016412
1.2016412
1.2016412
1.2016412
1.2016412
1.2016412
1.2016412
1.2016412
1.2016412
1.2016412
1.2016412
1.0563261
1.061473
1.0668827
1.0725703
1.0785507
1.0848369
1.0914379
1.0983567
1.1055865
1.1131074
1.1208821
1.1288527
1.1369373
1.1450297
1.1530006
1.1607026
1.1679798
1.1746799
1.1806703
1.1858523
1.1901742
1.1936378
1.1962951
1.1982391
1.1995891
1.2004743
1.2010193
1.2013326
1.2014996
1.2015815
1.2016183
1.2016332
1.2016387
1.2016405
1.201641
1.2016411
1.2016411
1.2016412
1.2016412
1.2016412
1.2016412
1.2016412
1.2016412
1.2016412
1.2016412
1.2016412
1.2016412
1.2016412
1.2016412
1.2016412
1.0832565
1.0856136
1.0883929
1.0916196
1.0953152
1.0994953
1.1041685
1.1093342
1.1149807
1.1210833
1.1275939
1.1344432
1.1415371
1.1487646
1.1559899
1.1630585
1.1698038
1.1760681
1.181707
1.1866086
1.1907042
1.1939943
1.1965247
1.1983807
1.1996741
1.2005233
1.2010463
1.2013466
1.2015062
1.2015845
1.2016195
1.2016337
1.2016388
1.2016405
1.201641
1.2016411
1.2016411
1.2016412
1.2016412
1.2016412
1.2016412
1.2016412
1.2016412
1.2016412
1.2016412
1.2016412
1.2016412
1.2016412
1.2016412
1.2016412
1.0832502
1.0856073
1.0883866
1.0916136
1.0953094
1.0994902
1.1041647
1.1093314
1.1149764
1.1210733
1.1275778
1.1344223
1.1415197
1.1487596
1.1559946
1.1630661
1.1698101
1.1760623
1.181684
1.1865738
1.1906795
1.1939844
1.1965266
1.198388
1.1996788
1.2005252
1.2010466
1.2013464
1.2015062
1.2015844
1.2016194
1.2016336
1.2016388
1.2016405
1.201641
1.2016411
1.2016411
1.2016412
1.2016412
1.2016412
1.2016412
1.2016412
1.2016412
1.2016412
1.2016412
1.2016412
1.2016412
1.2016412
1.2016412
1.2016412
1.0563052
1.0614518
1.0668611
1.0725484
1.0785284
1.0848142
1.0914148
1.098333
1.1055621
1.1130821
1.120856
1.1288262
1.1369111
1.1450044
1.1529765
1.1606793
1.1679567
1.1746566
1.1806474
1.185832
1.1901595
1.1936294
1.1962918
1.1982387
1.1995895
1.2004745
1.2010193
1.2013324
1.2014994
1.2015814
1.2016183
1.2016332
1.2016387
1.2016405
1.201641
1.2016411
1.2016411
1.2016412
1.2016412
1.2016412
1.2016412
1.2016412
1.2016412
1.2016412
1.2016412
1.2016412
1.2016412
1.2016412
1.2016412
1.2016412
1.0479221
1.0530586
1.0585525
1.0644156
1.0706576
1.0772846
1.0842978
1.0916905
1.0994458
1.1075329
1.1159033
1.1244864
1.1331873
1.1418849
1.150434
1.1586716
1.1664273
1.1735382
1.179866
1.1853123
1.1898311
1.1934326
1.1961801
1.1981786
1.1995587
1.2004595
1.2010121
1.2013291
1.2014978
1.2015806
1.2016178
1.201633
1.2016386
1.2016404
1.201641
1.2016411
1.2016411
1.2016412
1.2016412
1.2016412
1.2016412
1.2016412
1.2016412
1.2016412
1.2016412
1.2016412
1.2016412
1.2016412
1.2016412
1.2016412
1.045445
1.0504083
1.0557557
1.0615036
1.0676656
1.0742512
1.0812639
1.0886987
1.0965393
1.1047544
1.1132937
1.1220837
1.1310241
1.1399875
1.1488189
1.1573443
1.1653809
1.172753
1.1793101
1.1849463
1.1896113
1.1933161
1.1961302
1.1981663
1.1995638
1.2004697
1.2010216
1.2013357
1.2015017
1.2015827
1.2016188
1.2016334
1.2016387
1.2016405
1.201641
1.2016411
1.2016411
1.2016412
1.2016412
1.2016412
1.2016412
1.2016412
1.2016412
1.2016412
1.2016412
1.2016412
1.2016412
1.2016412
1.2016412
1.2016412
1.0442268
1.0491744
1.0545064
1.0602409
1.0663931
1.0729745
1.0799904
1.0874377
1.095302
1.1035531
1.1121416
1.1209942
1.1300109
1.1390623
1.1479933
1.1566268
1.1647764
1.1722615
1.1789275
1.1846625
1.1894125
1.1931867
1.1960522
1.1981237
1.1995438
1.2004624
1.2010204
1.2013366
1.2015029
1.2015835
1.2016192
1.2016336
1.2016388
1.2016405
1.201641
1.2016411
1.2016411
1.2016412
1.2016412
1.2016412
1.2016412
1.2016412
1.2016412
1.2016412
1.2016412
1.2016412
1.2016412
1.2016412
1.2016412
1.2016412
1.0400692
1.0448464
1.0499935
1.0555285
1.0614678
1.0678245
1.0746077
1.0818195
1.0894535
1.0974906
1.1058956
1.1146134
1.1235644
1.132641
1.141708
1.150603
1.1591447
1.1671449
1.1744269
1.1808436
1.1862979
1.1907537
1.1942385
1.1968383
1.1986814
1.1999173
1.2006972
1.2011579
1.2014111
1.2015397
1.2015997
1.2016251
1.2016349
1.2016383
1.2016393
1.2016396
1.2016396
1.2016397
1.2016397
1.2016397
1.2016397
1.2016397
1.2016397
1.2016397
1.2016397
1.2016397
1.2016397
1.2016397
1.2016397
1.2016397
1.0412868
1.0460799
1.0512433
1.0567937
1.0627458
1.0691112
1.0758972
1.0831043
1.0907244
1.0987372
1.1071068
1.1157772
1.1246679
1.133672
1.142653
1.1514496
1.1598819
1.1677653
1.1749266
1.1812258
1.1865713
1.1909326
1.1943429
1.1968893
1.1986978
1.1999151
1.2006879
1.2011481
1.2014037
1.2015352
1.2015973
1.2016241
1.2016345
1.2016381
1.2016393
1.2016396
1.2016396
1.2016397
1.2016397
1.2016397
1.2016397
1.2016397
1.2016397
1.2016397
1.2016397
1.2016397
1.2016397
1.2016397
1.2016397
1.2016397
1.0436841
1.0486496
1.0539594
1.0596258
1.0656598
1.0720701
1.0788612
1.0860322
1.0935742
1.101467
1.1096754
1.1181452
1.1267995
1.1355361
1.1442265
1.1527194
1.1608482
1.168443
1.1753468
1.1814321
1.1866164
1.1908713
1.1942252
1.1967554
1.1985754
1.1998183
1.2006201
1.2011056
1.2013798
1.2015231
1.2015918
1.2016218
1.2016337
1.2016379
1.2016392
1.2016395
1.2016396
1.2016397
1.2016397
1.2016397
1.2016397
1.2016397
1.2016397
1.2016397
1.2016397
1.2016397
1.2016397
1.2016397
1.2016397
1.2016397
1.0518041
1.0567733
1.061992
1.0674757
1.0732403
1.0793005
1.0856691
1.0923537
1.0993551
1.1066632
1.1142539
1.1220849
1.1300931
1.1381924
1.1462728
1.1542031
1.1618358
1.1690175
1.1756017
1.1814625
1.1865095
1.1906993
1.1940417
1.1965946
1.1984533
1.1997366
1.2005715
1.2010799
1.2013681
1.2015185
1.2015904
1.2016216
1.2016337
1.2016379
1.2016392
1.2016396
1.2016396
1.2016397
1.2016397
1.2016397
1.2016397
1.2016397
1.2016397
1.2016397
1.2016397
1.2016397
1.2016397
1.2016397
1.2016397
1.2016397
1.0782052
1.0804057
1.0830122
1.0860499
1.0895408
1.0935024
1.0979462
1.1028768
1.1082904
1.1141738
1.1204935
1.1271956
1.1342042
1.1414354
1.1487789
1.1561021
1.1632439
1.1700393
1.1763362
1.1819913
1.1868909
1.1909617
1.1942158
1.1967064
1.198524
1.1997849
1.2006039
1.201099
1.2013777
1.2015232
1.2015924
1.2016223
1.2016339
1.201638
1.2016392
1.2016396
1.2016396
1.2016397
1.2016397
1.2016397
1.2016397
1.2016397
1.2016397
1.2016397
1.2016397
1.2016397
1.2016397
1.2016397
1.2016397
1.2016397
1.0781975
1.0803981
1.0830046
1.0860425
1.0895337
1.0934958
1.0979411
1.1028729
1.1082843
1.1141604
1.1204694
1.1271628
1.1341759
1.1414283
1.148791
1.1561147
1.1632514
1.1700384
1.1763103
1.1819325
1.1868109
1.190904
1.1941903
1.1967067
1.198536
1.1997897
1.2006029
1.2010986
1.201378
1.2015233
1.2015925
1.2016223
1.2016339
1.201638
1.2016392
1.2016396
1.2016396
1.2016397
1.2016397
1.2016397
1.2016397
1.2016397
1.2016397
1.2016397
1.2016397
1.2016397
1.2016397
1.2016397
1.2016397
1.2016397
1.0517786
1.0567471
1.0619649
1.0674477
1.073211
1.07927
1.085637
1.0923198
1.0993189
1.1066244
1.1142123
1.1220411
1.1300482
1.1381474
1.1462282
1.1541584
1.1617904
1.1689709
1.1755537
1.1814153
1.1864681
1.1906698
1.1940256
1.196589
1.1984532
1.1997376
1.2005721
1.2010802
1.2013681
1.2015184
1.2015904
1.2016215
1.2016337
1.2016379
1.2016392
1.2016396
1.2016396
1.2016397
1.2016397
1.2016397
1.2016397
1.2016397
1.2016397
1.2016397
1.2016397
1.2016397
1.2016397
1.2016397
1.2016397
1.2016397
1.0436474
1.0486123
1.0539214
1.0595871
1.0656206
1.0720302
1.0788206
1.0859909
1.0935322
1.1014242
1.1096317
1.1181008
1.1267546
1.1354908
1.1441813
1.1526748
1.1608048
1.1684016
1.1753081
1.1813972
1.1865867
1.1908481
1.1942089
1.1967453
1.1985699
1.1998156
1.2006189
1.2011052
1.2013797
1.2015231
1.2015918
1.2016218
1.2016337
1.2016379
1.2016392
1.2016395
1.2016396
1.2016397
1.2016397
1.2016397
1.2016397
1.2016397
1.2016397
1.2016397
1.2016397
1.2016397
1.2016397
1.2016397
1.2016397
1.2016397
1.0412261
1.0460211
1.0511865
1.0567388
1.0626929
1.0690604
1.0758484
1.0830577
1.0906799
1.0986951
1.107067
1.1157398
1.1246331
1.1336398
1.1426234
1.1514226
1.1598576
1.1677436
1.1749075
1.1812094
1.1865576
1.1909216
1.1943347
1.1968836
1.1986942
1.199913
1.2006868
1.2011476
1.2014035
1.2015351
1.2015973
1.2016241
1.2016345
1.2016381
1.2016393
1.2016396
1.2016396
1.2016397
1.2016397
1.2016397
1.2016397
1.2016397
1.2016397
1.2016397
1.2016397
1.2016397
1.2016397
1.2016397
1.2016397
1.2016397
1.040003
1.0447823
1.0499314
1.0554687
1.0614103
1.0677696
1.0745555
1.0817702
1.0894073
1.0974477
1.1058563
1.1145777
1.1235325
1.132613
1.1416839
1.1505828
1.1591281
1.1671316
1.1744165
1.1808358
1.186292
1.1907494
1.1942354
1.1968361
1.19868
1.1999164
1.2006967
1.2011576
1.201411
1.2015397
1.2015997
1.2016251
1.2016349
1.2016383
1.2016393
1.2016396
1.2016396
1.2016397
1.2016397
1.2016397
1.2016397
1.2016397
1.2016397
1.2016397
1.2016397
1.2016397
1.2016397
1.2016397
1.2016397
1.2016397
1.0369033
1.0415555
1.0465665
1.0519544
1.0577356
1.0639243
1.0705309
1.0775608
1.0850118
1.0928717
1.1011143
1.1096962
1.1185522
1.1275914
1.1366956
1.1457178
1.1544872
1.1628181
1.1705256
1.1774428
1.1834425
1.1884534
1.1924667
1.1955387
1.1977774
1.1993235
1.2003308
1.2009465
1.2012976
1.2014832
1.2015735
1.2016136
1.2016297
1.2016356
1.2016374
1.201638
1.2016381
1.2016382
1.2016382
1.2016382
1.2016382
1.2016382
1.2016382
1.2016382
1.2016382
1.2016382
1.2016382
1.2016382
1.2016382
1.2016382
1.038117
1.042785
1.0478127
1.0532168
1.0590122
1.0652117
1.0718243
1.0788538
1.0862967
1.0941396
1.1023558
1.1109009
1.1197091
1.1286892
1.1377211
1.1466574
1.1553273
1.1635466
1.1711323
1.1779237
1.1838
1.1886965
1.1926141
1.1956127
1.1978007
1.1993177
1.2003127
1.2009272
1.2012823
1.2014732
1.2015679
1.2016109
1.2016286
1.2016352
1.2016373
1.201638
1.2016381
1.2016381
1.2016382
1.2016382
1.2016382
1.2016382
1.2016382
1.2016382
1.2016382
1.2016382
1.2016382
1.2016382
1.2016382
1.2016382
1.0404695
1.045307
1.0504785
1.0559966
1.0618728
1.0681167
1.074735
1.08173
1.0890975
1.096824
1.1048833
1.1132324
1.1218078
1.1305218
1.1392607
1.1478857
1.156238
1.1641484
1.1714518
1.1780035
1.183696
1.1884718
1.1923296
1.195321
1.1975403
1.1991099
1.200163
1.2008294
1.2012245
1.2014423
1.201553
1.2016045
1.2016262
1.2016344
1.2016371
1.2016379
1.2016381
1.2016381
1.2016382
1.2016382
1.2016382
1.2016382
1.2016382
1.2016382
1.2016382
1.2016382
1.2016382
1.2016382
1.2016382
1.2016382
1.048419
1.0532558
1.0583319
1.0636628
1.0692645
1.0751529
1.0813423
1.0878433
1.0946608
1.1017909
1.1092175
1.116909
1.1248148
1.1328631
1.1409592
1.1489862
1.1568081
1.1642769
1.1712432
1.1775692
1.1831423
1.1878898
1.1917893
1.1948675
1.1971941
1.1988702
1.2000155
1.2007464
1.2011835
1.2014244
1.2015464
1.2016025
1.2016257
1.2016343
1.2016371
1.2016379
1.2016381
1.2016381
1.2016382
1.2016382
1.2016382
1.2016382
1.2016382
1.2016382
1.2016382
1.2016382
1.2016382
1.2016382
1.2016382
1.2016382
1.0744603
1.0765454
1.0790245
1.0819224
1.0852613
1.0890592
1.0933292
1.0980785
1.103305
1.1089997
1.1151446
1.1216954
1.1285861
1.1357511
1.1430947
1.1505012
1.1578432
1.1649477
1.1716617
1.1778324
1.1833189
1.1880024
1.1918625
1.1949195
1.1972369
1.1989151
1.2000445
1.2007654
1.2011932
1.2014299
1.2015492
1.2016037
1.2016262
1.2016344
1.2016371
1.2016379
1.2016381
1.2016381
1.2016382
1.2016382
1.2016382
1.2016382
1.2016382
1.2016382
1.2016382
1.2016382
1.2016382
1.2016382
1.2016382
1.2016382
1.0744499
1.0765349
1.0790139
1.0819117
1.0852504
1.0890479
1.0933179
1.0980668
1.103295
1.108987
1.1151218
1.1216609
1.1285538
1.1357385
1.1431052
1.1505154
1.1578397
1.1649243
1.1716022
1.177723
1.1831707
1.1878815
1.1917907
1.1948928
1.1972351
1.1989039
1.2000416
1.2007672
1.201197
1.2014314
1.2015496
1.2016038
1.2016262
1.2016344
1.2016371
1.2016379
1.2016381
1.2016381
1.2016382
1.2016382
1.2016382
1.2016382
1.2016382
1.2016382
1.2016382
1.2016382
1.2016382
1.2016382
1.2016382
1.2016382
1.0483875
1.0532232
1.058298
1.0636272
1.069227
1.0751132
1.0813001
1.0877982
1.0946124
1.1017387
1.1091613
1.116849
1.1247522
1.1327989
1.1408937
1.1489185
1.1567372
1.1642022
1.1711652
1.1774913
1.1830727
1.187839
1.1917621
1.194861
1.1971999
1.1988787
1.2000196
1.2007489
1.2011841
1.2014247
1.2015466
1.2016026
1.2016257
1.2016343
1.2016371
1.2016379
1.2016381
1.2016381
1.2016382
1.2016382
1.2016382
1.2016382
1.2016382
1.2016382
1.2016382
1.2016382
1.2016382
1.2016382
1.2016382
1.2016382
1.0404283
1.0452648
1.0504352
1.0559521
1.061827
1.0680695
1.0746863
1.0816795
1.0890451
1.0967695
1.1048265
1.1131733
1.1217464
1.1304584
1.1391957
1.1478197
1.1561719
1.1640834
1.1713892
1.1779454
1.1836449
1.1884305
1.1922994
1.1953014
1.1975293
1.1991044
1.2001606
1.2008285
1.2012243
1.2014424
1.201553
1.2016045
1.2016262
1.2016344
1.2016371
1.2016379
1.2016381
1.2016381
1.2016382
1.2016382
1.2016382
1.2016382
1.2016382
1.2016382
1.2016382
1.2016382
1.2016382
1.2016382
1.2016382
1.2016382
1.038057
1.0427265
1.0477556
1.0531611
1.0589579
1.0651589
1.0717729
1.0788039
1.0862483
1.0940927
1.1023104
1.1108573
1.1196671
1.128649
1.1376828
1.1466211
1.1552931
1.1635147
1.1711029
1.1778972
1.1837767
1.1886771
1.1925987
1.1956014
1.1977931
1.199313
1.20031
1.2009258
1.2012817
1.201473
1.2015678
1.2016109
1.2016286
1.2016352
1.2016373
1.201638