/*--------------------------------*- C++ -*----------------------------------*\
| =========                 |                                                 |
| \\      /  F ield         | OpenFOAM: The Open Source CFD Toolbox           |
|  \\    /   O peration     | Version:  4.0                                   |
|   \\  /    A nd           | Web:      www.OpenFOAM.org                      |
|    \\/     M anipulation  |                                                 |
\*---------------------------------------------------------------------------*/
FoamFile
{
    version     2.0;
    format      ascii;
    class       surfaceScalarField;
    location    "2000";
    object      snGradRho;
}
// * * * * * * * * * * * * * * * * * * * * * * * * * * * * * * * * * * * * * //

dimensions      [1 -4 0 0 0 0 0];

internalField   nonuniform List<scalar> 
287000
(
68.219942
0.61279473
-1.664139
66.363804
0.60148029
-1.7305135
63.880413
0.58556112
-1.7987729
60.757674
0.56421025
-1.8652853
57.014285
0.53700467
-1.9255228
52.702052
0.50380223
-1.9742124
47.911576
0.46510338
-2.0056323
42.767106
0.42166969
-2.0140684
37.423676
0.37485995
-1.9944029
32.051774
0.32613364
-1.9427894
26.826838
0.27750695
-1.8573062
21.911548
0.23091621
-1.7384823
17.440865
0.18793764
-1.5895646
13.508998
0.14955203
-1.4164311
10.169103
0.11664597
-1.2271475
7.4276391
0.0889505
-1.031131
5.2550557
0.066292572
-0.83816378
3.5940702
0.048222682
-0.65727714
2.3708372
0.034188433
-0.49578767
1.5039532
0.023467031
-0.35857293
0.9146063
0.015571157
-0.24780724
0.53132822
0.009922426
-0.16304018
0.29346095
0.0059939809
-0.10170846
0.15343579
0.0034416387
-0.059917204
0.075616022
0.0018660434
-0.033185423
0.034891851
0.00093499639
-0.017200376
0.014985899
0.00043088753
-0.0083125463
0.0059552406
0.00018212174
-0.003743793
0.0021747417
7.0085561e-05
-0.0015817058
0.00072465245
2.4456478e-05
-0.00065106026
0.00021924396
7.6552307e-06
-0.00028623654
5.9139911e-05
2.0910271e-06
-0.00015678455
1.450125e-05
5.2290906e-07
-0.00011547279
3.1266212e-06
8.7105158e-08
-0.00010369265
4.9619684e-07
4.1877578e-09
-0.0001007158
1.1324693e-07
-4.1674185e-09
-0.00010005656
4.0794486e-08
9.8540137e-09
-9.9929192e-05
-1.8031809e-08
4.8670645e-08
-9.9906802e-05
1.2897056e-08
-1.1019611e-08
-9.9905781e-05
1.6080854e-08
3.937269e-08
-9.9905643e-05
3.7799835e-08
4.2458223e-08
-9.9906665e-05
8.6949982e-09
5.9000935e-08
-9.9905882e-05
2.6395652e-08
4.0479522e-08
-9.9906573e-05
1.5414475e-08
5.8149417e-08
-9.9906233e-05
1.8202376e-08
5.2405456e-08
-9.9906377e-05
1.4796771e-08
6.0228288e-08
-9.9906261e-05
9.325092e-09
5.586107e-08
-9.9905806e-05
1.3086727e-08
5.5643064e-08
-9.9906057e-05
1.1267026e-08
5.9291782e-08
-9.9905287e-05
4.8356229e-08
-9.9903756e-05
68.291656
1.636428
-1.634406
66.39355
1.6912414
-1.7003705
63.863746
1.7109631
-1.7681583
60.694201
1.6948064
-1.8341804
56.905633
1.6436527
-1.8939687
52.554457
1.5602632
-1.9423235
47.732098
1.449081
-1.9736092
42.566004
1.3161735
-1.9821981
37.210582
1.1686109
-1.9630525
31.83889
1.0140043
-1.9123796
26.624799
0.85955437
-1.8282738
21.728124
0.71158495
-1.7112276
17.280076
0.5750975
-1.5643987
13.37438
0.45356819
-1.3935458
10.058137
0.34869135
-1.2065854
7.3387159
0.26107944
-1.0128488
5.185501
0.19003577
-0.8220515
3.5410177
0.13414577
-0.64322117
2.3308585
0.091526035
-0.48369978
1.4748998
0.0601537
-0.34842871
0.89404238
0.037887806
-0.23957596
0.51712232
0.022763369
-0.15665105
0.28431433
0.012992377
-0.097037198
0.14783492
0.0069915363
-0.056764708
0.072321412
0.0035148684
-0.031187075
0.033117668
0.0016545491
-0.016040605
0.014115668
0.00072193474
-0.0076891798
0.0055658431
0.0002914009
-0.0034481506
0.0020168565
0.0001075971
-0.0014606448
0.00066717401
3.6233188e-05
-0.00060622981
0.00019994534
1.1031171e-05
-0.00027130991
5.3970665e-05
2.9994753e-06
-0.00015232466
1.2985314e-05
7.1766152e-07
-0.00011430607
2.759222e-06
1.5712086e-07
-0.00010344348
5.0290812e-07
4.1986016e-08
-0.00010068789
7.1560754e-08
2.7934221e-08
-0.000100071
7.9800419e-09
3.3040821e-08
-9.9948836e-05
6.0678116e-09
3.9772235e-08
-9.9925115e-05
9.8710104e-09
4.5735225e-08
-9.9921446e-05
1.634688e-08
5.1328034e-08
-9.9918476e-05
2.2234002e-08
5.5802743e-08
-9.9916561e-05
2.7899503e-08
5.9087875e-08
-9.9914257e-05
2.9711073e-08
6.0973906e-08
-9.9913547e-05
3.1994478e-08
6.2265494e-08
-9.9912153e-05
3.1852093e-08
6.2495507e-08
-9.991156e-05
3.1722308e-08
6.2050759e-08
-9.9910938e-05
2.8219323e-08
6.0590049e-08
-9.9910381e-05
2.5761909e-08
5.8618575e-08
-9.9910572e-05
1.8068911e-08
5.5552696e-08
-9.9909471e-05
5.159934e-08
-9.9905916e-05
69.384969
6.9463123
-1.5825039
67.118984
6.7338768
-1.644158
64.247812
6.4054982
-1.7076498
60.773174
5.9783639
-1.7694561
56.725052
5.4730994
-1.8252048
52.165706
4.9127683
-1.8698265
47.190994
4.3216053
-1.8978446
41.927943
3.7234869
-1.9038097
36.527935
3.1404036
-1.8828625
31.15588
2.5910971
-1.8313682
25.97632
2.0900461
-1.7475416
21.138817
1.646841
-1.6319494
16.764795
1.266328
-1.4877775
12.938102
0.94903724
-1.3207731
9.7007559
0.69212532
-1.1388184
7.054321
0.49035218
-0.95116326
4.9656754
0.33681415
-0.76739389
3.3760561
0.22376771
-0.59631978
2.2112127
0.14336485
-0.44496533
1.391087
0.088272897
-0.31782917
0.83779092
0.051928309
-0.21680997
0.48119071
0.029144339
-0.14058181
0.26246566
0.015512984
-0.08634278
0.13528688
0.0078178569
-0.050079136
0.065671521
0.0037333389
-0.02735686
0.029811908
0.0016674316
-0.014034275
0.012602339
0.00069452729
-0.006736516
0.0049245444
0.00026668273
-0.0030310233
0.0017696715
9.3985873e-05
-0.0012927726
0.00058046562
3.005657e-05
-0.00054456624
0.00017247981
8.6520811e-06
-0.00025076723
4.6210632e-05
2.2551936e-06
-0.00014616761
1.1092006e-05
5.3762386e-07
-0.0001126547
2.3769215e-06
1.2917951e-07
-0.00010305792
4.637796e-07
4.6695314e-08
-0.00010061662
9.9164202e-08
3.5547429e-08
-0.00010006635
4.3027523e-08
3.7441033e-08
-9.9954746e-05
4.0275196e-08
4.0862846e-08
-9.9932201e-05
4.4486032e-08
4.3734829e-08
-9.9925607e-05
4.8574475e-08
4.580952e-08
-9.9921828e-05
5.151136e-08
4.706351e-08
-9.9918838e-05
5.3144271e-08
4.7512175e-08
-9.991642e-05
5.339906e-08
4.7188376e-08
-9.9914519e-05
5.2293866e-08
4.6150051e-08
-9.9913068e-05
4.9827255e-08
4.4459505e-08
-9.9912019e-05
4.596853e-08
4.2159669e-08
-9.991128e-05
4.021918e-08
3.9275947e-08
-9.9910727e-05
3.3307882e-08
3.5927265e-08
-9.9910325e-05
2.1560264e-08
3.1917276e-08
-9.9909293e-05
2.8019911e-08
-9.990571e-05
69.305274
27.734582
-1.4684541
65.9573
23.860589
-1.5280937
62.253575
20.292486
-1.5884021
58.186148
17.045869
-1.6460451
53.768557
14.130229
-1.6969329
49.040172
11.54889
-1.7363644
44.067687
9.2975631
-1.7593217
38.944492
7.3654343
-1.7608697
33.786042
5.7355627
-1.7367167
28.721608
4.3856388
-1.6837979
23.882367
3.2890693
-1.6008849
19.390458
2.4157753
-1.488959
15.345922
1.7345757
-1.351384
11.818673
1.2161127
-1.1938397
8.8429907
0.83096254
-1.0239426
6.4165759
0.55246147
-0.85050497
4.5061619
0.35670172
-0.68239632
3.055686
0.22334245
-0.52748748
1.9956747
0.13512852
-0.39196905
1.2511771
0.078731849
-0.27888095
0.7514414
0.044184451
-0.18936809
0.43024574
0.02368606
-0.12249624
0.23408913
0.012125072
-0.075241108
0.12042106
0.0058725669
-0.04372682
0.058233559
0.0026745801
-0.023954329
0.026345001
0.0011409495
-0.012325055
0.011091298
0.00045419633
-0.0059454719
0.0043197741
0.000167848
-0.0026921978
0.0015474863
5.7355933e-05
-0.0011592447
0.00050659846
1.7985603e-05
-0.00049600663
0.00015056289
5.1414143e-06
-0.00023455683
4.0368685e-05
1.3366847e-06
-0.00014125688
9.7170221e-06
3.2151883e-07
-0.0001113161
2.1082348e-06
8.0630501e-08
-0.00010273187
4.3692534e-07
3.1099293e-08
-0.00010054545
1.1728083e-07
2.3655563e-08
-0.00010005158
6.7302631e-08
2.3747215e-08
-9.9950815e-05
6.3542157e-08
2.4671873e-08
-9.9929995e-05
6.570191e-08
2.5399461e-08
-9.9923665e-05
6.7437942e-08
2.5844861e-08
-9.9920002e-05
6.7850164e-08
2.5887284e-08
-9.9917179e-05
6.6849119e-08
2.5545551e-08
-9.9914916e-05
6.4455873e-08
2.4803951e-08
-9.9913138e-05
6.0717357e-08
2.3506362e-08
-9.9911788e-05
5.5578608e-08
2.1972331e-08
-9.991084e-05
4.8957278e-08
2.0178117e-08
-9.9910232e-05
4.0690663e-08
1.8319353e-08
-9.9909908e-05
3.0430548e-08
1.6332655e-08
-9.9909679e-05
1.7853541e-08
1.4021963e-08
-9.9909339e-05
1.1883175e-08
-9.9908216e-05
36.897085
0.0026865978
-1.4388826
37.907519
0.002753694
-1.4819332
38.211514
0.0030821331
-1.5248639
37.797345
0.0034853642
-1.5648911
36.680926
0.0033576008
-1.5986795
34.896924
0.0022092287
-1.6222554
32.51951
-3.8677169e-05
-1.6315172
29.652994
-0.0030439359
-1.6219999
26.427719
-0.0064478215
-1.5902239
22.992047
-0.0098411395
-1.5339743
19.497009
-0.012768247
-1.4525891
16.093943
-0.014088963
-1.3466641
12.92274
-0.012807696
-1.2189722
10.075828
-0.0092832414
-1.0745113
7.6201373
-0.0053077986
-0.91957993
5.5807
-0.0022726847
-0.76247717
3.9513677
-0.0005964583
-0.61110279
2.6972577
-0.00038253018
-0.47219071
1.7713932
-0.00039869079
-0.35082514
1.1165662
-0.00035765848
-0.24990382
0.67296102
-0.00029370793
-0.17024456
0.38671563
-0.00016804847
-0.11059031
0.21088233
-0.00010798045
-0.068258404
0.10870409
-5.2861105e-05
-0.039875414
0.052681663
-2.5639784e-05
-0.021961965
0.023886502
-9.6700108e-06
-0.011356907
0.010076659
-3.3805584e-06
-0.0054971406
0.0039319711
-1.0816271e-06
-0.0024965516
0.0014104914
-3.3471001e-07
-0.0010797429
0.00046225722
-9.0913292e-08
-0.0004664267
0.00013752573
-2.1104153e-08
-0.00022454291
3.691699e-05
-4.5091223e-09
-0.00013819321
8.9074878e-06
-7.9866459e-10
-0.00011047409
1.9478473e-06
-4.0330365e-10
-0.00010252446
4.1896892e-07
-1.6302463e-10
-0.00010049878
1.2502048e-07
-6.3037016e-10
-0.00010004129
7.8126681e-08
-6.560061e-10
-9.9947797e-05
7.3916789e-08
-4.0611049e-10
-9.992797e-05
7.5265733e-08
-2.0591663e-10
-9.9922149e-05
7.5677287e-08
-2.2690421e-10
-9.9918525e-05
7.4720089e-08
-2.4456106e-10
-9.9916012e-05
7.2184235e-08
-2.6238897e-10
-9.9914003e-05
6.7583687e-08
-2.1905162e-10
-9.9912447e-05
6.2613264e-08
2.1772476e-10
-9.9910587e-05
5.6088114e-08
4.1055654e-10
-9.9909329e-05
4.8694661e-08
4.4838242e-10
-9.9908332e-05
3.9411612e-08
2.2971352e-11
-9.9908499e-05
2.7405335e-08
-5.8930909e-10
-9.9910178e-05
1.4726358e-08
-7.0776682e-10
-9.9910489e-05
-7.8434334e-10
-9.9912177e-05
36.898637
-27.725558
-1.4392419
37.911649
-23.853296
-1.482295
38.216253
-20.287033
-1.525248
37.797309
-17.04228
-1.5653294
36.672408
-14.128005
-1.5990862
34.879886
-11.547155
-1.6227155
32.497011
-9.2954479
-1.6318637
29.627824
-7.3623804
-1.6227042
26.402694
-5.7312417
-1.5914796
22.970011
-4.3799331
-1.5353853
19.484826
-3.282025
-1.4528591
16.097157
-2.4083253
-1.3452787
12.938894
-1.7285301
-1.2161528
10.09484
-1.2129517
-1.0711187
7.6346366
-0.83065778
-0.91723977
5.5886264
-0.55396507
-0.76143898
3.9522501
-0.35881261
-0.61100409
2.6970595
-0.22486473
-0.47249001
1.7714624
-0.13604708
-0.3509521
1.1167491
-0.079248289
-0.2500374
0.67343498
-0.044342104
-0.17040043
0.38692772
-0.023795438
-0.11069738
0.21108657
-0.012153783
-0.06831725
0.10880293
-0.005891304
-0.039906649
0.052740166
-0.0026827449
-0.021974735
0.023909261
-0.0011473337
-0.011364901
0.010084888
-0.00045660005
-0.0055003038
0.0039346092
-0.00016872776
-0.0024976497
0.0014113461
-5.7640434e-05
-0.0010801299
0.00046250036
-1.8074872e-05
-0.00046656545
0.00013758301
-5.1680768e-06
-0.00022458838
3.6929724e-05
-1.3436138e-06
-0.00013820591
8.9087317e-06
-3.2320985e-07
-0.00011047715
1.9486216e-06
-8.0830315e-08
-0.00010252502
4.1717966e-07
-3.1248321e-08
-0.00010049899
1.2472856e-07
-2.3345986e-08
-0.0001000405
7.8838768e-08
-2.342336e-08
-9.9946662e-05
7.4520403e-08
-2.4581119e-08
-9.9927527e-05
7.5125108e-08
-2.5485804e-08
-9.9921378e-05
7.5542496e-08
-2.5884195e-08
-9.9918101e-05
7.4579437e-08
-2.5875563e-08
-9.9915351e-05
7.2257428e-08
-2.5463869e-08
-9.9913205e-05
6.9074504e-08
-2.4698176e-08
-9.9911559e-05
6.3367532e-08
-2.3774756e-08
-9.9911032e-05
5.6350752e-08
-2.2413608e-08
-9.9910581e-05
4.7329975e-08
-2.0682668e-08
-9.9910404e-05
3.7258199e-08
-1.8454953e-08
-9.9909466e-05
2.6803907e-08
-1.5906433e-08
-9.9907306e-05
1.4235883e-08
-1.3486318e-08
-9.990673e-05
-1.1248131e-08
-9.9905288e-05
69.291304
-6.9570018
-1.4699689
65.945394
-6.7443045
-1.5295109
62.242566
-6.4155774
-1.5897234
58.1752
-5.9879242
-1.6472735
53.756659
-5.4819052
-1.6980677
49.026671
-4.9204832
-1.7374128
44.052874
-4.3278165
-1.7602848
38.929293
-3.7278188
-1.7617703
33.771758
-3.1426139
-1.7375553
28.710026
-2.5911505
-1.6845087
23.874903
-2.0882164
-1.601332
19.387649
-1.6436864
-1.4890301
15.347466
-1.2625716
-1.3510766
11.822928
-0.94541848
-1.1932872
8.8479571
-0.68914637
-1.0233698
6.4209025
-0.48816712
-0.85006998
4.5093252
-0.33531908
-0.68214702
3.0579428
-0.22275111
-0.52738967
1.9973572
-0.14266598
-0.39194568
1.2528522
-0.087804241
-0.27890467
0.75208341
-0.051724079
-0.18943229
0.43077906
-0.029011269
-0.1226081
0.23432746
-0.015455408
-0.0753214
0.12055884
-0.0077874323
-0.043771316
0.058296926
-0.0037195623
-0.023976524
0.026382081
-0.0016605245
-0.012334432
0.011104932
-0.00069261382
-0.0059494878
0.0043245091
-0.00026621233
-0.0026937674
0.0015490204
-9.3908345e-05
-0.0011598129
0.00050705723
-3.0067448e-05
-0.0004962099
0.00015068779
-8.6624851e-06
-0.00023462548
4.0399218e-05
-2.2600384e-06
-0.00014127841
9.723371e-06
-5.3951869e-07
-0.00011132225
2.1091369e-06
-1.299321e-07
-0.00010273339
4.367952e-07
-4.7045779e-08
-0.00010054569
1.1713851e-07
-3.5736107e-08
-0.00010005144
6.7260363e-08
-3.7576932e-08
-9.9950583e-05
6.352779e-08
-4.099319e-08
-9.9929775e-05
6.5704947e-08
-4.3866853e-08
-9.9923461e-05
6.7475326e-08
-4.5942664e-08
-9.9919837e-05
6.7964865e-08
-4.720134e-08
-9.9917056e-05
6.70342e-08
-4.7672734e-08
-9.9914859e-05
6.4643947e-08
-4.7389688e-08
-9.9913173e-05
6.0772486e-08
-4.6391431e-08
-9.9911931e-05
5.5478722e-08
-4.4698652e-08
-9.9911017e-05
4.8739967e-08
-4.2346669e-08
-9.9910339e-05
4.047737e-08
-3.9372738e-08
-9.9909793e-05
3.0347712e-08
-3.5933398e-08
-9.9909277e-05
1.7879874e-08
-3.1874491e-08
-9.9908794e-05
-2.796873e-08
-9.990761e-05
69.370431
-1.6855897
-1.5843414
67.107285
-1.7339784
-1.6458998
64.238506
-1.7476764
-1.7092931
60.765893
-1.7259116
-1.7709984
56.719488
-1.6695823
-1.8266437
52.161651
-1.5814672
-1.8711599
47.188299
-1.4660313
-1.8990691
41.926484
-1.3293643
-1.9049211
36.527583
-1.1785557
-1.8838557
31.156476
-1.0212277
-1.832241
25.977643
-0.86457843
-1.7482993
21.140575
-0.71490621
-1.6326093
16.766727
-0.57715907
-1.4883629
12.939962
-0.45474568
-1.3213048
9.7024274
-0.3492777
-1.1393071
7.0557758
-0.2612963
-0.95160658
4.9669155
-0.19004612
-0.76778433
3.3770883
-0.13406337
-0.59665118
2.2120256
-0.091424032
-0.44523864
1.3916899
-0.060069195
-0.31805185
0.83817639
-0.037833775
-0.21698261
0.48143302
-0.022731383
-0.14070573
0.26260476
-0.012976257
-0.086392378
0.13536362
-0.0069840166
-0.050097951
0.065710582
-0.0035123367
-0.02738088
0.029830677
-0.0016541504
-0.014041727
0.012610741
-0.00072222656
-0.006739997
0.004927861
-0.0002912719
-0.003032776
0.0017708818
-0.00010755317
-0.0012932804
0.00058092283
-3.6284745e-05
-0.00054485373
0.00017262285
-1.1063228e-05
-0.00025089513
4.6250896e-05
-3.0121578e-06
-0.00014621504
1.1102078e-05
-7.2212404e-07
-0.00011266973
2.379095e-06
-1.5845511e-07
-0.00010306193
4.6414156e-07
-4.255108e-08
-0.0001006174
9.9157814e-08
-2.8286513e-08
-0.00010006631
4.2963129e-08
-3.3332562e-08
-9.9954548e-05
4.021392e-08
-4.0036988e-08
-9.9932001e-05
4.4443693e-08
-4.5983856e-08
-9.9925448e-05
4.8553271e-08
-5.1568389e-08
-9.9921718e-05
5.150117e-08
-5.6041787e-08
-9.9918776e-05
5.3133091e-08
-5.9328274e-08
-9.9916397e-05
5.3381099e-08
-6.1213448e-08
-9.9914519e-05
5.2281423e-08
-6.2498068e-08
-9.9913076e-05
4.9837538e-08
-6.2716194e-08
-9.991202e-05
4.6011842e-08
-6.2258678e-08
-9.9911268e-05
4.0295518e-08
-6.0786953e-08
-9.9910706e-05
3.3395353e-08
-5.8809676e-08
-9.9910313e-05
2.1629479e-08
-5.5736629e-08
-9.9909297e-05
-5.1774642e-08
-9.990572e-05
68.329874
-0.62436901
-1.6357628
66.428437
-0.6126887
-1.7017298
63.895451
-0.59620021
-1.7695155
60.722847
-0.57410426
-1.8355297
56.931331
-0.54601228
-1.8953034
52.577319
-0.51182259
-1.9436355
47.75223
-0.47208097
-1.9748895
42.583513
-0.42759561
-1.9834374
37.22557
-0.37976966
-1.964242
31.851471
-0.33009987
-1.9135117
26.635107
-0.28062981
-1.8293427
21.736337
-0.23331136
-1.7122286
17.28642
-0.18972501
-1.5653267
13.37913
-0.15084728
-1.3943943
10.061593
-0.11755568
-1.2073465
7.341167
-0.089568762
-1.0135147
5.1872013
-0.066699461
-0.82261695
3.5421709
-0.048482746
-0.64368564
2.3316206
-0.034350432
-0.48406812
1.4753886
-0.023565315
-0.34871057
0.89434549
-0.015628808
-0.23978367
0.51730473
-0.0099545228
-0.15679812
0.28442133
-0.0060106123
-0.097131982
0.14789287
-0.0034496275
-0.056772821
0.07235238
-0.0018690021
-0.031206907
0.033133731
-0.0009355892
-0.016042219
0.01412568
-0.00043075018
-0.0076937911
0.005568861
-0.00018299182
-0.0034509385
0.0020177049
-7.0557199e-05
-0.0014623386
0.00066769095
-2.4501848e-05
-0.00060689724
0.00020015293
-7.6490952e-06
-0.00027154496
5.4038297e-05
-2.0856285e-06
-0.00015240061
1.3005809e-05
-5.2036246e-07
-0.00011432822
2.7638605e-06
-8.6651896e-08
-0.00010344944
5.0388468e-07
-4.1132411e-09
-0.00010068939
7.1667819e-08
4.1100043e-09
-0.00010007138
7.9234396e-09
-9.9652219e-09
-9.9948927e-05
5.9825452e-09
-4.8806011e-08
-9.9925109e-05
9.7809254e-09
1.0870378e-08
-9.9921398e-05
1.6255215e-08
-3.9532475e-08
-9.991841e-05
2.2144149e-08
-4.2626185e-08
-9.9916491e-05
2.781618e-08
-5.9175287e-08
-9.9914192e-05
2.9643044e-08
-4.06591e-08
-9.9913491e-05
3.1951566e-08
-5.8334322e-08
-9.991211e-05
3.1838621e-08
-5.259706e-08
-9.9911532e-05
3.1739539e-08
-6.0428484e-08
-9.9910927e-05
2.8254532e-08
-5.6070794e-08
-9.9910387e-05
2.5814823e-08
-5.5860696e-08
-9.9910598e-05
1.8110904e-08
-5.9514151e-08
-9.9909508e-05
-4.857609e-08
-9.9905951e-05
68.258419
-1.6654846
66.40085
-1.731864
63.915765
-1.8001268
60.791044
-1.8666399
57.045391
-1.9268738
52.730629
-1.9755532
47.937394
-2.0069545
42.78999
-2.0153611
37.443525
-1.9956538
32.068575
-1.9439847
26.840682
-1.8584317
21.922626
-1.7395243
17.449465
-1.5905102
13.515469
-1.4172701
10.173826
-1.2278725
7.4309859
-1.0317391
5.2573624
-0.83865702
3.5956181
-0.65766241
2.3718498
-0.49607596
1.5045986
-0.35877819
0.91500644
-0.24794486
0.53156873
-0.16312565
0.29360006
-0.10175654
0.15351257
-0.059940684
0.075655919
-0.033197644
0.034910722
-0.017206845
0.014991884
-0.0083190758
0.0059595741
-0.00374659
0.0021771201
-0.0015835196
0.00072535557
-0.0006517767
0.00021945063
-0.00028648504
5.919836e-05
-0.00015686133
1.4514632e-05
-0.00011549407
3.129982e-06
-0.0001036978
4.9670609e-07
-0.00010071688
1.1313718e-07
-0.00010005671
4.0614425e-08
-9.9929153e-05
-1.8210046e-08
-9.9906719e-05
1.2722075e-08
-9.990568e-05
1.5909562e-08
-9.9905531e-05
3.763458e-08
-9.9906548e-05
8.5383099e-09
-9.9905764e-05
2.6252417e-08
-9.9906462e-05
1.5289897e-08
-9.9906133e-05
1.8098439e-08
-9.9906291e-05
1.4717703e-08
-9.9906191e-05
9.266718e-09
-9.9905752e-05
1.3054937e-08
-9.9906019e-05
1.1248209e-08
-9.990526e-05
-9.9903737e-05
58.007609
1.0572595
-0.75510174
56.816949
1.0387818
-0.78527432
55.424215
1.0157434
-0.81758711
53.795983
0.98667339
-0.85141078
51.899137
0.9503704
-0.88575683
49.701485
0.90586628
-0.91922135
47.179234
0.85284464
-0.94991266
44.318967
0.79142479
-0.97547769
41.126116
0.72258846
-0.99315286
37.625965
0.6478655
-0.99998372
33.870215
0.56982658
-0.9930781
29.935736
0.49148892
-0.9700126
25.9212
0.41588537
-0.92927259
21.936971
0.34550643
-0.87071438
18.102905
0.28271625
-0.79568882
14.527521
0.2279303
-0.70728749
11.305028
0.18133965
-0.60993576
8.5039511
0.14230307
-0.50894786
6.1631813
0.10988235
-0.40979358
4.2868226
0.082784897
-0.317514
2.8505633
0.060436205
-0.23597684
1.8046409
0.042327152
-0.16761667
1.0821703
0.028003668
-0.1133771
0.61204355
0.017219146
-0.072688395
0.32490874
0.0099548374
-0.043949671
0.16089281
0.0052768679
-0.024939447
0.073864634
0.0025865057
-0.013216173
0.031284168
0.0011252814
-0.00651423
0.012085591
0.0004259735
-0.0029869987
0.0042564254
0.00014576901
-0.001285864
0.0013584484
4.479874e-05
-0.00054139179
0.00038962363
1.2287033e-05
-0.00024804334
0.00010016758
2.9712989e-06
-0.000144359
2.2805537e-05
5.6670284e-07
-0.0001117658
4.4577801e-06
5.3418212e-08
-0.00010270252
8.0902974e-07
-2.7497439e-08
-0.00010048681
1.5197929e-07
-1.9196438e-08
-0.00010001248
-1.342293e-08
2.3897175e-08
-9.9921764e-05
1.3463488e-08
-3.0393961e-08
-9.9906129e-05
1.2268861e-08
2.4867999e-08
-9.9902164e-05
4.045671e-08
3.2241798e-08
-9.9901424e-05
6.5635989e-09
5.1106216e-08
-9.9900217e-05
2.7347249e-08
3.4480089e-08
-9.9899923e-05
1.504788e-08
5.3503446e-08
-9.9899415e-05
1.8472147e-08
4.8695542e-08
-9.9899206e-05
1.5754009e-08
5.7174955e-08
-9.9899158e-05
8.8455705e-09
5.313892e-08
-9.9898885e-05
1.4425507e-08
5.3194354e-08
-9.9898964e-05
1.3687446e-08
5.7224803e-08
-9.9899413e-05
4.7384399e-08
-9.989944e-05
58.142413
2.4122874
-0.74798301
56.912653
2.5067469
-0.77803543
55.469881
2.5611998
-0.81012364
53.784427
2.5738833
-0.8436042
51.825646
2.544473
-0.87749162
49.566717
2.4743272
-0.91037404
46.986487
2.3664501
-0.94039372
44.076839
2.2256257
-0.96522707
40.845552
2.0580519
-0.9821951
37.323259
1.8710921
-0.98840791
33.562803
1.6724252
-0.98109562
29.639757
1.4695355
-0.95797479
25.648711
1.2691181
-0.91767114
21.698909
1.0766785
-0.86003904
17.899658
0.89601104
-0.78654307
14.358758
0.7300068
-0.70007099
11.166698
0.58030944
-0.60485192
8.3910616
0.44806939
-0.50591985
6.0694834
0.33407978
-0.40855725
4.2097086
0.23908317
-0.31753929
2.7879274
0.16197511
-0.23673754
1.7547702
0.10426414
-0.16868408
1.0443606
0.063381489
-0.11435362
0.58664224
0.036209825
-0.073377164
0.30853621
0.01901858
-0.044400169
0.15151413
0.0091657132
-0.025189955
0.068770937
0.0040162722
-0.013342836
0.028849544
0.0016221221
-0.0065619184
0.011115893
0.00060109766
-0.0029982013
0.0039094551
0.00020309663
-0.0012867632
0.0012470404
6.2149679e-05
-0.00054100704
0.0003581098
1.7075427e-05
-0.00024780132
9.1979153e-05
4.1830873e-06
-0.00014435849
2.0975422e-05
8.9922246e-07
-0.00011178915
4.2100105e-06
1.6771183e-07
-0.00010271993
7.3891318e-07
3.5454846e-08
-0.00010050094
1.2577626e-07
2.4301363e-08
-0.0001000249
2.2631539e-08
3.0187146e-08
-9.9933267e-05
2.2056347e-08
4.0589323e-08
-9.9917413e-05
2.3491769e-08
4.7540045e-08
-9.9912903e-05
3.004703e-08
5.3452188e-08
-9.9911007e-05
3.0089119e-08
5.7049166e-08
-9.9908955e-05
3.3617811e-08
6.0137916e-08
-9.9908217e-05
3.3505011e-08
6.1546732e-08
-9.9907074e-05
3.3290428e-08
6.2166835e-08
-9.9906549e-05
3.2895858e-08
6.1827814e-08
-9.9906087e-05
2.7853042e-08
6.0383932e-08
-9.9905696e-05
2.7678509e-08
5.8752619e-08
-9.9905722e-05
2.3690229e-08
5.5640263e-08
-9.9906505e-05
5.1691995e-08
-9.9905791e-05
59.898933
8.6511907
-0.744958
58.238929
8.4176839
-0.77462349
56.389927
8.0811094
-0.80627421
54.330257
7.6545166
-0.83926378
52.037255
7.1534877
-0.87261084
49.490016
6.5954994
-0.90493792
46.673162
5.9988618
-0.93443649
43.580945
5.3818575
-0.95888025
40.221821
4.7614046
-0.97570514
36.622043
4.1523698
-0.98217791
32.828142
3.5666949
-0.97565472
28.907281
3.013921
-0.95391892
24.944924
2.5017559
-0.91555446
21.039751
2.0358949
-0.86029247
17.296128
1.6199186
-0.7892517
13.815784
1.2555468
-0.70499316
10.687456
0.94372538
-0.61138169
7.9777947
0.68448082
-0.5132202
5.7250048
0.47522567
-0.41570409
3.9290864
0.31602089
-0.32381041
2.5787318
0.20150177
-0.24148836
1.6072515
0.12087163
-0.17196448
0.94685464
0.067820958
-0.11641367
0.52510796
0.035579697
-0.074548752
0.27344217
0.017505898
-0.04492448
0.13327076
0.0080662941
-0.025356395
0.060356006
0.0034299799
-0.013353134
0.025288213
0.0013476052
-0.0065374191
0.0097376464
0.00048652296
-0.0029770301
0.003424665
0.00016146031
-0.0012754352
0.0010929784
4.899014e-05
-0.00053657266
0.00031430543
1.3481858e-05
-0.00024597304
8.0880769e-05
3.346719e-06
-0.00014362136
1.8515483e-05
7.5675467e-07
-0.00011154168
3.7705619e-06
1.7223801e-07
-0.00010265042
7.0880511e-07
5.9409968e-08
-0.00010048369
1.5498525e-07
4.3254701e-08
-0.00010002046
7.0042315e-08
4.3845996e-08
-9.993254e-05
5.9991572e-08
4.6136623e-08
-9.9916373e-05
5.9728155e-08
4.7872939e-08
-9.9912411e-05
5.9710855e-08
4.8776339e-08
-9.9910503e-05
5.9005607e-08
4.8930136e-08
-9.9909206e-05
5.7462761e-08
4.8375897e-08
-9.9908195e-05
5.496757e-08
4.7154856e-08
-9.9907462e-05
5.1537825e-08
4.5303603e-08
-9.9906927e-05
4.7131859e-08
4.2843973e-08
-9.9906552e-05
4.0988764e-08
3.9763242e-08
-9.9906321e-05
3.5102792e-08
3.6277535e-08
-9.9906154e-05
2.7226851e-08
3.1894698e-08
-9.9906592e-05
2.6892098e-08
-9.990429e-05
60.129171
28.176632
-0.74872427
57.522478
24.530265
-0.77873441
54.925005
21.185295
-0.81044712
52.305013
18.148091
-0.84320275
49.626022
15.417368
-0.8760558
46.847777
12.98761
-0.90771852
43.933303
10.845039
-0.93650783
40.850476
8.9765836
-0.96035281
37.582117
7.3604127
-0.97681796
34.128197
5.9707501
-0.98325209
30.516862
4.7822212
-0.97698415
26.803464
3.7762068
-0.95563634
23.062679
2.9339368
-0.91764788
19.383446
2.2378528
-0.86262688
15.862909
1.6738476
-0.79154192
12.601831
1.2216404
-0.70679398
9.6872755
0.86576149
-0.61224872
7.1759507
0.59345864
-0.51288963
5.1212062
0.39277019
-0.41399359
3.500092
0.24817433
-0.3212825
2.2786977
0.14841827
-0.23887239
1.4113132
0.084071113
-0.16935396
0.82884544
0.045025621
-0.11403444
0.45963593
0.022704558
-0.072633133
0.2395964
0.010739149
-0.043570498
0.11678705
0.0047654344
-0.02450298
0.053017104
0.0020045383
-0.012859673
0.022278373
0.00079199946
-0.0062824568
0.0086105975
0.00029107046
-0.0028575573
0.0030376327
9.8029747e-05
-0.0012244823
0.00097162193
3.0060124e-05
-0.0005156027
0.00027988744
8.340718e-06
-0.00023830147
7.2142415e-05
2.0884933e-06
-0.00014113055
1.6561818e-05
4.7983339e-07
-0.00011082291
3.4047939e-06
1.1342778e-07
-0.00010246319
6.6771535e-07
4.0279355e-08
-0.00010043637
1.7068886e-07
2.8210517e-08
-0.00010000621
9.2120759e-08
2.7411417e-08
-9.992589e-05
8.0730358e-08
2.7273473e-08
-9.9911983e-05
7.79704e-08
2.7514134e-08
-9.9909163e-05
7.5524749e-08
2.7091721e-08
-9.9908094e-05
7.2328385e-08
2.6405428e-08
-9.990735e-05
6.8238792e-08
2.5398782e-08
-9.9906724e-05
6.3133593e-08
2.4449088e-08
-9.9906228e-05
5.6986401e-08
2.30537e-08
-9.9905922e-05
4.9637751e-08
2.1418145e-08
-9.9905808e-05
4.1129175e-08
1.915779e-08
-9.9905822e-05
3.1022371e-08
1.6062439e-08
-9.9905702e-05
1.9630033e-08
1.3453976e-08
-9.9905668e-05
1.0100371e-08
-9.9905599e-05
30.27336
-0.002685253
-0.79219997
31.903166
-0.0024963466
-0.81657086
33.12256
-0.0023152561
-0.84267306
33.892401
-0.0024670634
-0.8699768
34.204123
-0.0019697442
-0.8975724
34.012433
-0.0035917341
-0.92433944
33.345716
-0.0042335849
-0.94849905
32.160532
-0.011214504
-0.96826743
30.462721
-0.020375714
-0.98101055
28.299014
-0.024768493
-0.98370111
25.775801
-0.015486527
-0.97341072
22.974407
-0.00084422308
-0.94810976
19.998655
0.01273057
-0.90655932
16.974245
0.019764992
-0.84866084
13.978897
0.013592435
-0.7760719
11.150248
0.0056195114
-0.69071479
8.5974504
0.00010824727
-0.59609831
6.3872225
-0.0023858356
-0.49745416
4.5606589
-0.0011937455
-0.40024884
3.1179198
-0.0011387714
-0.30977064
2.0353778
-0.001143283
-0.22965973
1.2655718
-0.00071106494
-0.16243172
0.74654293
-0.00038524677
-0.10913427
0.41602541
-0.00018937033
-0.069391498
0.21807147
-7.7327672e-05
-0.041569718
0.10695923
-3.9594411e-05
-0.023358265
0.048746046
-1.4319013e-05
-0.012254809
0.020529934
-4.5848234e-06
-0.0059775171
0.007941963
-1.4722761e-06
-0.0027141307
0.0028038776
-4.6637771e-07
-0.0011624702
0.00089742113
-1.3425933e-07
-0.00049187458
0.00025866296
-3.3556397e-08
-0.00023020449
6.6717979e-05
-7.2191389e-09
-0.00013866744
1.5338867e-05
-1.4906992e-09
-0.00011015801
3.1682116e-06
-5.2513621e-10
-0.000102303
6.3573542e-07
6.373299e-10
-0.0001004005
1.7658167e-07
1.0220885e-09
-9.9997052e-05
1.0019347e-07
1.9406394e-10
-9.9922528e-05
9.0137155e-08
7.4869289e-10
-9.9908971e-05
8.5052393e-08
2.5253592e-10
-9.9906938e-05
8.1531936e-08
4.3844635e-10
-9.990704e-05
7.6982819e-08
4.9000669e-10
-9.9907166e-05
7.2794745e-08
5.4477009e-10
-9.9906739e-05
6.581778e-08
-1.3179209e-10
-9.9905638e-05
5.8397074e-08
-4.855317e-10
-9.9905162e-05
4.8342396e-08
-9.0408908e-10
-9.990524e-05
3.6200259e-08
-5.5242225e-10
-9.99077e-05
2.6864264e-08
9.6776248e-10
-9.990714e-05
1.2057114e-08
1.1490277e-09
-9.9905845e-05
2.3161134e-09
-9.9901879e-05
30.274524
-28.184881
-0.79236949
31.904187
-24.538281
-0.81675036
33.120414
-21.193011
-0.84286376
33.896017
-18.155235
-0.87015559
34.189991
-15.424683
-0.89778151
34.006247
-12.993293
-0.92438556
33.292157
-10.850391
-0.94843539
32.091845
-8.9758082
-0.96755022
30.426562
-7.3514649
-0.97944973
28.351378
-5.9576374
-0.98167094
25.861738
-4.7769605
-0.97213258
23.054897
-3.7826811
-0.94821299
20.042878
-2.9506456
-0.90805338
16.946399
-2.2590096
-0.8509054
13.940699
-1.6878167
-0.77733895
11.123607
-1.2277294
-0.69079963
8.5850213
-0.86679705
-0.59591097
6.392264
-0.59232295
-0.49757092
4.5605453
-0.39274735
-0.40097751
3.1175427
-0.24804835
-0.31021365
2.0369663
-0.1480763
-0.22970697
1.2667849
-0.084204811
-0.16231398
0.74726826
-0.045155381
-0.10906849
0.41644105
-0.022781248
-0.069378784
0.21820447
-0.010785464
-0.041587663
0.10705046
-0.0047769984
-0.023373331
0.048780888
-0.0020098908
-0.012253983
0.020540903
-0.00079438326
-0.0059760338
0.007945461
-0.00029188756
-0.0027137067
0.0028050237
-9.8293609e-05
-0.0011623787
0.00089776676
-3.0144459e-05
-0.00049183155
0.00025875286
-8.3678089e-06
-0.00023020515
6.6737363e-05
-2.0966817e-06
-0.00013867559
1.5342019e-05
-4.8188826e-07
-0.00011015856
3.172371e-06
-1.1362867e-07
-0.00010230193
6.3735611e-07
-4.1015388e-08
-0.00010039999
1.738619e-07
-2.922201e-08
-9.9997786e-05
1.0227848e-07
-2.7622222e-08
-9.9922877e-05
8.8569993e-08
-2.8062152e-08
-9.9911258e-05
8.5803161e-08
-2.7846276e-08
-9.9908561e-05
8.1854603e-08
-2.7635767e-08
-9.990681e-05
7.7332355e-08
-2.7022352e-08
-9.9905614e-05
7.0549766e-08