/*--------------------------------*- C++ -*----------------------------------*\
| =========                 |                                                 |
| \\      /  F ield         | OpenFOAM: The Open Source CFD Toolbox           |
|  \\    /   O peration     | Version:  4.0                                   |
|   \\  /    A nd           | Web:      www.OpenFOAM.org                      |
|    \\/     M anipulation  |                                                 |
\*---------------------------------------------------------------------------*/
FoamFile
{
    version     2.0;
    format      ascii;
    class       volScalarField;
    location    "2000";
    object      T;
}
// * * * * * * * * * * * * * * * * * * * * * * * * * * * * * * * * * * * * * //

dimensions      [0 0 0 1 0 0 0];

internalField   nonuniform List<scalar> 
100000
(
403.44515
396.24915
388.60114
380.57881
372.28593
363.85046
355.42001
347.15409
339.21421
331.75206
324.89836
318.7529
313.37812
308.79681
304.99457
301.92471
299.51677
297.68493
296.33638
295.37835
294.72394
294.29591
294.02906
293.87145
293.78375
293.73806
293.71594
293.70606
293.70202
293.70052
293.70002
293.69987
293.69983
293.69982
293.69982
293.69982
293.69982
293.69982
293.69982
293.69982
293.69982
293.69982
293.69982
293.69982
293.69982
293.69982
293.69982
293.69982
293.69982
293.69982
403.33248
396.13604
388.48887
380.46912
372.18082
363.75204
355.33007
347.07389
339.14393
331.69081
324.84378
318.70154
313.32617
308.74121
304.9333
301.8581
299.44694
297.61533
296.27097
295.3208
294.67663
294.25971
294.0035
293.85477
293.77375
293.73258
293.71326
293.70487
293.70155
293.70036
293.69997
293.69986
293.69983
293.69982
293.69982
293.69982
293.69982
293.69982
293.69982
293.69982
293.69982
293.69982
293.69982
293.69982
293.69982
293.69982
293.69982
293.69982
293.69982
293.69982
402.98375
395.74384
388.06066
380.01283
371.70429
363.26243
354.83333
346.57431
338.64424
331.19259
324.34862
318.21229
312.84791
308.28154
304.50211
301.46582
299.10306
297.32665
296.0402
295.14608
294.55201
294.17639
293.95204
293.82516
293.75811
293.72498
293.70983
293.70347
293.70103
293.70018
293.69992
293.69985
293.69983
293.69982
293.69982
293.69982
293.69982
293.69982
293.69982
293.69982
293.69982
293.69982
293.69982
293.69982
293.69982
293.69982
293.69982
293.69982
293.69982
293.69982
401.09624
393.8564
386.19387
378.18435
369.92805
361.54827
353.18736
345.00019
337.14515
329.77343
323.01784
316.98243
311.73462
307.30042
303.66442
300.77586
298.55717
296.91374
295.74307
294.94489
294.42381
294.09957
293.90792
293.80166
293.74635
293.71959
293.70756
293.70261
293.70073
293.70009
293.69989
293.69984
293.69983
293.69982
293.69982
293.69982
293.69982
293.69982
293.69982
293.69982
293.69982
293.69982
293.69982
293.69982
293.69982
293.69982
293.69982
293.69982
293.69982
293.69982
394.79533
388.22346
381.18954
373.76259
366.03528
358.1301
350.19129
342.37839
334.85677
327.7861
321.31333
315.55244
310.56157
306.36537
302.9412
300.23428
298.16384
296.6412
295.56263
294.8285
294.35171
294.05729
293.88524
293.79025
293.74106
293.7173
293.70666
293.70228
293.70063
293.70006
293.69989
293.69984
293.69983
293.69982
293.69982
293.69982
293.69982
293.69982
293.69982
293.69982
293.69982
293.69982
293.69982
293.69982
293.69982
293.69982
293.69982
293.69982
293.69982
293.69982
394.79029
388.21753
381.1817
373.75518
366.03434
358.14313
350.22482
342.43751
334.9443
327.9013
321.44493
315.67797
310.65784
306.42446
302.96931
300.24349
298.16902
296.64197
295.56138
294.82794
294.35206
294.05799
293.88563
293.79043
293.74112
293.71732
293.70667
293.70228
293.70063
293.70006
293.69989
293.69984
293.69983
293.69982
293.69982
293.69982
293.69982
293.69982
293.69982
293.69982
293.69982
293.69982
293.69982
293.69982
293.69982
293.69982
293.69982
293.69982
293.69982
293.69982
401.09451
393.85524
386.19388
378.18652
369.93383
361.55946
353.20583
345.02747
337.18188
329.81879
323.06915
317.03537
311.78419
307.34275
303.69787
300.80083
298.57526
296.92639
295.75149
294.94892
294.42505
294.09955
293.90768
293.80151
293.74628
293.71956
293.70755
293.7026
293.70073
293.70009
293.69989
293.69984
293.69983
293.69982
293.69982
293.69982
293.69982
293.69982
293.69982
293.69982
293.69982
293.69982
293.69982
293.69982
293.69982
293.69982
293.69982
293.69982
293.69982
293.69982
402.98377
395.74427
388.06168
380.01457
371.70692
363.26603
354.83792
346.57979
338.6504
331.19911
324.35516
318.21852
312.85358
308.28655
304.5064
301.46938
299.10586
297.32864
296.04141
295.1466
294.55209
294.17626
293.9519
293.82505
293.75805
293.72495
293.70984
293.70347
293.70103
293.70018
293.69992
293.69985
293.69983
293.69982
293.69982
293.69982
293.69982
293.69982
293.69982
293.69982
293.69982
293.69982
293.69982
293.69982
293.69982
293.69982
293.69982
293.69982
293.69982
293.69982
403.34278
396.14545
388.49739
380.47674
372.18749
363.75773
355.33472
347.07744
339.14638
331.69218
324.84419
318.70116
313.32524
308.73998
304.93198
301.85685
299.44584
297.61444
296.27028
295.3203
294.67631
294.25953
294.00343
293.85476
293.77376
293.73261
293.71324
293.70487
293.70155
293.70036
293.69997
293.69986
293.69983
293.69982
293.69982
293.69982
293.69982
293.69982
293.69982
293.69982
293.69982
293.69982
293.69982
293.69982
293.69982
293.69982
293.69982
293.69982
293.69982
293.69982
403.45767
396.26076
388.61181
380.58849
372.29456
363.85796
355.42633
347.15919
339.21808
331.75477
324.90001
318.75369
313.37825
308.79651
304.99405
301.92413
299.51623
297.6845
296.33608
295.37817
294.72386
294.29588
294.02907
293.87147
293.78377
293.73807
293.71594
293.70606
293.70202
293.70052
293.70002
293.69987
293.69983
293.69982
293.69982
293.69982
293.69982
293.69982
293.69982
293.69982
293.69982
293.69982
293.69982
293.69982
293.69982
293.69982
293.69982
293.69982
293.69982
293.69982
426.12731
420.1347
413.69828
406.81419
399.49027
391.75015
383.63772
375.22108
366.59549
357.88381
349.23412
340.81299
332.79511
325.34976
318.62647
312.73957
307.75767
303.69605
300.523
298.16412
296.49089
295.36148
294.63828
294.2004
293.95071
293.81729
293.75085
293.72022
293.70723
293.7022
293.70043
293.69988
293.69972
293.69968
293.69968
293.69968
293.69968
293.69968
293.69968
293.69968
293.69968
293.69968
293.69968
293.69968
293.69968
293.69968
293.69968
293.69968
293.69968
293.69968
425.89016
419.89523
413.45686
406.57182
399.24858
391.51135
383.4044
374.99606
366.38139
357.68277
349.04708
340.6394
332.63305
325.19671
318.47943
312.59739
307.62094
303.56721
300.40935
298.06929
296.41583
295.30523
294.59845
294.17398
293.93449
293.80812
293.74613
293.71801
293.7063
293.70185
293.70032
293.69985
293.69971
293.69968
293.69968
293.69968
293.69968
293.69968
293.69968
293.69968
293.69968
293.69968
293.69968
293.69968
293.69968
293.69968
293.69968
293.69968
293.69968
293.69968
425.40386
419.34093
412.84254
405.90634
398.54138
390.77209
382.64252
374.22032
365.59954
356.90145
348.27223
339.87707
331.89039
324.48281
317.80596
311.97724
307.06626
303.10277
300.04837
297.79927
296.22334
295.17546
294.51637
294.12549
293.90785
293.79457
293.73976
293.71526
293.70522
293.70147
293.7002
293.69981
293.69971
293.69968
293.69968
293.69968
293.69968
293.69968
293.69968
293.69968
293.69968
293.69968
293.69968
293.69968
293.69968
293.69968
293.69968
293.69968
293.69968
293.69968
423.13637
417.07009
410.58488
403.67674
396.35264
388.63475
380.5651
372.21008
363.66352
355.04766
346.51094
338.22214
330.35997
323.09837
316.58829
310.94032
306.2334
302.46981
299.58937
297.48474
296.0202
295.05204
294.44578
294.08757
293.88872
293.78556
293.73584
293.71369
293.70463
293.70126
293.70013
293.69979
293.6997
293.69968
293.69968
293.69968
293.69968
293.69968
293.69968
293.69968
293.69968
293.69968
293.69968
293.69968
293.69968
293.69968
293.69968
293.69968
293.69968
293.69968
416.81695
411.35352
405.42965
399.03838
392.18553
384.89433
377.21146
369.20585
360.97841
352.65706
344.39682
336.37117
328.75592
321.73351
315.46696
310.06812
305.58491
302.01345
299.28614
297.29424
295.9064
294.98743
294.41086
294.06956
293.87988
293.78143
293.73398
293.7129
293.70433
293.70116
293.7001
293.69979
293.6997
293.69968
293.69968
293.69968
293.69968
293.69968
293.69968
293.69968
293.69968
293.69968
293.69968
293.69968
293.69968
293.69968
293.69968
293.69968
293.69968
293.69968
416.82124
411.35839
405.43654
399.04923
392.20207
384.91694
377.23592
369.22386
360.98229
352.64295
344.36534
336.33549
328.73097
321.72461
315.46793
310.07096
305.59146
302.01754
299.28688
297.2932
295.90569
294.98712
294.41091
294.0698
293.8801
293.78148
293.73398
293.7129
293.70433
293.70116
293.7001
293.69979
293.6997
293.69968
293.69968
293.69968
293.69968
293.69968
293.69968
293.69968
293.69968
293.69968
293.69968
293.69968
293.69968
293.69968
293.69968
293.69968
293.69968
293.69968
423.14158
417.07558
410.59086
403.68341
396.36011
388.64291
380.57349
372.21775
363.66933
355.05072
346.51111
338.22022
330.35746
323.09628
316.58694
310.94076
306.2381
302.47377
299.5913
297.48491
296.01941
295.05097
294.44484
294.08691
293.88833
293.78544
293.73581
293.71368
293.70463
293.70126
293.70013
293.69979
293.6997
293.69968
293.69968
293.69968
293.69968
293.69968
293.69968
293.69968
293.69968
293.69968
293.69968
293.69968
293.69968
293.69968
293.69968
293.69968
293.69968
293.69968
425.41151
419.34874
412.85043
405.91422
398.54916
390.77966
382.64983
374.22733
365.60632
356.90811
348.27891
339.88391
331.89748
324.49018
317.81359
311.98484
307.07275
303.10766
300.05077
297.80066
296.22414
295.17589
294.51657
294.12558
293.90789
293.79459
293.73978
293.71527
293.70523
293.70147
293.7002
293.69981
293.69971
293.69968
293.69968
293.69968
293.69968
293.69968
293.69968
293.69968
293.69968
293.69968
293.69968
293.69968
293.69968
293.69968
293.69968
293.69968
293.69968
293.69968
425.90635
419.91065
413.4715
406.58568
399.26165
391.52367
383.416
375.00701
366.39177
357.69269
349.0566
340.64857
332.64184
325.20499
318.48696
312.60382
307.62578
303.56989
300.41163
298.07087
296.41668
295.30567
294.59868
294.1741
293.93455
293.80816
293.74616
293.71802
293.70631
293.70185
293.70032
293.69985
293.69972
293.69968
293.69968
293.69968
293.69968
293.69968
293.69968
293.69968
293.69968
293.69968
293.69968
293.69968
293.69968
293.69968
293.69968
293.69968
293.69968
293.69968
426.14479
420.15138
413.71408
406.82906
399.50417
391.76304
383.64956
375.23187
366.60523
357.89252
349.24181
340.81968
332.80082
325.35452
318.63032
312.74258
307.75992
303.69768
300.52423
298.16505
296.49168
295.36206
294.63866
294.20063
293.95084
293.81735
293.75087
293.72023
293.70723
293.7022
293.70043
293.69988
293.69972
293.69968
293.69968
293.69968
293.69968
293.69968
293.69968
293.69968
293.69968
293.69968
293.69968
293.69968
293.69968
293.69968
293.69968
293.69968
293.69968
293.69968
435.33742
429.85928
423.97144
417.65923
410.91296
403.73062
396.12115
388.10881
379.73806
371.07906
362.2322
353.33075
344.53962
336.04919
328.06096
320.76922
314.33749
308.87699
304.43133
300.97322
298.41012
296.60468
295.3997
294.63985
294.18873
293.93769
293.80742
293.74472
293.71691
293.70562
293.70146
293.70008
293.69967
293.69956
293.69953
293.69953
293.69953
293.69953
293.69953
293.69953
293.69953
293.69953
293.69953
293.69953
293.69953
293.69953
293.69953
293.69953
293.69953
293.69953
435.06257
429.58085
423.68838
417.37079
410.61882
403.4308
395.8162
387.79972
379.42649
370.76707
361.92226
353.0258
344.24335
335.76529
327.79445
320.5252
314.12086
308.69153
304.27984
300.85537
298.32317
296.54422
295.35978
294.6149
294.17411
293.92968
293.80332
293.74278
293.71606
293.70528
293.70134
293.70004
293.69966
293.69956
293.69953
293.69953
293.69953
293.69953
293.69953
293.69953
293.69953
293.69953
293.69953
293.69953
293.69953
293.69953
293.69953
293.69953
293.69953
293.69953
434.63728
429.09386
423.14636
416.78129
409.99009
402.77178
395.13629
387.10884
378.73488
370.08544
361.26173
352.39774
343.65895
335.23537
327.32793
320.12865
313.79753
308.4412
304.09729
300.73029
298.24279
296.49573
295.33247
294.6005
294.1669
293.9262
293.80166
293.74198
293.7157
293.70514
293.70129
293.70002
293.69965
293.69956
293.69953
293.69953
293.69953
293.69953
293.69953
293.69953
293.69953
293.69953
293.69953
293.69953
293.69953
293.69953
293.69953
293.69953
293.69953
293.69953
432.75221
427.21376
421.29131
414.97058
408.24201
401.10339
393.56339
385.64593
377.39515
368.88047
360.20106
351.48811
342.90355
334.63279
326.87092
319.8039
313.58662
308.32127
304.0432
300.71844
298.25338
296.51434
295.35038
294.61394
294.17536
293.93078
293.8038
293.74286
293.71599
293.70518
293.70128
293.70001
293.69965
293.69956
293.69953
293.69953
293.69953
293.69953
293.69953
293.69953
293.69953
293.69953
293.69953
293.69953
293.69953
293.69953
293.69953
293.69953
293.69953
293.69953
426.90242
421.97928
416.63681
410.85867
404.63413
397.96085
390.84695
383.31817
375.42232
367.22866
358.83588
350.37278
342.00783
333.93299
326.33973
319.41709
313.31808
308.14503
303.93549
300.6605
298.22624
296.50309
295.34504
294.61041
294.17245
293.92843
293.80214
293.74183
293.71546
293.70498
293.70121
293.69999
293.69964
293.69955
293.69953
293.69953
293.69953
293.69953
293.69953
293.69953
293.69953
293.69953
293.69953
293.69953
293.69953
293.69953
293.69953
293.69953
293.69953
293.69953
426.90772
421.98472
416.64256
410.86504
404.64136
397.96864
390.85645
383.32826
375.4285
367.22625
358.82662
350.36743
342.00782
333.93064
326.33884
319.41771
313.32335
308.15625
303.94957
300.66808
298.22702
296.50008
295.34243
294.60884
294.17168
293.92811
293.80207
293.74183
293.71548
293.70498
293.70121
293.69999
293.69964
293.69955
293.69953
293.69953
293.69953
293.69953
293.69953
293.69953
293.69953
293.69953
293.69953
293.69953
293.69953
293.69953
293.69953
293.69953
293.69953
293.69953
432.76232
427.22428
421.30232
414.98217
408.25425
401.11636
393.57712
385.66034
377.41001
368.89553
360.21625
351.50366
342.91947
334.64879
326.88688
319.81962
313.6018
308.33492
304.0541
300.7257
298.25729
296.51596
295.35091
294.61408
294.17543
293.93087
293.80386
293.7429
293.71601
293.70519
293.70128
293.70001
293.69965
293.69956
293.69953
293.69953
293.69953
293.69953
293.69953
293.69953
293.69953
293.69953
293.69953
293.69953
293.69953
293.69953
293.69953
293.69953
293.69953
293.69953
434.64827
429.10518
423.158
416.79324
410.00236
402.78436
395.1492
387.12208
378.74847
370.09938
361.27603
352.41239
343.67388
335.25043
327.34289
320.14314
313.81107
308.45323
304.1073
300.73805
298.24834
296.49939
295.3347
294.60177
294.16758
293.92654
293.80182
293.74206
293.71573
293.70515
293.70129
293.70002
293.69965
293.69956
293.69953
293.69953
293.69953
293.69953
293.69953
293.69953
293.69953
293.69953
293.69953
293.69953
293.69953
293.69953
293.69953
293.69953
293.69953
293.69953
435.07893
429.59663
423.70357
417.38536
410.63277
403.44412
395.82886
387.81172
379.43781
370.77771
361.93223
353.03511
344.25202
335.77335
327.80187
320.53192
314.12678
308.69656
304.28399
300.85862
298.32557
296.54588
295.36085
294.61554
294.17447
293.92988
293.80342
293.74282
293.71608
293.70529
293.70134
293.70004
293.69966
293.69956
293.69953
293.69953
293.69953
293.69953
293.69953
293.69953
293.69953
293.69953
293.69953
293.69953
293.69953
293.69953
293.69953
293.69953
293.69953
293.69953
435.35424
429.87548
423.98697
417.67403
410.92698
403.7438
396.13343
388.12013
379.74836
371.08829
362.24033
353.33775
344.54552
336.05403
328.06482
320.77222
314.33976
308.87868
304.43257
300.97414
298.4108
296.60517
295.40004
294.64008
294.18887
293.93777
293.80745
293.74474
293.71692
293.70563
293.70146
293.70008
293.69967
293.69956
293.69953
293.69953
293.69953
293.69953
293.69953
293.69953
293.69953
293.69953
293.69953
293.69953
293.69953
293.69953
293.69953
293.69953
293.69953
293.69953
440.26993
435.07268
429.48768
423.49862
417.09223
410.26005
403.00076
395.32345
387.25165
378.82851
370.12232
361.23185
352.28998
343.46429
334.95012
326.95804
319.69174
313.32182
307.96006
303.64358
300.33081
297.91409
296.24346
295.15213
294.48065
294.09315
293.88437
293.77991
293.73165
293.7112
293.70331
293.70056
293.69969
293.69946
293.6994
293.69938
293.69938
293.69938
293.69938
293.69938
293.69938
293.69938
293.69938
293.69938
293.69938
293.69938
293.69938
293.69938
293.69938
293.69938
439.98863
434.78729
429.19633
423.19953
416.78371
409.9405
402.66875
394.97771
386.89134
378.45321
369.73238
360.82888
351.87778
343.04875
334.54095
326.56747
319.33345
313.00854
307.70179
303.44411
300.18785
297.82025
296.18721
295.12175
294.46628
294.0874
293.88257
293.77956
293.7317
293.71128
293.70335
293.70057
293.6997
293.69946
293.6994
293.69939
293.69938
293.69938
293.69938
293.69938
293.69938
293.69938
293.69938
293.69938
293.69938
293.69938
293.69938
293.69938
293.69938
293.69938
439.61987
434.36502
428.72589
422.68688
416.23538
409.36347
402.07045
394.36616
386.27531
377.84276
369.13925
360.26691
351.36262
342.59737
334.16901
326.28697
319.14942
312.91689
307.68848
303.48798
300.26452
297.90701
296.26743
295.18597
294.51168
294.116
293.89863
293.7876
293.73527
293.71274
293.70388
293.70074
293.69975
293.69947
293.6994
293.69939
293.69938
293.69938
293.69938
293.69938
293.69938
293.69938
293.69938
293.69938
293.69938
293.69938
293.69938
293.69938
293.69939
293.69939
438.08755
432.84422
427.23988
421.25865
414.8874
408.11764
400.94804
393.38777
385.4606
377.2098
368.70342
360.03911
351.34633
342.78444
334.53673
326.79776
319.75272
313.55527
308.30609
304.03952
300.72124
298.25781
296.51684
295.3494
294.60981
294.16973
293.92533
293.79941
293.73996
293.71426
293.70429
293.70083
293.69976
293.69947
293.6994
293.69939
293.69938
293.69938
293.69938
293.69938
293.69938
293.69938
293.69938
293.69938
293.69938
293.69938
293.69939
293.69939
293.69939
293.69939
432.62
428.01021
423.00896
417.59909
411.76694
405.50431
398.81029
391.69497
384.18137
376.30941
368.1352
359.76479
351.33252
342.97706
334.86563
327.20978
320.18719
313.96628
308.65806
304.31515
300.92604
298.39981
296.60764
295.40194
294.63438
294.1785
293.92704
293.79917
293.73944
293.71398
293.70417
293.70079
293.69975
293.69947
293.6994
293.69939
293.69938
293.69938
293.69938
293.69938
293.69938
293.69938
293.69938
293.69938
293.69938
293.69938
293.69939
293.69939
293.69939
293.69939
432.62737
428.01768
423.0166
417.60706
411.77552
405.51346
398.82011
391.70422
384.1894
376.32389
368.16681
359.81204
351.37629
342.99724
334.88797
327.2247
320.20834
313.99464
308.69791
304.36154
300.95557
298.40832
296.60032
295.38783
294.62547
294.17531
293.92638
293.79935
293.73949
293.71401
293.70419
293.70079
293.69975
293.69947
293.6994
293.69939
293.69938
293.69938
293.69938
293.69938
293.69938
293.69938
293.69938
293.69938
293.69938
293.69938
293.69939
293.69939
293.69939
293.69939
438.10293
432.86034
427.25693
421.27687
414.90709
408.13915
400.97176
393.41413
385.49014
377.24321
368.7411
360.08071
351.39048
342.82979
334.58263
326.84303
319.79643
313.59607
308.34221
304.06864
300.74133
298.26935
296.52234
295.35185
294.61122
294.17004
293.92557
293.79955
293.74005
293.71429
293.7043
293.70083
293.69976
293.69947
293.6994
293.69939
293.69938
293.69938
293.69938
293.69938
293.69938
293.69938
293.69938
293.69938
293.69938
293.69938
293.69938
293.69939
293.69939
293.69939
439.63402
434.37978
428.74128
422.70296
416.2522
409.38112
402.08904
394.38583
386.29622
377.86505
369.16304
360.2922
351.38927
342.62506
334.19722
326.31495
319.17624
312.94152
307.70989
303.50532
300.27735
297.91555
296.2725
295.18866
294.51298
294.11655
293.89886
293.78769
293.73531
293.71276
293.70389
293.70074
293.69975
293.69947
293.6994
293.69939
293.69938
293.69938
293.69938
293.69938
293.69938
293.69938
293.69938
293.69938
293.69938
293.69938
293.69938
293.69938
293.69939
293.69939
440.00545
434.80371
429.21236
423.21516
416.79893
409.95529
402.68308
394.99156
386.90469
378.46603
369.74462
360.84054
351.88885
343.05921
334.5508
326.57667
319.34192
313.01617
307.70844
303.44965
300.19219
297.82338
296.18929
295.12301
294.46698
294.08775
293.88274
293.77964
293.73173
293.71129
293.70336
293.70057
293.6997
293.69946
293.6994
293.69939
293.69938
293.69938
293.69938
293.69938
293.69938
293.69938
293.69938
293.69938
293.69938
293.69938
293.69938
293.69938
293.69938
293.69938
440.28605
435.08835
429.50287
423.51328
417.10631
410.27349
403.01349
395.3354
387.26273
378.83864
370.13143
361.23985
352.29683
343.46998
334.95468
326.96155
319.69433
313.32365
307.96131
303.64441
300.33136
297.91445
296.24369
295.15228
294.48074
294.09319
293.88439
293.77992
293.73165
293.7112
293.70331
293.70056
293.69969
293.69946
293.6994
293.69938
293.69938
293.69938
293.69938
293.69938
293.69938
293.69938
293.69938
293.69938
293.69938
293.69938
293.69938
293.69938
293.69938
293.69938
443.52362
438.51372
433.13113
427.35933
421.18398
414.59433
407.58491
400.15819
392.32775
384.12278
375.59313
366.81492
357.89572
348.97833
340.23883
331.88013
324.11516
317.14284
311.11947
306.13504
302.19861
299.24139
297.13501
295.71642
294.81597
294.27944
293.98066
293.82595
293.75187
293.71927
293.70617
293.7014
293.69984
293.69939
293.69927
293.69924
293.69924
293.69924
293.69924
293.69924
293.69924
293.69924
293.69924
293.69924
293.69924
293.69924
293.69924
293.69924
293.69924
293.69924
443.25067
438.23657
432.84753
427.06694
420.8804
414.27697
407.25112
399.80515
391.95275
383.72323
375.16696
366.36132
357.41636
348.47785
339.72731
331.37244
323.63038
316.70156
310.74086
305.8314
301.97365
299.08981
297.04321
295.66785
294.79492
294.27318
293.9807
293.82767
293.7534
293.72018
293.7066
293.70157
293.6999
293.6994
293.69927
293.69924
293.69924
293.69924
293.69924
293.69924
293.69924
293.69924
293.69924
293.69924
293.69924
293.69924
293.69924
293.69924
293.69924
293.69924
442.93188
437.87104
432.43992
426.62242
420.40452
413.77558
406.73031
399.27139
391.41315
383.18616
374.6428
365.8632
356.96051
348.08359
339.41466
331.15935
323.52803
316.71014
310.84674
306.00906
302.19011
299.31163
297.2437
295.83043
294.91392
294.35195
294.02778
293.85299
293.76564
293.72561
293.70873
293.7023
293.70011
293.69946
293.69929
293.69925
293.69924
293.69924
293.69924
293.69924
293.69924
293.69924
293.69924
293.69924
293.69924
293.69924
293.69924
293.69924
293.69924
293.69924
441.62862
436.58339
431.19329
425.44217
419.31583
412.80341
405.89938
398.60629
390.93805
382.92421
374.61491
366.08604
357.44282
348.8204
340.38232
332.31277
324.80087
318.02132
312.11113
307.1515
303.1577
300.07964
297.81347
296.22371
295.16489
294.49885
294.10599
293.89005
293.78148
293.73124
293.71045
293.70274
293.70021
293.69948
293.69929
293.69925
293.69924
293.69924
293.69924
293.69924
293.69924
293.69924
293.69924
293.69924
293.69924
293.69924
293.69924
293.69924
293.69924
293.69924
436.38831
431.98725
427.21351
422.05019
416.48326
410.50256
404.10309
397.29021
390.07714
382.4899
374.56498
366.383
358.05571
349.68526
341.41822
333.43489
325.91544
319.05751
313.0045
307.86092
303.67657
300.44157
298.04954
296.36552
295.2408
294.5297
294.11449
293.89236
293.78154
293.73109
293.71035
293.7027
293.7002
293.69947
293.69929
293.69925
293.69924
293.69924
293.69924
293.69924
293.69924
293.69924
293.69924
293.69924
293.69924
293.69924
293.69924
293.69924
293.69924
293.69924
436.40067
431.99978
427.22637
422.06368
416.49763
410.51836
404.1216
397.31018
390.09565
382.51478
374.60962
366.45012
358.12232
349.72762
341.45339
333.45726
325.95018
319.09838
313.06407
307.94837
303.77918
300.51038
298.07609
296.3606
295.2236
294.52203
294.11477
293.89213
293.78131
293.731
293.71032
293.7027
293.70019
293.69947
293.69929
293.69925
293.69924
293.69924
293.69924
293.69924
293.69924
293.69924
293.69924
293.69924
293.69924
293.69924
293.69924
293.69924
293.69924
293.69924
441.65407
436.61021
431.2218
425.47277
419.349
412.83968
405.93937
398.65062
390.98743
382.97955
374.67685
366.15432
357.51586
348.89658
340.46089
332.39233
324.88053
318.09933
312.18534
307.21845
303.21217
300.11697
297.83425
296.23276
295.16795
294.49955
294.10503
293.88988
293.78119
293.73128
293.71047
293.70275
293.70021
293.69948
293.69929
293.69925
293.69924
293.69924
293.69924
293.69924
293.69924
293.69924
293.69924
293.69924
293.69924
293.69924
293.69924
293.69924
293.69924
293.69924
442.95306
437.89338
432.46351
426.64738
420.43099
413.80375
406.7604
399.30365
391.44785
383.22354
374.68304
365.90633
357.00637
348.13172
339.4643
331.20938
323.57705
316.75653
310.88879
306.04514
302.21885
299.3324
297.2571
295.83807
294.91781
294.35376
294.02858
293.85337
293.76579
293.72555
293.7087
293.70229
293.70011
293.69946
293.69929
293.69925
293.69924
293.69924
293.69924
293.69924
293.69924
293.69924
293.69924
293.69924
293.69924
293.69924
293.69924
293.69924
293.69924
293.69924
443.27072
438.25649
432.86734
427.08665
420.90001
414.29648
407.27051
399.82439
391.97182
383.74207
375.18552
366.37953
357.43416
348.49516
339.74402
331.38842
323.64544
316.71549
310.75337
305.84222
301.98251
299.09655
297.0479
295.67078
294.79656
294.274
293.98106
293.82781
293.75345
293.72019
293.70661
293.70157
293.6999
293.6994
293.69927
293.69924
293.69924
293.69924
293.69924
293.69924
293.69924
293.69924
293.69924
293.69924
293.69924
293.69924
293.69924
293.69924
293.69924
293.69924
443.54058
438.53049
433.14767
427.37558
421.19989
414.60983
407.59993
400.17263
392.3415
384.13573
375.60516
366.8259
357.90554
348.9869
340.24611
331.88612
324.11993
317.14653
311.12225
306.13709
302.20011
299.24245
297.13574
295.71689
294.81625
294.27958
293.98073
293.82598
293.75187
293.71927
293.70617
293.7014
293.69984
293.69939
293.69927
293.69924
293.69924
293.69924
293.69924
293.69924
293.69924
293.69924
293.69924
293.69924
293.69924
293.69924
293.69924
293.69924
293.69924
293.69924
445.93223
441.06198
435.83033
430.22086
424.2189
417.81262
410.9945
403.7634
396.12731
388.10715
379.74131
371.09088
362.24524
353.32707
344.49331
335.93286
327.85484
320.46869
313.95667
308.44694
303.9915
300.56035
298.05275
296.31847
295.187
294.49336
294.09551
293.88306
293.77798
293.73015
293.71024
293.70271
293.70014
293.69936
293.69915
293.6991
293.69909
293.69909
293.69909
293.69909
293.69909
293.69909
293.69909
293.69909
293.69909
293.69909
293.69909
293.69909
293.69909
293.69909
445.67334
440.79894
435.56071
429.94207
423.92814
417.5068
410.67023
403.41692
395.75469
387.70423
379.30411
370.61639
361.73272
352.7789
343.91792
335.34487
327.27526
319.92273
313.47064
308.04159
303.67844
300.33981
297.91279
296.24067
295.15137
294.48202
294.09538
293.88634
293.78115
293.73219
293.71128
293.70315
293.7003
293.69941
293.69916
293.69911
293.69909
293.69909
293.69909
293.69909
293.69909
293.69909
293.69909
293.69909
293.69909
293.69909
293.69909
293.69909
293.69909
293.69909
445.39736
440.48155
435.20636
429.55563
423.51481
417.07196
410.21935
402.9557
395.28918
387.24157
378.8532
370.18891
361.34378
352.44758
343.66549
335.19243
327.2388
320.00768
313.66717
308.3247
304.01148
300.68211
298.2288
296.50543
295.35329
294.62223
294.18399
293.9371
293.80743
293.74447
293.71645
293.70506
293.70091
293.69958
293.69921
293.69912
293.6991
293.69909
293.69909
293.69909
293.69909
293.69909
293.69909
293.69909
293.69909
293.69909
293.69909
293.69909
293.69909
293.69909
444.2407
439.34311
434.1129
428.5341
422.59216
416.27516
409.57546
402.49197
395.03294
387.21967
379.09076
370.70708
362.15634
353.55495
345.04841
336.8073
329.01671
321.85643
315.48199
310.00477
305.47722
301.88697
299.1615
297.1823
295.80931
294.90107
294.34143
294.01638
293.84364
293.7588
293.7212
293.70641
293.70124
293.69965
293.69922
293.69912
293.6991
293.69909
293.69909
293.69909
293.69909
293.69909
293.69909
293.69909
293.69909
293.69909
293.69909
293.69909
293.69909
293.69909
439.12963
434.88116
430.27347
425.29007
419.91688
414.14308
407.96334
401.38019
394.40124
387.04803
379.35212
371.35626
363.15784
354.85667
346.57387
338.43118
330.66051
323.42162
316.87315
311.14812
306.33708
302.4763
299.54513
297.41175
295.93441
294.96818
294.36571
294.02599
293.84627
293.75933
293.72133
293.70642
293.70124
293.69964
293.69922
293.69912
293.6991
293.69909
293.69909
293.69909
293.69909
293.69909
293.69909
293.69909
293.69909
293.69909
293.69909
293.69909
293.69909
293.69909
439.13983
434.89155
430.28434
425.30192
419.93032
414.15898
407.98179
401.39825
394.41413
387.05174
379.35706
371.3758
363.18199
354.85466
346.56833
338.45309
330.68062
323.43044
316.89834
311.21986
306.46596
302.63472
299.65525
297.46335
295.94363
294.9574
294.36459
294.02329
293.84429
293.75844
293.72107
293.70638
293.70123
293.69964
293.69922
293.69912
293.6991
293.69909
293.69909
293.69909
293.69909
293.69909
293.69909
293.69909
293.69909
293.69909
293.69909
293.69909
293.69909
293.69909
444.26162
439.36518
434.13641
428.55936
422.61952
416.30499
409.60812
402.52774
395.07209
387.26261
379.13816
370.75919
362.21249
353.6146
345.1122
336.87504
329.08657
321.92742
315.5539
310.07594
305.54222
301.93698
299.18932
297.19024
295.80708
294.90028
294.3382
294.01545
293.84263
293.75855
293.72116
293.70641
293.70124
293.69965
293.69922
293.69912
293.6991
293.69909
293.69909
293.69909
293.69909
293.69909
293.69909
293.69909
293.69909
293.69909
293.69909
293.69909
293.69909
293.69909
445.41658
440.5018
435.22771
429.57822
423.53878
417.0975
410.24668
402.98505
395.32084
387.27581
378.89032
370.22912
361.38717
352.49406
343.71472
335.2437
327.29102
320.0595
313.717
308.37068
304.05146
300.71401
298.25155
296.51972
295.36124
294.62625
294.18574
293.9378
293.80763
293.74447
293.71644
293.70505
293.70091
293.69958
293.69921
293.69912
293.6991
293.69909
293.69909
293.69909
293.69909
293.69909
293.69909
293.69909
293.69909
293.69909
293.69909
293.69909
293.69909
293.69909
445.6929
440.8185
435.58032
429.96173
423.94788
417.52661
410.69008
403.4368
395.77455
387.72402
379.32376
370.63583
361.75189
352.79772
343.93632
335.36276
327.29251
319.93918
313.48607
308.05569
303.69083
300.35008
297.92065
296.24615
295.15481
294.48396
294.09636
293.88678
293.78133
293.73225
293.7113
293.70316
293.7003
293.69941
293.69916
293.69911