/*--------------------------------*- C++ -*----------------------------------*\
| =========                 |                                                 |
| \\      /  F ield         | OpenFOAM: The Open Source CFD Toolbox           |
|  \\    /   O peration     | Version:  4.0                                   |
|   \\  /    A nd           | Web:      www.OpenFOAM.org                      |
|    \\/     M anipulation  |                                                 |
\*---------------------------------------------------------------------------*/
FoamFile
{
    version     2.0;
    format      ascii;
    class       volScalarField;
    location    "2000/ciltop";
    object      T;
}
// * * * * * * * * * * * * * * * * * * * * * * * * * * * * * * * * * * * * * //

dimensions      [0 0 0 1 0 0 0];

internalField   nonuniform List<scalar> 
3600
(
369.2826
369.23991
369.19524
369.16451
369.14555
369.28265
369.24036
369.19604
369.1654
369.14638
369.2827
369.2408
369.19678
369.1662
369.14715
369.28274
369.24121
369.19748
369.16699
369.14794
369.28277
369.24159
369.19817
369.16783
369.14887
369.28278
369.24192
369.19882
369.1687
369.14988
369.28278
369.24219
369.19942
369.16956
369.15091
369.28276
369.24239
369.19993
369.17035
369.15192
369.28272
369.2425
369.20031
369.171
369.15276
369.28265
369.2425
369.20051
369.17142
369.15333
369.28257
369.24238
369.20047
369.17157
369.15367
369.28246
369.24214
369.20015
369.17132
369.15361
370.59508
370.56198
370.53111
370.51079
370.49857
370.59567
370.56315
370.53251
370.51216
370.4998
370.59632
370.56445
370.53407
370.51365
370.50113
370.59704
370.5659
370.53583
370.51541
370.5028
370.59782
370.56749
370.53786
370.51758
370.505
370.59865
370.56923
370.54018
370.5202
370.50777
370.59953
370.57109
370.54279
370.52327
370.51112
370.60044
370.57305
370.54565
370.52677
370.51502
370.60139
370.5751
370.54871
370.53059
370.51936
370.60236
370.5772
370.55188
370.5346
370.52395
370.60333
370.57931
370.55505
370.53862
370.52856
370.60431
370.5814
370.55813
370.54248
370.53298
372.44394
372.41759
372.39414
372.37903
372.37007
372.44455
372.41874
372.39554
372.38047
372.37143
372.44523
372.42003
372.39705
372.38193
372.37277
372.44599
372.42144
372.39872
372.38356
372.37428
372.44681
372.423
372.4006
372.38546
372.37613
372.44768
372.42469
372.40272
372.38773
372.37844
372.44861
372.42652
372.40512
372.39043
372.38128
372.44958
372.42846
372.40777
372.39354
372.38467
372.45059
372.4305
372.41066
372.39703
372.38855
372.45163
372.43262
372.4137
372.40079
372.3928
372.45269
372.43479
372.41683
372.40466
372.39721
372.45375
372.43697
372.41993
372.40847
372.40155
374.53405
374.51298
374.49439
374.48244
374.47535
374.53453
374.51379
374.49525
374.48321
374.47597
374.53508
374.5147
374.49622
374.48403
374.47662
374.53568
374.51572
374.49732
374.48503
374.47749
374.53633
374.51686
374.49861
374.48629
374.47868
374.53704
374.51813
374.50013
374.48787
374.48027
374.53779
374.51952
374.50189
374.48982
374.48232
374.53858
374.52102
374.50389
374.49214
374.48484
374.53941
374.52262
374.50608
374.49477
374.48776
374.54027
374.5243
374.50844
374.49764
374.49097
374.54115
374.52605
374.5109
374.50063
374.49434
374.54205
374.52784
374.51338
374.50363
374.49772
376.72541
376.70777
376.69223
376.68227
376.67637
376.72583
376.7085
376.69306
376.68305
376.67705
376.7263
376.70934
376.69398
376.68387
376.67774
376.72683
376.71027
376.69503
376.68484
376.6786
376.7274
376.71131
376.69624
376.68604
376.67973
376.72801
376.71245
376.69765
376.68754
376.68125
376.72866
376.71369
376.69928
376.68939
376.68322
376.72935
376.71502
376.70111
376.69156
376.68562
376.73006
376.71644
376.70311
376.69401
376.68837
376.7308
376.71791
376.70522
376.69664
376.69136
376.73155
376.71942
376.70739
376.69932
376.69442
376.73232
376.72095
376.70953
376.70193
376.69737
378.92126
378.90567
378.89197
378.88319
378.87798
378.92165
378.90632
378.89267
378.8838
378.87847
378.92207
378.90706
378.89346
378.88448
378.87902
378.92255
378.90789
378.89438
378.88533
378.87976
378.92307
378.90882
378.89547
378.88641
378.8808
378.92362
378.90986
378.89676
378.88779
378.88221
378.92421
378.91099
378.89825
378.88949
378.88402
378.92484
378.91221
378.89993
378.89149
378.88623
378.92549
378.9135
378.90177
378.89375
378.88878
378.92616
378.91485
378.90373
378.89619
378.89155
378.92684
378.91624
378.90572
378.89868
378.89439
378.92754
378.91764
378.90771
378.9011
378.89714
381.06374
381.04959
381.03721
381.02928
381.0246
381.0641
381.05023
381.03792
381.02994
381.02516
381.06451
381.05095
381.03872
381.03066
381.02577
381.06496
381.05176
381.03964
381.03153
381.02654
381.06544
381.05267
381.04073
381.03262
381.02759
381.06597
381.05367
381.04199
381.034
381.02901
381.06653
381.05475
381.04345
381.03568
381.03082
381.06711
381.05592
381.04509
381.03765
381.03301
381.06772
381.05715
381.04686
381.03984
381.0355
381.06834
381.05842
381.04872
381.04218
381.03816
381.06898
381.05973
381.05061
381.04454
381.04086
381.06963
381.06104
381.05246
381.0468
381.04344
383.10888
383.09554
383.08393
383.07651
383.07212
383.10923
383.09614
383.08458
383.07709
383.07259
383.10962
383.09682
383.08531
383.07773
383.07313
383.11005
383.09758
383.08617
383.07853
383.07384
383.11052
383.09844
383.08718
383.07955
383.07482
383.11102
383.09939
383.08837
383.08083
383.07613
383.11156
383.10043
383.08975
383.0824
383.0778
383.11212
383.10154
383.0913
383.08425
383.07984
383.11271
383.10273
383.093
383.08634
383.0822
383.11331
383.10396
383.09479
383.08859
383.08477
383.11393
383.10522
383.09663
383.09089
383.08741
383.11456
383.1065
383.09844
383.09311
383.08993
385.03233
385.01956
385.00849
385.00144
384.99729
385.03267
385.02015
385.00914
385.00203
384.99778
385.03305
385.02082
385.00987
385.00267
384.99831
385.03347
385.02157
385.01071
385.00345
384.99899
385.03393
385.02241
385.0117
385.00444
384.99993
385.03442
385.02334
385.01287
385.00569
385.00122
385.03494
385.02435
385.01422
385.00724
385.00288
385.03549
385.02544
385.01574
385.00906
385.0049
385.03606
385.02659
385.01739
385.01111
385.00721
385.03665
385.02779
385.01914
385.01329
385.00971
385.03726
385.02902
385.02092
385.01552
385.01225
385.03787
385.03026
385.02267
385.01767
385.01468
386.81668
386.80422
386.79343
386.78656
386.78252
386.81701
386.80478
386.79405
386.78711
386.78296
386.81739
386.80543
386.79474
386.78771
386.78344
386.8178
386.80616
386.79555
386.78846
386.7841
386.81825
386.80698
386.79651
386.78941
386.78501
386.81873
386.80789
386.79764
386.79063
386.78625
386.81925
386.80888
386.79896
386.79212
386.78785
386.81979
386.80994
386.80044
386.7939
386.78981
386.82035
386.81108
386.80206
386.7959
386.79208
386.82093
386.81226
386.80378
386.79805
386.79453
386.82153
386.81347
386.80553
386.80024
386.79704
386.82213
386.81469
386.80726
386.80236
386.79944
388.45344
388.44119
388.4306
388.42388
388.41992
388.45377
388.44175
388.43121
388.42441
388.42033
388.45414
388.44238
388.43189
388.42499
388.4208
388.45454
388.4431
388.43268
388.42571
388.42143
388.45498
388.4439
388.43361
388.42664
388.42232
388.45546
388.44479
388.43472
388.42782
388.42352
388.45597
388.44576
388.436
388.42928
388.42507
388.4565
388.4468
388.43744
388.431
388.42698
388.45705
388.44791
388.43903
388.43296
388.42919
388.45762
388.44907
388.44071
388.43506
388.43159
388.45821
388.45026
388.44243
388.43721
388.43404
388.4588
388.45146
388.44414
388.43929
388.43641
389.93773
389.92558
389.91508
389.9084
389.90447
389.93805
389.92614
389.91568
389.90894
389.90491
389.93842
389.92677
389.91636
389.90952
389.90537
389.93882
389.92748
389.91714
389.91023
389.90598
389.93926
389.92827
389.91807
389.91114
389.90684
389.93973
389.92915
389.91917
389.91232
389.90804
389.94023
389.93012
389.92044
389.91378
389.90961
389.94075
389.93115
389.92189
389.91551
389.91153
389.9413
389.93225
389.92346
389.91746
389.91374
389.94187
389.9334
389.92513
389.91955
389.91613
389.94245
389.93458
389.92684
389.92168
389.91856
389.94304
389.93577
389.92852
389.92374
389.92089
391.26721
391.25518
391.24478
391.23818
391.23429
391.26752
391.25573
391.24539
391.23872
391.23474
391.26788
391.25635
391.24606
391.23931
391.23521
391.26828
391.25705
391.24683
391.24001
391.23582
391.26871
391.25783
391.24774
391.2409
391.23667
391.26917
391.25869
391.2488
391.24203
391.23781
391.26967
391.25963
391.25004
391.24343
391.2393
391.27018
391.26065
391.25144
391.24509
391.24112
391.27072
391.26173
391.25297
391.24698
391.24325
391.27128
391.26285
391.2546
391.24901
391.24558
391.27185
391.26401
391.25626
391.2511
391.24797
391.27243
391.26517
391.25792
391.25312
391.25027
392.44085
392.42892
392.41859
392.41203
392.40817
392.44116
392.42946
392.41919
392.41257
392.40862
392.44152
392.43008
392.41985
392.41314
392.40908
392.44191
392.43077
392.42062
392.41383
392.40967
392.44233
392.43155
392.42152
392.41472
392.41049
392.44279
392.4324
392.42258
392.41585
392.41164
392.44328
392.43334
392.42382
392.41725
392.41315
392.44379
392.43434
392.42521
392.41893
392.415
392.44432
392.43541
392.42674
392.42081
392.41713
392.44487
392.43652
392.42835
392.42283
392.41945
392.44544
392.43766
392.43
392.4249
392.42181
392.44601
392.43881
392.43163
392.42689
392.42408
393.45727
393.44547
393.43526
393.42879
393.42498
393.45758
393.44601
393.43587
393.42934
393.42544
393.45792
393.44662
393.43653
393.42992
393.42591
393.45831
393.4473
393.43728
393.4306
393.4265
393.45873
393.44806
393.43816
393.43146
393.42731
393.45918
393.4489
393.43919
393.43254
393.4284
393.45965
393.44981
393.44038
393.43389
393.42982
393.46016
393.45079
393.44173
393.43548
393.43158
393.46068
393.45183
393.44321
393.4373
393.43363
393.46122
393.45292
393.44478
393.43927
393.43588
393.46177
393.45403
393.44639
393.44129
393.4382
393.46233
393.45516
393.44799
393.44325
393.44043
394.31526
394.30359
394.29349
394.28708
394.28332
394.31556
394.30413
394.29409
394.28763
394.28378
394.31591
394.30473
394.29475
394.2882
394.28423
394.31628
394.30541
394.2955
394.28887
394.2848
394.3167
394.30617
394.29637
394.28973
394.2856
394.31714
394.307
394.2974
394.29082
394.28671
394.31761
394.3079
394.2986
394.29218
394.28816
394.31811
394.30888
394.29995
394.2938
394.28996
394.31862
394.30991
394.30143
394.29563
394.29203
394.31916
394.31098
394.30299
394.29759
394.29427
394.3197
394.31208
394.30458
394.29958
394.29656
394.32025
394.31319
394.30615
394.30151
394.29875
395.01207
395.00058
394.99063
394.98432
394.98062
395.01237
395.00112
394.99125
394.9849
394.98111
395.01271
395.00172
394.99191
394.98549
394.98159
395.01309
395.0024
394.99266
394.98617
394.98219
395.01349
395.00314
394.99353
394.98703
394.983
395.01393
395.00396
394.99455
394.9881
394.98408
395.01439
395.00485
394.99571
394.98942
394.98548
395.01488
395.0058
394.99703
394.99098
394.98719
395.01538
395.00681
394.99846
394.99275
394.9892
395.0159
395.00786
394.99998
394.99466
394.99138
395.01644
395.00893
395.00153
394.9966
394.99361
395.01698
395.01002
395.00306
394.99847
394.99574
395.54466
395.53336
395.52358
395.51737
395.51373
395.54495
395.5339
395.52419
395.51795
395.51423
395.54529
395.5345
395.52487
395.51855
395.51472
395.54566
395.53518
395.52562
395.51924
395.51532
395.54606
395.53592
395.5265
395.52011
395.51614
395.54649
395.53673
395.52752
395.52119
395.51724
395.54694
395.53762
395.52869
395.52253
395.51867
395.54742
395.53856
395.53
395.52411
395.52042
395.54792
395.53956
395.53144
395.52588
395.52243
395.54843
395.5406
395.53294
395.52777
395.5246
395.54895
395.54165
395.53447
395.52969
395.5268
395.54948
395.54271
395.53596
395.53152
395.52889
395.90793
395.8969
395.88734
395.88128
395.87773
395.90823
395.89745
395.888
395.88192
395.8783
395.90856
395.89806
395.8887
395.88257
395.87886
395.90892
395.89874
395.88949
395.88331
395.87953
395.90932
395.89949
395.89038
395.88421
395.88039
395.90974
395.9003
395.8914
395.88531
395.8815
395.91019
395.90118
395.89257
395.88664
395.88292
395.91065
395.90211
395.89387
395.88819
395.88464
395.91114
395.90309
395.89527
395.88993
395.88661
395.91164
395.9041
395.89674
395.89177
395.88872
395.91215
395.90513
395.89822
395.89363
395.89086
395.91267
395.90615
395.89966
395.8954
395.89288
396.09521
396.0846
396.07543
396.06964
396.06627
396.0955
396.08517
396.07614
396.07035
396.06692
396.09582
396.0858
396.07688
396.07106
396.06754
396.09618
396.08648
396.0777
396.07184
396.06825
396.09657
396.08723
396.07861
396.07277
396.06915
396.09698
396.08804
396.07965
396.0739
396.07031
396.09741
396.08891
396.08082
396.07525
396.07176
396.09787
396.08983
396.08211
396.0768
396.07349
396.09834
396.09078
396.08348
396.07852
396.07544
396.09882
396.09175
396.08491
396.08031
396.0775
396.09931
396.09274
396.08632
396.08209
396.07955
396.0998
396.09372
396.08768
396.08375
396.08144
369.28233
369.24177
369.1995
369.17047
369.15261
369.28218
369.24128
369.19854
369.16906
369.15083
369.28201
369.24068
369.19733
369.16727
369.14858
369.28182
369.24002
369.19598
369.16526
369.14609
369.28163
369.2393
369.19456
369.1632
369.14356
369.28143
369.23857
369.19318
369.16127
369.14123
369.28122
369.23785
369.19191
369.15958
369.13926
369.28102
369.23715
369.1908
369.15821
369.13775
369.28082
369.2365
369.18984
369.15718
369.13672
369.28063
369.23588
369.18902
369.15641
369.13608
369.28045
369.23531
369.18829
369.15579
369.13565
369.28029
369.23479
369.18759
369.15514
369.13514
370.60529
370.58343
370.56103
370.54597
370.53687
370.60625
370.58538
370.56369
370.54901
370.54006
370.60719
370.58723
370.56611
370.55165
370.54275
370.60811
370.58898
370.5683
370.55397
370.54509
370.60899
370.59061
370.57031
370.55607
370.54718
370.60982
370.59214
370.57216
370.558
370.54911
370.61061
370.59356
370.57388
370.55983
370.55097
370.61136
370.59486
370.5755
370.56161
370.55283
370.61204
370.59605
370.577
370.56332
370.55469
370.61267
370.59712
370.57837
370.56496
370.55652
370.61323
370.59807
370.57958
370.56642
370.55819
370.61373
370.59888
370.58059
370.56762
370.55958
372.45483
372.43914
372.42294
372.41203
372.40545
372.45589
372.44127
372.4258
372.41525
372.4088
372.45694
372.44334
372.4285
372.41822
372.41185
372.45797
372.44534
372.43107
372.421
372.41469
372.45896
372.44727
372.43353
372.42366
372.41742
372.45992
372.44912
372.43589
372.42624
372.42009
372.46083
372.45087
372.43815
372.42877
372.42275
372.4617
372.45252
372.44032
372.43125
372.42541
372.4625
372.45405
372.44238
372.43366
372.42805
372.46324
372.45546
372.44429
372.43595
372.4306
372.46391
372.45673
372.44601
372.43803
372.43297
372.4645
372.45784
372.44749
372.43981
372.43499
374.54295
374.52964
374.51585
374.5065
374.50083
374.54386
374.53145
374.51825
374.5092
374.50363
374.54476
374.53325
374.5206
374.51177
374.50627
374.54565
374.53503
374.52291
374.51428
374.50886
374.54652
374.53677
374.52518
374.51679
374.51145
374.54736
374.53847
374.52744
374.51932
374.51411
374.54817
374.54012
374.52966
374.52188
374.51687
374.54893
374.5417
374.53185
374.52447
374.5197
374.54965
374.54319
374.53397
374.52702
374.52255
374.55032
374.54458
374.53596
374.52947
374.52531
374.55092
374.54585
374.53778
374.53173
374.52787
374.55146
374.54697
374.53937
374.53367
374.5301
376.73309
376.72248
376.7116
376.70432
376.69995
376.73385
376.724
376.71357
376.70648
376.70215
376.73462
376.72548
376.71546
376.70848
376.70415
376.73536
376.72694
376.71728
376.7104
376.70607
376.73609
376.72836
376.71906
376.7123
376.70799
376.7368
376.72974
376.72083
376.71422
376.70996
376.73747
376.73108
376.72258
376.71619
376.71204
376.73812
376.73236
376.72432
376.71821
376.71424
376.73872
376.73358
376.72601
376.72025
376.71651
376.73927
376.73471
376.72763
376.72225
376.71877
376.73978
376.73575
376.72912
376.72412
376.72092
376.74023
376.73667
376.73044
376.72575
376.72281
378.92824
378.91905
378.90962
378.90334
378.89957
378.92894
378.92043
378.91144
378.90535
378.90163
378.92963
378.92179
378.91318
378.9072
378.90349
378.93032
378.92313
378.91485
378.90895
378.90524
378.93098
378.92442
378.91647
378.91068
378.90698
378.93162
378.92568
378.91808
378.91242
378.90876
378.93224
378.9269
378.91966
378.91419
378.91064
378.93282
378.92806
378.92123
378.91601
378.91261
378.93337
378.92917
378.92276
378.91784
378.91464
378.93387
378.9302
378.92423
378.91964
378.91667
378.93434
378.93114
378.92558
378.92134
378.91861
378.93475
378.93198
378.92678
378.92283
378.92033
381.07028
381.06234
381.05423
381.04886
381.04567
381.07093
381.06361
381.0559
381.05069
381.04752
381.07157
381.06486
381.05747
381.05234
381.04917
381.0722
381.06607
381.05896
381.05389
381.0507
381.07281
381.06724
381.0604
381.05539
381.05219
381.0734
381.06838
381.06181
381.05689
381.05371
381.07397
381.06947
381.06321
381.05843
381.05531
381.0745
381.07051
381.06459
381.06001
381.05701
381.075
381.0715
381.06594
381.06163
381.0588
381.07547
381.07242
381.06724
381.06322
381.0606
381.07589
381.07327
381.06845
381.06473
381.06234
381.07626
381.07402
381.06952
381.06607
381.06388
383.11519
383.10776
383.10018
383.09515
383.09216
383.11582
383.10901
383.10182
383.09697
383.09403
383.11645
383.11023
383.10338
383.09863
383.09569
383.11706
383.11142
383.10486
383.10018
383.09723
383.11766
383.11258
383.1063
383.10169
383.09874
383.11823
383.11369
383.1077
383.1032
383.10028
383.11878
383.11477
383.10908
383.10473
383.10189
383.1193
383.11579
383.11044
383.10629
383.10357
383.11979
383.11676
383.11177
383.10787
383.10531
383.12024
383.11767
383.11305
383.10943
383.10706
383.12065
383.1185
383.11423
383.11089
383.10874
383.12102
383.11924
383.11528
383.1122
383.11024
385.03848
385.03149
385.02436
385.01964
385.01682
385.0391
385.03271
385.02596
385.0214
385.01863
385.0397
385.03389
385.02746
385.02301
385.02025
385.0403
385.03505
385.0289
385.02451
385.02175
385.04088
385.03617
385.03029
385.02597
385.02321
385.04144
385.03725
385.03165
385.02743
385.02469
385.04197
385.03829
385.03299
385.02891
385.02623
385.04248
385.03928
385.03431
385.03042
385.02786
385.04295
385.04023
385.0356
385.03196
385.02956
385.04339
385.0411
385.03683
385.03347
385.03126
385.04379
385.04191
385.03798
385.03489
385.0329
385.04415
385.04263
385.039
385.03616
385.03435
386.82274
386.8159
386.80893
386.80431
386.80157
386.82334
386.81711
386.81051
386.80606
386.80336
386.82394
386.81828
386.81201
386.80766
386.80496
386.82453
386.81943
386.81344
386.80917
386.80647
386.8251
386.82054
386.81483
386.81063
386.80794
386.82566
386.82162
386.81619
386.8121
386.80944
386.82619
386.82266
386.81754
386.81359
386.81101
386.82669
386.82365
386.81886
386.81512
386.81265
386.82716
386.82459
386.82015
386.81666
386.81435
386.82759
386.82546
386.82139
386.81817
386.81605
386.82799
386.82627
386.82253
386.81959
386.81769
386.82834
386.82698
386.82355
386.82085
386.81914
388.4594
388.45266
388.44578
388.44121
388.43849
388.46
388.45385
388.44734
388.44294
388.44027
388.46059
388.45501
388.44882
388.44453
388.44187
388.46117
388.45614
388.45024
388.44602
388.44336
388.46174
388.45724
388.45162
388.44748
388.44482
388.46228
388.45831
388.45297
388.44893
388.44631
388.46281
388.45934
388.4543
388.45042
388.44787
388.4633
388.46032
388.45562
388.45194
388.44951
388.46376
388.46125
388.45691
388.45348
388.45122
388.46419
388.46212
388.45814
388.45499
388.45292
388.46459
388.46291
388.45927
388.45641
388.45455
388.46493
388.46362
388.46028
388.45766
388.45599
389.94363
389.93695
389.93014
389.92563
389.92295
389.94422
389.93812
389.93167
389.92732
389.92467
389.9448
389.93927
389.93313
389.92887
389.92622
389.94538
389.94039
389.93453
389.93033
389.92768
389.94594
389.94148
389.93589
389.93176
389.92912
389.94648
389.94253
389.93722
389.9332
389.93059
389.947
389.94355
389.93854
389.93468
389.93214
389.94749
389.94452
389.93985
389.93619
389.93378
389.94795
389.94545
389.94113
389.93773
389.93548
389.94837
389.94631
389.94235
389.93924
389.93719
389.94876
389.94709
389.94348
389.94065
389.93882
389.9491
389.94779
389.94448
389.94189
389.94025
391.27302
391.26634
391.25951
391.25498
391.25229
391.2736
391.26749
391.26102
391.25665
391.254
391.27417
391.26862
391.26246
391.25818
391.25553
391.27474
391.26972
391.26384
391.25963
391.25697
391.27529
391.2708
391.26519
391.26105
391.2584
391.27582
391.27184
391.26651
391.26248
391.25986
391.27633
391.27285
391.26783
391.26395
391.2614
391.27682
391.27382
391.26913
391.26546
391.26304
391.27727
391.27473
391.2704
391.267
391.26475
391.27769
391.27558
391.27162
391.2685
391.26646
391.27807
391.27636
391.27274
391.26991
391.26809
391.27841
391.27706
391.27373
391.27115
391.26952
392.44658
392.43996
392.4332
392.42872
392.42606
392.44716
392.44109
392.43468
392.43034
392.42771
392.44772
392.4422
392.43608
392.43183
392.42919
392.44828
392.44329
392.43743
392.43324
392.43058
392.44883
392.44435
392.43875
392.43462
392.43196
392.44935
392.44537
392.44004
392.43601
392.43339
392.44985
392.44636
392.44134
392.43746
392.43491
392.45033
392.44731
392.44262
392.43895
392.43653
392.45078
392.44821
392.44387
392.44047
392.43822
392.45119
392.44905
392.44508
392.44196
392.43992
392.45156
392.44982
392.44618
392.44336
392.44154
392.4519
392.4505
392.44716
392.44458
392.44295
393.4629
393.45629
393.44952
393.44504
393.44237
393.46346
393.4574
393.45097
393.44663
393.444
393.46402
393.45849
393.45235
393.44809
393.44544
393.46457
393.45955
393.45368
393.44947
393.44681
393.4651
393.46059
393.45497
393.45083
393.44816
393.46562
393.4616
393.45625
393.45221
393.44957
393.46611
393.46258
393.45753
393.45364
393.45108
393.46658
393.46351
393.4588
393.45512
393.45269
393.46702
393.4644
393.46005
393.45663
393.45438
393.46742
393.46523
393.46124
393.45812
393.45608
393.46779
393.46599
393.46234
393.45951
393.45769
393.46813
393.46666
393.46331
393.46072
393.4591
394.32081
394.3143
394.30765
394.30325
394.30065
394.32136
394.31539
394.30907
394.3048
394.30221
394.32191
394.31645
394.31041
394.3062
394.30359
394.32245
394.3175
394.31169
394.30753
394.3049
394.32297
394.31851
394.31295
394.30884
394.3062
394.32348
394.3195
394.31419
394.31017
394.30755
394.32396
394.32045
394.31544
394.31156
394.30902
394.32442
394.32137
394.31668
394.31301
394.3106
394.32485
394.32223
394.3179
394.3145
394.31226
394.32525
394.32304
394.31907
394.31596
394.31394
394.32561
394.32379
394.32015
394.31733
394.31553
394.32594
394.32445
394.32109
394.31852
394.31692
395.01752
395.01109
395.00452
395.00017
394.99758
395.01806
395.01216
395.0059
395.00167
394.9991
395.0186
395.0132
395.0072
395.00303
395.00044
395.01913
395.01421
395.00845
395.00431
395.0017
395.01964
395.01521
395.00967
395.00558
395.00295
395.02014
395.01617
395.01089
395.00689
395.00428
395.02061
395.0171
395.01211
395.00825
395.00572
395.02106
395.018
395.01333
395.00968
395.00728
395.02148
395.01885
395.01453
395.01115
395.00892
395.02187
395.01965
395.01568
395.0126
395.01058
395.02223
395.02037
395.01674
395.01395
395.01216
395.02255
395.02102
395.01768
395.01513
395.01354
395.55002
395.54377
395.53738
395.53317
395.53067
395.55055
395.5448
395.53872
395.53461
395.53212
395.55107
395.54581
395.53997
395.53591
395.53338
395.55159
395.5468
395.54118
395.53713
395.53457
395.55209
395.54776
395.54235
395.53834
395.53576
395.55257
395.5487
395.54352
395.53959
395.53702
395.55304
395.5496
395.5447
395.5409
395.5384
395.55348
395.55047
395.54588
395.54228
395.53991
395.55389
395.5513
395.54704
395.54371
395.54151
395.55427
395.55207
395.54816
395.54512
395.54314
395.55461
395.55277
395.54919
395.54645
395.54469
395.55492
395.5534
395.5501
395.54759
395.54603
395.91319
395.90717
395.90103
395.89697
395.89457
395.9137
395.90817
395.9023
395.89833
395.89593
395.91421
395.90914
395.90349
395.89955
395.89711
395.91471
395.91009
395.90463
395.90069
395.8982
395.9152
395.91101
395.90574
395.90183
395.8993
395.91567
395.91191
395.90685
395.903
395.90048
395.91611
395.91277
395.90798
395.90425
395.9018
395.91654
395.91361
395.90911
395.90558
395.90325
395.91694
395.9144
395.91023
395.90696
395.90481
395.9173
395.91514
395.91131
395.90833
395.90639
395.91764
395.91582
395.91231
395.90962
395.9079
395.91794
395.91642
395.91318
395.91073
395.90921
396.1003
396.09468
396.08895
396.0852
396.08299
396.10079
396.09561
396.09012
396.08642
396.08418
396.10127
396.09652
396.0912
396.08749
396.08518
396.10175
396.0974
396.09223
396.08849
396.08611
396.10221
396.09826
396.09324
396.08948
396.08705
396.10265
396.09909
396.09425
396.09053
396.08809
396.10308
396.09989
396.09527
396.09167
396.08929
396.10348
396.10067
396.09632
396.0929
396.09064
396.10385
396.1014
396.09737
396.0942
396.09211
396.1042
396.10209
396.09838
396.09549
396.09362
396.10452
396.10273
396.09931
396.09671
396.09506
396.1048
396.10329
396.10013
396.09776
396.0963
369.28014
369.2343
369.18686
369.15431
369.13429
369.28001
369.23386
369.1861
369.15326
369.13299
369.27991
369.23348
369.18536
369.15211
369.13149
369.27983
369.23318
369.18469
369.15102
369.13004
369.27977
369.23296
369.18419
369.15017
369.1289
369.27974
369.23285
369.18392
369.14971
369.12827
370.61416
370.59956
370.58137
370.56845
370.56046
370.61453
370.60011
370.58192
370.5689
370.56076
370.61482
370.60053
370.58227
370.56907
370.56075
370.61504
370.60084
370.58247
370.56908
370.56059
370.61518
370.60103
370.58258
370.56902
370.56039
370.61525
370.60113
370.58262
370.56898
370.56026
372.46502
372.45879
372.44869
372.44115
372.4364
372.46546
372.45958
372.44962
372.44206
372.43723
372.46581
372.4602
372.45029
372.44264
372.43768
372.46608
372.46065
372.45074
372.44297
372.43789
372.46625
372.46095
372.45102
372.44315
372.43797
372.46634
372.4611
372.45116
372.44323
372.43801
374.55194
374.54795
374.54069
374.5352
374.53175
374.55234
374.54876
374.54172
374.53628
374.53278
374.55266
374.5494
374.54249
374.53702
374.53343
374.55291
374.54988
374.54303
374.53749
374.53381
374.55307
374.5502
374.54337
374.53777
374.53402
374.55315
374.55035
374.54354
374.5379
374.53412
376.74062
376.73748
376.73154
376.72704
376.7242
376.74096
376.73814
376.73241
376.72795
376.72509
376.74123
376.73868
376.73305
376.72858
376.72564
376.74143
376.73908
376.73351
376.72898
376.72597
376.74157
376.73934
376.73379
376.72921
376.72614
376.74164
376.73947
376.73393
376.72932
376.72622
378.93511
378.93271
378.92779
378.92402
378.92163
378.93541
378.93333
378.92859
378.92488
378.92248
378.93566
378.93381
378.9292
378.92547
378.92302
378.93584
378.93418
378.92962
378.92587
378.92336
378.93597
378.93442
378.9299
378.9261
378.92354
378.93603
378.93454
378.93003
378.92621
378.92363
381.07659
381.07468
381.07043
381.06713
381.06505
381.07687
381.07523
381.07115
381.06791
381.06581
381.07709
381.07567
381.07169
381.06845
381.06631
381.07726
381.076
381.07207
381.0688
381.06661
381.07738
381.07622
381.07232
381.06901
381.06678
381.07743
381.07632
381.07244
381.06911
381.06686
383.12134
383.11988
383.11616
383.11325
383.11139
383.12161
383.12042
383.11687
383.11401
383.11215
383.12183
383.12085
383.11741
383.11455
383.11265
383.122
383.12118
383.11779
383.11491
383.11297
383.12211
383.12139
383.11804
383.11513
383.11315
383.12216
383.1215
383.11815
383.11523
383.11323
385.04446
385.04325
385.03985
385.03717
385.03546
385.04472
385.04377
385.04054
385.03791
385.03619
385.04493
385.04419
385.04105
385.03842
385.03667
385.04509
385.0445
385.04142
385.03876
385.03696
385.0452
385.04471
385.04165
385.03897
385.03713
385.04526
385.04481
385.04177
385.03906
385.0372
386.82865
386.8276
386.8244
386.82186
386.82024
386.82891
386.82812
386.82508
386.82259
386.82097
386.82912
386.82854
386.8256
386.8231
386.82144
386.82928
386.82885
386.82596
386.82344
386.82172
386.82939
386.82905
386.82619
386.82364
386.82188
386.82944
386.82916
386.8263
386.82373
386.82196
388.46524
388.46424
388.46112
388.45865
388.45708
388.4655
388.46475
388.46179
388.45936
388.45778
388.4657
388.46516
388.46229
388.45986
388.45822
388.46586
388.46547
388.46264
388.46017
388.45849
388.46597
388.46567
388.46287
388.46036
388.45863
388.46602
388.46577
388.46297
388.46044
388.45869
389.9494
389.9484
389.94531
389.94287
389.94132
389.94966
389.94891
389.94597
389.94357
389.942
389.94986
389.94931
389.94646
389.94405
389.94243
389.95002
389.94962
389.94681
389.94435
389.94267
389.95013
389.94981
389.94702
389.94452
389.9428
389.95018
389.94991
389.94713
389.9446
389.94285
391.27871
391.27766
391.27456
391.27212
391.27058
391.27896
391.27816
391.27521
391.2728
391.27124
391.27917
391.27856
391.27569
391.27326
391.27164
391.27932
391.27886
391.27602
391.27354
391.27186
391.27942
391.27905
391.27623
391.2737
391.27197
391.27948
391.27915
391.27633
391.27378
391.27201
392.45219
392.45109
392.44797
392.44553
392.44399
392.45244
392.45158
392.4486
392.4462
392.44463
392.45264
392.45197
392.44907
392.44663
392.445
392.45279
392.45227
392.44939
392.4469
392.4452
392.45289
392.45246
392.44959
392.44704
392.44529
392.45295
392.45255
392.44969
392.44711
392.44532
393.46841
393.46725
393.46411
393.46166
393.46013
393.46866
393.46773
393.46473
393.46231
393.46075
393.46885
393.46812
393.46518
393.46273
393.4611
393.469
393.4684
393.4655
393.46298
393.46127
393.4691
393.46859
393.46569
393.46312
393.46135
393.46915
393.46869
393.46578
393.46317
393.46137
394.32622
394.32502
394.32187
394.31944
394.31792
394.32646
394.32549
394.32248
394.32007
394.31851
394.32665
394.32587
394.32292
394.32047
394.31884
394.3268
394.32614
394.32322
394.3207
394.31899
394.3269
394.32633
394.3234
394.32082
394.31905
394.32694
394.32642
394.32349
394.32087
394.31906
395.02282
395.02158
395.01844
395.01603
395.01452
395.02306
395.02204
395.01904
395.01664
395.01509
395.02324
395.02241
395.01946
395.01702
395.0154
395.02339
395.02268
395.01975
395.01724
395.01553
395.02348
395.02286
395.01993
395.01735
395.01558
395.02353
395.02295
395.02001
395.01739
395.01558
395.55519
395.55394
395.55084
395.54846
395.54698
395.55542
395.55439
395.55141
395.54905
395.54753
395.5556
395.55475
395.55182
395.54941
395.54781
395.55574
395.55501
395.5521
395.54961
395.54792
395.55584
395.55518
395.55226
395.5497
395.54795
395.55588
395.55527
395.55234
395.54974
395.54795
395.9182
395.91694
395.91389
395.91157
395.91013
395.91842
395.91737
395.91444