/*--------------------------------*- C++ -*----------------------------------*\
| =========                 |                                                 |
| \\      /  F ield         | OpenFOAM: The Open Source CFD Toolbox           |
|  \\    /   O peration     | Version:  3.0.1                                 |
|   \\  /    A nd           | Web:      www.OpenFOAM.org                      |
|    \\/     M anipulation  |                                                 |
\*---------------------------------------------------------------------------*/
FoamFile
{
    version     2.0;
    format      ascii;
    class       volScalarField;
    location    "3500/cilcen";
    object      T;
}
// * * * * * * * * * * * * * * * * * * * * * * * * * * * * * * * * * * * * * //

dimensions      [0 0 0 1 0 0 0];

internalField   nonuniform List<scalar> 
100
(
313.71082
339.70838
357.35265
369.45028
377.86118
383.83656
388.18459
391.43408
393.92794
395.89298
397.47999
398.79119
399.89675
400.84578
401.67319
402.40428
403.05772
403.64749
404.18429
404.67642
405.13041
405.55151
405.94395
406.31121
406.65618
406.98129
407.28858
407.57981
407.85649
408.11992
408.37125
408.61148
408.84148
409.06204
409.27386
409.47757
409.67372
409.86283
410.04533
410.22167
410.3922
410.55727
410.71721
410.8723
411.0228
411.16896
411.31101
411.44916
411.5836
411.71451
411.84206
411.96641
412.08769
412.20606
412.32164
412.43454
412.54488
412.65276
412.75829
412.86155
412.96264
413.06164
413.15863
413.25368
413.34686
413.43824
413.52788
413.61585
413.70219
413.78698
413.87024
413.95205
414.03243
414.11145
414.18913
414.26553
414.34068
414.41461
414.48737
414.55898
414.62949
414.69892
414.7673
414.83467
414.90105
414.96648
415.03099
415.09463
415.15744
415.2195
415.28093
415.34192
415.40279
415.46409
415.52682
415.5927
415.66478
415.74837
415.85102
415.97063
)
;

boundaryField
{
    cilcentop
    {
        type            zeroGradient;
    }
    cilcenbot
    {
        type            fixedValue;
        value           uniform 293.7;
    }
    symmetryleftcen
    {
        type            symmetry;
    }
    symmetryrigtcen
    {
        type            symmetry;
    }
    cilcen_to_fluid
    {
        type            compressible::turbulentTemperatureRadCoupledMixed;
        refValue        nonuniform List<scalar> 
100
(
312.93615
338.28207
355.74373
367.75508
376.12583
382.09212
386.44622
389.71028
392.22202
394.20611
395.81192
397.14113
398.26359
399.22837
400.07038
400.81502
401.48101
402.08245
402.63012
403.13241
403.59592
404.02594
404.42679
404.80199
405.15447
405.4867
405.80076
406.09844
406.38127
406.65058
406.90753
407.15314
407.38832
407.61386
407.83047
408.03879
408.23939
408.43279
408.61946
408.79981
408.97424
409.14309
409.30668
409.46532
409.61928
409.7688
409.91411
410.05544
410.19297
410.3269
410.45739
410.58461
410.7087
410.8298
410.94805
411.06356
411.17646
411.28684
411.39481
411.50047
411.60391
411.70521
411.80445
411.90171
411.99705
412.09056
412.18229
412.2723
412.36066
412.44742
412.53263
412.61634
412.6986
412.77946
412.85896
412.93714
413.01404
413.0897
413.16416
413.23745
413.30961
413.38066
413.45064
413.51959
413.58753
413.65449
413.72051
413.78563
413.84991
413.91341
413.97625
414.03863
414.10084
414.16344
414.22737
414.29433
414.36728
414.45167
414.55706
414.70064
)
;
        refGradient     nonuniform List<scalar> 
100
(
-8.1196895
-21.259414
-32.078155
-40.482849
-46.833832
-51.611382
-55.231261
-58.017498
-60.203648
-61.955923
-63.390408
-64.588734
-65.60843
-66.490582
-67.26486
-67.953033
-68.57131
-69.131959
-69.644409
-70.116023
-70.552634
-70.958927
-71.338718
-71.695148
-72.030833
-72.347976
-72.648446
-72.933844
-73.205551
-73.464768
-73.712545
-73.949806
-74.177366
-74.395953
-74.606212
-74.808727
-75.004018
-75.192558
-75.374774
-75.551056
-75.721758
-75.887204
-76.047691
-76.203492
-76.354858
-76.502021
-76.645195
-76.784579
-76.920358
-77.052703
-77.181774
-77.30772
-77.43068
-77.550784
-77.668155
-77.782908
-77.89515
-78.004982
-78.112499
-78.217793
-78.320946
-78.422041
-78.521152
-78.618352
-78.713708
-78.807285
-78.899145
-78.989346
-79.077942
-79.164988
-79.250532
-79.334624
-79.417308
-79.498628
-79.578627
-79.657342
-79.734814
-79.811078
-79.886169
-79.96012
-80.032965
-80.104734
-80.175458
-80.245167
-80.313891
-80.381661
-80.448512
-80.514486
-80.579636
-80.644038
-80.707814
-80.771157
-80.834401
-80.898126
-80.96335
-81.031871
-81.106854
-81.193847
-81.300821
-81.42662
)
;
        valueFraction   nonuniform List<scalar> 
100
(
0.040149435
0.042521114
0.044073576
0.04511284
0.045823886
0.046323521
0.046684278
0.046952383
0.047157283
0.047318217
0.04744786
0.047554752
0.047644725
0.047721848
0.047789002
0.047848274
0.047901198
0.047948923
0.047992327
0.048032089
0.048068746
0.048102725
0.048134373
0.048163975
0.048191766
0.048217944
0.048242676
0.048266106
0.048288355
0.048309532
0.048329727
0.048349024
0.048367493
0.048385199
0.048402198
0.04841854
0.048434272
0.048449434
0.048464064
0.048478195
0.048491858
0.04850508
0.048517888
0.048530304
0.048542351
0.048554048
0.048565414
0.048576465
0.048587217
0.048597685
0.048607883
0.048617823
0.048627516
0.048636974
0.048646208
0.048655227
0.048664039
0.048672654
0.04868108
0.048689324
0.048697393
0.048705293
0.048713033
0.048720616
0.04872805
0.048735339
0.048742488
0.048749503
0.048756388
0.048763147
0.048769785
0.048776305
0.048782711
0.048789008
0.048795197
0.048801284
0.04880727
0.048813159
0.048818954
0.048824657
0.048830271
0.048835799
0.048841243
0.048846606
0.04885189
0.048857097
0.048862231
0.048867295
0.048872292
0.04887723
0.048882117
0.048886968
0.048891809
0.048896684
0.048901672
0.048906908
0.048912636
0.048919277
0.048927438
0.048937027
)
;
        value           nonuniform List<scalar> 
100
(
313.67145
339.62612
357.24917
369.33271
377.73414
383.7034
388.04742
391.29431
393.78644
395.75034
397.33656
398.64722
399.75241
400.70117
401.52839
402.25934
402.91266
403.50235
404.03909
404.53117
404.98512
405.40618
405.7986
406.16583
406.51079
406.83587
407.14315
407.43437
407.71104
407.97447
408.22579
408.466
408.696
408.91655
409.12837
409.33208
409.52822
409.71732
409.89983
410.07615
410.24668
410.41176
410.57169
410.72677
410.87727
411.02343
411.16548
411.30363
411.43806
411.56897
411.69652
411.82087
411.94216
412.06052
412.1761
412.289
412.39933
412.50722
412.61274
412.71601
412.8171
412.91609
413.01308
413.10813
413.20131
413.29269
413.38233
413.4703
413.55664
413.64142
413.72469
413.8065
413.88688
413.9659
414.04358
414.11997
414.19512
414.26905
414.34181
414.41343
414.48393
414.55336
414.62174
414.68911
414.75549
414.82092
414.88543
414.94907
415.01188
415.07394
415.13537
415.19635
415.25722
415.31852
415.38123
415.44709
415.51912
415.60266
415.70532
415.82597
)
;
        Tnbr            T;
        QrNbr           Qr;
        Qr              none;
        thicknessLayers 0();
        kappaLayers     0();
        kappa           solidThermo;
        kappaName       none;
    }
}


// ************************************************************************* //
