/*--------------------------------*- C++ -*----------------------------------*\
| =========                 |                                                 |
| \\      /  F ield         | OpenFOAM: The Open Source CFD Toolbox           |
|  \\    /   O peration     | Version:  4.0                                   |
|   \\  /    A nd           | Web:      www.OpenFOAM.org                      |
|    \\/     M anipulation  |                                                 |
\*---------------------------------------------------------------------------*/
FoamFile
{
    version     2.0;
    format      ascii;
    class       surfaceScalarField;
    location    "867";
    object      phi;
}
// * * * * * * * * * * * * * * * * * * * * * * * * * * * * * * * * * * * * * //

dimensions      [1 0 -1 0 0 0 0];

internalField   nonuniform List<scalar> 
9850
(
1.4222471e-11
1.2728342e-10
5.680946e-11
4.238772e-10
1.2860227e-10
8.0291214e-10
2.2850385e-10
1.2797549e-09
3.526125e-10
1.8712332e-09
4.9344914e-10
2.5951929e-09
6.392834e-10
3.4699105e-09
7.7369997e-10
4.5133053e-09
8.7559013e-10
5.7420021e-09
9.1975198e-10
7.170359e-09
8.7826327e-10
8.8096592e-09
7.2269414e-10
1.0667757e-08
4.2707717e-10
1.2749538e-08
-2.8646025e-11
1.5058574e-08
-6.5512031e-10
1.7600281e-08
-1.4507667e-09
2.0386795e-08
-2.4003476e-09
2.3443401e-08
-3.4752483e-09
2.6815997e-08
-4.6357672e-09
3.0578964e-08
-5.8350597e-09
3.4842472e-08
-7.0242398e-09
3.9758396e-08
-8.1576827e-09
4.5524345e-08
-9.1979644e-09
5.2385774e-08
-1.0119746e-08
6.0636747e-08
-1.0912307e-08
7.0620481e-08
-1.1580542e-08
8.27313e-08
-1.2144123e-08
9.7419887e-08
-1.2634875e-08
1.1520371e-07
-1.3092541e-08
1.36684e-07
-1.3559613e-08
1.6256992e-07
-1.4076326e-08
1.9370954e-07
-1.467719e-08
2.3112663e-07
-1.5389459e-08
2.760623e-07
-1.6234126e-08
3.3002151e-07
-1.7228793e-08
3.9482544e-07
-1.8392053e-08
4.7267238e-07
-1.974899e-08
5.662098e-07
-2.1338443e-08
6.7862006e-07
-2.3222032e-08
8.1372209e-07
-2.5498344e-08
9.7608963e-07
-2.8314919e-08
1.1711809e-06
-3.1915978e-08
1.4055127e-06
-3.6641702e-08
1.6867352e-06
-4.3042882e-08
2.0239783e-06
-5.2265433e-08
2.4277712e-06
-6.4736172e-08
2.9092722e-06
-8.6965104e-08
3.4861696e-06
-1.195183e-07
4.1626748e-06
-2.1718494e-07
5.0473707e-06
5.2109082e-06
-2.9410178e-11
1.5664102e-10
-1.2860014e-10
5.230094e-10
-3.1853348e-10
9.9278939e-10
-6.2521261e-10
1.5863852e-09
-1.0804744e-09
2.3264578e-09
-1.7228342e-09
3.2375301e-09
-2.5981313e-09
4.3452019e-09
-3.7597263e-09
5.6749092e-09
-5.26787e-09
7.2501676e-09
-7.187796e-09
9.0903173e-09
-9.586026e-09
1.1207928e-08
-1.2524475e-08
1.3606247e-08
-1.6052241e-08
1.6277343e-08
-2.0195499e-08
1.920187e-08
-2.4946743e-08
2.2351555e-08
-3.02552e-08
2.5695272e-08
-3.6020939e-08
2.9209147e-08
-4.2095084e-08
3.2890134e-08
-4.8287467e-08
3.677133e-08
-5.4381562e-08
4.0936547e-08
-6.0154699e-08
4.5531516e-08
-6.5400258e-08
5.076989e-08
-6.9948122e-08
5.6933632e-08
-7.3680328e-08
6.4368955e-08
-7.6539923e-08
7.3480089e-08
-7.8532353e-08
8.4723743e-08
-7.971963e-08
9.8607196e-08
-8.0208629e-08
1.1569273e-07
-8.0135253e-08
1.3661062e-07
-7.9647581e-08
1.6208222e-07
-7.8891328e-08
1.9295327e-07
-7.8001025e-08
2.302363e-07
-7.7098562e-08
2.7515978e-07
-7.6298948e-08
3.2922185e-07
-7.5721254e-08
3.9424772e-07
-7.550137e-08
4.7245249e-07
-7.5804576e-08
5.6651304e-07
-7.6838043e-08
6.7965351e-07
-7.8862969e-08
8.1574701e-07
-8.2218329e-08
9.7944502e-07
-8.7341172e-08
1.1763038e-06
-9.4819782e-08
1.4129912e-06
-1.0556437e-07
1.6974796e-06
-1.2045146e-07
2.0388652e-06
-1.4235523e-07
2.4496749e-06
-1.7154162e-07
2.9384585e-06
-2.1838194e-07
3.5330097e-06
-3.0808647e-07
4.2523792e-06
-4.6032498e-07
5.1996086e-06
4.7505833e-06
-2.5593256e-11
1.8214852e-10
-1.1230831e-10
6.0963225e-10
-2.7921226e-10
1.1596044e-09
-5.4980751e-10
1.8569036e-09
-9.5285374e-10
2.7294463e-09
-1.5232023e-09
3.8078452e-09
-2.3026141e-09
5.1246063e-09
-3.3404536e-09
6.7127654e-09
-4.6940804e-09
8.6038324e-09
-6.428666e-09
1.0824958e-08
-8.6160223e-09
1.339535e-08
-1.1331893e-08
1.6322188e-08
-1.4651067e-08
1.9596586e-08
-1.8639754e-08
2.3190618e-08
-2.3344984e-08
2.705683e-08
-2.8781613e-08
3.1131928e-08
-3.4918649e-08
3.5346189e-08
-4.1667761e-08
3.9639227e-08
-4.8877659e-08
4.3981191e-08
-5.6337664e-08
4.8396497e-08
-6.3791961e-08
5.2985763e-08
-7.096354e-08
5.794143e-08
-7.7583988e-08
6.3554049e-08
-8.3423896e-08
7.0208841e-08
-8.8318675e-08
7.8374868e-08
-9.2185859e-08
8.8590942e-08
-9.5031634e-08
1.0145301e-07
-9.6946344e-08
1.1760747e-07
-9.8089923e-08
1.3775424e-07
-9.8670002e-08
1.6266233e-07
-9.8916675e-08
1.9319997e-07
-9.9059169e-08
2.3037877e-07
-9.930936e-08
2.7540998e-07
-9.9856255e-08
3.2976876e-07
-1.0087133e-07
3.9526283e-07
-1.0252314e-07
4.741043e-07
-1.0499722e-07
5.6898711e-07
-1.0852047e-07
6.8317669e-07
-1.1338665e-07
8.2061317e-07
-1.1999012e-07
9.8604844e-07
-1.288876e-07
1.1852012e-06
-1.4076659e-07
1.4248701e-06
-1.5687603e-07
1.7135889e-06
-1.7827097e-07
2.06026e-06
-2.078316e-07
2.4792352e-06
-2.4827754e-07
2.9789044e-06
-3.0840019e-07
3.5931318e-06
-4.2973666e-07
4.3737154e-06
-5.1939891e-07
5.2892703e-06
4.2311842e-06
-1.7715437e-11
1.9974492e-10
-7.8198655e-11
6.6998725e-10
-1.956777e-10
1.27696e-09
-3.8818645e-10
2.0493056e-09
-6.7846022e-10
3.0196397e-09
-1.0949685e-09
4.2243058e-09
-1.6730667e-09
5.7026926e-09
-2.4562109e-09
7.4959324e-09
-3.4971134e-09
9.6447862e-09
-4.8586244e-09
1.2186543e-08
-6.6140246e-09
1.515084e-08
-8.8462267e-09
1.8554488e-08
-1.1645254e-08
2.2395712e-08
-1.5103248e-08
2.6648705e-08
-1.9306288e-08
3.1259949e-08
-2.4322714e-08
3.6148407e-08
-3.0188391e-08
4.1211889e-08
-3.6890722e-08
4.634155e-08
-4.4354574e-08
5.1445001e-08
-5.2434301e-08
5.6476161e-08
-6.0915868e-08
6.1467247e-08
-6.9531037e-08
6.655651e-08
-7.7982687e-08
7.2005624e-08
-8.5977146e-08
7.8203242e-08
-9.3257567e-08
8.565525e-08
-9.9632538e-08
9.4965901e-08
-1.0499561e-07
1.0681611e-07
-1.0933356e-07
1.2194545e-07
-1.1272273e-07
1.4114346e-07
-1.1531526e-07
1.652549e-07
-1.1731741e-07
1.9520216e-07
-1.1896492e-07
2.3202631e-07
-1.2050098e-07
2.7694606e-07
-1.2216267e-07
3.3143049e-07
-1.2417964e-07
3.9727984e-07
-1.267849e-07
4.7670963e-07
-1.3023438e-07
5.7243664e-07
-1.3483131e-07
6.8777361e-07
-1.4095439e-07
8.2673623e-07
-1.4907513e-07
9.9416918e-07
-1.5984645e-07
1.1959725e-06
-1.7401752e-07
1.4390412e-06
-1.9280405e-07
1.7323754e-06
-2.1761708e-07
2.0850731e-06
-2.5007543e-07
2.5116934e-06
-2.9552747e-07
3.0243565e-06
-3.6273896e-07
3.6603432e-06
-4.7850787e-07
4.4894843e-06
-4.7118836e-07
5.2819507e-06
3.7599958e-06
-1.3916415e-11
2.1350782e-10
-6.1350914e-11
7.1725651e-10
-1.5356499e-10
1.3690158e-09
-3.0492332e-10
2.2005274e-09
-5.3365307e-10
3.2482666e-09
-8.6276729e-10
4.5533597e-09
-1.321155e-09
6.1610655e-09
-1.9448183e-09
8.1196236e-09
-2.7782072e-09
1.047824e-08
-3.8755378e-09
1.3283968e-08
-5.30188e-09
1.6577296e-08
-7.1336485e-09
2.0386381e-08
-9.4579606e-09
2.4720152e-08
-1.2370131e-08
2.9560995e-08
-1.5968428e-08
3.4858351e-08
-2.0345324e-08
4.0525382e-08
-2.557483e-08
4.6441443e-08
-3.1696534e-08
5.2463265e-08
-3.8698329e-08
5.8446764e-08
-4.6501436e-08
6.4279201e-08
-5.4952365e-08
6.991808e-08
-6.3825955e-08
7.5429984e-08
-7.284152e-08
8.1021072e-08
-8.1690755e-08
8.7052375e-08
-9.0072793e-08
9.40372e-08
-9.7730062e-08
1.0262311e-07
-1.0447897e-07
1.1356499e-07
-1.1023074e-07
1.2769723e-07
-1.1500005e-07
1.4591281e-07
-1.1890067e-07
1.6915557e-07
-1.2212904e-07
1.9843058e-07
-1.2493889e-07
2.3483623e-07
-1.2761215e-07
2.796194e-07
-1.3043325e-07
3.3425166e-07
-1.3367403e-07
4.0052065e-07
-1.3759368e-07
4.8062932e-07
-1.4245383e-07
5.7729682e-07
-1.4854328e-07
6.9386311e-07
-1.5621586e-07
8.3440886e-07
-1.6590901e-07
1.0038624e-06
-1.7822178e-07
1.2082853e-06
-1.9392351e-07
1.454743e-06
-2.1393846e-07
1.7523905e-06
-2.3995202e-07
2.1110868e-06
-2.7279253e-07
2.5445339e-06
-3.1891499e-07
3.0704791e-06
-3.8854921e-07
3.7299775e-06
-4.8005282e-07
4.5809881e-06
-4.1002216e-07
5.21192e-06
3.3499738e-06
-1.2384037e-11
2.2570502e-10
-5.444984e-11
7.5912131e-10
-1.3610392e-10
1.4504774e-09
-2.6994998e-10
2.3342071e-09
-4.7195207e-10
3.4501437e-09
-7.6223934e-10
4.843574e-09
-1.166064e-09
6.5648722e-09
-1.7149088e-09
8.6685018e-09
-2.4477254e-09
1.1211133e-08
-3.4122438e-09
1.4248597e-08
-4.6662139e-09
1.7831402e-08
-6.2783545e-09
2.199867e-08
-8.3285944e-09
2.6770542e-08
-1.0907033e-08
3.2139578e-08
-1.4110868e-08
3.8062315e-08
-1.8038385e-08
4.4453001e-08
-2.277929e-08
5.1182418e-08
-2.8401198e-08
5.8085206e-08
-3.4933186e-08
6.4978745e-08
-4.2348846e-08
7.1694814e-08
-5.0552813e-08
7.8121966e-08
-5.9375405e-08
8.4252465e-08
-6.8579062e-08
9.0224594e-08
-7.7877669e-08
9.635084e-08
-8.6966447e-08
1.0312585e-07
-9.5557236e-08
1.112138e-07
-1.0341286e-07
1.2142054e-07
-1.1037518e-07
1.3465951e-07
-1.1638306e-07
1.5192069e-07
-1.2147847e-07
1.7425101e-07
-1.2580024e-07
2.0275239e-07
-1.2956668e-07
2.3860273e-07
-1.3305028e-07
2.8310308e-07
-1.3655008e-07
3.3775152e-07
-1.4036903e-07
4.0433963e-07
-1.4480342e-07
4.8506372e-07
-1.5014816e-07
5.8264153e-07
-1.5671323e-07
7.0042822e-07
-1.6485531e-07
8.42551e-07
-1.7500517e-07
1.0140123e-06
-1.8768695e-07
1.2209671e-06
-2.0365745e-07
1.4707135e-06
-2.2359333e-07
1.7723264e-06
-2.490284e-07
2.1365219e-06
-2.8102214e-07
2.5765277e-06
-3.2567195e-07
3.1151291e-06
-3.9247989e-07
3.7967855e-06
-4.5477834e-07
4.6432867e-06
-3.4372111e-07
5.1008627e-06
3.0062529e-06
-1.0970415e-11
2.3645478e-10
-4.8127973e-11
7.960414e-10
-1.2024571e-10
1.5223675e-09
-2.3851273e-10
2.4522776e-09
-4.1713216e-10
3.6286158e-09
-6.7405602e-10
5.1004115e-09
-1.0318628e-09
6.9226567e-09
-1.5187813e-09
9.1554589e-09
-2.169858e-09
1.1862299e-08
-3.0282163e-09
1.5107082e-08
-4.1463232e-09
1.8949663e-08
-5.5870853e-09
2.3439601e-08
-7.4244732e-09
2.8608101e-08
-9.7432048e-09
3.4458473e-08
-1.263686e-08
4.0956116e-08
-1.6203615e-08
4.8019876e-08
-2.0538794e-08
5.5517679e-08
-2.5723683e-08
6.3270149e-08
-3.1810919e-08
7.1065993e-08
-3.8807822e-08
7.8691687e-08
-4.6660826e-08
8.5974906e-08
-5.5245254e-08
9.2836793e-08
-6.4364688e-08
9.9343897e-08
-7.3762669e-08
1.0574867e-07
-8.314639e-08
1.1250943e-07
-9.2218896e-08
1.2028618e-07
-1.0071415e-07
1.299157e-07
-1.0842913e-07
1.4237443e-07
-1.152484e-07
1.5873993e-07
-1.2115809e-07
1.8016069e-07
-1.2624786e-07
2.078422e-07
-1.3070074e-07
2.4305569e-07
-1.3477207e-07
2.8717451e-07
-1.3876156e-07
3.4174112e-07
-1.4298533e-07
4.0856343e-07
-1.4775549e-07
4.8983392e-07
-1.5337538e-07
5.8826148e-07
-1.6014996e-07
7.0720284e-07
-1.6840788e-07
8.5080892e-07
-1.7854487e-07
1.0241493e-06
-1.9100548e-07
1.2334277e-06
-2.0645267e-07
1.4861608e-06
-2.2547769e-07
1.7913514e-06
-2.4923978e-07
2.160284e-06
-2.7942454e-07
2.6067124e-06
-3.2133336e-07
3.157038e-06
-3.8024518e-07
3.8556973e-06
-4.1432478e-07
4.6773665e-06
-2.8040478e-07
4.9669426e-06
2.7258484e-06
-1.0046808e-11
2.462476e-10
-4.3953595e-11
8.2967531e-10
-1.0970377e-10
1.5878562e-09
-2.1747988e-10
2.5598283e-09
-3.802128e-10
3.7911799e-09
-6.1425578e-10
5.3343558e-09
-9.4019511e-10
7.2485709e-09
-1.3838029e-09
9.5991104e-09
-1.977133e-09
1.2455731e-08
-2.759731e-09
1.5889826e-08
-3.7798921e-09
1.9969999e-08
-5.095823e-09
2.4755723e-08
-6.7764706e-09
3.0288943e-08
-8.9016411e-09
3.6583827e-08
-1.1560845e-08
4.3615484e-08
-1.4850182e-08
5.1309348e-08
-1.8866459e-08
5.9534054e-08
-2.3697899e-08
6.8101644e-08
-2.941129e-08
7.6779404e-08
-3.6036476e-08
8.531686e-08
-4.3550407e-08
9.3488782e-08
-5.1864358e-08
1.0115065e-07
-6.081865e-08
1.0829807e-07
-7.0188249e-08
1.1511813e-07
-7.9700377e-08
1.2202141e-07
-8.9062161e-08
1.2964782e-07
-9.7993709e-08
1.3884712e-07
-1.062611e-07
1.5064172e-07
-1.1370432e-07
1.6618309e-07
-1.2025663e-07
1.8671298e-07
-1.2595339e-07
2.1353901e-07
-1.3092952e-07
2.4803191e-07
-1.3540539e-07
2.9165049e-07
-1.3966331e-07
3.4599914e-07
-1.4401918e-07
4.1291944e-07
-1.4879689e-07
4.9461171e-07
-1.5431293e-07
5.9377754e-07
-1.6087797e-07
7.1376785e-07
-1.6880686e-07
8.5873783e-07
-1.7846025e-07
1.0338028e-06
-1.9023039e-07
1.2451979e-06
-2.0464153e-07
1.500572e-06
-2.2226215e-07
1.808972e-06
-2.4396544e-07
2.1819872e-06
-2.7182833e-07
2.6345752e-06
-3.103505e-07
3.1955602e-06
-3.5899587e-07
3.9043425e-06
-3.6911747e-07
4.6874883e-06
-2.2660871e-07
4.8244336e-06
2.4992398e-06
-9.2402003e-12
2.55201e-10
-4.0308906e-11
8.6043621e-10
-1.0051839e-10
1.6477708e-09
-1.9920705e-10
2.6582625e-09
-3.4824796e-10
3.9400303e-09
-5.6267725e-10
5.548674e-09
-8.614531e-10
7.5473192e-09
-1.2683531e-09
1.000606e-08
-1.8130126e-09
1.3000504e-08
-2.5320913e-09
1.6609067e-08
-3.4705099e-09
2.0908612e-08
-4.6826484e-09
2.5968073e-08
-6.233308e-09
3.1839817e-08
-8.1981055e-09
3.8548829e-08
-1.0662826e-08
4.6080385e-08
-1.3721087e-08
5.436776e-08
-1.7469594e-08
6.3282676e-08
-2.2000257e-08
7.2632381e-08
-2.7388851e-08
8.216803e-08
-3.3680662e-08
9.1608667e-08
-4.0874802e-08
1.0068289e-07
-4.8910232e-08
1.0918601e-07
-5.7657418e-08
1.1704515e-07
-6.6919452e-08
1.2438003e-07
-7.6444578e-08
1.3154638e-07
-8.5949443e-08
1.3915252e-07
-9.5149514e-08
1.4804703e-07
-1.0379159e-07
1.5928367e-07
-1.1168345e-07
1.7407487e-07
-1.1871663e-07
1.9374615e-07
-1.2488012e-07
2.1970254e-07
-1.3026331e-07
2.5341519e-07
-1.3504794e-07
2.9643525e-07
-1.3948933e-07
3.5044066e-07
-1.4388992e-07
4.1732017e-07
-1.4857121e-07
4.9929316e-07
-1.538518e-07
5.9905823e-07
-1.6004035e-07
7.1995643e-07
-1.6743907e-07
8.6613655e-07
-1.7637098e-07
1.0427346e-06
-1.8719118e-07
1.2560181e-06
-2.0031049e-07
1.5136914e-06
-2.1626553e-07
1.824927e-06
-2.3585109e-07
2.2015728e-06
-2.6119493e-07
2.6599189e-06
-2.9578669e-07
3.2301519e-06
-3.3364958e-07
3.9422052e-06
-3.2453835e-07
4.6783771e-06
-1.8203714e-07
4.6819322e-06
2.3172026e-06
-8.6180364e-12
2.6349927e-10
-3.7474658e-11
8.8894939e-10
-9.3345113e-11
1.7033125e-09
-1.8488836e-10
2.7495226e-09
-3.2312104e-10
4.0780511e-09
-5.2200529e-10
5.7474348e-09
-7.9916322e-10
7.8244461e-09
-1.1767225e-09
1.0383674e-08
-1.6823055e-09
1.3506213e-08
-2.3501478e-09
1.727709e-08
-3.2223153e-09
2.1780995e-08
-4.3499149e-09
2.7095907e-08
-5.7941428e-09
3.328428e-08
-7.626876e-09
4.0381782e-08
-9.9303915e-09
4.8384097e-08
-1.2795648e-08
5.7233177e-08
-1.6318381e-08
6.6805535e-08
-2.0592372e-08
7.6906455e-08
-2.5699342e-08
8.727504e-08
-3.169571e-08
9.7605042e-08
-3.8597447e-08
1.0758459e-07
-4.6365482e-08
1.1695399e-07
-5.4895445e-08
1.2557501e-07
-6.4015338e-08
1.3349979e-07
-7.3493937e-08
1.4102482e-07
-8.3059946e-08
1.4871837e-07
-9.2429516e-08
1.5741644e-07
-1.0133743e-07
1.6819145e-07
-1.0956719e-07
1.8230453e-07
-1.1697592e-07
2.0115482e-07
-1.2351133e-07
2.2623797e-07
-1.2921945e-07
2.5912339e-07
-1.3424167e-07
3.0145759e-07
-1.3880128e-07
3.5500038e-07
-1.4318039e-07
4.2169943e-07
-1.4769217e-07
5.0380506e-07
-1.5265433e-07
6.0402045e-07
-1.5837365e-07
7.2567583e-07
-1.6514433e-07
8.7290727e-07
-1.732591e-07
1.0508494e-06
-1.830353e-07
1.2657943e-06
-1.9481261e-07
1.5254687e-06
-2.0907222e-07
1.8391866e-06
-2.2664244e-07
2.219143e-06
-2.4949125e-07
2.6827676e-06
-2.7979648e-07
3.2604571e-06
-3.0740206e-07
3.9698106e-06
-2.8371605e-07
4.6546912e-06
-1.4614713e-07
4.5443632e-06
2.1710554e-06
-8.0920821e-12
2.7123864e-10
-3.5067647e-11
9.1554632e-10
-8.7246008e-11
1.7551295e-09
-1.7271226e-10
2.8346775e-09
-3.0175936e-10
4.2068651e-09
-4.8744355e-10
5.9329831e-09
-7.4625874e-10
8.0832282e-09
-1.0989423e-09
1.0736418e-08
-1.5714136e-09
1.3978823e-08
-2.1958562e-09
1.790173e-08
-3.0119016e-09
2.2597275e-08
-4.0678424e-09
2.8152101e-08
-5.4217355e-09
3.4638425e-08
-7.1421367e-09
4.2102422e-08
-9.3081071e-09
5.055028e-08
-1.2007949e-08
5.9933197e-08
-1.5336011e-08
7.0133731e-08
-1.9386837e-08
8.0957376e-08
-2.4246166e-08
9.2134424e-08
-2.9978678e-08
1.0333758e-07
-3.6613467e-08
1.1421936e-07
-4.4129258e-08
1.2446973e-07
-5.2442787e-08
1.3388845e-07
-6.1403948e-08
1.4246082e-07
-7.0800749e-08
1.5042145e-07
-8.0374922e-08
1.5829237e-07
-8.9846537e-08
1.6688787e-07
-9.8943538e-08
1.7728829e-07
-1.0743168e-07
1.9079256e-07
-1.151406e-07
2.0886369e-07
-1.2198317e-07
2.3308054e-07
-1.2796632e-07
2.6510663e-07
-1.3319262e-07
3.0668398e-07
-1.378511e-07
3.5965901e-07
-1.4219856e-07
4.2604705e-07
-1.4653326e-07
5.081399e-07
-1.5116701e-07
6.0865429e-07
-1.5640333e-07
7.3091227e-07
-1.6253012e-07
8.7903409e-07
-1.6982096e-07
1.0581402e-06
-1.785593e-07
1.2745327e-06
-1.890501e-07
1.5359595e-06
-2.017307e-07
1.851867e-06
-2.1747506e-07
2.2348873e-06
-2.3799203e-07
2.7032844e-06
-2.6398781e-07
3.2864529e-06
-2.8246056e-07
3.9882832e-06
-2.482501e-07
4.6204808e-06
-1.1803261e-07
4.4141456e-06
2.0530231e-06
-7.6563752e-12
2.785088e-10
-3.305737e-11
9.4053322e-10
-8.2137882e-11
1.8038141e-09
-1.6249431e-10
2.9146934e-09
-2.8380463e-10
4.3279211e-09
-4.5835379e-10
6.1073847e-09
-7.0167497e-10
8.3265131e-09
-1.0333137e-09
1.1068123e-08
-1.4777281e-09
1.4423389e-08
-2.0653301e-09
1.8489545e-08
-2.8336383e-09
2.3365838e-08
-3.828487e-09
2.9147223e-08
-5.1051568e-09
3.591537e-08
-6.7292309e-09
4.3726751e-08
-8.7767968e-09
5.2598073e-08
-1.1333566e-08
6.2490154e-08
-1.4492235e-08
7.3292545e-08
-1.8347407e-08
8.4812656e-08
-2.2987507e-08
9.6774597e-08
-2.8483466e-08
1.0883357e-07
-3.4874803e-08
1.206107e-07
-4.2154936e-08
1.3174983e-07
-5.0258615e-08
1.4199205e-07
-5.9055093e-08
1.5125718e-07
-6.8350265e-08
1.5971647e-07
-7.7899169e-08
1.6784109e-07
-8.7427812e-08
1.7641631e-07
-9.6660955e-08
1.8652126e-07
-1.0535148e-07
1.9948297e-07
-1.1330705e-07
2.1681919e-07
-1.2041099e-07
2.4018449e-07
-1.266358e-07
2.7133153e-07
-1.3204783e-07
3.1209615e-07
-1.3680245e-07
3.6441377e-07
-1.4112906e-07
4.3037386e-07
-1.4530769e-07
5.1231873e-07
-1.4964104e-07
6.1298776e-07
-1.5442866e-07
7.3570001e-07
-1.5995321e-07
8.8455868e-07
-1.6647729e-07
1.0646643e-06
-1.7425858e-07
1.282314e-06
-1.8358592e-07
1.5452868e-06
-1.9487852e-07
1.8631595e-06
-2.0902003e-07
2.2490287e-06
-2.2740206e-07
2.7216663e-06
-2.4927207e-07
3.3083229e-06
-2.5989371e-07
3.9989046e-06
-2.1832733e-07
4.5789143e-06
-9.6343823e-08
4.292162e-06
1.9566794e-06
-7.2841105e-12
2.8537393e-10
-3.1330134e-11
9.6413019e-10
-7.7739618e-11
1.8497947e-09
-1.5368723e-10
2.9902727e-09
-2.6832e-10
4.4422792e-09
-4.3325547e-10
6.2721615e-09
-6.6319468e-10
8.5564145e-09
-9.7665091e-10
1.1381652e-08
-1.3968142e-09
1.4843716e-08
-1.9525521e-09
1.9045515e-08
-2.6795373e-09
2.4093097e-08
-3.6214399e-09
3.0089418e-08
-4.8310819e-09
3.7125303e-08
-6.3713593e-09
4.5267301e-08
-8.3156322e-09
5.4542587e-08
-1.0747131e-08
6.4921854e-08
-1.3756782e-08
7.6302354e-08
-1.7438794e-08
8.849478e-08
-2.188334e-08
1.0121922e-07
-2.7166115e-08
1.1411639e-07
-3.3335064e-08
1.2677966e-07
-4.0395889e-08
1.3881063e-07
-4.8298849e-08
1.4989496e-07
-5.6930453e-08
1.5988868e-07
-6.6113195e-08
1.6889908e-07
-7.5615339e-08
1.7734305e-07
-8.5170147e-08
1.8597091e-07
-9.4501895e-08
1.9585281e-07
-1.0335443e-07
2.0833533e-07
-1.11518e-07
2.2498263e-07
-1.1885125e-07
2.4751773e-07
-1.2529665e-07
2.7777698e-07
-1.3088769e-07
3.176873e-07
-1.3574743e-07
3.6927369e-07
-1.4007741e-07
4.3470408e-07
-1.4413727e-07
5.1637883e-07
-1.4821798e-07
6.1706862e-07
-1.5261434e-07
7.4009646e-07
-1.576053e-07
8.8954972e-07
-1.6344831e-07
1.0705073e-06
-1.703868e-07
1.2892524e-06
-1.7870304e-07
1.553603e-06
-1.8881916e-07
1.8732756e-06
-2.0158336e-07
2.2617929e-06
-2.1802887e-07
2.7381118e-06
-2.3607702e-07
3.326371e-06
-2.4009275e-07
4.0029202e-06
-1.9356957e-07
4.5323911e-06
-7.9836204e-08
4.1784285e-06
1.8768433e-06
-6.9656419e-12
2.9188707e-10
-2.9839501e-11
9.865189e-10
-7.3931183e-11
1.8934238e-09
-1.4604881e-10
3.0619928e-09
-2.5487452e-10
4.5508087e-09
-4.1144325e-10
6.4285593e-09
-6.297286e-10
8.7746586e-09
-9.2733862e-10
1.1679341e-08
-1.3263505e-09
1.5242903e-08
-1.8542743e-09
1.9573685e-08
-2.5451497e-09
2.4784264e-08
-3.4407236e-09
3.0985303e-08
-4.5916136e-09
3.8276503e-08
-6.0582961e-09
4.6734271e-08
-7.9116181e-09
5.6396163e-08
-1.0232452e-08
6.7242898e-08
-1.3109913e-08
7.917998e-08
-1.6637489e-08
9.202248e-08
-2.0906453e-08
1.0548827e-07
-2.5996146e-08
1.1920613e-07
-3.1961398e-08
1.3274494e-07
-3.8818283e-08
1.456675e-07
-4.6530564e-08
1.5760719e-07
-5.5000189e-08
1.6835822e-07
-6.4065067e-08
1.7796381e-07
-7.3506389e-08
1.8678418e-07
-8.306553e-08
1.9552984e-07
-9.2468283e-08
2.0525535e-07
-1.0145245e-07
2.1731931e-07
-1.0979464e-07
2.3332472e-07
-1.1733309e-07
2.5505617e-07
-1.2398432e-07
2.8442824e-07
-1.2975239e-07
3.2345551e-07
-1.3473043e-07
3.7425192e-07
-1.390927e-07
4.3906655e-07
-1.4307742e-07
5.2036377e-07
-1.4696197e-07
6.2095338e-07
-1.5103524e-07
7.4416992e-07
-1.5557405e-07
8.9408861e-07
-1.6083392e-07
1.0757672e-06
-1.6705484e-07
1.2954733e-06
-1.7451888e-07
1.561067e-06
-1.8366067e-07
1.8824172e-06
-1.9525574e-07
2.2733879e-06
-2.0995123e-07
2.7528071e-06
-2.2453571e-07
3.3409554e-06
-2.230567e-07
4.0014411e-06
-1.7332448e-07
4.4826588e-06
-6.7378069e-08
4.072482e-06
1.8094652e-06
-6.6880057e-12
2.980904e-10
-2.8531765e-11
1.007844e-09
-7.0585986e-11
1.9349829e-09
-1.3933331e-10
3.130315e-09
-2.4304638e-10
4.6542054e-09
-3.9224604e-10
6.5775765e-09
-6.0026323e-10
8.9826316e-09
-8.8390727e-10
1.1963067e-08
-1.2642662e-09
1.5623449e-08
-1.7676444e-09
2.0077327e-08
-2.4266297e-09
2.5443559e-08
-3.2812482e-09
3.1840253e-08
-4.3801404e-09
3.9375721e-08
-5.7815776e-09
4.8136011e-08
-7.5540928e-09
5.8168944e-08
-9.7763338e-09
6.9465357e-08
-1.2535606e-08
8.1939421e-08
-1.5924479e-08
9.5411482e-08
-2.0034825e-08
1.0959871e-07
-2.4948794e-08
1.2412017e-07
-3.0726869e-08
1.3852306e-07
-3.739398e-08
1.5233462e-07
-4.492573e-08
1.6513891e-07
-5.3237946e-08
1.7667036e-07
-6.2182812e-08
1.8690856e-07
-7.1554093e-08
1.9615526e-07
-8.1101811e-08
2.0507731e-07
-9.0554755e-08
2.1470804e-07
-9.9647061e-08
2.2641139e-07
-1.0814485e-07
2.4182235e-07
-1.1586943e-07
2.6278068e-07
-1.2271502e-07
2.9127388e-07
-1.2865979e-07
3.2940044e-07
-1.3376935e-07
3.7936173e-07
-1.3819195e-07
4.434894e-07
-1.4214428e-07
5.2431635e-07
-1.4588917e-07
6.2469846e-07
-1.4970835e-07
7.4798932e-07
-1.5387728e-07
8.9825763e-07
-1.5865242e-07
1.0805424e-06
-1.6427776e-07
1.3010985e-06
-1.7103979e-07
1.5678288e-06
-1.7938436e-07
1.8907616e-06
-1.8998732e-07
2.2839907e-06
-2.0309337e-07
2.765913e-06
-2.1456734e-07
3.3524293e-06
-2.0852957e-07
3.9954032e-06
-1.5682586e-07
4.430955e-06
-5.800616e-08
3.9736621e-06
1.7514591e-06
-6.4464355e-12
3.0401866e-10
-2.7381827e-11
1.0282246e-09
-6.7631357e-11
1.9747034e-09
-1.3338849e-10
3.1956187e-09
-2.3256238e-10
4.7530419e-09
-3.7521546e-10
6.7200351e-09
-5.7410405e-10
9.1814748e-09
-8.4532667e-10
1.2234379e-08
-1.2090891e-09
1.5987413e-08
-1.6906193e-09
2.0559138e-08
-2.3211994e-09
2.6074469e-08
-3.1393101e-09
3.2658713e-08
-4.1917968e-09
4.042855e-08
-5.534923e-09
4.9479452e-08
-7.2350875e-09
5.986938e-08
-9.3688347e-09
7.1599329e-08
-1.2021693e-08
8.4592454e-08
-1.5285191e-08
9.8675113e-08
-1.9251436e-08
1.1356505e-07
-2.4004736e-08
1.2887354e-07
-2.9610259e-08
1.4412864e-07
-3.610051e-08
1.588249e-07
-4.3461521e-08
1.7249992e-07
-5.1621662e-08
1.8483045e-07
-6.0446404e-08
1.9573318e-07
-6.9741571e-08
2.0545024e-07
-7.926613e-08
2.1460162e-07
-8.875296e-08
2.241946e-07
-9.7934433e-08
2.3559262e-07
-1.065687e-07
2.5045642e-07
-1.1446318e-07
2.7067506e-07
-1.2149307e-07
2.9830381e-07
-1.2761372e-07
3.3552124e-07
-1.3286586e-07
3.8461413e-07
-1.3737327e-07
4.4799711e-07
-1.4133152e-07
5.282749e-07
-1.4498821e-07
6.2835539e-07
-1.4861712e-07
7.5161845e-07
-1.524925e-07
9.0213308e-07
-1.5687378e-07
1.0849236e-06
-1.6201336e-07
1.3062379e-06
-1.682054e-07
1.5740207e-06
-1.7589882e-07
1.8984547e-06
-1.8565129e-07
2.293743e-06
-1.9730146e-07
2.777563e-06
-2.059876e-07
3.3611154e-06
-1.9616195e-07
3.9855775e-06
-1.4335492e-07
4.3781478e-06
-5.0949611e-08
3.8812569e-06
1.7005096e-06
-6.2330063e-12
3.0970061e-10
-2.6357568e-11
1.0477595e-09
-6.499335e-11
2.0127773e-09
-1.2807558e-10
3.2582189e-09
-2.2318451e-10
4.8477931e-09
-3.5997194e-10
6.8566173e-09
-5.5068122e-10
9.3721362e-09
-8.1076932e-10
1.2494562e-08
-1.1596504e-09
1.6336507e-08
-1.6215789e-09
2.1021364e-08
-2.2266617e-09
2.66799e-08
-3.0119769e-09
3.3444396e-08
-4.0227349e-09
4.1439669e-08
-5.3133623e-09
5.077041e-08
-6.9482782e-09
6.1504582e-08
-9.0020591e-09
7.3653342e-08
-1.1558497e-08
8.7149075e-08
-1.4707998e-08
1.0182475e-07
-1.8542639e-08
1.173998e-07
-2.3148372e-08
1.3347936e-07
-2.8594267e-08
1.495746e-07
-3.4919373e-08
1.6515005e-07
-4.2118948e-08
1.7969951e-07
-5.013271e-08
1.9284419e-07
-5.8838438e-08
2.0443881e-07
-6.8053555e-08
2.1466518e-07
-7.7546058e-08
2.2409389e-07
-8.7053739e-08
2.3370201e-07
-9.630868e-08
2.4484729e-07
-1.0506309e-07
2.5921061e-07
-1.1311301e-07
2.7872487e-07
-1.2031745e-07
3.055083e-07
-1.2661176e-07
3.4181571e-07
-1.3201432e-07
3.9001693e-07
-1.3662614e-07
4.5260925e-07
-1.4062248e-07
5.3227153e-07
-1.4423536e-07
6.3196856e-07
-1.4772994e-07
7.5511327e-07
-1.513791e-07
9.0578229e-07
-1.5544635e-07
1.0889908e-06
-1.6019479e-07
1.3109862e-06
-1.659278e-07
1.5797536e-06
-1.7308543e-07
1.9056121e-06
-1.8209462e-07
2.3027519e-06
-1.9239725e-07
2.7878654e-06
-1.9857785e-07
3.367296e-06
-1.855901e-07
3.9725897e-06
-1.322813e-07
4.324839e-06
-4.5598453e-08
3.7945741e-06
1.6549113e-06
-6.0432916e-12
3.1516039e-10
-2.5439189e-11
1.0665313e-09
-6.2621955e-11
2.0493658e-09
-1.23292e-10
3.3183799e-09
-2.1473505e-10
4.9388582e-09
-3.4623066e-10
6.9878963e-09
-5.2955748e-10
9.5554129e-09
-7.7959289e-10
1.2744699e-08
-1.1150348e-09
1.6672173e-08
-1.559256e-09
2.1465899e-08
-2.1412933e-09
2.7262304e-08
-2.896945e-09
3.4200435e-08
-3.8699302e-09
4.2413034e-08
-5.1129856e-09
5.201381e-08
-6.6886946e-09
6.3080588e-08
-8.6697759e-09
7.5634664e-08
-1.1138349e-08
8.9617836e-08
-1.4183649e-08
1.048702e-07
-1.7897519e-08
1.2111378e-07
-2.236715e-08
1.3794909e-07
-2.7664864e-08
1.5487239e-07
-3.3835385e-08
1.7132064e-07
-4.0882194e-08
1.8674634e-07
-4.8755322e-08
2.0071729e-07
-5.7343931e-08
2.1302733e-07
-6.6476524e-08
2.237976e-07
-7.5930105e-08
2.3354726e-07
-8.5447959e-08
2.4321961e-07
-9.4762996e-08
2.5416206e-07
-1.0362319e-07
2.6807056e-07
-1.1181529e-07
2.8691685e-07
-1.1918456e-07
3.1287756e-07
-1.2564874e-07
3.4828e-07
-1.3120612e-07
3.9557455e-07
-1.3593687e-07
4.5734033e-07
-1.3999673e-07
5.3633174e-07
-1.4360243e-07
6.3557456e-07
-1.470098e-07
7.5852087e-07
-1.5048987e-07
9.0926242e-07
-1.543109e-07
1.0928118e-06
-1.5874711e-07
1.3154223e-06
-1.6411026e-07
1.5851165e-06
-1.7081955e-07
1.9123211e-06
-1.7916211e-07
2.3110942e-06
-1.8820292e-07
2.796906e-06
-1.9211852e-07
3.3712115e-06
-1.7647439e-07
3.9569455e-06
-1.2307962e-07
4.2714442e-06
-4.1488078e-08
3.7129824e-06
1.6134233e-06
-5.8745398e-12
3.2041847e-10
-2.4612512e-11
1.0846104e-09
-6.0479669e-11
2.0846054e-09
-1.1896304e-10
3.3763259e-09
-2.0707915e-10
5.0265759e-09
-3.3377056e-10
7.1143591e-09
-5.10392e-10
9.7319819e-09
-7.5129447e-10
1.2985709e-08
-1.0745228e-09
1.6995638e-08
-1.5026457e-09
2.1894351e-08
-2.0637231e-09
2.7823766e-08
-2.7923846e-09
3.4929502e-08
-3.7309789e-09
4.3352023e-08
-4.9306772e-09
5.3213867e-08
-6.4523571e-09
6.4602575e-08
-8.3669852e-09
7.7549541e-08
-1.0755074e-08
9.2006116e-08
-1.3704656e-08
1.0781993e-07
-1.73072e-08
1.2471645e-07
-2.1650811e-08
1.422928e-07
-2.6810528e-08
1.600322e-07
-3.2836027e-08
1.7734622e-07
-3.9738104e-08
1.9364846e-07
-4.7476157e-08
2.0845534e-07
-5.5949993e-08
2.2150109e-07
-6.4998624e-08
2.3284608e-07
-7.4407983e-08
2.429564e-07
-8.3927167e-08
2.5273853e-07
-9.3290823e-08
2.6352542e-07
-1.0224399e-07
2.7702348e-07
-1.1056589e-07
2.9523863e-07
-1.1808999e-07
3.2040166e-07
-1.247187e-07
3.5490881e-07
-1.3043226e-07
4.0128837e-07
-1.3529174e-07
4.6220012e-07
-1.3943445e-07
5.404748e-07
-1.4306194e-07
6.3920239e-07
-1.4642056e-07
7.6187966e-07
-1.4977873e-07
9.1262068e-07
-1.5340961e-07
1.0964426e-06
-1.5759734e-07
1.3196099e-06
-1.6265991e-07
1.5901788e-06
-1.6898427e-07
1.9186452e-06
-1.7671207e-07
2.3188218e-06
-1.8455853e-07
2.8047522e-06
-1.8641331e-07
3.3730662e-06
-1.6852401e-07
3.9390562e-06
-1.1533152e-07
4.2182516e-06
-3.8273175e-08
3.6359242e-06
1.5751501e-06
-5.7231772e-12
3.254924e-10
-2.38637e-11
1.102057e-09
-5.8532651e-11
2.1186136e-09
-1.150223e-10
3.4322495e-09
-2.0010272e-10
5.1112368e-09
-3.2240652e-10
7.2364232e-09
-4.9290359e-10
9.9024239e-09
-7.2546167e-10
1.321838e-08
-1.0375273e-09
1.7307953e-08
-1.4509342e-09
2.2308105e-08
-1.9928462e-09
2.8366081e-08
-2.6968157e-09
3.5633896e-08
-3.6039276e-09
4.4259544e-08
-4.763901e-09
5.4374212e-08
-6.2360242e-09
6.6075015e-08
-8.0896143e-09
7.9403385e-08
-1.0403629e-08
9.4320328e-08
-1.326491e-08
1.1068136e-07
-1.6764419e-08
1.2821608e-07
-2.0990912e-08
1.4651941e-07
-2.602172e-08
1.6506311e-07
-3.191085e-08
1.8323544e-07
-3.8675619e-08
2.004133e-07
-4.6284004e-08
2.1606376e-07
-5.4645678e-08
2.2986272e-07
-6.3609662e-08
2.4180992e-07
-7.2970608e-08
2.5231712e-07
-8.2483695e-08
2.6225133e-07
-9.1885924e-08
2.7292738e-07
-1.0092056e-07
2.8605786e-07
-1.0936071e-07
3.0367862e-07
-1.1702973e-07
3.2807064e-07
-1.2381643e-07
3.6169565e-07
-1.2968505e-07
4.0715722e-07
-1.3467903e-07
4.671944e-07
-1.3891845e-07
5.4471456e-07
-1.4259015e-07
6.428744e-07
-1.4593055e-07
7.6522027e-07
-1.4920508e-07
9.158953e-07
-1.5269098e-07
1.0999285e-06
-1.5668087e-07
1.3235996e-06
-1.6149482e-07
1.5949926e-06
-1.6747819e-07
1.9246283e-06
-1.7462388e-07
2.3259672e-06
-1.8132965e-07
2.8114577e-06
-1.8129793e-07
3.3730344e-06
-1.6150079e-07
3.9192591e-06
-1.0871051e-07
4.1654613e-06
-3.5700192e-08
3.5629139e-06
1.53945e-06
-5.5872682e-12
3.3039735e-10
-2.3181967e-11
1.1189232e-09
-5.6753153e-11
2.1514916e-09
-1.1141393e-10
3.486317e-09
-1.9370765e-10
5.193092e-09
-3.1198416e-10
7.35445e-09
-4.7685812e-10
1.0067242e-08
-7.0175441e-10
1.3443396e-08
-1.0035705e-09
1.761003e-08
-1.4034623e-09
2.2708358e-08
-1.9277643e-09
2.8890804e-08
-2.6090375e-09
3.6315609e-08
-3.4871915e-09
4.5138124e-08
-4.6106001e-09
5.5498006e-08
-6.0370598e-09
6.7501803e-08
-7.8343305e-09
8.1200919e-08
-1.0079885e-08
9.6566085e-08
-1.2859369e-08
1.13461e-07
-1.6263163e-08
1.3162e-07
-2.0380466e-08
1.5063683e-07
-2.5290513e-08
1.6997327e-07
-3.10511e-08
1.8899614e-07
-3.7685433e-08
2.0704772e-07
-4.5169323e-08