/*--------------------------------*- C++ -*----------------------------------*\
| =========                 |                                                 |
| \\      /  F ield         | OpenFOAM: The Open Source CFD Toolbox           |
|  \\    /   O peration     | Version:  4.0                                   |
|   \\  /    A nd           | Web:      www.OpenFOAM.org                      |
|    \\/     M anipulation  |                                                 |
\*---------------------------------------------------------------------------*/
FoamFile
{
    version     2.0;
    format      ascii;
    class       volScalarField;
    location    "867";
    object      Qr;
}
// * * * * * * * * * * * * * * * * * * * * * * * * * * * * * * * * * * * * * //

dimensions      [1 0 -3 0 0 0 0];

internalField   uniform 0;

boundaryField
{
    LeftWedge
    {
        type            wedge;
    }
    RightWedge
    {
        type            wedge;
    }
    Inlet
    {
        type            calculated;
        value           nonuniform List<scalar> 
50
(
15.411489
15.41149
15.411491
15.411494
15.411497
15.4115
15.411504
15.411508
15.411512
15.411515
15.411518
15.41152
15.411521
15.411521
15.411521
15.41152
15.411519
15.411518
15.411516
15.411515
15.411513
15.411512
15.411511
15.41151
15.411509
15.411509
15.411508
15.411508
15.411508
15.411508
15.411508
15.411508
15.411507
15.411507
15.411507
15.411507
15.411507
15.411507
15.411507
15.411507
15.411506
15.411506
15.411506
15.411506
15.411506
15.411505
15.411505
15.411505
15.411505
15.411502
)
;
    }
    Outlet
    {
        type            calculated;
        value           nonuniform List<scalar> 
50
(
-607.27544
-593.66938
-579.23751
-563.96825
-547.85443
-530.89338
-513.087
-494.44191
-474.96968
-454.68741
-433.61884
-411.79601
-389.26156
-366.07166
-342.29908
-318.03623
-293.39749
-268.52066
-243.56729
-218.72205
-194.19123
-170.20025
-146.98966
-124.80894
-103.90699
-84.519383
-66.852665
-51.067555
-37.26363
-25.46853
-15.634326
-7.6424625
-1.3162482
3.5598395
7.2192791
9.8939505
11.798574
13.120572
14.015369
14.606168
14.986763
15.225987
15.372674
15.460378
15.511459
15.540358
15.5561
15.564114
15.567554
15.568334
)
;
    }
    Outterwall
    {
        type            calculated;
        value           nonuniform List<scalar> 
100
(
15.412351
15.414028
15.415701
15.41738
15.419059
15.42074
15.422422
15.424104
15.425786
15.427469
15.42915
15.430832
15.432514
15.434195
15.435876
15.437557
15.439238
15.440919
15.4426
15.444281
15.445962
15.447643
15.449324
15.451005
15.452686
15.454367
15.456048
15.457729
15.45941
15.461091
15.462772
15.464453
15.466133
15.467814
15.469495
15.471175
15.472856
15.474536
15.476216
15.477895
15.479575
15.481254
15.482933
15.484611
15.486288
15.487965
15.489641
15.491317
15.492991
15.494664
15.496336
15.498006
15.499674
15.501341
15.503005
15.504667
15.506327
15.507983
15.509637
15.511287
15.512933
15.514575
15.516213
15.517845
15.519473
15.521094
15.52271
15.524319
15.52592
15.527514
15.5291
15.530677
15.532245
15.533802
15.535349
15.536885
15.538409
15.53992
15.541418
15.542901
15.54437
15.545822
15.547258
15.548677
15.550077
15.551457
15.552818
15.554156
15.555473
15.556766
15.558034
15.559277
15.560492
15.56168
15.562838
15.563965
15.565059
15.566121
15.567143
15.568334
)
;
    }
    fluid_to_cencil
    {
        type            calculated;
        value           nonuniform List<scalar> 
100
(
-333.05553
-426.83444
-451.41021
-463.97728
-472.98142
-480.02855
-485.81134
-490.6753
-494.86101
-498.5229
-501.77181
-504.68667
-507.32645
-509.73592
-511.94997
-513.99625
-515.89702
-517.67051
-519.33177
-520.8934
-522.36602
-523.7587
-525.07921
-526.33425
-527.52966
-528.67055
-529.7614
-530.80619
-531.80843
-532.77128
-533.69753
-534.58972
-535.45013
-536.28081
-537.08365
-537.86034
-538.61244
-539.34137
-540.04844
-540.73484
-541.40169
-542.05001
-542.68073
-543.29474
-543.89285
-544.47582
-545.04435
-545.5991
-546.14069
-546.66968
-547.18663
-547.69203
-548.18636
-548.67007
-549.14358
-549.60729
-550.06157
-550.50679
-550.94326
-551.37131
-551.79125
-552.20335
-552.60788
-553.00512
-553.39529
-553.77863
-554.15537
-554.52571
-554.88986
-555.24801
-555.60035
-555.94704
-556.28827
-556.62418
-556.95493
-557.28067
-557.60155
-557.91769
-558.22924
-558.5363
-558.83901
-559.13748
-559.43181
-559.72213
-560.00853
-560.2911
-560.56995
-560.84517
-561.11685
-561.38507
-561.64993
-561.91152
-562.16992
-562.42551
-562.67769
-562.93272
-563.17286
-563.53907
-563.5708
-566.76756
)
;
    }
}


// ************************************************************************* //
