/*--------------------------------*- C++ -*----------------------------------*\
| =========                 |                                                 |
| \\      /  F ield         | OpenFOAM: The Open Source CFD Toolbox           |
|  \\    /   O peration     | Version:  4.0                                   |
|   \\  /    A nd           | Web:      www.OpenFOAM.org                      |
|    \\/     M anipulation  |                                                 |
\*---------------------------------------------------------------------------*/
FoamFile
{
    version     2.0;
    format      ascii;
    class       volScalarField;
    location    "867";
    object      rho;
}
// * * * * * * * * * * * * * * * * * * * * * * * * * * * * * * * * * * * * * //

dimensions      [1 -3 0 0 0 0 0];

internalField   nonuniform List<scalar> 
5000
(
1.0985265
1.104031
1.1099234
1.1161767
1.1227481
1.1295765
1.1365827
1.1436698
1.1507261
1.1576294
1.1642544
1.1704802
1.1761996
1.1813274
1.1858072
1.1896149
1.1927588
1.1952767
1.1972294
1.1986926
1.1997495
1.2004828
1.2009694
1.2012762
1.2014587
1.2015598
1.2016112
1.2016345
1.2016435
1.2016461
1.2016464
1.201646
1.2016458
1.2016456
1.2016455
1.2016455
1.2016455
1.2016455
1.2016455
1.2016455
1.2016455
1.2016455
1.2016455
1.2016455
1.2016455
1.2016455
1.2016455
1.2016455
1.2016455
1.2016455
1.0761806
1.0803652
1.084883
1.0897566
1.0950067
1.1006498
1.1066941
1.1131363
1.1199557
1.1271096
1.1345289
1.1421149
1.1497396
1.1572508
1.1644809
1.1712614
1.1774396
1.1828953
1.1875542
1.1913938
1.1944426
1.196771
1.1984783
1.1996771
1.200481
1.2009936
1.2013027
1.2014777
1.2015698
1.2016143
1.2016337
1.2016411
1.2016434
1.201644
1.2016441
1.2016441
1.201644
1.201644
1.201644
1.201644
1.201644
1.201644
1.201644
1.201644
1.201644
1.201644
1.201644
1.201644
1.201644
1.201644
1.0706775
1.0745336
1.0786879
1.0831565
1.0879548
1.0930968
1.0985935
1.1044516
1.1106707
1.1172395
1.124132
1.1313024
1.1386799
1.1461659
1.1536333
1.1609312
1.1678944
1.1743589
1.1801805
1.185252
1.1895163
1.1929707
1.1956622
1.1976763
1.1991212
1.2001125
1.2007607
1.201163
1.2013984
1.2015274
1.2015928
1.2016232
1.2016359
1.2016406
1.2016421
1.2016425
1.2016425
1.2016425
1.2016425
1.2016425
1.2016425
1.2016425
1.2016425
1.2016425
1.2016425
1.2016425
1.2016425
1.2016425
1.2016425
1.2016425
1.0679151
1.0716078
1.075584
1.0798581
1.0844439
1.0893534
1.0945964
1.1001788
1.1061014
1.1123575
1.1189301
1.1257888
1.1328854
1.1401507
1.1474914
1.1547891
1.1619042
1.1686839
1.1749754
1.1806429
1.1855842
1.189744
1.1931185
1.1957519
1.197726
1.1991451
1.2001211
1.2007613
1.2011602
1.2013947
1.2015238
1.2015899
1.2016208
1.2016339
1.2016389
1.2016405
1.2016409
1.201641
1.201641
1.201641
1.201641
1.201641
1.201641
1.201641
1.201641
1.201641
1.201641
1.201641
1.201641
1.201641
1.0659566
1.0695339
1.0733847
1.0775229
1.0819618
1.0867131
1.0917864
1.0971882
1.1029203
1.1089783
1.1153491
1.1220085
1.1289179
1.1360211
1.1432415
1.1504807
1.1576188
1.1645189
1.1710362
1.1770306
1.1823824
1.1870076
1.1908674
1.193972
1.196375
1.198162
1.1994369
1.2003071
1.2008738
1.2012241
1.2014285
1.2015401
1.2015966
1.2016228
1.2016337
1.2016378
1.2016391
1.2016394
1.2016395
1.2016395
1.2016395
1.2016395
1.2016395
1.2016395
1.2016395
1.2016395
1.2016395
1.2016395
1.2016395
1.2016395
1.0644356
1.0679234
1.071677
1.0757102
1.0800359
1.0846657
1.0896094
1.094874
1.1004625
1.1063723
1.1125934
1.1191058
1.1258769
1.1328584
1.1399841
1.1471673
1.1543011
1.1612607
1.1679096
1.1741099
1.1797358
1.184688
1.1889058
1.1923743
1.1951234
1.1972202
1.1987572
1.1998378
1.2005647
1.2010308
1.2013143
1.2014768
1.2015638
1.2016068
1.2016262
1.201634
1.2016369
1.2016377
1.201638
1.201638
1.201638
1.201638
1.201638
1.201638
1.201638
1.201638
1.201638
1.201638
1.201638
1.201638
1.063195
1.0666098
1.0702845
1.0742322
1.0784657
1.0829966
1.0878349
1.0929879
1.0984595
1.1042488
1.1103479
1.1167402
1.1233977
1.1302782
1.1373227
1.1444535
1.1515729
1.1585652
1.1653012
1.1716463
1.1774724
1.1826713
1.187168
1.1909288
1.1939648
1.1963265
1.1980947
1.1993666
1.200244
1.2008227
1.2011862
1.2014024
1.2015232
1.201586
1.201616
1.2016291
1.2016341
1.2016359
1.2016364
1.2016365
1.2016365
1.2016365
1.2016365
1.2016365
1.2016365
1.2016365
1.2016365
1.2016365
1.2016365
1.2016365
1.0621567
1.0655105
1.0691191
1.0729954
1.077152
1.0816002
1.0863503
1.0914099
1.0967836
1.1024715
1.1084676
1.1147579
1.1213179
1.1281103
1.1350819
1.1421619
1.1492603
1.1562689
1.1630646
1.1695165
1.1754958
1.1808892
1.1856109
1.1896135
1.1928923
1.1954837
1.197457
1.1989028
1.1999203
1.2006067
1.2010488
1.2013195
1.2014761
1.2015608
1.2016033
1.2016228
1.2016308
1.2016338
1.2016347
1.201635
1.201635
1.201635
1.201635
1.201635
1.201635
1.201635
1.201635
1.201635
1.201635
1.201635
1.0612668
1.0645685
1.0681205
1.0719357
1.0760263
1.0804039
1.0850783
1.0900578
1.0953473
1.1009478
1.1068548
1.1130563
1.1195308
1.1262446
1.1331495
1.1401804
1.1472536
1.1542675
1.1611044
1.1676372
1.1737377
1.1792889
1.1841975
1.1884048
1.1918935
1.194687
1.1968444
1.1984493
1.1995975
1.2003863
1.200905
1.2012302
1.2014236
1.2015317
1.201588
1.201615
1.2016268
1.2016314
1.2016329
1.2016334
1.2016335
1.2016335
1.2016335
1.2016335
1.2016335
1.2016335
1.2016335
1.2016335
1.2016335
1.2016335
1.060491
1.0637473
1.0672501
1.071012
1.0750452
1.0793611
1.0839698
1.0888793
1.0940952
1.0996192
1.1054479
1.1115709
1.1179691
1.1246121
1.1314554
1.138439
1.1454846
1.1524961
1.1593612
1.1659561
1.1721541
1.1778358
1.1829023
1.187286
1.1909584
1.1939321
1.1962562
1.1980074
1.1992779
1.2001641
1.200757
1.2011361
1.2013666
1.2014991
1.2015703
1.2016058
1.201622
1.2016286
1.201631
1.2016318
1.201632
1.201632
1.201632
1.201632
1.201632
1.201632
1.201632
1.201632
1.201632
1.201632
1.0598049
1.063021
1.0664802
1.0701951
1.0741777
1.0784391
1.0829895
1.0878371
1.0929878
1.0984439
1.1042028
1.1102556
1.1165851
1.1231635
1.1299499
1.1368881
1.1439048
1.1509088
1.1577925
1.1644357
1.1707131
1.1765044
1.1817062
1.1862437
1.1900789
1.1932145
1.1956907
1.1975774
1.1989627
1.1999417
1.2006062
1.2010382
1.2013061
1.2014635
1.2015505
1.2015952
1.2016164
1.2016255
1.2016289
1.2016301
1.2016304
1.2016305
1.2016305
1.2016305
1.2016305
1.2016305
1.2016305
1.2016305
1.2016305
1.2016305
1.0591909
1.0623711
1.0657914
1.0694643
1.0734015
1.0776142
1.0821125
1.0869048
1.091997
1.0973921
1.1030882
1.1090775
1.1153446
1.1218638
1.1285972
1.1354921
1.1424794
1.1494724
1.1563676
1.1630484
1.1693914
1.1752758
1.1805948
1.1852677
1.1892484
1.1925307
1.1951466
1.1971592
1.1986525
1.19972
1.2004537
1.2009376
1.2012426
1.2014253
1.2015287
1.2015833
1.20161
1.2016219
1.2016267
1.2016284
1.2016289
1.201629
1.201629
1.201629
1.201629
1.201629
1.201629
1.201629
1.201629
1.201629
1.0586362
1.0617839
1.0651692
1.0688041
1.0727004
1.0768691
1.0813204
1.0860626
1.091102
1.0964418
1.1020808
1.1080124
1.1142223
1.1206869
1.1273708
1.1342245
1.1411824
1.1481618
1.1550633
1.1617736
1.1681712
1.1741353
1.1795568
1.1843498
1.1884615
1.1918776
1.1946223
1.1967525
1.1983479
1.1994997
1.2003004
1.2008349
1.2011767
1.201385
1.2015051
1.2015702
1.2016029
1.201618
1.2016242
1.2016265
1.2016273
1.2016275
1.2016275
1.2016275
1.2016275
1.2016275
1.2016275
1.2016275
1.2016275
1.2016275
1.0581309
1.0612492
1.0646025
1.0682029
1.0720619
1.0761906
1.080599
1.0852956
1.0902869
1.0955762
1.1011631
1.1070416
1.1131989
1.1196129
1.1262504
1.1330647
1.1399936
1.1469578
1.1538616
1.1605949
1.1670382
1.1730713
1.178583
1.1834835
1.1877138
1.1912525
1.1941166
1.1963569
1.1980489
1.1992815
1.2001467
1.2007308
1.2011089
1.2013427
1.2014799
1.2015558
1.201595
1.2016135
1.2016215
1.2016246
1.2016256
1.2016259
1.201626
1.201626
1.201626
1.201626
1.201626
1.201626
1.201626
1.201626
1.0576675
1.0607587
1.0640828
1.0676515
1.0714764
1.0755684
1.0799376
1.0845924
1.0895394
1.0947823
1.1003212
1.1061508
1.1122593
1.1186261
1.1252201
1.131997
1.1388973
1.1458452
1.1527483
1.1594994
1.1659814
1.1720744
1.1776661
1.1826632
1.1870015
1.1906531
1.1936283
1.1959721
1.1977557
1.1990657
1.1999933
1.2006256
1.2010396
1.2012989
1.2014534
1.2015404
1.2015863
1.2016087
1.2016186
1.2016226
1.201624
1.2016244
1.2016245
1.2016245
1.2016245
1.2016245
1.2016245
1.2016245
1.2016245
1.2016245
1.05724
1.0603063
1.0636033
1.0671429
1.0709363
1.0749945
1.0793274
1.0839437
1.0888498
1.0940499
1.0995444
1.1053286
1.1113917
1.1177145
1.1242674
1.1310085
1.1378809
1.1448118
1.1517118
1.1584767
1.1649914
1.1711368
1.1767999
1.1818845
1.1863215
1.1900775
1.1931564
1.1955977
1.1974684
1.1988525
1.1998404
1.2005199
1.2009691
1.2012537
1.2014257
1.2015241
1.201577
1.2016034
1.2016155
1.2016204
1.2016223
1.2016228
1.201623
1.201623
1.201623
1.201623
1.201623
1.201623
1.201623
1.201623
1.0568434
1.0598866
1.0631587
1.0666712
1.0704355
1.0744623
1.0787617
1.0833421
1.0882104
1.0933707
1.0988238
1.1045658
1.1105864
1.1168679
1.1233821
1.1300889
1.1369342
1.1438476
1.1507427
1.157518
1.1640605
1.1702521
1.1759792
1.1811432
1.185671
1.1895237
1.1926998
1.1952332
1.1971868
1.1986421
1.1996884
1.2004138
1.2008977
1.2012074
1.2013969
1.2015069
1.201567
1.2015977
1.2016121
1.2016182
1.2016205
1.2016213
1.2016215
1.2016215
1.2016215
1.2016215
1.2016215
1.2016215
1.2016215
1.2016215
1.056474
1.0594957
1.0627444
1.0662318
1.0699689
1.0739666
1.0782347
1.0827818
1.0876147
1.092738
1.0981525
1.1038549
1.1098358
1.1160782
1.1225557
1.1292299
1.1360487
1.1429444
1.1498333
1.1566163
1.1631824
1.1694149
1.1751996
1.180436
1.1850475
1.1889904
1.1922576
1.1948782
1.196911
1.1984347
1.1995375
1.2003077
1.2008256
1.2011603
1.2013672
1.2014889
1.2015565
1.2015916
1.2016085
1.2016158
1.2016187
1.2016197
1.20162
1.20162
1.20162
1.20162
1.20162
1.20162
1.20162
1.20162
1.0561284
1.05913
1.0623569
1.0658207
1.0695325
1.0735029
1.0777418
1.0822577
1.0870576
1.0921461
1.0975244
1.1031897
1.1091331
1.1153388
1.1217815
1.1284244
1.1352175
1.1420954
1.1489769
1.1557653
1.1623517
1.1686204
1.1744572
1.1797599
1.1844489
1.1884759
1.191829
1.1945323
1.1966407
1.1982302
1.1993879
1.2002017
1.2007531
1.2011124
1.2013367
1.2014702
1.2015454
1.2015851
1.2016046
1.2016133
1.2016168
1.201618
1.2016184
1.2016185
1.2016185
1.2016185
1.2016185
1.2016185
1.2016185
1.2016185
1.0558039
1.0587866
1.0619931
1.0654348
1.0691228
1.0730676
1.0772791
1.0817657
1.0865346
1.0915904
1.0969347
1.102565
1.1084731
1.114644
1.1210535
1.1276665
1.1344346
1.1412947
1.1481679
1.1549599
1.1615636
1.1678646
1.1737487
1.1791124
1.1838733
1.187979
1.1914131
1.1941951
1.1963758
1.1980288
1.1992395
1.200096
1.2006802
1.2010638
1.2013055
1.2014509
1.2015338
1.2015783
1.2016005
1.2016107
1.2016148
1.2016164
1.2016169
1.201617
1.201617
1.201617
1.201617
1.201617
1.201617
1.201617
1.0554982
1.0584632
1.0616505
1.0650714
1.068737
1.0726577
1.0768433
1.0813024
1.0860421
1.0910671
1.0963793
1.1019765
1.1078512
1.113989
1.1203669
1.1269512
1.1336951
1.1405375
1.1474018
1.1541957
1.1608142
1.167144
1.1730712
1.1784912
1.1833189
1.1874986
1.1910092
1.1938661
1.1961162
1.1978303
1.1990927
1.1999907
1.2006072
1.2010148
1.2012737
1.201431
1.2015218
1.2015711
1.2015962
1.2016079
1.2016128
1.2016147
1.2016153
1.2016155
1.2016155
1.2016155
1.2016155
1.2016155
1.2016155
1.2016155
1.0552094
1.0581576
1.0613268
1.0647281
1.0683725
1.0722705
1.0764317
1.0808648
1.0855768
1.0905727
1.0958546
1.1014205
1.1072634
1.1133698
1.1197176
1.1262742
1.1329946
1.1398196
1.1466744
1.153469
1.1601001
1.1664557
1.1724222
1.1778942
1.1827844
1.1870335
1.1906167
1.1935449
1.1958616
1.1976349
1.1989472
1.1998859
1.200534
1.2009654
1.2012415
1.2014106
1.2015093
1.2015637
1.2015917
1.201605
1.2016108
1.201613
1.2016138
1.201614
1.201614
1.201614
1.201614
1.201614
1.201614
1.201614
1.0549359
1.0578682
1.0610201
1.0644029
1.0680273
1.0719037
1.0760418
1.0804503
1.0851362
1.0901045
1.0953576
1.1008937
1.1067065
1.1127829
1.1191018
1.1256319
1.1323295
1.1391372
1.1459821
1.1527762
1.1594181
1.1657969
1.1717995
1.1773196
1.1822682
1.1865828
1.1902349
1.1932313
1.195612
1.1974423
1.1988033
1.1997817
1.2004609
1.2009157
1.2012088
1.2013898
1.2014964
1.2015559
1.2015869
1.201602
1.2016086
1.2016113
1.2016122
1.2016125
1.2016125
1.2016125
1.2016125
1.2016125
1.2016125
1.2016125
1.0546761
1.0575933
1.060729
1.0640941
1.0676995
1.0715555
1.0756717
1.0800568
1.0847178
1.08966
1.0948856
1.1003935
1.1061775
1.1122254
1.1185166
1.125021
1.1316965
1.1384871
1.1453219
1.1521146
1.1587656
1.1651652
1.1712009
1.1767659
1.1817692
1.1861457
1.1898631
1.1929248
1.195367
1.1972526
1.1986609
1.1996781
1.2003878
1.2008658
1.2011757
1.2013686
1.2014832
1.2015478
1.201582
1.2015988
1.2016064
1.2016095
1.2016106
1.2016109
1.201611
1.201611
1.201611
1.201611
1.201611
1.201611
1.0544289
1.0573318
1.0604519
1.0638003
1.0673876
1.0712241
1.0753195
1.0796823
1.0843197
1.089237
1.0944365
1.0999174
1.105674
1.1116944
1.1179592
1.124439
1.1310929
1.1378667
1.1446911
1.1514816
1.1581403
1.1645587
1.1706249
1.1762315
1.1812862
1.1857213
1.189501
1.1926251
1.1951266
1.1970657
1.1985201
1.1995751
1.2003149
1.2008157
1.2011424
1.2013471
1.2014697
1.2015395
1.2015769
1.2015956
1.2016041
1.2016077
1.201609
1.2016094
1.2016095
1.2016095
1.2016096
1.2016096
1.2016096
1.2016096
1.0541931
1.0570824
1.0601877
1.0635201
1.0670902
1.0709082
1.0749837
1.0793253
1.0839402
1.0888336
1.0940083
1.0994634
1.1051937
1.1111879
1.1174272
1.1238832
1.1305163
1.1372735
1.1440873
1.150875
1.15754
1.1639754
1.1700697
1.1757152
1.1808183
1.1853088
1.189148
1.192332
1.1948906
1.1968815
1.1983807
1.1994729
1.2002421
1.2007654
1.2011087
1.2013252
1.2014559
1.201531
1.2015716
1.2015922
1.2016018
1.2016058
1.2016074
1.2016079
1.201608
1.201608
1.2016081
1.2016081
1.2016081
1.2016081
1.0539679
1.056844
1.0599353
1.0632524
1.066806
1.0706064
1.0746629
1.0789843
1.0835776
1.0884483
1.0935991
1.0990296
1.1047348
1.1107038
1.1169185
1.1233515
1.1299643
1.1367053
1.1435084
1.1502926
1.156963
1.1634137
1.1695339
1.1752159
1.1803646
1.1849077
1.1888035
1.192045
1.1946589
1.1967
1.1982429
1.1993713
1.2001695
1.2007151
1.2010748
1.2013031
1.2014418
1.2015222
1.2015662
1.2015887
1.2015994
1.201604
1.2016057
1.2016063
1.2016065
1.2016065
1.2016066
1.2016066
1.2016066
1.2016066
1.0537522
1.0566159
1.0596937
1.0629962
1.0665341
1.0703175
1.0743559
1.0786579
1.0832306
1.0880795
1.0932076
1.0986145
1.1042955
1.1102403
1.1164313
1.1228421
1.1294352
1.1361602
1.1429526
1.1497328
1.1564075
1.1628721
1.1690163
1.1747324
1.1799241
1.1845173
1.1884673
1.1917641
1.1944312
1.1965211
1.1981065
1.1992705
1.2000972
1.2006647
1.2010408
1.2012807
1.2014275
1.2015132
1.2015606
1.2015851
1.2015969
1.2016021
1.2016041
1.2016048
1.201605
1.201605
1.2016051
1.2016051
1.2016051
1.2016051
1.0535455
1.0563973
1.059462
1.0627506
1.0662734
1.0700406
1.0740616
1.078345
1.082898
1.0877261
1.0928323
1.0982164
1.1038742
1.1097957
1.115964
1.1223533
1.1289272
1.1356365
1.1424181
1.1491939
1.1558721
1.1623492
1.1685157
1.1742637
1.1794962
1.184137
1.1881389
1.1914888
1.1942074
1.1963447
1.1979717
1.1991705
1.2000251
1.2006143
1.2010065
1.201258
1.2014129
1.201504
1.2015548
1.2015814
1.2015944
1.2016001
1.2016024
1.2016032
1.2016035
1.2016035
1.2016036
1.2016036
1.2016036
1.2016036
1.0533471
1.0561873
1.0592397
1.0625148
1.0660232
1.0697748
1.0737791
1.0780447
1.0825787
1.0873868
1.0924719
1.0978343
1.1034698
1.1093688
1.1155151
1.1218836
1.1284388
1.1351327
1.1419034
1.1486746
1.1553554
1.1618439
1.1680311
1.1738091
1.1790801
1.1837663
1.1878179
1.191219
1.1939874
1.1961707
1.1978382
1.1990711
1.1999533
1.2005639
1.2009721
1.2012352
1.2013982
1.2014946
1.2015489
1.2015776
1.2015917
1.2015981
1.2016007
1.2016017
1.201602
1.201602
1.2016021
1.2016021
1.2016021
1.2016021
1.0531562
1.0559855
1.0590259
1.0622881
1.0657826
1.0695193
1.0735076
1.077756
1.0822718
1.0870606
1.0921255
1.0974669
1.1030809
1.1089583
1.1150833
1.1214316
1.1279686
1.1346473
1.1414073
1.1481734
1.1548563
1.161355
1.1675614
1.1733677
1.1786753
1.1834047
1.187504
1.1909544
1.1937711
1.1959992
1.1977062
1.1989725
1.1998818
1.2005135
1.2009376
1.2012122
1.2013832
1.2014851
1.2015429
1.2015737
1.2015891
1.2015961
1.201599
1.2016001
1.2016004
1.2016005
1.2016006
1.2016006
1.2016006
1.2016006
1.0529725
1.0557911
1.05882
1.0620699
1.065551
1.0692733
1.0732462
1.0774781
1.0819764
1.0867466
1.0917921
1.0971133
1.1027065
1.108563
1.1146674
1.1209961
1.1275153
1.1341793
1.1409285
1.1476893
1.1543736
1.1608815
1.1671058
1.1729387
1.1782811
1.1830518
1.1871969
1.1906949
1.1935583
1.1958299
1.1975756
1.1988747
1.1998107
1.2004632
1.200903
1.201189
1.2013681
1.2014754
1.2015367
1.2015697
1.2015863
1.2015941
1.2015973
1.2015985
1.2015989
1.201599
1.2015991
1.2015991
1.2015991
1.2015991
1.0527954
1.0556038
1.0586217
1.0618595
1.0653278
1.0690362
1.0729942
1.0772103
1.0816917
1.086444
1.0914707
1.0967724
1.1023456
1.1081819
1.1142664
1.1205761
1.127078
1.1337273
1.1404659
1.1472211
1.1539062
1.1604226
1.1666635
1.1725216
1.1778969
1.1827071
1.1868962
1.1904402
1.1933489
1.1956629
1.1974464
1.1987776
1.1997398
1.2004129
1.2008683
1.2011657
1.2013528
1.2014656
1.2015304
1.2015656
1.2015835
1.201592
1.2015956
1.2015969
1.2015974
1.2015975
1.2015976
1.2015976
1.2015976
1.2015976
1.0526245
1.055423
1.0584302
1.0616566
1.0651124
1.0688074
1.0727511
1.0769519
1.0814169
1.086152
1.0911607
1.0964435
1.1019973
1.107814
1.1138792
1.1201704
1.1266555
1.1332905
1.1400185
1.1467679
1.1534534
1.1599773
1.1662338
1.1721156
1.1775223
1.1823704
1.1866018
1.1901901
1.1931428
1.1954981
1.1973185
1.1986813
1.1996693
1.2003628
1.2008336
1.2011423
1.2013373
1.2014556
1.201524
1.2015614
1.2015807
1.2015898
1.2015938
1.2015953
1.2015959
1.201596
1.2015961
1.2015961
1.2015961
1.2015961
1.0524594
1.0552484
1.0582453
1.0614605
1.0649043
1.0685865
1.0725163
1.0767023
1.0811516
1.08587
1.0908611
1.0961257
1.1016608
1.1074586
1.113505
1.1197783
1.1262469
1.1328679
1.1395853
1.1463288
1.1530143
1.159545
1.165816
1.1717202
1.1771568
1.1820411
1.1863132
1.1899445
1.1929398
1.1953354
1.1971919
1.1985857
1.1995991
1.2003127
1.2007988
1.2011187
1.2013217
1.2014454
1.2015175
1.2015572
1.2015778
1.2015877
1.201592
1.2015937
1.2015943
1.2015945
1.2015946
1.2015946
1.2015946
1.2015946
1.0522997
1.0550795
1.0580664
1.0612709
1.0647031
1.0683728
1.0722893
1.0764609
1.080895
1.0855973
1.0905715
1.0958185
1.1013354
1.1071148
1.1131431
1.1193989
1.1258515
1.1324587
1.1391656
1.1459031
1.152588
1.1591249
1.1654095
1.1713349
1.1768
1.1817191
1.1860304
1.1897032
1.19274
1.1951748
1.1970666
1.1984908
1.1995293
1.2002627
1.2007639
1.201095
1.201306
1.2014352
1.2015108
1.2015528
1.2015748
1.2015855
1.2015902
1.2015921
1.2015928
1.201593
1.201593
1.2015931
1.2015931
1.2015931
1.0521451
1.054916
1.0578933
1.0610874
1.0645084
1.068166
1.0720695
1.0762273
1.0806467
1.0853334
1.0902912
1.0955211
1.1010205
1.1067821
1.1127927
1.1190315
1.1254684
1.1320621
1.1387585
1.1454898
1.152174
1.1587164
1.1650136
1.1709591
1.1764515
1.1814039
1.1857531
1.189466
1.1925431
1.1950162
1.1969426
1.1983967
1.1994599
1.2002128
1.2007291
1.2010713
1.2012902
1.2014248
1.2015041
1.2015484
1.2015718
1.2015832
1.2015884
1.2015905
1.2015912
1.2015915
1.2015915
1.2015916
1.2015916
1.2015916
1.0519954
1.0547576
1.0577256
1.0609096
1.0643197
1.0679657
1.0718567
1.0760011
1.0804062
1.0850778
1.0900197
1.095233
1.1007153
1.1064596
1.1124531
1.1186753
1.1250969
1.1316773
1.1383635
1.1450885
1.1517715
1.1583189
1.1646279
1.1705925
1.1761109
1.1810953
1.185481
1.1892329
1.1923492
1.1948596
1.1968199
1.1983032
1.1993907
1.2001631
1.2006942
1.2010475
1.2012742
1.2014144
1.2014973
1.2015439
1.2015687
1.201581
1.2015865
1.2015888
1.2015897
1.20159
1.20159
1.2015901
1.2015901
1.2015901
1.0518502
1.0546041
1.057563
1.0607372
1.0641368
1.0677714
1.0716503
1.0757817
1.080173
1.0848299
1.0897564
1.0949537
1.1004194
1.1061469
1.1121237
1.1183298
1.1247363
1.1313037
1.1379797
1.1446984
1.15138
1.1579318
1.1642519
1.1702345
1.1757778
1.180793
1.1852139
1.1890036
1.192158
1.1947049
1.1966984
1.1982105
1.199322
1.2001135
1.2006593
1.2010235
1.2012582
1.2014038
1.2014903
1.2015393
1.2015656
1.2015787
1.2015847
1.2015872
1.2015881
1.2015884
1.2015885
1.2015886
1.2015886
1.2015886
1.0517092
1.054455
1.0574052
1.0605699
1.0639593
1.0675829
1.07145
1.0755688
1.0799467
1.0845895
1.089501
1.0946826
1.1001323
1.1058435
1.1118039
1.1179943
1.1243862
1.1309408
1.1376067
1.144319
1.1509988
1.1575546
1.1638851
1.1698849
1.1754519
1.1804968
1.1849518
1.188778
1.1919695
1.1945521
1.1965781
1.1981185
1.1992536
1.200064
1.2006245
1.2009996
1.2012421
1.2013931
1.2014833
1.2015347
1.2015624
1.2015763
1.2015828
1.2015855
1.2015866
1.2015869
1.201587
1.2015871
1.2015871
1.2015871
1.0515723
1.0543103
1.0572519
1.0604075
1.0637869
1.0673999
1.0712555
1.0753621
1.079727
1.0843559
1.0892529
1.0944194
1.0998535
1.1055487
1.1114933
1.1176683
1.1240459
1.130588
1.1372438
1.1439496
1.1506275
1.1571869
1.1635271
1.1695432
1.175133
1.1802064
1.1846943
1.1885561
1.1917837
1.194401
1.1964589
1.1980272
1.1991856
1.2000147
1.2005896
1.2009755
1.2012258
1.2013823
1.2014762
1.20153
1.2015591
1.2015739
1.2015809
1.2015839
1.201585
1.2015854
1.2015855
1.2015856
1.2015856
1.2015856
1.0514393
1.0541695
1.0571029
1.0602495
1.0636194
1.067222
1.0710665
1.0751612
1.0795134
1.084129
1.0890119
1.0941636
1.0995824
1.1052622
1.1111914
1.1173514
1.123715
1.1302447
1.1368907
1.14359
1.1502657
1.1568281
1.1631775
1.1692091
1.1748207
1.1799216
1.1844413
1.1883376
1.1916005
1.1942518
1.1963409
1.1979366
1.1991179
1.1999656
1.2005548
1.2009514
1.2012095
1.2013715
1.201469
1.2015252
1.2015558
1.2015715
1.201579
1.2015822
1.2015834
1.2015839
1.201584
1.2015841
1.2015841
1.2015841
1.0513099
1.0540327
1.056958
1.060096
1.0634564
1.067049
1.0708827
1.0749659
1.0793057
1.0839083
1.0887774
1.0939149
1.0993189
1.1049836
1.1108977
1.117043
1.1233929
1.1299104
1.1365467
1.1432394
1.1499128
1.156478
1.1628359
1.1688823
1.1745148
1.1796422
1.1841927
1.1881225
1.1914197
1.1941043
1.1962241
1.1978467
1.1990506
1.1999165
1.20052
1.2009273
1.2011931
1.2013605
1.2014618
1.2015204
1.2015525
1.2015691
1.201577
1.2015805
1.2015819
1.2015824
1.2015825
1.2015826
1.2015826
1.2015826
1.0511839
1.0538995
1.056817
1.0599465
1.0632979
1.0668806
1.0707038
1.0747757
1.0791037
1.0836935
1.0885493
1.0936728
1.0990623
1.1047124
1.1106118
1.1167428
1.1230793
1.1295849
1.1362114
1.1428976
1.1495685
1.156136
1.1625019
1.1685624
1.174215
1.1793679
1.1839483
1.1879107
1.1912413
1.1939585
1.1961083
1.1977574
1.1989837
1.1998677
1.2004853
1.2009032
1.2011767
1.2013495
1.2014545
1.2015155
1.2015491
1.2015666
1.201575
1.2015788
1.2015803
1.2015808
1.201581
1.2015811
1.2015811
1.2015811
1.0510612
1.0537698
1.0566797
1.0598009
1.0631434
1.0667167
1.0705296
1.0745906
1.0789069
1.0834844
1.0883272
1.093437
1.0988125
1.1044482
1.1103333
1.1164503
1.1227736
1.1292675
1.1358845
1.1425641
1.1492323
1.1558019
1.1621753
1.1682492
1.1739211
1.1790986
1.1837079
1.187702
1.1910653
1.1938143
1.1959936
1.1976688
1.1989171
1.199819
1.2004505
1.200879
1.2011602
1.2013384
1.201447
1.2015105
1.2015457
1.2015641
1.201573
1.2015771
1.2015787
1.2015793
1.2015795
1.2015796
1.2015796
1.2015796
1.0509417
1.0536434
1.0565458
1.0596591
1.062993
1.0665569
1.0703599
1.0744103
1.0787152
1.0832806
1.0881107
1.0932073
1.0985691
1.1041908
1.1100619
1.1161653
1.1224757
1.128958
1.1355655
1.1422386
1.1489039
1.1554753
1.1618558
1.1679424
1.1736329
1.1788342
1.1834715
1.1874964
1.1908916
1.1936717
1.19588
1.1975808
1.1988509
1.1997705
1.2004158
1.2008547
1.2011436
1.2013272
1.2014396
1.2015054
1.2015422
1.2015615
1.201571
1.2015753
1.2015771
1.2015778
1.201578
1.201578
1.2015781
1.2015781
1.0508251
1.0535201
1.0564154
1.0595208
1.0628463
1.0664012
1.0701945
1.0742344
1.0785282
1.0830819
1.0878997
1.0929834
1.0983318
1.1039399
1.1097972
1.1158872
1.122185
1.128656
1.1352542
1.1419206
1.148583
1.1551558
1.1615429
1.1676418
1.1733501
1.1785743
1.1832389
1.1872938
1.1907201
1.1935307
1.1957674
1.1974935
1.1987851
1.1997221
1.2003812
1.2008305
1.2011269
1.201316
1.201432
1.2015004
1.2015387
1.2015589
1.201569
1.2015736
1.2015755
1.2015762
1.2015765
1.2015765
1.2015766
1.2015766
1.0507114
1.0533999
1.0562881
1.0593859
1.0627031
1.0662492
1.0700331
1.0740629
1.0783459
1.0828882
1.0876939
1.0927649
1.0981003
1.103695
1.109539
1.1156159
1.1219013
1.1283611
1.1349501
1.14161
1.1482693
1.1548433
1.1612366
1.167347
1.1730725
1.178319
1.18301
1.1870941
1.1905507
1.1933913
1.1956559
1.1974068
1.1987196
1.1996739
1.2003466
1.2008062
1.2011102
1.2013046
1.2014244
1.2014952
1.2015351
1.2015563
1.2015669
1.2015718
1.2015739
1.2015747
1.201575
1.201575
1.2015751
1.2015751
1.0506003
1.0532825
1.0561638
1.0592542
1.0625635
1.0661009
1.0698755
1.0738955
1.078168
1.0826991
1.087493
1.0925518
1.0978744
1.103456
1.1092869
1.115351
1.1216242
1.1280731
1.1346529
1.1413063
1.1479624
1.1545374
1.1609365
1.167058
1.1728
1.178068
1.1827846
1.1868971
1.1903834
1.1932533
1.1955454
1.1973208
1.1986544
1.1996259
1.2003121
1.2007819
1.2010935
1.2012933
1.2014167
1.20149
1.2015315
1.2015537
1.2015648
1.20157
1.2015723
1.2015731
1.2015734
1.2015735
1.2015736
1.2015736
1.0504919
1.0531678
1.0560424
1.0591256
1.062427
1.0659561
1.0697217
1.073732
1.0779942
1.0825144
1.0872968
1.0923436
1.0976537
1.1032227
1.1090408
1.1150922
1.1213535
1.1277916
1.1343624
1.1410092
1.147662
1.1542378
1.1606423
1.1667745
1.1725323
1.1778212
1.1825626
1.1867029
1.1902182
1.1931168
1.1954358
1.1972354
1.1985896
1.199578
1.2002776
1.2007576
1.2010767
1.2012818
1.201409
1.2014847
1.2015278
1.201551
1.2015627
1.2015683
1.2015706
1.2015716
1.2015719
1.201572
1.2015721
1.2015721
1.050386
1.0530558
1.0559239
1.059
1.0622938
1.0658146
1.0695714
1.0735723
1.0778245
1.082334
1.0871052
1.0921402
1.0974382
1.1029946
1.1088002
1.1148394
1.1210889
1.1275164
1.1340783
1.1407186
1.147368
1.1539443
1.160354
1.1664963
1.1722694
1.1775784
1.182344
1.1865113
1.190055
1.1929817
1.1953272
1.1971505
1.1985252
1.1995303
1.2002431
1.2007333
1.2010599
1.2012703
1.2014012
1.2014794
1.2015241
1.2015483
1.2015606
1.2015665
1.201569
1.20157
1.2015704
1.2015705
1.2015706
1.2015706
1.0502824
1.0529463
1.055808
1.0588771
1.0621635
1.0656763
1.0694245
1.0734162
1.0776586
1.0821577
1.0869179
1.0919414
1.0972275
1.1027717
1.108565
1.1145921
1.1208302
1.1272472
1.1338003
1.1404341
1.14708
1.1536567
1.1600711
1.1662232
1.172011
1.1773395
1.1821287
1.1863223
1.1898937
1.192848
1.1952196
1.1970663
1.198461
1.1994828
1.2002087
1.200709
1.201043
1.2012588
1.2013934
1.2014741
1.2015203
1.2015455
1.2015585
1.2015646
1.2015674
1.2015685
1.2015689
1.201569
1.2015691
1.2015691
1.0501811
1.0528392
1.0556946
1.058757
1.0620361
1.0655411
1.0692809
1.0732635
1.0774963
1.0819853
1.0867348
1.091747
1.0970214
1.1025538
1.108335
1.1143503
1.1205771
1.1269838
1.1335282
1.1401555
1.1467979
1.1533747
1.1597936
1.1659549
1.171757
1.1771044
1.1819164
1.1861358
1.1897344
1.1927157
1.1951128
1.1969826
1.1983973
1.1994354
1.2001744
1.2006846
1.201026
1.2012472
1.2013854
1.2014686
1.2015165
1.2015428
1.2015563
1.2015628
1.2015657
1.2015669
1.2015673
1.2015675
1.2015676
1.2015676
1.050082
1.0527345
1.0555837
1.0586395
1.0619114
1.0654088
1.0691403
1.0731142
1.0773376
1.0818166
1.0865556
1.0915569
1.0968199
1.1023405
1.10811
1.1141136
1.1203293
1.126726
1.1332617
1.1398825
1.1465214
1.1530982
1.1595213
1.1656915
1.1715073
1.176873
1.1817073
1.1859517
1.1895768
1.1925847
1.195007
1.1968996
1.1983338
1.1993882
1.2001402
1.2006603
1.2010091
1.2012355
1.2013775
1.2014632
1.2015127
1.2015399
1.2015541
1.201561
1.201564
1.2015653
1.2015658
1.201566
1.201566
1.2015661
1.049985
1.0526319
1.0554751
1.0585245
1.0617894
1.0652793
1.0690028
1.072968
1.0771823
1.0816516
1.0863803
1.0913708
1.0966226
1.1021318
1.1078897
1.113882
1.1200868
1.1264734
1.1330007
1.1396151
1.1462503
1.1528269
1.1592539
1.1654326
1.1712617
1.1766451
1.1815011
1.18577
1.1894211
1.192455
1.1949021
1.1968171
1.1982707
1.1993412
1.200106
1.200636
1.2009921
1.2012238
1.2013694
1.2014576
1.2015088
1.2015371
1.2015519
1.2015591
1.2015624
1.2015638
1.2015643
1.2015645
1.2015645
1.2015646
1.04989
1.0525315
1.0553688
1.0584118
1.06167
1.0651525
1.0688681
1.0728249
1.0770302
1.08149
1.0862086
1.0911886
1.0964294
1.1019274
1.107674
1.1136551
1.1198492
1.126226
1.1327448
1.1393528
1.1459843
1.1525606
1.1589914
1.1651782
1.17102
1.1764207
1.1812977
1.1855906
1.1892671
1.1923266
1.194798
1.1967351
1.1982079
1.1992943
1.2000718
1.2006116
1.200975
1.201212
1.2013614
1.2014521
1.2015049
1.2015342
1.2015496
1.2015572
1.2015607
1.2015622
1.2015628
1.201563
1.201563
1.201563
1.0497969
1.0524331
1.0552647
1.0583015
1.061553
1.0650283
1.0687362
1.0726848
1.0768813
1.0813317
1.0860405
1.0910101
1.0962402
1.1017272
1.1074627
1.1134328
1.1196164
1.1259835
1.132494
1.1390957
1.1457234
1.1522992
1.1587334
1.164928
1.1707822
1.1761996
1.1810972
1.1854134
1.1891149
1.1921994
1.1946948
1.1966537
1.1981455
1.1992476
1.2000377
1.2005873
1.2009579
1.2012002
1.2013532
1.2014464
1.2015009
1.2015313
1.2015474
1.2015553
1.201559
1.2015606
1.2015612
1.2015614
1.2015615
1.2015615
1.0497057
1.0523367
1.0551627
1.0581934
1.0614383
1.0649066
1.0686069
1.0725475
1.0767353
1.0811766
1.0858757
1.0908352
1.0960549
1.101531
1.1072556
1.1132149
1.1193882
1.1257458
1.1322481
1.1388434
1.1454674
1.1520426
1.15848
1.1646821
1.1705481
1.1759818
1.1808994
1.1852384
1.1889643
1.1920735
1.1945925
1.1965729
1.1980833
1.1992011
1.2000037
1.2005629
1.2009408
1.2011883
1.201345
1.2014408
1.2014969
1.2015284
1.2015451
1.2015534
1.2015573
1.201559
1.2015597
1.2015599
1.20156
1.20156
1.0496162
1.0522421
1.0550626
1.0580874
1.0613259
1.0647873
1.0684802
1.0724128
1.0765923
1.0810246
1.0857142
1.0906638
1.0958732
1.1013387
1.1070526
1.1130014
1.1191644
1.1255126
1.1320068
1.1385958
1.145216
1.1517905
1.1582308
1.1644401
1.1703177
1.1757671
1.1807042
1.1850655
1.1888153
1.1919487
1.194491
1.1964925
1.1980215
1.1991547
1.1999697
1.2005386
1.2009237
1.2011764
1.2013368
1.2014351
1.2014929
1.2015254
1.2015428
1.2015515
1.2015556
1.2015574
1.2015581
1.2015584
1.2015585
1.2015585
1.0495285
1.0521494
1.0549645
1.0579835
1.0612157
1.0646703
1.068356
1.0722808
1.076452
1.0808755