/*--------------------------------*- C++ -*----------------------------------*\
| =========                 |                                                 |
| \\      /  F ield         | OpenFOAM: The Open Source CFD Toolbox           |
|  \\    /   O peration     | Version:  4.0                                   |
|   \\  /    A nd           | Web:      www.OpenFOAM.org                      |
|    \\/     M anipulation  |                                                 |
\*---------------------------------------------------------------------------*/
FoamFile
{
    version     2.0;
    format      ascii;
    class       surfaceScalarField;
    location    "867";
    object      snGradRho;
}
// * * * * * * * * * * * * * * * * * * * * * * * * * * * * * * * * * * * * * //

dimensions      [1 -4 0 0 0 0 0];

internalField   nonuniform List<scalar> 
9850
(
55.717363
-1.4897264
54.217118
-1.5777213
52.304178
-1.6693612
49.963239
-1.7613448
47.194623
-1.8494213
44.018053
-1.9284468
40.475587
-1.9925695
36.633
-2.035568
32.578863
-2.0513587
28.420764
-2.0346518
24.278509
-1.9816981
20.274742
-1.8910228
16.524099
-1.7640005
13.122572
-1.6051127
10.138983
-1.4217582
7.6101298
-1.2235658
5.5403831
-1.0212813
3.9056725
-0.82542672
2.6605857
-0.64501412
1.7468961
-0.48659105
1.1017918
-0.35379624
0.66453934
-0.24745157
0.38098612
-0.16607303
0.20592866
-0.10660409
0.10375975
-0.065174531
0.047938951
-0.037744182
0.019781099
-0.020565037
0.0069359091
-0.010455558
0.0018176062
-0.0049155144
0.00016063961
-0.0021218896
-0.0001836664
-0.0008464242
-0.00015184719
-0.00033128234
-7.3876053e-05
-0.00015400525
-2.6513114e-05
-0.00010579448
-7.1302658e-06
-9.7624541e-05
-1.2996017e-06
-9.819823e-05
-7.1313632e-08
-9.9280225e-05
5.9909228e-08
-9.9753139e-05
4.08345e-08
-9.9884846e-05
2.8112989e-08
-9.991043e-05
2.4771878e-08
-9.9914403e-05
2.4372344e-08
-9.9915983e-05
2.4281859e-08
-9.9917773e-05
2.474394e-08
-9.9919801e-05
2.7171e-08
-9.9922841e-05
2.1855977e-08
-9.9925322e-05
1.4511899e-08
-9.9936109e-05
-8.7381309e-09
-9.9934678e-05
4.6086747e-07
-9.9856505e-05
-0.00010008933
42.356871
-0.36687938
41.569054
-0.3887723
40.763673
-0.41300239
39.918267
-0.44000322
39.001835
-0.47012711
37.975085
-0.50353301
36.792028
-0.5400426
35.403318
-0.57897722
33.76153
-0.61900097
31.828284
-0.6580108
29.582561
-0.69312592
27.028977
-0.72083147
24.204151
-0.73731483
21.179012
-0.73899335
18.055191
-0.7231693
14.954789
-0.68867802
12.004693
-0.63634731
9.318637
-0.56909529
6.981414
-0.49157945
5.0392786
-0.4094522
3.4985594
-0.32841857
2.331792
-0.25335871
1.4885363
-0.1877359
0.9073282
-0.13338715
0.52591157
-0.090656559
0.28827633
-0.058744994
0.1483486
-0.036134592
0.070982856
-0.020982016
0.031176273
-0.011426028
0.012345486
-0.0057953173
0.0042899783
-0.002724224
0.0012476455
-0.0011918121
0.00027209955
-0.0005024099
2.6784047e-05
-0.00022792611
-1.053235e-05
-0.00013360084
-7.1324107e-06
-0.00010665963
-2.3888034e-06
-0.00010069423
-5.2680911e-07
-9.9849942e-05
-6.2768417e-08
-9.985491e-05
1.348841e-08
-9.9897784e-05
1.9484214e-08
-9.991194e-05
1.8925307e-08
-9.9915423e-05
1.8675938e-08
-9.9917202e-05
1.7101793e-08
-9.9917773e-05
2.1501253e-08
-9.9920646e-05
-5.5158689e-10
-9.9921399e-05
1.7213612e-08
-9.9925095e-05
1.2545049e-07
-9.9895133e-05
9.7558042e-08
-9.9892197e-05
-0.00010017507
39.032815
-0.18415927
38.224836
-0.19505346
37.37608
-0.20692898
36.482686
-0.21989258
35.53856
-0.23406182
34.534391
-0.24955572
33.45661
-0.26647343
32.286525
-0.2848547
31.000062
-0.30461687
29.568658
-0.32546683
27.961924
-0.3467953
26.152498
-0.36757466
24.123018
-0.3862977
21.874308
-0.40100738
19.432843
-0.40946501
16.854842
-0.40947694
14.224391
-0.39934439
11.644364
-0.37833206
9.2213512
-0.34700254
7.0483458
-0.30727331
5.1902383
-0.26213625
3.6762474
-0.21510793
2.5007278
-0.16958415
1.6307542
-0.1282978
1.0170291
-0.09301457
0.60459735
-0.064492422
0.34105178
-0.042640351
0.18145706
-0.026774514
0.090350343
-0.015882872
0.041684424
-0.0088461814
0.017597898
-0.0045975063
0.0066900481
-0.0022221872
0.0022418816
-0.0010066206
0.00064212115
-0.00044502202
0.00014923417
-0.00021461152
2.5025773e-05
-0.00013233421
1.748603e-06
-0.00010741388
-5.4894315e-07
-0.00010124191
-2.3638578e-07
-0.00010006757
-3.8622787e-08
-9.992013e-05
7.8272216e-09
-9.9916248e-05
1.351623e-08
-9.9919383e-05
1.7096813e-08
-9.9921397e-05
9.8794618e-09
-9.9921439e-05
1.9780368e-08
-9.9924584e-05
-8.2303541e-09
-9.992582e-05
7.3791793e-08
-9.9921385e-05
1.3049068e-07
-9.990232e-05
-3.4384622e-07
-9.9981729e-05
-0.0001000454
37.378723
-0.13056175
36.585787
-0.13826157
35.749633
-0.1466217
34.866707
-0.15568193
33.932267
-0.16547582
32.940053
-0.17602562
31.881939
-0.1873346
30.747575
-0.19937558
29.524114
-0.21207335
28.196191
-0.22527866
26.746435
-0.23873157
25.156926
-0.25201429
23.412006
-0.26449978
21.502687
-0.27531178
19.432366
-0.283323
17.222741
-0.28722527
14.917917
-0.28569728
12.584352
-0.27766642
10.304926
-0.26261292
8.1674291
-0.24081893
6.25015
-0.21345372
4.6089215
-0.18243199
3.2696452
-0.15007109
2.2280967
-0.11865783
1.4559837
-0.090066917
0.91030927
-0.065534648
0.54282588
-0.045615554
0.30737239
-0.03028122
0.16430009
-0.019090588
0.082273102
-0.011368502
0.038225874
-0.0063555451
0.016286192
-0.0033173359
0.00627209
-0.001615363
0.0021452192
-0.00074480871
0.00063715426
-0.00034398613
0.00015936601
-0.00018056554
3.1994074e-05
-0.00012266943
4.6824064e-06
-0.000105242
3.6066479e-07
-0.00010090936
-2.4332629e-08
-0.00010005489
-2.6647357e-09
-9.9931081e-05
7.389056e-09
-9.9920571e-05
1.6982728e-08
-9.9922415e-05
1.9734513e-09
-9.992363e-05
1.695478e-08
-9.992653e-05
9.8349622e-10
-9.9926777e-05
1.0979242e-07
-9.991848e-05
-5.8196948e-09
-9.9924634e-05
-4.432033e-07
-0.00010000422
-0.00010000313
36.209639
-0.10140155
35.431929
-0.10736982
34.612913
-0.11384211
33.74973
-0.12084326
32.838542
-0.12839109
31.874284
-0.13649185
30.850422
-0.14513404
29.758755
-0.15427996
28.589323
-0.16385454
27.330509
-0.17373107
25.969462
-0.18371338
24.493027
-0.19351479
22.889394
-0.20273537
21.150681
-0.21084195
19.276502
-0.21715983
17.27822
-0.22089095
15.182981
-0.22117639
13.036005
-0.21721657
10.899335
-0.20844398
8.8458951
-0.19471308
6.9493093
-0.17644235
5.2719194
-0.15463929
3.8546859
-0.13077186
2.7121389
-0.10651307
1.8335342
-0.08344036
1.1889787
-0.062787098
0.73784058
-0.045311066
0.43674426
-0.031290014
0.24545277
-0.020609223
0.13016316
-0.012889407
0.064610584
-0.0076121464
0.029722213
-0.0042202259
0.012519462
-0.00218799
0.0047600116
-0.0010655645
0.0016062695
-0.00050166385
0.0004714717
-0.00024786997
0.00011739637
-0.00014727309
2.3983057e-05
-0.00011281699
3.8208756e-06
-0.00010283527
4.3142637e-07
-0.00010045046
3.2505377e-08
-9.9995919e-05
1.7804054e-09
-9.9930186e-05
1.3623736e-08
-9.9924665e-05
-5.3180557e-09
-9.9925776e-05
1.6391469e-08
-9.9926994e-05
1.8217927e-08
-9.9925461e-05
9.8172311e-08
-9.9918893e-05
-1.4243743e-07
-9.9945078e-05
-4.414968e-07
-0.00010000162
-9.9963338e-05
35.303461
-0.082706812
34.538629
-0.087567758
33.73453
-0.09283764
32.888913
-0.098536569
31.998715
-0.10467898
31.059837
-0.11127004
30.066917
-0.11830063
29.013148
-0.12574066
27.890173
-0.13353027
26.688157
-0.1415689
25.396129
-0.14970213
24.002736
-0.15770721
22.497552
-0.16527866
20.873079
-0.172017
19.127473
-0.17742573
17.267856
-0.18092372
15.313678
-0.1818825
13.299211
-0.17969662
11.273831
-0.1738891
9.2988812
-0.16423858
7.4407009
-0.15089587
5.7609063
-0.13444325
4.3064819
-0.11585709
3.1027582
-0.096365847
2.1513869
-0.077239964
1.4334696
-0.059580318
0.91615359
-0.044168889
0.560222
-0.031413577
0.3265816
-0.021379447
0.18057818
-0.013872994
0.094067027
-0.0085416972
0.045765455
-0.0049622696
0.02057434
-0.0027065812
0.0084386546
-0.0013855579
0.0031113155
-0.00067550999
0.0010137682
-0.00033031587
0.00028624682
-0.00018099228
6.844877e-05
-0.00012453547
1.3478194e-05
-0.00010623713
2.104686e-06
-0.00010125947
2.5247254e-07
-0.00010015005
1.8573395e-08
-9.9953576e-05
1.0551366e-08
-9.9927538e-05
-8.3782188e-09
-9.9926459e-05
1.9894262e-08
-9.9925857e-05
3.1861138e-08
-9.992364e-05
4.8726572e-08
-9.9922999e-05
-2.3950109e-07
-9.9955571e-05
-3.8175473e-07
-9.9985353e-05
-9.9920943e-05
34.565412
-0.069222801
33.811284
-0.073286135
33.019528
-0.077690223
32.188381
-0.082452064
31.315403
-0.087584323
30.397268
-0.093092542
29.429551
-0.09897126
28.406543
-0.10519876
27.321126
-0.11173017
26.164791
-0.11848869
24.927871
-0.12535504
23.600135
-0.1321557
22.171845
-0.13865107
20.635424
-0.14452608
18.987756
-0.14938717
17.233044
-0.15277091
15.385824
-0.15417085
13.473456
-0.15308808
11.537039
-0.14910713
9.6296873
-0.14199024
7.8115056
-0.13177012
6.1416924
-0.11881071
4.6694871
-0.10380397
3.426558
-0.087687174
2.4231681
-0.071494719
1.6490765
-0.056187349
1.0783695
-0.042510634
0.67622387
-0.030919518
0.40546816
-0.021576265
0.23150942
-0.014403217
0.12515184
-0.0091605385
0.063572716
-0.0055228366
0.030054419
-0.0031400281
0.013070699
-0.0016791799
0.0051583825
-0.00085048774
0.0018187402
-0.0004215594
0.00056291066
-0.00022219937
0.00014996264
-0.00014043927
3.3635307e-05
-0.00011140198
6.1886685e-06
-0.00010264658
9.0994866e-07
-0.00010045199
9.7782251e-08
-0.0001000055
1.3534131e-08
-9.9933843e-05
-6.8655148e-09
-9.9925905e-05
2.4960072e-08
-9.9923545e-05
3.3193336e-08
-9.9921718e-05
-1.2779223e-08
-9.9927529e-05
-2.9062399e-07
-9.9957474e-05
-2.8124755e-07
-9.9967162e-05
-9.9910766e-05
33.948465
-0.059324438
33.203435
-0.062802972
32.422095
-0.066572708
31.603055
-0.070648558
30.744352
-0.075042042
29.843253
-0.079759049
28.896059
-0.084796744
27.897919
-0.09013935
26.842698
-0.095752587
25.722947
-0.10157659
24.530066
-0.1075173
23.254753
-0.11343663
21.887869
-0.11914239
20.421832
-0.12437977
18.852603
-0.12882739
17.182214
-0.13210237
15.421562
-0.13377955
13.592897
-0.13342973
11.731145
-0.1306788
9.8830748
-0.12528328
8.1035814
-0.11720853
6.4491447
-0.10668684
4.9696465
-0.094229723
3.7006952
-0.080577625
2.6587478
-0.066591345
1.8404146
-0.05311312
1.2257798
-0.04083858
0.7842387
-0.030234828
0.48085092
-0.021519117
0.28159406
-0.014689509
0.15674272
-0.0095850843
0.082383511
-0.005952094
0.040537926
-0.0035000874
0.018476726
-0.0019419846
0.0077020092
-0.0010193491
0.0028934481
-0.00051685532
0.000963572
-0.00026901369
0.00027931548
-0.00016020712
6.909048e-05
-0.00011847079
1.4267355e-05
-0.00010475213
2.4040618e-06
-0.00010096491
3.1576244e-07
-0.00010010524
3.5483876e-08
-9.9948203e-05
-9.3329057e-10
-9.9925755e-05
2.9136213e-08
-9.9921354e-05
2.1122199e-08
-9.9920786e-05
-6.9326152e-08
-9.9930858e-05
-3.072529e-07
-9.9955083e-05
-1.9324618e-07
-9.9950949e-05
-9.9904194e-05
33.420311
-0.051717915
32.68314
-0.054747431
31.910728
-0.058030091
31.101986
-0.061579114
30.255328
-0.065405017
29.368496
-0.069513812
28.438373
-0.073904478
27.460796
-0.078565533
26.430422
-0.083470462
25.340668
-0.088571876
24.183815
-0.093794327
22.951357
-0.099025993
21.634713
-0.10410993
20.226407
-0.10883623
18.721793
-0.11293757
17.121318
-0.11609155
15.433108
-0.11793428
13.675434
-0.11808967
11.878302
-0.11621651
10.083272
-0.11207105
8.3407164
-0.10557493
6.7043614
-0.096870652
5.2239033
-0.086342848
3.9374819
-0.074588696
2.8661771
-0.062336387
2.0121362
-0.050330394
1.3606332
-0.039216484
0.88499868
-0.02945883
0.5526244
-0.021307027
0.33035793
-0.014811024
0.18829269
-0.0098674689
0.10174058
-0.0062768146
0.051719363
-0.0037950599
0.024495599
-0.0021722846
0.010681893
-0.0011774027
0.00422951
-0.000612394
0.0014967733
-0.00031951882
0.0004652389
-0.00018328222
0.00012464446
-0.00012745148
2.8208814e-05
-0.00010768177
5.280819e-06
-0.00010175191
7.9346464e-07
-0.00010027545
9.7559456e-08
-9.9976195e-05
1.0128887e-08
-9.9927372e-05
3.0434911e-08
-9.9919581e-05
2.0045685e-10
-9.992059e-05
-1.1507176e-07
-9.9932235e-05
-3.0015619e-07
-9.9949892e-05
-1.2028829e-07
-9.9937136e-05
-9.9899774e-05
32.960332
-0.045745357
32.23007
-0.048422587
31.465459
-0.051323187
30.665648
-0.054459028
29.829358
-0.057839782
28.954716
-0.061471425
28.039073
-0.065354141
27.078832
-0.069479458
26.069298
-0.073826443
25.004608
-0.078356789
23.877788
-0.08300874
22.681026
-0.087689978
21.406261
-0.092269961
20.046198
-0.096572795
18.595817
-0.10037251
17.054411
-0.10339365
15.427979
-0.10532084
13.731635
-0.1058213
11.991366
-0.10458291
10.24433
-0.10136656
8.5368909
-0.096065803
6.9200511
-0.088759328
5.4428128
-0.07973775
4.1449126
-0.069488504
3.0509488
-0.058634284
2.1676206
-0.047837452
1.4847263
-0.037696895
0.97923947
-0.028666648
0.62089198
-0.021015582
0.37758497
-0.014830699
0.21947499
-0.010052302
0.1213325
-0.0065232154
0.063364909
-0.0040364262
0.030985776
-0.0023722069
0.014032503
-0.0013225911
0.0058083382
-0.00070549583
0.0021643941
-0.00037197452
0.00071394886
-0.00020896794
0.00020470234
-0.00013822849
5.0037692e-05
-0.00011149461
1.0221597e-05
-0.00010286983
1.7037798e-06
-0.00010054154
2.3256739e-07
-0.00010002551
2.9714147e-08
-9.9932767e-05
2.8128964e-08
-9.9918662e-05
-2.3988833e-08
-9.9920709e-05
-1.4841375e-07
-9.9932126e-05
-2.7825965e-07
-9.9943822e-05
-6.1988166e-08
-9.9927401e-05
-9.9901964e-05
32.553841
-0.040932221
31.829731
-0.043325739
31.072028
-0.045918666
30.280078
-0.048721751
29.452857
-0.051743924
28.588806
-0.054991037
27.685669
-0.058464093
26.740317
-0.062156824
25.748599
-0.066052465
24.70526
-0.070119565
23.603959
-0.074306771
22.437491
-0.078536663
21.198278
-0.082698998
19.879241
-0.086644204
18.475147
-0.090178643
16.984438
-0.093064022
15.411461
-0.095024102
13.768791
-0.095762233
12.079088
-0.094992329
10.375752
-0.092483166
8.7015623
-0.088110826
7.1048817
-0.081907912
5.6336948
-0.074093458
4.3286738
-0.065068219
3.2171115
-0.055368526
2.3094876
-0.045586396
1.5995687
-0.036277143
1.0676914
-0.027880827
0.68588994
-0.020677315
0.42323421
-0.01478076
0.25012263
-0.01016555
0.14096415
-0.0067086036
0.075307871
-0.0042331574
0.037833013
-0.0025444783
0.017691995
-0.0014541686
0.0076062812
-0.00079435131
0.0029631999
-0.00042491412
0.0010290728
-0.00023652649
0.00031296173
-0.00015059225
8.1787096e-05
-0.00011619942
1.8012892e-05
-0.0001043624
3.2735245e-06
-0.00010092872
4.8902183e-07
-0.00010010509
6.517063e-08
-9.9944303e-05
2.3451786e-08
-9.9919115e-05
-4.7703533e-08
-9.9920954e-05
-1.705005e-07
-9.9931137e-05
-2.5007231e-07
-9.993798e-05
-2.22952e-08
-9.9920667e-05
-9.9904076e-05
32.190427
-0.036981539
31.471857
-0.039142323
30.720346
-0.041482888
29.935404
-0.044013043
29.11622
-0.046741071
28.261502
-0.049672646
27.369323
-0.052809324
26.436949
-0.056146464
25.460693
-0.059670454
24.435817
-0.063355089
23.356531
-0.067157056
22.216165
-0.071010522
21.007581
-0.074821137
19.723941
-0.078460094
18.359899
-0.081759494
16.91327
-0.084510986
15.387099
-0.086470416
13.79189
-0.087371591
12.147523
-0.086951781
10.484156
-0.084989427
8.8413619
-0.081350431
7.2649813
-0.076033921
5.801781
-0.069203669
4.4928889
-0.061190832
3.3676581
-0.052459888
2.4397247
-0.043541853
1.706349
-0.034951692
1.1509692
-0.027113348
0.74785782
-0.020312073
0.46732448
-0.014682111
0.28014378
-0.010224981
0.16050627
-0.0068456065
0.087426364
-0.0043924683
0.04494572
-0.0026918741
0.021604837
-0.0015721013
0.0095978391
-0.00087776632
0.0038863843
-0.00047713963
0.0014118853
-0.00026523597
0.0004522362
-0.00016426954
0.00012536134
-0.00012175796
2.950318e-05
-0.00010625653
5.7789786e-06
-0.00010145984
9.3365521e-07
-0.00010022456
1.2848815e-07
-9.9964624e-05
1.9249429e-08
-9.9921345e-05
-6.8858111e-08
-9.9921198e-05
-1.8342189e-07
-9.9929594e-05
-2.2035319e-07
-9.9932691e-05
3.5939159e-09
-9.991602e-05
-9.9905982e-05
31.86235
-0.033683815
31.148815
-0.035650434
30.402906
-0.037780476
29.624277
-0.040082949
28.812296
-0.042565562
27.965899
-0.04523379
27.08344
-0.048089566
26.162524
-0.051129475
25.199862
-0.054342341
24.191164
-0.057706072
23.131123
-0.06118369
22.013541
-0.064718555
20.831687
-0.068228996
19.578968
-0.071602875
18.249999
-0.074693114
16.842126
-0.077315852
15.357355
-0.079253568
13.804486
-0.080265983
12.201044
-0.080111227
10.574377
-0.07857818
8.961184
-0.075527463
7.4049169
-0.070933789
5.9510121
-0.06491779
4.6407032
-0.057754089
3.5049062
-0.049846755
2.5599016
-0.041673533
1.8060333
-0.033712133
1.2295969
-0.02636929
0.80702403
-0.019931699
0.50990459
-0.014548487
0.30949126
-0.01024304
0.17987227
-0.0069436543
0.099630364
-0.0045202322
0.052250632
-0.0028170755
0.025722376
-0.0016768172
0.011757533
-0.00095503282
0.0049248078
-0.00052772139
0.0018616619
-0.00029443501
0.00062438773
-0.00017895347
0.00018242494
-0.00012809236
4.5554573e-05
-0.00010856046
9.5366752e-06
-0.0001021534
1.6524549e-06
-0.0001003936
2.3728116e-07
-9.9996826e-05
1.958519e-08
-9.9925961e-05
-8.6298164e-08
-9.992157e-05
-1.8926935e-07
-9.9927867e-05
-1.9173705e-07
-9.9928228e-05
1.9256837e-08
-9.9913142e-05
-9.990826e-05
31.563753
-0.030893044
30.854828
-0.032695428
30.114031
-0.034647412
29.341139
-0.036757317
28.535674
-0.039032342
27.696769
-0.041477755
26.82302
-0.044095739
25.912327
-0.046883818
24.961746
-0.049832731
23.967383
-0.052923652
22.924351
-0.05612468
21.826878
-0.059386581
20.668606
-0.062637957
19.443186
-0.065780256
18.145241
-0.068683497
16.77177
-0.071184109
15.32394
-0.07308694
13.809129
-0.074173929
12.242857
-0.074221828
10.650014
-0.07303011
9.064715
-0.070457407
7.5281704
-0.066460593
6.084429
-0.06112632
4.7745738
-0.05468286
3.6306917
-0.047483101
2.6712822
-0.039958036
1.899416
-0.032551085
1.3040202
-0.025651371
0.8635971
-0.019544234
0.55103562
-0.014389723
0.33814411
-0.010229004
0.19900369
-0.0070101031
0.11185275
-0.0046213397
0.059689182
-0.0029226084
0.030002694
-0.001769031
0.014061079
-0.0010258157
0.0060680163
-0.00057597999
0.0023760991
-0.00032355237
0.00083035086
-0.0001943316
0.00025432543
-0.00013509614
6.6994826e-05
-0.00011126435
1.4889966e-05
-0.00010302208
2.7496352e-06
-0.00010062117
4.1541745e-07
-0.00010004425
2.9618307e-08
-9.9933729e-05
-9.9377981e-08
-9.9922274e-05
-1.8995061e-07
-9.9926184e-05
-1.6584113e-07
-9.9924582e-05
2.6874447e-08
-9.9911377e-05
-9.9909775e-05
31.290093
-0.028502982
30.585416
-0.030164774
29.849317
-0.031964347
29.081677
-0.033909421
28.282152
-0.036006744
27.450048
-0.038261372
26.584173
-0.040675657
25.682684
-0.043247849
24.742943
-0.045970211
23.761399
-0.048826556
22.733546
-0.051789109
21.653991
-0.054814692
20.516719
-0.057840344
19.31562
-0.060778737
18.045362
-0.063514101
16.702681
-0.065899876
15.288063
-0.067759886
13.807692
-0.068895262
12.27536
-0.069099384
10.713799
-0.068182109
9.1547941
-0.066002279
7.637457
-0.062503754
6.204432
-0.057746209
4.8964652
-0.051919607
3.7465022
-0.045333171
2.7749059
-0.038376722
1.9871633
-0.031462187
1.3746232
-0.024961121
0.9177667
-0.019155518
0.59078404
-0.014213309
0.366098
-0.010190187
0.21786149
-0.0070509859
0.12404338
-0.0047000335
0.067214619
-0.0030108956
0.034410103
-0.0018496731
0.016486048
-0.0010900817
0.0073050255
-0.00062146587
0.0029517407
-0.00035212426
0.0010702261
-0.00021010913
0.00034205464
-0.00014264652
9.4576361e-05
-0.000114343
2.2193451e-05
-0.00010407212
4.3449929e-06
-0.00010091497
6.9323161e-07
-0.0001001103
5.5793221e-08
-9.9945553e-05
-1.0749933e-07
-9.9923537e-05
-1.8692682e-07
-9.9924651e-05
-1.4317339e-07
-9.9921633e-05
2.9374652e-08
-9.9910304e-05
-9.9910715e-05
31.037779
-0.026435
30.337041
-0.027975198
29.605283
-0.029642963
28.84248
-0.03144549
28.048408
-0.033389123
27.222523
-0.035478713
26.36382
-0.037716719
25.470684
-0.040101958
24.540745
-0.042627927
23.570762
-0.045280595
22.556564
-0.048035582
21.493106
-0.050854723
20.374688
-0.053682075
19.19543
-0.056439689
17.950069
-0.059023742
16.635147
-0.061302084
15.250589
-0.063114776
13.801568
-0.064279643
12.300377
-0.064604934
10.767843
-0.063910481
9.2336429
-0.062056796
7.7349278
-0.0589783
6.3129467
-0.054713104
5.0079731
-0.049419281
3.8535616
-0.043368594
2.8716407
-0.036914461
2.0698407
-0.030439918
1.4417402
-0.024299301
0.9697052
-0.018769858
0.62921795
-0.014025027
0.39335975
-0.010132418
0.2364208
-0.0070712856
0.13616517
-0.0047599927
0.07478993
-0.003084214
0.038914625
-0.0019197981
0.019012257
-0.0011480241
0.0086249209
-0.00066392668
0.0035843774
-0.0003797972
0.0013434173
-0.00022602415
0.00044624512
-0.00015061539
0.00012894633
-0.00011775954
3.1797412e-05
-0.00010530349
6.5701265e-06
-0.00010128096
1.1073585e-06
-0.00010019832
1.0610331e-07
-9.99625e-05
-1.0981462e-07
-9.9925655e-05
-1.8122749e-07
-9.9923372e-05
-1.2372646e-07
-9.9919288e-05
2.8734442e-08
-9.9909701e-05
-9.9911299e-05
30.803927
-0.02462958
30.106857
-0.026063661
29.379134
-0.027616405
28.620812
-0.029294542
27.831775
-0.031104052
27.011612
-0.03304959
26.159484
-0.035133676
25.273978
-0.037355579
24.352966
-0.039709801
23.393481
-0.042184093
22.391659
-0.044756909
21.342766
-0.047394274
20.241395
-0.050046146
19.081889
-0.052642497
17.859067
-0.055089648
16.569331
-0.057267767
15.212142
-0.059030931
13.791808
-0.060211568
12.319318
-0.060631256
10.813802
-0.060119285
9.3030253
-0.0585388
7.8223115
-0.055817448
6.4115389
-0.051976001
5.1104108
-0.047145805
3.9528904
-0.041566309
2.96222
-0.035558649
2.1479341
-0.029479368
1.5056646
-0.023666122
1.0195694
-0.018390438
0.66640504
-0.0138294
0.41994353
-0.010060407
0.25466703
-0.0070751582
0.14819108
-0.0048044154
0.082386074
-0.0031446729
0.043491392
-0.001980515
0.021621924
-0.0011999951
0.010017283
-0.00070327079
0.0042693924
-0.00040632227
0.0016487866
-0.00024185671
0.00056719354
-0.00015887851
0.00017062864
-0.0001214696
4.4033814e-05
-0.00010671055
9.5639248e-06
-0.00010172321
1.7001639e-06
-0.00010031143
1.9029773e-07
-9.9985731e-05
-1.0507063e-07
-9.992896e-05
-1.7351718e-07
-9.9922416e-05
-1.0726953e-07
-9.9917435e-05
2.6241675e-08
-9.9909355e-05
-9.9911471e-05
30.586187
-0.023040906
29.892549
-0.024381645
29.16859
-0.025833218
28.414441
-0.027401947
27.630076
-0.029093481
26.815206
-0.03091229
25.96914
-0.032860924
25.090646
-0.034939009
24.177813
-0.03714188
23.227923
-0.039458776
22.237386
-0.041870532
21.201756
-0.044346718
20.115897
-0.0468423
18.974363
-0.049294005
17.772069
-0.05161684
16.505313
-0.053701594
15.173174
-0.055414525
13.779216
-0.056600914
12.333281
-0.057094316
10.852987
-0.056732922
9.3643584
-0.055383122
7.9010136
-0.052967798
6.5014966
-0.049493718
5.2048712
-0.045069698
4.045348
-0.039907164
3.0472695
-0.034298526
2.2218642
-0.028576038
1.5666553
-0.023061321
1.0675021
-0.018019524
0.70241119
-0.013629914
0.44586831
-0.0099779224
0.27259313
-0.0070660406
0.16010192
-0.0048360511
0.089980534
-0.0031941866
0.048120024
-0.0020329287
0.02429966
-0.0012464473
0.011472465
-0.00073952977
0.0050020394
-0.00043154251
0.0019848086
-0.00025743173
0.0007049026
-0.00016732205
0.00022001756
-0.00012542522
5.9205171e-05
-0.00010828319
1.3467899e-05
-0.0001022438
2.5188852e-06
-0.00010045234
3.2002603e-07
-0.00010001646
-9.1477048e-08
-9.9933817e-05
-1.6411101e-07
-9.9921852e-05
-9.3399178e-08
-9.9915977e-05
2.2939083e-08
-9.9909141e-05
-9.9911374e-05
30.382619
-0.021633086
29.692204
-0.022891136
28.971774
-0.024253093
28.221524
-0.025724908
27.441516
-0.027311938
26.631565
-0.02901847
25.791116
-0.030847066
24.919101
-0.032797639
24.013802
-0.034866216
23.072729
-0.037043292
22.092541
-0.039311722
21.069057
-0.041644102
19.997391
-0.043999686
18.8723
-0.046321003
17.6888
-0.048530568
16.443119
-0.050528389
15.134016
-0.052191382
13.764412
-0.053376204
12.343138
-0.053927203
10.886452
-0.053690902
9.4187943
-0.052537304
7.9721892
-0.050386054
6.5838895
-0.04723256
5.2922726
-0.043166549
4.1316647
-0.038375035
3.1273275
-0.033124788
2.2919977
-0.02772577
1.6249422
-0.022484282
1.1136333
-0.017658669
0.7372996
-0.01342922
0.47115596
-0.0098879517
0.29019752
-0.0070467438
0.17188446
-0.0048572245
0.097556075
-0.0032344473
0.052784008
-0.0020780875
0.027032346
-0.0012878812
0.012981742
-0.00077282102
0.0057776532
-0.00045537593
0.0023497096
-0.00027261703
0.0008591325
-0.00017584638
0.00027738081
-0.00012957814
7.7576813e-05
-0.00011000799
1.8421801e-05
-0.00010284301
3.6145704e-06
-0.00010062334
5.0887782e-07
-0.00010005593
-6.6620737e-08
-9.9940639e-05
-1.5301885e-07
-9.9921763e-05
-8.1663357e-08
-9.9914854e-05
1.9454794e-08
-9.9908995e-05
-9.9911112e-05
30.191606
-0.020377667
29.504227
-0.021562001
28.787116
-0.022844072
28.040526
-0.024229499
27.264595
-0.025723369
26.459237
-0.027329801
25.624016
-0.029051349
24.758014
-0.03088816
23.859689
-0.03283684
22.926757
-0.034888955
21.956109
-0.037029087
20.943802
-0.039232434
19.885187
-0.041461951
18.775213
-0.043665196
17.609003
-0.045771209
16.382738
-0.04768806
15.09491
-0.049302053
13.74788
-0.050479958
12.349583
-0.051075875
10.915054
-0.050944107
9.4672786
-0.049958481
8.0367968
-0.048036561
6.659615
-0.045164516
5.3733926
-0.04141581
4.2124658
-0.036956107
3.2028601
-0.032029218
2.3586565
-0.026924638
1.6807298
-0.021934078
1.1580812
-0.01730883
0.77113024
-0.013229282
0.49582985
-0.0097928272
0.30748241
-0.0070195383
0.18353002
-0.0048698745
0.10509966
-0.0032669228
0.057470082
-0.0021169536
0.029808926
-0.0013248061
0.014537366
-0.00080331647
0.0065917918
-0.00047779844
0.0027415844
-0.00028731865
0.0010294544
-0.00018436762
0.00034286938
-0.00013388212
9.9372466e-05
-0.00011186947
2.4559819e-05
-0.00010351952
5.0409061e-06
-0.00010082622
7.7232193e-07
-0.00010010534
-2.7409391e-08
-9.9949875e-05
-1.3997203e-07
-9.9922251e-05
-7.1606895e-08
-9.991402e-05
1.6151555e-08
-9.9908874e-05
-9.9910732e-05
30.011786
-0.019251779
29.327277
-0.020370023
28.613297
-0.021580475
27.870152
-0.022888457
27.098052
-0.024298808
26.296997
-0.025815488
25.466662
-0.027441033
24.606263
-0.029175778
23.714422
-0.031016821
22.789042
-0.032956641
21.827224
-0.034981315
20.825251
-0.03706829
19.77869
-0.039183741
18.682677
-0.041279609
17.53244
-0.043290652
16.324136
-0.045132034
15.056033
-0.046698368
13.730001
-0.047865462
12.353177
-0.048496257
10.93949
-0.048452307
9.5105943
-0.047611344
8.0956382
-0.045889738
6.7294309
-0.043266129
5.448895
-0.039800079
4.2882904
-0.035638496
3.2742735
-0.031004573
2.422124
-0.026168987
1.734201
-0.021409602
1.2009539
-0.016970529
0.80395957
-0.01303153
0.51991391
-0.009694356
0.32445268
-0.0069862432
0.1950333
-0.0048756018
0.11260156
-0.0032928661
0.062167667
-0.0021503868
0.032620167
-0.0013577133
0.016132551
-0.00083121719
0.0074403248
-0.0004988277
0.0031584867
-0.00030147464
0.0012153008
-0.00019281751
0.00041653143
-0.00013829466
0.00012477276
-0.00011385111
3.200755e-05
-0.00010427073
6.8530387e-06
-0.00010106228
1.1275687e-06
-0.00010016585
2.9971912e-08
-9.9962005e-05
-1.2442941e-07
-9.9923439e-05
-6.2772916e-08
-9.9913457e-05
1.3251832e-08
-9.9908761e-05
-9.9910298e-05
29.842
-0.018236834
29.160211
-0.019295517
28.449194
-0.02044143
27.709304
-0.021679622
26.940814
-0.023014707
26.143804
-0.024450499
25.318051
-0.025989501
24.462894
-0.027632205
23.577104
-0.029376127
22.658756
-0.031214535
21.705146
-0.033134801
20.712764
-0.035116337
19.677383
-0.03712813
18.594313
-0.039125973
17.458891
-0.041049659
16.267265
-0.042820627
15.017512
-0.044340887
13.711075
-0.045494356
12.354375
-0.046152009
10.96034
-0.046182155
9.5493954
-0.045466449
8.1493897
-0.043920742
6.7939827
-0.041517539
5.5193503
-0.038304452
4.3596063
-0.034411859
3.3419237
-0.030044385
2.4826516
-0.025455384
1.7855199
-0.020909602
1.2423495
-0.016643945
0.83584045
-0.012836962
0.54343197
-0.0095939068
0.34111488
-0.0069482916
0.20639151
-0.0048757052
0.1200546
-0.0033133267
0.066868373
-0.002179137
0.035458396
-0.0013870581
0.017761409
-0.00085673445
0.0083194762
-0.00051850959
0.003598496
-0.00031504886
0.0014160094
-0.00020114242
0.00049832811
-0.00014277786
0.00015391602
-0.00011593625
4.0879789e-05
-0.00010509302
9.1064572e-06
-0.00010133234
1.5933751e-06
-0.00010023855
1.1008276e-07
-9.9977539e-05
-1.0558028e-07
-9.9925474e-05
-5.4712373e-08
-9.9913167e-05
1.0854301e-08
-9.9908659e-05
-9.9909851e-05
29.681257
-0.0173176
29.002053
-0.018322353
28.293847
-0.019409831
27.55704
-0.020584837
26.791961
-0.021851776
25.998767
-0.023214321
25.177325
-0.024674944
24.327089
-0.026234261
23.446964
-0.027890146
22.535189
-0.029636552
21.589236
-0.031461982
20.60579
-0.033347572
19.580815
-0.035264784
18.509788
-0.037172812
17.388155
-0.039015907
16.212066
-0.040721093
14.979441
-0.042196991
13.691343
-0.043334827
12.353553
-0.044012905
10.978085
-0.044105822
9.5842321
-0.04349911
8.1986256
-0.042108618
6.8538232
-0.039901851
5.5852517
-0.036916129
4.4268215
-0.033267194
3.4061241
-0.02914291
2.5404626
-0.024780667
1.8348341
-0.02043279
1.2823577
-0.016329027
0.86682218
-0.012646259
0.56640728
-0.0094925187
0.35747667
-0.0069068197
0.21760363
-0.0048712447
0.12745356
-0.0033291827
0.071565551
-0.0022038515
0.038317259
-0.0014132526
0.019418864
-0.00088007694
0.0092258356
-0.00053690723
0.0040597625
-0.00032802469
0.0016308601
-0.00020930142
0.00058814954
-0.00014729876
0.00018690082
-0.00011810867
5.1279115e-05
-0.00010598212
1.1855992e-05
-0.00010163679
2.189809e-06
-0.00010032442
2.1823432e-07
-9.9997004e-05
-8.2340681e-08
-9.9928526e-05
-4.6973981e-08
-9.9913171e-05
8.9948378e-09
-9.9908578e-05
-9.9909419e-05
29.528703
-0.016481474
28.851961
-0.017437186
28.146428
-0.018471527
27.412548
-0.019589076
26.650703
-0.020794049
25.861117
-0.022089985
25.043743
-0.023479317
24.198139
-0.024962765
23.323338
-0.02653851
22.417724
-0.028201105
21.478938
-0.029940046
20.503845
-0.031737987
19.488588
-0.033568585
18.428804
-0.035394047
17.320047
-0.037162595
16.158478
-0.038806243
14.941886
-0.040239553
13.670999
-0.04136036
12.351019
-0.042053665
10.993127
-0.042199925
9.6155706
-0.041688467
8.243837
-0.040435548
6.9094294
-0.038404593
5.6470279
-0.03562402
4.490294
-0.032196591
3.4671522
-0.028294995
2.5957569
-0.024141879
1.8822765
-0.019977833
1.3210605
-0.016025537
0.89695067
-0.012459844
0.58886225
-0.009390951
0.37354627
-0.0068626967
0.22866995
-0.0048630568
0.13479474
-0.0033411503
0.076253953
-0.0022250769
0.041191496
-0.0014366602
0.02110055
-0.0009014424
0.010156348
-0.00055409279
0.0045405349
-0.00034039997
0.0018591032
-0.00021726444
0.00068582979
-0.0001518293