/*--------------------------------*- C++ -*----------------------------------*\
| =========                 |                                                 |
| \\      /  F ield         | OpenFOAM: The Open Source CFD Toolbox           |
|  \\    /   O peration     | Version:  4.0                                   |
|   \\  /    A nd           | Web:      www.OpenFOAM.org                      |
|    \\/     M anipulation  |                                                 |
\*---------------------------------------------------------------------------*/
FoamFile
{
    version     2.0;
    format      ascii;
    class       volScalarField;
    location    "867";
    object      T;
}
// * * * * * * * * * * * * * * * * * * * * * * * * * * * * * * * * * * * * * //

dimensions      [0 0 0 1 0 0 0];

internalField   nonuniform List<scalar> 
5000
(
321.26962
319.66783
317.97078
316.18935
314.33873
312.43852
310.51256
308.58837
306.69611
304.86716
303.13237
301.52001
300.05384
298.75138
297.62274
296.67013
295.88815
295.26484
294.78328
294.42343
294.16407
293.98438
293.86528
293.79022
293.7456
293.72088
293.70832
293.70261
293.70041
293.69978
293.69972
293.6998
293.69987
293.69991
293.69992
293.69992
293.69993
293.69993
293.69993
293.69993
293.69993
293.69993
293.69993
293.69993
293.69993
293.69993
293.69993
293.69993
293.69993
293.69993
327.93991
326.6697
325.30936
323.85451
322.30174
320.6493
318.89803
317.05245
315.12192
313.12178
311.07411
309.00796
306.95871
304.96639
303.07289
301.31838
299.73731
298.35487
297.18441
296.22665
295.47053
294.89566
294.47558
294.1813
293.9843
293.85883
293.78322
293.74044
293.71792
293.70705
293.70231
293.7005
293.69992
293.69978
293.69977
293.69977
293.69978
293.69978
293.69978
293.69978
293.69978
293.69978
293.69978
293.69978
293.69978
293.69978
293.69978
293.69978
293.69978
293.69978
329.62492
328.442
327.17708
325.8273
324.39028
322.86434
321.24891
319.54498
317.75573
315.88748
313.95063
311.96078
309.93959
307.91527
305.92213
303.99903
302.18654
300.52309
299.04068
297.76113
296.69368
295.83458
295.16862
294.67224
294.31718
294.07408
293.91532
293.81689
293.75931
293.72778
293.71179
293.70436
293.70125
293.7001
293.69974
293.69965
293.69963
293.69963
293.69963
293.69963
293.69963
293.69963
293.69963
293.69963
293.69963
293.69963
293.69963
293.69963
293.69963
293.69963
330.47699
329.33816
328.12068
326.82196
325.43993
323.97323
322.42144
320.78545
319.06781
317.27332
315.40965
313.48808
311.52432
309.5392
307.55905
305.61542
303.74393
301.98186
300.36488
298.92304
297.67716
296.63637
295.79741
295.14598
294.65951
294.31081
294.07145
293.91465
293.81707
293.75971
293.72813
293.71199
293.70443
293.70122
293.70002
293.69962
293.69951
293.69949
293.69949
293.69949
293.69949
293.69949
293.69949
293.69949
293.69949
293.69949
293.69949
293.69949
293.69949
293.69949
331.08358
329.9762
328.79242
327.52969
326.18596
324.75982
323.25072
321.65926
319.98752
318.23953
316.42176
314.54372
312.6186
310.6639
308.70182
306.75937
304.86784
303.0614
301.37474
299.8399
298.48273
297.3197
296.35603
295.58544
294.99174
294.55176
294.2387
294.02536
293.88662
293.8009
293.75093
293.72364
293.70984
293.70344
293.70077
293.69977
293.69945
293.69936
293.69934
293.69934
293.69934
293.69934
293.69934
293.69934
293.69934
293.69934
293.69934
293.69934
293.69934
293.69934
331.5561
330.47327
329.31575
328.08102
326.76703
325.37226
323.896
322.33858
320.70164
318.98856
317.20493
315.35902
313.46245
311.53065
309.58337
307.64485
305.74355
303.91119
302.18103
300.58525
299.15183
297.90133
296.84447
295.98098
295.30016
294.78296
294.40501
294.13987
293.96178
293.84769
293.77833
293.7386
293.71735
293.70683
293.70209
293.70017
293.69948
293.69926
293.69921
293.6992
293.69919
293.69919
293.69919
293.69919
293.69919
293.69919
293.69919
293.69919
293.69919
293.6992
331.9424
330.87966
329.74365
328.53186
327.24221
325.87313
324.42379
322.89426
321.28585
319.60144
317.84588
316.0265
314.15367
312.24128
310.30726
308.37383
306.46736
304.61772
302.85689
301.21676
299.72636
298.40878
297.2785
296.33971
295.5862
295.00266
294.5673
294.25491
294.03981
293.8981
293.80916
293.75629
293.72676
293.7114
293.70406
293.70087
293.69963
293.69921
293.69909
293.69905
293.69905
293.69905
293.69905
293.69905
293.69905
293.69905
293.69905
293.69905
293.69905
293.69905
332.26632
331.22046
330.1025
328.90997
327.64076
326.29328
324.86657
323.36054
321.77623
320.11612
318.38449
316.58793
314.73579
312.84077
310.91931
308.992
307.08351
305.22215
303.43876
301.76479
300.22981
298.85861
297.66839
296.66685
295.85142
295.21012
294.72364
294.36823
294.1186
293.95047
293.84226
293.77604
293.73776
293.71705
293.70666
293.7019
293.69993
293.69921
293.69898
293.69892
293.6989
293.6989
293.6989
293.6989
293.6989
293.6989
293.6989
293.6989
293.6989
293.6989
332.54434
331.51298
330.41053
329.23456
327.98294
326.65403
325.24681
323.76107
322.1976
320.55858
318.84784
317.07135
315.23767
313.35846
311.44899
309.52846
307.6201
305.75086
303.9505
302.24994
300.679
299.26364
298.02316
296.96805
296.09884
295.40647
294.87398
294.47911
294.19723
294.00391
293.87692
293.79736
293.75008
293.72365
293.70989
293.70328
293.70041
293.69929
293.6989
293.69879
293.69876
293.69876
293.69876
293.69875
293.69875
293.69875
293.69875
293.69876
293.69876
293.69876
332.78702
331.76832
330.67944
329.51793
328.28168
326.96902
325.57887
324.1109
322.56576
320.94533
319.25309
317.4945
315.67746
313.8128
311.91476
310.00138
308.09463
306.22025
304.40699
302.68519
301.0847
299.63231
298.34895
297.24738
296.33079
295.59274
295.01846
294.58722
294.27512
294.05782
293.91264
293.81987
293.76349
293.73111
293.71369
293.70501
293.70106
293.69944
293.69886
293.69867
293.69862
293.69861
293.69861
293.69861
293.69861
293.69861
293.69861
293.69861
293.69861
293.69861
333.00191
331.99444
330.91757
329.76887
328.54625
327.24801
325.87301
324.42085
322.89201
321.28818
319.61253
317.87009
316.0682
314.21699
312.32982
310.42373
308.51959
306.64205
304.81891
303.0799
301.45477
299.97086
298.6504
297.50805
296.54928
295.76999
295.15746
294.69248
294.35198
294.11183
293.94904
293.8433
293.77778
293.73929
293.71803
293.70709
293.70192
293.6997
293.69885
293.69857
293.69849
293.69847
293.69846
293.69846
293.69846
293.69846
293.69846
293.69846
293.69846
293.69846
333.19436
332.19695
331.13085
329.99365
328.78324
327.49793
326.13654
324.69857
323.18441
321.59556
319.93492
318.20717
316.41918
314.58046
312.70362
310.80482
308.90396
307.02471
305.19398
303.44087
301.79495
300.28392
298.93102
297.75251
296.75586
295.93907
295.29134
294.79491
294.42763
294.16567
293.98586
293.86741
293.7928
293.74811
293.72285
293.70949
293.70296
293.70005
293.69889
293.69848
293.69836
293.69832
293.69832
293.69832
293.69832
293.69832
293.69832
293.69832
293.69832
293.69832
333.36837
332.38006
331.32371
330.19691
328.99756
327.72396
326.37489
324.94979
323.44896
321.87373
320.22679
318.51251
316.73734
314.91027
313.04324
311.15164
309.25452
307.37463
305.53807
303.77332
302.10967
300.57508
299.19357
297.98275
296.95183
296.10072
295.42041
294.89458
294.50197
294.21916
294.02291
293.89202
293.8084
293.75747
293.7281
293.71219
293.7042
293.70051
293.69898
293.69842
293.69823
293.69818
293.69817
293.69817
293.69817
293.69817
293.69817
293.69817
293.69817
293.69817
333.52697
332.54697
331.4995
330.38218
329.19293
327.93
326.59218
325.17886
323.69022
322.12748
320.49313
318.79126
317.02799
315.21181
313.35411
311.46958
309.57647
307.69675
305.85573
304.08129
302.40242
300.84719
299.44025
298.20035
297.13825
296.25558
295.545
294.99156
294.57495
294.27219
294.06004
293.917
293.82447
293.76729
293.73374
293.71518
293.70562
293.70108
293.69912
293.69837
293.69812
293.69805
293.69803
293.69802
293.69802
293.69802
293.69802
293.69802
293.69802
293.69802
333.67252
332.70013
331.66083
330.55222
329.37223
328.11912
326.79164
325.38914
323.91173
322.3605
320.73778
319.04743
317.29524
315.4893
313.64047
311.76283
309.87393
307.99499
306.15059
304.36804
302.676
301.10255
299.67286
298.40665
297.31602
296.40419
295.66538
295.08595
294.64654
294.32465
294.09713
293.94223
293.84092
293.7775
293.73971
293.71843
293.70722
293.70175
293.69932
293.69836
293.69801
293.69791
293.69788
293.69788
293.69788
293.69788
293.69788
293.69788
293.69788
293.69788
333.80687
332.84153
331.80976
330.7092
329.53777
328.29373
326.97581
325.58331
324.11629
322.57574
320.96382
319.28421
317.54238
315.74608
313.90571
312.03476
310.15018
308.27248
306.42558
304.63622
302.93269
301.34307
299.89291
298.60276
297.48592
296.54705
295.78181
295.17784
294.71673
294.37647
294.13408
293.96761
293.85766
293.78803
293.74598
293.72192
293.70898
293.70253
293.69958
293.69837
293.69792
293.69778
293.69774
293.69773
293.69773
293.69773
293.69773
293.69773
293.69773
293.69773
333.93153
332.97273
331.94795
330.85486
329.69138
328.45576
327.14672
325.76352
324.30617
322.77556
321.17373
319.50415
317.77206
315.98487
314.15255
312.28811
310.4079
308.53179
306.6831
304.88798
303.1744
301.57035
300.10168
298.78964
297.64862
296.68457
295.89453
295.26734
294.78552
294.42763
294.17083
293.99308
293.87462
293.79884
293.75251
293.72561
293.71091
293.70341
293.6999
293.69841
293.69784
293.69765
293.6976
293.69759
293.69759
293.69758
293.69758
293.69759
293.69759
293.69759
334.04772
333.09501
332.07676
330.99064
329.83456
328.6068
327.30604
325.93153
324.48321
322.9619
321.36952
319.70936
317.98645
316.20788
314.38326
312.52513
310.6493
308.77506
306.92513
305.12517
303.40274
301.78574
300.30025
298.96812
297.80471
296.81715
296.00375
295.35455
294.85295
294.47807
294.20732
294.01856
293.89174
293.80986
293.75926
293.7295
293.71297
293.70439
293.70027
293.69848
293.69777
293.69753
293.69746
293.69744
293.69744
293.69744
293.69744
293.69744
293.69744
293.69744
334.15646
333.20945
332.19731
331.11771
329.96857
328.74816
327.45517
326.0888
324.64895
323.13636
321.55286
319.90158
318.18734
316.41695
314.5997
312.74768
310.87622
309.00406
307.15337
305.3493
303.61905
301.99039
300.48955
299.13892
297.95469
296.94512
296.10969
295.43957
294.91903
294.52781
294.24352
294.04401
293.90898
293.82107
293.7662
293.73356
293.71517
293.70546
293.7007
293.69858
293.69772
293.69742
293.69732
293.6973
293.69729
293.69729
293.69729
293.69729
293.69729
293.69729
334.25857
333.31693
332.31053
331.23705
330.09444
328.88094
327.59524
326.23653
324.80465
323.30029
321.72515
320.08226
318.37623
316.61364
314.80343
312.95734
311.09021
309.22029
307.36923
305.56169
303.82451
302.18529
300.6704
299.30267
298.09905
297.0688
296.21254
295.52249
294.98381
294.57681
294.2794
294.06939
293.9263
293.83242
293.77331
293.73777
293.71749
293.70662
293.70119
293.69871
293.69768
293.69731
293.69719
293.69715
293.69715
293.69715
293.69715
293.69715
293.69715
293.69715
334.35479
333.4182
332.4172
331.3495
330.21304
329.00606
327.72724
326.37574
324.95139
323.45479
321.88758
320.25264
318.55441
316.79924
314.9958
313.15544
311.29259
309.42504
307.57393
305.76346
304.02012
302.37132
300.84352
299.45992
298.23817
297.18847
296.31247
295.60341
295.04733
294.6251
294.31494
294.09468
293.94367
293.8439
293.78057
293.74212
293.71993
293.70785
293.70173
293.69887
293.69766
293.6972
293.69705
293.69701
293.697
293.697
293.697
293.697
293.697
293.697
334.44571
333.51389
332.51801
331.45577
330.32511
329.1243
327.85199
326.50732
325.09009
323.60085
322.04115
320.41375
318.72294
316.97487
315.17792
313.34312
311.48451
309.61941
307.76851
305.95558
304.20675
302.54923
301.00953
299.61118
298.37245
297.30438
296.40964
295.68244
295.10962
294.67267
294.35012
294.11986
293.96107
293.85547
293.78794
293.74658
293.72246
293.70917
293.70232
293.69907
293.69766
293.69711
293.69692
293.69687
293.69686
293.69685
293.69685
293.69685
293.69685
293.69685
334.53185
333.60456
332.61352
331.55646
330.43131
329.23634
327.97019
326.63201
325.22153
323.73928
322.18671
320.5665
318.88278
317.1415
315.35079
313.52137
311.66693
309.80435
307.9539
306.1389
304.38516
302.71968
301.16898
299.75687
298.50219
297.41678
296.50421
295.75964
295.17073
294.71955
294.38494
294.14489
293.97846
293.86712
293.79542
293.75116
293.72509
293.71056
293.70297
293.69929
293.69767
293.69702
293.6968
293.69673
293.69671
293.69671
293.69671
293.69671
293.69671
293.69671
334.61366
333.69067
332.70424
331.65209
330.53217
329.34275
328.08247
326.75044
325.34639
323.87079
322.32502
320.71166
319.03471
317.29993
315.51524
313.69105
311.8407
309.9807
308.13087
306.31417
304.55602
302.88325
301.32236
299.8974
298.62772
297.52587
296.59632
295.83511
295.23069
294.76573
294.4194
294.16978
293.99584
293.87883
293.803
293.75583
293.7278
293.71202
293.70366
293.69955
293.69769
293.69694
293.69667
293.69659
293.69657
293.69656
293.69656
293.69656
293.69656
293.69656
334.69153
333.77263
332.79059
331.74311
330.62818
329.44405
328.18935
326.86319
325.46527
323.996
322.45672
320.84991
319.17944
317.45091
315.67201
313.85289
312.00656
310.14917
308.30014
306.48202
304.71993
303.04047
301.47012
300.03312
298.74929
297.63185
296.6861
295.90893
295.28956
294.81123
294.45349
294.19451
294.0132
293.89058
293.81065
293.76058
293.7306
293.71353
293.70439
293.69983
293.69774
293.69687
293.69655
293.69645
293.69642
293.69642
293.69642
293.69642
293.69642
293.69642
334.7658
333.85081
332.87294
331.82994
330.71976
329.54067
328.2913
326.97074
325.57867
324.11546
322.58239
320.98184
319.31759
317.59506
315.82175
314.00755
312.16517
310.31041
308.4623
306.64304
304.87741
303.1918
301.61264
300.16435
298.86714
297.7349
296.77367
295.98117
295.34736
294.85608
294.48721
294.21908
294.03051
293.90237
293.81837
293.76542
293.73346
293.71511
293.70517
293.70014
293.6978
293.69681
293.69644
293.69631
293.69628
293.69627
293.69627
293.69627
293.69627
293.69627
334.83676
333.92551
332.95164
331.9129
330.80727
329.633
328.38873
327.07353
325.68705
324.22963
322.70251
321.10798
319.44969
317.73294
315.96503
314.15562
312.31711
310.46498
308.61792
306.79775
305.02894
303.33766
301.75028
300.29137
298.98151
297.83517
296.85913
296.05189
295.40415
294.90029
294.52057
294.24347
294.04778
293.91417
293.82614
293.77032
293.73639
293.71675
293.70599
293.70048
293.69788
293.69675
293.69632
293.69618
293.69613
293.69612
293.69612
293.69612
293.69612
293.69612
334.90469
333.99702
333.02697
331.99232
330.89104
329.72139
328.48199
327.17192
325.7908
324.33895
322.81752
321.22877
319.57622
317.86505
316.10235
314.29758
312.46288
310.61339
308.76747
306.94659
305.17492
303.47841
301.88335
300.41444
299.0926
297.93282
296.94259
296.12117
295.45995
294.94388
294.55358
294.26769
294.06499
293.92599
293.83397
293.77529
293.73938
293.71843
293.70685
293.70085
293.69797
293.69671
293.69621
293.69604
293.69599
293.69598
293.69598
293.69598
293.69598
293.69598
334.96982
334.06557
333.0992
332.06846
330.97135
329.80613
328.57142
327.26627
325.8903
324.44378
322.92783
321.34463
319.69761
317.99181
316.23417
314.43392
312.60294
310.75609
308.91139
307.08999
305.31575
303.6144
302.01216
300.53381
299.20058
298.02799
297.02416
296.18907
295.5148
294.98685
294.58623
294.29174
294.08214
293.93782
293.84183
293.78031
293.74243
293.72016
293.70775
293.70124
293.69808
293.69667
293.69611
293.69591
293.69585
293.69583
293.69583
293.69583
293.69583
293.69583
335.03235
334.13139
333.16854
332.14157
331.04847
329.8875
328.65729
327.35687
325.98584
324.54445
323.03378
321.45592
319.81423
318.11362
316.36087
314.56502
312.7377
310.89348
309.05007
307.2283
305.45175
303.74593
302.13695
300.64969
299.30564
298.12079
297.10391
296.25564
295.56873
295.02924
294.61853
294.3156
294.09922
293.94965
293.84974
293.78538
293.74553
293.72194
293.70868
293.70166
293.6982
293.69664
293.69601
293.69578
293.69571
293.69569
293.69568
293.69568
293.69568
293.69568
335.09247
334.19468
333.23522
332.21187
331.12262
329.96575
328.73985
327.44399
326.07772
324.64127
323.13567
321.56296
319.92642
318.23083
316.48283
314.69126
312.86752
311.02591
309.18386
307.36187
305.58324
303.87327
302.25796
300.76227
299.40792
298.21136
297.18192
296.32093
295.62177
295.07105
294.65049
294.33929
294.11623
293.96147
293.85767
293.79049
293.74867
293.72376
293.70964
293.7021
293.69834
293.69662
293.69591
293.69565
293.69557
293.69554
293.69554
293.69554
293.69554
293.69554
335.15035
334.25561
333.29942
332.27955
331.19402
330.04108
328.81935
327.52787
326.16618
324.73449
323.23379
321.66606
320.03449
318.34376
316.60036
314.81296
312.99273
311.15373
309.31307
307.49099
305.71049
303.99667
302.37542
300.87173
299.50758
298.2998
297.25829
296.38501
295.67397
295.11229
294.68211
294.36279
294.13316
293.97328
293.86562
293.79564
293.75186
293.72562
293.71064
293.70256
293.6985
293.69661
293.69582
293.69552
293.69543
293.6954
293.69539
293.69539
293.69539
293.69539
335.20615
334.31435
333.3613
332.34479
331.26283
330.11369
328.89598
327.60873
326.25147
324.82437
323.3284
321.76548
320.13871
318.45269
316.71376
314.93042
313.11364
311.27722
309.438
307.61594
305.83377
304.11636
302.48952
300.97825
299.60474
298.3862
297.33307
296.44791
295.72533
295.153
294.7134
294.38612
294.15002
293.98508
293.8736
293.80083
293.75509
293.72751
293.71166
293.70305
293.69867
293.69661
293.69574
293.6954
293.69529
293.69526
293.69525
293.69525
293.69525
293.69525
335.25999
334.37102
333.42101
332.40775
331.32924
330.18377
328.96994
327.68677
326.33378
324.91112
323.41972
321.86144
320.23933
318.55787
316.82329
315.04391
313.23051
311.39665
309.55891
307.73696
305.9533
304.23256
302.60045
301.08198
299.69953
298.47067
297.40633
296.50967
295.7759
295.19318
294.74437
294.40926
294.16679
293.99685
293.88159
293.80606
293.75836
293.72944
293.71272
293.70356
293.69886
293.69662
293.69565
293.69528
293.69515
293.69511
293.6951
293.6951
293.6951
293.6951
335.312
334.42577
333.4787
332.46857
331.3934
330.25147
329.04139
327.76216
326.4133
324.99494
323.50796
321.95418
320.33658
318.65955
316.9292
315.15368
313.34359
311.51226
309.67603
307.8543
306.06929
304.34546
302.70837
301.18305
299.79205
298.55328
297.47814
296.57036
295.8257
295.23284
294.77501
294.43223
294.18349
294.00861
293.88959
293.81131
293.76165
293.73141
293.7138
293.70409
293.69906
293.69664
293.69558
293.69516
293.69501
293.69497
293.69496
293.69495
293.69495
293.69495
335.36229
334.47872
333.53448
332.52738
331.45544
330.31694
329.11048
327.83507
326.49021
325.076
323.5933
322.04389
320.43067
318.75794
317.03169
315.25994
313.4531
311.62429
309.78959
307.96815
306.18194
304.45523
302.81343
301.2816
299.88243
298.63412
297.54856
296.62999
295.87475
295.27199
294.80534
294.45503
294.2001
294.02034
293.89761
293.81658
293.76498
293.7334
293.71491
293.70464
293.69927
293.69666
293.6955
293.69504
293.69488
293.69482
293.69481
293.69481
293.69481
293.69481
335.41097
334.52997
333.58848
332.58431
331.5155
330.38032
329.17737
327.90565
326.56466
325.15448
323.67593
322.13074
320.52177
318.85322
317.13098
315.36291
313.55926
311.73293
309.89978
308.0787
306.29144
304.56203
302.91579
301.37776
299.97074
298.71327
297.61764
296.68861
295.92307
295.31066
294.83537
294.47765
294.21662
294.03204
293.90562
293.82188
293.76834
293.73542
293.71604
293.70521
293.6995
293.6967
293.69544
293.69493
293.69474
293.69468
293.69467
293.69466
293.69466
293.69466
335.45814
334.57962
333.64079
332.63947
331.57368
330.44171
329.24217
327.97403
326.63679
325.23051
323.75599
322.21491
320.61006
318.94558
317.22724
315.46277
313.66225
311.83838
310.0068
308.18614
306.39794
304.66602
303.01558
301.47162
300.0571
298.7908
297.68543
296.74626
295.9707
295.34885
294.86509
294.50009
294.23306
294.04371
293.91364
293.8272
293.77173
293.73747
293.7172
293.70579
293.69974
293.69674
293.69538
293.69481
293.69461
293.69454
293.69452
293.69452
293.69451
293.69451
335.50386
334.62776
333.69151
332.69295
331.6301
330.50125
329.305
328.04034
326.70674
325.30425
323.83364
322.29655
320.69571
319.03518
317.32064
315.55969
313.76224
311.9408
310.1108
308.29063
306.5016
304.76734
303.11291
301.5633
300.14157
298.86677
297.75198
296.80297
296.01764
295.38658
294.89452
294.52236
294.24941
294.05535
293.92167
293.83254
293.77514
293.73954
293.71838
293.7064
293.69999
293.69679
293.69532
293.6947
293.69447
293.6944
293.69438
293.69437
293.69437
293.69437
335.54824
334.67448
333.74073
332.74485
331.68485
330.55903
329.36598
328.10469
326.77463
325.37582
323.909
322.37579
320.77885
319.12218
317.41134
315.65383
313.85939
312.04036
310.21194
308.39232
306.60256
304.86612
303.20791
301.6529
300.22425
298.94124
297.81734
296.85876
296.06392
295.42386
294.92366
294.54446
294.26568
294.06696
293.92969
293.83789
293.77857
293.74164
293.71958
293.70702
293.70026
293.69685
293.69527
293.6946
293.69434
293.69426
293.69423
293.69422
293.69422
293.69422
335.59133
334.71984
333.78854
332.79525
331.73802
330.61514
329.4252
328.16719
326.84056
325.44533
323.9822
322.45276
320.85962
319.2067
317.49949
315.74534
313.95386
312.1372
310.31038
308.49134
306.70095
304.96247
303.30068
301.74051
300.3052
299.01428
297.88155
296.91368
296.10957
295.4607
294.95251
294.5664
294.28186
294.07853
293.9377
293.84326
293.78203
293.74376
293.72081
293.70766
293.70054
293.69692
293.69522
293.69449
293.69421
293.69412
293.69409
293.69408
293.69408
293.69408
335.63322
334.76394
333.83499
332.84423
331.78969
330.66967
329.48276
328.22794
326.90464
325.51289
324.05335
322.52758
320.93814
319.28889
317.58521
315.83435
314.04577
312.23147
310.40624
308.58783
306.7969
305.05651
303.39131
301.82621
300.3845
299.08593
297.94465
296.96775
296.15459
295.4971
294.98109
294.58817
294.29795
294.09006
293.94572
293.84864
293.78551
293.74591
293.72205
293.70832
293.70083
293.697
293.69518
293.69439
293.69408
293.69398
293.69394
293.69393
293.69393
293.69393
335.67395
334.80682
333.88018
332.89187
331.83995
330.72271
329.53873
328.28701
326.96697
325.5786
324.12256
322.60036
321.01453
319.36885
317.66862
315.92099
314.13526
312.32328
310.49964
308.68191
306.89051
305.14834
303.47991
301.91008
300.46222
299.15626
298.00668
297.02099
296.19901
295.53309
295.00939
294.60977
294.31395
294.10156
293.95372
293.85403
293.789
293.74807
293.72331
293.70899
293.70113
293.69708
293.69514
293.69429
293.69396
293.69384
293.6938
293.69379
293.69378
293.69378
335.71358
334.84855
333.92414
332.93823
331.88886
330.77432
329.59321
328.34451
327.02763
325.64256
324.18992
322.67121
321.0889
319.4467
317.74984
316.00536
314.22245
312.41275
310.59072
308.77369
306.9819
305.23806
303.56656
301.99219
300.5384
299.2253
298.06768
297.07344
296.24284
295.56867
295.03743
294.63121
294.32987
294.11302
293.96172
293.85943
293.79251
293.75025
293.72459
293.70968
293.70145
293.69718
293.69511
293.6942
293.69383
293.6937
293.69365
293.69364
293.69364
293.69364
335.75218
334.88918
333.96696
332.98338
331.93649
330.82458
329.64627
328.4005
327.08671
325.70484
324.25553
322.74022
321.16133
319.52254
317.82898
316.08759
314.30743
312.5
310.67957
308.86328
307.07117
305.32577
303.65134
302.07263
300.61313
299.29311
298.12768
297.12511
296.2861
295.60385
295.0652
294.6525
294.3457
294.12445
293.96971
293.86484
293.79604
293.75246
293.72589
293.71038
293.70178
293.69728
293.69509
293.69411
293.69371
293.69356
293.69351
293.6935
293.69349
293.69349
335.78979
334.92878
334.00868
333.02737
331.9829
330.87356
329.69796
328.45506
327.14427
325.76554
324.31946
322.80746
321.23193
319.59646
317.90613
316.16777
314.39032
312.58513
310.76629
308.95076
307.15839
305.41154
303.73433
302.15145
300.68643
299.35973
298.18671
297.17604
296.32881
295.63864
295.09272
294.67362
294.36144
294.13583
293.9777
293.87025
293.79958
293.75468
293.7272
293.7111
293.70212
293.69739
293.69507
293.69402
293.69358
293.69342
293.69337
293.69335
293.69335
293.69335
335.82645
334.96738
334.04936
333.07026
332.02814
330.92131
329.74836
328.50825
327.20039
325.82472
324.3818
322.87304
321.30078
319.66856
317.98139
316.246
314.47121
312.66823
310.85098
309.03625
307.24368
305.49546
303.8156
302.22872
300.75838
299.42521
298.24481
297.22624
296.37098
295.67305
295.11998
294.69459
294.3771
294.14718
293.98567
293.87568
293.80314
293.75691
293.72853
293.71183
293.70247
293.69751
293.69505
293.69393
293.69346
293.69329
293.69323
293.69321
293.6932
293.6932
335.86222
335.00503
334.08903
333.11209
332.07228
330.96789
329.79752
328.56015
327.25515
325.88245
324.44262
322.93702
321.36795
319.73892
318.05484
316.32236
314.55018
312.74939
310.93373
309.11981
307.32709
305.57761
303.89522
302.30449
300.82902
299.48957
298.30201
297.27573
296.41262
295.70709
295.147
294.71541
294.39267
294.15848
293.99363
293.8811
293.80671
293.75917
293.72988
293.71258
293.70283
293.69763
293.69504
293.69385
293.69334
293.69315
293.69308
293.69306
293.69306
293.69305
335.89713
335.04178
334.12775
333.15292
332.11535
331.01335
329.84551
328.61079
327.30859
325.9388
324.50198
322.99947
321.43353
319.80761
318.12656
316.39694
314.62733
312.8287
311.01461
309.20153
307.40872
305.65805
303.97325
302.37882
300.8984
299.55286
298.35834
297.32454
296.45375
295.74076
295.17377
294.73608
294.40816
294.16975
294.00158
293.88653
293.8103
293.76144
293.73125
293.71334
293.7032
293.69777
293.69504
293.69377
293.69323
293.69302
293.69294
293.69292
293.69291
293.69291
335.93121
335.07766
334.16557
333.19279
332.15741
331.05774
329.89237
328.66025
327.36077
325.99383
324.55996
323.06046
321.49758
319.8747
318.19662
316.4698
314.70273
312.90622
311.09372
309.28148
307.48863
305.73685
304.04976
302.45177
300.96656
299.61512
298.41381
297.37268
296.49438
295.77408
295.20031
294.7566
294.42356
294.18097
294.00951
293.89197
293.81389
293.76372
293.73262
293.71411
293.70358
293.69791
293.69504
293.69369
293.69311
293.69288
293.6928
293.69277
293.69276
293.69276
335.96451
335.11272
334.20251
333.23174
332.19851
331.10111
329.93815
328.70857
327.41175
326.04759
324.6166
323.12006
321.56017
319.94027
318.2651
316.54103
314.77646
312.98205
311.17111
309.35974
307.56689
305.81407
304.12479
302.52338
301.03354
299.67637
298.46846
297.42018
296.53453
295.80706
295.22661
294.77697
294.43888
294.19216
294.01743
293.89741
293.8175
293.76602
293.73402
293.7149
293.70398
293.69806
293.69505
293.69362
293.693
293.69275
293.69266
293.69263
293.69262
293.69262
335.99705
335.14699
334.23861
333.26982
332.23867
331.1435
329.98289
328.7558
327.46159
326.10015
324.67197
323.17832
321.62136
320.00438
318.33206
316.6107
314.84857
313.05624
311.24687
309.43638
307.64356
305.88978
304.19841
302.59371
301.09938
299.73665
298.52232
297.46704
296.5742
295.83969
295.25269
294.7972
294.45412
294.2033
294.02534
293.90285
293.82112
293.76833
293.73543
293.7157
293.70438
293.69822
293.69506
293.69355
293.69289
293.69262
293.69252
293.69248
293.69247
293.69247
336.02887
335.18049
334.27392
333.30704
332.27795
331.18495
330.02665
328.80198
327.51032
326.15154
324.72612
323.2353
321.6812
320.06709
318.39756
316.67885
314.91914
313.12887
311.32104
309.51145
307.71871
305.96403
304.27066
302.66279
301.16412
299.79599
298.5754
297.5133
296.61342
295.872
295.27854
294.81729
294.46927
294.2144
294.03324
293.90829
293.82475
293.77066
293.73685
293.71651
293.7048
293.69839
293.69508
293.69349
293.69278
293.69249
293.69238
293.69234
293.69233
293.69233
336.06
335.21327
334.30845
333.34346
332.31637
331.2255
330.06945
328.84716
327.558
326.20182
324.7791
323.29104
321.73976
320.12845
318.46167
316.74557
314.98823
313.19998
311.3937
309.58502
307.79239
306.03688
304.34159
302.73066
301.22779
299.85441
298.62773
297.55896
296.65218
295.90398
295.30417
294.83724
294.48435
294.22547
294.04112
293.91374
293.82839
293.773
293.73829
293.71733
293.70522
293.69856
293.69511
293.69343
293.69267
293.69236
293.69224
293.6922
293.69218
293.69218
336.09047
335.24534
334.34225
333.3791
332.35397
331.26519
330.11134
328.89138
327.60466
326.25103
324.83095
323.34561
321.79707
320.18852
318.52443
316.81089
315.0559
313.26965
311.46491
309.65714
307.86465
306.10836
304.41125
302.79738
301.29044
299.91196
298.67933
297.60404
296.6905
295.93565
295.32959
294.85705
294.49935
294.23649
294.04899
293.91919
293.83203
293.77536
293.73974
293.71817
293.70566
293.69875
293.69514
293.69337
293.69257
293.69223
293.6921
293.69206
293.69204
293.69204
336.1203
335.27675
334.37535
333.414
332.39079
331.30404
330.15236
328.93468
327.65035
326.29921
324.88172
323.39904
321.8532
320.24735
318.5859
316.87489
315.12219
313.33793
311.53471
309.72787
307.93556
306.17854
304.47968
302.86297
301.35209
299.96865
298.73022
297.64856
296.7284
295.967
295.35479
294.87672
294.51426
294.24747
294.05684
293.92463
293.83569
293.77772
293.7412
293.71902
293.70611
293.69894
293.69517
293.69332
293.69247
293.69211
293.69196
293.69191
293.6919
293.69189
336.14951
335.30751
334.40776
333.44818
332.42685
331.3421
330.19253
328.97708
327.69509
326.34641
324.93145
323.45137
321.90819
320.30498
318.64613
316.93759
315.18717
313.40486
311.60315
309.79725
308.00514
306.24746
304.54693
302.92747
301.41277
300.0245
298.78042
297.69253
296.76587
295.99806
295.37979
294.89626
294.5291
294.25842
294.06468
293.93008
293.83936
293.7801
293.74268
293.71988
293.70656
293.69914
293.69521
293.69327
293.69237
293.69198
293.69183
293.69177
293.69175
293.69175
336.17814
335.33764
334.43952
333.48166
332.46218
331.37939
330.23189
329.01863
327.73894
326.39265
324.98018
323.50266
321.96207
320.36146
318.70517
316.99906
315.25087
313.4705
311.6703
309.86533
308.07346
306.31515
304.61303
302.99093
301.47251
300.07955
298.82994
297.73596
296.80294
296.02881
295.40458
294.91567
294.54386
294.26932
294.0725
293.93553
293.84303
293.78249
293.74416
293.72076
293.70703
293.69934
293.69526
293.69322
293.69227
293.69186
293.69169
293.69163
293.69161
293.6916
336.20619
335.36718
334.47064
333.51448
332.49681
331.41594
330.27047
329.05935
327.78192
326.43798
325.02795
323.55293
322.01489
320.41684
318.76305
317.05934
315.31335
313.53489
311.73618
309.93217
308.14055
306.38167
304.67802
303.05336
301.53135
300.13381
298.87882
297.77887
296.83961
296.05928
295.42917
294.93496
294.55855
294.28019
294.08031
293.94097
293.84671
293.7849
293.74567
293.72164
293.70751
293.69956
293.69531
293.69318
293.69218
293.69174
293.69156