/*--------------------------------*- C++ -*----------------------------------*\
| =========                 |                                                 |
| \\      /  F ield         | OpenFOAM: The Open Source CFD Toolbox           |
|  \\    /   O peration     | Version:  4.0                                   |
|   \\  /    A nd           | Web:      www.OpenFOAM.org                      |
|    \\/     M anipulation  |                                                 |
\*---------------------------------------------------------------------------*/
FoamFile
{
    version     2.0;
    format      ascii;
    class       volVectorField;
    location    "867";
    object      U;
}
// * * * * * * * * * * * * * * * * * * * * * * * * * * * * * * * * * * * * * //

dimensions      [0 1 -1 0 0 0 0];

internalField   nonuniform List<vector> 
5000
(
(1.6827086e-06 3.3537489e-22 0.0044160981)
(6.2492935e-06 1.0024703e-21 0.01284756)
(1.8603692e-05 1.7718445e-21 0.021215641)
(3.4218123e-05 1.3918968e-21 0.029405566)
(5.3407828e-05 1.6471278e-21 0.037292017)
(7.4421211e-05 1.5275987e-21 0.044742974)
(9.50983e-05 -1.2146748e-21 0.051625027)
(0.00011297248 -5.7258315e-22 0.057810071)
(0.00012531013 -7.2233061e-21 0.063183094)
(0.00012936029 -1.2758141e-20 0.067650565)
(0.00012262884 -1.8856354e-20 0.071148643)
(0.00010317909 -2.7043045e-20 0.073650256)
(6.9958447e-05 -2.9575558e-20 0.075169993)
(2.3432433e-05 -2.9408916e-20 0.075765838)
(-3.5342721e-05 -2.7857884e-20 0.075537042)
(-0.00010437571 -2.6239391e-20 0.074617941)
(-0.00017978548 -3.1165633e-20 0.073167923)
(-0.00025727622 -4.5161827e-20 0.071358763)
(-0.00033231673 -6.0096831e-20 0.069360718)
(-0.00040063474 1.1536248e-20 0.067329116)
(-0.00045868882 8.9105247e-21 0.065393125)
(-0.00050401545 -9.1165048e-21 0.063648066)
(-0.00053540563 9.1913881e-22 0.062152049)
(-0.00055290779 3.6926627e-21 0.060927156)
(-0.00055767823 -2.6060155e-22 0.059964665)
(-0.00055172481 -9.1935933e-21 0.059233239)
(-0.00053758725 -2.5502259e-20 0.058688549)
(-0.00051799583 -2.5393749e-20 0.058282594)
(-0.00049555188 -4.3936396e-21 0.0579712)
(-0.00047246813 -2.0514376e-20 0.057718705)
(-0.0004504043 -1.9813754e-20 0.057499631)
(-0.00043041968 8.6998239e-21 0.057297887)
(-0.00041303241 -3.0045567e-21 0.057104529)
(-0.00039835258 0 0.056915141)
(-0.00038624708 0 0.056727629)
(-0.00037649788 1.2170678e-21 0.056540742)
(-0.00036892895 5.6169066e-21 0.056353264)
(-0.00036348972 -1.0188721e-21 0.056163629)
(-0.00036038796 4.5845261e-21 0.055969764)
(-0.00035998287 1.594407e-20 0.055768902)
(-0.00036315879 1.4475842e-20 0.055557372)
(-0.00037119638 -6.6472077e-22 0.055330701)
(-0.0003848966 -1.9397481e-21 0.055081363)
(-0.0004102427 1.7136862e-21 0.054803251)
(-0.00044297492 4.5084491e-22 0.054479633)
(-0.00050340694 1.7756141e-22 0.054094278)
(-0.00059136239 3.033281e-21 0.05364072)
(-0.00068907257 8.6966261e-22 0.052991655)
(-0.0010572263 4.2461776e-21 0.05282485)
(-0.00068969814 -4.8497583e-22 0.047078412)
(-2.662947e-06 -1.9376825e-21 0.0050975413)
(-1.7042143e-05 -5.787041e-21 0.014929957)
(-4.562258e-05 -9.6201771e-21 0.024806511)
(-9.2447095e-05 -1.0657187e-20 0.034608369)
(-0.00016029284 -1.4628065e-20 0.044197804)
(-0.00025217151 -1.3469793e-20 0.053419411)
(-0.00037115569 -1.6112897e-20 0.062102991)
(-0.00052016681 -3.7401581e-20 0.070068562)
(-0.00070171201 -2.6444846e-20 0.077133927)
(-0.00091752823 -2.5931743e-20 0.08312502)
(-0.0011681305 -2.3257424e-20 0.087888906)
(-0.0014522885 -1.4847515e-20 0.091308738)
(-0.0017664963 -9.9591955e-20 0.093319271)
(-0.0021045169 -1.5107708e-19 0.093920705)
(-0.0024571469 -2.0082898e-19 0.09318805)
(-0.0028123323 -2.3104526e-19 0.091273118)
(-0.0031557044 -2.8071737e-19 0.088396841)
(-0.0034716135 -3.0877197e-19 0.084831424)
(-0.0037445474 -8.4978928e-20 0.08087412)
(-0.0039607476 2.3835304e-19 0.076816745)
(-0.0041097454 -6.9110232e-21 0.072916487)
(-0.0041855304 -2.6918319e-19 0.069373329)
(-0.0041871334 -1.8919401e-19 0.066317683)
(-0.0041185381 -1.3530199e-19 0.063809169)
(-0.0039879797 -1.3560947e-19 0.061845036)
(-0.0038067933 -1.7470785e-19 0.060375083)
(-0.0035880315 -2.5978178e-19 0.059319453)
(-0.0033450701 -1.4515377e-19 0.058585984)
(-0.0030903906 5.1661167e-20 0.058084675)
(-0.0028346766 -4.414833e-20 0.057737753)
(-0.0025863133 3.0601153e-20 0.057484888)
(-0.0023513015 1.5037949e-19 0.057283994)
(-0.002133522 5.6372611e-21 0.057108792)
(-0.0019352189 0 0.056944684)
(-0.0017575493 2.2602553e-20 0.056784449)
(-0.0016010542 2.1035505e-20 0.056624743)
(-0.001466032 -4.3034332e-21 0.05646381)
(-0.0013526559 -2.3616325e-20 0.056300238)
(-0.0012611659 3.5592874e-20 0.056132381)
(-0.0011922445 6.375557e-20 0.055958307)
(-0.001145385 3.9630297e-20 0.055774909)
(-0.0011247119 -7.5442788e-21 0.055579606)
(-0.0011270177 -2.7754744e-20 0.055367055)
(-0.001159781 -9.2918493e-20 0.055128876)
(-0.0012407684 -7.2304587e-21 0.054873667)
(-0.0013087424 0 0.054532156)
(-0.0015992378 -1.7235181e-20 0.054247948)
(-0.0016076482 -5.2917189e-21 0.053876286)
(-0.0023649815 -2.7783247e-20 0.054524047)
(-0.001623297 -2.1240946e-21 0.043509928)
(-2.2144661e-06 -1.8495723e-20 0.0059934117)
(-1.4987965e-05 -5.521886e-20 0.017611149)
(-4.0200237e-05 -9.5328229e-20 0.029347605)
(-8.1726092e-05 -1.2703607e-19 0.041072087)
(-0.00014215821 -1.6055836e-19 0.052630288)
(-0.00022431766 -1.9088836e-19 0.06384436)
(-0.00033112065 -2.2790897e-19 0.074514513)
(-0.00046543497 -2.8636045e-19 0.084422694)
(-0.00062992297 -3.1107175e-19 0.093338973)
(-0.00082683431 -2.9897926e-19 0.10103127)
(-0.0010577318 -2.9100673e-19 0.10727879)
(-0.0013231408 -2.8879516e-19 0.11188926)
(-0.0016221205 -2.0564144e-19 0.11471912)
(-0.0019517783 -1.208194e-19 0.11569496)
(-0.0023067751 -4.1510807e-20 0.1148332)
(-0.0026789201 5.1826703e-20 0.11225372)
(-0.0030570023 1.3715373e-19 0.10818308)
(-0.0034270108 1.4617859e-19 0.10294361)
(-0.003772878 4.7755408e-19 0.096927086)
(-0.004077777 7.966712e-19 0.090555861)
(-0.0043258479 4.7424385e-19 0.084237625)
(-0.0045040751 -6.6198373e-20 0.078322778)
(-0.0046039442 -1.3281542e-19 0.073072689)
(-0.0046225255 -1.726581e-19 0.068644202)
(-0.0045627675 -2.0531869e-19 0.065091254)
(-0.0044329739 -2.5671998e-19 0.062380475)
(-0.0042456061 -2.9994695e-19 0.060415318)
(-0.0040156639 -1.4802405e-19 0.059062927)
(-0.0037589357 6.9476231e-20 0.05817898)
(-0.0034903844 -8.0172832e-20 0.057627352)
(-0.0032228884 -1.1967239e-20 0.057293052)
(-0.0029664796 3.1128681e-19 0.057088243)
(-0.0027281236 1.6528049e-20 0.056952297)
(-0.0025119907 3.1335199e-20 0.056847628)
(-0.0023200765 8.5849311e-20 0.056753494)
(-0.0021529102 1.1868492e-19 0.056659754)
(-0.0020102958 2.419351e-19 0.056561937)
(-0.0018919588 -1.920199e-20 0.056458084)
(-0.0017971824 -7.6382359e-20 0.056346883)
(-0.0017275692 1.616801e-19 0.056227449)
(-0.0016817701 2.5807896e-19 0.056098142)
(-0.0016626405 -2.6815781e-20 0.055956363)
(-0.0016819816 -1.0500985e-19 0.055805748)
(-0.0017026762 -2.9512625e-19 0.055622931)
(-0.0018524923 -1.3343024e-20 0.055458394)
(-0.001866225 -1.4245114e-20 0.055185915)
(-0.0022840438 9.3342197e-20 0.055078554)
(-0.0023002641 1.1884891e-20 0.055265447)
(-0.0029393109 1.269296e-19 0.055687527)
(-0.0018682428 -8.1911868e-21 0.039267367)
(-1.4462683e-06 -4.7788114e-20 0.0067102183)
(-1.0493545e-05 -1.4519848e-19 0.019767618)
(-2.8247762e-05 -2.4762659e-19 0.033018578)
(-5.7793265e-05 -3.6395208e-19 0.04632773)
(-0.00010131279 -4.8606815e-19 0.059533174)
(-0.00016131145 -5.942626e-19 0.07244567)
(-0.00024056097 -6.392316e-19 0.08484914)
(-0.00034203439 -6.491673e-19 0.096503052)
(-0.00046882524 -6.5912456e-19 0.10714737)
(-0.00062401732 -6.7524035e-19 0.11651084)
(-0.00081048495 -6.2334832e-19 0.12432331)
(-0.0010306071 -6.8723497e-19 0.1303326)
(-0.0012858819 -8.0115911e-19 0.1343258)
(-0.0015764413 -8.9222906e-19 0.1361541)
(-0.0019004871 -7.8252342e-19 0.13575877)
(-0.0022537062 -7.4291967e-19 0.13319426)
(-0.0026287697 -6.3579719e-19 0.12864334)
(-0.0030150673 -4.9919716e-19 0.12241821)
(-0.0033988532 -3.4627257e-19 0.11494343)
(-0.0037639461 7.783478e-20 0.10671957)
(-0.0040930299 -3.9149335e-20 0.098271834)
(-0.0043694335 -7.871097e-20 0.090092635)
(-0.0045790958 -1.5772219e-19 0.082589854)
(-0.0047123254 -2.4283793e-19 0.076051151)
(-0.0047649779 -4.1174979e-19 0.070630114)
(-0.0047388205 -5.5786894e-19 0.066353949)
(-0.0046410592 -6.8629128e-19 0.063147503)
(-0.0044831844 -6.0042501e-19 0.06086599)
(-0.0042793913 -2.5403101e-19 0.059329054)
(-0.00404487 -1.5709596e-19 0.058350626)
(-0.0037942306 -1.1714047e-19 0.057761295)
(-0.0035402719 1.4658677e-19 0.05742195)
(-0.0032932379 9.6975608e-20 0.057229002)
(-0.0030605975 8.1674818e-20 0.057112707)
(-0.0028473356 1.5845294e-19 0.057030943)
(-0.0026565186 2.5415877e-19 0.056961139)
(-0.0024898189 3.8268193e-19 0.05689263)
(-0.002348863 -1.6566974e-19 0.056821047)
(-0.002233724 -3.2280186e-20 0.056744524)
(-0.0021461409 1.4761886e-19 0.056662099)
(-0.0020904205 4.3619976e-19 0.056574385)
(-0.0020520325 2.8673083e-20 0.056475375)
(-0.0020845249 5.4003555e-20 0.056379756)
(-0.0020700737 -1.8263202e-19 0.056250374)
(-0.0022545934 4.0021278e-21 0.056153574)
(-0.0022407107 1.3858356e-19 0.05598481)
(-0.0026356903 1.250148e-19 0.056052481)
(-0.0027108854 3.8458203e-20 0.056776297)
(-0.0030351612 1.6855118e-19 0.056025196)
(-0.00165354 7.9458377e-21 0.035060078)
(-1.1166935e-06 -2.8296438e-20 0.0072661908)
(-8.2566676e-06 -8.6725906e-20 0.02144626)
(-2.221881e-05 -1.4874306e-19 0.035885841)
(-4.5491264e-05 -2.2558688e-19 0.050448274)
(-7.9847565e-05 -3.055258e-19 0.06496869)
(-0.00012734918 -4.0266291e-19 0.07925262)
(-0.00019031806 -4.812552e-19 0.093075721)
(-0.0002713087 -4.8473871e-19 0.10618518)
(-0.00037307549 -4.6049258e-19 0.11830345)
(-0.00049850993 -4.9842107e-19 0.12913512)
(-0.00065052937 -5.3690448e-19 0.13837774)
(-0.00083189819 -5.3578667e-19 0.14573729)
(-0.0010449606 -7.172083e-19 0.15094882)
(-0.0012912678 -9.4620906e-19 0.15380174)
(-0.0015710937 -9.8856309e-19 0.15416839)
(-0.0018828587 -9.2124115e-19 0.15203272)
(-0.0022225226 -8.4946724e-19 0.14751406)
(-0.0025830589 -5.945729e-19 0.14087967)
(-0.0029541738 -3.0960006e-19 0.1325396)
(-0.0033224537 -1.9355431e-19 0.12301977)
(-0.0036720926 -2.794163e-19 0.11291374)
(-0.00398623 -4.9613664e-19 0.10281976)
(-0.0042487604 -4.8377702e-19 0.093275312)
(-0.0044463001 -5.3516131e-19 0.084702471)
(-0.0045699093 -6.0417809e-19 0.077375062)
(-0.0046161982 -6.8332955e-19 0.071411935)
(-0.0045876143 -7.7129742e-19 0.066793715)
(-0.0044919032 -8.0980505e-19 0.063395462)
(-0.0043409061 -7.1993087e-19 0.061026083)
(-0.0041489551 -4.8588441e-19 0.059466571)
(-0.0039311464 -2.0930982e-19 0.058501659)
(-0.0037017519 -1.3421633e-19 0.057942173)
(-0.0034730023 -1.0666168e-20 0.057637381)
(-0.0032543595 1.4154228e-19 0.057478222)
(-0.0030523719 2.1349543e-19 0.057393406)
(-0.0028711724 2.5586221e-19 0.057341251)
(-0.0027126299 2.1947738e-19 0.057300157)
(-0.0025782693 -1.7797438e-19 0.057260399)
(-0.0024690279 1.0403108e-19 0.057218304)
(-0.0023815416 1.6197954e-19 0.057171646)
(-0.0023326693 3.5273207e-19 0.057123314)
(-0.0022815018 9.5911854e-20 0.057064926)
(-0.0023232794 2.5641315e-19 0.057014452)
(-0.0022895934 9.7556383e-20 0.056940161)
(-0.0024594246 4.1284289e-20 0.056884772)
(-0.0024555494 1.5507448e-19 0.056838021)
(-0.0027778613 3.4144437e-20 0.057110367)
(-0.0028584687 4.150683e-20 0.058079137)
(-0.002933305 2.9628285e-21 0.055609976)
(-0.0013739597 4.1527861e-21 0.031186401)
(-1.012488e-06 -7.347769e-21 0.0077418648)
(-7.3382058e-06 -2.1704564e-20 0.022882463)
(-1.9727831e-05 -3.9408319e-20 0.038339127)
(-4.0352675e-05 -5.3003563e-20 0.053974361)
(-7.0764115e-05 -6.935524e-20 0.06962125)
(-0.00011276269 -1.0736268e-19 0.085081678)
(-0.00016837489 -1.8009202e-19 0.10012556)
(-0.00023983215 -2.647524e-19 0.11449156)
(-0.0003295504 -3.2661292e-19 0.12789005)
(-0.00044009001 -4.127952e-19 0.14000887)
(-0.00057408293 -4.9166983e-19 0.150523)
(-0.00073411344 -5.1834259e-19 0.15910875)
(-0.00092253452 -5.6641465e-19 0.16546326)
(-0.0011411999 -6.3136832e-19 0.16932927)
(-0.0013910983 -6.8861638e-19 0.1705243)
(-0.0016718874 -6.3299706e-19 0.16897188)
(-0.0019813507 -5.3487028e-19 0.16473057)
(-0.0023148455 -3.9739078e-19 0.15801465)
(-0.002664861 -3.1732977e-20 0.14919938)
(-0.003020849 1.9279724e-20 0.13880457)
(-0.0033695013 -1.0326918e-19 0.12745402)
(-0.0036955923 -4.149412e-19 0.11581412)
(-0.0039833771 -5.1283668e-19 0.10452177)
(-0.0042183593 -5.7021891e-19 0.094116184)
(-0.0043890975 -6.901111e-19 0.0849887)
(-0.0044886692 -7.6156685e-19 0.077359738)
(-0.0045154853 -7.7833329e-19 0.071284074)
(-0.004473322 -7.2909051e-19 0.066678655)
(-0.0043706243 -7.7567152e-19 0.063363289)
(-0.004219272 -6.5486071e-19 0.061104423)
(-0.0040330534 -2.7691073e-19 0.059654481)
(-0.003826089 -7.2132239e-20 0.058782321)
(-0.0036114512 -7.4104264e-20 0.058293007)
(-0.0034001426 1.1525891e-19 0.05803698)
(-0.0032004718 1.6917446e-19 0.057910096)
(-0.0030183509 1.9226426e-19 0.057847095)
(-0.0028571218 1.4490172e-19 0.057811579)
(-0.0027183368 7.3405302e-21 0.057785683)
(-0.0026062589 1.7915173e-19 0.057762435)
(-0.0025108004 2.462963e-19 0.057737825)
(-0.002460647 2.8432154e-19 0.057714856)
(-0.0023982647 1.5733681e-19 0.057686997)
(-0.0024310447 2.9494523e-19 0.057664722)
(-0.0023934375 1.7866467e-19 0.057635229)
(-0.0025269461 7.6932707e-20 0.057610523)
(-0.0025311411 2.5720113e-20 0.057679712)
(-0.0027974396 -6.5066233e-21 0.058164642)
(-0.002822667 2.4689523e-20 0.059045065)
(-0.0026962012 -7.0324037e-20 0.054648217)
(-0.0011010489 1.351395e-21 0.027901245)
(-8.9784717e-07 1.3006829e-20 0.0081557291)
(-6.4979216e-06 3.9578717e-20 0.024133112)
(-1.7456129e-05 6.3905501e-20 0.040477162)
(-3.5704525e-05 9.9749366e-20 0.057050058)
(-6.2631854e-05 1.3099948e-19 0.073683591)
(-9.98562e-05 1.2728829e-19 0.090177081)
(-0.00014920688 8.1387399e-20 0.1062962)
(-0.00021270894 -1.3611433e-20 0.12177318)
(-0.00029256935 -9.3643809e-20 0.13630908)
(-0.00039114771 -9.6705094e-20 0.14957881)
(-0.00051090023 -8.3028506e-20 0.16123977)
(-0.00065428706 -1.261375e-19 0.17094505)
(-0.00082362839 -1.1723805e-19 0.17836189)
(-0.0010208926 -1.0487962e-19 0.18319574)
(-0.0012474018 -3.0508631e-19 0.18521942)
(-0.0015034466 -1.6169586e-19 0.18430554)
(-0.0017878189 6.1132657e-20 0.18045876)
(-0.0020973013 -1.5564912e-20 0.17384196)
(-0.0024261955 9.4659351e-20 0.16478952)
(-0.0027660202 3.1872315e-19 0.1538003)
(-0.0031055328 2.2463813e-19 0.14150557)
(-0.0034312257 -1.4804242e-19 0.12861254)
(-0.0037283579 -3.4162163e-19 0.11583094)
(-0.0039824426 -4.5032057e-19 0.10379642)
(-0.0041809532 -4.6108813e-19 0.09300664)
(-0.0043149093 -4.0675731e-19 0.083782799)
(-0.0043800042 -2.765935e-19 0.076261863)
(-0.0043770559 -1.4243253e-19 0.070416422)
(-0.0043117356 -4.0073855e-19 0.066093258)
(-0.004193684 -6.2753311e-19 0.063059803)
(-0.004035214 -3.8437534e-19 0.061049146)
(-0.0038498248 2.2046735e-20 0.059797427)
(-0.0036507507 -4.7376871e-20 0.059070578)
(-0.0034497862 1.9934519e-19 0.0586797)
(-0.0032563078 3.8323436e-19 0.05848593)
(-0.0030772359 1.6935421e-19 0.058396859)
(-0.0029172017 1.2395411e-19 0.058357457)
(-0.0027769369 1.6764183e-19 0.058338594)
(-0.0026635603 6.6263237e-21 0.058327662)
(-0.0025627563 2.1198464e-19 0.058318633)
(-0.0025067595 1.8540448e-19 0.058312147)
(-0.0024383228 1.1239816e-19 0.058306183)
(-0.0024526844 9.0151693e-20 0.058301189)
(-0.0024117702 5.5646946e-20 0.058300814)
(-0.0025119186 7.923595e-20 0.058309222)
(-0.0025072871 -6.8754873e-20 0.058484363)
(-0.002727409 9.3278252e-20 0.059132898)
(-0.0026756689 2.4569488e-20 0.059656011)
(-0.0023888366 7.9019717e-20 0.053355221)
(-0.00085813267 6.0937828e-22 0.025179048)
(-8.2735108e-07 1.3664119e-20 0.0085283037)
(-5.942523e-06 4.0793141e-20 0.025259098)
(-1.5947276e-05 7.0066437e-20 0.042402291)
(-3.2599537e-05 1.0743961e-19 0.059819881)
(-5.7165764e-05 1.5014178e-19 0.077342672)
(-9.1123598e-05 1.9932732e-19 0.094767943)
(-0.00013614639 2.3872363e-19 0.11185794)
(-0.00019409128 2.3472537e-19 0.12833968)
(-0.00026698968 2.2194039e-19 0.14390665)
(-0.0003570253 3.1897331e-19 0.1582232)
(-0.00046649066 4.3838635e-19 0.17093238)
(-0.00059771268 5.3429021e-19 0.18166824)
(-0.00075293511 6.5488575e-19 0.19007341)
(-0.00093414423 5.765851e-19 0.19582241)
(-0.0011428225 2.822727e-19 0.19865052)
(-0.0013796206 2.5387011e-20 0.19838691)
(-0.0016439507 -4.2670181e-20 0.19498881)
(-0.0019335235 -3.8402607e-19 0.18857178)
(-0.0022438886 -6.7134533e-19 0.17942904)
(-0.0025680796 -5.9841956e-19 0.16803223)
(-0.0028965009 -2.6757908e-19 0.15500751)
(-0.0032171952 -7.6632276e-20 0.14108508)
(-0.0035165933 -1.6631556e-19 0.12702737)
(-0.0037807326 -1.9147756e-19 0.11354786)
(-0.003996787 -2.6049968e-19 0.10123705)
(-0.0041546277 -2.5227974e-19 0.090510564)
(-0.0042480918 -2.1841043e-19 0.081588473)
(-0.0042757003 -1.8451549e-20 0.074505677)
(-0.0042407142 1.9910634e-19 0.069146127)
(-0.0041505674 -7.6488868e-20 0.065289703)
(-0.0040158337 -9.6991258e-20 0.062661086)
(-0.0038489249 2.1931835e-20 0.0609728)
(-0.003662699 6.2914185e-20 0.059958108)
(-0.003469261 1.8352729e-19 0.059392235)
(-0.0032788417 4.0468565e-19 0.059102237)
(-0.0030992514 4.0621843e-19 0.058967048)
(-0.0029366183 4.5742766e-19 0.058910373)
(-0.0027916372 4.7125627e-19 0.058889272)
(-0.0026727275 1.8656338e-19 0.058883109)
(-0.002565742 3.5717375e-19 0.058882996)
(-0.0024995322 2.2065431e-19 0.058886103)
(-0.0024251521 2.4179765e-19 0.058893291)
(-0.0024211635 -4.2215172e-19 0.058899448)
(-0.0023720043 -1.5338594e-19 0.058915932)
(-0.0024471066 4.0148336e-20 0.058961413)
(-0.0024274962 -1.0487997e-19 0.059233659)
(-0.0026018598 1.0304329e-19 0.059959582)
(-0.0024785483 3.2039875e-20 0.059936138)
(-0.0020739826 1.1644835e-19 0.05189471)
(-0.00066290607 2.587688e-20 0.02294867)
(-7.6204374e-07 -2.444615e-20 0.0088669749)
(-5.4575756e-06 -7.2280686e-20 0.026283025)
(-1.4629922e-05 -1.1763623e-19 0.044153579)
(-2.9894327e-05 -1.6401502e-19 0.062340636)
(-5.2417358e-05 -2.1539082e-19 0.080674311)
(-8.3563441e-05 -2.3531737e-19 0.098950291)
(-0.00012488198 -2.1202888e-19 0.11692805)
(-0.00017809846 -2.398058e-19 0.13433027)
(-0.00024510814 -2.6729642e-19 0.15084415)
(-0.00032795938 -2.9611116e-19 0.16612512)
(-0.0004288186 -3.1665696e-19 0.17980409)
(-0.00054990861 -3.6952067e-19 0.19149893)
(-0.00069341017 -4.685785e-19 0.20083124)
(-0.00086131337 -3.7347859e-19 0.20744897)
(-0.0010552051 -1.6094036e-19 0.21105491)
(-0.0012759819 -5.334413e-19 0.21144012)
(-0.0015234871 -9.0377167e-19 0.20851949)
(-0.0017960879 -1.0601277e-18 0.20236503)
(-0.0020902355 -1.3975916e-18 0.19323002)
(-0.0024000895 -1.4851943e-18 0.18155635)
(-0.0027173254 -1.2274746e-18 0.16795787)
(-0.0030312567 -6.5339806e-19 0.1531762)
(-0.0033293818 -3.553261e-19 0.13801199)
(-0.0035983829 -1.8356765e-19 0.12324179)
(-0.003825482 -9.4530881e-20 0.10953662)
(-0.0039999269 -3.3162964e-19 0.097398901)
(-0.0041143123 -4.6448813e-19 0.087129651)
(-0.0041654665 -4.8856856e-20 0.078828928)
(-0.0041547453 3.8965657e-19 0.072424257)
(-0.0040877205 2.9259761e-19 0.067716246)
(-0.0039733712 3.6894403e-19 0.06442979)
(-0.0038229552 1.8035593e-19 0.062261598)
(-0.0036487108 1.7221524e-19 0.060918424)
(-0.0034626601 1.9269064e-19 0.060143615)
(-0.0032754962 1.2512653e-19 0.05973182)
(-0.0030956141 4.3484489e-19 0.05953295)
(-0.0029301145 6.1017045e-19 0.059447639)
(-0.00278038 3.1774265e-19 0.059416932)
(-0.0026546258 2.9009569e-19 0.059410099)
(-0.002541039 2.9440728e-19 0.059413732)
(-0.0024638338 -5.4278207e-20 0.059421754)
(-0.00238137 1.2942195e-19 0.059434901)
(-0.0023616032 -3.9049447e-19 0.059447615)
(-0.0023013559 -2.0678468e-19 0.059475032)
(-0.0023554203 1.3257392e-20 0.059558881)
(-0.0023215739 -2.8893926e-20 0.059914709)
(-0.0024475278 -1.2705337e-20 0.060624936)
(-0.002264773 2.2895056e-20 0.059941633)
(-0.0017785974 -7.6229793e-20 0.050389317)
(-0.00050937032 1.5740983e-20 0.021155493)
(-7.1251856e-07 -2.3947488e-20 0.0091791443)
(-5.0803374e-06 -7.2042909e-20 0.027226995)
(-1.3601275e-05 -1.231795e-19 0.045768393)
(-2.777497e-05 -1.7814064e-19 0.06466543)
(-4.8685643e-05 -2.3157469e-19 0.083747713)
(-7.7603514e-05 -2.9059224e-19 0.10280964)
(-0.00011597363 -3.4571155e-19 0.12160835)
(-0.00016540895 -4.0324824e-19 0.1398629)
(-0.00022768655 -4.6242643e-19 0.15725506)
(-0.00030473482 -5.0389361e-19 0.17343266)
(-0.00039860518 -5.2954894e-19 0.18801614)
(-0.00051142096 -5.7424613e-19 0.20060938)
(-0.00064529357 -6.6150587e-19 0.21081572)
(-0.00080219416 -7.7879436e-19 0.21825989)
(-0.00098376746 -8.588164e-19 0.22261607)
(-0.0011910781 -9.0916335e-19 0.22364139)
(-0.0014242834 -1.0435269e-18 0.22121253)
(-0.0016822433 -1.1532206e-18 0.21536126)
(-0.0019621018 -1.2100381e-18 0.20630262)
(-0.002258904 -1.272784e-18 0.19444774)
(-0.0025653541 -1.2599546e-18 0.18039382)
(-0.0028718353 -9.0670335e-19 0.16488603)
(-0.0031668044 -6.2316959e-19 0.14875263)
(-0.0034376159 -4.2066359e-19 0.13282153)
(-0.0036717174 -1.6870313e-19 0.1178337)
(-0.0038580419 1.8615101e-20 0.10437074)
(-0.0039883331 -1.9659831e-19 0.092811059)
(-0.004058134 -2.8489962e-19 0.083320413)
(-0.0040672522 8.3368616e-20 0.075873685)
(-0.0040196528 4.0720537e-19 0.07029804)
(-0.0039228443 3.500906e-19 0.066325246)
(-0.0037869171 2.2843699e-19 0.063642699)
(-0.0036233668 1.8715878e-19 0.061936252)
(-0.0034439253 1.7230742e-19 0.06092156)
(-0.0032594924 1.847841e-19 0.060363282)
(-0.0030789781 4.1201182e-19 0.060082941)
(-0.0029101031 5.8456717e-19 0.059957249)
(-0.0027553206 3.8153042e-19 0.059909528)
(-0.0026223953 2.8915659e-19 0.059897306)
(-0.0025016161 2.033582e-19 0.059900692)
(-0.0024143014 -1.3398532e-19 0.059910404)
(-0.0023227559 -1.5894093e-20 0.059925181)
(-0.0022892793 -2.9241369e-19 0.059941286)
(-0.0022186951 -1.8555327e-19 0.059978852)
(-0.0022529926 2.2842886e-21 0.060100603)
(-0.0022076507 2.0634979e-20 0.060519286)
(-0.0022839476 -4.0666222e-20 0.061129405)
(-0.0020556305 8.2009487e-21 0.05973264)
(-0.0015178646 -9.9398496e-20 0.048909077)
(-0.00039096671 3.5614024e-21 0.019714779)
(-6.7002304e-07 -3.9964616e-20 0.0094691864)
(-4.7600214e-06 -1.202788e-19 0.028104235)
(-1.2726119e-05 -2.0628314e-19 0.047269353)
(-2.5970854e-05 -2.9904433e-19 0.066826799)
(-4.5509061e-05 -3.8176516e-19 0.086605821)
(-7.2531619e-05 -4.7437779e-19 0.10639975)
(-0.00010839566 -5.7327297e-19 0.12596379)
(-0.00015461945 -6.1400455e-19 0.14501381)
(-0.00021288023 -6.5801909e-19 0.16322694)
(-0.00028500438 -6.1384912e-19 0.18024434)
(-0.00037294434 -4.5952265e-19 0.19567729)
(-0.00047873497 -2.3192942e-19 0.20911738)
(-0.00060442141 5.0223051e-20 0.22015183)
(-0.00075194694 -1.6127484e-19 0.22838478)
(-0.00092298858 -6.3290715e-19 0.23346487)
(-0.0011187299 -7.3936828e-19 0.2351187)
(-0.0013395641 -7.0853398e-19 0.2331881)
(-0.0015847323 -2.4425407e-19 0.22766753)
(-0.0018519253 -7.4072417e-20 0.21873551)
(-0.0021369019 9.9528889e-20 0.20677224)
(-0.0024332146 -5.1175158e-19 0.19235548)
(-0.0027321541 -6.9685735e-19 0.17622837)
(-0.0030230276 -7.4310619e-19 0.15923873)
(-0.0032938386 -8.0313376e-19 0.14225657)
(-0.003532344 -9.1075395e-19 0.12608379)
(-0.0037273499 -4.6757501e-19 0.11137417)
(-0.0038700148 1.5232574e-19 0.098579532)
(-0.0039548982 7.2173444e-20 0.087930648)
(-0.0039805535 -2.7193698e-19 0.079451953)
(-0.0039495834 2.0808892e-19 0.073001313)
(-0.0038681917 3.4812596e-19 0.068322518)
(-0.0037453614 3.0860824e-19 0.065098967)
(-0.0035917975 3.1581158e-19 0.063000465)
(-0.0034188142 4.0230384e-19 0.061718888)
(-0.0032372883 5.5720488e-19 0.06099154)
(-0.0030565009 4.4938952e-19 0.06061273)
(-0.00288459 6.8149531e-19 0.060435091)
(-0.0027249417 9.4057257e-19 0.060363023)
(-0.0025852897 5.3145534e-19 0.060340956)
(-0.0024571836 2.2891164e-19 0.06034089)
(-0.002360648 1.4901986e-19 0.060349694)
(-0.0022604317 -9.382441e-20 0.060363783)
(-0.0022143547 -3.8717045e-19 0.06038153)
(-0.0021359018 -1.8760749e-19 0.060430644)
(-0.0021511316 -5.9115694e-21 0.060588197)
(-0.002097274 2.305534e-20 0.061043659)
(-0.0021257647 -3.4837801e-20 0.06148466)
(-0.0018641367 -8.1488327e-22 0.059363111)
(-0.0012980438 -9.3600212e-20 0.047491566)
(-0.00030173324 -4.478773e-21 0.018552228)
(-6.3489108e-07 -1.8952573e-20 0.0097407518)
(-4.4926027e-06 -5.6328629e-20 0.028925709)
(-1.1993108e-05 -9.4863998e-20 0.048675094)
(-2.445664e-05 -1.3091332e-19 0.068851383)
(-4.2838392e-05 -1.7846504e-19 0.089283567)
(-6.8261172e-05 -2.2333947e-19 0.1097641)
(-0.00010200657 -2.6577798e-19 0.13004648)
(-0.00014551088 -2.945685e-19 0.14984386)
(-0.00020036418 -3.303293e-19 0.16882924)
(-0.00026830301 -3.7444108e-19 0.1866379)
(-0.00035119098 -3.9351687e-19 0.202873)
(-0.00045098168 -3.0842001e-19 0.21711519)
(-0.00056965571 -2.3255049e-19 0.22893732)
(-0.00070912206 -2.5885031e-19 0.23792506)
(-0.00087107148 -3.1918702e-19 0.24370405)
(-0.0010567708 -3.2360624e-19 0.24597315)
(-0.0012667923 -3.2075873e-19 0.24454225)
(-0.0015006777 -2.6750257e-19 0.23937103)
(-0.0017565597 -1.8730965e-19 0.23060322)
(-0.0020307863 -2.286422e-19 0.21858838)
(-0.0023176237 -2.6967757e-19 0.20388302)
(-0.0026091459 -4.9010932e-19 0.18722414)
(-0.0028954213 -5.8234912e-19 0.16947293)
(-0.0031650716 -5.6182721e-19 0.15153387)
(-0.0034062059 -5.0980997e-19 0.13426218)
(-0.0036076249 -4.9400392e-19 0.11837743)
(-0.003760087 -3.1414716e-19 0.10440082)
(-0.0038573903 1.4915077e-19 0.09262678)
(-0.0038970604 1.9363211e-19 0.083130437)
(-0.0038805364 7.4688235e-20 0.075803326)
(-0.0038128624 2.7354882e-19 0.070405269)
(-0.0037019928 3.1244764e-19 0.066620028)
(-0.0035578412 3.4033507e-19 0.06410553)
(-0.0033912412 4.0584255e-19 0.062533443)
(-0.0032129164 5.5557874e-19 0.061616364)
(-0.0030323623 6.1471681e-19 0.061122889)
(-0.0028580791 7.3490018e-19 0.06088191)
(-0.0026941193 9.456102e-19 0.060778223)
(-0.0025485185 6.1434334e-19 0.060741992)
(-0.0024136933 2.9208083e-19 0.060735892)
(-0.0023087477 1.6535568e-19 0.060741881)
(-0.0022012337 -1.1952964e-19 0.060754343)
(-0.0021433897 -3.4408335e-19 0.060773526)
(-0.0020596993 -1.9142091e-19 0.06083607)
(-0.0020567587 -8.7073281e-21 0.061025701)
(-0.0019961902 1.8642827e-20 0.061489591)
(-0.0019810014 -3.1303799e-20 0.061709311)
(-0.0016950235 -1.411393e-20 0.058879328)
(-0.0011173894 -7.7963259e-20 0.046156138)
(-0.00023533212 -8.887991e-21 0.017609661)
(-6.0475318e-07 -4.8564035e-21 0.0099965183)
(-4.2628943e-06 -1.4423746e-20 0.029699492)
(-1.1361879e-05 -2.4591473e-20 0.049999389)
(-2.3150945e-05 -3.5875801e-20 0.07075894)
(-4.0533711e-05 -5.3344716e-20 0.091806962)
(-6.457399e-05 -7.1290336e-20 0.11293517)
(-9.6487703e-05 -8.7537054e-20 0.13389559)
(-0.00013763978 -1.6983344e-19 0.15439895)
(-0.00018954425 -2.3387601e-19 0.17411458)
(-0.00025385858 -3.1871247e-19 0.19267252)
(-0.00033236742 -4.5329145e-19 0.20966866)
(-0.00042695078 -6.2176071e-19 0.2246738)
(-0.00053952851 -7.9713826e-19 0.23724782)
(-0.00067197225 -7.0442139e-19 0.24695972)
(-0.00082597377 -3.0260213e-19 0.2534142)
(-0.0010028589 -2.5371359e-19 0.25628478)
(-0.0012033382 -1.4640151e-19 0.25535184)
(-0.0014271947 -3.4053659e-19 0.25054261)
(-0.0016729235 -2.9027694e-19 0.24196766)
(-0.0019373642 -4.0557688e-19 0.22994644)
(-0.0022153913 -1.35427e-19 0.21501315)
(-0.0024997619 -3.0177599e-19 0.19789555)
(-0.002781227 -3.4421576e-19 0.17946323)
(-0.0030489901 -2.6323064e-19 0.16064894)
(-0.0032915341 -6.6975e-20 0.14235461)
(-0.0034977358 -1.4509555e-19 0.12535989)
(-0.0036580879 -5.6296283e-19 0.11025138)
(-0.0037657959 -1.5974966e-19 0.097385461)
(-0.0038175382 3.4937206e-19 0.0868884)
(-0.003813757 2.5662036e-19 0.078687525)
(-0.0037584687 3.4404175e-19 0.072561844)
(-0.0036586841 3.4840214e-19 0.068199078)
(-0.0035235489 3.696662e-19 0.065248833)
(-0.003363378 3.7516042e-19 0.063365752)
(-0.0031886621 2.5180146e-19 0.062240253)
(-0.0030089659 5.1100192e-19 0.061616866)
(-0.0028330973 6.1564099e-19 0.061301408)
(-0.0026656109 5.6834404e-19 0.061158822)
(-0.0025148712 3.4205925e-19 0.061104097)
(-0.0023743023 2.1642895e-19 0.061089647)
(-0.0022616936 -8.6995586e-20 0.061091499)
(-0.002148479 -8.6672666e-20 0.061102207)
(-0.0020798293 -2.3512611e-20 0.061123791)
(-0.0019929296 -1.7487212e-19 0.061201224)
(-0.0019732924 -1.7531136e-20 0.061417573)
(-0.0019065981 1.1162418e-20 0.06186169)
(-0.0018531315 -2.5934724e-20 0.061822685)
(-0.0015492067 -1.6059029e-20 0.058316728)
(-0.00097149688 -6.9634907e-20 0.044907513)
(-0.00018656408 -1.2048757e-20 0.016834945)
(-5.7894701e-07 -1.9206537e-20 0.010238636)
(-4.0647934e-06 -5.8448634e-20 0.030432059)
(-1.0815458e-05 -1.0106434e-19 0.051253271)
(-2.2018357e-05 -1.5013302e-19 0.07256529)
(-3.8531957e-05 -1.8828967e-19 0.094196816)
(-6.1368218e-05 -2.3439671e-19 0.11593894)
(-9.168544e-05 -2.8152717e-19 0.13754239)
(-0.00013078566 -3.3592153e-19 0.15871573)
(-0.00018011557 -4.0098381e-19 0.17912499)
(-0.00024126239 -4.559603e-19 0.1983955)
(-0.00031593986 -4.6686338e-19 0.21611654)
(-0.00040596055 -5.3382851e-19 0.23185001)
(-0.0005131867 -5.6612333e-19 0.24514401)
(-0.00063945174 -5.7271717e-19 0.25555229)
(-0.00078644096 -5.1364786e-19 0.26266044)
(-0.00095552099 -4.3141138e-19 0.26611862)
(-0.0011475102 -4.1524369e-19 0.26567987)
(-0.0013623869 -4.7328893e-19 0.26124098)
(-0.0015989475 -5.108894e-19 0.252881)
(-0.0018544479 -5.1947115e-19 0.24088991)
(-0.0021242865 -3.1215044e-19 0.22577894)
(-0.002401821 -1.4672003e-19 0.20826435)
(-0.0026784178 -1.1893498e-19 0.18922017)
(-0.002943826 -5.4644453e-20 0.16960215)
(-0.0031869099 4.2250362e-20 0.15035329)
(-0.0033966775 5.3922801e-20 0.13230813)
(-0.0035634551 -1.5433621e-19 0.11611485)
(-0.0036799876 -1.9946341e-19 0.1021899)
(-0.0037422506 1.2131487e-19 0.090710633)
(-0.0037498285 2.8312069e-19 0.081641694)
(-0.0037058292 3.5845642e-19 0.074783783)
(-0.0036164024 3.4650775e-19 0.069831563)
(-0.0034899624 3.3228173e-19 0.066429369)
(-0.0033362925 3.0098278e-19 0.064217633)
(-0.0031656033 2.4651455e-19 0.062866938)
(-0.0029874249 3.6530706e-19 0.062099431)
(-0.0028107798 5.0476543e-19 0.061698722)
(-0.0026406747 4.6021249e-19 0.061509974)
(-0.002485628 2.8345196e-19 0.061432387)