/*--------------------------------*- C++ -*----------------------------------*\
| =========                 |                                                 |
| \\      /  F ield         | OpenFOAM: The Open Source CFD Toolbox           |
|  \\    /   O peration     | Version:  4.0                                   |
|   \\  /    A nd           | Web:      www.OpenFOAM.org                      |
|    \\/     M anipulation  |                                                 |
\*---------------------------------------------------------------------------*/
FoamFile
{
    version     2.0;
    format      ascii;
    class       volScalarField;
    location    "2000";
    object      ILambda_10_0;
}
// * * * * * * * * * * * * * * * * * * * * * * * * * * * * * * * * * * * * * //

dimensions      [1 0 -3 0 0 0 0];

internalField   nonuniform List<scalar> 
5000
(
156.81184
156.84058
156.87216
156.90688
156.94505
156.98703
157.0332
157.08395
157.1397
157.20088
157.26792
157.3413
157.42152
157.50912
157.60468
157.70886
157.82234
157.94584
158.08014
158.22603
158.3843
158.55579
158.74131
158.94166
159.15764
159.39001
159.63946
159.90664
160.19208
160.49622
160.81933
161.16153
161.52275
161.90268
162.3008
162.7163
163.14813
163.59496
164.05523
164.52711
165.00858
165.49748
165.99152
166.4884
166.98585
167.48168
167.97392
168.46081
168.94087
169.41293
162.62583
162.64082
162.65731
162.67546
162.69545
162.71749
162.7418
162.76859
162.7981
162.83054
162.86614
162.90515
162.94781
162.99441
163.04527
163.10074
163.16121
163.2271
163.29886
163.37695
163.46187
163.5541
163.65416
163.76255
163.87982
164.00647
164.14302
164.28998
164.44783
164.61701
164.79793
164.99093
165.1963
165.41422
165.64479
165.88801
166.14376
166.41181
166.69177
166.98318
167.28542
167.59778
167.91942
168.24946
168.58691
168.93078
169.28003
169.63363
169.99057
170.3499
165.65628
165.66537
165.67538
165.68641
165.69858
165.71202
165.72688
165.74329
165.76139
165.78132
165.80323
165.82724
165.85353
165.88226
165.91363
165.94788
165.98525
166.02601
166.07048
166.11896
166.17178
166.22929
166.29184
166.35981
166.43358
166.51353
166.60008
166.69364
166.79461
166.90341
167.02044
167.14609
167.28072
167.42468
167.57826
167.74173
167.9153
168.09912
168.29328
168.4978
168.71262
168.93762
169.17257
169.41717
169.67107
169.93379
170.2048
170.48353
170.76932
171.06148
167.4939
167.50012
167.50696
167.5145
167.52284
167.53206
167.54227
167.55356
167.56605
167.57982
167.59496
167.61159
167.62979
167.64971
167.67147
167.69524
167.7212
167.74956
167.78053
167.81437
167.8513
167.8916
167.93554
167.98341
168.03551
168.09215
168.15368
168.22043
168.29276
168.37104
168.45563
168.5469
168.64524
168.751
168.86453
168.98617
169.11623
169.255
169.40274
169.55964
169.72589
169.90158
170.08677
170.28146
170.48555
170.69889
170.92124
171.15231
171.39171
171.63898
168.74811
168.75283
168.75803
168.76376
168.77011
168.77714
168.78493
168.79356
168.80311
168.81365
168.82526
168.838
168.85196
168.86723
168.88392
168.90215
168.92207
168.94384
168.96764
168.99365
169.02207
169.05311
169.087
169.12397
169.16426
169.20814
169.25589
169.30779
169.36415
169.42529
169.49154
169.56323
169.6407
169.7243
169.81437
169.91126
170.01531
170.12684
170.24616
170.37355
170.50928
170.65357
170.80661
170.96855
171.13946
171.31936
171.50822
171.70591
171.91226
172.12699
169.70075
169.7045
169.70865
169.71322
169.71828
169.7239
169.73013
169.73704
169.74469
169.75315
169.76246
169.77269
169.7839
169.79617
169.80957
169.82422
169.84022
169.85772
169.87686
169.8978
169.92069
169.94572
169.97307
170.00293
170.03553
170.07107
170.1098
170.15197
170.19784
170.2477
170.30183
170.36054
170.42414
170.49296
170.56732
170.64755
170.73399
170.82697
170.92681
171.03384
171.14835
171.27063
171.40094
171.53948
171.68645
171.84198
172.00614
172.17894
172.36032
172.55017
170.45922
170.46234
170.46577
170.46957
170.47378
170.47845
170.48364
170.4894
170.49578
170.50284
170.51061
170.51916
170.52852
170.53876
170.54996
170.56219
170.57556
170.59018
170.60618
170.62368
170.64282
170.66377
170.68667
170.71169
170.73903
170.76886
170.8014
170.83686
170.87549
170.91752
170.96323
171.01288
171.06675
171.12515
171.18839
171.25676
171.33061
171.41024
171.49599
171.58818
171.68713
171.79314
171.90652
172.02752
172.15638
172.2933
172.43844
172.59189
172.7537
172.92384
171.08844
171.09109
171.09402
171.09726
171.10084
171.10482
171.10925
171.11417
171.11963
171.12566
171.13232
171.13963
171.14765
171.15641
171.16599
171.17646
171.1879
171.20042
171.21411
171.2291
171.2455
171.26345
171.28309
171.30456
171.32802
171.35365
171.38162
171.41214
171.44541
171.48165
171.5211
171.56401
171.61064
171.66125
171.71615
171.77561
171.83995
171.90947
171.9845
172.06536
172.15236
172.24583
172.34607
172.45338
172.56803
172.69025
172.82026
172.95821
173.10421
173.25832
171.62373
171.62603
171.62858
171.63139
171.63451
171.63797
171.64183
171.64611
171.65087
171.65614
171.66195
171.66834
171.67534
171.68299
171.69135
171.70049
171.71047
171.7214
171.73335
171.74643
171.76076
171.77644
171.7936
171.81237
171.8329
171.85532
171.87982
171.90656
171.93573
171.96754
172.00219
172.03991
172.08095
172.12555
172.17398
172.22652
172.28345
172.34507
172.41169
172.48361
172.56117
172.64467
172.73443
172.83076
172.93395
173.04426
173.16194
173.28718
173.42014
173.56094
172.08857
172.0906
172.09285
172.09533
172.09808
172.10114
172.10455
172.10834
172.11256
172.11723
172.12237
172.12803
172.13423
172.14101
172.14842
172.15651
172.16536
172.17503
172.18562
172.19721
172.20991
172.22381
172.23902
172.25567
172.27388
172.29379
172.31554
172.3393
172.36524
172.39353
172.42438
172.45799
172.49458
172.53439
172.57767
172.62466
172.67566
172.73092
172.79076
172.85547
172.92536
173.00075
173.08196
173.16928
173.26303
173.36349
173.47092
173.58554
173.70756
173.83712
172.49846
172.50028
172.50228
172.5045
172.50696
172.50969
172.51275
172.51615
172.51992
172.52411
172.52873
172.5338
172.53936
172.54544
172.55209
172.55934
172.56727
172.57594
172.58544
172.59583
172.60721
172.61968
172.63333
172.64827
172.66461
172.68249
172.70203
172.72338
172.7467
172.77215
172.79992
172.83019
172.86317
172.89908
172.93816
172.98063
173.02676
173.07681
173.13107
173.18983
173.25339
173.32206
173.39614
173.47595
173.56179
173.65397
173.75274
173.85836
173.97106
174.091
172.86446
172.8661
172.8679
172.8699
172.87213
172.8746
172.87736
172.88044
172.88386
172.88765
172.89183
172.89643
172.90146
172.90697
172.91299
172.91956
172.92674
172.93459
172.94318
172.95259
172.9629
172.97419
172.98655
173.00009
173.0149
173.0311
173.04882
173.06819
173.08935
173.11245
173.13767
173.16518
173.19518
173.22785
173.26343
173.30214
173.34422
173.38992
173.43952
173.49329
173.55153
173.61453
173.68259
173.75604
173.83516
173.92027
174.01164
174.10954
174.21419
174.32582
173.19461
173.1961
173.19775
173.19957
173.20159
173.20385
173.20636
173.20917
173.21229
173.21575
173.21957
173.22377
173.22837
173.2334
173.23889
173.24489
173.25145
173.25861
173.26646
173.27504
173.28445
173.29476
173.30605
173.31841
173.33195
173.34675
173.36294
173.38065
173.4
173.42114
173.44422
173.46941
173.49689
173.52684
173.55948
173.59501
173.63366
173.67568
173.72132
173.77085
173.82455
173.88271
173.94564
174.01362
174.08697
174.16598
174.25094
174.34213
174.43979
174.54415
173.49499
173.49635
173.49786
173.49953
173.50138
173.50345
173.50576
173.50834
173.51121
173.5144
173.51791
173.52177
173.526
173.53063
173.53568
173.54119
173.54722
173.5538
173.56101
173.56891
173.57756
173.58703
173.59741
173.60878
173.62123
173.63485
173.64974
173.66604
173.68385
173.70332
173.72458
173.74779
173.77313
173.80076
173.83088
173.86369
173.89941
173.93827
173.98052
174.0264
174.0762
174.13018
174.18865
174.2519
174.32023
174.39393
174.4733
174.55861
174.65013
174.74808
173.77025
173.7715
173.77289
173.77443
173.77615
173.77806
173.78019
173.78258
173.78523
173.78818
173.79143
173.795
173.79892
173.8032
173.80787
173.81297
173.81854
173.82463
173.83129
173.83859
173.84659
173.85535
173.86496
173.87547
173.88698
173.89958
173.91337
173.92845
173.94495
173.96297
173.98267
174.00418
174.02767
174.0533
174.08125
174.11171
174.14489
174.18102
174.22031
174.26303
174.30942
174.35977
174.41435
174.47346
174.53738
174.60642
174.68086
174.76099
174.84706
174.93931
174.02406
174.02523
174.02652
174.02795
174.02953
174.03131
174.03329
174.03551
174.03797
174.04071
174.04374
174.04706
174.0507
174.05468
174.05903
174.06377
174.06895
174.07461
174.0808
174.08759
174.09502
174.10317
174.11209
174.12187
174.13257
174.14429
174.15712
174.17115
174.18649
174.20327
174.2216
174.24164
174.26352
174.2874
174.31345
174.34187
174.37284
174.40657
174.44328
174.48322
174.52663
174.57378
174.62494
174.68039
174.74042
174.80533
174.8754
174.95091
175.03212
175.11929
174.25937
174.26045
174.26165
174.26298
174.26447
174.26612
174.26797
174.27004
174.27234
174.2749
174.27773
174.28084
174.28424
174.28796
174.29201
174.29644
174.30128
174.30656
174.31235
174.31868
174.32562
174.33323
174.34156
174.35069
174.36069
174.37164
174.38362
174.39673
174.41107
174.42675
174.44389
174.46263
174.48309
174.50544
174.52984
174.55645
174.58546
174.61708
174.65152
174.68901
174.72978
174.77409
174.82221
174.87442
174.93099
174.99222
175.05838
175.12975
175.20662
175.28922
174.47854
174.47956
174.48068
174.48193
174.48331
174.48486
174.4866
174.48854
174.4907
174.4931
174.49575
174.49866
174.50186
174.50534
174.50915
174.5133
174.51783
174.52279
174.52821
174.53415
174.54066
174.54779
174.5556
174.56416
174.57354
174.5838
174.59504
174.60733
174.62079
174.6355
174.65159
174.66918
174.6884
174.70939
174.73231
174.75732
174.78461
174.81435
174.84677
174.88207
174.92049
174.96228
175.00769
175.05699
175.11047
175.16839
175.23104
175.2987
175.37163
175.4501
174.68355
174.6845
174.68556
174.68673
174.68803
174.68949
174.69112
174.69294
174.69497
174.69723
174.69973
174.70247
174.70548
174.70876
174.71234
174.71625
174.72052
174.72518
174.73028
174.73587
174.74199
174.7487
174.75605
174.7641
174.77293
174.78259
174.79316
174.80474
174.8174
174.83125
174.84641
174.86297
174.88108
174.90086
174.92247
174.94606
174.97179
174.99987
175.03047
175.06382
175.10014
175.13966
175.18264
175.22933
175.28001
175.33495
175.39443
175.45873
175.5281
175.60282
174.87601
174.87691
174.8779
174.879
174.88023
174.88161
174.88314
174.88486
174.88679
174.88892
174.89128
174.89387
174.89671
174.89981
174.90319
174.90688
174.91091
174.91531
174.92012
174.9254
174.93117
174.9375
174.94444
174.95205
174.96037
174.96949
174.97948
174.99041
175.00237
175.01545
175.02976
175.04542
175.06253
175.08122
175.10165
175.12396
175.14831
175.17488
175.20386
175.23545
175.26987
175.30735
175.34813
175.39246
175.44062
175.49286
175.54946
175.6107
175.67683
175.74813
175.05729
175.05814
175.05908
175.06012
175.06129
175.06259
175.06404
175.06567
175.06749
175.06951
175.07174
175.0742
175.07689
175.07983
175.08303
175.08652
175.09033
175.0945
175.09906
175.10405
175.10952
175.11551
175.12208
175.12927
175.13716
175.14579
175.15524
175.16559
175.17692
175.18931
175.20287
175.2177
175.23391
175.25163
175.271
175.29215
175.31525
175.34046
175.36797
175.39797
175.43068
175.4663
175.50509
175.54728
175.59314
175.64292
175.6969
175.75535
175.81852
175.88668
175.22856
175.22937
175.23026
175.23125
175.23235
175.23358
175.23496
175.23651
175.23823
175.24015
175.24228
175.24461
175.24716
175.24995
175.25299
175.25631
175.25993
175.26388
175.2682
175.27294
175.27813
175.28382
175.29005
175.29688
175.30436
175.31256
175.32153
175.33136
175.34211
175.35387
175.36675
175.38083
175.39623
175.41307
175.43148
175.45158
175.47355
175.49753
175.5237
175.55226
175.5834
175.61734
175.65431
175.69455
175.73831
175.78585
175.83743
175.89332
175.95377
176.01905
175.39081
175.39158
175.39242
175.39336
175.39441
175.39558
175.39689
175.39836
175.40001
175.40183
175.40385
175.40607
175.40851
175.41116
175.41405
175.41721
175.42065
175.42441
175.42853
175.43303
175.43797
175.44338
175.44931
175.45581
175.46293
175.47072
175.47926
175.48861
175.49884
175.51004
175.52229
175.5357
175.55036
175.56639
175.58392
175.60308
175.62401
175.64687
175.67182
175.69906
175.72877
175.76117
175.79648
175.83493
175.87677
175.92225
175.97163
176.02517
176.08312
176.14575
175.54489
175.54562
175.54642
175.54732
175.54831
175.54943
175.55068
175.55208
175.55365
175.55539
175.55732
175.55944
175.56176
175.56429
175.56705
175.57006
175.57334
175.57693
175.58085
175.58515
175.58985
175.59501
175.60067
175.60686
175.61365
175.62108
175.62922
175.63813
175.64789
175.65857
175.67026
175.68304
175.69703
175.71233
175.72906
175.74735
175.76733
175.78916
175.813
175.83903
175.86744
175.89843
175.93221
175.96902
176.00909
176.05268
176.10002
176.15139
176.20703
176.2672
175.69154
175.69223
175.693
175.69385
175.6948
175.69587
175.69706
175.69841
175.6999
175.70157
175.70341
175.70544
175.70766
175.71008
175.71271
175.71559
175.71873
175.72215
175.7259
175.73
175.7345
175.73943
175.74483
175.75074
175.75723
175.76433
175.7721
175.78062
175.78994
175.80014
175.81131
175.82353
175.83691
175.85153
175.86753
175.88502
175.90413
175.92502
175.94784
175.97276
175.99996
176.02965
176.06203
176.09733
176.13577
176.1776
176.22307
176.27243
176.32593
176.38383
175.8314
175.83207
175.8328
175.83362
175.83453
175.83554
175.83669
175.83797
175.83941
175.841
175.84277
175.84471
175.84683
175.84915
175.85167
175.85443
175.85743
175.86071
175.86429
175.86822
175.87252
175.87724
175.88241
175.88807
175.89427
175.90107
175.90851
175.91666
175.92558
175.93535
175.94604
175.95775
175.97055
175.98456
175.99988
176.01663
176.03495
176.05497
176.07684
176.10074
176.12683
176.15532
176.1864
176.2203
176.25723
176.29745
176.34118
176.38867
176.44019
176.49596
175.96506
175.96569
175.96639
175.96717
175.96804
175.96902
175.97012
175.97135
175.97272
175.97425
175.97595
175.97781
175.97985
175.98207
175.98449
175.98713
175.99001
175.99315
175.99659
176.00035
176.00448
176.009
176.01395
176.01938
176.02533
176.03184
176.03898
176.04679
176.05535
176.06471
176.07496
176.08619
176.09847
176.1119
176.1266
176.14268
176.16025
176.17947
176.20047
176.22342
176.24849
176.27587
176.30575
176.33835
176.37388
176.41259
176.4547
176.50047
176.55013
176.60393
176.09299
176.0936
176.09427
176.09502
176.09586
176.09679
176.09784
176.09903
176.10035
176.10182
176.10345
176.10524
176.10719
176.10933
176.11166
176.11419
176.11695
176.11997
176.12327
176.12689
176.13085
176.13519
176.13994
176.14516
176.15087
176.15712
176.16397
176.17147
176.17969
176.18868
176.19853
176.20931
176.2211
176.23401
176.24813
176.26358
176.28047
176.29895
176.31914
176.34121
176.36533
176.39167
176.42044
176.45183
176.48606
176.52337
176.56397
176.60812
176.65606
176.70801
176.21565
176.21624
176.21688
176.2176
176.2184
176.2193
176.22032
176.22145
176.22272
176.22414
176.22571
176.22743
176.22931
176.23137
176.2336
176.23604
176.2387
176.2416
176.24478
176.24825
176.25206
176.25623
176.2608
176.26582
176.27131
176.27732
176.28391
176.29112
176.29902
176.30767
176.31714
176.32751
176.33885
176.35127
176.36486
176.37972
176.39598
176.41376
176.4332
176.45446
176.47769
176.50307
176.5308
176.56107
176.59409
176.63008
176.66928
176.71192
176.75824
176.80847
176.33343
176.334
176.33462
176.33531
176.33608
176.33695
176.33792
176.33902
176.34024
176.34161
176.34312
176.34477
176.34659
176.34857
176.35072
176.35307
176.35563
176.35843
176.36148
176.36483
176.3685
176.37251
176.37692
176.38174
176.38703
176.39282
176.39916
176.40611
176.41371
176.42204
176.43116
176.44114
176.45207
176.46403
176.47712
176.49144
176.50711
176.52425
176.54299
176.56349
176.58589
176.61038
176.63713
176.66635
176.69824
176.73301
176.77089
176.81212
176.85692
176.90553
176.44669
176.44723
176.44783
176.4485
176.44924
176.45008
176.45102
176.45207
176.45325
176.45457
176.45603
176.45763
176.45938
176.46129
176.46337
176.46563
176.4681
176.47079
176.47374
176.47697
176.4805
176.48437
176.48862
176.49327
176.49836
176.50395
176.51006
176.51676
176.52409
176.53212
176.54091
176.55054
176.56108
176.57261
176.58524
176.59905
176.61417
176.63071
176.6488
176.66858
176.69021
176.71386
176.73971
176.76794
176.79877
176.83239
176.86904
176.90894
176.95232
176.9994
176.55574
176.55626
176.55684
176.55748
176.5582
176.55901
176.55991
176.56093
176.56207
176.56335
176.56475
176.5663
176.56799
176.56983
176.57184
176.57403
176.57641
176.57901
176.58185
176.58497
176.58838
176.59212
176.59621
176.6007
176.60562
176.61101
176.61691
176.62337
176.63045
176.6382
176.64669
176.65598
176.66616
176.67729
176.68949
176.70283
176.71743
176.7334
176.75088
176.77
176.79091
176.81377
176.83877
176.86608
176.89591
176.92846
176.96395
177.0026
177.04463
177.09028
176.66087
176.66137
176.66193
176.66255
176.66324
176.66402
176.6649
176.66588
176.66698
176.66821
176.66957
176.67107
176.6727
176.67449
176.67643
176.67854
176.68084
176.68336
176.68611
176.68911
176.69241
176.69602
176.69998
176.70432
176.70907
176.71428
176.71998
176.72622
176.73306
176.74055
176.74875
176.75773
176.76757
176.77833
176.79012
176.80302
176.81713
176.83258
176.84948
176.86798
176.88821
176.91034
176.93453
176.96098
176.98987
177.02141
177.0558
177.09328
177.13405
177.17835
176.76233
176.76282
176.76335
176.76395
176.76462
176.76538
176.76622
176.76718
176.76824
176.76943
176.77075
176.7722
176.77378
176.7755
176.77738
176.77943
176.78166
176.78409
176.78675
176.78966
176.79284
176.79634
176.80017
176.80436
176.80896
176.81399
176.81951
176.82555
176.83216
176.83941
176.84734
176.85603
176.86554
176.87596
176.88736
176.89984
176.91351
176.92846
176.94482
176.96273
176.98232
177.00376
177.0272
177.05283
177.08084
177.11142
177.14479
177.18116
177.22074
177.26376
176.86036
176.86083
176.86135
176.86193
176.86258
176.8633
176.86412
176.86505
176.86608
176.86723
176.86851
176.86991
176.87144
176.87312
176.87494
176.87692
176.87907
176.88143
176.884
176.88682
176.88991
176.89329
176.897
176.90106
176.90551
176.91038
176.91572
176.92157
176.92798
176.93499
176.94267
176.95109
176.9603
176.97039
176.98143
176.99352
177.00675
177.02124
177.0371
177.05445
177.07345
177.09423
177.11696
177.14183
177.169
177.19868
177.23108
177.26639
177.30485
177.34666
176.95516
176.95562
176.95612
176.95668
176.95731
176.95802
176.95881
176.95971
176.96071
176.96183
176.96306
176.96442
176.96591
176.96753
176.9693
176.97122
176.97331
176.97559
176.97809
176.98082
176.98381
176.98709
176.99068
176.99461
176.99893
177.00365
177.00883
177.01449
177.0207
177.0275
177.03494
177.0431
177.05203
177.0618
177.07251
177.08423
177.09706
177.11111
177.12649
177.14332
177.16175
177.18192
177.20398
177.22812
177.2545
177.28334
177.31481
177.34914
177.38652
177.42719
177.04694
177.04738
177.04787
177.04842
177.04903
177.04971
177.05048
177.05135
177.05232
177.05341
177.05461
177.05593
177.05737
177.05895
177.06066
177.06252
177.06455
177.06676
177.06918
177.07183
177.07473
177.07791
177.0814
177.08521
177.0894
177.09398
177.099
177.1045
177.11052
177.11711
177.12433
177.13224
177.1409
177.15039
177.16078
177.17215
177.1846
177.19823
177.21316
177.2295
177.2474
177.26698
177.28841
177.31186
177.3375
177.36553
177.39613
177.42952
177.46589
177.50547
177.13587
177.1363
177.13678
177.1373
177.13789
177.13856
177.13931
177.14015
177.1411
177.14215
177.14332
177.1446
177.146
177.14753
177.14919
177.151
177.15297
177.15512
177.15747
177.16004
177.16286
177.16594
177.16933
177.17303
177.17709
177.18154
177.18641
177.19175
177.19759
177.20399
177.211
177.21868
177.22709
177.2363
177.24639
177.25743
177.26952
177.28277
177.29727
177.31314
177.33053
177.34956
177.37039
177.39319
177.41813
177.44539
177.47517
177.50766
177.54308
177.58162
177.22212
177.22253
177.22299
177.22351
177.22408
177.22472
177.22545
177.22627
177.22719
177.22821
177.22935
177.23059
177.23196
177.23344
177.23506
177.23682
177.23873
177.24082
177.2431
177.2456
177.24834
177.25134
177.25462
177.25822
177.26217
177.26649
177.27122
177.2764
177.28208
177.2883
177.29511
177.30257
177.31074
177.31969
177.32949
177.34022
177.35198
177.36485
177.37894
177.39438
177.41128
177.42979
177.45006
177.47224
177.49651
177.52304
177.55204
177.58368
177.61819
177.65575
177.30582
177.30623
177.30667
177.30717
177.30773
177.30835
177.30906
177.30986
177.31075
177.31175
177.31285
177.31407
177.31539
177.31684
177.31841
177.32012
177.32198
177.32401
177.32623
177.32866
177.33132
177.33424
177.33743
177.34093
177.34477
177.34897
177.35357
177.35861
177.36413
177.37017
177.3768
177.38405
177.39199
177.40069
177.41022
177.42066
177.43209
177.44461
177.45832
177.47334
177.48979
177.5078
177.52753
177.54913
177.57276
177.5986
177.62685
177.65769
177.69132
177.72795
177.38713
177.38752
177.38795
177.38844
177.38898
177.38959
177.39028
177.39105
177.39192
177.39289
177.39397
177.39515
177.39644
177.39785
177.39938
177.40104
177.40285
177.40483
177.40699
177.40935
177.41194
177.41478
177.41788
177.42129
177.42502
177.42911
177.43358
177.43849
177.44386
177.44974
177.45618
177.46324
177.47097
177.47944
177.48871
177.49887
177.50999
177.52218
177.53552
177.55014
177.56616
177.5837
177.60292
177.62395
177.64698
177.67217
177.69971
177.72978
177.76258
177.79832
177.46615
177.46654
177.46696
177.46743
177.46796
177.46855
177.46922
177.46998
177.47082
177.47177
177.47282
177.47397
177.47522
177.47659
177.47808
177.47971
177.48147
177.48339
177.4855
177.4878
177.49032
177.49308
177.49611
177.49942
177.50305
177.50703
177.51139
177.51616
177.52139
177.52712
177.53339
177.54026
177.54779
177.55603
177.56506
177.57495
177.58579
177.59765
177.61065
177.6249
177.6405
177.6576
177.67632
177.69683
177.71928
177.74384
177.7707
177.80004
177.83206
177.86694
177.54303
177.5434
177.54381
177.54427
177.54478
177.54536
177.54601
177.54675
177.54757
177.54849
177.54952
177.55064
177.55186
177.5532
177.55465
177.55623
177.55795
177.55983
177.56187
177.56412
177.56657
177.56926
177.57221
177.57544
177.57898
177.58285
177.5871
177.59175
177.59684
177.60242
177.60853
177.61522
177.62256
177.63059
177.63939
177.64902
177.65958
177.67115
177.68382
177.6977
177.71291
177.72958
177.74784
177.76784
177.78974
177.81371
177.83993
177.86857
177.89983
177.9339
177.61785
177.61821
177.61861
177.61906
177.61956
177.62012
177.62076
177.62147
177.62228
177.62318
177.62417
177.62527
177.62647
177.62777
177.62918
177.63072
177.6324
177.63423
177.63623
177.63841
177.64081
177.64343
177.6463
177.64945
177.6529
177.65668
177.66081
177.66535
177.67031
177.67575
177.68171
177.68823
177.69538
177.70321
177.71178
177.72118
177.73147
177.74275
177.75511
177.76865
177.78349
177.79975
177.81756
177.83708
177.85846
177.88186
177.90746
177.93543
177.96597
177.99927
177.69072
177.69107
177.69146
177.6919
177.69239
177.69294
177.69356
177.69426
177.69504
177.69592
177.69689
177.69796
177.69913
177.7004
177.70178
177.70328
177.70492
177.7067
177.70865
177.71078
177.71312
177.71568
177.71848
177.72155
177.72491
177.7286
177.73263
177.73705
177.7419
177.7472
177.75301
177.75937
177.76634
177.77398
177.78235
177.79151
177.80156
177.81256
177.82462
177.83783
177.85231
177.86818
177.88558
177.90464
177.92551
177.94837
177.97337
178.00071
178.03056
178.06311
177.76174
177.76208
177.76246
177.76289
177.76336
177.7639
177.76451
177.76519
177.76596
177.76681
177.76776
177.76881
177.76995
177.77119
177.77254
177.774
177.7756
177.77734
177.77924
177.78132
177.7836
177.7861
177.78883
177.79183
177.79511
177.79871
177.80265
177.80696
177.81168
177.81686
177.82253
177.82874
177.83554
177.843
177.85116
177.86011
177.86991
177.88065
177.89242
177.90532
177.91947
177.93497
177.95195
177.97057
177.99097
178.01331
178.03775
178.06447
178.09366
178.1255
177.83099
177.83132
177.83169
177.83211
177.83257
177.8331
177.83369
177.83436
177.83511
177.83594
177.83687
177.83789
177.839
177.84022
177.84153
177.84297
177.84453
177.84623
177.84808
177.85012
177.85234
177.85478
177.85745
177.86037
177.86358
177.86709
177.87094
177.87515
177.87976
177.88481
177.89035
177.89641
177.90306
177.91033
177.91831
177.92704
177.93662
177.94711
177.95861
177.97121
177.98502
178.00017
178.01677
178.03497
178.0549
178.07674
178.10064
178.12678
178.15534
178.18649
177.89855
177.89888
177.89924
177.89964
177.9001
177.90061
177.90119
177.90184
177.90257
177.90339
177.9043
177.90529
177.90638
177.90757
177.90886
177.91026
177.91178
177.91344
177.91526
177.91724
177.91942
177.9218
177.92441
177.92726
177.93039
177.93382
177.93758
177.94169
177.9462
177.95114
177.95654
177.96247
177.96896
177.97607
177.98386
177.99239
178.00175
178.012
178.02323
178.03555
178.04905
178.06386
178.08009
178.09788
178.11738
178.13874
178.16213
178.1877
178.21565
178.24615
177.9645
177.96482
177.96518
177.96557
177.96601
177.96651
177.96708
177.96772
177.96843
177.96923
177.97012
177.97109
177.97216
177.97332
177.97458
177.97595
177.97744
177.97906
177.98083
177.98278
177.9849
177.98723
177.98978
177.99257
177.99563
177.99898
178.00265
178.00667
178.01108
178.0159
178.02119
178.02698
178.03332
178.04027
178.04788
178.05623
178.06537
178.07539
178.08638
178.09842
178.11163
178.1261
178.14198
178.15939
178.17846
178.19937
178.22225
178.24729
178.27465
178.30452
178.02891
178.02922
178.02957
178.02996
178.03039
178.03088
178.03143
178.03206
178.03276
178.03354
178.03441
178.03536
178.0364
178.03754
178.03877
178.04011
178.04157
178.04315
178.04489
178.04679
178.04886
178.05114
178.05363
178.05636
178.05936
178.06263
178.06622
178.07016
178.07446
178.07918
178.08435
178.09001
178.09621
178.10301
178.11045
178.11861
178.12755
178.13736
178.1481
178.15988
178.1728
178.18696
178.2025
178.21953
178.23821
178.25867
178.28108
178.3056
178.3324
178.36166
178.09185
178.09215
178.09249
178.09287
178.09329
178.09377
178.09431
178.09492
178.09561
178.09638
178.09723
178.09816
178.09918
178.10029
178.1015
178.10281
178.10423
178.10579
178.10748
178.10934
178.11137
178.1136
178.11604
178.11871
178.12164
178.12484
178.12835
178.1322
178.13641
178.14103
178.14608
178.15162
178.15769
178.16434
178.17162
178.17961
178.18835
178.19795
178.20846
178.21999
178.23263
178.2465
178.2617
178.27838
178.29667
178.31671
178.33866
178.36268
178.38895
178.41762
178.15337
178.15367
178.154
178.15437
178.15479
178.15526
178.15578
178.15638
178.15705
178.15781
178.15864
178.15955
178.16055
178.16164
178.16282
178.1641
178.1655
178.16702
178.16868
178.1705
178.17249
178.17467
178.17705
178.17967
178.18253
178.18567
178.18911
178.19287
178.19699
178.20151
178.20646
178.21188
178.21782
178.22432
178.23145
178.23927
178.24783
178.25722
178.26751
178.2788
178.29118
178.30475
178.31965
178.33598
178.3539
178.37353
178.39504
178.41859
178.44433
178.47245
178.21355
178.21384
178.21416
178.21452
178.21493
178.21539
178.21591
178.21649
178.21715
178.21789
178.2187
178.2196
178.22057
178.22164
178.2228
178.22405
178.22542
178.22691
178.22854
178.23032
178.23226
178.2344
178.23673
178.2393
178.2421
178.24517
178.24854
178.25222
178.25626
178.26068
178.26552
178.27083
178.27664
178.28302
178.29
178.29765
178.30603
178.31523
178.32531
178.33636
178.34849
178.36179
178.37638
178.39239
178.40994
178.42918
178.45027
178.47335
178.4986
178.52618
178.27242
178.27271
178.27302
178.27338
178.27377
178.27422
178.27473
178.2753
178.27595
178.27667
178.27747
178.27835
178.27931
178.28035
178.28148
178.28272
178.28405
178.28551
178.28711
178.28885
178.29076
178.29285
178.29514
178.29765
178.30039
178.3034
178.3067
178.31031
178.31426
178.31859
178.32334
178.32853
178.33423
178.34047
178.34731
178.3548
178.36302
178.37202
178.3819
178.39273
178.40461
178.41765
178.43195
178.44764
178.46484
178.48371
178.50439
178.52703
178.55179
178.57885
178.33005
178.33033
178.33064
178.33099
178.33137
178.33181
178.33231
178.33287
178.33351
178.33421
178.335
178.33586
178.3368
178.33782
178.33893
178.34014
178.34145
178.34288
178.34444
178.34615
178.34802
178.35007
178.35231
178.35477
178.35746
178.36041
178.36364
178.36718
178.37105
178.37529
178.37994
178.38503
178.39062
178.39673
178.40343
178.41077
178.41883
178.42765
178.43733
178.44795
178.45959
178.47237
178.48639
178.50178
178.51865
178.53716
178.55744
178.57965
178.60395
178.63051
178.38648
178.38675
178.38706
178.3874
178.38778
178.38821
178.3887
178.38925
178.38987
178.39056
178.39133
178.39217
178.3931
178.3941
178.39519
178.39637
178.39766
178.39906
178.40059
178.40227
178.4041
178.40611
178.40831
178.41072
178.41336
178.41625
178.41941
178.42288
178.42667
178.43083
178.43539
178.44038
178.44585
178.45184
178.45841
178.46561
178.47351
178.48216
178.49165
178.50206
178.51348
178.52601
178.53976
178.55485
178.57141
178.58956
178.60946
178.63126
178.65512
178.68119
178.44176
178.44203
178.44232
178.44266
178.44303
178.44345
178.44393
178.44447
178.44508
178.44576
178.44651
178.44734
178.44825
178.44923
178.4503
178.45146
178.45273
178.4541
178.4556
178.45724
178.45904
178.46101
178.46317
178.46553
178.46812
178.47095
178.47406
178.47745
178.48118
178.48525
178.48972
178.49462
178.49998
178.50586
178.5123
178.51936
178.5271
178.53559
178.54489
178.5551
178.5663
178.5786
178.59209
178.60689
178.62314
178.64096
178.6605
178.6819
178.70532
178.73092
178.49593
178.49619
178.49648
178.49681
178.49718
178.49759
178.49806
178.49859
178.49919
178.49986
178.5006
178.50141
178.5023
178.50326
178.50431
178.50545
178.50669
178.50804
178.50951
178.51112
178.51289
178.51482
178.51693
178.51925
178.52179
178.52457
178.52761
178.53095
178.5346
178.5386
178.54298
178.54778
178.55304
178.55881
178.56513
178.57205
178.57965
178.58797
178.5971
178.60712
178.61811
178.63017
178.64342
178.65795
178.6739
178.69139
178.71057
178.73159
178.75459
178.77974
178.54903
178.54929
178.54958
178.5499
178.55026
178.55066
178.55112
178.55164
178.55223
178.55289
178.55361
178.55441
178.55528
178.55623
178.55726
178.55838
178.5596
178.56092
178.56237
178.56395
178.56568
178.56757
178.56965
178.57192
178.57441
178.57714
178.58013
178.5834
178.58698
178.59091
178.59521
178.59992
178.60508
178.61074
178.61694
178.62373
178.63118
178.63935
178.64832
178.65815
178.66894
178.68078
178.69378
178.70804
178.7237
178.74088