/*--------------------------------*- C++ -*----------------------------------*\
| =========                 |                                                 |
| \\      /  F ield         | OpenFOAM: The Open Source CFD Toolbox           |
|  \\    /   O peration     | Version:  4.0                                   |
|   \\  /    A nd           | Web:      www.OpenFOAM.org                      |
|    \\/     M anipulation  |                                                 |
\*---------------------------------------------------------------------------*/
FoamFile
{
    version     2.0;
    format      ascii;
    class       volScalarField;
    location    "2000";
    object      ILambda_0_0;
}
// * * * * * * * * * * * * * * * * * * * * * * * * * * * * * * * * * * * * * //

dimensions      [1 0 -3 0 0 0 0];

internalField   nonuniform List<scalar> 
5000
(
156.635
156.4989
156.35614
156.20556
156.04255
155.85831
155.64018
155.37389
155.04676
154.65063
154.18298
153.64624
153.04593
152.3886
151.68048
150.92689
150.13236
149.30096
148.43683
147.54453
146.62935
145.69739
144.7557
143.81214
142.87534
141.9545
141.05914
140.19878
139.38259
138.61903
137.91541
137.27754
136.70941
136.21298
135.78802
135.43223
135.14136
134.90957
134.72985
134.59453
134.49577
134.42605
134.37855
134.34737
134.32771
134.31582
134.30893
134.30513
134.30313
134.30213
162.63819
162.69311
162.75688
162.82917
162.90607
162.97912
163.0355
163.05999
163.03813
162.95913
162.81713
162.61062
162.34064
162.00867
161.61525
161.15923
160.63782
160.04706
159.38229
158.63882
157.81244
156.89991
155.89948
154.81138
153.63829
152.38581
151.06276
149.68145
148.2577
146.81065
145.36219
143.93621
142.55745
141.2501
140.03636
138.93487
137.95945
137.1181
136.41259
135.83858
135.38636
135.04212
134.78946
134.61106
134.49014
134.41164
134.36295
134.33416
134.31797
134.30933
165.68825
165.75519
165.83317
165.9226
166.02122
166.12332
166.21987
166.30004
166.35359
166.37312
166.35499
166.29889
166.20633
166.079
165.91746
165.72047
165.48485
165.20553
164.87586
164.48775
164.03193
163.49816
162.87552
162.1528
161.31906
160.36432
159.28052
158.06253
156.70935
155.22528
153.62101
151.91434
150.1305
148.30169
146.46592
144.6649
142.94128
141.3353
139.88139
138.60518
137.52134
136.63272
135.93095
135.39835
135.01078
134.741
134.56179
134.44846
134.38037
134.34162
167.52855
167.59143
167.664
167.7467
167.83782
167.93301
168.02537
168.10669
168.16938
168.20822
168.22114
168.20884
168.17362
168.11805
168.04394
167.95181
167.84073
167.70829
167.55074
167.36292
167.13829
166.86872
166.54441
166.15372
165.68318
165.11756
164.44018
163.63358
162.68045
161.56506
160.27508
158.80369
157.15193
155.33086
153.36321
151.28414
149.14053
146.98862
144.89008
142.90651
141.09351
139.49485
138.13814
137.03266
136.1699
135.52653
135.06923
134.76015
134.562
134.44177
168.78237
168.84073
168.90772
168.9837
169.06723
169.15462
169.24006
169.31667
169.37818
169.42039
169.44187
169.44363
169.4281
169.39806
169.35577
169.30258
169.2388
169.16375
169.07586
168.97272
168.851
168.7063
168.53292
168.32355
168.06893
167.75748
167.37494
166.90418
166.32516
165.61531
164.75036
163.70591
162.45968
160.99458
159.30231
157.38719
155.26948
152.98743
150.59734
148.17068
145.78853
143.53336
141.47975
139.68558
138.18552
136.98837
136.07871
135.42224
134.97341
134.68339
169.73331
169.78699
169.84843
169.91794
169.99425
170.07414
170.15251
170.22339
170.2813
170.32267
170.34637
170.3534
170.3461
170.32712
170.29871
170.26242
170.21894
170.16828
170.10985
170.04252
169.9647
169.87418
169.76807
169.64254
169.49251
169.31124
169.08987
168.81684
168.47731
168.05257
167.51976
166.85191
166.01867
164.98795
163.72885
162.21571
160.43332
158.38257
156.08562
153.5891
150.96413
148.30203
145.70563
143.27713
141.10484
139.25162
137.74776
136.59
135.74657
135.16659
170.49015
170.54004
170.59701
170.66135
170.73192
170.80581
170.87844
170.94445
170.99895
171.03875
171.06291
171.07239
171.06938
171.05635
171.03547
171.00822
170.97545
170.93738
170.89378
170.84408
170.78738
170.72251
170.64791
170.56155
170.46073
170.34186
170.20008
170.02876
169.81892
169.55845
169.23124
168.81635
168.28737
167.61221
166.7539
165.67265
164.3297
162.69307
160.74478
158.48874
155.95747
153.21556
150.35799
147.50196
144.77298
142.28749
140.13594
138.37068
137.00164
136.00062
171.11779
171.16441
171.21757
171.27754
171.34326
171.41208
171.47983
171.54159
171.59295
171.631
171.6549
171.66559
171.6651
171.65574
171.63955
171.61796
171.59181
171.56141
171.52669
171.48729
171.44266
171.39203
171.33444
171.26867
171.19317
171.10592
171.00422
170.88439
170.74138
170.56816
170.35491
170.08805
169.74907
169.31333
168.74917
168.01767
167.07381
165.86959
164.35971
162.50981
160.30657
157.76763
154.94887
151.94571
148.88625
145.91604
143.17683
140.78433
138.81093
137.27796
171.65166
171.69551
171.74546
171.80175
171.8634
171.92796
171.99159
172.04973
172.09831
172.13468
172.15806
172.16937
172.17049
172.16361
172.15062
172.1329
172.11128
172.08609
172.05733
172.02477
171.988
171.94647
171.8995
171.84625
171.78569
171.71653
171.63713
171.5453
171.43813
171.31156
171.1599
170.97504
170.7454
170.45462
170.08001
169.59099
168.94811
168.10316
167.00149
165.58734
163.81269
161.64914
159.101
156.21606
153.09009
149.8613
146.69377
143.75225
141.17452
139.0491
172.11521
172.15667
172.20384
172.25696
172.31513
172.37604
172.4361
172.4911
172.53722
172.57202
172.59478
172.60636
172.60857
172.60344
172.59277
172.57787
172.55954
172.53813
172.51368
172.48602
172.45484
172.4197
172.38007
172.33533
172.2847
172.22726
172.16187
172.08709
172.00106
171.9013
171.7844
171.64554
171.47777
171.27097
171.0104
170.67495
170.23509
169.65114
168.87254
167.83936
166.4872
164.75659
162.60657
160.03068
157.07127
153.82677
150.44704
147.11484
144.01613
141.30692
172.52394
172.56331
172.60808
172.65845
172.71358
172.77132
172.8283
172.88054
172.92449
172.95784
172.97994
172.99163
172.99458
172.99074
172.98182
172.96907
172.95324
172.93469
172.9135
172.88953
172.86253
172.83215
172.79795
172.75943
172.71596
172.66684
172.61118
172.54794
172.47579
172.39306
172.29753
172.18617
172.05472
171.89698
171.70379
171.46152
171.15009
170.74055
170.1927
169.45364
168.45853
167.13527
165.41451
163.24516
160.61331
157.55987
154.1901
150.66883
147.19873
143.98526
172.8889
172.92642
172.96906
173.01702
173.0695
173.12445
173.17871
173.22852
173.27052
173.30255
173.32401
173.33567
173.33916
173.33631
173.32875
173.31766
173.30379
173.28749
173.26885
173.24776
173.22402
173.19733
173.16732
173.13355
173.09554
173.05267
173.00425
172.94944
172.88723
172.81636
172.73525
172.64183
172.53329
172.4057
172.25331
172.06752
171.83531
171.53704
171.14368
170.61388
169.89182
168.90742
167.5811
165.83476
163.60961
160.88826
157.71542
154.20879
150.55256
146.97085
173.2181
173.25399
173.29474
173.34056
173.39068
173.44317
173.49501
173.54266
173.58292
173.61374
173.63457
173.64615
173.65002
173.64794
173.64146
173.63171
173.61942
173.60492
173.58832
173.56954
173.54841
173.52466
173.49797
173.46799
173.43426
173.3963
173.3535
173.30518
173.2505
173.18848
173.11788
173.03716
172.94432
172.83667
172.71042
172.56005
172.37717
172.14894
171.85555
171.46713
170.94024
170.21517
169.21581
167.85486
166.04644
163.72676
160.87977
157.56047
153.90568
150.12376
173.51762
173.55203
173.59109
173.635
173.68301
173.7333
173.78298
173.82868
173.86737
173.89709
173.91732
173.92877
173.93292
173.93145
173.92585
173.9172
173.9062
173.89318
173.87826
173.86137
173.84236
173.82101
173.79704
173.77011
173.73986
173.70584
173.66755
173.6244
173.57567
173.52055
173.45804
173.3869
173.3056
173.21215
173.10388
172.97703
172.82608
172.64263
172.4135
172.11813
171.72492
171.18721
170.44007
169.40024
167.97229
166.06368
163.60913
160.59994
157.1091
153.29991
173.79209
173.82517
173.86272
173.9049
173.95102
173.99932
174.04706
174.09101
174.12826
174.15697
174.17663
174.18793
174.19229
174.19131
174.18643
174.17869
174.16877
174.15698
174.14346
174.12815
174.11091
174.09155
174.06982
174.04544
174.01805
173.98729
173.95269
173.91375
173.86986
173.82031
173.76425
173.70066
173.62829
173.54558
173.45051
173.34034
173.21126
173.05758
172.87054
172.63625
172.33264
171.92538
171.36319
170.57439
169.4672
167.93779
165.88878
163.2581
160.05199
156.37032
174.04518
174.07705
174.11322
174.15384
174.19824
174.24475
174.29073
174.33308
174.36903
174.39681
174.41593
174.42707
174.43157
174.431
174.42672
174.41976
174.41074
174.4
174.38766
174.37368
174.35794
174.34027
174.32043
174.29817
174.2732
174.24515
174.21364
174.17821
174.13833
174.09337
174.0426
173.98515
173.91996
173.84574
173.76088
173.66326
173.55006
173.41726
173.25884
173.0654
172.82179
172.50365
172.07264
171.47126
170.61922
169.41494
167.7464
165.51443
162.66674
159.23388
174.27981
174.31059
174.3455
174.38469
174.42753
174.4724
174.51677
174.55767
174.59243
174.61935
174.63797
174.64893
174.65354
174.65331
174.64954
174.64323
174.63499
174.62515
174.61382
174.60098
174.58652
174.57028
174.55206
174.53162
174.50869
174.48296
174.45407
174.42161
174.3851
174.34399
174.29765
174.2453
174.18603
174.11874
174.04208
173.95434
173.85331
173.73597
173.598
173.43285
173.2301
172.97277
172.63314
172.16739
171.50983
170.56962
169.23431
167.38501
164.92575
161.82288
174.49837
174.52814
174.5619
174.59978
174.64119
174.68456
174.72746
174.76703
174.80069
174.82681
174.84495
174.85574
174.86043
174.86047
174.85715
174.8514
174.84384
174.83477
174.82432
174.81247
174.79911
174.78412
174.76729
174.74842
174.72725
174.70351
174.67686
174.64694
174.61332
174.5755
174.53291
174.48486
174.43057
174.36906
174.29918
174.21949
174.12817
174.02283
173.90022
173.75557
173.58155
173.36629
173.09014
172.72079
172.20704
171.47275
170.41462
168.90904
166.83335
164.10235
174.70281
174.73164
174.76433
174.80102
174.84111
174.88311
174.92465
174.96299
174.99564
175.02102
175.03872
175.04932
175.05407
175.05435
175.05141
175.04615
175.03918
175.03079
175.0211
175.01011
174.99772
174.98381
174.9682
174.95069
174.93106
174.90904
174.88434
174.85662
174.82549
174.79051
174.75114
174.70679
174.65674
174.60014
174.53597
174.46299
174.37966
174.28401
174.17344
174.04434
173.89135
173.70602
173.47443
173.17323
172.76386
172.18545
171.34894
170.13697
168.41596
166.06524
174.89473
174.92271
174.95442
174.99
175.02887
175.06959
175.10989
175.14709
175.1788
175.2035
175.22077
175.2312
175.23599
175.23647
175.23386
175.22904
175.22258
175.21478
175.20577
175.19553
175.184
175.17104
175.1565
175.14019
175.1219
175.1014
175.07841
175.05261
175.02366
174.99114
174.95458
174.91344
174.86705
174.81467
174.75539
174.68811
174.6115
174.52388
174.42311
174.30629
174.16935
174.00607
173.80649
173.5538
173.21957
172.7568
172.09231
171.12158
169.71262
167.72541
175.07552
175.1027
175.1335
175.16805
175.2058
175.24534
175.28447
175.32062
175.35146
175.37552
175.39239
175.40266
175.40746
175.40812
175.4058
175.40136
175.39535
175.38809
175.37967
175.37011
175.35933
175.34722
175.33362
175.31837
175.30128
175.28212
175.26063
175.23653
175.2095
175.17915
175.14505
175.1067
175.06352
175.01481
174.95976
174.8974
174.82654
174.74572
174.65312
174.54634
174.42212
174.27575
174.09986
173.8823
173.60229
173.22441
172.69058
171.91219
170.76726
169.11044
175.24633
175.27276
175.30271
175.3363
175.373
175.41145
175.4495
175.48467
175.5147
175.53816
175.55466
175.56476
175.56957
175.57038
175.56832
175.56422
175.55862
175.55183
175.54395
175.53499
175.52488
175.51352
175.50077
175.48647
175.47044
175.45246
175.43232
175.40973
175.38439
175.35597
175.32405
175.28817
175.2478
175.20232
175.15098
175.0929
175.02702
174.95206
174.86641
174.76804
174.65425
174.52129
174.36357
174.17211
173.93171
173.616
173.18011
172.55159
171.62331
170.25509
175.40814
175.43388
175.46303
175.49573
175.53145
175.56888
175.60593
175.64018
175.66945
175.69234
175.70849
175.71843
175.72325
175.72419
175.72235
175.71856
175.71333
175.70696
175.69956
175.69114
175.68164
175.67095
175.65896
175.64551
175.63043
175.61352
175.59458
175.57334
175.54952
175.52281
175.49283
175.45915
175.42128
175.37865
175.33058
175.27627
175.21476
175.14489
175.06526
174.97407
174.86904
174.74707
174.60376
174.43229
174.2214
173.95155
173.58861
173.07502
172.32028
171.1963
175.5618
175.58689
175.61531
175.64717
175.68198
175.71844
175.75455
175.78795
175.81651
175.83888
175.85469
175.86447
175.86929
175.87034
175.86871
175.86519
175.86029
175.8543
175.84734
175.83941
175.83045
175.82038
175.80907
175.79638
175.78216
175.76622
175.74835
175.72832
175.70587
175.6807
175.65246
175.62075
175.58512
175.54503
175.49987
175.4489
175.39125
175.32587
175.25149
175.16653
175.069
174.95627
174.82474
174.66907
174.48074
174.24517
173.93666
173.51038
172.89213
171.96965
175.70807
175.73254
175.76026
175.79134
175.82529
175.86085
175.89609
175.92868
175.95657
175.97844
175.99394
176.00357
176.00838
176.00954
176.00809
176.00481
176.00022
175.99458
175.988
175.98051
175.97205
175.96253
175.95185
175.93986
175.92641
175.91134
175.89445
175.87552
175.85431
175.83052
175.80385
175.77391
175.74029
175.70249
175.65993
175.61194
175.55773
175.49633
175.42659
175.3471
175.25608
175.15126
175.02961
174.88681
174.71621
174.50682
174.23925
173.87905
173.3668
172.60726
175.84756
175.87147
175.89853
175.92887
175.96201
175.99673
176.03114
176.06298
176.09024
176.11164
176.12684
176.13633
176.14113
176.14237
176.14109
176.13804
176.13372
176.12839
176.12218
176.11509
176.10708
176.09807
176.08795
176.07659
176.06385
176.04958
176.03358
176.01564
175.99555
175.97303
175.94777
175.91944
175.88763
175.8519
175.81169
175.76638
175.71525
175.65741
175.5918
175.51714
175.43186
175.33392
175.22073
175.08866
174.93241
174.74347
174.50716
174.19713
173.76658
173.13679
175.98087
176.00423
176.03067
176.06031
176.0927
176.12663
176.16025
176.19138
176.21805
176.23901
176.25393
176.26328
176.26806
176.26938
176.26825
176.2654
176.26133
176.2563
176.25041
176.2437
176.2361
176.22755
176.21795
176.20717
176.19508
176.18153
176.16634
176.14932
176.13024
176.10887
176.08491
176.05804
176.02788
175.99401
175.95593
175.91305
175.8647
175.81005
175.74815
175.67781
175.59761
175.50574
175.39989
175.27698
175.13263
174.9601
174.74809
174.47647
174.10876
173.58118
176.10847
176.13132
176.15718
176.18617
176.21783
176.25101
176.2839
176.31436
176.34047
176.36101
176.37566
176.38488
176.38964
176.39103
176.39004
176.38738
176.38354
176.37877
176.37319
176.36681
176.3596
176.35147
176.34234
176.33209
176.3206
176.30771
176.29327
176.27708
176.25895
176.23862
176.21585
176.19031
176.16166
176.1295
176.09335
176.05268
176.00684
175.95509
175.89652
175.83007
175.75441
175.66792
175.56854
175.45357
175.31931
175.16027
174.9676
174.72577
174.40653
173.95895
176.23082
176.25318
176.27849
176.30685
176.33784
176.37031
176.4025
176.43233
176.45791
176.47806
176.49245
176.50154
176.50628
176.50774
176.50687
176.50439
176.50076
176.49623
176.49093
176.48487
176.478
176.47027
176.46158
176.45182
176.44087
176.4286
176.41484
176.39942
176.38215
176.36279
176.3411
176.31679
176.28952
176.25892
176.22454
176.18588
176.14234
176.09322
176.03768
175.97473
175.90317
175.8215
175.72787
175.61989
175.49433
175.34664
175.16969
174.95139
174.66981
174.2847
176.34831
176.37021
176.39499
176.42277
176.45311
176.48491
176.51644
176.54566
176.57075
176.59052
176.60467
176.61364
176.61836
176.61987
176.61912
176.61679
176.61336
176.60906
176.60402
176.59824
176.5917
176.58433
176.57605
176.56674
176.5563
176.54459
176.53147
176.51676
176.50028
176.48182
176.46113
176.43794
176.41195
176.38278
176.35002
176.31321
176.27176
176.22504
176.17227
176.11251
176.04465
175.96734
175.87886
175.77707
175.65915
175.52117
175.3573
175.15794
174.90598
174.56976
176.46128
176.48274
176.50703
176.53424
176.56397
176.59514
176.62604
176.6547
176.67931
176.69873
176.71264
176.7215
176.72619
176.72776
176.72711
176.72493
176.72168
176.7176
176.71279
176.70728
176.70105
176.69401
176.6861
176.67722
176.66725
176.65606
176.64353
176.62947
176.61373
176.59609
176.57633
176.55419
176.52936
176.50152
176.47026
176.43514
176.39562
176.35111
176.30086
176.24401
176.17953
176.10615
176.02232
175.92609
175.81493
175.68542
175.53265
175.34885
175.12054
174.82281
176.57006
176.59111
176.61492
176.6416
176.67075
176.70131
176.73162
176.75973
176.78389
176.80297
176.81666
176.82541
176.83008
176.83169
176.83114
176.82911
176.82602
176.82213
176.81755
176.81229
176.80634
176.79962
176.79206
176.78356
176.77403
176.76333
176.75134
176.7379
176.72284
176.70597
176.68707
176.66589
176.64215
176.61553
176.58565
176.5521
176.51436
176.47187
176.42394
176.36976
176.30837
176.23858
176.15898
176.06776
175.96264
175.84061
175.69743
175.52667
175.31755
175.05042
176.67493
176.69558
176.71894
176.74511
176.77371
176.80369
176.83344
176.86104
176.88477
176.90352
176.91701
176.92564
176.93029
176.93195
176.93149
176.92958
176.92665
176.92295
176.91857
176.91355
176.90785
176.90143
176.89419
176.88606
176.87694
176.8667
176.85521
176.84234
176.82792
176.81176
176.79366
176.77337
176.75064
176.72516
176.69657
176.66446
176.62837
176.58776
176.54196
176.49024
176.43168
176.36518
176.28943
176.20276
176.1031
175.98773
175.85295
175.69333
175.50008
175.25758
176.77615
176.79641
176.81934
176.84503
176.8731
176.90253
176.93174
176.95885
176.98217
177.00062
177.0139
177.02243
177.02706
177.02876
177.02838
177.02659
177.02381
177.02028
177.0161
177.0113
177.00584
176.99969
176.99276
176.98498
176.97623
176.96642
176.95541
176.94307
176.92924
176.91374
176.89639
176.87694
176.85515
176.83072
176.80333
176.77257
176.73801
176.69912
176.65531
176.60586
176.5499
176.48643
176.4142
176.33169
176.23697
176.1276
176.00027
175.85031
175.67043
175.44805
176.87394
176.89384
176.91635
176.94159
176.96915
176.99806
177.02675
177.0534
177.07633
177.09448
177.10757
177.11601
177.12061
177.12234
177.12205
177.12037
177.11773
177.11435
177.11036
177.10576
177.10054
177.09464
177.088
177.08053
177.07214
177.06273
177.05216
177.04032
177.02705
177.01218
176.99552
176.97686
176.95594
176.9325
176.90622
176.87671
176.84358
176.80631
176.76433
176.71698
176.66344
176.60276
176.53377
176.45507
176.36486
176.26092
176.14026
175.9988
175.83037
175.62468
176.96852
176.98807
177.01019
177.03498
177.06207
177.09047
177.11868
177.14488
177.16744
177.18531
177.19822
177.20656
177.21114
177.2129
177.21268
177.21111
177.2086
177.20537
177.20155
177.19714
177.19214
177.18648
177.18011
177.17295
177.16489
177.15585
177.1457
177.13433
177.12158
177.10729
177.09129
177.07336
177.05327
177.03075
177.0055
176.97717
176.94536
176.90959
176.86933
176.82393
176.77263
176.71453
176.64854
176.57334
176.48727
176.38827
176.27365
176.13975
175.98126
175.78966
177.06008
177.0793
177.10105
177.12541
177.15204
177.17996
177.2077
177.23347
177.25568
177.27329
177.28602
177.29426
177.29882
177.30062
177.30047
177.29899
177.2966
177.29352
177.28986
177.28564
177.28083
177.27541
177.26929
177.2624
177.25467
177.24598
177.23623
177.22529
177.21303
177.19929
177.1839
177.16666
177.14734
177.12569
177.10142
177.07419
177.04361
177.00925
176.97058
176.927
176.87778
176.82208
176.75887
176.6869
176.60465
176.51018
176.40103
176.27393
176.12421
175.94467
177.1488
177.16771
177.18909
177.21305
177.23923
177.2667
177.29399
177.31935
177.34122
177.35857
177.37113
177.37929
177.38383
177.38565
177.38557
177.38419
177.38191
177.37897
177.37546
177.3714
177.36679
177.36158
177.3557
177.34909
177.34165
177.33329
177.32391
177.31339
177.30159
177.28837
177.27356
177.25696
177.23837
177.21753
177.19418
177.16797
177.13856
177.10552
177.06834
177.02646
176.97919
176.92572
176.86509
176.79612
176.71738
176.62708
176.52295
176.40199
176.26009
176.09104
177.23484
177.25344
177.27448
177.29805
177.32381
177.35084
177.37769
177.40267
177.42421
177.44132
177.45372
177.46179
177.46631
177.46816
177.46814
177.46685
177.46468
177.46186
177.45849
177.45461
177.45018
177.44517
177.43952
177.43315
177.42599
177.41795
177.40892
177.39879
177.38743
177.3747
177.36043
177.34445
177.32654
177.30647
177.28397
177.25874
177.23042
177.19861
177.16284
177.12255
177.07709
177.02571
176.96748
176.9013
176.82582
176.73937
176.63984
176.52449
176.38961
176.22979
177.31836
177.33666
177.35736
177.38056
177.40591
177.43252
177.45896
177.48356
177.50479
177.52167
177.53392
177.54191
177.5464
177.54828
177.54831
177.54711
177.54504
177.54235
177.53912
177.53538
177.53113
177.52631
177.52087
177.51474
177.50785
177.50011
177.49141
177.48165
177.4707
177.45843
177.44468
177.42927
177.41201
177.39266
177.37098
177.34666
177.31937
177.28872
177.25427
177.21547
177.17172
177.12228
177.0663
177.00272
176.93027
176.84739
176.75211
176.6419
176.51339
176.36179
177.39947
177.4175
177.43788
177.46072
177.48568
177.51188
177.53793
177.56217
177.5831
177.59975
177.61185
177.61977
177.62424
177.62614
177.62623
177.6251
177.62314
177.62055
177.61745
177.61386
177.60977
177.60514
177.5999
177.594
177.58737
177.5799
177.57152
177.56211
177.55155
177.53972
177.52646
177.51159
177.49494
177.47628
177.45536
177.43191
177.40559
177.37604
177.34282
177.30543
177.26328
177.21567
177.16179
177.10064
177.03102
176.95145
176.86011
176.75463
176.63193
176.48773
177.47832
177.49607
177.51615
177.53864
177.56322
177.58903
177.6147
177.6386
177.65924
177.67568
177.68764
177.69548
177.69993
177.70185
177.702
177.70095
177.69907
177.6966
177.69362
177.69017
177.68624
177.68178
177.67673
177.67105
177.66465
177.65746
177.64937
177.6403
177.63011
177.61869
177.60589
177.59155
177.57547
177.55746
177.53727
177.51463
177.48923
177.46071
177.42866
177.3926
177.35195
177.30607
177.25416
177.19529
177.12831
177.05183
176.96414
176.86303
176.74567
176.60817
177.55502
177.57251
177.59228
177.61444
177.63867
177.6641
177.68941
177.71297
177.73334
177.74957
177.7614
177.76916
177.7736
177.77554
177.77573
177.77475
177.77297
177.7706
177.76774
177.76442
177.76064
177.75634
177.75148
177.746
177.73984
177.73289
177.72509
177.71633
177.7065
177.69548
177.68312
177.66926
177.65374
177.63634
177.61684
177.59497
177.57044
177.5429
177.51195
177.47714
177.43792
177.39365
177.3436
177.28686
177.22236
177.14878
177.06449
176.96744
176.855
176.72361
177.62968
177.64691
177.6664
177.68824
177.71211
177.73719
177.76214
177.78539
177.80549
177.82152
177.83322
177.84092
177.84533
177.84729
177.84754
177.84662
177.84493
177.84266
177.83991
177.83672
177.83307
177.82893
177.82425
177.81897
177.81302
177.80632
177.79879
177.79033
177.78084
177.77018
177.75824
177.74486
177.72985
177.71304
177.69419
177.67306
177.64935
177.62274
177.59284
177.55921
177.52133
177.47859
177.43029
177.37556
177.31339
177.24251
177.1614
177.06813
176.96024
176.83447
177.70239
177.71938
177.73859
177.76012
177.78366
177.80839
177.833
177.85594
177.87579
177.89163
177.9032
177.91084
177.91523
177.91721
177.9175
177.91665
177.91504
177.91286
177.91022
177.90715
177.90364
177.89965
177.89513
177.89004
177.8843
177.87783
177.87056
177.86239
177.85321
177.84292
177.83138
177.81843
177.80393
177.78767
177.76944
177.74901
177.72608
177.70035
177.67144
177.63893
177.60232
177.56104
177.51439
177.46155
177.40156
177.33323
177.2551
177.16536
177.0617
176.94111
177.77325
177.79
177.80895
177.83018
177.85339
177.87779
177.90207
177.92472
177.94433
177.95999
177.97143
177.979
177.98339
177.98538
177.98571
177.98493
177.98339
177.9813
177.97877
177.97581
177.97243
177.96858
177.96423
177.95931
177.95377
177.94752
177.9405
177.9326
177.92373
177.91378
177.90262
177.8901
177.87607
177.86034
177.8427
177.82293
177.80075
177.77585
177.74789
177.71644
177.68104
177.64112
177.59603
177.54499
177.48707
177.42113
177.34579
177.25935
177.15964
177.04384
177.84235
177.85887
177.87756
177.8985
177.9214
177.94547
177.96945
177.99181
178.01118
178.02666
178.038
178.0455
178.04987
178.05188
178.05226
178.05153
178.05007
178.04807
178.04563
178.04279
178.03952
178.03582
178.03162
178.02687
178.02152
178.01548
178.00869
178.00106
177.99249
177.98286
177.97206
177.95995
177.94636
177.93114
177.91407
177.89493
177.87346
177.84936
177.82229
177.79186
177.7576
177.71898
177.67537
177.62602
177.57004
177.50636
177.43366
177.35031
177.25429
177.14295
177.90976
177.92607
177.94451
177.96517
177.98777
178.01153
178.03519
178.05728
178.07643
178.09174
178.10297
178.11041
178.11476
178.11679
178.11721
178.11654
178.11515
178.11323
178.11089
178.10815
178.10501
178.10143
178.09738
178.0928
178.08762
178.08179
178.07523
178.06785
178.05955
178.05024
178.03978
178.02806
178.01491
178.00017
177.98364
177.9651
177.9443
177.92096
177.89475
177.86528
177.83211
177.79472
177.75252
177.70477
177.65064
177.58909
177.51886
177.43843
177.34586
177.23869
177.97557
177.99166
178.00986
178.03025
178.05256
178.07602
178.09939
178.12122
178.14014
178.15529
178.16641
178.1738
178.17814
178.18018
178.18064
178.18003
178.1787
178.17686
178.17461
178.17197
178.16894
178.1655
178.16158
178.15716
178.15216
178.14652
178.14018
178.13304
178.12501
178.11599
178.10587
178.09452
178.08178
178.0675
178.05149
178.03353
178.01338
177.99076
177.96536
177.9368
177.90467
177.86846
177.82759
177.78137
177.72898
177.66945
177.60157
177.52388
177.43455
177.33127
178.03985
178.05573
178.07369
178.09383
178.11585
178.13901
178.16211
178.18368
178.20239
178.21739
178.2284
178.23574
178.24006
178.24212
178.24261
178.24205
178.24079
178.23903
178.23687
178.23433
178.23141
178.22808
178.2243
178.22003
178.2152
178.20975
178.20361
178.1967
178.18893
178.1802
178.1704
178.1594
178.14706
178.13322
178.1177
178.10029
178.08076
178.05884
178.03421
178.00653
177.97539
177.94029
177.90069
177.85592
177.80519
177.74757
177.6819
177.6068
177.52054
177.42091
178.10265
178.11833
178.13607
178.15595
178.1777
178.20058
178.2234
178.24472
178.26324
178.27808
178.289
178.29628
178.30059
178.30266
178.30319
178.30269
178.30149
178.2998
178.29772
178.29528
178.29246
178.28925
178.2856
178.28147
178.27681
178.27154
178.2656
178.25891
178.25139
178.24293
178.23344
178.22278
178.21082
178.1974
178.18235
178.16547
178.14653
178.12527
178.10139
178.07455
178.04434
178.01032
177.97192
177.92853
177.87938
177.82357
177.76
177.68735
177.60397
177.50777
178.16404
178.17954
178.19705
178.21669
178.23817
178.26078
178.28333
178.30442
178.32274
178.33744
178.34826
178.35549
178.35979
178.36188
178.36244
178.36198
178.36085
178.35923
178.35723
178.35487
178.35216
178.34906
178.34554
178.34155
178.33704
178.33194
178.3262
178.31972
178.31244
178.30424
178.29504
178.28471
178.27312
178.26011
178.24551
178.22914
178.21076
178.19014
178.16697
178.14092
178.11162
178.07861
178.04138
177.9993
177.95165
177.89756
177.83599
177.76566
177.68499
177.59203
178.22409
178.23939
178.2567
178.27609
178.29732
178.31967
178.34197
178.36282
178.38095
178.39551
178.40623
178.41342
178.4177
178.41981
178.4204
178.42
178.41892
178.41737
178.41545
178.41318
178.41057
178.40758
178.40418
178.40032
178.39596
178.39103
178.38547
178.3792
178.37214
178.3642
178.35528
178.34527
178.33402
178.3214
178.30724
178.29136
178.27352
178.25351
178.23102
178.20574
178.1773
178.14527
178.10913
178.06831
178.02209
177.96964
177.90996
177.84183
177.76375
177.67383
178.28284
178.29796
178.31506
178.33422
178.3552
178.37729
178.39934
178.41998
178.43793
178.45235
178.46299
178.47013
178.4744
178.47652
178.47714
178.47678
178.47576
178.47428
178.47243
178.47025
178.46773
178.46485
178.46156
178.45784
178.45362
178.44885
178.44346
178.43739
178.43055
178.42286
178.41422
178.4045
178.39359
178.38135
178.36761
178.35219
178.33488
178.31544
178.29361
178.26907
178.24145
178.21035
178.17527
178.13564
178.09079
178.03991
177.98203
177.91599
177.84035
177.75332
178.34035
178.35529
178.37219
178.39113
178.41187
178.43371
178.45552
178.47594
178.49371
178.508
178.51856
178.52566
178.52991
178.53205
178.5327
178.53239
178.53142
178.53001
178.52823
178.52613
178.5237
178.52092
178.51775
178.51414
178.51006
178.50545
178.50024
178.49436
178.48773
178.48028
178.47189
178.46247
178.45189
178.44
178.42667
178.41169
178.39489
178.37601
178.35481
178.33097
178.30415
178.27394
178.23987
178.20138
178.15783
178.10844
178.05228
177.98823
177.91491
177.83062
178.39667
178.41144
178.42814
178.44686
178.46736
178.48896
178.51054
178.53075
178.54836
178.56252
178.57299
178.58005
178.5843
178.58644
178.58713
178.58686
178.58595
178.58459
178.58289
178.58087
178.57852
178.57584
178.57278
178.5693
178.56535
178.56088
178.55584
178.55014
178.54372
178.53649
178.52836
178.51922
178.50895
178.49742
178.48447
178.46993
178.4536
178.43526
178.41466
178.3915
178.36544
178.33609
178.30299
178.2656
178.2233
178.17533
178.12081
178.05865
177.98754
177.90584
178.45183
178.46643
178.48294
178.50146
178.52173
178.5431
178.56445
178.58446
178.6019
178.61594
178.62634
178.63335
178.63759
178.63975
178.64047
178.64024
178.63938
178.63809
178.63645
178.6345
178.63224
178.62965
178.6267
178.62333
178.61952
178.6152
178.61031
178.60479
178.59857
178.59156
178.58368
178.57481
178.56484
178.55364
178.54106
178.52694
178.51108
178.49326
178.47324
178.45073
178.4254
178.39687
178.36469
178.32836
178.28725
178.24065
178.18769
178.12734
178.05833
177.97909
178.50589
178.52033
178.53666
178.55497
178.57502
178.59616
178.6173
178.63711
178.65439
178.66831
178.67863
178.68561
178.68984
178.69201
178.69276
178.69257
178.69176
178.69052
178.68895
178.68708
178.6849
178.6824
178.67955
178.6763
178.67261
178.66843
178.6637
178.65835
178.65232
178.64553
178.63787
178.62927
178.61959
178.60871
178.5965
178.58278
178.56736
178.55005
178.53058
178.5087
178.48407
178.45633
178.42505
178.38972
178.34976
178.30446
178.253
178.19437
178.12736
178.05047
178.55889
178.57317
178.58932
178.60743
178.62727
178.64818
178.66911
178.68874
178.70586
178.71967
178.72991
178.73686
178.74107
178.74326
178.74404
178.74389
178.74313
178.74195
178.74044
178.73864
178.73654
178.73413
178.73138
178.72824
178.72467
178.72062
178.71604
178.71086
178.70502
178.69843
178.691
178.68265
178.67325
178.66269
178.65082
178.63749
178.62251
178.60567
178.58675
178.56546
178.54151
178.51453
178.48411
178.44975
178.41088
178.36684
178.31681
178.25983