/*--------------------------------*- C++ -*----------------------------------*\
| =========                 |                                                 |
| \\      /  F ield         | OpenFOAM: The Open Source CFD Toolbox           |
|  \\    /   O peration     | Version:  4.0                                   |
|   \\  /    A nd           | Web:      www.OpenFOAM.org                      |
|    \\/     M anipulation  |                                                 |
\*---------------------------------------------------------------------------*/
FoamFile
{
    version     2.0;
    format      ascii;
    class       volScalarField;
    location    "2000";
    object      ILambda_12_0;
}
// * * * * * * * * * * * * * * * * * * * * * * * * * * * * * * * * * * * * * //

dimensions      [1 0 -3 0 0 0 0];

internalField   nonuniform List<scalar> 
5000
(
134.29786
134.29786
134.29786
134.29786
134.29787
134.29787
134.29788
134.29788
134.29789
134.29789
134.2979
134.29791
134.29791
134.29792
134.29793
134.29794
134.29795
134.29797
134.29798
134.298
134.29801
134.29803
134.29805
134.29807
134.2981
134.29813
134.29816
134.29819
134.29822
134.29826
134.29831
134.29835
134.29841
134.29846
134.29853
134.2986
134.29867
134.29876
134.29885
134.29895
134.29907
134.29919
134.29933
134.29947
134.29964
134.29982
134.30002
134.30024
134.30048
134.30074
134.29759
134.29759
134.29759
134.2976
134.2976
134.2976
134.29761
134.29761
134.29762
134.29763
134.29763
134.29764
134.29765
134.29766
134.29766
134.29768
134.29769
134.2977
134.29771
134.29773
134.29775
134.29776
134.29778
134.29781
134.29783
134.29786
134.29789
134.29792
134.29796
134.298
134.29804
134.29809
134.29814
134.2982
134.29826
134.29833
134.29841
134.29849
134.29858
134.29869
134.2988
134.29892
134.29906
134.29921
134.29937
134.29955
134.29975
134.29997
134.30021
134.30047
134.29732
134.29732
134.29733
134.29733
134.29733
134.29734
134.29734
134.29735
134.29735
134.29736
134.29736
134.29737
134.29738
134.29739
134.2974
134.29741
134.29742
134.29743
134.29745
134.29746
134.29748
134.2975
134.29752
134.29754
134.29756
134.29759
134.29762
134.29765
134.29769
134.29773
134.29777
134.29782
134.29787
134.29793
134.29799
134.29806
134.29814
134.29822
134.29832
134.29842
134.29853
134.29865
134.29879
134.29894
134.2991
134.29928
134.29948
134.2997
134.29994
134.30021
134.29706
134.29706
134.29706
134.29706
134.29707
134.29707
134.29708
134.29708
134.29709
134.29709
134.2971
134.2971
134.29711
134.29712
134.29713
134.29714
134.29715
134.29717
134.29718
134.29719
134.29721
134.29723
134.29725
134.29727
134.2973
134.29732
134.29735
134.29739
134.29742
134.29746
134.29751
134.29755
134.29761
134.29766
134.29773
134.2978
134.29787
134.29796
134.29805
134.29815
134.29826
134.29839
134.29852
134.29867
134.29884
134.29902
134.29922
134.29943
134.29967
134.29994
134.29679
134.29679
134.29679
134.2968
134.2968
134.2968
134.29681
134.29681
134.29682
134.29682
134.29683
134.29684
134.29685
134.29685
134.29686
134.29687
134.29689
134.2969
134.29691
134.29693
134.29694
134.29696
134.29698
134.29701
134.29703
134.29706
134.29709
134.29712
134.29716
134.29719
134.29724
134.29729
134.29734
134.2974
134.29746
134.29753
134.29761
134.29769
134.29778
134.29788
134.298
134.29812
134.29826
134.2984
134.29857
134.29875
134.29895
134.29917
134.29941
134.29967
134.29652
134.29652
134.29653
134.29653
134.29653
134.29654
134.29654
134.29655
134.29655
134.29656
134.29656
134.29657
134.29658
134.29659
134.2966
134.29661
134.29662
134.29663
134.29665
134.29666
134.29668
134.2967
134.29672
134.29674
134.29676
134.29679
134.29682
134.29685
134.29689
134.29693
134.29697
134.29702
134.29707
134.29713
134.29719
134.29726
134.29734
134.29742
134.29752
134.29762
134.29773
134.29785
134.29799
134.29814
134.2983
134.29848
134.29868
134.2989
134.29914
134.2994
134.29625
134.29626
134.29626
134.29626
134.29627
134.29627
134.29627
134.29628
134.29628
134.29629
134.2963
134.2963
134.29631
134.29632
134.29633
134.29634
134.29635
134.29636
134.29638
134.29639
134.29641
134.29643
134.29645
134.29647
134.2965
134.29652
134.29655
134.29659
134.29662
134.29666
134.2967
134.29675
134.2968
134.29686
134.29693
134.29699
134.29707
134.29716
134.29725
134.29735
134.29746
134.29759
134.29772
134.29787
134.29803
134.29821
134.29841
134.29863
134.29887
134.29914
134.29599
134.29599
134.29599
134.296
134.296
134.296
134.29601
134.29601
134.29602
134.29602
134.29603
134.29604
134.29604
134.29605
134.29606
134.29607
134.29608
134.2961
134.29611
134.29613
134.29614
134.29616
134.29618
134.2962
134.29623
134.29626
134.29629
134.29632
134.29635
134.29639
134.29644
134.29648
134.29654
134.29659
134.29666
134.29673
134.2968
134.29689
134.29698
134.29708
134.2972
134.29732
134.29745
134.2976
134.29777
134.29795
134.29815
134.29836
134.2986
134.29887
134.29572
134.29572
134.29573
134.29573
134.29573
134.29574
134.29574
134.29575
134.29575
134.29576
134.29576
134.29577
134.29578
134.29579
134.2958
134.29581
134.29582
134.29583
134.29584
134.29586
134.29588
134.29589
134.29592
134.29594
134.29596
134.29599
134.29602
134.29605
134.29609
134.29613
134.29617
134.29622
134.29627
134.29633
134.29639
134.29646
134.29654
134.29662
134.29671
134.29682
134.29693
134.29705
134.29719
134.29734
134.2975
134.29768
134.29788
134.2981
134.29834
134.2986
134.29545
134.29546
134.29546
134.29546
134.29547
134.29547
134.29547
134.29548
134.29548
134.29549
134.2955
134.2955
134.29551
134.29552
134.29553
134.29554
134.29555
134.29556
134.29558
134.29559
134.29561
134.29563
134.29565
134.29567
134.2957
134.29572
134.29575
134.29578
134.29582
134.29586
134.2959
134.29595
134.296
134.29606
134.29612
134.29619
134.29627
134.29635
134.29645
134.29655
134.29666
134.29678
134.29692
134.29707
134.29723
134.29741
134.29761
134.29783
134.29807
134.29833
134.29519
134.29519
134.29519
134.2952
134.2952
134.2952
134.29521
134.29521
134.29522
134.29522
134.29523
134.29524
134.29524
134.29525
134.29526
134.29527
134.29528
134.2953
134.29531
134.29533
134.29534
134.29536
134.29538
134.2954
134.29543
134.29546
134.29548
134.29552
134.29555
134.29559
134.29564
134.29568
134.29574
134.29579
134.29586
134.29593
134.296
134.29609
134.29618
134.29628
134.29639
134.29652
134.29665
134.2968
134.29697
134.29715
134.29734
134.29756
134.2978
134.29807
134.29492
134.29492
134.29493
134.29493
134.29493
134.29494
134.29494
134.29494
134.29495
134.29496
134.29496
134.29497
134.29498
134.29499
134.295
134.29501
134.29502
134.29503
134.29504
134.29506
134.29508
134.29509
134.29511
134.29514
134.29516
134.29519
134.29522
134.29525
134.29529
134.29533
134.29537
134.29542
134.29547
134.29553
134.29559
134.29566
134.29574
134.29582
134.29591
134.29601
134.29613
134.29625
134.29639
134.29653
134.2967
134.29688
134.29708
134.29729
134.29753
134.2978
134.29465
134.29466
134.29466
134.29466
134.29467
134.29467
134.29467
134.29468
134.29468
134.29469
134.2947
134.2947
134.29471
134.29472
134.29473
134.29474
134.29475
134.29476
134.29478
134.29479
134.29481
134.29483
134.29485
134.29487
134.29489
134.29492
134.29495
134.29498
134.29502
134.29506
134.2951
134.29515
134.2952
134.29526
134.29532
134.29539
134.29547
134.29555
134.29565
134.29575
134.29586
134.29598
134.29612
134.29627
134.29643
134.29661
134.29681
134.29703
134.29727
134.29753
134.29439
134.29439
134.29439
134.2944
134.2944
134.2944
134.29441
134.29441
134.29442
134.29442
134.29443
134.29444
134.29444
134.29445
134.29446
134.29447
134.29448
134.2945
134.29451
134.29453
134.29454
134.29456
134.29458
134.2946
134.29463
134.29465
134.29468
134.29472
134.29475
134.29479
134.29483
134.29488
134.29493
134.29499
134.29506
134.29513
134.2952
134.29529
134.29538
134.29548
134.29559
134.29572
134.29585
134.296
134.29616
134.29634
134.29654
134.29676
134.297
134.29726
134.29412
134.29412
134.29413
134.29413
134.29413
134.29414
134.29414
134.29414
134.29415
134.29416
134.29416
134.29417
134.29418
134.29419
134.29419
134.29421
134.29422
134.29423
134.29424
134.29426
134.29427
134.29429
134.29431
134.29434
134.29436
134.29439
134.29442
134.29445
134.29449
134.29452
134.29457
134.29462
134.29467
134.29473
134.29479
134.29486
134.29493
134.29502
134.29511
134.29521
134.29533
134.29545
134.29558
134.29573
134.2959
134.29608
134.29627
134.29649
134.29673
134.297
134.29386
134.29386
134.29386
134.29386
134.29387
134.29387
134.29387
134.29388
134.29388
134.29389
134.2939
134.2939
134.29391
134.29392
134.29393
134.29394
134.29395
134.29396
134.29398
134.29399
134.29401
134.29403
134.29405
134.29407
134.29409
134.29412
134.29415
134.29418
134.29422
134.29426
134.2943
134.29435
134.2944
134.29446
134.29452
134.29459
134.29467
134.29475
134.29484
134.29495
134.29506
134.29518
134.29532
134.29547
134.29563
134.29581
134.29601
134.29623
134.29647
134.29673
134.29359
134.29359
134.29359
134.2936
134.2936
134.2936
134.29361
134.29361
134.29362
134.29362
134.29363
134.29364
134.29364
134.29365
134.29366
134.29367
134.29368
134.2937
134.29371
134.29372
134.29374
134.29376
134.29378
134.2938
134.29383
134.29385
134.29388
134.29392
134.29395
134.29399
134.29403
134.29408
134.29413
134.29419
134.29425
134.29432
134.2944
134.29448
134.29458
134.29468
134.29479
134.29491
134.29505
134.2952
134.29536
134.29554
134.29574
134.29596
134.2962
134.29646
134.29332
134.29332
134.29333
134.29333
134.29333
134.29334
134.29334
134.29334
134.29335
134.29336
134.29336
134.29337
134.29338
134.29338
134.29339
134.2934
134.29342
134.29343
134.29344
134.29346
134.29347
134.29349
134.29351
134.29354
134.29356
134.29359
134.29362
134.29365
134.29368
134.29372
134.29377
134.29381
134.29387
134.29392
134.29399
134.29406
134.29413
134.29422
134.29431
134.29441
134.29452
134.29465
134.29478
134.29493
134.29509
134.29527
134.29547
134.29569
134.29593
134.2962
134.29306
134.29306
134.29306
134.29306
134.29307
134.29307
134.29307
134.29308
134.29308
134.29309
134.2931
134.2931
134.29311
134.29312
134.29313
134.29314
134.29315
134.29316
134.29318
134.29319
134.29321
134.29323
134.29325
134.29327
134.29329
134.29332
134.29335
134.29338
134.29342
134.29346
134.2935
134.29355
134.2936
134.29366
134.29372
134.29379
134.29387
134.29395
134.29404
134.29414
134.29426
134.29438
134.29451
134.29466
134.29483
134.29501
134.29521
134.29542
134.29566
134.29593
134.29279
134.29279
134.29279
134.2928
134.2928
134.2928
134.29281
134.29281
134.29282
134.29282
134.29283
134.29284
134.29284
134.29285
134.29286
134.29287
134.29288
134.2929
134.29291
134.29292
134.29294
134.29296
134.29298
134.293
134.29303
134.29305
134.29308
134.29312
134.29315
134.29319
134.29323
134.29328
134.29333
134.29339
134.29345
134.29352
134.2936
134.29368
134.29378
134.29388
134.29399
134.29411
134.29425
134.2944
134.29456
134.29474
134.29494
134.29516
134.2954
134.29566
134.29252
134.29253
134.29253
134.29253
134.29253
134.29254
134.29254
134.29255
134.29255
134.29256
134.29256
134.29257
134.29258
134.29259
134.29259
134.2926
134.29262
134.29263
134.29264
134.29266
134.29267
134.29269
134.29271
134.29274
134.29276
134.29279
134.29282
134.29285
134.29288
134.29292
134.29297
134.29301
134.29307
134.29312
134.29319
134.29326
134.29333
134.29342
134.29351
134.29361
134.29372
134.29385
134.29398
134.29413
134.29429
134.29447
134.29467
134.29489
134.29513
134.29539
134.29226
134.29226
134.29226
134.29226
134.29227
134.29227
134.29227
134.29228
134.29228
134.29229
134.2923
134.2923
134.29231
134.29232
134.29233
134.29234
134.29235
134.29236
134.29238
134.29239
134.29241
134.29243
134.29245
134.29247
134.29249
134.29252
134.29255
134.29258
134.29262
134.29266
134.2927
134.29275
134.2928
134.29286
134.29292
134.29299
134.29307
134.29315
134.29324
134.29334
134.29346
134.29358
134.29371
134.29386
134.29403
134.29421
134.2944
134.29462
134.29486
134.29513
134.29199
134.29199
134.292
134.292
134.292
134.292
134.29201
134.29201
134.29202
134.29202
134.29203
134.29204
134.29204
134.29205
134.29206
134.29207
134.29208
134.2921
134.29211
134.29212
134.29214
134.29216
134.29218
134.2922
134.29223
134.29225
134.29228
134.29231
134.29235
134.29239
134.29243
134.29248
134.29253
134.29259
134.29265
134.29272
134.2928
134.29288
134.29297
134.29308
134.29319
134.29331
134.29345
134.29359
134.29376
134.29394
134.29414
134.29435
134.29459
134.29486
134.29173
134.29173
134.29173
134.29173
134.29173
134.29174
134.29174
134.29175
134.29175
134.29176
134.29176
134.29177
134.29178
134.29179
134.2918
134.29181
134.29182
134.29183
134.29184
134.29186
134.29187
134.29189
134.29191
134.29194
134.29196
134.29199
134.29202
134.29205
134.29208
134.29212
134.29217
134.29221
134.29227
134.29232
134.29239
134.29246
134.29253
134.29262
134.29271
134.29281
134.29292
134.29304
134.29318
134.29333
134.29349
134.29367
134.29387
134.29409
134.29433
134.29459
134.29146
134.29146
134.29146
134.29147
134.29147
134.29147
134.29148
134.29148
134.29149
134.29149
134.2915
134.2915
134.29151
134.29152
134.29153
134.29154
134.29155
134.29156
134.29158
134.29159
134.29161
134.29163
134.29165
134.29167
134.29169
134.29172
134.29175
134.29178
134.29182
134.29186
134.2919
134.29195
134.292
134.29206
134.29212
134.29219
134.29226
134.29235
134.29244
134.29254
134.29265
134.29278
134.29291
134.29306
134.29322
134.2934
134.2936
134.29382
134.29406
134.29432
134.29119
134.2912
134.2912
134.2912
134.2912
134.29121
134.29121
134.29121
134.29122
134.29122
134.29123
134.29124
134.29125
134.29125
134.29126
134.29127
134.29128
134.2913
134.29131
134.29133
134.29134
134.29136
134.29138
134.2914
134.29143
134.29145
134.29148
134.29151
134.29155
134.29159
134.29163
134.29168
134.29173
134.29179
134.29185
134.29192
134.292
134.29208
134.29217
134.29228
134.29239
134.29251
134.29264
134.29279
134.29296
134.29314
134.29333
134.29355
134.29379
134.29406
134.29093
134.29093
134.29093
134.29093
134.29094
134.29094
134.29094
134.29095
134.29095
134.29096
134.29096
134.29097
134.29098
134.29099
134.291
134.29101
134.29102
134.29103
134.29104
134.29106
134.29108
134.29109
134.29111
134.29114
134.29116
134.29119
134.29122
134.29125
134.29128
134.29132
134.29137
134.29141
134.29147
134.29152
134.29159
134.29165
134.29173
134.29181
134.29191
134.29201
134.29212
134.29224
134.29238
134.29253
134.29269
134.29287
134.29307
134.29329
134.29353
134.29379
134.29066
134.29067
134.29067
134.29067
134.29067
134.29068
134.29068
134.29068
134.29069
134.29069
134.2907
134.29071
134.29071
134.29072
134.29073
134.29074
134.29075
134.29076
134.29078
134.29079
134.29081
134.29083
134.29085
134.29087
134.29089
134.29092
134.29095
134.29098
134.29102
134.29106
134.2911
134.29115
134.2912
134.29126
134.29132
134.29139
134.29146
134.29155
134.29164
134.29174
134.29185
134.29198
134.29211
134.29226
134.29242
134.2926
134.2928
134.29302
134.29326
134.29352
134.2904
134.2904
134.2904
134.2904
134.29041
134.29041
134.29041
134.29042
134.29042
134.29043
134.29043
134.29044
134.29045
134.29046
134.29046
134.29047
134.29049
134.2905
134.29051
134.29053
134.29054
134.29056
134.29058
134.2906
134.29063
134.29065
134.29068
134.29072
134.29075
134.29079
134.29083
134.29088
134.29093
134.29099
134.29105
134.29112
134.2912
134.29128
134.29137
134.29147
134.29159
134.29171
134.29184
134.29199
134.29216
134.29234
134.29253
134.29275
134.29299
134.29325
134.29013
134.29014
134.29014
134.29014
134.29014
134.29014
134.29015
134.29015
134.29016
134.29016
134.29017
134.29017
134.29018
134.29019
134.2902
134.29021
134.29022
134.29023
134.29025
134.29026
134.29028
134.2903
134.29032
134.29034
134.29036
134.29039
134.29042
134.29045
134.29048
134.29052
134.29057
134.29061
134.29067
134.29072
134.29079
134.29085
134.29093
134.29101
134.29111
134.29121
134.29132
134.29144
134.29158
134.29172
134.29189
134.29207
134.29227
134.29248
134.29272
134.29299
134.28987
134.28987
134.28987
134.28987
134.28988
134.28988
134.28988
134.28989
134.28989
134.2899
134.2899
134.28991
134.28992
134.28992
134.28993
134.28994
134.28995
134.28997
134.28998
134.28999
134.29001
134.29003
134.29005
134.29007
134.2901
134.29012
134.29015
134.29018
134.29022
134.29026
134.2903
134.29035
134.2904
134.29046
134.29052
134.29059
134.29066
134.29075
134.29084
134.29094
134.29105
134.29117
134.29131
134.29146
134.29162
134.2918
134.292
134.29222
134.29246
134.29272
134.2896
134.28961
134.28961
134.28961
134.28961
134.28961
134.28962
134.28962
134.28963
134.28963
134.28964
134.28964
134.28965
134.28966
134.28967
134.28968
134.28969
134.2897
134.28971
134.28973
134.28975
134.28976
134.28978
134.28981
134.28983
134.28986
134.28988
134.28992
134.28995
134.28999
134.29003
134.29008
134.29013
134.29019
134.29025
134.29032
134.2904
134.29048
134.29057
134.29067
134.29078
134.29091
134.29104
134.29119
134.29135
134.29153
134.29173
134.29195
134.29219
134.29245
134.28934
134.28934
134.28934
134.28935
134.28935
134.28935
134.28935
134.28936
134.28936
134.28937
134.28937
134.28938
134.28939
134.28939
134.2894
134.28941
134.28942
134.28944
134.28945
134.28946
134.28948
134.2895
134.28952
134.28954
134.28956
134.28959
134.28962
134.28965
134.28969
134.28972
134.28977
134.28981
134.28987
134.28992
134.28999
134.29005
134.29013
134.29021
134.29031
134.29041
134.29052
134.29064
134.29078
134.29092
134.29109
134.29127
134.29146
134.29168
134.29192
134.29219
134.28908
134.28908
134.28908
134.28908
134.28908
134.28909
134.28909
134.28909
134.2891
134.2891
134.28911
134.28911
134.28912
134.28913
134.28914
134.28915
134.28916
134.28917
134.28918
134.2892
134.28921
134.28923
134.28925
134.28927
134.2893
134.28932
134.28935
134.28938
134.28942
134.28946
134.2895
134.28955
134.2896
134.28966
134.28972
134.28979
134.28986
134.28995
134.29004
134.29014
134.29025
134.29037
134.29051
134.29066
134.29082
134.291
134.2912
134.29141
134.29165
134.29192
134.28881
134.28881
134.28882
134.28882
134.28882
134.28882
134.28883
134.28883
134.28883
134.28884
134.28884
134.28885
134.28886
134.28886
134.28887
134.28888
134.28889
134.28891
134.28892
134.28893
134.28895
134.28897
134.28899
134.28901
134.28903
134.28906
134.28909
134.28912
134.28915
134.28919
134.28924
134.28928
134.28933
134.28939
134.28945
134.28952
134.2896
134.28968
134.28977
134.28987
134.28998
134.29011
134.29024
134.29039
134.29055
134.29073
134.29093
134.29115
134.29139
134.29165
134.28855
134.28855
134.28855
134.28855
134.28856
134.28856
134.28856
134.28857
134.28857
134.28857
134.28858
134.28859
134.28859
134.2886
134.28861
134.28862
134.28863
134.28864
134.28865
134.28867
134.28868
134.2887
134.28872
134.28874
134.28877
134.28879
134.28882
134.28885
134.28889
134.28893
134.28897
134.28902
134.28907
134.28912
134.28919
134.28926
134.28933
134.28941
134.28951
134.28961
134.28972
134.28984
134.28997
134.29012
134.29029
134.29046
134.29066
134.29088
134.29112
134.29138
134.28829
134.28829
134.28829
134.28829
134.28829
134.2883
134.2883
134.2883
134.28831
134.28831
134.28832
134.28832
134.28833
134.28834
134.28834
134.28835
134.28836
134.28838
134.28839
134.2884
134.28842
134.28844
134.28846
134.28848
134.2885
134.28853
134.28856
134.28859
134.28862
134.28866
134.2887
134.28875
134.2888
134.28886
134.28892
134.28899
134.28906
134.28915
134.28924
134.28934
134.28945
134.28957
134.28971
134.28986
134.29002
134.2902
134.2904
134.29061
134.29085
134.29112
134.28803
134.28803
134.28803
134.28803
134.28803
134.28803
134.28804
134.28804
134.28804
134.28805
134.28805
134.28806
134.28807
134.28807
134.28808
134.28809
134.2881
134.28811
134.28813
134.28814
134.28816
134.28817
134.28819
134.28821
134.28824
134.28826
134.28829
134.28832
134.28836
134.2884
134.28844
134.28848
134.28854
134.28859
134.28865
134.28872
134.2888
134.28888
134.28897
134.28907
134.28918
134.28931
134.28944
134.28959
134.28975
134.28993
134.29013
134.29035
134.29059
134.29085
134.28777
134.28777
134.28777
134.28777
134.28777
134.28777
134.28777
134.28778
134.28778
134.28778
134.28779
134.2878
134.2878
134.28781
134.28782
134.28783
134.28784
134.28785
134.28786
134.28788
134.28789
134.28791
134.28793
134.28795
134.28797
134.288
134.28803
134.28806
134.28809
134.28813
134.28817
134.28822
134.28827
134.28833
134.28839
134.28846
134.28853
134.28861
134.28871
134.28881
134.28892
134.28904
134.28917
134.28932
134.28948
134.28966
134.28986
134.29008
134.29032
134.29058
134.2875
134.2875
134.2875
134.28751
134.28751
134.28751
134.28751
134.28751
134.28752
134.28752
134.28753
134.28753
134.28754
134.28755
134.28755
134.28756
134.28757
134.28759
134.2876
134.28761
134.28763
134.28764
134.28766
134.28768
134.28771
134.28773
134.28776
134.28779
134.28783
134.28787
134.28791
134.28795
134.288
134.28806
134.28812
134.28819
134.28827
134.28835
134.28844
134.28854
134.28865
134.28877
134.28891
134.28905
134.28922
134.2894
134.28959
134.28981
134.29005
134.29032
134.28724
134.28724
134.28724
134.28724
134.28725
134.28725
134.28725
134.28725
134.28726
134.28726
134.28727
134.28727
134.28728
134.28728
134.28729
134.2873
134.28731
134.28732
134.28733
134.28735
134.28736
134.28738
134.2874
134.28742
134.28744
134.28747
134.2875
134.28753
134.28756
134.2876
134.28764
134.28769
134.28774
134.28779
134.28786
134.28792
134.288
134.28808
134.28817
134.28827
134.28838
134.28851
134.28864
134.28879
134.28895
134.28913
134.28933
134.28954
134.28978
134.29005
134.28698
134.28698
134.28698
134.28698
134.28699
134.28699
134.28699
134.28699
134.287
134.287
134.287
134.28701
134.28701
134.28702
134.28703
134.28704
134.28705
134.28706
134.28707
134.28709
134.2871
134.28712
134.28714
134.28716
134.28718
134.2872
134.28723
134.28726
134.2873
134.28734
134.28738
134.28742
134.28747
134.28753
134.28759
134.28766
134.28773
134.28782
134.28791
134.28801
134.28812
134.28824
134.28837
134.28852
134.28868
134.28886
134.28906
134.28928
134.28952
134.28978
134.28672
134.28672
134.28672
134.28672
134.28673
134.28673
134.28673
134.28673
134.28673
134.28674
134.28674
134.28675
134.28675
134.28676
134.28677
134.28678
134.28679
134.2868
134.28681
134.28682
134.28684
134.28685
134.28687
134.28689
134.28692
134.28694
134.28697
134.287
134.28703
134.28707
134.28711
134.28716
134.28721
134.28726
134.28733
134.28739
134.28747
134.28755
134.28764
134.28774
134.28785
134.28797
134.28811
134.28825
134.28842
134.2886
134.28879
134.28901
134.28925
134.28951
134.28647
134.28647
134.28647
134.28647
134.28647
134.28647
134.28647
134.28647
134.28647
134.28648
134.28648
134.28649
134.28649
134.2865
134.28651
134.28651
134.28652
134.28653
134.28655
134.28656
134.28657
134.28659
134.28661
134.28663
134.28665
134.28668
134.28671
134.28674
134.28677
134.28681
134.28685
134.28689
134.28694
134.287
134.28706
134.28713
134.2872
134.28728
134.28737
134.28747
134.28758
134.28771
134.28784
134.28799
134.28815
134.28833
134.28853
134.28874
134.28898
134.28925
134.28621
134.28621
134.28621
134.28621
134.28621
134.28621
134.28621
134.28621
134.28621
134.28622
134.28622
134.28623
134.28623
134.28624
134.28625
134.28625
134.28626
134.28627
134.28629
134.2863
134.28631
134.28633
134.28635
134.28637
134.28639
134.28641
134.28644
134.28647
134.28651
134.28654
134.28658
134.28663
134.28668
134.28673
134.2868
134.28686
134.28694
134.28702
134.28711
134.28721
134.28732
134.28744
134.28757
134.28772
134.28788
134.28806
134.28826
134.28848
134.28872
134.28898
134.28595
134.28595
134.28595
134.28595
134.28595
134.28595
134.28595
134.28595
134.28596
134.28596
134.28596
134.28597
134.28597
134.28598
134.28599
134.28599
134.286
134.28601
134.28602
134.28604
134.28605
134.28607
134.28609
134.28611
134.28613
134.28615
134.28618
134.28621
134.28624
134.28628
134.28632
134.28637
134.28641
134.28647
134.28653
134.2866
134.28667
134.28675
134.28684
134.28694
134.28705
134.28717
134.28731
134.28745
134.28762
134.28779
134.28799
134.28821
134.28845
134.28871
134.2857
134.28569
134.28569
134.28569
134.28569
134.28569
134.28569
134.2857
134.2857
134.2857
134.2857
134.28571
134.28571
134.28572
134.28573
134.28573
134.28574
134.28575
134.28576
134.28578
134.28579
134.28581
134.28582
134.28584
134.28587
134.28589
134.28592
134.28595
134.28598
134.28602
134.28606
134.2861
134.28615
134.28621
134.28627
134.28633
134.28641
134.28649
134.28658
134.28668
134.28679
134.28691
134.28704
134.28719
134.28735
134.28753
134.28772
134.28794
134.28818
134.28844
134.28544
134.28544
134.28544
134.28544
134.28544
134.28544
134.28544
134.28544
134.28544
134.28544
134.28545
134.28545
134.28545
134.28546
134.28547
134.28547
134.28548
134.28549
134.2855
134.28552
134.28553
134.28555
134.28556
134.28558
134.2856
134.28563
134.28565
134.28568
134.28572
134.28575
134.28579
134.28584
134.28589
134.28594
134.286
134.28607
134.28614
134.28622
134.28631
134.28641
134.28652
134.28664
134.28677
134.28692
134.28708
134.28726
134.28746
134.28767
134.28791
134.28818
134.28519
134.28518
134.28518
134.28518
134.28518
134.28518
134.28518
134.28518
134.28518
134.28519
134.28519
134.28519
134.2852
134.2852
134.28521
134.28522
134.28522
134.28523
134.28524
134.28526
134.28527
134.28528
134.2853
134.28532
134.28534
134.28537
134.28539
134.28542
134.28545
134.28549
134.28553
134.28557
134.28562
134.28568
134.28574
134.2858
134.28588
134.28596
134.28605
134.28614
134.28625
134.28637
134.28651
134.28665
134.28681
134.28699
134.28719
134.28741
134.28765
134.28791
134.28493
134.28493
134.28493
134.28493
134.28493
134.28493
134.28493
134.28493
134.28493
134.28493
134.28493
134.28494
134.28494
134.28494
134.28495
134.28496
134.28497
134.28497
134.28498
134.285
134.28501
134.28503
134.28504
134.28506
134.28508
134.28511
134.28513
134.28516
134.28519
134.28523
134.28527
134.28531
134.28536
134.28541
134.28547
134.28554
134.28561
134.28569
134.28578
134.28588
134.28599
134.28611
134.28624
134.28639
134.28655
134.28673
134.28692
134.28714
134.28738
134.28764
134.28468
134.28468
134.28468
134.28467
134.28467
134.28467
134.28467
134.28467
134.28467
134.28467
134.28468
134.28468
134.28468
134.28469
134.28469
134.2847
134.28471
134.28472
134.28473
134.28474
134.28475
134.28477
134.28478
134.2848
134.28482
134.28485
134.28487
134.2849
134.28493
134.28497
134.28501
134.28505
134.2851
134.28515
134.28521
134.28527
134.28535
134.28543
134.28552
134.28561
134.28572
134.28584
134.28597
134.28612
134.28628
134.28646
134.28666
134.28687
134.28711
134.28738
134.28443
134.28443
134.28442
134.28442
134.28442
134.28442
134.28442
134.28442
134.28442
134.28442
134.28442
134.28442
134.28443
134.28443
134.28444
134.28444
134.28445
134.28446
134.28447
134.28448
134.28449
134.28451
134.28452
134.28454
134.28456
134.28459
134.28461
134.28464
134.28467
134.28471
134.28474
134.28479
134.28484
134.28489
134.28495
134.28501
134.28508
134.28516
134.28525
134.28535
134.28546
134.28557
134.28571
134.28585
134.28601
134.28619
134.28639
134.28661
134.28684
134.28711
134.28418
134.28418
134.28417
134.28417
134.28417
134.28417
134.28417
134.28417
134.28417
134.28417
134.28417
134.28417
134.28417
134.28418
134.28418
134.28419
134.2842
134.2842
134.28421
134.28422
134.28424
134.28425
134.28427
134.28428
134.2843
134.28433
134.28435
134.28438
134.28441
134.28444
134.28448
134.28453
134.28457
134.28463
134.28468
134.28475
134.28482
134.2849
134.28499
134.28508
134.28519
134.28531
134.28544
134.28559
134.28575
134.28593
134.28612
134.28634
134.28658
134.28684
134.28393
134.28393
134.28392
134.28392
134.28392
134.28392
134.28392
134.28391
134.28391
134.28391
134.28392
134.28392
134.28392
134.28392
134.28393
134.28393
134.28394
134.28395
134.28396
134.28397
134.28398
134.28399
134.28401
134.28403
134.28405
134.28407
134.28409
134.28412
134.28415
134.28418
134.28422
134.28426
134.28431
134.28436
134.28442
134.28448
134.28456
134.28463
134.28472
134.28482
134.28492
134.28504
134.28517
134.28532
134.28548
134.28566
134.28585
134.28607
134.28631
134.28657
134.28368
134.28368
134.28368
134.28367
134.28367
134.28367
134.28367
134.28366
134.28366
134.28366
134.28366
134.28367
134.28367
134.28367
134.28367
134.28368
134.28369
134.28369
134.2837
134.28371
134.28372
134.28374
134.28375
134.28377
134.28379
134.28381
134.28383
134.28386
134.28389
134.28392
134.28396
134.284
134.28405
134.2841
134.28416
134.28422
134.28429
134.28437
134.28446
134.28455
134.28466
134.28478
134.28491
134.28505
134.28521
134.28539
134.28559
134.2858
134.28604
134.28631
134.28344
134.28343
134.28343
134.28342
134.28342
134.28342
134.28342
134.28341
134.28341
134.28341
134.28341
134.28341
134.28342
134.28342
134.28342
134.28343
134.28343
134.28344
134.28345
134.28346
134.28347
134.28348
134.2835
134.28351
134.28353
134.28355
134.28358
134.2836
134.28363
134.28367
134.2837
134.28374
134.28379
134.28384
134.2839
134.28396
134.28403
134.28411
134.28419
134.28429
134.28439
134.28451
134.28464
134.28479
134.28495
134.28512
134.28532
134.28554
134.28578
134.28604
134.28319
134.28319
134.28318
134.28318
134.28317
134.28317
134.28317
134.28317
134.28317
134.28316
134.28316
134.28316
134.28317
134.28317
134.28317
134.28318
134.28318
134.28319
134.28319
134.2832
134.28321
134.28323
134.28324
134.28326
134.28328
134.2833
134.28332
134.28335
134.28337
134.28341
134.28344
134.28348
134.28353
134.28358
134.28364
134.2837
134.28377
134.28384
134.28393
134.28402
134.28413
134.28425
134.28438
134.28452
134.28468
134.28486
134.28505
134.28527
134.28551
134.28577
134.28295
134.28294
134.28294
134.28293
134.28293
134.28293
134.28292
134.28292
134.28292
134.28292
134.28292
134.28292
134.28292
134.28292
134.28292
134.28292
134.28293
134.28294
134.28294
134.28295
134.28296
134.28297
134.28299
134.283
134.28302
134.28304
134.28306
134.28309
134.28312
134.28315
134.28318
134.28322
134.28327
134.28332
134.28337
134.28344
134.2835
134.28358
134.28367
134.28376
134.28386
134.28398
134.28411
134.28425
134.28441
134.28459
134.28479
134.285
134.28524
134.28551
134.28271
134.2827
134.2827
134.28269
134.28269
134.28268
134.28268
134.28267
134.28267
134.28267
134.28267
134.28267
134.28267
134.28267
134.28267
134.28267
134.28268
134.28268
134.28269
134.2827
134.28271
134.28272
134.28273
134.28275
134.28277
134.28279
134.28281
134.28283
134.28286
134.28289
134.28293
134.28297
134.28301
134.28306
134.28311
134.28317
134.28324
134.28332
134.2834
134.2835
134.2836
134.28372