/*--------------------------------*- C++ -*----------------------------------*\
| =========                 |                                                 |
| \\      /  F ield         | OpenFOAM: The Open Source CFD Toolbox           |
|  \\    /   O peration     | Version:  3.0.1                                 |
|   \\  /    A nd           | Web:      www.OpenFOAM.org                      |
|    \\/     M anipulation  |                                                 |
\*---------------------------------------------------------------------------*/
FoamFile
{
    version     2.0;
    format      ascii;
    class       surfaceScalarField;
    location    "2498";
    object      phi;
}
// * * * * * * * * * * * * * * * * * * * * * * * * * * * * * * * * * * * * * //

dimensions      [1 0 -1 0 0 0 0];

internalField   nonuniform List<scalar> 
7860
(
-1.652327e-11
5.4070687e-09
-1.7359136e-10
1.6039725e-08
-5.5156752e-10
2.7892062e-08
-1.1483484e-09
4.0725804e-08
-1.9000627e-09
5.443927e-08
-2.7162003e-09
6.9072871e-08
-3.510227e-09
8.4789103e-08
-4.2182906e-09
1.0184072e-07
-4.8055879e-09
1.2053932e-07
-5.2639884e-09
1.4123139e-07
-5.6050934e-09
1.6428393e-07
-5.8522251e-09
1.9007871e-07
-6.0334193e-09
2.1901298e-07
-6.1765182e-09
2.5150454e-07
-6.3060087e-09
2.8799892e-07
-6.4418875e-09
3.289777e-07
-6.599416e-09
3.7496649e-07
-6.7896664e-09
4.2654212e-07
-7.0202168e-09
4.8433811e-07
-7.2958785e-09
5.4904748e-07
-7.6191e-09
6.2142152e-07
-7.9902701e-09
7.0226222e-07
-8.4077539e-09
7.9240511e-07
-8.8677634e-09
8.9268752e-07
-9.3641416e-09
1.0038952e-06
-9.8877445e-09
1.1266772e-06
-1.0426349e-08
1.2614157e-06
-1.096387e-08
1.4080315e-06
-1.1479914e-08
1.5657018e-06
-1.194941e-08
1.7324571e-06
-1.2341688e-08
1.9046197e-06
-1.2620596e-08
2.0760317e-06
-1.2742875e-08
2.2370202e-06
-1.2658911e-08
2.3730227e-06
-1.2305365e-08
2.4628099e-06
-1.160589e-08
2.4761489e-06
-1.0425456e-08
2.3708242e-06
-8.5384481e-09
2.0884184e-06
-5.2841408e-09
1.5484983e-06
6.3841225e-07
-4.4505712e-10
5.8521252e-09
-1.6898963e-09
1.7284566e-08
-3.6606371e-09
2.9862804e-08
-6.1797597e-09
4.3244927e-08
-9.0027895e-09
5.7262296e-08
-1.1866685e-08
7.1936771e-08
-1.4535994e-08
8.7458404e-08
-1.6835142e-08
1.0413987e-07
-1.8662271e-08
1.2236644e-07
-1.9986153e-08
1.4255527e-07
-2.0832051e-08
1.6512983e-07
-2.1262753e-08
1.9050941e-07
-2.1359952e-08
2.1911019e-07
-2.1209109e-08
2.5135369e-07
-2.0889038e-08
2.8767886e-07
-2.0466366e-08
3.2855503e-07
-1.9993664e-08
3.7449378e-07
-1.9510153e-08
4.2605862e-07
-1.9043932e-08
4.8387187e-07
-1.8614197e-08
5.4861777e-07
-1.8233647e-08
6.2104097e-07
-1.7909853e-08
7.0193842e-07
-1.7646271e-08
7.921415e-07
-1.7442459e-08
8.9248375e-07
-1.7294227e-08
1.0037469e-06
-1.719277e-08
1.1265758e-06
-1.7124549e-08
1.2613474e-06
-1.7070109e-08
1.4079771e-06
-1.7003928e-08
1.5656355e-06
-1.6893222e-08
1.7323464e-06
-1.6698163e-08
1.9044247e-06
-1.6371824e-08
2.0757053e-06
-1.5859914e-08
2.2365083e-06
-1.5103014e-08
2.3722658e-06
-1.4032379e-08
2.4617392e-06
-1.2571564e-08
2.474688e-06
-1.0598506e-08
2.3688513e-06
-7.9140187e-09
2.0857339e-06
-4.0845211e-09
1.5446689e-06
6.3432761e-07
-4.6820673e-10
6.3203325e-09
-1.8614525e-09
1.8677809e-08
-4.2051691e-09
3.2206525e-08
-7.3923821e-09
4.6432138e-08
-1.119469e-08
6.1064602e-08
-1.5303083e-08
7.6045171e-08
-1.9385487e-08
9.1540808e-08
-2.3143061e-08
1.0789743e-07
-2.635103e-08
1.2557442e-07
-2.8877724e-08
1.4508197e-07
-3.0682922e-08
1.6693502e-07
-3.1801625e-08
1.9162812e-07
-3.2320552e-08
2.1962911e-07
-3.2353665e-08
2.5138682e-07
-3.2021485e-08
2.8734665e-07
-3.1435884e-08
3.2796944e-07
-3.0691778e-08
3.7374966e-07
-2.9863701e-08
4.2523056e-07
-2.9006746e-08
4.830149e-07
-2.8159185e-08
5.477702e-07
-2.7346138e-08
6.2022793e-07
-2.6582796e-08
7.0117506e-07
-2.5876736e-08
7.9143543e-07
-2.5229455e-08
8.9183644e-07
-2.46369e-08
1.0031544e-06
-2.4089678e-08
1.1260286e-06
-2.3572378e-08
1.2608301e-06
-2.3063098e-08
1.4074678e-06
-2.2532805e-08
1.5651052e-06
-2.1944619e-08
1.7317583e-06
-2.1253622e-08
1.9037338e-06
-2.0407377e-08
2.074859e-06
-1.9345654e-08
2.2354466e-06
-1.8002593e-08
2.3709227e-06
-1.6304208e-08
2.4600409e-06
-1.4167553e-08
2.4725513e-06
-1.1469838e-08
2.3661534e-06
-8.0265712e-09
2.0822906e-06
-3.6613975e-09
1.5403035e-06
6.3066638e-07
-4.2263403e-10
6.7429677e-09
-1.730543e-09
1.9985717e-08
-4.0252679e-09
3.4501249e-08
-7.2969159e-09
4.9703787e-08
-1.1405691e-08
6.5173374e-08
-1.6094282e-08
8.0733765e-08
-2.1029251e-08
9.647578e-08
-2.5858139e-08
1.1272632e-07
-3.026528e-08
1.2998157e-07
-3.4013014e-08
1.4882969e-07
-3.6961703e-08
1.6988371e-07
-3.9069546e-08
1.9373597e-07
-4.0376903e-08
2.2093647e-07
-4.0982004e-08
2.5199193e-07
-4.1014675e-08
2.8737932e-07
-4.0612933e-08
3.2756771e-07
-3.9905629e-08
3.7304235e-07
-3.9001924e-08
4.2432688e-07
-3.7987348e-08
4.820003e-07
-3.69241e-08
5.4670695e-07
-3.5854471e-08
6.1915835e-07
-3.4805087e-08
7.0012566e-07
-3.3790328e-08
7.9042073e-07
-3.2815751e-08
8.9086179e-07
-3.187897e-08
1.0022177e-06
-3.0971281e-08
1.1251208e-06
-3.0076865e-08
1.2599357e-06
-2.917266e-08
1.4065636e-06
-2.8227744e-08
1.5641603e-06
-2.7202574e-08
1.7307332e-06
-2.6049091e-08
1.9025802e-06
-2.4710525e-08
2.0735205e-06
-2.3122312e-08
2.2338584e-06
-2.1213655e-08
2.3690141e-06
-1.8906073e-08
2.4577334e-06
-1.6111143e-08
2.4697563e-06
-1.270701e-08
2.3627492e-06
-8.5368669e-09
2.0781207e-06
-3.6439405e-09
1.5354104e-06
6.2702247e-07
-3.7836262e-10
7.1213305e-09
-1.5739048e-09
2.1181258e-08
-3.7222894e-09
3.6649638e-08
-6.8758275e-09
5.2857323e-08
-1.0973024e-08
6.9270573e-08
-1.5830195e-08
8.5590933e-08
-2.1161247e-08
1.0180684e-07
-2.662097e-08
1.1818603e-07
-3.1858882e-08
1.3521948e-07
-3.6569565e-08
1.5354038e-07
-4.0528698e-08
1.7384285e-07
-4.3610173e-08
1.9681743e-07
-4.578471e-08
2.23111e-07
-4.7104391e-08
2.5331162e-07
-4.7678679e-08
2.8795362e-07
-4.7648004e-08
3.2753701e-07
-4.7159788e-08
3.7255414e-07
-4.6350578e-08
4.2351766e-07
-4.5334957e-08
4.8098467e-07
-4.4201303e-08
5.455733e-07
-4.3012496e-08
6.1796953e-07
-4.1809397e-08
6.9892257e-07
-4.0615451e-08
7.8922678e-07
-3.9440648e-08
8.8968696e-07
-3.8284399e-08
1.0010615e-06
-3.713756e-08
1.123974e-06
-3.5982626e-08
1.2587808e-06
-3.4794109e-08
1.4053751e-06
-3.3537565e-08
1.5629038e-06
-3.216996e-08
1.7293655e-06
-3.0638352e-08
1.9010487e-06
-2.8881389e-08
2.0717635e-06
-2.6829302e-08
2.2318063e-06
-2.4405466e-08
2.3665903e-06
-2.1526478e-08
2.4548543e-06
-1.8097575e-08
2.4663275e-06
-1.3999702e-08
2.3586512e-06
-9.1152639e-09
2.073236e-06
-3.6901137e-09
1.5299856e-06
6.2333222e-07
-3.4322705e-10
7.4645572e-09
-1.4409385e-09
2.2278972e-08
-3.4420582e-09
3.8650755e-08
-6.4338297e-09
5.58491e-08
-1.0409366e-08
7.3246104e-08
-1.5248644e-08
9.0430215e-08
-2.0722493e-08
1.0728069e-07
-2.6520403e-08
1.2398394e-07
-3.2294981e-08
1.4099405e-07
-3.7711162e-08
1.5895657e-07
-4.2489105e-08
1.7862079e-07
-4.6433022e-08
2.0076134e-07
-4.9443324e-08
2.2612132e-07
-5.1512873e-08
2.5538116e-07
-5.2710646e-08
2.8915138e-07
-5.3158075e-08
3.2798445e-07
-5.3003348e-08
3.723994e-07
-5.2398064e-08
4.2291238e-07
-5.1479855e-08
4.8006646e-07
-5.036202e-08
5.4445546e-07
-4.912981e-08
6.1673731e-07
-4.7841551e-08
6.9763434e-07
-4.653274e-08
7.8791792e-07
-4.5220249e-08
8.8837451e-07
-4.3906911e-08
9.9974814e-07
-4.2583898e-08
1.122651e-06
-4.1232506e-08
1.2574293e-06
-3.9824354e-08
1.4039669e-06
-3.8321634e-08
1.5614011e-06
-3.6676702e-08
1.7277205e-06
-3.4831946e-08
1.8992039e-06
-3.2720174e-08
2.0696517e-06
-3.0265688e-08
2.2293518e-06
-2.7385947e-08
2.3637105e-06
-2.3990803e-08
2.4514592e-06
-1.9980672e-08
2.4623173e-06
-1.5240151e-08
2.3539108e-06
-9.699957e-09
2.0676956e-06
-3.7884187e-09
1.5240739e-06
6.1954388e-07
-3.1474963e-10
7.7793072e-09
-1.3296708e-09
2.3293892e-08
-3.1979106e-09
4.0518996e-08
-6.0264651e-09
5.867765e-08
-9.8450538e-09
7.7064697e-08
-1.4582831e-08
9.5167989e-08
-2.0062346e-08
1.1276021e-07
-2.6015158e-08
1.2993675e-07
-3.2115696e-08
1.4709459e-07
-3.8024928e-08
1.648658e-07
-4.3433605e-08
1.8402947e-07
-4.8097045e-08
2.0542479e-07
-5.1856609e-08
2.2988088e-07
-5.4646363e-08
2.5817091e-07
-5.6486178e-08
2.909912e-07
-5.7464428e-08
3.2896271e-07
-5.7714449e-08
3.7264943e-07
-5.7389666e-08
4.2258758e-07
-5.6641611e-08
4.7931841e-07
-5.560399e-08
5.4341788e-07
-5.43838e-08
6.1551706e-07
-5.3058286e-08
6.9630883e-07
-5.1677373e-08
7.86537e-07
-5.0267557e-08
8.8696473e-07
-4.8836806e-08
9.9831734e-07
-4.7377902e-08
1.1211921e-06
-4.5871493e-08
1.2559229e-06
-4.4286908e-08
1.4023823e-06
-4.2582783e-08
1.559697e-06
-4.0707061e-08
1.7258448e-06
-3.8596904e-08
1.8970938e-06
-3.6179483e-08
2.0672343e-06
-3.3372926e-08
2.2265453e-06
-3.0087947e-08
2.3604256e-06
-2.6228457e-08
2.4475996e-06
-2.1689465e-08
2.4577784e-06
-1.6363155e-08
2.3485844e-06
-1.0232587e-08
2.0615651e-06
-3.8893119e-09
1.517731e-06
6.1565441e-07
-2.9144963e-10
8.0707566e-09
-1.2367483e-09
2.423919e-08
-2.9889795e-09
4.2271229e-08
-5.6662563e-09
6.1354927e-08
-9.3230288e-09
8.072147e-08
-1.3925385e-08
9.9770347e-08
-1.9339233e-08
1.1817405e-07
-2.5336896e-08
1.3593442e-07
-3.1621864e-08
1.5337956e-07
-3.7865601e-08
1.7110953e-07
-4.3748078e-08
1.8991195e-07
-4.8994257e-08
2.1067097e-07
-5.3400848e-08
2.3428745e-07
-5.6850651e-08
2.6162072e-07
-5.931428e-08
2.9345484e-07
-6.0840128e-08
3.3048854e-07
-6.153569e-08
3.7334501e-07
-6.1544407e-08
4.2259629e-07
-6.1021757e-08
4.7879577e-07
-6.0115259e-08
5.4251137e-07
-5.8950322e-08
6.1435212e-07
-5.7623165e-08
6.9498171e-07
-5.6199773e-08
7.8511359e-07
-5.4718294e-08
8.8548324e-07
-5.3193831e-08
9.9679285e-07
-5.1622678e-08
1.119621e-06
-4.9985821e-08
1.2542861e-06
-4.8251078e-08
1.4006476e-06
-4.6373989e-08
1.5578199e-06
-4.4298232e-08
1.7237691e-06
-4.1956103e-08
1.8947516e-06
-3.92691e-08
2.0645473e-06
-3.6149128e-08
2.2234254e-06
-3.2500741e-08
2.356777e-06
-2.8220887e-08
2.4433199e-06
-2.3201775e-08
2.4527592e-06
-1.734466e-08
2.3427274e-06
-1.0689467e-08
2.0549098e-06
-3.9741966e-09
1.5110153e-06
6.1168049e-07
-2.7198368e-10
8.3427421e-09
-1.1580811e-09
2.5125284e-08
-2.80926e-09
4.3922411e-08
-5.3497721e-09
6.3895438e-08
-8.8509946e-09
8.4222693e-08
-1.3306832e-08
1.0422618e-07
-1.8618543e-08
1.2348576e-07
-2.4595079e-08
1.4191096e-07
-3.0970343e-08
1.5975482e-07
-3.7433509e-08
1.7757269e-07
-4.3665665e-08
1.961441e-07
-4.9375444e-08
2.1638075e-07
-5.432829e-08
2.3924031e-07
-5.8365814e-08
2.6565823e-07
-6.1413868e-08
2.9650289e-07
-6.34796e-08
3.3255427e-07
-6.4638697e-08
3.7450409e-07
-6.5015603e-08
4.229732e-07
-6.4760586e-08
4.7854074e-07
-6.4027322e-08
5.4177814e-07
-6.2955244e-08
6.1327999e-07
-6.165742e-08
6.9368391e-07
-6.02161e-08
7.8367228e-07
-5.868272e-08
8.8394984e-07
-5.7081335e-08
9.9519149e-07
-5.5413467e-08
1.1179531e-06
-5.3661864e-08
1.2525345e-06
-5.1793652e-08
1.3987794e-06
-4.9761915e-08
1.5557882e-06
-4.7506887e-08
1.721514e-06
-4.4956063e-08
1.8922008e-06
-4.2025598e-08
2.0616169e-06
-3.8622001e-08
2.2200217e-06
-3.464308e-08
2.3527981e-06
-2.998057e-08
2.4386576e-06
-2.4524171e-08
2.4473026e-06
-1.818795e-08
2.3363912e-06
-1.1069711e-08
2.0477916e-06
-4.0378536e-09
1.5039835e-06
6.0764254e-07
-2.5546489e-10
8.598207e-09
-1.0906538e-09
2.5960472e-08
-2.6534453e-09
4.5485204e-08
-5.071221e-09
6.6313212e-08
-8.4271063e-09
8.7578582e-08
-1.2736158e-08
1.0853523e-07
-1.7928322e-08
1.2867792e-07
-2.3844425e-08
1.4782706e-07
-3.0247522e-08
1.6615792e-07
-3.6847552e-08
1.8417272e-07
-4.333369e-08
2.0263024e-07
-4.9408168e-08
2.2245525e-07
-5.4816105e-08
2.4464822e-07
-5.9367516e-08
2.7020965e-07
-6.2950253e-08
3.0008563e-07
-6.5532554e-08
3.3513658e-07
-6.7156088e-08
3.761276e-07
-6.7920686e-08
4.237378e-07
-6.7963919e-08
4.7858398e-07
-6.7438577e-08
5.4125279e-07
-6.6492222e-08
6.1233366e-07
-6.5251982e-08
6.9244364e-07
-6.3815283e-08
7.8223558e-07
-6.2247391e-08
8.8238193e-07
-6.0582888e-08
9.9352703e-07
-5.8830028e-08
1.1162002e-06
-5.6974637e-08
1.2506791e-06
-5.498432e-08
1.3967891e-06
-5.2810699e-08
1.5536145e-06
-5.039061e-08
1.7190939e-06
-4.764786e-08
1.8894581e-06
-4.4493776e-08
2.0584628e-06
-4.0829163e-08
2.2163571e-06
-3.6546333e-08
2.3485154e-06
-3.1532499e-08
2.4336436e-06
-2.5675861e-08
2.4414461e-06
-1.8906388e-08
2.3296218e-06
-1.1380387e-08
2.0402654e-06
-4.0824285e-09
1.4966858e-06
6.0356003e-07
-2.4124043e-10
8.8394477e-09
-1.0321645e-09
2.6751398e-08
-2.5171231e-09
4.6970159e-08
-4.8247555e-09
6.8620846e-08
-8.0464329e-09
9.0800261e-08
-1.2213452e-08
1.1270225e-07
-1.7279136e-08
1.337436e-07
-2.311172e-08
1.5365965e-07
-2.9501145e-08
1.7254735e-07
-3.6178794e-08
1.9085035e-07
-4.2845855e-08
2.0929731e-07
-4.9204834e-08
2.2881422e-07
-5.4988653e-08
2.5043204e-07
-5.9984298e-08
2.752053e-07
-6.4048569e-08
3.041499e-07
-6.7114987e-08
3.3820299e-07
-6.9191749e-08
3.7820437e-07
-7.0351331e-08
4.2489738e-07
-7.0713284e-08
4.7894591e-07
-7.0423159e-08
5.4096268e-07
-6.9631334e-08
6.1154184e-07
-6.8474669e-08
6.9128698e-07
-6.7064054e-08
7.8082499e-07
-6.5478389e-08
8.8079622e-07
-6.3763505e-08
9.918122e-07
-6.1935723e-08
1.1143723e-06
-5.998531e-08
1.2487288e-06
-5.7881639e-08
1.3946854e-06
-5.5575249e-08
1.5513082e-06
-5.3001002e-08
1.7165197e-06
-5.0079033e-08
1.8865361e-06
-4.6716219e-08
2.0551001e-06
-4.2808706e-08
2.2124496e-06
-3.8243805e-08
2.3439505e-06
-3.2904485e-08
2.4283043e-06
-2.6679955e-08
2.4352215e-06
-1.9517688e-08
2.3224597e-06
-1.1632026e-08
2.0323797e-06
-4.1114812e-09
1.4891651e-06
5.994486e-07
-2.2884497e-10
9.0682926e-09
-9.8090049e-10
2.7503453e-08
-2.3968169e-09
4.8386078e-08
-4.6053428e-09
7.082937e-08
-7.7036184e-09
9.3898537e-08
-1.1735566e-08
1.1673421e-07
-1.6673675e-08
1.3868171e-07
-2.2409685e-08
1.5939566e-07
-2.8757839e-08
1.788955e-07
-3.5470485e-08
1.97563e-07
-4.2262855e-08
2.1608968e-07
-4.8841878e-08
2.3539325e-07
-5.493446e-08
2.5652462e-07
-6.0311354e-08
2.8058219e-07
-6.4804761e-08
3.086433e-07
-6.831833e-08
3.4171656e-07
-7.0829127e-08
3.8071518e-07
-7.238147e-08
4.2644976e-07
-7.3073768e-08
4.7963814e-07
-7.303935e-08
5.4092832e-07
-7.2426309e-08
6.1092877e-07
-7.1377003e-08
6.902377e-07
-7.0013135e-08
7.7946115e-07
-6.8426132e-08
8.7920916e-07
-6.6673429e-08
9.9005955e-07
-6.4780292e-08
1.1124792e-06
-6.2742861e-08
1.2466914e-06
-6.0532925e-08
1.3924754e-06
-5.8101423e-08
1.5488767e-06
-5.538144e-08
1.7137997e-06
-5.229018e-08
1.8834448e-06
-4.8730866e-08
2.0515408e-06
-4.4595171e-08
2.2083139e-06
-3.9766235e-08
2.3391215e-06
-3.4123407e-08
2.4226615e-06
-2.7558756e-08
2.4286567e-06
-2.003912e-08
2.3149402e-06
-1.1835752e-08
2.0241762e-06
-4.1281889e-09
1.4814576e-06
5.9532042e-07
-2.1792977e-10
9.2862226e-09
-9.3554451e-10
2.8221067e-08
-2.2898022e-09
4.9740337e-08
-4.408788e-09
7.2948356e-08
-7.393679e-09
9.6883429e-08
-1.129832e-08
1.2063884e-07
-1.6110988e-08
1.4349437e-07
-2.1743632e-08
1.650283e-07
-2.8032277e-08
1.8518414e-07
-3.4749189e-08
2.0427992e-07
-4.1624365e-08
2.2296485e-07
-4.8371939e-08
2.4214083e-07
-5.4717051e-08
2.6286973e-07
-6.0419591e-08
2.8628473e-07
-6.5292754e-08
3.1351648e-07
-6.921519e-08
3.4563899e-07
-7.213592e-08
3.836359e-07
-7.4071988e-08
4.2838583e-07
-7.5098778e-08
4.8066495e-07
-7.5334365e-08
5.4116389e-07
-7.4919807e-08
6.105142e-07
-7.3999051e-08
6.8931696e-07
-7.2701465e-08
7.7816356e-07
-7.1129305e-08
8.77637e-07
-6.9351542e-08
9.8828175e-07
-6.7402693e-08
1.1105303e-06
-6.528576e-08
1.2445745e-06
-6.2976249e-08
1.3901659e-06
-6.0426042e-08
1.5463266e-06
-5.7567425e-08
1.7109411e-06
-5.4315342e-08
1.8801926e-06
-5.0569523e-08
2.047795e-06
-4.6218118e-08
2.2039625e-06
-4.114008e-08
2.3340435e-06
-3.5212956e-08
2.4167343e-06
-2.8332078e-08
2.4217759e-06
-2.0486086e-08
2.3070943e-06
-1.2000971e-08
2.0156907e-06
-4.1361237e-09
1.4735931e-06
5.9118436e-07
-2.0823315e-10
9.4944554e-09
-8.9508791e-10
2.8907922e-08
-2.1939242e-09
5.1039173e-08
-4.231664e-09
7.4986098e-08
-7.1122671e-09
9.9764035e-08
-1.0897421e-08
1.2442399e-07
-1.5588529e-08
1.4818549e-07
-2.1114984e-08
1.7055475e-07
-2.7332234e-08
1.914014e-07
-3.4031162e-08
2.1097884e-07
-4.0956623e-08
2.2989032e-07
-4.7831569e-08
2.4901577e-07
-5.4382402e-08
2.6942055e-07
-6.0362234e-08
2.9226458e-07
-6.5569955e-08
3.1872421e-07
-6.9863601e-08
3.4993262e-07
-7.3167583e-08
3.8693988e-07
-7.5473375e-08
4.3069163e-07
-7.6833186e-08
4.8202477e-07
-7.7347342e-08
5.4167802e-07
-7.7146632e-08
6.103135e-07
-7.6372798e-08
6.8854311e-07
-7.5159575e-08
7.7695037e-07
-7.3618179e-08
8.7609562e-07
-7.1828045e-08
9.8649158e-07
-6.9833355e-08
1.1085357e-06
-6.7644645e-08
1.2423857e-06
-6.5241789e-08
1.387763e-06
-6.2578881e-08
1.5436637e-06
-5.9587963e-08
1.7079501e-06
-5.6182064e-08
1.8767867e-06
-5.2258568e-08
2.0438715e-06
-4.7701794e-08
2.1994057e-06
-4.238788e-08
2.3287295e-06
-3.6192707e-08
2.4105391e-06
-2.9017042e-08
2.4146002e-06
-2.0871774e-08
2.2989491e-06
-1.2135201e-08
2.0069541e-06
-4.1378531e-09
1.4655958e-06
5.8704636e-07
-1.9955023e-10
9.6940053e-09
-8.5874519e-10
2.9567117e-08
-2.1074594e-09
5.228789e-08
-4.0711648e-09
7.6949801e-08
-6.8556591e-09
1.0254853e-07
-1.0528865e-08
1.280972e-07
-1.5103215e-08
1.5275984e-07
-2.0523129e-08
1.7597467e-07
-2.6661458e-08
1.9753973e-07
-3.3326313e-08
2.1764369e-07
-4.0277084e-08
2.3684108e-07
-4.7246392e-08
2.5598508e-07
-5.3964013e-08
2.7613819e-07
-6.01795e-08
2.9848006e-07
-6.5681063e-08
3.2422579e-07
-7.031011e-08
3.5456164e-07
-7.3969793e-08
3.9059957e-07
-7.6628224e-08
4.3335008e-07
-7.8315027e-08
4.8371157e-07
-7.9111623e-08
5.4247458e-07
-7.9136007e-08
6.1033789e-07
-7.8524395e-08
6.8793154e-07
-7.741209e-08
7.7583803e-07
-7.5916675e-08
8.7460023e-07
-7.4126878e-08
9.8470177e-07
-7.2096406e-08
1.1065053e-06
-6.9843587e-08
1.2401329e-06
-6.7353845e-08
1.3852732e-06
-6.4583826e-08
1.5408937e-06
-6.1466246e-08
1.7048326e-06
-5.7913055e-08
1.8732335e-06
-5.3819257e-08
2.0397776e-06
-4.9066369e-08
2.1946529e-06
-4.3527967e-08
2.3231911e-06
-3.7079206e-08
2.4040904e-06
-2.9627365e-08
2.4071484e-06
-2.1206747e-08
2.2905284e-06
-1.2245333e-08
1.9979927e-06
-4.1351751e-09
1.457486e-06
5.8291095e-07
-1.9172241e-10
9.8857272e-09
-8.2588342e-10
3.020128e-08
-2.0290385e-09
5.3491043e-08
-3.9249845e-09
7.8845746e-08
-6.6206843e-09
1.0524423e-07
-1.0189061e-08
1.3166558e-07
-1.4651798e-08
1.5722258e-07
-1.9966438e-08
1.8128931e-07
-2.6021355e-08
2.0359464e-07
-3.2640503e-08
2.2426286e-07
-3.9597302e-08
2.4379788e-07
-4.663446e-08
2.6302224e-07
-5.3486595e-08
2.8299031e-07
-5.9901904e-08
3.0489536e-07
-6.56611e-08
3.29985e-07
-7.0592154e-08
3.5949269e-07
-7.4580198e-08
3.9458762e-07
-7.757241e-08
4.3634227e-07
-7.9576876e-08
4.8571604e-07
-8.0655793e-08
5.4355352e-07
-8.0912824e-08
6.1059491e-07
-8.0476011e-08
6.8749471e-07
-7.9479078e-08
7.7484114e-07
-7.8044021e-08
8.7316515e-07
-7.6267146e-08
9.8292486e-07
-7.4210994e-08
1.1044492e-06
-7.1902089e-08
1.2378239e-06
-6.9331678e-08
1.3827028e-06
-6.6460158e-08
1.5380222e-06
-6.3221292e-08
1.7015937e-06
-5.9526502e-08
1.8695387e-06
-5.5269044e-08
2.0355202e-06
-5.0328247e-08
2.1897121e-06
-4.457536e-08
2.3174381e-06
-3.7885935e-08
2.3974009e-06
-3.0174748e-08
2.3994371e-06
-2.1499306e-08
2.2818532e-06
-1.2336102e-08
1.9888292e-06
-4.1298791e-09
1.4492797e-06
5.7878111e-07
-1.8462167e-10
1.0070349e-08
-7.960071e-10
3.0812666e-08
-1.9575301e-09
5.4652567e-08
-3.7912165e-09
8.0679432e-08
-6.4046738e-09
1.0785769e-07
-9.874822e-09
1.3513572e-07
-1.4231207e-08
1.6157896e-07
-1.9442807e-08
1.865009e-07
-2.5411886e-08
2.0956372e-07
-3.1977044e-08
2.3082801e-07
-3.8924971e-08
2.5074581e-07
-4.6008646e-08
2.7010591e-07
-5.2968363e-08
2.8995004e-07
-5.9552843e-08
3.1147983e-07
-6.5537591e-08
3.3596976e-07
-7.0740016e-08
3.6469512e-07
-7.5030079e-08
3.9887765e-07
-7.8336213e-08
4.3964845e-07
-8.0646777e-08
4.8802658e-07
-8.2004927e-08
5.4491168e-07
-8.2498858e-08
6.1108881e-07
-8.2246431e-08
6.8724232e-07
-8.1377633e-08
7.7397231e-07
-8.0016126e-08
8.7180362e-07
-7.8264207e-08
9.8117298e-07
-7.6192652e-08
1.1023776e-06
-7.383572e-08
1.235467e-06
-7.1191109e-08
1.3800583e-06
-6.8223429e-08
1.5350545e-06
-6.4868323e-08
1.6982385e-06
-6.1037332e-08
1.8657077e-06
-5.6622322e-08
2.0311053e-06
-5.1500848e-08
2.1845906e-06
-4.5542398e-08
2.3114797e-06
-3.8623841e-08
2.3904823e-06
-3.0668088e-08
2.3914814e-06
-2.1757004e-08
2.2729422e-06
-1.2411281e-08
1.9794834e-06
-4.1220668e-09
1.4409908e-06
5.7465873e-07
-1.7814702e-10
1.0248496e-08
-7.6870093e-10
3.1403222e-08
-1.8920214e-09
5.5775887e-08
-3.6682867e-09
8.2455699e-08
-6.2053618e-09
1.1039476e-07
-9.5833755e-09
1.3851374e-07
-1.3838574e-08
1.6583416e-07
-1.8949965e-08
1.9161229e-07
-2.4832278e-08
2.1544604e-07
-3.1337554e-08
2.3733329e-07
-3.8265104e-08
2.5767334e-07
-4.5377981e-08
2.7721879e-07
-5.2422893e-08
2.9699496e-07
-5.9150253e-08
3.1820718e-07
-6.5332334e-08
3.4215184e-07
-7.0778256e-08
3.7014106e-07
-7.5345239e-08
4.0344462e-07
-7.8945518e-08
4.4324873e-07
-8.1549024e-08
4.906301e-07
-8.3180839e-08
5.4654348e-07
-8.3913115e-08
6.1182111e-07
-8.385229e-08
6.8718149e-07
-8.3122207e-08
7.7324222e-07
-8.1846239e-08
8.7052764e-07
-8.0130915e-08
9.7945771e-07
-7.8053957e-08
1.1003007e-06
-7.5657169e-08
1.2330702e-06
-7.2944936e-08
1.377346e-06
-6.9886539e-08
1.5319961e-06
-6.6420027e-08
1.6947721e-06
-6.245776e-08
1.8617454e-06
-5.7890782e-08
2.0265383e-06
-5.2595049e-08
2.1792948e-06
-4.6439255e-08
2.305324e-06
-3.9301967e-08
2.3833449e-06
-3.1115165e-08
2.3832946e-06
-2.1984953e-08
2.2638121e-06
-1.2473807e-08
1.9699722e-06
-4.1134656e-09
1.4326303e-06
5.7054547e-07
-1.7221243e-10
1.0420709e-08
-7.4363288e-10
3.1974642e-08
-1.8317479e-09
5.6864001e-08
-3.5548714e-09
8.4178824e-08
-6.0208229e-09
1.1286071e-07
-9.3123043e-09
1.4180522e-07
-1.3471301e-08
1.6999315e-07
-1.8485632e-08
1.9662662e-07
-2.4281297e-08
2.212417e-07
-3.0722645e-08
2.4377464e-07
-3.7620877e-08
2.6457157e-07
-4.4748956e-08
2.8434688e-07
-5.1860325e-08
3.0410631e-07
-5.8708012e-08
3.2505489e-07
-6.5062598e-08
3.485064e-07
-7.0726822e-08
3.758053e-07
-7.5547324e-08
4.0826511e-07
-7.9422154e-08
4.4712357e-07
-8.2304712e-08
4.9351265e-07
-8.4202753e-08
5.4844153e-07
-8.5172632e-08
6.1279099e-07
-8.530816e-08
6.8731703e-07
-8.4725537e-08
7.7265958e-07
-8.3545796e-08
8.6934789e-07
-8.1877951e-08
9.7778989e-07
-7.980542e-08
1.0982281e-06
-7.7376983e-08
1.2306417e-06
-7.4603719e-08
1.3745728e-06
-7.1459903e-08
1.5288523e-06
-6.7886919e-08
1.6911991e-06
-6.3797955e-08
1.8576565e-06
-5.9084068e-08
2.0218244e-06
-5.3620119e-08
2.1738309e-06
-4.7274386e-08
2.2989783e-06
-3.992766e-08
2.3759982e-06
-3.1522232e-08
2.3748892e-06
-2.2187645e-08
2.2544777e-06
-1.252621e-08
1.9603105e-06
-4.1034622e-09
1.4242077e-06
5.6644199e-07
-1.6675472e-10
1.0587462e-08
-7.2051888e-10
3.252841e-08
-1.7760695e-09
5.7919552e-08
-3.4498554e-09
8.5852607e-08
-5.8494024e-09
1.1526026e-07
-9.0594968e-09
1.4501532e-07
-1.3127029e-08
1.7406069e-07
-1.8047646e-08
2.0154724e-07
-2.3757467e-08
2.2695152e-07
-3.0132202e-08
2.5014937e-07
-3.6994227e-08
2.7143359e-07
-4.4126135e-08
2.9147879e-07
-5.128823e-08
3.1126839e-07
-5.8236916e-08
3.3200359e-07
-6.4742172e-08
3.5501164e-07
-7.0602001e-08
3.8166514e-07
-7.5654269e-08
4.1331737e-07
-7.9784805e-08
4.5125409e-07
-8.2932045e-08
4.9665989e-07
-8.5087678e-08
5.5059717e-07
-8.6292467e-08
6.1399577e-07
-8.6627146e-08
6.8765172e-07
-8.6198901e-08
7.7223134e-07
-8.5124724e-08
8.6827373e-07
-8.3514463e-08
9.761796e-07
-8.1455731e-08
1.0961694e-06
-7.9003794e-08
1.2281898e-06
-7.6176182e-08
1.3717452e-06
-7.2952463e-08
1.5256287e-06
-6.9277558e-08
1.6875242e-06
-6.5066441e-08
1.8534453e-06
-6.0210317e-08
2.0169683e-06
-5.4583655e-08
2.1682042e-06
-4.8054681e-08
2.2924494e-06
-4.0507312e-08
2.3684509e-06
-3.1894289e-08
2.3662761e-06
-2.2368977e-08
2.2449524e-06
-1.2569883e-08
1.9505114e-06
-4.0930268e-09
1.4157307e-06
5.6234908e-07
-1.6170686e-10
1.0749168e-08
-6.9913506e-10
3.3065836e-08
-1.7244617e-09
5.894488e-08
-3.3522895e-09
8.7480436e-08
-5.689709e-09
1.1759768e-07
-8.8231264e-09
1.4814874e-07
-1.2803687e-08
1.7804124e-07
-1.7633963e-08
2.0637752e-07
-2.3259253e-08
2.3257681e-07
-2.9565722e-08
2.5645585e-07
-3.6386249e-08
2.7825412e-07
-4.3512692e-08
2.9860523e-07
-5.0712298e-08
3.1846799e-07
-5.7745353e-08
3.3903667e-07
-6.4382125e-08
3.616484e-07
-7.0417172e-08
3.8770019e-07
-7.5681164e-08
4.1858137e-07
-8.0049377e-08
4.5562228e-07
-8.3446923e-08
5.0005746e-07
-8.5850601e-08
5.5300085e-07
-8.7286125e-08
6.1543131e-07
-8.7821005e-08
6.8818657e-07
-8.7552368e-08
7.7196273e-07
-8.6591844e-08
8.6731317e-07
-8.5048243e-08
9.7463604e-07
-8.3012416e-08
1.0941336e-06
-8.0545029e-08
1.2257223e-06
-7.766966e-08
1.3688698e-06
-7.4371533e-08
1.5223305e-06
-7.0599312e-08
1.683752e-06
-6.6270334e-08
1.8491164e-06
-6.1276439e-08
2.0119744e-06
-5.5492034e-08
2.1624198e-06
-4.8786143e-08
2.2857434e-06
-4.1046008e-08
2.3607109e-06
-3.2235712e-08
2.3574658e-06
-2.2531799e-08
2.2352483e-06
-1.2606541e-08
1.9405864e-06
-4.0821658e-09
1.4072061e-06
5.5826708e-07
-1.5702814e-10
1.0906197e-08
-6.7927096e-10
3.3588081e-08
-1.6764624e-09
5.994207e-08
-3.2613723e-09
8.9065347e-08
-5.5405089e-09
1.1987681e-07
-8.6015821e-09
1.5120981e-07
-1.2499392e-08
1.8193906e-07
-1.7242693e-08
2.1112082e-07
-2.278509e-08
2.3811921e-07
-2.9022423e-08
2.6269318e-07
-3.5797411e-08
2.8502911e-07
-4.2910819e-08
3.0571864e-07
-5.0136796e-08
3.2569397e-07
-5.7239882e-08
3.4613975e-07
-6.3991296e-08
3.6839982e-07
-7.0183262e-08
3.9389216e-07
-7.5640599e-08
4.2403871e-07
-8.0229461e-08
4.6021115e-07
-8.3863183e-08
5.0369118e-07
-8.6504799e-08
5.5564248e-07
-8.8165823e-08
6.1709232e-07
-8.8900395e-08
6.8892115e-07
-8.8795156e-08
7.7185749e-07
-8.7954934e-08
8.6647295e-07
-8.6486403e-08
9.7316748e-07
-8.4482003e-08
1.0921291e-06
-8.200683e-08
1.2232472e-06
-7.909043e-08
1.3659534e-06
-7.5723286e-08
1.5189634e-06
-7.1858455e-08
1.6798872e-06
-6.7415771e-08
1.8446736e-06
-6.2288248e-08
2.0068469e-06
-5.6350865e-08
2.1564825e-06
-4.9473702e-08
2.2788662e-06
-4.1548454e-08
2.3527856e-06
-3.2550147e-08
2.3484675e-06
-2.2678348e-08
2.2253765e-06
-1.2637435e-08
1.9305455e-06
-4.070928e-09
1.3986396e-06
5.5419612e-07
-1.5267461e-10
1.1058872e-08
-6.6077163e-10
3.4096177e-08
-1.631686e-09
6.0912985e-08
-3.1764129e-09
9.0610072e-08
-5.4007604e-09
1.2210116e-07
-8.3934596e-09
1.5420251e-07
-1.2212485e-08
1.8575808e-07
-1.6872096e-08
2.1578043e-07
-2.2333483e-08
2.4358059e-07
-2.8501378e-08
2.6886108e-07
-3.5227778e-08
2.9175551e-07
-4.2321964e-08
3.1281282e-07
-4.9564932e-08
3.3293693e-07
-5.6725639e-08
3.5330045e-07
-6.3576884e-08
3.7525106e-07
-6.9909356e-08
4.0022464e-07
-7.5543193e-08
4.2967253e-07
-8.0336757e-08
4.650047e-07
-8.4192889e-08
5.0754731e-07
-8.7062121e-08
5.5851171e-07
-8.8942456e-08
6.1897265e-07
-8.9875038e-08
6.8985377e-07
-8.9935605e-08
7.7191802e-07
-8.9221197e-08
8.6575858e-07
-8.7835074e-08
9.7178132e-07
-8.5869985e-08
1.0901641e-06
-8.3394743e-08
1.2207719e-06
-8.0443797e-08
1.3630025e-06
-7.701312e-08
1.5155327e-06
-7.3060165e-08
1.6759342e-06
-6.8507862e-08
1.8401213e-06
-6.3250815e-08
2.0015898e-06
-5.7164931e-08
2.1503967e-06
-5.0121852e-08
2.2718232e-06
-4.2018204e-08
2.344682e-06
-3.2840675e-08
2.33929e-06
-2.2810932e-08
2.2153468e-06
-1.2663336e-08
1.9203978e-06
-4.0596721e-09
1.390036e-06
5.5013649e-07
-1.4861244e-10
1.1207485e-08
-6.4348909e-10
3.4591052e-08
-1.5898022e-09
6.1859299e-08
-3.0968047e-09
9.2117075e-08
-5.2695523e-09
1.2427391e-07
-8.1975279e-09
1.5713049e-07
-1.1941478e-08
1.8950203e-07
-1.6520596e-08
2.2035954e-07
-2.1902959e-08
2.4896296e-07
-2.8001591e-08
2.749597e-07
-3.4677146e-08
2.9843107e-07
-4.1747062e-08
3.1988275e-07
-4.8999054e-08
3.4018892e-07
-5.6206651e-08
3.6050805e-07
-6.314465e-08
3.8218907e-07
-6.9602963e-08
4.0668293e-07
-7.5397855e-08
4.3546746e-07
-8.0381196e-08
4.6998803e-07
-8.4446513e-08
5.1161262e-07
-8.753291e-08
5.6159812e-07
-8.9625832e-08
6.2106556e-07
-9.0753799e-08
6.9098174e-07
-9.0981291e-08
7.7214552e-07
-9.0397201e-08
8.6517444e-07
-8.9099892e-08
9.7048401e-07
-8.7181574e-08
1.0882457e-06
-8.4713333e-08
1.2183037e-06
-8.1734321e-08
1.3600235e-06
-7.824565e-08
1.512044e-06
-7.4209148e-08
1.6718978e-06
-6.9551198e-08
1.8354633e-06
-6.4168473e-08
1.9962071e-06
-5.7938268e-08
2.1441665e-06
-5.0734342e-08
2.2646194e-06
-4.2458764e-08
2.3364063e-06
-3.3109938e-08
2.3299413e-06
-2.2931478e-08
2.2051683e-06
-1.2684836e-08
1.9101513e-06
-4.0483236e-09
1.3813994e-06
5.4608804e-07
-1.4481139e-10
1.1352297e-08
-6.2729912e-10
3.5073538e-08
-1.5505231e-09
6.2782524e-08
-3.0220383e-09
9.3588591e-08
-5.146079e-09
1.2639794e-07
-8.0127009e-09
1.5999711e-07
-1.1685043e-08
1.9317437e-07
-1.6186739e-08
2.2486124e-07
-2.1492183e-08
2.5426841e-07
-2.7522019e-08
2.8098954e-07
-3.4145104e-08
3.0505416e-07
-4.1186665e-08
3.269243e-07
-4.8440919e-08
3.4744318e-07
-5.5686087e-08
3.6775321e-07
-6.2699305e-08
3.8920229e-07
-6.9270216e-08
4.1325383e-07
-7.5212197e-08
4.4140945e-07
-8.0371405e-08
4.7514725e-07
-8.4633249e-08
5.1587444e-07
-8.7926485e-08
5.6489138e-07
-9.0224842e-08
6.2336388e-07
-9.1544696e-08
6.923016e-07
-9.1939349e-08
7.725402e-07
-9.1488865e-08
8.647239e-07
-9.028595e-08
9.6928116e-07
-8.8421099e-08
1.0863809e-06
-8.5966857e-08
1.2158494e-06
-8.296619e-08
1.3570228e-06
-7.9424779e-08
1.5085027e-06
-7.5309404e-08
1.6677824e-06
-7.0549717e-08
1.8307036e-06
-6.5044985e-08
1.9907024e-06
-5.8674428e-08
2.137796e-06
-5.1314592e-08
2.2572595e-06
-4.2872833e-08
2.3279645e-06
-3.3360328e-08
2.3204288e-06
-2.3041249e-08
2.1948491e-06
-1.270308e-08
1.899813e-06
-4.0368542e-09
1.3727337e-06
5.4205076e-07
-1.4124619e-10
1.1493543e-08
-6.1209459e-10
3.5544387e-08
-1.5135995e-09
6.3684027e-08
-2.9516575e-09
9.502665e-08
-5.0296419e-09
1.2847593e-07
-7.8380112e-09
1.6280548e-07
-1.1441998e-08
1.9677835e-07
-1.5869217e-08
2.2928846e-07
-2.1099849e-08
2.5949904e-07
-2.7061642e-08
2.8695133e-07
-3.363114e-08
3.1162365e-07
-4.0640989e-08
3.3393414e-07
-4.7891779e-08
3.5469398e-07
-5.5166429e-08
3.7502786e-07
-6.224466e-08
3.9628052e-07
-6.8916315e-08
4.199255e-07
-7.4992583e-08
4.4748571e-07
-8.0314789e-08
4.8046945e-07
-8.4761126e-08
5.2032079e-07
-8.8251122e-08
5.6838135e-07
-9.0747449e-08
6.2586023e-07
-9.2255038e-08
6.9380922e-07
-9.2816238e-08
7.7310138e-07
-9.2501724e-08
8.6440937e-07
-9.1398076e-08