/*--------------------------------*- C++ -*----------------------------------*\
| =========                 |                                                 |
| \\      /  F ield         | OpenFOAM: The Open Source CFD Toolbox           |
|  \\    /   O peration     | Version:  3.0.1                                 |
|   \\  /    A nd           | Web:      www.OpenFOAM.org                      |
|    \\/     M anipulation  |                                                 |
\*---------------------------------------------------------------------------*/
FoamFile
{
    version     2.0;
    format      ascii;
    class       volScalarField;
    location    "2498";
    object      Qin;
}
// * * * * * * * * * * * * * * * * * * * * * * * * * * * * * * * * * * * * * //

dimensions      [1 0 -3 0 0 0 0];

internalField   uniform 0;

boundaryField
{
    LeftWedge
    {
        type            wedge;
    }
    RightWedge
    {
        type            wedge;
    }
    Inlet
    {
        type            calculated;
        value           uniform 0;
    }
    Outlet
    {
        type            calculated;
        value           nonuniform List<scalar> 
40
(
7.4156148e-30
7.4156148e-30
7.4156148e-30
7.4156148e-30
7.4156148e-30
7.4156148e-30
7.4156148e-30
7.4156148e-30
7.4156148e-30
7.4156148e-30
7.4156148e-30
7.4156148e-30
7.4156148e-30
7.4156148e-30
7.4156148e-30
7.4156148e-30
7.4156148e-30
7.4156148e-30
7.4156148e-30
7.4156148e-30
7.4156148e-30
7.4156148e-30
7.4156148e-30
7.4156148e-30
7.4156148e-30
7.4156148e-30
7.4156148e-30
7.4156148e-30
7.4156148e-30
7.4156148e-30
7.4156148e-30
7.4156148e-30
7.4156148e-30
7.4156148e-30
7.4156148e-30
7.4156148e-30
7.4156148e-30
7.4156148e-30
7.4156148e-30
7.4156148e-30
)
;
    }
    Outterwall
    {
        type            calculated;
        value           nonuniform List<scalar> 
100
(
498.46954
514.64838
522.63407
527.72929
531.40325
534.2439
536.54272
538.46337
540.10643
541.53784
542.80301
543.93444
544.95615
545.88638
546.73925
547.52591
548.25534
548.93483
549.5704
550.16705
550.72902
551.25989
551.76273
552.24018
552.69454
553.12782
553.54177
553.93795
554.31775
554.68237
555.03293
555.37041
555.69569
556.00958
556.3128
556.60602
556.88984
557.1648
557.43142
557.69016
557.94144
558.18566
558.42319
558.65436
558.87948
559.09885
559.31273
559.52138
559.72504
559.92393
560.11825
560.3082
560.49395
560.67569
560.85357
561.02774
561.19835
561.36554
561.52942
561.69013
561.84777
562.00246
562.1543
562.30338
562.44981
562.59366
562.73503
562.87399
563.01063
563.14501
563.2772
563.40728
563.5353
563.66133
563.78542
563.90763
564.02802
564.14664
564.26354
564.37876
564.49235
564.60435
564.71481
564.82377
564.93127
565.03734
565.14202
565.24536
565.34737
565.44811
565.54762
565.64598
565.74337
565.84025
565.93833
566.0418
566.1674
566.33065
566.66429
567.05763
)
;
    }
    Innerwall
    {
        type            calculated;
        value           nonuniform List<scalar> 
100
(
421.91928
421.91842
421.91758
421.91673
421.91589
421.91504
421.9142
421.91336
421.91252
421.91168
421.91084
421.91
421.90916
421.90832
421.90748
421.90664
421.9058
421.90497
421.90413
421.90329
421.90245
421.90161
421.90077
421.89993
421.89909
421.89825
421.89742
421.89658
421.89574
421.8949
421.89406
421.89322
421.89239
421.89155
421.89071
421.88987
421.88904
421.8882
421.88736
421.88653
421.88569
421.88486
421.88403
421.8832
421.88237
421.88154
421.88071
421.87988
421.87906
421.87824
421.87742
421.8766
421.87579
421.87498
421.87417
421.87337
421.87257
421.87177
421.87098
421.8702
421.86942
421.86865
421.86788
421.86712
421.86637
421.86563
421.86489
421.86417
421.86345
421.86274
421.86205
421.86136
421.86069
421.86003
421.85938
421.85875
421.85813
421.85752
421.85693
421.85636
421.8558
421.85526
421.85474
421.85423
421.85375
421.85328
421.85284
421.85242
421.85202
421.85165
421.8513
421.85097
421.85067
421.8504
421.85015
421.84994
421.84975
421.84959
421.84947
421.84938
)
;
    }
}


// ************************************************************************* //
