/*--------------------------------*- C++ -*----------------------------------*\
| =========                 |                                                 |
| \\      /  F ield         | OpenFOAM: The Open Source CFD Toolbox           |
|  \\    /   O peration     | Version:  4.0                                   |
|   \\  /    A nd           | Web:      www.OpenFOAM.org                      |
|    \\/     M anipulation  |                                                 |
\*---------------------------------------------------------------------------*/
FoamFile
{
    version     2.0;
    format      ascii;
    class       volScalarField;
    location    "2000";
    object      Qr;
}
// * * * * * * * * * * * * * * * * * * * * * * * * * * * * * * * * * * * * * //

dimensions      [1 0 -3 0 0 0 0];

internalField   uniform 0;

boundaryField
{
    LeftWedge
    {
        type            wedge;
    }
    RightWedge
    {
        type            wedge;
    }
    Inlet
    {
        type            calculated;
        value           nonuniform List<scalar> 
50
(
35.366671
35.45818
35.562398
35.680669
35.81494
35.967522
36.140903
36.337573
36.559803
36.809252
37.086413
37.390071
37.717046
38.062493
38.420788
38.786762
39.156852
39.529765
39.906499
40.289811
40.683412
41.091171
41.516529
41.962185
42.430002
42.921059
43.435768
43.974001
44.535188
45.118399
45.722406
46.345724
46.98666
47.643343
48.313773
48.995859
49.687457
50.386411
51.090585
51.797889
52.506305
53.213904
53.918861
54.619476
55.314187
56.001596
56.680484
57.34984
58.008871
58.657021
)
;
    }
    Outlet
    {
        type            calculated;
        value           nonuniform List<scalar> 
50
(
-79.20675
-75.911012
-72.413348
-68.71295
-64.811196
-60.711772
-56.420645
-51.945785
-47.296642
-42.483535
-37.51713
-32.408145
-27.167337
-21.805762
-16.335283
-10.769293
-5.1236288
0.58241957
6.3250935
12.075231
17.797309
23.448716
28.981627
34.343721
39.479692
44.333568
48.851742
52.986512
56.699756
59.966239
62.775987
65.135278
67.066139
68.605219
69.78995
70.674023
71.309995
71.747005
72.02949
72.196
72.278688
72.303402
72.290171
72.253901
72.205119
72.150728
72.094749
72.039063
71.984107
71.929444
)
;
    }
    Outterwall
    {
        type            calculated;
        value           nonuniform List<scalar> 
100
(
57.409828
59.519499
62.690317
67.265443
73.017065
79.352862
85.639169
91.430299
96.531544
100.94299
104.7644
108.11671
111.0992
113.77724
116.18763
118.3499
120.27669
121.98055
123.47706
124.78525
125.92659
126.9234
127.79743
128.56876
129.25512
129.87166
130.43095
130.94324
131.4167
131.85782
132.2717
132.66235
133.03291
133.38588
133.72326
134.04667
134.35745
134.65669
134.94533
135.22418
135.49394
135.75522
136.00855
136.25444
136.49332
136.72558
136.95158
137.17166
137.38613
137.59525
137.7993
137.9985
138.19309
138.38327
138.56923
138.75115
138.9292
139.10354
139.2743
139.44163
139.60564
139.76644
139.92411
140.07871
140.23026
140.37872
140.52398
140.66579
140.80373
140.93709
141.06476
141.18505
141.29544
141.39227
141.4703
141.52225
141.5382
141.50502
141.40585
141.21976
140.92186
140.48395
139.87599
139.06839
138.03466
136.75357
135.20896
133.38435
131.24953
128.7376
125.71646
121.96886
117.20859
111.16848
103.77949
95.398211
86.939195
79.703662
74.813994
72.538289
)
;
    }
    fluid_to_cencil
    {
        type            calculated;
        value           nonuniform List<scalar> 
100
(
-70.532704
-88.839096
-98.397208
-104.19399
-108.14837
-111.15132
-113.54165
-115.52441
-117.21101
-118.67556
-119.96693
-121.12
-122.16014
-123.10647
-123.97369
-124.77337
-125.51476
-126.20535
-126.85132
-127.4578
-128.02908
-128.56884
-129.08018
-129.5658
-130.02803
-130.46891
-130.89023
-131.29355
-131.68027
-132.05164
-132.40876
-132.75263
-133.08416
-133.40415
-133.71333
-134.01238
-134.30191
-134.58246
-134.85456
-135.11867
-135.37523
-135.62462
-135.86723
-136.10338
-136.33341
-136.55759
-136.77621
-136.98952
-137.19777
-137.40116
-137.59992
-137.79423
-137.98429
-138.17026
-138.35231
-138.5306
-138.70526
-138.87643
-139.04424
-139.20882
-139.37028
-139.52874
-139.68428
-139.83703
-139.98706
-140.13447
-140.27934
-140.42176
-140.5618
-140.69954
-140.83504
-140.96838
-141.09962
-141.22882
-141.35604
-141.48133
-141.60476
-141.72636
-141.8462
-141.96431
-142.08074
-142.19553
-142.30871
-142.42032
-142.53035
-142.63882
-142.7457
-142.85088
-142.95419
-143.05523
-143.1532
-143.24646
-143.33145
-143.40029
-143.4345
-143.38791
-143.13549
-142.30804
-139.68012
-130.66124
)
;
    }
}


// ************************************************************************* //
