/*--------------------------------*- C++ -*----------------------------------*\
| =========                 |                                                 |
| \\      /  F ield         | OpenFOAM: The Open Source CFD Toolbox           |
|  \\    /   O peration     | Version:  3.0.1                                 |
|   \\  /    A nd           | Web:      www.OpenFOAM.org                      |
|    \\/     M anipulation  |                                                 |
\*---------------------------------------------------------------------------*/
FoamFile
{
    version     2.0;
    format      ascii;
    class       volScalarField;
    location    "2498";
    object      Qr;
}
// * * * * * * * * * * * * * * * * * * * * * * * * * * * * * * * * * * * * * //

dimensions      [1 0 -3 0 0 0 0];

internalField   uniform 0;

boundaryField
{
    LeftWedge
    {
        type            wedge;
    }
    RightWedge
    {
        type            wedge;
    }
    Inlet
    {
        type            calculated;
        value           uniform -6.3277868e-30;
    }
    Outlet
    {
        type            calculated;
        value           nonuniform List<scalar> 
40
(
7.4156148e-30
7.4156148e-30
7.4156148e-30
7.4156148e-30
7.4156148e-30
7.4156148e-30
7.4156148e-30
7.4156148e-30
7.4156148e-30
7.4156148e-30
7.4156148e-30
7.4156148e-30
7.4156148e-30
7.4156148e-30
7.4156148e-30
7.4156148e-30
7.4156148e-30
7.4156148e-30
7.4156148e-30
7.4156148e-30
7.4156148e-30
7.4156148e-30
7.4156148e-30
7.4156148e-30
7.4156148e-30
7.4156148e-30
7.4156148e-30
7.4156148e-30
7.4156148e-30
7.4156148e-30
7.4156148e-30
7.4156148e-30
7.4156148e-30
7.4156148e-30
7.4156148e-30
7.4156148e-30
7.4156148e-30
7.4156148e-30
7.4156148e-30
7.4156148e-30
)
;
    }
    Outterwall
    {
        type            calculated;
        value           nonuniform List<scalar> 
100
(
76.550263
92.729954
100.7165
105.81256
109.48736
112.32885
114.62852
116.55
118.19391
119.62616
120.89216
122.02443
123.04699
123.97806
124.83176
125.61927
126.34954
127.02987
127.66627
128.26377
128.82658
129.35828
129.86196
130.34025
130.79545
131.22956
131.64436
132.04138
132.42201
132.78747
133.13887
133.47719
133.80331
134.11803
134.42209
134.71615
135.0008
135.2766
135.54406
135.80363
136.05575
136.3008
136.53916
136.77116
136.99711
137.21731
137.43202
137.6415
137.84599
138.04569
138.24083
138.4316
138.61817
138.80071
138.9794
139.15438
139.32579
139.49376
139.65844
139.81993
139.97835
140.13381
140.28641
140.43626
140.58344
140.72803
140.87014
141.00983
141.14718
141.28226
141.41515
141.54591
141.67461
141.8013
141.92604
142.04889
142.1699
142.28912
142.40661
142.5224
142.63655
142.7491
142.86008
142.96954
143.07752
143.18406
143.28918
143.39293
143.49535
143.59646
143.69632
143.795
143.8927
143.98985
144.08818
144.19186
144.31765
144.48105
144.81482
145.20824
)
;
    }
    Innerwall
    {
        type            calculated;
        value           nonuniform List<scalar> 
100
(
-76.550263
-92.729954
-100.7165
-105.81256
-109.48736
-112.32885
-114.62852
-116.55
-118.19391
-119.62616
-120.89216
-122.02443
-123.04699
-123.97806
-124.83176
-125.61927
-126.34954
-127.02987
-127.66627
-128.26377
-128.82658
-129.35828
-129.86196
-130.34025
-130.79545
-131.22956
-131.64436
-132.04138
-132.42201
-132.78747
-133.13887
-133.47719
-133.80331
-134.11803
-134.42209
-134.71615
-135.0008
-135.2766
-135.54406
-135.80363
-136.05575
-136.3008
-136.53916
-136.77116
-136.99711
-137.21731
-137.43202
-137.6415
-137.84599
-138.04569
-138.24083
-138.4316
-138.61817
-138.80071
-138.9794
-139.15438
-139.32579
-139.49376
-139.65844
-139.81993
-139.97835
-140.13381
-140.28641
-140.43626
-140.58344
-140.72803
-140.87014
-141.00983
-141.14718
-141.28226
-141.41515
-141.54591
-141.67461
-141.8013
-141.92604
-142.04889
-142.1699
-142.28912
-142.40661
-142.5224
-142.63655
-142.7491
-142.86008
-142.96954
-143.07752
-143.18406
-143.28918
-143.39293
-143.49535
-143.59646
-143.69632
-143.795
-143.8927
-143.98985
-144.08818
-144.19186
-144.31765
-144.48105
-144.81482
-145.20824
)
;
    }
}


// ************************************************************************* //
