/*--------------------------------*- C++ -*----------------------------------*\
| =========                 |                                                 |
| \\      /  F ield         | OpenFOAM: The Open Source CFD Toolbox           |
|  \\    /   O peration     | Version:  3.0.1                                 |
|   \\  /    A nd           | Web:      www.OpenFOAM.org                      |
|    \\/     M anipulation  |                                                 |
\*---------------------------------------------------------------------------*/
FoamFile
{
    version     2.0;
    format      ascii;
    class       volScalarField;
    location    "2498";
    object      rho;
}
// * * * * * * * * * * * * * * * * * * * * * * * * * * * * * * * * * * * * * //

dimensions      [1 -3 0 0 0 0 0];

internalField   nonuniform List<scalar> 
4000
(
1.1591156
1.1720722
1.1820954
1.1893055
1.1941924
1.1973427
1.199287
1.2004409
1.2011013
1.2014663
1.2016613
1.2017619
1.2018119
1.201836
1.2018471
1.201852
1.2018541
1.201855
1.2018553
1.2018555
1.2018555
1.2018555
1.2018555
1.2018555
1.2018555
1.2018555
1.2018555
1.2018555
1.2018555
1.2018555
1.2018555
1.2018555
1.2018555
1.2018555
1.2018555
1.2018555
1.2018555
1.2018555
1.2018555
1.2018555
1.1487677
1.161055
1.1717095
1.1804814
1.187312
1.1923483
1.1958762
1.1982331
1.1997397
1.2006636
1.2012079
1.2015162
1.201684
1.2017718
1.2018158
1.201837
1.2018468
1.2018511
1.2018529
1.2018536
1.2018539
1.201854
1.201854
1.201854
1.201854
1.201854
1.201854
1.201854
1.201854
1.201854
1.201854
1.201854
1.201854
1.201854
1.201854
1.201854
1.201854
1.201854
1.201854
1.201854
1.1438151
1.1554973
1.1659214
1.1749235
1.1823807
1.1882812
1.1927364
1.1959497
1.1981675
1.1996347
1.2005661
1.201134
1.2014665
1.2016533
1.2017539
1.2018058
1.2018314
1.2018434
1.2018488
1.2018511
1.201852
1.2018523
1.2018525
1.2018525
1.2018525
1.2018525
1.2018525
1.2018525
1.2018525
1.2018525
1.2018525
1.2018525
1.2018525
1.2018525
1.2018525
1.2018525
1.2018525
1.2018525
1.2018525
1.2018525
1.1407058
1.1519759
1.1621468
1.1711205
1.1787898
1.1851015
1.1900885
1.1938684
1.1966177
1.1985381
1.1998274
1.2006594
1.2011755
1.2014829
1.2016585
1.2017546
1.2018049
1.20183
1.2018419
1.2018472
1.2018496
1.2018505
1.2018508
1.201851
1.201851
1.201851
1.201851
1.201851
1.201851
1.201851
1.201851
1.201851
1.201851
1.201851
1.201851
1.201851
1.201851
1.201851
1.201851
1.201851
1.1384876
1.1494554
1.1594132
1.1683046
1.1760437
1.1825691
1.1878786
1.1920399
1.1951799
1.1974614
1.1990583
1.2001349
1.2008339
1.2012703
1.2015322
1.2016828
1.2017658
1.2018094
1.2018312
1.2018416
1.2018463
1.2018483
1.2018491
1.2018494
1.2018495
1.2018495
1.2018495
1.2018495
1.2018495
1.2018495
1.2018495
1.2018495
1.2018495
1.2018495
1.2018495
1.2018495
1.2018495
1.2018495
1.2018495
1.2018495
1.1367857
1.1475184
1.1572994
1.1661
1.1738527
1.1804973
1.1860148
1.1904433
1.1938754
1.1964433
1.1982983
1.1995921
1.2004627
1.2010276
1.2013804
1.2015921
1.2017138
1.2017808
1.2018159
1.2018335
1.2018418
1.2018455
1.2018471
1.2018477
1.2018479
1.201848
1.201848
1.201848
1.201848
1.201848
1.201848
1.201848
1.201848
1.201848
1.201848
1.201848
1.201848
1.201848
1.201848
1.201848
1.1354167
1.1459587
1.1555907
1.1643038
1.1720453
1.1787593
1.1844184
1.1890418
1.1926982
1.1954959
1.1975672
1.1990506
1.200078
1.2007655
1.2012093
1.2014852
1.2016499
1.2017442
1.2017957
1.2018225
1.2018357
1.201842
1.2018447
1.2018458
1.2018463
1.2018465
1.2018465
1.2018465
1.2018465
1.2018465
1.2018465
1.2018465
1.2018465
1.2018465
1.2018465
1.2018465
1.2018465
1.2018465
1.2018465
1.2018465
1.1342785
1.1446611
1.1541653
1.1627971
1.1705159
1.1772707
1.1830301
1.1878008
1.1916339
1.1946194
1.1968731
1.1985219
1.1996906
1.2004927
1.2010248
1.2013656
1.2015756
1.2016999
1.2017703
1.2018084
1.201828
1.2018375
1.2018419
1.2018438
1.2018446
1.2018449
1.201845
1.201845
1.201845
1.201845
1.201845
1.201845
1.201845
1.201845
1.201845
1.201845
1.201845
1.201845
1.201845
1.201845
1.1333086
1.1435549
1.1529478
1.161505
1.1691956
1.175974
1.1818066
1.1866918
1.1906675
1.1938088
1.1962181
1.1980117
1.1993075
1.2002155
1.2008317
1.2012363
1.2014926
1.2016487
1.20174
1.201791
1.2018182
1.2018319
1.2018385
1.2018415
1.2018427
1.2018433
1.2018434
1.2018435
1.2018435
1.2018435
1.2018435
1.2018435
1.2018435
1.2018435
1.2018435
1.2018435
1.2018435
1.2018435
1.2018435
1.2018435
1.1324666
1.1425942
1.1518888
1.1603774
1.1680377
1.1748284
1.1807158
1.1856921
1.189785
1.1930579
1.1956015
1.1975227
1.1989328
1.1999382
1.2006339
1.2011002
1.2014026
1.2015916
1.2017051
1.2017705
1.2018064
1.2018252
1.2018345
1.2018389
1.2018408
1.2018416
1.2018419
1.201842
1.201842
1.201842
1.201842
1.201842
1.201842
1.201842
1.201842
1.201842
1.201842
1.201842
1.201842
1.201842
1.1317245
1.1417474
1.1509542
1.1593798
1.1670088
1.1738046
1.1797336
1.1847837
1.1889748
1.1923602
1.1950209
1.1970553
1.1985688
1.1996638
1.200434
1.2009596
1.2013072
1.2015294
1.2016661
1.2017469
1.2017926
1.2018172
1.2018297
1.2018358
1.2018386
1.2018398
1.2018403
1.2018404
1.2018405
1.2018405
1.2018405
1.2018405
1.2018405
1.2018405
1.2018405
1.2018405
1.2018405
1.2018405
1.2018405
1.2018405
1.1310626
1.1409918
1.1501196
1.158487
1.1660849
1.1728808
1.1788418
1.1839527
1.188227
1.1917099
1.1944736
1.1966093
1.1982165
1.1993942
1.2002341
1.2008163
1.201208
1.2014631
1.2016234
1.2017204
1.2017767
1.2018078
1.2018242
1.2018324
1.2018362
1.2018379
1.2018386
1.2018389
1.201839
1.201839
1.201839
1.201839
1.201839
1.201839
1.201839
1.201839
1.201839
1.201839
1.201839
1.201839
1.1304662
1.140311
1.1493668
1.1576804
1.1652478
1.1720403
1.1780261
1.1831876
1.1875334
1.1911015
1.1939567
1.1961836
1.1978763
1.1991305
1.2000357
1.2006716
1.2011059
1.2013935
1.2015777
1.2016914
1.2017589
1.2017971
1.2018178
1.2018284
1.2018335
1.2018359
1.2018369
1.2018373
1.2018375
1.2018375
1.2018375
1.2018375
1.2018375
1.2018375
1.2018375
1.2018375
1.2018375
1.2018375
1.2018375
1.2018375
1.1299242
1.1396923
1.1486823
1.1569458
1.1644835
1.1712702
1.1772752
1.1824795
1.1868872
1.1905304
1.1934677
1.1957772
1.1975483
1.1988732
1.1998397
1.2005267
1.201002
1.2013214
1.2015294
1.2016601
1.2017393
1.2017851
1.2018106
1.2018239
1.2018306
1.2018337
1.2018351
1.2018357
1.2018359
1.201836
1.201836
1.201836
1.201836
1.201836
1.201836
1.201836
1.201836
1.201836
1.201836
1.201836
1.1294283
1.139126
1.1480554
1.1562721
1.1637811
1.1705603
1.1765803
1.1818208
1.1862826
1.1899928
1.1930039
1.1953887
1.197232
1.1986227
1.1996468
1.2003823
1.200897
1.2012474
1.2014789
1.2016268
1.201718
1.2017719
1.2018025
1.2018189
1.2018273
1.2018314
1.2018333
1.201834
1.2018344
1.2018345
1.2018345
1.2018345
1.2018345
1.2018345
1.2018345
1.2018345
1.2018345
1.2018345
1.2018345
1.2018345
1.1289716
1.1386045
1.1474778
1.1556507
1.163132
1.1699024
1.1759339
1.1812055
1.1857151
1.1894852
1.1925632
1.195017
1.196927
1.1983792
1.1994574
1.200239
1.2007916
1.2011721
1.2014267
1.2015918
1.2016952
1.2017576
1.2017936
1.2018134
1.2018238
1.2018289
1.2018313
1.2018324
1.2018328
1.2018329
1.201833
1.201833
1.201833
1.201833
1.201833
1.201833
1.201833
1.201833
1.201833
1.201833
1.1285487
1.1381216
1.1469427
1.1550744
1.162529
1.1692897
1.1753301
1.1806285
1.1851804
1.1890045
1.1921436
1.1946608
1.1966328
1.1981424
1.1992718
1.2000971
1.2006861
1.2010958
1.2013731
1.2015553
1.2016711
1.2017421
1.2017838
1.2018073
1.2018198
1.2018262
1.2018292
1.2018306
1.2018312
1.2018314
1.2018315
1.2018315
1.2018315
1.2018315
1.2018315
1.2018315
1.2018315
1.2018315
1.2018315
1.2018315
1.1281553
1.1376723
1.1464447
1.1545376
1.1619664
1.1687169
1.1747639
1.1800855
1.1846751
1.1885481
1.1917431
1.194319
1.1963488
1.1979124
1.19909
1.1999571
1.2005809
1.2010189
1.2013184
1.2015176
1.2016458
1.2017256
1.2017733
1.2018006
1.2018155
1.2018233
1.2018271
1.2018288
1.2018296
1.2018299
1.20183
1.20183
1.20183
1.20183
1.20183
1.20183
1.20183
1.20183
1.20183
1.20183
1.1277878
1.1372526
1.1459792
1.1540356
1.1614395
1.1681794
1.1742311
1.1795729
1.1841964
1.1881139
1.1913603
1.1939906
1.1960744
1.1976887
1.1989122
1.1998191
1.2004764
1.2009417
1.201263
1.2014788
1.2016195
1.2017082
1.2017621
1.2017934
1.2018109
1.2018201
1.2018247
1.2018269
1.2018279
1.2018283
1.2018285
1.2018285
1.2018285
1.2018285
1.2018285
1.2018285
1.2018285
1.2018285
1.2018285
1.2018285
1.1274431
1.1368589
1.1455426
1.1535642
1.1609442
1.1676732
1.1737283
1.1790877
1.1837417
1.1876999
1.1909938
1.1936747
1.195809
1.1974714
1.1987383
1.1996832
1.2003727
1.2008645
1.2012069
1.2014392
1.2015923
1.20169
1.2017502
1.2017858
1.2018059
1.2018168
1.2018223
1.201825
1.2018262
1.2018267
1.2018269
1.201827
1.201827
1.201827
1.201827
1.201827
1.201827
1.201827
1.201827
1.201827
1.1271188
1.1364886
1.1451317
1.1531203
1.1604772
1.1671951
1.1732524
1.1786273
1.1833088
1.1873043
1.1906421
1.1933704
1.1955523
1.1972599
1.1985682
1.1995496
1.20027
1.2007874
1.2011505
1.2013989
1.2015643
1.201671
1.2017376
1.2017776
1.2018005
1.2018132
1.2018197
1.201823
1.2018245
1.2018251
1.2018254
1.2018255
1.2018255
1.2018255
1.2018255
1.2018255
1.2018255
1.2018255
1.2018255
1.2018255
1.1268128
1.136139
1.1447437
1.152701
1.1600357
1.1667424
1.1728008
1.1781892
1.1828958
1.1869256
1.1903043
1.1930769
1.1953036
1.1970542
1.1984019
1.1994181
1.2001684
1.2007107
1.2010938
1.2013581
1.2015356
1.2016514
1.2017244
1.2017689
1.2017948
1.2018093
1.201817
1.2018208
1.2018227
1.2018235
1.2018238
1.201824
1.201824
1.201824
1.201824
1.201824
1.201824
1.201824
1.201824
1.201824
1.1265231
1.1358082
1.1443765
1.1523038
1.1596171
1.1663126
1.1723712
1.1777716
1.1825009
1.1865625
1.1899793
1.1927935
1.1950625
1.196854
1.1982393
1.1992889
1.200068
1.2006343
1.201037
1.2013168
1.2015063
1.2016311
1.2017107
1.2017598
1.2017888
1.2018052
1.2018141
1.2018186
1.2018208
1.2018218
1.2018223
1.2018224
1.2018225
1.2018225
1.2018225
1.2018225
1.2018225
1.2018225
1.2018225
1.2018225
1.1262483
1.1354943
1.144028
1.1519268
1.1592193
1.1659036
1.1719618
1.1773727
1.1821228
1.1862138
1.1896662
1.1925194
1.1948286
1.1966589
1.1980803
1.199162
1.1999688
1.2005584
1.2009802
1.2012752
1.2014766
1.2016104
1.2016966
1.2017502
1.2017824
1.2018009
1.2018111
1.2018164
1.201819
1.2018202
1.2018207
1.2018209
1.201821
1.201821
1.201821
1.201821
1.201821
1.201821
1.201821
1.201821
1.125987
1.1351959
1.1436966
1.1515679
1.1588404
1.1655136
1.1715707
1.1769909
1.1817601
1.1858783
1.1893641
1.1922543
1.1946014
1.1964688
1.1979246
1.1990373
1.1998709
1.2004831
1.2009235
1.2012334
1.2014465
1.2015891
1.2016819
1.2017403
1.2017758
1.2017964
1.2018079
1.201814
1.201817
1.2018185
1.2018191
1.2018194
1.2018195
1.2018195
1.2018195
1.2018195
1.2018195
1.2018195
1.2018195
1.2018195
1.1257379
1.1349114
1.1433806
1.1512258
1.1584789
1.1651411
1.1711966
1.176625
1.1814116
1.1855553
1.1890723
1.1919974
1.1943807
1.1962834
1.1977723
1.1989147
1.1997743
1.2004084
1.2008669
1.2011915
1.201416
1.2015675
1.2016669
1.20173
1.2017688
1.2017916
1.2018045
1.2018115
1.201815
1.2018167
1.2018175
1.2018178
1.201818
1.201818
1.201818
1.201818
1.201818
1.201818
1.201818
1.201818
1.1255002
1.1346399
1.143079
1.1508989
1.1581333
1.1647846
1.170838
1.1762736
1.1810763
1.1852437
1.1887902
1.1917483
1.194166
1.1961025
1.1976232
1.1987943
1.199679
1.2003344
1.2008106
1.2011495
1.2013853
1.2015455
1.2016514
1.2017194
1.2017615
1.2017867
1.201801
1.2018089
1.201813
1.2018149
1.2018159
1.2018163
1.2018164
1.2018165
1.2018165
1.2018165
1.2018165
1.2018165
1.2018165
1.2018165
1.1252727
1.1343801
1.1427903
1.1505861
1.1578023
1.1644428
1.1704938
1.1759358
1.1807533
1.1849428
1.1885171
1.1915065
1.193957
1.1959259
1.1974772
1.198676
1.1995849
1.2002611
1.2007546
1.2011074
1.2013544
1.2015232
1.2016357
1.2017085
1.201754
1.2017815
1.2017974
1.2018062
1.2018108
1.2018131
1.2018142
1.2018147
1.2018149
1.201815
1.201815
1.201815
1.201815
1.201815
1.201815
1.201815
1.1250548
1.1341312
1.1425138
1.1502863
1.1574849
1.1641147
1.170163
1.1756106
1.1804418
1.184652
1.1882525
1.1912716
1.1937534
1.1957534
1.1973341
1.1985597
1.1994922
1.2001886
1.2006988
1.2010654
1.2013233
1.2015007
1.2016197
1.2016972
1.2017462
1.2017761
1.2017936
1.2018034
1.2018086
1.2018113
1.2018126
1.2018131
1.2018134
1.2018135
1.2018135
1.2018135
1.2018135
1.2018135
1.2018135
1.2018135
1.1248457
1.1338924
1.1422484
1.1499984
1.1571799
1.1637992
1.1698445
1.175297
1.1801409
1.1843706
1.1879959
1.1910433
1.193555
1.1955849
1.1971939
1.1984453
1.1994007
1.2001167
1.2006434
1.2010234
1.2012921
1.2014779
1.2016033
1.2016857
1.2017382
1.2017705
1.2017897
1.2018005
1.2018064
1.2018094
1.2018109
1.2018115
1.2018118
1.201812
1.201812
1.201812
1.201812
1.201812
1.201812
1.201812
1.1246447
1.1336629
1.1419933
1.1497217
1.1568866
1.1634955
1.1695376
1.1749944
1.17985
1.184098
1.1877467
1.1908212
1.1933615
1.19542
1.1970564
1.1983329
1.1993105
1.2000457
1.2005884
1.2009816
1.2012608
1.201455
1.2015868
1.201674
1.20173
1.2017648
1.2017856
1.2017975
1.2018041
1.2018075
1.2018092
1.2018099
1.2018103
1.2018104
1.2018105
1.2018105
1.2018105
1.2018105
1.2018105
1.2018105
1.1244514
1.133442
1.1417478
1.1494553
1.1566041
1.1632028
1.1692414
1.174702
1.1795685
1.1838337
1.1875047
1.1906049
1.1931727
1.1952588
1.1969215
1.1982223
1.1992215
1.1999753
1.2005337
1.2009399
1.2012295
1.2014319
1.20157
1.201662
1.2017215
1.2017588
1.2017813
1.2017944
1.2018017
1.2018055
1.2018074
1.2018083
1.2018087
1.2018089
1.201809
1.201809
1.201809
1.201809
1.201809
1.201809
1.124265
1.1332293
1.1415113
1.1491985
1.1563316
1.1629203
1.1689553
1.1744192
1.1792958
1.1835772
1.1872694
1.1903941
1.1929882
1.1951009
1.1967892
1.1981136
1.1991338
1.1999057
1.2004795
1.2008983
1.2011982
1.2014086
1.2015531
1.2016498
1.2017129
1.2017527
1.201777
1.2017912
1.2017992
1.2018035
1.2018056
1.2018067
1.2018072
1.2018074
1.2018075
1.2018075
1.2018075
1.2018075
1.2018075
1.2018075
1.1240853
1.133024
1.1412831
1.1489507
1.1560686
1.1626474
1.1686786
1.1741454
1.1790313
1.1833281
1.1870404
1.1901886
1.192808
1.1949463
1.1966593
1.1980066
1.1990472
1.1998369
1.2004257
1.2008569
1.2011668
1.2013853
1.201536
1.2016375
1.2017041
1.2017464
1.2017725
1.2017879
1.2017967
1.2018014
1.2018039
1.2018051
1.2018056
1.2018059
1.201806
1.201806
1.201806
1.201806
1.201806
1.201806
1.1239117
1.1328258
1.1410627
1.1487114
1.1558144
1.1623834
1.1684108
1.17388
1.1787747
1.1830859
1.1868174
1.1899881
1.1926319
1.1947949
1.1965318
1.1979012
1.1989618
1.1997688
1.2003723
1.2008157
1.2011355
1.2013619
1.2015187
1.201625
1.2016951
1.20174
1.2017678
1.2017845
1.201794
1.2017993
1.201802
1.2018034
1.201804
1.2018043
1.2018044
1.2018045
1.2018045
1.2018045
1.2018045
1.2018045
1.123744
1.1326342
1.1408497
1.14848
1.1555685
1.1621279
1.1681513
1.1736227
1.1785255
1.1828504
1.1866001
1.1897924
1.1924596
1.1946465
1.1964066
1.1977975
1.1988775
1.1997014
1.2003193
1.2007746
1.2011043
1.2013384
1.2015014
1.2016123
1.2016859
1.2017334
1.2017631
1.201781
1.2017914
1.2017971
1.2018002
1.2018017
1.2018024
1.2018028
1.2018029
1.201803
1.201803
1.201803
1.201803
1.201803
1.1235816
1.1324488
1.1406435
1.1482559
1.1553304
1.1618804
1.1678997
1.1733728
1.1782832
1.1826211
1.1863883
1.1896012
1.1922909
1.1945009
1.1962835
1.1976955
1.1987943
1.1996348
1.2002667
1.2007338
1.2010731
1.2013149
1.2014839
1.2015995
1.2016766
1.2017267
1.2017582
1.2017774
1.2017886
1.2017949
1.2017983
1.2018
1.2018008
1.2018012
1.2018014
1.2018015
1.2018015
1.2018015
1.2018015
1.2018015
1.1234243
1.1322693
1.1404438
1.1480389
1.1550997
1.1616403
1.1676555
1.1731301
1.1780476
1.1823977
1.1861816
1.1894144
1.1921258
1.1943582
1.1961625
1.1975949
1.1987122
1.1995688
1.2002146
1.2006933
1.2010419
1.2012913
1.2014663
1.2015865
1.2016672
1.2017198
1.2017532
1.2017737
1.2017858
1.2017927
1.2017964
1.2017983
1.2017992
1.2017997
1.2017999
1.2018
1.2018
1.2018
1.2018
1.2018
1.1232719
1.1320952
1.1402502
1.1478285
1.1548758
1.1614074
1.1674183
1.1728941
1.1778182
1.18218
1.1859798
1.1892317
1.1919641
1.1942181
1.1960436
1.1974958
1.1986311
1.1995036
1.2001629
1.2006529
1.2010109
1.2012678
1.2014487
1.2015735
1.2016576
1.2017129
1.2017481
1.2017699
1.2017829
1.2017904
1.2017944
1.2017966
1.2017976
1.2017981
1.2017983
1.2017984
1.2017985
1.2017985
1.2017985
1.2017985
1.123124
1.1319263
1.1400624
1.1476243
1.1546586
1.1611811
1.1671878
1.1726644
1.1775948
1.1819677
1.1857827
1.1890529
1.1918056
1.1940805
1.1959266
1.1973982
1.1985511
1.1994391
1.2001117
1.2006128
1.2009799
1.2012442
1.201431
1.2015603
1.2016479
1.2017058
1.201743
1.2017661
1.20178
1.201788
1.2017924
1.2017948
1.201796
1.2017966
1.2017968
1.2017969
1.201797
1.201797
1.201797
1.201797
1.1229804
1.1317623
1.13988
1.1474259
1.1544475
1.1609611
1.1669635
1.1724409
1.177377
1.1817604
1.1855901
1.188878
1.1916502
1.1939454
1.1958115
1.197302
1.1984721
1.1993752
1.2000609
1.2005729
1.2009491
1.2012206
1.2014132
1.2015471
1.2016381
1.2016986
1.2017377
1.2017621
1.201777
1.2017856
1.2017904
1.201793
1.2017943
1.201795
1.2017953
1.2017954
1.2017955
1.2017955
1.2017955
1.2017955
1.1228408
1.131603
1.1397027
1.1472332
1.1542422
1.1607471
1.1667453
1.1722231
1.1771646
1.1815581
1.1854017
1.1887066
1.1914978
1.1938127
1.1956983
1.1972072
1.198394
1.199312
1.2000105
1.2005333
1.2009183
1.2011971
1.2013954
1.2015337
1.2016282
1.2016913
1.2017323
1.2017581
1.2017739
1.2017832
1.2017884
1.2017912
1.2017927
1.2017934
1.2017937
1.2017939
1.201794
1.201794
1.201794
1.201794
1.1227051
1.131448
1.1395304
1.1470457
1.1540425
1.1605389
1.1665327
1.1720108
1.1769574
1.1813604
1.1852175
1.1885388
1.1913483
1.1936823
1.1955868
1.1971136
1.1983169
1.1992495
1.1999605
1.2004939
1.2008877
1.2011736
1.2013775
1.2015203
1.2016183
1.2016839
1.2017268
1.201754
1.2017707
1.2017807
1.2017863
1.2017894
1.201791
1.2017918
1.2017922
1.2017924
1.2017924
1.2017925
1.2017925
1.2017925
1.122573
1.1312973
1.1393626
1.1468632
1.1538481
1.160336
1.1663255
1.1718037
1.176755
1.1811672
1.1850371
1.1883743
1.1912015
1.1935541
1.195477
1.1970214
1.1982407
1.1991876
1.1999109
1.2004548
1.2008572
1.2011501
1.2013597
1.2015069
1.2016082
1.2016764
1.2017212
1.2017498
1.2017675
1.2017781
1.2017842
1.2017875
1.2017893
1.2017902
1.2017906
1.2017908
1.2017909
1.201791
1.201791
1.201791
1.1224444
1.1311505
1.1391993
1.1466855
1.1536588
1.1601384
1.1661234
1.1716016
1.1765574
1.1809782
1.1848605
1.188213
1.1910573
1.193428
1.1953689
1.1969304
1.1981655
1.1991263
1.1998618
1.2004159
1.2008268
1.2011267
1.2013418
1.2014933
1.2015981
1.2016689
1.2017156
1.2017456
1.2017643
1.2017755
1.201782
1.2017857
1.2017876
1.2017886
1.2017891
1.2017893
1.2017894
1.2017895
1.2017895
1.2017895
1.1223191
1.1310074
1.1390402
1.1465123
1.1534742
1.1599456
1.1659263
1.1714043
1.1763642
1.1807933
1.1846876
1.1880547
1.1909158
1.1933039
1.1952623
1.1968406
1.1980911
1.1990656
1.1998131
1.2003773
1.2007966
1.2011033
1.2013239
1.2014798
1.2015878
1.2016612
1.2017099
1.2017413
1.201761
1.2017729
1.2017799
1.2017838
1.2017859
1.201787
1.2017875
1.2017878
1.2017879
1.2017879
1.201788
1.201788
1.122197
1.130868
1.1388851
1.1463435
1.1532942
1.1597575
1.1657338
1.1712115
1.1761753
1.1806123
1.184518
1.1878995
1.1907767
1.1931819
1.1951574
1.196752
1.1980175
1.1990056
1.1997647
1.2003389
1.2007665
1.2010799
1.2013059
1.2014661
1.2015776
1.2016535
1.2017041
1.2017369
1.2017576
1.2017702
1.2017776
1.2017819
1.2017841
1.2017853
1.2017859
1.2017862
1.2017864
1.2017864
1.2017865
1.2017865
1.1220778
1.130732
1.1387337
1.1461788
1.1531185
1.1595739
1.1655458
1.1710231
1.1759905
1.1804351
1.1843518
1.1877471
1.1906399
1.1930617
1.1950539
1.1966645
1.1979448
1.1989461
1.1997168
1.2003008
1.2007365
1.2010566
1.201288
1.2014525
1.2015672
1.2016457
1.2016982
1.2017324
1.2017541
1.2017675
1.2017754
1.2017799
1.2017824
1.2017837
1.2017844
1.2017847
1.2017848
1.2017849
1.2017849
1.2017849
1.1219615
1.1305992
1.138586
1.146018
1.152947
1.1593946
1.1653621
1.1708388
1.1758096
1.1802614
1.1841888
1.1875974
1.1905055
1.1929435
1.1949519
1.1965781
1.197873
1.1988872
1.1996692
1.2002629
1.2007067
1.2010334
1.2012701
1.2014388
1.2015568
1.2016379
1.2016923
1.2017279
1.2017506
1.2017647
1.2017731
1.2017779
1.2017806
1.2017821
1.2017828
1.2017832
1.2017833
1.2017834
1.2017834
1.2017834
1.1218479
1.1304696
1.1384418
1.1458609
1.1527794
1.1592193
1.1651825
1.1706585
1.1756325
1.1800913
1.1840289
1.1874504
1.1903733
1.192827
1.1948513
1.1964928
1.1978019
1.1988289
1.1996221
1.2002252
1.200677
1.2010102
1.2012522
1.2014251
1.2015464
1.2016299
1.2016863
1.2017233
1.2017471
1.2017619
1.2017708
1.2017759
1.2017788
1.2017804
1.2017812
1.2017816
1.2017818
1.2017819
1.2017819
1.2017819
1.121737
1.130343
1.1383009
1.1457075
1.1526157
1.159048
1.1650068
1.1704821
1.175459
1.1799244
1.183872
1.187306
1.1902432
1.1927122
1.194752
1.1964086
1.1977316
1.1987712
1.1995753
1.2001878
1.2006475
1.2009871
1.2012343
1.2014113
1.2015359
1.201622
1.2016802
1.2017187
1.2017435
1.201759
1.2017684
1.2017739
1.201777
1.2017787
1.2017796
1.20178
1.2017803
1.2017804
1.2017804
1.2017804
1.1216285
1.1302192
1.1381632
1.1455575
1.1524556
1.1588804
1.1648349
1.1703093
1.175289
1.1797608
1.1837179
1.187164
1.1901152
1.1925992
1.1946541
1.1963254
1.197662
1.1987139
1.1995289
1.2001507
1.200618
1.2009641
1.2012164
1.2013976
1.2015254
1.2016139
1.2016741
1.201714
1.2017398
1.2017561
1.201766
1.2017719
1.2017752
1.201777
1.201778
1.2017785
1.2017787
1.2017788
1.2017789
1.2017789
1.1215225
1.1300981
1.1380285
1.1454108
1.152299
1.1587165
1.1646666
1.17014
1.1751224
1.1796002
1.1835665
1.1870244
1.1899891
1.1924877
1.1945575
1.1962431
1.1975932
1.1986572
1.1994828
1.2001138
1.2005888
1.2009411
1.2011986
1.2013838
1.2015148
1.2016059
1.2016679
1.2017093
1.2017361
1.2017532
1.2017636
1.2017698
1.2017734
1.2017753
1.2017764
1.2017769
1.2017772
1.2017773
1.2017774
1.2017774
1.1214187
1.1299797
1.1378967
1.1452673
1.1521457
1.158556
1.1645017
1.1699742
1.174959
1.1794426
1.1834178
1.1868871
1.1898651
1.1923779
1.1944622
1.1961618
1.1975251
1.1986011
1.1994372
1.2000771
1.2005596
1.2009182
1.2011807
1.20137
1.2015042
1.2015977
1.2016617
1.2017045
1.2017324
1.2017502
1.2017611
1.2017677
1.2017715
1.2017736
1.2017748
1.2017754
1.2017756
1.2017758
1.2017758
1.2017759
1.1213172
1.1298638
1.1377677
1.1451268
1.1519956
1.1583987
1.1643402
1.1698116
1.1747986
1.1792879
1.1832717
1.1867521
1.1897429
1.1922696
1.194368
1.1960815
1.1974577
1.1985454
1.1993918
1.2000406
1.2005307
1.2008954
1.2011629
1.2013562
1.2014936
1.2015896
1.2016554
1.2016996
1.2017286
1.2017471
1.2017587
1.2017656
1.2017696
1.2017719
1.2017731
1.2017738
1.2017741
1.2017743
1.2017743
1.2017743
1.1212177
1.1297503
1.1376415
1.1449893
1.1518487
1.1582447
1.164182
1.1696521
1.1746413
1.1791359
1.183128
1.1866192
1.1896225
1.1921628
1.1942751
1.1960021
1.197391
1.1984903
1.1993468
1.2000044
1.2005018
1.2008727
1.2011452
1.2013424
1.2014829
1.2015814
1.2016491
1.2016947
1.2017248
1.2017441
1.2017561
1.2017634
1.2017677
1.2017702
1.2017715
1.2017722
1.2017725
1.2017727
1.2017728
1.2017728
1.1211203
1.1296392
1.1375178
1.1448545
1.1517047
1.1580938
1.1640268
1.1694957
1.1744869
1.1789866
1.1829868
1.1864884
1.1895039
1.1920574
1.1941833
1.1959236
1.197325
1.1984356
1.1993022
1.1999684
1.2004731
1.20085
1.2011274
1.2013286
1.2014722
1.2015731
1.2016427
1.2016898
1.2017209
1.201741
1.2017536
1.2017613
1.2017658
1.2017684
1.2017698
1.2017706
1.201771
1.2017712
1.2017713
1.2017713
1.1210248
1.1295303
1.1373966
1.1447224
1.1515635
1.1579458
1.1638745
1.1693422
1.1743352
1.1788399
1.1828478
1.1863596
1.189387
1.1919535
1.1940926
1.195846
1.1972596
1.1983814
1.1992579
1.1999326
1.2004446
1.2008274
1.2011097
1.2013148
1.2014615
1.2015648
1.2016363
1.2016848
1.201717
1.2017378
1.201751
1.2017591
1.2017639
1.2017666
1.2017682
1.201769
1.2017694
1.2017696
1.2017697
1.2017698
1.1209313
1.1294235
1.1372777
1.1445929
1.1514252
1.1578007
1.1637252
1.1691915
1.1741862
1.1786957
1.1827111
1.1862328
1.1892718
1.1918509
1.1940031
1.1957692
1.1971949
1.1983277
1.1992139
1.1998971
1.2004161
1.2008049
1.201092
1.201301
1.2014508
1.2015565
1.2016298
1.2016797
1.201713
1.2017346
1.2017484
1.2017568
1.2017619
1.2017648
1.2017665
1.2017674
1.2017679
1.2017681
1.2017682
1.2017682
1.1208395
1.1293188
1.1371612
1.144466
1.1512894
1.1576582
1.1635786
1.1690435
1.1740399
1.1785539
1.1825766
1.1861078
1.1891581
1.1917496
1.1939146
1.1956932
1.1971308
1.1982744
1.1991703
1.1998618
1.2003878
1.2007825
1.2010743
1.2012871
1.20144
1.2015482
1.2016233
1.2016747
1.201709
1.2017314
1.2017457
1.2017546
1.2017599
1.2017631
1.2017648
1.2017658
1.2017663
1.2017665
1.2017667
1.2017667
1.1207495
1.1292161
1.1370469
1.1443414
1.1511562
1.1575185
1.1634347
1.1688982
1.173896
1.1784144
1.1824442
1.1859847
1.1890461
1.1916497
1.1938271
1.1956181
1.1970673
1.1982216
1.199127
1.1998267
1.2003597
1.2007601
1.2010567
1.2012733
1.2014293
1.2015398
1.2016168
1.2016696
1.2017049
1.2017282
1.201743
1.2017523
1.2017579
1.2017612
1.2017631
1.2017642
1.2017647
1.201765
1.2017651
1.2017651
1.1206611
1.1291153
1.1369348
1.1442192
1.1510255
1.1573813
1.1632933
1.1687554
1.1737546
1.1782771
1.1823138
1.1858634
1.1889356
1.1915509
1.1937406
1.1955437
1.1970044
1.1981692
1.1990839
1.1997918
1.2003317
1.2007378
1.2010391
1.2012595
1.2014185
1.2015314
1.2016103
1.2016644
1.2017009
1.2017249
1.2017403
1.20175
1.2017559
1.2017594
1.2017614
1.2017625
1.2017631
1.2017634
1.2017636
1.2017636
1.1205744
1.1290164
1.1368247
1.1440992
1.1508972
1.1572465
1.1631545
1.168615
1.1736155
1.1781421
1.1821854
1.1857439
1.1888265
1.1914535
1.1936552
1.1954701
1.1969421
1.1981173
1.1990412
1.1997571
1.2003038
1.2007156
1.2010216
1.2012458
1.2014077
1.2015229
1.2016037
1.2016592
1.2016967
1.2017216
1.2017376
1.2017477
1.2017539
1.2017576
1.2017597
1.2017609
1.2017615
1.2017619
1.201762
1.201762
1.1204893
1.1289192
1.1367166
1.1439813
1.1507711
1.1571142
1.163018
1.168477
1.1734786
1.1780092
1.1820589
1.185626
1.1887189
1.1913572
1.1935707
1.1953973
1.1968804
1.1980658
1.1989988
1.1997226
1.2002761
1.2006935
1.2010041
1.201232
1.2013969
1.2015145
1.201597
1.201654
1.2016926
1.2017182
1.2017348
1.2017453
1.2017518
1.2017557
1.201758
1.2017592
1.2017599
1.2017603
1.2017604
1.2017605
1.1204056
1.1288238
1.1366104
1.1438656
1.1506473
1.1569841
1.1628839
1.1683413
1.173344
1.1778783
1.1819343
1.1855097
1.1886127
1.1912621
1.1934871
1.1953252
1.1968192
1.1980147
1.1989567
1.1996883
1.2002485
1.2006715
1.2009866
1.2012182
1.2013861
1.201506
1.2015904
1.2016487
1.2016884
1.2017148
1.201732
1.201743
1.2017497
1.2017538
1.2017562
1.2017576
1.2017583
1.2017587
1.2017589
1.2017589
1.1203234
1.1287301
1.1365061
1.1437518
1.1505256
1.1568563
1.162752
1.1682079
1.1732115
1.1777494
1.1818114
1.1853951
1.1885078
1.1911681
1.1934044
1.1952538
1.1967586
1.197964
1.1989149
1.1996542
1.200221
1.2006495
1.2009692
1.2012045
1.2013753
1.2014975
1.2015837
1.2016435
1.2016842
1.2017114
1.2017292
1.2017406
1.2017477
1.2017519
1.2017545
1.2017559
1.2017567
1.2017571
1.2017573
1.2017574
1.1202427
1.1286379
1.1364036
1.1436401
1.150406
1.1567306
1.1626223
1.1680765
1.1730811
1.1776225
1.1816904
1.185282
1.1884043
1.1910752
1.1933227
1.1951831
1.1966985
1.1979137
1.1988734
1.1996204
1.2001936
1.2006276
1.2009518
1.2011907
1.2013644
1.201489
1.201577
1.2016381
1.2016799
1.2017079
1.2017263
1.2017381
1.2017455
1.20175
1.2017527
1.2017543
1.2017551
1.2017555
1.2017557
1.2017558
1.1201633
1.1285474
1.1363028
1.1435302
1.1502884
1.156607
1.1624948
1.1679473
1.1729527
1.1774974
1.181571
1.1851704
1.1883021
1.1909834
1.1932418
1.1951132
1.196639
1.1978638
1.1988321
1.1995867
1.2001664
1.2006058
1.2009344
1.201177
1.2013536
1.2014804
1.2015702
1.2016328
1.2016756
1.2017045
1.2017235
1.2017357
1.2017434
1.2017481
1.2017509
1.2017526
1.2017535
1.2017539
1.2017541
1.2017542
1.1200852
1.1284583
1.1362037
1.1434221
1.1501728
1.1564854
1.1623692
1.1678201
1.1728262
1.1773741
1.1814533
1.1850603
1.1882011
1.1908926
1.1931618
1.1950438
1.19658
1.1978143
1.1987912
1.1995532
1.2001393
1.2005841
1.2009171
1.2011633
1.2013428
1.2014719
1.2015635
1.2016274
1.2016713
1.201701
1.2017206
1.2017332
1.2017412
1.2017462
1.2017491
1.2017509
1.2017518
1.2017523
1.2017526
1.2017526
1.1200084
1.1283708
1.1361062
1.1433159
1.150059
1.1563658
1.1622457
1.1676948
1.1727016
1.1772527
1.1813372
1.1849516
1.1881014
1.1908029
1.1930826
1.1949752
1.1965214
1.1977651
1.1987505
1.1995199
1.2001124
1.2005625
1.2008999
1.2011496
1.2013319
1.2014633
1.2015567
1.201622
1.201667
1.2016974
1.2017176
1.2017307
1.2017391
1.2017442
1.2017473
1.2017492
1.2017502
1.2017507
1.201751
1.201751
1.1199328
1.1282846
1.1360103
1.1432113
1.1499471
1.156248
1.1621241
1.1675715
1.1725789
1.1771329
1.1812227
1.1848442
1.1880028
1.1907142
1.1930042
1.1949072
1.1964634
1.1977164
1.1987101
1.1994868
1.2000855
1.2005409
1.2008827
1.2011359
1.2013211
1.2014547
1.2015498
1.2016166
1.2016626
1.2016939
1.2017146
1.2017282
1.2017369
1.2017422
1.2017455
1.2017474
1.2017485
1.2017491
1.2017494
1.2017494
1.1198585
1.1281998
1.135916
1.1431084
1.1498369
1.1561321
1.1620043
1.16745
1.1724579
1.1770148
1.1811097
1.1847383
1.1879054
1.1906264
1.1929266
1.1948398
1.1964059
1.197668
1.1986699
1.1994539
1.2000588
1.2005194
1.2008655
1.2011222
1.2013102
1.2014461
1.201543
1.2016111
1.2016582
1.2016903
1.2017117
1.2017257
1.2017346
1.2017403
1.2017437
1.2017457
1.2017469
1.2017475
1.2017477
1.2017478
1.1197853
1.1281163
1.1358231
1.1430071
1.1497285
1.156018
1.1618864
1.1673303
1.1723387
1.1768983
1.1809982
1.1846336
1.1878092
1.1905397
1.1928498
1.1947731
1.1963488
1.1976199
1.19863
1.1994212
1.2000322
1.200498
1.2008483
1.2011086
1.2012994
1.2014375
1.2015361
1.2016056
1.2016538
1.2016866
1.2017086
1.2017231
1.2017324
1.2017382
1.2017418
1.201744
1.2017452
1.2017458
1.2017461
1.2017462
1.1197132
1.1280342
1.1357317
1.1429074
1.1496217
1.1559057
1.1617702
1.1672123
1.1722212
1.1767835
1.1808881
1.1845303
1.1877141
1.1904538
1.1927738
1.1947069
1.1962922
1.1975723
1.1985904
1.1993886
1.2000058
1.2004766
1.2008312
1.2010949
1.2012885
1.2014289
1.2015293
1.2016001
1.2016493
1.201683
1.2017056
1.2017205
1.2017301
1.2017362
1.20174
1.2017422
1.2017435
1.2017442
1.2017445
1.2017446
1.1196422
1.1279533