/*--------------------------------*- C++ -*----------------------------------*\
| =========                 |                                                 |
| \\      /  F ield         | OpenFOAM: The Open Source CFD Toolbox           |
|  \\    /   O peration     | Version:  4.0                                   |
|   \\  /    A nd           | Web:      www.OpenFOAM.org                      |
|    \\/     M anipulation  |                                                 |
\*---------------------------------------------------------------------------*/
FoamFile
{
    version     2.0;
    format      ascii;
    class       surfaceScalarField;
    location    "2000";
    object      snGradRho;
}
// * * * * * * * * * * * * * * * * * * * * * * * * * * * * * * * * * * * * * //

dimensions      [1 -4 0 0 0 0 0];

internalField   nonuniform List<scalar> 
9850
(
26.060773
-0.73337268
25.168722
-0.75322818
24.090046
-0.77317577
22.82511
-0.79210673
21.382142
-0.80866024
19.778287
-0.82126073
18.04006
-0.82819196
16.202955
-0.82771119
14.310043
-0.81820069
12.409546
-0.7983463
10.551532
-0.76732393
8.7840867
-0.72496775
7.1494863
-0.67188966
5.680912
-0.60952167
4.4002245
-0.54006112
3.317093
-0.466313
2.4295277
-0.39144136
1.725607
-0.3186595
1.1860059
-0.25090243
0.78686101
-0.19053184
0.50253985
-0.1391214
0.30799282
-0.097357719
0.18050102
-0.0650715
0.10076127
-0.041387163
0.053349077
-0.02495466
0.02666664
-0.014211309
0.012521526
-0.0076198099
0.0054940148
-0.0038417782
0.0022398777
-0.0018288817
0.0008435053
-0.00083736636
0.00029159836
-0.00038844766
9.194086e-05
-0.00020278085
2.6262702e-05
-0.00013309053
6.7482358e-06
-0.00010951071
1.5473426e-06
-0.00010236959
3.1226894e-07
-0.00010045078
5.2835635e-08
-9.9998608e-05
5.2416783e-09
-9.9907771e-05
-2.8116579e-09
-9.9894239e-05
-2.8627071e-09
-9.989435e-05
-1.9359136e-09
-9.9896193e-05
-9.8994465e-10
-9.989782e-05
-1.9988253e-10
-9.9899046e-05
3.9220456e-10
-9.9899939e-05
7.5744108e-10
-9.9900574e-05
9.4579717e-10
-9.9901028e-05
8.9507364e-10
-9.9901317e-05
7.8611492e-10
-9.990154e-05
1.8763259e-10
-9.9901656e-05
-9.9902076e-05
23.046062
-0.3695888
22.415572
-0.37973457
21.714918
-0.39041334
20.937209
-0.40139694
20.075817
-0.41235575
19.125082
-0.42284082
18.081246
-0.43227131
16.943571
-0.43993236
15.715517
-0.44498995
14.405807
-0.4465288
13.029157
-0.44361767
11.60644
-0.43540194
10.164126
-0.42121733
8.7329497
-0.40071047
7.3458743
-0.37394613
6.0355749
-0.34147714
4.8317415
-0.30435597
3.7585395
-0.26407478
2.8325522
-0.22243493
2.0614804
-0.18136125
1.4437985
-0.14268934
0.96946064
-0.1079612
0.62159834
-0.07826423
0.37896238
-0.054141167
0.21868876
-0.035585861
0.11888215
-0.022122526
0.060568719
-0.0129486
0.028764567
-0.0071073026
0.012659877
-0.0036507829
0.0051321403
-0.0017611173
0.001903984
-0.00081263842
0.00064210268
-0.00037841526
0.00019547889
-0.00019832891
5.3333799e-05
-0.00013113963
1.2926243e-05
-0.00010874634
2.7498589e-06
-0.00010212378
4.9797702e-07
-0.00010039691
6.5524671e-08
-0.00010000142
-3.2648418e-09
-9.9921376e-05
-9.6437492e-09
-9.9906419e-05
-7.3806552e-09
-9.9903332e-05
-4.7197088e-09
-9.990237e-05
-2.6706401e-09
-9.9901926e-05
-1.2037033e-09
-9.9901705e-05
-2.8001506e-10
-9.9901598e-05
3.4476487e-10
-9.9901569e-05
4.7416177e-10
-9.9901541e-05
5.8720398e-10
-9.9901559e-05
-4.6763778e-10
-9.9901559e-05
-9.9902031e-05
21.505605
-0.2199397
20.941696
-0.22598255
20.336887
-0.2324318
19.687375
-0.23924069
18.988802
-0.24632732
18.236345
-0.25356301
17.424946
-0.26075924
16.549719
-0.26765403
15.606582
-0.27390011
14.593136
-0.27905798
13.509736
-0.28259866
12.360687
-0.28392117
11.155352
-0.28238988
9.9089524
-0.2773943
8.6427514
-0.26842961
7.3833917
-0.25518987
6.161249
-0.23765874
5.0078702
-0.21617732
3.952795
-0.19146813
3.0202735
-0.16459952
2.2264919
-0.13688679
1.577881
-0.10974145
1.0708665
-0.084494172
0.69310238
-0.062225909
0.42588887
-0.043641405
0.247226
-0.029010584
0.13485553
-0.018187837
0.068724458
-0.010700724
0.032518686
-0.0058829483
0.014193201
-0.0030167171
0.0056749067
-0.0014504604
0.0020637727
-0.00066976175
0.00067765035
-0.00031736588
0.00019941791
-0.00017438214
5.219926e-05
-0.00012262153
1.2059043e-05
-0.00010602831
2.436081e-06
-0.00010135221
4.2207973e-07
-0.00010020227
5.7303955e-08
-9.995733e-05
1.7211445e-09
-9.9912537e-05
-4.1636929e-09
-9.9905612e-05
-3.3680813e-09
-9.990473e-05
-2.0578936e-09
-9.9904618e-05
-9.3701168e-10
-9.9904559e-05
-2.1324172e-10
-9.9904483e-05
4.0395791e-10
-9.9904407e-05
4.4056262e-10
-9.9904323e-05
5.8606052e-10
-9.9904259e-05
-1.2038699e-09
-9.9904271e-05
-9.9904617e-05
20.588103
-0.14827826
20.051576
-0.15234709
19.482626
-0.15670212
18.879157
-0.16132769
18.238659
-0.16619216
17.558167
-0.17124231
16.834289
-0.1763963
16.063315
-0.18153557
15.241462
-0.18649584
14.365297
-0.19105843
13.432376
-0.19494347
12.442111
-0.19780779
11.39682
-0.19925112
10.302853
-0.19883453
9.1715733
-0.19611477
8.0199219
-0.19069553
6.8702575
-0.18229277
5.7492262
-0.1708053
4.6856091
-0.15637647
3.7073552
-0.13942948
2.8382863
-0.12066084
2.0951377
-0.10098398
1.4855909
-0.081427007
1.0077367
-0.063001526
0.65105655
-0.046568052
0.39863694
-0.032726309
0.23007304
-0.021753459
0.12442146
-0.013602566
0.062640385
-0.0079592123
0.029156051
-0.0043397291
0.012454726
-0.0022039056
0.0048457195
-0.0010528514
0.0017037467
-0.00049066423
0.00053708163
-0.00024379152
0.0001506002
-0.00014709824
3.7266911e-05
-0.00011358559
8.0713366e-06
-0.00010338636
1.5132012e-06
-0.00010068032
2.38693e-07
-0.00010005819
2.721152e-08
-9.9934472e-05
-1.2116488e-09
-9.9912828e-05
-3.0277879e-09
-9.9909105e-05
-1.8942789e-09
-9.9908172e-05
-7.4637942e-10
-9.9907692e-05
-3.8798898e-11
-9.9907351e-05
5.7800082e-10
-9.9907074e-05
5.6123445e-10
-9.9906871e-05
5.6644386e-10
-9.9906686e-05
-1.7448237e-09
-9.9906663e-05
-9.9906883e-05
19.970323
-0.11167505
19.450498
-0.11473667
18.90229
-0.11802005
18.324372
-0.12152045
17.715097
-0.12522386
17.07245
-0.1291034
16.394022
-0.13311477
15.677041
-0.13719075
14.91848
-0.14123484
14.115298
-0.14511445
13.264827
-0.14865438
12.365364
-0.15163215
11.416957
-0.15377704
10.422357
-0.15477575
9.3880285
-0.15428775
8.325014
-0.15197271
7.2494091
-0.14753109
6.1821382
-0.14075505
5.1478211
-0.13158293
4.1726861
-0.12014593
3.2817582
-0.10679325
2.4958135
-0.092084058
1.8287472
-0.076740618
1.2859543
-0.061566787
0.86408035
-0.047345457
0.55214783
-0.034734934
0.33373219
-0.024185377
0.18966274
-0.015892577
0.10067813
-0.0097985364
0.049560118
-0.0056378017
0.022450821
-0.0030169946
0.0092838386
-0.0015057301
0.003475383
-0.00071447229
0.0011678666
-0.00034149675
0.00034933661
-0.00018456856
9.2248804e-05
-0.0001261319
2.1332156e-05
-0.00010703172
4.2846512e-06
-0.00010159499
7.3967261e-07
-0.00010025682
1.0688604e-07
-9.9973368e-05
1.1246736e-08
-9.9921421e-05
-1.8728074e-10
-9.991265e-05
-5.6833279e-10
-9.991079e-05
1.1100059e-10
-9.9909949e-05
5.9493898e-10
-9.9909357e-05
9.9902478e-10
-9.9908856e-05
9.1109054e-10
-9.9908507e-05
6.0588047e-10
-9.9908182e-05
-2.0884895e-09
-9.9908104e-05
-9.9908246e-05
19.50547
-0.088333256
18.997329
-0.09075232
18.463121
-0.093348147
17.902004
-0.096119397
17.312895
-0.099058733
16.694415
-0.10215044
16.044845
-0.10536739
15.362113
-0.10866724
14.643847
-0.11198794
13.887507
-0.11524258
13.090642
-0.11831406
12.251312
-0.12105032
11.368682
-0.12326136
10.4438
-0.12471987
9.4804956
-0.12516788
8.4862829
-0.12433163
7.473057
-0.12194664
6.4573315
-0.11779274
5.4597537
-0.11173616
4.5037391
-0.1037719
3.61327
-0.094056542
2.8101641
-0.082920905
2.1113448
-0.070854365
1.5267204
-0.058459127
1.0581557
-0.046380143
0.69973683
-0.035223109
0.43919605
-0.025476195
0.2601143
-0.017450672
0.14440398
-0.011252141
0.074597358
-0.0067884697
0.03557509
-0.0038128325
0.015530328
-0.0019912083
0.0061519728
-0.00097599428
0.0021915979
-0.00046555718
0.00069587714
-0.00023614346
0.00019521384
-0.00014481088
4.79746e-05
-0.00011288788
1.0245818e-05
-0.00010317438
1.8874986e-06
-0.00010062143
2.9811187e-07
-0.00010004563
4.059722e-08
-9.9934424e-05
5.4720289e-09
-9.9915639e-05
1.7581312e-09
-9.9912421e-05
1.598215e-09
-9.9911442e-05
1.7403352e-09
-9.9910851e-05
1.7240088e-09
-9.9910317e-05
1.5246245e-09
-9.990995e-05
7.3981756e-10
-9.9909578e-05
-2.3107012e-09
-9.9909491e-05
-9.9909583e-05
19.138177
-0.07290342
18.639055
-0.074898128
18.115433
-0.077039683
17.566777
-0.079328466
16.99237
-0.081760593
16.391247
-0.084326175
15.762155
-0.087007076
15.103518
-0.089774089
14.413454
-0.092583519
13.68986
-0.095373215
12.930585
-0.098058272
12.133744
-0.10052687
11.298183
-0.10263704
10.424115
-0.10421563
9.5138971
-0.10506112
8.5728784
-0.10495224
7.6101592
-0.10366415
6.6390486
-0.10099303
5.6769709
-0.096787913
4.744612
-0.090985841
3.8642421
-0.083643564
3.0573788
-0.074957151
2.3421938
-0.065261651
1.7312167
-0.055006651
1.229862
-0.044709426
0.8360968
-0.034893216
0.5412608
-0.026021821
0.33177384
-0.018442435
0.19131344
-0.012346912
0.10302438
-0.0077587785
0.051394615
-0.0045492781
0.023544814
-0.002479858
0.0098150302
-0.0012610543
0.0036881934
-0.00061163247
0.0012374967
-0.00030163048
0.00036730405
-0.00017035031
9.5575092e-05
-0.00012149722
2.1618501e-05
-0.00010566679
4.2192218e-06
-0.00010123761
7.0747069e-07
-0.00010017556
1.0345599e-07
-9.9958403e-05
1.5263133e-08
-9.992031e-05
4.4633199e-09
-9.9914191e-05
3.0856899e-09
-9.9912869e-05
2.9600819e-09
-9.9912278e-05
2.4865997e-09
-9.9911754e-05
2.2257623e-09
-9.9911411e-05
8.9001717e-10
-9.9911042e-05
-2.4542841e-09
-9.9910968e-05
-9.9911025e-05
18.835315
-0.061755732
18.343479
-0.063443973
17.828276
-0.065256945
17.289397
-0.067195752
16.726389
-0.069258311
16.138597
-0.071438038
15.525113
-0.07372213
14.884738
-0.076089402
14.215975
-0.078507612
13.517079
-0.080930311
12.786184
-0.083293326
12.021539
-0.085511172
11.22188
-0.087473947
10.386965
-0.08904559
9.5182461
-0.090064775
8.6196471
-0.090349983
7.6983211
-0.089710359
6.7652157
-0.087963434
5.8352165
-0.084959522
4.9266491
-0.080610526
4.0600141
-0.074918391
3.2560165
-0.067996433
2.5331831
-0.060076504
1.905548
-0.051497121
1.380933
-0.042672054
0.9602082
-0.034043972
0.63765179
-0.026031388
0.40224254
-0.018978309
0.2395309
-0.013114898
0.13368556
-0.0085354799
0.069366072
-0.0051981305
0.033166513
-0.0029472072
0.014475486
-0.0015551889
0.0057105117
-0.00077375401
0.0020160131
-0.00037967303
0.00063066074
-0.00020299172
0.00017315133
-0.00013328437
4.1349248e-05
-0.00010931729
8.5200203e-06
-0.00010220115
1.506863e-06
-0.00010039146
2.3092689e-07
-9.9999861e-05
3.3878451e-08
-9.992781e-05
8.1174083e-09
-9.9916222e-05
4.5735368e-09
-9.9914182e-05
4.1556765e-09
-9.9913531e-05
3.2006984e-09
-9.9913009e-05
2.9213374e-09
-9.9912677e-05
1.0180337e-09
-9.9912316e-05
-2.5435615e-09
-9.9912249e-05
-9.9912285e-05
18.578986
-0.053436439
18.093254
-0.054896112
17.585029
-0.056463932
17.054166
-0.058141375
16.500411
-0.059927435
15.923342
-0.061817575
15.322316
-0.06380237
14.696423
-0.065865773
14.044474
-0.067982968
13.365021
-0.070117792
12.656451
-0.072219822
11.917171
-0.074221297
11.145913
-0.076034279
10.342183
-0.077548703
9.5068543
-0.078632284
8.642871
-0.079133531
7.7559796
-0.078889252
6.8553428
-0.077737678
5.9538309
-0.07553748
5.0677742
-0.072191424
4.2160193
-0.067671286
3.418277
-0.062038754
2.6929656
-0.055456179
2.0549557
-0.048182204
1.5137188
-0.040550606
1.0723048
-0.03293499
0.72734946
-0.025705644
0.47002784
-0.01918629
0.28765676
-0.013617677
0.16556811
-0.0091331555
0.088913757
-0.005749822
0.044155635
-0.0033776082
0.020083308
-0.0018462859
0.0082813248
-0.00094558961
0.003063767
-0.00046812088
0.0010064383
-0.00024251047
0.00029060083
-0.00014851715
7.304964e-05
-0.00011434825
1.5848397e-05
-0.00010361523
2.9483987e-06
-0.0001007278
4.7203242e-07
-0.00010006756
6.9130234e-08
-9.993977e-05
1.3757755e-08
-9.9918637e-05
6.2097443e-09
-9.9915282e-05
5.3498166e-09
-9.9914516e-05
3.8904434e-09
-9.9914011e-05
3.6017902e-09
-9.99137e-05
1.1329385e-09
-9.9913362e-05
-2.5995533e-09
-9.9913305e-05
-9.9913332e-05
18.35736
-0.046974877
17.876865
-0.048257107
17.374572
-0.049634505
16.850469
-0.05110871
16.304455
-0.052679368
15.736294
-0.054343279
15.14555
-0.056093294
14.53155
-0.057916895
13.893352
-0.059794423
13.229757
-0.06169694
12.539375
-0.063583763
11.820768
-0.065399805
11.072711
-0.067073009
10.294571
-0.068512372
9.4868335
-0.069607321
8.6517404
-0.070229451
7.793988
-0.070237828
6.9213559
-0.069488925
6.0450912
-0.067851717
5.1798421
-0.065227261
4.3429638
-0.061570421
3.5531383
-0.056909527
2.8284362
-0.051358739
2.1841582
-0.045118333
1.6309228
-0.038460513
1.1734438
-0.031702136
0.81025948
-0.025169168
0.53440507
-0.019159475
0.33478534
-0.013910105
0.19788996
-0.0095733485
0.10951477
-0.0062042937
0.056244474
-0.0037618992
0.026546989
-0.0021248775
0.011396123
-0.0011210912
0.0044016797
-0.0005643523
0.0015131365
-0.0002882773
0.00045804387
-0.00016728541
0.00012086215
-0.00012093915
2.7541114e-05
-0.00010558335
5.3788816e-06
-0.00010122435
8.9965227e-07
-0.00010017306
1.3341837e-07
-9.9958935e-05
2.3034138e-08
-9.9922062e-05
8.1350445e-09
-9.9916379e-05
6.5046166e-09
-9.9915364e-05
4.5363394e-09
-9.9914873e-05
4.2398387e-09
-9.9914588e-05
1.2310727e-09
-9.9914285e-05
-2.641755e-09
-9.9914242e-05
-9.9914268e-05
18.162676
-0.041832793
17.686758
-0.042973882
17.189615
-0.044199776
16.671338
-0.045512181
16.131953
-0.046911156
15.571371
-0.048394419
14.989327
-0.049956413
14.38534
-0.051587132
13.758675
-0.053270621
13.108342
-0.054983174
12.433145
-0.056691219
11.731798
-0.058349001
11.003137
-0.059896276
10.24646
-0.061256396
9.4619844
-0.0623354
8.6514362
-0.063022948
7.8187061
-0.063196117
6.9704775
-0.062727069
6.1166705
-0.061495205
5.2705061
-0.059403556
4.4480098
-0.056397707
3.6668608
-0.052483984
2.9446575
-0.047742381
2.2968746
-0.042329767
1.7349339
-0.036470635
1.2648405
-0.03043577
0.88668787
-0.02451256
0.59509162
-0.018972683
0.38036103
-0.01404278
0.2300754
-0.0098820177
0.13072524
-0.0065686311
0.069167745
-0.0040967059
0.033750475
-0.0023845492
0.015028046
-0.0012951035
0.0060388571
-0.00066563853
0.0021653782
-0.00033937601
0.00068516144
-0.0001895077
0.00018926783
-0.00012921279
4.5192967e-05
-0.00010820137
9.2488952e-06
-0.00010192362
1.6161842e-06
-0.00010032996
2.4558571e-07
-9.998869e-05
3.8748884e-08
-9.9927223e-05
1.0687277e-08
-9.9917658e-05
7.6266387e-09
-9.9916163e-05
5.1278393e-09
-9.9915657e-05
4.8118349e-09
-9.9915391e-05
1.3042794e-09
-9.9915124e-05
-2.681439e-09
-9.9915094e-05
-9.991512e-05
17.989421
-0.037647335
17.517561
-0.03867359
17.024957
-0.039776189
16.511787
-0.040956842
15.97818
-0.042215885
15.424167
-0.043551676
14.849628
-0.044959821
14.254241
-0.046432164
13.637445
-0.047955513
12.998431
-0.049510088
12.336173
-0.051067691
11.649524
-0.052589668
10.937394
-0.054024828
10.19905
-0.055307631
9.4345223
-0.056357127
8.6451487
-0.057077361
7.8341873
-0.057360118
7.0074374
-0.057090924
6.1737181
-0.056158978
5.3450301
-0.054470987
4.5362163
-0.05196773
3.7640049
-0.048640728
3.0454621
-0.044545182
2.3960693
-0.039805059
1.8278102
-0.034607375
1.3477066
-0.029185418
0.95714136
-0.023793681
0.6520849
-0.018679465
0.42408717
-0.014056413
0.26172903
-0.010083742
0.15219218
-0.0068529174
0.08268416
-0.0043824292
0.041568681
-0.0026214724
0.019134401
-0.0014635498
0.007973656
-0.00076938824
0.0029732866
-0.00039472084
0.00098063374
-0.00021495492
0.00028286766
-0.0001392294
7.0614866e-05
-0.00011155161
1.5115456e-05
-0.00010286888
2.758179e-06
-0.00010055363
4.3256578e-07
-0.00010003311
6.5200714e-08
-9.9934949e-05
1.4444552e-08
-9.9919242e-05
8.781777e-09
-9.9916923e-05
5.6804409e-09
-9.9916359e-05
5.3170242e-09
-9.9916103e-05
1.3552777e-09
-9.9915868e-05
-2.7223472e-09
-9.9915848e-05
-9.9915876e-05
17.833602
-0.034180184
17.365381
-0.03511135
16.876829
-0.036111836
16.368195
-0.037183329
15.839695
-0.038326342
15.291462
-0.039539705
14.723497
-0.040819887
14.135612
-0.042160135
13.527398
-0.043549367
12.898201
-0.044970825
12.247145
-0.046400472
11.573211
-0.047805182
10.875388
-0.049140865
10.152936
-0.050350758
9.4057547
-0.051364298
8.6348822
-0.052097174
7.8430723
-0.052453314
7.0353988
-0.052329644
6.2197564
-0.051624293
5.4070934
-0.050248378
4.6111994
-0.048140564
3.8479129
-0.045282306
3.1337422
-0.041710483
2.4840657
-0.037523653
1.9112539
-0.032878983
1.4231373
-0.027979018
1.0221815
-0.023050322
0.70553075
-0.018318299
0.46583663
-0.013983092
0.29259392
-0.010200299
0.17364663
-0.0070682155
0.096585821
-0.0046218465
0.049878298
-0.0028338728
0.02366281
-0.001623441
0.010195505
-0.00087330276
0.0039423667
-0.00045315998
0.0013517229
-0.0002432821
0.00040616427
-0.00015098651
0.00010577577
-0.00011569819
2.3638335e-05
-0.00010410217
4.5000112e-06
-0.00010086093
7.3116923e-07
-0.00010009711
1.0863314e-07
-9.9946339e-05
2.0273664e-08
-9.9921331e-05
1.0071003e-08
-9.991768e-05
6.2124403e-09
-9.9916989e-05
5.7607734e-09
-9.9916733e-05
1.389556e-09
-9.9916528e-05
-2.765727e-09
-9.9916516e-05
-9.9916546e-05
17.692221
-0.031264237
17.227295
-0.032115461
16.742397
-0.033030087
16.237836
-0.03400976
15.713902
-0.035055116
15.170817
-0.036165329
14.608682
-0.037337531
14.027428
-0.038566056
13.426774
-0.039841471
12.806204
-0.041149398
12.164977
-0.042469088
11.502188
-0.043771814
10.816906
-0.045019159
10.108401
-0.046161429
9.3764821
-0.047136498
8.6219513
-0.047869619
7.8471541
-0.048274857
7.0565616
-0.0482589
6.2572831
-0.047727902
5.4593525
-0.046597609
4.675618
-0.044806222
3.9210911
-0.04232831
3.2117178
-0.03918698
2.5626996
-0.035460873
1.9866641
-0.031283048
1.4920901
-0.026830586
1.0823611
-0.022306287
0.75564891
-0.017916177
0.50559063
-0.013847366
0.32251551
-0.010250031
0.19489162
-0.0072252842
0.11070076
-0.004819032
0.058564738
-0.0030214926
0.028556386
-0.001772779
0.012687032
-0.00097546146
0.0050737741
-0.00051356146
0.001804013
-0.00027406483
0.00056336367
-0.00016442399
0.00015273405
-0.00012068397
3.5569952e-05
-0.00010566216
7.0560208e-06
-0.0001012696
1.1898081e-06
-0.00010018637
1.7778832e-07
-9.9962781e-05
2.9451251e-08
-9.9924201e-05
1.1649682e-08
-9.9918495e-05
6.7442244e-09
-9.9917575e-05
6.1488129e-09
-9.9917306e-05
1.4098333e-09
-9.9917125e-05
-2.811971e-09
-9.991712e-05
-9.991715e-05
17.562978
-0.028780472
17.101059
-0.029563625
16.619484
-0.030405132
16.118615
-0.031306592
15.598804
-0.032268715
15.060348
-0.033290941
14.503437
-0.034370916
13.928107
-0.03550383
13.334187
-0.036681569
12.721283
-0.037891656
12.088774
-0.039115993
11.435862
-0.040329409
10.761693
-0.041498103
10.065558
-0.04257816
9.3471998
-0.043514404
8.6072376
-0.044240043
7.8476807
-0.044677694
7.0724933
-0.044742448
6.2881107
-0.04434764
5.5037663
-0.043413604
4.7314645
-0.041879083
3.9854495
-0.039713954
3.2811129
-0.036930843
2.6334299
-0.033592549
2.0551873
-0.029812416
1.5553854
-0.025746214
1.1381924
-0.021576411
0.80268733
-0.017491957
0.54339561
-0.013667817
0.35141169
-0.010247994
0.21578823
-0.0073339595
0.12489122
-0.0049786187
0.0675259
-0.0031851173
0.033757739
-0.0019104002
0.015426187
-0.0010743467
0.0063648498
-0.00057487504
0.0023413026
-0.00030683443
0.00075821291
-0.00017943272
0.00021356519
-0.00012652947
5.1739787e-05
-0.00010758239
1.0680871e-05
-0.00010179758
1.8699722e-06
-0.00010030724
2.8447266e-07
-9.9985926e-05
4.3796523e-08
-9.992819e-05
1.3750945e-08
-9.9919429e-05
7.303837e-09
-9.9918135e-05
6.4899757e-09
-9.9917833e-05
1.4192859e-09
-9.9917672e-05
-2.859832e-09
-9.9917671e-05
-9.9917702e-05
17.44407
-0.026641338
16.984915
-0.027365883
16.506385
-0.028144431
16.008887
-0.028978526
15.492827
-0.029868932
14.95857
-0.030815288
14.406384
-0.031815647
13.836392
-0.03286589
13.248526
-0.033958966
12.642498
-0.035083949
12.017795
-0.036224907
11.373718
-0.037359587
10.709487
-0.038457999
10.02442
-0.039481018
9.3182163
-0.040379267
8.5913472
-0.041092653
7.8455435
-0.041551068
7.0843389
-0.041676889
6.3135856
-0.041389858
5.5418117
-0.040614716
4.7802616
-0.039291374
4.0424688
-0.037386546
3.3432853
-0.034904794
2.6974273
-0.031896169
2.117766
-0.028457704
1.6137212
-0.024727166
1.1901365
-0.020869505
0.84689718
-0.017058613
0.5793351
-0.013458321
0.37925021
-0.010206279
0.23624271
-0.0074028637
0.1390498
-0.0051053023
0.076673672
-0.0033261833
0.039211789
-0.0020357993
0.018388149
-0.0011688265
0.0078098002
-0.00063617074
0.0029656284
-0.0003411085
0.00099388179
-0.00019586522
0.00029029179
-0.00013323317
7.3034707e-05
-0.00010988992
1.5668099e-05
-0.00010246241
2.8473868e-06
-0.00010046655
4.4412796e-07
-0.0001000177
6.5819554e-08
-9.9933709e-05
1.6709302e-08
-9.9920555e-05
7.9297765e-09
-9.9918681e-05
6.7946322e-09
-9.9918322e-05
1.4206327e-09
-9.9918174e-05
-2.9071848e-09
-9.9918176e-05
-9.9918205e-05
17.33406
-0.024781244
16.87746
-0.02545484
16.401737
-0.026178652
15.907337
-0.026954171
15.394716
-0.027782191
14.864295
-0.028662507
14.316412
-0.029593499
13.75127
-0.030571611
13.16889
-0.031590661
12.569079
-0.032641006
11.951422
-0.033708506
11.315312
-0.03477334
10.660038
-0.035808694
9.9849517
-0.036779466
9.2897222
-0.037641175
8.5747028
-0.038339418
7.8413907
-0.038810343
7.0929507
-0.038982672
6.3347267
-0.038781877
5.5746214
-0.038136866
4.8231921
-0.036989078
4.093314
-0.035303162
3.3993179
-0.033077426
2.7556403
-0.030351547
2.1751788
-0.027208933
1.6676901
-0.023772001
1.2386016
-0.020190494
0.88851919
-0.016624988
0.61351135
-0.01322917
0.40603195
-0.010134479
0.25619541
-0.0074393602
0.15309484
-0.0052035493
0.085933874
-0.0034464858
0.044867543
-0.0021489615
0.021546899
-0.0012581124
0.0094004184
-0.00069665728
0.003677386
-0.00037641509
0.0012728897
-0.00021354652
0.00038482075
-0.00014077319
0.00010037674
-0.0001126045
2.2346956e-05
-0.00010328057
4.2127625e-06
-0.00010067153
6.7638724e-07
-0.00010006031
9.8886975e-08
-9.9941265e-05
2.0992098e-08
-9.9921965e-05
8.6753936e-09
-9.9919231e-05
7.0744109e-09
-9.9918778e-05
1.4163892e-09
-9.9918637e-05
-2.9528745e-09
-9.9918641e-05
-9.9918668e-05
17.231786
-0.02315006
16.77756
-0.023778989
16.304439
-0.024454812
15.812903
-0.025178964
15.303451
-0.025952259
14.776558
-0.026774612
14.23262
-0.027644671
13.671913
-0.02855934
13.094537
-0.029513166
12.500386
-0.03049757
11.889134
-0.031499919
11.260258
-0.032502434
10.613115
-0.033480988
9.947089
-0.034403887
9.2618329
-0.03523082
8.5576042
-0.035912272
7.8357029
-0.036389797
7.0989752
-0.036597686
6.3523188
-0.036466545
5.6030785
-0.035929176
4.8611888
-0.034928765
4.138914
-0.033428679
3.4500847
-0.03142234
2.8088445
-0.028940916
2.228073
-0.026056324
1.7177956
-0.022877792
1.283946
-0.019541771
0.92777732
-0.016197006
0.64603397
-0.012987964
0.4317791
-0.01004015
0.27561186
-0.0074496354
0.16696577
-0.0052774491
0.095245317
-0.0035479733
0.050679055
-0.0022502209
0.024876435
-0.0013417083
0.011126776
-0.00075568727
0.0044755154
-0.00041231087
0.0015970741
-0.00023228487
0.00049889047
-0.00014910984
0.00013469982
-0.00011573805
3.1077721e-05
-0.00010426698
6.0720783e-06
-0.00010092959
1.0055787e-06
-0.00010011621
1.4740335e-07
-9.9951457e-05
2.7239025e-08
-9.9923774e-05
9.6153175e-09
-9.9919807e-05
7.3416108e-09
-9.9919211e-05
1.4087153e-09
-9.9919068e-05
-2.9950531e-09
-9.9919074e-05
-9.9919098e-05
17.136294
-0.021708882
16.684284
-0.022298357
16.213585
-0.022931788
15.72471
-0.023610559
15.218196
-0.024335491
14.694563
-0.025106595
14.154263
-0.025922739
13.597635
-0.026781211
13.024852
-0.027677166
12.435886
-0.028602928
11.830492
-0.029547137
11.208225
-0.030493751
10.568505
-0.031420931
9.9107542
-0.032299903
9.2346144
-0.033093943
8.5402659
-0.03375776
7.8288413
-0.034237627
7.1029099
-0.034472744
6.366975
-0.034398324
5.6278816
-0.033950799
4.8949974
-0.033075203
4.1800191
-0.03173419
3.4962988
-0.029917353
2.8576804
-0.027648819
2.2769905
-0.024990742
1.7644668
-0.022040931
1.3264832
-0.018924151
0.96487618
-0.015778577
0.67701304
-0.012740298
0.45652695
-0.0099292202
0.29447577
-0.007438835
0.18061891
-0.0053306564
0.1045584
-0.0036326146
0.056605796
-0.0023401467
0.028351652
-0.0014193565
0.012977846
-0.00081275168
0.005357724
-0.00044839319
0.001967595
-0.00025188113
0.00063403024
-0.00015818864
0.00017692692
-0.00011929471
4.2245791e-05
-0.00010543452
8.5463734e-06
-0.00010124813
1.4611551e-06
-0.00010018806
2.1699201e-07
-9.9964985e-05
3.6304978e-08
-9.9926124e-05
1.0852375e-08
-9.9920433e-05
7.6115781e-09
-9.9919627e-05
1.3997963e-09
-9.9919473e-05
-3.0327968e-09
-9.9919478e-05
-9.9919498e-05
17.046793
-0.020427037
16.596858
-0.020981428
16.128424
-0.021577161
15.642032
-0.02221557
15.138253
-0.022897477
14.617648
-0.023622969
14.08072
-0.024391096
13.527864
-0.025199469
12.959318
-0.02604376
12.375127
-0.026917061
11.77512
-0.027809099
11.158923
-0.028705321
10.526019
-0.029585858
9.8758648
-0.030424453
9.2081002
-0.031187494
8.5228427
-0.03183337
7.8210811
-0.032312494
7.1051427
-0.032568418
6.3791808
-0.032540506
5.6495903
-0.032168558
4.9252208
-0.031399494
4.2172418
-0.030195669
3.538548
-0.028543675
2.9026815
-0.02646177
2.3223879
-0.02400376
1.8080707
-0.021257492
1.3664871
-0.018337394
1.0000009
-0.015372159
0.70655512
-0.012490241
0.48031824
-0.0098063039
0.31278382
-0.007411192
0.1940239
-0.0053663714
0.11383355
-0.003702304
0.062612631
-0.0024194492
0.031948934
-0.001490986
0.014942026
-0.00086746815
0.0063207217
-0.00048430705
0.0023849683
-0.00027213671
0.00079153202
-0.00016794365
0.00022794883
-0.00012327112
5.6254922e-05
-0.00010679369
1.1771057e-05
-0.00010163433
2.0780237e-06
-0.00010027872
3.1467945e-07
-9.9982645e-05
4.9308798e-08
-9.9929182e-05
1.2527338e-08
-9.992114e-05
7.9026216e-09
-9.9920032e-05
1.3916905e-09
-9.9919854e-05
-3.0650429e-09
-9.9919857e-05
-9.9919874e-05
16.962618
-0.019280056
16.514635
-0.01980306
16.048328
-0.020365068
15.564262
-0.020967363
15.06304
-0.021610765
14.54526
-0.022295422
14.011469
-0.023020534
13.462116
-0.023783988
12.897498
-0.024581897
12.317725
-0.02540801
11.722695
-0.026252994
11.112102
-0.027103584
10.485484
-0.027941615
9.8423374
-0.028743022
9.1823026
-0.029476905
8.5054463
-0.030104885
7.8126342
-0.030581028
7.1059802
-0.030852766
6.3893253
-0.030863212
5.6686577
-0.030555287
4.9523523
-0.029877795
4.2510872
-0.028793094
3.5773214
-0.027285413
2.9442954
-0.025368101
2.3646529
-0.023087772
1.8489231
-0.020523544
1.4041975
-0.017780645
1.033318
-0.014979226
0.73476106
-0.012240753
0.50319935
-0.0096750017
0.33054165
-0.0073701835
0.20716068
-0.0053873688
0.12303972
-0.0037588153
0.068669522
-0.002488916
0.035646514
-0.0015566676
0.017007567
-0.00091956569
0.007360452
-0.00051974787
0.0028491186
-0.00029285982
0.00097243434
-0.00017830072
0.00028860528
-0.00012765706
7.3519951e-05
-0.00010835242
1.589477e-05
-0.00010209502
2.8967626e-06
-0.00010039117
4.4907177e-07
-0.00010000533
6.7686453e-08
-9.9933148e-05
1.4828825e-08
-9.9921962e-05
8.2380541e-09
-9.9920433e-05
1.3867355e-09
-9.9920216e-05
-3.0911447e-09
-9.9920215e-05
-9.9920228e-05
16.883209
-0.018248176
16.437067
-0.01874295
15.972763
-0.019274623
15.490883
-0.019844431
14.99206
-0.020453187
14.476925
-0.021101089
13.946066
-0.021787463
13.39998
-0.022510434
12.839018
-0.023266491
12.263351
-0.024049955
11.67294
-0.024852308
11.067541
-0.025661403
10.446747
-0.026460565
9.8100912
-0.027227646
9.1572198
-0.027934134
8.4881582
-0.028544494
7.8036653
-0.029016043
7.1056668
-0.02929968
6.3977236
-0.029341914
5.6854548
-0.029088564
4.9767989
-0.028490276
4.281976
-0.027509643
3.6130294
-0.026129041
2.9829012
-0.024357685
2.4041162
-0.022235961
1.8872964
-0.019835294
1.4398246
-0.017252685
1.0649767
-0.014600549
0.76172497
-0.011993952
0.52521787
-0.0095381039
0.347761
-0.0073186452
0.2200171
-0.0053960289
0.13215292
-0.0038037717
0.074751106
-0.0025493602
0.039424649
-0.0016165746
0.0191629
-0.00096886838
0.0084723058
-0.00055446124
0.0033594466
-0.00031387008
0.0011775169
-0.00018918054
0.00035966922
-0.0001324362
9.4459378e-05
-0.0001101159
2.1077851e-05
-0.00010263649
3.9637116e-06
-0.00010052844
6.3051721e-07
-0.00010003402
9.3247214e-08
-9.9938253e-05
1.8004955e-08
-9.9922944e-05
8.6478129e-09
-9.9920838e-05
1.3882093e-09
-9.9920562e-05
-3.1105247e-09
-9.9920555e-05
-9.9920563e-05
16.808087
-0.017315277
16.363686
-0.017784533
15.901273
-0.018288784
15.421455
-0.018829224
14.92489
-0.019406655
14.41224
-0.020021314
13.884132
-0.020672636
13.341103
-0.021358945
12.783558
-0.022077065
12.211721
-0.02282181
11.625612
-0.023585373
11.025047
-0.024356588
10.409669
-0.02512009
9.7790488
-0.025855421
9.1328408
-0.026536173
8.471037
-0.027129343
7.7943037
-0.02759514
7.1043996
-0.027887582
6.4046335
-0.02795627
5.7002881
-0.027749702
4.9989002
-0.027220322
4.3102613
-0.026331117
3.6460192
-0.025063019
3.0188219
-0.023421738
2.4410624
-0.021442248
1.9234273
-0.019189161
1.4735532
-0.016752094
1.0951109
-0.014236428
0.78753388
-0.01175134
0.54642092
-0.0093977737
0.36445757
-0.0072588895
0.23258698
-0.0053943836
0.14115497
-0.0038386401
0.080836194
-0.0026015889
0.043265671
-0.0016709518
0.021396881
-0.0010152791
0.009651311
-0.00058824062
0.0039149028
-0.00033500177
0.0014073043
-0.00020050142
0.00044183433
-0.00013758706
0.0001194881
-0.00011208665
2.7490482e-05
-0.00010326436
5.3309321e-06
-0.00010069362
8.7124913e-07
-0.00010006978
1.2823195e-07
-9.9944764e-05
2.2377891e-08
-9.9924135e-05
9.1705564e-09
-9.9921257e-05
1.3997709e-09
-9.9920894e-05
-3.1228595e-09
-9.9920878e-05
-9.9920881e-05
16.736838
-0.016468077
16.29409
-0.016914164
15.833468
-0.017393517
15.3556
-0.017907288
14.861167
-0.018456269
14.350859
-0.019040727
13.825337
-0.019660188
13.285181
-0.020313155
12.730838
-0.020996736
12.162586
-0.021706182
11.5805
-0.02243431
10.984449
-0.02317082
10.374126
-0.023901503
9.7491371
-0.024607394
9.1091483
-0.02526396
8.4541245
-0.025840453
7.7846514
-0.026299679
7.1023388
-0.026598472
6.4102674
-0.026689245
5.713413
-0.026522986
5.0189408
-0.026053873
4.3362416
-0.025245403
3.6765864
-0.024077389
3.0523345
-0.022552575
2.4757373
-0.020701199
1.9575221
-0.018581811
1.5055462
-0.016277366
1.1238403
-0.013886834
0.8122679
-0.011513954
0.56685423
-0.0092556842
0.38064949
-0.0071928018
0.24486861
-0.0053841612
0.15003244