/*--------------------------------*- C++ -*----------------------------------*\
| =========                 |                                                 |
| \\      /  F ield         | OpenFOAM: The Open Source CFD Toolbox           |
|  \\    /   O peration     | Version:  4.0                                   |
|   \\  /    A nd           | Web:      www.OpenFOAM.org                      |
|    \\/     M anipulation  |                                                 |
\*---------------------------------------------------------------------------*/
FoamFile
{
    version     2.0;
    format      ascii;
    class       volScalarField;
    location    "2000";
    object      T;
}
// * * * * * * * * * * * * * * * * * * * * * * * * * * * * * * * * * * * * * //

dimensions      [0 0 0 1 0 0 0];

internalField   nonuniform List<scalar> 
5000
(
305.39065
304.71179
303.99385
303.24156
302.46138
301.66157
300.85204
300.04411
299.25008
298.48265
297.7542
297.07604
296.45768
295.9062
295.42582
295.01773
294.68017
294.40875
294.19702
294.03714
293.92057
293.83872
293.78356
293.74801
293.72619
293.71348
293.70649
293.70288
293.70113
293.70035
293.70003
293.69991
293.69986
293.69985
293.69985
293.69985
293.69985
293.69985
293.69985
293.69985
293.69985
293.69985
293.69985
293.69985
293.69985
293.69985
293.69985
293.69985
293.69985
293.69985
308.32506
307.713
307.06078
306.36875
305.63813
304.87122
304.07162
303.24445
302.39645
301.53607
300.67341
299.81998
298.98836
298.19154
297.4423
296.75235
296.13148
295.58685
295.12239
294.73844
294.43176
294.19591
294.02194
293.89936
293.81721
293.76508
293.73391
293.71645
293.70733
293.70291
293.70094
293.70014
293.69984
293.69974
293.69971
293.6997
293.6997
293.6997
293.6997
293.6997
293.6997
293.6997
293.6997
293.6997
293.6997
293.6997
293.6997
293.6997
293.6997
293.6997
309.82509
309.2483
308.63279
307.97793
307.2836
306.55029
305.77934
304.97315
304.13535
303.27107
302.38715
301.49224
300.59684
299.71312
298.85459
298.03544
297.26971
296.57024
295.94759
295.40907
294.95792
294.59308
294.30928
294.09775
293.94732
293.84573
293.78089
293.742
293.7202
293.70885
293.70341
293.70101
293.70005
293.69971
293.6996
293.69956
293.69955
293.69955
293.69955
293.69955
293.69955
293.69955
293.69955
293.69955
293.69955
293.69955
293.69955
293.69955
293.69955
293.69955
310.72448
310.16904
309.57613
308.94489
308.27481
307.56586
306.81859
306.03436
305.21545
304.36534
303.4889
302.59261
301.68474
300.77541
299.87653
299.00146
298.1645
297.38005
296.66155
296.02032
295.46445
294.99791
294.62015
294.32616
294.10717
293.95172
293.84711
293.78073
293.74126
293.7194
293.70821
293.70295
293.7007
293.69983
293.69953
293.69944
293.69941
293.69941
293.69941
293.69941
293.69941
293.69941
293.69941
293.69941
293.69941
293.69941
293.69941
293.69941
293.69941
293.69941
311.33361
310.79269
310.21521
309.6002
308.94701
308.25536
307.52546
306.75816
305.95511
305.11893
304.25344
303.36383
302.45695
301.54136
300.62745
299.7273
298.85438
298.02292
297.24712
296.54001
295.91231
295.37138
294.92035
294.5578
294.27796
294.07145
293.92645
293.83013
293.76994
293.7348
293.71578
293.7063
293.70199
293.70022
293.69956
293.69934
293.69928
293.69926
293.69926
293.69926
293.69926
293.69926
293.69926
293.69926
293.69926
293.69926
293.69926
293.69926
293.69926
293.69926
311.79381
311.2639
310.69814
310.09552
309.45531
308.7771
308.06091
307.30731
306.51753
305.69368
304.83891
303.95757
303.05551
302.14017
301.22075
300.30817
299.41494
298.5547
297.74156
296.98921
296.30978
295.71272
295.2038
294.7845
294.45181
294.19866
294.01477
293.88794
293.80537
293.75497
293.72633
293.71131
293.7041
293.70095
293.69972
293.69929
293.69916
293.69912
293.69912
293.69911
293.69911
293.69911
293.69911
293.69911
293.69911
293.69911
293.69911
293.69911
293.69911
293.69911
312.15868
311.63751
311.08107
310.48832
309.85848
309.19107
308.48597
307.74356
306.96484
306.15156
305.30639
304.43313
303.5369
302.62433
301.7037
300.78498
299.8798
299.0011
298.16264
297.37823
296.66067
296.02071
295.46596
295.00005
294.62231
294.32778
294.10789
293.95151
293.84615
293.77935
293.7398
293.7181
293.70716
293.70215
293.70008
293.69931
293.69906
293.69899
293.69897
293.69897
293.69897
293.69897
293.69897
293.69897
293.69897
293.69897
293.69897
293.69897
293.69897
293.69897
312.46036
311.94644
311.39771
310.81316
310.19195
309.53354
308.83775
308.10481
307.33554
306.53143
305.69483
304.8291
303.93883
303.03
302.11018
301.18857
300.27602
299.38482
298.52829
297.72009
296.97336
296.29963
295.70779
295.20314
294.78683
294.45579
294.20308
294.01874
293.89095
293.80731
293.75597
293.72668
293.71127
293.70388
293.70067
293.69942
293.69899
293.69887
293.69883
293.69882
293.69882
293.69882
293.69882
293.69882
293.69882
293.69882
293.69882
293.69882
293.69882
293.69882
312.71629
312.20851
311.66635
311.08876
310.4749
309.82419
309.13636
308.41158
307.65051
306.85444
306.02548
305.16666
304.28214
303.37741
302.45944
301.5368
300.61969
299.71978
298.84992
298.02356
297.25393
296.55306
295.93072
295.39348
294.94401
294.58079
294.29836
294.08797
293.93859
293.83811
293.77453
293.73698
293.71646
293.7062
293.70155
293.69966
293.69897
293.69875
293.69869
293.69868
293.69868
293.69868
293.69868
293.69868
293.69868
293.69868
293.69868
293.69868
293.69868
293.69868
312.938
312.43557
311.8991
311.32755
310.72008
310.07606
309.39519
308.67755
307.9237
307.13478
306.31269
305.46019
304.58111
303.68054
302.76496
301.8424
300.92249
300.01636
299.13641
298.29582
297.50777
296.78461
296.13677
295.57177
295.0935
294.7018
294.39251
294.15801
293.9881
293.87112
293.79511
293.74885
293.72272
293.70916
293.70275
293.70003
293.699
293.69866
293.69856
293.69854
293.69853
293.69853
293.69853
293.69853
293.69853
293.69853
293.69853
293.69853
293.69853
293.69853
313.1331
312.63537
312.10391
311.5377
310.93586
310.29775
309.62304
308.91174
308.16432
307.38181
306.56593
305.71923
304.84528
303.9488
303.03587
302.11407
301.19254
300.28191
299.39417
298.54218
297.73906
296.9973
296.32781
295.73888
295.2354
294.81836
294.48474
294.22797
294.03869
293.90575
293.81736
293.76213
293.73
293.71276
293.70431
293.70058
293.6991
293.69859
293.69844
293.69839
293.69839
293.69838
293.69838
293.69838
293.69838
293.69838
293.69838
293.69838
293.69838
293.69838
313.30699
312.81345
312.28647
311.72501
311.1282
310.49539
309.82619
309.12058
308.37895
307.60223
306.79202
305.95067
305.08151
304.18899
303.27884
302.35823
301.43587
300.52198
299.62812
298.76686
297.95119
297.19368
296.50558
295.8958
295.37006
294.93032
294.5746
294.29728
294.08979
293.94152
293.84095
293.77665
293.73823
293.71699
293.70624
293.70131
293.69929
293.69855
293.69832
293.69826
293.69824
293.69824
293.69824
293.69824
293.69824
293.69824
293.69824
293.69824
293.69824
293.69824
313.46359
312.97383
312.45088
311.89372
311.30145
310.67341
310.00919
309.30873
308.57236
307.80094
306.99591
306.15951
305.29485
304.40613
303.49879
302.57965
301.65703
300.74076
299.84204
298.97314
298.14688
297.37587
296.67161
296.04349
295.49793
295.03775
294.66187
294.36555
294.14096
293.97805
293.86559
293.79221
293.74733
293.72185
293.70855
293.70224
293.69956
293.69855
293.69822
293.69812
293.6981
293.69809
293.69809
293.69809
293.69809
293.69809
293.69809
293.69809
293.69809
293.69809
313.60586
313.11953
312.60025
312.04699
311.45885
310.83515
310.17548
309.47972
308.74817
307.98159
307.18136
306.34954
305.48911
304.60403
303.69948
302.78198
301.85951
300.94154
300.03892
299.16364
298.32835
297.54565
296.8272
296.18281
295.61949
295.14078
294.74644
294.43252
294.19187
294.01501
293.89102
293.80866
293.75722
293.72729
293.71124
293.70339
293.69994
293.69859
293.69813
293.69799
293.69795
293.69795
293.69794
293.69794
293.69794
293.69794
293.69794
293.69794
293.69794
293.69794
313.73605
313.25287
312.73695
312.18726
311.6029
310.9832
310.32769
309.63626
308.90914
308.14704
307.35124
306.52371
305.66725
304.78565
303.88385
302.9681
302.04606
301.12689
300.22112
299.34048
298.49742
297.70449
296.97351
296.31457
295.73522
295.23964
294.82832
294.49803
294.24231
294.05216
293.91703
293.82583
293.76779
293.73328
293.7143
293.70476
293.70043
293.69868
293.69806
293.69786
293.69781
293.6978
293.6978
293.6978
293.6978
293.6978
293.6978
293.6978
293.6978
293.6978
313.85596
313.37567
312.86285
312.31645
311.73559
311.11956
310.4679
309.78046
309.05745
308.2995
307.50784
306.68431
305.8316
304.95332
304.05421
303.14026
302.21888
301.29891
300.39059
299.50539
298.65558
297.85365
297.11149
296.43947
295.84557
295.33454
294.90754
294.56201
294.2921
294.08931
293.94345
293.84358
293.77896
293.73977
293.71773
293.70636
293.70105
293.69883
293.69801
293.69775
293.69767
293.69766
293.69765
293.69765
293.69765
293.69765
293.69765
293.69765
293.69765
293.69765
313.96699
313.48939
312.97944
312.43609
311.85846
311.24584
310.59776
309.91403
309.19483
308.44077
307.65296
306.8332
305.98403
305.10892
304.21242
303.30032
302.37974
301.45928
300.54889
299.6598
298.80409
297.99417
297.24199
296.55814
295.95095
295.42572
294.98419
294.62442
294.34114
294.12632
293.97013
293.86181
293.79065
293.74672
293.7215
293.70818
293.70178
293.69903
293.69798
293.69764
293.69754
293.69751
293.69751
293.69751
293.69751
293.69751
293.69751
293.69751
293.69751
293.69751
314.07031
313.59521
313.08793
312.54742
311.9728
311.36336
310.71861
310.03835
309.32271
308.57227
307.78809
306.97188
306.12606
305.25399
304.36003
303.44977
302.53012
301.6094
300.69733
299.8049
298.94401
298.12696
297.36574
296.67112
296.05176
295.51342
295.05837
294.68526
294.38935
294.16308
293.99694
293.88039
293.80278
293.75409
293.7256
293.71022
293.70265
293.6993
293.69799
293.69754
293.6974
293.69737
293.69736
293.69736
293.69736
293.69736
293.69736
293.69736
293.69736
293.69736
314.16685
313.69408
313.1893
312.65145
312.07965
311.47318
310.83155
310.15453
309.44224
308.69521
307.91444
307.10157
306.25895
305.38977
304.49827
303.58986
302.67122
301.75044
300.83702
299.9417
299.07622
298.25277
297.48336
296.7789
296.14834
295.59784
295.13018
294.74454
294.43668
294.1995
294.0238
293.89926
293.81528
293.76183
293.73001
293.71248
293.70365
293.69964
293.69802
293.69745
293.69727
293.69723
293.69722
293.69721
293.69721
293.69721
293.69721
293.69721
293.69721
293.69721
314.2574
313.78683
313.28439
312.74904
312.17988
311.5762
310.9375
310.26353
309.55439
308.81056
308.03302
307.22332
306.38372
305.51733
304.62822
303.72163
302.80406
301.88339
300.96887
300.07106
299.20149
298.37229
297.59542
296.88193
296.24102
295.67921
295.19974
294.8023
294.48312
294.23551
294.05062
293.91831
293.8281
293.7699
293.7347
293.71495
293.70478
293.70005
293.69809
293.69737
293.69715
293.69708
293.69707
293.69707
293.69707
293.69707
293.69707
293.69707
293.69707
293.69707
314.34262
313.87411
313.37388
312.84088
312.27421
311.67316
311.03722
310.36612
309.65995
308.91916
308.14468
307.33799
306.50128
305.63754
304.75075
303.84596
302.92951
302.00907
301.09368
300.1937
299.32049
298.48607
297.70238
296.98057
296.33006
295.7577
295.26716
294.85858
294.52865
294.27109
294.07735
293.93751
293.84117
293.77827
293.73966
293.71761
293.70605
293.70054
293.69819
293.69731
293.69703
293.69695
293.69693
293.69692
293.69692
293.69692
293.69692
293.69692
293.69692
293.69692
314.42306
313.95651
313.45836
312.92757
312.36326
311.7647
311.13136
310.46299
309.75963
309.02172
308.25013
307.4463
306.61235
305.75118
304.86662
303.96361
303.04831
302.12819
301.21213
300.31025
299.43379
298.59462
297.80468
297.07518
296.41574
295.83351
295.33255
294.91343
294.57328
294.30619
294.10393
293.95678
293.85445
293.78688
293.74485
293.72047
293.70744
293.7011
293.69833
293.69727
293.69691
293.69681
293.69678
293.69678
293.69678
293.69678
293.69678
293.69678
293.69678
293.69678
314.49921
314.0345
313.53833
313.00964
312.44756
311.85135
311.22049
310.5547
309.85401
309.11882
308.34999
307.5489
306.71759
305.85887
304.97648
304.07522
303.16108
302.24139
301.3248
300.42127
299.54188
298.69838
297.90269
297.16606
296.49829
295.9068
295.39601
294.9669
294.617
294.3408
294.13032
293.97609
293.8679
293.79572
293.75027
293.72351
293.70896
293.70174
293.69852
293.69724
293.6968
293.69667
293.69664
293.69663
293.69663
293.69663
293.69663
293.69663
293.69663
293.69663
314.57147
314.10852
313.61421
313.08753
312.52756
311.93359
311.30507
310.64173
309.94359
309.211
308.4448
307.64631
306.81753
305.96117
305.08089
304.18134
303.26839
302.34918
301.4322
300.52724
299.6452
298.79775
297.99674
297.25348
296.57791
295.97771
295.45763
295.01904
294.65985
294.37489
294.15651
293.99539
293.88148
293.80476
293.75588
293.72672
293.7106
293.70245
293.69874
293.69723
293.6967
293.69654
293.69649
293.69648
293.69648
293.69648
293.69648
293.69648
293.69648
293.69648
314.6402
314.17892
313.6864
313.16161
312.60366
312.01181
311.38553
310.72453
310.0288
309.2987
308.535
307.73902
306.91266
306.05858
305.18033
304.28247
303.3707
302.45203
301.53478
300.62856
299.74414
298.89306
298.08712
297.33769
296.65481
296.0464
295.51753
295.0699
294.70183
294.40847
294.18245
294.01466
293.89516
293.81395
293.76168
293.73009
293.71237
293.70325
293.699
293.69725
293.69661
293.69641
293.69635
293.69634
293.69634
293.69634
293.69634
293.69634
293.69634
293.69634
314.70571
314.24602
313.7552
313.23222
312.67619
312.08637
311.46223
310.80345
310.11004
309.3823
308.62101
307.82742
307.00339
306.15151
305.27524
304.37902
303.46845
302.55036
301.63294
300.72562
299.83904
298.98462
298.17411
297.4189
296.72915
296.11299
295.57577
295.11955
294.74297
294.44154
294.20813
294.03387
293.9089
293.82329
293.76764
293.73361
293.71425
293.70412
293.69931
293.69728
293.69652
293.69628
293.69621
293.69619
293.69619
293.69619
293.69619
293.69619
293.69619
293.69619
314.76827
314.3101
313.8209
313.29965
312.74546
312.15758
311.53548
310.87883
310.18763
309.46216
308.70318
307.91188
307.09009
306.24033
305.36598
304.47138
303.56199
302.64453
301.72701
300.81875
299.9302
299.0727
298.25794
297.49731
296.80109
296.1776
295.63245
295.16802
294.78329
294.47409
294.23355
294.05299
293.92269
293.83275
293.77374
293.73727
293.71624
293.70506
293.69967
293.69733
293.69645
293.69615
293.69607
293.69605
293.69605
293.69604
293.69604
293.69604
293.69604
293.69604
314.82812
314.3714
313.88375
313.36416
312.81172
312.2257
311.60555
310.95095
310.26186
309.53858
308.7818
307.99272
307.17309
306.32538
305.45289
304.55986
303.65166
302.73486
301.81732
300.90822
300.01789
299.15755
298.33882
297.57311
296.87079
296.24035
295.68764
295.21536
294.82282
294.50612
294.25869
294.07201
293.9365
293.8423
293.77998
293.74106
293.71833
293.70608
293.70007
293.69741
293.69638
293.69603
293.69593
293.6959
293.6959
293.6959
293.6959
293.6959
293.6959
293.6959
314.88547
314.43014
313.94399
313.42598
312.87523
312.29099
311.67271
311.02007
310.33301
309.61182
308.85717
308.07021
307.25266
306.40694
305.53625
304.64477
303.73775
302.82162
301.90414
300.99432
300.10236
299.23938
298.41695
297.64646
296.93837
296.30132
295.74142
295.26163
294.86157
294.53765
294.28354
294.09092
293.95032
293.85194
293.78633
293.74496
293.72053
293.70718
293.70051
293.69752
293.69633
293.69591
293.69579
293.69576
293.69575
293.69575
293.69575
293.69575
293.69575
293.69575
314.9405
314.48652
314.00179
313.48531
312.93617
312.35364
311.73717
311.08641
310.40131
309.68213
308.92952
308.14461
307.32907
306.48527
305.61634
304.72638
303.82051
302.90509
301.98771
301.07727
300.18383
299.3184
298.4925
297.71751
297.00395
296.36063
295.79385
295.30686
294.89958
294.56868
294.30811
294.1097
293.96413
293.86164
293.79278
293.74897
293.72282
293.70834
293.701
293.69765
293.69628
293.6958
293.69565
293.69562
293.69561
293.69561
293.69561
293.69561
293.69561
293.69561
314.9934
314.5407
314.05735
313.54233
312.99475
312.41386
311.79912
311.15017
310.46695
309.7497
308.99907
308.21613
307.40254
306.5606
305.69338
304.8049
303.90019
302.98548
302.06826
301.15728
300.26248
299.39479
298.56563
297.78639
297.06765
296.41835
295.84499
295.3511
294.93686
294.59923
294.33238
294.12835
293.97792
293.87139
293.79932
293.75309
293.7252
293.70957
293.70153
293.6978
293.69625
293.69569
293.69552
293.69547
293.69546
293.69546
293.69546
293.69546
293.69546
293.69546
315.0443
314.59284
314.11081
313.59721
313.05112
312.47182
311.85874
311.21154
310.53013
309.81475
309.06602
308.28499
307.47328
306.63314
305.76759
304.88056
303.97699
303.06301
302.14598
301.23454
300.33851
299.4687
298.63649
297.85324
297.12957
296.47456
295.89492
295.39439
294.97344
294.6293
294.35636
294.14685
293.99167
293.88118
293.80595
293.75729
293.72767
293.71087
293.70211
293.69798
293.69623
293.69559
293.69539
293.69533
293.69532
293.69531
293.69531
293.69531
293.69531
293.69531
315.09335
314.64308
314.16233
313.65008
313.10544
312.52767
311.91619
311.27067
310.59101
309.87744
309.13055
308.35137
307.54148
306.70309
305.83916
304.95354
304.05111
303.13787
302.22107
301.30924
300.41208
299.5403
298.70521
297.91815
297.18981
296.52935
295.94367
295.43676
295.00934
294.65889
294.38004
294.1652
294.00538
293.891
293.81264
293.76158
293.73022
293.71223
293.70274
293.69818
293.69623
293.69549
293.69525
293.69519
293.69517
293.69517
293.69517
293.69517
293.69517
293.69517
315.14067
314.69155
314.21203
313.70109
313.15785
312.58154
311.97162
311.32772
310.64975
309.93792
309.19281
308.41542
307.60729
306.7706
305.90825
305.02402
304.1227
303.21021
302.29368
301.38152
300.48333
299.60971
298.7719
297.98125
297.24844
296.58278
295.99132
295.47826
295.04459
294.68803
294.40344
294.1834
294.01903
293.90083
293.81939
293.76595
293.73284
293.71366
293.7034
293.69841
293.69624
293.6954
293.69512
293.69504
293.69503
293.69502
293.69502
293.69502
293.69502
293.69502
315.18636
314.73836
314.26003
313.75036
313.20845
312.63358
312.02515
311.38282
310.70649
309.99634
309.25295
308.47729
307.67088
306.83584
305.97503
305.09216
304.19194
303.2802
302.36396
301.45153
300.55239
299.67706
298.83669
298.04262
297.30556
296.63491
296.03789
295.51892
295.0792
294.71673
294.42655
294.20144
294.03263
293.91068
293.82619
293.77039
293.73553
293.71514
293.70411
293.69867
293.69626
293.69532
293.695
293.6949
293.69488
293.69488
293.69488
293.69488
293.69488
293.69488
315.23054
314.78361
314.30643
313.79798
313.25738
312.68388
312.0769
311.4361
310.76134
310.05283
309.3111
308.53712
307.73237
306.89894
306.03963
305.15809
304.25896
303.34797
302.43206
301.51941
300.6194
299.74246
298.89968
298.10235
297.36124
296.68581
296.08345
295.55876
295.11321
294.74499
294.44938
294.21932
294.04616
293.92052
293.83303
293.77489
293.73829
293.71669
293.70487
293.69896
293.6963
293.69524
293.69487
293.69476
293.69474
293.69473
293.69473
293.69473
293.69473
293.69473
315.27328
314.8274
314.35133
313.84407
313.30473
312.73256
312.12699
311.48765
310.81443
310.10749
309.36738
308.59503
307.7919
306.96003
306.10219
305.22196
304.3239
303.41367
302.49809
301.58527
300.68447
299.80602
298.96095
298.16053
297.41554
296.73553
296.12803
295.59783
295.14662
294.77282
294.47193
294.23703
294.05962
293.93037
293.83991
293.77944
293.74111
293.71828
293.70566
293.69927
293.69635
293.69517
293.69475
293.69462
293.69459
293.69458
293.69458
293.69458
293.69458
293.69458
315.31469
314.86981
314.39482
313.88871
313.35059
312.77971
312.1755
311.53759
310.86585
310.16045
309.4219
308.65114
307.84958
307.01923
306.16282
305.28387
304.38687
303.47739
302.56218
301.64922
300.74769
299.86783
299.02061
298.21724
297.46853
296.78413
296.17167
295.63615
295.17946
294.80024
294.4942
294.25459
294.073
293.9402
293.84682
293.78405
293.74399
293.71993
293.70649
293.69961
293.69642
293.6951
293.69463
293.69449
293.69445
293.69444
293.69444
293.69444
293.69444
293.69444
315.35482
314.91092
314.43698
313.93198
313.39504
312.82542
312.22253
311.586
310.9157
310.21179
309.47477
308.70554
307.90551
307.07665
306.22163
305.34393
304.44798
303.53926
302.62443
301.71137
300.80918
299.92799
299.07872
298.27254
297.52028
296.83165
296.21441
295.67375
295.21174
294.82726
294.5162
294.27197
294.08631
293.95001
293.85376
293.78871
293.74692
293.72163
293.70736
293.69997
293.6965
293.69505
293.69452
293.69435
293.6943
293.69429
293.69429
293.69429
293.69429
293.69429
315.39376
314.95081
314.47788
313.97397
313.43818
312.86977
312.26816
311.63297
310.96407
310.26161
309.52607
308.75834
307.95979
307.13238
306.27872
305.40226
304.50733
303.59937
302.68493
301.77181
300.86901
299.98658
299.13536
298.3265
297.57084
296.87814
296.2563
295.71065
295.24349
294.85389
294.53793
294.2892
294.09953
293.9598
293.86071
293.79341
293.7499
293.72337
293.70827
293.70036
293.69659
293.695
293.6944
293.69421
293.69416
293.69415
293.69414
293.69414
293.69414
293.69414
315.43157
314.98954
314.5176
314.01473
313.48006
312.91283
312.31246
311.67858
311.01104
310.30999
309.57588
308.80961
308.01251
307.18651
306.33419
305.45893
304.56502
303.65781
302.74378
301.83063
300.92727
300.04367
299.1906
298.37918
297.62026
296.92364
296.29735
295.74689
295.27472
294.88013
294.5594
294.30626
294.11267
293.96957
293.86768
293.79814
293.75293
293.72516
293.70922
293.70077
293.69671
293.69496
293.69429
293.69408
293.69402
293.694
293.694
293.694
293.694
293.694
315.46831
315.02718
314.55619
314.05434
313.52075
312.95467
312.35552
311.7229
311.05669
310.357
309.6243
308.85944
308.06376
307.23914
306.38812
305.51404
304.62113
303.71467
302.80106
301.88791
300.98404
300.09934
299.24452
298.43065
297.66858
296.9682
296.33761
295.78247
295.30544
294.90601
294.58061
294.32317
294.12572
293.9793
293.87466
293.80291
293.756
293.72699
293.7102
293.70121
293.69684
293.69492
293.69419
293.69394
293.69387
293.69386
293.69385
293.69385
293.69385
293.69385
315.50403
315.06377
314.59372
314.09286
313.56033
312.99536
312.39738
311.766
311.10107
310.40272
309.67138
308.90791
308.1136
307.29033
306.44058
305.56766
304.67575
303.77003
302.85684
301.94372
301.03939
300.15366
299.29716
298.48095
297.71587
297.01185
296.3771
295.81744
295.33568
294.93152
294.60157
294.33991
294.13869
293.98901
293.88165
293.80771
293.75911
293.72886
293.71121
293.70168
293.69698
293.6949
293.69409
293.69381
293.69373
293.69371
293.69371
293.69371
293.69371
293.69371
315.53879
315.09938
314.63023
314.13034
313.59883
313.03495
312.43812
311.80794
311.14427
310.4472
309.7172
308.95507
308.16212
307.34015
306.49166
305.61988
304.72893
303.82396
302.91121
301.99814
301.09338
300.20668
299.34859
298.53013
297.76215
297.05462
296.41586
295.8518
295.36545
294.95668
294.62229
294.35649
294.15157
293.99868
293.88863
293.81253
293.76226
293.73077
293.71226
293.70217
293.69714
293.69488
293.69399
293.69368
293.69359
293.69357
293.69356
293.69356
293.69356
293.69356
315.57263
315.13405
314.66578
314.16683
313.63632
313.0735
312.47778
311.84878
311.18632
310.49053
309.76182
309.00101
308.20936
307.38868
306.54142
305.67075
304.78077
303.87653
302.96423
302.05123
301.14609
300.25846
299.39886
298.57825
297.80748
297.09656
296.45391
295.88558
295.39476
294.98149
294.64276
294.37291
294.16435
294.00831
293.89562
293.81738
293.76544
293.73272
293.71334
293.70268
293.69731
293.69487
293.69389
293.69355
293.69345
293.69342
293.69342
293.69341
293.69341
293.69341
315.6056
315.16782
314.70041
314.20238
313.67285
313.11106
312.51643
311.88856
311.2273
310.53273
309.80529
309.04577
308.2554
307.43598
306.58991
305.72034
304.8313
303.9278
303.01595
302.10304
301.19755
300.30906
299.44801
298.62534
297.85188
297.13769
296.49127
295.9188
295.42363
295.00597
294.66299
294.38918
294.17705
294.0179
293.9026
293.82224
293.76866
293.7347
293.71445
293.70322
293.6975
293.69487
293.6938
293.69342
293.69331
293.69328
293.69327
293.69327
293.69327
293.69327
315.63774
315.20074
314.73418
314.23704
313.70845
313.14767
312.5541
311.92735
311.26724
310.57388
309.84768
309.0894
308.3003
307.4821
306.63721
305.76872
304.88061
303.97784
303.06644
302.15364
301.24783
300.35853
299.4961
298.67145
297.8954
297.17805
296.52796
295.95147
295.45206
295.03013
294.68299
294.40529
294.18966
294.02746
293.90958
293.82713
293.7719
293.73671
293.71559
293.70378
293.69771
293.69488
293.69372
293.6933
293.69316
293.69313
293.69312
293.69312
293.69312
293.69312
315.66908
315.23286
314.76711
314.27084
313.74318
313.18338
312.59084
311.96518
311.30621
310.61402
309.88902
309.13197
308.34409
307.5271
306.68336
305.81593
304.92874
304.02669
303.11575
302.20308
301.29699
300.40691
299.54317
298.71661
297.93807
297.21766
296.56403
295.98362
295.48008
295.05396
294.70276
294.42125
294.20217
294.03696
293.91655
293.83202
293.77517
293.73876
293.71676
293.70436
293.69793
293.6949
293.69364
293.69317
293.69303
293.69299
293.69298
293.69298
293.69298
293.69298
315.69967
315.26419
314.79924
314.30383
313.77707
313.21823
312.6267
312.0021
311.34424
310.6532
309.92937
309.17352
308.38684
307.57103
306.72841
305.86202
304.97574
304.07441
303.16394
302.25141
301.34506
300.45426
299.58926
298.76087
297.97992
297.25654
296.59947
296.01526
295.50769
295.07749
294.72231
294.43706
294.2146
294.04643
293.9235
293.83693
293.77846
293.74083
293.71796
293.70497
293.69816
293.69493
293.69356
293.69305
293.69289
293.69284
293.69283
293.69283
293.69283
293.69283
315.72954
315.29479
314.83062
314.33604
313.81016
313.25225
312.66172
312.03815
311.38137
310.69145
309.96878
309.2141
308.42859
307.61393
306.77242
305.90706
305.02167
304.12105
303.21105
302.29867
301.39209
300.5006
299.6344
298.80426
298.02098
297.29474
296.63432
296.0464
295.53491
295.10072
294.74163
294.45273
294.22694
294.05584
293.93045
293.84185
293.78177
293.74293
293.71918
293.70559
293.69841
293.69497
293.69349
293.69293
293.69275
293.6927
293.69269
293.69268
293.69268
293.69268
315.75871
315.32468
314.86127
314.3675
313.84249
313.28549
312.69592
312.07336
311.41764
310.72882
310.00727
309.25374
308.46938
307.65586
306.81543
305.95107
305.06657
304.16665
303.25712
302.34491
301.43813
300.54599
299.67864
298.84681
298.06128
297.33226
296.6686
296.07707
295.56175
295.12365
294.76075
294.46824
294.23918
294.06522
293.93738
293.84677
293.78511
293.74506
293.72043
293.70624
293.69868
293.69501
293.69342
293.69281
293.69261
293.69255
293.69254
293.69254
293.69254
293.69254
315.78723
315.35389
314.89122
314.39825
313.87408
313.31798
312.72935
312.10778
311.45309
310.76534
310.0449
309.29249
308.50926
307.69684
306.85748
305.99411
305.11047
304.21126
303.3022
302.39017
301.48321
300.59046
299.72201
298.88855
298.10084
297.36913
296.70232
296.10727
295.58821
295.1463
294.77966
294.48361
294.25134
294.07454
293.94429
293.8517
293.78846
293.7472
293.7217
293.7069
293.69896
293.69507
293.69336
293.6927
293.69247
293.69241
293.69239
293.69239
293.69239
293.69239
315.8151
315.38245
314.92051
314.42831
313.90497
313.34974
312.76203
312.14144
311.48776
310.80105
310.08169
309.33038
308.54825
307.73692
306.89861
306.03621
305.15343
304.25492
303.34633
302.4345
301.52737
300.63404
299.76454
298.92951
298.1397
297.40537
296.73549
296.13703
295.61431
295.16867
294.79836
294.49884
294.2634
294.08382
293.95119
293.85664
293.79183
293.74938
293.72299
293.70759
293.69926
293.69513
293.6933
293.69258
293.69234
293.69227
293.69225
293.69225
293.69225
293.69225
315.84237
315.41038
314.94916
314.45772
313.93519
313.38081
312.79401
312.17436
311.52167
310.83599
310.11769
309.36745
308.5864
307.77614
306.93886
306.07741
305.19548
304.29765
303.38955
302.47791
301.57065
300.67677
299.80626
298.96972
298.17788
297.44102
296.76815
296.16635
295.64006
295.19077
294.81685
294.51394
294.27538
294.09304
293.95807
293.86158
293.79522
293.75157
293.72431
293.7083
293.69956
293.69521
293.69325
293.69247
293.6922
293.69212
293.6921
293.6921
293.6921
293.6921
315.86906
315.43772
314.97719
314.4865
313.96476
313.41122
312.8253
312.20657
311.55485
310.87018
310.15291
309.40373
308.62374
307.81453
306.97825
306.11775
305.23666
304.33951
303.43188
302.52046
301.61307
300.71868
299.84721
299.0092
298.2154
297.47607
296.8003
296.19524
295.66547
295.2126
294.83516
294.52889
294.28727
294.10222
293.96493
293.86651
293.79862
293.75378
293.72564
293.70902
293.69989
293.69529
293.6932
293.69236
293.69207
293.69198
293.69196
293.69195
293.69195
293.69195
315.89518
315.46448
315.00464
314.51467
313.9937
313.44099
312.85593
312.23811
311.58734
310.90366
310.18741
309.43926
308.66031
307.85212
307.01684
306.15726
305.27699
304.38052
303.47337
302.56216
301.65468
300.7598
299.8874
299.04799
298.25228
297.51056
296.83196
296.22373
295.69055
295.23417
294.85327
294.54371
294.29907
294.11135
293.97177
293.87145
293.80203
293.75601
293.727
293.70976
293.70022
293.69538
293.69316
293.69226
293.69193
293.69184
293.69181
293.69181
293.69181
293.69181
315.92077
315.49069
315.03152
314.54227
314.02205
313.47014
312.88593
312.26901
311.61916
310.93645
310.22119
309.47405
308.69612
307.88895
307.05464
306.19598
305.31652
304.42072
303.51405
302.60307
301.69549
300.80016
299.92687
299.0861
298.28854
297.54449
296.86315
296.25181
295.7153
295.25548
294.87119
294.55839
294.31078
294.12043
293.97858
293.87639
293.80545
293.75826
293.72837
293.71052
293.70057
293.69548
293.69312
293.69215
293.6918
293.6917
293.69167
293.69166
293.69166
293.69166
315.94583
315.51637
315.05786
314.5693
314.04983
313.4987
312.91532
312.29927
311.65034
310.96857
310.25429
309.50815
308.73122
307.92503
307.09168
306.23392
305.35527
304.46013
303.55394
302.64319
301.73555
300.83978
299.96564
299.12355
298.3242
297.5779
296.89387
296.27951
295.73973
295.27655
294.88892
294.57295
294.32241
294.12946
293.98538
293.88132
293.80888
293.76053
293.72977
293.7113
293.70094
293.69559
293.69309
293.69205
293.69167
293.69155
293.69152
293.69152
293.69151
293.69151
315.9704
315.54154
315.08367
314.5958
314.07706
313.5267
312.94413
312.32894
311.6809
311.00006
310.28673
309.54157
308.76562
307.96041
307.128
306.27112
305.39326
304.49879
303.59307
302.68256
301.77486
300.87869
300.00373
299.16037
298.35929
297.61079
296.92414
296.30682
295.76386
295.29738
294.90648
294.58738
294.33396
294.13844
293.99215
293.88625
293.81232
293.76281
293.73118
293.71209
293.70131
293.69571
293.69306
293.69195
293.69154
293.69141
293.69138
293.69137