/*--------------------------------*- C++ -*----------------------------------*\
| =========                 |                                                 |
| \\      /  F ield         | OpenFOAM: The Open Source CFD Toolbox           |
|  \\    /   O peration     | Version:  3.0.1                                 |
|   \\  /    A nd           | Web:      www.OpenFOAM.org                      |
|    \\/     M anipulation  |                                                 |
\*---------------------------------------------------------------------------*/
FoamFile
{
    version     2.0;
    format      ascii;
    class       volScalarField;
    location    "2498";
    object      T;
}
// * * * * * * * * * * * * * * * * * * * * * * * * * * * * * * * * * * * * * //

dimensions      [0 0 0 1 0 0 0];

internalField   nonuniform List<scalar> 
4000
(
304.52942
301.16301
298.60939
296.79911
295.58453
294.80681
294.32888
294.04596
293.88428
293.79499
293.74733
293.72275
293.71051
293.70463
293.70192
293.70071
293.7002
293.69998
293.6999
293.69987
293.69986
293.69986
293.69986
293.69986
293.69986
293.69986
293.69986
293.69986
293.69986
293.69986
293.69986
293.69986
293.69986
293.69986
293.69986
293.69986
293.69986
293.69986
293.69986
293.69987
307.27202
304.02019
301.25571
299.01714
297.29691
296.04118
295.16783
294.58724
294.2173
293.9909
293.85769
293.7823
293.74127
293.71981
293.70904
293.70386
293.70148
293.70043
293.69999
293.69981
293.69975
293.69972
293.69971
293.69971
293.69971
293.69971
293.69971
293.69971
293.69971
293.69971
293.69971
293.69971
293.69971
293.69971
293.69971
293.69971
293.69971
293.69971
293.69972
293.69972
308.60195
305.48194
302.75073
300.4311
298.53629
297.05391
295.94433
295.14917
294.60285
294.24255
294.01426
293.87525
293.79393
293.74826
293.72367
293.71099
293.70474
293.7018
293.70048
293.69992
293.6997
293.69961
293.69958
293.69957
293.69956
293.69956
293.69956
293.69956
293.69956
293.69956
293.69956
293.69956
293.69956
293.69956
293.69956
293.69957
293.69957
293.69957
293.69957
293.69957
309.44257
306.41522
303.73353
301.40617
299.44519
297.8504
296.60228
295.66321
294.9839
294.51124
294.19477
293.9909
293.86459
293.7894
293.74647
293.72298
293.7107
293.70457
293.70166
293.70034
293.69978
293.69955
293.69946
293.69943
293.69942
293.69942
293.69942
293.69942
293.69942
293.69942
293.69942
293.69942
293.69942
293.69942
293.69942
293.69942
293.69942
293.69942
293.69943
293.69943
310.04495
307.08659
304.44911
302.1321
300.14388
298.48769
297.15355
296.11621
295.33825
294.77553
294.38296
294.11887
293.94768
293.84088
293.77684
293.74001
293.71974
293.70909
293.70375
293.70122
293.70007
293.69958
293.69939
293.69931
293.69928
293.69927
293.69927
293.69927
293.69927
293.69927
293.69927
293.69927
293.69927
293.69927
293.69927
293.69927
293.69927
293.69928
293.69928
293.69928
310.50857
307.60441
305.00466
302.70278
300.70359
299.01104
297.61999
296.51284
295.66043
295.02586
294.56914
294.25146
294.03805
293.89976
293.81345
293.76169
293.73192
293.71555
293.70697
293.70268
293.70066
293.69975
293.69936
293.69921
293.69915
293.69913
293.69913
293.69913
293.69913
293.69913
293.69913
293.69913
293.69913
293.69913
293.69913
293.69913
293.69913
293.69913
293.69913
293.69913
310.88242
308.02253
305.45512
303.16924
301.16677
299.45139
298.02062
296.86181
295.95174
295.25914
294.74847
294.38382
294.1318
293.9634
293.85478
293.78731
293.74703
293.72399
293.7114
293.70485
293.70161
293.7001
293.69943
293.69915
293.69904
293.699
293.69898
293.69898
293.69898
293.69898
293.69898
293.69898
293.69898
293.69898
293.69898
293.69898
293.69898
293.69898
293.69899
293.69899
311.19385
308.37118
305.83183
303.56154
301.55975
299.82949
298.36982
297.17145
296.21554
295.47527
294.91889
294.51317
294.22626
294.02969
293.89941
293.81605
293.76469
293.7343
293.71709
293.70779
293.70301
293.70067
293.6996
293.69913
293.69894
293.69887
293.69885
293.69884
293.69883
293.69883
293.69883
293.69883
293.69883
293.69883
293.69883
293.69884
293.69884
293.69884
293.69884
293.69884
311.45962
308.66893
306.15425
303.89872
301.89975
300.1596
298.6782
297.44865
296.45545
295.67537
295.07985
294.63807
294.31973
294.09709
293.94615
293.84715
293.78448
293.7463
293.72398
293.71151
293.70487
293.70152
293.69991
293.69919
293.69888
293.69876
293.69871
293.69869
293.69869
293.69869
293.69869
293.69869
293.69869
293.69869
293.69869
293.69869
293.69869
293.69869
293.69869
293.69869
311.69066
308.92792
306.43517
304.19348
302.19852
300.45175
298.95361
297.69892
296.67481
295.86095
295.23153
294.75789
294.4112
294.16452
293.99409
293.87993
293.80597
293.75976
293.732
293.71602
293.70724
293.70266
293.70038
293.69932
293.69885
293.69866
293.69858
293.69855
293.69854
293.69854
293.69854
293.69854
293.69854
293.69854
293.69854
293.69854
293.69854
293.69855
293.69855
293.69855
311.89449
309.15651
306.68347
304.4547
302.46441
300.71327
299.20198
297.92664
296.87645
296.03355
295.37445
294.87245
294.50011
294.23129
294.04253
293.91382
293.82877
293.77446
293.74103
293.72128
293.71012
293.70411
293.70103
293.69955
293.69887
293.69858
293.69846
293.69842
293.6984
293.6984
293.6984
293.69839
293.6984
293.6984
293.6984
293.6984
293.6984
293.6984
293.6984
293.6984
312.07648
309.36069
306.9055
304.68881
302.70352
300.9496
299.42781
298.13524
297.06278
296.1946
295.50927
294.98186
294.58618
294.29692
294.09098
293.94839
293.85254
293.79015
293.75094
293.72723
293.71349
293.70588
293.70188
293.69988
293.69894
293.69852
293.69835
293.69828
293.69826
293.69825
293.69825
293.69825
293.69825
293.69825
293.69825
293.69825
293.69825
293.69825
293.69826
293.69826
312.24058
309.54486
307.10596
304.90057
302.92046
301.16489
299.63462
298.32749
297.23577
296.34537
295.63668
295.08631
294.66932
294.36114
294.1391
293.98329
293.877
293.80665
293.76161
293.73381
293.71733
293.70798
293.70293
293.70033
293.69908
293.6985
293.69826
293.69816
293.69812
293.69811
293.6981
293.6981
293.6981
293.6981
293.6981
293.69811
293.69811
293.69811
293.69811
293.69811
312.38978
309.71236
307.28843
305.09363
303.11875
301.36238
299.8252
298.50563
297.39709
296.48699
295.75731
295.18609
294.74952
294.42379
294.18663
294.01827
293.90191
293.82377
293.77292
293.74095
293.72161
293.71039
293.70418
293.70091
293.69928
293.69852
293.69818
293.69804
293.69798
293.69797
293.69796
293.69796
293.69796
293.69796
293.69796
293.69796
293.69796
293.69796
293.69796
293.69796
312.52641
309.86578
307.45569
305.27085
303.30116
301.54463
300.00178
298.67148
297.54812
296.62042
295.87176
295.2815
294.82687
294.48479
294.23342
294.05313
293.92709
293.84136
293.78475
293.74858
293.72629
293.71311
293.70565
293.70162
293.69957
293.69857
293.69812
293.69793
293.69785
293.69782
293.69781
293.69781
293.69781
293.69781
293.69781
293.69781
293.69781
293.69782
293.69782
293.69782
312.6523
310.00717
307.60992
305.43447
303.46992
301.71368
300.16616
298.82655
297.69003
296.7465
295.98058
295.37284
294.90148
294.54413
294.27936
294.08773
293.9524
293.85928
293.797
293.75663
293.73134
293.71611
293.70731
293.70247
293.69993
293.69867
293.69809
293.69783
293.69773
293.69769
293.69767
293.69767
293.69767
293.69767
293.69767
293.69767
293.69767
293.69767
293.69767
293.69767
312.76891
310.13817
307.7529
305.58631
303.62679
301.87123
300.31984
298.97207
297.82382
296.86595
296.08426
295.46039
294.97348
294.60182
294.3244
294.12197
293.97771
293.87743
293.80959
293.76504
293.73672
293.71938
293.70918
293.70345
293.70038
293.69882
293.69808
293.69775
293.6976
293.69755
293.69753
293.69752
293.69752
293.69752
293.69752
293.69752
293.69752
293.69752
293.69752
293.69753
312.87743
310.2601
307.88605
305.72786
303.77327
302.01866
300.46406
299.10911
297.95031
296.97941
296.18322
295.54442
295.04299
294.65789
294.36849
294.15578
294.00294
293.89573
293.82245
293.77375
293.74239
293.72289
293.71123
293.70456
293.70091
293.69903
293.6981
293.69767
293.69749
293.69741
293.69739
293.69738
293.69737
293.69737
293.69737
293.69738
293.69738
293.69738
293.69738
293.69738
312.97884
310.37407
308.01056
305.86034
303.91055
302.15712
300.59985
299.23856
298.07023
297.08742
296.27787
295.62519
295.11017
294.71238
294.41164
294.1891
294.02802
293.9141
293.8355
293.78272
293.74832
293.72663
293.71347
293.7058
293.70154
293.69928
293.69815
293.69762
293.69738
293.69728
293.69725
293.69723
293.69723
293.69723
293.69723
293.69723
293.69723
293.69723
293.69723
293.69723
313.07397
310.48099
308.12742
305.98478
304.03967
302.28757
300.7281
299.36118
298.18421
297.19047
296.36854
295.70291
295.17513
294.76537
294.45384
294.22191
294.05291
293.93249
293.8487
293.79189
293.75446
293.73058
293.71587
293.70717
293.70225
293.69959
293.69824
293.69758
293.69729
293.69716
293.69711
293.69709
293.69708
293.69708
293.69708
293.69708
293.69708
293.69709
293.69709
293.69709
313.1635
310.58163
308.23746
306.10204
304.16148
302.41086
300.84957
299.47761
298.29278
297.28897
296.45555
295.7778
295.23801
294.81691
294.4951
294.25418
294.07756
293.95084
293.86199
293.80123
293.7608
293.7347
293.71843
293.70866
293.70304
293.69996
293.69836
293.69756
293.6972
293.69704
293.69697
293.69695
293.69694
293.69694
293.69694
293.69694
293.69694
293.69694
293.69694
293.69694
313.24801
310.67665
308.34138
306.21286
304.27672
302.52767
300.96489
299.58843
298.39642
297.3833
296.53917
295.85005
295.29892
294.86706
294.53545
294.28592
294.10194
293.96912
293.87535
293.8107
293.7673
293.73899
293.72113
293.71026
293.70392
293.70039
293.69851
293.69757
293.69712
293.69692
293.69684
293.69681
293.69679
293.69679
293.69679
293.69679
293.69679
293.69679
293.69679
293.6968
313.32801
310.76659
308.43979
306.31786
304.38603
302.63863
301.07464
299.69414
298.49553
297.47379
296.61965
295.91984
295.35798
294.91589
294.57491
294.3171
294.12604
293.98731
293.88873
293.82028
293.77394
293.74343
293.72396
293.71198
293.70489
293.70087
293.6987
293.69759
293.69706
293.69681
293.69671
293.69667
293.69665
293.69665
293.69665
293.69665
293.69665
293.69665
293.69665
293.69665
313.40391
310.85195
308.5332
306.4176
304.48995
302.74426
301.1793
299.79516
298.59049
297.56072
296.69721
295.98731
295.41529
294.96344
294.61351
294.34774
294.14983
294.00538
293.90212
293.82994
293.78069
293.74799
293.72692
293.7138
293.70593
293.70141
293.69893
293.69764
293.697
293.69671
293.69658
293.69653
293.69651
293.6965
293.6965
293.6965
293.6965
293.6965
293.6965
293.6965
313.4761
310.93314
308.62208
306.51254
304.58897
302.84503
301.2793
299.89187
298.68162
297.64437
296.77205
296.05263
295.47095
295.0098
294.65127
294.37785
294.17332
294.02331
293.91548
293.83965
293.78755
293.75267
293.72999
293.71571
293.70705
293.702
293.6992
293.69771
293.69697
293.69661
293.69646
293.69639
293.69637
293.69636
293.69635
293.69635
293.69636
293.69636
293.69636
293.69636
313.5449
311.01052
308.70681
306.6031
304.68348
302.94133
301.37502
299.98462
298.76919
297.72496
296.84435
296.11592
295.52504
295.055
294.68822
294.40742
294.1965
294.04108
293.92881
293.8494
293.79448
293.75744
293.73315
293.71771
293.70824
293.70265
293.6995
293.69781
293.69694
293.69653
293.69634
293.69626
293.69622
293.69621
293.69621
293.69621
293.69621
293.69621
293.69621
293.69621
313.6106
311.08442
308.78775
306.68964
304.77388
303.03353
301.46679
300.0737
298.85348
297.80271
296.91428
296.17729
295.57766
295.0991
294.7244
294.43648
294.21936
294.0587
293.94209
293.85916
293.80148
293.7623
293.73641
293.7198
293.7095
293.70336
293.69984
293.69793
293.69693
293.69645
293.69622
293.69612
293.69608
293.69607
293.69606
293.69606
293.69606
293.69606
293.69607
293.69607
313.67344
311.15511
308.86519
306.77248
304.86047
303.12194
301.55491
300.15938
298.93471
297.8778
296.98198
296.23688
295.62888
295.14216
294.75983
294.46504
294.24191
294.07614
293.95529
293.86894
293.80853
293.76724
293.73974
293.72196
293.71083
293.70411
293.70022
293.69807
293.69694
293.69638
293.69611
293.69599
293.69594
293.69593
293.69592
293.69592
293.69592
293.69592
293.69592
293.69592
313.73365
311.22285
308.93942
306.85191
304.94355
303.20685
301.63965
300.24189
299.01309
297.9504
297.0476
296.29476
295.67877
295.18422
294.79454
294.4931
294.26415
294.09341
293.96843
293.87871
293.81561
293.77224
293.74315
293.72419
293.71221
293.70491
293.70064
293.69824
293.69696
293.69632
293.69601
293.69587
293.69581
293.69578
293.69577
293.69577
293.69577
293.69577
293.69577
293.69577
313.79143
311.28786
309.01066
306.92819
305.02338
303.28851
301.72124
300.32147
299.0888
298.02068
297.11125
296.35105
295.72741
295.22533
294.82855
294.52068
294.28608
294.1105
293.98148
293.88846
293.82273
293.77729
293.74663
293.72649
293.71366
293.70577
293.70109
293.69844
293.697
293.69626
293.69591
293.69574
293.69567
293.69564
293.69563
293.69563
293.69563
293.69563
293.69563
293.69563
313.84695
311.35033
309.07915
307.00153
305.10019
303.36715
301.7999
300.39829
299.16202
298.08877
297.17304
296.40581
295.77485
295.26552
294.8619
294.5478
294.3077
294.12741
293.99444
293.89819
293.82987
293.78239
293.75016
293.72885
293.71516
293.70666
293.70158
293.69866
293.69706
293.69622
293.69581
293.69562
293.69553
293.6955
293.69549
293.69548
293.69548
293.69548
293.69548
293.69548
313.90037
311.41045
309.14506
307.07215
305.17418
303.44297
301.87582
300.47254
299.2329
298.1548
297.23309
296.45915
295.82114
295.30484
294.89461
294.57446
294.32902
294.14413
294.00731
293.90789
293.83702
293.78753
293.75375
293.73126
293.71672
293.7076
293.7021
293.6989
293.69713
293.69619
293.69572
293.6955
293.6954
293.69536
293.69534
293.69534
293.69534
293.69534
293.69534
293.69534
313.95185
311.46838
309.20858
307.14022
305.24555
303.51615
301.94918
300.54437
299.30158
298.2189
297.29149
296.51112
295.86636
295.34333
294.92669
294.60069
294.35005
294.16068
294.02008
293.91755
293.84417
293.7927
293.75737
293.73372
293.71832
293.70859
293.70265
293.69918
293.69722
293.69618
293.69564
293.69539
293.69527
293.69522
293.6952
293.69519
293.69519
293.69519
293.69519
293.69519
314.0015
311.52426
309.26986
307.20592
305.31446
303.58687
302.02013
300.61393
299.36818
298.28116
297.34832
296.5618
295.91054
295.38102
294.95819
294.62649
294.37079
294.17704
294.03276
293.92717
293.85132
293.79789
293.76104
293.73623
293.71996
293.70961
293.70324
293.69947
293.69733
293.69617
293.69557
293.69528
293.69514
293.69508
293.69506
293.69505
293.69504
293.69504
293.69504
293.69504
314.04944
311.57822
309.32905
307.26939
305.38107
303.65527
302.08883
300.68136
299.43283
298.34169
297.40367
296.61124
295.95373
295.41794
294.98911
294.65188
294.39125
294.19323
294.04532
293.93675
293.85847
293.8031
293.76475
293.73878
293.72165
293.71067
293.70386
293.69979
293.69745
293.69617
293.6955
293.69517
293.69501
293.69494
293.69491
293.6949
293.6949
293.6949
293.6949
293.6949
314.09578
311.63038
309.38628
307.33078
305.44552
303.7215
302.1554
300.74678
299.49563
298.40058
297.45761
296.65952
295.99598
295.45413
295.01948
294.67687
294.41143
294.20924
294.05779
293.94628
293.86561
293.80833
293.76848
293.74137
293.72337
293.71176
293.70451
293.70013
293.6976
293.69619
293.69544
293.69507
293.69489
293.69481
293.69477
293.69476
293.69475
293.69475
293.69475
293.69475
314.14062
311.68086
309.44166
307.3902
305.50794
303.78568
302.21997
300.8103
299.55669
298.45791
297.51021
296.70668
296.03732
295.48961
295.04931
294.70148
294.43135
294.22507
294.07015
293.95575
293.87273
293.81357
293.77224
293.74399
293.72513
293.71289
293.70518
293.7005
293.69775
293.69621
293.69539
293.69497
293.69477
293.69467
293.69463
293.69462
293.69461
293.69461
293.69461
293.69461
314.18405
311.72974
309.4953
307.44777
305.56844
303.84792
302.28265
300.87201
299.61609
298.51377
297.56153
296.75277
296.07781
295.52442
295.07863
294.72571
294.451
294.24072
294.08241
293.96517
293.87984
293.81882
293.77603
293.74664
293.72693
293.71405
293.70589
293.70088
293.69793
293.69625
293.69535
293.69488
293.69465
293.69454
293.69449
293.69447
293.69446
293.69446
293.69446
293.69446
314.22614
311.77713
309.54731
307.5036
305.62713
303.90834
302.34353
300.93203
299.67392
298.56823
297.61164
296.79784
296.11746
295.55858
295.10746
294.74957
294.4704
294.25621
294.09456
293.97454
293.88692
293.82407
293.77983
293.74932
293.72875
293.71524
293.70662
293.70129
293.69812
293.6963
293.69531
293.69479
293.69453
293.69441
293.69435
293.69433
293.69432
293.69432
293.69432
293.69432
314.26697
311.8231
309.59777
307.55778
305.68411
303.96704
302.40273
300.99043
299.73025
298.62134
297.66059
296.84194
296.15633
295.59211
295.13581
294.77309
294.48955
294.27153
294.1066
293.98385
293.89398
293.82932
293.78365
293.75202
293.73061
293.71646
293.70738
293.70172
293.69833
293.69637
293.69528
293.69471
293.69442
293.69428
293.69421
293.69419
293.69418
293.69417
293.69417
293.69417
314.30662
311.86774
309.64677
307.61041
305.73947
304.0241
302.46031
301.04729
299.78517
298.67319
297.70843
296.8851
296.19443
295.62503
295.1637
294.79626
294.50845
294.28669
294.11854
293.9931
293.90102
293.83457
293.78748
293.75475
293.73249
293.71771
293.70816
293.70217
293.69855
293.69644
293.69526
293.69463
293.69431
293.69415
293.69408
293.69405
293.69403
293.69403
293.69403
293.69403
314.34514
311.91111
309.69439
307.66156
305.7933
304.07961
302.51637
301.1027
299.83873
298.72382
297.75521
296.92738
296.2318
295.65738
295.19114
294.8191
294.52712
294.30168
294.13038
294.00229
293.90803
293.83982
293.79132
293.7575
293.73439
293.71898
293.70896
293.70265
293.69879
293.69653
293.69525
293.69456
293.6942
293.69402
293.69394
293.6939
293.69389
293.69388
293.69388
293.69388
314.38259
311.95328
309.74069
307.71131
305.84568
304.13365
302.57097
301.15671
299.891
298.77328
297.80098
296.96879
296.26847
295.68917
295.21816
294.84162
294.54556
294.31651
294.14212
294.01142
293.91501
293.84506
293.79518
293.76026
293.73632
293.72027
293.70979
293.70313
293.69905
293.69663
293.69524
293.69449
293.6941
293.6939
293.69381
293.69376
293.69375
293.69374
293.69374
293.69374
314.41902
311.99431
309.78575
307.75973
305.89667
304.18628
302.6242
301.20941
299.94205
298.82164
297.84578
297.00938
296.30446
295.72042
295.24475
294.86382
294.56377
294.33119
294.15375
294.02049
293.92196
293.85029
293.79903
293.76304
293.73826
293.72159
293.71063
293.70364
293.69932
293.69673
293.69525
293.69443
293.694
293.69378
293.69367
293.69362
293.6936
293.69359
293.69359
293.69359
314.4545
312.03426
309.82962
307.80689
305.94635
304.23758
302.67611
301.26084
299.99191
298.86893
297.88965
297.04918
296.3398
295.75115
295.27094
294.88573
294.58176
294.34572
294.16529
294.0295
293.92888
293.85551
293.8029
293.76583
293.74023
293.72292
293.7115
293.70417
293.6996
293.69686
293.69526
293.69438
293.6939
293.69366
293.69354
293.69349
293.69346
293.69345
293.69345
293.69345
314.48905
312.07317
309.87236
307.85284
305.99478
304.28761
302.72676
301.31106
300.04066
298.91521
297.93263
297.08823
296.37451
295.78138
295.29674
294.90734
294.59953
294.36009
294.17672
294.03845
293.93577
293.86072
293.80677
293.76864
293.74221
293.72428
293.71239
293.70471
293.6999
293.69699
293.69528
293.69433
293.69381
293.69354
293.69341
293.69335
293.69332
293.69331
293.6933
293.6933
314.52274
312.11111
309.91403
307.89765
306.04201
304.33643
302.77621
301.36013
300.08832
298.96051
297.97474
297.12654
296.40861
295.81112
295.32217
294.92866
294.6171
294.37432
294.18806
294.04733
293.94263
293.86592
293.81063
293.77146
293.74421
293.72565
293.71329
293.70527
293.70022
293.69713
293.69531
293.69428
293.69372
293.69343
293.69328
293.69321
293.69318
293.69316
293.69316
293.69316
314.55559
312.14811
309.95468
307.94136
306.0881
304.38408
302.82452
301.4081
300.13495
299.00488
298.01604
297.16414
296.44214
295.84039
295.34722
294.94971
294.63447
294.38841
294.1993
294.05616
293.94945
293.87111
293.8145
293.77429
293.74623
293.72704
293.71421
293.70585
293.70055
293.69729
293.69535
293.69425
293.69364
293.69332
293.69315
293.69308
293.69304
293.69302
293.69302
293.69301
314.58764
312.18421
309.99434
307.98403
306.1331
304.43063
302.87173
301.45501
300.1806
299.04834
298.05654
297.20107
296.4751
295.8692
295.37192
294.97048
294.65163
294.40236
294.21045
294.06493
293.95624
293.87628
293.81837
293.77712
293.74826
293.72845
293.71515
293.70644
293.70089
293.69745
293.6954
293.69421
293.69356
293.69321
293.69303
293.69294
293.6929
293.69288
293.69287
293.69287
314.61894
312.21946
310.03307
308.02569
306.17706
304.47612
302.91788
301.50091
300.22529
299.09095
298.09627
297.23734
296.50751
295.89758
295.39627
294.991
294.66861
294.41616
294.2215
294.07364
293.963
293.88144
293.82224
293.77996
293.7503
293.72987
293.71611
293.70705
293.70124
293.69763
293.69545
293.69419
293.69348
293.6931
293.6929
293.69281
293.69276
293.69274
293.69273
293.69273
314.64951
312.2539
310.07091
308.06641
306.22002
304.5206
302.96304
301.54584
300.26908
299.13272
298.13528
297.27298
296.5394
295.92553
295.42029
295.01125
294.68539
294.42984
294.23246
294.08229
293.96972
293.88658
293.8261
293.78281
293.75235
293.73131
293.71708
293.70767
293.70161
293.69782
293.69552
293.69417
293.69341
293.693
293.69278
293.69267
293.69262
293.6926
293.69259
293.69258
314.67939
312.28755
310.10789
308.1062
306.26203
304.5641
303.00722
301.58983
300.31198
299.17369
298.17357
297.30802
296.57078
295.95307
295.44399
295.03126
294.70199
294.44338
294.24333
294.09089
293.97641
293.8917
293.82996
293.78566
293.75441
293.73276
293.71806
293.7083
293.70199
293.69801
293.69559
293.69416
293.69334
293.6929
293.69266
293.69254
293.69248
293.69246
293.69245
293.69244
314.70859
312.32045
310.14405
308.14512
306.30312
304.60667
303.05048
301.63293
300.35405
299.21389
298.21118
297.34246
296.60167
295.9802
295.46737
295.05103
294.71841
294.45679
294.25412
294.09942
293.98306
293.89681
293.83382
293.78852
293.75648
293.73422
293.71906
293.70895
293.70238
293.69822
293.69567
293.69415
293.69328
293.6928
293.69254
293.69241
293.69235
293.69232
293.6923
293.6923
314.73716
312.35264
310.17943
308.1832
306.34333
304.64834
303.09285
301.67516
300.3953
299.25334
298.24813
297.37633
296.63208
296.00695
295.49044
295.07056
294.73465
294.47007
294.26481
294.1079
293.98968
293.9019
293.83767
293.79138
293.75856
293.73569
293.72007
293.70961
293.70278
293.69844
293.69576
293.69415
293.69322
293.69271
293.69243
293.69228
293.69221
293.69218
293.69216
293.69216
314.76512
312.38413
310.21404
308.22047
306.3827
304.68915
303.13436
301.71656
300.43577
299.29209
298.28444
297.40966
296.66203
296.03332
295.51321
295.08986
294.75073
294.48324
294.27542
294.11632
293.99627
293.90697
293.84151
293.79424
293.76065
293.73718
293.72109
293.71028
293.7032
293.69867
293.69585
293.69416
293.69317
293.69262
293.69231
293.69216
293.69208
293.69204
293.69202
293.69202
314.79249
312.41497
310.24794
308.25697
306.42125
304.72913
303.17505
301.75717
300.47548
299.33014
298.32014
297.44245
296.69153
296.05933
295.53569
295.10894
294.76663
294.49628
294.28594
294.12468
294.00282
293.91202
293.84535
293.79711
293.76274
293.73867
293.72212
293.71097
293.70362
293.6989
293.69596
293.69417
293.69312
293.69253
293.6922
293.69203
293.69194
293.6919
293.69188
293.69188
314.81929
312.44516
310.28113
308.29272
306.45903
304.76832
303.21494
301.797
300.51447
299.36752
298.35524
297.47472
296.72059
296.08498
295.55789
295.1278
294.78237
294.5092
294.29638
294.13299
294.00933
293.91706
293.84918
293.79997
293.76484
293.74018
293.72317
293.71166
293.70406
293.69915
293.69607
293.69419
293.69308
293.69245
293.69209
293.69191
293.69181
293.69176
293.69175
293.69174
314.84555
312.47475
310.31366
308.32775
306.49605
304.80674
303.25407
301.83609
300.55275
299.40425
298.38976
297.5065
296.74924
296.11029
295.57982
295.14644
294.79795
294.522
294.30674
294.14125
294.01582
293.92207
293.853
293.80284
293.76695
293.74169
293.72422
293.71237
293.7045
293.69941
293.69619
293.69421
293.69304
293.69236
293.69199
293.69179
293.69168
293.69163
293.69161
293.6916
314.87129
312.50374
310.34554
308.36209
306.53236
304.84442
303.29246
301.87447
300.59036
299.44037
298.42373
297.53779
296.77747
296.13526
295.60148
295.16488
294.81338
294.53469
294.31702
294.14945
294.02226
293.92707
293.85682
293.8057
293.76906
293.74321
293.72529
293.71309
293.70496
293.69967
293.69631
293.69425
293.69301
293.69229
293.69188
293.69167
293.69155
293.69149
293.69147
293.69146
314.89652
312.53217
310.37679
308.39576
306.56796
304.88139
303.33014
301.91215
300.62731
299.47588
298.45716
297.56861
296.80531
296.1599
295.62287
295.18312
294.82865
294.54727
294.32722
294.1576
294.02868
293.93205
293.86062
293.80856
293.77118
293.74474
293.72636
293.71382
293.70543
293.69994
293.69645
293.69428
293.69298
293.69221
293.69178
293.69155
293.69142
293.69136
293.69133
293.69133
314.92126
312.56005
310.40745
308.42879
306.6029
304.91767
303.36713
301.94917
300.66363
299.5108
298.49006
297.59897
296.83276
296.18423
295.64402
295.20116
294.84377
294.55974
294.33734
294.16569
294.03506
293.93701
293.86442
293.81143
293.7733
293.74628
293.72744
293.71455
293.7059
293.70023
293.69659
293.69433
293.69295
293.69214
293.69168
293.69143
293.6913
293.69123
293.6912
293.69119
314.94554
312.58741
310.43753
308.46121
306.63718
304.95328
303.40346
301.98553
300.69934
299.54516
298.52246
297.62889
296.85984
296.20825
295.66491
295.219
294.85874
294.5721
294.34738
294.17373
294.04141
293.94195
293.86821
293.81429
293.77542
293.74782
293.72854
293.7153
293.70639
293.70052
293.69674
293.69438
293.69293
293.69208
293.69159
293.69132
293.69117
293.6911
293.69107
293.69106
314.96936
312.61425
310.46705
308.49302
306.67084
304.98826
303.43915
302.02128
300.73445
299.57898
298.55436
297.65839
296.88655
296.23197
295.68557
295.23666
294.87358
294.58435
294.35735
294.18173
294.04772
293.94687
293.87199
293.81715
293.77755
293.74937
293.72964
293.71605
293.70688
293.70082
293.6969
293.69443
293.69292
293.69202
293.6915
293.6912
293.69105
293.69097
293.69093
293.69092
314.99275
312.6406
310.49604
308.52426
306.70389
305.02262
303.47422
302.05642
300.76899
299.61226
298.58579
297.68746
296.91291
296.25539
295.70598
295.25413
294.88827
294.59651
294.36725
294.18967
294.05401
293.95177
293.87576
293.82001
293.77968
293.75092
293.73074
293.71682
293.70738
293.70112
293.69706
293.69449
293.69291
293.69196
293.69141
293.69109
293.69092
293.69084
293.6908
293.69079
315.01571
312.66648
310.5245
308.55494
306.73636
305.05637
303.5087
302.09098
300.80298
299.64503
298.61675
297.71613
296.93893
296.27853
295.72617
295.27143
294.90282
294.60856
294.37707
294.19756
294.06026
293.95666
293.87952
293.82286
293.78181
293.75248
293.73186
293.71759
293.7079
293.70144
293.69723
293.69456
293.6929
293.6919
293.69132
293.69099
293.6908
293.69071
293.69067
293.69066
315.03827
312.69191
310.55246
308.58508
306.76827
305.08955
303.54259
302.12496
300.83642
299.67729
298.64727
297.74441
296.9646
296.30139
295.74614
295.28854
294.91725
294.62051
294.38683
294.2054
294.06648
293.96152
293.88327
293.82571
293.78394
293.75405
293.73298
293.71837
293.70841
293.70176
293.69741
293.69463
293.6929
293.69185
293.69123
293.69088
293.69069
293.69059
293.69054
293.69053
315.06044
312.71688
310.57993
308.6147
306.79963
305.12217
303.57592
302.1584
300.86934
299.70908
298.67734
297.7723
296.98995
296.32398
295.76588
295.30549
294.93154
294.63236
294.39651
294.21319
294.07266
293.96636
293.88702
293.82856
293.78608
293.75562
293.73411
293.71916
293.70894
293.70209
293.6976
293.69471
293.69291
293.69181
293.69115
293.69078
293.69057
293.69046
293.69042
293.6904
315.08222
312.74143
310.60694
308.64382
306.83045
305.15424
303.6087
302.19131
300.90175
299.74039
298.70699
297.79982
297.01499
296.3463
295.78541
295.32226
294.9457
294.64412
294.40612
294.22094
294.07882
293.97119
293.89075
293.83141
293.78821
293.7572
293.73525
293.71995
293.70948
293.70243
293.69779
293.6948
293.69292
293.69176
293.69108
293.69068
293.69046
293.69034
293.69029
293.69028
315.10363
312.76556
310.63349
308.67244
306.86077
305.18579
303.64096
302.2237
300.93368
299.77124
298.73623
297.82697
297.03971
296.36837
295.80474
295.33888
294.95973
294.65579
294.41567
294.22864
294.08494
293.976
293.89447
293.83425
293.79035
293.75878
293.73639
293.72076
293.71002
293.70278
293.69799
293.69489
293.69293
293.69173
293.691
293.69058
293.69034
293.69022
293.69017
293.69015
315.12469
312.7893
310.65959
308.7006
306.89059
305.21683
303.67271
302.2556
300.96512
299.80165
298.76507
297.85377
297.06412
296.39018
295.82385
295.35533
294.97364
294.66736
294.42515
294.23629
294.09103
293.98078
293.89818
293.83709
293.79249
293.76036
293.73754
293.72156
293.71057
293.70313
293.69819
293.69499
293.69295
293.69169
293.69093
293.69048
293.69023
293.6901
293.69005
293.69003
315.1454
312.81264
310.68527
308.72829
306.91993
305.24738
303.70396
302.287
300.9961
299.83163
298.79351
297.88023
297.08825
296.41175
295.84277
295.37162
294.98744
294.67884
294.43456
294.2439
294.0971
293.98555
293.90189
293.83993
293.79463
293.76195
293.73869
293.72238
293.71112
293.70349
293.69841
293.69509
293.69298
293.69166
293.69086
293.69039
293.69013
293.68999
293.68992
293.68991
315.16578
312.8356
310.71054
308.75554
306.9488
305.27744
303.73473
302.31793
301.02663
299.86119
298.82158
297.90635
297.11208
296.43308
295.8615
295.38776
295.00111
294.69024
294.44391
294.25146
294.10313
293.9903
293.90558
293.84276
293.79677
293.76354
293.73985
293.7232
293.71169
293.70385
293.69862
293.6952
293.69301
293.69163
293.6908
293.6903
293.69002
293.68987
293.68981
293.68979
315.18583
312.8582
310.7354
308.78236
306.97722
305.30704
303.76503
302.34841
301.05672
299.89034
298.84927
297.93215
297.13564
296.45417
295.88003
295.40375
295.01466
294.70154
294.4532
294.25898
294.10913
293.99503
293.90926
293.84558
293.79891
293.76513
293.74101
293.72403
293.71226
293.70423
293.69885
293.69531
293.69304
293.69161
293.69074
293.69022
293.68992
293.68976
293.68969
293.68967
315.20556
312.88044
310.75987
308.80876
307.0052
305.33619
303.79488
302.37844
301.08638
299.91909
298.8766
297.95762
297.15892
296.47503
295.89838
295.41959
295.02811
294.71276
294.46242
294.26645
294.11511
293.99975
293.91293
293.84841
293.80105