/*--------------------------------*- C++ -*----------------------------------*\
| =========                 |                                                 |
| \\      /  F ield         | OpenFOAM: The Open Source CFD Toolbox           |
|  \\    /   O peration     | Version:  3.0.1                                 |
|   \\  /    A nd           | Web:      www.OpenFOAM.org                      |
|    \\/     M anipulation  |                                                 |
\*---------------------------------------------------------------------------*/
FoamFile
{
    version     2.0;
    format      ascii;
    class       volVectorField;
    location    "2498";
    object      U;
}
// * * * * * * * * * * * * * * * * * * * * * * * * * * * * * * * * * * * * * //

dimensions      [0 1 -1 0 0 0 0];

internalField   nonuniform List<vector> 
4000
(
(1.2066175e-05 -8.1910008e-19 0.023997802)
(-1.3395302e-05 -1.8947403e-18 0.056169169)
(-4.2959325e-05 -2.9132008e-18 0.078480829)
(-9.5977588e-05 -3.8546009e-18 0.093426663)
(-0.0001543259 -4.2705658e-18 0.10299819)
(-0.00020832158 -4.6931817e-18 0.10875324)
(-0.00025060389 -5.115958e-18 0.11187339)
(-0.00027835715 -5.5115049e-18 0.11322421)
(-0.00029197449 -5.4268202e-18 0.11341797)
(-0.0002938317 -5.3828042e-18 0.11287324)
(-0.00028708108 -5.3640187e-18 0.11186709)
(-0.00027484094 -5.3804437e-18 0.1105775)
(-0.00025974157 -5.4510653e-18 0.10911573)
(-0.00024375803 -5.5808004e-18 0.10754975)
(-0.00022822399 -5.7667225e-18 0.10592049)
(-0.00021393534 -6.0097887e-18 0.10425244)
(-0.00020128617 -6.3071703e-18 0.10256035)
(-0.00019039597 -7.3617478e-18 0.10085312)
(-0.00018121232 -8.4528017e-18 0.099135889)
(-0.00017358557 -9.6035427e-18 0.097410949)
(-0.00016731612 -1.0809092e-17 0.095677916)
(-0.00016218334 -1.2084128e-17 0.093933403)
(-0.00015796176 -1.2290187e-17 0.092170371)
(-0.00015442681 -1.0390176e-17 0.090377217)
(-0.00015136078 -9.7605658e-18 0.088536646)
(-0.00014854876 -8.1798018e-18 0.086624346)
(-0.00014578523 -6.8106065e-18 0.084607453)
(-0.00014286225 -6.7501336e-18 0.082442837)
(-0.0001395924 -6.7819154e-18 0.080075246)
(-0.00013576393 -6.8825783e-18 0.077435338)
(-0.00013122966 -6.3823602e-18 0.074437766)
(-0.00012574273 -4.314118e-18 0.070979349)
(-0.00011926488 -2.4959976e-18 0.066937753)
(-0.0001114088 -8.758835e-19 0.062170397)
(-0.0001024302 5.8961004e-19 0.056514596)
(-9.1414478e-05 1.9487412e-18 0.049786888)
(-7.9397135e-05 2.0028251e-18 0.041784201)
(-6.3369667e-05 1.1001698e-18 0.032277673)
(-4.6437386e-05 9.6807904e-19 0.021007174)
(-1.4664538e-05 3.0503811e-19 0.0076327424)
(-1.5565642e-05 -1.0096953e-18 0.026061807)
(-0.00015352499 -2.185614e-18 0.060584634)
(-0.00035540071 -3.3097034e-18 0.083878369)
(-0.00057739917 -4.4679966e-18 0.098787997)
(-0.00078280165 -4.5736982e-18 0.10770216)
(-0.00094984645 -4.7727856e-18 0.11252343)
(-0.0010669091 -5.0701933e-18 0.11467935)
(-0.001131851 -5.3270965e-18 0.11517913)
(-0.0011493171 -5.4597332e-18 0.11469629)
(-0.0011279983 -5.5113296e-18 0.11365602)
(-0.0010781494 -5.6301235e-18 0.11231232)
(-0.0010097508 -5.9097618e-18 0.11080865)
(-0.00093137932 -5.6707826e-18 0.10922148)
(-0.00084970955 -5.6357589e-18 0.10758928)
(-0.00076947124 -5.7005606e-18 0.10593052)
(-0.00069368639 -5.6810899e-18 0.10425402)
(-0.00062402983 -6.0553994e-18 0.10256429)
(-0.00056120596 -7.4070745e-18 0.10086405)
(-0.00050528151 -8.6917772e-18 0.099154929)
(-0.00045593878 -9.723379e-18 0.097437408)
(-0.0004126566 -1.094992e-17 0.095710258)
(-0.00037482516 -1.2419103e-17 0.093969782)
(-0.00034180811 -1.2378194e-17 0.0922089)
(-0.00031297832 -1.0506544e-17 0.0904161)
(-0.0002877334 -1.0024703e-17 0.088574235)
(-0.00026549589 -8.2385022e-18 0.08665916)
(-0.00024571803 -6.8205047e-18 0.084638191)
(-0.00022787275 -6.7643642e-18 0.082468382)
(-0.00021146953 -6.7846347e-18 0.080094668)
(-0.00019602184 -6.8213796e-18 0.077447906)
(-0.00018111636 -6.1248467e-18 0.074442945)
(-0.00016629329 -4.1084491e-18 0.070976831)
(-0.00015128828 -2.4807782e-18 0.066927416)
(-0.00013560709 -8.7944738e-19 0.062152367)
(-0.00011931604 5.8499696e-19 0.056489026)
(-0.00010160305 1.9364468e-18 0.049754058)
(-8.3271721e-05 1.9035877e-18 0.041743487)
(-6.1842732e-05 1.188453e-18 0.032227264)
(-3.9977628e-05 9.6699944e-19 0.020938871)
(-7.53863e-06 2.7400315e-19 0.0075488399)
(-1.5173808e-05 -7.4185748e-19 0.028457951)
(-0.00016360197 -1.8566686e-18 0.066088876)
(-0.00040003742 -2.803081e-18 0.09111334)
(-0.00067900426 -3.560031e-18 0.10653141)
(-0.00095891937 -4.132665e-18 0.11501385)
(-0.0012083716 -4.5637249e-18 0.11880624)
(-0.0014052808 -4.9304799e-18 0.11966241)
(-0.0015384899 -5.2279615e-18 0.1188467)
(-0.001606609 -5.3016286e-18 0.11719618)
(-0.0016157154 -5.2392434e-18 0.11521479)
(-0.0015764984 -5.1318732e-18 0.11317182)
(-0.0015015624 -5.5628199e-18 0.1111869)
(-0.0014033038 -5.6941868e-18 0.10929437)
(-0.0012925289 -5.7337299e-18 0.10748684)
(-0.0011777725 -5.8427882e-18 0.1057417)
(-0.0010651673 -6.0147822e-18 0.10403511)
(-0.00095867885 -6.5150542e-18 0.10234795)
(-0.00086052658 -7.5424676e-18 0.1006671)
(-0.00077164951 -8.7860745e-18 0.098984372)
(-0.00069213119 -1.0145566e-17 0.097294611)
(-0.00062153636 -1.0598073e-17 0.095593641)
(-0.00055915447 -1.1732852e-17 0.093876409)
(-0.00050415336 -1.1481924e-17 0.092135354)
(-0.00045566971 -1.0511242e-17 0.090358928)
(-0.00041285625 -9.7167634e-18 0.088530159)
(-0.00037490158 -8.2740723e-18 0.086625165)
(-0.00034103957 -7.0838854e-18 0.084611554)
(-0.00031054318 -6.8164412e-18 0.082446684)
(-0.00028273714 -6.7716528e-18 0.080075792)
(-0.00025697305 -6.6927515e-18 0.077430038)
(-0.00023268121 -5.8654828e-18 0.07442457)
(-0.00020928098 -3.8915932e-18 0.070956744)
(-0.00018637083 -2.4378398e-18 0.066904701)
(-0.00016339467 -8.7940158e-19 0.062126413)
(-0.00014027086 5.6163003e-19 0.056459417)
(-0.00011624848 1.7534641e-18 0.049720553)
(-9.1840625e-05 1.7149443e-18 0.041705461)
(-6.5073498e-05 1.2414965e-18 0.032183595)
(-3.7477919e-05 9.3204444e-19 0.020888377)
(-5.6331736e-06 2.9149853e-19 0.0075127918)
(-1.2919081e-05 -5.1914671e-19 0.030635297)
(-0.0001490439 -1.4684816e-18 0.071337528)
(-0.00037698622 -2.2711976e-18 0.098385552)
(-0.00066047509 -2.8807192e-18 0.11479153)
(-0.00096341633 -3.8727043e-18 0.12333367)
(-0.0012539269 -4.7536466e-18 0.12646247)
(-0.0015050988 -4.8717353e-18 0.12619128)
(-0.0016984079 -5.1133336e-18 0.1240416)
(-0.0018247221 -5.286851e-18 0.12106061)
(-0.0018836928 -5.285118e-18 0.1178939)
(-0.0018818496 -5.1610607e-18 0.11488387)
(-0.0018301096 -4.9752619e-18 0.11216819)
(-0.0017413091 -5.5189947e-18 0.10976252)
(-0.0016281711 -5.7603958e-18 0.1076215)
(-0.0015019113 -5.994512e-18 0.10567877)
(-0.0013714959 -6.4125361e-18 0.10386961)
(-0.0012434443 -7.0432657e-18 0.10214133)
(-0.0011220193 -7.7015591e-18 0.1004558)
(-0.0010096324 -8.6693991e-18 0.09878773)
(-0.00090731847 -9.9056769e-18 0.097121144)
(-0.000815184 -1.0584626e-17 0.095445567)
(-0.00073276987 -1.0978977e-17 0.093752601)
(-0.00065931072 -1.0898081e-17 0.092033116)
(-0.00059390707 -1.0557233e-17 0.090274981)
(-0.00053562167 -9.3208748e-18 0.088461147)
(-0.000483532 -8.2893582e-18 0.08656789)
(-0.00043675432 -7.3613188e-18 0.084563076)
(-0.00039444646 -6.8924727e-18 0.082404366)
(-0.00035582098 -6.7322184e-18 0.08003731)
(-0.00032012564 -6.4155116e-18 0.07739339)
(-0.00028668764 -5.6618779e-18 0.074388085)
(-0.00025484291 -3.8569706e-18 0.070919087)
(-0.00022408939 -2.4022636e-18 0.06686487)
(-0.00019382924 -8.7998002e-19 0.062083738)
(-0.00016385919 5.1399514e-19 0.056413466)
(-0.00013348972 1.4587145e-18 0.04967105)
(-0.00010296827 1.6268439e-18 0.041651797)
(-7.0795134e-05 1.2412641e-18 0.032124799)
(-3.7945654e-05 8.3054417e-19 0.020825509)
(-5.034945e-06 3.0678206e-19 0.007468649)
(-1.124606e-05 -6.088453e-19 0.032561657)
(-0.00013416971 -1.5472411e-18 0.076105151)
(-0.00034555891 -2.4000468e-18 0.1051908)
(-0.00061671955 -3.0782732e-18 0.12280221)
(-0.00091817007 -3.7252516e-18 0.13174092)
(-0.0012215038 -4.4356674e-18 0.13456085)
(-0.0014999131 -4.884896e-18 0.13344912)
(-0.0017318321 -5.2050331e-18 0.13013548)
(-0.0019030615 -5.2327831e-18 0.12586816)
(-0.0020075478 -5.4119864e-18 0.12145519)
(-0.0020467223 -5.7820594e-18 0.11734801)
(-0.0020278331 -5.680754e-18 0.11374004)
(-0.0019618031 -5.8813005e-18 0.11065907)
(-0.0018611006 -6.1132779e-18 0.10804205)
(-0.0017379633 -6.3077538e-18 0.10578856)
(-0.0016031492 -6.6403594e-18 0.10379451)
(-0.0014652493 -7.0937603e-18 0.10196999)
(-0.001330501 -7.8281956e-18 0.10024592)
(-0.0012029588 -8.728641e-18 0.098573639)
(-0.0010848763 -9.5007462e-18 0.096921073)
(-0.00097716998 -1.076256e-17 0.095267487)
(-0.00087985201 -1.0912399e-17 0.093598497)
(-0.00079238697 -1.0978075e-17 0.091901797)
(-0.00071394781 -1.0317672e-17 0.090163774)
(-0.00064358017 -9.3029448e-18 0.088366841)
(-0.0005803002 -8.3075205e-18 0.086487213)
(-0.00052314406 -7.4657417e-18 0.084492928)
(-0.00047118832 -6.9546798e-18 0.082341912)
(-0.0004235617 -6.6978765e-18 0.079980027)
(-0.0003794402 -6.3117282e-18 0.07733909)
(-0.00033807873 -5.5357361e-18 0.074334925)
(-0.00029875775 -4.0790798e-18 0.070865587)
(-0.00026090882 -2.3985905e-18 0.066809912)
(-0.00022391429 -8.8366202e-19 0.062026564)
(-0.00018748224 4.699153e-19 0.056353596)
(-0.00015099047 1.3850818e-18 0.049608171)
(-0.00011448361 1.6612642e-18 0.041585419)
(-7.687882e-05 1.2307447e-18 0.032054576)
(-3.8999967e-05 7.8311484e-19 0.020755419)
(-4.6519644e-06 2.6506064e-19 0.0074252893)
(-1.0051152e-05 -8.2385963e-19 0.034297553)
(-0.00012216703 -1.8757265e-18 0.08046217)
(-0.00031795997 -2.8403038e-18 0.11151571)
(-0.00057388403 -3.6446539e-18 0.13041013)
(-0.00086566082 -3.7231177e-18 0.13993928)
(-0.0011687883 -3.9393156e-18 0.14270573)
(-0.001458455 -4.5219821e-18 0.14100849)
(-0.0017127327 -5.0041357e-18 0.13673473)
(-0.0019149655 -5.2580439e-18 0.13130491)
(-0.0020552838 -5.5020888e-18 0.12568418)
(-0.0021308657 -5.926808e-18 0.12044578)
(-0.0021451105 -6.2693742e-18 0.11586152)
(-0.0021060905 -6.2394008e-18 0.11199616)
(-0.0020246968 -6.4011791e-18 0.10879024)
(-0.0019128381 -6.6041484e-18 0.10612424)
(-0.0017819466 -6.8094986e-18 0.10386267)
(-0.0016419334 -7.1315125e-18 0.10188051)
(-0.0015006216 -7.9889127e-18 0.10007583)
(-0.0013636109 -9.0636388e-18 0.09837277)
(-0.0012344636 -9.768613e-18 0.096718763)
(-0.0011150756 -1.0639759e-17 0.095078988)
(-0.0010061151 -1.1138907e-17 0.093430149)
(-0.00090743177 -1.0993166e-17 0.091754791)
(-0.00081838572 -9.9839064e-18 0.090036622)
(-0.00073808465 -9.4024536e-18 0.088256846)
(-0.00066553307 -8.3117471e-18 0.086391288)
(-0.00059971985 -7.395225e-18 0.084407999)
(-0.00053965823 -6.9656983e-18 0.082265114)
(-0.00048441104 -6.6772802e-18 0.079908788)
(-0.00043309222 -6.338805e-18 0.07727117)
(-0.00038489428 -5.4084592e-18 0.074268441)
(-0.00033905245 -4.0599667e-18 0.070799027)
(-0.00029493927 -2.3875058e-18 0.06674214)
(-0.00025192233 -8.8893802e-19 0.061956813)
(-0.00020963716 4.3818088e-19 0.056281395)
(-0.00016751936 1.4544953e-18 0.049533225)
(-0.0001254722 1.575215e-18 0.041507413)
(-8.2770456e-05 1.2201909e-18 0.031973916)
(-4.0383349e-05 8.1453042e-19 0.020678564)
(-4.466637e-06 2.2714871e-19 0.0073809924)
(-9.1292217e-06 -5.9793525e-19 0.035879613)
(-0.00011234868 -1.1875103e-18 0.08447131)
(-0.00029448109 -2.3057718e-18 0.11740173)
(-0.00053559329 -3.1538869e-18 0.13759423)
(-0.00081528675 -3.6435243e-18 0.14782328)
(-0.0011124355 -4.0115829e-18 0.15071113)
(-0.0014046158 -4.4678677e-18 0.14862874)
(-0.0016707325 -4.9480329e-18 0.14358081)
(-0.0018932931 -5.2032126e-18 0.13713006)
(-0.002060202 -5.4724088e-18 0.13038357)
(-0.0021655735 -5.901204e-18 0.12403567)
(-0.0022095451 -6.3687286e-18 0.11844666)
(-0.0021972991 -6.5588545e-18 0.11373414)
(-0.0021376115 -6.6560023e-18 0.10985939)
(-0.0020412404 -6.9387451e-18 0.10669855)
(-0.0019194173 -7.1533788e-18 0.10409527)
(-0.0017826208 -7.3337719e-18 0.10189517)
(-0.0016397375 -7.850537e-18 0.099965075)
(-0.0014976361 -8.4547373e-18 0.098200595)
(-0.0013611089 -9.4239765e-18 0.096525861)
(-0.0012330884 -1.0749559e-17 0.094888751)
(-0.0011150123 -1.0921773e-17 0.093254213)
(-0.0010072384 -1.0742408e-17 0.091597479)
(-0.00090941969 -9.9856412e-18 0.089898118)
(-0.00082080142 -9.2704167e-18 0.088135253)
(-0.00074042701 -8.3055715e-18 0.086283835)
(-0.00066726747 -7.4214834e-18 0.084311697)
(-0.00060029349 -6.980066e-18 0.082177082)
(-0.00053851392 -6.6981096e-18 0.079826404)
(-0.00048098859 -6.1976595e-18 0.077192142)
(-0.00042685578 -5.0713582e-18 0.074190842)
(-0.00037530881 -3.9259226e-18 0.070721318)
(-0.00032567035 -2.3597204e-18 0.066663179)
(-0.00027729267 -8.9045976e-19 0.061875839)
(-0.00022975218 4.1205922e-19 0.056197968)
(-0.00018252943 1.4416224e-18 0.049447113)
(-0.00013544054 1.4003362e-18 0.041418552)
(-8.807551e-05 1.1849803e-18 0.031883586)
(-4.1728469e-05 7.8064783e-19 0.02059542)
(-4.3246353e-06 2.4096318e-19 0.0073353647)
(-8.3990378e-06 -1.4344659e-19 0.037337809)
(-0.0001042626 -8.0292406e-19 0.088191231)
(-0.00027466851 -1.3244239e-18 0.12290659)
(-0.00050232198 -1.5912945e-18 0.14438328)
(-0.00076974477 -2.8456884e-18 0.15537273)
(-0.0010585666 -3.7066645e-18 0.15850126)
(-0.0013486304 -4.3102517e-18 0.15618613)
(-0.0016201129 -4.8018114e-18 0.15052027)
(-0.0018555566 -5.1515836e-18 0.14318301)
(-0.0020417099 -5.3869804e-18 0.13540626)
(-0.0021706318 -5.7326652e-18 0.1279986)
(-0.0022399361 -5.9496263e-18 0.12141107)
(-0.0022522665 -6.5404563e-18 0.11582282)
(-0.0022142314 -6.8913511e-18 0.11122772)
(-0.0021350641 -7.2450446e-18 0.10750986)
(-0.0020252325 -7.7643224e-18 0.1045024)
(-0.0018951813 -8.1584575e-18 0.10202891)
(-0.0017543462 -8.2247029e-18 0.099928816)
(-0.001610509 -8.5923243e-18 0.098070104)
(-0.001469511 -9.3981828e-18 0.096352432)
(-0.0013352769 -1.0160293e-17 0.094704149)
(-0.0012100631 -9.9335449e-18 0.093076001)
(-0.0010948246 -9.8905306e-18 0.091433775)
(-0.00098959823 -9.9258461e-18 0.089751307)
(-0.00089384145 -8.8068999e-18 0.088004585)
(-0.00080668989 -8.2535888e-18 0.086167065)
(-0.00072713322 -7.6271211e-18 0.084206032)
(-0.00065411951 -7.0099445e-18 0.082079677)
(-0.00058661766 -6.6349587e-18 0.079734612)
(-0.00052364031 -5.9905162e-18 0.07710363)
(-0.00046427653 -5.0256026e-18 0.074103647)
(-0.0004076807 -4.0173781e-18 0.070633877)
(-0.00035313012 -2.357119e-18 0.066574341)
(-0.00029996115 -8.971088e-19 0.061784855)
(-0.00024769964 3.5866882e-19 0.056104434)
(-0.00019585925 1.1885071e-18 0.049350884)
(-0.00014421538 1.3523706e-18 0.041319868)
(-9.2644603e-05 1.1404584e-18 0.031784658)
(-4.2868021e-05 6.762815e-19 0.020506834)
(-4.1845587e-06 2.5346977e-19 0.0072886193)
(-7.8012776e-06 -6.9247934e-19 0.038693537)
(-9.7475482e-05 -1.8734167e-18 0.091667155)
(-0.00025777477 -2.4160636e-18 0.12808106)
(-0.00047341057 -3.125876e-18 0.15081499)
(-0.00072915218 -3.3386911e-18 0.16259688)
(-0.0010088597 -3.720402e-18 0.16604843)
(-0.001294381 -4.1131257e-18 0.16361639)
(-0.0015672628 -4.34603e-18 0.15746068)
(-0.0018105193 -4.9209211e-18 0.14935642)
(-0.0020104057 -5.4143584e-18 0.14064445)
(-0.002157663 -6.0476528e-18 0.13223861)
(-0.0022480354 -6.65983e-18 0.12467882)
(-0.0022820781 -6.7834476e-18 0.11820957)
(-0.0022644197 -7.0718858e-18 0.11286489)
(-0.0022026853 -7.2945511e-18 0.10854596)
(-0.0021062816 -7.4347692e-18 0.10508442)
(-0.0019852051 -7.9242566e-18 0.10228912)
(-0.0018490124 -8.6979456e-18 0.099977097)
(-0.001706041 -9.6365692e-18 0.097991103)
(-0.0015629407 -9.9673286e-18 0.096206614)
(-0.0014245165 -9.8406307e-18 0.094531292)
(-0.0012938292 -1.0191305e-17 0.092899841)
(-0.0011724746 -9.868589e-18 0.091266694)
(-0.0010609437 -9.6841552e-18 0.089598355)
(-0.00095897429 -9.0917582e-18 0.087866511)
(-0.00086584909 -8.2465212e-18 0.086042377)
(-0.00078061433 -7.5786332e-18 0.084092258)
(-0.0007022198 -7.0109616e-18 0.081974077)
(-0.00062960763 -6.5201813e-18 0.079634545)
(-0.00056175417 -5.8955085e-18 0.077006733)
(-0.00049770577 -4.9318531e-18 0.074007924)
(-0.00043658006 -3.6704338e-18 0.070537741)
(-0.00037761424 -2.3186263e-18 0.066476634)
(-0.00032012545 -9.0490415e-19 0.061684835)
(-0.00026360039 2.975335e-19 0.056001734)
(-0.00020757683 9.8777426e-19 0.049245466)
(-0.00015182407 1.2916885e-18 0.041212314)
(-9.6492987e-05 1.1884308e-18 0.031678127)
(-4.376715e-05 6.7953611e-19 0.020413603)
(-4.0360678e-06 1.9671857e-19 0.0072409896)
(-7.3012157e-06 -7.6272656e-19 0.039963067)
(-9.1692964e-05 -1.3305895e-18 0.094934844)
(-0.00024321699 -2.4359297e-18 0.13296814)
(-0.00044815849 -3.4698236e-18 0.15692677)
(-0.00069305818 -3.7174941e-18 0.16951603)
(-0.00096359482 -4.0302812e-18 0.17334811)
(-0.0012433505 -4.5011466e-18 0.170888)
(-0.001515197 -5.1070433e-18 0.1643469)
(-0.0017628199 -5.2256422e-18 0.15557924)
(-0.0019723827 -5.5976712e-18 0.14602079)
(-0.0021338167 -6.1128957e-18 0.1366815)
(-0.0022415106 -6.6822016e-18 0.12818625)
(-0.002294359 -7.0239431e-18 0.12084576)
(-0.0022952775 -7.2378612e-18 0.11473857)
(-0.0022503575 -7.5093444e-18 0.10978945)
(-0.0021678367 -7.6785682e-18 0.10583565)
(-0.0020570159 -7.8363726e-18 0.10267793)
(-0.001927252 -8.4764803e-18 0.10011609)
(-0.0017871259 -8.8577414e-18 0.097970966)
(-0.0016438482 -9.4451204e-18 0.096095201)
(-0.0015029462 -1.0238093e-17 0.094375594)
(-0.0013682219 -1.0552453e-17 0.092729658)
(-0.0012419191 -1.0408716e-17 0.09109893)
(-0.0011250243 -9.4813238e-18 0.089441087)
(-0.0010176122 -9.1642286e-18 0.087722317)
(-0.00091916335 -8.2690303e-18 0.085910755)
(-0.00082881897 -7.4072996e-18 0.083971211)
(-0.00074555724 -6.9967326e-18 0.081861054)
(-0.00066831175 -6.6179198e-18 0.079526952)
(-0.0005960317 -5.9177518e-18 0.076902198)
(-0.00052772722 -4.8647708e-18 0.073904425)
(-0.00046248472 -3.6386918e-18 0.070433669)
(-0.00039950448 -2.2772943e-18 0.066370821)
(-0.00033808413 -9.0759063e-19 0.061576549)
(-0.00027767972 2.7277231e-19 0.055890646)
(-0.00021784853 1.177537e-18 0.049131661)
(-0.0001583799 1.2510157e-18 0.041096749)
(-9.9692714e-05 1.0503204e-18 0.031564898)
(-4.4441194e-05 7.4057154e-19 0.020316454)
(-3.8856838e-06 2.2277544e-19 0.0071927224)
(-6.8750188e-06 -1.7225252e-19 0.041158908)
(-8.6698605e-05 -9.0536724e-19 0.098022603)
(-0.00023053565 -1.456757e-18 0.13760338)
(-0.00042593872 -1.6313371e-18 0.16275228)
(-0.00066087542 -2.8833708e-18 0.17615334)
(-0.00092252252 -3.7452288e-18 0.18040651)
(-0.0011959539 -4.4011524e-18 0.17798723)
(-0.0014652703 -5.0063251e-18 0.17114628)
(-0.0017149059 -5.3521784e-18 0.16180421)
(-0.0019311676 -5.5855333e-18 0.15147984)
(-0.0021035216 -5.9172139e-18 0.14127052)
(-0.0022253885 -6.2203157e-18 0.13188141)
(-0.0022943604 -6.9788732e-18 0.12368863)
(-0.0023119124 -7.4303164e-18 0.11681751)
(-0.0022827525 -7.820507e-18 0.11122074)
(-0.0022139527 -8.3907628e-18 0.10674666)
(-0.0021139933 -8.820079e-18 0.10319351)
(-0.0019918204 -8.7704271e-18 0.10034873)
(-0.0018560081 -8.899907e-18 0.098014817)
(-0.0017140971 -9.3946116e-18 0.096023665)
(-0.0015721676 -9.8154288e-18 0.09424181)
(-0.001434665 -9.5998223e-18 0.092569087)
(-0.0013044508 -9.4919652e-18 0.090933033)
(-0.0011830264 -9.5077179e-18 0.089281207)
(-0.0010708428 -8.5664393e-18 0.087573141)
(-0.00096762279 -8.1996054e-18 0.085773005)
(-0.00087263983 -7.6391953e-18 0.083843525)
(-0.00078492971 -6.9856719e-18 0.081741164)
(-0.00070343438 -6.5106497e-18 0.079412367)
(-0.00062708745 -5.7288638e-18 0.076790563)
(-0.00055487266 -4.8104679e-18 0.073793704)
(-0.00048584666 -3.8123603e-18 0.070322237)
(-0.00041917822 -2.2684849e-18 0.0662575)
(-0.0003541479 -9.1413266e-19 0.061460616)
(-0.00029018541 2.2307945e-19 0.055771818)
(-0.00022686748 9.3447965e-19 0.049010161)
(-0.00016402528 1.193761e-18 0.040973934)
(-0.00010234063 1.0149726e-18 0.03144577)
(-4.4927483e-05 6.197959e-19 0.020216018)
(-3.7397066e-06 2.394218e-19 0.0071440301)
(-6.5064045e-06 -4.966371e-19 0.042290923)
(-8.2335038e-05 -1.59952e-18 0.1009532)
(-0.00021938137 -1.9918848e-18 0.14201626)
(-0.00040624029 -2.4415626e-18 0.16832097)
(-0.00063205031 -3.0522731e-18 0.18253169)
(-0.00088523721 -3.7634882e-18 0.18723463)
(-0.0011521612 -4.4010632e-18 0.18491024)
(-0.0014180399 -4.9182328e-18 0.17783998)
(-0.0016680688 -5.3534866e-18 0.1679999)
(-0.0018888347 -5.5969854e-18 0.15698178)
(-0.0020695718 -5.9760315e-18 0.14596244)
(-0.0022030166 -6.5133721e-18 0.1357225)
(-0.0022857468 -7.1075041e-18 0.12670171)
(-0.0023180447 -7.6088689e-18 0.11907306)
(-0.0023034013 -8.0019939e-18 0.11282002)
(-0.0022477914 -8.3972721e-18 0.10780605)
(-0.0021588361 -8.7792601e-18 0.10383137)
(-0.0020449413 -9.1406808e-18 0.10067539)
(-0.0019144916 -9.7286171e-18 0.098125828)
(-0.0017751631 -9.9066964e-18 0.095996217)
(-0.001633422 -9.5127551e-18 0.094134017)
(-0.0014942426 -9.5592313e-18 0.092421474)
(-0.0013610492 -9.434784e-18 0.090771459)
(-0.0012358525 -9.2941688e-18 0.089120393)
(-0.0011195023 -8.6413758e-18 0.08742009)
(-0.0010119991 -8.1335213e-18 0.085629874)
(-0.00091278504 -7.5727012e-18 0.083709744)
(-0.00082097942 -6.9427548e-18 0.081614857)
(-0.00073555307 -6.2961821e-18 0.079291205)
(-0.000655437 -5.6912979e-18 0.076672242)
(-0.00057959426 -4.9649747e-18 0.073676193)
(-0.00050705954 -3.716459e-18 0.070203899)
(-0.00043697386 -2.2490519e-18 0.066137155)
(-0.00036860049 -9.2358077e-19 0.06133755)
(-0.00030135038 1.7255335e-19 0.055645797)
(-0.00023482095 7.7467372e-19 0.048881564)
(-0.0001689017 1.229083e-18 0.040844533)
(-0.00010453437 9.9109569e-19 0.031321435)
(-4.5265054e-05 6.210896e-19 0.020112831)
(-3.5985298e-06 2.0938167e-19 0.0070950771)
(-6.1837175e-06 -1.0275788e-18 0.043367023)
(-7.8483978e-05 -2.0357446e-18 0.10374517)
(-0.00020948444 -3.0538865e-18 0.14623133)
(-0.00038865193 -4.3235183e-18 0.17365832)
(-0.00060610036 -3.9352819e-18 0.1886724)
(-0.00085131063 -4.1918058e-18 0.19384534)
(-0.001111756 -4.5907646e-18 0.19165872)
(-0.0013736611 -5.1158825e-18 0.18441775)
(-0.0016229639 -5.5517273e-18 0.17414542)
(-0.0018466066 -5.8273934e-18 0.16249787)
(-0.0020337481 -6.3528316e-18 0.15072431)
(-0.0021766494 -7.2007211e-18 0.13967608)
(-0.0022711001 -7.3357601e-18 0.12985434)
(-0.0023164 -7.6950151e-18 0.12147977)
(-0.0023149872 -7.9559073e-18 0.11456834)
(-0.0022718346 -8.0094721e-18 0.10900161)
(-0.0021937178 -8.3254189e-18 0.10458533)
(-0.0020884377 -9.1723864e-18 0.10109456)
(-0.0019640626 -9.8748111e-18 0.09830551)
(-0.0018282504 -9.8874044e-18 0.096015887)
(-0.0016877025 -9.834511e-18 0.094055597)
(-0.0015478032 -1.0313391e-17 0.092289836)
(-0.0014124698 -1.0053604e-17 0.090616557)
(-0.0012841937 -9.2354699e-18 0.088960307)
(-0.0011642335 -9.1303213e-18 0.087264277)
(-0.0010528926 -8.154656e-18 0.085482096)
(-0.00094981043 -7.3642024e-18 0.083570381)
(-0.0008542177 -6.8819319e-18 0.081482531)
(-0.00076513326 -6.2818251e-18 0.079163818)
(-0.00068149863 -5.7415885e-18 0.076547578)
(-0.00060226689 -4.8483295e-18 0.073552243)
(-0.00052645366 -3.4618151e-18 0.07007903)
(-0.00045317814 -2.2054769e-18 0.066010183)
(-0.00038168767 -9.2859995e-19 0.061207778)
(-0.00031137944 1.4296575e-19 0.055513049)
(-0.00024187471 8.9994797e-19 0.048746388)
(-0.00017313412 1.1611263e-18 0.040709128)
(-0.00010635692 9.7360214e-19 0.031192492)
(-4.5490516e-05 6.9132295e-19 0.020007335)
(-3.4682149e-06 1.8174096e-19 0.0070459856)
(-5.8983133e-06 -6.9049883e-19 0.044393667)
(-7.5055657e-05 -1.7327727e-18 0.10641386)
(-0.00020063494 -2.6185275e-18 0.15026919)
(-0.00037284353 -3.3785402e-18 0.17878631)
(-0.00058261923 -3.9148903e-18 0.19459486)
(-0.0008203425 -4.3601212e-18 0.20025192)
(-0.0010744559 -4.8306939e-18 0.19823736)
(-0.0013320913 -5.4323601e-18 0.19087477)
(-0.0015798933 -5.6996711e-18 0.18022704)
(-0.0018051978 -5.9862138e-18 0.16800731)
(-0.0019971938 -6.4146807e-18 0.15553092)
(-0.0021478205 -7.1522013e-18 0.14371542)
(-0.0022522565 -7.5748416e-18 0.13312095)
(-0.0023089924 -7.82212e-18 0.12401538)
(-0.0023195626 -8.141557e-18 0.11644821)
(-0.0022880414 -8.3370079e-18 0.11032113)
(-0.0022204018 -8.6063161e-18 0.10544826)
(-0.002123818 -9.1231607e-18 0.10160335)
(-0.0020059656 -9.6692358e-18 0.098554037)
(-0.0018743657 -9.8557269e-18 0.096084647)
(-0.0017358265 -9.8719835e-18 0.094009237)
(-0.0015960313 -1.005229e-17 0.092176818)
(-0.0014593085 -9.8607352e-18 0.090470527)
(-0.0013285905 -9.2731701e-18 0.088802584)
(-0.0012055377 -8.8943333e-18 0.087106827)
(-0.0010907715 -8.1598431e-18 0.085330421)
(-0.00098415407 -7.413413e-18 0.083425944)
(-0.00088505033 -6.8214395e-18 0.08134456)
(-0.00079254769 -6.25472e-18 0.079030519)
(-0.00070561221 -5.6596203e-18 0.076416865)
(-0.00062319531 -4.7770268e-18 0.073422154)
(-0.00054430075 -3.4304327e-18 0.069947943)
(-0.00046802852 -2.1629532e-18 0.065876923)
(-0.00039361341 -9.3260525e-19 0.061071668)
(-0.000320444 1.0976149e-19 0.055373977)
(-0.00024816914 8.3375434e-19 0.048605087)
(-0.00017683157 1.0878937e-18 0.040568228)
(-0.00010787956 9.4504601e-19 0.03105945)
(-4.5631217e-05 6.4178635e-19 0.019899895)
(-3.3473688e-06 1.9558693e-19 0.0069968424)
(-5.6437304e-06 -4.3670207e-19 0.045376196)
(-7.1980624e-05 -1.3550522e-18 0.10897205)
(-0.00019266752 -2.0631689e-18 0.15414731)
(-0.00035854904 -2.4501321e-18 0.18372399)
(-0.00056126733 -3.7516812e-18 0.20031648)
(-0.0007919767 -4.7908487e-18 0.20646726)
(-0.0010399701 -5.0440412e-18 0.20465242)
(-0.0012931951 -5.4332831e-18 0.19720966)
(-0.0015389605 -5.7855091e-18 0.1862359)
(-0.0017650135 -5.9711111e-18 0.17349505)
(-0.0019606443 -6.2914448e-18 0.16036293)
(-0.002117582 -6.5691677e-18 0.14781913)
(-0.0022305315 -7.3928349e-18 0.13648033)
(-0.0022973192 -7.9045958e-18 0.1266607)
(-0.0023187046 -8.2853518e-18 0.11844375)
(-0.0022979634 -8.6261627e-18 0.11175285)
(-0.0022403246 -9.066749e-18 0.10641261)
(-0.0021523427 -9.2313678e-18 0.10219796)
(-0.0020412561 -9.3886471e-18 0.098870538)
(-0.0019143671 -9.7404384e-18 0.096203549)
(-0.0017784864 -9.7535544e-18 0.093996962)
(-0.0016394935 -9.5126188e-18 0.092084676)
(-0.0015020478 -9.4513061e-18 0.090335388)
(-0.0013694722 -9.3510884e-18 0.088648805)
(-0.0012438096 -8.5570268e-18 0.086948872)
(-0.0011260058 -8.1043971e-18 0.085175616)
(-0.0010161622 -7.5895434e-18 0.083276949)
(-0.00091380051 -6.8406609e-18 0.081201315)
(-0.00081809529 -6.205978e-18 0.078891602)
(-0.00072805083 -5.4493612e-18 0.076280368)
(-0.00064262701 -4.6382038e-18 0.07328619)
(-0.00056082124 -3.3893351e-18 0.069810914)
(-0.00048171944 -2.1315582e-18 0.065737668)
(-0.00040454634 -9.3848386e-19 0.060929536)
(-0.00032868684 6.0300468e-20 0.055228933)
(-0.00025381962 6.4172726e-19 0.048458058)
(-0.00018008074 1.0176312e-18 0.040422278)
(-0.00010916045 9.0508243e-19 0.030922748)
(-4.5711466e-05 5.6307963e-19 0.019790806)
(-3.2380219e-06 2.0931901e-19 0.006947708)
(-5.4147905e-06 -8.2901371e-19 0.046319088)
(-6.9203741e-05 -1.7678654e-18 0.11143056)
(-0.00018545041 -2.661004e-18 0.1578806)
(-0.00034555306 -3.5773448e-18 0.18848788)
(-0.0005417613 -4.0290009e-18 0.20585284)
(-0.00076590276 -4.6375014e-18 0.21250358)
(-0.0010080197 -4.9885866e-18 0.21091091)
(-0.0012567952 -5.1200888e-18 0.2034232)
(-0.0015001594 -5.7382476e-18 0.19216654)
(-0.0017262714 -6.1807117e-18 0.17895017)
(-0.0019245693 -6.6656215e-18 0.16520541)
(-0.0020866586 -7.4269996e-18 0.15197005)
(-0.0022068774 -7.6545848e-18 0.13991482)
(-0.0022825028 -8.021904e-18 0.12939918)
(-0.0023136322 -8.2995277e-18 0.12054082)
(-0.0023028351 -8.3642791e-18 0.11328576)
(-0.0022546589 -8.6884287e-18 0.10747078)
(-0.0021750638 -9.2535998e-18 0.10287405)
(-0.0020708328 -9.6906051e-18 0.099253361)
(-0.0019489919 -9.7563238e-18 0.096372879)
(-0.0018162753 -9.7940467e-18 0.09402019)
(-0.0016786706 -9.8627803e-18 0.092015265)
(-0.0015410878 -9.5071933e-18 0.090212949)
(-0.0014071867 -9.2390791e-18 0.088500474)
(-0.0012793661 -8.7926928e-18 0.086791531)
(-0.0011588901 -8.0751785e-18 0.085018459)
(-0.0010461117 -7.518511e-18 0.083123926)
(-0.00094072757 -6.8380993e-18 0.081053163)
(-0.00084201644 -6.1500175e-18 0.07874735)
(-0.00074903578 -5.3361154e-18 0.076138334)
(-0.00066076274 -4.2461762e-18 0.073144584)
(-0.00057619429 -3.084367e-18 0.069668183)
(-0.00049440908 -2.0735824e-18 0.065592673)
(-0.0004146238 -9.4147382e-19 0.060781661)
(-0.00033622359 2.1254911e-20 0.055078227)
(-0.00025892311 6.1831463e-19 0.048305656)
(-0.00018295431 8.7234075e-19 0.040271672)
(-0.00011024305 9.4299361e-19 0.030782764)
(-4.5747605e-05 5.4591981e-19 0.019680313)
(-3.1399157e-06 1.5075008e-19 0.0068986256)
(-5.2075217e-06 -6.4772788e-19 0.047226134)
(-6.6681471e-05 -1.6086255e-18 0.11379862)
(-0.00017887703 -2.4445175e-18 0.16148189)
(-0.00033367811 -3.187209e-18 0.19309242)
(-0.00052386451 -3.7528883e-18 0.21121784)
(-0.00074185284 -4.169237e-18 0.21837225)
(-0.00097834973 -5.0456653e-18 0.21702006)
(-0.0012227033 -5.8602218e-18 0.20951754)
(-0.0014634211 -5.9988621e-18 0.19801582)
(-0.0016890692 -6.3436833e-18 0.18436481)
(-0.0018892652 -6.7114578e-18 0.17004685)
(-0.0020555518 -7.3699632e-18 0.15615434)
(-0.0021819855 -7.8492348e-18 0.14340976)
(-0.0022653888 -8.2046135e-18 0.13221669)
(-0.0023052918 -8.5746303e-18 0.12272685)
(-0.0023036413 -8.9401671e-18 0.11490967)
(-0.0022643667 -8.9384286e-18 0.10861535)
(-0.002192865 -9.2278965e-18 0.10362697)
(-0.002095464 -9.5857549e-18 0.0997003)
(-0.0019788818 -9.7340355e-18 0.096592303)
(-0.0018497129 -9.735312e-18 0.094079799)
(-0.0017139778 -9.7203047e-18 0.091970057)
(-0.0015767682 -9.6440739e-18 0.090104795)
(-0.0014420244 -8.9860678e-18 0.08835899)
(-0.0013124645 -8.6341857e-18 0.086635898)
(-0.0011896616 -8.0455618e-18 0.084859736)
(-0.0010742259 -7.2809724e-18 0.082967414)
(-0.00096604079 -6.7475151e-18 0.080900481)
(-0.00086450641 -6.0903885e-18 0.078598043)
(-0.00076874545 -5.3732355e-18 0.075990993)
(-0.00067776469 -4.4895182e-18 0.072997553)
(-0.00059056783 -3.3084904e-18 0.069519968)
(-0.00050622821 -2.0513658e-18 0.065442168)
(-0.00042395865 -9.4611518e-19 0.060628293)
(-0.00034314928 -1.5066683e-21 0.054922137)
(-0.00026355538 7.2249123e-19 0.048148197)
(-0.00018551092 9.5839218e-19 0.040116756)
(-0.0001111659 8.0861303e-19 0.030639822)
(-4.5749917e-05 5.7299929e-19 0.019568616)
(-3.0485862e-06 1.7545819e-19 0.0068496227)
(-5.0188656e-06 -4.0792602e-19 0.048100577)