/*--------------------------------*- C++ -*----------------------------------*\
| =========                 |                                                 |
| \\      /  F ield         | OpenFOAM: The Open Source CFD Toolbox           |
|  \\    /   O peration     | Version:  4.0                                   |
|   \\  /    A nd           | Web:      www.OpenFOAM.org                      |
|    \\/     M anipulation  |                                                 |
\*---------------------------------------------------------------------------*/
FoamFile
{
    version     2.0;
    format      ascii;
    class       volVectorField;
    location    "2000";
    object      U;
}
// * * * * * * * * * * * * * * * * * * * * * * * * * * * * * * * * * * * * * //

dimensions      [0 1 -1 0 0 0 0];

internalField   nonuniform List<vector> 
5000
(
(2.058479e-06 -6.5018769e-21 0.0062054439)
(8.4190648e-06 -1.956258e-20 0.018215788)
(1.7939744e-05 -3.3273055e-20 0.030329771)
(3.1025994e-05 -4.9367727e-20 0.04241832)
(4.7438644e-05 -5.8753126e-20 0.054337162)
(6.6842461e-05 -6.8703389e-20 0.065931037)
(8.8679293e-05 -7.9041049e-20 0.077039578)
(0.0001122101 -8.5138028e-20 0.087504798)
(0.00013652741 -1.0267673e-19 0.097179787)
(0.00016060143 -9.3189608e-20 0.10593796)
(0.00018334253 -8.688974e-20 0.11368194)
(0.00020367908 -8.179542e-20 0.12035102)
(0.00022064187 -7.224001e-20 0.12592614)
(0.00023344681 -6.3712455e-20 0.13043158)
(0.00024156629 -5.5530174e-20 0.1339328)
(0.00024477942 -4.7118849e-20 0.13653056)
(0.00024319263 -3.3004984e-20 0.13835187)
(0.00023722721 -9.8289097e-21 0.13953882)
(0.0002275725 -2.0999472e-21 0.14023673)
(0.00021510715 -3.7122664e-20 0.14058307)
(0.00020079643 -3.4626286e-20 0.14069838)
(0.00018558017 -2.1859777e-20 0.14068032)
(0.00017026944 -2.1206836e-20 0.14060117)
(0.00015546694 -1.8595247e-20 0.14050861)
(0.00014152829 -1.1760906e-20 0.1404293)
(0.00012856932 -5.0054014e-22 0.14037397)
(0.00011651368 2.2001167e-20 0.14034305)
(0.00010516351 4.7750366e-20 0.1403316)
(9.4276887e-05 1.4943414e-20 0.14033309)
(8.3632687e-05 9.2999056e-21 0.14034158)
(7.3072513e-05 8.9425794e-21 0.14035266)
(6.2521587e-05 -2.5532073e-20 0.14036357)
(5.1992399e-05 -1.4391007e-20 0.1403728)
(4.1575404e-05 -6.7253069e-21 0.14037967)
(3.1356125e-05 -3.7303952e-21 0.14038407)
(2.1764869e-05 -6.4564722e-21 0.14038715)
(1.2220173e-05 -4.8484709e-20 0.14038771)
(3.6229712e-06 -4.4012752e-21 0.14038584)
(-2.0939931e-06 -1.0315131e-21 0.14038152)
(-7.0838118e-06 8.5354882e-20 0.14037541)
(-1.2919506e-05 -1.6027114e-21 0.14036755)
(-1.7232905e-05 -1.1588605e-21 0.1403583)
(-1.9955647e-05 -8.5447351e-22 0.14034798)
(-2.1127224e-05 -3.2031804e-22 0.14033697)
(-2.0885341e-05 -4.8137689e-22 0.14032569)
(-1.9329633e-05 -4.800644e-22 0.14031453)
(-1.679827e-05 -3.7904196e-22 0.14030416)
(-1.3129163e-05 -2.7742291e-22 0.14029474)
(-9.4028962e-06 -3.0652699e-22 0.14028779)
(-3.7531041e-06 -3.0113926e-22 0.14028035)
(1.341221e-05 1.0070646e-21 0.0046563186)
(3.5696164e-05 3.5029873e-21 0.013857838)
(9.0288892e-05 7.269588e-21 0.023372903)
(0.00016512525 8.2041862e-21 0.033150818)
(0.00026295389 1.0085777e-20 0.043126033)
(0.00038275535 3.5604668e-21 0.053216497)
(0.00052187515 -6.8377654e-21 0.06332274)
(0.00067586587 8.6333716e-21 0.073328038)
(0.00083875476 -1.2855848e-20 0.08310019)
(0.0010030816 -2.4596851e-20 0.092495304)
(0.00116027 -4.6282514e-20 0.10136386)
(0.0013012242 -7.0516222e-20 0.10955901)
(0.0014171105 -3.7455826e-20 0.11694657)
(0.0015002484 -1.6582115e-20 0.12341596)
(0.0015450052 9.7288894e-24 0.12889076)
(0.0015485525 7.796893e-21 0.13333731)
(0.0015113366 2.7858634e-20 0.13677013)
(0.0014371408 4.2602011e-20 0.13925268)
(0.0013326731 -4.11841e-20 0.14089274)
(0.0012067078 -1.9151071e-19 0.14183244)
(0.0010689011 -2.1984001e-19 0.14223377)
(0.00092850202 -5.6645842e-20 0.14226152)
(0.00079321844 -3.3443269e-20 0.14206642)
(0.00066846916 -3.1038339e-20 0.14177169)
(0.00055715761 -1.7133381e-20 0.1414653)
(0.00045995026 2.978147e-21 0.14119922)
(0.00037591051 3.9396954e-20 0.14099474)
(0.00030326161 9.8745357e-20 0.14085161)
(0.00024005877 1.8408266e-20 0.14075784)
(0.00018463564 -2.4636994e-21 0.14069798)
(0.00013579357 -1.6929816e-20 0.14065823)
(9.2787063e-05 -1.0869107e-19 0.1406287)
(5.5215295e-05 -3.3162584e-20 0.14060345)
(2.3181609e-05 -1.4789105e-20 0.14057956)
(4.5880679e-06 -4.4424112e-21 0.14055535)
(-1.0149749e-05 5.2285905e-21 0.14053086)
(-3.0312234e-05 2.6596751e-21 0.14050634)
(-4.6480877e-05 4.6117508e-21 0.1404822)
(-5.7575934e-05 -1.435857e-21 0.14045836)
(-6.4004051e-05 -3.4402797e-20 0.14043487)
(-6.7512554e-05 -1.0952847e-19 0.14041214)
(-6.8045038e-05 -1.02934e-20 0.14039044)
(-6.604636e-05 2.6912403e-22 0.14036992)
(-6.1872394e-05 4.2187042e-20 0.14035072)
(-5.6042033e-05 7.7734754e-22 0.14033308)
(-4.8550721e-05 -8.2989869e-22 0.14031702)
(-4.041017e-05 4.7751899e-22 0.14030327)
(-3.0334415e-05 -4.8751166e-22 0.14029108)
(-2.1577879e-05 4.5360924e-22 0.14028296)
(-8.9268395e-06 -5.092461e-22 0.14027234)
(7.5582413e-06 -1.53103e-20 0.0047702296)
(5.5438669e-07 -4.5527095e-20 0.014175358)
(-1.9748748e-06 -7.738258e-20 0.023875399)
(-4.8483573e-06 -1.0356665e-19 0.033815152)
(-8.6326112e-06 -1.3449632e-19 0.043926959)
(-1.3319374e-05 -1.6458243e-19 0.054130104)
(-1.8779958e-05 -1.9788502e-19 0.064330571)
(-2.4887037e-05 -2.3503191e-19 0.07442135)
(-3.1600562e-05 -2.7001083e-19 0.084283455)
(-3.9063202e-05 -2.8077177e-19 0.093787929)
(-4.7699413e-05 -2.8992382e-19 0.10279911)
(-5.8295828e-05 -3.0667819e-19 0.11117945)
(-7.2030799e-05 -2.1008119e-19 0.11879612)
(-9.0418476e-05 -1.128859e-19 0.12552942)
(-0.00011514323 -1.1752283e-20 0.13128259)
(-0.00014777777 9.1552637e-20 0.13599224)
(-0.00018941176 2.0222891e-19 0.13963803)
(-0.00024025327 1.7442315e-19 0.14224953)
(-0.00029929083 1.9880928e-19 0.14390845)
(-0.00036412031 2.3647029e-19 0.14474448)
(-0.00043102154 3.0860315e-19 0.14492418)
(-0.00049532713 1.235852e-19 0.14463373)
(-0.00055205543 3.775234e-20 0.14405835)
(-0.00059669425 -6.2095128e-21 0.14336202)
(-0.0006259619 -2.5847691e-20 0.14267195)
(-0.00063834954 -3.8521474e-20 0.14207064)
(-0.0006342932 -6.0113982e-20 0.1415969)
(-0.00061592872 -7.7217955e-20 0.14125422)
(-0.00058651573 -6.6857282e-20 0.14102341)
(-0.00054972106 -1.2826909e-19 0.14087548)
(-0.00050895367 -2.6575699e-19 0.1407817)
(-0.00046693763 1.3422008e-19 0.14071919)
(-0.00042538479 7.4779537e-24 0.14067267)
(-0.00038768836 -8.1368699e-21 0.14063341)
(-0.000351025 1.2504848e-20 0.14059701)
(-0.00031498228 7.8683351e-20 0.14056082)
(-0.00028360665 3.6902784e-19 0.14052562)
(-0.00025543609 2.5124172e-20 0.14049167)
(-0.00022987646 -1.7888761e-19 0.14045927)
(-0.00020603612 -7.384616e-20 0.14042853)
(-0.00018401816 1.9364587e-19 0.14039953)
(-0.0001633187 3.9884351e-21 0.14037243)
(-0.00014369383 -9.0145718e-21 0.14034738)
(-0.00012463882 -1.4143957e-19 0.14032441)
(-0.00010643023 -5.2442496e-21 0.14030383)
(-8.7866756e-05 5.7450476e-21 0.14028529)
(-7.0847304e-05 1.98073e-19 0.14027002)
(-5.1580442e-05 7.1001427e-21 0.1402562)
(-3.6298599e-05 1.4941399e-19 0.1402477)
(-1.5451116e-05 1.82385e-21 0.1402347)
(6.2722058e-07 -3.858474e-20 0.0049676231)
(-1.0626852e-06 -1.161483e-19 0.014763274)
(-4.8212671e-06 -1.9710379e-19 0.024866407)
(-1.1533259e-05 -2.8944634e-19 0.035218097)
(-2.1763858e-05 -3.806521e-19 0.045745974)
(-3.6053859e-05 -4.6043734e-19 0.056363601)
(-5.493931e-05 -4.9417337e-19 0.066970305)
(-7.8936584e-05 -4.9862713e-19 0.07745164)
(-0.00010851905 -5.0838419e-19 0.087680679)
(-0.00014409088 -5.3327114e-19 0.097520369)
(-0.00018596029 -5.4869197e-19 0.10682715)
(-0.00023431467 -5.7621447e-19 0.11545605)
(-0.00028919715 -6.1220331e-19 0.12326733)
(-0.00035048086 -6.8524074e-19 0.13013471)
(-0.00041783323 -5.7184496e-19 0.13595484)
(-0.00049065983 -4.7596903e-19 0.14065742)
(-0.00056801863 -4.1363301e-19 0.144215)
(-0.00064850507 -3.9246747e-19 0.14665078)
(-0.00073012614 -4.0287181e-19 0.14804265)
(-0.00081020489 -1.1666577e-19 0.14852165)
(-0.00088537793 6.4845911e-20 0.14826343)
(-0.00095175019 1.2545075e-20 0.14747269)
(-0.0010052477 -1.8475702e-20 0.14636224)
(-0.0010421525 -5.1122017e-20 0.14512995)
(-0.001059731 -1.2450854e-19 0.14393815)
(-0.0010568006 -2.325623e-19 0.14289966)
(-0.0010340564 -4.3392192e-19 0.14207344)
(-0.00099402596 -7.8732805e-19 0.14147004)
(-0.00094062457 -6.569779e-19 0.14106466)
(-0.00087843627 -4.0328014e-19 0.14081343)
(-0.00081191738 -4.8037872e-19 0.14066844)
(-0.00074482882 2.0933197e-20 0.14058829)
(-0.00067919462 -6.3843914e-21 0.14054275)
(-0.00061746649 -4.6222009e-21 0.14051299)
(-0.00056014853 3.5438663e-20 0.14048919)
(-0.00050602078 1.4774497e-19 0.14046643)
(-0.00045584928 5.137814e-19 0.14044327)
(-0.00040916481 -2.2863657e-19 0.14041944)
(-0.00036578182 -1.2920735e-19 0.14039531)
(-0.00032512103 2.8486791e-19 0.14037127)
(-0.00028713516 5.9857073e-19 0.14034758)
(-0.00025145479 6.5007281e-20 0.14032457)
(-0.00021813095 1.9737042e-19 0.14030265)
(-0.00018631745 -1.7240047e-19 0.14028191)
(-0.0001570082 -7.0117605e-21 0.1402631)
(-0.00012763609 1.3598191e-19 0.14024555)
(-0.00010202674 1.7471877e-19 0.14023138)
(-7.3329307e-05 1.367881e-20 0.14021778)
(-5.1142805e-05 1.4557181e-19 0.14020993)
(-2.224598e-05 4.2257791e-21 0.14019561)
(6.3563206e-07 -1.9603151e-20 0.0052240666)
(-1.4471871e-06 -5.8939374e-20 0.01552811)
(-6.4585288e-06 -1.004038e-19 0.02615794)
(-1.5484843e-05 -1.5683317e-19 0.03705088)
(-2.9307116e-05 -2.1769994e-19 0.048129692)
(-4.8707436e-05 -2.8789754e-19 0.059301797)
(-7.4489662e-05 -3.3820481e-19 0.070458974)
(-0.00010746095 -3.5916438e-19 0.081477729)
(-0.00014839845 -3.8118404e-19 0.092220583)
(-0.00019800477 -4.1490015e-19 0.10253851)
(-0.00025685227 -4.3762298e-19 0.1122748)
(-0.00032531606 -4.3861664e-19 0.12127056)
(-0.00040349789 -5.5857702e-19 0.129372)
(-0.00049114422 -6.9091546e-19 0.13643934)
(-0.0005875625 -6.8987748e-19 0.14235723)
(-0.00069154115 -6.5424821e-19 0.14704583)
(-0.00080127978 -6.2563733e-19 0.15047146)
(-0.00091433638 -4.7342524e-19 0.15265538)
(-0.001027603 -3.5640381e-19 0.1536788)
(-0.0011373261 -2.0017433e-19 0.1536822)
(-0.0012391974 -1.3252676e-19 0.15285757)
(-0.0013285483 -1.7542537e-19 0.15143321)
(-0.0014006741 -1.6572166e-19 0.14965222)
(-0.0014512959 -2.0606314e-19 0.14774747)
(-0.0014771185 -2.9709778e-19 0.14591754)
(-0.0014763914 -4.5908331e-19 0.14430808)
(-0.0014493314 -7.385094e-19 0.14300261)
(-0.0013982573 -1.1555938e-18 0.14202432)
(-0.001327339 -1.0854326e-18 0.14134783)
(-0.0012419771 -6.7344152e-19 0.14091724)
(-0.0011479424 -5.2125543e-19 0.14066533)
(-0.0010506936 -4.0962826e-19 0.14052922)
(-0.00095424398 -1.152841e-19 0.14045956)
(-0.00086161144 -1.2632396e-20 0.14042307)
(-0.00077480789 5.155827e-20 0.14040059)
(-0.00069411468 1.5872895e-19 0.14038253)
(-0.00061984388 3.2454065e-19 0.14036496)
(-0.00055162899 -3.5908276e-19 0.14034666)
(-0.00048914156 8.0176822e-20 0.14032764)
(-0.00043167488 3.8467891e-19 0.14030823)
(-0.00037885398 5.577493e-19 0.14028873)
(-0.00032984517 1.2147785e-19 0.14026938)
(-0.00028480891 3.9731031e-19 0.1402507)
(-0.00024197053 3.2193136e-20 0.14023261)
(-0.00020333629 -5.9214645e-22 0.14021621)
(-0.000164336 1.236055e-19 0.14020031)
(-0.00013122185 -3.8766209e-20 0.14018787)
(-9.3944095e-05 1.1854832e-20 0.14017513)
(-6.5157109e-05 -5.3468966e-21 0.14016813)
(-2.8871002e-05 4.0583002e-21 0.14015287)
(5.937434e-07 9.4978934e-22 0.0054559165)
(-1.3130434e-06 2.8107982e-21 0.01622348)
(-5.9013727e-06 2.2309601e-21 0.027338357)
(-1.4207886e-05 5.1662454e-21 0.038735785)
(-2.7007012e-05 3.9767053e-22 0.050335563)
(-4.5101513e-05 -2.0781952e-20 0.06204109)
(-6.934917e-05 -6.7787254e-20 0.073738852)
(-0.00010065436 -1.1402815e-19 0.085298567)
(-0.00013994576 -1.541113e-19 0.09657425)
(-0.00018814137 -1.9329154e-19 0.10740647)
(-0.00024609929 -2.2516243e-19 0.11762611)
(-0.00031455173 -2.5052256e-19 0.12705991)
(-0.000394019 -2.7328828e-19 0.13553801)
(-0.00048470424 -2.8295857e-19 0.14290347)
(-0.0005863717 -2.9704231e-19 0.14902358)
(-0.00069821459 -2.2701049e-19 0.15380226)
(-0.00081872377 -1.1594491e-19 0.15719238)
(-0.00094557672 5.4383094e-20 0.15920639)
(-0.0010755682 3.3220204e-19 0.15992315)
(-0.0012046111 3.2840141e-19 0.15948879)
(-0.0013278372 3.290995e-19 0.15811003)
(-0.0014398215 6.5647388e-20 0.15603904)
(-0.0015349484 -9.753375e-20 0.15355098)
(-0.0016079141 -2.2859821e-19 0.1509167)
(-0.0016543279 -3.7730469e-19 0.14837513)
(-0.0016713285 -5.3982037e-19 0.14611009)
(-0.0016580999 -7.3299579e-19 0.14423625)
(-0.0016161388 -8.9153878e-19 0.14279673)
(-0.0015491598 -8.921626e-19 0.14177253)
(-0.0014625971 -7.1375875e-19 0.14110084)
(-0.0013627471 -5.3593686e-19 0.14069736)
(-0.0012559214 -3.7714447e-19 0.14047684)
(-0.0011474497 -1.5884909e-19 0.14036759)
(-0.0010412337 -1.8294652e-20 0.1403178)
(-0.00093993483 6.0452271e-20 0.14029523)
(-0.00084470218 1.5271606e-19 0.14028255)
(-0.00075603283 2.259652e-19 0.14027187)
(-0.00067378887 -1.6745538e-19 0.1402603)
(-0.00059776998 4.3768232e-20 0.14024727)
(-0.00052739635 1.4051605e-20 0.140233)
(-0.00046251402 4.770008e-19 0.14021789)
(-0.00040202171 1.5981754e-19 0.14020223)
(-0.00034671877 3.6488295e-19 0.14018674)
(-0.00029376542 5.0117559e-20 0.1401712)
(-0.00024672264 1.2888027e-21 0.14015715)
(-0.00019874279 -1.3314728e-20 0.14014293)
(-0.00015865512 -2.7602231e-20 0.14013216)
(-0.00011350093 1.0531999e-20 0.14012048)
(-7.8395382e-05 -2.6949409e-21 0.14011427)
(-3.5268195e-05 3.8957634e-21 0.14009825)
(5.5561686e-07 1.6359395e-20 0.0056774978)
(-1.2613623e-06 4.891234e-20 0.016888804)
(-5.6683438e-06 8.1038632e-20 0.028469034)
(-1.366088e-05 1.2188437e-19 0.040351808)
(-2.5995836e-05 1.6765736e-19 0.052454583)
(-4.3465991e-05 1.9367927e-19 0.064677529)
(-6.6928216e-05 1.9896703e-19 0.076902836)
(-9.7299485e-05 1.8258258e-19 0.088994659)
(-0.00013554068 1.7791141e-19 0.10079995)
(-0.00018263024 1.8395203e-19 0.1121505)
(-0.00023952437 1.4431377e-19 0.1228665)
(-0.0003071012 1.2735809e-19 0.13276195)
(-0.00038608468 1.1836413e-19 0.1416522)
(-0.0004769456 1.0998387e-19 0.14936376)
(-0.00057977912 -2.4510019e-20 0.15574616)
(-0.00069416086 8.7064205e-20 0.16068533)
(-0.00081899021 1.9937251e-19 0.1641175)
(-0.00095233691 2.4674646e-19 0.16604165)
(-0.0010913164 3.489538e-19 0.16652866)
(-0.0012320271 4.9622659e-19 0.16572432)
(-0.0013695893 5.5428408e-19 0.16384435)
(-0.0014983205 2.2422232e-19 0.16116021)
(-0.0016120755 -8.033564e-21 0.15797608)
(-0.0017047469 -1.7527649e-19 0.15459977)
(-0.001770897 -3.0836565e-19 0.15131162)
(-0.0018064438 -3.8402979e-19 0.14833691)
(-0.0018092868 -3.6772259e-19 0.14582678)
(-0.0017797361 -1.7646188e-19 0.14385119)
(-0.0017206108 -3.1240252e-19 0.14240508)
(-0.0016369242 -6.3059959e-19 0.14142561)
(-0.0015351412 -6.6648114e-19 0.1408162)
(-0.0014222307 -1.1784273e-19 0.14047115)
(-0.0013046503 -9.0410433e-20 0.14029548)
(-0.001187526 6.9504278e-20 0.1402161)
(-0.0010744713 4.1360697e-19 0.1401844)
(-0.00096747686 1.9609631e-19 0.14017241)
(-0.00086743828 2.0855376e-19 0.14016632)
(-0.00077439408 1.2130506e-19 0.14016046)
(-0.00068818129 -1.4088002e-19 0.14015309)
(-0.00060807941 1.5930435e-21 0.14014404)
(-0.00053412984 4.0724791e-19 0.14013365)
(-0.00046468015 1.6999789e-19 0.14012213)
(-0.00040136497 1.1092062e-19 0.14011034)
(-0.00033999688 -1.2228701e-19 0.14009784)
(-0.00028597052 -1.0075195e-20 0.14008656)
(-0.00023016233 -1.9873342e-19 0.14007444)
(-0.00018383417 6.1064579e-20 0.14006558)
(-0.00013165868 1.6939322e-20 0.14005528)
(-9.0650483e-05 2.553149e-19 0.14004995)
(-4.1299199e-05 7.1804417e-21 0.14003341)
(5.1895321e-07 1.1279561e-20 0.0058828566)
(-1.170886e-06 3.412255e-20 0.017506439)
(-5.2723683e-06 5.9335132e-20 0.029520307)
(-1.272271e-05 8.9273842e-20 0.041856961)
(-2.4242374e-05 1.2345065e-19 0.054432133)
(-4.0593127e-05 1.6296955e-19 0.067143528)
(-6.2607092e-05 2.0659274e-19 0.07986996)
(-9.1186337e-05 2.2071754e-19 0.0924711)
(-0.00012729212 2.3175072e-19 0.1047881)
(-0.00017192524 3.1836529e-19 0.11664538)
(-0.00022609482 4.4646384e-19 0.12785396)
(-0.0002907717 5.1973773e-19 0.13821665)
(-0.00036682308 6.0322007e-19 0.14753552)
(-0.00045492344 5.3823594e-19 0.15562168)
(-0.00055544001 3.0780594e-19 0.16230752)
(-0.00066829068 1.0033655e-19 0.16746083)
(-0.00079277998 -5.2188344e-20 0.1709998)
(-0.00092742505 -2.99866e-19 0.17290734)
(-0.0010697934 -5.9210874e-19 0.17324227)
(-0.0012163856 -5.976788e-19 0.17214487)
(-0.0013626056 -2.3196463e-19 0.1698341)
(-0.0015028659 -6.482989e-20 0.16659492)
(-0.0016308611 -9.6408873e-20 0.16275568)
(-0.0017400261 -1.5841093e-19 0.15865774)
(-0.0018241575 -2.5226544e-19 0.15462154)
(-0.001878134 -3.0621357e-19 0.1509148)
(-0.0018986259 -3.03389e-19 0.14772846)
(-0.0018846601 -1.5092961e-19 0.1451647)
(-0.0018378973 5.6817196e-20 0.1432391)
(-0.0017625112 -3.1857585e-19 0.14189572)
(-0.0016646235 -3.1850503e-19 0.14103145)
(-0.0015513892 8.7375751e-20 0.14052369)
(-0.0014299387 -1.8438074e-24 0.1402549)
(-0.0013063878 9.9987013e-20 0.1401292)
(-0.0011853206 3.3089433e-19 0.14007891)
(-0.0010695914 3.0117325e-19 0.14006261)
(-0.00096068054 5.032011e-19 0.14005847)
(-0.00085894638 3.7381443e-19 0.14005673)
(-0.00076445288 -8.5740161e-21 0.14005395)
(-0.0006763454 3.8777211e-19 0.14004931)
(-0.00059503689 3.9525034e-19 0.14004303)
(-0.00051817762 3.9071079e-19 0.14003521)
(-0.0004484159 -3.2313655e-19 0.14002685)
(-0.00038003972 -3.0049877e-19 0.1400173)
(-0.00032027673 -2.6029369e-20 0.14000876)
(-0.00025788643 -1.5222297e-19 0.13999888)
(-0.00020616625 8.1213172e-20 0.13999196)
(-0.00014796253 2.1433205e-20 0.13998323)
(-0.00010163688 2.0616021e-19 0.13997882)
(-4.6810266e-05 9.3268281e-21 0.13996193)
(4.8752127e-07 -2.3566449e-20 0.0060758749)
(-1.1022782e-06 -6.9418127e-20 0.018087419)
(-4.9670572e-06 -1.1516672e-19 0.030509936)
(-1.1993749e-05 -1.620457e-19 0.043275071)
(-2.2868788e-05 -2.1714604e-19 0.05629718)
(-3.8321775e-05 -2.5095094e-19 0.06947195)
(-5.915408e-05 -2.6410268e-19 0.082675395)
(-8.6240829e-05 -3.1804495e-19 0.095763431)
(-0.00012052371 -3.8299384e-19 0.1085723)
(-0.00016299575 -4.7012855e-19 0.12092011)
(-0.00021467659 -5.2530248e-19 0.13260997)
(-0.00027657424 -5.398858e-19 0.14343492)
(-0.00034962921 -5.6559564e-19 0.1531852)
(-0.00043463678 -5.0619073e-19 0.16165801)
(-0.00053214306 -2.7892165e-19 0.16866986)
(-0.00064231286 -5.5708142e-19 0.17407114)
(-0.00076477044 -7.9100333e-19 0.17776208)
(-0.00089841944 -9.9429245e-19 0.17970846)
(-0.0010412624 -1.2744516e-18 0.17995483)
(-0.0011902472 -1.3827404e-18 0.17863234)
(-0.0013411825 -1.1708997e-18 0.17595851)
(-0.0014887715 -6.2526755e-19 0.17222646)
(-0.00162681 -3.3570645e-19 0.16778336)
(-0.0017485751 -2.048058e-19 0.16299957)
(-0.0018474024 -1.2734552e-19 0.15823256)
(-0.0019173989 -4.6976368e-19 0.15379147)
(-0.0019542001 -9.0177601e-19 0.14990828)
(-0.0019556358 -5.3079733e-19 0.14672091)
(-0.0019221648 1.4637022e-19 0.14427085)
(-0.0018569443 -2.2100185e-20 0.14251535)
(-0.001765458 1.410394e-19 0.14135085)
(-0.0016547228 8.9936104e-20 0.1406424)
(-0.0015322361 3.9831437e-20 0.14025223)
(-0.0014048796 6.1212237e-20 0.14006149)
(-0.0012781448 -3.8743824e-20 0.13998158)
(-0.0011557373 3.143915e-19 0.13995512)
(-0.0010397873 6.6786382e-19 0.13995004)
(-0.00093099618 1.4913202e-19 0.13995099)
(-0.00082973716 6.3024249e-20 0.13995194)
(-0.00073496242 4.1033251e-19 0.13995106)
(-0.00064757316 9.0799642e-20 0.13994834)
(-0.00056441914 3.1374314e-19 0.13994373)
(-0.00048926969 -2.8654453e-19 0.13993835)
(-0.00041490394 -2.8933174e-19 0.13993142)
(-0.00035024069 -3.3506419e-20 0.13992526)
(-0.00028224792 5.7930791e-20 0.13991746)
(-0.0002258032 -1.6613229e-21 0.13991227)
(-0.00016244038 1.6841017e-20 0.13990508)
(-0.00011136444 -8.8095947e-20 0.13990147)
(-5.1766796e-05 7.2336243e-21 0.13988427)
(4.5993671e-07 -2.0845692e-20 0.0062574213)
(-1.0377571e-06 -6.1698246e-20 0.01863427)
(-4.6804126e-06 -1.0544595e-19 0.031442079)
(-1.1308192e-05 -1.5192913e-19 0.044611844)
(-2.1574555e-05 -2.0165626e-19 0.058056819)
(-3.6176818e-05 -2.5506827e-19 0.071671032)
(-5.5884658e-05 -3.0900406e-19 0.085328146)
(-8.1543355e-05 -3.6484831e-19 0.098880885)
(-0.00011406899 -4.2377831e-19 0.11216126)
(-0.00015443731 -4.990255e-19 0.12498195)
(-0.0002036638 -5.919732e-19 0.1371391)
(-0.00026277132 -5.8982665e-19 0.14841712)
(-0.00033274249 -6.3269209e-19 0.1585957)
(-0.00041445191 -7.4636174e-19 0.16745942)
(-0.00050857277 -8.1733131e-19 0.17481015)
(-0.00061545495 -8.2553646e-19 0.18048194)
(-0.00073497387 -8.7011961e-19 0.18435758)
(-0.00086635437 -8.9586762e-19 0.18638558)
(-0.0010079825 -8.7673996e-19 0.186595)
(-0.0011572305 -7.7834361e-19 0.18510561)
(-0.0013103339 -8.2083408e-19 0.18212998)
(-0.0014623669 -6.5035217e-19 0.17796501)
(-0.0016073685 -5.0493618e-19 0.17297181)
(-0.001738659 -4.0735843e-19 0.16754509)
(-0.0018493516 -3.2622666e-19 0.16207559)
(-0.0019330342 -3.0277376e-19 0.15691161)
(-0.0019845331 -4.5941216e-19 0.15232591)
(-0.0020006432 -4.2399395e-19 0.14849391)
(-0.0019806809 -9.2682912e-20 0.14548683)
(-0.0019267208 5.0077162e-20 0.1432802)
(-0.0018434141 1.0845646e-19 0.14177567)
(-0.0017373592 8.6845531e-20 0.14083088)
(-0.0016161218 5.7281049e-20 0.14029106)
(-0.0014871013 6.1090357e-20 0.14001543)
(-0.0013565743 6.1151959e-20 0.13989354)
(-0.0012290725 3.175924e-19 0.13985012)
(-0.0011074461 6.085898e-19 0.13984068)
(-0.00099279139 2.1366218e-19 0.13984266)
(-0.00088589513 1.0648712e-19 0.13984648)
(-0.00078548791 3.4090362e-19 0.13984883)
(-0.00069303631 1.1080552e-19 0.13984925)
(-0.00060453782 2.4074926e-19 0.1398475)
(-0.00052486069 -2.6934475e-19 0.13984475)
(-0.00044540003 -2.7889165e-19 0.13984017)
(-0.00037650396 -4.2055977e-20 0.13983611)
(-0.00030373487 2.743818e-20 0.13983021)
(-0.0002431075 -2.6507539e-20 0.13982654)
(-0.0001753062 1.317965e-20 0.13982078)
(-0.00011998122 -6.6538153e-20 0.13981784)
(-5.6202693e-05 6.0464825e-21 0.13980033)
(4.3585125e-07 -2.7802965e-20 0.0064291917)
(-9.8270051e-07 -8.2530555e-20 0.019151937)
(-4.4346561e-06 -1.40678e-19 0.032324905)
(-1.0718822e-05 -2.0246446e-19 0.045878585)
(-2.0458759e-05 -2.572126e-19 0.059725323)
(-3.432187e-05 -3.155568e-19 0.073757742)
(-5.3047142e-05 -3.7125307e-19 0.087847491)
(-7.744965e-05 -3.8610081e-19 0.10184452)
(-0.00010841764 -4.0007468e-19 0.11557717)
(-0.00014690368 -3.5944236e-19 0.12885329)
(-0.00019390871 -2.4245741e-19 0.14146292)
(-0.00025045494 -1.1987108e-19 0.15318276)
(-0.00031754484 1.7159923e-20 0.16378299)
(-0.00039610113 -9.7806733e-20 0.17303678)
(-0.00048688328 -4.5746711e-19 0.18073254)
(-0.00059037682 -5.0188928e-19 0.18668904)
(-0.00070665116 -5.0279558e-19 0.19077248)
(-0.00083519052 -1.1883372e-19 0.19291433)
(-0.00097470623 3.9989383e-20 0.19312779)
(-0.00112295 3.1541189e-19 0.19151979)
(-0.0012765648 -2.3690457e-19 0.1882955)
(-0.0014310162 -4.7945245e-19 0.18375211)
(-0.0015806585 -6.2104651e-19 0.17826058)
(-0.0017189791 -7.7142265e-19 0.1722356)
(-0.001839044 -1.0381809e-18 0.16609729)
(-0.0019341273 -9.2569937e-19 0.16023022)
(-0.0019984588 5.757311e-20 0.15494661)
(-0.0020279838 -4.1498118e-20 0.15045994)
(-0.0020209994 -6.1002157e-19 0.14687351)
(-0.0019785268 -1.2474859e-19 0.14418513)
(-0.0019042997 6.1299174e-20 0.14230649)
(-0.0018043101 8.9406607e-20 0.14109269)
(-0.0016859494 9.6834356e-20 0.14037568)
(-0.0015568933 1.7843112e-19 0.13999468)
(-0.0014240399 4.6959693e-19 0.13981741)
(-0.0012926731 3.7705102e-19 0.13974924)
(-0.0011663904 5.8801679e-19 0.13973143)
(-0.0010467191 7.2553279e-19 0.13973251)
(-0.00093495428 3.6181491e-19 0.13973825)
(-0.0008296143 7.9835917e-20 0.13974327)
(-0.0007327776 3.9387957e-19 0.1397464)
(-0.00063962514 1.91165e-19 0.13974717)
(-0.00055602004 -4.5881714e-19 0.13974674)
(-0.00047217979 -2.8466703e-19 0.13974427)
(-0.00039956636 -5.0972432e-20 0.13974205)
(-0.00032271225 1.1494354e-20 0.13973789)
(-0.00025836651 -3.0591929e-20 0.13973556)
(-0.00018673228 1.0658514e-20 0.13973111)
(-0.000127614 -4.8868345e-20 0.13972874)
(-6.0158599e-05 5.3881771e-21 0.13971089)
(4.1459754e-07 -1.1765776e-20 0.006592284)
(-9.3363419e-07 -3.5445699e-20 0.019643665)
(-4.2155209e-06 -5.9919334e-20 0.033163838)
(-1.0192602e-05 -8.4586605e-20 0.047082896)
(-1.9461264e-05 -1.0870169e-19 0.061312434)
(-3.2661272e-05 -1.3339878e-19 0.075743871)
(-5.050292e-05 -1.5727543e-19 0.090247103)
(-7.3772227e-05 -1.7852137e-19 0.10466965)
(-0.0001033294 -2.0385397e-19 0.11883659)
(-0.00014010234 -2.2560903e-19 0.13255152)
(-0.00018507324 -2.3630408e-19 0.14559896)
(-0.00023925558 -2.26733e-19 0.15774871)
(-0.0003036588 -1.9627311e-19 0.16876236)
(-0.00037923527 -2.2983188e-19 0.17840262)
(-0.0004668049 -2.7734522e-19 0.18644553)
(-0.00056695394 -3.1443897e-19 0.19269561)
(-0.00067990354 -3.701028e-19 0.19700332)
(-0.00080534795 -3.4956438e-19 0.19928367)
(-0.00094227083 -3.2883171e-19 0.1995339)
(-0.0010887553 -3.8420566e-19 0.19784734)
(-0.0012418167 -3.4991507e-19 0.19442001)
(-0.0013973017 -4.5933084e-19 0.18954678)
(-0.0015499048 -5.4709333e-19 0.18360498)
(-0.0016933503 -5.9682717e-19 0.17702548)
(-0.0018207724 -6.0358476e-19 0.17025404)
(-0.0019252861 -5.7312726e-19 0.16370847)
(-0.0020007026 -3.4364007e-19 0.15773851)
(-0.0020422938 -1.4109727e-19 0.15259536)
(-0.0020474808 -2.035821e-19 0.14841567)
(-0.0020163084 -1.5213286e-19 0.1452224)
(-0.0019515806 2.6187924e-20 0.1429413)
(-0.0018585733 8.3685409e-20 0.14142931)
(-0.0017443173 1.1656155e-19 0.14050904)
(-0.0016165522 1.9625459e-19 0.1400022)
(-0.0014826238 4.0200944e-19 0.13975541)
(-0.0013484631 4.3277211e-19 0.13965396)
(-0.0012184069 6.1640678e-19 0.13962322)
(-0.0010944347 6.5494845e-19 0.13962121)
(-0.00097841718 3.9101078e-19 0.13962786)
(-0.00086869828 2.0063451e-19 0.13963503)
(-0.00076797092 3.607294e-19 0.13964052)
(-0.00067069639 2.7105051e-19 0.13964353)
(-0.00058357899 -5.2661729e-19 0.13964513)
(-0.00049590935 -2.8906943e-19 0.13964455)
(-0.00041995398 -5.9523516e-20 0.13964394)
(-0.00033955587 2.0817191e-21 0.13964135)
(-0.00027187201 -2.9417543e-20 0.13964019)
(-0.00019689488 8.4851468e-21 0.13963693)
(-0.00013438634 -3.6301661e-20 0.13963504)
(-6.3681554e-05 4.8606971e-21 0.13961682)
(3.9572357e-07 -5.7865185e-21 0.0067477133)
(-8.9022179e-07 -1.7163969e-20 0.020112453)
(-4.0212727e-06 -2.9067983e-20 0.033963898)
(-9.7257676e-06 -4.0486079e-20 0.048231835)
(-1.8575289e-05 -6.2465306e-20 0.062827219)
(-3.1184267e-05 -8.7401249e-20 0.07764043)
(-4.8236414e-05 -1.1579337e-19 0.092539821)
(-7.0490229e-05 -1.776613e-19 0.10737076)
(-9.8778803e-05 -2.4204389e-19 0.1219554)
(-0.00013400464 -2.945849e-19 0.1360935)
(-0.00017712889 -4.0796847e-19 0.14956464)
(-0.0002291519 -5.2146416e-19 0.16213234)
(-0.0002910816 -6.2583156e-19 0.17355035)
(-0.00036388666 -5.5109449e-19 0.18357182)
(-0.00044842881 -2.9832011e-19 0.19196134)
(-0.00054536997 -3.2718084e-19 0.19851014)
(-0.00065504973 -2.9734217e-19 0.2030538)
(-0.00077733322 -5.3965114e-19 0.2054915)
(-0.00091143277 -5.0856657e-19 0.20580474)
(-0.0010557174 -6.0413697e-19 0.20407283)
(-0.0012075359 -1.8713335e-19 0.20048146)
(-0.0013630924 -3.1074161e-19 0.19532116)
(-0.0015174229 -3.4856414e-19 0.18897285)
(-0.001664524 -2.9684373e-19 0.18188028)
(-0.0017976713 -1.4724972e-19 0.17451142)
(-0.0019099329 -7.3460787e-21 0.16731429)
(-0.0019948425 -7.1928212e-19 0.16067401)
(-0.0020471522 -5.7874384e-19 0.15487846)
(-0.0020635495 9.8056438e-21 0.1500982)
(-0.0020432051 -3.406628e-20 0.14638325)
(-0.0019880272 5.511024e-20 0.1436766)
(-0.0019025245 9.1618529e-20 0.14184088)
(-0.0017932401 1.2369052e-19 0.1406931)
(-0.0016678012 1.5085807e-19 0.14004034)
(-0.0015338329 3.2449078e-20 0.13970945)
(-0.001397795 3.6370834e-19 0.13956545)
(-0.0012647259 4.7682747e-19 0.13951665)
(-0.0011370659 3.5154883e-19 0.13950904)
(-0.0010173045 2.1805699e-19 0.13951545)
(-0.00090367222 5.4555711e-19 0.13952425)
(-0.00079944223 6.5341149e-20 0.1395318)
(-0.00069849038 1.7065016e-19 0.13953684)
(-0.00060818308 -2.2596495e-19 0.13954025)
(-0.00051713258 -2.80921e-19 0.13954139)
(-0.00043813291 -6.7053377e-20 0.13954219)
(-0.00035461923 -3.9669877e-21 0.13954102)
(-0.00028391292 -2.7834291e-20 0.13954089)
(-0.00020598176 6.8702124e-21 0.1395387)
(-0.00014043019 -2.8290466e-20 0.13953718)
(-6.6827632e-05 4.5638415e-21 0.13951856)
(3.7881971e-07 -1.4323137e-20 0.0068963019)
(-8.5140939e-07 -4.2555325e-20 0.020560742)
(-3.847408e-06 -7.2583843e-20 0.03472919)
(-9.3075242e-06 -1.0415079e-19 0.04933119)
(-1.7780865e-05 -1.3715455e-19 0.064277158)
(-2.9858634e-05 -1.7198291e-19 0.079456561)
(-4.6199907e-05 -2.0614675e-19 0.094736382)
(-6.7537554e-05 -2.424786e-19 0.10996005)
(-9.4678757e-05 -2.8532777e-19 0.1249471)
(-0.00012850125 -3.3126313e-19 0.13949381)
(-0.00016994427 -3.5608431e-19 0.15337527)
(-0.00021999199 -4.6291153e-19 0.16634924)
(-0.00027964589 -5.4697553e-19 0.17816231)
(-0.00034988234 -5.2362087e-19 0.1885588)
(-0.00043159141 -4.9099145e-19 0.19729269)
(-0.00052549216 -4.1891259e-19 0.20414279)
(-0.00063201833 -3.0442782e-19 0.20893062)
(-0.00075117448 -4.3901105e-19 0.21154017)
(-0.00088236506 -4.7530974e-19 0.21193759)
(-0.0010242062 -4.1919522e-19 0.21018799)
(-0.0011743432 -3.8077939e-19 0.20646598)
(-0.0013293083 -3.1131509e-19 0.20105617)
(-0.0014844667 -3.0788492e-19 0.19434084)
(-0.0016341004 -2.7229027e-19 0.18677377)
(-0.0017716717 -2.290681e-19 0.17884214)
(-0.0018902808 -2.4140443e-19 0.17102126)
(-0.0019832927 -4.6046357e-19 0.16372934)
(-0.0020450681 -4.4639887e-19 0.15728969)
(-0.0020716897 -1.5293192e-19 0.15190664)
(-0.002061562 -2.7702843e-20 0.14765853)
(-0.0020157582 5.7885242e-20 0.14450794)
(-0.0019380129 9.3997191e-20 0.14232649)
(-0.0018342998 1.2104808e-19 0.14092909)
(-0.0017119961 1.3939833e-19 0.14011108)
(-0.0015788553 1.1350615e-19 0.13968136)
(-0.0014417393 3.1100594e-19 0.13948499)
(-0.0013063265 3.2785416e-19 0.13941242)
(-0.0011755179 3.633656e-19 0.13939632)
(-0.0010524362 2.7182547e-19 0.13940119)
(-0.00093528025 4.678684e-19 0.13941105)
(-0.00082784987 9.3071242e-20 0.13942035)
(-0.00072358696 -3.1128295e-21 0.13942723)
(-0.00063034321 -9.1719866e-20 0.13943228)