/*--------------------------------*- C++ -*----------------------------------*\
| =========                 |                                                 |
| \\      /  F ield         | OpenFOAM: The Open Source CFD Toolbox           |
|  \\    /   O peration     | Version:  4.0                                   |
|   \\  /    A nd           | Web:      www.OpenFOAM.org                      |
|    \\/     M anipulation  |                                                 |
\*---------------------------------------------------------------------------*/
FoamFile
{
    version     2.0;
    format      ascii;
    class       volScalarField;
    location    "3000/cilcen";
    object      T;
}
// * * * * * * * * * * * * * * * * * * * * * * * * * * * * * * * * * * * * * //

dimensions      [0 0 0 1 0 0 0];

internalField   nonuniform List<scalar> 
1000
(
336.2183
336.20833
336.19277
336.17635
336.16106
336.14768
336.1364
336.12711
336.11959
336.11357
338.27337
338.26586
338.25414
338.24179
338.2303
338.22024
338.21176
338.20479
338.19914
338.19462
339.98872
339.98118
339.96943
339.95704
339.9455
339.9354
339.92689
339.91988
339.91421
339.90967
341.38577
341.37816
341.36629
341.35377
341.34212
341.33192
341.32332
341.31624
341.31051
341.30592
342.53803
342.53037
342.51842
342.50582
342.49408
342.48381
342.47515
342.46803
342.46226
342.45764
343.49654
343.48884
343.47682
343.46414
343.45234
343.44201
343.43331
343.42614
343.42034
343.41569
344.30321
344.29547
344.2834
344.27068
344.25882
344.24845
344.23971
344.23251
344.22669
344.22202
344.98932
344.98156
344.96945
344.95668
344.94479
344.93439
344.92562
344.9184
344.91255
344.90787
345.58004
345.57226
345.56012
345.54732
345.5354
345.52497
345.51618
345.50894
345.50308
345.49838
346.09428
346.08648
346.07431
346.06149
346.04954
346.03909
346.03028
346.02303
346.01716
346.01245
346.54692
346.53911
346.52693
346.51408
346.50212
346.49165
346.48283
346.47557
346.46968
346.46497
346.9493
346.94148
346.92929
346.91643
346.90445
346.89397
346.88514
346.87786
346.87198
346.86726
347.31035
347.30252
347.29032
347.27744
347.26546
347.25497
347.24612
347.23885
347.23295
347.22823
347.63697
347.62914
347.61692
347.60404
347.59205
347.58155
347.5727
347.56542
347.55952
347.5548
347.93467
347.92683
347.91461
347.90172
347.88972
347.87922
347.87036
347.86307
347.85717
347.85245
348.2078
348.19996
348.18773
348.17484
348.16283
348.15232
348.14346
348.13617
348.13027
348.12554
348.45987
348.45203
348.4398
348.4269
348.41488
348.40437
348.39551
348.38822
348.38231
348.37758
348.69373
348.68589
348.67365
348.66075
348.64873
348.63822
348.62935
348.62206
348.61615
348.61142
348.91172
348.90388
348.89164
348.87873
348.86671
348.85619
348.84733
348.84003
348.83412
348.82939
349.11576
349.10792
349.09567
349.08276
349.07074
349.06022
349.05135
349.04405
349.03814
349.03341
349.30746
349.29962
349.28737
349.27446
349.26243
349.25191
349.24304
349.23574
349.22983
349.2251
349.48818
349.48033
349.46808
349.45517
349.44314
349.43262
349.42375
349.41644
349.41053
349.4058
349.65905
349.6512
349.63895
349.62604
349.61401
349.60349
349.59461
349.58731
349.5814
349.57666
349.82107
349.81322
349.80097
349.78805
349.77602
349.76549
349.75662
349.74932
349.7434
349.73867
349.97506
349.96721
349.95496
349.94204
349.93001
349.91949
349.91061
349.90331
349.89739
349.89266
350.12177
350.11392
350.10167
350.08875
350.07672
350.06619
350.05731
350.05001
350.04409
350.03936
350.26183
350.25397
350.24172
350.2288
350.21677
350.20624
350.19736
350.19006
350.18414
350.17941
350.39578
350.38793
350.37567
350.36275
350.35072
350.34019
350.33131
350.32401
350.31809
350.31336
350.52413
350.51628
350.50402
350.4911
350.47907
350.46854
350.45966
350.45235
350.44644
350.4417
350.64731
350.63945
350.62719
350.61427
350.60224
350.59171
350.58283
350.57552
350.56961
350.56487
350.76569
350.75784
350.74558
350.73266
350.72062
350.71009
350.70122
350.69391
350.68799
350.68325
350.87963
350.87178
350.85952
350.8466
350.83456
350.82403
350.81516
350.80785
350.80193
350.79719
350.98944
350.98159
350.96933
350.95641
350.94437
350.93384
350.92496
350.91765
350.91174
350.907
351.09539
351.08754
351.07528
351.06236
351.05032
351.03979
351.03091
351.0236
351.01768
351.01295
351.19774
351.18988
351.17762
351.1647
351.15266
351.14213
351.13325
351.12594
351.12003
351.11529
351.2967
351.28885
351.27659
351.26366
351.25163
351.2411
351.23222
351.22491
351.21899
351.21425
351.3925
351.38464
351.37238
351.35946
351.34742
351.33689
351.32801
351.3207
351.31478
351.31004
351.48531
351.47745
351.46519
351.45227
351.44023
351.4297
351.42082
351.41351
351.40759
351.40285
351.57531
351.56745
351.55519
351.54227
351.53023
351.5197
351.51082
351.50351
351.49759
351.49285
351.66266
351.6548
351.64254
351.62961
351.61758
351.60704
351.59816
351.59085
351.58494
351.5802
351.7475
351.73964
351.72738
351.71445
351.70241
351.69188
351.683
351.67569
351.66977
351.66504
351.82996
351.8221
351.80984
351.79692
351.78488
351.77435
351.76547
351.75816
351.75224
351.7475
351.91018
351.90232
351.89006
351.87713
351.86509
351.85456
351.84568
351.83837
351.83245
351.82771
351.98826
351.9804
351.96814
351.95521
351.94317
351.93264
351.92376
351.91645
351.91053
351.90579
352.0643
352.05645
352.04419
352.03126
352.01922
352.00869
351.99981
351.9925
351.98658
351.98184
352.13842
352.13056
352.1183
352.10538
352.09334
352.0828
352.07392
352.06661
352.06069
352.05595
352.2107
352.20284
352.19058
352.17765
352.16561
352.15508
352.1462
352.13889
352.13297
352.12823
352.28122
352.27336
352.2611
352.24817
352.23613
352.2256
352.21672
352.20941
352.20349
352.19875
352.35006
352.3422
352.32994
352.31701
352.30497
352.29444
352.28556
352.27825
352.27233
352.26759
352.4173
352.40944
352.39718
352.38425
352.37221
352.36168
352.3528
352.34549
352.33957
352.33483
352.48301
352.47515
352.46289
352.44996
352.43792
352.42739
352.4185
352.41119
352.40528
352.40054
352.54725
352.53939
352.52713
352.5142
352.50216
352.49163
352.48274
352.47543
352.46951
352.46478
352.61008
352.60222
352.58996
352.57703
352.56499
352.55446
352.54558
352.53827
352.53235
352.52761
352.67157
352.66371
352.65145
352.63852
352.62648
352.61594
352.60706
352.59975
352.59383
352.58909
352.73175
352.7239
352.71163
352.69871
352.68667
352.67613
352.66725
352.65994
352.65402
352.64928
352.7907
352.78284
352.77058
352.75765
352.74561
352.73508
352.7262
352.71889
352.71297
352.70823
352.84845
352.84059
352.82833
352.8154
352.80336
352.79283
352.78394
352.77663
352.77071
352.76597
352.90505
352.89719
352.88493
352.872
352.85996
352.84942
352.84054
352.83323
352.82731
352.82257
352.96054
352.95268
352.94042
352.92749
352.91545
352.90491
352.89603
352.88872
352.8828
352.87806
353.01496
353.0071
352.99484
352.98191
352.96987
352.95934
352.95045
352.94314
352.93722
352.93248
353.06835
353.06049
353.04823
353.0353
353.02326
353.01273
353.00385
352.99654
352.99062
352.98588
353.12075
353.1129
353.10063
353.0877
353.07566
353.06513
353.05625
353.04894
353.04302
353.03828
353.1722
353.16434
353.15208
353.13915
353.12711
353.11657
353.10769
353.10038
353.09446
353.08972
353.22271
353.21485
353.20259
353.18966
353.17762
353.16709
353.15821
353.1509
353.14498
353.14024
353.27234
353.26448
353.25221
353.23929
353.22725
353.21671
353.20783
353.20052
353.1946
353.18986
353.32109
353.31323
353.30097
353.28804
353.276
353.26547
353.25659
353.24928
353.24336
353.23862
353.36901
353.36116
353.34889
353.33597
353.32392
353.31339
353.30451
353.2972
353.29128
353.28654
353.41613
353.40827
353.39601
353.38308
353.37104
353.3605
353.35162
353.34431
353.33839
353.33365
353.46246
353.4546
353.44233
353.42941
353.41736
353.40683
353.39795
353.39064
353.38472
353.37998
353.50802
353.50016
353.4879
353.47497
353.46293
353.4524
353.44352
353.43621
353.43028
353.42555
353.55286
353.545
353.53273
353.51981
353.50776
353.49723
353.48835
353.48104
353.47512
353.47038
353.59697
353.58912
353.57685
353.56393
353.55188
353.54135
353.53247
353.52516
353.51924
353.5145
353.6404
353.63254
353.62028
353.60735
353.59531
353.58477
353.57589
353.56858
353.56266
353.55792
353.68316
353.6753
353.66303
353.65011
353.63806
353.62753
353.61865
353.61134
353.60542
353.60068
353.72526
353.7174
353.70514
353.69221
353.68017
353.66963
353.66075
353.65344
353.64752
353.64278
353.76672
353.75887
353.7466
353.73367
353.72163
353.7111
353.70222
353.6949
353.68898
353.68425
353.80758
353.79972
353.78746
353.77453
353.76248
353.75195
353.74307
353.73576
353.72984
353.7251
353.84783
353.83997
353.82771
353.81478
353.80274
353.7922
353.78332
353.77601
353.77009
353.76535
353.8875
353.87964
353.86738
353.85445
353.84241
353.83187
353.82299
353.81568
353.80976
353.80502
353.92661
353.91875
353.90649
353.89356
353.88152
353.87098
353.8621
353.85479
353.84887
353.84413
353.96516
353.9573
353.94504
353.93211
353.92007
353.90954
353.90065
353.89334
353.88742
353.88268
354.00318
353.99533
353.98306
353.97013
353.95809
353.94756
353.93867
353.93136
353.92544
353.9207
354.04068
354.03283
354.02056
354.00763
353.99559
353.98506
353.97617
353.96886
353.96294
353.9582
354.07768
354.06982
354.05756
354.04463
354.03259
354.02205
354.01317
354.00586
353.99994
353.9952
354.11419
354.10633
354.09406
354.08114
354.06909
354.05856
354.04968
354.04237
354.03644
354.03171
354.15022
354.14236
354.1301
354.11717
354.10513
354.09459
354.08571
354.0784
354.07248
354.06774
354.1858
354.17794
354.16568
354.15275
354.14071
354.13017
354.12129
354.11398
354.10806
354.10332
354.22096
354.2131
354.20083
354.1879
354.17586
354.16533
354.15644
354.14913
354.14321
354.13847
354.25571
354.24786
354.23559
354.22266
354.21062
354.20009
354.1912
354.18389
354.17797
354.17323
354.29013
354.28227
354.27001
354.25708
354.24503
354.2345
354.22562
354.21831
354.21238
354.20765
354.32427
354.31641
354.30415
354.29122
354.27918
354.26864
354.25976
354.25245
354.24653
354.24179
354.35826
354.3504
354.33814
354.32521
354.31317
354.30263
354.29375
354.28644
354.28052
354.27578
354.3923
354.38444
354.37217
354.35924
354.3472
354.33666
354.32778
354.32047
354.31455
354.30981
354.42671
354.41884
354.40658
354.39365
354.3816
354.37107
354.36218
354.35487
354.34895
354.34421
354.46202
354.45416
354.4419
354.42896
354.41692
354.40638
354.39749
354.39018
354.38426
354.37952
354.49918
354.49132
354.47905
354.46611
354.45407
354.44352
354.43464
354.42732
354.4214
354.41666
354.53961
354.53174
354.51947
354.50653
354.49448
354.48393
354.47504
354.46773
354.4618
354.45706
354.58596
354.57809
354.56582
354.55288
354.54082
354.53028
354.52138
354.51407
354.50814
354.5034
354.63938
354.63151
354.61922
354.60626
354.59419
354.58363
354.57472
354.5674
354.56146
354.55671
354.70971
354.70192
354.68977
354.67696
354.66503
354.65459
354.64579
354.63855
354.63268
354.62799
)
;

boundaryField
{
    cilcentop
    {
        type            zeroGradient;
    }
    cilcenbot
    {
        type            zeroGradient;
    }
    leftcenWedge
    {
        type            symmetry;
    }
    rigtcenWedge
    {
        type            symmetry;
    }
    cilcen_to_fluid
    {
        type            compressible::turbulentTemperatureRadCoupledMixed;
        refValue        nonuniform List<scalar> 
100
(
334.90993
337.43903
339.17436
340.57943
341.74024
342.70603
343.51961
344.21191
344.80847
345.32809
345.78582
346.19294
346.55844
346.88923
347.19086
347.46768
347.72324
347.96039
348.18149
348.38849
348.58299
348.76637
348.93979
349.10424
349.26056
349.40949
349.55168
349.68769
349.81801
349.94308
350.0633
350.17901
350.29052
350.39812
350.50207
350.60258
350.69988
350.79414
350.88556
350.97428
351.06046
351.14422
351.22571
351.30502
351.38227
351.45756
351.53099
351.60262
351.67256
351.74087
351.80762
351.87289
351.93672
351.99919
352.06034
352.12022
352.17889
352.2364
352.29277
352.34807
352.40232
352.45556
352.50782
352.55915
352.60957
352.65911
352.7078
352.75567
352.80274
352.84904
352.89459
352.93942
352.98354
353.02699
353.06977
353.1119
353.15341
353.19431
353.23462
353.27436
353.31354
353.35217
353.39027
353.42787
353.46496
353.50158
353.53773
353.57345
353.60876
353.64372
353.67839
353.7129
353.74743
353.7823
353.81803
353.85554
353.89615
353.94306
353.99552
354.08254
)
;
        refGradient     nonuniform List<scalar> 
100
(
-19.312465
-20.470647
-21.441039
-22.241979
-22.910091
-23.471029
-23.946795
-24.354119
-24.706786
-25.015281
-25.287987
-25.531324
-25.750399
-25.949185
-26.130866
-26.297971
-26.45255
-26.596268
-26.730496
-26.856368
-26.974834
-27.086694
-27.192626
-27.293212
-27.388953
-27.480284
-27.567582
-27.65118
-27.731371
-27.808414
-27.882542
-27.95396
-28.022855
-28.089393
-28.153725
-28.215989
-28.27631
-28.334801
-28.391567
-28.446702
-28.500296
-28.552429
-28.603177
-28.652607
-28.700785
-28.747771
-28.793619
-28.838382
-28.882108
-28.924843
-28.966628
-29.007504
-29.047508
-29.086675
-29.125038
-29.162627
-29.199474
-29.235605
-29.271046
-29.305823
-29.339958
-29.373475
-29.406395
-29.438737
-29.470521
-29.501765
-29.532487
-29.562703
-29.592428
-29.621678
-29.650468
-29.67881
-29.706718
-29.734206
-29.761284
-29.787964
-29.814258
-29.840177
-29.865729
-29.890926
-29.915777
-29.940292
-29.964479
-29.988348
-30.011909
-30.035172
-30.05815
-30.080859
-30.10332
-30.125564
-30.147638
-30.16962
-30.191635
-30.213894
-30.236745
-30.260786
-30.286939
-30.316944
-30.351471
-30.397663
)
;
        valueFraction   nonuniform List<scalar> 
100
(
0.0016080446
0.0016154659
0.0016215627
0.0016265147
0.0016305917
0.0016339779
0.0016368241
0.0016392424
0.0016413225
0.001643132
0.0016447236
0.0016461377
0.0016474058
0.0016485525
0.0016495972
0.0016505553
0.0016514392
0.001652259
0.0016530229
0.0016537377
0.0016544091
0.0016550418
0.0016556399
0.0016562069
0.0016567457
0.0016572589
0.0016577488
0.0016582172
0.0016586659
0.0016590964
0.0016595102
0.0016599083
0.0016602919
0.001660662
0.0016610195
0.0016613651
0.0016616995
0.0016620236
0.0016623377
0.0016626426
0.0016629386
0.0016632264
0.0016635063
0.0016637787
0.0016640439
0.0016643024
0.0016645545
0.0016648004
0.0016650404
0.0016652749
0.0016655039
0.0016657278
0.0016659468
0.0016661611
0.0016663709
0.0016665763
0.0016667775
0.0016669747
0.001667168
0.0016673575
0.0016675435
0.001667726
0.0016679052
0.0016680811
0.0016682539
0.0016684236
0.0016685905
0.0016687545
0.0016689158
0.0016690744
0.0016692304
0.001669384
0.0016695351
0.0016696839
0.0016698304
0.0016699747
0.0016701168
0.0016702569
0.0016703949
0.0016705309
0.0016706651
0.0016707973
0.0016709277
0.0016710564
0.0016711834
0.0016713087
0.0016714324
0.0016715547
0.0016716755
0.0016717952
0.0016719139
0.001672032
0.0016721504
0.0016722699
0.0016723927
0.0016725218
0.0016726622
0.0016728232
0.0016730085
0.0016732563
)
;
        value           nonuniform List<scalar> 
100
(
336.11088
338.1926
339.90764
341.30388
342.45558
343.41362
344.21994
344.90578
345.49629
346.01036
346.46287
346.86516
347.22613
347.55269
347.85034
348.12343
348.37547
348.60931
348.82728
349.0313
349.22299
349.40369
349.57455
349.73656
349.89054
350.03725
350.17729
350.31124
350.43959
350.56276
350.68114
350.79508
350.90489
351.01083
351.11318
351.21214
351.30793
351.40074
351.49074
351.57809
351.66292
351.74539
351.8256
351.90368
351.97973
352.05384
352.12612
352.19664
352.26548
352.33272
352.39843
352.46267
352.5255
352.58698
352.64717
352.70612
352.76387
352.82047
352.87596
352.93038
352.98377
353.03617
353.08761
353.13813
353.18775
353.23651
353.28443
353.33155
353.37787
353.42344
353.46827
353.51239
353.55582
353.59857
353.64068
353.68214
353.723
353.76325
353.80292
353.84203
353.88058
353.9186
353.95611
353.9931
354.02961
354.06564
354.10122
354.13638
354.17114
354.20555
354.23969
354.27368
354.30771
354.34211
354.37742
354.41456
354.45496
354.5013
354.55462
354.62591
)
;
        Tnbr            T;
        QrNbr           Qr;
        Qr              none;
        thicknessLayers 0();
        kappaLayers     0();
        kappaMethod     solidThermo;
        kappa           none;
        alphaAni        Anialpha;
    }
}


// ************************************************************************* //
