/*--------------------------------*- C++ -*----------------------------------*\
| =========                 |                                                 |
| \\      /  F ield         | OpenFOAM: The Open Source CFD Toolbox           |
|  \\    /   O peration     | Version:  4.0                                   |
|   \\  /    A nd           | Web:      www.OpenFOAM.org                      |
|    \\/     M anipulation  |                                                 |
\*---------------------------------------------------------------------------*/
FoamFile
{
    version     2.0;
    format      ascii;
    class       volScalarField;
    location    "760";
    object      G;
}
// * * * * * * * * * * * * * * * * * * * * * * * * * * * * * * * * * * * * * //

dimensions      [1 0 -3 0 0 0 0];

internalField   nonuniform List<scalar> 
5000
(
2855.7454
2849.6003
2842.9344
2835.7162
2827.9136
2819.4948
2810.4298
2800.6912
2790.2555
2779.1043
2767.2259
2754.6175
2741.287
2727.2552
2712.5586
2697.252
2681.4111
2665.1353
2648.5498
2631.8075
2615.0903
2598.6086
2582.5991
2567.3218
2553.0526
2540.0743
2528.6642
2519.0792
2511.5376
2506.2019
2503.1615
2502.42
2503.8902
2507.3998
2512.7096
2519.5448
2527.635
2536.7546
2546.7519
2557.5535
2569.1373
2581.4769
2594.4749
2607.9189
2621.4738
2634.7795
2647.3847
2659.539
2669.2027
2685.3209
3305.8081
3307.023
3308.2401
3309.4316
3310.5669
3311.6085
3312.5105
3313.2169
3313.6603
3313.7597
3313.4196
3312.5279
3310.9545
3308.5504
3305.1467
3300.5547
3294.5674
3286.9612
3277.5011
3265.9463
3252.0602
3235.6224
3216.4445
3194.3887
3169.3898
3141.4786
3110.8046
3077.6559
3042.4721
3005.8448
2968.5018
2931.2696
2895.0143
2860.561
2828.6044
2799.6239
2773.8296
2751.1617
2731.3614
2714.1095
2699.1987
2686.6774
2676.8899
2670.3698
2667.5929
2668.7369
2673.3665
2681.0779
2688.9423
2704.1775
3442.1194
3442.3397
3442.6035
3442.9174
3443.2882
3443.7226
3444.2272
3444.8075
3445.4675
3446.2085
3447.0277
3447.9159
3448.8555
3449.8173
3450.7561
3451.6062
3452.2758
3452.6401
3452.5341
3451.7454
3450.0062
3446.9877
3442.2966
3435.4759
3426.0131
3413.3575
3396.9502
3376.2683
3350.8849
3320.5429
3285.2353
3245.2834
3201.3914
3154.6576
3106.516
3058.5915
3012.4699
2969.4154
2930.1059
2894.4898
2861.8631
2831.2142
2801.7628
2773.4927
2747.3925
2725.2692
2708.9269
2700.0934
2696.858
2706.0586
3514.5231
3514.5556
3514.5908
3514.6291
3514.6715
3514.7197
3514.7762
3514.8442
3514.9282
3515.034
3515.1693
3515.3433
3515.5678
3515.8564
3516.2246
3516.6893
3517.2668
3517.9709
3518.8085
3519.7741
3520.8408
3521.9491
3522.9911
3523.7919
3524.0869
3523.4977
3521.5097
3517.4553
3510.5125
3499.7269
3484.0711
3462.5482
3434.3489
3399.0489
3356.824
3308.6251
3256.2391
3202.1478
3149.1318
3099.6387
3055.069
3015.2592
2978.484
2942.1685
2904.1443
2863.9535
2823.3332
2786.0075
2755.954
2731.9506
3566.8087
3566.8126
3566.8161
3566.8188
3566.82
3566.8194
3566.8162
3566.8097
3566.7993
3566.784
3566.7633
3566.7367
3566.7043
3566.6672
3566.6278
3566.5905
3566.5628
3566.5561
3566.5866
3566.6767
3566.8549
3567.1555
3567.6157
3568.2696
3569.1366
3570.2034
3571.3948
3572.5348
3573.2948
3573.1348
3571.2447
3566.5045
3557.4894
3542.5552
3520.038
3488.5899
3447.6259
3397.7959
3341.3031
3281.8391
3223.9315
3171.693
3127.2974
3089.8722
3055.5827
3019.2102
2976.9142
2927.2396
2878.7733
2808.3229
3607.9866
3607.9881
3607.9891
3607.9895
3607.9889
3607.987
3607.9836
3607.978
3607.9696
3607.9575
3607.9408
3607.9179
3607.8872
3607.8466
3607.7935
3607.725
3607.638
3607.5292
3607.3959
3607.2371
3607.0542
3606.8537
3606.6492
3606.4652
3606.3396
3606.3259
3606.492
3606.912
3607.6454
3608.6987
3609.9606
3611.1066
3611.4774
3609.9491
3604.837
3593.9075
3574.5898
3544.4735
3502.1028
3447.9225
3385.0111
3319.0626
3257.1524
3205.298
3165.7158
3135.1293
3106.4938
3069.1413
3029.4365
2935.5545
3641.978
3641.979
3641.9793
3641.9789
3641.9778
3641.9758
3641.9726
3641.9681
3641.9617
3641.953
3641.9414
3641.9263
3641.9065
3641.8811
3641.8483
3641.8062
3641.7522
3641.683
3641.5943
3641.4807
3641.3357
3641.1517
3640.9208
3640.6354
3640.2913
3639.8913
3639.4508
3639.0057
3638.6204
3638.3931
3638.4512
3638.9251
3639.8843
3641.2163
3642.4374
3642.4469
3639.2846
3630.0243
3611.0045
3578.6033
3530.621
3467.9706
3395.8753
3323.4393
3260.9406
3215.0731
3186.1431
3162.615
3146.144
3070.4148
3670.7527
3670.7544
3670.7549
3670.755
3670.7543
3670.7531
3670.7509
3670.7477
3670.743
3670.7367
3670.7282
3670.7171
3670.7027
3670.6843
3670.6609
3670.6314
3670.5942
3670.5475
3670.489
3670.4156
3670.3234
3670.2071
3670.0597
3669.8722
3669.6327
3669.3271
3668.9393
3668.4546
3667.8647
3667.1785
3666.4364
3665.7291
3665.2115
3665.0968
3665.6005
3666.7935
3668.3244
3669.0088
3666.3783
3656.4393
3634.0519
3594.3369
3535.1432
3459.717
3377.8799
3303.3801
3249.0946
3215.641
3206.5051
3167.8354
3695.6471
3695.6495
3695.6502
3695.6505
3695.6503
3695.6495
3695.648
3695.6457
3695.6423
3695.6376
3695.6311
3695.6227
3695.6117
3695.5976
3695.5796
3695.5569
3695.5283
3695.4926
3695.448
3695.3927
3695.3241
3695.2394
3695.1345
3695.0047
3694.8432
3694.6409
3694.3853
3694.0596
3693.6415
3693.1043
3692.4207
3691.5734
3690.5753
3689.5005
3688.5208
3687.9245
3688.0675
3689.1757
3690.9134
3691.7011
3687.9773
3673.931
3642.5194
3588.3332
3511.844
3422.2653
3337.0294
3271.571
3239.5121
3217.6194
3717.5332
3717.5365
3717.5376
3717.5384
3717.5385
3717.5382
3717.5375
3717.536
3717.5337
3717.5303
3717.5256
3717.5193
3717.5109
3717.5002
3717.4864
3717.4688
3717.4466
3717.4187
3717.3838
3717.3402
3717.286
3717.219
3717.1363
3717.0345
3716.9094
3716.7558
3716.5671
3716.3341
3716.0442
3715.6791
3715.2127
3714.6094
3713.8259
3712.8208
3711.5813
3710.171
3708.7968
3707.8562
3707.8758
3709.1819
3711.1478
3711.0515
3703.0766
3678.62
3629.2952
3552.4299
3456.7815
3361.2278
3289.6596
3244.7131
3737.0331
3737.0375
3737.0391
3737.0402
3737.0408
3737.041
3737.0409
3737.0401
3737.0387
3737.0364
3737.0331
3737.0284
3737.0222
3737.0141
3737.0035
3736.99
3736.9728
3736.951
3736.9235
3736.8891
3736.846
3736.7925
3736.7261
3736.644
3736.5428
3736.4184
3736.2658
3736.0789
3735.8503
3735.5704
3735.2257
3734.7963
3734.2521
3733.5484
3732.6242
3731.4137
3729.8831
3728.1096
3726.3935
3725.3323
3725.6621
3727.5671
3729.2644
3725.2649
3705.8413
3659.8771
3582.0544
3480.1359
3379.0938
3282.7396
3754.5952
3754.6007
3754.6028
3754.6044
3754.6054
3754.6061
3754.6066
3754.6065
3754.6059
3754.6045
3754.6023
3754.5991
3754.5946
3754.5886
3754.5807
3754.5704
3754.5571
3754.5401
3754.5186
3754.4913
3754.4571
3754.4142
3754.3608
3754.2945
3754.2124
3754.1109
3753.9858
3753.8319
3753.643
3753.4118
3753.1294
3752.7846
3752.3623
3751.8398
3751.1806
3750.3263
3749.1923
3747.6841
3745.7626
3743.5833
3741.6785
3740.9883
3742.3149
3744.7264
3743.1026
3726.6495
3681.8943
3600.2991
3497.9905
3350.5472
3770.5548
3770.5615
3770.5641
3770.5662
3770.5677
3770.5689
3770.5699
3770.5704
3770.5705
3770.57
3770.5688
3770.5668
3770.5638
3770.5595
3770.5538
3770.5461
3770.5361
3770.523
3770.5062
3770.4847
3770.4575
3770.4231
3770.3801
3770.3263
3770.2595
3770.1765
3770.0738
3769.947
3769.7906
3769.5981
3769.3616
3769.0718
3768.7178
3768.286
3767.7584
3767.1071
3766.2837
3765.2061
3763.7524
3761.8006
3759.3656
3756.8576
3755.2973
3755.9471
3758.5705
3758.1417
3742.9494
3694.5607
3618.5667
3445.7378
3785.168
3785.1761
3785.1793
3785.1819
3785.1838
3785.1855
3785.187
3785.1882
3785.1889
3785.1892
3785.1889
3785.188
3785.1862
3785.1835
3785.1796
3785.1742
3785.1668
3785.157
3785.1442
3785.1274
3785.1059
3785.0785
3785.0438
3785.0002
3784.9456
3784.8775
3784.7929
3784.688
3784.5582
3784.3979
3784.2001
3783.9564
3783.6568
3783.2894
3782.8401
3782.2922
3781.6231
3780.7946
3779.7347
3778.3159
3776.3634
3773.774
3770.8296
3768.5813
3768.6897
3771.2723
3771.809
3752.3249
3714.9422
3551.6162
3798.6352
3798.6447
3798.6484
3798.6515
3798.6539
3798.6561
3798.6581
3798.6599
3798.6613
3798.6623
3798.6629
3798.6629
3798.6622
3798.6609
3798.6586
3798.6551
3798.6501
3798.6431
3798.6336
3798.6209
3798.6042
3798.5825
3798.5547
3798.5195
3798.475
3798.4191
3798.3492
3798.2621
3798.1539
3798.0197
3797.8538
3797.6488
3797.3957
3797.0837
3796.6996
3796.2281
3795.6514
3794.9484
3794.088
3793.0096
3791.5893
3789.6191
3786.9021
3783.6005
3780.865
3780.4737
3784.0169
3780.0125
3775.65
3648.6508
3811.1155
3811.1264
3811.1308
3811.1344
3811.1372
3811.1399
3811.1426
3811.1449
3811.147
3811.1486
3811.1499
3811.1508
3811.1512
3811.1511
3811.1502
3811.1485
3811.1455
3811.141
3811.1344
3811.1251
3811.1125
3811.0958
3811.0739
3811.0456
3811.0096
3810.9638
3810.9062
3810.8338
3810.7434
3810.6308
3810.4909
3810.3176
3810.1031
3809.8379
3809.5104
3809.1062
3808.6079
3807.9959
3807.2482
3806.3369
3805.2105
3803.7508
3801.7276
3798.8481
3795.2672
3791.935
3792.5493
3791.7926
3804.7616
3723.6278
3822.7377
3822.7501
3822.7551
3822.7593
3822.7626
3822.7657
3822.7689
3822.7719
3822.7745
3822.7768
3822.7789
3822.7806
3822.7819
3822.7829
3822.7834
3822.7832
3822.7821
3822.7797
3822.7757
3822.7694
3822.7604
3822.7479
3822.7311
3822.7089
3822.68
3822.6429
3822.5956
3822.5356
3822.4602
3822.3655
3822.2473
3822.1002
3821.9176
3821.6912
3821.4109
3821.0642
3820.6355
3820.1054
3819.4518
3818.6499
3817.6728
3816.4742
3814.9438
3812.805
3809.7746
3805.5988
3803.1316
3799.8527
3814.9275
3773.2166
3833.6071
3833.6211
3833.6267
3833.6315
3833.6352
3833.6389
3833.6426
3833.6462
3833.6494
3833.6524
3833.6551
3833.6576
3833.6598
3833.6619
3833.6636
3833.6648
3833.6654
3833.6649
3833.6632
3833.6596
3833.6538
3833.645
3833.6326
3833.6156
3833.593
3833.5633
3833.5249
3833.4756
3833.4128
3833.3334
3833.2336
3833.1086
3832.9527
3832.7586
3832.5177
3832.219
3831.8489
3831.3906
3830.8227
3830.1199
3829.2545
3828.197
3826.9097
3825.259
3823.0224
3819.4522
3815.8731
3809.9908
3818.8256
3802.0961
3843.8112
3843.8268
3843.8331
3843.8384
3843.8426
3843.8468
3843.8511
3843.8552
3843.859
3843.8626
3843.866
3843.8692
3843.8724
3843.8754
3843.8782
3843.8807
3843.8829
3843.8842
3843.8846
3843.8835
3843.8804
3843.875
3843.8665
3843.8541
3843.837
3843.8138
3843.783
3843.7429
3843.6911
3843.6249
3843.5408
3843.4347
3843.3016
3843.135
3842.9272
3842.6688
3842.3479
3841.9498
3841.4561
3840.8433
3840.0829
3839.1419
3837.9939
3836.5811
3834.8476
3832.1707
3828.9493
3822.6025
3824.0755
3818.3137
3853.4231
3853.4404
3853.4474
3853.4532
3853.458
3853.4627
3853.4675
3853.4722
3853.4766
3853.4808
3853.4849
3853.4888
3853.4928
3853.4967
3853.5006
3853.5044
3853.5079
3853.511
3853.5132
3853.5143
3853.5139
3853.5115
3853.5065
3853.4982
3853.4859
3853.4685
3853.4445
3853.4124
3853.3702
3853.3154
3853.245
3853.1552
3853.0417
3852.8987
3852.7194
3852.4953
3852.2161
3851.8688
3851.4375
3850.9018
3850.2361
3849.4067
3848.3811
3847.1112
3845.6121
3843.545
3841.044
3835.8661
3832.7853
3829.0596
3862.5049
3862.5239
3862.5316
3862.538
3862.5433
3862.5485
3862.5539
3862.5591
3862.5641
3862.5689
3862.5736
3862.5783
3862.583
3862.5878
3862.5927
3862.5977
3862.6026
3862.6072
3862.6113
3862.6144
3862.6164
3862.6167
3862.6148
3862.6103
3862.6024
3862.59
3862.5721
3862.5472
3862.5134
3862.4686
3862.4101
3862.3346
3862.2381
3862.1156
3861.961
3861.7666
3861.5233
3861.2196
3860.8413
3860.3706
3859.7856
3859.0565
3858.1493
3857.0113
3855.6453
3853.8943
3851.8797
3848.2114
3843.83
3838.6517
3871.1095
3871.1302
3871.1386
3871.1456
3871.1514
3871.1571
3871.1631
3871.1689
3871.1744
3871.1798
3871.1852
3871.1905
3871.196
3871.2017
3871.2076
3871.2137
3871.2199
3871.226
3871.2317
3871.2368
3871.2409
3871.2437
3871.2448
3871.2437
3871.2396
3871.2319
3871.2194
3871.2008
3871.1746
3871.1387
3871.0908
3871.0279
3870.9463
3870.8418
3870.7086
3870.5402
3870.3281
3870.0621
3869.7295
3869.3147
3868.7982
3868.1546
3867.3533
3866.3452
3865.1041
3863.5385
3861.7422
3859.1215
3855.3591
3848.655
3879.2822
3879.3047
3879.3138
3879.3215
3879.3278
3879.3341
3879.3406
3879.3469
3879.353
3879.359
3879.365
3879.371
3879.3772
3879.3837
3879.3906
3879.3978
3879.4052
3879.4127
3879.42
3879.4269
3879.433
3879.4382
3879.442
3879.4439
3879.4435
3879.44
3879.4324
3879.4196
3879.4001
3879.3722
3879.3336
3879.2819
3879.2137
3879.1249
3879.0108
3878.865
3878.6803
3878.4473
3878.1547
3877.7884
3877.331
3876.7602
3876.0494
3875.1578
3874.0461
3872.6386
3870.9605
3868.8221
3866.1676
3859.0309
3887.0625
3887.0868
3887.0967
3887.105
3887.1118
3887.1186
3887.1257
3887.1326
3887.1393
3887.1459
3887.1525
3887.1592
3887.1661
3887.1734
3887.1812
3887.1894
3887.198
3887.2068
3887.2156
3887.2242
3887.2323
3887.2396
3887.2459
3887.2508
3887.2537
3887.2541
3887.2509
3887.2433
3887.2299
3887.2092
3887.1791
3887.1374
3887.081
3887.0064
3886.909
3886.7834
3886.6228
3886.4189
3886.1614
3885.8376
3885.4319
3884.9244
3884.291
3883.4985
3882.5077
3881.252
3879.7055
3877.73
3875.9059
3869.2549
3894.4847
3894.5109
3894.5215
3894.5305
3894.5378
3894.5452
3894.5528
3894.5603
3894.5675
3894.5747
3894.5819
3894.5892
3894.5969
3894.605
3894.6136
3894.6229
3894.6326
3894.6427
3894.653
3894.6632
3894.6731
3894.6825
3894.6911
3894.6987
3894.7047
3894.7086
3894.7096
3894.7068
3894.699
3894.6847
3894.6624
3894.6296
3894.5839
3894.5219
3894.4396
3894.3319
3894.1927
3894.0146
3893.7881
3893.5019
3893.1418
3892.6898
3892.1241
3891.416
3890.5308
3889.4111
3888.024
3886.1364
3884.7262
3878.9294
3901.5789
3901.607
3901.6184
3901.628
3901.6359
3901.6438
3901.6519
3901.66
3901.6678
3901.6755
3901.6833
3901.6913
3901.6997
3901.7085
3901.7181
3901.7283
3901.7392
3901.7505
3901.7621
3901.7739
3901.7855
3901.7969
3901.8078
3901.8178
3901.8267
3901.8339
3901.8388
3901.8404
3901.8377
3901.8294
3901.814
3901.7895
3901.7534
3901.7028
3901.634
3901.5424
3901.4224
3901.2672
3901.0684
3900.8155
3900.4958
3900.093
3899.5871
3898.9525
3898.1588
3897.1542
3895.9259
3894.1606
3892.9003
3887.9254
3908.3716
3908.4016
3908.4137
3908.424
3908.4325
3908.4409
3908.4496
3908.4582
3908.4666
3908.4749
3908.4833
3908.4919
3908.5009
3908.5106
3908.521
3908.5322
3908.5441
3908.5566
3908.5696
3908.5829
3908.5962
3908.6094
3908.6224
3908.6348
3908.6464
3908.6568
3908.6651
3908.6708
3908.6729
3908.6701
3908.6611
3908.644
3908.6167
3908.5765
3908.5199
3908.4428
3908.3401
3908.2056
3908.0315
3907.8084
3907.5246
3907.1655
3906.713
3906.1433
3905.4301
3904.5236
3903.4316
3901.8267
3900.6259
3896.2939
3914.8862
3914.9182
3914.9311
3914.9421
3914.951
3914.96
3914.9693
3914.9785
3914.9874
3914.9963
3915.0053
3915.0145
3915.0242
3915.0346
3915.0458
3915.058
3915.0709
3915.0846
3915.0989
3915.1136
3915.1285
3915.1435
3915.1585
3915.1732
3915.1874
3915.2006
3915.2123
3915.2219
3915.2283
3915.2306
3915.2275
3915.2173
3915.1981
3915.1673
3915.1218
3915.0579
3914.9708
3914.8549
3914.7031
3914.5068
3914.2552
3913.9352
3913.5302
3913.0185
3912.3768
3911.5571
3910.5756
3909.1377
3907.9982
3904.143
3921.1436
3921.1776
3921.1913
3921.2029
3921.2124
3921.2219
3921.2318
3921.2416
3921.251
3921.2605
3921.27
3921.2799
3921.2903
3921.3014
3921.3135
3921.3265
3921.3405
3921.3554
3921.3709
3921.387
3921.4035
3921.4202
3921.4371
3921.454
3921.4706
3921.4866
3921.5014
3921.5145
3921.5251
3921.5321
3921.5345
3921.5306
3921.5188
3921.4966
3921.4614
3921.4094
3921.3366
3921.2376
3921.1059
3920.9338
3920.7113
3920.4264
3920.064
3919.6043
3919.0263
3918.2852
3917.3956
3916.1079
3915.0514
3911.5676
3927.1625
3927.1984
3927.2129
3927.2253
3927.2353
3927.2454
3927.2558
3927.2661
3927.2762
3927.2862
3927.2963
3927.3068
3927.3178
3927.3297
3927.3426
3927.3565
3927.3715
3927.3875
3927.4043
3927.4217
3927.4397
3927.4581
3927.4768
3927.4957
3927.5147
3927.5333
3927.5511
3927.5676
3927.582
3927.5935
3927.6009
3927.603
3927.598
3927.5838
3927.5579
3927.517
3927.4571
3927.3735
3927.2602
3927.11
3926.9138
3926.6606
3926.3366
3925.9236
3925.4026
3924.7329
3923.9241
3922.7634
3921.8001
3918.6307
3932.9595
3932.9975
3933.0127
3933.0258
3933.0364
3933.047
3933.058
3933.0689
3933.0795
3933.09
3933.1008
3933.1118
3933.1235
3933.1361
3933.1498
3933.1647
3933.1807
3933.1977
3933.2157
3933.2345
3933.2539
3933.2739
3933.2944
3933.3153
3933.3365
3933.3576
3933.3782
3933.3979
3933.4159
3933.4316
3933.4438
3933.4513
3933.4527
3933.4459
3933.4287
3933.3979
3933.35
3933.2805
3933.1839
3933.0536
3932.8814
3932.657
3932.3678
3931.997
3931.5272
3930.9219
3930.1866
3929.1339
3928.2603
3925.3719
3938.5497
3938.5897
3938.6058
3938.6195
3938.6307
3938.6419
3938.6534
3938.6649
3938.676
3938.6871
3938.6984
3938.7101
3938.7225
3938.7358
3938.7503
3938.766
3938.783
3938.8011
3938.8203
3938.8403
3938.8612
3938.8827
3938.9049
3938.9278
3938.951
3938.9745
3938.9979
3939.0206
3939.0421
3939.0616
3939.0783
3939.091
3939.0983
3939.0985
3939.0892
3939.0678
3939.0309
3938.9743
3938.8932
3938.7812
3938.6308
3938.4326
3938.175
3937.8427
3937.4191
3936.8718
3936.204
3935.2457
3934.4524
3931.8188
3943.9467
3943.9887
3944.0056
3944.0201
3944.0318
3944.0435
3944.0557
3944.0677
3944.0794
3944.0911
3944.1029
3944.1152
3944.1282
3944.1422
3944.1575
3944.1741
3944.192
3944.2112
3944.2316
3944.2529
3944.2751
3944.2981
3944.322
3944.3467
3944.3721
3944.3978
3944.4237
3944.4494
3944.4741
3944.4974
3944.5183
3944.5358
3944.5487
3944.5553
3944.5535
3944.5408
3944.514
3944.4695
3944.4025
3944.3073
3944.177
3944.0028
3943.7741
3943.4766
3943.0953
3942.6002
3941.9941
3941.1208
3940.3979
3937.9947
3949.1628
3949.2069
3949.2246
3949.2397
3949.252
3949.2643
3949.2771
3949.2896
3949.3019
3949.3141
3949.3266
3949.3394
3949.3531
3949.3678
3949.3838
3949.4013
3949.4202
3949.4404
3949.4619
3949.4844
3949.508
3949.5325
3949.558
3949.5845
3949.6118
3949.6398
3949.6682
3949.6966
3949.7245
3949.7512
3949.7762
3949.7983
3949.8164
3949.829
3949.8342
3949.8296
3949.8123
3949.7789
3949.7249
3949.6453
3949.5334
3949.3813
3949.179
3948.9135
3948.5707
3948.1231
3947.5732
3946.7772
3946.1168
3943.9209
3954.2091
3954.2553
3954.2739
3954.2897
3954.3026
3954.3155
3954.3288
3954.3419
3954.3547
3954.3675
3954.3805
3954.394
3954.4082
3954.4237
3954.4405
3954.4588
3954.4786
3954.4999
3954.5225
3954.5462
3954.5711
3954.5971
3954.6242
3954.6524
3954.6816
3954.7117
3954.7425
3954.7735
3954.8044
3954.8345
3954.8633
3954.8897
3954.9128
3954.931
3954.9427
3954.9457
3954.9373
3954.9142
3954.8724
3954.8071
3954.7123
3954.5804
3954.4025
3954.1663
3953.8589
3953.4547
3952.9558
3952.2305
3951.6268
3949.6172
3959.096
3959.1443
3959.1637
3959.1802
3959.1937
3959.2071
3959.221
3959.2347
3959.248
3959.2614
3959.2749
3959.289
3959.3039
3959.32
3959.3376
3959.3567
3959.3775
3959.3998
3959.4235
3959.4484
3959.4746
3959.502
3959.5306
3959.5605
3959.5916
3959.6238
3959.6569
3959.6905
3959.7242
3959.7575
3959.7899
3959.8204
3959.8482
3959.8718
3959.8897
3959.8997
3959.8996
3959.8861
3959.8556
3959.8037
3959.7246
3959.6116
3959.4561
3959.2469
3958.972
3958.6076
3958.1555
3957.4946
3956.9429
3955.1015
3963.8327
3963.8831
3963.9033
3963.9206
3963.9346
3963.9486
3963.963
3963.9773
3963.9912
3964.0051
3964.0192
3964.0339
3964.0494
3964.0662
3964.0845
3964.1045
3964.1262
3964.1495
3964.1742
3964.2004
3964.2278
3964.2566
3964.2867
3964.3183
3964.3512
3964.3854
3964.4207
3964.4567
3964.4932
3964.5296
3964.5654
3964.5999
3964.6321
3964.6607
3964.6844
3964.7012
3964.7088
3964.7044
3964.6845
3964.6449
3964.5805
3964.4849
3964.3502
3964.166
3963.921
3963.5933
3963.184
3962.5822
3962.0783
3960.3895
3968.4278
3968.4803
3968.5013
3968.5193
3968.5339
3968.5484
3968.5635
3968.5783
3968.5927
3968.6072
3968.6219
3968.6371
3968.6533
3968.6707
3968.6898
3968.7106
3968.7332
3968.7575
3968.7833
3968.8106
3968.8393
3968.8694
3968.901
3968.9342
3968.9689
3969.005
3969.0425
3969.0809
3969.12
3969.1594
3969.1985
3969.2367
3969.2731
3969.3066
3969.3358
3969.3589
3969.3738
3969.3778
3969.3678
3969.3399
3969.2891
3969.2098
3969.0944
3968.9333
3968.716
3968.4222
3968.0524
3967.5047
3967.0449
3965.4952
3972.8891
3972.9437
3972.9655
3972.9842
3972.9994
3973.0145
3973.0301
3973.0455
3973.0605
3973.0755
3973.0907
3973.1065
3973.1233
3973.1415
3973.1613
3973.1829
3973.2064
3973.2317
3973.2586
3973.287
3973.3169
3973.3484
3973.3814
3973.4162
3973.4526
3973.4906
3973.5301
3973.5709
3973.6126
3973.6548
3973.6971
3973.7389
3973.7793
3973.8174
3973.8518
3973.8809
3973.9027
3973.9147
3973.914
3973.8968
3973.8589
3973.7947
3973.6973
3973.5577
3973.3661
3973.1036
3972.7704
3972.2725
3971.8534
3970.4311
3977.2239
3977.2805
3977.3032
3977.3226
3977.3383
3977.354
3977.3702
3977.3861
3977.4017
3977.4172
3977.433
3977.4494
3977.4668
3977.4856
3977.5062
3977.5286
3977.553
3977.5793
3977.6072
3977.6367
3977.6679
3977.7006
3977.7351
3977.7714
3977.8095
3977.8494
3977.8909
3977.9339
3977.9781
3978.0231
3978.0684
3978.1136
3978.1579
3978.2004
3978.2398
3978.2745
3978.3028
3978.3224
3978.3304
3978.3235
3978.2976
3978.2475
3978.1669
3978.0474
3977.8796
3977.6462
3977.3469
3976.895
3976.5136
3975.2081
3981.4387
3981.4974
3981.521
3981.5411
3981.5574
3981.5736
3981.5904
3981.6069
3981.6229
3981.639
3981.6554
3981.6724
3981.6904
3981.7099
3981.7312
3981.7544
3981.7797
3981.8069
3981.8359
3981.8665
3981.8989
3981.9329
3981.9688
3982.0066
3982.0463
3982.088
3982.1315
3982.1767
3982.2233
3982.2709
3982.3192
3982.3677
3982.4157
3982.4624
3982.5065
3982.5467
3982.5812
3982.6078
3982.6241
3982.6268
3982.6121
3982.5753
3982.5105
3982.4096
3982.2642
3982.0579
3981.7901
3981.3807
3981.0343
3979.8365
3985.5398
3985.6006
3985.625
3985.6458
3985.6627
3985.6794
3985.6968
3985.7138
3985.7305
3985.7471
3985.764
3985.7816
3985.8002
3985.8204
3985.8424
3985.8664
3985.8926
3985.9207
3985.9507
3985.9825
3986.016
3986.0513
3986.0885
3986.1278
3986.1692
3986.2127
3986.2581
3986.3054
3986.3543
3986.4045
3986.4557
3986.5074
3986.5589
3986.6096
3986.6582
3986.7036
3986.7439
3986.7773
3986.8014
3986.8132
3986.8092
3986.7849
3986.7347
3986.6514
3986.5269
3986.3458
3986.1073
3985.7376
3985.4237
3984.3253
3989.5328
3989.5957
3989.6209
3989.6424
3989.6599
3989.6772
3989.6951
3989.7128
3989.7299
3989.7471
3989.7646
3989.7827
3989.802
3989.8228
3989.8455
3989.8704
3989.8974
3989.9265
3989.9575
3989.9903
3990.025
3990.0616
3990.1002
3990.1409
3990.1839
3990.2291
3990.2764
3990.3257
3990.3769
3990.4296
3990.4836
3990.5383
3990.5933
3990.6478
3990.7008
3990.7511
3990.797
3990.8369
3990.8683
3990.8887
3990.8947
3990.8822
3990.8459
3990.7791
3990.674
3990.5165
3990.3055
3989.9726
3989.689
3988.6827
3993.4231
3993.4881
3993.5141
3993.5363
3993.5544
3993.5723
3993.5908
3993.6089
3993.6267
3993.6443
3993.6624
3993.6811
3993.7009
3993.7224
3993.7459
3993.7715
3993.7994
3993.8294
3993.8614
3993.8954
3993.9312
3993.969
3994.0089
3994.0511
3994.0956
3994.1425
3994.1917
3994.243
3994.2964
3994.3515
3994.4082
3994.4659
3994.5242
3994.5824
3994.6396
3994.6945
3994.7459
3994.7918
3994.8303
3994.8589
3994.8743
3994.8729
3994.8497
3994.7984
3994.7117
3994.5763
3994.3909
3994.0924
3993.8371
3992.9164
3997.2155
3997.2826
3997.3095
3997.3324
3997.351
3997.3695
3997.3885
3997.4073
3997.4255
3997.4438
3997.4623
3997.4816
3997.5021
3997.5242
3997.5484
3997.5748
3997.6035
3997.6345
3997.6675
3997.7025
3997.7395
3997.7785
3997.8197
3997.8633
3997.9093
3997.9579
3998.0089
3998.0622
3998.1178
3998.1753
3998.2345
3998.2951
3998.3566
3998.4184
3998.4795
3998.539
3998.5955
3998.6473
3998.6925
3998.7288
3998.7532
3998.7623
3998.7514
3998.7147
3998.6453
3998.5307
3998.3694
3998.103
3997.8743
3997.0331
4000.9147
4000.9839
4001.0115
4001.0352
4001.0544
4001.0734
4001.093
4001.1123
4001.1311
4001.1499
4001.169
4001.1889
4001.2099
4001.2327
4001.2576
4001.2848
4001.3144
4001.3463
4001.3803
4001.4163
4001.4544
4001.4946
4001.5371
4001.5821
4001.6297
4001.6799
4001.7326
4001.7879
4001.8455
4001.9053
4001.9671
4002.0305
4002.0951
4002.1603
4002.2254
4002.2892
4002.3505
4002.4079
4002.4595
4002.5032
4002.5362
4002.5552
4002.556
4002.5331
4002.4799
4002.3849
4002.2463
4002.01
4001.8062
4001.0392
4004.5249
4004.5962
4004.6246
4004.649
4004.6687
4004.6883
4004.7085
4004.7284
4004.7477
4004.767
4004.7867
4004.8071
4004.8288
4004.8522
4004.8778
4004.9058
4004.9362
4004.969
4005.004
4005.0411
4005.0803
4005.1217
4005.1655
4005.2118
4005.2609
4005.3127
4005.3672
4005.4244
4005.484
4005.5461
4005.6103
4005.6764
4005.7441
4005.8126
4005.8813
4005.9493
4006.0154
4006.0782
4006.1359
4006.1866
4006.2277
4006.2562
4006.2681
4006.2582
4006.2204
4006.1439
4006.0265
4005.8185
4005.6382
4004.9405
4008.05
4008.1234
4008.1527
4008.1778
4008.1981
4008.2183
4008.239
4008.2594
4008.2793
4008.2992
4008.3194
4008.3404
4008.3626
4008.3867
4008.413
4008.4418
4008.473
4008.5067
4008.5427
4008.5808
4008.6211
4008.6637
4008.7087
4008.7565
4008.807
4008.8603
4008.9166
4008.9756
4009.0373
4009.1015
4009.1681
4009.2369
4009.3074
4009.3792
4009.4516
4009.5236
4009.5942
4009.6621
4009.7256
4009.783
4009.8319
4009.8694
4009.8918
4009.8943
4009.8711
4009.812
4009.7148
4009.5334
4009.3751
4008.7424
4011.494
4011.5694
4011.5996
4011.6253
4011.6462
4011.6669
4011.6882
4011.7092
4011.7297
4011.75
4011.7708
4011.7923
4011.8152
4011.8399
4011.8669
4011.8964
4011.9285
4011.9631
4012
4012.0392
4012.0806
4012.1243
4012.1706
4012.2197
4012.2716
4012.3266
4012.3845
4012.4453
4012.509
4012.5754
4012.6443
4012.7157
4012.789
4012.864
4012.9398
4013.0157
4013.0907
4013.1635
4013.2327
4013.2965
4013.3528
4013.3989
4013.4313
4013.4455
4013.4362
4013.3936
4013.3153
4013.159
4013.0215
4012.4498
4014.8601
4014.9376
4014.9686
4014.9951
4015.0165
4015.0378
4015.0597
4015.0812
4015.1022
4015.1231
4015.1444
4015.1665
4015.1899
4015.2153
4015.243
4015.2733
4015.3062
4015.3417
4015.3796
4015.4197
4015.4622
4015.5071
4015.5547
4015.605
4015.6584
4015.7149
4015.7744
4015.837
4015.9026
4015.9711
4016.0424
4016.1163
4016.1924
4016.2703
4016.3495
4016.4292
4016.5084
4016.586
4016.6606
4016.7305
4016.7939
4016.8482
4016.8902
4016.9156
4016.9193
4016.8924
4016.8321
4016.6995
4016.5817
4016.0673
4018.1517
4018.2313
4018.2631
4018.2903
4018.3123
4018.3342
4018.3566
4018.3787
4018.4002
4018.4217
4018.4435
4018.4662
4018.4902
4018.5162
4018.5446
4018.5756
4018.6094
4018.6457
4018.6846
4018.7258
4018.7693
4018.8154
4018.8641
4018.9158
4018.9706
4019.0285
4019.0897
4019.1541
4019.2216
4019.2922
4019.3657
4019.442
4019.5208
4019.6017
4019.6842
4019.7675
4019.8507
4019.9329
4020.0127
4020.0886
4020.1587
4020.2208
4020.2719
4020.308
4020.3242
4020.3121
4020.2689
4020.1588
4020.0596
4019.5992
4021.3719
4021.4536
4021.4863
4021.5141
4021.5367
4021.5591
4021.5822
4021.6048
4021.6268
4021.6488
4021.6712
4021.6944
4021.719
4021.7456
4021.7747
4021.8065
4021.8411
4021.8783
4021.9181
4021.9603
4022.0049
4022.0521
4022.1021
4022.155
4022.2112
4022.2706
4022.3334
4022.3995
4022.4689
4022.5415
4022.6172
4022.6959
4022.7773
4022.8611
4022.9468
4023.0336
4023.1208
4023.2074
4023.2922
4023.3737
4023.4504
4023.52
4023.5798
4023.6261
4023.6542
4023.6562
4023.6292
4023.5403
4023.4588
4023.0493
4024.5236
4024.6074
4024.6409
4024.6694
4024.6926
4024.7155
4024.7392
4024.7623
4024.7849
4024.8074
4024.8303
4024.8541
4024.8793
4024.9066
4024.9363
4024.9689
4025.0043
4025.0424
4025.0831
4025.1263
4025.172
4025.2203
4025.2714
4025.3256
4025.3832
4025.4441
4025.5085
4025.5763
4025.6475
4025.722
4025.7999
4025.8809
4025.9649
4026.0515
4026.1403
4026.2306
4026.3216
4026.4124
4026.502
4026.5891
4026.672
4026.7488
4026.817
4026.8729
4026.9124
4026.9279
4026.9163
4026.8475
4026.7827
4026.4215
4027.6095
4027.6954
4027.7296
4027.7589
4027.7827
4027.8062
4027.8303
4027.8541
4027.8772
4027.9002
4027.9237
4027.948
4027.9738
4028.0017
4028.0321
4028.0654
4028.1016
4028.1406
4028.1822
4028.2264
4028.2731
4028.3225
4028.3749
4028.4304
4028.4892
4028.5516
4028.6176
4028.687
4028.7601
4028.8366
4028.9165
4028.9999
4029.0863
4029.1757
4029.2675
4029.3611
4029.4558
4029.5508
4029.645
4029.7373
4029.8263
4029.91
4029.9862
4030.0514
4030.1017
4030.13
4030.1332
4030.0836
4030.0347
4029.719
4030.6321
4030.7201
4030.7552
4030.7852
4030.8095
4030.8335
4030.8583
4030.8826
4030.9062
4030.9298
4030.9538
4030.9786
4031.005
4031.0335
4031.0646
4031.0987
4031.1357
4031.1755
4031.2181
4031.2633
4031.311
4031.3615
4031.415
4031.4718
4031.532
4031.5958
4031.6633
4031.7344
4031.8092
4031.8876
4031.9697
4032.0552
4032.1442
4032.2362
4032.3309
4032.4278
4032.5261
4032.6251
4032.7238
4032.8212
4032.916
4033.0064
4033.0902
4033.1643
4033.225
4033.2656
4033.2828
4033.2514
4033.2177
4032.9452
4033.5939
4033.684
4033.7199
4033.7506
4033.7755
4033.8001
4033.8254
4033.8503
4033.8745
4033.8985
4033.923
4033.9485
4033.9754
4034.0045
4034.0364
4034.0711
4034.1089
4034.1496
4034.1931
4034.2392
4034.288
4034.3396
4034.3943
4034.4523
4034.5138
4034.5791
4034.6481
4034.7208
4034.7974
4034.8777
4034.9617
4035.0495
4035.1408
4035.2355
4035.3331
4035.4331
4035.5349
4035.6378
4035.7409
4035.8432
4035.9435
4036.0403
4036.1315
4036.2142
4036.2848
4036.3372
4036.3677
4036.3537
4036.3345
4036.103
4036.4972
4036.5894
4036.6261
4036.6575
4036.683
4036.7082
4036.734
4036.7594
4036.7842
4036.8088
4036.8338
4036.8598
4036.8873
4036.917
4036.9495
4036.985
4037.0236
4037.0652
4037.1096
4037.1567
4037.2065
4037.2592
4037.315
4037.3742
4037.4371
4037.5037
4037.5742
4037.6486
4037.7268
4037.809
4037.8951
4037.985
4038.0787
4038.1759
4038.2762
4038.3793
4038.4845
4038.5912
4038.6985
4038.8056
4038.9114
4039.0143
4039.1126
4039.2035
4039.2837
4039.3472
4039.3906
4039.3931
4039.3877
4039.1953
4039.3442
4039.4384
4039.476
4039.5081
4039.5341
4039.5598
4039.5863
4039.6122
4039.6375
4039.6626
4039.6882
4039.7147
4039.7428
4039.7732
4039.8063
4039.8426
4039.8819
4039.9244
4039.9697
4040.0177
4040.0685
4040.1223
4040.1793
4040.2397
4040.3038
4040.3719
4040.4438
4040.5198
4040.5998
4040.6837
4040.7718
4040.8638
4040.9598
4041.0595
4041.1626
4041.2687
4041.3772
4041.4876
4041.599
4041.7107
4041.8217
4041.9306
4042.0357
4042.1345
4042.2238
4042.2982
4042.3538
4042.3722
4042.38
4042.2247
4042.1368
4042.2331
4042.2715
4042.3043
4042.3309
4042.3572
4042.3842
4042.4107
4042.4365
4042.4622
4042.4883
4042.5153
4042.544
4042.575
4042.6088
4042.6458
4042.6859
4042.7292
4042.7754
4042.8244
4042.8762
4042.9311
4042.9892
4043.0508
4043.1162
4043.1856
4043.2591
4043.3366
4043.4182
4043.504
4043.594
4043.6881
4043.7864
4043.8885
4043.9943
4044.1033
4044.2151
4044.329
4044.4444
4044.5606
4044.6766
4044.7913
4044.903
4045.0094
4045.1075