/*--------------------------------*- C++ -*----------------------------------*\
| =========                 |                                                 |
| \\      /  F ield         | OpenFOAM: The Open Source CFD Toolbox           |
|  \\    /   O peration     | Version:  4.0                                   |
|   \\  /    A nd           | Web:      www.OpenFOAM.org                      |
|    \\/     M anipulation  |                                                 |
\*---------------------------------------------------------------------------*/
FoamFile
{
    version     2.0;
    format      ascii;
    class       volScalarField;
    location    "760";
    object      ILambda_3_0;
}
// * * * * * * * * * * * * * * * * * * * * * * * * * * * * * * * * * * * * * //

dimensions      [1 0 -3 0 0 0 0];

internalField   nonuniform List<scalar> 
5000
(
319.08487
315.7898
312.21592
308.34716
304.16664
299.6578
294.80502
289.5942
284.01334
278.05338
271.70896
264.97949
257.87022
250.39346
242.56992
234.43007
226.0155
217.38021
208.59168
199.73163
190.89626
182.19569
173.75244
165.69874
158.17218
151.30982
145.24047
140.07541
135.89787
132.75228
130.63439
129.4842
129.1837
129.56152
130.4061
131.48752
132.58616
133.52349
134.18813
134.54899
134.64956
134.58269
134.45299
134.34073
134.2819
134.27159
134.28461
134.29835
134.30401
134.30297
391.81809
391.94551
392.02384
392.0343
391.95601
391.76421
391.42948
390.91696
390.1856
389.1875
387.8672
386.16111
383.99708
381.29423
377.96318
373.90681
369.0217
363.20061
356.33602
348.32522
339.07694
328.51986
316.61297
303.35755
288.81038
273.09715
256.42467
239.08961
221.48117
204.07428
187.41014
172.06146
158.58165
147.44057
138.95389
133.21875
130.07266
129.0942
129.65838
131.04677
132.59154
133.81249
134.49723
134.68933
134.58856
134.41345
134.29763
134.26602
134.27998
134.30036
413.47907
413.41429
413.35565
413.30537
413.26543
413.23753
413.22297
413.2223
413.2348
413.25785
413.28607
413.31008
413.3151
413.27902
413.17011
412.94423
412.54153
411.88284
410.86561
409.35996
407.20508
404.20668
400.13646
394.73479
387.71812
378.79283
367.67734
354.13362
338.00862
319.28397
298.12973
274.95396
250.43583
225.52622
201.39886
179.33921
160.57041
146.03616
136.1869
130.83751
129.16848
129.91027
131.68178
133.36965
134.38759
134.69531
134.58571
134.38959
134.28004
134.27418
425.0071
424.91464
424.81292
424.70139
424.5797
424.44773
424.30572
424.15433
423.99481
423.82909
423.65997
423.49123
423.32767
423.17508
423.04001
422.92922
422.84867
422.80188
422.78727
422.79432
422.7981
422.75189
422.57756
422.15378
421.3025
419.77469
417.23767
413.26746
407.3514
398.90791
387.33068
372.06442
352.71482
329.18732
301.836
271.58637
239.97973
209.08044
181.20404
158.47462
142.30095
132.94732
129.40932
129.7288
131.68189
133.54087
134.51893
134.68581
134.49654
134.3001
433.3371
433.25721
433.16905
433.07165
432.96395
432.84478
432.71284
432.56672
432.40489
432.22577
432.02777
431.80939
431.56942
431.3071
431.02253
430.71699
430.39356
430.05764
429.71762
429.38541
429.07654
428.80962
428.60439
428.47757
428.43527
428.46073
428.49585
428.41541
427.99429
426.86978
424.5054
420.16764
412.93351
401.7522
385.58427
363.63222
335.64951
302.27051
265.2482
227.44557
192.44198
163.72976
143.68933
132.75755
129.26901
130.19271
132.45768
134.11565
134.68961
134.50926
439.89809
439.83248
439.7601
439.68025
439.59212
439.49483
439.38735
439.26855
439.13713
438.99158
438.83023
438.65111
438.45199
438.23034
437.9833
437.7077
437.40018
437.05738
436.67625
436.2547
435.79244
435.29231
434.76194
434.21574
433.67685
433.17826
432.76177
432.4724
432.34489
432.37806
432.49244
432.46831
431.86651
429.94403
425.59268
417.34788
403.52951
382.57169
353.55295
316.83802
274.60144
230.88941
190.91127
159.54852
139.58676
130.60619
129.34254
131.45852
133.65328
134.63094
445.31341
445.25819
445.19725
445.13003
445.05589
444.97414
444.88396
444.78445
444.6746
444.5533
444.41929
444.27113
444.10723
443.92572
443.72447
443.50099
443.25236
442.97513
442.6652
442.31775
441.92721
441.48737
440.99174
440.43442
439.81162
439.12429
438.38184
437.60714
436.84172
436.14912
435.61183
435.3143
435.30125
435.4992
435.59358
434.86859
432.04876
425.22653
412.00632
390.00165
357.73181
315.73694
267.41159
218.85276
177.24862
148.16182
133.10516
129.09851
130.67553
133.70671
449.89729
449.8501
449.79792
449.74035
449.67684
449.60683
449.52963
449.44446
449.35049
449.24677
449.13226
449.00578
448.86604
448.71156
448.54072
448.35167
448.1423
447.91022
447.65264
447.36627
447.0472
446.69065
446.29071
445.84013
445.33003
444.74998
444.08864
443.33558
442.485
441.54237
440.5341
439.51947
438.59994
437.91549
437.60883
437.73119
438.06381
437.85284
435.51612
428.4807
413.41314
387.10767
348.05831
298.20107
243.70538
193.63611
156.38654
135.72881
128.98203
131.17793
453.86274
453.82168
453.77618
453.72595
453.67053
453.60945
453.54213
453.46788
453.38599
453.29562
453.19589
453.08579
452.96418
452.82982
452.68131
452.51706
452.33534
452.13415
451.9113
451.66426
451.39018
451.08579
450.74724
450.36993
449.94817
449.47476
448.94033
448.33278
447.63676
446.83423
445.90713
444.84419
443.65391
442.38489
441.14937
440.13581
439.57821
439.63095
440.09311
439.97194
437.00597
427.48353
406.86943
371.61738
321.82267
263.21885
206.39985
162.54934
137.2856
129.21718
457.34884
457.3127
457.2725
457.22809
457.17907
457.12506
457.06554
456.99992
456.92755
456.84772
456.75965
456.66243
456.55511
456.43657
456.30559
456.1608
456.00066
455.82346
455.62725
455.40985
455.16882
454.90138
454.60442
454.2744
453.90725
453.49823
453.04164
452.53035
451.95495
451.30261
450.55564
449.69051
448.67898
447.49465
446.12968
444.62599
443.11787
441.86347
441.20626
441.3669
441.96486
441.29047
435.66097
419.60755
387.73581
338.26624
276.37777
214.19301
165.68578
133.92794
460.45478
460.42264
460.38673
460.34703
460.30317
460.25485
460.20163
460.14296
460.07827
460.00692
459.92823
459.84139
459.74556
459.63974
459.52286
459.39371
459.25094
459.09303
458.91826
458.72473
458.51025
458.2724
458.0084
457.71512
457.38902
457.02607
456.6217
456.17071
455.66696
455.10299
454.46906
453.75151
452.93032
451.97635
450.85069
449.51159
447.9384
446.18175
444.43593
443.08654
442.61116
443.14238
443.56863
440.43023
427.56657
397.93045
348.07086
282.73836
217.84263
153.05736
463.25203
463.22323
463.19088
463.15505
463.11545
463.07183
463.02379
462.97085
462.91248
462.84811
462.77713
462.69883
462.61242
462.51705
462.41174
462.29542
462.16687
462.02474
461.86752
461.69351
461.50079
461.28718
461.05024
460.7872
460.49487
460.16967
459.80747
459.4036
458.95273
458.44884
457.88496
457.25283
456.54182
455.73669
454.8137
453.73551
452.44862
450.89375
449.04744
447.01112
445.12736
444.00067
444.15221
445.00735
443.33868
432.3167
403.44591
351.19008
286.2296
191.00461
465.79402
465.76807
465.73871
465.70615
465.67011
465.63042
465.58673
465.53859
465.48551
465.42699
465.36246
465.29129
465.21278
465.12613
465.03047
464.92485
464.80815
464.67918
464.53656
464.37878
464.20411
464.01062
463.79613
463.55817
463.29391
463.00016
462.67326
462.30898
461.9025
461.44828
460.93997
460.37038
459.73134
459.01328
458.20396
457.28515
456.22612
454.97489
453.45511
451.59073
449.39382
447.12911
445.45138
445.17142
446.15367
445.2172
434.974
403.68487
355.18961
244.94359
468.12161
468.09811
468.07132
468.04153
468.00852
467.97218
467.9322
467.88813
467.83954
467.78599
467.72695
467.66183
467.59001
467.51076
467.42329
467.32672
467.22007
467.10222
466.97194
466.82786
466.66842
466.49189
466.29628
466.07939
465.83868
465.57131
465.27399
464.94299
464.574
464.16204
463.70134
463.18521
462.60598
461.95491
461.22219
460.39646
459.46284
458.39711
457.15409
455.65376
453.78693
451.49095
448.94928
446.83607
446.21582
447.17118
446.84948
433.83351
409.55376
305.35945
470.26667
470.24534
470.22076
470.19338
470.16298
470.12952
470.09272
470.05216
470.00745
469.95817
469.90385
469.84394
469.77787
469.70498
469.62454
469.53575
469.4377
469.32938
469.20968
469.07732
468.93091
468.76885
468.58936
468.39042
468.16975
467.92478
467.65255
467.34972
467.01242
466.63622
466.21598
465.74572
465.21842
464.62591
463.95871
463.2061
462.35624
461.39534
460.30366
459.04333
457.53698
455.65442
453.27377
450.50306
448.0808
447.14629
448.71953
445.51256
442.11852
360.6912
472.25459
472.23517
472.21254
472.18725
472.15913
472.12818
472.09416
472.05666
472.01532
471.96976
471.91953
471.86416
471.80309
471.73572
471.66138
471.57934
471.48876
471.38871
471.27816
471.15596
471.02081
470.87126
470.70568
470.52224
470.31884
470.09314
469.84247
469.56378
469.25359
468.90792
468.52214
468.09093
467.60804
467.06614
466.45656
465.76909
464.99191
464.11187
463.11475
461.98299
460.68475
459.14627
457.22361
454.73436
451.78231
448.97992
448.68853
447.53108
455.17005
402.67789
474.10586
474.08816
474.06724
474.04381
474.01769
473.98895
473.95736
473.92255
473.88418
473.84188
473.79526
473.74386
473.68718
473.62466
473.55568
473.47955
473.39551
473.3027
473.20017
473.08685
472.96154
472.82292
472.66948
472.49953
472.31117
472.10223
471.87029
471.61254
471.32584
471.00654
470.65047
470.25281
469.80797
469.30941
468.74941
468.11882
467.40665
466.59992
465.68388
464.64281
463.45979
462.10645
460.51436
458.51039
455.91858
452.58328
450.33165
447.55419
456.5511
429.0377
475.83726
475.82111
475.80174
475.77995
475.7556
475.72882
475.6994
475.66698
475.63123
475.59183
475.5484
475.50053
475.44773
475.3895
475.32525
475.25436
475.1761
475.08968
474.99423
474.88874
474.77212
474.64312
474.50037
474.3423
474.16715
473.97293
473.7574
473.51801
473.25184
472.95557
472.6254
472.25694
471.84509
471.38397
470.86665
470.28498
469.6292
468.88757
468.04588
467.08752
465.99488
464.7497
463.32934
461.65074
459.57581
456.63252
453.67576
449.23079
454.25772
442.59651
477.46271
477.44799
477.43
477.40969
477.38693
477.36189
477.33441
477.30412
477.27072
477.2339
477.19333
477.1486
477.09927
477.04486
476.98484
476.91861
476.8455
476.76478
476.67561
476.57709
476.46819
476.34775
476.21448
476.06694
475.90349
475.7223
475.52129
475.2981
475.05005
474.77408
474.4667
474.12387
473.74095
473.31256
472.83242
472.29316
471.68607
471.00074
470.22451
469.34183
468.33426
467.18092
465.86582
464.35361
462.61164
460.24587
457.52188
452.77701
453.11367
448.40004
478.99389
478.98048
478.96375
478.94476
478.92343
478.89997
478.87423
478.84586
478.81457
478.78008
478.74207
478.70016
478.65395
478.60298
478.54674
478.4847
478.41621
478.34059
478.25707
478.16479
478.06278
477.94999
477.8252
477.68707
477.53407
477.3645
477.17642
476.96765
476.73571
476.47776
476.19057
475.87044
475.51309
475.11358
474.66617
474.16413
473.59957
472.96311
472.24354
471.42711
470.49695
469.43156
468.21048
466.80413
465.2244
463.25716
460.99882
456.99854
454.43497
450.98861
480.44066
480.42846
480.41288
480.3951
480.37506
480.35303
480.32886
480.30223
480.27285
480.24046
480.20477
480.16542
480.12202
480.07416
480.02135
479.96308
479.89876
479.82774
479.74931
479.66265
479.56687
479.46096
479.3438
479.21412
479.07051
478.91136
478.73489
478.53904
478.32151
478.07967
477.81051
477.51062
477.17603
476.80219
476.38382
475.91475
475.38774
474.79426
474.12417
473.36522
472.50261
471.517
470.38683
469.07904
467.59718
465.84219
463.90195
460.86591
457.47695
453.08376
481.81144
481.80038
481.78585
481.76918
481.75031
481.72957
481.70685
481.6818
481.65415
481.62368
481.5901
481.55307
481.51223
481.46719
481.41749
481.36265
481.30212
481.23528
481.16146
481.07989
480.98975
480.89007
480.77981
480.65778
480.52264
480.37291
480.2069
480.0227
479.81815
479.59079
479.33785
479.05611
478.74192
478.39105
477.99862
477.55893
477.06535
476.51003
475.88369
475.17523
474.3714
473.45536
472.4075
471.19657
469.80741
468.18174
466.38983
464.02568
461.03553
455.65657
483.11348
483.10348
483.08992
483.07426
483.05647
483.03692
483.01551
482.99191
482.96586
482.93714
482.90548
482.87058
482.83208
482.78961
482.74275
482.69104
482.63396
482.57093
482.50131
482.4244
482.33938
482.24538
482.14139
482.02631
481.89888
481.75769
481.60117
481.42752
481.23472
481.02048
480.78217
480.51682
480.22101
479.89082
479.5217
479.10838
478.64472
478.1235
477.53619
476.87262
476.12067
475.26536
474.28922
473.16622
471.8723
470.35881
468.65198
466.60119
464.32217
458.65952
484.35305
484.34405
484.33138
484.31667
484.29987
484.28141
484.26121
484.23893
484.21434
484.18723
484.15735
484.12439
484.08804
484.04794
484.00369
483.95485
483.90093
483.84139
483.77562
483.70296
483.62263
483.53382
483.43557
483.32683
483.20644
483.07305
482.92518
482.76114
482.57903
482.3767
482.15169
481.90121
481.62206
481.31058
480.96252
480.57299
480.13629
479.64572
479.09342
478.47002
477.76439
476.9629
476.04955
475.00283
473.79846
472.3931
470.78015
468.84034
467.09646
461.73938
485.53561
485.52755
485.51573
485.50188
485.48599
485.46854
485.44946
485.42841
485.40517
485.37954
485.3513
485.32014
485.28577
485.24784
485.20599
485.15979
485.10879
485.05246
484.99024
484.92148
484.84547
484.76142
484.66843
484.56552
484.45157
484.32532
484.18537
484.03013
483.8578
483.66635
483.45348
483.21655
482.95257
482.6581
482.32918
481.96122
481.54892
481.08606
480.56533
479.9781
479.31406
478.56076
477.70335
476.72299
475.59806
474.29059
472.78938
470.91343
469.44003
464.62651
486.66595
486.65878
486.64775
486.6347
486.61966
486.60315
486.5851
486.5652
486.54321
486.51896
486.49222
486.46273
486.43019
486.39428
486.35465
486.3109
486.26259
486.20923
486.15027
486.08512
486.01309
485.93343
485.8453
485.74775
485.63974
485.52006
485.38739
485.24023
485.07688
484.89541
484.69366
484.46914
484.21903
483.94011
483.62864
483.28034
482.89024
482.45254
481.96044
481.40591
480.77943
480.06952
479.26244
478.34097
477.28606
476.063
474.67313
472.8834
471.51273
467.22485
487.74829
487.74198
487.73168
487.71939
487.70514
487.68949
487.67241
487.65357
487.63274
487.60977
487.58444
487.55649
487.52565
487.49162
487.45405
487.41257
487.36675
487.31614
487.26022
487.19841
487.13007
487.05447
486.97083
486.87825
486.77571
486.66211
486.53616
486.39645
486.24136
486.06909
485.87757
485.66446
485.4271
485.16243
484.86696
484.53665
484.16684
483.75209
483.28606
482.76126
482.16884
481.49819
480.73661
479.8681
478.87577
477.72603
476.43299
474.75403
473.42881
469.55456
488.78636
488.78087
488.77126
488.75968
488.74617
488.73133
488.71515
488.6973
488.67755
488.65578
488.63176
488.60526
488.57601
488.54372
488.50807
488.4687
488.42521
488.37716
488.32406
488.26535
488.20043
488.12862
488.04914
487.96116
487.86371
487.75573
487.63601
487.50319
487.35576
487.19198
487.00991
486.80732
486.5817
486.33017
486.04941
485.73563
485.38443
484.99072
484.54853
484.05088
483.4895
482.85452
482.13422
481.31366
480.37776
479.29382
478.08107
476.5172
475.23865
471.67389
489.78349
489.77878
489.76983
489.75892
489.74609
489.73201
489.71668
489.69975
489.68103
489.66037
489.63758
489.61243
489.58466
489.554
489.52014
489.48275
489.44143
489.39577
489.3453
489.28949
489.22776
489.15947
489.08388
489.00018
488.90746
488.8047
488.69077
488.56436
488.42402
488.26812
488.0948
487.90197
487.68721
487.44781
487.18064
486.88209
486.54804
486.17367
485.75338
485.28062
484.74764
484.14523
483.46252
482.68555
481.80071
480.77702
479.63253
478.17303
476.95492
473.63379
490.74264
490.73869
490.73037
490.72008
490.7079
490.69453
490.67999
490.66394
490.64617
490.62655
490.60492
490.58103
490.55466
490.52553
490.49335
490.45781
490.41852
490.3751
490.32709
490.27399
490.21525
490.15024
490.07827
489.99857
489.91027
489.81239
489.70385
489.5834
489.44967
489.3011
489.13592
488.95214
488.74746
488.51931
488.26472
487.98028
487.66207
487.30556
486.90545
486.45559
485.9487
485.37615
484.72781
483.99065
483.15211
482.18372
481.10013
479.73029
478.57908
475.46616
491.66648
491.66326
491.65553
491.64583
491.63426
491.62156
491.60777
491.59254
491.57567
491.55704
491.53649
491.5138
491.48873
491.46104
491.43045
491.39664
491.35926
491.31794
491.27224
491.22168
491.16574
491.10381
491.03524
490.95929
490.87511
490.78179
490.67829
490.56341
490.43585
490.29412
490.13653
489.96117
489.76588
489.54819
489.30529
489.03394
488.73042
488.39044
488.009
487.58028
487.09745
486.55238
485.93559
485.23492
484.43861
483.52072
482.49315
481.20066
480.11412
477.18874
492.5574
492.55488
492.54771
492.53858
492.52758
492.51553
492.50244
492.48798
492.47196
492.45427
492.43474
492.41317
492.38934
492.363
492.3339
492.30172
492.26615
492.2268
492.18327
492.13511
492.08179
492.02276
491.95738
491.88494
491.80464
491.7156
491.61681
491.50716
491.38537
491.25003
491.09953
490.93205
490.74552
490.53759
490.30558
490.04641
489.75655
489.43193
489.0678
488.65868
488.19809
487.6784
487.09068
486.42358
485.66598
484.79413
483.81845
482.59461
481.56652
478.81255
493.41756
493.41573
493.4091
493.4005
493.39005
493.37859
493.36617
493.35245
493.33723
493.32042
493.30186
493.28135
493.25869
493.23363
493.20593
493.1753
493.14143
493.10394
493.06247
493.01655
492.96572
492.90941
492.84703
492.7779
492.70124
492.61622
492.52187
492.41711
492.30075
492.1714
492.02755
491.86744
491.68911
491.4903
491.26847
491.02067
490.74355
490.43323
490.08522
489.69429
489.25435
488.75817
488.19733
487.5612
486.83928
486.00953
485.08175
483.92033
482.94428
480.34648
494.24893
494.24776
494.24164
494.23356
494.22362
494.21273
494.20095
494.18793
494.17347
494.15749
494.13985
494.12035
494.09879
494.07495
494.04858
494.01941
493.98714
493.95142
493.91188
493.86809
493.8196
493.76587
493.70632
493.6403
493.56708
493.48585
493.39567
493.29553
493.18426
493.06055
492.92294
492.76975
492.59911
492.40885
492.19655
491.95939
491.69418
491.39722
491.06424
490.69027
490.26954
489.7952
489.25929
488.65182
487.96288
487.17185
486.28814
485.18411
484.25496
481.79882
495.05328
495.05276
495.04714
495.03954
495.03009
495.01974
495.00857
494.99621
494.98247
494.96729
494.95052
494.93197
494.91146
494.88877
494.86367
494.83588
494.80513
494.77108
494.73338
494.69161
494.64533
494.59403
494.53716
494.47409
494.40412
494.32646
494.24022
494.14443
494.03796
493.91956
493.78783
493.64115
493.47774
493.29552
493.09216
492.86499
492.61094
492.32648
492.00756
491.64943
491.24662
490.79262
490.27991
489.69904
489.04068
488.28542
487.4423
486.39119
485.50499
483.17734
495.83225
495.83235
495.8272
495.82007
495.81109
495.80126
495.79066
495.77893
495.76588
495.75146
495.73552
495.71788
495.69837
495.67677
495.65287
495.6264
495.5971
495.56463
495.52867
495.48881
495.44463
495.39564
495.34131
495.28103
495.21413
495.13985
495.05734
494.96565
494.86372
494.75034
494.62415
494.48361
494.32701
494.15235
493.95741
493.73962
493.49605
493.22334
492.91759
492.5743
492.18824
491.75325
491.26217
490.70606
490.07612
489.35404
488.54843
487.54612
486.69966
484.489
496.5873
496.58801
496.58333
496.57664
496.56811
496.55877
496.54872
496.53759
496.52521
496.5115
496.49635
496.47959
496.46102
496.44047
496.41771
496.3925
496.36457
496.33361
496.2993
496.26126
496.21908
496.17228
496.12036
496.06272
495.99873
495.92766
495.84868
495.76089
495.66325
495.5546
495.43365
495.29892
495.14874
494.98123
494.79422
494.58527
494.35157
494.08989
493.79652
493.46715
493.0968
492.6796
492.20875
491.67575
491.07229
490.38107
489.61025
488.65303
487.8435
485.73986
497.31981
497.32112
497.31688
497.31062
497.30252
497.29365
497.28412
497.27357
497.26181
497.2488
497.23441
497.21847
497.20081
497.18125
497.15958
497.13557
497.10895
497.07943
497.0467
497.01039
496.9701
496.92539
496.87576
496.82064
496.75942
496.69139
496.61576
496.53166
496.43809
496.33393
496.21795
496.08871
495.94461
495.78384
495.60433
495.40372
495.17932
494.92804
494.64633
494.33006
493.97447
493.57396
493.12205
492.61069
492.03196
491.3695
490.63106
489.7156
488.94044
486.93517
498.03102
498.03292
498.0291
498.02326
498.01556
498.00714
497.99813
497.98813
497.97697
497.96461
497.95094
497.9358
497.91901
497.9004
497.87978
497.8569
497.83153
497.80339
497.77216
497.7375
497.69903
497.6563
497.60885
497.55613
497.49754
497.4324
497.35996
497.27936
497.18966
497.08977
496.97849
496.85446
496.71612
496.56174
496.38932
496.19661
495.981
495.73954
495.46881
495.16489
494.82319
494.43837
494.00427
493.51319
492.95761
492.32204
491.61382
490.73715
489.99403
488.07951
498.72209
498.72455
498.72115
498.7157
498.7084
498.70041
498.69188
498.68241
498.67183
498.66011
498.64713
498.63275
498.61679
498.59909
498.57946
498.55768
498.53351
498.50668
498.47689
498.44381
498.40706
498.36623
498.32086
498.27042
498.21434
498.15196
498.08256
498.0053
497.91927
497.82344
497.71663
497.59754
497.46468
497.31635
497.15066
496.96541
496.75813
496.52596
496.26562
495.97334
495.64475
495.27472
494.85737
494.38535
493.85149
493.24109
492.56116
491.72062
491.00741
489.1769
499.39406
499.39709
499.39409
499.38902
499.3821
499.37453
499.36646
499.3575
499.34747
499.33636
499.32405
499.31039
499.29523
499.27841
499.25973
499.239
499.21598
499.1904
499.16199
499.13041
499.09532
499.0563
499.01292
498.96467
498.91098
498.85123
498.78472
498.71064
498.62812
498.53615
498.4336
498.31921
498.19154
498.04898
497.88967
497.71151
497.51212
497.28875
497.03824
496.75699
496.44078
496.08471
495.68314
495.22907
494.71564
494.12887
493.47545
492.66866
491.98345
490.2309
500.04793
500.0515
500.04889
500.0442
500.03763
500.03046
500.02284
500.01437
500.00488
499.99435
499.98268
499.96972
499.95533
499.93935
499.92159
499.90186
499.87994
499.85557
499.82847
499.79834
499.76483
499.72755
499.68607
499.6399
499.58851
499.53128
499.46753
499.39649
499.31731
499.22902
499.13053
499.02062
498.8979
498.76081
498.60757
498.43616
498.24426
498.02923
497.78806
497.51724
497.21275
496.86988
496.48323
496.04608
495.55191
494.98736
494.35884
493.58365
492.9247
491.24471
500.68459
500.68871
500.68648
500.68214
500.67592
500.66914
500.66195
500.65396
500.64498
500.63501
500.62395
500.61167
500.59802
500.58284
500.56596
500.5472
500.52633
500.50312
500.47729
500.44855
500.41656
500.38094
500.34128
500.29711
500.24791
500.19309
500.13198
500.06384
499.98786
499.90308
499.80846
499.70283
499.58483
499.45296
499.30551
499.1405
498.95573
498.74864
498.51632
498.25541
497.96203
497.63167
497.25912
496.83798
496.36197
495.81836
495.21327
494.46775
493.83347
492.22117
501.3049
501.30954
501.30768
501.30369
501.29781
501.2914
501.28463
501.27709
501.26861
501.25918
501.24872
501.23709
501.22414
501.20974
501.19371
501.17588
501.15603
501.13393
501.10932
501.0819
501.05137
501.01735
500.97944
500.93719
500.89009
500.83757
500.77899
500.71364
500.64071
500.55929
500.46838
500.36683
500.25334
500.12645
499.98451
499.82562
499.64763
499.4481
499.2242
498.9727
498.68987
498.37137
498.01219
497.60619
497.14736
496.62352
496.04054
495.3229
494.71185
493.16285
501.90963
501.91479
501.91329
501.90964
501.90409
501.89803
501.89167
501.88456
501.87656
501.86766
501.85777
501.84676
501.8345
501.82085
501.80564
501.78871
501.76983
501.7488
501.72536
501.69923
501.6701
501.63761
501.60138
501.56097
501.51589
501.46558
501.40943
501.34674
501.27674
501.19854
501.11117
501.01352
500.90434
500.78221
500.64553
500.49248
500.32097
500.12863
499.91276
499.67022
499.39742
499.09018
498.7437
498.35206
497.9095
497.40435
496.84224
496.15087
495.56173
494.07206
502.49951
502.50519
502.50404
502.50072
502.49548
502.48977
502.48379
502.47712
502.46958
502.46118
502.45184
502.44144
502.42984
502.41691
502.4025
502.38642
502.36849
502.34849
502.32618
502.30128
502.2735
502.24249
502.20787
502.16923
502.12609
502.07791
502.02409
501.96395
501.89676
501.82165
501.73767
501.64376
501.53871
501.42113
501.28949
501.142
500.97668
500.79121
500.58299
500.34899
500.08574
499.78922
499.4548
499.0768
498.64966
498.16222
497.61986
496.95328
496.38484
494.9509
503.07523
503.08141
503.08061
503.0776
503.07266
503.06729
503.06169
503.05543
503.04834
503.04043
503.03163
503.02181
503.01085
502.99862
502.98497
502.96972
502.95271
502.9337
502.91248
502.88877
502.86228
502.8327
502.79964
502.7627
502.72142
502.67528
502.6237
502.56603
502.50152
502.42938
502.34866
502.25833
502.15723
502.04402
501.91719
501.77504
501.61562
501.43672
501.2358
501.00995
500.75582
500.46951
500.14657
499.78153
499.36905
498.8984
498.37476
497.73161
497.18277
495.80125
503.63742
503.6441
503.64362
503.64092
503.63629
503.63124
503.62601
503.62014
503.61349
503.60605
503.59777
503.58852
503.57818
503.56662
503.5537
503.53927
503.52313
503.50509
503.48491
503.46235
503.43712
503.4089
503.37734
503.34205
503.30256
503.25839
503.20897
503.15365
503.09174
503.02244
502.94485
502.85797
502.76065
502.65162
502.52941
502.39237
502.23862
502.066
501.87206
501.65399
501.40856
501.13199
500.82
500.4673
500.06876
499.61406
499.10819
498.48722
497.95695
496.62486
504.18666
504.19384
504.19369
504.19129
504.18694
504.18221
504.17733
504.17186
504.16562
504.15864
504.15086
504.14216
504.13242
504.12151
504.10931
504.09566
504.08037
504.06325
504.04409
504.02264
503.99862
503.97173
503.94162
503.90791
503.87015
503.82788
503.78052
503.72749
503.66807
503.60151
503.52692
503.44335
503.34967
503.24466
503.12688
502.99474
502.8464
502.6798
502.49255
502.28193
502.0448
501.77754
501.47599
501.13506
500.74979
500.31027
499.82128
499.22136
498.70871
497.42329
504.72353
504.73119
504.73136
504.72926
504.72518
504.72076
504.71623
504.71113
504.7053
504.69877
504.69148
504.68331
504.67414
504.66387
504.65236
504.63946
504.625
504.60878
504.5906
504.57022
504.54737
504.52176
504.49305
504.46086
504.42478
504.38433
504.33898
504.28813
504.23112
504.16719
504.0955
504.01511
503.92494
503.82377
503.71025
503.58281
503.43968
503.27885
503.098
502.89451
502.66534
502.40697
502.11539
501.7857
501.41309
500.98802
500.51511
499.93516
499.43927
498.198
505.24854
505.25667
505.25716
505.25534
505.25154
505.24741
505.24321
505.23848
505.23305
505.22695
505.22013
505.21248
505.20388
505.19422
505.18338
505.17121
505.15755
505.14221
505.12498
505.10564
505.08392
505.05954
505.03218
505.00147
504.967
504.92832
504.8849
504.83617
504.78147
504.72008
504.65118
504.57385
504.48704
504.38959
504.28016
504.15724
504.01911
503.86381
503.68911
503.49245
503.27089
503.02104
502.73901
502.42005
502.05953
501.64825
501.19064
500.6297
500.14974
498.95031
505.76217
505.77078
505.77157
505.77004
505.7665
505.76266
505.75879
505.75441
505.74937
505.74369
505.73733
505.73018
505.72213
505.71307
505.70288
505.69142
505.67853
505.66403
505.64772
505.62939
505.60877
505.58559
505.55953
505.53025
505.49734
505.46037
505.41881
505.37212
505.31966
505.26072
505.19451
505.12013
505.03657
504.94269
504.83719
504.71862
504.58529
504.43531
504.26651
504.0764
503.86216
503.62047
503.34757
503.03888
502.68992
502.2918
501.8488
501.30595
500.84118
499.68143
506.2649
506.27398
506.27507
506.27381
506.27052
506.26697
506.26341
506.25938
506.25472
506.24945
506.24354
506.23687
506.22935
506.22087
506.21132
506.20055
506.18841
506.17473
506.15932
506.14195
506.1224
506.10038
506.07559
506.04769
506.01629
505.98096
505.94121
505.89649
505.84619
505.78962
505.726
505.65446
505.57403
505.4836
505.3819
505.2675
505.1388
504.99393
504.8308
504.647
504.43976
504.2059
503.94176
503.64291
503.305
502.91946
502.49042
501.96481
501.51453
500.39249
506.75715
506.76669
506.76808
506.76708
506.76405
506.76077
506.75753
506.75383
506.74953
506.74466
506.73919
506.733
506.726
506.71808
506.70914
506.69904
506.68763
506.67475
506.6602
506.64378
506.62526
506.60436
506.5808
506.55424
506.52431
506.49058
506.45257
506.40976
506.36155
506.30726
506.24614
506.17736
506.09995
506.01283
505.91479
505.80442
505.68017
505.54022
505.38255
505.2048
505.00431
504.77796
504.52222
504.2328
503.90548
503.53199
503.11628
502.60714
502.1707
501.08452
507.23934
507.24934
507.25101
507.25028
507.24749
507.24448
507.24154
507.23817
507.23423
507.22975
507.2247
507.21897
507.21247
507.2051
507.19676
507.18731
507.17661
507.1645
507.1508
507.1353
507.11778
507.09798
507.07561
507.05034
507.02183
506.98964
506.95333
506.91236
506.86617
506.81409
506.7554
506.68927
506.61477
506.53086
506.43635
506.32987
506.20991
506.0747
505.92228
505.75036
505.55635
505.33722
505.08956
504.80918
504.49202
504.13006
503.72712
503.23371
502.8105
501.75849
507.71185
507.72229
507.72426
507.72378
507.72122
507.71848
507.71583
507.71279
507.70919
507.70509
507.70045
507.69518
507.68917
507.68234
507.67458
507.66576
507.65576
507.6444
507.63152
507.61691
507.60036
507.58162
507.5604
507.5364
507.50926
507.47857
507.44389
507.40472
507.36048
507.31054
507.25419
507.19063
507.11896
507.03814
506.94703
506.84431
506.72848
506.59785
506.45049
506.28419
506.09641
505.88423
505.64432
505.37263
505.06522
504.71432
504.32361
503.84526
503.43471
502.41528
508.17504
508.18593
508.18818
508.18795
508.18563
508.18313
508.18078
508.17805
508.17479
508.17106
508.16683
508.16199
508.15646
508.15015
508.14296
508.13476
508.12543
508.1148
508.10272
508.08898
508.07337
508.05566
508.03557
508.01279
507.98698
507.95775
507.92467
507.88722
507.84488
507.79701
507.74293
507.68186
507.61291
507.53509
507.44727
507.34817
507.23634
507.11013
506.96765
506.80675
506.62498
506.41949
506.18705
505.92372
505.62566
505.28538
504.90641
504.44246
504.04404
503.05572
508.62926
508.6406
508.64311
508.64313
508.64104
508.6388
508.63672
508.6343
508.63137
508.628
508.62417
508.61976
508.61469
508.60889
508.60225
508.59466
508.58598
508.57607
508.56476
508.55187
508.53718
508.52047
508.50147
508.47988
508.45537
508.42756
508.39601
508.36025
508.31974
508.27389
508.222
508.16334
508.09703
508.0221
507.93747
507.84188
507.73391
507.61195
507.47419
507.31851
507.14253
506.94349
506.71823
506.46294
506.17389
505.8438
505.47609
505.02596
504.63917
503.68058
509.07483
509.08661
509.0894
509.08966
509.08779
509.08579
509.08399
509.08187
509.07927
509.07625
509.0728
509.06881
509.0642
509.0589
509.0528
509.04579
509.03775
509.02853
509.01798
509.00591
508.99212
508.97639
508.95845
508.93802
508.91477
508.88832
508.85827
508.82415
508.78543
508.74152
508.69177
508.63543
508.57168
508.49956
508.41801
508.32581
508.22157
508.10374
507.97052
507.81988
507.64949
507.45666
507.23833
506.99078
506.71039