/*--------------------------------*- C++ -*----------------------------------*\
| =========                 |                                                 |
| \\      /  F ield         | OpenFOAM: The Open Source CFD Toolbox           |
|  \\    /   O peration     | Version:  4.0                                   |
|   \\  /    A nd           | Web:      www.OpenFOAM.org                      |
|    \\/     M anipulation  |                                                 |
\*---------------------------------------------------------------------------*/
FoamFile
{
    version     2.0;
    format      ascii;
    class       volScalarField;
    location    "760";
    object      ILambda_8_0;
}
// * * * * * * * * * * * * * * * * * * * * * * * * * * * * * * * * * * * * * //

dimensions      [1 0 -3 0 0 0 0];

internalField   nonuniform List<scalar> 
5000
(
320.93569
321.47327
322.06414
322.71356
323.42721
324.21126
325.07244
326.01808
327.05611
328.1951
329.44428
330.81355
332.31345
333.95513
335.75034
337.71125
339.85038
342.18033
344.71354
347.46188
350.43618
353.64562
357.09699
360.79375
364.73508
368.91473
373.3198
377.9297
382.71515
387.6377
392.64981
397.6959
402.71457
407.6422
412.41795
416.98971
421.32039
425.39329
429.21489
432.81393
436.23571
439.53261
442.75273
445.93141
449.08456
452.22325
455.30954
458.48379
461.11868
465.94782
391.93352
392.3426
392.78934
393.27677
393.80809
394.38669
395.01606
395.69985
396.44177
397.24557
398.11495
399.05353
400.06472
401.15164
402.31693
403.56266
404.8901
406.29952
407.78999
409.35909
411.00274
412.7149
414.48745
416.31006
418.17022
420.05341
421.94358
423.82383
425.67751
427.48965
429.24875
430.94875
432.59103
434.18602
435.7539
437.32404
438.93246
440.61747
442.41358
444.34508
446.42091
448.63283
450.95802
453.36673
455.82844
458.32963
460.83008
463.45611
465.65516
469.82
413.5948
413.76096
413.94232
414.14011
414.35562
414.59021
414.8453
415.12239
415.42303
415.7488
416.10133
416.48225
416.89321
417.33584
417.81175
418.32251
418.86962
419.45455
420.07869
420.7434
421.45004
422.20001
422.99486
423.83639
424.72678
425.6688
426.666
427.72287
428.84498
430.03909
431.31293
432.67494
434.13358
435.69635
437.36849
439.15158
441.04229
443.0316
445.10514
447.24485
449.43184
451.65009
453.88948
456.14765
458.42636
460.73848
463.06027
465.51594
467.57811
471.51397
425.10285
425.21
425.3274
425.456
425.59682
425.75093
425.91952
426.10383
426.30526
426.52524
426.76535
427.02726
427.31275
427.62371
427.96217
428.33025
428.73021
429.16441
429.63537
430.14569
430.6981
431.29544
431.94064
432.63671
433.38668
434.19358
435.06036
435.9898
436.98439
438.04616
439.17657
440.37628
441.64503
442.9816
444.38382
445.84886
447.37362
448.95538
450.59248
452.28483
454.03405
455.84294
457.71427
459.64988
461.64737
463.70964
465.80462
468.04211
469.92597
473.56977
433.41447
433.49612
433.58569
433.68394
433.79168
433.90976
434.03916
434.18089
434.33606
434.50589
434.69165
434.89475
435.11666
435.35898
435.62341
435.91176
436.22593
436.56794
436.93992
437.34408
437.78273
438.25825
438.77308
439.3297
439.93064
440.57838
441.27539
442.02408
442.82675
443.6856
444.60265
445.57983
446.61887
447.72142
448.889
450.12307
451.42496
452.79583
454.23653
455.74732
457.32769
458.97619
460.69031
462.46736
464.30275
466.1998
468.1308
470.20312
471.9506
475.36561
439.96112
440.02735
440.10006
440.17985
440.26739
440.36341
440.4687
440.58411
440.71058
440.84912
441.00081
441.16683
441.34845
441.54701
441.76398
442.00092
442.25949
442.54144
442.84866
443.18311
443.54686
443.94208
444.37104
444.83605
445.33954
445.88394
446.47175
447.10549
447.78763
448.52066
449.30697
450.14889
451.04859
452.00809
453.02919
454.11344
455.26209
456.47602
457.75576
459.10149
460.51307
461.99017
463.53223
465.13905
466.80861
468.54583
470.32519
472.24836
473.87369
477.08109
445.36613
445.4216
445.48254
445.54942
445.62282
445.70336
445.79173
445.88864
445.9949
446.11136
446.23897
446.37873
446.53174
446.69918
446.8823
447.08249
447.30119
447.53996
447.80045
448.08444
448.39378
448.73043
449.09646
449.49402
449.92534
450.39273
450.89856
451.44525
452.03524
452.67099
453.35493
454.08945
454.87688
455.71943
456.61919
457.57808
458.59786
459.68005
460.82597
462.03669
463.313
464.65548
466.06427
467.53958
469.07966
470.68925
472.34409
474.14121
475.66174
478.68714
449.94217
449.98976
450.04207
450.09948
450.1625
450.23167
450.30759
450.39089
450.48226
450.58245
450.69229
450.81265
450.9445
451.08888
451.24691
451.41979
451.60882
451.81539
452.04099
452.28721
452.55573
452.84833
453.16691
453.51346
453.89004
454.29884
454.74208
455.2221
455.74126
456.30197
456.90666
457.55777
458.25771
459.00882
459.8134
460.67362
461.59152
462.56897
463.60764
464.70901
465.87426
467.10438
468.39995
469.76168
471.18843
472.68534
474.22986
475.91507
477.34264
480.20529
453.90155
453.94312
453.98885
454.03904
454.09414
454.15463
454.22105
454.29394
454.37392
454.46166
454.55788
454.66337
454.77899
454.90566
455.04439
455.19625
455.36241
455.54413
455.74274
455.9597
456.19654
456.4549
456.73651
457.04321
457.37693
457.73972
458.13368
458.56102
459.02402
459.52502
460.06639
460.65056
461.27994
461.95695
462.68395
463.46326
464.29709
465.18755
466.13657
467.14593
468.21721
469.35177
470.55066
471.81503
473.14428
474.54377
475.99233
477.57934
478.92498
481.64204
457.38274
457.41961
457.46019
457.50473
457.5536
457.60729
457.66625
457.73097
457.802
457.87995
457.96546
458.05925
458.16208
458.27479
458.39828
458.53353
458.68161
458.84365
459.02087
459.21461
459.42626
459.65733
459.90944
460.18429
460.48368
460.80951
461.1638
461.54863
461.96617
462.41867
462.90846
463.4379
464.0094
464.62536
465.2882
466.0003
466.76399
467.58152
468.45503
469.38652
470.37782
471.43062
472.54627
473.72629
474.97047
476.28438
477.64812
479.14771
480.42022
483.00601
460.48463
460.51771
460.55416
460.59416
460.63805
460.68626
460.73923
460.79738
460.86122
460.93129
461.00818
461.09254
461.18506
461.2865
461.39769
461.51953
461.65298
461.79909
461.95898
462.13386
462.32505
462.53393
462.762
463.01085
463.28216
463.57773
463.89944
464.24928
464.62933
465.04174
465.48875
465.97268
466.49587
467.06072
467.66965
468.32507
469.02937
469.78489
470.59391
471.45857
472.38093
473.36288
474.40607
475.51226
476.68163
477.91989
479.20829
480.62977
481.8368
484.3038
463.27843
463.30841
463.3415
463.37778
463.41758
463.46131
463.50936
463.56214
463.62008
463.68369
463.7535
463.83012
463.91417
464.00636
464.10744
464.21823
464.33963
464.47261
464.61819
464.77751
464.95177
465.14228
465.35042
465.57769
465.82566
466.09602
466.39056
466.71116
467.0598
467.43855
467.84957
468.2951
468.77743
469.29893
469.86198
470.46902
471.12244
471.82466
472.57801
473.38479
474.24717
475.16723
476.14682
477.18794
478.29107
479.46203
480.68309
482.03435
483.18239
485.54139
465.81744
465.84484
465.87513
465.90833
465.94472
465.98472
466.02869
466.07698
466.13001
466.18823
466.25215
466.32231
466.39929
466.48375
466.57638
466.67795
466.78927
466.91125
467.04485
467.19111
467.35118
467.52624
467.71763
467.92671
468.155
468.40408
468.67564
468.97146
469.29345
469.64358
470.02394
470.43668
470.88404
471.36833
471.89192
472.4572
473.0666
473.72254
474.42741
475.18359
475.99335
476.85891
477.78228
478.76565
479.80973
480.92044
482.08099
483.36883
484.46348
486.72391
468.14238
468.16761
468.19555
468.22615
468.25967
468.29652
468.33704
468.38155
468.43042
468.4841
468.54303
468.60773
468.67874
468.75666
468.84214
468.93588
469.03867
469.15132
469.27475
469.40993
469.55792
469.71986
469.89696
470.09056
470.30205
470.53294
470.78483
471.05943
471.35855
471.68407
472.03802
472.42246
472.83959
473.29164
473.78095
474.30987
474.88083
475.49624
476.15854
476.87015
477.63341
478.45065
479.32399
480.25578
481.24695
482.30346
483.40935
484.63965
485.68579
487.8559
470.28509
470.30846
470.3344
470.36278
470.39385
470.42801
470.46558
470.50686
470.55219
470.60198
470.65666
470.71669
470.78258
470.85491
470.93426
471.02131
471.11677
471.22143
471.33614
471.4618
471.59942
471.75006
471.91488
472.09513
472.29213
472.50732
472.74222
472.99845
473.27774
473.58192
473.9129
474.27271
474.66346
475.08733
475.54661
476.04362
476.58074
477.16041
477.78506
478.45713
479.17903
479.95315
480.78173
481.66721
482.6107
483.6182
484.67452
485.8524
486.85427
488.94137
472.27086
472.29263
472.31685
472.34332
472.37227
472.40412
472.43915
472.47764
472.51992
472.56635
472.61735
472.67335
472.73483
472.80232
472.87638
472.95764
473.04677
473.14451
473.25166
473.36907
473.49769
473.63853
473.79268
473.96133
474.14572
474.34723
474.56731
474.80751
475.06948
475.35497
475.66583
476.00402
476.37157
476.77063
477.2034
477.67219
478.17935
478.72727
479.3184
479.9552
480.6401
481.37554
482.16384
483.00753
483.90787
484.87087
485.88203
487.01196
487.9733
489.98387
474.12015
474.14053
474.16326
474.18807
474.21519
474.24501
474.27784
474.31391
474.35352
474.39704
474.44484
474.49733
474.55496
474.61824
474.68769
474.76389
474.8475
474.9392
475.03974
475.14994
475.2707
475.40296
475.54777
475.70624
475.87959
476.06909
476.27615
476.50225
476.74896
477.01797
477.31107
477.63014
477.97717
478.35422
478.76346
479.20714
479.68757
480.20714
480.76827
481.37342
482.02504
482.72561
483.4775
484.28331
485.14443
486.06686
487.03673
488.12267
489.04676
490.98655
475.84972
475.86887
475.8903
475.91368
475.93918
475.96724
475.99813
476.03207
476.06935
476.11031
476.1553
476.20471
476.25897
476.31855
476.38394
476.45571
476.53446
476.62085
476.71558
476.81944
476.93327
477.05797
477.19454
477.34404
477.50763
477.68652
477.88206
478.09566
478.32886
478.58325
478.86057
479.16264
479.49137
479.84879
480.23701
480.65822
481.1147
481.60881
482.14294
482.71955
483.3411
484.01008
484.72892
485.50026
486.32558
487.21089
488.14289
489.18832
490.07809
491.95225
477.47346
477.49154
477.51183
477.53393
477.558
477.5845
477.61369
477.64576
477.68099
477.71968
477.76219
477.80889
477.86017
477.91647
477.97829
478.04613
478.12059
478.20227
478.29186
478.3901
478.49778
478.61579
478.74505
478.88658
479.04148
479.21094
479.39623
479.59871
479.81984
480.06119
480.32441
480.61127
480.92363
481.26344
481.63277
482.03378
482.46868
482.93981
483.44954
484.00029
484.59455
485.23482
485.92353
486.66338
487.45592
488.30714
489.20427
490.2123
491.07035
492.8835
479.00303
479.02015
479.03943
479.0604
479.08321
479.10833
479.136
479.16641
479.19981
479.2365
479.27681
479.32109
479.36972
479.42312
479.48175
479.54611
479.61674
479.69424
479.77925
479.87248
479.97469
480.08671
480.20945
480.34386
480.49102
480.65204
480.82815
481.02067
481.231
481.46064
481.7112
481.98438
482.28199
482.60594
482.95824
483.34098
483.75636
484.20666
484.69423
485.22148
485.79088
486.40492
487.06607
487.77704
488.53947
489.3593
490.22425
491.19765
492.0263
493.78261
480.44827
480.46453
480.48292
480.50288
480.52457
480.54846
480.57478
480.60371
480.63548
480.67038
480.70872
480.75085
480.79711
480.84792
480.9037
480.96494
481.03215
481.1059
481.18681
481.27556
481.37286
481.47953
481.59641
481.72444
481.86464
482.01808
482.18594
482.36949
482.57009
482.78918
483.02831
483.28914
483.57343
483.88302
484.21987
484.58604
484.98369
485.41504
485.88241
486.3882
486.93486
487.52488
488.16073
488.84515
489.57982
490.37066
491.20582
492.14707
492.9484
494.65164
481.81759
481.83309
481.85068
481.86975
481.89043
481.91321
481.93832
481.96592
481.99623
482.02952
482.06611
482.1063
482.15044
482.19892
482.25214
482.31058
482.37472
482.4451
482.52233
482.60704
482.69993
482.80177
482.91338
483.03566
483.16957
483.31617
483.47659
483.65203
483.84382
484.05336
484.28214
484.53178
484.80396
485.1005
485.4233
485.77438
486.15584
486.56989
487.01879
487.50493
488.03072
488.59866
489.21123
489.87115
490.58017
491.34414
492.15166
493.063
493.8389
495.49248
483.11823
483.13304
483.14992
483.16819
483.18796
483.20974
483.23377
483.26017
483.28916
483.32102
483.35601
483.39446
483.43669
483.48307
483.53399
483.5899
483.65126
483.71861
483.79251
483.87358
483.96248
484.05996
484.1668
484.28386
484.41209
484.55249
484.70615
484.87424
485.05803
485.25889
485.47826
485.71769
485.97885
486.26349
486.57347
486.91075
487.2774
487.67558
488.10754
488.57561
489.0822
489.62979
490.22085
490.85812
491.54336
492.2824
493.0642
493.94764
494.6998
496.30684
484.35645
484.37064
484.38688
484.40442
484.42337
484.44425
484.4673
484.49263
484.52043
484.55098
484.58454
484.62141
484.66191
484.70639
484.75523
484.80885
484.8677
484.9323
485.00318
485.08094
485.16623
485.25974
485.36225
485.47459
485.59764
485.7324
485.87991
486.04131
486.21781
486.41075
486.62153
486.85165
487.10272
487.37646
487.67469
487.99932
488.35237
488.73597
489.15233
489.60375
490.09262
490.6214
491.19255
491.8088
492.47196
493.18779
493.94562
494.80299
495.53296
497.09628
485.53771
485.55133
485.567
485.58389
485.60209
485.62216
485.64432
485.66867
485.69539
485.72476
485.75702
485.79246
485.83139
485.87414
485.92109
485.97263
486.02921
486.0913
486.15944
486.23419
486.31618
486.40609
486.50466
486.61267
486.73102
486.86063
487.00252
487.1578
487.32764
487.51333
487.71624
487.93782
488.17965
488.44339
488.73082
489.0438
489.38433
489.75449
490.15645
490.59249
491.06496
491.5763
492.12897
492.72569
493.36829
494.06247
494.7979
495.63086
496.34003
497.86224
486.66679
486.67989
486.69505
486.71134
486.72887
486.74819
486.76955
486.79301
486.81875
486.84704
486.87812
486.91227
486.94977
486.99095
487.03617
487.08581
487.14031
487.20012
487.26576
487.33777
487.41675
487.50336
487.59832
487.70239
487.81642
487.94132
488.07807
488.22773
488.39147
488.57051
488.76619
488.97992
489.21324
489.46777
489.74525
490.0475
490.37646
490.73419
491.12283
491.54461
492.00186
492.49701
493.03249
493.61102
494.23443
494.90838
495.62284
496.4329
497.12256
498.60601
487.7479
487.76053
487.77522
487.79098
487.80789
487.82654
487.84716
487.86981
487.89466
487.92197
487.95197
487.98493
488.02112
488.06087
488.10451
488.15243
488.20502
488.26275
488.3261
488.39559
488.47182
488.55541
488.64706
488.74752
488.85759
488.97816
489.11018
489.25469
489.41281
489.58573
489.77475
489.98125
490.20672
490.45275
490.72103
491.01335
491.33161
491.67782
492.05409
492.46264
492.90574
493.38581
493.90526
494.4668
495.07228
495.72728
496.42208
497.21063
497.88193
499.32882
488.78478
488.79698
488.81125
488.82652
488.84286
488.86089
488.88084
488.90275
488.92679
488.9532
488.98221
489.01408
489.04908
489.08752
489.12972
489.17605
489.2269
489.28272
489.34396
489.41115
489.48485
489.56567
489.65428
489.75141
489.85784
489.97442
490.10209
490.24185
490.39478
490.56206
490.74493
490.94475
491.16296
491.40112
491.66088
491.94399
492.25232
492.58784
492.95262
493.34883
493.77876
494.24476
494.74924
495.29488
495.88356
496.5208
497.19712
497.96541
498.61943
500.03178
489.78074
489.79255
489.80644
489.82126
489.83708
489.85455
489.87388
489.89512
489.91841
489.94399
489.97211
490.00298
490.03688
490.07411
490.11499
490.15986
490.20912
490.26317
490.32248
490.38755
490.45892
490.53719
490.623
490.71706
490.82013
490.93304
491.05669
491.19206
491.3402
491.50225
491.67943
491.87306
492.08455
492.31541
492.56726
492.84181
493.14091
493.46647
493.82053
494.20525
494.62287
495.07572
495.56619
496.09694
496.66985
497.29039
497.94934
498.69853
499.33625
500.7159
490.73876
490.7502
490.76374
490.77815
490.7935
490.81045
490.82922
490.84983
490.87244
490.89727
490.92455
490.95451
490.98741
491.02353
491.06318
491.10672
491.15449
491.20693
491.26446
491.32757
491.39679
491.4727
491.55593
491.64715
491.74712
491.85663
491.97657
492.10787
492.25157
492.40878
492.58068
492.76856
492.9738
493.19788
493.44237
493.70896
493.99944
494.31572
494.65978
495.03376
495.43986
495.88039
496.35772
496.8745
497.43259
498.03741
498.67998
499.41115
500.03347
501.38214
491.66148
491.67259
491.68581
491.69985
491.71477
491.73124
491.74949
491.76953
491.7915
491.81564
491.84215
491.87127
491.90324
491.93834
491.97687
492.01917
492.06559
492.11652
492.17241
492.23371
492.30095
492.37468
492.45552
492.54412
492.64121
492.74757
492.86405
492.99159
493.13117
493.28387
493.45087
493.6334
493.83283
494.05058
494.28822
494.54738
494.82982
495.13742
495.47213
495.83605
496.23136
496.66033
497.12533
497.62896
498.1731
498.7631
499.39022
500.10435
500.71211
502.03138
492.5513
492.5621
492.57504
492.58874
492.60325
492.61928
492.63705
492.65657
492.67796
492.70146
492.72727
492.75561
492.78672
492.82088
492.85837
492.89952
492.94468
492.99424
493.0486
493.10823
493.17363
493.24534
493.32396
493.41013
493.50455
493.60798
493.72127
493.84529
493.98104
494.12956
494.29198
494.46954
494.66354
494.87539
495.10662
495.35884
495.63376
495.93323
496.25919
496.61367
496.99884
497.41697
497.87035
498.36161
498.89259
499.46861
500.08112
500.77912
501.37309
502.66445
493.41039
493.4209
493.43358
493.44696
493.4611
493.47673
493.49406
493.51309
493.53395
493.55685
493.58201
493.60963
493.63995
493.67324
493.70977
493.74987
493.79386
493.84213
493.89509
493.95317
494.01686
494.0867
494.16325
494.24716
494.3391
494.43981
494.55011
494.67088
494.80305
494.94767
495.10583
495.27873
495.46766
495.67401
495.89924
496.14495
496.41284
496.70469
497.02242
497.36804
497.74369
498.15159
498.59404
499.07362
499.59219
500.15499
500.75367
501.43638
502.01728
503.28209
494.24069
494.25095
494.26339
494.27648
494.29028
494.30553
494.32245
494.34104
494.3614
494.38375
494.40831
494.43527
494.46486
494.49733
494.53298
494.57209
494.61501
494.66209
494.71373
494.77037
494.83248
494.90057
494.97521
495.05702
495.14664
495.24482
495.35234
495.47006
495.5989
495.73987
495.89405
496.0626
496.24679
496.44797
496.66759
496.9072
497.16847
497.45317
497.76317
498.10046
498.46713
498.86541
499.29754
499.7661
500.27293
500.82321
501.40879
502.07699
502.64548
503.88503
495.044
495.05401
495.06623
495.07906
495.09254
495.10744
495.124
495.14217
495.16207
495.18392
495.20792
495.23426
495.26317
495.2949
495.32971
495.36792
495.40983
495.45581
495.50624
495.56153
495.62217
495.68864
495.76149
495.84133
495.9288
496.02461
496.12954
496.24441
496.37013
496.50769
496.65814
496.82262
497.00236
497.1987
497.41305
497.64694
497.90199
498.17996
498.48268
498.81212
499.17033
499.55952
499.98191
500.44004
500.93576
501.47418
502.04734
502.70175
503.25844
504.47392
495.82193
495.83171
495.84374
495.85633
495.86951
495.88409
495.9003
495.91809
495.93756
495.95894
495.98242
496.00819
496.03647
496.06751
496.10156
496.13892
496.1799
496.22485
496.27414
496.32819
496.38745
496.4524
496.52359
496.6016
496.68706
496.78066
496.88315
496.99536
497.11817
497.25253
497.39948
497.56014
497.73571
497.9275
498.1369
498.3654
498.61461
498.88623
499.18209
499.50412
499.85435
500.23494
500.64811
501.09637
501.58156
502.10874
502.67009
503.3114
503.85687
505.04938
496.57597
496.58554
496.59739
496.60976
496.62267
496.63695
496.65283
496.67027
496.68935
496.71029
496.73329
496.75853
496.78623
496.81662
496.84995
496.88652
496.92664
496.97063
497.01886
497.07175
497.12972
497.19326
497.2629
497.33919
497.42276
497.5143
497.61452
497.72423
497.8443
497.97566
498.11933
498.2764
498.44806
498.63557
498.8403
499.06373
499.30742
499.57307
499.86246
500.17748
500.52016
500.89263
501.29707
501.73597
502.21117
502.72766
503.27779
503.90662
504.4414
505.612
497.30748
497.31685
497.32854
497.3407
497.35335
497.36736
497.38295
497.40005
497.41877
497.43931
497.46186
497.48661
497.51376
497.54355
497.57622
497.61206
497.65136
497.69446
497.74171
497.7935
497.85028
497.9125
497.98067
498.05536
498.13718
498.22677
498.32486
498.43223
498.54973
498.67828
498.81886
498.97256
499.14052
499.324
499.52434
499.74298
499.98148
500.24148
500.52474
500.83315
501.16869
501.53345
501.92961
502.35964
502.82534
503.33167
503.87113
504.48806
505.01266
506.16231
498.0177
498.02689
498.03842
498.0504
498.06282
498.07656
498.09188
498.10868
498.12705
498.14722
498.16936
498.19365
498.22029
498.24952
498.28157
498.31672
498.35527
498.39753
498.44386
498.49464
498.5503
498.61128
498.67809
498.75128
498.83144
498.91921
499.0153
499.12047
499.23556
499.36145
499.49913
499.64965
499.81414
499.99382
500.19001
500.40414
500.63772
500.89238
501.16986
501.472
501.80076
502.15822
502.54653
502.96812
503.42479
503.92146
504.45074
505.05633
505.57121
506.70083
498.70778
498.7168
498.7282
498.74
498.7522
498.76571
498.78077
498.79728
498.81534
498.83516
498.85691
498.88078
498.90695
498.93565
498.96713
499.00164
499.03948
499.08097
499.12643
499.17626
499.23086
499.29069
499.35622
499.428
499.50661
499.59267
499.68688
499.78998
499.9028
500.0262
500.16114
500.30866
500.46987
500.64596
500.83824
501.0481
501.27703
501.52664
501.79863
502.09483
502.41716
502.76769
503.14854
503.56211
504.01019
504.49764
505.01722
505.61199
506.11758
507.22804
499.37878
499.38764
499.39892
499.41056
499.42256
499.43584
499.45066
499.46692
499.48469
499.50418
499.52557
499.54904
499.57477
499.60298
499.63392
499.66784
499.70502
499.74578
499.79044
499.83937
499.89299
499.95173
500.01606
500.08652
500.16367
500.24812
500.34056
500.44172
500.55239
500.67344
500.80581
500.9505
501.1086
501.28131
501.46989
501.6757
501.90023
502.14505
502.41184
502.7024
503.01864
503.36258
503.73632
504.14226
504.58216
505.06082
505.57115
506.15556
506.65229
507.74438
500.03168
500.04039
500.05157
500.06306
500.07487
500.08795
500.10255
500.11856
500.13605
500.15524
500.1763
500.1994
500.22472
500.25248
500.28291
500.31627
500.35284
500.39291
500.43681
500.48492
500.53761
500.59533
500.65853
500.72775
500.80352
500.88646
500.97723
501.07656
501.18521
501.30404
501.43397
501.57599
501.73117
501.90067
502.08574
502.28773
502.50808
502.74836
503.01021
503.29542
503.60586
503.94353
504.31052
504.70917
505.14127
505.61156
506.11304
506.68756
507.1758
508.25029
500.66739
500.67597
500.68704
500.6984
500.71003
500.72292
500.73731
500.75309
500.77034
500.78924
500.80999
500.83274
500.85768
500.88502
500.91498
500.94782
500.98381
501.02324
501.06643
501.11375
501.16558
501.22234
501.28449
501.35253
501.42701
501.50853
501.59773
501.69532
501.80207
501.91881
502.04643
502.18592
502.33833
502.50479
502.68654
502.8849
503.1013
503.33726
503.59443
503.87454
504.17946
504.51117
504.87171
505.26343
505.68809
506.15036
506.64339
507.20844
507.68855
508.74616
501.28675
501.2952
501.30619
501.31742
501.32889
501.34159
501.3558
501.37137
501.38838
501.40702
501.42748
501.44991
501.47449
501.50143
501.53095
501.5633
501.59875
501.63758
501.68011
501.72669
501.77771
501.83356
501.89472
501.96166
502.03492
502.11509
502.20281
502.29877
502.40372
502.51847
502.64392
502.78102
502.9308
503.09439
503.27299
503.4679
503.68054
503.9124
504.16511
504.44038
504.74004
505.06606
505.42047
505.80557
506.22311
506.67773
507.16267
507.71864
508.19098
509.23238
501.89054
501.89887
501.90978
501.9209
501.93221
501.94476
501.95878
501.97416
501.99094
502.00935
502.02953
502.05166
502.0759
502.10247
502.13158
502.16348
502.19842
502.23669
502.2786
502.32449
502.37474
502.42974
502.48996
502.55586
502.62798
502.70688
502.7932
502.88761
502.99086
503.10374
503.22713
503.36196
503.50925
503.67011
503.84572
504.03736
504.24642
504.47439
504.72285
504.99351
505.28816
505.60876
505.9573
506.33608
506.74682
507.19411
507.67131
508.21859
508.68346
509.7093
502.4795
502.48771
502.49855
502.50957
502.52074
502.53313
502.54699
502.56218
502.57876
502.59694
502.61687
502.63872
502.66265
502.68887
502.7176
502.74907
502.78353
502.82127
502.8626
502.90784
502.95736
503.01157
503.0709
503.13583
503.20686
503.28457
503.36956
503.46252
503.56415
503.67526
503.79669
503.92938
504.07431
504.23257
504.40534
504.59387
504.79953
505.02379
505.26821
505.53446
505.82434
506.13976
506.48271
506.85544
507.25967
507.69995
508.16973
508.70867
509.16639
510.17726
503.05429
503.0624
503.07318
503.0841
503.09514
503.10738
503.12109
503.13612
503.15251
503.17047
503.19017
503.21175
503.23539
503.26129
503.28966
503.32072
503.35474
503.39199
503.43276
503.47739
503.52624
503.5797
503.63819
503.70219
503.7722
503.84878
503.93253
504.0241
504.12421
504.23364
504.35322
504.48386
504.62655
504.78235
504.95241
505.13799
505.34041
505.56113
505.80169
506.06375
506.34908
506.65955
506.99714
507.36409
507.76209
508.19566
508.65832
509.18926
509.6401
510.63659
503.61556
503.62357
503.6343
503.64514
503.65604
503.66815
503.68173
503.69659
503.71281
503.73057
503.75005
503.77139
503.79476
503.82035
503.84838
503.87907
503.91267
503.94945
503.98971
504.03376
504.08197
504.13472
504.19243
504.25556
504.3246
504.40011
504.48267
504.57294
504.6716
504.77943
504.89725
505.02596
505.16652
505.31998
505.48747
505.67023
505.86957
506.08692
506.3238
506.58186
506.86282
507.16857
507.50104
507.86245
508.25449
508.68161
509.13745
509.6607
510.10494
511.08758
504.1639
504.17182
504.1825
504.19326
504.20405
504.21603
504.22948
504.2442
504.26024
504.27782
504.2971
504.31821
504.34132
504.36663
504.39435
504.42468
504.45789
504.49424
504.53401
504.57752
504.62513
504.67721
504.73418
504.79648
504.86461
504.93911
505.02055
505.10957
505.20687
505.31319
505.42934
505.5562
505.69474
505.84596
506.01101
506.19108
506.38748
506.60161
506.83499
507.08921
507.36602
507.66724
507.99481
508.35092
508.73723
509.15818
509.60747
510.12333
510.56122
511.53053
504.69986
504.70769
504.71833
504.72902
504.73971
504.75158
504.7649
504.77948
504.79538
504.81279
504.83187
504.85277
504.87564
504.90069
504.92811
504.95811
504.99095
505.02689
505.0662
505.10921
505.15625
505.2077
505.26397
505.32549
505.39276
505.46629
505.54667
505.63452
505.73052
505.8354
505.94996
506.07508
506.21168
506.36079
506.5235
506.70101
506.8946
507.10567
507.33568
507.58625
507.85907
508.15597
508.47884
508.82986
509.21069
509.6257
510.0687
510.57746
511.00924
511.96571
505.22397
505.23172
505.24233
505.25295
505.26354
505.2753
505.28851
505.30297
505.31872
505.33597
505.35488
505.37558
505.39823
505.42303
505.45017
505.47986
505.51236
505.5479
505.58679
505.62931
505.67582
505.72668
505.78228
505.84307
505.90952
505.98215
506.06153
506.14826
506.24302
506.34653
506.45959
506.58304
506.71781
506.86489
507.02538
507.20045
507.39136
507.59949
507.8263
508.07337
508.34237
508.63512
508.95349
509.29964
509.6752
510.08451
510.52146
511.02338
511.44929
512.39338
505.73672
505.74439
505.75497
505.76554
505.77603
505.78769
505.80079
505.81514
505.83076
505.84786
505.8666
505.88712
505.90956
505.93413
505.96101
505.99041
506.02258
506.05777
506.09625
506.13832
506.18433
506.23462
506.2896
506.34969
506.41537
506.48714
506.56556
506.65123
506.74482
506.84704
506.95866
507.08052
507.21354
507.3587
507.51706
507.6898
507.87815
508.08347
508.30722
508.55094
508.81629
509.10506
509.41911
509.76058
510.13108
510.53492
510.96604
511.46139
511.88164
512.81379
506.23856
506.24616
506.25672
506.26723
506.27764
506.28921
506.30222
506.31645
506.33195
506.34892
506.3675
506.38785
506.4101
506.43445
506.46108
506.49022
506.52208
506.55693
506.59503
506.63668
506.6822
506.73197
506.78636
506.84579
506.91074
506.98169
507.0592
507.14387
507.23635
507.33733
507.44758
507.56794
507.69928
507.8426
507.99894
508.16945
508.35535
508.558
508.7788
509.01931
509.28116
509.56612
509.87603
510.213
510.57864
510.97721
511.40274
511.89174
512.30655
513.22717
506.72993
506.73747
506.74801
506.75848
506.7688
506.78028
506.79321
506.80734
506.82273
506.83957
506.85801
506.87819
506.90026
506.92441
506.95082
506.9797
507.01128
507.0458
507.08354
507.12479
507.16987
507.21913
507.27296
507.33178
507.39603
507.46621
507.54286
507.62657
507.71799
507.8178
507.92675
508.04566
508.17542
508.31698
508.47139
508.63976
508.82333
509.0234
509.24139
509.47882
509.73732
510.01862
510.32455
510.6572
511.01817
511.41167
511.8318
512.3147
512.72426
513.63376
507.21124
507.21872
507.22925
507.23967
507.24993
507.26133
507.27417
507.28821
507.30349
507.32021
507.33852
507.35856
507.38046
507.40442
507.43061
507.45925
507.49056
507.52479
507.56219
507.60306
507.64772
507.69651
507.74981
507.80803
507.87163
507.94107
508.01691
508.09972
508.19012
508.28881
508.39653
508.51407
508.64231
508.78219
508.93475
509.10108
509.28241
509.48002
509.69532
509.9298
510.18507
510.46286
510.76497
511.09347
511.44994
511.83856
512.2535
512.73051
513.135
514.03376
507.68288
507.6903
507.70082
507.71121
507.72139
507.73272
507.74549
507.75945
507.77463
507.79124
507.80943
507.82932
507.85107
507.87485
507.90085
507.92926
507.96032
507.99426
508.03135
508.07187
508.11612
508.16447
508.21727
508.27493
508.3379
508.40665
508.48172
508.56366
508.65311
508.75073
508.85726
508.97349
509.10028
509.23856
509.38935
509.55374
509.73292
509.92817
510.14089
510.37254
510.62472
510.89913
511.19756
511.52207
511.87422
512.25813
512.66807
513.1394
513.53901
514.42738
508.1452
508.15257
508.16309
508.17345
508.18357
508.19483
508.20753
508.22141
508.2365
508.25301
508.27108
508.29085
508.31245
508.33606
508.36188
508.39008
508.42091
508.45458
508.49137
508.53155
508.57543
508.62336
508.67569
508.73282
508.7952
508.86329
508.93761
509.01874
509.10727
509.20388
509.30928
509.42426
509.54967
509.68642
509.83551
509.99803
510.17516
510.36816
510.57839
510.80733
511.05653
511.3277
511.6226
511.94326
512.29124
512.67063
513.07574
513.54159
513.93648
514.81482
508.59856
508.60588
508.6164
508.62673
508.63679
508.64799
508.66063
508.67444
508.68945
508.70586
508.72383
508.74348
508.76494
508.7884
508.81404
508.84205
508.87266
508.90608
508.94259
508.98246
509.02598
509.07351
509.12539
509.18202
509.24384
509.3113
509.38493
509.46527
509.55293
509.64858
509.7529
509.86669
509.99077
510.12606
510.27353
510.43427
510.60942
510.80025
511.0081
511.23443
511.48078
511.74883
512.04033
512.35729
512.70126
513.07628
513.47673
513.93729
514.32762
515.19627
509.04328
509.05055
509.06108
509.07138
509.08139
509.09253
509.10511
509.11886
509.1338
509.15012
509.16799
509.18753
509.20887
509.23219
509.25766
509.28549
509.31589
509.34908
509.38532
509.42489
509.46809
509.51523
509.56669
509.62285
509.68413
509.751
509.82396
509.90356
509.9904
510.08512
510.18842
510.30107
510.42388
510.55777
510.70369
510.86271
511.03598
511.22473
511.43029
511.65411
511.89772
512.16277
512.451
512.76439