/*--------------------------------*- C++ -*----------------------------------*\
| =========                 |                                                 |
| \\      /  F ield         | OpenFOAM: The Open Source CFD Toolbox           |
|  \\    /   O peration     | Version:  4.0                                   |
|   \\  /    A nd           | Web:      www.OpenFOAM.org                      |
|    \\/     M anipulation  |                                                 |
\*---------------------------------------------------------------------------*/
FoamFile
{
    version     2.0;
    format      ascii;
    class       volScalarField;
    location    "760";
    object      ILambda_2_0;
}
// * * * * * * * * * * * * * * * * * * * * * * * * * * * * * * * * * * * * * //

dimensions      [1 0 -3 0 0 0 0];

internalField   nonuniform List<scalar> 
5000
(
320.01795
318.64057
317.13491
315.48956
313.69284
311.73229
309.59474
307.26635
304.73264
301.97858
298.98873
295.74735
292.23861
288.44688
284.35699
279.95466
275.22695
270.16288
264.75401
258.99532
252.88604
246.43065
239.64004
232.53267
225.13581
217.48683
209.63433
201.63916
193.57516
185.52938
177.60163
169.90324
162.5546
155.6814
149.40928
143.85702
139.12802
135.30088
132.4194
130.48342
129.44195
129.19053
129.57475
130.40144
131.45805
132.53821
133.47195
134.14362
134.53688
134.62158
391.77326
391.83989
391.90295
391.95892
392.00434
392.03493
392.04545
392.02941
391.97889
391.88423
391.73373
391.51328
391.20597
390.79159
390.24618
389.54145
388.64417
387.51562
386.11095
384.37859
382.25983
379.68844
376.59058
372.88509
368.48419
363.29493
357.22134
350.16785
342.04375
332.76933
322.28354
310.55327
297.5843
283.4331
268.2191
252.13572
235.4585
218.54786
201.84333
185.84651
171.09015
158.09251
147.29887
139.01642
133.35329
130.17786
129.1101
129.59582
130.81601
132.97203
413.50028
413.4699
413.43928
413.40845
413.37784
413.34797
413.31945
413.29298
413.26936
413.24944
413.23412
413.22428
413.22069
413.22389
413.23396
413.25034
413.27138
413.29391
413.31257
413.31894
413.30047
413.2391
413.1095
412.877
412.49506
411.90238
411.01963
409.74598
407.95568
405.49501
402.1803
397.79773
392.1061
384.84388
375.74208
364.54449
351.03647
335.08259
316.67198
295.96743
273.35126
249.45688
225.17163
201.59555
179.94215
161.38622
146.8404
136.85565
131.04956
129.50864
425.03359
424.99504
424.95289
424.90649
424.85545
424.79935
424.73777
424.67027
424.59643
424.51588
424.42828
424.33336
424.23102
424.1213
424.0045
423.88124
423.75254
423.61992
423.4855
423.35207
423.22313
423.10289
422.99608
422.90766
422.8421
422.80236
422.78811
422.79315
422.8017
422.78319
422.68539
422.42561
421.88001
420.87144
419.15679
416.41592
412.24529
406.16095
397.61696
386.04604
370.92873
351.89382
328.84576
302.10325
272.51593
241.51509
211.04948
183.22145
160.99098
139.46699
433.3598
433.32657
433.29016
433.25006
433.20587
433.15718
433.10348
433.04426
432.9789
432.90675
432.82706
432.73903
432.64174
432.5342
432.41533
432.28395
432.13883
431.97868
431.80224
431.6083
431.39589
431.16435
430.91365
430.6446
430.35927
430.06144
429.75706
429.45472
429.16596
428.90517
428.68874
428.53288
428.44936
428.43806
428.47525
428.49625
428.37166
427.87722
426.65958
424.2035
419.8107
412.60656
401.5956
385.78635
364.40726
337.15774
304.71012
267.89495
233.47484
182.8598
439.91647
439.8893
439.85939
439.82645
439.79017
439.75021
439.70618
439.65766
439.60418
439.54522
439.48019
439.40846
439.32929
439.24189
439.14533
439.0386
438.92053
438.78979
438.64491
438.48417
438.30565
438.10717
437.88629
437.64032
437.36639
437.06153
436.72295
436.34836
435.93661
435.48851
435.00805
434.50391
433.99111
433.49264
433.04005
432.67193
432.42815
432.33663
432.38907
432.50145
432.45681
431.83206
429.92081
425.67064
417.70844
404.35774
384.44047
355.32537
325.12396
258.91156
445.32847
445.3058
445.28062
445.2529
445.22236
445.18871
445.15165
445.11081
445.06582
445.01624
444.9616
444.90137
444.83498
444.76178
444.68106
444.59201
444.49374
444.38525
444.26542
444.133
443.98655
443.82444
443.64481
443.44551
443.22401
442.97738
442.70217
442.39433
442.04919
441.66142
441.22527
440.73494
440.18552
439.57446
438.90412
438.18517
437.44114
436.71286
436.06113
435.56315
435.29626
435.29858
435.49848
435.59251
434.93633
432.21863
426.16049
412.23156
397.65931
341.34694
449.90962
449.89051
449.86899
449.84528
449.81914
449.79034
449.7586
449.72362
449.68507
449.64259
449.59578
449.54418
449.48732
449.42463
449.35553
449.27932
449.19527
449.10253
449.00019
448.8872
448.76241
448.62454
448.47215
448.30362
448.11712
447.91056
447.68154
447.42728
447.14446
446.82914
446.47653
446.08076
445.63466
445.12963
444.55575
443.90253
443.16072
442.32599
441.40505
440.42466
439.44246
438.55467
437.89511
437.59117
437.7259
437.97612
438.18215
434.80724
433.41425
401.87076
453.87277
453.85648
453.83778
453.81714
453.79436
453.76924
453.74155
453.71103
453.67738
453.6403
453.59943
453.55439
453.50476
453.45006
453.38978
453.32332
453.25005
453.16922
453.08005
452.98163
452.87298
452.75299
452.62042
452.4739
452.31189
452.13268
451.93431
451.71462
451.47114
451.20105
450.90111
450.56749
450.1956
449.77976
449.31278
448.78541
448.18577
447.49909
446.70828
445.79656
444.75409
443.58942
442.35078
441.1373
440.15289
439.51882
439.7719
439.40501
442.09571
431.79381
457.35684
457.34291
457.32646
457.30827
457.28817
457.26598
457.2415
457.21451
457.18474
457.15192
457.11575
457.07588
457.03195
456.98355
456.93021
456.87143
456.80663
456.73518
456.65636
456.5694
456.47341
456.36744
456.2504
456.12109
455.97817
455.82013
455.64526
455.45169
455.23726
454.99959
454.73598
454.44336
454.11829
453.75676
453.35412
452.90472
452.40151
451.83516
451.1931
450.45812
449.60768
448.61463
447.45514
446.11707
444.65455
443.13497
441.98511
440.9582
441.87894
440.85034
460.46093
460.44902
460.4344
460.41821
460.40028
460.38047
460.35859
460.33444
460.3078
460.27842
460.24602
460.21031
460.17097
460.12762
460.07987
460.02725
459.96926
459.90534
459.83483
459.75706
459.67124
459.57652
459.47194
459.35643
459.22882
459.08777
458.93178
458.75917
458.56807
458.35635
458.12161
457.86115
457.57193
457.25047
456.89287
456.49468
456.05082
455.5553
455.00081
454.37778
453.67297
452.86683
451.93202
450.82949
449.52548
447.97923
446.28501
444.49841
443.16587
442.668
463.25643
463.24631
463.23323
463.21871
463.20259
463.18474
463.16501
463.14321
463.11914
463.09258
463.06329
463.031
462.99542
462.95623
462.91306
462.8655
462.8131
462.75534
462.69165
462.62141
462.54391
462.45839
462.364
462.25978
462.14467
462.01748
461.87689
461.7214
461.54934
461.35881
461.14771
460.91362
460.65383
460.36525
460.04436
459.68715
459.28909
458.84503
458.3491
457.79459
457.17347
456.4754
455.68582
454.78162
453.72848
452.4734
450.96158
449.16403
447.19787
444.82075
465.79676
465.78825
465.77649
465.76338
465.74879
465.7326
465.71467
465.69485
465.67293
465.64874
465.62204
465.5926
465.56016
465.52444
465.48509
465.44176
465.39402
465.3414
465.2834
465.21943
465.14886
465.07101
464.98509
464.89024
464.78552
464.66985
464.54204
464.40073
464.24443
464.07145
463.87989
463.66761
463.43219
463.17087
462.88053
462.55758
462.19793
461.7969
461.34911
460.84845
460.28799
459.65984
458.9548
458.1611
457.26141
456.22625
455.01325
453.5025
451.91951
448.5867
468.12272
468.1157
468.10508
468.09319
468.07991
468.06514
468.04876
468.03061
468.01053
467.98834
467.96384
467.93682
467.90705
467.87425
467.83815
467.79839
467.75459
467.70634
467.65314
467.59447
467.52977
467.45838
467.37961
467.29269
467.19673
467.09076
466.97371
466.84434
466.70129
466.54305
466.36788
466.17388
465.95885
465.72033
465.45552
465.16122
464.83379
464.46905
464.06216
463.60755
463.09879
462.52848
461.88826
461.16856
460.35923
459.44196
458.4155
457.13435
456.00265
452.83411
470.26619
470.26057
470.25095
470.24013
470.228
470.21446
470.19941
470.18271
470.16421
470.14374
470.12113
470.09619
470.06869
470.03841
470.00508
469.96839
469.92797
469.88345
469.83437
469.78025
469.72056
469.65471
469.58206
469.50189
469.41342
469.31574
469.20786
469.08867
468.95692
468.81122
468.65001
468.47153
468.2738
468.0546
467.81139
467.5413
467.24104
466.90687
466.5345
466.11896
465.65447
465.1343
464.55065
463.89412
463.15588
462.31798
461.39549
460.25153
459.3329
456.67448
472.25253
472.24822
472.23951
472.22964
472.21851
472.20605
472.19217
472.17673
472.15961
472.14064
472.11967
472.09652
472.071
472.0429
472.01198
471.97794
471.94045
471.89916
471.85365
471.80346
471.7481
471.68704
471.61968
471.54537
471.46336
471.37283
471.27288
471.16246
471.04044
470.90554
470.75633
470.5912
470.40834
470.20572
469.98101
469.73162
469.45457
469.14647
468.80345
468.42107
467.99417
467.51676
466.98189
466.38087
465.70552
464.93787
464.09191
463.04868
462.20088
459.94337
474.10222
474.09918
474.09128
474.08226
474.07203
474.06053
474.04768
474.03336
474.01744
473.99978
473.98025
473.95867
473.93488
473.90869
473.87986
473.84815
473.81323
473.77476
473.73236
473.68561
473.63405
473.57717
473.51442
473.4452
473.36883
473.28454
473.19149
473.08872
472.97517
472.84966
472.71088
472.55735
472.38739
472.19913
471.99046
471.75898
471.50197
471.21635
470.89861
470.5447
470.15
469.70911
469.21587
468.66253
468.04175
467.33733
466.55927
465.60553
464.80433
462.79091
475.83205
475.83023
475.82307
475.81482
475.8054
475.79476
475.78282
475.76949
475.75464
475.73815
475.71988
475.69969
475.67743
475.65292
475.62595
475.59628
475.56362
475.52764
475.488
475.44427
475.39604
475.34284
475.28416
475.21943
475.14802
475.06921
474.98222
474.88616
474.78005
474.66279
474.53315
474.38977
474.23111
474.05542
473.86076
473.64492
473.4054
473.13937
472.8436
472.51442
472.14762
471.73831
471.28091
470.76851
470.1945
469.54478
468.82715
467.9522
467.20679
465.3601
477.45594
477.4553
477.44882
477.44127
477.43258
477.42272
477.41161
477.39916
477.38527
477.36982
477.35268
477.33372
477.31281
477.28979
477.26447
477.23661
477.20596
477.17221
477.135
477.09396
477.0487
476.99876
476.94368
476.88293
476.81591
476.74196
476.66034
476.57022
476.47069
476.36071
476.23916
476.10475
475.95605
475.79145
475.60913
475.40706
475.18292
474.93409
474.65761
474.35011
474.00772
473.62599
473.19983
472.72298
472.18944
471.58668
470.92173
470.11382
469.42555
467.7196
478.98555
478.98606
478.98021
478.97331
478.96529
478.95613
478.94577
478.93412
478.92109
478.90657
478.89043
478.87258
478.85288
478.8312
478.80735
478.78112
478.75227
478.72049
478.68546
478.64683
478.60421
478.55719
478.50533
478.44812
478.38502
478.3154
478.23856
478.15374
478.06007
477.95658
477.84222
477.71578
477.57594
477.42119
477.24983
477.05996
476.84944
476.61584
476.35642
476.06806
475.7472
475.38976
474.99107
474.54541
474.04732
473.48538
472.8663
472.11577
471.47785
469.89895
480.43075
480.43238
480.42712
480.42083
480.41342
480.4049
480.39522
480.3843
480.37205
480.35836
480.34314
480.32628
480.30767
480.28719
480.26466
480.2399
480.21266
480.18266
480.14959
480.11312
480.07288
480.02848
479.97951
479.92549
479.8659
479.80017
479.72763
479.64755
479.55912
479.46145
479.35352
479.23423
479.10231
478.95635
478.79478
478.61581
478.41744
478.19741
477.95317
477.68182
477.38009
477.04419
476.66983
476.25176
475.78498
475.25898
474.68016
473.97975
473.38468
471.91863
481.79995
481.8027
481.79799
481.79226
481.78542
481.7775
481.76844
481.75818
481.74663
481.73371
481.71931
481.70335
481.68572
481.66632
481.64499
481.62155
481.59578
481.56739
481.5361
481.50158
481.46348
481.42145
481.37508
481.32394
481.26753
481.2053
481.13663
481.06083
480.97714
480.8847
480.78257
480.66969
480.5449
480.40685
480.25407
480.08489
479.89741
479.68954
479.45889
479.20278
478.91814
478.60147
478.24881
477.8553
477.41635
476.92225
476.37905
475.72299
475.16519
473.79797
483.10041
483.10425
483.10007
483.09485
483.08855
483.08117
483.07269
483.06304
483.05214
483.03991
483.02626
483.01111
482.99439
482.97597
482.95573
482.93349
482.90904
482.88212
482.85244
482.81969
482.78355
482.74366
482.69966
482.65112
482.59759
482.53854
482.47338
482.40145
482.32205
482.23435
482.13746
482.0304
481.91204
481.78114
481.6363
481.47594
481.2983
481.10139
480.88298
480.64057
480.37129
480.07189
479.73869
479.36718
478.95312
478.48751
477.97606
477.35946
476.83482
475.55441
484.33839
484.3433
484.33962
484.3349
484.32909
484.32223
484.31428
484.30519
484.29488
484.28328
484.27032
484.25592
484.24001
484.22249
484.20325
484.18211
484.15887
484.13328
484.10507
484.07394
484.03958
484.00165
483.9598
483.91365
483.86273
483.80657
483.74461
483.67621
483.6007
483.51731
483.4252
483.32341
483.21091
483.0865
482.94886
482.79651
482.62777
482.44079
482.23346
482.00343
481.74803
481.46422
481.14857
480.79687
480.4052
479.96518
479.48221
478.90087
478.40599
477.20258
485.51936
485.52534
485.52213
485.51788
485.51253
485.50614
485.49869
485.49012
485.48036
485.46935
485.45702
485.4433
485.42814
485.41144
485.39311
485.37297
485.35084
485.32648
485.29962
485.26998
485.23724
485.20111
485.16123
485.11725
485.06873
485.01522
484.95617
484.891
484.81905
484.7396
484.65183
484.55487
484.4477
484.32921
484.19813
484.05307
483.89245
483.71449
483.51724
483.29846
483.05566
482.78599
482.48623
482.15248
481.78104
481.36412
480.90683
480.3572
479.88914
478.75456
486.64811
486.65514
486.65238
486.64857
486.64367
486.63773
486.63074
486.62265
486.6134
486.60293
486.59117
486.57809
486.56361
486.54767
486.53017
486.51097
486.48986
486.46663
486.44101
486.41272
486.38149
486.347
486.30894
486.26695
486.22063
486.16955
486.11318
486.05097
485.98229
485.90644
485.82267
485.73011
485.62783
485.51475
485.38969
485.2513
485.09808
484.92837
484.74031
484.5318
484.30049
484.0437
483.75841
483.44096
483.08791
482.69195
482.25793
481.73694
481.29315
480.22049
487.72885
487.73692
487.7346
487.73122
487.72673
487.72121
487.71465
487.70701
487.69823
487.68826
487.67705
487.66454
487.6507
487.63546
487.61874
487.60038
487.58022
487.55803
487.53356
487.50653
487.47667
487.4437
487.40731
487.36716
487.32288
487.27403
487.22013
487.16064
487.09496
487.02244
486.94233
486.85384
486.75605
486.64795
486.5284
486.39613
486.24971
486.08757
485.90793
485.70882
485.48802
485.24301
484.97094
484.66839
484.33211
483.95524
483.5424
483.04743
482.62568
481.609
488.76531
488.77443
488.77253
488.76955
488.76546
488.76034
488.75419
488.74697
488.73863
488.72913
488.71841
488.70644
488.69319
488.6786
488.66259
488.64503
488.62574
488.60451
488.5811
488.55524
488.52666
488.49509
488.46025
488.4218
488.37939
488.33261
488.28099
488.22402
488.16112
488.09165
488.01494
487.93018
487.83654
487.73302
487.61855
487.49192
487.35176
487.19658
487.02469
486.83422
486.62308
486.38888
486.12894
485.84004
485.51912
485.15971
484.76623
484.29499
483.89336
482.92751
489.76084
489.77099
489.76949
489.7669
489.76319
489.75844
489.75267
489.74585
489.73793
489.72886
489.71861
489.70714
489.69443
489.68044
489.6651
489.64827
489.6298
489.60947
489.58704
489.56226
489.53487
489.5046
489.47119
489.43432
489.39365
489.34879
489.29928
489.24464
489.18431
489.11768
489.0441
488.96281
488.873
488.77372
488.66395
488.54253
488.40815
488.25939
488.09465
487.91215
487.70991
487.48566
487.2369
486.96055
486.65374
486.31037
485.93465
485.48514
485.10194
484.18245
490.71838
490.72956
490.72845
490.72624
490.72289
490.7185
490.7131
490.70665
490.69911
490.69045
490.68063
490.66963
490.65743
490.644
490.62927
490.61313
490.59542
490.57592
490.55441
490.53064
490.50435
490.4753
490.44322
490.40782
490.36877
490.32568
490.27814
490.22566
490.16772
490.10373
490.03306
489.95499
489.86873
489.77339
489.66797
489.55137
489.42235
489.27954
489.12141
488.94629
488.75227
488.53723
488.29877
488.034
487.74022
487.41162
487.05225
486.62271
486.25646
485.37942
491.64061
491.6528
491.65208
491.65023
491.64722
491.64318
491.63812
491.63203
491.62485
491.61657
491.60716
491.59659
491.58487
491.57196
491.55781
491.54231
491.5253
491.50659
491.48593
491.4631
491.43785
491.40993
491.37909
491.34506
491.30752
491.26609
491.22038
491.16992
491.1142
491.05267
490.9847
490.90962
490.82667
490.73499
490.63362
490.52151
490.39746
490.26017
490.10818
489.93989
489.7535
489.54699
489.31808
489.06404
488.7823
488.46736
488.12309
487.71196
487.36135
486.52332
492.52991
492.54312
492.54277
492.54127
492.5386
492.53488
492.53015
492.52439
492.51756
492.50964
492.50061
492.49045
492.47917
492.46675
492.45314
492.43824
492.4219
492.40391
492.38406
492.36211
492.33782
492.31096
492.28129
492.24853
492.2124
492.17253
492.12852
492.07995
492.0263
491.96706
491.90162
491.82933
491.74946
491.66119
491.5636
491.45566
491.33625
491.2041
491.05782
490.89589
490.71659
490.518
490.29797
490.05388
489.78332
489.48103
489.15076
488.75666
488.42052
487.61846
493.38845
493.40268
493.40268
493.40152
493.39918
493.39578
493.39136
493.38591
493.37941
493.37183
493.36315
493.35338
493.34252
493.33056
493.31746
493.30312
493.2874
493.2701
493.251
493.22987
493.20649
493.18062
493.15204
493.12048
493.08567
493.04725
493.00485
492.95803
492.90633
492.84923
492.78616
492.71648
492.63949
492.55441
492.46034
492.3563
492.24121
492.11386
491.97291
491.81691
491.64422
491.45301
491.24124
491.00642
490.74625
490.45573
490.13845
489.76015
489.43745
488.66867
494.2182
494.23343
494.23379
494.23296
494.23092
494.22783
494.22371
494.21857
494.21238
494.20511
494.19677
494.18736
494.17689
494.16536
494.15273
494.13893
494.12379
494.10714
494.08875
494.0684
494.04586
494.02093
493.99337
493.96294
493.92936
493.89231
493.85141
493.80625
493.75637
493.70128
493.64042
493.57319
493.4989
493.4168
493.32603
493.22565
493.1146
492.99174
492.85577
492.70531
492.5388
492.35448
492.15042
491.92425
491.67377
491.39421
491.08904
490.72544
490.41523
489.67732
495.02093
495.03717
495.03787
495.03736
495.03562
495.03282
495.02899
495.02414
495.01824
495.01128
495.00325
494.99418
494.98408
494.97296
494.96078
494.94747
494.93289
494.91684
494.89912
494.87951
494.85777
494.83372
494.80712
494.77775
494.74533
494.70956
494.67007
494.62647
494.57831
494.5251
494.46632
494.40139
494.32964
494.25034
494.16266
494.06571
493.95845
493.83979
493.70849
493.56322
493.40249
493.22463
493.02778
492.80969
492.56827
492.29896
492.00509
491.6552
491.35665
490.64746
495.79827
495.81551
495.81655
495.81635
495.81491
495.81238
495.80883
495.80425
495.79863
495.79196
495.78424
495.77548
495.76573
495.75499
495.74324
495.7304
495.71634
495.70087
495.68378
495.66486
495.64388
495.62065
495.59496
495.56659
495.53527
495.50071
495.46255
495.42041
495.37386
495.32243
495.26561
495.20284
495.13347
495.0568
494.97204
494.87831
494.77461
494.6599
494.53298
494.39258
494.23727
494.06546
493.87538
493.66486
493.43193
493.17221
492.88893
492.55184
492.2642
491.58179
496.5517
496.56993
496.57131
496.57142
496.57025
496.568
496.56471
496.5604
496.55505
496.54865
496.54121
496.53276
496.52334
496.51296
496.50162
496.48922
496.47565
496.46073
496.44424
496.42596
496.4057
496.38325
496.35842
496.33099
496.30071
496.26729
496.23039
496.18963
496.1446
496.09485
496.03988
495.97914
495.91202
495.83783
495.75581
495.6651
495.56477
495.45377
495.33097
495.19515
495.04494
494.87881
494.69508
494.49168
494.26672
494.016
493.74264
493.41756
493.14013
492.48276
497.28258
497.30181
497.30351
497.30392
497.30303
497.30104
497.29801
497.29395
497.28885
497.28272
497.27555
497.26739
497.25828
497.24824
497.23728
497.22531
497.2122
497.19779
497.18187
497.16421
497.14463
497.12292
497.0989
497.07236
497.04306
497.01072
496.97501
496.93555
496.89196
496.84379
496.79056
496.73175
496.66675
496.5949
496.51547
496.42762
496.33045
496.22295
496.10404
495.97253
495.82712
495.66635
495.48859
495.29189
495.07442
494.83216
494.56812
494.25431
493.98648
493.35257
497.99216
498.01239
498.01441
498.01511
498.01449
498.01275
498.00997
498.00615
498.0013
497.99541
497.9885
497.98062
497.9718
497.96209
497.95149
497.93992
497.92726
497.91334
497.89795
497.88088
497.86194
497.84093
497.81768
497.79199
497.76362
497.7323
497.69771
497.65949
497.61726
497.57059
497.51901
497.46201
497.39902
497.32939
497.2524
497.16725
497.07306
496.96887
496.85362
496.72618
496.5853
496.42958
496.25746
496.06707
495.85666
495.62237
495.36711
495.0639
494.8051
494.19321
498.6816
498.70281
498.70514
498.70613
498.70578
498.70429
498.70174
498.69816
498.69354
498.68789
498.68123
498.6736
498.66507
498.65567
498.64541
498.63422
498.62198
498.60853
498.59365
498.57714
498.55881
498.53847
498.51595
498.49106
498.46357
498.43321
498.39969
498.36265
498.32171
498.27645
498.22644
498.17116
498.11007
498.04253
497.96785
497.88526
497.7939
497.69283
497.58105
497.45746
497.32086
497.16991
497.00312
496.81868
496.61494
496.38817
496.14118
495.84796
495.59767
495.0065
499.35194
499.37414
499.37679
499.37806
499.37796
499.37671
499.37439
499.37104
499.36665
499.36122
499.35479
499.34742
499.33915
499.33005
499.32011
499.30928
499.29745
499.28444
499.27005
499.25407
499.23632
499.21661
499.19479
499.17065
499.144
499.11457
499.08206
499.04613
499.00641
498.96251
498.91397
498.86033
498.80104
498.73549
498.66301
498.58283
498.49415
498.39604
498.28754
498.16759
498.03504
497.8886
497.72685
497.54805
497.35061
497.13094
496.89178
496.60799
496.36574
495.79409
500.00418
500.02736
500.03031
500.03186
500.03201
500.03099
500.02891
500.02577
500.0216
500.01639
500.01018
500.00304
499.99503
499.98621
499.97658
499.9661
499.95465
499.94206
499.92814
499.91267
499.89546
499.87636
499.8552
499.83179
499.80594
499.77738
499.74583
499.71096
499.67241
499.62978
499.58266
499.53057
499.47299
499.40932
499.33892
499.26105
499.1749
499.0796
498.97421
498.85772
498.72901
498.58684
498.42986
498.2564
498.06493
497.85198
497.62023
497.34535
497.1107
496.55748
500.63921
500.66338
500.66663
500.66845
500.66885
500.66806
500.66619
500.66327
500.6593
500.6543
500.64831
500.64139
500.63363
500.62507
500.61574
500.60559
500.59451
500.58233
500.56884
500.55385
500.53718
500.51865
500.49812
500.4754
500.45031
500.42258
500.39195
500.35809
500.32065
500.27924
500.23346
500.18284
500.12689
500.06502
499.99659
499.9209
499.83717
499.74454
499.6421
499.52889
499.40382
499.26571
499.11326
498.94486
498.75904
498.55248
498.32774
498.06131
497.83386
497.29807
501.25789
501.28304
501.28659
501.28868
501.28931
501.28874
501.28709
501.28437
501.2806
501.2758
501.27002
501.26332
501.25579
501.24748
501.23844
501.2286
501.21787
501.20608
501.19301
501.17849
501.16232
501.14434
501.12441
501.10235
501.07798
501.05105
501.0213
500.98839
500.95201
500.91176
500.86726
500.81805
500.76364
500.70348
500.63694
500.56333
500.48188
500.39179
500.29217
500.18206
500.06046
499.9262
499.77805
499.61447
499.43402
499.23351
499.01543
498.75701
498.53639
498.01711
501.86099
501.88712
501.89096
501.89331
501.89418
501.89384
501.89238
501.88986
501.88629
501.88169
501.8761
501.86961
501.8623
501.85424
501.84546
501.83593
501.82554
501.81411
501.80145
501.78737
501.77168
501.75423
501.73487
501.71344
501.68976
501.6636
501.63467
501.60269
501.56731
501.52817
501.48489
501.43702
501.38409
501.32556
501.26081
501.18917
501.10992
501.02224
500.92529
500.81815
500.69984
500.56926
500.4252
500.26618
500.09085
499.89609
499.68434
499.43353
499.2194
498.71578
502.44925
502.47635
502.48048
502.48309
502.48419
502.48406
502.48281
502.48048
502.4771
502.47268
502.46729
502.46099
502.45389
502.44607
502.43755
502.42831
502.41824
502.40716
502.3949
502.38124
502.36601
502.34906
502.33025
502.30943
502.28641
502.26097
502.23284
502.20173
502.16732
502.12924
502.08711
502.04053
501.98901
501.93203
501.86899
501.79925
501.72207
501.6367
501.54229
501.43798
501.32281
501.19572
501.05556
500.9009
500.73043
500.54115
500.33543
500.09186
499.88389
499.39514
503.02334
503.05141
503.05583
503.0587
503.06003
503.0601
503.05905
503.05691
503.05371
503.04947
503.04426
503.03815
503.03125
503.02365
503.01539
503.00643
502.99666
502.98593
502.97403
502.96078
502.94599
502.92953
502.91124
502.891
502.86861
502.84386
502.8165
502.78624
502.75274
502.71567
502.67466
502.6293
502.57912
502.52363
502.46223
502.39428
502.3191
502.23592
502.14395
502.04233
501.93015
501.8064
501.66995
501.51944
501.35362
501.16956
500.96957
500.73289
500.53081
500.05621
503.5839
503.61294
503.61765
503.62077
503.62232
503.6226
503.62173
503.61978
503.61675
503.61269
503.60765
503.60173
503.59503
503.58764
503.57962
503.57092
503.56145
503.55105
503.53951
503.52664
503.51228
503.49628
503.4785
503.45881
503.43702
503.41295
503.38632
503.35685
503.32424
503.28814
503.24819
503.204
503.15511
503.10104
503.0412
502.97498
502.90169
502.82061
502.73097
502.63192
502.5226
502.40203
502.26913
502.12259
501.96119
501.78211
501.5876
501.35749
501.16101
500.69988
504.13152
504.16153
504.16652
504.16989
504.17166
504.17214
504.17146
504.16968
504.16683
504.16293
504.15806
504.15232
504.14581
504.13863
504.13083
504.12239
504.11321
504.10312
504.09192
504.07944
504.06548
504.04992
504.03263
504.01346
503.99226
503.96882
503.94289
503.9142
503.88243
503.84726
503.80833
503.76526
503.71761
503.66489
503.60655
503.54197
503.47051
503.39144
503.30401
503.20743
503.10084
502.98331
502.8538
502.71104
502.55387
502.37956
502.19027
501.96644
501.77532
501.32703
504.66677
504.69774
504.70301
504.70663
504.70861
504.70929
504.70879
504.70719
504.7045
504.70077
504.69606
504.69048
504.68415
504.67717
504.66959
504.6614
504.6525
504.64271
504.63184
504.61972
504.60615
504.59102
504.57419
504.55553
504.53489
504.51207
504.48681
504.45886
504.4279
504.39362
504.35567
504.31367
504.2672
504.21578
504.15887
504.09588
504.02616
503.94901
503.86371
503.76948
503.6655
503.55088
503.42462
503.28548
503.13236
502.9626
502.77831
502.56048
502.37446
501.93845
505.19015
505.22208
505.22763
505.23149
505.23369
505.23456
505.23425
505.23281
505.23028
505.22671
505.22216
505.21674
505.21059
505.2038
505.19643
505.18848
505.17984
505.17034
505.1598
505.14802
505.13483
505.12011
505.10372
505.08556
505.06545
505.04322
505.01861
504.99136
504.96118
504.92775
504.89074
504.84978
504.80445
504.75427
504.69874
504.63726
504.5692
504.4939
504.41063
504.31866
504.21719
504.10535
503.98219
503.84653
503.69728
503.53187
503.35238
503.14028
502.95916
502.53486
505.70217
505.73506
505.74089
505.74499
505.74739
505.74846
505.74832
505.74704
505.74467
505.74125
505.73685
505.73159
505.72561
505.719
505.71184
505.70412
505.69573
505.68652
505.67628
505.66483
505.65201
505.63768
505.62173
505.60403
505.58445
505.56278
505.53879
505.51223
505.48279
505.45019
505.41408
505.3741
505.32986
505.28089
505.22667
505.16664
505.10019
505.02665
504.94534
504.85553
504.75646
504.64729
504.52711
504.39477
504.24923
504.088
503.91309
503.70648
503.53005
503.11697
506.20328
506.23713
506.24323
506.24756
506.25018
506.25143
506.25146
506.25035
506.24813
506.24486
506.24061
506.2355
506.22967
506.22325
506.21629
506.20878
506.20064
506.1917
506.18176
506.17063
506.15816
506.14421
506.12867
506.11143
506.09234
506.07122
506.04783
506.02192
505.99321
505.96139
505.92615
505.88713
505.84393
505.79611
505.74316
505.68453
505.61961
505.54777
505.46833
505.3806
505.28383
505.17723
505.0599
504.93075
504.78877
504.63154
504.46103
504.25969
504.08775
503.68541
506.69391
506.72872
506.73509
506.73966
506.74248
506.74392
506.74412
506.74316
506.74109
506.73796
506.73385
506.72889
506.72322
506.71697
506.7102
506.70291
506.69501
506.68633
506.67667
506.66586
506.65372
506.64014
506.625
506.6082
506.58959
506.56899
506.54618
506.5209
506.49288
506.46183
506.42742
506.38931
506.34712
506.30041
506.24868
506.19139
506.12795
506.05773
505.98009
505.89435
505.7998
505.69566
505.58107
505.45499
505.31643
505.16304
504.99675
504.80046
504.63283
504.24078
507.17448
507.21025
507.21688
507.22169
507.22471
507.22633
507.22669
507.22589
507.22397
507.22098
507.21701
507.21219
507.20667
507.20058
507.194
507.18691
507.17924
507.17081
507.16144
507.15092
507.13911
507.12589
507.11114
507.09475
507.07661
507.05651
507.03426
507.00959
506.98224
506.95191
506.91831
506.88108
506.83986
506.79421
506.74366
506.68765
506.62563
506.55699
506.48108
506.39726
506.30483
506.20305
506.0911
505.96796
505.83268
505.68299
505.52075
505.32931
505.16583
504.78366
507.64538
507.68209
507.689
507.69403
507.69726
507.69905
507.69958
507.69893
507.69715
507.69429
507.69045
507.68577
507.6804
507.67447
507.66806
507.66118
507.65373
507.64555
507.63644
507.62622
507.61472
507.60184
507.58746
507.57148
507.55378
507.53418
507.51246
507.48838
507.46167
507.43205
507.39922
507.36285
507.32256
507.27794
507.22851
507.17375
507.11309
507.04595
506.97171
506.88973
506.79935
506.69984
506.59043
506.47012
506.338
506.19186
506.03352
505.84675
505.68725
505.31456
508.10696
508.14462
508.15179
508.15706
508.16048
508.16244
508.16313
508.16263
508.16099
508.15826
508.15456
508.15001
508.14478
508.139
508.13277
508.12608
508.11884
508.1109
508.10205
508.09211
508.08092
508.06837
508.05435
508.03877
508.0215
508.00236
507.98116
507.95765
507.93156
507.90262
507.87054
507.83498
507.7956
507.75196
507.70362
507.65006
507.59072
507.52503
507.45239
507.37219
507.28378
507.18646
507.07949
506.9619
506.83282
506.6901
506.53551
506.35322
506.19755
505.83399
508.55957
508.59818
508.60561
508.61111
508.61472
508.61686
508.61771
508.61735
508.61584
508.61325
508.60967
508.60525
508.60015
508.59453
508.58846
508.58196
508.57493
508.56722
508.55862
508.54895
508.53806
508.52582
508.51215
508.49695
508.4801
508.46142
508.44072
508.41776
508.39227
508.36399
508.33262
508.29786
508.25934
508.21666
508.16937
508.11696
508.05889
507.9946
507.92351
507.84501
507.75849
507.66329
507.55866
507.4437
507.31755
507.17812
507.02715
506.84918
506.6972
506.3424
509.00354
509.0431
509.05079
509.05651
509.06031
509.06262
509.06363
509.06341
509.06204
509.05957
509.05611
509.05182
509.04685
509.04137
509.03547
509.02915
509.02232
509.01483
509.00648
508.99707
508.98647
508.97454
508.96121
508.94637
508.92992
508.91169
508.89147
508.86903
508.84413
508.81648
508.78581
508.75181
508.71413
508.67237
508.62609
508.57479
508.51795
508.45501
508.38541
508.30856
508.22387
508.1307
508.02834
507.91591
507.79258