/*--------------------------------*- C++ -*----------------------------------*\
| =========                 |                                                 |
| \\      /  F ield         | OpenFOAM: The Open Source CFD Toolbox           |
|  \\    /   O peration     | Version:  4.0                                   |
|   \\  /    A nd           | Web:      www.OpenFOAM.org                      |
|    \\/     M anipulation  |                                                 |
\*---------------------------------------------------------------------------*/
FoamFile
{
    version     2.0;
    format      ascii;
    class       volScalarField;
    location    "760";
    object      ILambda_9_0;
}
// * * * * * * * * * * * * * * * * * * * * * * * * * * * * * * * * * * * * * //

dimensions      [1 0 -3 0 0 0 0];

internalField   nonuniform List<scalar> 
5000
(
320.78498
321.00779
321.25279
321.5222
321.81846
322.14422
322.50241
322.89622
323.32915
323.80506
324.32814
324.90298
325.5346
326.22846
326.99054
327.82732
328.74583
329.75372
330.8592
332.07113
333.39898
334.85284
336.44339
338.18182
340.07977
342.14918
344.40207
346.8503
349.50522
352.37719
355.47506
358.80541
362.37178
366.17372
370.20572
374.45611
378.90603
383.52856
388.28811
393.14054
398.03397
402.9108
407.71076
412.37611
416.85422
421.11611
425.10745
428.98513
432.10316
437.45129
391.81835
391.98857
392.17525
392.3799
392.60418
392.84989
393.11896
393.41347
393.73566
394.08793
394.47283
394.89309
395.3516
395.85138
396.39564
396.98769
397.63095
398.32894
399.08518
399.9032
400.78642
401.73809
402.76119
403.85828
405.0314
406.28183
407.60998
409.01513
410.49524
412.0467
413.66415
415.3403
417.06583
418.82942
420.6179
422.41664
424.2102
425.9833
427.72215
429.41602
431.0591
432.65236
434.20495
435.73556
437.26965
438.84702
440.47714
442.30596
443.8792
447.23684
413.54799
413.61717
413.693
413.77612
413.86718
413.96692
414.07611
414.19559
414.32627
414.46912
414.62516
414.79551
414.98133
415.18386
415.40441
415.64436
415.90514
416.18824
416.49521
416.82763
417.1871
417.57527
417.99375
418.44418
418.92815
419.44725
420.00301
420.59694
421.23055
421.90533
422.62289
423.38494
424.19346
425.05079
425.95983
426.92417
427.94827
429.03758
430.19859
431.43872
432.76599
434.18847
435.71326
437.34579
439.08642
440.93818
442.86775
444.9692
446.76288
450.23104
425.07274
425.11724
425.16611
425.21976
425.27866
425.34332
425.41428
425.49214
425.57755
425.67122
425.77392
425.88647
426.00978
426.14482
426.29266
426.45443
426.63136
426.82477
427.03609
427.26684
427.51865
427.79327
428.09254
428.41845
428.77308
429.15864
429.57748
430.03205
430.52494
431.05884
431.63655
432.26096
432.93505
433.66181
434.44425
435.28528
436.18766
437.15388
438.186
439.28552
440.45321
441.68898
442.99173
444.3598
445.78938
447.28259
448.81532
450.47659
451.87982
454.67541
433.39155
433.42543
433.46266
433.50356
433.54849
433.59784
433.65204
433.71156
433.77691
433.84864
433.92736
434.01374
434.10849
434.21239
434.32629
434.45111
434.58785
434.73759
434.90148
435.0808
435.27688
435.49117
435.72523
435.9807
436.25934
436.56303
436.89372
437.2535
437.64453
438.06908
438.52948
439.02814
439.56751
440.15007
440.7783
441.45464
442.1815
442.96119
443.7959
444.68771
445.63852
446.65014
447.72415
448.86235
450.06508
451.33828
452.66343
454.12442
455.36849
457.89875
439.94253
439.97
440.0002
440.03338
440.06984
440.10991
440.15392
440.20227
440.25537
440.31368
440.37769
440.44796
440.52508
440.6097
440.70252
440.80431
440.9159
441.03819
441.17217
441.31887
441.47946
441.65515
441.84727
442.05724
442.28656
442.53686
442.80986
443.10738
443.43135
443.78379
444.16683
444.58268
445.03363
445.52204
446.05032
446.62094
447.23637
447.89906
448.61146
449.37595
450.19482
451.07025
452.00418
452.99864
454.05417
455.17618
456.34782
457.64442
458.74886
461.0091
445.35057
445.37357
445.39885
445.42665
445.4572
445.49078
445.52767
445.5682
445.61271
445.66161
445.71531
445.77426
445.83899
445.91003
445.98799
446.07353
446.16735
446.27022
446.38298
446.50653
446.64187
446.79004
446.9522
447.12958
447.3235
447.53538
447.76673
448.01918
448.29443
448.5943
448.92072
449.27569
449.66131
450.07977
450.53334
451.02433
451.55511
452.12808
452.74564
453.41019
454.12406
454.88956
455.70881
456.58408
457.51633
458.51111
459.55365
460.71362
461.70259
463.7477
449.92884
449.94855
449.97024
449.99409
450.0203
450.04912
450.08078
450.11557
450.15379
450.19577
450.24187
450.29251
450.3481
450.40915
450.47616
450.5497
450.6304
450.71892
450.816
450.92241
451.03904
451.16679
451.30669
451.45983
451.62737
451.81057
452.01079
452.22947
452.46816
452.72849
453.01221
453.32115
453.65725
454.02253
454.41911
454.84918
455.31499
455.81885
456.36311
456.95015
457.58234
458.26203
458.99148
459.77312
460.6082
461.50225
462.44211
463.49229
464.3884
466.25543
453.88991
453.90711
453.92605
453.94689
453.96981
453.99499
454.02267
454.05308
454.08649
454.12318
454.16348
454.20775
454.25637
454.30976
454.36838
454.43274
454.50338
454.5809
454.66593
454.75919
454.86142
454.97347
455.09622
455.23066
455.37783
455.53887
455.71499
455.90749
456.11778
456.34734
456.59777
456.87075
457.16807
457.49161
457.84334
458.22531
458.63967
459.08861
459.57442
460.0994
460.66589
461.27626
461.9328
462.638
463.39331
464.20415
465.05866
466.01691
466.83504
468.55094
457.37245
457.38767
457.40446
457.42294
457.44327
457.46561
457.49017
457.51714
457.54677
457.57932
457.61506
457.65432
457.69745
457.74482
457.79685
457.85398
457.9167
457.98555
458.06109
458.14396
458.23483
458.33447
458.44367
458.56331
458.69435
458.8378
458.99478
459.16647
459.35415
459.55918
459.78302
460.02724
460.29347
460.58348
460.89909
461.24225
461.61497
462.01936
462.45759
462.9319
463.44457
463.99795
464.59432
465.2362
465.92514
466.66646
467.44936
468.33005
469.08229
470.66912
460.4754
460.48904
460.5041
460.52069
460.53894
460.55901
460.58105
460.60527
460.63187
460.66107
460.69315
460.72838
460.76709
460.80961
460.85632
460.90762
460.96396
461.02582
461.0937
461.16818
461.24988
461.33948
461.43771
461.54537
461.66333
461.79253
461.93397
462.08875
462.25802
462.44306
462.64522
462.86592
463.10671
463.36922
463.65517
463.96638
464.30476
464.6723
465.07109
465.50328
465.97109
466.47681
467.02271
467.61129
468.24417
468.92652
469.64848
470.4628
471.1586
472.6338
463.27008
463.28242
463.29606
463.31111
463.32766
463.34586
463.36585
463.38781
463.41192
463.43839
463.46746
463.49938
463.53446
463.57299
463.61533
463.66185
463.71294
463.76904
463.83063
463.89821
463.97235
464.05368
464.14287
464.24065
464.34781
464.46523
464.59382
464.73459
464.88863
465.05709
465.24123
465.44239
465.66199
465.90158
466.16276
466.44724
466.75683
467.09343
467.45902
467.85568
468.28556
468.75087
469.25387
469.797
470.38195
471.01371
471.68322
472.44016
473.08713
474.46492
465.80983
465.82108
465.83354
465.8473
465.86244
465.87909
465.89737
465.91745
465.93949
465.96368
465.99023
466.0194
466.05144
466.08665
466.12534
466.16786
466.21457
466.26586
466.32218
466.38399
466.45181
466.52621
466.60782
466.69732
466.79543
466.90296
467.02076
467.14976
467.29097
467.44548
467.61443
467.7991
468.00082
468.22101
468.4612
468.72301
469.00815
469.31841
469.6557
470.02201
470.41941
470.85007
471.31617
471.82013
472.36363
472.95154
473.57546
474.28234
474.88666
476.17877
468.1354
468.14572
468.15719
468.16986
468.18382
468.19916
468.216
468.2345
468.25478
468.27704
468.30147
468.3283
468.35778
468.39017
468.42577
468.4649
468.5079
468.55512
468.60697
468.66389
468.72635
468.79487
468.87005
468.95251
469.04292
469.14204
469.25066
469.36964
469.49992
469.64252
469.79852
469.9691
470.15551
470.3591
470.5813
470.82365
471.08777
471.37536
471.68826
472.02836
472.39766
472.79828
473.23233
473.70218
474.20954
474.7591
475.34304
476.00588
476.57265
477.78884
470.27865
470.28817
470.29878
470.31053
470.32347
470.3377
470.35332
470.37046
470.38925
470.40986
470.43247
470.4573
470.48457
470.51455
470.54751
470.58373
470.62354
470.66728
470.7153
470.76802
470.82587
470.88935
470.95901
471.03541
471.11921
471.2111
471.31181
471.42216
471.54303
471.67536
471.82018
471.97858
472.15177
472.34099
472.54762
472.77309
473.01896
473.28685
473.5785
473.89575
474.24052
474.61486
475.02083
475.46076
475.93631
476.45206
477.0007
477.62452
478.158
479.30648
472.26488
472.27372
472.28359
472.29455
472.30662
472.31988
472.33445
472.35041
472.36791
472.3871
472.40814
472.43123
472.4566
472.48449
472.51515
472.54887
472.58592
472.62663
472.67134
472.72042
472.77428
472.83339
472.89825
472.96941
473.04746
473.13306
473.22691
473.32975
473.44243
473.56582
473.7009
473.84869
474.01033
474.18701
474.38002
474.59073
474.82061
475.07123
475.34423
475.64139
475.96458
476.31575
476.69693
477.11038
477.55777
478.0435
478.56074
479.14976
479.65355
480.74131
474.11458
474.12282
474.13205
474.14231
474.15362
474.16606
474.1797
474.19465
474.21103
474.22897
474.24863
474.27021
474.29392
474.31998
474.34864
474.38016
474.41481
474.45288
474.49469
474.54059
474.59096
474.64624
474.7069
474.77346
474.84649
474.92658
475.01441
475.11068
475.21616
475.33171
475.45822
475.59669
475.74818
475.91382
476.09483
476.29252
476.5083
476.74364
477.00016
477.27953
477.58357
477.91417
478.27332
478.6632
479.08547
479.5444
480.03354
480.59136
481.0685
482.10152
475.84452
475.85221
475.86088
475.87054
475.88119
475.89289
475.90573
475.91979
475.93518
475.95203
475.97049
475.99074
476.01298
476.03743
476.06433
476.09392
476.12644
476.16219
476.20145
476.24454
476.29184
476.34374
476.40071
476.46321
476.5318
476.60703
476.68954
476.77999
476.87912
476.98773
477.10667
477.23688
477.37937
477.53522
477.70559
477.89172
478.09496
478.31673
478.55856
478.82208
479.10903
479.42127
479.7607
480.12948
480.52922
480.96407
481.42794
481.95762
482.41074
483.39417
477.46858
477.4758
477.48398
477.4931
477.50316
477.51423
477.52636
477.53963
477.55415
477.57003
477.58742
477.60649
477.62743
477.65046
477.67579
477.70366
477.73431
477.768
477.80499
477.8456
477.89017
477.93908
477.99276
478.05166
478.1163
478.18721
478.26499
478.35027
478.44375
478.54618
478.65837
478.78123
478.91569
479.06281
479.22367
479.39948
479.5915
479.80112
480.02979
480.2791
480.55073
480.84646
481.16817
481.51794
481.89737
482.31049
482.75152
483.25572
483.68707
484.62539
478.99843
479.00523
479.01296
479.02161
479.03116
479.04165
479.05315
479.06573
479.07947
479.09449
479.11092
479.12894
479.14873
479.17048
479.19442
479.22077
479.24974
479.28159
479.31656
479.35495
479.39708
479.44332
479.49406
479.54975
479.61086
479.67791
479.75146
479.83211
479.92053
480.01742
480.12357
480.23983
480.3671
480.50638
480.65871
480.82524
481.00718
481.20586
481.42269
481.65919
481.91699
482.19782
482.50351
482.83609
483.19713
483.59054
484.01083
484.49184
484.90338
485.80051
480.44393
480.45035
480.45768
480.46591
480.47499
480.48498
480.49592
480.50788
480.52093
480.53517
480.55076
480.56783
480.58657
480.60719
480.62988
480.65485
480.68232
480.71252
480.74568
480.78208
480.82203
480.86586
480.91397
480.96676
481.0247
481.08828
481.15803
481.23452
481.31838
481.41029
481.511
481.62131
481.7421
481.8743
482.01893
482.17708
482.34991
482.53871
482.74482
482.96972
483.21499
483.48231
483.77345
484.0904
484.43471
484.81017
485.21155
485.6714
486.06485
486.92421
481.81349
481.81956
481.82653
481.83439
481.84306
481.8526
481.86304
481.87443
481.88686
481.90041
481.91523
481.93145
481.94926
481.96884
481.9904
482.01414
482.04026
482.06897
482.1005
482.13511
482.17308
482.21474
482.26047
482.31065
482.36573
482.42617
482.49248
482.56521
482.64495
482.73235
482.82813
482.93306
483.04798
483.17377
483.31142
483.46196
483.62653
483.80635
484.00272
484.21707
484.45093
484.70593
484.98382
485.28652
485.61555
485.97459
486.35868
486.79912
487.17598
488.00063
483.11435
483.1201
483.12675
483.13426
483.14257
483.1517
483.16169
483.17258
483.18445
483.19738
483.21149
483.22694
483.2439
483.26256
483.2831
483.30572
483.33061
483.35797
483.38803
483.42101
483.45719
483.49689
483.54045
483.58827
483.64075
483.69835
483.76154
483.83084
483.90684
483.99015
484.08146
484.18149
484.29106
484.41103
484.54232
484.68593
484.84297
485.01459
485.20207
485.40679
485.63022
485.87398
486.13973
486.42937
486.7444
487.08839
487.45658
487.87918
488.2408
489.03342
484.35276
484.35822
484.36458
484.37179
484.37977
484.38853
484.39812
484.40855
484.41991
484.43227
484.44576
484.46051
484.47669
484.4945
484.51411
484.53571
484.55949
484.58563
484.61434
484.64584
484.6804
484.71831
484.75991
484.80557
484.85568
484.91068
484.97103
485.03722
485.10981
485.18938
485.2766
485.37217
485.47686
485.59149
485.71697
485.85426
486.0044
486.16852
486.34786
486.54375
486.75762
486.99105
487.24565
487.5233
487.82545
488.15558
488.50915
488.91529
489.26283
490.02583
485.5342
485.5394
485.54549
485.55242
485.5601
485.56853
485.57775
485.58777
485.59867
485.61051
485.62342
485.63753
485.65301
485.67005
485.68881
485.70948
485.73224
485.75727
485.78475
485.8149
485.84797
485.88425
485.92405
485.96774
486.01569
486.06832
486.12606
486.18941
486.25887
486.33502
486.4185
486.50997
486.61019
486.71994
486.84009
486.97156
487.11537
487.2726
487.44446
487.63223
487.83731
488.06122
488.30556
488.57215
488.86242
489.17977
489.51981
489.91073
490.24525
490.98078
486.66345
486.6684
486.67424
486.68093
486.68833
486.69647
486.70535
486.715
486.72547
486.73685
486.74922
486.76275
486.77759
486.79391
486.8119
486.83172
486.85355
486.87755
486.90391
486.93282
486.96453
486.99931
487.03747
487.07935
487.12532
487.17577
487.23112
487.29185
487.35844
487.43145
487.51149
487.5992
487.6953
487.80056
487.9158
488.04192
488.1799
488.33079
488.49574
488.67602
488.87298
489.08811
489.32297
489.57934
489.85862
490.16412
490.49163
490.86844
491.19088
491.90086
487.74472
487.74944
487.75506
487.76152
487.76867
487.77654
487.78511
487.79443
487.80451
487.81545
487.82735
487.84034
487.85458
487.87025
487.88752
487.90657
487.92754
487.9506
487.97593
488.0037
488.03416
488.06756
488.1042
488.14442
488.18856
488.23701
488.29017
488.34848
488.41243
488.48255
488.55941
488.64365
488.73596
488.83707
488.94778
489.06896
489.20155
489.34657
489.50514
489.67849
489.86793
490.07493
490.30101
490.5479
490.81698
491.11149
491.42737
491.79105
492.10227
492.78844
488.78174
488.78625
488.79167
488.79792
488.80485
488.81246
488.82076
488.82976
488.8395
488.85004
488.86149
488.87398
488.88767
488.90274
488.91936
488.93768
488.95787
488.98007
489.00444
489.03117
489.06047
489.0926
489.12785
489.16653
489.20898
489.25558
489.3067
489.36279
489.4243
489.49174
489.56567
489.64671
489.7355
489.83277
489.93929
490.05589
490.18349
490.32307
490.47573
490.64264
490.82512
491.02456
491.24248
491.48056
491.74017
492.02445
492.3295
492.68094
492.9817
493.64564
489.77784
489.78215
489.78738
489.79344
489.80016
489.80755
489.8156
489.82431
489.83373
489.8439
489.85494
489.86697
489.88016
489.89467
489.91068
489.92834
489.9478
489.9692
489.99269
490.01845
490.04669
490.07764
490.11159
490.14885
490.18975
490.23463
490.28388
490.3379
490.39714
490.4621
490.53332
490.61138
490.69692
490.79062
490.89325
491.0056
491.12856
491.26309
491.41024
491.57118
491.74717
491.93959
492.1499
492.37978
492.63055
492.90529
493.20024
493.54026
493.83124
494.47438
490.73597
490.7401
490.74516
490.75105
490.75758
490.76477
490.77258
490.78103
490.79014
490.79998
490.81064
490.82225
490.83496
490.84896
490.86441
490.88145
490.90024
490.9209
490.94358
490.96844
490.99569
491.02555
491.0583
491.09424
491.13369
491.17698
491.22448
491.27659
491.33373
491.39639
491.46508
491.54037
491.62288
491.71327
491.81228
491.92067
492.03931
492.16913
492.31116
492.46653
492.63646
492.82233
493.02555
493.24776
493.49029
493.75611
494.04161
494.37094
494.65278
495.27641
491.65881
491.66277
491.66767
491.6734
491.67976
491.68675
491.69435
491.70256
491.7114
491.72092
491.73122
491.74244
491.75472
491.76824
491.78316
491.79964
491.8178
491.83777
491.85969
491.88372
491.91005
491.9389
491.97054
492.00525
492.04335
492.08516
492.13104
492.18136
492.23655
492.29706
492.36339
492.43611
492.5158
492.6031
492.69873
492.80343
492.91805
493.04347
493.18071
493.33087
493.49515
493.67488
493.87148
494.08652
494.32132
494.5788
494.85545
495.17476
495.44802
496.05333
492.54875
492.55254
492.55729
492.56287
492.56908
492.5759
492.5833
492.59129
492.59987
492.6091
492.61907
492.62992
492.6418
492.65488
492.66931
492.68525
492.70283
492.72216
492.74339
492.76664
492.79211
492.82002
492.85061
492.88418
492.92102
492.96146
493.00582
493.05448
493.10784
493.16635
493.23049
493.30079
493.37785
493.46227
493.55474
493.65599
493.76684
493.88815
494.02091
494.16619
494.32518
494.49917
494.68955
494.89787
495.12543
495.37509
495.64343
495.95332
496.21853
496.8066
493.40793
493.41158
493.41619
493.42164
493.4277
493.43435
493.44158
493.44936
493.4577
493.46667
493.47633
493.48684
493.49834
493.511
493.52498
493.54042
493.55746
493.5762
493.59677
493.6193
493.64397
493.67099
493.70062
493.73312
493.76879
493.80793
493.85088
493.89799
493.94964
494.00628
494.06836
494.13642
494.211
494.29272
494.38223
494.48026
494.58757
494.70503
494.83359
494.9743
495.12832
495.29692
495.48146
495.68348
495.90424
496.14653
496.40706
496.7081
496.96573
497.53756
494.23834
494.24184
494.24632
494.25164
494.25757
494.26408
494.27114
494.27873
494.28686
494.29557
494.30495
494.31514
494.32628
494.33855
494.35211
494.36709
494.38362
494.4018
494.42176
494.44361
494.46754
494.49374
494.52246
494.55396
494.58853
494.62647
494.66809
494.71374
494.7638
494.81867
494.87883
494.94478
495.01705
495.09623
495.18297
495.27796
495.38196
495.4958
495.62041
495.75683
495.90618
496.06971
496.24877
496.44485
496.65921
496.89458
497.14776
497.44044
497.69093
498.24744
495.04174
495.0451
495.04946
495.05467
495.06048
495.06686
495.07376
495.08118
495.0891
495.09757
495.10669
495.11658
495.12739
495.13929
495.15245
495.167
495.18306
495.20072
495.2201
495.24133
495.26455
495.28998
495.31785
495.34842
495.38196
495.41876
495.45914
495.50342
495.55198
495.60521
495.66356
495.72752
495.79762
495.87442
495.95856
496.05069
496.15157
496.26201
496.38291
496.51528
496.66023
496.819
496.99288
497.18338
497.3917
497.62054
497.86678
498.15159
498.39535
498.93737
495.81976
495.823
495.82724
495.83235
495.83804
495.84429
495.85106
495.85831
495.86604
495.87429
495.88316
495.89277
495.90327
495.91483
495.92762
495.94176
495.95738
495.97455
495.9934
496.01403
496.0366
496.0613
496.08837
496.11806
496.15063
496.18637
496.22558
496.26858
496.31573
496.36741
496.42406
496.48615
496.55421
496.62877
496.71045
496.7999
496.89784
497.00507
497.12247
497.25103
497.39184
497.5461
497.71511
497.90032
498.10295
498.32563
498.56532
498.84269
499.08007
499.60839
496.57388
496.577
496.58114
496.58614
496.59173
496.59787
496.60451
496.6116
496.61916
496.62721
496.63584
496.64519
496.6554
496.66664
496.67907
496.69284
496.70803
496.72475
496.74309
496.76316
496.78512
496.80914
496.83546
496.86432
496.89598
496.93073
496.96884
497.01063
497.05645
497.10667
497.16172
497.22205
497.28818
497.36063
497.43999
497.52691
497.62208
497.72628
497.84038
497.96534
498.10223
498.25224
498.41664
498.59687
498.79412
499.01096
499.24446
499.51479
499.74614
500.26146
497.30546
497.30846
497.31251
497.31742
497.32292
497.32895
497.33547
497.34242
497.34981
497.35767
497.36608
497.37518
497.38511
497.39605
497.40816
497.42156
497.43637
497.45266
497.47053
497.49007
497.51145
497.53483
497.56044
497.58852
497.61933
497.65313
497.6902
497.73086
497.77542
497.82427
497.8778
497.93648
498.00078
498.07124
498.14842
498.23294
498.3255
498.42684
498.53781
498.65936
498.79255
498.93854
499.09858
499.27409
499.46624
499.67757
499.9052
500.16885
500.3945
500.8975
498.01576
498.01865
498.0226
498.02743
498.03284
498.03877
498.04518
498.052
498.05924
498.06692
498.07512
498.08398
498.09366
498.10432
498.11611
498.12918
498.14361
498.1595
498.17692
498.19598
498.2168
498.23958
498.26453
498.29187
498.32187
498.35478
498.39088
498.43045
498.47383
498.52138
498.57349
498.6306
498.69318
498.76175
498.83687
498.91913
499.0092
499.10783
499.21585
499.33418
499.46386
499.60604
499.76195
499.93299
500.12031
500.3264
500.54847
500.80579
501.02602
501.51732
498.70591
498.70869
498.71256
498.71732
498.72264
498.72849
498.73479
498.74149
498.74858
498.75609
498.7641
498.77274
498.78217
498.79256
498.80407
498.81681
498.8309
498.84641
498.86341
498.882
498.90231
498.92452
498.94883
498.97548
499.00472
499.03679
499.07196
499.11052
499.15278
499.1991
499.24986
499.30548
499.36644
499.43322
499.50638
499.58649
499.67422
499.77028
499.8755
499.99077
500.11713
500.25569
500.40769
500.57448
500.75722
500.95835
501.17513
501.42644
501.64152
502.12169
499.37698
499.37966
499.38345
499.38813
499.39338
499.39915
499.40535
499.41194
499.4189
499.42625
499.43408
499.44251
499.45171
499.46184
499.47307
499.48552
499.49928
499.51443
499.53103
499.54918
499.569
499.59067
499.61439
499.64039
499.6689
499.70017
499.73447
499.77206
499.81327
499.85842
499.9079
499.96212
500.02153
500.08662
500.15792
500.236
500.3215
500.41513
500.51769
500.63006
500.75326
500.88839
501.03666
501.19943
501.37782
501.57422
501.78599
502.03158
502.24177
502.71135
500.02995
500.03254
500.03624
500.04086
500.04604
500.05173
500.05785
500.06433
500.07116
500.07836
500.08602
500.09425
500.10323
500.11313
500.1241
500.13626
500.14971
500.16452
500.18075
500.19848
500.21785
500.239
500.26216
500.28753
500.31536
500.34588
500.37935
500.41603
500.45623
500.50028
500.54854
500.60143
500.65938
500.72286
500.7924
500.86855
500.95194
501.04325
501.14327
501.25289
501.37309
501.50496
501.64969
501.80863
501.98287
502.17479
502.38178
502.62193
502.82746
503.28695
500.66572
500.66822
500.67185
500.67641
500.68153
500.68715
500.69318
500.69957
500.70628
500.71334
500.72083
500.72888
500.73765
500.74732
500.75804
500.76993
500.78309
500.79758
500.81345
500.8308
500.84972
500.8704
500.89302
500.9178
500.94498
500.97479
501.00747
501.04329
501.08253
501.12553
501.17265
501.22427
501.28082
501.34278
501.41064
501.48496
501.56633
501.65544
501.75306
501.86006
501.97739
502.10616
502.24753
502.40281
502.57312
502.76076
502.9632
503.19816
503.39926
503.84912
501.28514
501.28755
501.29112
501.29562
501.30068
501.30623
501.31219
501.31849
501.32509
501.33201
501.33935
501.34722
501.3558
501.36525
501.37574
501.38738
501.40026
501.41444
501.42998
501.44695
501.46546
501.48568
501.50779
501.53202
501.55858
501.58771
501.61964
501.65464
501.69298
501.73498
501.781
501.83142
501.88665
501.94716
502.01342
502.08599
502.16545
502.25247
502.3478
502.45229
502.5669
502.69271
502.83087
502.98268
503.14923
503.3328
503.5309
503.76092
503.95778
504.39846
501.88899
501.89132
501.89482
501.89927
501.90427
501.90977
501.91566
501.92187
501.92836
501.93517
501.94236
501.95006
501.95845
501.9677
501.97796
501.98936
502.00198
502.01588
502.0311
502.04771
502.06583
502.08562
502.10725
502.13094
502.15692
502.1854
502.21662
502.25084
502.28832
502.32937
502.37435
502.42362
502.47759
502.53672
502.60147
502.67237
502.75
502.83502
502.92816
503.03028
503.1423
503.26528
503.40038
503.54887
503.71184
503.89152
504.08549
504.31078
504.50361
504.93551
502.478
502.48024
502.48369
502.48809
502.49304
502.49849
502.50431
502.51044
502.51684
502.52352
502.53057
502.53812
502.54633
502.55539
502.56544
502.57661
502.58898
502.6026
502.61752
502.6338
502.65155
502.67092
502.69209
502.71528
502.7407
502.76857
502.79911
502.83258
502.86925
502.9094
502.95338
503.00156
503.05433
503.11214
503.17544
503.24475
503.32064
503.40376
503.49482
503.59466
503.7042
503.82449
503.95667
504.10199
504.26153
504.4375
504.62752
504.84831
505.03727
505.46078
503.05285
503.05501
503.0584
503.06276
503.06767
503.07306
503.07882
503.08488
503.09118
503.09776
503.10468
503.11208
503.12012
503.12899
503.13884
503.14979
503.16193
503.17529
503.18992
503.20588
503.22328
503.24225
503.26299
503.2857
503.31058
503.33787
503.36777
503.40053
503.43641
503.47571
503.51874
503.56587
503.6175
503.67405
503.73597
503.80377
503.878
503.9593
504.04837
504.14603
504.2532
504.37093
504.50031
504.64261
504.79888
504.9713
505.15754
505.37402
505.55929
505.97477
503.61417
503.61626
503.61959
503.62391
503.62878
503.63412
503.63983
503.64582
503.65204
503.65851
503.6653
503.67255
503.68044
503.68913
503.69879
503.70954
503.72145
503.73456
503.74892
503.76458
503.78164
503.80024
503.82056
503.84281
503.86719
503.89392
503.92321
503.9553
503.99043
504.0289
504.07103
504.11717
504.16771
504.22305
504.28366
504.35001
504.42265
504.5022
504.58937
504.68496
504.78987
504.90513
505.03184
505.17124
505.32439
505.49341
505.67604
505.88839
506.07013
506.47792
504.16256
504.16457
504.16786
504.17214
504.17697
504.18227
504.18793
504.19385
504.19999
504.20636
504.21303
504.22015
504.22788
504.2364
504.24588
504.25643
504.26813
504.28101
504.29511
504.31048
504.32722
504.34547
504.36539
504.3872
504.4111
504.4373
504.466
504.49744
504.53187
504.56955
504.61082
504.65601
504.7055
504.7597
504.81904
504.884
504.95513
505.03302
505.11836
505.21196
505.3147
505.42761
505.55176
505.6884
505.83855
506.00433
506.18349
506.39189
506.57025
506.97067
504.69857
504.70051
504.70375
504.70799
504.71279
504.71805
504.72366
504.72953
504.73559
504.74187
504.74843
504.75541
504.763
504.77136
504.78067
504.79103
504.80253
504.81519
504.82904
504.84414
504.86057
504.87847
504.89802
504.91941
504.94285
504.96854
504.99669
505.02751
505.06125
505.09819
505.13863
505.18292
505.23141
505.28451
505.34264
505.40628
505.47595
505.55224
505.63585
505.72754
505.82821
505.93885
506.06056
506.19454
506.34182
506.50449
506.68034
506.88495
507.06007
507.45342
505.22273
505.2246
505.22779
505.232
505.23677
505.242
505.24757
505.25337
505.25936
505.26555
505.27201
505.27887
505.28631
505.29452
505.30366
505.31385
505.32515
505.3376
505.35122
505.36605
505.38219
505.39977
505.41896
505.43996
505.46296
505.48816
505.51577
505.546
505.5791
505.61532
505.65497
505.69838
505.74592
505.79796
505.85494
505.91731
505.98559
506.06035
506.14228
506.23215
506.33083
506.43931
506.55867
506.69011
506.83464
506.99432
507.167
507.36797
507.53998
507.92655
505.73552
505.73733
505.74047
505.74466
505.74939
505.75459
505.76012
505.76587
505.7718
505.7779
505.78425
505.791
505.79831
505.80637
505.81536
505.82537
505.83649
505.84874
505.86213
505.87672
505.89258
505.90985
505.92869
505.94931
505.97188
505.99663
506.02373
506.05339
506.08586
506.1214
506.16029
506.20287
506.24949
506.30053
506.3564
506.41755
506.48449
506.5578
506.63812
506.72624
506.82301
506.92942
507.04652
507.17552
507.31741
507.47423
507.64385
507.84134
508.01037
508.39042
506.2374
506.23915
506.24225
506.24641
506.25112
506.25629
506.26178
506.26749
506.27335
506.27937
506.28563
506.29226
506.29944
506.30737
506.3162
506.32606
506.337
506.34905
506.36223
506.37658
506.39218
506.40915
506.42766
506.44791
506.47009
506.49439
506.521
506.55013
506.582
506.61688
506.65505
506.69683
506.74257
506.79264
506.84745
506.90744
506.97309
507.04499
507.12378
507.21021
507.30515
507.40956
507.5245
507.65116
507.79052
507.94459
508.11128
508.30543
508.47159
508.84537
506.72882
506.7305
506.73357
506.7377
506.74239
506.74753
506.75299
506.75865
506.76445
506.7704
506.77656
506.78309
506.79015
506.79794
506.80663
506.81633
506.8271
506.83897
506.85195
506.86607
506.88142
506.8981
506.9163
506.9362
506.958
506.98187
507.00801
507.03662
507.06793
507.10217
507.13965
507.18066
507.22556
507.27471
507.32849
507.38736
507.45178
507.52233
507.59964
507.68446
507.77764
507.88014
507.993
508.1174
508.25433
508.40575
508.56964
508.76056
508.92397
509.29174
507.21017
507.21179
507.21482
507.21894
507.2236
507.22872
507.23415
507.23977
507.24552
507.25139
507.25747
507.26388
507.27083
507.2785
507.28705
507.2966
507.30721
507.31891
507.33169
507.3456
507.3607
507.37711
507.39501
507.41458
507.436
507.45947
507.48516
507.51327
507.54403
507.57767
507.61448
507.65476
507.69885
507.74711
507.79991
507.8577
507.92094
507.99019
508.06608
508.14935
508.24083
508.34149
508.45235
508.57459
508.70918
508.85807
509.01925
509.20708
509.36784
509.72981
507.68185
507.68341
507.68641
507.6905
507.69515
507.70025
507.70565
507.71123
507.71692
507.72273
507.72872
507.73504
507.74187
507.74942
507.75784
507.76725
507.77771
507.78924
507.80184
507.81553
507.8304
507.84656
507.86417
507.88341
507.90448
507.92756
507.95282
507.98046
508.01069
508.04375
508.07992
508.11949
508.16281
508.2102
508.26207
508.31882
508.38093
508.44893
508.52345
508.60522
508.69508
508.79397
508.90291
509.02306
509.1554
509.30184
509.46042
509.64528
509.80349
510.15989
508.14421
508.14572
508.14868
508.15276
508.15739
508.16247
508.16784
508.17339
508.17903
508.18477
508.19069
508.19691
508.20364
508.21107
508.21936
508.22864
508.23895
508.25032
508.26274
508.27624
508.29088
508.30679
508.32413
508.34307
508.3638
508.3865
508.41134
508.43853
508.46825
508.50075
508.53631
508.57521
508.61777
508.66435
508.71531
508.77106
508.83207
508.89887
508.97208
509.05241
509.1407
509.23788
509.34498
509.46313
509.5933
509.73739
509.89347
510.07546
510.23122
510.58224
508.59761
508.59906
508.60199
508.60605
508.61067
508.61573
508.62109
508.6266
508.6322
508.63787
508.64371
508.64985
508.65647
508.66379
508.67196
508.68111
508.69128
508.7025
508.71475
508.72806
508.74249
508.75816
508.77523
508.79387
508.81428
508.83662
508.86107
508.88781
508.91705
508.94902
508.98398
509.02223
509.06407
509.10986
509.15994
509.21474
509.2747
509.34034
509.41228
509.49123
509.57801
509.67355
509.77886
509.89508
510.02317
510.165
510.31866
510.49789
510.65129
510.99714
509.04236
509.04376
509.04666
509.05071
509.05531
509.06036
509.0657
509.07118
509.07673
509.08235
509.08812
509.09417
509.10069
509.1079
509.11596
509.12498
509.13503
509.1461
509.15818
509.17131
509.18554
509.20098
509.21779
509.23615
509.25624
509.27824
509.30231
509.32863
509.3574
509.38886
509.42325
509.46087
509.50202
509.54704
509.59629
509.65016
509.70911
509.77364
509.84436
509.92197
510.0073
510.10125
510.20484
510.31921
510.44528
510.58493
510.73627
510.91284
511.06397