/*--------------------------------*- C++ -*----------------------------------*\
| =========                 |                                                 |
| \\      /  F ield         | OpenFOAM: The Open Source CFD Toolbox           |
|  \\    /   O peration     | Version:  4.0                                   |
|   \\  /    A nd           | Web:      www.OpenFOAM.org                      |
|    \\/     M anipulation  |                                                 |
\*---------------------------------------------------------------------------*/
FoamFile
{
    version     2.0;
    format      ascii;
    class       surfaceScalarField;
    location    "760";
    object      phi;
}
// * * * * * * * * * * * * * * * * * * * * * * * * * * * * * * * * * * * * * //

dimensions      [1 0 -1 0 0 0 0];

internalField   nonuniform List<scalar> 
9850
(
6.1990401e-11
1.7315702e-10
2.5229393e-10
5.8117519e-10
5.8141738e-10
1.1104617e-09
1.0534254e-09
1.7854273e-09
1.6631717e-09
2.6325585e-09
2.3936222e-09
3.6792564e-09
3.2136689e-09
4.9520952e-09
4.0770495e-09
6.4744502e-09
4.9230672e-09
8.2636335e-09
5.6797315e-09
1.0327911e-08
6.2696545e-09
1.2664064e-08
6.6184661e-09
1.5256408e-08
6.6647585e-09
1.8078333e-08
6.3698243e-09
2.1097236e-08
5.7249412e-09
2.4283207e-08
4.7541325e-09
2.7620906e-08
3.5112712e-09
3.1123081e-08
2.0719678e-09
3.4843418e-08
5.221918e-10
3.8886486e-08
-1.052982e-09
4.3413062e-08
-2.5793025e-09
4.8641505e-08
-4.0008252e-09
5.4845555e-08
-5.2826864e-09
6.2349425e-08
-6.4111186e-09
7.1523435e-08
-7.3921921e-09
8.2781802e-08
-8.2496222e-09
9.658433e-08
-9.0215421e-09
1.1344417e-07
-9.7562228e-09
1.3394327e-07
-1.0506453e-08
1.5875637e-07
-1.1323361e-08
1.8868309e-07
-1.2250784e-08
2.246867e-07
-1.3321299e-08
2.6793789e-07
-1.4555044e-08
3.1986241e-07
-1.5960831e-08
3.821935e-07
-1.7539701e-08
4.570312e-07
-1.9290029e-08
5.4691227e-07
-2.1214677e-08
6.5489389e-07
-2.3329476e-08
7.8465386e-07
-2.5675455e-08
9.4061021e-07
-2.8334781e-08
1.1280604e-06
-3.1442614e-08
1.3533346e-06
-3.5242651e-08
1.6240097e-06
-4.0069658e-08
1.9489914e-06
-4.6480402e-08
2.3389727e-06
-5.5677461e-08
2.8063239e-06
-6.7863547e-08
3.3642898e-06
-9.0204098e-08
4.0340561e-06
-1.2156418e-07
4.8201983e-06
-2.2698452e-07
5.8536081e-06
6.1508012e-06
-6.0819501e-11
2.3397622e-10
-2.6289927e-10
7.8325471e-10
-6.4353142e-10
1.4910938e-09
-1.2473169e-09
2.3892123e-09
-2.1272692e-09
3.5125107e-09
-3.3459951e-09
4.8979821e-09
-4.9766218e-09
6.5827217e-09
-7.1029673e-09
8.6007954e-09
-9.8181127e-09
1.0978778e-08
-1.3220205e-08
1.3730004e-08
-1.740417e-08
1.6848029e-08
-2.244835e-08
2.0300588e-08
-2.8396229e-08
2.4026213e-08
-3.5235458e-08
2.7936469e-08
-4.2878882e-08
3.1926633e-08
-5.1154025e-08
3.5896053e-08
-5.980708e-08
3.977614e-08
-6.8523932e-08
4.3560274e-08
-7.6965156e-08
4.7327711e-08
-8.4807163e-08
5.1255073e-08
-9.1778595e-08
5.5612939e-08
-9.7684219e-08
6.0751179e-08
-1.0241463e-07
6.7079834e-08
-1.0594283e-07
7.5051625e-08
-1.0831196e-07
8.5150919e-08
-1.0961907e-07
9.7891432e-08
-1.0999807e-07
1.1382317e-07
-1.0960347e-07
1.3354867e-07
-1.0859574e-07
1.5774863e-07
-1.0712945e-07
1.8721676e-07
-1.0534568e-07
2.2290293e-07
-1.0337069e-07
2.659629e-07
-1.0132084e-07
3.1781256e-07
-9.9312747e-08
3.8018541e-07
-9.7475927e-08
4.5519442e-07
-9.5965155e-08
5.4540145e-07
-9.4970479e-08
6.538992e-07
-9.4726981e-08
7.8441033e-07
-9.5522887e-08
9.4140613e-07
-9.7722244e-08
1.1302597e-06
-1.0177708e-07
1.3573894e-06
-1.0828235e-07
1.630515e-06
-1.1816601e-07
1.9588751e-06
-1.3219256e-07
2.3529993e-06
-1.5347987e-07
2.8276112e-06
-1.8155742e-07
3.3923674e-06
-2.2742363e-07
4.0799222e-06
-3.1574442e-07
4.9085193e-06
-4.8928362e-07
6.027147e-06
5.6615178e-06
-3.7028587e-11
2.7100485e-10
-1.6356846e-10
9.0979473e-10
-4.0883184e-10
1.7363572e-09
-8.0931606e-10
2.7896963e-09
-1.4102584e-09
4.1134529e-09
-2.2671843e-09
5.7549078e-09
-3.4474771e-09
7.7630138e-09
-5.0317836e-09
1.0185102e-08
-7.1149056e-09
1.3061901e-08
-9.8055323e-09
1.6420631e-08
-1.3223756e-08
2.0266253e-08
-1.7494806e-08
2.4571637e-08
-2.2737088e-08
2.9268496e-08
-2.9043016e-08
3.42424e-08
-3.6452817e-08
3.933644e-08
-4.4924998e-08
4.436824e-08
-5.4311475e-08
4.9162623e-08
-6.4347968e-08
5.3596773e-08
-7.4668272e-08
5.7648027e-08
-8.4843438e-08
6.143025e-08
-9.4437616e-08
6.520713e-08
-1.030658e-07
6.9379373e-08
-1.1043886e-07
7.4452915e-08
-1.1638826e-07
8.1001033e-08
-1.2086987e-07
8.9632522e-08
-1.239517e-07
1.0097326e-07
-1.257919e-07
1.1566335e-07
-1.2661211e-07
1.3436886e-07
-1.266702e-07
1.5780669e-07
-1.262346e-07
1.8678114e-07
-1.2556289e-07
2.2223119e-07
-1.2488673e-07
2.6528673e-07
-1.2440563e-07
3.1733144e-07
-1.2428974e-07
3.8006954e-07
-1.2469112e-07
4.5559582e-07
-1.2576048e-07
5.4647081e-07
-1.2766749e-07
6.5580618e-07
-1.3062531e-07
7.8736821e-07
-1.3491658e-07
9.456974e-07
-1.4092855e-07
1.1362716e-06
-1.4922212e-07
1.365683e-06
-1.6046677e-07
1.6417596e-06
-1.7598736e-07
1.9743957e-06
-1.9669271e-07
2.3737047e-06
-2.2572769e-07
2.8566461e-06
-2.6532655e-07
3.4319663e-06
-3.2366579e-07
4.1382613e-06
-4.4860947e-07
5.0334631e-06
-5.6517719e-07
6.1437146e-06
5.0963407e-06
-2.5786956e-11
2.9679167e-10
-1.1471886e-10
9.9872662e-10
-2.8858323e-10
1.9102212e-09
-5.7529601e-10
3.0764088e-09
-1.0104619e-09
4.5486183e-09
-1.6391994e-09
6.3836451e-09
-2.5182171e-09
8.642031e-09
-3.718022e-09
1.1384906e-08
-5.3250217e-09
1.46689e-08
-7.4430686e-09
1.8538678e-08
-1.019367e-08
2.3016855e-08
-1.3713686e-08
2.8091653e-08
-1.8148838e-08
3.3703649e-08
-2.3641043e-08
3.9734606e-08
-3.0307893e-08
4.6003293e-08
-3.8214298e-08
5.2274649e-08
-4.7339838e-08
5.828817e-08
-5.7550211e-08
6.3807157e-08
-6.8584481e-08
6.8682311e-08
-8.0068273e-08
7.291406e-08
-9.1554977e-08
7.6693844e-08
-1.0258585e-07
8.0410252e-08
-1.1275248e-07
8.461956e-08
-1.2174543e-07
8.9993981e-08
-1.2937989e-07
9.7266974e-08
-1.3559833e-07
1.071917e-07
-1.404557e-07
1.205207e-07
-1.4409467e-07
1.380078e-07
-1.4671738e-07
1.6042939e-07
-1.4855824e-07
1.8862199e-07
-1.4986066e-07
2.2353362e-07
-1.5086055e-07
2.662866e-07
-1.5177834e-07
3.1824921e-07
-1.5282128e-07
3.8111247e-07
-1.5419499e-07
4.5696952e-07
-1.5612167e-07
5.4839749e-07
-1.5886068e-07
6.5854521e-07
-1.6273015e-07
7.9123774e-07
-1.6813118e-07
9.5109849e-07
-1.7555533e-07
1.1436958e-06
-1.8569194e-07
1.3758196e-06
-1.9928034e-07
1.655348e-06
-2.1761381e-07
1.9927292e-06
-2.420676e-07
2.3981586e-06
-2.7420555e-07
2.888784e-06
-3.1941474e-07
3.4771756e-06
-3.8563052e-07
4.204477e-06
-5.1164454e-07
5.1594772e-06
-5.2686694e-07
6.1589371e-06
4.5694739e-06
-1.9858234e-11
3.1664961e-10
-8.844644e-11
1.0673147e-09
-2.2277719e-10
2.0445515e-09
-4.4480578e-10
3.2984375e-09
-7.8275064e-10
4.8865629e-09
-1.2727276e-09
6.8736219e-09
-1.9607242e-09
9.330027e-09
-2.9048886e-09
1.232907e-08
-4.1780406e-09
1.5942052e-08
-5.8701369e-09
2.0230772e-08
-8.0901632e-09
2.523688e-08
-1.0966558e-08
3.0968047e-08
-1.4644715e-08
3.7381805e-08
-1.9279611e-08
4.4369504e-08
-2.5021361e-08
5.1745044e-08
-3.1992035e-08
5.9245331e-08
-4.0254347e-08
6.6550494e-08
-4.9776813e-08
7.3329632e-08
-6.0405083e-08
7.9310599e-08
-7.1852068e-08
8.4361065e-08
-8.3716405e-08
8.8558206e-08
-9.5529635e-08
9.2223506e-08
-1.0682089e-07
9.5910833e-08
-1.1718146e-07
1.0035456e-07
-1.2631351e-07
1.0639903e-07
-1.3405507e-07
1.1493326e-07
-1.4038194e-07
1.2684758e-07
-1.4539222e-07
1.4301806e-07
-1.4928008e-07
1.6431722e-07
-1.5230481e-07
1.916467e-07
-1.5475939e-07
2.2598818e-07
-1.569423e-07
2.6846949e-07
-1.591364e-07
3.2044327e-07
-1.6159822e-07
3.8357427e-07
-1.645598e-07
4.5993112e-07
-1.6824276e-07
5.5208043e-07
-1.7288105e-07
6.6318349e-07
-1.7874811e-07
7.9710483e-07
-1.8619695e-07
9.5854738e-07
-1.9566843e-07
1.1531673e-06
-2.0778987e-07
1.387941e-06
-2.2335328e-07
1.6709115e-06
-2.4330852e-07
2.0126843e-06
-2.6949821e-07
2.4243484e-06
-3.0238996e-07
2.9216756e-06
-3.4881175e-07
3.5235975e-06
-4.1983864e-07
4.2755039e-06
-5.2629665e-07
5.2659351e-06
-4.7168808e-07
6.1043286e-06
4.097786e-06
-1.7616419e-11
3.342659e-10
-7.8383497e-11
1.1280818e-09
-1.9721787e-10
2.1633857e-09
-3.932867e-10
3.494506e-09
-6.9114241e-10
5.1844183e-09
-1.1221236e-09
7.3046029e-09
-1.7260622e-09
9.9339655e-09
-2.5533143e-09
1.3156322e-08
-3.6670831e-09
1.7055821e-08
-5.1458996e-09
2.1709588e-08
-7.0859492e-09
2.7176929e-08
-9.6026216e-09
3.3484718e-08
-1.283022e-08
4.0609401e-08
-1.6918206e-08
4.8457489e-08
-2.2021855e-08
5.6848692e-08
-2.8285139e-08
6.5508617e-08
-3.5814777e-08
7.4080135e-08
-4.4647225e-08
8.2162088e-08
-5.4715084e-08
8.937847e-08
-6.5823906e-08
9.5469901e-08
-7.7651496e-08
1.0038582e-07
-8.9776452e-08
1.0434849e-07
-1.0173201e-07
1.0786641e-07
-1.1307119e-07
1.1169377e-07
-1.2342582e-07
1.1675369e-07
-1.3254641e-07
1.2405387e-07
-1.403185e-07
1.3461968e-07
-1.4675832e-07
1.4945788e-07
-1.5199415e-07
1.6955302e-07
-1.5623966e-07
1.9589218e-07
-1.5976442e-07
2.2951291e-07
-1.6286521e-07
2.7157026e-07
-1.6584207e-07
3.234201e-07
-1.6898249e-07
3.8671467e-07
-1.7255682e-07
4.6350547e-07
-1.7682574e-07
5.5634935e-07
-1.8205837e-07
6.684161e-07
-1.8855307e-07
8.0359956e-07
-1.9667123e-07
9.6666548e-07
-2.0685706e-07
1.1633531e-06
-2.1965418e-07
1.4007382e-06
-2.3588016e-07
1.6871374e-06
-2.5618088e-07
2.0329851e-06
-2.8230084e-07
2.4504684e-06
-3.1489519e-07
2.9542699e-06
-3.6052395e-07
3.5692263e-06
-4.3190432e-07
4.3468842e-06
-5.114915e-07
5.3455224e-06
-4.072225e-07
6.0000596e-06
3.6905636e-06
-1.5490809e-11
3.4975621e-10
-6.8955006e-11
1.1815456e-09
-1.7357263e-10
2.268003e-09
-3.4631312e-10
3.6672457e-09
-6.0894981e-10
5.4470542e-09
-9.8932504e-10
7.6849769e-09
-1.5228973e-09
1.0467536e-08
-2.2545984e-09
1.3888022e-08
-3.240996e-09
1.8042218e-08
-4.5526724e-09
2.3021263e-08
-6.2766132e-09
2.8900867e-08
-8.518163e-09
3.5726265e-08
-1.140174e-08
4.3492977e-08
-1.5069026e-08
5.2124771e-08
-1.9672752e-08
6.1452416e-08
-2.536396e-08
7.1199825e-08
-3.2270927e-08
8.0987103e-08
-4.0469899e-08
9.0361064e-08
-4.9951487e-08
9.8860066e-08
-6.0591353e-08
1.0610978e-07
-7.2136979e-08
1.1193147e-07
-8.4220484e-08
1.1643202e-07
-9.6399215e-08
1.2004518e-07
-1.0821539e-07
1.2350999e-07
-1.1925878e-07
1.2779711e-07
-1.2921703e-07
1.3401215e-07
-1.37905e-07
1.4330766e-07
-1.4527232e-07
1.5682522e-07
-1.5139369e-07
1.7567438e-07
-1.5644744e-07
2.0094593e-07
-1.6068792e-07
2.3375338e-07
-1.6441535e-07
2.7529768e-07
-1.6794716e-07
3.2695186e-07
-1.7159468e-07
3.9036215e-07
-1.7565006e-07
4.6756086e-07
-1.8038568e-07
5.6108499e-07
-1.860675e-07
6.7409791e-07
-1.9297639e-07
8.1050846e-07
-2.0143468e-07
9.7512373e-07
-2.1185403e-07
1.1737725e-06
-2.2469166e-07
1.4135758e-06
-2.4069101e-07
1.7031369e-06
-2.604229e-07
2.052717e-06
-2.8517757e-07
2.475223e-06
-3.164374e-07
2.9855297e-06
-3.6012858e-07
3.6129176e-06
-4.2631399e-07
4.4130696e-06
-4.7759317e-07
5.3968017e-06
-3.4195209e-07
5.8644187e-06
3.3486115e-06
-1.4078889e-11
3.6383508e-10
-6.2664206e-11
1.230131e-09
-1.5771789e-10
2.3630567e-09
-3.1463342e-10
3.8241613e-09
-5.5316142e-10
5.6855817e-09
-8.9855888e-10
8.030374e-09
-1.3830086e-09
1.0951986e-08
-2.0473333e-09
1.4552346e-08
-2.9430113e-09
1.8937895e-08
-4.1344493e-09
2.4212701e-08
-5.701354e-09
3.046777e-08
-7.7408615e-09
3.7765771e-08
-1.0368804e-08
4.6120918e-08
-1.3719044e-08
5.5475004e-08
-1.7939284e-08
6.5672649e-08
-2.3181378e-08
7.6441913e-08
-2.9584162e-08
8.7389883e-08
-3.7248015e-08
9.8024916e-08
-4.6203252e-08
1.0781531e-07
-5.6378782e-08
1.1628532e-07
-6.7581504e-08
1.2313421e-07
-7.9497358e-08
1.283479e-07
-9.1719573e-08
1.3226743e-07
-1.0379989e-07
1.3559034e-07
-1.1530959e-07
1.3930684e-07
-1.2589456e-07
1.4459715e-07
-1.3531321e-07
1.5272634e-07
-1.4345321e-07
1.6496523e-07
-1.503297e-07
1.8255089e-07
-1.5607039e-07
2.066866e-07
-1.6089236e-07
2.3857531e-07
-1.6507484e-07
2.7948014e-07
-1.6893107e-07
3.3080807e-07
-1.7278266e-07
3.9421373e-07
-1.7694094e-07
4.7171914e-07
-1.8169888e-07
5.6584291e-07
-1.8733575e-07
6.7973478e-07
-1.9413475e-07
8.1730747e-07
-2.0239808e-07
9.83387e-07
-2.1249975e-07
1.1838742e-06
-2.248439e-07
1.4259199e-06
-2.4001707e-07
1.7183101e-06
-2.5860085e-07
2.0713008e-06
-2.8147385e-07
2.498096e-06
-3.1076093e-07
3.0148168e-06
-3.5194578e-07
3.6541025e-06
-4.0957624e-07
4.4707001e-06
-4.3506316e-07
5.4222888e-06
-2.8386408e-07
5.7132196e-06
3.0647477e-06
-1.2863025e-11
3.7669818e-10
-5.7262012e-11
1.27453e-09
-1.4414352e-10
2.4499383e-09
-2.8760436e-10
3.9676223e-09
-5.0574283e-10
5.9037209e-09
-8.2172551e-10
8.3463571e-09
-1.2651013e-09
1.1395362e-08
-1.8734042e-09
1.5160649e-08
-2.6940523e-09
1.9758543e-08
-3.7865232e-09
2.530517e-08
-5.2246832e-09
3.1905928e-08
-7.0990087e-09
3.9640094e-08
-9.5181885e-09
4.8540092e-08
-1.2609194e-08
5.8566003e-08
-1.6514481e-08
6.9577926e-08
-2.1384447e-08
8.1311872e-08
-2.7363219e-08
9.3368648e-08
-3.4566447e-08
1.0522814e-07
-4.3052086e-08
1.1630094e-07
-5.2788878e-08
1.2602212e-07
-6.3631502e-08
1.3397685e-07
-7.5313258e-08
1.4002968e-07
-8.7464007e-08
1.4441822e-07
-9.9652775e-08
1.4777916e-07
-1.1144496e-07
1.5109907e-07
-1.2245929e-07
1.5561151e-07
-1.3241156e-07
1.6267862e-07
-1.4113889e-07
1.7369258e-07
-1.4860509e-07
1.9001708e-07
-1.548913e-07
2.129728e-07
-1.6017717e-07
2.4386114e-07
-1.6471616e-07
2.8401912e-07
-1.6880847e-07
3.3490035e-07
-1.7277386e-07
3.9817911e-07
-1.7692927e-07
4.7587454e-07
-1.8157496e-07
5.7048862e-07
-1.869924e-07
6.8515225e-07
-1.9345745e-07
8.2377252e-07
-2.0125299e-07
9.9118254e-07
-2.1070803e-07
1.1933292e-06
-2.2219564e-07
1.4374076e-06
-2.3616202e-07
1.7322765e-06
-2.5318293e-07
2.0883217e-06
-2.7399016e-07
2.5189033e-06
-3.0096275e-07
3.0417894e-06
-3.3900338e-07
3.6921432e-06
-3.8655421e-07
4.5182509e-06
-3.8994264e-07
5.4256773e-06
-2.3357804e-07
5.556855e-06
2.8311698e-06
-1.190549e-11
3.8860433e-10
-5.3001864e-11
1.3156268e-09
-1.334222e-10
2.5303588e-09
-2.662173e-10
4.1004171e-09
-4.6814606e-10
6.1056495e-09
-7.6066863e-10
8.6388797e-09
-1.1711751e-09
1.1805868e-08
-1.7344888e-09
1.5723963e-08
-2.4946641e-09
2.0518718e-08
-3.5070653e-09
2.631757e-08
-4.8406449e-09
3.3239506e-08
-6.5802082e-09
4.1379653e-08
-8.8282261e-09
5.0788102e-08
-1.1705442e-08
6.144321e-08
-1.5349073e-08
7.3221543e-08
-1.9906911e-08
8.5869693e-08
-2.5525406e-08
9.8987125e-08
-3.2330206e-08
1.1203292e-07
-4.0399285e-08
1.2437e-07
-4.9732119e-08
1.3535495e-07
-6.0222457e-08
1.4446719e-07
-7.1645021e-08
1.5145226e-07
-8.3665053e-08
1.5643828e-07
-9.5872823e-08
1.5998697e-07
-1.0783602e-07
1.6306232e-07
-1.1915645e-07
1.66932e-07
-1.2951744e-07
1.7303967e-07
-1.3871386e-07
1.8288903e-07
-1.4666327e-07
1.979665e-07
-1.5340179e-07
2.1971132e-07
-1.5906941e-07
2.4952875e-07
-1.6388868e-07
2.8883841e-07
-1.6813975e-07
3.3915139e-07
-1.7213368e-07
4.0217302e-07
-1.7618798e-07
4.799288e-07
-1.8060824e-07
5.7490885e-07
-1.8567946e-07
6.9022357e-07
-1.9167216e-07
8.2976522e-07
-1.9885444e-07
9.9836485e-07
-2.0751276e-07
1.2019875e-06
-2.1798125e-07
1.4478761e-06
-2.3061026e-07
1.7449055e-06
-2.4591707e-07
2.1036285e-06
-2.6467119e-07
2.5376575e-06
-2.8923901e-07
3.0663573e-06
-3.2354053e-07
3.7264447e-06
-3.6069437e-07
4.5554047e-06
-3.4623937e-07
5.4112224e-06
-1.9132326e-07
5.4019389e-06
2.6398467e-06
-1.1095812e-11
3.9970066e-10
-4.9399975e-11
1.353931e-09
-1.2436048e-10
2.6053197e-09
-2.4814981e-10
4.2242068e-09
-4.3640449e-10
6.2939045e-09
-7.0915505e-10
8.9116307e-09
-1.0919816e-09
1.2188696e-08
-1.6174337e-09
1.6249415e-08
-2.3267349e-09
2.1228019e-08
-3.2717779e-09
2.7262613e-08
-4.5173413e-09
3.4485067e-08
-6.1433612e-09
4.3005668e-08
-8.2468872e-09
5.2891621e-08
-1.0943078e-08
6.4139387e-08
-1.436415e-08
7.6642594e-08
-1.8654756e-08
9.0160276e-08
-2.3961944e-08
1.0429429e-07
-3.0417987e-08
1.1848893e-07
-3.8115725e-08
1.3206772e-07
-4.7078814e-08
1.4431802e-07
-5.7233237e-08
1.5462162e-07
-6.8389704e-08
1.6260876e-07
-8.0246409e-08
1.6829503e-07
-9.2416237e-08
1.7215687e-07
-1.0447404e-07
1.7512019e-07
-1.1601187e-07
1.784699e-07
-1.2668868e-07
1.8371652e-07
-1.3626459e-07
1.9246498e-07
-1.4461715e-07
2.063191e-07
-1.5174164e-07
2.2683581e-07
-1.5773994e-07
2.5552702e-07
-1.6280227e-07
2.9390073e-07
-1.6718456e-07
3.4353365e-07
-1.71183e-07
4.0617145e-07
-1.7510902e-07
4.8385477e-07
-1.7926788e-07
5.7906767e-07
-1.8394568e-07
6.9490139e-07
-1.8940797e-07
8.3522749e-07
-1.9591093e-07
1.0048678e-06
-2.0371076e-07
1.2097874e-06
-2.1309922e-07
1.4572646e-06
-2.2437677e-07
1.7561831e-06
-2.3799666e-07
2.1172484e-06
-2.5482537e-07
2.5544863e-06
-2.7707963e-07
3.0886115e-06
-3.073553e-07
3.7567204e-06
-3.3467261e-07
4.582722e-06
-3.0649413e-07
5.383044e-06
-1.5686259e-07
5.2523075e-06
2.4829842e-06
-1.0412789e-11
4.1011442e-10
-4.6361307e-11
1.3898802e-09
-1.1671466e-10
2.6756739e-09
-2.3290064e-10
4.3403934e-09
-4.0960185e-10
6.4706067e-09
-6.6563374e-10
9.1676636e-09
-1.0250348e-09
1.2548098e-08
-1.5184129e-09
1.6742795e-08
-2.1845688e-09
2.1894176e-08
-3.0724106e-09
2.8150455e-08
-4.24311e-09
3.5655764e-08
-5.7723573e-09
4.453491e-08
-7.7524164e-09
5.487167e-08
-1.0293395e-08
6.668035e-08
-1.3522783e-08
7.9871959e-08
-1.7581851e-08
9.4219316e-08
-2.261714e-08
1.0932954e-07
-2.8765253e-08
1.24637e-07
-3.6130232e-08
1.3943265e-07
-4.4755076e-08
1.5294283e-07
-5.4592741e-08
1.6445927e-07
-6.5485407e-08
1.7350143e-07
-7.7161637e-08
1.799713e-07
-8.9257216e-08
1.8425251e-07
-1.013572e-07
1.8722026e-07
-1.1304906e-07
1.9016186e-07
-1.2397348e-07
1.9464102e-07
-1.33862e-07
2.0235358e-07
-1.4255751e-07
2.1501467e-07
-1.5001837e-07
2.3429669e-07
-1.5631062e-07
2.6181931e-07
-1.6159267e-07
2.9918276e-07
-1.6609458e-07
3.4803553e-07
-1.7009469e-07
4.1017152e-07
-1.7389468e-07
4.876547e-07
-1.7779648e-07
5.8296944e-07
-1.8208576e-07
6.9919066e-07
-1.8702453e-07
8.4016627e-07
-1.9285805e-07
1.0107013e-06
-1.9982151e-07
1.2167508e-06
-2.0816617e-07
1.4656092e-06
-2.1816732e-07
1.7661843e-06
-2.3023945e-07
2.1293206e-06
-2.4532861e-07
2.5695755e-06
-2.6542037e-07
3.1087034e-06
-2.9162096e-07
3.7829211e-06
-3.1006787e-07
4.601169e-06
-2.7165032e-07
5.3446265e-06
-1.2924304e-07
5.1099002e-06
2.353741e-06
-9.8239322e-12
4.1994003e-10
-4.3742953e-11
1.4238e-09
-1.101266e-10
2.7420584e-09
-2.1976091e-10
4.4500284e-09
-3.8650687e-10
6.6373536e-09
-6.2813134e-10
9.4092891e-09
-9.6734257e-10
1.2887311e-08
-1.4330692e-09
1.7208522e-08
-2.0620129e-09
2.2523121e-08
-2.9004886e-09
2.898893e-08
-4.0065178e-09
3.6761791e-08
-5.4520592e-09
4.5980446e-08
-7.3251212e-09
5.6744722e-08
-9.7312442e-09
6.9086453e-08
-1.2793494e-08
8.2934179e-08
-1.6649688e-08
9.8075468e-08
-2.1445152e-08
1.1412495e-07
-2.7319216e-08
1.3051101e-07
-3.4384444e-08
1.4649782e-07
-4.2699514e-08
1.6125785e-07
-5.2240159e-08
1.7399988e-07
-6.2876166e-08
1.8413744e-07
-7.4364058e-08
1.9145923e-07
-8.6362176e-08
1.9625071e-07
-9.8467773e-08
1.9932595e-07
-1.1026752e-07
2.0196172e-07
-1.2138869e-07
2.0576229e-07
-1.3153946e-07
2.1250442e-07
-1.4053276e-07
2.2400804e-07
-1.4829405e-07
2.4205803e-07
-1.5485638e-07
2.6838168e-07
-1.6034744e-07
3.0467381e-07
-1.6497118e-07
3.5265924e-07
-1.6898614e-07
4.1418642e-07
-1.7268146e-07
4.9134996e-07
-1.7635331e-07
5.8664126e-07
-1.8028558e-07
7.0312294e-07
-1.8473839e-07
8.446191e-07
-1.8994883e-07
1.0159117e-06
-1.9613819e-07
1.2229402e-06
-2.0352744e-07
1.4729985e-06
-2.1237815e-07
1.7750351e-06
-2.2309625e-07
2.1400387e-06
-2.3666065e-07
2.58314e-06
-2.5476465e-07
3.1268074e-06
-2.7702081e-07
3.8051773e-06
-2.8771222e-07
4.6118604e-06
-2.4187416e-07
5.2987885e-06
-1.0744394e-07
4.9754701e-06
2.246297e-06
-9.3114892e-12
4.292539e-10
-4.1464286e-11
1.4559539e-09
-1.0439245e-10
2.804988e-09
-2.083229e-10
4.5539605e-09
-3.6639998e-10
6.7954329e-09
-5.9547616e-10
9.6383675e-09
-9.1709729e-10
1.3208934e-08
-1.358725e-09
1.7650152e-08
-1.9552211e-09
2.3119618e-08
-2.7506217e-09
2.9784331e-08
-3.8001693e-09
3.7811336e-08
-5.1725142e-09
4.7352784e-08
-6.9518566e-09
5.8524052e-08
-9.2395877e-09
7.1374162e-08
-1.2154646e-08
8.5849201e-08
-1.583142e-08
1.0175219e-07
-2.0413572e-08
1.1870703e-07
-2.604202e-08
1.3613937e-07
-3.2835841e-08
1.5329155e-07
-4.0866518e-08
1.6928845e-07
-5.0129183e-08
1.8326249e-07
-6.0517995e-08
1.9452623e-07
-7.1815131e-08
2.027564e-07
-8.3700842e-08
2.081365e-07
-9.5785812e-08
2.1141103e-07
-1.0765879e-07
2.1383483e-07
-1.1893753e-07
2.1704115e-07
-1.2931108e-07
2.2287809e-07
-1.3856672e-07
2.3326377e-07
-1.4660069e-07
2.5009207e-07
-1.5341599e-07
2.7519704e-07
-1.5911154e-07
3.1036937e-07
-1.6386578e-07
3.5741346e-07
-1.6791674e-07
4.1823735e-07
-1.7153947e-07
4.9497266e-07
-1.7502249e-07
5.9012426e-07
-1.7864676e-07
7.0674719e-07
-1.8267107e-07
8.4864342e-07
-1.8732733e-07
1.020568e-06
-1.9282753e-07
1.2284404e-06
-1.9937465e-07
1.4795457e-06
-2.0722356e-07
1.782884e-06
-2.1679392e-07
2.149609e-06
-2.2905023e-07
2.5953964e-06
-2.4534516e-07
3.1431024e-06
-2.6390721e-07
3.8237395e-06
-2.6794932e-07
4.6159026e-06
-2.1687323e-07
5.2477125e-06
-9.0435953e-08
4.849033e-06
2.1558611e-06
-8.8605283e-12
4.381175e-10
-3.9459156e-11
1.4865539e-09
-9.9346654e-11
2.8648772e-09
-1.9825749e-10
4.6528732e-09
-3.4870423e-10
6.9458827e-09
-5.6673348e-10
9.8564002e-09
-8.7286622e-10
1.351507e-08
-1.2932672e-09
1.8070556e-08
-1.8611726e-09
2.3687527e-08
-2.6185989e-09
3.054176e-08
-3.6183178e-09
3.8811055e-08
-4.9260231e-09
4.8660484e-08
-6.6224872e-09
6.0220502e-08
-8.8053175e-09
7.3556965e-08
-1.1589609e-08
8.8633449e-08
-1.5106404e-08
1.0526892e-07
-1.9497428e-08
1.2309796e-07
-2.4904356e-08
1.415462e-07
-3.1451238e-08
1.5983832e-07
-3.9220112e-08
1.7705721e-07
-4.8222718e-08
1.92265e-07
-5.8374808e-08
2.0467828e-07
-6.9482136e-08
2.1386374e-07
-8.124604e-08
2.1990049e-07
-9.329133e-08
2.2345646e-07
-1.0521102e-07
2.2575466e-07
-1.1661647e-07
2.2844677e-07
-1.2718126e-07
2.3344301e-07
-1.3667062e-07
2.4275324e-07
-1.4495497e-07
2.5837652e-07
-1.5201019e-07
2.822523e-07
-1.579085e-07
3.162677e-07
-1.6280403e-07
3.6230897e-07
-1.6691443e-07
4.2234771e-07
-1.7049978e-07
4.9855794e-07
-1.7383963e-07
5.9346405e-07
-1.7721111e-07
7.1011865e-07
-1.808721e-07
8.5230438e-07
-1.8505206e-07
1.0247479e-06
-1.899575e-07
1.2333459e-06
-1.9578412e-07
1.4853724e-06
-2.0278554e-07
1.7898854e-06
-2.1140442e-07
2.1582279e-06
-2.2255163e-07
2.6065438e-06
-2.3720066e-07
3.1577516e-06
-2.5236584e-07
3.8389048e-06
-2.5075819e-07
4.6142951e-06
-1.9607608e-07
5.1930305e-06
-7.7259052e-08
4.7302159e-06
2.0786023e-06
-8.460112e-12
4.4658129e-10
-3.7678198e-11
1.515774e-09
-9.4865201e-11
2.9220664e-09
-1.8931806e-10
4.7473284e-09
-3.3298896e-10
7.0895564e-09
-5.412065e-10
1.0064621e-08
-8.335796e-10
1.3807448e-08
-1.2351189e-09
1.84721e-08
-1.7776107e-09
2.4230023e-08
-2.5012676e-09
3.126542e-08
-3.4566479e-09
3.9766435e-08
-4.7067838e-09
4.9910613e-08
-6.3293437e-09
6.1843045e-08
-8.4184755e-09
7.5646066e-08
-1.1085697e-08
9.1300619e-08
-1.4458821e-08
1.0864196e-07
-1.8677465e-08
1.273165e-07
-2.3883463e-08
1.4675206e-07
-3.020465e-08
1.6615935e-07
-3.7731784e-08
1.845842e-07
-4.6490931e-08
2.0102403e-07
-5.6417072e-08
2.1460434e-07
-6.7337563e-08
2.2478423e-07
-7.897392e-08
2.3153693e-07
-9.0965485e-08
2.3544819e-07
-1.0291113e-07
2.3770051e-07
-1.1441842e-07
2.3995426e-07
-1.2514844e-07
2.4417323e-07
-1.3484756e-07
2.5245252e-07
-1.4336344e-07
2.6689253e-07
-1.5064745e-07
2.8953638e-07
-1.5674742e-07
3.2236769e-07
-1.6179459e-07
3.6735611e-07
-1.6598678e-07
4.2653987e-07
-1.6956878e-07
5.0213989e-07
-1.7281033e-07
5.9670556e-07
-1.7598401e-07
7.132923e-07
-1.7934668e-07
8.5566702e-07
-1.8312761e-07
1.0285288e-06
-1.8753137e-07
1.2377498e-06
-1.9275435e-07
1.4905954e-06
-1.9905396e-07
1.796185e-06
-2.0689444e-07
2.1660684e-06
-2.171036e-07
2.616753e-06
-2.302487e-07
3.1708968e-06
-2.4231993e-07
3.8509762e-06
-2.3592861e-07
4.6079039e-06
-1.7884377e-07
5.1359456e-06
-6.7092127e-08
4.6184644e-06
2.0115102e-06
-8.1011019e-12
4.5468722e-10
-3.6083395e-11
1.5437589e-09
-9.085288e-11
2.9768387e-09
-1.8131407e-10
4.8377931e-09
-3.1891641e-10
7.2271635e-09
-5.1834713e-10
1.0264057e-08
-7.9839706e-10
1.4087504e-08
-1.1830418e-09
1.8856751e-08
-1.7027642e-09
2.4749752e-08
-2.3961545e-09
3.1958815e-08
-3.3117751e-09
4.0682056e-08
-4.5102489e-09
5.1109082e-08
-6.066421e-09
6.3399199e-08
-8.071262e-09
7.7650871e-08
-1.0632955e-08
9.3862253e-08
-1.3876213e-08
1.1188513e-07
-1.7938465e-08
1.3137862e-07
-2.2961249e-08
1.5177467e-07
-2.9075254e-08
1.7227316e-07
-3.6378499e-08
1.9188725e-07
-4.4909462e-08
2.0955482e-07
-5.4620236e-08
2.2431501e-07
-6.5358066e-08
2.3552205e-07
-7.6863697e-08
2.4304264e-07
-8.8791138e-08
2.473758e-07
-1.0074631e-07
2.4965589e-07
-1.1233499e-07
2.5154319e-07
-1.2320834e-07
2.5504682e-07
-1.3309659e-07
2.6234097e-07
-1.4182734e-07
2.756234e-07
-1.4932991e-07
2.9703903e-07
-1.5562981e-07
3.2866763e-07
-1.60837e-07
3.7256331e-07
-1.6513038e-07
4.3083326e-07
-1.6873953e-07
5.0574902e-07
-1.7192387e-07
5.9988984e-07
-1.7495072e-07
7.163191e-07
-1.7807577e-07
8.5879207e-07
-1.8152964e-07
1.0319827e-06
-1.8551812e-07
1.2417383e-06
-1.9024348e-07
1.4953207e-06
-1.9597116e-07
1.8019128e-06
-2.0317864e-07
2.173276e-06
-2.1258846e-07
2.6261629e-06
-2.243488e-07
3.1826572e-06
-2.3361006e-07
3.8602375e-06
-2.231647e-07
4.5974585e-06
-1.6455235e-07
5.0773333e-06
-5.9246217e-08
4.5131583e-06
1.9522639e-06
-7.7777601e-12
4.6247053e-10
-3.4646154e-11
1.5706302e-09
-8.7235912e-11
3.0294319e-09
-1.7409862e-10
4.92466e-09
-3.0623043e-10
7.3593007e-09
-4.977389e-10
1.0455572e-08
-7.6667698e-10
1.4356449e-08
-1.1360841e-09
1.9226166e-08
-1.6352668e-09
2.5248943e-08
-2.3013442e-09
3.26249e-08
-3.1810696e-09
4.1561784e-08
-4.3328744e-09
5.2260881e-08
-5.8290192e-09
6.4895325e-08
-7.7575495e-09
7.9579362e-08
-1.0223538e-08
9.6328173e-08
-1.3348734e-08
1.1501022e-07
-1.7268335e-08
1.3529807e-07
-2.2123256e-08
1.5662939e-07
-2.8046314e-08
1.7819598e-07
-3.5141588e-08
1.9898227e-07
-4.3458328e-08
2.1787133e-07
-5.2963987e-08
2.338205e-07
-6.3524082e-08
2.4608208e-07
-7.4897579e-08
2.544162e-07
-8.675309e-08
2.5923147e-07
-9.8704475e-08
2.6160752e-07
-1.1035741e-07
2.6319644e-07
-1.2135531e-07
2.6604501e-07
-1.3141452e-07
2.7240045e-07
-1.4034489e-07
2.8455398e-07
-1.4805595e-07
3.0475026e-07
-1.545529e-07
3.3516467e-07
-1.59926e-07
3.7793645e-07
-1.6433627e-07
4.3524352e-07
-1.6799835e-07
5.094111e-07
-1.7116109e-07
6.0305251e-07
-1.7408597e-07
7.1924397e-07
-1.7702747e-07
8.6173355e-07
-1.8021838e-07
1.0351735e-06
-1.8386818e-07
1.2453881e-06
-1.8818834e-07
1.499641e-06
-1.9345479e-07
1.8071793e-06
-2.001464e-07
2.1799676e-06
-2.0886352e-07
2.6348801e-06
-2.1933499e-07
3.1931287e-06
-2.2603885e-07
3.8669415e-06
-2.1214385e-07
4.5835636e-06
-1.5263713e-07
5.0178265e-06
-5.316472e-08
4.413686e-06
1.8990992e-06
-7.4838005e-12
4.6996117e-10
-3.3341372e-11
1.5964913e-09
-8.3953951e-11
3.0800482e-09
-1.6755184e-10
5.0082627e-09
-2.9471993e-10
7.4864751e-09
-4.790393e-10
1.0639899e-08
-7.3789342e-10
1.4615312e-08
-1.0934717e-09
1.9581754e-08
-1.5740116e-09
2.5729492e-08
-2.2152925e-09
3.3266189e-08
-3.0624156e-09
4.2408912e-08
-4.1718091e-09
5.3370271e-08
-5.6133598e-09
6.6336857e-08
-7.4724088e-09
8.1438369e-08
-9.8511251e-09
9.8706812e-08
-1.2868432e-08
1.180274e-07
-1.665729e-08
1.3908675e-07
-2.1357742e-08
1.6132962e-07
-2.7104154e-08
1.8394212e-07
-3.4005671e-08
2.0588349e-07
-4.2120957e-08
2.2598634e-07
-5.1431225e-08
2.4313056e-07
-6.181883e-08
2.5646959e-07
-7.3059999e-08
2.6565741e-07
-8.4837741e-08
2.7100938e-07
-9.6774512e-08
2.7354457e-07
-1.0847726e-07
2.7489952e-07
-1.1958334e-07
2.7715144e-07
-1.297973e-07
2.8261473e-07
-1.3891321e-07
2.9367015e-07
-1.4682281e-07
3.1266002e-07
-1.535127e-07
3.4185467e-07
-1.5905498e-07
3.8347876e-07
-1.6359381e-07
4.3978235e-07
-1.673295e-07
5.131468e-07
-1.7050015e-07
6.0622315e-07
-1.7336118e-07
7.2210499e-07
-1.7616548e-07
8.6453779e-07
-1.7914837e-07
1.0381564e-06
-1.8252519e-07
1.2487649e-06
-1.8651826e-07
1.5036341e-06
-1.9141417e-07
1.8120753e-06
-1.9768056e-07
2.1862341e-06
-2.0578248e-07
2.6429821e-06
-2.1504051e-07
3.2023868e-06
-2.1940635e-07
3.8713075e-06
-2.02561e-07
4.5667183e-06
-1.4261874e-07
4.9578843e-06
-4.8410759e-08
4.3194782e-06
1.8506886e-06
-7.2156497e-12
4.7718479e-10
-3.2151177e-11
1.6214307e-09
-8.0959359e-11
3.1288609e-09
-1.6157828e-10
5.0888874e-09
-2.8421753e-10
7.6091217e-09
-4.6197759e-10
1.0817669e-08
-7.1162966e-10
1.4864976e-08
-1.0545873e-09
1.9924725e-08
-1.5181096e-09
2.6193026e-08
-2.136753e-09
3.3884843e-08
-2.954105e-09
4.3226269e-08
-4.0247501e-09
5.4440913e-08
-5.4163898e-09
6.7728476e-08
-7.2118584e-09
8.3233788e-08
-9.5106008e-09
1.0100546e-07
-1.2428848e-08
1.2094551e-07
-1.6097347e-08
1.4275504e-07
-2.0655102e-08
1.658871e-07
-2.6237544e-08
1.8952423e-07
-3.2958066e-08
2.1260364e-07
-4.088357e-08
2.3391149e-07
-5.0007652e-08
2.5225437e-07
-6.0228172e-08
2.6668997e-07
-7.1337695e-08
2.7676695e-07
-8.3033323e-08
2.827052e-07
-9.4946583e-08
2.8545813e-07
-1.0668673e-07
2.8664004e-07
-1.1788661e-07
2.8835172e-07
-1.2824064e-07
2.9296912e-07
-1.3752889e-07
3.0295871e-07
-1.4562694e-07
3.207583e-07
-1.5250449e-07
3.4873233e-07
-1.5821675e-07
3.891911e-07
-1.6289222e-07
4.4445783e-07
-1.6671747e-07
5.1697201e-07
-1.699199e-07
6.0942555e-07
-1.7274852e-07
7.2493358e-07
-1.7545433e-07
8.6724355e-07
-1.7827551e-07
1.0409776e-06
-1.8143442e-07
1.2519238e-06
-1.8516464e-07
1.5073642e-06
-1.8976213e-07
1.8166729e-06
-1.9567089e-07
2.1921429e-06
-2.032105e-07
2.6505217e-06
-2.1131315e-07
3.2104895e-06
-2.1352954e-07
3.8735241e-06
-1.9414675e-07
4.5473356e-06
-1.3410272e-07
4.8978403e-06
-4.4645858e-08
4.2300215e-06
1.8060429e-06
-6.9693348e-12
4.8416361e-10
-3.1058697e-11
1.6455251e-09
-7.8212218e-11
3.17602e-09
-1.5609921e-10
5.1667816e-09
-2.7458521e-10
7.7276168e-09
-4.4633035e-10
1.0989425e-08
-6.8754553e-10
1.5106204e-08
-1.018932e-09
2.0256126e-08
-1.4668471e-09
2.6640956e-08
-2.0647248e-09
3.4482734e-08
-2.8547576e-09
4.401631e-08
-3.889833e-09
5.5475987e-08
-5.2356291e-09
6.9074249e-08
-6.9726437e-09
8.4970748e-08
-9.1977688e-09
1.0323049e-07
-1.2024678e-08
1.2377226e-07
-1.5581933e-08
1.4631206e-07
-2.0007367e-08
1.7031222e-07
-2.5437108e-08
1.9495358e-07
-3.1988091e-08
2.1915419e-07
-3.9734465e-08
2.4165745e-07
-4.8681004e-08
2.6120057e-07
-5.873987e-08
2.7674864e-07
-6.9719056e-08