/*--------------------------------*- C++ -*----------------------------------*\
| =========                 |                                                 |
| \\      /  F ield         | OpenFOAM: The Open Source CFD Toolbox           |
|  \\    /   O peration     | Version:  4.0                                   |
|   \\  /    A nd           | Web:      www.OpenFOAM.org                      |
|    \\/     M anipulation  |                                                 |
\*---------------------------------------------------------------------------*/
FoamFile
{
    version     2.0;
    format      ascii;
    class       volScalarField;
    location    "760";
    object      Qin;
}
// * * * * * * * * * * * * * * * * * * * * * * * * * * * * * * * * * * * * * //

dimensions      [1 0 -3 0 0 0 0];

internalField   uniform 0;

boundaryField
{
    LeftWedge
    {
        type            wedge;
    }
    RightWedge
    {
        type            wedge;
    }
    Inlet
    {
        type            calculated;
        value           nonuniform List<scalar> 
50
(
714.96249
715.5597
716.21622
716.93789
717.73109
718.60274
719.56044
720.61244
721.76774
723.03609
724.42802
725.95493
727.62902
729.46337
731.47186
733.66918
736.07066
738.69221
741.55004
744.66045
748.03937
751.70194
755.66187
759.93069
764.51689
769.42491
774.6541
780.19758
786.04128
792.16313
798.53275
805.11165
811.85439
818.71065
825.62831
832.55729
839.45367
846.28313
853.02287
859.66077
866.19166
872.61144
878.91056
885.07143
891.06521
896.87783
902.43682
907.97564
912.49424
920.4877
)
;
    }
    Outlet
    {
        type            calculated;
        value           nonuniform List<scalar> 
50
(
1071.2114
1071.0942
1070.8629
1070.596
1070.2915
1069.9525
1069.5783
1069.1657
1068.7117
1068.2142
1067.6713
1067.0802
1066.4377
1065.7401
1064.9838
1064.1655
1063.2821
1062.3309
1061.3092
1060.215
1059.0474
1057.8066
1056.4943
1055.114
1053.6709
1052.1729
1050.6301
1049.0558
1047.4653
1045.8766
1044.3094
1042.7845
1041.3225
1039.9423
1038.6592
1037.4838
1036.4205
1035.4675
1034.6178
1033.8613
1033.1883
1032.5919
1032.0703
1031.6253
1031.2599
1030.9715
1030.7531
1030.5726
1030.4518
1030.1693
)
;
    }
    Outterwall
    {
        type            calculated;
        value           nonuniform List<scalar> 
100
(
911.57394
922.39106
922.63722
939.59237
992.29235
1081.0646
1175.9828
1245.5283
1281.073
1296.2798
1309.879
1332.332
1363.7785
1398.6012
1430.5087
1455.5299
1472.7923
1483.7641
1490.8509
1496.1814
1501.0366
1505.8901
1510.7444
1515.4575
1519.9227
1524.1106
1528.043
1531.7581
1535.2889
1538.6588
1541.8835
1544.9749
1547.9432
1550.7976
1553.5466
1556.1979
1558.7584
1561.2341
1563.6305
1565.9525
1568.2048
1570.3912
1572.5156
1574.5813
1576.5916
1578.5492
1580.4569
1582.3172
1584.1322
1585.9041
1587.635
1589.3266
1590.9806
1592.5987
1594.1824
1595.733
1597.252
1598.7405
1600.1997
1601.6308
1603.0348
1604.4127
1605.7654
1607.0938
1608.3987
1609.6811
1610.9415
1612.1805
1613.3988
1614.597
1615.7766
1616.9402
1618.0905
1619.227
1620.3388
1621.399
1622.3748
1623.2688
1624.198
1625.463
1627.4954
1630.5394
1634.0368
1635.9688
1632.7191
1620.0394
1595.2001
1559.6122
1520.5126
1489.7544
1477.455
1480.5461
1474.1715
1421.6472
1307.8139
1166.8064
1061.0764
1022.1555
1024.7806
1030.5837
)
;
    }
    fluid_to_cencil
    {
        type            calculated;
        value           nonuniform List<scalar> 
100
(
421.91691
421.91623
421.91588
421.91545
421.91499
421.91444
421.9138
421.91309
421.91237
421.91164
421.91092
421.91018
421.90942
421.90862
421.9078
421.90697
421.90613
421.90531
421.90448
421.90366
421.90283
421.902
421.90115
421.9003
421.89945
421.89859
421.89774
421.89688
421.89602
421.89515
421.89428
421.89341
421.89252
421.89164
421.89075
421.88987
421.88899
421.88811
421.88723
421.88635
421.88548
421.8846
421.88373
421.88286
421.88198
421.88111
421.88024
421.87937
421.87849
421.87762
421.87675
421.87588
421.875
421.87413
421.87325
421.87237
421.87149
421.87061
421.86972
421.86883
421.86794
421.86705
421.86615
421.86525
421.86435
421.86344
421.86254
421.86163
421.86072
421.8598
421.85889
421.85798
421.85707
421.85617
421.85528
421.85439
421.85348
421.85255
421.85162
421.85071
421.84986
421.84908
421.84838
421.84774
421.84711
421.84648
421.84584
421.8452
421.84457
421.84404
421.84403
421.8457
421.85046
421.85086
421.78047
421.29703
419.14631
413.6327
422.49559
608.05796
)
;
    }
}


// ************************************************************************* //
