/*--------------------------------*- C++ -*----------------------------------*\
| =========                 |                                                 |
| \\      /  F ield         | OpenFOAM: The Open Source CFD Toolbox           |
|  \\    /   O peration     | Version:  4.0                                   |
|   \\  /    A nd           | Web:      www.OpenFOAM.org                      |
|    \\/     M anipulation  |                                                 |
\*---------------------------------------------------------------------------*/
FoamFile
{
    version     2.0;
    format      ascii;
    class       volScalarField;
    location    "760";
    object      Qr;
}
// * * * * * * * * * * * * * * * * * * * * * * * * * * * * * * * * * * * * * //

dimensions      [1 0 -3 0 0 0 0];

internalField   uniform 0;

boundaryField
{
    LeftWedge
    {
        type            wedge;
    }
    RightWedge
    {
        type            wedge;
    }
    Inlet
    {
        type            calculated;
        value           nonuniform List<scalar> 
50
(
293.04247
293.63968
294.2962
295.01787
295.81107
296.68274
297.64044
298.69244
299.84775
301.11609
302.50803
304.03494
305.70903
307.54338
309.55187
311.74918
314.15066
316.77221
319.63004
322.74044
326.11936
329.78193
333.74186
338.01068
342.59688
347.5049
352.73409
358.27757
364.12127
370.24312
376.61274
383.19163
389.93438
396.79064
403.7083
410.63728
417.53365
424.36312
431.10286
437.74075
444.27165
450.69143
456.99055
463.15142
469.14519
474.95782
480.51681
486.05563
490.57422
498.56768
)
;
    }
    Outlet
    {
        type            calculated;
        value           nonuniform List<scalar> 
50
(
-674.08831
-631.81018
-587.57664
-541.42773
-493.51764
-444.0258
-393.15991
-341.14593
-288.21487
-234.59223
-180.4902
-126.10406
-71.61488
-17.199595
36.952439
90.619301
143.52807
195.34407
245.6716
294.06608
340.0547
383.16159
422.9354
458.97931
490.9827
518.75182
542.23453
561.53296
576.89958
588.71518
597.4525
603.63135
607.77191
610.35781
611.81016
612.47448
612.61878
612.4399
612.07501
611.61527
611.11963
610.62681
610.16413
609.75192
609.40417
609.12509
608.91141
608.73321
608.61331
608.33097
)
;
    }
    Outterwall
    {
        type            calculated;
        value           nonuniform List<scalar> 
100
(
489.65435
500.47231
500.71931
517.67529
570.37611
659.14918
754.06821
823.61454
859.16012
874.36778
887.9678
910.42161
941.86902
976.69256
1008.6008
1033.6229
1050.8862
1061.8588
1068.9464
1074.2778
1079.1338
1083.9882
1088.8433
1093.5573
1098.0233
1102.212
1106.1453
1109.8612
1113.3929
1116.7636
1119.9892
1123.0814
1126.0505
1128.9057
1131.6556
1134.3078
1136.869
1139.3456
1141.7428
1144.0657
1146.3188
1148.5061
1150.6313
1152.6979
1154.709
1156.6675
1158.576
1160.4371
1162.2529
1164.0257
1165.7574
1167.4498
1169.1047
1170.7236
1172.3081
1173.8596
1175.3794
1176.8688
1178.3289
1179.7608
1181.1656
1182.5443
1183.8978
1185.2271
1186.5329
1187.816
1189.0773
1190.3172
1191.5363
1192.7353
1193.9157
1195.0801
1196.2313
1197.3686
1198.4812
1199.5422
1200.5188
1201.4136
1202.3436
1203.6094
1205.6427
1208.6874
1212.1856
1214.1184
1210.8695
1198.1906
1173.3521
1137.7649
1098.6661
1067.9087
1055.61
1058.7019
1052.328
999.80449
885.97182
744.96511
639.23579
600.31564
602.94134
608.74536
)
;
    }
    fluid_to_cencil
    {
        type            calculated;
        value           nonuniform List<scalar> 
100
(
-585.53052
-808.76631
-877.18334
-913.42617
-939.576
-960.16566
-977.16161
-991.54876
-1003.9955
-1014.9378
-1024.6867
-1033.4665
-1041.4449
-1048.7499
-1055.4818
-1061.72
-1067.529
-1072.9614
-1078.061
-1082.8644
-1087.4025
-1091.702
-1095.7854
-1099.6725
-1103.3806
-1106.9245
-1110.3175
-1113.5715
-1116.6968
-1119.7028
-1122.5978
-1125.3894
-1128.0843
-1130.6887
-1133.2082
-1135.648
-1138.0126
-1140.3064
-1142.5332
-1144.6967
-1146.8002
-1148.8468
-1150.8394
-1152.7805
-1154.6728
-1156.5183
-1158.3194
-1160.0779
-1161.7958
-1163.4748
-1165.1165
-1166.7225
-1168.2942
-1169.833
-1171.3402
-1172.817
-1174.2645
-1175.6838
-1177.076
-1178.442
-1179.7828
-1181.0991
-1182.3919
-1183.6619
-1184.9099
-1186.1366
-1187.3427
-1188.5288
-1189.6956
-1190.8436
-1191.9734
-1193.0856
-1194.1807
-1195.2591
-1196.3213
-1197.3678
-1198.3991
-1199.4156
-1200.4176
-1201.4055
-1202.3797
-1203.3405
-1204.2883
-1205.2235
-1206.1463
-1207.057
-1207.9561
-1208.8437
-1209.7202
-1210.5857
-1211.4402
-1212.2833
-1213.1143
-1213.9404
-1214.8012
-1215.9565
-1218.067
-1222.8833
-1213.2602
-1111.9971
)
;
    }
}


// ************************************************************************* //
