/*--------------------------------*- C++ -*----------------------------------*\
| =========                 |                                                 |
| \\      /  F ield         | OpenFOAM: The Open Source CFD Toolbox           |
|  \\    /   O peration     | Version:  4.0                                   |
|   \\  /    A nd           | Web:      www.OpenFOAM.org                      |
|    \\/     M anipulation  |                                                 |
\*---------------------------------------------------------------------------*/
FoamFile
{
    version     2.0;
    format      ascii;
    class       volScalarField;
    location    "760";
    object      rho;
}
// * * * * * * * * * * * * * * * * * * * * * * * * * * * * * * * * * * * * * //

dimensions      [1 -3 0 0 0 0 0];

internalField   nonuniform List<scalar> 
5000
(
0.96664856
0.97857408
0.99156939
1.0056012
1.02059
1.0364017
1.0528416
1.0696524
1.08652
1.1030877
1.1189792
1.1338304
1.1473238
1.1592211
1.1693862
1.1777932
1.1845192
1.1897221
1.1936117
1.1964199
1.1983752
1.1996852
1.2005265
1.2010419
1.2013408
1.2015035
1.2015856
1.2016233
1.2016387
1.2016441
1.2016455
1.2016457
1.2016456
1.2016456
1.2016455
1.2016455
1.2016455
1.2016455
1.2016455
1.2016455
1.2016455
1.2016455
1.2016455
1.2016455
1.2016455
1.2016455
1.2016455
1.2016455
1.2016455
1.2016455
0.91752302
0.92628152
0.93588585
0.94642071
0.95797113
0.97061535
0.98441405
0.99939542
1.0155361
1.0327397
1.0508155
1.0694635
1.0882725
1.1067395
1.1243133
1.14046
1.1547378
1.1668599
1.1767281
1.1844263
1.1901813
1.1943046
1.1971354
1.1989956
1.2001632
1.2008607
1.201255
1.2014645
1.2015681
1.2016151
1.2016344
1.2016413
1.2016435
1.201644
1.201644
1.201644
1.201644
1.201644
1.201644
1.201644
1.201644
1.201644
1.201644
1.201644
1.201644
1.201644
1.201644
1.201644
1.201644
1.201644
0.90470312
0.91264954
0.92133412
0.93082152
0.94117964
0.95247771
0.96478274
0.97815333
0.99262988
1.0082202
1.0248803
1.042491
1.0608351
1.0795807
1.0982815
1.1164022
1.1333746
1.1486758
1.1619107
1.1728709
1.1815528
1.1881309
1.1929004
1.1962109
1.1984103
1.1998071
1.200653
1.2011393
1.2014031
1.2015371
1.2016001
1.2016272
1.2016376
1.2016412
1.2016422
1.2016425
1.2016425
1.2016425
1.2016425
1.2016425
1.2016425
1.2016425
1.2016425
1.2016425
1.2016425
1.2016425
1.2016425
1.2016425
1.2016425
1.2016425
0.89825481
0.90579932
0.91403477
0.92301895
0.93281204
0.94347523
0.95506836
0.96764612
0.98125218
0.99591035
1.0116121
1.0283001
1.0458479
1.0640394
1.0825531
1.100961
1.1187507
1.1353771
1.1503372
1.1632509
1.1739202
1.182348
1.1887122
1.1933087
1.1964852
1.1985856
1.1999131
1.200713
1.2011707
1.2014179
1.2015429
1.2016015
1.2016267
1.2016364
1.2016397
1.2016407
1.201641
1.201641
1.201641
1.201641
1.201641
1.201641
1.201641
1.201641
1.201641
1.201641
1.201641
1.201641
1.201641
1.201641
0.89373866
0.90100382
0.90892853
0.91756713
0.92697628
0.93721381
0.94833682
0.96039859
0.97344396
0.98750248
1.0025788
1.0186399
1.0355989
1.0532968
1.0714856
1.0898179
1.1078525
1.1250827
1.1409919
1.1551274
1.1671734
1.1769982
1.1846607
1.1903755
1.1944533
1.1972384
1.1990589
1.2001963
1.2008736
1.2012564
1.2014604
1.201562
1.2016089
1.2016286
1.2016361
1.2016386
1.2016393
1.2016395
1.2016395
1.2016395
1.2016395
1.2016395
1.2016395
1.2016395
1.2016395
1.2016395
1.2016395
1.2016395
1.2016395
1.2016395
0.89025943
0.89731051
0.90499755
0.91337253
0.9224898
0.93240514
0.94317414
0.95484965
0.96747788
0.9810926
0.99570703
1.0113029
1.0278165
1.0451226
1.0630176
1.0812074
1.0993045
1.1168448
1.1333262
1.1482717
1.1613003
1.1721884
1.1808972
1.1875607
1.1924394
1.195859
1.1981544
1.1996291
1.2005344
1.2010637
1.201357
1.2015098
1.2015841
1.2016174
1.2016309
1.2016359
1.2016375
1.2016379
1.201638
1.201638
1.201638
1.201638
1.201638
1.201638
1.201638
1.201638
1.201638
1.201638
1.201638
1.201638
0.88743654
0.89431461
0.90180972
0.909972
0.91885396
0.92850974
0.93899375
0.95035846
0.96265107
0.97590849
0.99015026
1.0053689
1.0215172
1.038494
1.0561271
1.0741609
1.092249
1.1099634
1.1268227
1.1423445
1.1561115
1.1678369
1.177406
1.1848816
1.1904717
1.1944748
1.1972213
1.1990267
1.2001626
1.200845
1.2012349
1.2014455
1.2015522
1.2016024
1.201624
1.2016324
1.2016353
1.2016362
1.2016365
1.2016365
1.2016365
1.2016365
1.2016365
1.2016365
1.2016365
1.2016365
1.2016365
1.2016365
1.2016365
1.2016365
0.8850806
0.89181475
0.89915032
0.90713588
0.91582243
0.92526272
0.93551008
0.94661653
0.95862982
0.97158908
0.98551844
1.0004185
1.0162547
1.0329439
1.0503386
1.0682129
1.0862538
1.1040643
1.1211844
1.1371348
1.1514772
1.1638804
1.1741702
1.1823481
1.1885722
1.1931099
1.1962809
1.1984053
1.1997693
1.2006071
1.2010979
1.2013708
1.2015137
1.2015836
1.2016151
1.2016281
1.2016329
1.2016345
1.2016349
1.201635
1.201635
1.201635
1.201635
1.201635
1.201635
1.201635
1.201635
1.201635
1.201635
1.201635
0.88306669
0.88967815
0.89687776
0.90471281
0.91323297
0.92248976
0.93253554
0.94342181
0.9551966
0.96790057
0.98156132
0.99618555
1.0117486
1.0281817
1.0453568
1.0630727
1.0810441
1.0989012
1.116205
1.1324834
1.1472867
1.1602514
1.171156
1.1799492
1.1867428
1.1917723
1.1953424
1.1977732
1.1993608
1.2003543
1.2009485
1.2012868
1.201469
1.201561
1.2016042
1.2016228
1.20163
1.2016325
1.2016333
1.2016335
1.2016335
1.2016335
1.2016335
1.2016335
1.2016335
1.2016335
1.2016335
1.2016335
1.2016335
1.2016335
0.88131441
0.88781936
0.89490102
0.90260552
0.91098139
0.92007908
0.92995002
0.94064518
0.95221265
0.96469419
0.97812001
0.99250163
1.0078222
1.0240245
1.0409966
1.0585576
1.076446
1.0943162
1.1117494
1.1282832
1.1434623
1.1568997
1.1683357
1.1776736
1.1849825
1.1904661
1.1944117
1.1971362
1.198942
1.2000901
1.200789
1.2011949
1.2014187
1.201535
1.2015913
1.2016165
1.2016267
1.2016304
1.2016316
1.2016319
1.201632
1.201632
1.201632
1.201632
1.201632
1.201632
1.201632
1.201632
1.201632
1.201632
0.87976729
0.8861784
0.89315617
0.90074574
0.9089946
0.91795223
0.92766924
0.93819602
0.94958063
0.96186559
0.97508314
0.9892486
1.0043515
1.020344
1.0371277
1.054539
1.0723368
1.0901973
1.1077204
1.1244552
1.1399448
1.1537853
1.1656855
1.1755097
1.1832877
1.1891924
1.1934923
1.1964982
1.1985163
1.1998171
1.2006211
1.2010962
1.2013634
1.2015055
1.2015763
1.201609
1.2016228
1.2016281
1.2016298
1.2016304
1.2016305
1.2016305
1.2016305
1.2016305
1.2016305
1.2016305
1.2016305
1.2016305
1.2016305
1.2016305
0.87838513
0.88471256
0.89159773
0.89908486
0.90722057
0.91605342
0.92563326
0.93600992
0.94723135
0.95934058
0.97237144
0.98634236
1.0012481
1.0170487
1.0336571
1.0509245
1.0686278
1.0864625
1.1040464
1.1209405
1.1366893
1.1508766
1.163186
1.1734473
1.1816548
1.1879512
1.192586
1.1958617
1.1980861
1.1995374
1.2004464
1.2009916
1.2013036
1.2014729
1.2015594
1.2016004
1.2016184
1.2016255
1.201628
1.2016288
1.201629
1.201629
1.201629
1.201629
1.201629
1.201629
1.201629
1.201629
1.201629
1.201629
0.87713816
0.88339022
0.89019201
0.89758695
0.90562081
0.91434138
0.92379775
0.93403926
0.94511362
0.95706427
0.96992627
0.9837206
0.99844633
1.0140704
1.0305152
1.0476449
1.0652521
1.0830497
1.1006725
1.1176934
1.1336603
1.1481486
1.160821
1.1714775
1.1800798
1.1867422
1.191694
1.1952286
1.1976534
1.1992527
1.2002661
1.200882
1.2012398
1.2014375
1.2015405
1.2015907
1.2016133
1.2016226
1.201626
1.2016271
1.2016274
1.2016275
1.2016275
1.2016275
1.2016275
1.2016275
1.2016275
1.2016275
1.2016275
1.2016275
0.87600387
0.88218747
0.88891355
0.89622479
0.90416622
0.91278488
0.9221292
0.93224798
0.94318873
0.95499511
0.96770321
0.9813361
0.99589654
1.0113572
1.0276489
1.0446469
1.062158
1.0799109
1.0975557
1.1146776
1.1308293
1.1455805
1.1585769
1.1695926
1.1785594
1.1855643
1.1908169
1.1946001
1.1972196
1.1989641
1.2000812
1.2007681
1.2011725
1.2013994
1.2015199
1.2015799
1.2016077
1.2016194
1.2016239
1.2016254
1.2016259
1.201626
1.201626
1.201626
1.201626
1.201626
1.201626
1.201626
1.201626
1.201626
0.87496479
0.88108577
0.88774261
0.89497733
0.90283426
0.91135977
0.92060165
0.93060821
0.9414267
0.95310095
0.96566783
0.97915222
0.99356001
1.0088689
1.0250168
1.0418891
1.059305
1.0770076
1.0946615
1.1118637
1.1281728
1.1431551
1.1564423
1.1677858
1.1770903
1.1844167
1.1899552
1.1939773
1.1967859
1.1986728
1.1998926
1.2006505
1.201102
1.2013589
1.2014976
1.2015681
1.2016014
1.201616
1.2016217
1.2016237
1.2016243
1.2016245
1.2016245
1.2016245
1.2016245
1.2016245
1.2016245
1.2016245
1.2016245
1.2016245
0.87400714
0.88007049
0.88666361
0.89382793
0.90160714
0.91004697
0.91919463
0.92909794
0.93980389
0.9513564
0.96379299
0.97714003
0.99140613
1.0065733
1.022586
1.0393383
1.0566606
1.074309
1.0919619
1.1092278
1.1256716
1.1408579
1.1544073
1.1660511
1.1756693
1.1832984
1.1891089
1.1933609
1.1963531
1.1983797
1.199701
1.2005298
1.2010288
1.2013162
1.2014737
1.2015552
1.2015946
1.2016122
1.2016193
1.2016219
1.2016227
1.201623
1.201623
1.201623
1.201623
1.201623
1.201623
1.201623
1.201623
1.201623
0.87311989
0.8791299
0.88566407
0.89276327
0.9004706
0.9088312
0.91789172
0.92769954
0.93830134
0.9497411
0.96205686
0.97527628
0.98941032
1.0044448
1.0203299
1.0369675
1.0541981
1.07179
1.0894339
1.1067498
1.1233092
1.1386766
1.1524633
1.1643833
1.1742937
1.1822081
1.1882781
1.1927514
1.195922
1.1980855
1.1995071
1.2004064
1.2009532
1.2012716
1.2014484
1.2015414
1.2015871
1.201608
1.2016168
1.20162
1.2016211
1.2016214
1.2016215
1.2016215
1.2016215
1.2016215
1.2016215
1.2016215
1.2016215
1.2016215
0.87229402
0.87825444
0.88473382
0.89177249
0.89941303
0.90770001
0.91667957
0.92639864
0.93690362
0.94823848
0.9604417
0.97354204
0.98755251
1.0024623
1.0182267
1.0347546
1.0518958
1.0694295
1.0870583
1.1044127
1.1210717
1.1366003
1.1506027
1.1627774
1.1729609
1.1811449
1.1874625
1.192149
1.1954931
1.1977906
1.1993113
1.2002809
1.2008755
1.2012253
1.2014218
1.2015266
1.2015791
1.2016036
1.2016141
1.2016181
1.2016195
1.2016199
1.20162
1.20162
1.20162
1.20162
1.20162
1.20162
1.20162
1.20162
0.87152213
0.87743625
0.88386448
0.89084667
0.89842487
0.90664316
0.91554718
0.92518342
0.93559802
0.94683489
0.95893287
0.97192168
0.98581614
1.0006085
1.0162584
1.0326813
1.0497354
1.06721
1.0848186
1.1022023
1.1189472
1.13462
1.148819
1.1612292
1.1716684
1.1801076
1.1866618
1.191554
1.1950668
1.1974957
1.1991142
1.2001534
1.2007959
1.2011774
1.201394
1.201511
1.2015705
1.2015988
1.2016112
1.2016161
1.2016178
1.2016184
1.2016185
1.2016185
1.2016185
1.2016185
1.2016185
1.2016185
1.2016185
1.2016185
0.87079803
0.87666876
0.88304906
0.88997833
0.89749816
0.90565211
0.91448537
0.92404403
0.93437395
0.94551895
0.95751818
0.97040218
0.98418738
0.99886869
1.0144099
1.0307323
1.0477016
1.0651166
1.0827013
1.1001064
1.1169253
1.1327274
1.1471061
1.1597349
1.1704139
1.1790951
1.1858759
1.1909666
1.1946435
1.1972011
1.1989159
1.2000244
1.2007148
1.2011281
1.2013651
1.2014946
1.2015614
1.2015937
1.2016081
1.201614
1.2016161
1.2016168
1.201617
1.201617
1.201617
1.201617
1.201617
1.201617
1.201617
1.201617
0.87011653
0.87594644
0.88228169
0.88916123
0.89662618
0.90471968
0.91348645
0.9229722
0.9332225
0.9442811
0.95618737
0.96897258
0.98265458
0.99723071
1.0126685
1.0288944
1.0457814
1.0631368
1.0806943
1.0981142
1.1149972
1.1309154
1.145459
1.1582909
1.1691955
1.1781064
1.1851042
1.1903867
1.1942233
1.1969071
1.198717
1.1998942
1.2006322
1.2010775
1.2013352
1.2014774
1.2015518
1.2015883
1.2016049
1.2016118
1.2016144
1.2016152
1.2016155
1.2016155
1.2016155
1.2016155
1.2016155
1.2016155
1.2016155
1.2016155
0.86947319
0.87526463
0.88155739
0.88839003
0.89580326
0.90383977
0.91254386
0.92196088
0.9321361
0.9431132
0.95493172
0.96762355
0.98120784
0.9956841
1.0110232
1.0271566
1.0439635
1.0612595
1.0787874
1.0962165
1.1131549
1.1291778
1.1438729
1.156894
1.1680111
1.1771405
1.1843465
1.1898144
1.1938065
1.1966139
1.1985175
1.1997628
1.2005485
1.2010258
1.2013043
1.2014596
1.2015417
1.2015826
1.2016015
1.2016095
1.2016126
1.2016136
1.2016139
1.201614
1.201614
1.201614
1.201614
1.201614
1.201614
1.201614
0.86886425
0.87461929
0.88087188
0.88766019
0.89502452
0.90300716
0.91165201
0.92100406
0.93110831
0.94200831
0.95374376
0.96634712
0.97983866
0.99421989
1.0094648
1.0255092
1.0422384
1.0594754
1.0769717
1.0944054
1.1113914
1.1275089
1.1423435
1.1555413
1.1668589
1.1761964
1.1836023
1.1892496
1.1933931
1.1963217
1.1983177
1.1996305
1.2004636
1.2009731
1.2012726
1.2014411
1.2015311
1.2015766
1.2015979
1.2016072
1.2016108
1.201612
1.2016124
1.2016125
1.2016125
1.2016125
1.2016125
1.2016125
1.2016125
1.2016125
0.86828645
0.87400698
0.88022148
0.88696777
0.89428576
0.90221735
0.91080608
0.92009655
0.93013352
0.94096042
0.95261708
0.9651364
0.97853973
0.99283036
1.0079851
1.0239439
1.0405976
1.0577763
1.0752395
1.0926736
1.1097007
1.1259037
1.1408672
1.1542303
1.1657373
1.1752732
1.1828712
1.1886922
1.1929833
1.1960307
1.1981178
1.1994975
1.2003779
1.2009195
1.2012401
1.2014219
1.2015202
1.2015703
1.2015942
1.2016047
1.2016089
1.2016104
1.2016109
1.201611
1.201611
1.201611
1.201611
1.201611
1.201611
1.201611
0.86773695
0.87342469
0.87960301
0.88630937
0.89358335
0.90146646
0.91000187
0.91923386
0.92920692
0.93996436
0.95154607
0.96398543
0.97730468
0.99150878
1.0065771
1.0224535
1.0390339
1.0561549
1.0735839
1.091015
1.1080773
1.1243577
1.1394404
1.1529584
1.1646447
1.17437
1.1821528
1.1881421
1.1925771
1.195741
1.1979179
1.1993639
1.2002913
1.2008651
1.2012069
1.2014023
1.2015088
1.2015637
1.2015903
1.2016022
1.201607
1.2016088
1.2016093
1.2016095
1.2016095
1.2016095
1.2016095
1.2016095
1.2016095
1.2016095
0.86721328
0.8728698
0.87901367
0.88568203
0.89291411
0.90075107
0.90923573
0.91841205
0.92832428
0.93901557
0.95052589
0.96288898
0.97612796
0.99024928
1.0052347
1.0210316
1.0375407
1.054605
1.0719987
1.0894239
1.1065162
1.1228669
1.1380601
1.1517234
1.1635797
1.1734859
1.1814468
1.1875991
1.1921746
1.1954527
1.1977182
1.1992298
1.2002039
1.2008099
1.2011731
1.2013821
1.201497
1.2015569
1.2015862
1.2015995
1.201605
1.2016071
1.2016078
1.201608
1.201608
1.201608
1.201608
1.201608
1.201608
1.201608
0.86671329
0.87234002
0.87845101
0.88508312
0.89227524
0.90006819
0.90850446
0.9176277
0.9274819
0.93811008
0.94955225
0.96184249
0.97500469
0.98904669
1.0039525
1.0196726
1.0361126
1.0531208
1.0704786
1.0878953
1.1050132
1.1214277
1.1367234
1.1505233
1.1625409
1.1726203
1.1807527
1.1870632
1.1917756
1.1951659
1.1975187
1.1990953
1.2001159
1.200754
1.2011386
1.2013614
1.2014849
1.2015498
1.201582
1.2015968
1.201603
1.2016054
1.2016062
1.2016065
1.2016065
1.2016065
1.2016065
1.2016065
1.2016065
1.2016065
0.86623505
0.8718333
0.87791289
0.88451036
0.89166429
0.8994152
0.90780524
0.91687776
0.92667652
0.93724437
0.94862138
0.96084192
0.97393057
0.98789644
1.0027256
1.0183717
1.0347443
1.0516974
1.0690189
1.0864249
1.1035643
1.1200368
1.1354277
1.1493562
1.1615271
1.1717724
1.1800701
1.1865342
1.1913803
1.1948806
1.1973195
1.1989605
1.2000274
1.2006975
1.2011036
1.2013403
1.2014724
1.2015425
1.2015776
1.201594
1.201601
1.2016037
1.2016047
1.201605
1.201605
1.201605
1.201605
1.201605
1.201605
1.201605
0.86577688
0.87134786
0.87739738
0.88396169
0.89107908
0.89878975
0.90713555
0.91615954
0.92590523
0.93641534
0.94772994
0.95988367
0.97290176
0.9867945
1.0015499
1.0171243
1.0334314
1.0503304
1.0676151
1.0850086
1.1021659
1.1186911
1.1341708
1.1482205
1.1605371
1.1709414
1.1793987
1.1860119
1.1909886
1.1945969
1.1971206
1.1988254
1.1999383
1.2006405
1.2010681
1.2013187
1.2014596
1.2015349
1.2015731
1.2015911
1.2015989
1.201602
1.2016031
1.2016034
1.2016035
1.2016035
1.2016035
1.2016035
1.2016035
1.2016035
0.86533726
0.8708821
0.87690279
0.88343531
0.89051768
0.89818978
0.90649317
0.91547064
0.92516546
0.93562021
0.94687495
0.95896457
0.97191487
0.98573724
1.0004215
1.0159266
1.03217
1.0490157
1.0662635
1.0836429
1.1008148
1.117388
1.1329503
1.1471144
1.1595699
1.1701266
1.1787382
1.1854962
1.1906006
1.1943149
1.1969223
1.1986902
1.1998489
1.2005829
1.201032
1.2012967
1.2014464
1.2015272
1.2015684
1.2015881
1.2015968
1.2016003
1.2016015
1.2016019
1.201602
1.201602
1.2016021
1.2016021
1.2016021
1.2016021
0.86491484
0.87043458
0.87642758
0.88292959
0.88997833
0.89761341
0.90587611
0.91480893
0.92445492
0.93485651
0.94605376
0.95808176
0.97096685
0.98472144
0.99933698
1.014775
1.0309564
1.0477498
1.0649606
1.0823244
1.0995081
1.116125
1.1317644
1.1460366
1.1586244
1.1693276
1.1780882
1.1849871
1.190216
1.1940344
1.1967244
1.1985548
1.199759
1.2005249
1.2009956
1.2012744
1.201433
1.2015192
1.2015636
1.201585
1.2015946
1.2015985
1.2015999
1.2016004
1.2016005
1.2016005
1.2016006
1.2016006
1.2016006
1.2016006
0.86450842
0.87000402
0.87597041
0.88244308
0.8894595
0.897059
0.90528257
0.91417248
0.92377154
0.93412202
0.94526398
0.95723268
0.97005497
0.9837442
0.99829337
1.0136663
1.0297874
1.0465294
1.0637031
1.0810501
1.0982432
1.1148998
1.1306111
1.1449856
1.1576996
1.1685436
1.1774483
1.1844842
1.189835
1.1937557
1.1965271
1.1984194
1.1996687
1.2004664
1.2009587
1.2012517
1.2014193
1.201511
1.2015586
1.2015818
1.2015923
1.2015967
1.2015983
1.2015989
1.201599
1.201599
1.2015991
1.2015991
1.2015991
1.2015991
0.86411691
0.86958926
0.87553003
0.88197447
0.88895977
0.89652503
0.90471096
0.91355957
0.92311345
0.93341475
0.94450346
0.95641504
0.96917678
0.98280291
0.99728788
1.0125978
1.02866
1.0453515
1.0624883
1.0798175
1.0970175
1.1137103
1.1294889
1.1439601
1.1567948
1.1677742
1.1768183
1.1839875
1.1894575
1.1934786
1.1963304
1.198284
1.1995782
1.2004076
1.2009214
1.2012286
1.2014054
1.2015026
1.2015535
1.2015786
1.2015901
1.2015949
1.2015967
1.2015973
1.2015975
1.2015975
1.2015976
1.2015976
1.2015976
1.2015976
0.86373931
0.86918926
0.87510534
0.88152256
0.88847789
0.89601015
0.90415981
0.91296863
0.92247898
0.93273287
0.94377026
0.95562674
0.96833004
0.9818952
0.99631803
1.0115667
1.0275715
1.0442136
1.0613135
1.078624
1.0958289
1.1125545
1.1283962
1.1429591
1.1559091
1.1670188
1.1761979
1.1834968
1.1890834
1.1932033
1.1961343
1.1981486
1.1994874
1.2003484
1.2008838
1.2012053
1.2013912
1.2014941
1.2015483
1.2015753
1.2015877
1.201593
1.2015951
1.2015958
1.201596
1.201596
1.2015961
1.2015961
1.2015961
1.2015961
0.86337474
0.86880307
0.87469532
0.88108629
0.8880127
0.89551313
0.90362781
0.91239824
0.92186661
0.93207476
0.94306262
0.95486591
0.96751274
0.98101892
0.99538155
1.0105708
1.0265197
1.0431131
1.0601763
1.0774673
1.0946753
1.1114308
1.1273314
1.1419814
1.1550416
1.1662768
1.1755868
1.183012
1.1887128
1.1929296
1.1959388
1.1980133
1.1993964
1.2002888
1.2008458
1.2011816
1.2013767
1.2014853
1.201543
1.2015719
1.2015854
1.2015912
1.2015935
1.2015942
1.2015945
1.2015945
1.2015946
1.2015946
1.2015946
1.2015946
0.86302238
0.86842983
0.87429907
0.88066468
0.88756317
0.89503286
0.90311376
0.91184713
0.92127496
0.93143893
0.94237895
0.95413082
0.96672304
0.98017213
0.99447638
1.0096078
1.0255022
1.0420479
1.0590746
1.0763455
1.0935547
1.1103374
1.1262933
1.1410259
1.1541918
1.1655479
1.1749847
1.182533
1.1883455
1.1926577
1.1957441
1.1978781
1.1993052
1.2002289
1.2008075
1.2011577
1.201362
1.2014764
1.2015375
1.2015684
1.2015829
1.2015893
1.2015918
1.2015927
1.201593
1.201593
1.2015931
1.2015931
1.2015931
1.2015931
0.8626815
0.86806876
0.87391574
0.88025684
0.88712833
0.89456832
0.90261656
0.91131412
0.92070276
0.93082403
0.94171777
0.95341992
0.96595928
0.97935304
0.99360066
1.0086759
1.024517
1.0410158
1.0580064
1.0752565
1.0924656
1.1092729
1.1252806
1.1400917
1.1533588
1.1648316
1.1743913
1.1820597
1.1879815
1.1923875
1.19555
1.197743
1.1992139
1.2001688
1.2007689
1.2011335
1.2013471
1.2014673
1.2015319
1.2015648
1.2015805
1.2015874
1.2015901
1.2015911
1.2015915
1.2015915
1.2015916
1.2015916
1.2015916
1.2015916
0.86235141
0.86771913
0.87354458
0.87986196
0.88670733
0.89411858
0.90213523
0.91079813
0.92014886
0.93022881
0.94107778
0.95273177
0.96521992
0.97856003
0.99275265
1.0077732
1.0235624
1.0400152
1.0569697
1.0741987
1.0914063
1.1082359
1.1242922
1.1391779
1.152542
1.1641274
1.1738065
1.1815918
1.1876207
1.192119
1.1953567
1.197608
1.1991224
1.2001084
1.20073
1.201109
1.201332
1.2014581
1.2015263
1.2015612
1.201578
1.2015854
1.2015885
1.2015896
1.2015899
1.20159
1.2015901
1.2015901
1.2015901
1.2015901
0.8620315
0.86738029
0.87318489
0.87947929
0.88629937
0.89368278
0.90166885
0.91029819
0.9196122
0.92965214
0.94045773
0.95206507
0.96450356
0.97779161
0.99193079
1.0068981
1.0226365
1.0390441
1.0559631
1.0731704
1.0903752
1.1072249
1.1233269
1.1382837
1.1517409
1.163435
1.1732299
1.1811293
1.1872632
1.1918521
1.1951641
1.1974733
1.1990307
1.2000478
1.2006909
1.2010843
1.2013167
1.2014487
1.2015205
1.2015575
1.2015754
1.2015835
1.2015868
1.201588
1.2015884
1.2015885
1.2015886
1.2015886
1.2015886
1.2015886
0.8617212
0.86705164
0.87283602
0.87910815
0.88590371
0.89326015
0.90121658
0.9098134
0.91909183
0.92909298
0.93985652
0.9514186
0.96380891
0.97704641
0.99113362
1.006049
1.0217379
1.0381011
1.0549847
1.0721701
1.089371
1.1062389
1.1223837
1.1374082
1.1509548
1.1627539
1.1726613
1.1806721
1.1869088
1.191587
1.1949722
1.1973387
1.198939
1.199987
1.2006515
1.2010594
1.2013012
1.2014392
1.2015146
1.2015537
1.2015728
1.2015815
1.2015851
1.2015864
1.2015869
1.201587
1.2015871
1.2015871
1.2015871
1.2015871
0.86141999
0.86673261
0.87249738
0.87874792
0.88551969
0.89284997
0.90077764
0.90934292
0.91858684
0.92855036
0.9392731
0.95079127
0.9631348
0.97632316
0.9903598
1.0052247
1.020865
1.0371847
1.0540333
1.0711965
1.0883924
1.1052767
1.1214618
1.1365508
1.1501832
1.1620838
1.1721005
1.1802201
1.1865576
1.1913236
1.1947811
1.1972043
1.1988473
1.1999259
1.2006119
1.2010343
1.2012856
1.2014295
1.2015085
1.2015498
1.2015701
1.2015795
1.2015834
1.2015849
1.2015854
1.2015855
1.2015856
1.2015856
1.2015856
1.2015856
0.86112737
0.86642271
0.87216843
0.878398
0.88514668
0.89245157
0.90035133
0.90888599
0.91809641
0.92802342
0.93870654
0.95018206
0.96248012
0.9756207
0.98960812
1.0044237
1.0200166
1.0362936
1.0531074
1.0702482
1.0874382
1.1043372
1.1205602
1.1357106
1.1494256
1.1614244
1.1715473
1.1797731
1.1862094
1.1910618
1.1945908
1.1970702
1.1987554
1.1998647
1.2005721
1.201009
1.2012697
1.2014197
1.2015024
1.2015459
1.2015674
1.2015774
1.2015816
1.2015833
1.2015838
1.201584
1.2015841
1.2015841
1.2015841
1.2015841
0.86084291
0.86612145
0.87184867
0.87805786
0.88478412
0.89206433
0.89993698
0.90844191
0.91761979
0.92751132
0.93815595
0.94959001
0.96184386
0.97493796
0.98887741
1.0036449
1.0191914
1.0354263
1.0522059
1.069324
1.0865073
1.1034194
1.119678
1.1348871
1.1486815
1.1607753
1.1710016
1.179331
1.1858642
1.1908017
1.1944013
1.1969363
1.1986636
1.1998034
1.2005321
1.2009834
1.2012537
1.2014098
1.2014962
1.2015419
1.2015647
1.2015753
1.2015799
1.2015817
1.2015823
1.2015825
1.2015826
1.2015826
1.2015826
1.2015826
0.8605662
0.86582839
0.87153762
0.877727
0.88443146
0.89168769
0.899534
0.90801002
0.91715627
0.92701331
0.93762052
0.94901427
0.9612251
0.97427393
0.98816664
1.0028871
1.0183883
1.0345819
1.0513276
1.0684229
1.0855987
1.1025224
1.1188145
1.1340796
1.1479504
1.1601362
1.170463
1.1788937
1.185522
1.1905433
1.1942125
1.1968027
1.1985717
1.1997418
1.2004919
1.2009577
1.2012375
1.2013997
1.2014899
1.2015379
1.2015619
1.2015732
1.2015781
1.2015801
1.2015808
1.201581
1.2015811
1.2015811
1.2015811
1.2015811
0.86029683
0.86554314
0.87123486
0.87740497
0.88408823
0.89132113
0.89914181
0.90758972
0.9167052
0.92652868
0.93709949
0.948454
0.96062296
0.97362768
0.98747482
1.0021494
1.0176062
1.0337593
1.0504713
1.0675437
1.0847113
1.1016454
1.117969
1.1332875
1.1472319
1.1595068
1.1699314
1.1784611
1.1851828
1.1902865
1.1940245
1.1966694
1.1984798
1.1996802
1.2004515
1.2009318
1.2012212
1.2013895
1.2014836
1.2015337
1.2015591
1.2015711
1.2015764
1.2015785
1.2015792
1.2015795
1.2015795
1.2015796
1.2015796
1.2015796
0.86003447
0.8652653
0.87093999
0.87709134
0.88375395
0.89096415
0.89875988
0.90718043
0.91626597
0.9260568
0.93659217
0.94790847
0.96003664
0.97299837
0.98680103
1.0014308
1.0168441
1.0329573
1.0496361
1.0666855
1.0838443
1.1007874
1.1171407
1.1325103
1.1465256
1.1588868
1.1694067
1.1780332
1.1848464
1.1900313
1.1938374
1.1965364
1.198388
1.1996184
1.200411
1.2009058
1.2012047
1.2013792
1.2014771
1.2015296
1.2015562
1.201569
1.2015746
1.2015769
1.2015777
1.201578
1.201578
1.2015781
1.2015781
1.2015781
0.85977878
0.86499453
0.87065262
0.8767857
0.88342821
0.8906163
0.89838774
0.90678164
0.91583802
0.92559705
0.93609789
0.94737697
0.95946537
0.97238518
0.98614443
1.0007304
1.016101
1.0321751
1.048821
1.0658474
1.0829968
1.0999478
1.116329
1.1317475
1.1458311
1.1582759
1.1688886
1.1776098
1.1845129
1.1897777
1.193651
1.1964036
1.1982961
1.1995565
1.2003703
1.2008795
1.2011881
1.2013688
1.2014705
1.2015253
1.2015533
1.2015668
1.2015728
1.2015752
1.2015762
1.2015765
1.2015765
1.2015766
1.2015766
1.2015766
0.85952945
0.86473051
0.87037242
0.87648769
0.8831106
0.89027714
0.89802491
0.90639286
0.91542082
0.92514886
0.93561606
0.94685885
0.95890848
0.97178737
0.98550422
1.0000473
1.0153762
1.0314117
1.0480252
1.0650286
1.0821681
1.0991258
1.1155332
1.1309985
1.145148
1.1576739
1.168377
1.1771908
1.1841821
1.1895258
1.1934655
1.1962712
1.1982043
1.1994946
1.2003294
1.2008532
1.2011714
1.2013582
1.2014638
1.201521
1.2015504
1.2015646
1.201571
1.2015736
1.2015746
1.2015749
1.201575
1.2015751
1.2015751
1.2015751
0.85928619
0.86447291
0.87009905
0.87619696
0.88280076
0.8899463
0.89767099
0.90601362
0.91501389
0.92471171
0.9351461
0.9463535
0.95836529
0.97120425
0.98487966
0.99938084
1.0146688
1.0306665
1.0472478
1.0642281
1.0813572
1.0983208
1.1147528
1.1302628
1.1444759
1.1570806
1.1678717
1.1767762
1.1838541
1.1892754
1.1932807
1.1961391
1.1981126
1.1994325
1.2002884
1.2008266
1.2011545
1.2013476
1.2014571
1.2015166
1.2015474
1.2015624
1.2015692
1.201572
1.2015731
1.2015734
1.2015735
1.2015736
1.2015736
1.2015736
0.85904872
0.86422147
0.86983221
0.87591318
0.88249835
0.88962339
0.89732557
0.90564351
0.91461676
0.9242851
0.93468748
0.94586035
0.9578352
0.97063515
0.98427007
0.99873022
1.0139781
1.0299385
1.0464881
1.0634453
1.0805636
1.097532
1.1139873
1.1295401
1.1438145
1.1564956
1.1673726
1.1763658
1.1835288
1.1890266
1.1930967
1.1960073
1.1980209
1.1993704
1.2002473
1.2008
1.2011375
1.2013368
1.2014503
1.2015122
1.2015444
1.2015601
1.2015673
1.2015703
1.2015715
1.2015719
1.201572
1.2015721
1.2015721
1.2015721
0.85881681
0.8639759
0.86957162
0.87563605
0.88220303
0.88930807
0.89698828
0.90528212
0.914229
0.92386857
0.93423971
0.94537885
0.95731764
0.97007946
0.98367478
0.99809476
1.0133032
1.029227
1.0457453
1.0626795
1.0797865
1.0967589
1.113236
1.1288298
1.1431635
1.1559187
1.1668795
1.1759595
1.1832062
1.1887794
1.1929136
1.1958758
1.1979292
1.1993081
1.200206
1.2007732
1.2011203
1.201326
1.2014434
1.2015077
1.2015413
1.2015578
1.2015654
1.2015687
1.2015699
1.2015704
1.2015705
1.2015706
1.2015706
1.2015706
0.8585902
0.86373596
0.869317
0.87536529
0.8819145
0.88900001
0.89665877
0.90492909
0.91385021
0.92346169
0.93380231
0.94490852
0.95681206
0.96953662
0.9830932
0.99747384
1.0126437
1.0285314
1.0450187
1.0619299
1.0790253
1.0960009
1.1124986
1.1281316
1.1425225
1.1553498
1.1663923
1.1755573
1.1828862
1.1885337
1.1927312
1.1957447
1.1978376
1.1992458
1.2001647
1.2007462
1.2011031
1.201315
1.2014364
1.2015032
1.2015382
1.2015555
1.2015636
1.201567
1.2015684
1.2015689
1.201569
1.2015691
1.2015691
1.2015691
0.85836868
0.86350141
0.86906811
0.87510062
0.88163248
0.88869891
0.89633671
0.90458404
0.91348001
0.92306405
0.93337486
0.94444889
0.95631797
0.96900609
0.98252474
0.99686684
1.0119988
1.0278511
1.0443077
1.061196
1.0782795
1.0952574
1.1117745
1.1274451
1.1418913
1.1547886
1.1659108
1.1751591
1.1825687
1.1882895
1.1925497
1.1956139
1.1977462
1.1991835
1.2001232
1.2007192
1.2010857
1.2013039
1.2014293
1.2014985
1.201535
1.2015532
1.2015617
1.2015653
1.2015668
1.2015673
1.2015675
1.2015676
1.2015676
1.2015676
0.85815204
0.86327203
0.86882471
0.8748418
0.88135669
0.88840448
0.8960218
0.90424667
0.91311806
0.92267527
0.93295694
0.9439995
0.95583489
0.96848735
0.98196888
0.9962732
1.011368
1.0271854
1.0436117
1.0604771
1.0775484
1.094528
1.1110632
1.12677
1.1412696
1.1542349
1.1654349
1.1747649
1.1822538
1.1880468
1.1923689
1.1954835
1.1976547
1.1991211
1.2000816
1.200692
1.2010682
1.2012928
1.2014222
1.2014939
1.2015318
1.2015508
1.2015598
1.2015637
1.2015652
1.2015658
1.201566
1.2015661
1.2015661
1.2015661
0.85794008
0.86304761
0.86858658
0.87458859
0.88108689
0.88811644
0.89571374
0.90391665
0.912764
0.92229499
0.93254817
0.94355995
0.95536238
0.96797994
0.98142511
0.99569238
1.0107506
1.0265337
1.04293
1.0597727
1.0768316
1.0938121
1.1103644
1.1261058
1.1406571
1.1536886
1.1649645
1.1743744
1.1819414
1.1878056
1.1921889
1.1953534
1.1975634
1.1990587
1.2000399
1.2006647
1.2010506
1.2012815
1.201415
1.2014892
1.2015286
1.2015484
1.2015578
1.201562
1.2015637
1.2015643
1.2015645
1.2015646
1.2015646
1.2015646
0.85773261
0.86282795
0.86835352
0.87434076
0.88082284
0.88783456
0.89541227
0.90359369
0.91241753
0.92192287
0.93214817
0.94312984
0.95490001
0.9674834
0.98089294
0.99512389
1.0101462
1.0258955
1.0422623
1.0590823
1.0761284
1.0931093
1.1096776
1.1254522
1.1400535
1.1531493
1.1644994
1.1739877
1.1816315
1.1875659
1.1920098
1.1952237
1.1974722
1.1989962
1.1999981
1.2006373
1.2010329
1.2012702
1.2014077
1.2014844
1.2015253
1.201546
1.2015559
1.2015603
1.2015621
1.2015627
1.201563
1.2015631
1.2015631
1.2015631
0.85752947
0.86261287
0.86812531
0.87409812
0.88056431
0.88755857
0.89511712
0.90327752
0.91207836
0.92155859
0.93175661
0.9427088
0.95444738
0.9669973
0.98037193
0.99456724
1.0095543
1.0252703
1.0416079
1.0584053
1.0754385
1.0924191
1.1090025
1.1248089
1.1394586
1.152617
1.1640396
1.1736047
1.181324
1.1873277
1.1918314
1.1950943
1.197381
1.1989337
1.1999562
1.2006097
1.2010151
1.2012587
1.2014003
1.2014795
1.201522
1.2015436
1.2015539
1.2015586
1.2015605
1.2015612
1.2015615
1.2015615
1.2015616
1.2015616
0.85733047
0.8624022
0.86790178
0.87386045
0.8803111
0.88728827
0.89482805
0.90296788
0.91174619
0.92120185
0.93137316
0.94229649
0.95400414
0.96652126
0.97986165
0.99402199
1.0089745
1.0246576
1.0409663
1.0577412
1.0747613
1.0917412
1.1083387
1.1241756
1.1388721
1.1520915