/*--------------------------------*- C++ -*----------------------------------*\
| =========                 |                                                 |
| \\      /  F ield         | OpenFOAM: The Open Source CFD Toolbox           |
|  \\    /   O peration     | Version:  4.0                                   |
|   \\  /    A nd           | Web:      www.OpenFOAM.org                      |
|    \\/     M anipulation  |                                                 |
\*---------------------------------------------------------------------------*/
FoamFile
{
    version     2.0;
    format      ascii;
    class       surfaceScalarField;
    location    "760";
    object      snGradRho;
}
// * * * * * * * * * * * * * * * * * * * * * * * * * * * * * * * * * * * * * //

dimensions      [1 -4 0 0 0 0 0];

internalField   nonuniform List<scalar> 
9850
(
120.71219
-3.2750357
119.57348
-3.4861711
117.36408
-3.7122364
113.9633
-3.9453629
109.28322
-4.1745891
103.2871
-4.3857601
96.008781
-4.5618379
87.569452
-4.6837985
78.187167
-4.7322585
68.173694
-4.6898613
57.914725
-4.5442452
47.832871
-4.2911295
38.338186
-3.9367551
29.776241
-3.4987751
22.386365
-3.0048593
16.2807
-2.4888803
11.448243
-1.9854257
7.7800729
-1.5241413
5.1060122
-1.1255731
3.2318895
-0.79956876
1.9682731
-0.54625735
1.1491595
-0.35870168
0.6398641
-0.22607568
0.33740687
-0.13641707
0.16693468
-0.078505605
0.076545874
-0.042856
0.031982899
-0.022038388
0.011871442
-0.010587467
0.0037451466
-0.0047110222
0.00090774668
-0.0019326881
0.00010971742
-0.00074238178
-3.6431573e-05
-0.00029070053
-3.054016e-05
-0.00014408946
-1.1987051e-05
-0.00010593298
-3.0966023e-06
-9.9255849e-05
-4.6583685e-07
-9.9183055e-05
2.4740628e-08
-9.965368e-05
5.5631373e-08
-9.9855367e-05
4.1393606e-08
-9.9905952e-05
3.5235971e-08
-9.991437e-05
3.3534734e-08
-9.9915731e-05
3.325852e-08
-9.9916972e-05
3.2976442e-08
-9.9918699e-05
3.3588637e-08
-9.9920808e-05
3.6273045e-08
-9.9924309e-05
3.2123279e-08
-9.9926409e-05
3.0076079e-08
-9.9938594e-05
-1.1704973e-08
-9.9940358e-05
4.3567996e-07
-9.9875534e-05
-0.00010009337
88.654979
-0.8546602
88.372121
-0.90879846
88.115424
-0.97011499
87.820436
-1.039946
87.390577
-1.119433
86.693391
-1.209176
85.560763
-1.3087542
83.795695
-1.4161396
81.188427
-1.5270842
77.543949
-1.6346354
72.720739
-1.7290173
66.67623
-1.798166
59.50853
-1.8291603
51.478483
-1.8105831
42.995615
-1.7354492
34.560414
-1.6038535
26.673243
-1.4242175
19.738416
-1.2122747
13.997448
-0.987825
9.5122407
-0.77036374
6.1953524
-0.57523732
3.8663508
-0.41158468
2.309667
-0.28233544
1.3178439
-0.1856491
0.71558049
-0.11686493
0.36778565
-0.070238054
0.17761021
-0.040134814
0.079807428
-0.021679428
0.032943121
-0.01099476
0.012279047
-0.005199855
0.0040322513
-0.0022860606
0.0011209719
-0.00094508179
0.00024328275
-0.00038897767
3.1571653e-05
-0.00018514239
-2.6649204e-06
-0.00012074491
-3.002878e-06
-0.00010383478
-9.6361428e-07
-0.00010037093
-1.6971206e-07
-9.9899844e-05
7.3031532e-09
-9.9890077e-05
3.022588e-08
-9.99063e-05
2.9384416e-08
-9.9913056e-05
2.8004257e-08
-9.9916251e-05
2.7144563e-08
-9.9919167e-05
2.4787142e-08
-9.9920485e-05
3.1474329e-08
-9.992492e-05
6.8116276e-09
-9.9925405e-05
2.6745458e-08
-9.9932821e-05
9.9568492e-08
-9.9909481e-05
9.5758174e-08
-9.9892476e-05
-0.00010017725
80.435032
-0.42988689
79.909263
-0.45668149
79.354249
-0.48662347
78.75507
-0.52017135
78.086686
-0.55783967
77.309066
-0.60016522
76.361358
-0.64762527
75.15604
-0.70048012
73.574985
-0.75851317
71.470561
-0.82065765
68.675885
-0.88454144
65.028153
-0.9460549
60.406482
-0.99914199
54.779803
-1.0360891
48.251816
-1.0485602
41.082742
-1.0294138
33.668554
-0.97492347
26.472637
-0.88658492
19.928483
-0.77156664
14.350011
-0.64132887
9.8837115
-0.50883586
6.5143604
-0.38552365
4.1103544
-0.27920949
2.4823549
-0.19348206
1.433166
-0.12833936
0.78893197
-0.081433997
0.41231695
-0.049326803
0.20332999
-0.028418752
0.093842742
-0.015492741
0.040115268
-0.0079430582
0.015677709
-0.0038090224
0.005511069
-0.0017084387
0.0017060689
-0.00073050237
0.00045167288
-0.00031960662
9.7615329e-05
-0.00016653511
1.5670018e-05
-0.00011703798
1.3449268e-06
-0.00010351039
-1.2620504e-07
-0.00010049834
-5.8390098e-08
-9.9983872e-05
5.3531761e-09
-9.9925145e-05
1.8695751e-08
-9.9923402e-05
1.9133436e-08
-9.9924196e-05
2.349862e-08
-9.9926125e-05
1.3639379e-08
-9.9925953e-05
3.0365702e-08
-9.9930028e-05
-8.5933535e-09
-9.9931932e-05
7.0819441e-08
-9.9930729e-05
1.2875783e-07
-9.9912687e-05
-3.4861423e-07
-9.9979804e-05
-0.0001000647
76.366741
-0.3010772
75.776695
-0.31970021
75.145245
-0.34041613
74.459059
-0.36345482
73.698686
-0.38905098
72.836393
-0.41742802
71.833433
-0.44876935
70.6368
-0.4831688
69.175837
-0.52054796
67.359699
-0.56052497
65.077653
-0.60222217
62.205321
-0.64401595
58.620596
-0.68327225
54.231833
-0.71617651
49.016562
-0.73783854
43.061207
-0.74287361
36.584227
-0.72654823
29.923559
-0.68629237
23.480585
-0.6230226
17.634911
-0.54156785
12.662889
-0.44978933
8.6924846
-0.35665514
5.7069429
-0.27010103
3.5852163
-0.19554611
2.1550374
-0.13545983
1.2381138
-0.089811767
0.67821549
-0.056944985
0.35276412
-0.03444949
0.17318361
-0.019807654
0.079608767
-0.010767775
0.033919801
-0.0055024833
0.01323127
-0.0026332409
0.0046547861
-0.0011862735
0.0014502449
-0.00051985627
0.00039114277
-0.00024383149
8.8594405e-05
-0.00014280237
1.6105303e-05
-0.00011077426
2.1656162e-06
-0.00010218489
1.7942555e-07
-0.0001002933
1.1770972e-08
-9.9965865e-05
1.6037455e-08
-9.9926079e-05
1.3266447e-08
-9.9924225e-05
2.3973828e-08
-9.9927096e-05
3.394951e-09
-9.9928506e-05
2.6014678e-08
-9.9932058e-05
-6.0947615e-09
-9.9934349e-05
1.0488949e-07
-9.9927438e-05
1.3546856e-08
-9.9928554e-05
-4.8108787e-07
-0.00010000676
-0.00010002178
73.539163
-0.23194834
72.9175
-0.2462201
72.254752
-0.26206502
71.539859
-0.27963982
70.756764
-0.29909833
69.88276
-0.32057804
68.886529
-0.34417868
67.725953
-0.36992921
66.345903
-0.39773865
64.676523
-0.42732529
62.632926
-0.45811881
60.117923
-0.48913349
57.030125
-0.51882208
53.280022
-0.54494491
48.815452
-0.56452931
43.653958
-0.57403712
37.912898
-0.56986297
31.821858
-0.54919329
25.702181
-0.51104358
19.910377
-0.45705035
14.761922
-0.39153717
10.465772
-0.32065607
7.0954545
-0.25090314
4.6024728
-0.18764999
2.857559
-0.1342589
1.6979222
-0.091961431
0.96430239
-0.0603039
0.52203442
-0.037814857
0.2681852
-0.022616175
0.12990944
-0.012847628
0.058837153
-0.0068962918
0.02465418
-0.0034811199
0.0094372059
-0.0016521596
0.0032509107
-0.00074889595
0.00099026473
-0.00034332843
0.00026125119
-0.00018043751
5.819707e-05
-0.00012296533
1.0592113e-05
-0.0001055053
1.5053803e-06
-0.00010103968
1.5822944e-07
-0.00010010306
2.2241087e-08
-9.9948113e-05
4.5347697e-09
-9.9929191e-05
2.0074747e-08
-9.9929085e-05
-5.5340659e-09
-9.993094e-05
2.0778687e-08
-9.9932645e-05
8.2603658e-09
-9.9933107e-05
1.027837e-07
-9.9925597e-05
-1.2069683e-07
-9.994578e-05
-5.0453176e-07
-0.00010000968
-9.9986324e-05
71.372247
-0.18819289
70.730597
-0.19972694
70.049772
-0.21252186
69.320649
-0.22670203
68.529907
-0.24238939
67.658616
-0.259693
66.680555
-0.27869243
65.560333
-0.29941264
64.251494
-0.3217872
62.694989
-0.34560692
60.818721
-0.37045127
58.539274
-0.39560295
55.767443
-0.41995215
52.4195
-0.44190933
48.43569
-0.45936546
43.805515
-0.46976436
38.595115
-0.47036667
32.966474
-0.45876001
27.174791
-0.43356808
21.534646
-0.39514624
16.359421
-0.34592184
11.894844
-0.29009932
8.2734817
-0.23274415
5.5063802
-0.17860691
3.5085152
-0.13117723
2.1408132
-0.092278729
1.2503072
-0.062202334
0.69774228
-0.040157211
0.37084448
-0.024785856
0.18676408
-0.014578841
0.088495518
-0.0081349907
0.039092688
-0.0042853137
0.01591931
-0.0021256475
0.005896657
-0.00099992269
0.0019562389
-0.00046184122
0.0005710716
-0.00022957933
0.00014375907
-0.00014058168
3.0485159e-05
-0.00011087024
5.2982514e-06
-0.00010240156
7.2862211e-07
-0.00010038569
8.5561527e-08
-9.9995304e-05
4.8557902e-09
-9.9936255e-05
1.4944524e-08
-9.9930203e-05
-9.8181007e-09
-9.9931776e-05
1.9722728e-08
-9.9931856e-05
2.3860792e-08
-9.993067e-05
6.4670489e-08
-9.9927359e-05
-2.3039151e-07
-9.9957006e-05
-4.6807932e-07
-9.9998879e-05
-9.9944112e-05
69.621002
-0.1570623
68.964652
-0.16665721
68.270691
-0.17729383
67.531531
-0.18907486
66.735997
-0.20210203
65.868094
-0.21646815
64.905514
-0.23224466
63.817946
-0.24946237
62.565319
-0.26808335
61.096279
-0.28796113
59.347473
-0.30878757
57.244538
-0.33002621
54.706114
-0.35083701
51.652492
-0.37000585
48.020337
-0.38590585
43.783646
-0.39653422
38.9782
-0.39968036
33.722313
-0.39327115
28.222708
-0.3758843
22.755066
-0.34731327
17.617534
-0.30895422
13.069915
-0.2637674
9.2817341
-0.2157218
6.3093614
-0.16890129
4.1071613
-0.12663732
2.5615839
-0.09099209
1.5306665
-0.062696304
0.87544636
-0.041427213
0.47811169
-0.026222552
0.24832383
-0.015861956
0.12192725
-0.0091345038
0.056141913
-0.0049849788
0.023997866
-0.0025688835
0.0094068667
-0.0012531923
0.0033335962
-0.00059121064
0.0010508391
-0.00028791995
0.00028935855
-0.00016346858
6.8210678e-05
-0.00011855333
1.3461581e-05
-0.00010456963
2.165691e-06
-0.00010089022
2.831595e-07
-0.00010008973
2.3265816e-08
-9.9949853e-05
1.0594756e-08
-9.993094e-05
-1.0020082e-08
-9.9930538e-05
2.2434862e-08
-9.9929352e-05
3.0738285e-08
-9.9927454e-05
8.6876734e-09
-9.9930212e-05
-3.0226953e-07
-9.9960765e-05
-3.8261953e-07
-9.9983127e-05
-9.9928203e-05
68.164185
-0.13426064
67.496594
-0.14244031
66.792612
-0.15150352
66.045805
-0.16153784
65.246624
-0.17263081
64.381303
-0.18486383
63.43052
-0.1983024
62.367865
-0.21298109
61.15819
-0.22888141
59.756117
-0.24590041
58.105118
-0.26380816
56.137953
-0.28219387
53.779563
-0.30040337
50.953859
-0.31747789
47.595818
-0.33211381
43.669414
-0.34267685
39.189741
-0.34731452
34.243975
-0.34420735
29.001954
-0.33196387
23.706103
-0.31008926
18.635943
-0.27936427
14.054255
-0.24192878
10.15372
-0.20094636
7.0248874
-0.1599251
4.6557398
-0.12195759
2.9574439
-0.089174936
1.8011566
-0.062568847
1.0512233
-0.042142113
0.58699291
-0.027232873
0.3125929
-0.016855022
0.15796296
-0.009960373
0.075215487
-0.0055967461
0.03343968
-0.0029786756
0.013725348
-0.0015015355
0.0051321678
-0.00072641907
0.0017217302
-0.00035330192
0.00050946353
-0.00019115348
0.00013050407
-0.00012865464
2.8361428e-05
-0.00010769073
5.1124132e-06
-0.00010169189
7.5125035e-07
-0.00010025727
8.0799279e-08
-9.9977154e-05
1.1708253e-08
-9.9933472e-05
-7.0408533e-09
-9.992876e-05
2.6773472e-08
-9.9926566e-05
2.500926e-08
-9.9925104e-05
-4.9007329e-08
-9.9932909e-05
-3.4065464e-07
-9.9960508e-05
-2.9691428e-07
-9.9967559e-05
-9.9917242e-05
66.922245
-0.11681914
66.245698
-0.12391942
65.53368
-0.13178308
64.78067
-0.14048608
63.978395
-0.15010498
63.114841
-0.16071215
62.173039
-0.17236802
61.12965
-0.18510907
59.953432
-0.19893006
58.603769
-0.21375858
57.029646
-0.22942038
55.169689
-0.24559472
52.954243
-0.26176156
50.310769
-0.27714732
47.173909
-0.29068435
43.501027
-0.30100999
39.292295
-0.30654151
34.611319
-0.30566338
29.598561
-0.29704052
24.467867
-0.28001451
19.479654
-0.25496228
14.893887
-0.22344531
10.9177
-0.18801741
7.6676748
-0.1517061
5.1602633
-0.11735486
3.3296648
-0.087083621
2.060934
-0.062041507
1.223585
-0.042463558
0.69605547
-0.02791957
0.37845925
-0.017613773
0.19585799
-0.010635924
0.09588353
-0.0061250048
0.044040102
-0.0033509814
0.01878187
-0.0017392495
0.0073448236
-0.00086328835
0.0025958382
-0.00042365269
0.00081573602
-0.00022300208
0.00022389232
-0.00014115622
5.2653827e-05
-0.00011187328
1.0393526e-05
-0.0001028628
1.6886138e-06
-0.00010052583
2.1367954e-07
-0.00010002559
2.4737827e-08
-9.9938939e-05
-1.5263232e-09
-9.992685e-05
3.0114777e-08
-9.9923744e-05
8.7957784e-09
-9.9923722e-05
-1.011225e-07
-9.9934386e-05
-3.5275817e-07
-9.9957106e-05
-2.1839863e-07
-9.9952867e-05
-9.9908184e-05
65.844192
-0.10314126
65.160361
-0.10939721
64.44178
-0.11632305
63.68365
-0.12398565
62.878722
-0.1324529
62.016382
-0.14178983
61.081549
-0.15205229
60.053361
-0.16327718
58.903736
-0.17546784
57.595947
-0.18857312
56.083527
-0.20245851
54.31004
-0.21686867
52.210552
-0.2313821
49.715963
-0.2453631
46.761482
-0.25792221
43.300186
-0.26790587
39.321278
-0.27394535
34.870033
-0.27459798
30.062928
-0.26859892
25.088988
-0.25519895
20.189975
-0.23449835
15.619721
-0.20763257
11.593962
-0.1766788
8.2492389
-0.14426094
5.6261363
-0.1129834
3.6800056
-0.084914156
2.3099169
-0.061296239
1.3917242
-0.042534425
0.80436079
-0.028381039
0.44512042
-0.018197323
0.23503215
-0.011190705
0.11778272
-0.0065802111
0.055606398
-0.0036861933
0.024496261
-0.0019631019
0.0099519468
-0.00099857095
0.0036775033
-0.00049699786
0.0012168176
-0.0002582242
0.00035433944
-0.00015591078
8.9141977e-05
-0.00011717396
1.8996337e-05
-0.00010446648
3.3625711e-06
-0.00010092624
4.7728305e-07
-0.0001001054
5.816733e-08
-9.9949897e-05
6.2818594e-09
-9.9925642e-05
3.016413e-08
-9.9921189e-05
-1.3355118e-08
-9.9922903e-05
-1.4402548e-07
-9.9934605e-05
-3.4548207e-07
-9.9952022e-05
-1.4867391e-07
-9.9941127e-05
-9.9906239e-05
64.894335
-0.092144102
64.204462
-0.097722706
63.48041
-0.10389647
62.717974
-0.11072495
61.910738
-0.11826898
61.049239
-0.12658746
60.119945
-0.13573218
59.104031
-0.14573964
57.976026
-0.1566189
56.702435
-0.16833401
55.240605
-0.18077967
53.538308
-0.19374919
51.534761
-0.20689535
49.164127
-0.21968752
46.362715
-0.23137397
43.080901
-0.24096583
39.299737
-0.24726804
35.050025
-0.24898662
30.428399
-0.24493294
25.602218
-0.23431288
20.795469
-0.21703397
16.25389
-0.19390969
12.197713
-0.16663613
8.7787655
-0.13749424
6.0581206
-0.10886476
4.0104219
-0.082741803
2.5485207
-0.060420931
1.5553476
-0.042432963
0.91138316
-0.028676718
0.51205643
-0.018645017
0.27507105
-0.011646861
0.1406292
-0.0069719816
0.067971845
-0.0039862985
0.030788441
-0.0021715716
0.012926371
-0.0011300074
0.0049646817
-0.00057167419
0.0017181996
-0.00029600615
0.0005269009
-0.00017268199
0.00014060119
-0.00012359688
3.2028598e-05
-0.00010655065
6.1093868e-06
-0.00010148811
9.5032575e-07
-0.00010022784
1.2523973e-07
-9.9969568e-05
1.7474276e-08
-9.9926084e-05
2.6246998e-08
-9.9919337e-05
-3.7662364e-08
-9.9922467e-05
-1.7691539e-07
-9.9934026e-05
-3.2677883e-07
-9.9946548e-05
-9.4234107e-08
-9.9932135e-05
-9.9905822e-05
64.047322
-0.083130919
63.352364
-0.088155468
62.623691
-0.093714267
61.85759
-0.099860885
61.048339
-0.10665031
60.187434
-0.11413629
59.262634
-0.12236693
58.256824
-0.13137788
57.146725
-0.14118198
55.901568
-0.15175433
54.481952
-0.16301148
52.83928
-0.17478376
50.916435
-0.18678109
48.650634
-0.19855457
45.979596
-0.20946098
42.852077
-0.21864351
39.243014
-0.22505
35.171648
-0.22751499
30.71805
-0.22492667
26.030614
-0.21647542
21.316637
-0.20193407
16.81266
-0.18186946
12.740452
-0.15766879
9.2634604
-0.13131941
6.4601518
-0.10499532
4.3226924
-0.080604845
2.777283
-0.059467803
1.7143799
-0.042209055
1.016808
-0.02884649
0.5789116
-0.01898457
0.31566909
-0.012020895
0.16419932
-0.0073081128
0.080994896
-0.0042533921
0.037583154
-0.0023638187
0.016237393
-0.0012558776
0.0064507499
-0.00064623396
0.0023225436
-0.00033553095
0.00074556103
-0.00019116577
0.00020963022
-0.00013109722
5.0664733e-05
-0.00010914443
1.0326691e-05
-0.00010223792
1.7359954e-06
-0.00010040471
2.4548693e-07
-0.00010000159
3.4433179e-08
-9.9928979e-05
1.909518e-08
-9.9918278e-05
-6.1674382e-08
-9.9922136e-05
-2.0056095e-07
-9.9932833e-05
-3.0203731e-07
-9.9941146e-05
-5.3174285e-08
-9.9925238e-05
-9.9906042e-05
63.284432
-0.075619715
62.585143
-0.080183351
61.852521
-0.085230731
61.083267
-0.090810429
60.272248
-0.096972525
59.411771
-0.10376634
58.490692
-0.11123673
57.493344
-0.11941821
56.398318
-0.12832612
55.177182
-0.13794374
53.793332
-0.14820431
52.201338
-0.15896688
50.347348
-0.16998615
48.171416
-0.18087798
45.612827
-0.19108613
42.619466
-0.19986122
39.161656
-0.20627005
35.249306
-0.2092585
30.94855
-0.20778906
26.391138
-0.20105514
21.768848
-0.18873575
17.308474
-0.17120699
13.231183
-0.14960344
9.7091255
-0.12565994
6.8355201
-0.10136068
4.618401
-0.078522486
2.9967715
-0.058469497
1.8688609
-0.041896487
1.1204485
-0.028918933
0.64543736
-0.019236939
0.35659629
-0.012326118
0.18831444
-0.0075955431
0.09455507
-0.0044898978
0.04481088
-0.002539668
0.019852696
-0.0013749872
0.0081256842
-0.00071947776
0.0030299981
-0.00037602185
0.0010131492
-0.00021101509
0.0002985285
-0.00013958668
7.6088863e-05
-0.00011225617
1.6461261e-05
-0.0001031969
2.9622702e-06
-0.00010064774
4.462791e-07
-0.00010005013
6.1334579e-08
-9.9935364e-05
1.0277784e-08
-9.9918135e-05
-8.3894804e-08
-9.9921849e-05
-2.1625777e-07
-9.9931313e-05
-2.7473038e-07
-9.9936224e-05
-2.3221213e-08
-9.99203e-05
-9.9907439e-05
62.591523
-0.069272021
61.888508
-0.073446762
61.152477
-0.078062757
60.38049
-0.083164363
59.567915
-0.088797478
58.707755
-0.095007616
57.789808
-0.1018367
56.799654
-0.109318
55.717496
-0.11746847
54.516924
-0.12627756
53.163776
-0.13569144
51.615404
-0.14559181
49.820877
-0.15576909
47.722878
-0.16589125
45.262332
-0.1754728
42.386771
-0.18385294
39.06302
-0.19019847
35.293394
-0.1935521
31.132211
-0.19294639
26.696572
-0.18758933
22.163907
-0.17709528
17.75108
-0.16169172
13.677107
-0.14230518
10.12051
-0.1204525
7.1869989
-0.097944557
4.8989436
-0.076504834
3.2075391
-0.057447668
2.0188909
-0.041519137
1.2221982
-0.028915113
0.7114582
-0.019418227
0.397678
-0.012573284
0.21283159
-0.0078403212
0.10855053
-0.0046983198
0.052408752
-0.0026993976
0.023739991
-0.0014865753
0.0099771825
-0.00079045639
0.0038386056
-0.00041677834
0.0013313423
-0.00023186818
0.00040920397
-0.00014894402
0.00010943769
-0.00011587402
2.4991661e-05
-0.00010437944
4.7801893e-06
-0.00010096769
7.6363083e-07
-0.00010011954
1.0464282e-07
-9.9946426e-05
1.7912778e-09
-9.9919078e-05
-1.0355412e-07
-9.9921647e-05
-2.2553147e-07
-9.99297e-05
-2.473957e-07
-9.993195e-05
-3.1521489e-09
-9.9916816e-05
-9.9908708e-05
61.957662
-0.063842707
61.251412
-0.067685299
60.512417
-0.071932956
59.738043
-0.076626426
58.924094
-0.081808014
58.064177
-0.087519912
57.148906
-0.093801412
56.164948
-0.1006845
55.093909
-0.10818715
53.91115
-0.11630348
52.584653
-0.12498986
51.074242
-0.13414612
49.331608
-0.14359157
47.301873
-0.15303671
44.927612
-0.16205433
42.156374
-0.17005753
38.952331
-0.17629794
35.311568
-0.17990281
31.278319
-0.17996987
26.956751
-0.17572869
22.511068
-0.16674989
18.148264
-0.15314455
14.084091
-0.13566678
10.501568
-0.11564464
7.5169553
-0.094731217
5.1655546
-0.074557375
3.4101105
-0.056417641
2.1646026
-0.041094894
1.3220025
-0.028851416
0.7768497
-0.019541434
0.43878045
-0.012771488
0.23763574
-0.0080479253
0.12289543
-0.0048812596
0.060320678
-0.0028436647
0.027868109
-0.0015902634
0.011991602
-0.00085846891
0.0047447488
-0.00045720128
0.0017007457
-0.00025337288
0.00054312166
-0.00015902717
0.00015175133
-0.00011996854
3.6408564e-05
-0.00010579245
7.3602583e-06
-0.00010137369
1.242329e-06
-0.00010021416
1.7338739e-07
-9.9963453e-05
-4.0770301e-09
-9.9921286e-05
-1.2028376e-07
-9.9921556e-05
-2.2977953e-07
-9.992809e-05
-2.2141818e-07
-9.9928295e-05
9.5002423e-09
-9.9914353e-05
-9.9909689e-05
61.374232
-0.059150298
60.665154
-0.062706202
59.923562
-0.066636017
59.147091
-0.070977373
58.331927
-0.075769454
57.472203
-0.081051535
56.559251
-0.086860545
55.58069
-0.09322719
54.519362
-0.10017003
53.352189
-0.10768677
52.049057
-0.11574192
50.571993
-0.12425002
48.875065
-0.13305403
46.905646
-0.1418996
44.607949
-0.15040812
41.929793
-0.1580549
38.83335
-0.16416419
35.309556
-0.16793732
31.393993
-0.16853215
27.179363
-0.16520386
22.817701
-0.15749452
18.506342
-0.14542359
14.456984
-0.12960154
10.855631
-0.11119242
7.8274298
-0.091705996
5.4193307
-0.0726828
3.6049778
-0.055390547
2.3061461
-0.040637504
1.4198427
-0.028740864
0.84152472
-0.019617234
0.47980127
-0.012928505
0.2626346
-0.0082233238
0.13751785
-0.0050413444
0.068497324
-0.0029734085
0.03220779
-0.0016859916
0.014154751
-0.00092304553
0.0057435999
-0.00049680542
0.0021210289
-0.00027520527
0.00070129042
-0.00016968474
0.00020393611
-0.00012449643
5.1195277e-05
-0.00010743545
1.0887517e-05
-0.00010187272
1.9356052e-06
-0.00010033815
2.7938413e-07
-9.9987855e-05
-4.6932459e-09
-9.992503e-05
-1.3385628e-07
-9.9921652e-05
-2.3016625e-07
-9.9926563e-05
-1.9748733e-07
-9.9925223e-05
1.6779061e-08
-9.9912663e-05
-9.9910498e-05
60.83433
-0.055057699
60.122764
-0.058363869
59.378884
-0.062016876
58.600562
-0.066051636
57.78432
-0.070504597
56.924757
-0.075412457
56.013839
-0.080810014
55.040026
-0.08672672
53.987259
-0.093181427
52.833848
-0.10017462
51.551376
-0.10767738
50.103853
-0.1156163
48.447502
-0.12385394
46.53179
-0.1321653
44.302521
-0.14021268
41.707974
-0.14752434
38.708815
-0.15348708
35.291709
-0.15736746
31.484768
-0.15837856
27.370501
-0.15580326
23.089753
-0.14916612
18.830498
-0.13841435
14.799835
-0.12403813
11.185535
-0.10705857
8.1201959
-0.088855346
5.6612505
-0.070881973
3.7925999
-0.054374534
2.44368
-0.040157662
1.5157244
-0.028593933
0.90542385
-0.019654482
0.52066246
-0.013051027
0.28775435
-0.008371013
0.15235801
-0.0051811574
0.076895873
-0.0030897567
0.036732205
-0.0017739525
0.016452521
-0.00098392229
0.0068295406
-0.000535223
0.0025910926
-0.00029708316
0.00088428144
-0.0001807666
0.0002667407
-0.00012940495
6.9810107e-05
-0.0001093013
1.5555653e-05
-0.00010246936
2.9042622e-06
-0.00010049524
4.3730932e-07
-0.0001000211
3.0260096e-09
-9.9930655e-05
-1.4405664e-07
-9.9922025e-05
-2.2763595e-07
-9.9925166e-05
-1.7592778e-07
-9.9922659e-05
2.0156424e-08
-9.9911496e-05
-9.991097e-05
60.332346
-0.051459481
59.618579
-0.054546338
58.872672
-0.057956309
58.092709
-0.061721927
57.275509
-0.065877227
56.416087
-0.070456618
55.506972
-0.075492961
54.537375
-0.08101451
53.492218
-0.087040195
52.351052
-0.093572667
51.086988
-0.10058836
49.665828
-0.10802385
48.045762
-0.11575811
46.178195
-0.12359088
44.010478
-0.13121924
41.491475
-0.1382168
38.580741
-0.14402469
35.261373
-0.14796716
31.555007
-0.14930784
27.535055
-0.14735813
23.332073
-0.14163325
19.125032
-0.13202324
15.116063
-0.11891713
11.493714
-0.1032111
8.3968053
-0.086166748
5.8921906
-0.069154462
3.9734033
-0.0533755
2.5773651
-0.039663704
1.6096706
-0.02841907
0.96850834
-0.019660519
0.56130509
-0.013144773
0.31293628
-0.0084950034
0.16736656
-0.0053031612
0.085479608
-0.0031939367
0.041417235
-0.0018545231
0.018871365
-0.0010410062
0.0079965333
-0.00057219701
0.0031092496
-0.00031877303
0.0010922715
-0.00019213209
0.00034074592
-0.00013463636
9.2672166e-05
-0.00011137741
2.1560879e-05
-0.00010316573
4.2153928e-06
-0.00010068862
6.6466159e-07
-0.00010006465
2.2746775e-08
-9.9938561e-05
-1.5058162e-07
-9.9922767e-05
-2.2290215e-07
-9.9923917e-05
-1.5676466e-07
-9.9920514e-05
2.0976944e-08
-9.9910671e-05
-9.9911156e-05
59.863661
-0.048273281
59.147937
-0.051166147
58.400228
-0.054361189
57.618804
-0.057888831
56.800752
-0.061780967
55.941458
-0.066069956
55.033956
-0.070786905
54.068134
-0.075958919
53.029791
-0.081604862
51.899599
-0.087729077
50.652049
-0.094312394
49.25457
-0.10129975
47.667154
-0.10858396
45.843011
-0.11598583
43.730981
-0.12323221
41.280599
-0.12993592
38.450617
-0.1355855
35.221148
-0.13955642
31.608183
-0.1411586
27.676992
-0.13973199
23.548661
-0.13478835
19.393545
-0.12617259
15.408572
-0.11418832
11.782274
-0.099622146
8.6586236
-0.083628529
6.1129394
-0.067498863
4.1477833
-0.052397601
2.7073613
-0.039162093
1.7017157
-0.028223069
1.0307549
-0.019641416
0.60168507
-0.013214617
0.3381339
-0.0085988407
0.18250302
-0.0054096535
0.09421736
-0.0032872063
0.046241545
-0.0019282031
0.021398616
-0.0010943378
0.0092384251
-0.00060756774
0.0036733988
-0.00034009125
0.0013251017
-0.00020365537
0.00042636638
-0.00014013172
0.00012015133
-0.00011364711
2.9096179e-05
-0.00010396165
5.9408366e-06
-0.00010092083
9.816242e-07
-0.00010011995
5.8839628e-08
-9.9949207e-05
-1.5297133e-07
-9.9923991e-05
-2.16477e-07
-9.9922834e-05
-1.3986828e-07
-9.9918718e-05
2.022087e-08
-9.9910078e-05
-9.9911141e-05
59.42443
-0.045433863
58.70696
-0.048154027
57.957641
-0.051157764
57.174913
-0.054473622
56.356102
-0.058131583
55.496929
-0.062162163
54.590885
-0.066594871
53.628464
-0.071455722
52.596263
-0.076763408
51.475969
-0.082523601
50.243324
-0.088720775
48.867242
-0.09530691
47.309374
-0.10218661
45.524612
-0.10919874
43.463221
-0.11609584
41.075471
-0.12252483
38.319554
-0.12801589
35.173077
-0.13199017
31.647093
-0.13379996
27.79956
-0.1328132
23.742841
-0.12854259
19.639074
-0.1207974
15.679853
-0.10980889
12.053044
-0.096267344
8.9068584
-0.081229854
6.324207
-0.065913103
4.3161062
-0.051443631
2.8338244
-0.038657763
1.7919017
-0.02801133
1.0921518
-0.01960212
0.64176984
-0.013264628
0.36331055
-0.0086855768
0.19773437
-0.0055026969
0.10308291
-0.0033707751
0.051186525
-0.0019955509
0.024022691
-0.001144051
0.01054918
-0.00064125512
0.0042811817
-0.00036090095
0.001582342
-0.00021522831
0.0005238611
-0.00014583394
0.00015256227
-0.00011609106
3.8346278e-05
-0.00010485493
8.1554905e-06
-0.0001011937
1.4108269e-06
-0.00010018833
1.1646083e-07
-9.9963091e-05
-1.5056791e-07
-9.9925832e-05
-2.0870369e-07
-9.9921937e-05
-1.2503664e-07
-9.9917208e-05
1.8561212e-08
-9.9909626e-05
-9.9910953e-05
59.01142
-0.042888919
58.292386
-0.045454438
57.541625
-0.048286906
56.757728
-0.051413189
55.938241
-0.054861554
55.079187
-0.058660852
54.174469
-0.062839131
53.215136
-0.067421377
52.188505
-0.072426036
51.077186
-0.077859822
49.858067
-0.083710249
48.501423
-0.089935283
46.970434
-0.096449642
45.221559
-0.10310777
43.206434
-0.10968453
40.876098
-0.11585669
38.188381
-0.12119121
35.118777
-0.12515009
31.674006
-0.12712446
27.905441
-0.12650938
23.9174
-0.12282171
19.864203
-0.11584268
15.932051
-0.10574204
12.307628
-0.093125175
9.1425825
-0.078960634
6.5266359
-0.064394622
4.4787107
-0.050515329
2.9569049
-0.038154452
1.8802755
-0.027788141
1.1526954
-0.019546674
0.68153569
-0.013298211
0.38843742
-0.0087578307
0.21303371
-0.0055841249
0.11205427
-0.0034457778
0.056236081
-0.0020571446
0.026733158
-0.0011903402
0.011923042
-0.00067324016
0.0049301116
-0.00038110626
0.0018633559
-0.00022676122
0.00063335009
-0.00015168985
0.00019016228
-0.00011868852
4.948363e-05
-0.00010584173
1.0935619e-05
-0.0001015084
1.9770314e-06
-0.00010027103
2.016031e-07
-9.9980737e-05
-1.424771e-07
-9.9928438e-05
-1.997733e-07
-9.9921246e-05
-1.1202304e-07
-9.9915933e-05
1.6491756e-08
-9.990926e-05
-9.9910645e-05
58.621891
-0.040596017
57.901452
-0.04302233
57.149393
-0.045700656
56.364448
-0.048656347
55.544358
-0.051916123
54.685422
-0.055507326
53.781921
-0.059456662
52.825405
-0.063788149
51.803852
-0.068519933
50.700717
-0.073659547
49.493934
-0.079197056
48.155031
-0.085095544
46.648604
-0.091278459
44.932582
-0.097613783
42.959905
-0.10389591
40.682409
-0.10982786
38.057715
-0.11500924
35.05954
-0.11893876
31.690781
-0.12104312
27.99687
-0.12074351
24.074691
-0.11756321
20.071141
-0.11126159
16.167027
-0.10195594
12.547433
-0.0901766
9.3667528
-0.076811531
6.7208081
-0.062940586
4.6359104
-0.049613652
3.076747
-0.037654938
1.9668864
-0.027556865
1.2123886
-0.019478324
0.72096569
-0.013318152
0.41349186
-0.0088177983
0.22837916
-0.0056555225
0.12111311
-0.003513239
0.061376396
-0.0021135468
0.029520735
-0.0012334327
0.01335463
-0.00070354824
0.0056176746
-0.00040064533
0.002167359
-0.00023818203
0.00075483407
-0.00015765153
0.00023315214
-0.00012141838
6.26655e-05
-0.00010691692
1.4357272e-05
-0.0001018654
2.7067658e-06
-0.00010036913
3.2111321e-07
-0.00010000268
-1.2753889e-07
-9.993198e-05
-1.897406e-07
-9.9920794e-05
-1.0056841e-07
-9.991486e-05
1.4331637e-08
-9.9908945e-05
-9.9910263e-05
58.253498
-0.038520396
57.531791
-0.040820802
56.778565
-0.043359732
55.992676
-0.046161175
55.172048
-0.049250446
54.313234
-0.052653513
53.410855
-0.056395852
52.456924
-0.060500564
51.440024
-0.064985465
50.344383
-0.069858725
49.148902
-0.075112566
47.826263
-0.080714475
46.342378
-0.08659548
44.656551
-0.092635404
42.722971
-0.098645803
40.494281
-0.10435292
37.928019
-0.10938548
34.996403
-0.11327527
31.698953
-0.11548166
28.075719
-0.11545081
24.216716
-0.11271409
20.261791
-0.10701393
16.386406
-0.098422855
12.773702
-0.087404665
9.580226
-0.074773884
6.9072528
-0.061547979
4.7879956
-0.048738946
3.1934881
-0.037161252
2.0517851
-0.027320131
1.2712383
-0.019399686
0.7600481
-0.013326749
0.43845606
-0.0088673279
0.24375286
-0.0057182564
0.1302441
-0.0035740724
0.066595641
-0.002165287
0.03237723
-0.0012735687
0.014838991
-0.00073223469
0.0063414021
-0.00041948343
0.002493469
-0.00024943459
0.00088821494
-0.00016367682
0.00028167909
-0.00012426001
7.8032074e-05
-0.00010807451
1.8494883e-05
-0.00010226465
3.6279286e-06
-0.00010048356
4.826798e-07
-0.00010002947
-1.0430349e-07
-9.9936647e-05
-1.7853481e-07
-9.992062e-05
-9.0415539e-08
-9.9913962e-05
1.2274516e-08
-9.9908659e-05
-9.9909837e-05
57.904222
-0.036633335
57.18137
-0.038819361
56.427088
-0.04123168
55.64035
-0.04389304
54.819244
-0.046827478
53.960552
-0.05005971
53.059216
-0.053614073
52.107669
-0.057512807
51.095051
-0.061773374
50.006304
-0.066404443
48.821218
-0.071400061
47.513549
-0.076731527
46.05043
-0.082336492
44.392459
-0.088105182
42.495017
-0.093864322
40.311556
-0.099360805
37.799634
-0.10424939
34.930204
-0.10809183
31.699794
-0.11037752
28.14357
-0.11057639
24.345184
-0.10822907
20.437802
-0.10306506
16.591609
-0.095118542
12.987541
-0.084794253
9.7837721
-0.072839689
7.086452
-0.060213725
4.9352351
-0.047891126
3.3072587
-0.03667485
2.1350224
-0.027079994
1.3292546
-0.019312869
0.79877503
-0.013325886
0.46331603
-0.0089079546
0.2591402
-0.0057734837
0.1394344
-0.0036290751
0.0718837
-0.0022128494
0.035295448
-0.0013109875
0.016371613
-0.00075937345
0.0070989211
-0.0004376064
0.0028407469
-0.00026047656
0.0010333155
-0.00016972948
0.00033584141
-0.00012719379
9.5705527e-05
-0.00010930794
2.3420093e-05
-0.00010270554
4.7693821e-06
-0.00010061507
6.9479956e-07
-0.00010006165
-7.1011231e-08
-9.9942648e-05
-1.6596215e-07
-9.9920775e-05
-8.1311959e-08
-9.9913227e-05
1.0435749e-08
-9.9908391e-05
-9.9909392e-05
57.572312
-0.034910879