/*--------------------------------*- C++ -*----------------------------------*\
| =========                 |                                                 |
| \\      /  F ield         | OpenFOAM: The Open Source CFD Toolbox           |
|  \\    /   O peration     | Version:  4.0                                   |
|   \\  /    A nd           | Web:      www.OpenFOAM.org                      |
|    \\/     M anipulation  |                                                 |
\*---------------------------------------------------------------------------*/
FoamFile
{
    version     2.0;
    format      ascii;
    class       volScalarField;
    location    "760";
    object      T;
}
// * * * * * * * * * * * * * * * * * * * * * * * * * * * * * * * * * * * * * //

dimensions      [0 0 0 1 0 0 0];

internalField   nonuniform List<scalar> 
5000
(
365.0998
360.65046
355.92385
350.95743
345.80312
340.5274
335.21015
329.94195
324.81978
319.94121
315.39746
311.26631
307.60558
304.44856
301.8021
299.64784
297.94637
296.6434
295.67673
294.98273
294.50142
294.17985
293.97368
293.84754
293.77441
293.73463
293.71457
293.70535
293.70158
293.70028
293.69993
293.69988
293.6999
293.69992
293.69992
293.69992
293.69992
293.69992
293.69992
293.69992
293.69992
293.69992
293.69992
293.69992
293.69992
293.69992
293.69993
293.69993
293.69993
293.69992
384.64711
381.01006
377.10003
372.90243
368.40628
363.60705
358.5103
353.13608
347.52341
341.73429
335.85589
329.99966
324.29616
318.88496
313.90057
309.45633
305.63005
302.45496
299.91855
297.96921
296.52841
295.50465
294.8059
294.34851
294.06215
293.89136
293.79488
293.74366
293.71834
293.70685
293.70214
293.70044
293.69992
293.69979
293.69977
293.69978
293.69978
293.69978
293.69978
293.69978
293.69978
293.69978
293.69978
293.69978
293.69978
293.69978
293.69978
293.69978
293.69978
293.69978
390.09699
386.70043
383.05535
379.15106
374.97833
370.53042
365.8046
360.80434
355.54236
350.04453
344.35434
338.5372
332.68316
326.9065
321.34016
316.12438
311.39041
307.24244
303.74276
300.90437
298.69336
297.03964
295.85201
295.03323
294.49177
294.14892
293.94168
293.82267
293.75815
293.7254
293.71001
293.70339
293.70083
293.69996
293.6997
293.69964
293.69963
293.69963
293.69963
293.69963
293.69963
293.69963
293.69963
293.69963
293.69963
293.69963
293.69963
293.69963
293.69963
293.69963
392.8967
389.62422
386.1137
382.35548
378.34133
374.06531
369.5247
364.7215
359.66427
354.3706
348.87022
343.2085
337.44996
331.68071
326.00834
320.55753
315.46022
310.84066
306.79817
303.39228
300.63487
298.49194
296.89385
295.75026
294.96508
294.44818
294.12242
293.92647
293.81447
293.75402
293.72346
293.70914
293.70299
293.70062
293.6998
293.69956
293.6995
293.69949
293.69949
293.69949
293.69949
293.69949
293.69949
293.69949
293.69949
293.69949
293.69949
293.69949
293.69949
293.69949
394.88136
391.69727
388.28216
384.62661
380.72251
376.56374
372.14703
367.47319
362.54859
357.38719
352.01296
346.4627
340.78903
335.06296
329.37517
323.83458
318.56293
313.68427
309.31047
305.52537
302.37216
299.84815
297.9087
296.4785
295.46634
294.77899
294.33143
294.05251
293.88665
293.79301
293.74313
293.71828
293.70683
293.70201
293.70018
293.69957
293.69939
293.69935
293.69934
293.69934
293.69934
293.69934
293.69934
293.69934
293.69934
293.69934
293.69934
293.69934
293.69934
293.69934
396.4239
393.3088
389.96804
386.39231
382.57346
378.50512
374.18341
369.60805
364.78366
359.72152
354.44173
348.97568
343.36879
337.68299
331.99837
326.41298
321.03944
315.99747
311.40206
307.34897
303.90082
301.07799
298.85762
297.18069
295.96483
295.1185
294.55313
294.19103
293.96919
293.83963
293.76791
293.73053
293.71238
293.70424
293.70093
293.69972
293.69933
293.69922
293.6992
293.69919
293.69919
293.69919
293.69919
293.69919
293.69919
293.69919
293.69919
293.69919
293.69919
293.69919
397.68421
394.62567
391.34586
387.83556
384.08661
380.09241
375.84862
371.35409
366.61207
361.63176
356.43025
351.03485
345.4856
339.8378
334.16384
328.55367
323.11267
317.95599
313.19879
308.94315
305.26424
302.19932
299.74325
297.85212
296.45349
295.45997
294.78217
294.33831
294.05974
293.89263
293.79724
293.74574
293.71966
293.7074
293.70211
293.70005
293.69933
293.69912
293.69906
293.69905
293.69905
293.69905
293.69905
293.69905
293.69905
293.69905
293.69905
293.69905
293.69905
293.69905
398.74209
395.73116
392.50265
389.04743
385.35733
381.4256
377.24755
372.82139
368.14929
363.23884
358.1048
352.77127
347.27406
341.66318
336.00489
330.38254
324.89541
319.65429
314.77327
310.35801
306.4923
303.22609
300.56877
298.48983
296.92676
295.79745
295.0134
294.49042
294.15563
293.95036
293.83024
293.76351
293.72857
293.71148
293.70376
293.70059
293.69942
293.69904
293.69893
293.69891
293.6989
293.6989
293.6989
293.6989
293.6989
293.6989
293.6989
293.6989
293.6989
293.6989
399.65075
396.68084
393.49651
390.08873
386.44933
382.57148
378.45021
374.08322
369.47187
364.62244
359.54786
354.26961
348.82011
343.24504
337.60555
331.97942
326.46056
321.1556
316.17694
311.63217
307.61122
304.17396
301.34182
299.09615
297.38395
296.12894
295.24451
294.64533
294.25531
294.01176
293.86628
293.78352
293.73898
293.71647
293.70592
293.70137
293.69961
293.699
293.69881
293.69877
293.69876
293.69875
293.69875
293.69875
293.69875
293.69875
293.69875
293.69875
293.69876
293.69876
400.44467
397.51066
394.36502
390.99878
387.4038
383.57317
379.50174
375.1868
370.62903
365.83371
360.81222
355.58395
350.17848
344.63791
339.01903
333.39486
327.85449
322.50061
317.44354
312.79173
308.63952
305.05466
302.0687
299.67357
297.82521
296.45335
295.47404
294.80158
294.35758
294.07597
293.90481
293.80548
293.75075
293.72234
293.70857
293.70242
293.69991
293.699
293.69871
293.69863
293.69861
293.69861
293.69861
293.69861
293.69861
293.69861
293.69861
293.69861
293.69861
293.69861
401.14817
398.24604
395.13475
391.80539
388.24987
384.46122
380.43413
376.16557
371.65568
366.90889
361.93533
356.75263
351.38798
345.88043
340.28309
334.66476
329.11025
323.71851
318.59758
313.85601
309.59134
305.87758
302.75493
300.22469
298.25124
296.77036
295.70115
294.95827
294.46162
294.14236
293.94539
293.82911
293.76376
293.72902
293.71172
293.70372
293.70035
293.69906
293.69863
293.6985
293.69847
293.69846
293.69846
293.69846
293.69846
293.69846
293.69846
293.69846
293.69846
293.69846
401.77869
398.90518
395.82472
392.52849
389.0084
385.25747
381.27025
377.04346
372.5768
367.87396
362.94404
357.80317
352.47651
347.00051
341.42503
335.8152
330.25196
324.83075
319.65724
314.83956
310.47747
306.6501
303.40498
300.75183
298.66289
297.07989
295.92535
295.11474
294.56682
294.21043
293.98765
293.85419
293.77787
293.73647
293.71535
293.70531
293.70092
293.69918
293.69857
293.69838
293.69833
293.69832
293.69832
293.69832
293.69832
293.69832
293.69832
293.69832
293.69832
293.69832
402.34916
399.5016
396.44908
393.18286
389.69489
385.97816
382.02713
377.8383
373.41098
368.74828
363.85839
358.75614
353.46497
348.01904
342.4654
336.86588
331.29794
325.85374
320.63653
315.75368
311.30649
307.37817
304.0226
301.25701
299.06096
297.38204
296.14634
295.27056
294.67273
294.27978
294.03131
293.8805
293.79296
293.74463
293.71944
293.70716
293.70164
293.69937
293.69854
293.69827
293.69819
293.69817
293.69817
293.69817
293.69817
293.69817
293.69817
293.69817
293.69817
293.69817
402.86944
400.04557
397.01857
393.77977
390.32114
386.63566
382.71772
378.56364
374.1724
369.54659
364.69363
359.62724
354.36933
348.95206
343.41999
337.83202
332.26242
326.80029
321.54651
316.60742
312.0853
308.0667
304.61093
301.74198
299.44624
297.67697
296.36394
295.42537
294.77899
294.35009
294.07609
293.90787
293.80892
293.75343
293.72397
293.70929
293.7025
293.69963
293.69854
293.69817
293.69806
293.69803
293.69802
293.69802
293.69802
293.69802
293.69802
293.69802
293.69802
293.69802
403.34717
400.54508
397.54155
394.32795
390.8963
387.23958
383.3521
379.23002
374.87207
370.28037
365.46166
360.42871
355.20207
349.81214
344.30125
338.72565
333.15671
327.68068
322.39609
317.40811
312.8196
308.71977
305.17266
302.20831
299.81947
297.96486
296.57803
295.57895
294.8853
294.4211
294.1218
293.93614
293.82565
293.76282
293.72891
293.71168
293.70352
293.69997
293.69857
293.69808
293.69793
293.69789
293.69788
293.69788
293.69788
293.69788
293.69788
293.69788
293.69788
293.69788
403.78841
401.00647
398.02463
394.83434
391.42764
387.79752
383.93823
379.84581
375.51872
370.95873
366.17195
361.1703
355.97314
350.60929
345.11909
339.55639
333.98991
328.5032
323.19255
318.16184
313.51414
309.34085
305.71008
302.65736
300.18132
298.24596
296.78858
295.73112
294.99146
294.4926
294.16826
293.96519
293.84305
293.77274
293.73423
293.71431
293.70468
293.70039
293.69864
293.69801
293.6978
293.69775
293.69773
293.69773
293.69773
293.69773
293.69773
293.69773
293.69773
293.69773
404.19803
401.43481
398.47314
395.30451
391.921
388.31561
384.48254
380.41772
376.1194
371.589
366.83211
361.85986
356.69058
351.35165
345.8816
340.33213
334.76948
329.27472
323.94194
318.87366
314.17294
309.93291
306.22523
303.09036
300.53243
298.52048
296.99558
295.88174
295.09729
294.56442
294.2153
293.99488
293.86103
293.78313
293.7399
293.71718
293.70599
293.70088
293.69875
293.69795
293.69768
293.69761
293.69759
293.69758
293.69758
293.69758
293.69758
293.69758
293.69759
293.69759
404.58001
401.83426
398.89142
395.743
392.38116
388.79886
384.99028
380.95126
376.67986
372.17718
367.44836
362.50384
357.36097
352.04587
346.59543
341.05935
335.50161
330.00093
324.64932
319.54787
314.79943
310.49852
306.71988
303.50842
300.8734
298.78868
297.19906
296.03072
295.20264
294.6364
294.26281
294.02512
293.87954
293.79395
293.74589
293.72028
293.70744
293.70146
293.6989
293.69791
293.69757
293.69747
293.69744
293.69744
293.69744
293.69744
293.69744
293.69744
293.69744
293.69744
404.93763
402.20826
399.28306
396.1536
392.81204
389.25139
385.46578
381.45097
377.20485
372.72825
368.02588
363.10756
357.98979
352.6975
347.26611
341.74348
336.19149
330.68667
325.319
320.18814
315.39658
311.03992
307.19558
303.91253
301.20478
299.05079
297.39906
296.17802
295.30743
294.70845
294.31068
294.05583
293.89849
293.80516
293.75218
293.72358
293.70903
293.70212
293.69909
293.69789
293.69747
293.69734
293.6973
293.69729
293.69729
293.69729
293.69729
293.69729
293.69729
293.69729
405.27365
402.55968
399.65106
396.53942
393.21696
389.67667
385.91267
381.92065
377.69835
373.24635
368.56897
363.67549
358.58161
353.3112
347.8983
342.38909
336.84351
331.33601
325.95464
320.79762
315.96695
311.55907
307.65374
304.30359
301.52708
299.30706
297.59565
296.32359
295.41156
294.78046
294.35883
294.08692
293.91784
293.81671
293.75874
293.72708
293.71074
293.70285
293.69933
293.69789
293.69737
293.6972
293.69716
293.69715
293.69715
293.69715
293.69715
293.69715
293.69715
293.69715
405.59036
402.89093
399.99796
396.90313
393.59868
390.0776
386.334
382.3635
378.16371
373.73498
369.0813
364.21142
359.14032
353.8909
348.49596
343.00009
337.46142
331.95247
326.55941
321.37905
316.51279
312.0577
308.0956
304.68243
301.84078
299.55772
297.7889
296.46741
295.51498
294.85236
294.40718
294.11834
293.93754
293.82856
293.76554
293.73077
293.71258
293.70366
293.6996
293.69792
293.69728
293.69708
293.69702
293.697
293.697
293.697
293.697
293.697
293.697
293.697
405.88976
403.20407
400.32591
397.24699
393.95956
390.45667
386.73238
382.78225
378.60379
374.19714
369.56597
364.71855
359.66922
354.43999
349.06247
343.57981
338.04846
332.53908
327.13607
321.93482
317.03608
312.53737
308.52227
305.04978
302.14633
299.80301
297.9789
296.6095
295.61765
294.92409
294.45566
294.15003
293.95753
293.8407
293.77258
293.73462
293.71454
293.70455
293.69992
293.69796
293.69721
293.69695
293.69688
293.69686
293.69685
293.69685
293.69685
293.69685
293.69685
293.69685
406.17351
403.50087
400.63675
397.57291
394.30165
390.816
387.11004
383.17925
379.02105
374.63539
370.02564
365.19967
360.17118
354.96136
349.60075
344.13115
338.60742
333.09847
327.68701
322.46703
317.53857
312.99944
308.93478
305.40633
302.44415
300.04313
298.16574
296.74986
295.71952
294.99561
294.50424
294.18195
293.97779
293.85308
293.77982
293.73863
293.7166
293.7055
293.70028
293.69802
293.69714
293.69683
293.69674
293.69671
293.69671
293.69671
293.69671
293.69671
293.69671
293.69671
406.4431
403.78285
400.93208
397.88259
394.62669
391.15744
387.4689
383.55652
379.4176
375.05194
370.46263
365.65716
360.64865
355.45753
350.11334
344.65662
339.14073
333.63295
328.21434
322.97754
318.02181
313.44514
309.33401
305.75271
302.73461
300.2783
298.3495
296.88849
295.82059
295.06687
294.55286
294.21406
293.99828
293.86568
293.78725
293.74279
293.71878
293.70653
293.70068
293.69811
293.69708
293.69672
293.6966
293.69657
293.69656
293.69656
293.69656
293.69656
293.69656
293.69656
406.69977
404.05134
401.21329
398.17746
394.9362
391.48258
387.81065
383.91582
379.79529
375.44872
370.87896
366.0931
361.10378
355.9307
350.60245
345.15842
339.65054
334.14455
328.71994
323.46799
318.48718
313.87557
309.72081
306.08947
303.01809
300.50872
298.53028
297.02544
295.92083
295.13784
294.60149
294.24632
294.01898
293.87849
293.79485
293.74708
293.72105
293.70762
293.70113
293.69822
293.69704
293.6966
293.69646
293.69642
293.69642
293.69641
293.69641
293.69641
293.69641
293.69641
406.94464
404.30749
401.48158
398.4588
395.23152
391.79282
388.13675
384.25867
380.15573
375.82742
371.27637
366.50933
361.53846
356.38279
351.07004
345.63848
340.13874
334.63506
329.20544
323.93985
318.93594
314.29174
310.09593
306.41715
303.29491
300.73458
298.70817
297.16072
296.02024
295.2085
294.65011
294.27871
294.03987
293.89148
293.80262
293.75151
293.72341
293.70877
293.70161
293.69835
293.697
293.6965
293.69633
293.69628
293.69627
293.69627
293.69627
293.69627
293.69627
293.69627
407.17869
404.55233
401.73803
398.72773
395.51381
392.08938
388.44849
384.58645
380.50034
376.18952
371.65641
366.90746
361.95434
356.81549
351.51781
346.09851
340.60699
335.10608
329.67233
324.39443
319.36919
314.69454
310.46003
306.73623
303.56539
300.95605
298.88324
297.29435
296.11881
295.27882
294.69869
294.31121
294.06091
293.90464
293.81054
293.75605
293.72587
293.70999
293.70213
293.69851
293.69698
293.69639
293.6962
293.69614
293.69612
293.69612
293.69612
293.69612
293.69612
293.69612
407.40278
404.78675
401.98358
398.98523
395.78412
392.37336
388.74701
384.90035
380.83038
376.53634
372.02047
367.2889
362.3529
357.23032
351.94728
346.54004
341.05679
335.55903
330.12192
324.83291
319.78795
315.0848
310.81376
307.04716
303.82982
301.17332
299.0556
297.42638
296.21655
295.34881
294.74721
294.34379
294.08209
293.91795
293.81859
293.76071
293.72841
293.71127
293.70269
293.69868
293.69696
293.6963
293.69607
293.696
293.69598
293.69598
293.69598
293.69598
293.69598
293.69598
407.61767
405.01155
402.21906
399.23218
396.04336
392.64572
389.03332
385.20142
381.14695
376.86904
372.36974
367.65492
362.73544
357.62862
352.35983
346.96442
341.48947
335.99519
330.5554
325.25635
320.19313
315.46326
311.15769
307.35034
304.08847
301.38653
299.22531
297.55684
296.31345
295.41843
294.79565
294.37644
294.1034
293.93141
293.82677
293.76547
293.73103
293.7126
293.70328
293.69888
293.69696
293.69621
293.69594
293.69586
293.69583
293.69583
293.69583
293.69583
293.69583
293.69583
407.82404
405.22745
402.44522
399.46936
396.29234
392.90732
389.30832
385.49061
381.45105
377.18866
372.70532
368.00665
363.10314
358.01157
352.75666
347.37287
341.90621
336.41568
330.97384
325.66572
320.58555
315.8306
311.49234
307.64615
304.34159
301.59585
299.39247
297.68575
296.40952
295.48769
294.84399
294.40913
294.12483
293.94499
293.83507
293.77033
293.73372
293.71399
293.70391
293.6991
293.69697
293.69612
293.69581
293.69572
293.69569
293.69568
293.69568
293.69568
293.69568
293.69568
408.0225
405.43509
402.66272
399.69746
396.53181
393.15892
389.57283
385.76877
381.74357
377.49613
373.02819
368.3451
363.45702
358.38025
353.13886
347.76647
342.30809
336.82157
331.3782
326.06188
320.96599
316.18745
311.81819
307.93496
304.58942
301.80141
299.55714
297.81314
296.50476
295.55656
294.89222
294.44186
294.14635
293.95868
293.84348
293.77528
293.73649
293.71542
293.70458
293.69934
293.697
293.69604
293.69569
293.69558
293.69555
293.69554
293.69554
293.69554
293.69554
293.69554
408.21361
405.63503
402.87217
399.91713
396.76242
393.40122
389.82757
386.03667
382.02531
377.7923
373.3392
368.67118
363.79805
358.73564
353.50741
348.14622
342.69609
337.21376
331.76936
326.44564
321.33512
316.53437
312.13571
308.21708
304.83218
302.00336
299.7194
297.93906
296.59919
295.62506
294.94034
294.47462
294.16796
293.97249
293.85199
293.78032
293.73933
293.71691
293.70528
293.6996
293.69703
293.69597
293.69557
293.69544
293.6954
293.69539
293.69539
293.69539
293.69539
293.69539
408.39785
405.82779
403.07411
400.12892
396.98477
393.63484
390.07319
386.29499
382.29698
378.0779
373.63917
368.98572
364.12706
359.07859
353.86321
348.513
343.07108
337.59313
332.14811
326.81772
321.69358
316.8719
312.44529
308.49282
305.07008
302.20181
299.87932
298.06353
296.69281
295.69317
294.98832
294.50738
294.18964
293.98639
293.8606
293.78544
293.74223
293.71845
293.70601
293.69988
293.69708
293.6959
293.69545
293.6953
293.69526
293.69525
293.69524
293.69524
293.69524
293.69524
408.57568
406.01384
403.26902
400.33334
397.19939
393.86035
390.31028
386.54436
382.55925
378.35363
373.92879
369.28945
364.44482
359.40992
354.20705
348.86762
343.43387
337.96044
332.5152
327.17878
322.04195
317.20051
312.74732
308.76246
305.30331
302.39691
300.03698
298.18659
296.78562
295.76089
295.03617
294.54014
294.21139
294.00038
293.8693
293.79064
293.74519
293.72003
293.70677
293.70018
293.69713
293.69583
293.69534
293.69516
293.69511
293.6951
293.6951
293.6951
293.6951
293.6951
408.74749
406.19361
403.45735
400.53087
397.40677
394.07826
390.53939
386.78533
382.81271
378.62012
374.20872
369.58305
364.75205
359.73033
354.53968
349.21083
343.78518
338.31639
332.87128
327.52943
322.38077
317.52067
313.04216
309.02628
305.53206
302.58875
300.19243
298.30826
296.87765
295.82822
295.08387
294.5729
294.23321
294.01445
293.87808
293.79591
293.74821
293.72165
293.70756
293.7005
293.6972
293.69578
293.69522
293.69503
293.69497
293.69496
293.69495
293.69495
293.69495
293.69495
408.91366
406.36748
403.6395
400.72192
397.60735
394.28903
390.76101
387.01843
383.05789
378.87791
374.47955
369.86714
365.04937
360.04048
354.86176
349.54329
344.12568
338.66164
333.21697
327.87023
322.71054
317.83278
313.33014
309.28451
305.7565
302.77746
300.34574
298.42857
296.9689
295.89516
295.13142
294.60564
294.25507
294.0286
293.88694
293.80126
293.75129
293.72332
293.70838
293.70084
293.69728
293.69573
293.69511
293.6949
293.69483
293.69481
293.69481
293.69481
293.69481
293.69481
409.07453
406.5358
403.81584
400.90688
397.80155
394.49309
390.97557
387.24411
383.29528
379.12754
374.74181
370.14228
365.33737
360.34097
355.1739
349.86563
344.45598
338.99678
333.55283
328.20171
323.0317
318.13723
313.61158
309.5374
305.9768
302.96313
300.49696
298.54756
297.05937
295.9617
295.17881
294.63836
294.27697
294.04282
293.89587
293.80666
293.75442
293.72502
293.70923
293.7012
293.69737
293.69568
293.69501
293.69476
293.69469
293.69467
293.69466
293.69466
293.69466
293.69466
409.2304
406.69889
403.98672
401.08611
397.98973
394.69083
391.18349
387.46282
383.52535
379.36947
374.99601
370.40898
365.61658
360.63235
355.47667
350.1784
344.77665
339.32236
333.87938
328.52433
323.34468
318.43439
313.88675
309.78515
306.1931
303.14586
300.64616
298.66525
297.14909
296.02785
295.22603
294.67104
294.29892
294.05711
293.90487
293.81213
293.7576
293.72677
293.71011
293.70158
293.69747
293.69565
293.6949
293.69463
293.69454
293.69452
293.69451
293.69451
293.69451
293.69451
409.38155
406.85706
404.15243
401.25992
398.17223
394.88261
391.38514
387.67494
383.74849
379.60413
375.24259
370.66773
365.8875
360.91513
355.77058
350.48213
345.0882
339.63888
334.1971
328.83854
323.64988
318.72457
314.15592
310.02798
306.40555
303.32575
300.7934
298.78167
297.23805
296.0936
295.2731
294.70369
294.32089
294.07145
293.91394
293.81766
293.76083
293.72855
293.71101
293.70197
293.69759
293.69561
293.6948
293.6945
293.6944
293.69438
293.69437
293.69437
293.69437
293.69437
409.52825
407.01056
404.31326
401.42862
398.34936
395.06875
391.58088
387.88083
383.96509
379.83193
375.48197
370.91894
366.15056
361.18978
356.05611
350.77731
345.39111
339.94681
334.50643
329.14476
323.94766
319.0081
314.41936
310.26607
306.61428
303.50289
300.93871
298.89685
297.32628
296.15897
295.31999
294.7363
294.34289
294.08584
293.92306
293.82324
293.7641
293.73037
293.71194
293.70238
293.69771
293.69559
293.6947
293.69437
293.69426
293.69423
293.69422
293.69422
293.69422
293.69422
409.67074
407.15966
404.46948
401.59249
398.52142
395.24956
391.771
388.08084
384.1755
380.05323
375.71454
371.16302
366.4062
361.45671
356.33369
351.06437
345.68582
340.24658
334.80779
329.44335
324.23836
319.28526
314.67729
310.4996
306.81944
303.67737
301.08217
299.01081
297.41377
296.22394
295.3667
294.76886
294.3649
294.10029
293.93224
293.82888
293.76742
293.73222
293.7129
293.70281
293.69785
293.69557
293.69461
293.69425
293.69412
293.69409
293.69408
293.69408
293.69407
293.69407
409.80923
407.30459
404.62132
401.75176
398.68866
395.42532
391.95582
388.27526
384.38005
380.26836
375.94065
371.40035
366.65479
361.71633
356.60373
351.34372
345.97274
340.53859
335.10156
329.73468
324.5223
319.55633
314.92994
310.72876
307.02113
303.84926
301.2238
299.12358
297.50055
296.28853
295.41325
294.80138
294.38694
294.11478
293.94148
293.83457
293.77078
293.73411
293.71388
293.70326
293.69799
293.69556
293.69452
293.69412
293.69398
293.69394
293.69393
293.69393
293.69393
293.69393
409.94393
407.44555
404.76902
401.90669
398.85134
395.59628
392.1356
388.46439
384.57903
380.47765
376.16062
371.63126
366.89669
361.96901
356.86661
351.61574
346.25226
340.82321
335.38808
330.01908
324.79977
319.82157
315.17751
310.95369
307.21948
304.01864
301.36367
299.23519
297.58662
296.35272
295.45961
294.83383
294.40898
294.12931
293.95076
293.8403
293.77419
293.73602
293.71488
293.70372
293.69815
293.69555
293.69443
293.694
293.69385
293.6938
293.69379
293.69378
293.69378
293.69378
410.07504
407.58274
404.91277
402.05749
399.00968
395.76268
392.31059
388.64848
384.77272
380.68139
376.37478
371.85607
367.13223
362.21508
357.12267
351.8808
346.52471
341.10078
335.66771
330.29685
325.07106
320.08121
315.42021
311.17456
307.4146
304.18559
301.50182
299.34566
297.672
296.41654
295.50579
294.86623
294.43104
294.14387
293.96009
293.84608
293.77763
293.73797
293.71591
293.7042
293.69831
293.69555
293.69435
293.69388
293.69371
293.69366
293.69364
293.69364
293.69364
293.69364
410.20272
407.71636
405.05277
402.20435
399.16389
395.92475
392.48102
388.82778
384.96138
380.87984
376.58338
372.07508
367.36171
362.45487
357.37225
352.13921
346.79044
341.37164
335.94073
330.56829
325.33642
320.33548
315.65822
311.3915
307.60659
304.35018
301.63828
299.45501
297.75669
296.47997
295.55179
294.89857
294.45309
294.15848
293.96947
293.8519
293.78111
293.73995
293.71696
293.70469
293.69849
293.69556
293.69427
293.69376
293.69357
293.69351
293.6935
293.69349
293.69349
293.69349
410.32713
407.84657
405.1892
402.34747
399.31418
396.0827
392.64712
389.00253
385.14524
381.07326
376.78671
372.28856
367.58543
362.68867
357.61564
352.39128
347.04975
341.63608
336.20745
330.83366
325.59609
320.58458
315.89171
311.60465
307.79555
304.51248
301.77311
299.56327
297.8407
296.54303
295.59761
294.93084
294.47515
294.17311
293.97888
293.85776
293.78462
293.74196
293.71803
293.7052
293.69868
293.69557
293.69419
293.69364
293.69343
293.69337
293.69335
293.69334
293.69334
293.69334
410.44845
407.97352
405.32223
402.48702
399.46072
396.2367
392.80909
389.17293
385.32454
381.26187
376.985
372.49677
367.80365
362.91675
357.85313
352.63731
347.30293
341.89439
336.46814
331.09322
325.85032
320.82873
316.12086
311.81414
307.98158
304.67254
301.90634
299.67045
297.92405
296.60571
295.64325
294.96305
294.49721
294.18777
293.98834
293.86367
293.78817
293.744
293.71913
293.70573
293.69888
293.69559
293.69412
293.69352
293.6933
293.69323
293.6932
293.6932
293.6932
293.6932
410.56679
408.09737
405.45201
402.62317
399.60368
396.38696
392.9671
389.33918
385.49948
381.44591
377.17849
372.69995
368.01661
363.13936
358.08497
352.87755
347.55024
342.14682
336.72305
331.34721
326.0993
321.06811
316.3458
312.0201
308.16476
304.83044
302.03801
299.77659
298.00674
296.66801
295.6887
294.99519
294.51926
294.20246
293.99783
293.86961
293.79176
293.74606
293.72024
293.70627
293.69909
293.69561
293.69405
293.69341
293.69317
293.69308
293.69306
293.69305
293.69305
293.69305
410.68231
408.21827
405.57869
402.75606
399.74324
396.53363
393.12135
389.50147
385.67025
381.62557
377.36738
372.89832
368.22456
363.35677
358.31142
353.11227
347.79194
342.39363
336.97241
331.59586
326.34326
321.30289
316.5667
312.22264
308.34519
304.98622
302.16816
299.8817
298.08878
296.72995
295.73397
295.02726
294.5413
294.21717
294.00736
293.87559
293.79537
293.74815
293.72138
293.70683
293.69931
293.69565
293.69399
293.69329
293.69303
293.69294
293.69292
293.69291
293.69291
293.69291
410.79511
408.33633
405.7024
402.88584
399.87952
396.67687
393.27199
389.65996
385.83704
381.80105
377.55188
373.0921
368.4277
363.56917
358.53271
353.34169
348.02826
342.63505
337.21646
331.83936
326.58238
321.53324
316.7837
312.42187
308.52295
305.13996
302.29682
299.9858
298.17019
296.79152
295.77905
295.05925
294.56333
294.2319
294.01692
293.8816
293.79902
293.75027
293.72253
293.7074
293.69953
293.69568
293.69392
293.69318
293.6929
293.6928
293.69277
293.69276
293.69276
293.69276
410.90533
408.45167
405.82328
403.01265
400.01269
396.81682
393.41919
389.81484
386.00001
381.97252
377.73218
373.28146
368.62624
363.7768
358.74906
353.56603
348.25942
342.87129
337.45541
332.07793
326.81683
321.75933
316.99692
312.6179
308.69811
305.2917
302.42404
300.08891
298.25097
296.85273
295.82394
295.09117
294.58535
294.24665
294.02652
293.88765
293.8027
293.75241
293.72371
293.70798
293.69977
293.69573
293.69387
293.69308
293.69277
293.69266
293.69263
293.69262
293.69261
293.69261
411.01306
408.56443
405.94143
403.1366
400.14286
396.95364
393.56308
389.96623
386.15933
382.14015
377.90845
373.46661
368.82038
363.97984
358.96066
353.78551
348.48564
343.10257
337.68945
332.31175
327.0468
321.9813
317.2065
312.81082
308.87075
305.4415
302.54984
300.19105
298.33114
296.91358
295.86866
295.12301
294.60736
294.26142
294.03614
293.89373
293.80641
293.75458
293.7249
293.70858
293.70002
293.69578
293.69381
293.69297
293.69264
293.69252
293.69248
293.69247
293.69247
293.69247
411.11841
408.67469
406.05698
403.25782
400.27016
397.08744
393.7038
390.1143
386.31515
382.3041
378.08086
373.64772
369.01029
364.17849
359.16772
354.00031
348.7071
343.32908
337.91877
332.541
327.27244
322.1993
317.41255
313.00075
309.04094
305.5894
302.67425
300.29224
298.4107
296.97407
295.91319
295.15478
294.62935
294.27621
294.04579
293.89984
293.81015
293.75677
293.72612
293.70919
293.70028
293.69584
293.69376
293.69287
293.69251
293.69238
293.69234
293.69233
293.69232
293.69232
411.22148
408.78257
406.17002
403.37642
400.39471
397.21834
393.84148
390.25917
386.46761
382.46452
378.24956
373.82494
369.19614
364.37291
359.3704
354.21063
348.924
343.551
338.14355
332.76584
327.49392
322.41346
317.61519
313.18775
309.20876
305.73546
302.79731
300.3925
298.48966
297.03422
295.95753
295.18647
294.65132
294.291
294.05547
293.90598
293.81391
293.75899
293.72735
293.70982
293.70055
293.6959
293.69372
293.69276
293.69238
293.69224
293.69219
293.69218
293.69218
293.69217
411.32236
408.88815
406.28067
403.4925
400.51661
397.34648
393.97625
390.40097
386.61685
382.62155
378.4147
373.99843
369.3781
364.56328
359.56889
354.41663
349.13651
343.7685
338.36396
332.98644
327.71136
322.62391
317.81453
313.37193
309.37426
305.87972
302.91905
300.49185
298.56804
297.09401
296.00169
295.21808
294.67328
294.30582
294.06518
293.91215
293.81771
293.76123
293.7286
293.71047
293.70083
293.69598
293.69368
293.69266
293.69225
293.6921
293.69205
293.69203
293.69203
293.69203
411.42113
408.99153
406.38901
403.60617
400.63598
397.47194
394.10821
390.53983
386.76298
382.77532
378.57643
374.16834
369.55631
364.74975
359.76334
354.61848
349.34479
343.98175
338.58015
333.20294
327.92492
322.83078
318.01067
313.55337
309.53752
306.02223
303.03949
300.5903
298.64583
297.15346
296.04567
295.24961
294.69522
294.32064
294.07491
293.91835
293.82153
293.76349
293.72987
293.71112
293.70112
293.69605
293.69364
293.69257
293.69213
293.69196
293.69191
293.69189
293.69188
293.69188
411.51788
409.09279
406.49513
403.7175
400.7529
397.59484
394.23747
390.67584
386.90613
382.92596
378.73486
374.3348
369.73092
364.93246
359.95391
354.81634
349.549
344.1909
338.79229
333.41548
328.13473
323.03418
318.2037
313.73215
309.69858
306.16302
303.15867
300.68787
298.72306
297.21257
296.08946
295.28106
294.71713
294.33547
294.08467
293.92458
293.82538
293.76578
293.73116
293.71179
293.70142
293.69614
293.69361
293.69247
293.69201
293.69183
293.69176
293.69174
293.69174
293.69174
411.61268
409.19201
406.59911
403.8266
400.86748
397.71527
394.36414
390.80913
387.04641
383.07358
378.89012
374.49794
369.90206
365.11157
360.14073
355.01035
349.74928
344.3961
339.0005
333.62422
328.3409
323.23421
318.39374
313.90833
309.85752
306.30215
303.27661
300.78457
298.79972
297.27135
296.13308
295.31243
294.73903
294.35032
294.09444
293.93083
293.82925
293.76809
293.73247
293.71248
293.70173
293.69623
293.69358
293.69238
293.69188
293.69169
293.69162
293.6916
293.69159
293.69159
411.7056
409.28927
406.70104
403.93354
400.97979
397.83332
394.4883
390.93979
387.18393
383.2183
379.04234
374.65788
370.06985
365.28719
360.32395
355.20064
349.94578
344.59749
339.20492
333.82926
328.54356
323.431
318.58085
314.08201
310.01438
306.43965
303.39334
300.88043
298.87583
297.32979
296.17651
295.34371
294.7609
294.36517
294.10424
293.93712
293.83315
293.77042
293.73379
293.71317
293.70205
293.69633
293.69355
293.69229
293.69176
293.69155