/*--------------------------------*- C++ -*----------------------------------*\
| =========                 |                                                 |
| \\      /  F ield         | OpenFOAM: The Open Source CFD Toolbox           |
|  \\    /   O peration     | Version:  4.0                                   |
|   \\  /    A nd           | Web:      www.OpenFOAM.org                      |
|    \\/     M anipulation  |                                                 |
\*---------------------------------------------------------------------------*/
FoamFile
{
    version     2.0;
    format      ascii;
    class       volVectorField;
    location    "760";
    object      U;
}
// * * * * * * * * * * * * * * * * * * * * * * * * * * * * * * * * * * * * * //

dimensions      [0 1 -1 0 0 0 0];

internalField   nonuniform List<vector> 
5000
(
(7.576204e-06 4.3382414e-21 0.0073428438)
(3.2247618e-05 1.329337e-20 0.021257747)
(9.3206385e-05 2.3284369e-20 0.034929829)
(0.00017366416 3.0448542e-20 0.048133144)
(0.00027437162 3.5961745e-20 0.060624217)
(0.00038851002 3.9043056e-20 0.072151268)
(0.00050766919 2.8440353e-20 0.082466627)
(0.00062255521 3.8885697e-20 0.091341912)
(0.00072330834 2.6947206e-20 0.098585129)
(0.00080054215 1.7541449e-20 0.10405825)
(0.00084636746 1.0236298e-20 0.10769327)
(0.00085535593 4.0174667e-21 0.10950424)
(0.00082530753 1.6147897e-20 0.10959294)
(0.00075764951 1.6131794e-20 0.1081461)
(0.0006573506 1.830809e-20 0.10542343)
(0.00053230956 1.5809751e-20 0.10173713)
(0.00039228858 1.8766413e-20 0.09742536)
(0.0002475816 3.1099312e-20 0.092823235)
(0.00010772317 5.0468273e-20 0.088235488)
(-1.9179456e-05 -1.107136e-20 0.083914312)
(-0.00012849155 -3.3697183e-20 0.080044897)
(-0.0002179196 -1.8555162e-20 0.076739201)
(-0.00028615543 -4.1010744e-21 0.074038819)
(-0.00033460658 4.1126625e-21 0.071924934)
(-0.00036596477 8.7920508e-21 0.070333484)
(-0.00038363427 8.1540722e-21 0.069173005)
(-0.00039127227 -4.4738646e-21 0.06834234)
(-0.00039239795 -5.6027333e-21 0.067745547)
(-0.00039007819 2.5691249e-21 0.067302067)
(-0.00038670346 -1.5749007e-20 0.066951402)
(-0.0003838796 -1.4334009e-20 0.06665289)
(-0.00038244287 6.0635624e-21 0.066382168)
(-0.00038258718 -7.1055358e-22 0.066126271)
(-0.0003840602 6.70772e-22 0.065878998)
(-0.00038637689 6.2213956e-22 0.06563747)
(-0.00038901809 4.5628235e-21 0.065400019)
(-0.0003915899 4.6945986e-21 0.065165134)
(-0.00039392213 -4.6963739e-21 0.064930982)
(-0.0003962462 -8.4009554e-22 0.064695251)
(-0.00039901575 7.443588e-21 0.064454923)
(-0.00040340797 1.114943e-20 0.064206101)
(-0.00041101368 -2.0371462e-21 0.063944214)
(-0.00042277606 -2.9853073e-21 0.063661236)
(-0.00044586108 -2.1136518e-21 0.063351761)
(-0.00047442667 1.1441237e-21 0.062997659)
(-0.00053215722 0 0.062583737)
(-0.00061657013 3.2231311e-21 0.062107049)
(-0.00070606547 1.2347401e-21 0.061419771)
(-0.0010967468 4.1182368e-21 0.061309777)
(-0.00071816352 -9.643724e-22 0.055393805)
(-6.6489742e-06 2.2272397e-21 0.0089014743)
(-4.0499573e-05 6.0239553e-21 0.025987982)
(-0.00010696382 9.1426798e-21 0.043035657)
(-0.00021300774 1.5805599e-20 0.059796573)
(-0.00036221975 1.9127949e-20 0.075981969)
(-0.00055804976 3.9001395e-20 0.091265403)
(-0.00080346356 5.3591595e-20 0.10529042)
(-0.0011006 3.4867821e-20 0.11768415)
(-0.0014504001 5.7588051e-20 0.12807814)
(-0.0018520983 3.6747536e-20 0.13613668)
(-0.0023025526 4.8324888e-20 0.14159192)
(-0.0027954589 9.8738257e-20 0.14428278)
(-0.0033205834 -1.5904123e-20 0.14419178)
(-0.0038632417 -9.3423301e-20 0.14147206)
(-0.0044043193 -1.7047653e-19 0.13645491)
(-0.0049210969 -1.930035e-19 0.12963074)
(-0.005388999 -2.397068e-19 0.12160118)
(-0.0057841295 -2.504931e-19 0.11300934)
(-0.006086176 1.3651415e-19 0.10446236)
(-0.0062809976 5.2755677e-19 0.096464364)
(-0.0063623432 2.4885203e-20 0.089373794)
(-0.0063322147 -3.5698856e-19 0.083390712)
(-0.0061998768 -2.0470422e-19 0.07857032)
(-0.0059800966 -1.4082289e-19 0.074853811)
(-0.0056908947 -1.4143441e-19 0.072106176)
(-0.0053514008 -1.9044618e-19 0.070152822)
(-0.0049800953 -2.1371964e-19 0.06881007)
(-0.0045935494 -2.5627318e-20 0.067907391)
(-0.0042056569 1.0933611e-19 0.067301113)
(-0.0038273011 -3.5521589e-20 0.066880428)
(-0.003466395 -1.7191845e-20 0.066567145)
(-0.0031282259 -5.5060378e-20 0.066311072)
(-0.0028160007 -4.7243431e-20 0.066083162)
(-0.0025314658 -4.959853e-21 0.06586837)
(-0.0022754699 2.7863841e-20 0.065659676)
(-0.0020483701 1.7226345e-20 0.065453913)
(-0.0018503333 -1.5816713e-20 0.065249346)
(-0.0016813207 -2.1580278e-20 0.065044468)
(-0.0015412899 3.7250426e-20 0.064837486)
(-0.0014305978 1.1547597e-20 0.064626372)
(-0.0013477985 -1.0094788e-19 0.064407683)
(-0.0012973454 -2.4721337e-20 0.06417904)
(-0.0012736084 -3.902087e-21 0.063934504)
(-0.0012848205 6.3340273e-20 0.063665126)
(-0.00134989 8.0644986e-21 0.063383267)
(-0.0013932725 1.2398376e-21 0.063006291)
(-0.0016891268 -1.5278786e-20 0.062707441)
(-0.0016477442 -4.2148443e-21 0.062277312)
(-0.0024662589 -2.3791424e-20 0.063197357)
(-0.001730847 -2.138374e-21 0.051637711)
(-3.6096172e-06 -2.429732e-20 0.010556321)
(-2.5733287e-05 -7.2626051e-20 0.030949053)
(-6.8872044e-05 -1.2202388e-19 0.051450482)
(-0.00013981116 -1.555578e-19 0.071791677)
(-0.00024281263 -1.9742113e-19 0.091652952)
(-0.0003824412 -2.2945833e-19 0.11066367)
(-0.00056330453 -2.6927685e-19 0.12840583)
(-0.00078976941 -3.4381975e-19 0.14442317)
(-0.001065657 -3.8785777e-19 0.15823772)
(-0.0013938539 -3.8340851e-19 0.16937591)
(-0.001775805 -3.8186891e-19 0.17740539)
(-0.0022108594 -3.5803146e-19 0.18198245)
(-0.0026954572 -2.3624488e-19 0.18290658)
(-0.0032221918 -1.2951043e-19 0.18017484)
(-0.0037788932 -2.7874183e-20 0.17402381)
(-0.0043480211 7.4799316e-20 0.16494414)
(-0.0049067883 1.7085505e-19 0.15365453)
(-0.0054284167 9.0195386e-20 0.14103018)
(-0.0058846782 4.8253947e-19 0.12799537)
(-0.0062494195 1.1002102e-18 0.11540374)
(-0.006502274 5.9849106e-19 0.10393638)
(-0.0066316017 -1.6289892e-19 0.094041734)
(-0.0066358734 -1.8850604e-19 0.085925658)
(-0.0065232303 -2.1362376e-19 0.079583665)
(-0.0063095841 -2.1301278e-19 0.074857707)
(-0.0060158849 -2.2410934e-19 0.071499059)
(-0.0056652421 -2.2186048e-19 0.069223976)
(-0.0052803952 -6.0784555e-20 0.067755556)
(-0.0048818012 1.1313254e-19 0.066850553)
(-0.0044864141 -1.160529e-19 0.066312865)
(-0.0041071222 -6.7389354e-20 0.065996613)
(-0.0037527554 2.5893751e-19 0.065801895)
(-0.0034285374 -3.5982774e-20 0.065666189)
(-0.0031368281 1.9411652e-20 0.065554101)
(-0.0028780103 7.264745e-20 0.065447699)
(-0.0026512614 9.6778777e-20 0.065338873)
(-0.0024553096 2.0080263e-19 0.065224236)
(-0.0022890564 -2.8077244e-20 0.065102308)
(-0.0021508774 -1.0110742e-19 0.064971891)
(-0.0020424046 8.0309379e-20 0.064832316)
(-0.0019609484 1.4205518e-19 0.064681842)
(-0.0019097399 -4.8174768e-20 0.064517744)
(-0.0019024393 -8.1804688e-20 0.064345462)
(-0.0018911732 -1.7424797e-19 0.064135454)
(-0.0020324773 6.4751923e-21 0.063954106)
(-0.0019997097 -1.2678227e-20 0.063640762)
(-0.0024376635 8.294795e-20 0.06351453)
(-0.0023940136 8.8769651e-21 0.063682263)
(-0.0031065598 1.0957889e-19 0.064617561)
(-0.0020502045 -7.1011258e-21 0.047056094)
(-2.4037909e-06 -7.3186227e-20 0.011861557)
(-1.8223494e-05 -2.2235627e-19 0.034880978)
(-4.8985821e-05 -3.7419195e-19 0.058151377)
(-0.00010008422 -5.4368251e-19 0.081395812)
(-0.00017515752 -7.2833948e-19 0.10428068)
(-0.00027834403 -8.8119623e-19 0.1264134)
(-0.00041416522 -9.3706422e-19 0.14734321)
(-0.00058738212 -9.0994749e-19 0.16656674)
(-0.00080281416 -8.5543998e-19 0.18354045)
(-0.0010650605 -8.3237016e-19 0.19770233)
(-0.0013780857 -7.2701295e-19 0.20850523)
(-0.0017446401 -7.9362808e-19 0.21546325)
(-0.0021654983 -9.7839337e-19 0.21821074)
(-0.0026385223 -1.0620223e-18 0.21656944)
(-0.0031576111 -8.7775583e-19 0.21061375)
(-0.0037116946 -8.4700804e-19 0.2007183)
(-0.0042840575 -8.0990381e-19 0.18756813)
(-0.0048524029 -7.6681248e-19 0.17211531)
(-0.0053900668 -4.6492516e-19 0.15547764)
(-0.0058685644 2.3828793e-19 0.13879546)
(-0.006261181 6.1659351e-20 0.12308011)
(-0.0065467993 -8.655067e-20 0.10909397)
(-0.0067129237 -1.8584476e-19 0.097290246)
(-0.0067570818 -2.3517189e-19 0.087818367)
(-0.0066863669 -4.1910423e-19 0.0805797)
(-0.0065154814 -5.8701472e-19 0.075308099)
(-0.0062639829 -7.4900056e-19 0.071651439)
(-0.0059534411 -5.7085806e-19 0.069238742)
(-0.0056050108 -8.14654e-20 0.067726813)
(-0.005237675 -1.3590031e-19 0.066826857)
(-0.0048672052 -1.040274e-19 0.066314807)
(-0.0045057739 2.732751e-19 0.066029936)
(-0.0041620999 6.5078213e-20 0.065866089)
(-0.0038419505 4.2541434e-20 0.065759261)
(-0.0035489156 1.2861239e-19 0.065674645)
(-0.0032851306 2.2534146e-19 0.065595377)
(-0.0030516936 3.2787162e-19 0.065514196)
(-0.0028502143 -1.7530591e-19 0.065428394)
(-0.0026801741 -5.2509696e-20 0.065336648)
(-0.0025435767 1.6265595e-19 0.065238158)
(-0.0024453085 4.704733e-19 0.065133982)
(-0.0023653088 1.9446721e-20 0.065016063)
(-0.0023723842 4.2854796e-20 0.064904597)
(-0.002313425 -2.8340383e-19 0.064749841)
(-0.0024974345 5.6638255e-21 0.064640538)
(-0.0024292585 1.2052276e-19 0.064430403)
(-0.0028410266 1.0937473e-19 0.064465053)
(-0.0028845481 2.9104191e-20 0.065288671)
(-0.0032733592 1.4986999e-19 0.065208406)
(-0.001875557 6.2756296e-21 0.042406911)
(-1.8142449e-06 -3.8401677e-20 0.012862948)
(-1.4135654e-05 -1.1842793e-19 0.037909929)
(-3.8029912e-05 -2.0290195e-19 0.063333306)
(-7.7824454e-05 -3.1262704e-19 0.088854931)
(-0.00013647918 -4.4098916e-19 0.1141367)
(-0.00021741891 -5.8468688e-19 0.13877685)
(-0.00032448009 -6.913599e-19 0.16230879)
(-0.0004618502 -7.0781552e-19 0.18420409)
(-0.00063399308 -6.5488983e-19 0.20388159)
(-0.0008455099 -6.598928e-19 0.22072505)
(-0.0011008945 -6.3681143e-19 0.23411205)
(-0.0014041425 -6.6804934e-19 0.24345649)
(-0.001758172 -9.1466391e-19 0.24826592)
(-0.0021640225 -1.1908173e-18 0.24821179)
(-0.0026198417 -1.2068849e-18 0.24320584)
(-0.0031197417 -1.0931008e-18 0.23346924)
(-0.0036527228 -9.9342387e-19 0.21957431)
(-0.0042020037 -7.0116659e-19 0.20243635)
(-0.0047451995 -3.6515607e-19 0.18323998)
(-0.0052557452 -1.5138514e-19 0.16330189)
(-0.0057056708 -2.8079889e-19 0.14389629)
(-0.0060693209 -5.7709678e-19 0.1260873)
(-0.006327135 -5.2917897e-19 0.11061264)
(-0.0064684451 -5.5323162e-19 0.097843334)
(-0.006492577 -6.2442551e-19 0.087816476)
(-0.0064081353 -7.2906241e-19 0.080316286)
(-0.0062309087 -7.9275141e-19 0.074972505)
(-0.0059810895 -8.0369985e-19 0.071350946)
(-0.0056804653 -7.8667958e-19 0.069022567)
(-0.0053500341 -6.1907472e-19 0.067607642)
(-0.0050082713 -2.938221e-19 0.06679785)
(-0.0046701044 -1.3045685e-19 0.066361565)
(-0.0043465719 2.4836197e-20 0.066137819)
(-0.0040450025 1.0774933e-19 0.066023727)
(-0.0037696472 1.795906e-19 0.065959388)
(-0.003522736 2.1908193e-19 0.065913422)
(-0.0033045251 1.4893969e-19 0.06587112)
(-0.0031158716 -2.6729185e-19 0.065826477)
(-0.0029571536 1.0985486e-19 0.06577744)
(-0.0028231624 1.5214693e-19 0.06572189)
(-0.0027365524 3.6525642e-19 0.065664226)
(-0.0026410341 7.5750113e-20 0.065592436)
(-0.0026629631 2.1624176e-19 0.065531867)
(-0.0025812001 -2.0477631e-20 0.065438304)
(-0.0027501797 4.5048574e-20 0.065369016)
(-0.0027006751 1.3709069e-19 0.06528504)
(-0.003026958 2.2566478e-20 0.065526963)
(-0.003109526 3.6871179e-20 0.066755713)
(-0.0032428206 1.7346146e-20 0.064993978)
(-0.0016112948 3.4528357e-21 0.038017828)
(-1.6525647e-06 -3.7250943e-21 0.013718125)
(-1.2571045e-05 -1.216423e-20 0.040495866)
(-3.3813451e-05 -2.9707547e-20 0.067756429)
(-6.9143398e-05 -4.0981153e-20 0.095221017)
(-0.00012113897 -5.3172102e-20 0.12254859)
(-0.00019277336 -1.0917e-19 0.14933126)
(-0.00028737012 -2.3477246e-19 0.17509186)
(-0.00040855916 -3.5017272e-19 0.19928527)
(-0.00056023206 -4.4364472e-19 0.22130515)
(-0.00074645807 -5.2323144e-19 0.24049867)
(-0.0009713317 -5.9241058e-19 0.25619179)
(-0.0012387185 -6.1029739e-19 0.26772801)
(-0.0015518573 -6.5393678e-19 0.2745224)
(-0.0019127745 -7.6148311e-19 0.27613096)
(-0.0023214839 -8.8200156e-19 0.27233089)
(-0.0027749877 -8.3212457e-19 0.26320132)
(-0.0032661854 -7.0950569e-19 0.24918621)
(-0.0037829283 -5.0177893e-19 0.23111593)
(-0.0043075917 1.1852753e-20 0.21016471)
(-0.0048176018 1.0202422e-19 0.18773452)
(-0.0052872274 -6.0363561e-20 0.16527966)
(-0.005690578 -4.3166185e-19 0.14411172)
(-0.0060052362 -5.3648473e-19 0.12523675)
(-0.0062155803 -5.7275476e-19 0.10926585)
(-0.0063148828 -7.2847825e-19 0.096412076)
(-0.0063057015 -8.1972117e-19 0.08655744)
(-0.0061986747 -7.9861062e-19 0.079356829)
(-0.0060102592 -7.5075444e-19 0.074346115)
(-0.0057600766 -7.9227482e-19 0.071032345)
(-0.0054684228 -6.4787151e-19 0.068956788)
(-0.005154276 -2.3760997e-19 0.067731132)
(-0.0048339264 -1.3458064e-19 0.067051867)
(-0.0045202821 -1.1321825e-19 0.066699133)
(-0.0042227405 9.7509461e-20 0.066525814)
(-0.0039473898 1.3008992e-19 0.066441715)
(-0.0036981791 1.4062665e-19 0.066396804)
(-0.0034766954 9.2186876e-20 0.066366263)
(-0.0032832844 -9.3774547e-20 0.066339159)
(-0.0031229723 1.1467781e-19 0.066312136)
(-0.0029805331 1.5588539e-19 0.066281713)
(-0.0028959775 2.4715681e-19 0.066252996)
(-0.0027890409 1.2906357e-19 0.066216141)
(-0.0028040162 3.0631727e-19 0.066186524)
(-0.0027235307 1.6775647e-19 0.066145033)
(-0.0028504381 7.276019e-20 0.066101863)
(-0.0028227569 3.09637e-20 0.066138268)
(-0.0030881305 -2.2216141e-20 0.066629422)
(-0.0031370822 2.4294571e-20 0.067927687)
(-0.0030616297 -4.7454721e-20 0.064147006)
(-0.0013355731 2.2917126e-21 0.034182442)
(-1.4586157e-06 2.0051958e-20 0.014461672)
(-1.1097521e-05 6.1701684e-20 0.042746085)
(-2.9864428e-05 9.7553391e-20 0.071608279)
(-6.1106866e-05 1.4542849e-19 0.10076963)
(-0.00010713882 2.1092198e-19 0.12988745)
(-0.00017063834 2.2235544e-19 0.1585497)
(-0.00025461242 1.5029963e-19 0.18627157)
(-0.00036236329 -8.409901e-21 0.21249549)
(-0.00049745689 -1.3091461e-19 0.23659607)
(-0.00066366082 -1.1428061e-19 0.2578926)
(-0.00086482859 -2.2896628e-19 0.27567147)
(-0.0011047056 -2.4738204e-19 0.28922179)
(-0.0013866223 -2.8416653e-19 0.29788637)
(-0.0017130365 -3.4689028e-19 0.30112915)
(-0.0020848869 -6.9503171e-19 0.29861644)
(-0.0025007506 -5.1520593e-19 0.29030377)
(-0.0029558535 -3.0637848e-19 0.27651267)
(-0.0034410863 -1.2139757e-19 0.25797437)
(-0.0039423148 2.4062725e-19 0.23581485)
(-0.0044403783 5.1068532e-19 0.21146383)
(-0.0049121548 4.1925532e-19 0.18649065)
(-0.0053328406 -1.3235299e-19 0.16239822)
(-0.00567915 -3.7442091e-19 0.14042725)
(-0.0059326993 -4.7103859e-19 0.12142254)
(-0.0060826598 -4.8170807e-19 0.10579012)
(-0.0061269849 -3.829132e-19 0.093540392)
(-0.006072036 -1.7761888e-19 0.084387533)
(-0.0059309246 -8.1632551e-20 0.077867898)
(-0.0057211572 -3.6549002e-19 0.073447643)
(-0.0054621563 -5.891245e-19 0.070603886)
(-0.005173081 -3.4387056e-19 0.068875888)
(-0.0048711535 2.0582491e-20 0.067890108)
(-0.0045705958 -4.8976641e-20 0.067365684)
(-0.0042822343 2.2173203e-19 0.067106885)
(-0.0040132974 3.9699443e-19 0.066988064)
(-0.0037684257 1.437693e-19 0.066935732)
(-0.0035502936 1.0257074e-19 0.066911318)
(-0.0033572441 1.7292964e-19 0.06689661)
(-0.0031984119 6.5887977e-20 0.066885301)
(-0.0030518824 4.2671602e-19 0.066873328)
(-0.0029634238 1.7443156e-19 0.066863372)
(-0.0028531566 7.4255692e-20 0.066852446)
(-0.0028479177 7.5474717e-20 0.066841383)
(-0.0027712615 3.739588e-20 0.066833942)
(-0.0028592781 5.3449296e-20 0.06682002)
(-0.0028315533 -1.6122839e-19 0.066968724)
(-0.0030547461 7.6335229e-20 0.06769094)
(-0.0030342473 2.2508192e-20 0.068758858)
(-0.0027852386 7.1138966e-20 0.062878914)
(-0.0010761552 -1.6272329e-22 0.030913983)
(-1.3376008e-06 1.1163692e-20 0.01512987)
(-1.0112105e-05 3.4486514e-20 0.0447684)
(-2.7216781e-05 6.270497e-20 0.075070288)
(-5.5692478e-05 9.9652632e-20 0.10575727)
(-9.7650255e-05 1.4142019e-19 0.13648554)
(-0.00015553545 1.9133923e-19 0.16683987)
(-0.00023209803 2.4697171e-19 0.19632946)
(-0.00033036651 2.1431458e-19 0.22438683)
(-0.00045362533 1.9181369e-19 0.25037139)
(-0.00060536829 3.1305434e-19 0.27358001)
(-0.00078920879 4.657636e-19 0.29326721)
(-0.0010087249 6.4116039e-19 0.30867802)
(-0.0012672118 8.0011714e-19 0.31909627)
(-0.001567307 7.0129011e-19 0.3239099)
(-0.0019104521 3.0246258e-19 0.32269191)
(-0.0022961728 3.3059407e-20 0.31529072)
(-0.0027211991 2.2428759e-20 0.30191625)
(-0.0031785248 -4.1822142e-19 0.28320007)
(-0.0036566224 -8.0793802e-19 0.26020348)
(-0.0041391476 -6.7577684e-19 0.23435049)
(-0.0046055094 -2.3694151e-19 0.20728023)
(-0.0050325541 4.1822269e-20 0.18064043)
(-0.0053972691 -1.4348014e-19 0.15587036)
(-0.0056799807 -2.0331337e-19 0.1340307)
(-0.0058672143 -2.6253226e-19 0.11572173)
(-0.005953449 -2.3736348e-19 0.10109789)
(-0.0059413895 -1.8803067e-19 0.089955446)
(-0.0058408777 4.6344169e-20 0.081854611)
(-0.0056669135 2.952601e-19 0.076240615)
(-0.0054373453 -1.1030394e-20 0.072541228)
(-0.0051706941 -5.3464149e-20 0.070232798)
(-0.0048843701 2.561665e-20 0.068876642)
(-0.0045933875 7.8077758e-20 0.068132106)
(-0.0043097711 2.1617722e-19 0.067753429)
(-0.0040421138 4.1671889e-19 0.067576601)
(-0.003795942 4.1342121e-19 0.067501294)
(-0.0035755928 5.1750074e-19 0.06747212)
(-0.0033785318 5.1276616e-19 0.067461541)
(-0.0032155928 2.9160622e-19 0.067458388)
(-0.0030647391 5.5954902e-19 0.067458091)
(-0.002966488 2.3667883e-19 0.067459634)
(-0.002854244 2.8942243e-19 0.06746537)
(-0.0028286246 -4.5375495e-19 0.067467094)
(-0.0027488592 -2.329064e-19 0.067478345)
(-0.0028099622 1.0706246e-20 0.067500608)
(-0.002770619 -1.5772755e-19 0.067759876)
(-0.0029564092 1.3697335e-19 0.068643861)
(-0.0028618144 3.4588079e-20 0.069246634)
(-0.0024776371 1.077234e-19 0.061362605)
(-0.00085763302 2.0570588e-20 0.028163404)
(-1.2268406e-06 -3.4496501e-20 0.01573715)
(-9.262792e-06 -1.0248925e-19 0.046606964)
(-2.4937254e-05 -1.654179e-19 0.078218754)
(-5.104299e-05 -2.2787583e-19 0.11029486)
(-8.9528191e-05 -3.0665477e-19 0.14249085)
(-0.00014265386 -3.412989e-19 0.1743891)
(-0.00021296919 -3.0103365e-19 0.20549404)
(-0.00030329074 -3.6490102e-19 0.2352301)
(-0.00041668677 -4.4223381e-19 0.26294412)
(-0.00055644143 -5.3012647e-19 0.28791434)
(-0.0007259824 -4.6677973e-19 0.30936858)
(-0.00092875326 -5.4761933e-19 0.32651481)
(-0.0011680067 -6.2842806e-19 0.33858695)
(-0.001446486 -3.9968123e-19 0.34490803)
(-0.0017659636 5.3879612e-21 0.34497044)
(-0.0021266108 -3.7950527e-19 0.33852817)
(-0.0025262068 -7.2297031e-19 0.32568946)
(-0.0029592546 -1.0792878e-18 0.30698977)
(-0.0034161685 -1.5893951e-18 0.28341866)
(-0.0038828133 -1.6989712e-18 0.25637476)
(-0.0043407468 -1.4245439e-18 0.22753629)
(-0.0047684536 -6.5412406e-19 0.19866019)
(-0.0051436075 -3.3111731e-19 0.17135248)
(-0.0054460048 -1.89359e-19 0.14686932)
(-0.0056604591 -1.4182425e-19 0.12599944)
(-0.0057788827 -3.8818352e-19 0.10904838)
(-0.0058010512 -4.8983266e-19 0.095909598)
(-0.005734008 1.1507671e-20 0.086185114)
(-0.0055904557 5.0806198e-19 0.07931598)
(-0.0053866484 3.6309056e-19 0.074694065)
(-0.0051402628 4.1523165e-19 0.071742282)
(-0.0048685649 1.8908634e-19 0.069962468)
(-0.0045869721 1.7010365e-19 0.068956582)
(-0.0043082589 2.0168762e-19 0.06842868)
(-0.0040420611 1.4558243e-19 0.068174497)
(-0.0037945757 4.6745745e-19 0.068064127)
(-0.0035711937 7.1525843e-19 0.068022485)
(-0.0033697796 3.7568604e-19 0.06801056)
(-0.0032003092 2.8745299e-19 0.068010669)
(-0.0030444082 1.8216876e-19 0.068016635)
(-0.0029345698 -6.9991551e-21 0.068024746)
(-0.0028168096 1.6344564e-19 0.068038573)
(-0.0027741637 -3.7519518e-19 0.068048394)
(-0.002684939 -2.3953229e-19 0.068069684)
(-0.0027257869 -1.0838845e-23 0.068132321)
(-0.0026722626 4.7028821e-20 0.06849819)
(-0.0028178502 3.8524142e-20 0.069453278)
(-0.0026557218 2.5685463e-20 0.069429338)
(-0.002170274 -4.9936101e-20 0.059737388)
(-0.00067811419 1.7057567e-20 0.025893435)
(-1.1405665e-06 -2.982635e-20 0.016296503)
(-8.5913473e-06 -8.9119403e-20 0.048300699)
(-2.3133381e-05 -1.5157422e-19 0.081119669)
(-4.7357611e-05 -2.1420149e-19 0.11447649)
(-8.3077365e-05 -2.8006956e-19 0.14802637)
(-0.00013239936 -3.5213856e-19 0.18134984)
(-0.00019770275 -4.2163578e-19 0.21394743)
(-0.00028162251 -4.7511739e-19 0.24523683)
(-0.00038703882 -5.1905718e-19 0.2745543)
(-0.00051704952 -5.6548583e-19 0.30116224)
(-0.00067491125 -5.9346155e-19 0.32426572)
(-0.00086393352 -6.8308435e-19 0.34304091)
(-0.0010873029 -8.2761898e-19 0.35667867)
(-0.0013478092 -9.7758945e-19 0.36444562)
(-0.0016474424 -1.0393319e-18 0.36576326)
(-0.0019868351 -1.1150876e-18 0.3603013)
(-0.0023645443 -1.3993638e-18 0.34807499)
(-0.0027762227 -1.431133e-18 0.32952821)
(-0.0032138068 -1.4610523e-18 0.30557613)
(-0.0036649578 -1.538414e-18 0.27757989)
(-0.004113076 -1.4330676e-18 0.24723535)
(-0.0045381913 -9.3281265e-19 0.21638139)
(-0.0049188494 -6.4336476e-19 0.18676403)
(-0.0052347653 -4.6846086e-19 0.15981504)
(-0.0054696576 -1.2867684e-19 0.13650251)
(-0.0056135189 1.7481133e-19 0.11728487)
(-0.0056637445 -1.8507003e-19 0.10216237)
(-0.0056249486 -4.3415449e-19 0.090792188)
(-0.005507699 1.122433e-19 0.082624775)
(-0.0053266292 5.364572e-19 0.077027793)
(-0.0050984034 3.9230439e-19 0.073379591)
(-0.0048398841 2.4430198e-19 0.071128482)
(-0.0045666318 1.8415891e-19 0.069822327)
(-0.004291934 1.5996033e-19 0.069116036)
(-0.0040262794 1.7509679e-19 0.068764382)
(-0.0037766796 4.1083533e-19 0.06860609)
(-0.003549139 6.226964e-19 0.068544106)
(-0.0033427616 3.5156882e-19 0.068525821)
(-0.0031659888 1.9497993e-19 0.068525695)
(-0.0030039689 4.4696592e-20 0.068534134)
(-0.0028836436 -1.3257591e-19 0.068545772)
(-0.0027577945 -9.5820637e-20 0.068562383)
(-0.0027012462 -3.3498345e-19 0.068576662)
(-0.0026009308 -2.0351708e-19 0.068606148)
(-0.0026237718 2.7134155e-21 0.068711694)
(-0.0025575741 7.4657089e-20 0.069172417)
(-0.0026587007 -1.6846624e-20 0.070106001)
(-0.0024409313 1.4380062e-20 0.069358669)
(-0.0018843407 -7.447731e-20 0.058092045)
(-0.00053360614 1.0837981e-20 0.024029363)
(-1.0665252e-06 -6.4390621e-20 0.016816074)
(-8.0223011e-06 -1.9409524e-19 0.049874249)
(-2.1604386e-05 -3.3299775e-19 0.083815202)
(-4.4234447e-05 -4.8017962e-19 0.11836284)
(-7.7612625e-05 -6.1348034e-19 0.15317224)
(-0.00012371624 -7.5105546e-19 0.18782251)
(-0.00018478154 -8.8335647e-19 0.22181092)
(-0.00026329048 -9.0883118e-19 0.25454946)
(-0.00036196369 -9.3920467e-19 0.2853653)
(-0.00048373915 -8.3397553e-19 0.31350716)
(-0.00063172393 -4.9046102e-19 0.33816035)
(-0.00080910426 -1.472016e-19 0.35847333)
(-0.0010189943 2.5164523e-19 0.3735992)
(-0.0012641977 -8.9393937e-20 0.38275481)
(-0.001546852 -8.1551979e-19 0.38529858)
(-0.0018679286 -1.0841552e-18 0.38082417)
(-0.0022265786 -1.089894e-18 0.36926138)
(-0.0026193563 -4.1654942e-19 0.35096722)
(-0.0030394201 -1.5277318e-19 0.32678201)
(-0.0034759143 1.6562894e-19 0.29802164)
(-0.0039138194 -6.5456091e-19 0.26638412)
(-0.0043345758 -7.7863103e-19 0.23376911)
(-0.0047176548 -7.6939814e-19 0.20204027)
(-0.0050429444 -7.819251e-19 0.17278676)
(-0.0052934757 -8.2780282e-19 0.14714586)
(-0.005457794 -5.5397137e-19 0.12572767)
(-0.0055313589 1.375729e-19 0.1086452)
(-0.0055167017 3.400989e-20 0.09562084)
(-0.0054224686 -3.7900189e-19 0.086125526)
(-0.0052617516 2.3949583e-19 0.079512748)
(-0.0050501601 3.7463265e-19 0.075124305)
(-0.0048040071 3.043208e-19 0.072360698)
(-0.0045387874 3.0912752e-19 0.070719224)
(-0.0042680909 3.8287099e-19 0.069807263)
(-0.0040029904 5.0259284e-19 0.069338642)
(-0.0037512942 3.6651691e-19 0.069119589)
(-0.0035194151 5.8873651e-19 0.06902936)
(-0.0033076842 9.1454025e-19 0.068999811)
(-0.0031236816 3.5660575e-19 0.068996307)
(-0.0029545213 1.5701349e-20 0.069004282)
(-0.0028247503 6.262895e-20 0.069016803)
(-0.0026899081 -1.7082862e-19 0.069033154)
(-0.002620946 -4.4370098e-19 0.069049246)
(-0.0025110387 -1.9993822e-19 0.069088627)
(-0.0025163145 5.1832382e-21 0.0692381)
(-0.0024407187 6.9926909e-20 0.06977398)
(-0.0024955362 -1.1208495e-20 0.070602898)
(-0.0022347219 1.1049925e-20 0.069086345)
(-0.0016323044 -8.1053081e-20 0.056480077)
(-0.00042005739 7.4150312e-22 0.02249851)
(-1.0039268e-06 -3.3000376e-20 0.017302325)
(-7.5412159e-06 -9.9929286e-20 0.051347079)
(-2.0311524e-05 -1.7154727e-19 0.086338526)
(-4.1592726e-05 -2.4851474e-19 0.12200146)
(-7.2987867e-05 -3.2806569e-19 0.15799099)
(-0.00011636305 -4.0545958e-19 0.19388509)
(-0.00017383137 -4.8073411e-19 0.22917833)
(-0.00024774204 -5.3589476e-19 0.26327776)
(-0.0003406763 -5.6320001e-19 0.29550262)
(-0.00045543101 -5.698342e-19 0.3250897)
(-0.00059497853 -4.8511126e-19 0.35120692)
(-0.00076238967 -4.3066659e-19 0.37297825)
(-0.00096070219 -2.9636406e-19 0.3895233)
(-0.0011927111 -3.8275524e-19 0.40001454)
(-0.0014606515 -5.4449861e-19 0.40375365)
(-0.0017657483 -6.1138221e-19 0.40026521)
(-0.0021076169 -5.4424725e-19 0.38940009)
(-0.002483534 -5.8556003e-19 0.37143309)
(-0.0028876602 -5.1626908e-19 0.34713038)
(-0.0033103867 -5.4284374e-19 0.31775768)
(-0.0037380657 -4.3772445e-19 0.28500365)
(-0.0041534239 -6.1058479e-19 0.25081195)
(-0.0045368619 -6.0651327e-19 0.21714509)
(-0.0048685948 -5.3851722e-19 0.18573318)
(-0.0051312473 -4.8110669e-19 0.15787228)
(-0.0053122658 -5.5984276e-19 0.13432117)
(-0.0054055213 -4.2030359e-19 0.11530916)
(-0.0054117492 1.3494093e-19 0.1006314)
(-0.0053378701 1.7708996e-19 0.089788416)
(-0.0051955265 2.1698783e-20 0.08212815)
(-0.0049992713 2.7833811e-19 0.076963016)
(-0.0047647945 3.0814346e-19 0.07365106)
(-0.0045073898 3.1786464e-19 0.071642586)
(-0.0042408104 3.9102604e-19 0.070499403)
(-0.0039765388 5.18469e-19 0.069894948)
(-0.0037230683 5.3487602e-19 0.069602378)
(-0.0034872613 5.6234482e-19 0.069476006)
(-0.0032703081 9.1275827e-19 0.069430518)
(-0.0030797209 5.5591894e-19 0.069420855)
(-0.0029034154 2.0965866e-19 0.069426343)
(-0.0027650497 1.1574816e-19 0.069437726)
(-0.0026219456 -1.4816513e-19 0.069452422)
(-0.002541203 -3.7404966e-19 0.069469221)
(-0.0024244001 -2.0408642e-19 0.069521529)
(-0.0024120911 7.8984529e-21 0.069714294)
(-0.002329758 5.2005337e-20 0.070300078)
(-0.0023392264 -1.6026241e-20 0.070955907)
(-0.0020455639 -5.52465e-23 0.068661025)
(-0.001417089 -6.9798231e-20 0.054933838)
(-0.00033204447 -7.7989302e-21 0.021241245)
(-9.4966588e-07 -1.5293389e-21 0.017760103)
(-7.1258439e-06 -5.227191e-21 0.052733823)
(-1.9195238e-05 -1.006088e-20 0.088714631)
(-3.931152e-05 -1.6967474e-20 0.12542824)
(-6.8993714e-05 -3.9487565e-20 0.16252993)
(-0.00011001143 -6.4709526e-20 0.19959679)
(-0.00016437073 -9.2908049e-20 0.23612104)
(-0.00023430499 -2.4101218e-19 0.27150548)
(-0.00032227312 -4.0856815e-19 0.30506236)
(-0.00043094709 -5.1888449e-19 0.33601789)
(-0.00056317828 -8.1002556e-19 0.3635245)
(-0.00072193072 -9.9554308e-19 0.38668432)
(-0.00091016571 -1.1933969e-18 0.40458697)
(-0.0011306558 -9.2845354e-19 0.41636492)
(-0.0013857 -3.8433851e-19 0.42126846)
(-0.0016767152 -4.1610319e-19 0.41875895)
(-0.0020036842 -3.4798597e-19 0.40861413)
(-0.0023644714 -7.0272324e-19 0.39103094)
(-0.0027540714 -6.43008e-19 0.36670293)
(-0.0031639369 -7.958959e-19 0.33684246)
(-0.00358162 -1.6871679e-19 0.30312023)
(-0.0039910155 -3.9523565e-19 0.26751043)
(-0.0043734327 -3.8486289e-19 0.23205848)
(-0.0047095095 -2.5492153e-19 0.19862071)
(-0.0049816644 -6.798318e-20 0.16864174)
(-0.0051765103 -4.5241226e-20 0.14302498)
(-0.005286606 -5.5135038e-19 0.12211785)
(-0.005311135 -1.2265317e-19 0.10579402)
(-0.0052554702 5.0551747e-19 0.093591062)
(-0.0051299054 3.0123885e-19 0.084858857)
(-0.0049479652 3.6579268e-19 0.078886814)
(-0.0047246764 3.6233301e-19 0.074995449)
(-0.0044750353 3.7921258e-19 0.072591535)
(-0.0042128403 3.9451807e-19 0.071193403)
(-0.0039498636 3.0109005e-19 0.070434994)
(-0.0036951209 5.4567883e-19 0.070056259)
(-0.0034559973 6.5852396e-19 0.069885703)
(-0.003234263 5.1930223e-19 0.06981957)
(-0.0030377486 3.964254e-19 0.069801048)
(-0.0028549231 3.2699748e-19 0.069802496)
(-0.0027085614 -2.0569041e-19 0.069811354)
(-0.0025587079 -9.525665e-20 0.069824039)
(-0.0024666972 -7.7461734e-20 0.069841996)
(-0.0023456617 -1.8089889e-19 0.069910347)
(-0.0023162985 -3.9568335e-21 0.070144018)
(-0.0022286371 2.8145781e-20 0.070751667)
(-0.0021960304 -2.1487592e-20 0.071181041)
(-0.0018773519 -2.384112e-21 0.068122886)
(-0.0012374498 -6.7351585e-20 0.053467605)
(-0.00026472415 -1.214205e-20 0.02020107)
(-9.0228776e-07 -2.3382185e-20 0.018193248)
(-6.7637338e-06 -7.097989e-20 0.054046072)
(-1.822191e-05 -1.2431756e-19 0.090963306)
(-3.7322014e-05 -1.8455006e-19 0.12867161)
(-6.5509434e-05 -2.3006155e-19 0.16682652)
(-0.00010446914 -2.8346791e-19 0.20500443)
(-0.00015611295 -3.4042051e-19 0.24269558)
(-0.00022257214 -4.1197191e-19 0.27929896)
(-0.00030619719 -4.9003924e-19 0.31412066)
(-0.00040954835 -5.6195e-19 0.34637739)
(-0.00053536741 -6.6202197e-19 0.3752077)
(-0.00068651969 -6.79338e-19 0.39969404)
(-0.00086589177 -7.1207956e-19 0.4188989)
(-0.0010762249 -7.647544e-19 0.43191848)
(-0.0013198581 -6.7333802e-19 0.43795614)
(-0.0015983544 -5.2816364e-19 0.43641511)
(-0.0019119916 -5.0808037e-19 0.42700504)
(-0.0022591189 -6.213489e-19 0.40984923)
(-0.0026354337 -7.1269423e-19 0.38557043)
(-0.0030333007 -6.9459579e-19 0.35532578)
(-0.0034413282 -4.237468e-19 0.32076154)
(-0.0038444747 -2.0669605e-19 0.28387139)
(-0.0042249241 -1.6796842e-19 0.24677012)
(-0.0045637936 -7.2847425e-20 0.21142708)
(-0.0048434412 6.7242385e-20 0.17942558)
(-0.0050498529 1.2308361e-19 0.15180908)
(-0.0051745006 -8.914373e-20 0.12904359)
(-0.0052152198 -9.9491154e-20 0.11108567)
(-0.0051759954 2.3993383e-19 0.097516189)
(-0.0050658746 3.6886884e-19 0.087693415)
(-0.0048973935 4.0553266e-19 0.080889464)
(-0.0046849045 3.808004e-19 0.076391848)
(-0.004443049 3.5888787e-19 0.07356708)
(-0.0041855745 3.3017521e-19 0.071892141)
(-0.0039244555 3.0895912e-19 0.07096257)
(-0.0036690909 4.428176e-19 0.070485291)
(-0.0034273824 6.6106456e-19 0.070262456)
(-0.003201586 5.3482631e-19 0.070170894)
(-0.0029998189 3.2547408e-19 0.070140838)
(-0.0028114402 9.1420349e-20 0.0701369)
(-0.0026576398 -3.5311076e-19 0.07014239)
(-0.0025026488 -1.3754111e-19 0.070153298)