/*--------------------------------*- C++ -*----------------------------------*\
| =========                 |                                                 |
| \\      /  F ield         | OpenFOAM: The Open Source CFD Toolbox           |
|  \\    /   O peration     | Version:  3.0.1                                 |
|   \\  /    A nd           | Web:      www.OpenFOAM.org                      |
|    \\/     M anipulation  |                                                 |
\*---------------------------------------------------------------------------*/
FoamFile
{
    version     2.0;
    format      ascii;
    class       surfaceScalarField;
    location    "2629";
    object      phi;
}
// * * * * * * * * * * * * * * * * * * * * * * * * * * * * * * * * * * * * * //

dimensions      [1 0 -1 0 0 0 0];

internalField   nonuniform List<scalar> 
229200
(
9.1765607e-09
-8.4970964e-10
4.8094e-08
2.6954669e-08
-2.8950417e-09
1.4615483e-07
4.6150712e-08
-5.8019552e-09
2.5732995e-07
6.2612095e-08
-8.0787524e-09
3.7634925e-07
7.5213733e-08
-9.1142698e-09
5.0121119e-07
8.5606009e-08
-1.0173254e-08
6.3328466e-07
9.426869e-08
-1.0149215e-08
7.7582092e-07
1.022248e-07
-1.0161708e-08
9.3255e-07
1.1025368e-07
-1.0438948e-08
1.106945e-06
1.1661892e-07
-9.0100393e-09
1.3018112e-06
1.2314917e-07
-9.2478874e-09
1.5201347e-06
1.3026641e-07
-9.8152429e-09
1.764209e-06
1.3575136e-07
-8.6746089e-09
2.0354418e-06
1.4225624e-07
-9.5110569e-09
2.337114e-06
1.4815874e-07
-9.3048276e-09
2.6691641e-06
1.5422221e-07
-9.2693745e-09
3.0338677e-06
1.5794622e-07
-8.0322296e-09
3.4293419e-06
1.62961e-07
-8.6186952e-09
3.8606261e-06
1.6484969e-07
-7.3871301e-09
4.3204505e-06
1.6491777e-07
-6.1793727e-09
4.8173989e-06
1.6627667e-07
-6.657177e-09
5.3524206e-06
1.624957e-07
-4.6097461e-09
5.9119663e-06
1.5560142e-07
-3.3920793e-09
6.5136402e-06
1.4806599e-07
-2.3323138e-09
7.1705148e-06
1.4060825e-07
-3.7464004e-09
7.8752154e-06
1.2673209e-07
4.9492395e-10
8.6380343e-06
1.1662234e-07
-1.4945111e-09
9.4780644e-06
9.9938611e-08
2.4125311e-09
1.0369361e-05
8.4567784e-08
1.8110421e-09
1.1334039e-05
6.857244e-08
2.4760506e-09
1.2351415e-05
4.4757125e-08
5.5743894e-09
1.3391438e-05
2.7796464e-08
5.1381155e-09
1.4509825e-05
1.6522113e-08
4.5114001e-09
1.5542703e-05
-9.0825044e-09
8.1776929e-09
1.6265952e-05
-2.2556667e-08
6.9707543e-09
1.6750827e-05
-5.2354034e-08
7.0264876e-09
1.6545458e-05
-4.9413809e-08
8.5311356e-09
1.5712317e-05
-8.2682989e-08
2.8767564e-09
1.3062711e-05
-2.9306248e-07
2.377409e-08
8.703181e-06
5.4768933e-09
4.6698296e-06
1.0366381e-08
-2.9023669e-09
4.800347e-08
3.0435582e-08
-8.14686e-09
1.4575314e-07
5.2464806e-08
-1.4527215e-08
2.5640593e-07
7.1243127e-08
-1.8547266e-08
3.7466e-07
8.5689482e-08
-2.0080747e-08
4.984054e-07
9.5612192e-08
-1.9811374e-08
6.2875239e-07
1.0236711e-07
-1.8217637e-08
7.6862136e-07
1.0649877e-07
-1.6166252e-08
9.213343e-07
1.0802758e-07
-1.3894948e-08
1.08985e-06
1.0863303e-07
-1.1426173e-08
1.2765592e-06
1.0726597e-07
-9.5322537e-09
1.4833122e-06
1.0343298e-07
-7.5300759e-09
1.7114679e-06
9.866313e-08
-5.4195271e-09
1.9620744e-06
9.1583349e-08
-3.9263681e-09
2.2358521e-06
8.2705536e-08
-2.0078379e-09
2.5331581e-06
7.2158866e-08
-4.5495956e-10
2.854159e-06
6.0832911e-08
1.32322e-09
3.1988305e-06
4.7526017e-08
2.4489656e-09
3.5673799e-06
3.3321385e-08
4.165378e-09
3.9599548e-06
1.8826678e-08
5.3469057e-09
4.3778938e-06
2.5077478e-09
6.2913646e-09
4.8222024e-06
-1.3970305e-08
7.8252764e-09
5.2946537e-06
-3.0212477e-08
8.502139e-09
5.8018691e-06
-4.64649e-08
9.5516094e-09
6.3484388e-06
-6.4536129e-08
9.6709811e-09
6.9369902e-06
-8.0477751e-08
1.1701968e-08
7.5732403e-06
-9.702562e-08
1.0691153e-08
8.2602085e-06
-1.1196499e-07
1.2891674e-08
8.996848e-06
-1.2506421e-07
1.1732766e-08
9.780065e-06
-1.3855799e-07
1.2722182e-08
1.0591557e-05
-1.4783096e-07
1.2781766e-08
1.1417211e-05
-1.5491087e-07
1.2115632e-08
1.2213154e-05
-1.6183685e-07
1.170844e-08
1.2909063e-05
-1.6363514e-07
1.2105049e-08
1.3436582e-05
-1.6107085e-07
9.9354247e-09
1.3675376e-05
-1.5688813e-07
9.8479752e-09
1.3455288e-05
-1.4389446e-07
8.062865e-09
1.2598998e-05
-1.3372386e-07
5.6835685e-09
1.0820774e-05
-8.3731723e-08
7.3733329e-09
7.908615e-06
-7.6054155e-09
3.261778e-06
1.1269117e-08
-5.9015682e-09
4.7926219e-08
3.0907304e-08
-1.3043141e-08
1.4540635e-07
4.9212919e-08
-1.9543832e-08
2.5560215e-07
6.0583152e-08
-2.1507542e-08
3.7302469e-07
6.3655456e-08
-1.9450989e-08
4.9512574e-07
5.9531209e-08
-1.5050183e-08
6.2240909e-07
5.0440317e-08
-9.9382051e-09
7.5712376e-07
3.831675e-08
-5.2525222e-09
9.0189437e-07
2.4752869e-08
-1.4370448e-09
1.0589447e-06
1.1100261e-08
1.3580222e-09
1.2298523e-06
-2.3279379e-09
3.2051496e-09
1.415635e-06
-1.4997457e-08
4.4696563e-09
1.617014e-06
-2.6293151e-08
5.1668345e-09
1.8348718e-06
-3.6509948e-08
5.4850761e-09
2.0698419e-06
-4.5144131e-08
5.6589437e-09
2.3226638e-06
-5.2371119e-08
5.6189175e-09
2.5942668e-06
-5.7870406e-08
5.490685e-09
2.8858714e-06
-6.2185425e-08
5.2656935e-09
3.1987463e-06
-6.4800455e-08
5.1086768e-09
3.5345775e-06
-6.6063491e-08
4.772361e-09
3.8951887e-06
-6.6377654e-08
4.6014331e-09
4.2828803e-06
-6.5111393e-08
4.3930436e-09
4.7005217e-06
-6.3041984e-08
4.143539e-09
5.1509619e-06
-5.9879967e-08
3.9493198e-09
5.6372937e-06
-5.6663407e-08
3.9126048e-09
6.1622521e-06
-5.1407491e-08
3.7962648e-09
6.7284108e-06
-4.6905555e-08
3.5388147e-09
7.3352917e-06
-4.0382499e-08
3.6690244e-09
7.9815174e-06
-3.4358308e-08
3.1268278e-09
8.659229e-06
-2.7616119e-08
3.391385e-09
9.3559436e-06
-2.0022141e-08
2.8769384e-09
1.0049769e-05
-1.2867372e-08
2.729394e-09
1.0704044e-05
-5.8618461e-09
2.6720263e-09
1.1268011e-05
2.108384e-09
2.3317391e-09
1.1668702e-05
8.4806522e-09
1.9046617e-09
1.1803243e-05
1.46777e-08
1.9566944e-09
1.1545979e-05
1.9386874e-08
1.1052212e-09
1.0727368e-05
2.0625279e-08
1.3042726e-09
9.136505e-06
2.1645798e-08
-4.5756225e-11
6.5123265e-06
-7.2348568e-10
2.5412068e-06
8.1663125e-09
-5.7930244e-09
4.7957055e-08
2.0466044e-08
-1.0405216e-08
1.4555719e-07
2.7677046e-08
-1.3024703e-08
2.5580615e-07
2.7039941e-08
-1.1851383e-08
3.7274439e-07
2.0089577e-08
-8.1410939e-09
4.9316252e-07
1.0215954e-08
-3.9262659e-09
6.1698723e-07
5.8508582e-10
-6.1598091e-10
7.4609959e-07
-6.8530712e-09
1.3055216e-09
8.8296362e-07
-1.1259657e-08
2.0042919e-09
1.0299053e-06
-1.2673809e-08
1.8915432e-09
1.1887739e-06
-1.1647926e-08
1.3850444e-09
1.3608989e-06
-8.7585268e-09
8.0076999e-10
1.5472445e-06
-4.7206015e-09
2.8202958e-10
1.7485912e-06
-1.5390803e-10
-7.3181816e-11
1.9656413e-06
4.5086407e-09
-2.3053021e-10
2.199122e-06
8.9108175e-09
-2.4111486e-10
2.4501508e-06
1.283516e-08
-1.0930161e-10
2.7198039e-06
1.6111912e-08
1.1067057e-10
3.0093068e-06
1.8695075e-08
3.9960983e-10
3.3201385e-06
2.0370461e-08
7.2041108e-10
3.6538637e-06
2.1253151e-08
1.097089e-09
4.0122593e-06
2.1329114e-08
1.4694722e-09
4.3972245e-06
2.0588602e-08
1.8305928e-09
4.8106438e-06
1.9072777e-08
2.2355856e-09
5.2542146e-06
1.7042973e-08
2.572024e-09
5.729106e-06
1.4498969e-08
2.8761509e-09
6.2354467e-06
1.1413348e-08
3.1186505e-09
6.7715766e-06
8.1958162e-09
3.3750404e-09
7.3331968e-06
4.4135825e-09
3.5008634e-09
7.9119801e-06
8.2888422e-10
3.7186611e-09
8.4941344e-06
-3.0953645e-09
3.6883549e-09
9.0583221e-06
-7.1038401e-09
3.8275968e-09
9.5745317e-06
-1.0769865e-08
3.7687593e-09
9.9999386e-06
-1.4181671e-08
3.5984995e-09
1.0275074e-05
-1.7231516e-08
3.3823214e-09
1.0321078e-05
-1.9059223e-08
2.9341686e-09
1.0035185e-05
-1.9770917e-08
2.1922803e-09
9.2838115e-06
-1.74508e-08
1.0874659e-09
7.8943986e-06
-1.1683854e-08
-3.3275816e-10
5.6405833e-06
-1.119732e-09
2.2214805e-06
2.5231217e-09
4.140779e-15
4.8046939e-08
7.3910618e-09
8.3273342e-15
1.4596755e-07
8.6622116e-09
8.5791526e-15
2.5645985e-07
6.4284912e-09
5.5818752e-15
3.7309371e-07
3.1073538e-09
2.0179672e-15
4.9228154e-07
6.7607561e-10
1.2478696e-15
6.1383175e-07
-2.0471367e-10
-5.3384604e-16
7.3969956e-07
1.4730647e-10
-1.3742114e-15
8.7247765e-07
1.0615334e-09
9.5614371e-16
1.0144861e-06
1.9313515e-09
9.3051863e-17
1.1674955e-06
2.3869526e-09
-3.7247987e-16
1.3327707e-06
2.3024984e-09
4.7779759e-16
1.5112285e-06
1.6812222e-09
3.9875493e-15
1.7035979e-06
6.3117591e-10
2.1658739e-15
1.9105495e-06
-6.9892529e-10
-2.4165849e-16
2.1327936e-06
-2.1909657e-09
-4.9275945e-15
2.3711975e-06
-3.7089499e-09
-4.2652952e-15
2.6268139e-06
-5.1665387e-09
-8.3467783e-16
2.9008411e-06
-6.4947339e-09
-1.5208931e-15
3.1946531e-06
-7.6575194e-09
2.351497e-15
3.5097655e-06
-8.5927541e-09
6.9845563e-15
3.8478081e-06
-9.2954842e-09
3.2666152e-15
4.2104386e-06
-9.7651887e-09
-1.4438127e-15
4.5992116e-06
-9.9470951e-09
-6.5481688e-15
5.01538e-06
-9.8911266e-09
-2.7589708e-15
5.4595862e-06
-9.6097938e-09
-4.9382855e-15
5.9314455e-06
-9.1438176e-09
-1.0038393e-14
6.4289608e-06
-8.4594207e-09
-9.9795063e-16
6.9477738e-06
-7.6571748e-09
1.5943658e-15
7.48014e-06
-6.6250308e-09
2.866065e-15
8.0136387e-06
-5.5572355e-09
6.1847749e-15
8.529466e-06
-4.2638181e-09
-4.565875e-15
9.0002886e-06
-2.8706528e-09
2.0902614e-15
9.387495e-06
-1.4084065e-09
4.3491421e-15
9.6375431e-06
1.539011e-10
3.05296e-15
9.6774839e-06
1.6727644e-09
-4.7501616e-15
9.4095267e-06
3.0456524e-09
2.890408e-14
8.7057924e-06
3.7176839e-09
6.6547159e-15
7.399003e-06
2.7765151e-09
-4.0785925e-14
5.2748996e-06
3.919391e-15
2.0650405e-06
2.5231254e-09
5.7930266e-09
4.8046938e-08
7.391073e-09
1.0405218e-08
1.4596755e-07
8.6622078e-09
1.3024702e-08
2.5645985e-07
6.4284873e-09
1.1851384e-08
3.730937e-07
3.107359e-09
8.1410925e-09
4.9228154e-07
6.7606939e-10
3.9262582e-09
6.1383174e-07
-2.0471775e-10
6.159682e-10
7.3969955e-07
1.4731087e-10
-1.3055361e-09
8.7247764e-07
1.0615047e-09
-2.0043038e-09
1.0144861e-06
1.9313383e-09
-1.8915496e-09
1.1674955e-06
2.3869484e-09
-1.3850522e-09
1.3327707e-06
2.3025027e-09
-8.0077203e-10
1.5112285e-06
1.6812065e-09
-2.8202457e-10
1.7035978e-06
6.3115942e-10
7.3189203e-11
1.9105495e-06
-6.9892719e-10
2.3053521e-10
2.1327936e-06
-2.1909666e-09
2.4112082e-10
2.3711975e-06
-3.7089249e-09
1.0930825e-10
2.6268138e-06
-5.1665486e-09
-1.1066782e-10
2.9008411e-06
-6.4947486e-09
-3.9960722e-10
3.194653e-06
-7.657494e-09
-7.2040389e-10
3.5097654e-06
-8.5928118e-09
-1.0970836e-09
3.847808e-06
-9.2954597e-09
-1.4694666e-09
4.2104385e-06
-9.7652546e-09
-1.8305874e-09
4.5992115e-06
-9.9470685e-09
-2.2355828e-09
5.0153799e-06
-9.8911074e-09
-2.572029e-09
5.4595861e-06
-9.6098703e-09
-2.8761603e-09
5.9314453e-06
-9.1437774e-09
-3.1186546e-09
6.4289607e-06
-8.459458e-09
-3.3750502e-09
6.9477736e-06
-7.6571515e-09
-3.5008693e-09
7.4801399e-06
-6.6250049e-09
-3.7186507e-09
8.0136386e-06
-5.5571464e-09
-3.6883558e-09
8.5294659e-06
-4.2638078e-09
-3.8276006e-09
9.0002885e-06
-2.8707469e-09
-3.7687624e-09
9.387495e-06
-1.4082859e-09
-3.5984986e-09
9.6375431e-06
1.5381599e-10
-3.3823244e-09
9.677484e-06
1.6727851e-09
-2.9341695e-09
9.4095266e-06
3.045547e-09
-2.1922569e-09
8.7057923e-06
3.7174617e-09
-1.0874214e-09
7.3990028e-06
2.7773141e-09
3.3280927e-10
5.2748996e-06
1.1198124e-09
2.06504e-06
8.1663089e-09
5.901572e-09
4.7957053e-08
2.0466046e-08
1.3043147e-08
1.4555719e-07
2.7677048e-08
1.9543837e-08
2.5580614e-07
2.7039952e-08
2.1507548e-08
3.7274437e-07
2.0089578e-08
1.9450995e-08
4.931625e-07
1.0215943e-08
1.5050186e-08
6.169872e-07
5.8506909e-10
9.9382055e-09
7.4609956e-07
-6.8530783e-09
5.2525244e-09
8.8296358e-07
-1.1259644e-08
1.437047e-09
1.0299052e-06
-1.2673829e-08
-1.3580266e-09
1.1887739e-06
-1.1647924e-08
-3.2051537e-09
1.3608988e-06
-8.7585177e-09
-4.4696592e-09
1.5472444e-06
-4.7205932e-09
-5.1668371e-09
1.7485911e-06
-1.5390337e-10
-5.485078e-09
1.9656412e-06
4.5086858e-09
-5.6589479e-09
2.1991219e-06
8.910841e-09
-5.6189146e-09
2.4501507e-06
1.2835207e-08
-5.4906837e-09
2.7198038e-06
1.6111912e-08
-5.2656966e-09
3.0093067e-06
1.8695127e-08
-5.1086704e-09
3.3201385e-06
2.0370484e-08
-4.7723588e-09
3.6538636e-06
2.1253146e-08
-4.6014302e-09
4.0122592e-06
2.1329134e-08
-4.3930386e-09
4.3972244e-06
2.0588523e-08
-4.1435356e-09
4.8106437e-06
1.9072799e-08
-3.9493078e-09
5.2542145e-06
1.704298e-08
-3.9126029e-09
5.7291059e-06
1.4498927e-08
-3.796269e-09
6.2354466e-06
1.1413308e-08
-3.538811e-09
6.7715765e-06
8.1958073e-09
-3.6690282e-09
7.3331968e-06
4.4136181e-09
-3.1268294e-09
7.9119801e-06
8.2882882e-10
-3.3913816e-09
8.4941344e-06
-3.0953421e-09
-2.8769428e-09
9.0583222e-06
-7.1037532e-09
-2.7293902e-09
9.5745318e-06
-1.0769894e-08
-2.672033e-09
9.9999388e-06
-1.4181791e-08
-2.3317504e-09
1.0275075e-05
-1.7231235e-08
-1.9046562e-09
1.0321078e-05
-1.9059353e-08
-1.9567167e-09
1.0035185e-05
-1.9770837e-08
-1.1052461e-09
9.2838115e-06
-1.7450779e-08
-1.3042806e-09
7.8943985e-06
-1.1684007e-08
4.5785885e-11
5.6405832e-06
7.2351764e-10
2.2214803e-06
1.1269119e-08
2.9023603e-09
4.7926218e-08
3.0907299e-08
8.1468484e-09
1.4540635e-07
4.9212903e-08
1.4527205e-08
2.5560214e-07
6.0583143e-08
1.8547258e-08
3.7302467e-07
6.3655446e-08
2.008074e-08
4.9512571e-07
5.9531184e-08
1.9811367e-08
6.2240905e-07
5.0440287e-08
1.8217633e-08
7.5712372e-07
3.8316717e-08
1.6166251e-08
9.0189432e-07
2.4752816e-08
1.3894946e-08
1.0589447e-06
1.1100233e-08
1.1426172e-08
1.2298523e-06
-2.3279815e-09
9.5322501e-09
1.4156349e-06
-1.4997538e-08
7.5300702e-09
1.6170139e-06
-2.6293212e-08
5.4195265e-09
1.8348717e-06
-3.6510022e-08
3.926365e-09
2.0698418e-06
-4.5144198e-08
2.007831e-09
2.3226637e-06
-5.2371163e-08
4.5496011e-10
2.5942667e-06
-5.7870429e-08
-1.3232208e-09
2.8858713e-06
-6.2185429e-08
-2.4489704e-09
3.1987461e-06
-6.4800451e-08
-4.165377e-09
3.5345773e-06
-6.6063445e-08
-5.3469063e-09
3.8951885e-06
-6.6377623e-08
-6.2913654e-09
4.2828801e-06
-6.5111449e-08
-7.8252784e-09
4.7005216e-06
-6.3041952e-08
-8.5021349e-09
5.1509617e-06
-5.9879918e-08
-9.5515971e-09
5.6372936e-06
-5.6663374e-08
-9.6709722e-09
6.162252e-06
-5.1407502e-08
-1.170196e-08
6.7284107e-06
-4.6905461e-08
-1.0691138e-08
7.3352917e-06
-4.0382496e-08
-1.2891669e-08
7.9815175e-06
-3.4358289e-08
-1.1732754e-08
8.6592291e-06
-2.7616083e-08
-1.2722172e-08
9.3559439e-06
-2.0022206e-08
-1.2781755e-08
1.0049769e-05
-1.2867252e-08
-1.2115617e-08
1.0704044e-05
-5.8618469e-09
-1.1708434e-08
1.1268012e-05
2.108519e-09
-1.2105032e-08
1.1668703e-05
8.48059e-09
-9.9354414e-09
1.1803244e-05
1.467767e-08
-9.8479875e-09
1.1545979e-05
1.9386816e-08
-8.0628748e-09
1.0727369e-05
2.0625126e-08
-5.6835888e-09
9.1365054e-06
2.1645616e-08
-7.3733142e-09
6.512327e-06
7.605403e-09
2.5412072e-06
1.0366371e-08
8.4971392e-10
4.8003467e-08
3.0435583e-08
2.8950489e-09
1.4575313e-07
5.2464809e-08
5.8019569e-09
2.5640591e-07
7.1243128e-08
8.0787539e-09
3.7465997e-07
8.5689492e-08
9.114269e-09
4.9840537e-07
9.5612221e-08
1.0173255e-08
6.2875235e-07
1.0236715e-07
1.0149213e-08
7.6862131e-07
1.0649879e-07
1.0161706e-08
9.2133424e-07
1.0802762e-07
1.0438947e-08
1.0898499e-06
1.0863307e-07
9.0100363e-09
1.2765592e-06
1.0726602e-07
9.2478872e-09
1.4833122e-06
1.0343304e-07
9.8152405e-09
1.7114678e-06
9.8663148e-08
8.6746071e-09
1.9620743e-06
9.1583361e-08
9.5110542e-09
2.2358519e-06
8.2705553e-08
9.3048248e-09
2.5331579e-06
7.2158871e-08
9.2693681e-09
2.8541589e-06
6.0832844e-08
8.0322218e-09
3.1988303e-06
4.7526052e-08
8.6186922e-09
3.5673797e-06
3.3321398e-08
7.3871257e-09
3.9599546e-06
1.8826652e-08
6.1793677e-09
4.3778936e-06
2.5077559e-09
6.6571766e-09
4.8222022e-06
-1.3970288e-08
4.609741e-09
5.2946535e-06
-3.0212423e-08
3.3920763e-09
5.8018689e-06
-4.6464917e-08
2.332308e-09
6.3484387e-06
-6.453607e-08
3.7463991e-09
6.9369902e-06
-8.0477717e-08
-4.9492393e-10
7.5732404e-06
-9.7025576e-08
1.4945083e-09
8.2602088e-06
-1.1196494e-07
-2.4125317e-09
8.9968484e-06
-1.2506421e-07
-1.8110416e-09
9.7800656e-06
-1.3855794e-07
-2.4760521e-09
1.0591558e-05
-1.4783095e-07
-5.5743922e-09
1.1417212e-05
-1.5491082e-07
-5.1381192e-09
1.2213155e-05
-1.6183671e-07
-4.5114035e-09
1.2909064e-05
-1.6363527e-07
-8.1776912e-09
1.3436584e-05
-1.6107077e-07
-6.9707547e-09
1.3675377e-05
-1.5688807e-07
-7.0264924e-09
1.345529e-05
-1.4389459e-07
-8.5311403e-09
1.2598999e-05
-1.3372383e-07
-2.8767415e-09
1.0820775e-05
-8.3731625e-08
-2.3774081e-08
7.9086158e-06
-5.4768769e-09
3.2617784e-06
9.1765715e-09
4.8093997e-08
2.695465e-08
1.4615482e-07
4.6150695e-08
2.5732994e-07
6.261205e-08
3.7634923e-07
7.5213697e-08
5.0121115e-07
8.5605935e-08
6.3328462e-07
9.4268632e-08
7.7582087e-07
1.0222472e-07
9.3254994e-07
1.1025357e-07
1.1069449e-06
1.1661886e-07
1.3018111e-06
1.2314908e-07
1.5201346e-06
1.3026633e-07
1.7642089e-06
1.3575127e-07
2.0354416e-06
1.4225618e-07
2.3371138e-06
1.4815864e-07
2.6691639e-06
1.5422214e-07
3.0338674e-06
1.5794613e-07
3.4293417e-06
1.6296094e-07
3.8606258e-06
1.6484966e-07
4.3204502e-06
1.6491773e-07
4.8173986e-06
1.6627656e-07
5.3524203e-06
1.624957e-07
5.911966e-06
1.5560131e-07
6.51364e-06
1.4806594e-07
7.1705146e-06
1.406082e-07
7.8752153e-06
1.2673197e-07
8.6380343e-06
1.1662226e-07
9.4780646e-06
9.9938553e-08
1.0369361e-05
8.4567711e-08
1.1334039e-05
6.8572319e-08
1.2351416e-05
4.4757051e-08
1.3391439e-05
2.779642e-08
1.4509827e-05
1.6522087e-08
1.5542704e-05
-9.0825871e-09
1.6265954e-05
-2.2556734e-08
1.675083e-05
-5.2354076e-08
1.654546e-05
-4.9413865e-08
1.5712319e-05
-8.2683101e-08
1.3062713e-05
-2.9306227e-07
8.703182e-06
4.6698295e-06
-2.6596909e-09
4.5673648e-10
5.0296951e-08
-1.0456418e-08
1.6193472e-09
1.5233221e-07
-2.333471e-08
2.9904941e-09
2.6721776e-07
-4.0073081e-08
4.3469755e-09
3.8874062e-07
-5.8839382e-08
6.0365526e-09
5.1394094e-07
-7.6172548e-08
6.5187601e-09
6.4409904e-07
-9.0939046e-08
7.2791181e-09
7.8330832e-07
-1.0189474e-07
7.1579404e-09
9.3634775e-07
-1.0844648e-07
6.097329e-09
1.1073994e-06
-1.1321753e-07
6.8782346e-09
1.299704e-06
-1.1424572e-07
5.1609225e-09
1.516002e-06
-1.1134542e-07
2.8471738e-09
1.7584616e-06
-1.0751187e-07
2.8377391e-09
2.0287705e-06
-9.9690512e-08
7.617122e-11
2.3292165e-06
-8.9869067e-08
-1.2416975e-09
2.6605843e-06
-7.7726363e-08
-2.6033857e-09
3.0243284e-06
-6.6233067e-08
-2.1980693e-09
3.4200467e-06
-5.148773e-08
-4.387565e-09
3.8502684e-06
-3.8882261e-08
-3.7187114e-09
4.3115637e-06
-2.739226e-08
-3.0798426e-09
4.8089888e-06
-1.3314912e-08
-4.8679671e-09
5.3432112e-06
-4.7861743e-09
-2.776057e-09
5.9062135e-06
-2.887531e-11
-1.6632568e-09
6.5105463e-06
4.1738415e-09
-1.2794371e-09
7.1675915e-06
9.1447762e-09
-4.1463814e-09
7.8743909e-06
5.7559607e-09
1.3288738e-09
8.6400943e-06
7.1496885e-09
-2.2746129e-09
9.4789451e-06
1.548121e-10
2.8280953e-09
1.0373528e-05
-5.3276402e-09
1.2997312e-09
1.1338221e-05
-1.1386386e-08
1.37787e-09
1.2356096e-05
-2.8045534e-08
5.9253228e-09
1.3402172e-05
-3.5249575e-08
4.1280892e-09
1.4512901e-05
-3.4406029e-08
2.6573374e-09
1.5539202e-05
-5.1717274e-08
7.8590154e-09
1.6275404e-05
-5.4118379e-08
4.997809e-09
1.6748231e-05
-7.4497736e-08
4.6245214e-09
1.6561212e-05
-5.5975438e-08
4.4459286e-09
1.5689349e-05
-8.7227344e-08
-2.6191801e-09
1.3096581e-05
-3.0564891e-07
2.3322716e-08
8.8982808e-06
-8.2444524e-09
4.3724246e-06
-2.4746784e-09
7.0145526e-10
5.0233435e-08
-9.4464286e-09
2.3005744e-09
1.5204367e-07
-2.0568149e-08
4.0079737e-09
2.6651016e-07
-3.4723691e-08
5.8156997e-09
3.8734684e-07
-4.917222e-08
7.4315526e-09
5.1145893e-07
-6.2210202e-08
8.4078264e-09
6.3990131e-07
-7.1602228e-08
8.8587039e-09
7.764338e-07
-7.7057031e-08
8.5163819e-09
9.2543067e-07
-7.9403658e-08
7.6989145e-09
1.090595e-06
-7.7430567e-08
6.8161011e-09
1.2746483e-06
-7.3739853e-08
5.3506079e-09
1.4794318e-06
-6.9890747e-08
4.2518884e-09
1.7062142e-06
-6.4571199e-08
3.6649952e-09
1.9559276e-06
-6.0562093e-08
2.8167647e-09
2.2291024e-06
-5.7570373e-08
2.8154e-09
2.5261093e-06
-5.5949294e-08
2.8758586e-09
2.8470587e-06
-5.4729405e-08
3.4433288e-09
3.1919692e-06
-5.6234434e-08
3.6155972e-09
3.5608819e-06
-5.8793966e-08
4.6522846e-09
3.9541433e-06
-6.2110071e-08
5.3187722e-09
4.3728113e-06
-6.8536708e-08
5.8385572e-09
4.8179225e-06
-7.5639002e-08
7.1696579e-09
5.2918103e-06
-8.3153576e-08
7.715609e-09
5.8000048e-06
-9.1676366e-08
8.5493376e-09
6.3471328e-06
-1.0378071e-07
8.6524699e-09
6.9362957e-06
-1.1326553e-07
1.0768244e-08
7.5732859e-06
-1.2524203e-07
9.7622005e-09
8.2601482e-06
-1.3486371e-07
1.2039695e-08
8.9972583e-06
-1.4395009e-07
1.0908819e-08
9.7795421e-06
-1.5395789e-07
1.1829285e-08
1.0591114e-05
-1.5883788e-07
1.2087349e-08
1.1415929e-05
-1.6254534e-07
1.1111096e-08
1.2209878e-05
-1.6669758e-07
1.0645591e-08
1.2905227e-05
-1.6446354e-07
1.1011924e-08
1.3431196e-05
-1.5887726e-07
8.4224421e-09
1.3666365e-05
-1.5146665e-07
8.0072243e-09
1.3444495e-05
-1.3676147e-07
5.7981969e-09
1.2582941e-05
-1.2497862e-07
2.974983e-09
1.0803397e-05
-6.9632297e-08
4.1058447e-09
7.8724856e-06
-1.2775998e-08
3.1966776e-06
-2.171275e-09
6.5042038e-10
5.0148518e-08
-8.0110209e-09
1.893475e-09
1.516532e-07
-1.7233352e-08
3.2620066e-09
2.6557045e-07
-2.8917443e-08
5.0527388e-09
3.8547174e-07
-4.1410343e-08
7.1253813e-09
5.0792481e-07
-5.3048151e-08
9.0420862e-09
6.3341261e-07
-6.2443963e-08
1.0383176e-08
7.6499512e-07
-6.9236391e-08
1.0889485e-08
9.0631368e-07
-7.3607515e-08
1.0683518e-08
1.0603312e-06
-7.5865947e-08
9.9396366e-09
1.2289872e-06
-7.7121016e-08
8.8724409e-09
1.4133682e-06
-7.7839407e-08
7.8654033e-09
1.6141189e-06
-7.8023683e-08
6.9127912e-09
1.8318083e-06
-7.8355436e-08
6.0790657e-09
2.0669114e-06
-7.8463545e-08
5.5113739e-09
2.3200759e-06
-7.8481611e-08
5.0449585e-09
2.5921159e-06
-7.8020831e-08
4.6982956e-09
2.8841557e-06
-7.7510098e-08
4.4090122e-09
3.1974421e-06
-7.6239118e-08
4.2762714e-09
3.5336825e-06
-7.4456548e-08
4.0390878e-09
3.8946858e-06
-7.2464071e-08
3.9703132e-09
4.2827561e-06
-6.9450839e-08
3.90576e-09
4.7007723e-06
-6.6092563e-08
3.7767906e-09
5.1515424e-06
-6.2148213e-08
3.7042252e-09
5.6381945e-06
-5.8456526e-08
3.7760175e-09
6.1634368e-06
-5.2915319e-08
3.7690795e-09
6.7298688e-06
-4.8344483e-08
3.5846271e-09
7.3368983e-06
-4.1810711e-08
3.7384798e-09
7.9832849e-06
-3.5896032e-08
3.2478133e-09
8.6609752e-06
-2.929151e-08
3.4570841e-09
9.3577113e-06
-2.1701669e-08
2.9571853e-09
1.0051309e-05
-1.464684e-08
2.7125771e-09
1.0705387e-05
-7.6378776e-09
2.5937334e-09
1.1269055e-05
5.9882586e-10
2.1542973e-09
1.1669323e-05
7.0623354e-09
1.5902189e-09
1.1803612e-05
1.332985e-08
1.4898853e-09
1.1546228e-05
1.7928676e-08
5.7224843e-10
1.0727995e-05
1.8658449e-08
5.7222622e-10
9.138177e-06
1.8892234e-08
-7.9558159e-10
6.5169947e-06
-1.639309e-09
2.5489626e-06
-1.7247101e-09
2.9934084e-10
5.0032848e-08
-6.4208962e-09
9.2804788e-10
1.5121881e-07
-1.3897672e-08
1.8482611e-09
2.6469667e-07
-2.3395973e-08
3.423637e-09
3.8387179e-07
-3.3335744e-08
5.3882081e-09
5.0483946e-07
-4.1775636e-08
7.0351112e-09
6.2743407e-07
-4.7210956e-08
7.7699183e-09
7.5414817e-07
-4.9099695e-08
7.4405494e-09
8.8830129e-07
-4.7640535e-08
6.3077738e-09
1.0328218e-06
-4.3527828e-08
4.7712828e-09
1.1898296e-06
-3.7663719e-08
3.2033106e-09
1.3607039e-06
-3.0759666e-08
1.8651389e-09
1.5463407e-06
-2.3493886e-08
8.4247312e-10
1.7473957e-06
-1.6399059e-08
1.6558424e-10
1.96446e-06
-9.7889545e-09
-1.8080702e-10
2.198204e-06
-3.862365e-09
-2.8636918e-10
2.4495555e-06
1.317116e-09
-1.9919725e-10
2.719522e-06
5.625673e-09
6.0846424e-12
3.0094011e-06
9.0729341e-09
2.9804298e-10
3.3206695e-06
1.1495313e-08
6.2961363e-10
3.6548508e-06
1.3009323e-08
1.0152581e-09
4.0137003e-06
1.3638989e-08
1.4018536e-09
4.3990988e-06
1.3363682e-08
1.7771191e-09
4.8129187e-06
1.2250217e-08
2.1883141e-09
5.2568441e-06
1.0558514e-08
2.5410254e-09
5.7320326e-06
8.3215478e-09
2.8560333e-09
6.2385968e-06
5.5112815e-09
3.1070626e-09
6.7748644e-06
2.5565248e-09
3.3647731e-09
7.336525e-06
-8.911645e-10
3.4957483e-09
7.9151799e-06
-4.1557923e-09
3.6891203e-09
8.4971671e-06
-7.736376e-09
3.6603005e-09
9.0611998e-06
-1.1369253e-08
3.761839e-09
9.5771151e-06
-1.4565849e-08
3.6840831e-09
1.0002045e-05
-1.7394284e-08
3.4776771e-09
1.027658e-05
-1.974e-08
3.1981368e-09
1.0321815e-05
-2.0722648e-08
2.6826796e-09
1.0034975e-05
-2.0365053e-08
1.8287614e-09
9.2821975e-06
-1.6738461e-08
5.613008e-10
7.890783e-06
-9.5444593e-09
-1.0800503e-09
5.6336733e-06
-1.9700387e-09
2.2122675e-06
-1.581926e-09
-2.3376819e-15
4.9928203e-08
-5.5740885e-09
-1.4018115e-15
1.5088778e-07
-1.139974e-08
-1.5895186e-15
2.6413376e-07
-1.7824476e-08
1.4298162e-15
3.8294209e-07
-2.3240747e-08
-3.326588e-15
5.0308601e-07
-2.6420176e-08
-3.1123048e-15
6.240463e-07
-2.704383e-08
-2.6801699e-15
7.4809314e-07
-2.5615577e-08
-3.3217044e-15
8.7848997e-07
-2.3003099e-08
-1.489797e-15
1.0181814e-06
-2.0046019e-08
-2.0550697e-15
1.1693097e-06
-1.7335585e-08
3.8962228e-15
1.3332636e-06
-1.5165507e-08
2.0723937e-15
1.5109236e-06
-1.3635659e-08
6.9799629e-15
1.7029105e-06
-1.2699338e-08
4.5772104e-15
1.9097787e-06
-1.2234611e-08
3.3635529e-15
2.1321481e-06
-1.2124792e-08
-1.3064267e-16
2.3708014e-06
-1.2232085e-08
4.5723533e-16
2.6267219e-06
-1.2463677e-08
7.2687354e-17
2.9010789e-06
-1.273996e-08
-6.9185091e-15
3.1952273e-06
-1.3014996e-08
-1.5109892e-15
3.5106702e-06
-1.3220803e-08
-7.207638e-15
3.8490289e-06
-1.3334088e-08
-1.5885924e-15
4.2119539e-06
-1.3340606e-08
-1.4797941e-14
4.6009951e-06
-1.3174274e-08
-3.9483148e-15
5.017402e-06
-1.2857776e-08
-6.6123682e-15
5.4618108e-06
-1.2388681e-08
-8.2948144e-15
5.9338324e-06
-1.1788767e-08
-3.9800253e-15
6.431468e-06
-1.1008376e-08
-5.6101807e-15
6.9503581e-06
-1.012097e-08
2.8728931e-15
7.4827483e-06
-9.0149431e-09
1.779312e-15
8.016222e-06
-7.8406736e-09
3.1947096e-15
8.531952e-06
-6.4166664e-09
-6.1700302e-15
9.0026263e-06
-4.8321701e-09
3.4781954e-16
9.3895949e-06
-3.1186259e-09
-9.8024673e-16
9.6393066e-06
-1.2641821e-09
1.2207605e-14
9.678828e-06
5.3154249e-10
-5.84951e-16
9.4104136e-06
2.2450654e-09
1.2895657e-14
8.7059075e-06
3.1682616e-09
8.5796814e-15
7.3986409e-06
2.3209839e-09
4.3526881e-14
5.2746687e-06
-9.8629536e-14
2.0653898e-06
-1.5819227e-09
-2.9934522e-10
4.9928202e-08
-5.5740953e-09
-9.280558e-10
1.5088777e-07
-1.1399732e-08
-1.8482668e-09
2.6413375e-07
-1.7824495e-08
-3.4236425e-09
3.8294209e-07
-2.3240746e-08
-5.3882125e-09
5.0308601e-07
-2.6420166e-08
-7.0351198e-09
6.2404629e-07
-2.7043837e-08
-7.769929e-09
7.4809313e-07
-2.5615578e-08
-7.4405589e-09
8.7848996e-07
-2.3003119e-08
-6.307781e-09
1.0181814e-06
-2.0045975e-08
-4.7712875e-09
1.1693096e-06
-1.7335608e-08
-3.2033156e-09
1.3332636e-06
-1.5165474e-08
-1.8651377e-09
1.5109235e-06
-1.3635698e-08
-8.4246859e-10
1.7029105e-06
-1.2699363e-08
-1.6557262e-10
1.9097787e-06
-1.2234609e-08
1.808189e-10
2.1321481e-06
-1.2124771e-08
2.8637628e-10
2.3708013e-06
-1.22321e-08
1.9920399e-10
2.6267219e-06
-1.2463804e-08
-6.0792373e-12
2.9010789e-06
-1.273988e-08
-2.9803422e-10
3.1952273e-06
-1.3015106e-08
-6.2961022e-10
3.5106702e-06
-1.3220657e-08
-1.0152541e-09
3.8490288e-06
-1.3334258e-08
-1.4018544e-09
4.2119538e-06
-1.3340396e-08
-1.7771173e-09
4.600995e-06
-1.3174319e-08
-2.1883227e-09
5.0174019e-06
-1.2857793e-08
-2.5410451e-09
5.4618107e-06
-1.2388585e-08
-2.8560454e-09
5.9338323e-06
-1.1788909e-08
-3.1070788e-09
6.4314679e-06
-1.1008284e-08
-3.3647879e-09
6.9503579e-06
-1.0120961e-08
-3.4957587e-09
7.4827481e-06
-9.0150165e-09
-3.6891177e-09
8.0162219e-06
-7.8406083e-09
-3.660287e-09
8.5319519e-06
-6.4165531e-09
-3.7618391e-09
9.0026262e-06
-4.8323341e-09
-3.6840816e-09
9.3895949e-06
-3.1182728e-09
-3.4776575e-09
9.6393066e-06
-1.2642909e-09
-3.1981444e-09
9.678828e-06
5.3144184e-10
-2.6826792e-09
9.4104135e-06
2.2453637e-09
-1.8287399e-09
8.7059075e-06
3.1691554e-09
-5.6131269e-10
7.3986406e-06
2.3185373e-09
1.0799808e-09
5.2746681e-06
1.9700296e-09
2.0653902e-06
-1.724717e-09
-6.5042291e-10
5.0032846e-08
-6.4209069e-09
-1.8934766e-09
1.5121881e-07
-1.3897674e-08
-3.262011e-09
2.6469666e-07
-2.3395987e-08
-5.0527444e-09
3.8387178e-07
-3.3335761e-08
-7.1253868e-09
5.0483944e-07
-4.1775637e-08
-9.042095e-09
6.2743405e-07
-4.7210971e-08
-1.0383186e-08
7.5414814e-07
-4.9099707e-08
-1.0889493e-08
8.8830125e-07
-4.7640547e-08
-1.0683523e-08
1.0328218e-06
-4.3527833e-08
-9.939639e-09
1.1898296e-06
-3.766372e-08
-8.8724457e-09
1.3607038e-06
-3.0759638e-08
-7.8654087e-09
1.5463406e-06
-2.3493867e-08
-6.9127946e-09
1.7473957e-06
-1.6399055e-08
-6.0790683e-09
1.9644599e-06
-9.7889401e-09
-5.5113782e-09
2.1982039e-06
-3.862318e-09
-5.0449482e-09
2.4495555e-06
1.3171285e-09
-4.698293e-09
2.7195219e-06
5.6256257e-09
-4.4090063e-09
3.009401e-06
9.0729672e-09
-4.27626e-09
3.3206694e-06
1.1495263e-08
-4.0390795e-09
3.6548507e-06
1.3009465e-08
-3.9703079e-09
4.0137003e-06
1.3638825e-08
-3.9057604e-09
4.3990988e-06
1.3363784e-08
-3.7767717e-09
4.8129186e-06
1.2250129e-08
-3.7042201e-09
5.256844e-06
1.0558595e-08
-3.7760192e-09
5.7320325e-06
8.3214733e-09
-3.7690753e-09
6.2385967e-06
5.5112079e-09
-3.5846255e-09
6.7748644e-06
2.5566686e-09
-3.7384801e-09
7.336525e-06
-8.9101646e-10
-3.2478292e-09
7.9151799e-06
-4.1557207e-09
-3.4571054e-09
8.4971671e-06
-7.7366031e-09
-2.9572026e-09
9.0611998e-06
-1.1368985e-08
-2.7125846e-09
9.5771152e-06
-1.4565727e-08
-2.5937499e-09
1.0002045e-05
-1.7394621e-08
-2.1543261e-09
1.027658e-05
-1.9739629e-08
-1.5902431e-09
1.0321815e-05
-2.0722819e-08
-1.4899218e-09
1.0034975e-05
-2.0365357e-08
-5.7228033e-10
9.2821975e-06
-1.6737903e-08
-5.7223167e-10
7.890783e-06
-9.5444517e-09
7.9556578e-10
5.6336729e-06
1.6392535e-09
2.2122672e-06
-2.1712671e-09
-7.0145432e-10
5.0148518e-08
-8.0110274e-09
-2.3005748e-09
1.516532e-07
-1.7233357e-08
-4.0079748e-09
2.6557043e-07
-2.8917446e-08
-5.8156983e-09
3.8547172e-07
-4.1410365e-08
-7.4315531e-09
5.0792478e-07
-5.3048151e-08
-8.4078273e-09
6.3341258e-07
-6.2443982e-08
-8.8587053e-09
7.6499507e-07
-6.9236391e-08
-8.516382e-09
9.0631363e-07
-7.360753e-08
-7.6989158e-09
1.0603312e-06
-7.5866001e-08
-6.8161048e-09
1.2289872e-06
-7.7121057e-08
-5.35061e-09
1.4133681e-06
-7.7839438e-08
-4.2518945e-09
1.6141188e-06
-7.8023765e-08
-3.6650013e-09
1.8318082e-06
-7.8355514e-08
-2.816769e-09
2.0669112e-06
-7.8463484e-08
-2.8154041e-09
2.3200758e-06
-7.8481734e-08
-2.8758688e-09
2.5921157e-06
-7.8020862e-08
-3.4433358e-09
2.8841555e-06
-7.7510164e-08
-3.6156033e-09
3.197442e-06
-7.6239127e-08
-4.6522909e-09
3.5336823e-06
-7.4456632e-08
-5.3187761e-09
3.8946856e-06
-7.246412e-08
-5.8385617e-09