/*--------------------------------*- C++ -*----------------------------------*\
| =========                 |                                                 |
| \\      /  F ield         | OpenFOAM: The Open Source CFD Toolbox           |
|  \\    /   O peration     | Version:  4.0                                   |
|   \\  /    A nd           | Web:      www.OpenFOAM.org                      |
|    \\/     M anipulation  |                                                 |
\*---------------------------------------------------------------------------*/
FoamFile
{
    version     2.0;
    format      ascii;
    class       surfaceScalarField;
    location    "2000";
    object      phi;
}
// * * * * * * * * * * * * * * * * * * * * * * * * * * * * * * * * * * * * * //

dimensions      [1 0 -1 0 0 0 0];

internalField   nonuniform List<scalar> 
287000
(
5.4276408e-10
-2.9641205e-11
1.2871023e-09
2.2421222e-09
-1.2137788e-10
4.3382756e-09
5.2188327e-09
-2.1181627e-10
8.3056072e-09
9.6949885e-09
-4.199165e-10
1.3371735e-08
1.5763589e-08
-6.6620645e-10
1.9745378e-08
2.3597274e-08
-1.0971765e-09
2.7651768e-08
3.3161109e-08
-1.5870739e-09
3.732671e-08
4.4464076e-08
-2.2691096e-09
4.900916e-08
5.7257052e-08
-2.977167e-09
6.293424e-08
7.138509e-08
-3.8792033e-09
7.9330517e-08
8.6559889e-08
-4.8957014e-09
9.8422054e-08
1.0244649e-07
-5.9985544e-09
1.2044154e-07
1.1849297e-07
-6.950617e-09
1.4565666e-07
1.3465893e-07
-8.2088382e-09
1.7440809e-07
1.5014868e-07
-8.9338595e-09
2.0715815e-07
1.648051e-07
-9.675138e-09
2.4455002e-07
1.7827359e-07
-1.0118624e-08
2.8747217e-07
1.9045592e-07
-1.0449222e-08
3.3711142e-07
2.0082464e-07
-1.0167319e-08
3.9502586e-07
2.0962463e-07
-1.001121e-08
4.6317243e-07
2.1656387e-07
-9.4463635e-09
5.439516e-07
2.2073652e-07
-7.9149914e-09
6.4025297e-07
2.2328884e-07
-7.4774167e-09
7.5552369e-07
2.2358001e-07
-6.3938802e-09
8.9375857e-07
2.2020134e-07
-4.3102016e-09
1.0595901e-06
2.1400955e-07
-2.9022906e-09
1.2589965e-06
2.0525717e-07
-2.10151e-09
1.4984658e-06
1.9370641e-07
-1.4445106e-09
1.7857624e-06
1.7875982e-07
-2.1448345e-10
2.1308712e-06
1.6232804e-07
-1.0753395e-09
2.5453745e-06
1.4504804e-07
-2.8238418e-09
3.0435153e-06
1.2495908e-07
-1.6870063e-09
3.6430908e-06
1.0060103e-07
-3.260554e-10
4.3617121e-06
7.5913874e-08
-1.5989855e-09
5.2287623e-06
5.2310535e-08
-4.1727194e-09
6.2728911e-06
2.7505001e-08
-4.9556799e-09
7.5281374e-06
5.0252364e-09
-8.5039559e-09
9.0432351e-06
-1.1655785e-08
-1.4921245e-08
1.0869437e-05
-3.3836002e-08
-1.0187519e-08
1.3068939e-05
-4.7885317e-08
-1.8778821e-08
1.5722233e-05
-5.9398245e-08
-2.2132405e-08
1.8924206e-05
-6.459237e-08
-2.8724538e-08
2.2791319e-05
-7.137858e-08
-2.8545736e-08
2.7452644e-05
-7.1524444e-08
-3.6136174e-08
3.3083938e-05
-7.0714331e-08
-3.8952243e-08
3.9879549e-05
-6.4782124e-08
-4.5578211e-08
4.8087095e-05
-5.7459653e-08
-4.945047e-08
5.8001366e-05
-4.4884246e-08
-5.5054651e-08
6.9970193e-05
-3.0996185e-08
-6.1704816e-08
8.4452624e-05
-6.7697524e-08
0.00010193861
5.6937329e-10
-8.7261046e-11
1.2857096e-09
2.3053491e-09
-2.8377263e-10
4.3332999e-09
5.430605e-09
-5.7955751e-10
8.2956352e-09
1.0110353e-08
-1.0548676e-09
1.3354869e-08
1.6576411e-08
-1.7458327e-09
1.9719194e-08
2.4873709e-08
-2.6785636e-09
2.7613371e-08
3.5098753e-08
-3.8602097e-09
3.7272871e-08
4.7115088e-08
-5.2807426e-09
4.8936647e-08
6.0821994e-08
-6.8985536e-09
6.2840655e-08
7.5809075e-08
-8.6480559e-09
7.9214263e-08
9.1591598e-08
-1.042739e-08
9.8283442e-08
1.0756916e-07
-1.2111566e-08
1.2028324e-07
1.2326186e-07
-1.3565259e-08
1.4548238e-07
1.3766083e-07
-1.4661645e-08
1.7422067e-07
1.5053896e-07
-1.5260841e-08
2.0695875e-07
1.6115826e-07
-1.5301075e-08
2.4433558e-07
1.6913204e-07
-1.4716906e-08
2.8723253e-07
1.741414e-07
-1.3666346e-08
3.3683602e-07
1.7644281e-07
-1.2162201e-08
3.9470572e-07
1.7565811e-07
-1.0269929e-08
4.6280121e-07
1.7214282e-07
-8.1873956e-09
5.435342e-07
1.6708352e-07
-6.2193693e-09
6.3980006e-07
1.5986046e-07
-4.6730618e-09
7.5502346e-07
1.5072213e-07
-2.7519061e-09
8.932213e-07
1.4089534e-07
-1.1434162e-09
1.059113e-06
1.2932367e-07
7.4458779e-10
1.2582756e-06
1.2637617e-07
-8.5810375e-09
1.4973971e-06
1.108932e-07
3.1221763e-09
1.7843651e-06
1.0451526e-07
-6.466189e-09
2.1289022e-06
8.6578866e-08
2.7220521e-09
2.5425268e-06
7.4043808e-08
-6.0817532e-09
3.0394917e-06
5.5422754e-08
-2.6564819e-10
3.6367619e-06
3.9039102e-08
-2.4469366e-09
4.3549406e-06
2.2922567e-08
-5.0047335e-09
5.2190223e-06
6.2160323e-09
-7.7292622e-09
6.2590656e-06
-8.9152042e-09
-1.0539673e-08
7.5113679e-06
-2.4120047e-08
-1.3877525e-08
9.019863e-06
-4.1868684e-08
-1.7164769e-08
1.0837337e-05
-5.0776221e-08
-2.0608493e-08
1.3028309e-05
-6.3395051e-08
-2.4288279e-08
1.566976e-05
-7.4120304e-08
-2.8055351e-08
1.8855117e-05
-8.5642714e-08
-3.1827936e-08
2.2696716e-05
-9.1098972e-08
-3.5699894e-08
2.7331507e-05
-9.7361386e-08
-3.9663877e-08
3.2923206e-05
-9.9277639e-08
-4.3684715e-08
3.9671272e-05
-9.9183572e-08
-4.7709335e-08
4.781478e-05
-9.3858343e-08
-5.1768792e-08
5.7646448e-05
-7.9250823e-08
-5.5838824e-08
6.9510806e-05
-6.1203726e-08
-5.9699333e-08
8.3855236e-05
-6.6299574e-08
0.00010112122
6.2358496e-10
-2.0187674e-10
1.284052e-09
2.5585006e-09
-6.5411916e-10
4.3280592e-09
5.9808598e-09
-1.2612846e-09
8.2863551e-09
1.1051673e-08
-2.1079517e-09
1.334123e-08
1.7873036e-08
-3.2206488e-09
1.9701074e-08
2.6440883e-08
-4.5859236e-09
2.7591149e-08
3.6611773e-08
-6.1526008e-09
3.7247741e-08
4.8076215e-08
-7.8341887e-09
4.8911008e-08
6.0360784e-08
-9.514089e-09
6.2818047e-08
7.2859821e-08
-1.1071026e-08
7.9198677e-08
8.4883403e-08
-1.2371161e-08
9.8277244e-08
9.5697705e-08
-1.3263861e-08
1.2028408e-07
1.0469048e-07
-1.3714706e-08
1.4547979e-07
1.1127533e-07
-1.3563613e-08
1.7419382e-07
1.1502351e-07
-1.2740805e-08
2.0687689e-07
1.1568857e-07
-1.1258187e-08
2.4416397e-07
1.1336471e-07
-9.2795702e-09
2.8694209e-07
1.0834016e-07
-7.0676294e-09
3.3642404e-07
1.0126477e-07
-4.9232046e-09
3.9418118e-07
9.2937625e-08
-3.0240111e-09
4.6219322e-07
8.3728223e-08
-1.1353461e-09
5.428781e-07
7.364962e-08
7.7631631e-10
6.3911212e-07
7.3212337e-08
-8.1934498e-09
7.543102e-07
6.1818198e-08
3.9048487e-09
8.923907e-07
5.9780198e-08
-4.689131e-09
1.0580523e-06
4.9862871e-08
4.2722098e-09
1.256768e-06
3.647106e-08
-2.4055318e-09
1.4951602e-06
2.900762e-08
2.4812145e-09
1.7811917e-06
1.5603266e-08
-1.9148875e-09
2.1244024e-06
8.9740634e-09
-3.4340362e-10
2.5365737e-06
-5.2027551e-09
-2.189949e-09
3.0316674e-06
-1.269886e-08
-3.6755605e-09
3.6268159e-06
-2.1147123e-08
-5.3325047e-09
4.3424706e-06
-3.0540349e-08
-7.1350249e-09
5.2034078e-06
-4.0629172e-08
-9.0687368e-09
6.2395307e-06
-5.1054717e-08
-1.1121758e-08
7.486938e-06
-6.1883482e-08
-1.3270376e-08
8.9892036e-06
-7.2611311e-08
-1.5498057e-08
1.0798954e-05
-8.2959707e-08
-1.7767723e-08
1.2979681e-05
-9.2735765e-08
-2.006023e-08
1.5608076e-05
-1.0160571e-07
-2.2334268e-08
1.8776676e-05
-1.0915996e-07
-2.4559458e-08
2.2597282e-05
-1.1504159e-07
-2.6697649e-08
2.7204868e-05
-1.1880285e-07
-2.8709994e-08
3.2762527e-05
-1.1979235e-07
-3.0532624e-08
3.9467315e-05
-1.1698097e-07
-3.2104226e-08
4.7557532e-05
-1.0887063e-07
-3.3375584e-08
5.7321736e-05
-9.1923068e-08
-3.424149e-08
6.9107819e-05
-6.4050418e-08
-3.5001286e-08
8.3347305e-05
-3.5522044e-08
0.00010051346
6.1507838e-10
-3.1499737e-10
1.2887815e-09
2.4744897e-09
-9.721642e-10
4.345016e-09
5.6527611e-09
-1.7428551e-09
8.3205054e-09
1.0195578e-08
-2.7026869e-09
1.339892e-08
1.6016813e-08
-3.7959575e-09
1.979029e-08
2.2896523e-08
-4.9424852e-09
2.7721568e-08
3.0489953e-08
-6.0481891e-09
3.7430215e-08
3.8360862e-08
-7.0253123e-09
4.9155983e-08
4.5907399e-08
-7.6805371e-09
6.313246e-08
5.2542911e-08
-7.9833066e-09
7.9581385e-08
5.7561093e-08
-7.7294518e-09
9.8713665e-08
6.0721074e-08
-7.2461764e-09
1.2074201e-07
6.2118508e-08
-6.8061425e-09
1.4590883e-07
6.1630497e-08
-5.9615735e-09
1.7453157e-07
5.9402437e-08
-4.8121383e-09
2.0706186e-07
5.5933597e-08
-3.6118453e-09
2.4415199e-07
5.1458134e-08
-2.1522188e-09
2.8672101e-07
4.635594e-08
-7.4275521e-10
3.3599747e-07
4.0769412e-08
6.305189e-10
3.9356674e-07
3.4979773e-08
1.6782536e-09
4.614213e-07
2.9700034e-08
2.1955903e-09
5.4195919e-07
2.9230599e-08
-1.4018979e-09
6.3802492e-07
1.7945741e-08
-8.7123864e-11
7.5294119e-07
1.7228665e-08
9.5309553e-10
8.906641e-07
7.3827168e-09
1.0905932e-09
1.055802e-06
5.9189369e-09
1.2036688e-09
1.2539173e-06
-1.0614224e-09
-3.7480388e-10
1.4915881e-06
-3.2786685e-09
-7.6854215e-10
1.7768796e-06
-9.9803671e-09
-1.2075757e-09
2.1194142e-06
-1.5201885e-08
-1.6349438e-09
2.5307359e-06
-2.2087979e-08
-2.2213078e-09
3.0248241e-06
-2.9992861e-08
-2.943703e-09
3.618617e-06
-3.8799353e-08
-3.7640306e-09
4.3325628e-06
-4.835011e-08
-4.658611e-09
5.1913428e-06
-5.8454112e-08
-5.612066e-09
6.2247455e-06
-6.8872796e-08
-6.6293034e-09
7.4687245e-06
-7.9339551e-08
-7.6930195e-09
8.9666755e-06
-8.9597744e-08
-8.7595697e-09
1.0770978e-05
-9.9328421e-08
-9.8432086e-09
1.2944866e-05
-1.0824076e-07
-1.0884742e-08
1.5564676e-05
-1.1596908e-07
-1.1907645e-08
1.87226e-05
-1.2210886e-07
-1.2886808e-08
2.252999e-05
-1.2622788e-07
-1.3726666e-08
2.7121385e-05
-1.278006e-07
-1.4376073e-08
3.2659458e-05
-1.2600778e-07
-1.4901697e-08
3.9341017e-05
-1.1976875e-07
-1.5237418e-08
4.7404416e-05
-1.0753065e-07
-1.535091e-08
5.7138679e-05
-8.6811451e-08
-1.5267465e-08
6.8894909e-05
-5.4134542e-08
-1.4786516e-08
8.3100734e-05
-1.3634322e-08
0.00010027078
-1.8822405e-10
3.5547046e-10
1.310767e-09
-6.5003478e-10
9.7056784e-10
4.4135814e-09
-1.4987199e-09
1.6975314e-09
8.4419506e-09
1.568567e-09
-1.9749356e-09
1.3580167e-08
5.5240412e-09
-2.7089861e-09
2.0040489e-08
1.0303024e-08
-3.45449e-09
2.8048851e-08
1.5801873e-08
-4.1604033e-09
3.784044e-08
2.1902997e-08
-4.8150371e-09
4.9649436e-08
2.8515425e-08
-5.3387345e-09
6.3699987e-08
3.5442101e-08
-5.6687181e-09
8.020173e-08
4.2766049e-08
-5.9184019e-09
9.9344138e-08
3.5599702e-08
8.5571496e-09
1.2132106e-07
2.8535696e-08
8.0352147e-09
1.4638412e-07
2.2159793e-08
7.0368695e-09
1.7485271e-07
1.6782247e-08
5.8319137e-09
2.0719651e-07
2.2097165e-08
-5.1118966e-09
2.440859e-07
1.8980292e-08
3.3611628e-09
2.8644603e-07
1.718695e-08
2.1443037e-09
3.3552104e-07
1.6644307e-08
1.1337672e-09
3.9291434e-07
1.7080402e-08
2.6598265e-10
4.6060746e-07
1.6127511e-08
1.4453506e-09
5.409882e-07
1.2820234e-08
-3.3478572e-10
6.3688981e-07
9.2440147e-09
8.2879476e-10
7.5166679e-07
7.3117908e-09
-1.4636987e-10
8.8925239e-07
4.8385248e-09
1.7129247e-10
1.0542932e-06
2.1772208e-09
7.5736579e-11
1.252316e-06
-2.3519774e-09
-6.2920965e-11
1.4899185e-06
-7.6270235e-09
-1.4531215e-10
1.7750151e-06
-1.3792174e-08
-9.2627673e-11
2.1171794e-06
-2.0766779e-08
-4.939411e-11
2.5280059e-06
-2.8749902e-08
1.3767504e-10
3.0214954e-06
-3.7367485e-08
-5.1805031e-11
3.614558e-06
-4.670396e-08
-6.8047002e-11
4.3275963e-06
-5.6601731e-08
-9.1862606e-11
5.1852441e-06
-6.7157109e-08
1.8219205e-10
6.2172311e-06
-7.7909511e-08
1.9956298e-10
7.4594421e-06
-8.8240694e-08
-1.6500576e-10
8.9551805e-06
-9.8613899e-08
2.6826729e-10
1.075671e-05
-1.0785932e-07
-2.4832301e-10
1.2927189e-05
-1.1657231e-07
3.634707e-10
1.5542682e-05
-1.2397436e-07
4.4012365e-10
1.8695382e-05
-1.2890401e-07
-5.3041872e-10
2.2496598e-05
-1.3123645e-07
-7.0240515e-10
2.7080376e-05
-1.3168915e-07
7.4770303e-10
3.2609586e-05
-1.2822712e-07
9.0289636e-10
3.9281089e-05
-1.1996907e-07
1.1751487e-09
4.7333627e-05
-1.0608824e-07
1.6031009e-09
5.705727e-05
-8.2128106e-08
-2.2332541e-09
6.8805187e-05
-4.6396003e-08
-2.7496182e-09
8.3005799e-05
4.0894871e-09
0.00010018614
6.1597485e-10
2.2428158e-10
1.3098869e-09
2.3853526e-09
6.8729778e-10
4.4117747e-09
5.4419759e-09
1.2410296e-09
8.4395431e-09
5.3701534e-09
1.9056833e-09
1.3576183e-08
5.0611122e-09
2.6642807e-09
2.0032825e-08
4.4270948e-09
3.4788393e-09
2.8034325e-08
3.3969442e-09
4.303103e-09
3.7814995e-08
1.8623199e-09
5.0956057e-09
4.9609076e-08
-2.1298449e-10
5.7750822e-09
6.3641134e-08
-2.8425347e-09
6.3068431e-09
8.0121375e-08
-6.1915829e-09
6.679904e-09
9.9247913e-08
3.8750579e-09
7.2260149e-09
1.2122756e-07
1.2119107e-08
7.6364065e-09
1.4631268e-07
1.8669731e-08
7.1425453e-09
1.7481211e-07
2.3880573e-08
5.8970168e-09
2.0718161e-07
1.8429984e-08
4.1652788e-09
2.4408215e-07
2.1621184e-08
2.5672809e-09
2.8645051e-07
2.4168622e-08
6.8657767e-10
3.3553257e-07
1.8498722e-08
6.7852617e-09
3.9291972e-07
1.3437865e-08
4.4040621e-09
4.6059755e-07
1.0926988e-08
2.3218487e-09
5.4096602e-07
7.9110345e-09
4.92027e-10
6.3687239e-07
8.2079814e-09
-2.1160198e-09
7.5166324e-07
6.5631002e-09
-1.5419121e-09
8.8926615e-07
4.8228573e-09
-1.5121535e-09
1.0543299e-06
2.5278838e-09
-1.4645716e-09
1.2523773e-06
-2.0623312e-09
2.7965764e-10
1.4899678e-06
-7.553089e-09
6.8261192e-10
1.7750481e-06
-1.3840994e-08
1.1324869e-09
2.1172117e-06
-2.0878194e-08
1.5846281e-09
2.5280384e-06
-2.8570249e-08
2.1854545e-09
3.0215246e-06
-3.7263614e-08
2.9113999e-09
3.6145733e-06
-4.6719728e-08
3.7492276e-09
4.3276041e-06
-5.6819776e-08
4.6738978e-09
5.1852523e-06
-6.7102275e-08
5.6706885e-09
6.2172494e-06
-7.7580143e-08
6.7026186e-09
7.4594717e-06
-8.8355836e-08
7.755935e-09
8.9552277e-06
-9.8397895e-08
8.8451484e-09
1.0756797e-05
-1.0824843e-07
9.9177413e-09
1.2927233e-05
-1.1662753e-07
1.0996826e-08
1.5542859e-05
-1.2354905e-07
1.2015222e-08
1.8695544e-05
-1.2929759e-07
1.2946663e-08
2.2496375e-05
-1.329479e-07
1.3825593e-08
2.7080155e-05
-1.3248168e-07
1.463348e-08
3.2609266e-05
-1.2827764e-07
1.5222296e-08
3.9280689e-05
-1.1905062e-07
1.5555505e-08
4.7333194e-05
-1.0279747e-07
1.5563895e-08
5.7056617e-05
-8.030042e-08
1.5151416e-08
6.8803537e-05
-4.8518345e-08
1.4523745e-08
8.300675e-05
1.3598192e-08
0.00010019119
5.9463351e-10
1.3513213e-10
1.2874626e-09
2.2891233e-09
5.4118046e-10
4.3421182e-09
5.0936678e-09
1.1427237e-09
8.316237e-09
8.9653281e-09
1.9953859e-09
1.3392757e-08
1.3754594e-08
3.1393723e-09
1.9781385e-08
1.9220208e-08
4.5613913e-09
2.770875e-08
2.5047604e-08
6.2068268e-09
3.7412008e-08
3.0883932e-08
7.9823263e-09
4.9130717e-08
3.6335063e-08
9.7588098e-09
6.309858e-08
4.10522e-08
1.1380115e-08
7.9537993e-08
4.4778403e-08
1.269214e-08
9.8661236e-08
4.7713696e-08
1.3555597e-08
1.2068288e-07
4.9859699e-08
1.3888502e-08
1.4584712e-07
5.0586221e-08
1.3622373e-08
1.7447197e-07
4.9523401e-08
1.2748634e-08
2.0700883e-07
4.6623181e-08
1.1319477e-08
2.4411183e-07
4.2380935e-08
9.5221111e-09
2.8669534e-07
3.6802067e-08
7.5221845e-09
3.3599067e-07
3.7868108e-08
5.6653679e-09
3.9359035e-07
3.7322392e-08
3.7910511e-09
4.6147073e-07
3.5868282e-08
1.7237645e-09
5.4202431e-07
3.417645e-08
-5.6531686e-10
6.3808896e-07
2.0895293e-08
7.8981832e-09
7.5299516e-07
1.9528093e-08
-3.9215487e-09
8.9070391e-07
9.1577078e-09
4.7302481e-09
1.0558176e-06
7.0543351e-09
-3.9241343e-09
1.253898e-06
-1.1209654e-10
2.4663572e-09
1.4915698e-06
-2.6483597e-09
-2.2788536e-09
1.7768698e-06
-9.3219075e-09
1.7700733e-09
2.1194184e-06
-1.4734295e-08
4.302598e-10
2.5307538e-06
-2.1466059e-08
1.925499e-09
3.0248587e-06
-2.9355874e-08
3.5412282e-09
3.6186638e-06
-3.8221535e-08
5.2849638e-09
4.3326185e-06
-4.7857995e-08
7.1455915e-09
5.1914057e-06
-5.8035974e-08
9.1155943e-09
6.2248157e-06
-6.8530354e-08
1.1191574e-08
7.4688026e-06
-7.9093534e-08
1.3355858e-08
8.966762e-06
-8.9430911e-08
1.559307e-08
1.0771073e-05
-9.9256822e-08
1.7871646e-08
1.2944963e-05
-1.0822885e-07
2.0169022e-08
1.5564772e-05
-1.1601101e-07
2.2450072e-08
1.8722676e-05
-1.2223203e-07
2.4687448e-08
2.2530022e-05
-1.2639944e-07
2.6832636e-08
2.712137e-05
-1.2787955e-07
2.8834951e-08
3.2659393e-05
-1.259494e-07
3.064067e-08
3.9340913e-05
-1.1956219e-07
3.2187483e-08
4.7404294e-05
-1.0720572e-07
3.343139e-08
5.7138564e-05
-8.658747e-08
3.4291652e-08
6.8894832e-05
-5.4140904e-08
3.5047453e-08
8.3100722e-05
3.5536722e-08
0.00010027074
5.9214649e-10
5.4167368e-11
1.2832347e-09
2.4499051e-09
2.5258247e-10
4.3263594e-09
5.7629381e-09
5.7622192e-10
8.2840155e-09
1.0702696e-08
1.0807756e-09
1.3338112e-08
1.7391362e-08
1.8067492e-09
1.9696977e-08
2.584483e-08
2.7806253e-09
2.7585857e-08
3.5938193e-08
4.0072694e-09
3.7241062e-08
4.7377977e-08
5.4719172e-09
4.8902816e-08
5.9701144e-08
7.1259783e-09
6.2808336e-08
7.2284758e-08
8.8959922e-09
7.91876e-08
8.4407945e-08
1.067404e-08
9.8265125e-08
9.5316866e-08
1.2335413e-08
1.2027141e-07
1.0432495e-07
1.375111e-08
1.4546717e-07
1.1084905e-07
1.4807803e-08
1.7418199e-07
1.1451159e-07
1.5378426e-08
2.0686684e-07
1.1515326e-07
1.5404355e-08
2.4415689e-07
1.129884e-07
1.481045e-08
2.8693904e-07
1.083363e-07
1.3744253e-08
3.3642885e-07
1.0194773e-07
1.2195543e-08
3.941953e-07
9.4391059e-08
1.0224601e-08
4.6221909e-07
8.5846354e-08
8.0526582e-09
5.4291383e-07
7.6138056e-08
5.99389e-09
6.3915309e-07
7.5670459e-08
4.3436859e-09
7.5435107e-07
6.4672546e-08
2.2877529e-09
8.9242365e-07
6.3320461e-08
4.8000726e-10
1.0580672e-06
4.3943922e-08
9.1142802e-09
1.2567544e-06
4.1623256e-08
-2.4954571e-09
1.4951802e-06
2.4369531e-08
6.8985994e-09
1.7811871e-06
2.0314163e-08
-3.1915437e-09
2.1244693e-06
4.8734482e-09
6.1344621e-09
2.536612e-06
-2.449248e-09
-1.3597292e-09
3.0318174e-06
-1.0748801e-08
6.4958745e-10
3.6269673e-06
-1.97446e-08
2.7122908e-09
4.3426101e-06
-2.9534711e-08
5.2251795e-09
5.2035383e-06
-3.9905888e-08
7.9138781e-09
6.239658e-06
-5.0527648e-08
1.0697731e-08
7.4870681e-06
-6.1492648e-08
1.4018754e-08
8.9893419e-06
-7.2319255e-08
1.7298023e-08
1.0799104e-05
-8.2741459e-08
2.0740306e-08
1.2979847e-05
-9.25763e-08
2.4422545e-08
1.5608259e-05
-1.0149194e-07
2.8194412e-08
1.8776875e-05
-1.0907634e-07
3.1972035e-08
2.2597499e-05
-1.1497718e-07
3.5846981e-08
2.7205098e-05
-1.1876289e-07
3.981135e-08
3.2762768e-05
-1.1978261e-07
4.3831907e-08
3.9467559e-05
-1.1700938e-07
4.785655e-08
4.755776e-05
-1.0894066e-07
5.1917737e-08
5.7321919e-05
-9.2011142e-08
5.5990497e-08
6.9107905e-05
-6.4124047e-08
5.9852842e-08
8.3347237e-05
6.6452686e-08
0.00010051313
5.5605328e-10
1.1079765e-11
1.2853028e-09
2.2846685e-09
9.9712725e-11
4.3324888e-09
5.4197308e-09
2.0161265e-10
8.2945998e-09
1.012559e-08
4.2359951e-10
1.3353637e-08
1.663722e-08
6.8619157e-10
1.971781e-08
2.5003958e-08
1.1349741e-09
2.7611933e-08
3.5326033e-08
1.6426874e-09
3.727155e-08
4.7467843e-08
2.3405883e-09
4.8935716e-08
6.1324606e-08
3.0603694e-09
6.2840499e-08
7.6475542e-08
3.968075e-09
7.9215383e-08
9.2420156e-08
4.9831477e-09
9.8286435e-08
1.0854188e-07
6.0778577e-09
1.2028876e-07
1.2434915e-07
7.0170099e-09
1.4549114e-07
1.3883202e-07
8.260691e-09
1.7423338e-07
1.5177308e-07
8.9720182e-09
2.0697615e-07
1.6244516e-07
9.7016769e-09
2.4435849e-07
1.7046341e-07
1.0134301e-08
2.8726183e-07
1.7550228e-07
1.0452935e-08
3.3687269e-07
1.7778991e-07
1.0156914e-08
3.947509e-07
1.7691868e-07
9.9854035e-09
4.6285241e-07
1.7322932e-07
9.4113873e-09
5.4358999e-07
1.6788837e-07
7.8894453e-09
6.3986025e-07
1.6022653e-07
7.4977256e-09
7.5508822e-07
1.5039676e-07
6.5195174e-09
8.9329289e-07
1.3949615e-07
4.5814736e-09
1.0592046e-06
1.3708046e-07
3.3612463e-09
1.2584112e-06
1.2290775e-07
2.1396905e-09
1.49749e-06
1.1682095e-07
1.8334811e-09
1.7844952e-06
1.0060709e-07
3.3856949e-10
2.1289676e-06
9.0697664e-08
1.6590611e-09
2.5426682e-06
7.4202734e-08
-7.1487008e-10
3.0395686e-06
5.554396e-08
2.0741747e-09
3.6368424e-06
3.9142854e-08
6.1492702e-10
4.3550202e-06
2.3064151e-08
1.8026553e-09
5.2191151e-06
6.4139277e-09
4.3189969e-09
6.2591835e-06
-8.6700902e-09
5.070945e-09
7.5115213e-06
-2.3847207e-08
8.6057146e-09
9.0200602e-06
-4.158233e-08
1.5018249e-08
1.0837584e-05
-5.0491736e-08
1.0289869e-08
1.3028613e-05
-6.3124492e-08
1.8888032e-08
1.567013e-05
-7.3873953e-08
2.2249686e-08
1.8855561e-05
-8.5429994e-08
2.8850993e-08
2.2697245e-05
-9.0928699e-08
2.8682782e-08
2.7332129e-05
-9.724075e-08
3.6285157e-08
3.2923927e-05
-9.9212354e-08
3.9115049e-08
3.9672094e-05
-9.9174254e-08
4.5756633e-08
4.7815694e-05
-9.3899217e-08
4.9646048e-08
5.7647446e-05
-7.9318763e-08
5.5269408e-08
6.9511843e-05
-6.1292208e-08
6.1934611e-08
8.3856335e-05
6.7951727e-08
0.00010112216
5.2490376e-10
1.2868789e-09
2.2039645e-09
4.3378374e-09
5.1724002e-09
8.3050657e-09
9.654827e-09
1.3371125e-08
1.5746621e-08
1.9744762e-08
2.3621768e-08
2.7651263e-08
3.324503e-08
3.7326508e-08
4.4623111e-08
4.9009547e-08
5.7502327e-08
6.2935613e-08
7.1721138e-08
7.933338e-08
8.6983342e-08
9.8427003e-08
1.0294623e-07
1.2044923e-07
1.1905189e-07
1.4566779e-07
1.3525675e-07
1.7442334e-07
1.5076469e-07
2.0717819e-07
1.6542026e-07
2.445755e-07
1.7886929e-07
2.8750372e-07
1.9101206e-07
3.3714968e-07
2.0131875e-07
3.9507141e-07
2.1003419e-07
4.6322546e-07
2.1687269e-07
5.4401243e-07
2.209492e-07
6.4032117e-07
2.2344415e-07
7.5560022e-07
2.2377473e-07
8.9384616e-07
2.2057349e-07
1.0596867e-06
2.1474009e-07
1.2591023e-06
2.0593362e-07
1.4985734e-06
1.9468663e-07
1.7858805e-06
1.798253e-07
2.1309786e-06
1.6402289e-07
2.545454e-06
1.434416e-07
3.0435259e-06
1.2398121e-07
3.6431089e-06
1.0012175e-07
4.3617644e-06
7.5789059e-08
5.2288679e-06
5.2418676e-08
6.2730601e-06
2.7758351e-08
7.5283756e-06
5.3618895e-09
9.0435482e-06
-1.1282277e-08
1.0869835e-05
-3.3442225e-08
1.3069429e-05
-4.7484271e-08
1.5722834e-05
-5.8999904e-08
1.8924942e-05
-6.4207085e-08
2.279222e-05
-7.1015116e-08
2.7453745e-05
-7.1191591e-08
3.3085278e-05
-7.0419905e-08
3.9881178e-05
-6.4532146e-08
4.8089065e-05
-5.7264023e-08
5.8003746e-05
-4.4744663e-08
6.9973036e-05
-3.0943292e-08
8.4456047e-05
0.0001019426
2.0918209e-10
-1.1035654e-11
1.088954e-09
9.0312766e-10
-5.0292212e-11
3.6946149e-09
2.1640233e-09
-8.3635984e-11
7.1283241e-09
4.1359974e-09
-1.9129757e-10
1.1591e-08
6.8557467e-09
-2.9485268e-10
1.7320371e-08
1.0433133e-08
-5.1837462e-10
2.4592604e-08
1.47822e-08
-7.4350351e-10
3.372097e-08
1.9820606e-08
-1.0800633e-09
4.5050629e-08
2.5179092e-08
-1.3725216e-09
5.8948062e-08
3.04823e-08
-1.7583458e-09
7.5785328e-08
3.5139077e-08
-2.1548593e-09
9.5919647e-08
3.8430843e-08
-2.5240456e-09
1.196732e-07
3.9404916e-08
-2.6380847e-09
1.4732001e-07
3.7640555e-08
-2.9190412e-09
1.7909085e-07
3.2190969e-08
-2.6013943e-09
2.1520852e-07
2.3040392e-08
-2.2657797e-09
2.5596575e-07
1.0464504e-08
-1.7968928e-09
3.0184416e-07
-4.4424361e-09
-1.6432995e-09
3.5366082e-07
-2.1105745e-08
-1.0373954e-09
4.1272578e-07
-3.8354455e-08
-5.9442221e-10
4.8101483e-07
-5.4947731e-08
-5.7039825e-10
5.6111467e-07
-7.1471831e-08
5.6589012e-10
6.5621036e-07
-8.615159e-08
1.4215188e-10
7.7006005e-07
-9.9347833e-08
-8.7511576e-12
9.0696188e-07
-1.1217411e-07
6.0618378e-10
1.0718079e-06
-1.2406469e-07
4.261384e-10
1.2704577e-06
-1.3721583e-07
2.110138e-09
1.5095026e-06
-1.4667708e-07
-1.5954452e-09
1.7968142e-06
-1.5795391e-07
1.1815033e-11
2.1421308e-06
-1.6650397e-07
-3.1502593e-09
2.5570697e-06
-1.7589547e-07
-2.9203149e-09
3.0558223e-06
-1.8120801e-07
-7.4514763e-09
3.6558501e-06
-1.8816604e-07
-7.1629306e-09
4.375829e-06
-1.9375319e-07
-9.3346152e-09
5.2436809e-06
-1.9718907e-07
-1.2385107e-08
6.2887103e-06
-2.0121807e-07
-1.3384224e-08
7.5455503e-06
-2.0237079e-07
-1.7581865e-08
9.0619693e-06
-1.9845579e-07
-2.4169214e-08
1.088969e-05
-2.0227396e-07
-1.8522148e-08
1.3091278e-05
-1.9920206e-07
-2.7330402e-08
1.574649e-05
-1.9492047e-07
-3.0621675e-08
1.8950545e-05
-1.8534044e-07
-3.7449245e-08
2.2819189e-05
-1.7850506e-07
-3.6950023e-08
2.7482761e-05
-1.6510182e-07
-4.5107992e-08
3.3115645e-05
-1.5101189e-07
-4.8111795e-08
3.9913571e-05
-1.3070214e-07
-5.5645767e-08
4.8122427e-05
-1.0962184e-07
-5.9939022e-08
5.8040217e-05
-7.9092736e-08
-6.8060637e-08
7.0007713e-05
-5.1124711e-08
-7.3868635e-08
8.4498512e-05
-9.0162787e-08
0.00010197763
2.2525817e-10
-3.8250733e-11
1.0876826e-09
9.2967358e-10
-1.1164829e-10
3.6902803e-09
2.2711872e-09
-2.4933516e-10
7.1198999e-09
4.3332779e-09
-4.7551107e-10
1.1577087e-08
7.2683611e-09
-8.0977233e-10
1.7299126e-08
1.1070987e-08
-1.2691203e-09
2.4561581e-08
1.5779804e-08
-1.8564665e-09
3.3677127e-08
2.1206663e-08
-2.5602868e-09
4.4990195e-08
2.7147843e-08
-3.3395027e-09
5.8866749e-08
3.3052792e-08
-4.126991e-09
7.5678395e-08
3.8216363e-08
-4.8171834e-09
9.5782744e-08
4.1753229e-08
-5.2799937e-09
1.1950291e-07
4.2861314e-08
-5.3767937e-09
1.4711372e-07
4.0318896e-08
-5.0004905e-09
1.7884546e-07
3.3850164e-08
-4.091768e-09
2.1491919e-07
2.3163659e-08
-2.863417e-09
2.5562142e-07
8.8492717e-09
-1.6739455e-09
3.0142603e-07
-9.0895864e-09
-1.048572e-11
3.5314439e-07
-2.6498682e-08
-1.01274e-09
4.1209237e-07
-4.5122487e-08
5.8344636e-10
4.8024936e-07
-6.4685868e-08
2.3269677e-09
5.6020264e-07
-8.3311194e-08
3.8581178e-09
6.5513588e-07
-1.0181973e-07
4.8909503e-09
7.6878639e-07
-1.1945018e-07
5.4067089e-09
9.0544016e-07
-1.3506067e-07
5.340985e-09
1.0699931e-06
-1.4895421e-07
4.4989783e-09
1.2681019e-06
-1.5883146e-07
2.9829578e-09
1.5064083e-06
-1.698483e-07
9.7985118e-10
1.792815e-06
-1.7458206e-07
-3.2326265e-09
2.1368899e-06
-1.7830443e-07
-7.071711e-09
2.5501813e-06
-1.7813358e-07
-1.0341786e-08
3.0467536e-06
-1.7910457e-07
-1.3300809e-08
3.643593e-06
-1.7651832e-07
-1.5893364e-08
4.3610938e-06
-1.7321353e-07
-1.8352955e-08
5.2247429e-06
-1.7030012e-07
-2.0693753e-08
6.2644667e-06
-1.6588384e-07
-2.300881e-08
7.5165817e-06
-1.6323665e-07
-2.5420204e-08
9.0250603e-06
-1.6497143e-07
-2.7559816e-08
1.0842468e-05
-1.5812955e-07
-3.0400928e-08
1.3033351e-05
-1.5687939e-07
-3.3309545e-08
1.5674493e-05
-1.5515215e-07
-3.65388e-08
1.8859308e-05
-1.5598001e-07
-3.9722328e-08
2.2699815e-05
-1.510677e-07
-4.354137e-08
2.7333183e-05
-1.4807543e-07
-4.742626e-08
3.2922529e-05
-1.4078139e-07
-5.1815278e-08
3.9667679e-05
-1.3138657e-07
-5.6306249e-08
4.7806044e-05
-1.1668259e-07
-6.1456949e-08
5.7633258e-05
-9.0457678e-08
-6.7131583e-08
6.9483645e-05
-6.3495132e-08
-7.1802538e-08
8.3826202e-05
-8.9190301e-08
0.00010105675
2.4675379e-10
-8.6901131e-11
1.0859375e-09
1.0448546e-09
-2.6685246e-10
3.6851099e-09
2.5073797e-09
-5.3680226e-10
7.111171e-09
4.741301e-09
-9.3303842e-10
1.1564657e-08
7.8292583e-09
-1.4796744e-09
1.7282811e-08
1.1789073e-08
-2.1792042e-09
2.4541173e-08
1.6531975e-08
-3.0042822e-09
3.3652315e-08
2.1834402e-08
-3.9126677e-09
4.4960527e-08
2.7280513e-08
-4.7993048e-09
5.8831274e-08
3.2241193e-08
-5.52463e-09
7.5634958e-08
3.5900928e-08
-5.9267002e-09
9.5726073e-08
3.7341694e-08
-5.8592259e-09
1.194215e-07
3.5675456e-08
-5.2173402e-09
1.4698555e-07
3.0221307e-08
-3.9873335e-09
1.7863363e-07
2.0810363e-08
-2.3736067e-09
2.1456856e-07
7.5977172e-09
-5.4932763e-10
2.5506143e-07
-9.4873834e-09
1.7746676e-09
3.0057732e-07
-2.5486598e-08
4.7296179e-10
3.5193851e-07
-4.5635668e-08
2.7926197e-09
4.1052327e-07
-6.6531981e-08
5.3639855e-09
4.7830676e-07
-8.6830677e-08
7.6217192e-09
5.5787905e-07
-1.0533924e-07
9.0745981e-09
6.5240046e-07
-1.2121965e-07
9.5144074e-09
7.6556256e-07
-1.3402939e-07
9.0157969e-09
9.0158552e-07
-1.4365574e-07
7.7178139e-09
1.0652949e-06
-1.5073519e-07
6.0519998e-09
1.2622865e-06
-1.5597607e-07
4.2167874e-09
1.4991591e-06
-1.6065934e-07
3.0223464e-09
1.7838244e-06
-1.5204475e-07
-1.3302943e-08
2.1258508e-06
-1.4576589e-07
-1.3510801e-08
2.5367272e-06
-1.4112885e-07
-1.4018268e-08
3.030701e-06
-1.3779006e-07
-1.4744248e-08
3.6249164e-06
-1.3558067e-07
-1.5706933e-08
4.3400725e-06
-1.3425371e-07
-1.6819885e-08
5.2005465e-06
-1.3357658e-07
-1.805332e-08
6.2362121e-06
-1.3339207e-07
-1.9395252e-08
7.483138e-06
-1.3365964e-07
-2.08166e-08
8.9848649e-06
-1.3386855e-07
-2.2373719e-08
1.0793975e-05
-1.3442652e-07
-2.4045239e-08
1.2973883e-05
-1.3502956e-07
-2.5821464e-08
1.5601193e-05
-1.3553457e-07
-2.7688775e-08
1.8768333e-05
-1.3531254e-07
-2.9663e-08
2.2587002e-05
-1.342712e-07
-3.1705846e-08
2.7191992e-05
-1.3155765e-07
-3.3832988e-08
3.2746222e-05
-1.2652777e-07
-3.5975055e-08
3.9446447e-05
-1.1776184e-07
-3.8094231e-08
4.7530555e-05
-1.0406842e-07
-4.023838e-08
5.7286825e-05
-8.1668551e-08
-4.2035582e-08
6.9060324e-05
-5.0776238e-08
-4.4716666e-08
8.3289333e-05
-4.8079399e-08
0.00010042158
2.7338911e-10
-1.601415e-10
1.0886408e-09
1.1156005e-09
-4.5905115e-10
3.6950564e-09
2.5573544e-09
-7.8955937e-10
7.1315341e-09
4.587695e-09
-1.1638217e-09
1.1599328e-08
7.1361092e-09
-1.5742508e-09
1.7336403e-08
1.0048848e-08
-1.9892905e-09
2.4618891e-08
1.3137599e-08
-2.4221341e-09
3.3759382e-08
1.6153465e-08
-2.8732834e-09
4.510079e-08
1.8694693e-08
-3.212728e-09
5.9004668e-08
2.0275271e-08
-3.3573907e-09
7.583361e-08
2.0353026e-08
-3.2196233e-09
9.5928931e-08
1.8587449e-08
-2.9396165e-09
1.1958798e-07
1.4566656e-08
-2.3381538e-09
1.4705033e-07
7.8841473e-09
-1.2797028e-09
1.7850653e-07
8.8202461e-10
-2.4534921e-09
2.1414409e-07
-9.4987111e-09
-2.5170395e-10
2.5423553e-07
-2.1990949e-08
1.7240609e-09
2.9926459e-07
-3.9236315e-08
3.5896621e-09
3.5012707e-07
-5.658193e-08
5.4687622e-09
4.0823768e-07
-7.2209991e-08
6.827428e-09
4.755879e-07
-8.4841082e-08
7.4628557e-09
5.547517e-07
-9.3843887e-08
7.2502062e-09
6.4885542e-07
-9.9281182e-08
6.3456367e-09
7.6155115e-07
-1.0161016e-07
4.9768492e-09
8.970366e-07
-1.0169781e-07
3.4669775e-09
1.0601453e-06
-1.0037649e-07
2.1518028e-09
1.2565018e-06
-9.1906575e-08
-5.4178639e-09
1.4927591e-06
-8.4001633e-08
-4.8437696e-09
1.7768477e-06
-9.059497e-08
-5.6191317e-09
2.1183312e-06
-9.5881371e-08
-6.3932401e-09
2.5289125e-06
-1.0032432e-07
-7.0890418e-09
3.0223448e-06
-1.0420929e-07
-7.7415955e-09
3.6155057e-06
-1.0778443e-07
-8.3922329e-09
4.328829e-06
-1.1119071e-07
-9.0463428e-09
5.1869807e-06
-1.1452052e-07
-9.7121782e-09
6.2197384e-06
-1.1779474e-07
-1.0429313e-08
7.4630363e-06
-1.2096077e-07
-1.1213285e-08
8.9602406e-06
-1.2403766e-07
-1.2002158e-08
1.0763686e-05
-1.2697689e-07
-1.2789471e-08
1.2936551e-05
-1.2954413e-07
-1.3685333e-08
1.5555109e-05
-1.3157691e-07
-1.4513344e-08
1.8711461e-05
-1.3283811e-07
-1.5248058e-08
2.251684e-05
-1.3272706e-07
-1.6073479e-08
2.7105649e-05
-1.3084947e-07
-1.6611214e-08
3.2640368e-05
-1.2616841e-07
-1.7231457e-08
3.9317602e-05
-1.1745038e-07
-1.7820133e-08
4.7375432e-05
-1.0314114e-07
-1.8336162e-08
5.7102477e-05
-8.0700165e-08
-1.887347e-08
6.8849322e-05
-4.8138034e-08
-1.943184e-08
8.3042908e-05
-1.819033e-08
0.00010019277
-1.1137848e-10
1.580704e-10
1.1039078e-09
4.5600369e-10
-3.5486774e-10
3.74195e-09
1.5624577e-09
-6.6789357e-10
7.2138039e-09
3.3027149e-09