/*--------------------------------*- C++ -*----------------------------------*\
| =========                 |                                                 |
| \\      /  F ield         | OpenFOAM: The Open Source CFD Toolbox           |
|  \\    /   O peration     | Version:  3.0.1                                 |
|   \\  /    A nd           | Web:      www.OpenFOAM.org                      |
|    \\/     M anipulation  |                                                 |
\*---------------------------------------------------------------------------*/
FoamFile
{
    version     2.0;
    format      ascii;
    class       volScalarField;
    location    "2629";
    object      rho;
}
// * * * * * * * * * * * * * * * * * * * * * * * * * * * * * * * * * * * * * //

dimensions      [1 -3 0 0 0 0 0];

internalField   nonuniform List<scalar> 
80000
(
1.0038158
1.0732855
1.1260769
1.160657
1.1809198
1.1918216
1.197295
1.1998849
1.2010453
1.2015386
1.2017378
1.201814
1.2018417
1.2018511
1.2018542
1.2018552
1.2018554
1.2018555
1.2018555
1.2018555
1.2018555
1.2018555
1.2018555
1.2018555
1.2018555
1.2018555
1.2018555
1.2018555
1.2018555
1.2018555
1.2018555
1.2018555
1.2018555
1.2018555
1.2018555
1.2018555
1.2018555
1.2018555
1.2018555
1.2018555
1.0040968
1.0733683
1.1259805
1.1604797
1.1807518
1.1917004
1.1972233
1.1998481
1.2010286
1.2015319
1.2017352
1.2018131
1.2018414
1.2018511
1.2018542
1.2018552
1.2018554
1.2018555
1.2018555
1.2018555
1.2018555
1.2018555
1.2018555
1.2018555
1.2018555
1.2018555
1.2018555
1.2018555
1.2018555
1.2018555
1.2018555
1.2018555
1.2018555
1.2018555
1.2018555
1.2018555
1.2018555
1.2018555
1.2018555
1.2018555
1.0048979
1.0739499
1.1264262
1.1608714
1.1810972
1.1919767
1.1974172
1.1999681
1.2010945
1.2015644
1.2017498
1.201819
1.2018435
1.2018517
1.2018544
1.2018552
1.2018554
1.2018555
1.2018555
1.2018555
1.2018555
1.2018555
1.2018555
1.2018555
1.2018555
1.2018555
1.2018555
1.2018555
1.2018555
1.2018555
1.2018555
1.2018555
1.2018555
1.2018555
1.2018555
1.2018555
1.2018555
1.2018555
1.2018555
1.2018555
1.0062581
1.0752795
1.127785
1.1621216
1.1820695
1.1926165
1.1977796
1.2001485
1.2011716
1.201593
1.2017589
1.2018214
1.201844
1.2018518
1.2018544
1.2018552
1.2018554
1.2018555
1.2018555
1.2018555
1.2018555
1.2018555
1.2018555
1.2018555
1.2018555
1.2018555
1.2018555
1.2018555
1.2018555
1.2018555
1.2018555
1.2018555
1.2018555
1.2018555
1.2018555
1.2018555
1.2018555
1.2018555
1.2018555
1.2018555
1.0074417
1.0765702
1.1291192
1.1632379
1.1828143
1.1930218
1.1979631
1.2002166
1.2011941
1.2015992
1.2017601
1.2018214
1.2018438
1.2018517
1.2018543
1.2018552
1.2018554
1.2018555
1.2018555
1.2018555
1.2018555
1.2018555
1.2018555
1.2018555
1.2018555
1.2018555
1.2018555
1.2018555
1.2018555
1.2018555
1.2018555
1.2018555
1.2018555
1.2018555
1.2018555
1.2018555
1.2018555
1.2018555
1.2018555
1.2018555
1.0074417
1.0765702
1.1291192
1.1632379
1.1828143
1.1930218
1.1979631
1.2002166
1.2011941
1.2015992
1.2017601
1.2018214
1.2018438
1.2018517
1.2018543
1.2018552
1.2018554
1.2018555
1.2018555
1.2018555
1.2018555
1.2018555
1.2018555
1.2018555
1.2018555
1.2018555
1.2018555
1.2018555
1.2018555
1.2018555
1.2018555
1.2018555
1.2018555
1.2018555
1.2018555
1.2018555
1.2018555
1.2018555
1.2018555
1.2018555
1.0062581
1.0752795
1.127785
1.1621216
1.1820695
1.1926165
1.1977796
1.2001485
1.2011716
1.201593
1.2017589
1.2018214
1.201844
1.2018518
1.2018544
1.2018552
1.2018554
1.2018555
1.2018555
1.2018555
1.2018555
1.2018555
1.2018555
1.2018555
1.2018555
1.2018555
1.2018555
1.2018555
1.2018555
1.2018555
1.2018555
1.2018555
1.2018555
1.2018555
1.2018555
1.2018555
1.2018555
1.2018555
1.2018555
1.2018555
1.004898
1.0739499
1.1264262
1.1608714
1.1810972
1.1919767
1.1974172
1.1999681
1.2010945
1.2015644
1.2017498
1.201819
1.2018435
1.2018517
1.2018544
1.2018552
1.2018554
1.2018555
1.2018555
1.2018555
1.2018555
1.2018555
1.2018555
1.2018555
1.2018555
1.2018555
1.2018555
1.2018555
1.2018555
1.2018555
1.2018555
1.2018555
1.2018555
1.2018555
1.2018555
1.2018555
1.2018555
1.2018555
1.2018555
1.2018555
1.0040968
1.0733683
1.1259805
1.1604797
1.1807518
1.1917004
1.1972233
1.1998481
1.2010286
1.2015319
1.2017352
1.2018131
1.2018414
1.2018511
1.2018542
1.2018552
1.2018554
1.2018555
1.2018555
1.2018555
1.2018555
1.2018555
1.2018555
1.2018555
1.2018555
1.2018555
1.2018555
1.2018555
1.2018555
1.2018555
1.2018555
1.2018555
1.2018555
1.2018555
1.2018555
1.2018555
1.2018555
1.2018555
1.2018555
1.2018555
1.0038158
1.0732855
1.1260769
1.1606571
1.1809198
1.1918216
1.197295
1.1998849
1.2010453
1.2015386
1.2017378
1.201814
1.2018417
1.2018511
1.2018542
1.2018552
1.2018554
1.2018555
1.2018555
1.2018555
1.2018555
1.2018555
1.2018555
1.2018555
1.2018555
1.2018555
1.2018555
1.2018555
1.2018555
1.2018555
1.2018555
1.2018555
1.2018555
1.2018555
1.2018555
1.2018555
1.2018555
1.2018555
1.2018555
1.2018555
0.9453463
1.0112342
1.0719902
1.1210563
1.1557208
1.1774526
1.1897868
1.1962361
1.1993817
1.2008239
1.2014475
1.2017021
1.2018003
1.2018361
1.2018484
1.2018523
1.2018536
1.2018539
1.201854
1.201854
1.201854
1.201854
1.201854
1.201854
1.201854
1.201854
1.201854
1.201854
1.201854
1.201854
1.201854
1.201854
1.201854
1.201854
1.201854
1.201854
1.201854
1.201854
1.201854
1.201854
0.9455647
1.011283
1.0718449
1.1207696
1.1553857
1.177157
1.1895682
1.1960948
1.1992999
1.2007803
1.201426
1.2016923
1.2017961
1.2018344
1.2018477
1.2018521
1.2018535
1.2018539
1.201854
1.201854
1.201854
1.201854
1.201854
1.201854
1.201854
1.201854
1.201854
1.201854
1.201854
1.201854
1.201854
1.201854
1.201854
1.201854
1.201854
1.201854
1.201854
1.201854
1.201854
1.201854
0.9461499
1.0116427
1.0719929
1.1207793
1.1553456
1.177118
1.1895449
1.1960835
1.1992943
1.2007769
1.2014236
1.2016906
1.201795
1.2018337
1.2018474
1.201852
1.2018534
1.2018539
1.201854
1.201854
1.201854
1.201854
1.201854
1.201854
1.201854
1.201854
1.201854
1.201854
1.201854
1.201854
1.201854
1.201854
1.201854
1.201854
1.201854
1.201854
1.201854
1.201854
1.201854
1.201854
0.94705621
1.0123507
1.0725608
1.1212335
1.1556809
1.1773306
1.1896549
1.1961258
1.1993012
1.2007707
1.2014156
1.2016846
1.2017915
1.201832
1.2018466
1.2018516
1.2018533
1.2018538
1.201854
1.201854
1.201854
1.201854
1.201854
1.201854
1.201854
1.201854
1.201854
1.201854
1.201854
1.201854
1.201854
1.201854
1.201854
1.201854
1.201854
1.201854
1.201854
1.201854
1.201854
1.201854
0.94780798
1.0129767
1.0730924
1.1216378
1.1559271
1.1774379
1.189676
1.1961102
1.199279
1.2007536
1.201405
1.201679
1.2017888
1.2018308
1.2018461
1.2018515
1.2018532
1.2018538
1.201854
1.201854
1.201854
1.201854
1.201854
1.201854
1.201854
1.201854
1.201854
1.201854
1.201854
1.201854
1.201854
1.201854
1.201854
1.201854
1.201854
1.201854
1.201854
1.201854
1.201854
1.201854
0.94780798
1.0129767
1.0730924
1.1216378
1.1559271
1.1774379
1.189676
1.1961102
1.199279
1.2007536
1.201405
1.201679
1.2017888
1.2018308
1.2018461
1.2018515
1.2018532
1.2018538
1.201854
1.201854
1.201854
1.201854
1.201854
1.201854
1.201854
1.201854
1.201854
1.201854
1.201854
1.201854
1.201854
1.201854
1.201854
1.201854
1.201854
1.201854
1.201854
1.201854
1.201854
1.201854
0.94705623
1.0123507
1.0725608
1.1212335
1.1556809
1.1773306
1.1896549
1.1961258
1.1993012
1.2007707
1.2014156
1.2016846
1.2017915
1.201832
1.2018466
1.2018516
1.2018533
1.2018538
1.201854
1.201854
1.201854
1.201854
1.201854
1.201854
1.201854
1.201854
1.201854
1.201854
1.201854
1.201854
1.201854
1.201854
1.201854
1.201854
1.201854
1.201854
1.201854
1.201854
1.201854
1.201854
0.94614998
1.0116428
1.0719929
1.1207793
1.1553456
1.177118
1.1895449
1.1960835
1.1992943
1.2007769
1.2014236
1.2016906
1.201795
1.2018337
1.2018474
1.201852
1.2018534
1.2018539
1.201854
1.201854
1.201854
1.201854
1.201854
1.201854
1.201854
1.201854
1.201854
1.201854
1.201854
1.201854
1.201854
1.201854
1.201854
1.201854
1.201854
1.201854
1.201854
1.201854
1.201854
1.201854
0.94556472
1.011283
1.0718449
1.1207696
1.1553857
1.177157
1.1895682
1.1960948
1.1992999
1.2007803
1.201426
1.2016923
1.2017961
1.2018344
1.2018477
1.2018521
1.2018535
1.2018539
1.201854
1.201854
1.201854
1.201854
1.201854
1.201854
1.201854
1.201854
1.201854
1.201854
1.201854
1.201854
1.201854
1.201854
1.201854
1.201854
1.201854
1.201854
1.201854
1.201854
1.201854
1.201854
0.94534632
1.0112342
1.0719902
1.1210563
1.1557208
1.1774526
1.1897868
1.1962361
1.1993817
1.2008239
1.2014475
1.2017021
1.2018003
1.2018361
1.2018484
1.2018523
1.2018536
1.2018539
1.201854
1.201854
1.201854
1.201854
1.201854
1.201854
1.201854
1.201854
1.201854
1.201854
1.201854
1.201854
1.201854
1.201854
1.201854
1.201854
1.201854
1.201854
1.201854
1.201854
1.201854
1.201854
0.91645396
0.97803748
1.0380633
1.0911724
1.1330199
1.1623221
1.1807485
1.1913074
1.1968955
1.1996542
1.2009314
1.2014877
1.201716
1.2018043
1.2018364
1.2018475
1.201851
1.2018521
1.2018524
1.2018525
1.2018525
1.2018525
1.2018525
1.2018525
1.2018525
1.2018525
1.2018525
1.2018525
1.2018525
1.2018525
1.2018525
1.2018525
1.2018525
1.2018525
1.2018525
1.2018525
1.2018525
1.2018525
1.2018525
1.2018525
0.91662583
0.97809031
1.0379689
1.0909272
1.1326617
1.1619345
1.1804016
1.1910405
1.1967144
1.1995427
1.2008689
1.2014557
1.2017009
1.2017977
1.2018338
1.2018465
1.2018507
1.201852
1.2018524
1.2018525
1.2018525
1.2018525
1.2018525
1.2018525
1.2018525
1.2018525
1.2018525
1.2018525
1.2018525
1.2018525
1.2018525
1.2018525
1.2018525
1.2018525
1.2018525
1.2018525
1.2018525
1.2018525
1.2018525
1.2018525
0.91686827
0.97807306
1.0376604
1.0903641
1.1319711
1.1612648
1.1798563
1.1906523
1.1964662
1.1993979
1.2007909
1.2014164
1.2016824
1.2017895
1.2018303
1.2018451
1.2018502
1.2018518
1.2018523
1.2018525
1.2018525
1.2018525
1.2018525
1.2018525
1.2018525
1.2018525
1.2018525
1.2018525
1.2018525
1.2018525
1.2018525
1.2018525
1.2018525
1.2018525
1.2018525
1.2018525
1.2018525
1.2018525
1.2018525
1.2018525
0.91691711
0.97767052
1.03682
1.0892395
1.1308012
1.1602507
1.1790929
1.1901379
1.1961492
1.1992171
1.2006944
1.2013681
1.2016596
1.2017794
1.2018261
1.2018434
1.2018496
1.2018516
1.2018523
1.2018525
1.2018525
1.2018525
1.2018525
1.2018525
1.2018525
1.2018525
1.2018525
1.2018525
1.2018525
1.2018525
1.2018525
1.2018525
1.2018525
1.2018525
1.2018525
1.2018525
1.2018525
1.2018525
1.2018525
1.2018525
0.9168067
0.97717154
1.035993
1.0882458
1.1298344
1.1594523
1.1785158
1.1897644
1.1959288
1.1990969
1.2006332
1.2013388
1.2016463
1.2017736
1.2018238
1.2018425
1.2018492
1.2018515
1.2018522
1.2018524
1.2018525
1.2018525
1.2018525
1.2018525
1.2018525
1.2018525
1.2018525
1.2018525
1.2018525
1.2018525
1.2018525
1.2018525
1.2018525
1.2018525
1.2018525
1.2018525
1.2018525
1.2018525
1.2018525
1.2018525
0.91680671
0.97717155
1.035993
1.0882458
1.1298344
1.1594523
1.1785158
1.1897644
1.1959288
1.1990969
1.2006332
1.2013388
1.2016463
1.2017736
1.2018238
1.2018425
1.2018492
1.2018515
1.2018522
1.2018524
1.2018525
1.2018525
1.2018525
1.2018525
1.2018525
1.2018525
1.2018525
1.2018525
1.2018525
1.2018525
1.2018525
1.2018525
1.2018525
1.2018525
1.2018525
1.2018525
1.2018525
1.2018525
1.2018525
1.2018525
0.91691714
0.97767054
1.0368201
1.0892396
1.1308012
1.1602507
1.1790929
1.1901379
1.1961492
1.1992171
1.2006944
1.2013681
1.2016596
1.2017794
1.2018261
1.2018434
1.2018496
1.2018516
1.2018523
1.2018525
1.2018525
1.2018525
1.2018525
1.2018525
1.2018525
1.2018525
1.2018525
1.2018525
1.2018525
1.2018525
1.2018525
1.2018525
1.2018525
1.2018525
1.2018525
1.2018525
1.2018525
1.2018525
1.2018525
1.2018525
0.91686834
0.97807311
1.0376605
1.0903641
1.1319711
1.1612648
1.1798563
1.1906523
1.1964662
1.1993979
1.2007909
1.2014164
1.2016824
1.2017895
1.2018303
1.2018451
1.2018502
1.2018518
1.2018523
1.2018525
1.2018525
1.2018525
1.2018525
1.2018525
1.2018525
1.2018525
1.2018525
1.2018525
1.2018525
1.2018525
1.2018525
1.2018525
1.2018525
1.2018525
1.2018525
1.2018525
1.2018525
1.2018525
1.2018525
1.2018525
0.91662585
0.97809033
1.0379689
1.0909272
1.1326617
1.1619345
1.1804017
1.1910405
1.1967144
1.1995427
1.2008689
1.2014557
1.2017009
1.2017977
1.2018338
1.2018465
1.2018507
1.201852
1.2018524
1.2018525
1.2018525
1.2018525
1.2018525
1.2018525
1.2018525
1.2018525
1.2018525
1.2018525
1.2018525
1.2018525
1.2018525
1.2018525
1.2018525
1.2018525
1.2018525
1.2018525
1.2018525
1.2018525
1.2018525
1.2018525
0.91645399
0.9780375
1.0380633
1.0911724
1.1330199
1.1623221
1.1807485
1.1913074
1.1968955
1.1996542
1.2009314
1.2014877
1.201716
1.2018043
1.2018364
1.2018475
1.201851
1.2018521
1.2018524
1.2018525
1.2018525
1.2018525
1.2018525
1.2018525
1.2018525
1.2018525
1.2018525
1.2018525
1.2018525
1.2018525
1.2018525
1.2018525
1.2018525
1.2018525
1.2018525
1.2018525
1.2018525
1.2018525
1.2018525
1.2018525
0.89788982
0.95647064
1.014839
1.0688402
1.1141665
1.1483184
1.1714774
1.1857498
1.1938378
1.1980955
1.2001903
1.2011575
1.2015776
1.2017493
1.2018153
1.2018392
1.2018473
1.2018499
1.2018507
1.201851
1.201851
1.201851
1.201851
1.201851
1.201851
1.201851
1.201851
1.201851
1.201851
1.201851
1.201851
1.201851
1.201851
1.201851
1.201851
1.201851
1.201851
1.201851
1.201851
1.201851
0.8979912
0.95648762
1.0147656
1.0686563
1.1138616
1.1479347
1.1710775
1.1853953
1.1935643
1.1979062
1.2000724
1.2010911
1.2015433
1.201733
1.2018082
1.2018363
1.2018463
1.2018496
1.2018506
1.2018509
1.201851
1.201851
1.201851
1.201851
1.201851
1.201851
1.201851
1.201851
1.201851
1.201851
1.201851
1.201851
1.201851
1.201851
1.201851
1.201851
1.201851
1.201851
1.201851
1.201851
0.89794026
0.95614874
1.0140868
1.0676334
1.1126053
1.1466377
1.1699289
1.1845029
1.192944
1.1975154
1.1998466
1.2009704
1.2014834
1.2017052
1.2017962
1.2018314
1.2018444
1.2018489
1.2018504
1.2018508
1.201851
1.201851
1.201851
1.201851
1.201851
1.201851
1.201851
1.201851
1.201851
1.201851
1.201851
1.201851
1.201851
1.201851
1.201851
1.201851
1.201851
1.201851
1.201851
1.201851
0.897366
0.95492605
1.0121403
1.0651131
1.1098818
1.1441309
1.1679211
1.1830736
1.1920233
1.1969714
1.1995488
1.2008183
1.2014105
1.2016724
1.2017822
1.2018258
1.2018423
1.2018481
1.2018501
1.2018508
1.201851
1.201851
1.201851
1.201851
1.201851
1.201851
1.201851
1.201851
1.201851
1.201851
1.201851
1.201851
1.201851
1.201851
1.201851
1.201851
1.201851
1.201851
1.201851
1.201851
0.89667434
0.9536041
1.0102182
1.0628019
1.1075434
1.142106
1.1663918
1.1820466
1.191399
1.1966229
1.1993679
1.20073
1.2013698
1.2016545
1.2017747
1.2018228
1.2018411
1.2018477
1.20185
1.2018507
1.2018509
1.201851
1.201851
1.201851
1.201851
1.201851
1.201851
1.201851
1.201851
1.201851
1.201851
1.201851
1.201851
1.201851
1.201851
1.201851
1.201851
1.201851
1.201851
1.201851
0.89667435
0.9536041
1.0102183
1.0628019
1.1075434
1.142106
1.1663918
1.1820466
1.191399
1.1966229
1.1993679
1.20073
1.2013698
1.2016545
1.2017747
1.2018228
1.2018411
1.2018477
1.20185
1.2018507
1.2018509
1.201851
1.201851
1.201851
1.201851
1.201851
1.201851
1.201851
1.201851
1.201851
1.201851
1.201851
1.201851
1.201851
1.201851
1.201851
1.201851
1.201851
1.201851
1.201851
0.89736602
0.95492608
1.0121404
1.0651131
1.1098818
1.1441309
1.1679211
1.1830736
1.1920233
1.1969714
1.1995488
1.2008183
1.2014105
1.2016724
1.2017822
1.2018258
1.2018423
1.2018481
1.2018501
1.2018508
1.201851
1.201851
1.201851
1.201851
1.201851
1.201851
1.201851
1.201851
1.201851
1.201851
1.201851
1.201851
1.201851
1.201851
1.201851
1.201851
1.201851
1.201851
1.201851
1.201851
0.89794033
0.95614879
1.0140868
1.0676334
1.1126053
1.1466377
1.1699289
1.1845029
1.192944
1.1975154
1.1998466
1.2009704
1.2014834
1.2017052
1.2017962
1.2018314
1.2018444
1.2018489
1.2018504
1.2018508
1.201851
1.201851
1.201851
1.201851
1.201851
1.201851
1.201851
1.201851
1.201851
1.201851
1.201851
1.201851
1.201851
1.201851
1.201851
1.201851
1.201851
1.201851
1.201851
1.201851
0.89799122
0.95648764
1.0147656
1.0686563
1.1138617
1.1479347
1.1710775
1.1853953
1.1935643
1.1979062
1.2000724
1.2010911
1.2015433
1.201733
1.2018082
1.2018363
1.2018463
1.2018496
1.2018506
1.2018509
1.201851
1.201851
1.201851
1.201851
1.201851
1.201851
1.201851
1.201851
1.201851
1.201851
1.201851
1.201851
1.201851
1.201851
1.201851
1.201851
1.201851
1.201851
1.201851
1.201851
0.89788985
0.95647066
1.014839
1.0688402
1.1141665
1.1483184
1.1714774
1.1857498
1.1938378
1.1980955
1.2001903
1.2011575
1.2015776
1.2017493
1.2018153
1.2018392
1.2018473
1.2018499
1.2018507
1.201851
1.201851
1.201851
1.201851
1.201851
1.201851
1.201851
1.201851
1.201851
1.201851
1.201851
1.201851
1.201851
1.201851
1.201851
1.201851
1.201851
1.201851
1.201851
1.201851
1.201851
0.88432212
0.94068362
0.99748105
1.0513923
1.09848
1.1357864
1.1625295
1.1799731
1.1904251
1.1962332
1.199245
1.2007091
1.2013782
1.2016656
1.2017818
1.201826
1.2018418
1.2018472
1.2018488
1.2018493
1.2018495
1.2018495
1.2018495
1.2018495
1.2018495
1.2018495
1.2018495
1.2018495
1.2018495
1.2018495
1.2018495
1.2018495
1.2018495
1.2018495
1.2018495
1.2018495
1.2018495
1.2018495
1.2018495
1.2018495
0.88434982
0.94064374
0.99739116
1.0512399
1.0982331
1.1354485
1.1621343
1.17958
1.1900873
1.1959748
1.1990689
1.2006012
1.2013179
1.2016349
1.2017674
1.2018198
1.2018393
1.2018462
1.2018485
1.2018492
1.2018495
1.2018495
1.2018495
1.2018495
1.2018495
1.2018495
1.2018495
1.2018495
1.2018495
1.2018495
1.2018495
1.2018495
1.2018495
1.2018495
1.2018495
1.2018495
1.2018495
1.2018495
1.2018495
1.2018495
0.88407812
0.94006205
0.99644027
1.0498887
1.0965604
1.1336475
1.1604427
1.1781764
1.1890437
1.1952719
1.1986354
1.2003545
1.2011878
1.201571
1.2017382
1.2018073
1.2018343
1.2018444
1.2018479
1.201849
1.2018494
1.2018495
1.2018495
1.2018495
1.2018495
1.2018495
1.2018495
1.2018495
1.2018495
1.2018495
1.2018495
1.2018495
1.2018495
1.2018495
1.2018495
1.2018495
1.2018495
1.2018495
1.2018495
1.2018495
0.88310377
0.93831479
0.99375985
1.0463616
1.0925782
1.1297636
1.157128
1.1756609
1.1873199
1.1941921
1.198011
1.200019
1.2010194
1.2014918
1.2017032
1.2017927
1.2018286
1.2018422
1.2018471
1.2018488
1.2018493
1.2018495
1.2018495
1.2018495
1.2018495
1.2018495
1.2018495
1.2018495
1.2018495
1.2018495
1.2018495
1.2018495
1.2018495
1.2018495
1.2018495
1.2018495
1.2018495
1.2018495
1.2018495
1.2018495
0.88205952
0.93648893
0.99110301
1.043056
1.0890461
1.1265021
1.1544946
1.1737737
1.1861013
1.1934734
1.1976193
1.1998197
1.2009239
1.2014485
1.2016844
1.2017849
1.2018255
1.2018411
1.2018467
1.2018486
1.2018493
1.2018495
1.2018495
1.2018495
1.2018495
1.2018495
1.2018495
1.2018495
1.2018495
1.2018495
1.2018495
1.2018495
1.2018495
1.2018495
1.2018495
1.2018495
1.2018495
1.2018495
1.2018495
1.2018495
0.88205952
0.93648894
0.99110302
1.0430561
1.0890461
1.1265022
1.1544946
1.1737737
1.1861013
1.1934734
1.1976193
1.1998197
1.2009239
1.2014485
1.2016844
1.2017849
1.2018255
1.2018411
1.2018467
1.2018486
1.2018493
1.2018495
1.2018495
1.2018495
1.2018495
1.2018495
1.2018495
1.2018495
1.2018495
1.2018495
1.2018495
1.2018495
1.2018495
1.2018495
1.2018495
1.2018495
1.2018495
1.2018495
1.2018495
1.2018495
0.8831038
0.93831482
0.99375987
1.0463616
1.0925783
1.1297636
1.157128
1.1756609
1.1873199
1.1941921
1.198011
1.200019
1.2010194
1.2014918
1.2017032
1.2017927
1.2018286
1.2018422
1.2018471
1.2018488
1.2018493
1.2018495
1.2018495
1.2018495
1.2018495
1.2018495
1.2018495
1.2018495
1.2018495
1.2018495
1.2018495
1.2018495
1.2018495
1.2018495
1.2018495
1.2018495
1.2018495
1.2018495
1.2018495
1.2018495
0.8840782
0.9400621
0.99644031
1.0498887
1.0965604
1.1336475
1.1604427
1.1781764
1.1890437
1.1952719
1.1986354
1.2003545
1.2011878
1.201571
1.2017382
1.2018073
1.2018343
1.2018444
1.2018479
1.201849
1.2018494
1.2018495
1.2018495
1.2018495
1.2018495
1.2018495
1.2018495
1.2018495
1.2018495
1.2018495
1.2018495
1.2018495
1.2018495
1.2018495
1.2018495
1.2018495
1.2018495
1.2018495
1.2018495
1.2018495
0.88434985
0.94064376
0.99739119
1.0512399
1.0982331
1.1354485
1.1621343
1.17958
1.1900873
1.1959749
1.1990689
1.2006012
1.2013179
1.2016349
1.2017674
1.2018198
1.2018393
1.2018462
1.2018485
1.2018492
1.2018495
1.2018495
1.2018495
1.2018495
1.2018495
1.2018495
1.2018495
1.2018495
1.2018495
1.2018495
1.2018495
1.2018495
1.2018495
1.2018495
1.2018495
1.2018495
1.2018495
1.2018495
1.2018495
1.2018495
0.88432215
0.94068365
0.99748107
1.0513923
1.0984801
1.1357864
1.1625296
1.1799731
1.1904251
1.1962332
1.199245
1.2007091
1.2013782
1.2016656
1.2017818
1.201826
1.2018418
1.2018472
1.2018488
1.2018493
1.2018495
1.2018495
1.2018495
1.2018495
1.2018495
1.2018495
1.2018495
1.2018495
1.2018495
1.2018495
1.2018495
1.2018495
1.2018495
1.2018495
1.2018495
1.2018495
1.2018495
1.2018495
1.2018495
1.2018495
0.87369346
0.92832075
0.98374659
1.0372313
1.0852294
1.1246544
1.1541257
1.1742259
1.1868283
1.1941552
1.1981293
1.2001499
1.2011157
1.2015498
1.2017334
1.2018065
1.2018338
1.2018435
1.2018466
1.2018476
1.2018479
1.201848
1.201848
1.201848
1.201848
1.201848
1.201848
1.201848
1.201848
1.201848
1.201848
1.201848
1.201848
1.201848
1.201848
1.201848
1.201848
1.201848
1.201848
1.201848
0.87365355
0.92821845
0.98361705
1.0370768
1.0850162
1.1243627
1.1537592
1.1738275
1.1864544
1.1938442
1.1979002
1.1999989
1.2010253
1.2015005
1.2017087
1.2017951
1.201829
1.2018416
1.2018459
1.2018474
1.2018479
1.201848
1.201848
1.201848
1.201848
1.201848
1.201848
1.201848
1.201848
1.201848
1.201848
1.201848
1.201848
1.201848
1.201848
1.201848
1.201848
1.201848
1.201848
1.201848
0.87321855
0.92745521
0.98246345
1.0354868
1.0830406
1.1221774
1.1516197
1.1719627
1.184992
1.1928031
1.197221
1.19959
1.2007972
1.2013822
1.2016516
1.2017694
1.2018182
1.2018373
1.2018444
1.2018469
1.2018477
1.2018479
1.201848
1.201848
1.201848
1.201848
1.201848
1.201848
1.201848
1.201848
1.201848
1.201848
1.201848
1.201848
1.201848
1.201848
1.201848
1.201848
1.201848
1.201848
0.87199167
0.92538119
0.9793145
1.0312757
1.0781217
1.1171572
1.1471077
1.1683459
1.1823717
1.1910678
1.1961611
1.1989892
1.2004797
1.2012253
1.2015789
1.2017377
1.2018052
1.2018323
1.2018425
1.2018462
1.2018475
1.2018479
1.201848
1.201848
1.201848
1.201848
1.201848
1.201848
1.201848
1.201848
1.201848
1.201848
1.201848
1.201848
1.201848
1.201848
1.201848
1.201848
1.201848
1.201848
0.87074071
0.92326717
0.97619028
1.0272776
1.0736577
1.1128076
1.1433823
1.165509
1.1804267
1.1898528
1.1954622
1.1986156
1.2002926
1.2011369
1.2015392
1.2017207
1.2017982
1.2018295
1.2018415
1.2018459
1.2018473
1.2018478
1.201848
1.201848
1.201848
1.201848
1.201848
1.201848
1.201848
1.201848
1.201848
1.201848
1.201848
1.201848
1.201848
1.201848
1.201848
1.201848
1.201848
1.201848
0.87074071
0.92326718
0.97619028
1.0272776
1.0736577
1.1128076
1.1433823
1.165509
1.1804267
1.1898528
1.1954622
1.1986156
1.2002926
1.2011369
1.2015392
1.2017207
1.2017982
1.2018295
1.2018415
1.2018459
1.2018473
1.2018478
1.201848
1.201848
1.201848
1.201848
1.201848
1.201848
1.201848
1.201848
1.201848
1.201848
1.201848
1.201848
1.201848
1.201848
1.201848
1.201848
1.201848
1.201848
0.87199169
0.92538122
0.97931452
1.0312757
1.0781217
1.1171572
1.1471078
1.1683459
1.1823717
1.1910678
1.1961611
1.1989892
1.2004797
1.2012253
1.2015789
1.2017377
1.2018052
1.2018323
1.2018425
1.2018462
1.2018475
1.2018479
1.201848
1.201848
1.201848
1.201848
1.201848
1.201848
1.201848
1.201848
1.201848
1.201848
1.201848
1.201848
1.201848
1.201848
1.201848
1.201848
1.201848
1.201848
0.87321863
0.92745526
0.98246348
1.0354869
1.0830407
1.1221774
1.1516197
1.1719627
1.184992
1.1928032
1.197221
1.19959
1.2007972
1.2013822
1.2016516
1.2017694
1.2018182
1.2018373
1.2018444
1.2018469
1.2018477
1.2018479
1.201848
1.201848
1.201848
1.201848
1.201848
1.201848
1.201848
1.201848
1.201848
1.201848
1.201848
1.201848
1.201848
1.201848
1.201848
1.201848
1.201848
1.201848
0.87365357
0.92821848
0.98361708
1.0370768
1.0850162
1.1243627
1.1537592
1.1738275
1.1864544
1.1938442
1.1979002
1.1999989
1.2010253
1.2015005
1.2017087
1.2017951
1.201829
1.2018416
1.2018459
1.2018474
1.2018479
1.201848
1.201848
1.201848
1.201848
1.201848
1.201848
1.201848
1.201848
1.201848
1.201848
1.201848
1.201848
1.201848
1.201848
1.201848
1.201848
1.201848
1.201848
1.201848
0.87369349
0.92832077
0.98374661
1.0372313
1.0852294
1.1246544
1.1541257
1.1742259
1.1868283
1.1941552
1.1981293
1.2001499
1.2011157
1.2015498
1.2017334
1.2018065
1.2018338
1.2018435
1.2018466
1.2018476
1.2018479
1.201848
1.201848
1.201848
1.201848
1.201848
1.201848
1.201848
1.201848
1.201848
1.201848
1.201848
1.201848
1.201848
1.201848
1.201848
1.201848
1.201848
1.201848
1.201848
0.86498435
0.91819941
0.97243524
1.0253782
1.0738329
1.114728
1.1463111
1.1686355
1.1831629
1.1919348
1.1968788
1.1994922
1.2007917
1.2013999
1.201668
1.2017792
1.2018226
1.2018385
1.201844
1.2018458
1.2018463
1.2018465
1.2018465
1.2018465
1.2018465
1.2018465
1.2018465
1.2018465
1.2018465
1.2018465
1.2018465
1.2018465
1.2018465
1.2018465
1.2018465
1.2018465
1.2018465
1.2018465
1.2018465
1.2018465
0.86488571
0.91803719
0.97225588
1.0251988
1.0736273
1.1144669
1.1459757
1.1682483
1.1827734
1.1915874
1.1966052
1.1993001
1.2006695
1.2013292
1.2016305
1.2017609
1.2018144
1.2018351
1.2018427
1.2018453
1.2018462
1.2018464
1.2018465
1.2018465
1.2018465
1.2018465
1.2018465
1.2018465
1.2018465
1.2018465
1.2018465
1.2018465
1.2018465
1.2018465
1.2018465
1.2018465
1.2018465
1.2018465
1.2018465
1.2018465
0.86432958
0.91713777
0.97094916
1.0234303
1.071427
1.1119892
1.1434767
1.1659871
1.1809242
1.1902104
1.1956635
1.1987048
1.2003205
1.2011389
1.2015338
1.201715
1.201794
1.2018267
1.2018394
1.2018441
1.2018458
1.2018463
1.2018465
1.2018465
1.2018465
1.2018465
1.2018465
1.2018465
1.2018465
1.2018465
1.2018465
1.2018465
1.2018465
1.2018465
1.2018465
1.2018465
1.2018465
1.2018465
1.2018465
1.2018465
0.86294346
0.91486248
0.96750788
1.0187674
1.0658366
1.1060783
1.1379396
1.1613444
1.1773983
1.1877593
1.1940906
1.1977677
1.1998002
1.2008688
1.2014025
1.2016552
1.2017684
1.2018163
1.2018355
1.2018427
1.2018453
1.2018462
1.2018464
1.2018465
1.2018465
1.2018465
1.2018465
1.2018465
1.2018465
1.2018465
1.2018465
1.2018465
1.2018465
1.2018465
1.2018465
1.2018465
1.2018465
1.2018465
1.2018465
1.2018465
0.86157244
0.91258527
0.96410419
1.014311
1.0606857
1.1008376
1.1332258
1.1575627
1.1746632
1.1859572
1.1929988
1.1971544
1.1994785
1.2007102
1.2013285
1.2016223
1.2017545
1.2018107
1.2018333
1.2018419
1.201845
1.2018461
1.2018464
1.2018465
1.2018465
1.2018465
1.2018465
1.2018465
1.2018465
1.2018465
1.2018465
1.2018465
1.2018465
1.2018465
1.2018465
1.2018465
1.2018465
1.2018465
1.2018465
1.2018465
0.86157244
0.91258528
0.9641042
1.014311
1.0606857
1.1008376
1.1332258
1.1575627
1.1746632
1.1859572
1.1929988
1.1971544
1.1994785
1.2007102
1.2013285
1.2016223
1.2017545
1.2018107
1.2018333
1.2018419
1.201845
1.2018461
1.2018464
1.2018465
1.2018465
1.2018465
1.2018465
1.2018465
1.2018465
1.2018465
1.2018465
1.2018465
1.2018465
1.2018465
1.2018465
1.2018465
1.2018465
1.2018465
1.2018465
1.2018465
0.86294349
0.91486251
0.9675079
1.0187675
1.0658366
1.1060783
1.1379396
1.1613444
1.1773983
1.1877593
1.1940906
1.1977677
1.1998002
1.2008688
1.2014025
1.2016552
1.2017684
1.2018163
1.2018355
1.2018427
1.2018453
1.2018462
1.2018464
1.2018465
1.2018465
1.2018465
1.2018465
1.2018465
1.2018465
1.2018465
1.2018465
1.2018465
1.2018465
1.2018465
1.2018465
1.2018465
1.2018465
1.2018465
1.2018465
1.2018465
0.86432965
0.91713782
0.9709492
1.0234304
1.071427
1.1119892
1.1434767
1.1659871
1.1809242
1.1902104
1.1956635
1.1987048
1.2003205
1.2011389
1.2015338
1.201715
1.201794
1.2018267
1.2018394
1.2018441
1.2018458
1.2018463
1.2018465
1.2018465
1.2018465
1.2018465
1.2018465
1.2018465
1.2018465
1.2018465
1.2018465
1.2018465
1.2018465
1.2018465
1.2018465
1.2018465
1.2018465
1.2018465
1.2018465
1.2018465
0.86488573
0.91803722
0.9722559
1.0251989
1.0736273
1.1144669
1.1459758
1.1682483
1.1827734
1.1915874
1.1966052
1.1993001
1.2006695
1.2013292
1.2016305
1.2017609
1.2018144
1.2018351
1.2018427
1.2018453
1.2018462
1.2018464
1.2018465
1.2018465
1.2018465
1.2018465
1.2018465
1.2018465
1.2018465
1.2018465
1.2018465
1.2018465
1.2018465
1.2018465
1.2018465
1.2018465
1.2018465
1.2018465
1.2018465
1.2018465
0.86498438
0.91819944
0.97243526
1.0253782
1.073833
1.114728
1.1463111
1.1686355
1.1831629
1.1919348
1.1968788
1.1994922
1.2007917
1.2013999
1.201668
1.2017792
1.2018226
1.2018385
1.201844
1.2018458
1.2018463
1.2018465
1.2018465
1.2018465
1.2018465
1.2018465
1.2018465
1.2018465
1.2018465
1.2018465
1.2018465
1.2018465
1.2018465
1.2018465
1.2018465
1.2018465
1.2018465
1.2018465
1.2018465
1.2018465
0.85762542
0.90965556
0.96285046
1.0152212
1.0638734
1.1058147
1.1390625
1.1632608
1.1795029
1.1896287
1.195526
1.1987504
1.2004105
1.2012159
1.2015842
1.2017429
1.2018073
1.2018319
1.2018407
1.2018437
1.2018446
1.2018449
1.201845
1.201845
1.201845
1.201845
1.201845
1.201845
1.201845
1.201845
1.201845
1.201845
1.201845
1.201845
1.201845
1.201845
1.201845
1.201845
1.201845
1.201845
0.85747709
0.90943923
0.96261903
1.0150039
1.0636553
1.1055662
1.1387506
1.1628894
1.1791098
1.1892576
1.1952171
1.1985214
1.200257
1.2011223
1.201532
1.2017161
1.2017946
1.2018263
1.2018385
1.2018428
1.2018443
1.2018448
1.201845
1.201845
1.201845
1.201845
1.201845
1.201845
1.201845
1.201845
1.201845
1.201845
1.201845
1.201845
1.201845
1.201845
1.201845
1.201845
1.201845
1.201845
0.85683049
0.90843702
0.9611952
1.0130986
1.0612834
1.1028621
1.1359627
1.1602932
1.1769147
1.1875621
1.194011
1.1977267
1.1997703
1.2008446
1.2013842
1.2016427
1.2017605
1.2018115
1.2018325
1.2018406
1.2018435
1.2018446
1.2018449
1.201845
1.201845
1.201845
1.201845
1.201845
1.201845
1.201845
1.201845
1.201845
1.201845
1.201845
1.201845
1.201845
1.201845
1.201845
1.201845
1.201845
0.85534487
0.90604037
0.95757626
1.0081437
1.0552208
1.0962697
1.1295772
1.1547376
1.1725262
1.1843827
1.1918812
1.1964001
1.1989994
1.2004258
1.2011711
1.201541
1.201715
1.2017924
1.2018249
1.2018377
1.2018425
1.2018442
1.2018448
1.201845
1.201845
1.201845
1.201845
1.201845
1.201845
1.201845
1.201845
1.201845
1.201845
1.201845
1.201845
1.201845
1.201845
1.201845
1.201845
1.201845
0.85390745
0.90367733
0.95401583
1.0033963
1.0495811
1.0903285
1.1240138
1.150074
1.168994
1.1819427
1.1903309
1.1954877
1.1984988
1.2001682
1.2010461
1.2014835
1.2016898
1.2017818
1.2018206
1.2018361