/*--------------------------------*- C++ -*----------------------------------*\
| =========                 |                                                 |
| \\      /  F ield         | OpenFOAM: The Open Source CFD Toolbox           |
|  \\    /   O peration     | Version:  4.0                                   |
|   \\  /    A nd           | Web:      www.OpenFOAM.org                      |
|    \\/     M anipulation  |                                                 |
\*---------------------------------------------------------------------------*/
FoamFile
{
    version     2.0;
    format      ascii;
    class       volScalarField;
    location    "2000";
    object      rho;
}
// * * * * * * * * * * * * * * * * * * * * * * * * * * * * * * * * * * * * * //

dimensions      [1 -3 0 0 0 0 0];

internalField   nonuniform List<scalar> 
100000
(
0.87477339
0.89065952
0.90818848
0.92733245
0.9479893
0.96996739
0.99297471
1.0166179
1.0404136
1.0638158
1.0862569
1.1071996
1.1261893
1.1428974
1.1571454
1.1689109
1.1783082
1.1855591
1.1909543
1.194817
1.19747
1.1992116
1.2003
1.2009437
1.2013022
1.2014891
1.2015796
1.20162
1.2016365
1.2016426
1.2016447
1.2016453
1.2016455
1.2016455
1.2016455
1.2016455
1.2016455
1.2016455
1.2016455
1.2016455
1.2016455
1.2016455
1.2016455
1.2016455
1.2016455
1.2016455
1.2016455
1.2016455
1.2016455
1.2016455
0.87501774
0.89091383
0.90845093
0.92759978
0.94825702
0.97022981
0.99322602
1.0168529
1.0406292
1.0640122
1.0864394
1.107378
1.126376
1.1431032
1.1573779
1.1691688
1.178583
1.1858363
1.1912172
1.1950498
1.1976623
1.1993592
1.2004043
1.2010119
1.2013431
1.2015115
1.2015905
1.2016249
1.2016384
1.2016433
1.2016449
1.2016454
1.2016455
1.2016455
1.2016455
1.2016455
1.2016455
1.2016455
1.2016455
1.2016455
1.2016455
1.2016455
1.2016455
1.2016455
1.2016455
1.2016455
1.2016455
1.2016455
1.2016455
1.2016455
0.87577495
0.89179677
0.90945336
0.92871358
0.9494727
0.9715375
0.99461647
1.0183186
1.0421647
1.0656129
1.088098
1.1090806
1.1280979
1.1448077
1.1590168
1.1706902
1.179938
1.1869877
1.1921458
1.1957573
1.1981689
1.1996988
1.2006145
1.2011329
1.2014071
1.2015426
1.2016046
1.2016306
1.2016406
1.201644
1.2016451
1.2016454
1.2016455
1.2016455
1.2016455
1.2016455
1.2016455
1.2016455
1.2016455
1.2016455
1.2016455
1.2016455
1.2016455
1.2016455
1.2016455
1.2016455
1.2016455
1.2016455
1.2016455
1.2016455
0.87989624
0.89607042
0.91384949
0.9332038
0.95403166
0.97614373
0.99925172
1.0229649
1.0467986
1.0701986
1.0925807
1.1133837
1.1321267
1.1484627
1.1622141
1.1733757
1.1820955
1.1886384
1.1933435
1.1965729
1.1986907
1.2000122
1.2007947
1.201229
1.2014552
1.2015647
1.2016138
1.2016341
1.2016418
1.2016444
1.2016452
1.2016454
1.2016455
1.2016455
1.2016455
1.2016455
1.2016455
1.2016455
1.2016455
1.2016455
1.2016455
1.2016455
1.2016455
1.2016455
1.2016455
1.2016455
1.2016455
1.2016455
1.2016455
1.2016455
0.89393932
0.90907198
0.92584669
0.94424398
0.96417776
0.98546051
1.0078008
1.0307983
1.0539523
1.0766871
1.0983767
1.1184292
1.1364029
1.1519679
1.1649887
1.1754923
1.1836548
1.1897305
1.194072
1.1970453
1.1989843
1.2001847
1.2008874
1.2012757
1.2014768
1.201574
1.2016175
1.2016355
1.2016422
1.2016445
1.2016452
1.2016454
1.2016455
1.2016455
1.2016455
1.2016455
1.2016455
1.2016455
1.2016455
1.2016455
1.2016455
1.2016455
1.2016455
1.2016455
1.2016455
1.2016455
1.2016455
1.2016455
1.2016455
1.2016455
0.89395076
0.90908589
0.92586575
0.94426271
0.96418026
0.9854247
1.0077044
1.0306204
1.0536769
1.0763089
1.097927
1.1179845
1.1360508
1.1517458
1.1648806
1.1754562
1.1836343
1.1897274
1.1940771
1.1970476
1.1989829
1.2001819
1.2008858
1.2012749
1.2014766
1.2015739
1.2016175
1.2016355
1.2016422
1.2016445
1.2016452
1.2016454
1.2016455
1.2016455
1.2016455
1.2016455
1.2016455
1.2016455
1.2016455
1.2016455
1.2016455
1.2016455
1.2016455
1.2016455
1.2016455
1.2016455
1.2016455
1.2016455
1.2016455
1.2016455
0.87990005
0.89607309
0.91384949
0.93319847
0.95401678
0.97611354
0.99919947
1.022884
1.0466846
1.0700515
1.0924072
1.1131978
1.1319467
1.1483045
1.1620861
1.1732783
1.1820238
1.1885878
1.1933095
1.1965566
1.1986856
1.2000123
1.2007957
1.2012296
1.2014555
1.2015648
1.2016139
1.2016341
1.2016418
1.2016444
1.2016452
1.2016454
1.2016455
1.2016455
1.2016455
1.2016455
1.2016455
1.2016455
1.2016455
1.2016455
1.2016455
1.2016455
1.2016455
1.2016455
1.2016455
1.2016455
1.2016455
1.2016455
1.2016455
1.2016455
0.87577493
0.8917958
0.909451
0.92870933
0.949466
0.97152788
0.99460362
1.0183025
1.0421458
1.0655919
1.088076
1.1090589
1.1280775
1.1447891
1.1590005
1.1706763
1.179927
1.1869797
1.1921409
1.1957552
1.1981686
1.1996994
1.200615
1.2011334
1.2014073
1.2015427
1.2016045
1.2016306
1.2016406
1.201644
1.2016451
1.2016454
1.2016455
1.2016455
1.2016455
1.2016455
1.2016455
1.2016455
1.2016455
1.2016455
1.2016455
1.2016455
1.2016455
1.2016455
1.2016455
1.2016455
1.2016455
1.2016455
1.2016455
1.2016455
0.87499541
0.89089268
0.90843101
0.92758122
0.94824003
0.97021465
0.99321305
1.0168424
1.0406217
1.0640078
1.086438
1.1073793
1.1263793
1.1431078
1.157383
1.1691737
1.1785873
1.1858399
1.19122
1.1950518
1.1976636
1.1993599
1.2004046
1.2010119
1.2013431
1.2015114
1.2015906
1.2016249
1.2016384
1.2016433
1.2016449
1.2016454
1.2016455
1.2016455
1.2016455
1.2016455
1.2016455
1.2016455
1.2016455
1.2016455
1.2016455
1.2016455
1.2016455
1.2016455
1.2016455
1.2016455
1.2016455
1.2016455
1.2016455
1.2016455
0.87474624
0.89063342
0.90816353
0.92730885
0.94796733
0.96994738
0.99295705
1.016603
1.0404017
1.0638071
1.0862513
1.1071968
1.1261888
1.1428985
1.1571474
1.1689131
1.1783104
1.1855608
1.1909555
1.1948177
1.1974703
1.1992117
1.2002999
1.2009437
1.2013022
1.2014891
1.2015796
1.20162
1.2016365
1.2016426
1.2016447
1.2016453
1.2016455
1.2016455
1.2016455
1.2016455
1.2016455
1.2016455
1.2016455
1.2016455
1.2016455
1.2016455
1.2016455
1.2016455
1.2016455
1.2016455
1.2016455
1.2016455
1.2016455
1.2016455
0.82820894
0.84002213
0.85309141
0.86752739
0.8834319
0.90088657
0.91993679
0.94057203
0.96270265
0.98613694
1.0105612
1.0355311
1.0604797
1.0847479
1.1076369
1.1284867
1.1467543
1.162091
1.1743609
1.1836516
1.1903315
1.1948831
1.197816
1.1995988
1.2006178
1.201163
1.2014346
1.20156
1.2016131
1.2016337
1.2016409
1.2016432
1.2016438
1.201644
1.201644
1.201644
1.201644
1.201644
1.201644
1.201644
1.201644
1.201644
1.201644
1.201644
1.201644
1.201644
1.201644
1.201644
1.201644
1.201644
0.82867012
0.84050121
0.85358953
0.86804453
0.88396671
0.90143606
0.92049661
0.94113641
0.96326522
0.98669121
1.0111027
1.0360588
1.0609963
1.0852583
1.1081483
1.129
1.147264
1.1625842
1.1748051
1.1840282
1.1906329
1.1951107
1.197978
1.1997065
1.2006841
1.2012005
1.201454
1.201569
1.2016169
1.2016351
1.2016414
1.2016433
1.2016438
1.201644
1.201644
1.201644
1.201644
1.201644
1.201644
1.201644
1.201644
1.201644
1.201644
1.201644
1.201644
1.201644
1.201644
1.201644
1.201644
1.201644
0.82961742
0.8416122
0.85485969
0.86946769
0.88553527
0.9031414
0.92232941
0.94308736
0.96532519
0.98885125
1.0133522
1.0383826
1.0633705
1.0876461
1.1104966
1.1312442
1.1493365
1.1643656
1.1762185
1.1851018
1.1914066
1.1956361
1.1983119
1.1999043
1.2007929
1.2012559
1.20148
1.2015802
1.2016213
1.2016367
1.2016419
1.2016435
1.2016439
1.201644
1.201644
1.201644
1.201644
1.201644
1.201644
1.201644
1.201644
1.201644
1.201644
1.201644
1.201644
1.201644
1.201644
1.201644
1.201644
1.201644
0.83406314
0.84619458
0.85956027
0.87426996
0.89042537
0.90810832
0.92736419
0.9481808
0.97046427
0.99401431
1.018503
1.0434635
1.0682967
1.0923065
1.1147679
1.1350167
1.1524623
1.1668022
1.1780206
1.1863548
1.1922242
1.1961363
1.1985991
1.2000591
1.200871
1.2012927
1.2014961
1.2015867
1.2016237
1.2016375
1.2016421
1.2016435
1.2016439
1.201644
1.201644
1.201644
1.201644
1.201644
1.201644
1.201644
1.201644
1.201644
1.201644
1.201644
1.201644
1.201644
1.201644
1.201644
1.201644
1.201644
0.84670849
0.85795412
0.87048999
0.88443234
0.89988645
0.91693335
0.93560905
0.95589614
0.97768298
1.0007525
1.0247552
1.0492054
1.073509
1.0969403
1.1187303
1.1382094
1.154908
1.1685653
1.1792141
1.187115
1.1926827
1.1963983
1.1987413
1.2001325
1.2009072
1.2013096
1.2015037
1.2015899
1.201625
1.2016379
1.2016423
1.2016436
1.2016439
1.201644
1.201644
1.201644
1.201644
1.201644
1.201644
1.201644
1.201644
1.201644
1.201644
1.201644
1.201644
1.201644
1.201644
1.201644
1.201644
1.201644
0.84669976
0.85794396
0.87047518
0.88440829
0.8998485
0.9168795
0.93554836
0.95584953
0.97767247
1.0007926
1.0248489
1.0493167
1.0735905
1.0969706
1.1187269
1.138199
1.1548832
1.1685495
1.1792112
1.1871191
1.1926856
1.1963995
1.1987411
1.2001316
1.2009063
1.2013094
1.2015037
1.2015899
1.201625
1.2016379
1.2016423
1.2016436
1.2016439
1.201644
1.201644
1.201644
1.201644
1.201644
1.201644
1.201644
1.201644
1.201644
1.201644
1.201644
1.201644
1.201644
1.201644
1.201644
1.201644
1.201644
0.83405287
0.84618343
0.85954774
0.87425551
0.89040859
0.90808925
0.92734375
0.94816127
0.97044875
0.99400572
1.0185026
1.0434694
1.0683048
1.0923136
1.1147726
1.1350151
1.1524446
1.166787
1.178013
1.1863541
1.1922274
1.1961406
1.1986029
1.2000618
1.2008726
1.2012932
1.2014962
1.2015867
1.2016237
1.2016375
1.2016421
1.2016435
1.2016439
1.201644
1.201644
1.201644
1.201644
1.201644
1.201644
1.201644
1.201644
1.201644
1.201644
1.201644
1.201644
1.201644
1.201644
1.201644
1.201644
1.201644
0.82960249
0.84159653
0.85484335
0.8694508
0.88551799
0.90312389
0.92231179
0.94306968
0.96530731
0.98883282
1.0133328
1.0383617
1.0633478
1.0876214
1.11047
1.1312167
1.1493122
1.1643469
1.1762091
1.1850963
1.1914034
1.1956344
1.198311
1.199904
1.2007927
1.2012558
1.20148
1.2015802
1.2016213
1.2016367
1.2016419
1.2016434
1.2016439
1.201644
1.201644
1.201644
1.201644
1.201644
1.201644
1.201644
1.201644
1.201644
1.201644
1.201644
1.201644
1.201644
1.201644
1.201644
1.201644
1.201644
0.82863862
0.84047034
0.85355931
0.86801495
0.88393776
0.9014077
0.92046876
0.94110894
0.96323792
0.98666386
1.0110751
1.0360309
1.0609683
1.0852307
1.1081221
1.1289768
1.147246
1.162574
1.1747962
1.1840219
1.1906295
1.1951089
1.197977
1.199706
1.2006838
1.2012003
1.2014539
1.2015689
1.2016169
1.2016351
1.2016414
1.2016433
1.2016438
1.201644
1.201644
1.201644
1.201644
1.201644
1.201644
1.201644
1.201644
1.201644
1.201644
1.201644
1.201644
1.201644
1.201644
1.201644
1.201644
1.201644
0.82817496
0.83998879
0.85305882
0.86749566
0.88340116
0.90085694
0.91990838
0.94054497
0.96267706
0.98611294
1.0105389
1.0355108
1.0604615
1.084732
1.1076235
1.1284759
1.146746
1.1620848
1.174356
1.1836479
1.1903283
1.1948808
1.1978145
1.1995979
1.2006172
1.2011627
1.2014346
1.2015599
1.2016131
1.2016337
1.2016409
1.2016432
1.2016438
1.201644
1.201644
1.201644
1.201644
1.201644
1.201644
1.201644
1.201644
1.201644
1.201644
1.201644
1.201644
1.201644
1.201644
1.201644
1.201644
1.201644
0.81068573
0.82101713
0.83241888
0.84499949
0.85887248
0.87415176
0.89094417
0.90933734
0.9293823
0.95106911
0.97429723
0.99884268
1.0243287
1.0502088
1.0757813
1.100236
1.1227481
1.1425967
1.1592822
1.1726021
1.1826738
1.1898728
1.1947265
1.1978075
1.1996443
1.2006689
1.2012012
1.2014576
1.2015714
1.2016176
1.2016346
1.2016403
1.2016419
1.2016424
1.2016425
1.2016425
1.2016425
1.2016425
1.2016425
1.2016425
1.2016425
1.2016425
1.2016425
1.2016425
1.2016425
1.2016425
1.2016425
1.2016425
1.2016425
1.2016425
0.81119788
0.82154926
0.832975
0.84558345
0.85948773
0.87480141
0.8916306
0.9100621
0.93014546
0.95186941
0.97513161
0.9997055
1.0252103
1.0510968
1.0766559
1.1010736
1.1235224
1.1432832
1.1598594
1.1730614
1.1830185
1.1901154
1.1948879
1.197909
1.1997039
1.2007016
1.201218
1.2014656
1.2015749
1.201619
1.2016351
1.2016404
1.201642
1.2016424
1.2016425
1.2016425
1.2016425
1.2016425
1.2016425
1.2016425
1.2016425
1.2016425
1.2016425
1.2016425
1.2016425
1.2016425
1.2016425
1.2016425
1.2016425
1.2016425
0.81199162
0.82248166
0.83404198
0.84677946
0.86080576
0.87623278
0.89316481
0.91168631
0.93184401
0.95362258
0.97691453
1.0014872
1.0269537
1.0527583
1.0781904
1.1024375
1.1246801
1.1442111
1.1605557
1.1735493
1.1833373
1.19031
1.1949984
1.1979675
1.1997333
1.2007158
1.2012248
1.2014688
1.2015764
1.2016195
1.2016353
1.2016405
1.201642
1.2016424
1.2016425
1.2016425
1.2016425
1.2016425
1.2016425
1.2016425
1.2016425
1.2016425
1.2016425
1.2016425
1.2016425
1.2016425
1.2016425
1.2016425
1.2016425
1.2016425
0.81552866
0.82610127
0.83771448
0.85047433
0.86449171
0.87987746
0.89673439
0.9151447
0.935152
0.95673764
0.97979122
1.004079
1.029216
1.0546541
1.0796979
1.103557
1.1254365
1.1446561
1.1607621
1.1735956
1.1832953
1.1902353
1.194926
1.1979129
1.1996988
1.2006971
1.201216
1.2014652
1.2015752
1.2016194
1.2016354
1.2016405
1.201642
1.2016424
1.2016425
1.2016425
1.2016425
1.2016425
1.2016425
1.2016425
1.2016425
1.2016425
1.2016425
1.2016425
1.2016425
1.2016425
1.2016425
1.2016425
1.2016425
1.2016425
0.82670374
0.83634871
0.84707309
0.85898597
0.87219986
0.8868255
0.90296684
0.92070208
0.94006618
0.96104109
0.98351879
1.0072753
1.0319116
1.0568642
1.0814553
1.1048934
1.1264011
1.1453108
1.1611735
1.1738218
1.183403
1.1902805
1.1949476
1.1979273
1.1997107
1.2007067
1.2012228
1.2014695
1.2015773
1.2016202
1.2016357
1.2016406
1.2016421
1.2016424
1.2016425
1.2016425
1.2016425
1.2016425
1.2016425
1.2016425
1.2016425
1.2016425
1.2016425
1.2016425
1.2016425
1.2016425
1.2016425
1.2016425
1.2016425
1.2016425
0.82669349
0.83633794
0.84706139
0.85897264
0.87218427
0.88680814
0.90294488
0.92067784
0.94005071
0.9610474
0.98354417
1.0072907
1.0319116
1.0568717
1.0814582
1.1048912
1.1263822
1.1452691
1.1611197
1.1737922
1.1833999
1.1902926
1.1949581
1.1979336
1.1997138
1.200708
1.2012231
1.2014694
1.2015772
1.2016202
1.2016356
1.2016406
1.2016421
1.2016424
1.2016425
1.2016425
1.2016425
1.2016425
1.2016425
1.2016425
1.2016425
1.2016425
1.2016425
1.2016425
1.2016425
1.2016425
1.2016425
1.2016425
1.2016425
1.2016425
0.81550961
0.82608093
0.83769259
0.85045059
0.86446578
0.87984901
0.89670311
0.9151105
0.93511519
0.95669858
0.97974989
1.0040346
1.0291683
1.0546036
1.0796451
1.1035028
1.125382
1.1446054
1.1607205
1.1735673
1.1832798
1.1902288
1.1949238
1.1979123
1.1996986
1.2006967
1.2012158
1.2014651
1.2015751
1.2016193
1.2016354
1.2016405
1.201642
1.2016424
1.2016425
1.2016425
1.2016425
1.2016425
1.2016425
1.2016425
1.2016425
1.2016425
1.2016425
1.2016425
1.2016425
1.2016425
1.2016425
1.2016425
1.2016425
1.2016425
0.81197111
0.82245997
0.83401904
0.84675517
0.86078001
0.87620541
0.89313564
0.91165514
0.93181059
0.95358665
0.97687584
1.0014456
1.0269091
1.052711
1.0781411
1.1023876
1.1246316
1.1441664
1.1605175
1.1735191
1.1833153
1.1902953
1.1949894
1.1979624
1.1997306
1.2007144
1.2012241
1.2014685
1.2015762
1.2016195
1.2016353
1.2016405
1.201642
1.2016424
1.2016425
1.2016425
1.2016425
1.2016425
1.2016425
1.2016425
1.2016425
1.2016425
1.2016425
1.2016425
1.2016425
1.2016425
1.2016425
1.2016425
1.2016425
1.2016425
0.81116737
0.82151908
0.83294516
0.84555392
0.85945852
0.87477253
0.89160207
0.91003395
0.93011772
0.9518421
0.97510475
0.99967913
1.0251845
1.0510716
1.0766316
1.1010505
1.1235012
1.1432645
1.1598436
1.1730488
1.183009
1.1901087
1.1948836
1.1979064
1.1997024
1.2007008
1.2012176
1.2014654
1.2015748
1.2016189
1.2016351
1.2016404
1.201642
1.2016424
1.2016425
1.2016425
1.2016425
1.2016425
1.2016425
1.2016425
1.2016425
1.2016425
1.2016425
1.2016425
1.2016425
1.2016425
1.2016425
1.2016425
1.2016425
1.2016425
0.81065441
0.82098619
0.83238839
0.84496954
0.85884318
0.87412322
0.89091655
0.90931081
0.92935709
0.95104546
0.97427538
0.99882288
1.0243112
1.0501937
1.0757686
1.1002257
1.12274
1.1425905
1.1592775
1.1725985
1.1826711
1.1898708
1.1947251
1.1978066
1.1996437
1.2006685
1.2012011
1.2014576
1.2015714
1.2016176
1.2016346
1.2016403
1.2016419
1.2016424
1.2016425
1.2016425
1.2016425
1.2016425
1.2016425
1.2016425
1.2016425
1.2016425
1.2016425
1.2016425
1.2016425
1.2016425
1.2016425
1.2016425
1.2016425
1.2016425
0.80160191
0.81117762
0.82172606
0.8333468
0.84614672
0.86023784
0.87573338
0.8927404
0.91134853
0.93161209
0.9535259
0.97699364
1.0017918
1.027534
1.0536531
1.0794083
1.1039423
1.1263857
1.1459967
1.1622878
1.1751083
1.1846409
1.1913215
1.1957265
1.198453
1.2000321
1.2008846
1.2013116
1.201509
1.2015926
1.2016249
1.2016362
1.2016397
1.2016407
1.2016409
1.201641
1.201641
1.201641
1.201641
1.201641
1.201641
1.201641
1.201641
1.201641
1.201641
1.201641
1.201641
1.201641
1.201641
1.201641
0.80211441
0.81171007
0.82228386
0.83393576
0.84677306
0.86090839
0.87645545
0.89352187
0.91219726
0.93253593
0.95453155
0.97808473
1.0029653
1.0287786
1.0549418
1.0806992
1.1051809
1.127513
1.1469586
1.1630518
1.1756679
1.1850142
1.1915478
1.1958496
1.1985115
1.2000556
1.200892
1.201313
1.2015088
1.2015923
1.2016248
1.2016361
1.2016397
1.2016407
1.2016409
1.201641
1.201641
1.201641
1.201641
1.201641
1.201641
1.201641
1.201641
1.201641
1.201641
1.201641
1.201641
1.201641
1.201641
1.201641
0.80278724
0.81249917
0.82318616
0.83494718
0.84788857
0.86212191
0.87775965
0.89490746
0.91365201
0.93404257
0.95606527
0.97961042
1.0044359
1.030134
1.0561159
1.0816283
1.1058181
1.1278433
1.1470082
1.1628837
1.1753677
1.1846691
1.1912252
1.1955894
1.1983267
1.1999389
1.2008263
1.2012802
1.2014942
1.2015864
1.2016226
1.2016355
1.2016395
1.2016407
1.2016409
1.201641
1.201641
1.201641
1.201641
1.201641
1.201641
1.201641
1.201641
1.201641
1.201641
1.201641
1.201641
1.201641
1.201641
1.201641
0.80559518
0.81535389
0.82604933
0.83777797
0.85064337
0.86475364
0.88021683
0.89713316
0.9155831
0.93560987
0.9571954
0.98023022
1.0044824
1.0295719
1.0549551
1.0799377
1.1037317
1.1255471
1.1447105
1.1607742
1.1735826
1.1832757
1.1902232
1.1949278
1.1979276
1.1997197
1.2007173
1.2012319
1.201475
1.2015802
1.2016209
1.2016351
1.2016395
1.2016407
1.2016409
1.201641
1.201641
1.201641
1.201641
1.201641
1.201641
1.201641
1.201641
1.201641
1.201641
1.201641
1.201641
1.201641
1.201641
1.201641
0.81577647
0.82456261
0.83431143
0.8451197
0.85708972
0.87032667
0.88493508
0.90101033
0.91863177
0.9378485
0.95867282
0.98097765
1.0045219
1.0289936
1.0539189
1.0785778
1.102234
1.1240736
1.1434052
1.1597228
1.1727839
1.1827126
1.1898588
1.1947153
1.1978277
1.1996839
1.2007103
1.2012329
1.2014772
1.2015813
1.2016214
1.2016353
1.2016395
1.2016407
1.2016409
1.201641
1.201641
1.201641
1.201641
1.201641
1.201641
1.201641
1.201641
1.201641
1.201641
1.201641
1.201641
1.201641
1.201641
1.201641
0.81576257
0.82454823
0.83429637
0.84510357
0.85707188
0.87030704
0.88491329
0.90098906
0.91861259
0.93781242
0.95859053
0.98084882
1.0043968
1.0289331
1.0538486
1.0785287
1.1021612
1.1239721
1.1432576
1.1595461
1.1726688
1.1826789
1.1898882
1.1947724
1.1978639
1.199697
1.200713
1.2012322
1.2014769
1.2015812
1.2016214
1.2016353
1.2016395
1.2016407
1.2016409
1.201641
1.201641
1.201641
1.201641
1.201641
1.201641
1.201641
1.201641
1.201641
1.201641
1.201641
1.201641
1.201641
1.201641
1.201641
0.8055669
0.81532353
0.82601636
0.83774173
0.850603
0.86470808
0.88016476
0.89707305
0.91551294
0.93552703
0.95709758
0.98011697
1.0043562
1.0294357
1.0548103
1.0797881
1.1035809
1.1254007
1.1445764
1.160663
1.1735042
1.1832299
1.1902011
1.1949179
1.1979219
1.1997185
1.2007163
1.2012313
1.2014747
1.20158
1.2016209
1.2016351
1.2016395
1.2016407
1.2016409
1.201641
1.201641
1.201641
1.201641
1.201641
1.201641
1.201641
1.201641
1.201641
1.201641
1.201641
1.201641
1.201641
1.201641
1.201641
0.8027614
0.81247157
0.82315661
0.83491542
0.84785431
0.86208475
0.87771906
0.89486282
0.91360255
0.93398745
0.95600366
0.97954166
1.0043597
1.0300508
1.0560268
1.0815356
1.1057252
1.1277545
1.1469284
1.1628172
1.1753175
1.1846351
1.1912048
1.1955785
1.1983215
1.1999366
1.2008254
1.2012798
1.2014941
1.2015863
1.2016226
1.2016355
1.2016395
1.2016407
1.2016409
1.201641
1.201641
1.201641
1.201641
1.201641
1.201641
1.201641
1.201641
1.201641
1.201641
1.201641
1.201641
1.201641
1.201641
1.201641
0.80208375
0.8116794
0.82225315
0.83390496
0.84674214
0.86087734
0.87642425
0.89349052
0.91216579
0.93250436
0.95449994
0.97805312
1.0029338
1.0287472
1.0549107
1.0806688
1.1051516
1.1274856
1.1469338
1.1630306
1.1756509
1.1850017
1.1915394
1.1958445
1.1985087
1.2000541
1.2008913
1.2013127
1.2015087
1.2015923
1.2016247
1.2016361
1.2016397
1.2016407
1.2016409
1.201641
1.201641
1.201641
1.201641
1.201641
1.201641
1.201641
1.201641
1.201641
1.201641
1.201641
1.201641
1.201641
1.201641
1.201641
0.80157257
0.81114839
0.821697
0.83331795
0.84611816
0.86020967
0.87570572
0.89271342
0.91132245
0.93158718
0.95350244
0.97697199
1.0017723
1.0275169
1.0536387
1.0793967
1.1039333
1.1263791
1.1459921
1.1622846
1.1751061
1.1846395
1.1913206
1.1957259
1.1984526
1.2000319
1.2008845
1.2013116
1.201509
1.2015926
1.2016249
1.2016362
1.2016397
1.2016407
1.2016409
1.201641
1.201641
1.201641
1.201641
1.201641
1.201641
1.201641
1.201641
1.201641
1.201641
1.201641
1.201641
1.201641
1.201641
1.201641
0.79571997
0.80481086
0.81481237
0.82581702
0.83792504
0.85124321
0.8658824
0.88195272
0.89955555
0.91877031
0.93963541
0.96212173
0.98609897
1.0112966
1.0372731
1.0633978
1.0888741
1.1128128
1.1343572
1.1528266
1.1678432
1.1793843
1.1877449
1.1934427
1.1970878
1.1992704
1.2004892
1.2011213
1.2014242
1.2015576
1.2016111
1.2016306
1.201637
1.2016389
1.2016394
1.2016395
1.2016395
1.2016395
1.2016395
1.2016395
1.2016395
1.2016395
1.2016395
1.2016395
1.2016395
1.2016395
1.2016395
1.2016395
1.2016395
1.2016395
0.79620997
0.80531983
0.81534623
0.8263824
0.83852943
0.85189529
0.8665921
0.88273152
0.90041619
0.91972696
0.94070279
0.96331296
0.98742152
1.012749
1.038835
1.065027
1.0905052
1.1143633
1.1357393
1.1539711
1.1687132
1.179982
1.188112
1.1936388
1.1971733
1.1992958
1.200489
1.2011143
1.201418
1.2015538
1.2016094
1.20163
1.2016368
1.2016388
1.2016394
1.2016395
1.2016395
1.2016395
1.2016395
1.2016395
1.2016395
1.2016395
1.2016395
1.2016395
1.2016395
1.2016395
1.2016395
1.2016395
1.2016395
1.2016395
0.79678303
0.80599211
0.81611477
0.82724345
0.83947861
0.85292757
0.86770176
0.88391158
0.9016575
0.92101604
0.94201892
0.9646245
0.98868248
1.0138961
1.0397919
1.0657123
1.0908501
1.1143331
1.1353524
1.1533012
1.1678761
1.1791075
1.1873106
1.1929828
1.1966902
1.1989749
1.2002968
1.2010108
1.2013679
1.2015316
1.2016007
1.201627
1.2016359
1.2016386
1.2016393
1.2016395
1.2016395
1.2016395
1.2016395
1.2016395
1.2016395
1.2016395
1.2016395
1.2016395
1.2016395
1.2016395
1.2016395
1.2016395
1.2016395
1.2016395
0.79913436
0.80836928
0.81847425
0.82953836
0.84165819
0.85493626
0.86947804
0.88538644
0.90275327
0.92164609
0.94208903
0.9640373
0.98734842
1.0117545
1.0368359
1.0620133
1.0865753
1.1097388
1.130753
1.1490115
1.1641486
1.1760898
1.1850391
1.1913989
1.1956727
1.1983769
1.1999776
1.2008593
1.2013031
1.2015086
1.2015936
1.2016252
1.2016355
1.2016385
1.2016393
1.2016395
1.2016395
1.2016395
1.2016395
1.2016395
1.2016395
1.2016395
1.2016395
1.2016395
1.2016395
1.2016395
1.2016395
1.2016395
1.2016395
1.2016395
0.80873065
0.81696995
0.82609887
0.83620529
0.84738244
0.85972813
0.87334298
0.88831941
0.90474567
0.92269261
0.94221461
0.96325594
0.98565835
1.0092522
1.03369
1.0584393
1.0828594
1.1061348
1.1275257
1.1463638
1.1621595
1.174673
1.1841005
1.1908288
1.1953653
1.1982513
1.1999429
1.2008499
1.2013029
1.2015092
1.2015941
1.2016253
1.2016356
1.2016386
1.2016393
1.2016395
1.2016395
1.2016395
1.2016395
1.2016395
1.2016395
1.2016395
1.2016395
1.2016395
1.2016395
1.2016395
1.2016395
1.2016395
1.2016395
1.2016395
0.80870775
0.81694626
0.82607402
0.83617855
0.8473532
0.85969505
0.87330299
0.88827475
0.90470274
0.92263259
0.94210234
0.96307952
0.98547503
1.0091299
1.0335835
1.0583683
1.082744
1.1059931
1.1273111
1.1460382
1.1617669
1.1744041
1.183995
1.1908486
1.1954349
1.1982826
1.1999418
1.2008508
1.2013038
1.2015096
1.2015942
1.2016254
1.2016356
1.2016386
1.2016393
1.2016395
1.2016395
1.2016395
1.2016395
1.2016395
1.2016395
1.2016395
1.2016395
1.2016395
1.2016395
1.2016395
1.2016395
1.2016395
1.2016395
1.2016395
0.79908831
0.80831963
0.81842013
0.8294787
0.84159162
0.85486114
0.86939239
0.88528799
0.90263925
0.92151291
0.9419333
0.96385755
0.9871467
1.0115336
1.0365966
1.0617592
1.0863089
1.1094667
1.1304842
1.1487611
1.1639394
1.1759435
1.1849564
1.1913625
1.1956603
1.198374
1.1999815
1.20086
1.2013043
1.2015084
1.2015936
1.2016251
1.2016355
1.2016385
1.2016393
1.2016395
1.2016395
1.2016395
1.2016395
1.2016395
1.2016395
1.2016395
1.2016395
1.2016395
1.2016395
1.2016395
1.2016395
1.2016395
1.2016395
1.2016395
0.79674493
0.80595099
0.81607025
0.82719506
0.83942576
0.85286951
0.86763758
0.88384017
0.90157758
0.9209262
0.94191774
0.96451077
0.98855549
1.013756
1.0396398
1.0655513
1.0906849
1.1141699
1.1351989
1.1531652
1.167765
1.1790257
1.1872571
1.192952
1.1966744
1.1989675
1.2002936
1.2010092
1.2013673
1.2015318
1.2016008
1.201627
1.2016359
1.2016386
1.2016393
1.2016395
1.2016395
1.2016395
1.2016395
1.2016395
1.2016395
1.2016395
1.2016395
1.2016395
1.2016395
1.2016395
1.2016395
1.2016395
1.2016395
1.2016395
0.79617396
0.80528324
0.81530893
0.82634427
0.83849036
0.85185518
0.86655084
0.88268902
0.90037239
0.91968181
0.94065626
0.96326507
0.98737235
1.0126987
1.0387839
1.0649757
1.0904544
1.1143143
1.1356935
1.1539303
1.168679
1.1799555
1.1880933
1.1936269
1.1971666
1.1992925
1.2004875
1.2011137
1.2014178
1.2015538
1.2016094
1.2016299
1.2016368
1.2016388
1.2016394
1.2016395
1.2016395
1.2016395
1.2016395
1.2016395
1.2016395
1.2016395
1.2016395
1.2016395
1.2016395
1.2016395
1.2016395
1.2016395
1.2016395
1.2016395
0.79568955
0.80478009
0.81478127
0.82578561
0.83789338
0.85121137
0.86585049
0.88192089
0.89952402
0.91873933
0.93960532
0.96209293
0.98607192
1.0112718
1.037251
1.0633786
1.0888581
1.1127998
1.1343471
1.1528188
1.1678375
1.1793801
1.187742
1.1934408
1.1970867
1.1992698
1.2004889
1.2011212
1.2014242
1.2015576
1.2016111
1.2016306
1.201637
1.2016389
1.2016394
1.2016395
1.2016395
1.2016395
1.2016395
1.2016395
1.2016395
1.2016395
1.2016395
1.2016395
1.2016395
1.2016395
1.2016395
1.2016395
1.2016395
1.2016395
0.79142068
0.80015962
0.80976463
0.82032281
0.83192896
0.84468484
0.85869759
0.87407622
0.89092567
0.90933647
0.9293695
0.95103385
0.97425708
0.99884786
1.0244611
1.050567
1.076452
1.101262
1.1241041
1.1441838
1.1609535
1.1742067
1.1840857
1.1910158
1.1955811
1.1983971
1.2000183
1.2008858
1.2013153
1.2015109
1.2015924
1.2016232
1.2016337
1.2016369
1.2016378
1.201638
1.201638
1.201638
1.201638
1.201638
1.201638
1.201638
1.201638
1.201638
1.201638
1.201638
1.201638
1.201638
1.201638
1.201638
0.79188041
0.80063711
0.81026589
0.82085475
0.83249955
0.84530357
0.85937564
0.87482694
0.89176453
0.9102815
0.93044072
0.95225144
0.97563746
1.0003999
1.0261751
1.0524091
1.0783583
1.1031413
1.125847
1.1456894
1.1621503
1.175069
1.184642
1.1913286
1.1957254
1.1984432
1.2000188
1.2008724
1.2013024
1.2015026
1.2015881
1.2016214
1.201633
1.2016367
1.2016377
1.201638
1.201638
1.201638
1.201638
1.201638
1.201638
1.201638
1.201638
1.201638
1.201638
1.201638
1.201638
1.201638
1.201638
1.201638
0.79237109
0.80121401
0.81092563
0.82159321
0.83331204
0.84618488
0.86032018
0.87582827
0.89281468
0.91136907
0.93154811
0.95335105
0.97668759
1.0013404
1.0269288
1.0528877
1.0784784
1.1028485
1.1251416
1.1446374
1.1608772
1.1737313
1.1833867
1.1902648
1.1949079
1.1978729
1.1996574
1.200665
1.2011949
1.2014524
1.201567
1.2016136
1.2016306
1.201636
1.2016375
1.2016379
1.201638
1.201638
1.201638
1.201638
1.201638
1.201638
1.201638
1.201638
1.201638
1.201638
1.201638
1.201638
1.201638
1.201638
0.79443415
0.80329015
0.81296821
0.82355169
0.8351314
0.84780459
0.86167268
0.87683733
0.89339381
0.9114206
0.93096435
0.95201846
0.97449621
0.99820405
1.022813
1.0478395
1.0726506
1.0965137
1.1186692
1.138434
1.1553071
1.1690468
1.1796972
1.1875539
1.1930658
1.1967403
1.1990157
1.2003413
1.2010469
1.2013938
1.2015476
1.2016081
1.2016292
1.2016357
1.2016375
1.2016379
1.201638
1.201638
1.201638
1.201638
1.201638
1.201638
1.201638
1.201638
1.201638
1.201638
1.201638
1.201638
1.201638
1.201638
0.80368065
0.81153202
0.82022251
0.82983358
0.84045201
0.85216921
0.86507769
0.87926609
0.89482474
0.91182479
0.93032296
0.95035422
0.97180882
0.99454235
1.018311
1.0428117
1.0673182
1.0912072
1.1137579
1.1342507
1.1520642
1.1667691
1.1781864
1.1866377
1.1925615
1.196468
1.1989168
1.200302
1.2010361
1.2013916
1.2015471
1.201608
1.2016292
1.2016358
1.2016375
1.2016379
1.201638
1.201638
1.201638
1.201638
1.201638
1.201638
1.201638
1.201638
1.201638
1.201638
1.201638
1.201638
1.201638
1.201638
0.80366198
0.81151262
0.8202018
0.82981047
0.8404251
0.8521365
0.86503857
0.87922651
0.8947955
0.91181603
0.93031085
0.9503042
0.97174419
0.99454799
1.0183273
1.0427442
1.0672533
1.0911774
1.1136694
1.1339893
1.1515797
1.1661583
1.1777534
1.1864318
1.1925243
1.1965117
1.1989214
1.2003131
1.2010442
1.2013953
1.2015481
1.2016082
1.2016293
1.2016358
1.2016375
1.2016379
1.201638
1.201638
1.201638
1.201638
1.201638
1.201638
1.201638
1.201638
1.201638
1.201638
1.201638
1.201638
1.201638
1.201638
0.79439675
0.80324978
0.81292418
0.82350315
0.83507734
0.84774383
0.86160398
0.87675942
0.89330529
0.91131955
0.93084797
0.95188465
0.97434516
0.99803568
1.0226239
1.0476288
1.0724229
1.0962719
1.1184143
1.1381727
1.1550613
1.1688531
1.1795875
1.1875222
1.1930749
1.1967435
1.1990288
1.200345
1.201051
1.2013948
1.2015477
1.2016081
1.2016292
1.2016357
1.2016375
1.2016379
1.201638
1.201638
1.201638
1.201638
1.201638
1.201638
1.201638
1.201638
1.201638
1.201638
1.201638
1.201638
1.201638
1.201638
0.79233689
0.80117719
0.81088585
0.82155001
0.83326487
0.84613307
0.86026288
0.87576447
0.89274319
0.91128848
0.93145685
0.95324752
0.97657034
1.0012083
1.0267817
1.0527267
1.0783064
1.1026699
1.1249629
1.1444667
1.1607245
1.1736067
1.1832964
1.1902075
1.1948758
1.1978566
1.1996502
1.2006621
1.2011941
1.2014524
1.201567
1.2016136
1.2016306
1.201636
1.2016375
1.2016379
1.201638
1.201638
1.201638
1.201638
1.201638
1.201638
1.201638
1.201638
1.201638
1.201638
1.201638
1.201638
1.201638
1.201638
0.79184566
0.80060158
0.81022943
0.82081721
0.8324608
0.84526347
0.85933409
0.87478382
0.89171977
0.91023503
0.93039252
0.95220148
0.97558576
1.0003466