/*--------------------------------*- C++ -*----------------------------------*\
| =========                 |                                                 |
| \\      /  F ield         | OpenFOAM: The Open Source CFD Toolbox           |
|  \\    /   O peration     | Version:  4.0                                   |
|   \\  /    A nd           | Web:      www.OpenFOAM.org                      |
|    \\/     M anipulation  |                                                 |
\*---------------------------------------------------------------------------*/
FoamFile
{
    version     2.0;
    format      ascii;
    class       surfaceScalarField;
    location    "2000";
    object      snGradRho;
}
// * * * * * * * * * * * * * * * * * * * * * * * * * * * * * * * * * * * * * //

dimensions      [1 -4 0 0 0 0 0];

internalField   nonuniform List<scalar> 
287000
(
162.94846
0.24351643
-3.1042961
163.44173
0.24596571
-3.3758256
162.26075
0.24585335
-3.6731378
159.15508
0.24206078
-3.9870039
153.92924
0.23381278
-4.3038264
146.47801
0.22058295
-4.6053874
136.83224
0.2028649
-4.8691948
125.18578
0.18170673
-5.0697271
111.91533
0.15943188
-5.1807293
97.555918
0.13856504
-5.1785895
82.759633
0.12251021
-5.0463797
68.215248
0.11374274
-4.7778988
54.55935
0.11275347
-4.3806391
42.293443
0.11748274
-3.8766375
31.747205
0.12519591
-3.300565
23.050652
0.13072959
-2.6949434
16.167559
0.13080029
-2.1035932
10.935552
0.1237085
-1.5645399
7.1172656
0.10976373
-1.1062266
4.4435187
0.090760301
-0.74435875
2.6517924
0.069870002
-0.47589664
1.5063409
0.049877839
-0.28856729
0.80995169
0.032773469
-0.16559796
0.41000887
0.019854441
-0.089661902
0.19429707
0.0110429
-0.045629629
0.08552738
0.0055912851
-0.021740666
0.034722952
0.0025247795
-0.0096629565
0.012900384
0.0010334538
-0.004002913
0.0043516292
0.0003755268
-0.0015611929
0.001320169
0.00012186196
-0.00059812084
0.00035777423
3.466763e-05
-0.00025342207
8.5105849e-05
8.5694574e-06
-0.00014247437
1.7834017e-05
1.8127324e-06
-0.00011059613
3.1192917e-06
2.7137367e-07
-0.00010246094
2.9510287e-07
5.5534535e-09
-0.0001006097
-1.2662518e-08
-1.4975838e-08
-0.00010021671
-4.038829e-08
9.1355089e-09
-0.00010011716
-7.2159181e-08
6.2488111e-08
-0.00010006919
-1.5309913e-08
1.646738e-08
-0.00010003685
6.6559919e-09
7.7130389e-08
-0.00010001104
4.1231953e-08
8.7687119e-08
-9.9992184e-05
2.0644002e-08
1.0964763e-07
-9.9976109e-05
4.3018471e-08
9.4784574e-08
-9.9965609e-05
3.4162793e-08
1.1500992e-07
-9.9956666e-05
3.7163095e-08
1.1088659e-07
-9.9950441e-05
3.2650236e-08
1.1966587e-07
-9.9945242e-05
2.5052483e-08
1.1565531e-07
-9.9940911e-05
2.5543254e-08
1.1527862e-07
-9.9937212e-05
2.2382348e-08
1.1810886e-07
-9.9934677e-05
1.0606822e-07
-9.9926609e-05
163.05061
0.75460732
-3.0898416
163.51758
0.85394585
-3.3608418
162.30216
0.93904657
-3.6574262
159.15807
1.0085033
-3.97035
153.89214
1.0617061
-4.286021
146.40728
1.0991825
-4.58625
136.73739
1.1223801
-4.8486278
125.08416
1.1336986
-5.0477633
111.82373
1.1354173
-5.1575988
97.495294
1.1289546
-5.1547347
82.743603
1.1133184
-5.0224446
68.244952
1.0851827
-4.7546135
54.621677
1.039803
-4.3586438
42.372725
0.97294295
-3.856325
31.815838
0.88244022
-3.2819735
23.091918
0.77101845
-2.6779232
16.173044
0.64501131
-2.0879319
10.906551
0.51375245
-1.5501416
7.061787
0.38765486
-1.0941367
4.3756223
0.27578872
-0.73477421
2.5836284
0.18411041
-0.46862263
1.4465792
0.11485432
-0.28322799
0.76441682
0.066013723
-0.1617562
0.37887428
0.035271242
-0.08702263
0.17504216
0.017250863
-0.043938669
0.074705005
0.0077639176
-0.020735787
0.029488344
0.0032335707
-0.0091050422
0.010601935
0.0012168916
-0.003725902
0.0034705934
0.00041664401
-0.0014362434
0.0010193121
0.00012670645
-0.00054801809
0.00026788444
3.4480102e-05
-0.00023560489
6.2184074e-05
8.1518309e-06
-0.00013686234
1.2544605e-05
1.6265834e-06
-0.00010902759
2.1241306e-06
2.654168e-07
-0.00010206019
2.5696067e-07
4.5611334e-08
-0.00010050277
-2.0458314e-08
3.6082085e-08
-0.00010017298
-2.0068087e-08
5.9881468e-08
-0.00010008517
6.1548821e-09
8.1059314e-08
-0.00010004289
2.7553895e-08
9.7459701e-08
-0.00010001524
4.5731208e-08
1.1014125e-07
-9.9991627e-05
5.9307622e-08
1.1913931e-07
-9.9973396e-05
6.8802867e-08
1.2492147e-07
-9.9958372e-05
7.2447593e-08
1.2789965e-07
-9.9948028e-05
7.4299303e-08
1.2906908e-07
-9.9939176e-05
7.2502741e-08
1.2831961e-07
-9.9932862e-05
6.9433703e-08
1.2614642e-07
-9.9927519e-05
6.2094516e-08
1.2236303e-07
-9.9923215e-05
5.399493e-08
1.1750634e-07
-9.9918869e-05
4.3703766e-08
1.1111316e-07
-9.9915882e-05
1.0271233e-07
-9.9900141e-05
164.34024
4.1071516
-3.0771687
164.63179
4.1333521
-3.3456374
163.24613
4.1181516
-3.639578
159.94296
4.0657069
-3.9497264
154.53658
3.9815559
-4.2624949
146.93415
3.8717864
-4.5597399
137.17324
3.7416259
-4.8191372
125.45108
3.5936882
-5.0154174
112.13515
3.4265218
-5.1226341
97.747244
3.234464
-5.1174401
82.917486
3.0090645
-4.9830484
68.314515
2.742705
-4.7131975
54.564524
2.4327759
-4.3151634
42.178189
2.0863986
-3.8107737
31.498677
1.72151
-3.2346812
22.683848
1.3609907
-2.6297311
15.718948
1.0269863
-2.0401034
10.455047
0.736587
-1.5081363
6.6543365
0.50001478
-1.061818
4.0393237
0.31796104
-0.71036714
2.3293704
0.18958372
-0.45082172
1.267309
0.10595523
-0.2708464
0.65231442
0.056610564
-0.153508
0.31353216
0.027991824
-0.081906481
0.14091938
0.012983847
-0.040945228
0.058561134
0.0055038323
-0.01911421
0.022353377
0.0021365996
-0.0083018411
0.0077936283
0.00075230556
-0.0033560386
0.0024599146
0.00023757312
-0.0012833161
0.00070016201
6.7121804e-05
-0.00049044338
0.00017732536
1.6623723e-05
-0.00021614352
3.9859708e-05
3.639958e-06
-0.00013095218
7.9107346e-06
7.1721902e-07
-0.0001074019
1.3834678e-06
1.5050993e-07
-0.00010163268
2.3578768e-07
6.6965416e-08
-0.00010036898
7.8745189e-08
6.7356476e-08
-0.00010010446
7.6407736e-08
7.7854311e-08
-0.00010003553
9.1374411e-08
8.6943671e-08
-0.00010000333
1.0408908e-07
9.3324872e-08
-9.9980458e-05
1.1270403e-07
9.721843e-08
-9.9962435e-05
1.1738421e-07
9.8925753e-08
-9.994821e-05
1.1855829e-07
9.8748501e-08
-9.9937188e-05
1.1663847e-07
9.6954992e-08
-9.9928786e-05
1.1201419e-07
9.3756274e-08
-9.9922433e-05
1.0494057e-07
8.932537e-08
-9.9917623e-05
9.5516571e-08
8.3793065e-08
-9.9913851e-05
8.3239924e-08
7.7253378e-08
-9.9910644e-05
6.8250719e-08
6.9888582e-08
-9.9907248e-05
4.8952909e-08
6.1652756e-08
-9.990363e-05
5.2838322e-08
-9.989011e-05
165.9031
13.9949
-3.0555399
165.7737
12.574706
-3.3250562
164.04365
11.238602
-3.6192807
160.4726
9.9964174
-3.9289227
154.86765
8.8610611
-4.2404193
147.11892
7.8312465
-4.5356944
137.23694
6.900931
-4.792502
125.38611
6.0588506
-4.9856053
111.905
5.2897645
-5.0889567
97.299457
4.576476
-5.0789556
82.207504
3.8905183
-4.938514
67.32891
3.2159044
-4.6613502
53.344207
2.582236
-4.2553351
40.81933
2.0008724
-3.7437466
30.117756
1.4939413
-3.1630824
21.388579
1.0726675
-2.5572676
14.589137
0.74229556
-1.9755428
9.5368725
0.48729948
-1.4557464
5.9502979
0.30412117
-1.0215279
3.547058
0.1841462
-0.68120903
2.012106
0.10669398
-0.43109676
1.0830336
0.058337074
-0.25839321
0.54644106
0.029112954
-0.14637234
0.25868027
0.013590581
-0.077996762
0.11382192
0.0058406542
-0.038942456
0.046478542
0.0023350027
-0.018128629
0.017429808
0.00085217707
-0.0078519111
0.0059777623
0.00028580857
-0.0031642169
0.0018634417
8.71417e-05
-0.0012030692
0.00052470719
2.4038882e-05
-0.0004594197
0.00013254731
5.9553237e-06
-0.00020535449
2.9856799e-05
1.3251864e-06
-0.00012764119
5.9939822e-06
2.7854223e-07
-0.00010648608
1.1174812e-06
7.5392967e-08
-0.0001013798
2.581936e-07
4.5667527e-08
-0.00010027885
1.3859777e-07
4.5800648e-08
-0.00010005379
1.3413164e-07
4.9267685e-08
-9.999794e-05
1.4186667e-07
5.2105518e-08
-9.9973147e-05
1.4742393e-07
5.3582394e-08
-9.9955944e-05
1.492898e-07
5.4200575e-08
-9.9942606e-05
1.4769733e-07
5.3659124e-08
-9.9932222e-05
1.4302714e-07
5.2072594e-08
-9.9924279e-05
1.3555281e-07
4.9992061e-08
-9.9918349e-05
1.2558124e-07
4.7200727e-08
-9.9913979e-05
1.1326191e-07
4.3802055e-08
-9.9910845e-05
9.8597459e-08
3.98913e-08
-9.990861e-05
8.1421408e-08
3.5509376e-08
-9.9906933e-05
6.1121035e-08
3.074279e-08
-9.9905336e-05
3.7274314e-08
2.608623e-08
-9.9903351e-05
2.1468093e-08
-9.9898459e-05
155.21986
0.011398819
-3.1487224
156.40905
0.013448436
-3.4078574
155.93201
0.017853044
-3.6904469
153.58399
0.016958567
-3.9874424
149.05927
0.0021836676
-4.2860871
142.23154
-0.03009607
-4.5684773
133.09519
-0.077864352
-4.8127859
121.80998
-0.13764088
-4.9934797
108.72374
-0.20362679
-5.0846227
94.288841
-0.2667847
-5.0623059
79.242134
-0.30182638
-4.9080956
64.565485
-0.28346571
-4.614923
50.826407
-0.21266087
-4.1929262
38.650633
-0.12679768
-3.6685091
28.342157
-0.058197447
-3.0838929
20.021821
-0.018274846
-2.4855239
13.547165
-0.0097809654
-1.9164582
8.7999474
-0.0013888929
-1.4110099
5.4783859
0.0021213293
-0.99052605
3.2476613
0.00088099492
-0.66202101
1.8277359
-0.00052349322
-0.42010523
0.97251628
-0.00095772486
-0.25242958
0.48851894
-0.00050842557
-0.14307342
0.23008514
-0.00021499452
-0.076207728
0.10104568
-6.83029e-05
-0.037976617
0.041129986
-1.9794926e-05
-0.017628106
0.015408505
-4.6356993e-06
-0.0075895314
0.0052754838
-1.1583943e-06
-0.0030372921
0.0016423679
-2.8188307e-07
-0.0011504441
0.00046187686
-6.5321294e-08
-0.00044027126
0.0001165875
-1.2907524e-08
-0.00019919222
2.6281509e-05
-2.4477135e-09
-0.00012587577
5.3135881e-06
-5.0780903e-10
-0.0001060252
1.0296756e-06
-2.6423441e-10
-0.00010125892
2.7297669e-07
-4.5188872e-10
-0.00010023755
1.6573455e-07
-4.4685799e-10
-0.00010003108
1.5996324e-07
-3.251025e-10
-9.9981467e-05
1.6355921e-07
-4.4341739e-10
-9.9960063e-05
1.6643264e-07
-2.0091839e-10
-9.9945098e-05
1.6429103e-07
-4.4698221e-10
-9.9934479e-05
1.5877799e-07
-3.0078428e-10
-9.9925884e-05
1.5186409e-07
2.3409198e-10
-9.9918675e-05
1.4122833e-07
2.2963426e-10
-9.9914252e-05
1.2825548e-07
2.970231e-10
-9.9909846e-05
1.1309285e-07
3.5700891e-10
-9.9906808e-05
9.5576336e-08
3.4167854e-10
-9.9904606e-05
7.5710983e-08
3.1034226e-10
-9.990379e-05
5.4345276e-08
2.8308349e-10
-9.9903006e-05
2.9210942e-08
-3.0468377e-10
-9.990614e-05
-6.4049443e-10
-9.9908597e-05
155.24517
-14.002505
-3.1500665
156.4571
-12.585576
-3.4094616
155.92923
-11.256453
-3.6927047
153.45895
-10.018203
-3.9902949
148.79099
-8.8762389
-4.2887837
141.84537
-7.8265273
-4.5696801
132.62355
-6.8652483
-4.8104009
121.29745
-5.9837599
-4.9847238
108.23181
-5.1704471
-5.0669643
93.978433
-4.4135037
-5.0344203
79.261537
-3.7051523
-4.8718749
64.898003
-3.0509432
-4.5778528
51.251054
-2.478267
-4.1640175
38.989155
-1.9643536
-3.6516768
28.53651
-1.5046636
-3.0769181
20.059872
-1.1037616
-2.483815
13.58604
-0.7666048
-1.916737
8.816556
-0.50850593
-1.411858
5.4731871
-0.32043868
-0.99105866
3.241463
-0.19139528
-0.66189499
1.8256168
-0.10801116
-0.41981894
0.97419637
-0.057353404
-0.25215659
0.489627
-0.028292735
-0.14297852
0.23063961
-0.013203572
-0.0762212
0.10122638
-0.0056929073
-0.03802031
0.04118594
-0.0022849301
-0.017634865
0.015421102
-0.00083848941
-0.0075900485
0.0052786143
-0.00028190586
-0.003037595
0.0016431319
-8.6269991e-05
-0.0011504949
0.00046206033
-2.3866455e-05
-0.00044026394
0.00011662373
-5.9294169e-06
-0.00019918607
2.6288138e-05
-1.3238738e-06
-0.00012587572
5.3143495e-06
-2.8023033e-07
-0.00010602617
1.0288898e-06
-7.6807934e-08
-0.00010125978
2.7285401e-07
-4.6423634e-08
-0.0001002381
1.660445e-07
-4.6243704e-08
-0.00010003146
1.5942721e-07
-4.9622472e-08
-9.9981211e-05
1.6430556e-07
-5.2198174e-08
-9.9959813e-05
1.6547639e-07
-5.3801658e-08
-9.9945656e-05
1.6467944e-07
-5.4078055e-08
-9.993396e-05
1.6060813e-07
-5.3576218e-08
-9.9925465e-05
1.5192136e-07
-5.2417907e-08
-9.9919877e-05
1.4154076e-07
-5.0253748e-08
-9.9914959e-05
1.2856185e-07
-4.7469192e-08
-9.9912703e-05
1.1315017e-07
-4.4098935e-08
-9.9911066e-05
9.5572378e-08
-4.0169814e-08
-9.9909984e-05
7.5711889e-08
-3.5773899e-08
-9.9908418e-05
5.2364507e-08
-3.1007387e-08
-9.9907332e-05
2.793581e-08
-2.5782665e-08
-9.9902561e-05
-2.0822701e-08
-9.9898803e-05
165.8914
-4.1109631
-3.056478
165.74886
-4.136866
-3.3259773
163.99845
-4.1203629
-3.6201166
160.39904
-4.0647341
-3.929531
154.76041
-3.974409
-4.2405458
146.97843
-3.8544932
-4.534953
137.07134
-3.709814
-4.790381
125.21173
-3.5435793
-4.9815162
111.74639
-3.3562177
-5.0823897
97.185066
-3.1454602
-5.0697157
82.158393
-2.9073335
-4.9269795
67.350208
-2.6380495
-4.6485602
53.415532
-2.3364377
-4.2427943
40.908837
-2.0067212
-3.7327326
30.200288
-1.6613912
-3.1542333
21.451863
-1.3186376
-2.5508791
14.635911
-0.99815459
-1.9719495
9.5705836
-0.717537
-1.4533878
5.9828559
-0.48785057
-1.0197675
3.5659344
-0.31242028
-0.68016576
2.0199355
-0.18785095
-0.43054814
1.0843012
-0.10580549
-0.25810978
0.545935
-0.056747487
-0.14618359
0.25834174
-0.028039557
-0.077855592
0.11364196
-0.012994765
-0.038856492
0.046400997
-0.0055042908
-0.018104564
0.01740716
-0.0021523026
-0.0078457794
0.0059700352
-0.00075400614
-0.0031628654
0.0018617265
-0.00023939384
-0.001202818
0.00052437459
-6.7240912e-05
-0.0004593974
0.00013249696
-1.6758393e-05
-0.00020536232
2.98524e-05
-3.6669523e-06
-0.00012764653
5.9952474e-06
-7.2361881e-07
-0.00010648812
1.1187217e-06
-1.5256614e-07
-0.00010138057
2.5899874e-07
-6.7890528e-08
-0.00010027929
1.3909517e-07
-6.7906893e-08
-0.00010005418
1.3444685e-07
-7.8255024e-08
-9.9998338e-05
1.4212193e-07
-8.7274366e-08
-9.9973608e-05
1.4764e-07
-9.3627257e-08
-9.9956501e-05
1.4957341e-07
-9.7504846e-08
-9.9943251e-05
1.4801287e-07
-9.9225422e-08
-9.9933042e-05
1.4327601e-07
-9.9072996e-08
-9.9925349e-05
1.3575918e-07
-9.7284187e-08
-9.9919656e-05
1.2570251e-07
-9.4078905e-08
-9.9915525e-05
1.1329149e-07
-8.9617916e-08
-9.991247e-05
9.855586e-08
-8.4029933e-08
-9.9910096e-05
8.1339291e-08
-7.7415868e-08
-9.9908049e-05
6.1057795e-08
-6.9968139e-08
-9.9905957e-05
3.7295099e-08
-6.1662856e-08
-9.9903447e-05
-5.2821519e-08
-9.9898354e-05
164.33051
-0.77684258
-3.0781623
164.61882
-0.87346824
-3.3466177
163.23004
-0.95549712
-3.6405098
159.92416
-1.0214523
-3.9505682
154.51612
-1.0707012
-4.2632006
146.91359
-1.1038389
-4.5602664
137.1545
-1.1224839
-4.8194551
125.43606
-1.1293124
-5.0155237
112.12532
-1.1269673
-5.122564
97.743123
-1.1172584
-5.1172693
82.918336
-1.0995042
-4.982881
68.319078
-1.070492
-4.7131413
54.570682
-1.0254232
-4.3153125
42.184798
-0.95972597
-3.8111821
31.505428
-0.87093445
-3.2353696
22.690709
-0.7615426
-2.6306458
15.725863
-0.63770448
-2.0409883
10.461285
-0.50861515
-1.508858
6.6593945
-0.38446183
-1.0621217
4.042381
-0.2741788
-0.71059481
2.3306136
-0.18352962
-0.45101687
1.2673604
-0.11478759
-0.27099635
0.65215067
-0.066095383
-0.15360148
0.31333473
-0.03538163
-0.081960436
0.14077958
-0.017339751
-0.040974174
0.058420947
-0.0078229311
-0.019129625
0.02238238
-0.0032107532
-0.0083055806
0.0077848903
-0.001220134
-0.0033591599
0.0024643264
-0.00041377106
-0.0012842663
0.0006997316
-0.00012709771
-0.00049093929
0.00017764736
-3.4312323e-05
-0.00021627411
3.9925371e-05
-8.1296993e-06
-0.00013099302
7.9264085e-06
-1.622736e-06
-0.00010741198
1.3883036e-06
-2.6383686e-07
-0.0001016348
2.3769704e-07
-4.4843398e-08
-0.00010036953
7.9623381e-08
-3.5852724e-08
-0.00010010487
7.68546e-08
-5.9994513e-08
-0.00010003602
9.1629542e-08
-8.135094e-08
-0.00010000392
1.0426852e-07
-9.7837901e-08
-9.9981134e-05
1.1285015e-07
-1.1056166e-07
-9.9963198e-05
1.1751668e-07
-1.195785e-07
-9.994905e-05
1.1868879e-07
-1.2536528e-07
-9.993809e-05
1.1676528e-07
-1.2833895e-07
-9.9929723e-05
1.1214157e-07
-1.2949418e-07
-9.9923362e-05
1.0507614e-07
-1.2872248e-07
-9.991852e-05
9.5663989e-08
-1.2652276e-07
-9.9914709e-05
8.3399625e-08
-1.2271137e-07
-9.9911486e-05
6.8407121e-08
-1.1782981e-07
-9.9908112e-05
4.9065053e-08
-1.1141304e-07
-9.9904557e-05
-1.0298563e-07
-9.9891077e-05
163.06269
-0.24831122
-3.0904528
163.52907
-0.250753
-3.361489
162.31371
-0.25056086
-3.6581128
159.1701
-0.24662039
-3.9710848
153.90501
-0.2381587
-4.286818
146.42118
-0.22466172
-4.5871302
136.75221
-0.20664808
-4.8496194
125.09942
-0.18519797
-5.0489007
111.83855
-0.16266153
-5.1589178
97.508549
-0.14157063
-5.1562638
82.754209
-0.1253104
-5.0241931
68.252262
-0.11631899
-4.7565614
54.625682
-0.11505659
-4.3607362
42.374035
-0.11945951
-3.8584727
31.81538
-0.12682536
-3.2840566
23.090567
-0.13203706
-2.6797945
16.171404
-0.13184103
-2.0894207
10.904957
-0.12453854
-1.5510627
7.0603615
-0.11042194
-1.0949178
4.3744396
-0.091259236
-0.73532726
2.5827385
-0.070216439
-0.4689351
1.4459976
-0.050088022
-0.28339544
0.76410346
-0.032877909
-0.16183848
0.37873344
-0.019890318
-0.087058301
0.174999
-0.011039751
-0.043951178
0.074881835
-0.0055711416
-0.020738422
0.029419214
-0.0025434985
-0.0091167253
0.010616552
-0.0010322816
-0.0037280796
0.0034630579
-0.0003773801
-0.0014381081
0.0010209342
-0.00012150445
-0.00054847146
0.00026769829
-3.468284e-05
-0.00023581186
6.218696e-05
-8.587484e-06
-0.00013691495
1.2552916e-05
-1.8159303e-06
-0.00010904032
2.1264178e-06
-2.7100913e-07
-0.0001020632
2.5710709e-07
-5.1745093e-09
-0.00010050366
-2.0773201e-08
1.4990341e-08
-0.00010017352
-2.0312139e-08
-9.319395e-09
-0.00010008569
6.0027926e-09
-6.2767538e-08
-0.00010004346
2.7461745e-08
-1.6783826e-08
-0.00010001587
4.5677921e-08
-7.7479383e-08
-9.9992334e-05
5.9286087e-08
-8.8061696e-08
-9.9974164e-05
6.881067e-08
-1.1004333e-07
-9.9959188e-05
7.2487663e-08
-9.519795e-08
-9.9948882e-05
7.4372796e-08
-1.1543966e-07
-9.9940062e-05
7.2606363e-08
-1.1133121e-07
-9.9933781e-05
6.9562457e-08
-1.2012428e-07
-9.9928474e-05
6.2232972e-08
-1.1612504e-07
-9.9924212e-05
5.4133178e-08
-1.157548e-07
-9.9919903e-05
4.3815465e-08
-1.1858392e-07
-9.9916949e-05
-1.0653384e-07
-9.9901192e-05
162.95912
-3.1047522
163.45252
-3.3763081
162.27221
-3.6736474
159.16758
-3.987546
153.94298
-4.3044111
146.49296
-4.6060292
136.84806
-4.8699114
125.20181
-5.0705361
111.93066
-5.1816434
97.569563
-5.1796106
82.770751
-5.0474936
68.223377
-4.7790723
54.564501
-4.3818223
42.29605
-3.8777711
31.747952
-3.3015915
23.050266
-2.6958183
16.166646
-2.1042939
10.934533
-1.5650675
7.116387
-1.1066279
4.4428828
-0.74465463
2.6514076
-0.47613329
1.5061595
-0.28872856
0.80990173
-0.16569725
0.41002221
-0.089719166
0.19432569
-0.045660993
0.085551189
-0.021756213
0.034728318
-0.0096671906
0.012903311
-0.0040050355
0.0043522143
-0.0015617886
0.0013204529
-0.00059826266
0.00035757248
-0.00025347274
8.5159624e-05
-0.00014248256
1.7854787e-05
-0.00011060069
3.1217468e-06
-0.00010246358
2.9401242e-07
-0.00010061119
-1.3705843e-08
-0.00010021769
-4.1040575e-08
-0.00010011795
-7.2533812e-08
-0.00010006991
-1.5619139e-08
-0.00010003759
6.4009866e-09
-0.00010001181
4.1017355e-08
-9.999299e-05
2.0464589e-08
-9.9976954e-05
4.2870798e-08
-9.9966493e-05
3.4048887e-08
-9.9957587e-05
3.7078663e-08
-9.9951398e-05
3.2595566e-08
-9.9946234e-05
2.502116e-08
-9.9941933e-05
2.5536518e-08
-9.9938256e-05
2.2378511e-08
-9.9935736e-05
-9.9927661e-05
121.17116
0.45958986
-1.168214
121.8592
0.4633434
-1.2670003
122.35669
0.46662625
-1.3781689
122.53969
0.46825151
-1.5018599
122.24833
0.46706785
-1.6372946
121.28474
0.4618722
-1.7823208
119.4239
0.4518934
-1.9328408
116.42626
0.43652827
-2.0823129
112.06883
0.41598873
-2.2213571
106.17705
0.39094463
-2.3378548
98.674056
0.36350646
-2.4175965
89.620928
0.33636527
-2.4458932
79.246108
0.31198319
-2.4100628
67.943435
0.29140656
-2.3026006
56.259841
0.27535062
-2.1237129
44.808317
0.26011505
-1.8833826
34.196848
0.24262726
-1.6004145
24.869982
0.22007994
-1.2996186
17.118577
0.18546993
-1.0052416
11.188342
0.14680547
-0.73663521
6.9301236
0.10951739
-0.51051525
4.0593169
0.076958005
-0.33402367
2.243062
0.050874764
-0.20597005
1.1654221
0.031388984
-0.11941824
0.56685429
0.017887467
-0.064898382
0.25675062
0.0093532842
-0.032942063
0.10766543
0.0044540624
-0.015559705
0.041505221
0.0019171755
-0.0068216666
0.014607802
0.00074284573
-0.0027810844
0.0046571171
0.00025744146
-0.0010744072
0.0013341371
7.9003992e-05
-0.00042005634
0.00034012372
2.1399419e-05
-0.00019427692
7.6993959e-05
5.1043545e-06
-0.00012468903
1.5357146e-05
1.0427204e-06
-0.00010569524
2.6567141e-06
1.9419355e-07
-0.00010113547
5.3114975e-07
5.5681048e-08
-0.00010018045
1.9785676e-07
5.6443602e-08
-0.00010000518
7.3810584e-08
9.8057153e-08
-9.9973946e-05
9.0587227e-08
4.3201311e-08
-9.9966738e-05
7.7011522e-08
9.9076414e-08
-9.9960631e-05
9.5742833e-08
1.07083e-07
-9.9955404e-05
5.3009429e-08
1.2636653e-07
-9.9948796e-05
6.807838e-08
1.099101e-07
-9.9943553e-05
5.0021795e-08
1.2873801e-07
-9.9937972e-05
4.9200335e-08
1.2347054e-07
-9.9933528e-05
4.1767265e-08
1.3123502e-07
-9.9929203e-05
3.2130738e-08
1.2618474e-07
-9.9926159e-05
2.9953904e-08
1.2522521e-07
-9.9921873e-05
3.5139332e-08
1.2739495e-07
-9.9922102e-05
1.1798074e-07
-9.9916703e-05
121.35475
0.94404843
-1.1648157
122.03685
1.0745236
-1.2634631
122.51789
1.1898409
-1.3743019
122.67577
1.2886109
-1.4974052
122.35116
1.3699017
-1.6319319
121.35054
1.43343
-1.7756436
119.45031
1.4794568
-1.9244008
116.41671
1.5089717
-2.0716209
112.02917
1.5232332
-2.2079841
106.12167
1.5235259
-2.3214534
98.619509
1.5099887
-2.3980742
89.581125
1.4811457
-2.4235544
79.226005
1.4336406
-2.385734
67.946093
1.3629722
-2.2774354
56.264869
1.2643955
-2.0994956
44.799587
1.1373708
-1.8617575
34.160089
0.98652295
-1.5827734
24.770797
0.79490538
-1.2867364
16.993856
0.59003353
-0.9963828
11.062396
0.418508
-0.73111884
6.8177739
0.28113528
-0.50762812
3.9684645
0.17765187
-0.33302491
2.1748331
0.10487693
-0.2060021
1.1180184
0.057630599
-0.11983594
0.5368997
0.029367531
-0.065340996
0.23959171
0.013834667
-0.033258305
0.098810751
0.006011062
-0.015731925
0.037425366
0.0023968315
-0.0068925844
0.012929691
0.00086621034
-0.0028023104
0.0040437111
0.00028250532
-0.0010768792
0.0011368396
8.2907891e-05
-0.00041843168
0.00028485505
2.166335e-05
-0.00019279315
6.3212256e-05
5.0381366e-06
-0.00012404726
1.2419668e-05
1.0882543e-06
-0.00010544356
2.2387613e-06
2.8161345e-07
-0.00010103189
4.5921027e-07
1.4678199e-07
-0.00010012405
1.8988608e-07
1.33288e-07
-9.9964098e-05
1.310063e-07
1.3457514e-07
-9.9938462e-05
1.2443193e-07
1.4047368e-07
-9.9934699e-05
1.1373841e-07
1.4313525e-07
-9.9931415e-05
1.1025642e-07
1.4514127e-07
-9.9928246e-05
1.0068963e-07
1.4488873e-07
-9.9923807e-05
9.7250873e-08
1.4445308e-07
-9.9920298e-05
9.0382214e-08
1.4221112e-07
-9.991606e-05
8.4877168e-08
1.3922958e-07
-9.9912593e-05
7.849215e-08
1.3506816e-07
-9.9908785e-05
7.0410376e-08
1.2984309e-07
-9.9906171e-05
5.9192203e-08
1.2380826e-07
-9.990113e-05
6.8593499e-08
1.1716618e-07
-9.9902704e-05
1.0722702e-07
-9.9892365e-05
123.03387
4.4304707
-1.1750529
123.52084
4.4319357
-1.2753697
123.81471
4.4033584
-1.3878471
123.79609
4.3482601
-1.5125485
123.30909
4.2707512
-1.648634
122.16204
4.1749602
-1.7939082
120.13403
4.0641285
-1.9443068
116.99029
3.9395646
-2.0934028
112.50773
3.800061
-2.2320788
106.51066
3.6416247
-2.3485782
98.913113
3.4574698
-2.4291804
89.761928
3.2383984
-2.4596943
79.270286
2.9746889
-2.4277851
67.829074
2.6603129
-2.3258478
55.984135
2.2997778
-2.1537488
44.378137
1.9118506
-1.9204476
33.51123
1.4879701
-1.6437598
24.024784
1.0872464
-1.3436372
16.367743
0.75231006
-1.0441907
10.560125
0.4884618
-0.77016432
6.4397463
0.2970957
-0.53795087
3.7033807
0.16911591
-0.3550763
2.0036208
0.090231806
-0.22089446
1.0162593
0.045078665
-0.12911949
0.4813822
0.021090547
-0.070637789
0.21184589
0.0091935815
-0.036005276
0.086091246
0.0036924701
-0.017016468
0.032075644
0.0013642557
-0.0074278013
0.010903561
0.000473478
-0.002997114
0.0033555947
0.00015107282
-0.001142174
0.00092702695
4.3471215e-05
-0.00043761464
0.00022825606
1.1209381e-05
-0.00019754134
4.9865035e-05
2.6390711e-06
-0.00012477871
9.7373269e-06
6.3723502e-07
-0.00010545719
1.8253734e-06
2.2596851e-07
-0.00010098309
4.552872e-07
1.492207e-07
-0.00010008591
2.3631268e-07
1.3344905e-07
-9.9931894e-05
1.9463934e-07
1.2777872e-07
-9.9909885e-05
1.7804515e-07
1.2364429e-07
-9.9907168e-05
1.6576943e-07
1.1962968e-07
-9.9906302e-05
1.5475811e-07
1.1543094e-07
-9.9905081e-05
1.4445978e-07
1.109166e-07
-9.9903543e-05
1.3444167e-07
1.0593387e-07
-9.9901733e-05
1.2426649e-07
1.003914e-07
-9.9899843e-05
1.136752e-07
9.4177592e-08
-9.9897909e-05
1.0226612e-07
8.7214092e-08
-9.9895912e-05
8.9738684e-08
7.9461781e-08
-9.9893996e-05
7.4543369e-08
7.0925274e-08
-9.9891185e-05
7.0331814e-08
6.1790503e-08
-9.9890968e-05
4.9080855e-08
-9.9881171e-05
124.43555
12.601957
-1.2356317
124.62302
11.373464
-1.3395541
124.67663
10.23861
-1.4563864
124.47273
9.2016095
-1.5863753
123.84712
8.2628036
-1.7289108
122.59411
7.4179091
-1.8820572
120.47353
6.655331
-2.0419866
117.23034
5.9674924
-2.2024068
112.62242
5.3378357
-2.3541508
106.45737
4.7526281
-2.4851114
98.636608
4.1967931
-2.5807877
89.206363
3.6597785
-2.6256299
78.40258
3.1475251
-2.6053751
66.673776
2.6450875
-2.5101626
54.638206
2.1335144
-2.338001
42.792095
1.6180567
-2.0973104
31.974357
1.1641798
-1.8017202
22.738733
0.78673318
-1.4764064
15.356038
0.49825354
-1.1505649
9.8308615
0.29634731
-0.85061399
5.956405
0.1666039
-0.59525865
3.4087077
0.088583742
-0.39339832
1.8368655
0.044656545
-0.24487698
0.92869202
0.021409283
-0.14307797
0.43842126
0.0097501201
-0.078147866
0.19216949
0.0042088295
-0.039707495
0.077841366
0.0017594932
-0.018668138
0.028952676
0.00069072477
-0.008094985
0.0097828895
0.00024184593
-0.0032367938
0.002984253
7.5855123e-05
-0.0012085949
0.00081644055
2.1289538e-05
-0.00045113506
0.00019909234
5.3612072e-06
-0.00019900874
4.3127354e-05
1.2457142e-06
-0.00012462557
8.3955094e-06
3.0807074e-07
-0.0001053075
1.6106139e-06
1.1851972e-07
-0.00010092238
4.437135e-07
8.2497486e-08
-0.00010006014
2.572498e-07
7.3628635e-08
-9.9916e-05
2.1952736e-07
6.9806268e-08
-9.9897022e-05
2.0215371e-07
6.6996709e-08
-9.9895931e-05
1.8802637e-07
6.3386933e-08
-9.9896313e-05
1.746323e-07
6.0202153e-08
-9.9896232e-05
1.6130807e-07
5.7354908e-08
-9.9895739e-05
1.4779772e-07
5.351674e-08
-9.9895076e-05
1.335654e-07
5.0444407e-08
-9.9894454e-05
1.184375e-07
4.6691878e-08
-9.9893852e-05
1.0212746e-07
4.250471e-08
-9.9893202e-05
8.4476402e-08
3.7379551e-08
-9.9892313e-05
6.4573146e-08
3.2006094e-08
-9.98912e-05
4.5011224e-08
2.470837e-08
-9.9889787e-05
1.6905182e-08
-9.98869e-05
115.34958
-0.0086930088
-1.3336498
116.88567
-0.0098242595
-1.4403606
118.17282
-0.013872374
-1.561127
119.06943
-0.021782925
-1.6964248
119.39237
-0.033142581
-1.8457726
118.90038
-0.045260791
-2.0071895
117.40904
-0.048986864
-2.1761471
114.61762
-0.036056412
-2.3462709
110.32461
-0.0077655391
-2.5077861
104.34458
0.028240359
-2.6474294
96.620174
0.062870798
-2.7490972
87.304088
0.070949606
-2.7953422
76.513142
0.0491888
-2.7731649
64.681042
0.017327782
-2.6717355
52.561242
-0.001865038
-2.4850001
40.959568
-0.0052839742
-2.2210658
30.452495
-0.011771855
-1.9004557
21.584221
-0.0070650858
-1.5503007
14.557616
-0.0012138877
-1.2027098
9.3255367
0.0016179074
-0.8862151
5.6572051
0.0010369381
-0.61864637
3.2428681
0.00042682555
-0.40785488
1.7504479
-6.1259981e-05
-0.25291386
0.88597425
-0.00027387156
-0.14701873
0.41838825
-0.00024516164
-0.079765045
0.18344482
-4.5098856e-05
-0.040190944
0.074074421
-6.423946e-06
-0.018723447
0.027379974
-2.1247531e-06
-0.0080281904
0.0092053076
-4.3131706e-07
-0.0031761094
0.0027957065
-4.552907e-08
-0.0011799514
0.00076178761
2.4005894e-09
-0.00044032547
0.00018508108
-2.3348171e-09
-0.00019550637
3.9974481e-05
-2.5468733e-09
-0.00012364616
7.7815678e-06
-1.9313273e-09
-0.00010506819
1.5137129e-06
-1.4274774e-09
-0.00010086963
4.3676301e-07
-1.0530963e-09
-0.0001000483
2.6625456e-07
5.3851738e-11
-9.9910917e-05
2.3111316e-07
-1.0523228e-10
-9.9894251e-05
2.1000883e-07
-8.9126183e-10
-9.9894344e-05
1.9635048e-07
1.3873246e-10
-9.9894891e-05
1.8322458e-07
1.3196181e-10
-9.9894307e-05
1.6549976e-07
-8.9897349e-10
-9.9892766e-05
1.5357279e-07
-3.7856797e-10
-9.9891087e-05
1.3599536e-07
-1.9451272e-09
-9.9892042e-05
1.18192e-07
-2.6916134e-09
-9.9892853e-05
9.7294657e-08
-3.1691238e-09
-9.9895812e-05
7.7209588e-08
-2.4439387e-09
-9.9893592e-05
4.889396e-08
-2.0623611e-09
-9.9895484e-05
2.5326699e-08
1.4638629e-09
-9.9891898e-05
3.7674144e-09
-9.9886176e-05
115.33486
-12.603495
-1.3337515
116.84231
-11.374425
-1.4404016
118.09443
-10.236481
-1.5609193
118.96239
-9.1929156
-1.6957099
119.28103
-8.2443121
-1.8442822
118.85683
-7.3886779
-2.0047575
117.49047
-6.6228437
-2.1735656
114.80761
-5.9465455
-2.3447788
110.56631
-5.3415413
-2.5081173
104.57769
-4.7869233
-2.6496781
96.689933
-4.259986
-2.7536491
87.196835
-3.7269517
-2.8017379
76.34627
-3.1918128
-2.7785942
64.580653
-2.6583876
-2.6732642
52.542455
-2.1290995
-2.484574
40.924483
-1.6135769
-2.2205147
30.472332
-1.1608402
-1.900071
21.61042
-0.78647667
-1.5520269
14.57062
-0.50021247
-1.2061024
9.323365
-0.29823281
-0.88846584
5.6547822
-0.16649122
-0.61904383
3.240851
-0.087547097
-0.40713195
1.7495106
-0.043394138
-0.25219595
0.88601025
-0.020346435
-0.14652979
0.41914495
-0.0090775526
-0.079495414
0.18358926
-0.0040433575
-0.040091836
0.074089778
-0.0017228137
-0.018703911
0.027386058
-0.00068154399
-0.0080300112
0.0092066909
-0.0002400861
-0.0031811067
0.0027958787
-7.5642147e-05
-0.0011820282
0.00076177013
-2.1298417e-05
-0.00044098197
0.00018507954
-5.3722173e-06
-0.00019568819
3.997601e-05
-1.2496343e-06
-0.00012368329
7.7828517e-06
-3.092925e-07
-0.00010507479
1.5146588e-06
-1.1907797e-07
-0.0001008704
4.4052258e-07
-8.2962066e-08
-0.0001000469
2.6568744e-07
-7.4950213e-08
-9.9910877e-05
2.2821137e-07
-7.0860153e-08
-9.9892179e-05
2.134696e-07
-6.7214526e-08
-9.9890811e-05
1.9636942e-07
-6.4578523e-08
-9.9892065e-05
1.7955703e-07
-6.1397893e-08
-9.9893805e-05
1.6708321e-07
-5.7575465e-08
-9.9895742e-05
1.4786151e-07
-5.4294583e-08
-9.9897281e-05
1.3273059e-07
-4.9684363e-08
-9.9895838e-05
1.1565592e-07
-4.5103867e-08
-9.9894327e-05
9.8868614e-08
-4.024267e-08
-9.9890525e-05
7.7791456e-08
-3.5554103e-08
-9.9891784e-05
6.0663392e-08
-3.0261879e-08
-9.9888826e-05
3.3877783e-08
-2.6220525e-08
-9.9891323e-05
-2.0620509e-08
-9.9896469e-05
124.42647
-4.4351103