/*--------------------------------*- C++ -*----------------------------------*\
| =========                 |                                                 |
| \\      /  F ield         | OpenFOAM: The Open Source CFD Toolbox           |
|  \\    /   O peration     | Version:  3.0.1                                 |
|   \\  /    A nd           | Web:      www.OpenFOAM.org                      |
|    \\/     M anipulation  |                                                 |
\*---------------------------------------------------------------------------*/
FoamFile
{
    version     2.0;
    format      ascii;
    class       volScalarField;
    location    "2629";
    object      T;
}
// * * * * * * * * * * * * * * * * * * * * * * * * * * * * * * * * * * * * * //

dimensions      [0 0 0 1 0 0 0];

internalField   nonuniform List<scalar> 
80000
(
351.64301
328.88248
313.46421
304.12498
298.90668
296.17251
294.81858
294.18222
293.89798
293.77732
293.72863
293.71
293.70325
293.70093
293.70018
293.69995
293.69988
293.69986
293.69986
293.69985
293.69985
293.69985
293.69985
293.69985
293.69985
293.69985
293.69985
293.69985
293.69985
293.69986
293.69986
293.69986
293.69986
293.69986
293.69986
293.69986
293.69986
293.69986
293.69986
293.69986
351.54457
328.85712
313.49105
304.17144
298.94918
296.20264
294.83621
294.19124
293.90208
293.77897
293.72925
293.71022
293.70332
293.70095
293.70018
293.69995
293.69988
293.69986
293.69986
293.69985
293.69985
293.69985
293.69985
293.69985
293.69985
293.69985
293.69986
293.69986
293.69986
293.69986
293.69986
293.69986
293.69986
293.69986
293.69986
293.69986
293.69986
293.69986
293.69986
293.69987
351.26433
328.67902
313.367
304.06882
298.86176
296.13398
294.78847
294.16183
293.88594
293.77102
293.7257
293.70877
293.70279
293.70078
293.70013
293.69993
293.69988
293.69986
293.69986
293.69986
293.69985
293.69985
293.69985
293.69985
293.69986
293.69986
293.69986
293.69986
293.69986
293.69986
293.69986
293.69986
293.69986
293.69986
293.69986
293.69986
293.69986
293.69986
293.69986
293.69987
350.78951
328.2726
312.98945
303.74169
298.61594
295.97511
294.69929
294.1176
293.86707
293.76403
293.72348
293.7082
293.70268
293.70077
293.70014
293.69994
293.69988
293.69986
293.69986
293.69986
293.69985
293.69985
293.69986
293.69986
293.69986
293.69986
293.69986
293.69986
293.69986
293.69986
293.69986
293.69986
293.69986
293.69986
293.69986
293.69986
293.69986
293.69986
293.69986
293.69987
350.3774
327.87904
312.61961
303.45021
298.4279
295.87457
294.65416
294.10091
293.86159
293.7625
293.72317
293.70819
293.70272
293.7008
293.70015
293.69995
293.69988
293.69986
293.69986
293.69986
293.69986
293.69986
293.69986
293.69986
293.69986
293.69986
293.69986
293.69986
293.69986
293.69986
293.69986
293.69986
293.69986
293.69986
293.69986
293.69986
293.69986
293.69986
293.69986
293.69987
350.3774
327.87904
312.61961
303.45021
298.4279
295.87457
294.65416
294.10091
293.86159
293.7625
293.72317
293.70819
293.70272
293.7008
293.70015
293.69995
293.69988
293.69986
293.69986
293.69986
293.69986
293.69986
293.69986
293.69986
293.69986
293.69986
293.69986
293.69986
293.69986
293.69986
293.69986
293.69986
293.69986
293.69986
293.69986
293.69986
293.69986
293.69986
293.69986
293.69987
350.78951
328.2726
312.98945
303.74169
298.61594
295.97511
294.69929
294.1176
293.86707
293.76403
293.72348
293.7082
293.70268
293.70077
293.70014
293.69994
293.69988
293.69986
293.69986
293.69986
293.69985
293.69985
293.69986
293.69986
293.69986
293.69986
293.69986
293.69986
293.69986
293.69986
293.69986
293.69986
293.69986
293.69986
293.69986
293.69986
293.69986
293.69986
293.69986
293.69987
351.26431
328.67901
313.36699
304.06881
298.86175
296.13398
294.78847
294.16183
293.88594
293.77102
293.7257
293.70877
293.70279
293.70078
293.70013
293.69993
293.69988
293.69986
293.69986
293.69986
293.69985
293.69985
293.69985
293.69985
293.69986
293.69986
293.69986
293.69986
293.69986
293.69986
293.69986
293.69986
293.69986
293.69986
293.69986
293.69986
293.69986
293.69986
293.69986
293.69987
351.54457
328.85712
313.49104
304.17144
298.94918
296.20264
294.83621
294.19124
293.90208
293.77897
293.72925
293.71022
293.70332
293.70095
293.70018
293.69995
293.69988
293.69986
293.69986
293.69985
293.69985
293.69985
293.69985
293.69985
293.69985
293.69985
293.69986
293.69986
293.69986
293.69986
293.69986
293.69986
293.69986
293.69986
293.69986
293.69986
293.69986
293.69986
293.69986
293.69987
351.643
328.88247
313.46421
304.12498
298.90667
296.17251
294.81858
294.18222
293.89798
293.77732
293.72863
293.71
293.70325
293.70093
293.70018
293.69995
293.69988
293.69986
293.69986
293.69985
293.69985
293.69985
293.69985
293.69985
293.69985
293.69985
293.69985
293.69985
293.69985
293.69986
293.69986
293.69986
293.69986
293.69986
293.69986
293.69986
293.69986
293.69986
293.69986
293.69986
373.39139
349.06273
329.27929
314.86747
305.4234
299.78631
296.67851
295.07903
294.30512
293.95165
293.79909
293.73684
293.71284
293.7041
293.70109
293.70012
293.69982
293.69974
293.69972
293.69971
293.69971
293.69971
293.69971
293.69971
293.69971
293.69971
293.69971
293.69971
293.69971
293.69971
293.69971
293.69971
293.69971
293.69971
293.69971
293.69971
293.69971
293.69971
293.69971
293.69972
373.30515
349.04589
329.32394
314.94803
305.51198
299.86159
296.73303
295.11389
294.32519
293.96234
293.80435
293.73925
293.71386
293.70451
293.70125
293.70018
293.69984
293.69974
293.69972
293.69971
293.69971
293.69971
293.69971
293.69971
293.69971
293.69971
293.69971
293.69971
293.69971
293.69971
293.69971
293.69971
293.69971
293.69971
293.69971
293.69971
293.69971
293.69971
293.69972
293.69972
373.07426
348.92177
329.27847
314.94531
305.52258
299.87153
296.73884
295.11666
294.32657
293.96315
293.80493
293.73966
293.71413
293.70466
293.70133
293.70021
293.69986
293.69975
293.69972
293.69971
293.69971
293.69971
293.69971
293.69971
293.69971
293.69971
293.69971
293.69971
293.69971
293.69971
293.69971
293.69971
293.69971
293.69971
293.69971
293.69971
293.69971
293.69971
293.69972
293.69972
372.71724
348.67775
329.10411
314.81773
305.43394
299.81737
296.7114
295.10622
294.32489
293.96468
293.8069
293.74111
293.71498
293.70509
293.70152
293.70029
293.69989
293.69976
293.69972
293.69971
293.69971
293.69971
293.69971
293.69971
293.69971
293.69971
293.69971
293.69971
293.69971
293.69971
293.69971
293.69971
293.69971
293.69971
293.69971
293.69971
293.69971
293.69971
293.69972
293.69972
372.42161
348.4623
328.94107
314.70424
305.36889
299.79006
296.70614
295.11008
294.33031
293.96887
293.80948
293.74249
293.71565
293.70539
293.70164
293.70034
293.6999
293.69977
293.69973
293.69971
293.69971
293.69971
293.69971
293.69971
293.69971
293.69971
293.69971
293.69971
293.69971
293.69971
293.69971
293.69971
293.69971
293.69971
293.69971
293.69971
293.69971
293.69971
293.69972
293.69972
372.42161
348.4623
328.94107
314.70424
305.36889
299.79006
296.70614
295.11008
294.33031
293.96887
293.80948
293.74249
293.71565
293.70539
293.70164
293.70034
293.6999
293.69977
293.69973
293.69971
293.69971
293.69971
293.69971
293.69971
293.69971
293.69971
293.69971
293.69971
293.69971
293.69971
293.69971
293.69971
293.69971
293.69971
293.69971
293.69971
293.69971
293.69971
293.69972
293.69972
372.71723
348.67775
329.1041
314.81773
305.43394
299.81737
296.7114
295.10622
294.32489
293.96468
293.8069
293.74111
293.71498
293.70509
293.70152
293.70029
293.69989
293.69976
293.69972
293.69971
293.69971
293.69971
293.69971
293.69971
293.69971
293.69971
293.69971
293.69971
293.69971
293.69971
293.69971
293.69971
293.69971
293.69971
293.69971
293.69971
293.69971
293.69971
293.69972
293.69972
373.07423
348.92175
329.27846
314.9453
305.52258
299.87153
296.73884
295.11666
294.32657
293.96315
293.80493
293.73966
293.71413
293.70466
293.70133
293.70021
293.69986
293.69975
293.69972
293.69971
293.69971
293.69971
293.69971
293.69971
293.69971
293.69971
293.69971
293.69971
293.69971
293.69971
293.69971
293.69971
293.69971
293.69971
293.69971
293.69971
293.69971
293.69971
293.69972
293.69972
373.30514
349.04588
329.32393
314.94802
305.51198
299.86159
296.73303
295.11389
294.32519
293.96234
293.80435
293.73925
293.71386
293.70451
293.70125
293.70018
293.69984
293.69974
293.69972
293.69971
293.69971
293.69971
293.69971
293.69971
293.69971
293.69971
293.69971
293.69971
293.69971
293.69971
293.69971
293.69971
293.69971
293.69971
293.69971
293.69971
293.69971
293.69971
293.69972
293.69972
373.39139
349.06273
329.27929
314.86747
305.4234
299.78631
296.67851
295.07903
294.30512
293.95165
293.79909
293.73684
293.71284
293.7041
293.70109
293.70012
293.69982
293.69974
293.69972
293.69971
293.69971
293.69971
293.69971
293.69971
293.69971
293.69971
293.69971
293.69971
293.69971
293.69971
293.69971
293.69971
293.69971
293.69971
293.69971
293.69971
293.69971
293.69971
293.69971
293.69972
385.16235
360.91006
340.04049
323.49018
311.54225
303.68826
298.94897
296.29932
294.91595
294.23775
293.92482
293.78874
293.73292
293.71135
293.70349
293.7008
293.69993
293.69966
293.69959
293.69957
293.69956
293.69956
293.69956
293.69956
293.69956
293.69956
293.69956
293.69956
293.69956
293.69956
293.69956
293.69956
293.69956
293.69956
293.69956
293.69956
293.69956
293.69956
293.69957
293.69958
385.09013
360.89056
340.07141
323.5629
311.64078
303.78956
299.03682
296.36571
294.96057
294.2651
293.94012
293.79657
293.73663
293.71297
293.70415
293.70105
293.70002
293.69969
293.6996
293.69957
293.69956
293.69956
293.69956
293.69956
293.69956
293.69956
293.69956
293.69956
293.69956
293.69956
293.69956
293.69956
293.69956
293.69956
293.69956
293.69956
293.69956
293.69957
293.69957
293.69957
384.9883
360.89692
340.17252
323.73
311.83088
303.96474
299.17505
296.46233
295.02177
294.30062
293.95923
293.80617
293.74115
293.71498
293.70499
293.70138
293.70014
293.69974
293.69961
293.69958
293.69957
293.69956
293.69956
293.69956
293.69956
293.69956
293.69956
293.69956
293.69956
293.69956
293.69956
293.69956
293.69956
293.69956
293.69956
293.69956
293.69957
293.69957
293.69957
293.69957
384.9678
361.04552
340.44824
324.06422
312.15352
304.23041
299.36875
296.59047
295.09994
294.34502
293.98285
293.81798
293.74671
293.71744
293.70602
293.70178
293.70029
293.69979
293.69963
293.69958
293.69957
293.69956
293.69956
293.69956
293.69956
293.69956
293.69956
293.69956
293.69956
293.69956
293.69956
293.69956
293.69956
293.69956
293.69956
293.69956
293.69957
293.69957
293.69957
293.69957
385.01416
361.22988
340.72004
324.36014
312.42063
304.43992
299.51533
296.68359
295.15432
294.3745
293.99782
293.82516
293.74997
293.71885
293.7066
293.70201
293.70037
293.69982
293.69964
293.69958
293.69957
293.69956
293.69956
293.69956
293.69956
293.69956
293.69956
293.69956
293.69956
293.69956
293.69956
293.69956
293.69956
293.69956
293.69956
293.69957
293.69957
293.69957
293.69957
293.69957
385.01415
361.22988
340.72004
324.36014
312.42062
304.43992
299.51533
296.68359
295.15432
294.3745
293.99782
293.82516
293.74997
293.71885
293.7066
293.70201
293.70037
293.69982
293.69964
293.69958
293.69957
293.69956
293.69956
293.69956
293.69956
293.69956
293.69956
293.69956
293.69956
293.69956
293.69956
293.69956
293.69956
293.69956
293.69956
293.69957
293.69957
293.69957
293.69957
293.69957
384.96779
361.04551
340.44824
324.06421
312.15351
304.23041
299.36874
296.59047
295.09994
294.34502
293.98285
293.81798
293.74671
293.71744
293.70602
293.70178
293.70029
293.69979
293.69963
293.69958
293.69957
293.69956
293.69956
293.69956
293.69956
293.69956
293.69956
293.69956
293.69956
293.69956
293.69956
293.69956
293.69956
293.69956
293.69956
293.69956
293.69957
293.69957
293.69957
293.69957
384.98827
360.89691
340.17251
323.72999
311.83088
303.96474
299.17505
296.46233
295.02177
294.30062
293.95923
293.80617
293.74115
293.71498
293.70499
293.70138
293.70014
293.69974
293.69961
293.69958
293.69957
293.69956
293.69956
293.69956
293.69956
293.69956
293.69956
293.69956
293.69956
293.69956
293.69956
293.69956
293.69956
293.69956
293.69956
293.69956
293.69957
293.69957
293.69957
293.69957
385.09012
360.89055
340.07141
323.5629
311.64077
303.78956
299.03682
296.36571
294.96056
294.2651
293.94012
293.79657
293.73663
293.71297
293.70415
293.70105
293.70002
293.69969
293.6996
293.69957
293.69956
293.69956
293.69956
293.69956
293.69956
293.69956
293.69956
293.69956
293.69956
293.69956
293.69956
293.69956
293.69956
293.69956
293.69956
293.69956
293.69956
293.69957
293.69957
293.69957
385.16234
360.91005
340.04048
323.49018
311.54225
303.68825
298.94897
296.29932
294.91595
294.23775
293.92482
293.78874
293.73292
293.71135
293.70349
293.7008
293.69993
293.69966
293.69959
293.69957
293.69956
293.69956
293.69956
293.69956
293.69956
293.69956
293.69956
293.69956
293.69956
293.69956
293.69956
293.69956
293.69956
293.69956
293.69956
293.69956
293.69956
293.69956
293.69957
293.69958
393.12501
369.04734
347.82161
330.24857
316.81345
307.39118
301.31434
297.68755
295.67077
294.62004
294.10583
293.86899
293.76625
293.72428
293.70815
293.70231
293.70032
293.69968
293.69949
293.69944
293.69942
293.69942
293.69942
293.69942
293.69942
293.69942
293.69942
293.69942
293.69942
293.69942
293.69942
293.69942
293.69942
293.69942
293.69942
293.69942
293.69942
293.69942
293.69942
293.69943
393.08063
369.04079
347.84679
330.3054
316.90017
307.49392
301.41723
297.77656
295.73852
294.6666
294.1347
293.88525
293.77463
293.72826
293.70988
293.70301
293.70058
293.69977
293.69952
293.69944
293.69942
293.69942
293.69942
293.69942
293.69942
293.69942
293.69942
293.69942
293.69942
293.69942
293.69942
293.69942
293.69942
293.69942
293.69942
293.69942
293.69942
293.69942
293.69942
293.69943
393.10293
369.17158
348.07963
330.62186
317.25802
307.84174
301.71315
298.0009
295.89231
294.76276
294.19005
293.91477
293.78929
293.73505
293.71283
293.70421
293.70104
293.69994
293.69957
293.69946
293.69943
293.69942
293.69942
293.69942
293.69942
293.69942
293.69942
293.69942
293.69942
293.69942
293.69942
293.69942
293.69942
293.69942
293.69942
293.69942
293.69942
293.69942
293.69942
293.69942
393.35449
369.64427
348.74901
331.4042
318.03651
308.51622
302.23183
298.36092
296.12085
294.89672
294.26309
293.95201
293.80711
293.74308
293.71624
293.70558
293.70156
293.70012
293.69964
293.69948
293.69943
293.69942
293.69942
293.69942
293.69942
293.69942
293.69942
293.69942
293.69942
293.69942
293.69942
293.69942
293.69942
293.69942
293.69942
293.69942
293.69942
293.69942
293.69942
293.69943
393.65791
370.1567
349.41256
332.12486
318.70799
309.06321
302.62811
298.62017
296.276
294.9826
294.30748
293.97362
293.81707
293.74745
293.71808
293.70631
293.70184
293.70023
293.69967
293.69949
293.69944
293.69942
293.69942
293.69942
293.69942
293.69942
293.69942
293.69942
293.69942
293.69942
293.69942
293.69942
293.69942
293.69942
293.69942
293.69942
293.69942
293.69942
293.69942
293.69943
393.6579
370.1567
349.41256
332.12486
318.70799
309.06321
302.62811
298.62017
296.276
294.9826
294.30748
293.97362
293.81707
293.74745
293.71808
293.70631
293.70184
293.70023
293.69967
293.69949
293.69944
293.69942
293.69942
293.69942
293.69942
293.69942
293.69942
293.69942
293.69942
293.69942
293.69942
293.69942
293.69942
293.69942
293.69942
293.69942
293.69942
293.69942
293.69942
293.69943
393.35448
369.64426
348.749
331.40419
318.03651
308.51622
302.23183
298.36092
296.12085
294.89672
294.26309
293.95201
293.80711
293.74308
293.71624
293.70558
293.70156
293.70012
293.69964
293.69948
293.69943
293.69942
293.69942
293.69942
293.69942
293.69942
293.69942
293.69942
293.69942
293.69942
293.69942
293.69942
293.69942
293.69942
293.69942
293.69942
293.69942
293.69942
293.69942
293.69943
393.1029
369.17156
348.07962
330.62185
317.25801
307.84174
301.71315
298.0009
295.89231
294.76276
294.19005
293.91477
293.78929
293.73505
293.71283
293.70421
293.70104
293.69994
293.69957
293.69946
293.69943
293.69942
293.69942
293.69942
293.69942
293.69942
293.69942
293.69942
293.69942
293.69942
293.69942
293.69942
293.69942
293.69942
293.69942
293.69942
293.69942
293.69942
293.69942
293.69942
393.08062
369.04078
347.84678
330.3054
316.90017
307.49391
301.41723
297.77656
295.73852
294.6666
294.1347
293.88525
293.77463
293.72826
293.70988
293.70301
293.70058
293.69977
293.69952
293.69944
293.69942
293.69942
293.69942
293.69942
293.69942
293.69942
293.69942
293.69942
293.69942
293.69942
293.69942
293.69942
293.69942
293.69942
293.69942
293.69942
293.69942
293.69942
293.69942
293.69943
393.125
369.04733
347.82161
330.24857
316.81345
307.39117
301.31434
297.68755
295.67077
294.62004
294.10583
293.86899
293.76625
293.72428
293.70815
293.70231
293.70032
293.69968
293.69949
293.69944
293.69942
293.69942
293.69942
293.69942
293.69942
293.69942
293.69942
293.69942
293.69942
293.69942
293.69942
293.69942
293.69942
293.69942
293.69942
293.69942
293.69942
293.69942
293.69942
293.69943
399.15583
375.24022
353.87372
335.72847
321.33704
310.78231
303.633
299.14438
296.51787
295.0782
294.33713
293.97821
293.8145
293.74422
293.71581
293.70501
293.70115
293.69985
293.69944
293.69932
293.69928
293.69927
293.69927
293.69927
293.69927
293.69927
293.69927
293.69927
293.69927
293.69927
293.69927
293.69927
293.69927
293.69927
293.69927
293.69927
293.69927
293.69927
293.69928
293.69928
399.14333
375.25613
353.90561
335.77715
321.40929
310.8748
303.73626
299.24408
296.60205
295.14193
294.38034
294.00464
293.82924
293.75173
293.71934
293.70654
293.70176
293.70008
293.69952
293.69934
293.69929
293.69927
293.69927
293.69927
293.69927
293.69927
293.69927
293.69927
293.69927
293.69927
293.69927
293.69927
293.69927
293.69927
293.69927
293.69927
293.69927
293.69927
293.69928
293.69928
399.26599
375.48833
354.24334
336.20928
321.89957
311.36869
304.17903
299.60057
296.86238
295.31551
294.48682
294.06506
293.86107
293.76734
293.72648
293.70959
293.70298
293.70053
293.69968
293.69939
293.69931
293.69928
293.69927
293.69927
293.69927
293.69927
293.69927
293.69927
293.69927
293.69927
293.69927
293.69927
293.69927
293.69927
293.69927
293.69927
293.69927
293.69927
293.69928
293.69928
399.70651
376.18753
355.19882
337.34258
323.07281
312.4391
305.05036
300.24161
297.29337
295.58255
294.6403
294.14728
293.90226
293.78671
293.73504
293.71316
293.70439
293.70106
293.69986
293.69946
293.69933
293.69929
293.69927
293.69927
293.69927
293.69927
293.69927
293.69927
293.69927
293.69927
293.69927
293.69927
293.69927
293.69927
293.69927
293.69927
293.69927
293.69928
293.69928
293.69928
400.17972
376.92098
356.151
338.41166
324.12065
313.34368
305.74619
300.72436
297.59881
295.76054
294.73667
294.19614
293.92563
293.79732
293.73963
293.71506
293.70514
293.70134
293.69997
293.69949
293.69934
293.69929
293.69927
293.69927
293.69927
293.69927
293.69927
293.69927
293.69927
293.69927
293.69927
293.69927
293.69927
293.69927
293.69927
293.69927
293.69927
293.69928
293.69928
293.69928
400.17972
376.92098
356.151
338.41166
324.12064
313.34368
305.74619
300.72436
297.59881
295.76054
294.73667
294.19614
293.92563
293.79732
293.73963
293.71506
293.70514
293.70134
293.69997
293.69949
293.69934
293.69929
293.69927
293.69927
293.69927
293.69927
293.69927
293.69927
293.69927
293.69927
293.69927
293.69927
293.69927
293.69927
293.69927
293.69927
293.69927
293.69928
293.69928
293.69928
399.7065
376.18752
355.19881
337.34257
323.07281
312.4391
305.05036
300.24161
297.29337
295.58255
294.6403
294.14728
293.90226
293.78671
293.73504
293.71316
293.70439
293.70106
293.69986
293.69946
293.69933
293.69929
293.69927
293.69927
293.69927
293.69927
293.69927
293.69927
293.69927
293.69927
293.69927
293.69927
293.69927
293.69927
293.69927
293.69927
293.69927
293.69928
293.69928
293.69928
399.26596
375.48831
354.24333
336.20927
321.89957
311.36869
304.17903
299.60057
296.86238
295.31551
294.48682
294.06506
293.86107
293.76734
293.72648
293.70959
293.70298
293.70053
293.69968
293.69939
293.69931
293.69928
293.69927
293.69927
293.69927
293.69927
293.69927
293.69927
293.69927
293.69927
293.69927
293.69927
293.69927
293.69927
293.69927
293.69927
293.69927
293.69927
293.69928
293.69928
399.14332
375.25612
353.9056
335.77715
321.40929
310.8748
303.73626
299.24408
296.60205
295.14193
294.38034
294.00464
293.82924
293.75173
293.71934
293.70654
293.70176
293.70008
293.69952
293.69934
293.69929
293.69927
293.69927
293.69927
293.69927
293.69927
293.69927
293.69927
293.69927
293.69927
293.69927
293.69927
293.69927
293.69927
293.69927
293.69927
293.69927
293.69927
293.69928
293.69928
399.15582
375.24021
353.87371
335.72847
321.33704
310.78231
303.63299
299.14438
296.51787
295.0782
294.33713
293.97821
293.8145
293.74422
293.71581
293.70501
293.70115
293.69985
293.69944
293.69932
293.69928
293.69927
293.69927
293.69927
293.69927
293.69927
293.69927
293.69927
293.69927
293.69927
293.69927
293.69927
293.69927
293.69927
293.69927
293.69927
293.69927
293.69927
293.69928
293.69928
404.01094
380.2368
358.81366
340.31149
325.26
313.85794
305.84339
300.60801
297.41599
295.59116
294.61069
294.11468
293.8782
293.77203
293.72714
293.70928
293.70259
293.70024
293.69946
293.69922
293.69915
293.69913
293.69913
293.69912
293.69912
293.69912
293.69912
293.69912
293.69912
293.69912
293.69912
293.69912
293.69912
293.69912
293.69912
293.69913
293.69913
293.69913
293.69913
293.69913
404.02939
380.27871
358.86091
340.36217
325.32393
313.93937
305.94054
300.71003
297.50971
295.66816
294.66705
294.15171
293.90033
293.78409
293.73316
293.71205
293.70377
293.70071
293.69963
293.69928
293.69917
293.69914
293.69913
293.69912
293.69912
293.69912
293.69912
293.69912
293.69912
293.69912
293.69912
293.69912
293.69912
293.69912
293.69913
293.69913
293.69913
293.69913
293.69913
293.69913
404.23066
380.59166
359.28229
340.88479
325.91733
314.55074
306.50892
301.18853
297.87688
295.92621
294.83422
294.25197
293.95615
293.813
293.74713
293.71835
293.70643
293.70175
293.70002
293.69941
293.69921
293.69915
293.69913
293.69913
293.69912
293.69912
293.69912
293.69912
293.69912
293.69912
293.69912
293.69912
293.69912
293.69912
293.69913
293.69913
293.69913
293.69913
293.69913
293.69913
404.79941
381.44466
360.43754
342.27677
327.40432
315.96423
307.71452
302.12089
298.53702
296.35736
295.09546
294.39942
294.03388
293.85138
293.76491
293.72609
293.7096
293.70298
293.70047
293.69957
293.69926
293.69916
293.69913
293.69913
293.69912
293.69912
293.69912
293.69912
293.69912
293.69912
293.69912
293.69912
293.69912
293.69913
293.69913
293.69913
293.69913
293.69913
293.69913
293.69913
405.38097
382.31806
361.5911
343.6089
328.76559
317.19922
308.71713
302.85627
299.02892
296.65998
295.26797
294.49118
294.07972
293.87302
293.77462
293.73025
293.71131
293.70365
293.70072
293.69966
293.69929
293.69917
293.69914
293.69913
293.69912
293.69912
293.69912
293.69912
293.69912
293.69912
293.69912
293.69912
293.69912
293.69913
293.69913
293.69913
293.69913
293.69913
293.69913
293.69913
405.38097
382.31805
361.59109
343.6089
328.76559
317.19922
308.71713
302.85627
299.02892
296.65998
295.26797
294.49118
294.07972
293.87302
293.77462
293.73025
293.71131
293.70365
293.70072
293.69966
293.69929
293.69917
293.69914
293.69913
293.69912
293.69912
293.69912
293.69912
293.69912
293.69912
293.69912
293.69912
293.69912
293.69913
293.69913
293.69913
293.69913
293.69913
293.69913
293.69913
404.7994
381.44465
360.43753
342.27676
327.40431
315.96423
307.71452
302.12089
298.53702
296.35736
295.09546
294.39942
294.03388
293.85138
293.76491
293.72609
293.7096
293.70298
293.70047
293.69957
293.69926
293.69916
293.69913
293.69913
293.69912
293.69912
293.69912
293.69912
293.69912
293.69912
293.69912
293.69912
293.69912
293.69913
293.69913
293.69913
293.69913
293.69913
293.69913
293.69913
404.23063
380.59164
359.28227
340.88478
325.91732
314.55073
306.50892
301.18853
297.87688
295.92621
294.83421
294.25197
293.95615
293.813
293.74713
293.71835
293.70643
293.70175
293.70002
293.69941
293.69921
293.69915
293.69913
293.69913
293.69912
293.69912
293.69912
293.69912
293.69912
293.69912
293.69912
293.69912
293.69912
293.69912
293.69913
293.69913
293.69913
293.69913
293.69913
293.69913
404.02938
380.2787
358.8609
340.36216
325.32392
313.93937
305.94054
300.71003
297.50971
295.66816
294.66705
294.15171
293.90033
293.78409
293.73316
293.71205
293.70377
293.70071
293.69963
293.69928
293.69917
293.69914
293.69913
293.69912
293.69912
293.69912
293.69912
293.69912
293.69912
293.69912
293.69912
293.69912
293.69912
293.69912
293.69913
293.69913
293.69913
293.69913
293.69913
293.69913
404.01093
380.23679
358.81365
340.31148
325.26
313.85793
305.84339
300.60801
297.41599
295.59116
294.61069
294.11468
293.8782
293.77203
293.72714
293.70928
293.70259
293.70024
293.69946
293.69922
293.69915
293.69913
293.69913
293.69912
293.69912
293.69912
293.69912
293.69912
293.69912
293.69912
293.69912
293.69912
293.69912
293.69912
293.69912
293.69913
293.69913
293.69913
293.69913
293.69913
408.07802
384.42749
362.98674
344.24478
328.71137
316.65223
307.92784
302.04552
298.33686
296.14127
294.91801
294.27545
293.95697
293.80816
293.74262
293.71544
293.70484
293.70094
293.6996
293.69916
293.69903
293.69899
293.69898
293.69898
293.69898
293.69898
293.69898
293.69898
293.69898
293.69898
293.69898
293.69898
293.69898
293.69898
293.69898
293.69898
293.69898
293.69898
293.69898
293.69899
408.12456
384.49542
363.0537
344.30501
328.77433
316.7264
308.01795
302.14562
298.4351
296.22763
294.98543
294.32258
293.98688
293.82545
293.75178
293.7199
293.70684
293.70178
293.69992
293.69928
293.69907
293.699
293.69898
293.69898
293.69898
293.69898
293.69898
293.69898
293.69898
293.69898
293.69898
293.69898
293.69898
293.69898
293.69898
293.69898
293.69898
293.69898
293.69899
293.69899
408.38716
384.87249
363.54231
344.89998
329.44951
317.43213
308.69111
302.73156
298.90241
296.57033
295.21776
294.46874
294.07236
293.87201
293.77543
293.73112
293.71181
293.70383
293.70072
293.69957
293.69917
293.69903
293.69899
293.69898
293.69898
293.69898
293.69898
293.69898
293.69898
293.69898
293.69898
293.69898
293.69898
293.69898
293.69898
293.69898
293.69898
293.69898
293.69898
293.69898
409.04313
385.82968
364.83537
346.47858
331.1775
319.12849
310.19318
303.9418
299.79751
297.18234
295.60663
294.69913
294.1999
293.93809
293.80752
293.74575
293.71807
293.70636
293.70168
293.69991
293.69928
293.69907
293.699
293.69898
293.69898
293.69898
293.69898
293.69898
293.69898
293.69898
293.69898
293.69898
293.69898
293.69898
293.69898
293.69898
293.69898
293.69898
293.69898
293.69899
409.69405
386.79245
366.12339
348.00087
332.78577
320.64774
311.48346
304.93475
300.49557
297.63392
295.87717
294.85009
294.2788
293.97693
293.82563
293.75378
293.72148
293.70774
293.70222
293.70011
293.69935
293.6991
293.69901
293.69899
293.69898
293.69898
293.69898
293.69898
293.69898
293.69898
293.69898
293.69898
293.69898
293.69898
293.69898
293.69898
293.69898
293.69898
293.69898
293.69899
409.69404
386.79245
366.12339
348.00086
332.78577
320.64774
311.48346
304.93475
300.49557
297.63392
295.87717
294.85009
294.2788
293.97693
293.82563
293.75378
293.72148
293.70774
293.70222
293.70011
293.69935
293.6991
293.69901
293.69899
293.69898
293.69898
293.69898
293.69898
293.69898
293.69898
293.69898
293.69898
293.69898
293.69898
293.69898
293.69898
293.69898
293.69898
293.69898
293.69899
409.04312
385.82967
364.83536
346.47858
331.17749
319.12849
310.19318
303.9418
299.79751
297.18234
295.60663
294.69913
294.1999
293.93809
293.80752
293.74575
293.71807
293.70636
293.70168
293.69991
293.69928
293.69907
293.699
293.69898
293.69898
293.69898
293.69898
293.69898
293.69898
293.69898
293.69898
293.69898
293.69898
293.69898
293.69898
293.69898
293.69898
293.69898
293.69898
293.69899
408.38712
384.87247
363.54229
344.89997
329.4495
317.43213
308.69111
302.73156
298.90241
296.57033
295.21776
294.46874
294.07236
293.87201
293.77543
293.73112
293.71181
293.70383
293.70072
293.69957
293.69917
293.69903
293.69899
293.69898
293.69898
293.69898
293.69898
293.69898
293.69898
293.69898
293.69898
293.69898
293.69898
293.69898
293.69898
293.69898
293.69898
293.69898
293.69898
293.69898
408.12455
384.49541
363.0537
344.305
328.77433
316.7264
308.01795
302.14562
298.4351
296.22763
294.98543
294.32258
293.98688
293.82545
293.75178
293.7199
293.70684
293.70178
293.69992
293.69928
293.69907
293.699
293.69898
293.69898
293.69898
293.69898
293.69898
293.69898
293.69898
293.69898
293.69898
293.69898
293.69898
293.69898
293.69898
293.69898
293.69898
293.69898
293.69899
293.69899
408.078
384.42748
362.98673
344.24477
328.71137
316.65223
307.92783
302.04551
298.33686
296.14127
294.91801
294.27545
293.95697
293.80816
293.74262
293.71544
293.70484
293.70094
293.6996
293.69916
293.69903
293.69899
293.69898
293.69898
293.69898
293.69898
293.69898
293.69898
293.69898
293.69898
293.69898
293.69898
293.69898
293.69898
293.69898
293.69898
293.69898
293.69898
293.69898
293.69899
411.57885
388.03752
366.59948
347.68826
331.78804
319.204
309.88683
303.44053
299.26207
296.71482
295.25119
294.45703
294.04981
293.85266
293.76259
293.72379
293.70805
293.70204
293.69989
293.69916
293.69893
293.69886
293.69884
293.69883
293.69883
293.69883
293.69883
293.69883
293.69883
293.69883
293.69883
293.69883
293.69883
293.69883
293.69883
293.69883
293.69883
293.69884
293.69884
293.69884
411.65005
388.12982
366.68762
347.76268
331.8561
319.27576
309.97171
303.53746
299.36183
296.80742
295.32749
294.51328
294.08743
293.87556
293.77535
293.73033
293.71115
293.7034
293.70044
293.69937
293.699
293.69888
293.69885
293.69883
293.69883
293.69883
293.69883
293.69883
293.69883
293.69883
293.69883
293.69883
293.69883
293.69883
293.69883
293.69883
293.69883
293.69884
293.69884
293.69884
411.96069
388.55801
367.2308
348.41669
332.59777
320.05859
310.73247
304.21664
299.92018
297.23118
295.62581
294.7087
294.20671
293.94351
293.81149
293.74829
293.71949
293.70702
293.7019
293.69992
293.6992
293.69895
293.69887
293.69884
293.69883
293.69883
293.69883
293.69883
293.69883
293.69883
293.69883
293.69883
293.69883
293.69883
293.69883
293.69883
293.69883
293.69884
293.69884
293.69884
412.67621
389.58582
368.61867
350.12913
334.50866
321.98326
312.48902
305.68026
301.04272
298.02907