/*--------------------------------*- C++ -*----------------------------------*\
| =========                 |                                                 |
| \\      /  F ield         | OpenFOAM: The Open Source CFD Toolbox           |
|  \\    /   O peration     | Version:  4.0                                   |
|   \\  /    A nd           | Web:      www.OpenFOAM.org                      |
|    \\/     M anipulation  |                                                 |
\*---------------------------------------------------------------------------*/
FoamFile
{
    version     2.0;
    format      ascii;
    class       volVectorField;
    location    "2000";
    object      U;
}
// * * * * * * * * * * * * * * * * * * * * * * * * * * * * * * * * * * * * * //

dimensions      [0 1 -1 0 0 0 0];

internalField   nonuniform List<vector> 
100000
(
(4.5429636e-05 -9.9271403e-06 0.015747656)
(0.00016724243 -3.3987534e-05 0.045823822)
(0.00034593992 -1.9952646e-05 0.075624502)
(0.00061637814 -2.9412712e-05 0.10468998)
(0.00094761324 -8.7123155e-06 0.1325236)
(0.0013370706 -2.6040012e-05 0.15862392)
(0.0017622801 -1.2868543e-05 0.18251496)
(0.0022102484 -2.3047845e-05 0.20378272)
(0.0026546951 4.572976e-06 0.22210081)
(0.0030839399 8.2619152e-06 0.23727862)
(0.0034825434 1.03315e-05 0.24926012)
(0.0038340878 1.0009586e-05 0.25814118)
(0.0041225519 4.7857289e-05 0.2641608)
(0.0043582667 2.2077463e-05 0.26767463)
(0.0045172963 7.8464569e-05 0.26912264)
(0.0046079223 0.00010648287 0.26898378)
(0.0046346885 0.00014988752 0.2677581)
(0.004596674 0.00017583308 0.26588814)
(0.0045211003 0.00024757416 0.26377142)
(0.0043724589 0.0002661897 0.26170497)
(0.0041926981 0.00030158496 0.25988439)
(0.0039595323 0.00039028992 0.25840714)
(0.0037129449 0.00037119731 0.2573133)
(0.0034435484 0.00038411601 0.25655409)
(0.0031335657 0.00044416344 0.25599221)
(0.0028102651 0.00045834326 0.25572321)
(0.0024906597 0.00043817721 0.25555628)
(0.0021710987 0.00040442371 0.25540508)
(0.0018495328 0.00038893992 0.25531512)
(0.001554107 0.00029318931 0.25523225)
(0.0012675923 0.00031156263 0.25515075)
(0.0010289182 0.00016565072 0.25515345)
(0.00077292022 0.00014885313 0.25494998)
(0.00054768379 6.9323016e-05 0.25490785)
(0.00036728784 -2.6933779e-05 0.25486409)
(0.00020217409 -6.8819263e-05 0.25471806)
(7.8472935e-05 -0.00015436224 0.25466166)
(4.0267502e-05 -0.00026688356 0.25460027)
(-5.8118885e-05 -0.00019020544 0.25447881)
(-0.00010966283 -0.00031124697 0.25436723)
(-0.00015017433 -0.00034005855 0.25426463)
(-0.0001501485 -0.00039399102 0.2541989)
(-0.0001628362 -0.00036385843 0.25406163)
(-0.00014667433 -0.00040652143 0.25396175)
(-0.00013310996 -0.000395636 0.2538326)
(-0.00010518342 -0.0004101951 0.25371285)
(-8.0653117e-05 -0.00039800166 0.25359752)
(-4.6334303e-05 -0.00039039809 0.25346073)
(-2.5983637e-05 -0.00039204044 0.2533887)
(4.226048e-05 -0.00035771982 0.25330061)
(5.7686605e-05 -1.8398697e-05 0.015724969)
(0.00020419404 -3.9709292e-05 0.045754788)
(0.00041088074 -3.3764139e-05 0.075508915)
(0.00072670349 -3.4659764e-05 0.10452393)
(0.0011143082 -2.2969818e-05 0.13230611)
(0.0015763803 -2.9031507e-05 0.15835635)
(0.0020762269 -2.0912246e-05 0.18220182)
(0.002605992 -2.1502801e-05 0.20343015)
(0.0031259239 -2.2475646e-06 0.22172383)
(0.0036273307 9.5267782e-06 0.23688858)
(0.0040748249 2.2696408e-05 0.24887244)
(0.0044454072 3.8254517e-05 0.25777072)
(0.0047178714 7.6555993e-05 0.26381705)
(0.004903682 8.8532838e-05 0.26736136)
(0.0049587198 0.00014091662 0.26883777)
(0.0049225855 0.00018488047 0.26872711)
(0.0047843378 0.00023520829 0.26751682)
(0.0045570182 0.00027816242 0.26566369)
(0.0042764895 0.00033591185 0.26356374)
(0.0039329996 0.00036377556 0.26151687)
(0.003552978 0.00039525807 0.25972331)
(0.0031525483 0.00044980625 0.25828404)
(0.0027863584 0.00044466129 0.25721719)
(0.0024015177 0.00045716642 0.25647898)
(0.0020397313 0.0004794756 0.25599644)
(0.0017259504 0.00047267101 0.25569299)
(0.0014902012 0.00045902825 0.25549432)
(0.001262669 0.00041082907 0.25535323)
(0.0010322675 0.00037079796 0.25523029)
(0.00085702297 0.00027672442 0.25511499)
(0.00063807731 0.00023156324 0.25499355)
(0.00050334385 0.00010786031 0.25486964)
(0.00033026036 4.8814415e-05 0.25473427)
(0.00022792698 -3.0178658e-05 0.25459719)
(0.00014000859 -0.00011765935 0.2544541)
(7.3310682e-05 -0.00016789159 0.25430284)
(3.7398898e-05 -0.000236613 0.25414907)
(5.3433789e-06 -0.00032004243 0.25398342)
(-7.1956292e-05 -0.00030601726 0.25381378)
(-6.2927716e-05 -0.00037615913 0.25363645)
(-8.0863843e-05 -0.00040245314 0.25344983)
(-7.8246625e-05 -0.0004361332 0.25325065)
(-9.4983689e-05 -0.00042606248 0.25304504)
(-7.4558776e-05 -0.00044555049 0.25282899)
(-6.8595958e-05 -0.0004376223 0.25260656)
(-4.458601e-05 -0.00043769001 0.25237475)
(-2.820494e-05 -0.00042317877 0.25214386)
(1.1135187e-05 -0.00040357686 0.25189815)
(2.3272858e-05 -0.00039427319 0.25169766)
(0.00015386862 -0.00033238879 0.25139256)
(8.8404158e-05 -2.2333182e-05 0.015688388)
(0.00029495671 -4.1040827e-05 0.04564936)
(0.00058514661 -4.0452141e-05 0.0753355)
(0.0009965221 -2.8506092e-05 0.10428503)
(0.0015025714 -1.4237722e-05 0.13200726)
(0.0020753593 2.9970012e-06 0.15800689)
(0.0026788755 2.4937858e-05 0.18181467)
(0.0032745338 5.2115515e-05 0.20302089)
(0.0038195695 8.4450163e-05 0.22130791)
(0.0042766623 0.00012116161 0.23647783)
(0.0046132372 0.00016173474 0.24847109)
(0.0048085707 0.00020527332 0.25737354)
(0.004854231 0.0002515787 0.26341054)
(0.0047545003 0.00029948121 0.2669284)
(0.0045180573 0.00034848475 0.26836493)
(0.0041697505 0.00039554368 0.26821196)
(0.0037309307 0.0004403526 0.26697344)
(0.0032595637 0.00047523599 0.265125)
(0.0027607741 0.00049623154 0.26306281)
(0.0022747692 0.00051270672 0.26108454)
(0.0018333064 0.00051781886 0.2593779)
(0.0014524469 0.00049814789 0.25802606)
(0.0011851661 0.00051727351 0.25703015)
(0.00095247952 0.00050802139 0.25633647)
(0.0007284675 0.00047844133 0.25586315)
(0.00055908981 0.00045040236 0.25553885)
(0.00036101865 0.00036651417 0.25529921)
(0.00023439328 0.00027420635 0.25509904)
(0.00013583605 0.0001845941 0.25491613)
(6.9722004e-05 8.540097e-05 0.25473949)
(2.3433932e-05 -1.3188141e-06 0.25456693)
(7.0678586e-07 -9.4087191e-05 0.25439183)
(-6.2804962e-06 -0.00016426824 0.25421332)
(-1.2495924e-05 -0.00023124848 0.25402947)
(-1.9797808e-05 -0.00029169286 0.25383856)
(-2.7431562e-05 -0.00034401156 0.25363923)
(-3.0290849e-05 -0.00039052101 0.25343033)
(-3.4357389e-05 -0.00042725364 0.25321127)
(-3.5273515e-05 -0.00045500687 0.25298094)
(-3.3394044e-05 -0.00047465225 0.2527393)
(-2.9219982e-05 -0.00048565122 0.25248574)
(-2.336752e-05 -0.00048831073 0.25222085)
(-1.4764663e-05 -0.00048356256 0.25194515)
(-3.8061635e-06 -0.00047205173 0.25166011)
(9.5451222e-06 -0.00045411203 0.25136765)
(2.5484252e-05 -0.00042973644 0.2510709)
(4.4257887e-05 -0.00039948106 0.25077499)
(7.1221593e-05 -0.00035954571 0.25048271)
(9.0254845e-05 -0.00032224084 0.25022205)
(0.00019912309 -0.00022440207 0.24992216)
(0.00017226679 -2.0954107e-05 0.01567016)
(0.00051613376 -6.5210174e-05 0.045605043)
(0.00092732001 -7.1070054e-05 0.075275616)
(0.0014326748 -4.7053213e-05 0.10422302)
(0.0019962553 5.4005918e-06 0.13195934)
(0.0025708794 7.8795018e-05 0.15798939)
(0.0031044915 0.00016778118 0.1818396)
(0.0035482555 0.00026725978 0.20309031)
(0.0038616558 0.000370044 0.22140889)
(0.004033216 0.00046065217 0.23658021)
(0.0040383656 0.00053378015 0.24853011)
(0.0038694014 0.0005887445 0.25733814)
(0.0035860406 0.00062272042 0.26323642)
(0.0032099011 0.00063400581 0.2665923)
(0.0027658139 0.0006325556 0.26787436)
(0.0022883895 0.00062682846 0.26760596)
(0.0017986087 0.00062971785 0.26631297)
(0.0013608358 0.0006196341 0.26446766)
(0.0010021237 0.00058781706 0.26245548)
(0.00071730447 0.00053341805 0.26055713)
(0.00046321704 0.00047574079 0.25893121)
(0.00026591211 0.00046621439 0.25764022)
(9.1393507e-05 0.00041169525 0.25667585)
(-1.6491414e-05 0.00032449416 0.25598247)
(-6.8545619e-05 0.00025352279 0.25549624)
(-8.9615908e-05 0.00015643109 0.25514464)
(-8.1167529e-05 8.5983335e-05 0.25488074)
(-7.0532414e-05 1.0632516e-05 0.25466895)
(-4.7139373e-05 -5.2979458e-05 0.25448807)
(-3.3984678e-05 -0.00011875668 0.25431219)
(-1.1801832e-05 -0.00017660094 0.25413303)
(-6.8217185e-06 -0.00023176622 0.25394709)
(-3.5481493e-06 -0.0002845332 0.25375262)
(-1.8891884e-06 -0.00033313313 0.25354851)
(-1.2036735e-06 -0.00037617237 0.25333385)
(-6.1664508e-07 -0.00041261456 0.25310789)
(2.6374808e-07 -0.00044158357 0.25287008)
(1.6182653e-06 -0.00046250518 0.25262006)
(3.7821905e-06 -0.00047525825 0.25235776)
(6.7205421e-06 -0.00047978714 0.25208343)
(1.0628857e-05 -0.00047642769 0.25179782)
(1.5592901e-05 -0.00046551467 0.25150221)
(2.1336646e-05 -0.00044733664 0.25119859)
(2.7813795e-05 -0.00042229428 0.25088987)
(3.5431813e-05 -0.00039074688 0.25058012)
(4.4406777e-05 -0.00035256226 0.25027507)
(5.5328822e-05 -0.00030739943 0.24998253)
(6.9199573e-05 -0.00025428091 0.24971329)
(8.6671908e-05 -0.00019468386 0.24948249)
(0.00012726077 -9.9074939e-05 0.24929566)
(0.00018787479 -1.7445577e-05 0.015688974)
(0.00057686463 -0.00010870438 0.045664709)
(0.00095325068 -0.00021068757 0.07538592)
(0.0013198468 -0.00021053104 0.104395)
(0.0016685611 -4.2455719e-05 0.13221438)
(0.0019490469 0.00016191653 0.15833156)
(0.0021408606 0.00039338164 0.18225641)
(0.0022440418 0.00064035089 0.20354992)
(0.002223015 0.00081068864 0.22186227)
(0.0021049718 0.00095020455 0.23696772)
(0.0019239283 0.0011544404 0.24878519)
(0.0017794686 0.0011994399 0.25741058)
(0.0016222445 0.00097908535 0.263123)
(0.0013474083 0.00068379958 0.26630656)
(0.0010212464 0.00046945995 0.26745409)
(0.00071806269 0.00045801879 0.26709805)
(0.00048352038 0.00050481553 0.26576604)
(0.00025171637 0.00043516989 0.2639216)
(4.8569843e-05 0.000405602 0.26193821)
(-7.174036e-05 0.00039940066 0.26007698)
(-0.00010388729 0.00037930489 0.25849367)
(-9.5876672e-05 0.00031379017 0.25724491)
(-6.0937522e-05 0.00022240995 0.25631933)
(-3.681375e-05 0.0001536022 0.25566297)
(-4.6808746e-06 0.00010126048 0.25520982)
(4.8097056e-06 5.3027942e-05 0.25489323)
(1.1127182e-05 1.7768282e-07 0.25465738)
(1.2113703e-05 -5.6509293e-05 0.25445987)
(9.5797431e-06 -0.00011152129 0.25427615)
(5.8181869e-06 -0.00016582051 0.25409411)
(4.5674809e-06 -0.00021938317 0.25390746)
(4.3203967e-06 -0.00027040378 0.25371281)
(4.6195821e-06 -0.00031701147 0.25350835)
(4.9710845e-06 -0.00035872332 0.25329305)
(5.3217023e-06 -0.00039527262 0.25306622)
(5.5258989e-06 -0.00042572881 0.25282708)
(5.8745709e-06 -0.00044765634 0.25257519)
(6.5587392e-06 -0.00046178422 0.25231085)
(7.3962093e-06 -0.0004677327 0.25203415)
(8.6747906e-06 -0.00046572039 0.25174565)
(1.0048456e-05 -0.00045698445 0.25144692)
(1.1739276e-05 -0.00043966967 0.25114007)
(1.4004469e-05 -0.00041385713 0.25082733)
(1.6586373e-05 -0.00038266903 0.25051416)
(1.9176686e-05 -0.000346112 0.25020437)
(2.2042362e-05 -0.00030260447 0.24990556)
(2.5236107e-05 -0.00025275111 0.24962771)
(2.9186995e-05 -0.00019388578 0.24938329)
(3.4824593e-05 -0.00012458995 0.24918987)
(4.2718041e-05 -4.4556608e-05 0.24907051)
(-0.00023257482 -2.0538643e-05 0.015691297)
(-0.00059993947 -1.8249392e-05 0.045669293)
(-0.00096420554 6.6200661e-05 0.075394847)
(-0.0013498823 0.00013478018 0.10440817)
(-0.0016996894 9.6221864e-05 0.13222552)
(-0.0019811134 -5.4757568e-06 0.15833417)
(-0.0021802471 -0.00011233301 0.18224685)
(-0.0022840939 -0.00022221496 0.20352735)
(-0.0022709544 -0.0003317906 0.2218271)
(-0.0021565685 -0.00043778766 0.23692172)
(-0.0019377427 -0.00053914514 0.24873605)
(-0.0017376596 -0.00038251703 0.25736722)
(-0.0015989895 1.0571336e-05 0.26309683)
(-0.0013427423 0.00029596508 0.26629631)
(-0.0010437908 0.00050738848 0.26745298)
(-0.00074810705 0.00052360817 0.26710386)
(-0.00047248676 0.00048269728 0.26577243)
(-0.00026010616 0.0005624138 0.2639293)
(-5.8695243e-05 0.0005267836 0.26194811)
(7.9527238e-05 0.00039018475 0.26008623)
(0.00012566261 0.00029170157 0.25849917)
(0.00011031334 0.00021682369 0.25724806)
(6.2976746e-05 0.0001660862 0.25631994)
(3.5172446e-05 0.00013779761 0.2556655)
(5.7140696e-06 9.4619945e-05 0.25521498)
(-4.1396659e-06 5.5218898e-05 0.25490083)
(-1.1964725e-05 4.3860844e-06 0.25466307)
(-1.3131943e-05 -5.4335278e-05 0.25446348)
(-1.0589506e-05 -0.00011130534 0.25427909)
(-6.8722575e-06 -0.00016656565 0.25409649)
(-5.5162617e-06 -0.00021913509 0.25390903)
(-5.5555114e-06 -0.00026930004 0.2537137)
(-5.9262121e-06 -0.00031676589 0.2535089)
(-6.2297376e-06 -0.00035963924 0.25329344)
(-6.4859701e-06 -0.00039597057 0.25306637)
(-6.8986791e-06 -0.00042482957 0.25282727)
(-7.3315693e-06 -0.00044727092 0.25257581)
(-7.8100254e-06 -0.00046174348 0.25231147)
(-8.5734993e-06 -0.00046828089 0.25203465)
(-9.4475259e-06 -0.00046678395 0.25174622)
(-1.0807979e-05 -0.0004564398 0.25144713)
(-1.2425797e-05 -0.00043971741 0.25113926)
(-1.4027807e-05 -0.00041718926 0.25082616)
(-1.5909253e-05 -0.00038627318 0.25051047)
(-1.84685e-05 -0.00034724555 0.25019946)
(-2.1521932e-05 -0.00030160834 0.24990048)
(-2.53132e-05 -0.00024824998 0.24962351)
(-3.0024345e-05 -0.00018889138 0.24938255)
(-3.5400927e-05 -0.00012488226 0.24919467)
(-4.2693896e-05 -4.6279471e-05 0.24907548)
(-0.00017246813 -1.7453159e-05 0.015671868)
(-0.00052389314 -7.1420418e-05 0.045606238)
(-0.00094085613 -9.7944004e-05 0.075275495)
(-0.0014353694 -0.00010599078 0.10422188)
(-0.0019892627 -0.00010660866 0.13195659)
(-0.0025558242 -0.00010948332 0.15798424)
(-0.0030814301 -0.00011411498 0.18183141)
(-0.0035177798 -0.0001174608 0.20307884)
(-0.0038273873 -0.00011616201 0.22139456)
(-0.0039869472 -0.00010706454 0.23656431)
(-0.0039948435 -8.7702065e-05 0.24851469)
(-0.0038697035 -5.2345403e-05 0.25732553)
(-0.0036056178 2.3033575e-05 0.26322858)
(-0.0032338547 0.00011866349 0.26659005)
(-0.002781847 0.00021006525 0.26787759)
(-0.0022793603 0.00028410557 0.26761484)
(-0.0017976247 0.0003248041 0.26632523)
(-0.0013341835 0.00034225554 0.26448139)
(-0.0009647529 0.00041026802 0.26246828)
(-0.00071027445 0.00050896347 0.26056728)
(-0.00048316659 0.00055180845 0.25893876)
(-0.00028734967 0.0005704772 0.25764586)
(-9.7429419e-05 0.00048582748 0.25667929)
(1.4383989e-05 0.00037311075 0.25598296)
(6.2309601e-05 0.000286608 0.2554928)
(7.7556091e-05 0.00017480956 0.25513784)
(8.072338e-05 0.00010207894 0.25487516)
(6.4329808e-05 1.8080384e-05 0.25466538)
(4.8924719e-05 -4.4497286e-05 0.25448606)
(3.0815151e-05 -0.00011452704 0.25431134)
(1.3438085e-05 -0.00016995566 0.25413289)
(6.2148696e-06 -0.00022595422 0.25394741)
(2.0630329e-06 -0.00027998522 0.25375328)
(-6.4248791e-08 -0.00032988455 0.25354941)
(-1.0830704e-06 -0.00037405273 0.25333495)
(-1.6599671e-06 -0.00041127602 0.25310915)
(-2.2439421e-06 -0.00044081242 0.25287145)
(-3.4882879e-06 -0.0004623088 0.25262145)
(-5.328139e-06 -0.00047541053 0.25235905)
(-8.2039015e-06 -0.00048031813 0.25208452)
(-1.191579e-05 -0.00047713073 0.25179857)
(-1.6505877e-05 -0.00046626179 0.25150251)
(-2.2175634e-05 -0.00044819634 0.25119839)
(-2.9019889e-05 -0.00042323036 0.25088922)
(-3.6768762e-05 -0.00039140157 0.25057923)
(-4.5686778e-05 -0.00035284212 0.25027422)
(-5.6323311e-05 -0.00030731709 0.24998197)
(-6.9411883e-05 -0.00025384379 0.24971314)
(-8.6407252e-05 -0.00019432023 0.24948258)
(-0.00012727966 -9.9037075e-05 0.24929564)
(-7.9491426e-05 7.7520345e-06 0.015689783)
(-0.00028357735 -2.0562885e-05 0.045651194)
(-0.00058251378 -3.9027177e-05 0.075337314)
(-0.00099265558 -4.6229581e-05 0.1042871)
(-0.0014964523 -4.7831528e-05 0.13200948)
(-0.0020662246 -4.4347035e-05 0.15800918)
(-0.0026665302 -3.3685962e-05 0.18181699)
(-0.0032594167 -1.4698248e-05 0.20302325)
(-0.0038028054 1.2973073e-05 0.2213104)
(-0.0042597856 4.8404534e-05 0.23648054)
(-0.0045976658 9.0260244e-05 0.24847409)
(-0.0047957035 0.00013700357 0.25737682)
(-0.0048439175 0.00018744549 0.26341404)
(-0.0047446968 0.0002397912 0.26693203)
(-0.0045069989 0.00029340461 0.26836859)
(-0.0041566828 0.00034581531 0.26821551)
(-0.0037177326 0.00039763175 0.26697648)
(-0.0032518071 0.00044150038 0.26512789)
(-0.002765504 0.00047262572 0.26306523)
(-0.0022873325 0.00051097008 0.26108683)
(-0.0018509071 0.00054025437 0.25938001)
(-0.0014701609 0.00054018499 0.25802807)
(-0.0012020533 0.00056658584 0.25703205)
(-0.00097076661 0.00055855938 0.25633774)
(-0.00075510202 0.00053175193 0.255864)
(-0.00054418634 0.00045688154 0.25554097)
(-0.00035771008 0.00035874074 0.25529667)
(-0.00023673307 0.00028125692 0.25510005)
(-0.00013641007 0.0001780123 0.25491409)
(-7.294982e-05 8.9455745e-05 0.25474112)
(-1.8434874e-05 -1.0416888e-05 0.254566)
(-1.5842551e-05 -8.1873215e-05 0.25439257)
(-2.5453287e-06 -0.00015664012 0.25421477)
(5.9187247e-06 -0.00022698492 0.25403137)
(1.4759738e-05 -0.00028950626 0.25384083)
(2.3510302e-05 -0.00034305977 0.25364178)
(2.7168962e-05 -0.00039029479 0.25343306)
(3.1802281e-05 -0.00042747338 0.25321407)
(3.3131002e-05 -0.00045550841 0.25298373)
(3.1558988e-05 -0.00047534215 0.252742)
(2.7623059e-05 -0.000486459 0.25248827)
(2.1951005e-05 -0.00048917727 0.25222317)
(1.3484495e-05 -0.00048444912 0.25194723)
(2.6597086e-06 -0.00047293877 0.25166196)
(-1.0524644e-05 -0.00045497074 0.25136923)
(-2.6266732e-05 -0.00043053917 0.25107217)
(-4.4831046e-05 -0.00040020619 0.2507759)
(-7.1620134e-05 -0.00036016142 0.25048316)
(-9.0533506e-05 -0.00032276277 0.25022201)
(-0.00019950124 -0.00022473299 0.24992159)
(-5.5354474e-05 1.0699527e-05 0.015726114)
(-0.00019727713 -6.2878662e-06 0.045757065)
(-0.00040754622 -8.7357381e-06 0.075512154)
(-0.00072200756 -1.8213551e-05 0.10452831)
(-0.0011089396 -1.2742121e-05 0.13231165)
(-0.0015705005 -2.2809696e-05 0.15836301)
(-0.0020700793 -1.6354553e-05 0.18220955)
(-0.0026000142 -1.6223846e-05 0.20343888)
(-0.0031206432 5.9967561e-06 0.22173346)
(-0.0036232301 2.2611861e-05 0.23689898)
(-0.0040721977 4.1839135e-05 0.24888345)
(-0.0044442729 6.3803157e-05 0.25778215)
(-0.0047180583 0.00010795135 0.26382872)
(-0.0049050421 0.00012426799 0.2673731)
(-0.0049613571 0.00017894457 0.26884945)
(-0.0049269946 0.00022306593 0.26873864)
(-0.0047911834 0.00027182599 0.26752811)
(-0.0045670036 0.00031222337 0.26567466)
(-0.0042898975 0.00036688467 0.26357438)
(-0.003948628 0.00039183408 0.26152662)
(-0.0035695529 0.00042049832 0.25973212)
(-0.0031681432 0.00047148106 0.25829211)
(-0.0027981357 0.00046118604 0.25722448)
(-0.0024055592 0.00046637604 0.25648528)
(-0.0020241372 0.00048256162 0.2560019)
(-0.0017513368 0.00050657349 0.2556957)
(-0.0015149695 0.00047840267 0.2555006)
(-0.001270963 0.00042447629 0.25535505)
(-0.0010496549 0.00037332867 0.25523501)
(-0.00085863586 0.0002729461 0.25511696)
(-0.00066318767 0.00022860913 0.25499761)
(-0.00051023608 9.9761645e-05 0.25487399)
(-0.00033667669 4.2839065e-05 0.25473898)
(-0.00023230064 -3.4740188e-05 0.25460217)
(-0.0001432891 -0.0001208896 0.25445928)
(-7.6087489e-05 -0.00017015042 0.25430819)
(-3.99235e-05 -0.00023824439 0.25415455)
(-7.6563003e-06 -0.00032130445 0.253989)
(6.9837103e-05 -0.00030713438 0.25381942)
(6.1008136e-05 -0.00037722315 0.25364213)
(7.9147073e-05 -0.00040351433 0.2534555)
(7.6735318e-05 -0.00043721477 0.25325627)
(9.3680585e-05 -0.00042717019 0.25305055)
(7.3462322e-05 -0.00044667766 0.25283433)
(6.7697025e-05 -0.0004387644 0.25261165)
(4.3861254e-05 -0.0004388387 0.25237949)
(2.7637299e-05 -0.00042433084 0.25214819)
(-1.1630061e-05 -0.00040470702 0.25190196)
(-2.361305e-05 -0.00039539574 0.25170102)
(-0.00015444569 -0.00033337529 0.25139512)
(-4.6156634e-05 1.1759251e-05 0.015748639)
(-0.00016637928 -3.8434092e-06 0.045826108)
(-0.00034591893 6.4930277e-06 0.075627999)
(-0.00061498188 -8.8970179e-06 0.10469479)
(-0.00094519427 5.2824743e-06 0.13252973)
(-0.0013337908 -1.8362006e-05 0.15863133)
(-0.0017583548 -1.0506026e-05 0.18252357)
(-0.0022060047 -2.4351134e-05 0.20379245)
(-0.0026505327 1.6626218e-06 0.22211153)
(-0.0030803007 5.9066399e-06 0.23729014)
(-0.0034798554 1.0448497e-05 0.24927225)
(-0.0038327243 1.3926051e-05 0.25815371)
(-0.0041228087 5.6069922e-05 0.26417355)
(-0.0043603816 3.4148671e-05 0.26768744)
(-0.0045214311 9.3230479e-05 0.26913542)
(-0.0046141827 0.00012241057 0.26899648)
(-0.0046430655 0.00016555702 0.26777073)
(-0.004606959 0.00019027969 0.26590075)
(-0.0045328384 0.00026038606 0.26378404)
(-0.0043849339 0.00027724895 0.26171757)
(-0.0042050372 0.00031087774 0.25989702)
(-0.0039707401 0.0003975335 0.25841962)
(-0.0037227361 0.00037538736 0.25732562)
(-0.0034524379 0.00038322753 0.25656635)
(-0.0031430963 0.00043477023 0.25600378)
(-0.0028231244 0.00043766113 0.25573421)
(-0.0025014478 0.00043976692 0.2555666)
(-0.0021853871 0.00039120272 0.25541584)
(-0.0018626035 0.00038956933 0.25532564)
(-0.0015731661 0.00027782204 0.2552425)
(-0.0012755362 0.00029522926 0.25516162)
(-0.0010240576 0.00014835514 0.25516326)
(-0.00076995722 0.0001368598 0.25495927)
(-0.00054600079 6.1761072e-05 0.25491676)
(-0.00036704741 -3.1395757e-05 0.25487277)
(-0.00020301394 -7.1460334e-05 0.25472664)
(-7.9943265e-05 -0.00015604923 0.25467022)
(-4.2135423e-05 -0.00026807625 0.25460889)
(5.6105275e-05 -0.00019126187 0.25448758)
(0.00010776257 -0.00031228905 0.25437616)
(0.00014841486 -0.00034111322 0.25427374)
(0.00014854961 -0.00039507163 0.25420818)
(0.00016140952 -0.00036497559 0.25407109)
(0.00014542361 -0.00040767709 0.25397136)
(0.00013203625 -0.0003968353 0.25384233)
(0.00010427464 -0.00041143545 0.25372266)
(7.9915988e-05 -0.0003992834 0.25360737)
(4.5731126e-05 -0.00039170732 0.25347054)
(2.5582902e-05 -0.00039336568 0.25339849)
(-4.261279e-05 -0.00035901822 0.25331016)
(2.7572999e-05 8.4767076e-07 0.013944058)
(5.8049843e-05 -1.5287761e-05 0.041151113)
(0.00015585188 1.3992031e-06 0.0688355)
(0.0002827164 -1.2622971e-05 0.096711285)
(0.00044164179 2.6192013e-06 0.12442892)
(0.0006352739 -1.8138484e-05 0.15157496)
(0.00084577458 -9.9240145e-06 0.17767704)
(0.0010620453 -2.4162168e-05 0.20221846)
(0.0012580687 -3.0496793e-06 0.22466196)
(0.0014183269 -6.285414e-06 0.24448563)
(0.0015213834 -1.4171161e-05 0.26122663)
(0.0015446767 -2.9450293e-05 0.27453218)
(0.0014687172 -1.4817195e-05 0.28420857)
(0.0013054416 -7.2310017e-05 0.29026102)
(0.0010410013 -6.0507461e-05 0.29291495)
(0.00070407284 -9.1204931e-05 0.29261337)
(0.00033898854 -0.0001269085 0.28998205)
(0.00010217846 -0.0001790338 0.2857609)
(-0.00011713439 -0.00017863909 0.28073325)
(-0.00045056737 -0.00025210044 0.27564153)
(-0.00075624021 -0.00029879603 0.27101467)
(-0.0010340452 -0.00028829459 0.26716134)
(-0.0012291337 -0.00038850697 0.26418667)
(-0.001359344 -0.00044228464 0.26203096)
(-0.0014584887 -0.00043570205 0.26053768)
(-0.0015151357 -0.00046790368 0.25956471)
(-0.0015497362 -0.00052031208 0.25891484)
(-0.0015475257 -0.00057826728 0.2584382)
(-0.0015371331 -0.00059240265 0.25806946)
(-0.0014810905 -0.0006778628 0.25774812)
(-0.0014609385 -0.00062267533 0.25745351)
(-0.0013748333 -0.00070959921 0.25719318)
(-0.0013126112 -0.00064137323 0.25683434)
(-0.0012507457 -0.00063677711 0.256569)
(-0.0011641619 -0.00064356756 0.25631947)
(-0.0010889469 -0.00059798559 0.25601852)
(-0.0010373634 -0.00062048976 0.25579643)
(-0.00088999306 -0.00066645212 0.25558016)
(-0.00084796051 -0.00052241338 0.25533383)
(-0.00075617855 -0.00058705489 0.25510642)
(-0.00069111434 -0.00057332773 0.25490794)
(-0.00058359561 -0.00059157118 0.25474905)
(-0.00052308692 -0.00053190476 0.25454511)
(-0.00043345816 -0.00055188658 0.25437969)
(-0.00036589099 -0.00052292368 0.2542015)
(-0.00028007905 -0.00052284107 0.25403286)
(-0.00021929181 -0.0005000055 0.25388486)
(-0.00012423266 -0.00048305585 0.25369988)
(-0.00010256387 -0.00048020997 0.25361973)
(5.3901356e-05 -0.00045094293 0.25346103)
(3.3666584e-05 -3.0035193e-06 0.01392056)
(7.6776567e-05 -1.6743484e-05 0.041080332)
(0.00018398133 -8.2853107e-06 0.06871506)
(0.00033546117 -1.590597e-05 0.096538783)
(0.00052265503 -1.0019977e-05 0.12420233)
(0.00075569805 -2.0121451e-05 0.15129274)
(0.0010050135 -1.6837496e-05 0.17733939)
(0.0012666805 -2.2821743e-05 0.20182735)
(0.0015040619 -1.1902251e-05 0.22422221)
(0.0017068805 -1.1710111e-05 0.24400451)
(0.0018365947 -1.5942125e-05 0.26071476)
(0.0018663037 -2.6154638e-05 0.27400195)
(0.0017734674 -2.5019603e-05 0.28367144)
(0.0015738955 -6.318182e-05 0.28972427)
(0.0012374327 -7.6702841e-05 0.29238073)
(0.00083189685 -0.00011551475 0.29207748)
(0.00040214442 -0.00017529696 0.28943675)
(9.7402975e-05 -0.00020380625 0.28520017)
(-0.00016290002 -0.00020939796 0.28016584)
(-0.00053232063 -0.00027184126 0.27507651)
(-0.00089023554 -0.00032990906 0.27045926)
(-0.0012071212 -0.00036998396 0.26661957)
(-0.0014285398 -0.00046557109 0.26365469)
(-0.0015995465 -0.00054749473 0.26150473)
(-0.0017271004 -0.0006055092 0.26001747)
(-0.0017804319 -0.00068153854 0.25901091)
(-0.0017608065 -0.00075400168 0.25831794)
(-0.0017011135 -0.00082157735 0.25780299)
(-0.0016236572 -0.00085801834 0.25738429)
(-0.0014849702 -0.00090125451 0.25700597)
(-0.0013752297 -0.00086707103 0.25665148)
(-0.0012089973 -0.00088565405 0.25630466)
(-0.0011071255 -0.00082936659 0.25596108)
(-0.00097560894 -0.00079917048 0.25564169)
(-0.00084936159 -0.00077561206 0.25533773)
(-0.0007502466 -0.0007311345 0.2550459)
(-0.00064416977 -0.0007188469 0.25476433)
(-0.00052620993 -0.00071413256 0.25448382)
(-0.00052065867 -0.00062735939 0.254219)
(-0.00040740408 -0.00064021636 0.25395537)
(-0.00035783179 -0.00061999247 0.25369521)
(-0.00028628863 -0.0006131891 0.25342975)
(-0.00026819942 -0.0005724399 0.25317171)
(-0.00019933237 -0.00056827499 0.25290662)
(-0.00016697659 -0.00054251517 0.25264454)
(-0.00010535834 -0.00052745638 0.25237077)
(-7.8429415e-05 -0.00050603454 0.25211187)
(1.7600219e-05 -0.00047364951 0.25180845)
(-2.0274064e-05 -0.0004763699 0.25160647)
(0.00025527216 -0.00040885669 0.25117281)
(4.9590518e-05 -8.0631603e-06 0.013883296)
(0.00012605757 -2.3089231e-05 0.040970256)
(0.00027224995 -2.2748431e-05 0.068530701)
(0.00047468184 -2.4926587e-05 0.096279358)
(0.00072916865 -2.6296984e-05 0.12386763)
(0.0010241046 -2.6252435e-05 0.15088386)
(0.0013382303 -2.4302881e-05 0.17685867)
(0.0016447761 -2.0432687e-05 0.20127861)
(0.001908804 -1.5139278e-05 0.22360961)
(0.0020943902 -1.0388966e-05 0.24333114)
(0.0021652585 -8.8827189e-06 0.25997957)
(0.0020951736 -1.3591955e-05 0.27319751)
(0.0018722613 -2.7421723e-05 0.28278341)
(0.001506852 -5.4024021e-05 0.28873398)
(0.001032043 -9.5885215e-05 0.29127044)
(0.00052377659 -0.00016372964 0.29083913)
(0.00012341323 -0.00017733284 0.2880767)
(-0.0002175636 -0.00017768598 0.28376981)
(-0.00064702952 -0.00027919246 0.27874278)
(-0.0010796233 -0.00040517152 0.27369636)
(-0.0014386834 -0.0005456429 0.26914492)
(-0.0016846177 -0.00069744875 0.26537388)
(-0.0018061656 -0.00084894004 0.26246255)
(-0.0018207957 -0.0009868746 0.26033369)
(-0.0017454071 -0.0010990318 0.25883683)
(-0.0016211998 -0.0011778233 0.25779212)
(-0.0014707503 -0.0012217034 0.25704632)
(-0.0013448787 -0.0012424534 0.25648498)
(-0.0011745576 -0.0012106311 0.25602682)
(-0.00094293427 -0.0011439287 0.25563244)
(-0.00076428946 -0.00108375 0.25528477)
(-0.00061881182 -0.0010266662 0.25497882)
(-0.00050701026 -0.00097201946 0.25470214)
(-0.00041659904 -0.00092070301 0.25442963)
(-0.00034420422 -0.00087200265 0.25415712)
(-0.00028521846 -0.00082667527 0.25388302)
(-0.00023351513 -0.00078373429 0.25360631)
(-0.00019367678 -0.00074167716 0.2533269)
(-0.00015333234 -0.00070551781 0.25304341)
(-0.00011894102 -0.00067116797 0.25275536)
(-8.7013376e-05 -0.00063873389 0.25246164)
(-5.9750573e-05 -0.00060629312 0.25216245)
(-3.1226392e-05 -0.00057570104 0.25185718)
(-4.696914e-06 -0.00054406402 0.25154637)
(2.3189536e-05 -0.0005120616 0.2512305)
(5.193171e-05 -0.0004771129 0.25091112)
(8.0964888e-05 -0.00044295797 0.25059284)
(0.00012873101 -0.0003949777 0.25026805)
(0.00012155363 -0.00037987132 0.24999087)
(0.0003382024 -0.000261713 0.24958973)
(9.7532978e-05 -1.5205125e-05 0.013843873)
(0.00025610262 -3.9731167e-05 0.040858813)
(0.00046089035 -3.9158781e-05 0.068351735)
(0.00071778592 -3.0045021e-05 0.096038577)
(0.0010176819 -1.729621e-05 0.12357093)
(0.0013304276 -5.2329124e-06 0.1505361)
(0.0016170445 5.8774028e-06 0.17646116)
(0.0018556625 1.2303996e-05 0.20082561)
(0.0020096818 1.0838363e-05 0.22308507)
(0.0020454652 2.0022505e-06 0.24270694)
(0.0019422509 -1.5563064e-05 0.25921623)
(0.0017022036 -4.2814963e-05 0.2722485)
(0.0013255767 -7.2612664e-05 0.28160458)
(0.00085565152 -0.00011903976 0.28729767)
(0.00037574417 -0.00016396008 0.28957998)
(-8.0786332e-06 -0.00014940616 0.28893503)
(-0.00035730986 -0.00017902371 0.28605042)
(-0.00070936902 -0.00037229299 0.28173315)
(-0.0010200032 -0.00061042595 0.27678012)
(-0.0012094342 -0.00083680375 0.2718628)
(-0.0012674539 -0.0010282388 0.26745522)
(-0.0012082045 -0.0011711198 0.26381364)
(-0.0010682905 -0.0012596112 0.2610007)
(-0.00088392254 -0.0012955528 0.25895105)
(-0.00069252419 -0.0012851329 0.25751755)
(-0.00052645175 -0.001244476 0.25654195)
(-0.00035441267 -0.0011605232 0.25587431)
(-0.00016212633 -0.0010390571 0.25540466)
(-8.8823302e-05 -0.0009648676 0.25505136)
(-9.9975133e-05 -0.00094596345 0.25476566)
(-9.9950142e-05 -0.00091757582 0.2544995)
(-9.2998211e-05 -0.00088410272 0.25423717)
(-8.0335387e-05 -0.00084843818 0.25397364)
(-6.5906508e-05 -0.00081168386 0.25370655)
(-5.1399633e-05 -0.0007746781 0.25343494)
(-3.7197427e-05 -0.0007380542 0.25315816)
(-2.3689434e-05 -0.00070197884 0.25287568)
(-1.0564533e-05 -0.00066657265 0.25258699)
(1.7339112e-06 -0.00063180947 0.25229178)
(1.4060162e-05 -0.00059769146 0.25198987)
(2.5618482e-05 -0.00056336469 0.25168147)
(3.666127e-05 -0.0005285658 0.25136708)
(4.8341266e-05 -0.00049315447 0.25104782)
(5.9780218e-05 -0.00045573457 0.25072574)
(7.2238288e-05 -0.00041611788 0.25040412)
(8.6151046e-05 -0.00037307524 0.25008777)
(0.00010255169 -0.00032557434 0.24978327)
(0.00012145872 -0.00027174779 0.24950006)
(0.00014388717 -0.0002204854 0.24925123)
(0.0002126155 -0.00010900372 0.24902501)
(0.00011132529 -1.3609526e-05 0.013825931)