/*--------------------------------*- C++ -*----------------------------------*\
| =========                 |                                                 |
| \\      /  F ield         | OpenFOAM: The Open Source CFD Toolbox           |
|  \\    /   O peration     | Version:  3.0.1                                 |
|   \\  /    A nd           | Web:      www.OpenFOAM.org                      |
|    \\/     M anipulation  |                                                 |
\*---------------------------------------------------------------------------*/
FoamFile
{
    version     2.0;
    format      ascii;
    class       volVectorField;
    location    "2629";
    object      U;
}
// * * * * * * * * * * * * * * * * * * * * * * * * * * * * * * * * * * * * * //

dimensions      [0 1 -1 0 0 0 0];

internalField   nonuniform List<vector> 
80000
(
(0.00030713856 1.3645107e-05 0.071095713)
(0.00080897638 1.0414381e-05 0.16115032)
(0.0015115348 3.3684307e-05 0.21847967)
(0.0018817105 3.0003317e-05 0.2534109)
(0.0020248931 5.6286551e-05 0.27393331)
(0.0020645915 3.9834469e-05 0.28557451)
(0.0020322565 6.514676e-05 0.29181389)
(0.0019706706 7.1875497e-05 0.29473674)
(0.001933648 6.1421784e-05 0.29554781)
(0.0018393175 0.00012328215 0.2948177)
(0.0017609953 0.00010097932 0.29305862)
(0.0017176866 6.649754e-05 0.29042366)
(0.0016172021 9.2272515e-05 0.28683585)
(0.0015690136 4.9114978e-05 0.28268322)
(0.0014913718 3.5666114e-05 0.27764477)
(0.0014444085 2.5500506e-05 0.27196214)
(0.0013496866 4.1056752e-05 0.26529768)
(0.0012958201 1.1009651e-05 0.25825283)
(0.0012234434 2.5249896e-05 0.25013283)
(0.001113914 3.2736252e-05 0.24175931)
(0.0010636066 8.3527294e-06 0.23316012)
(0.00095868748 2.8809402e-05 0.22365882)
(0.00087138499 3.7662835e-05 0.21426072)
(0.00073989885 2.7646334e-05 0.20533004)
(0.00070937467 -3.4653462e-06 0.19643435)
(0.00054689706 3.0961522e-05 0.18781072)
(0.00051622749 -1.3487316e-06 0.17981961)
(0.0003907673 2.4976337e-05 0.17170842)
(0.00032228546 8.5360927e-06 0.16395312)
(0.0002552362 3.9344226e-07 0.1561551)
(0.00016742053 2.321072e-05 0.14799927)
(8.500319e-05 3.9807144e-06 0.14033969)
(7.4053223e-05 -4.8872668e-06 0.13160102)
(2.1899842e-06 1.7532356e-05 0.12051375)
(-5.3594424e-05 2.1617729e-06 0.10875386)
(-4.0083224e-05 2.9324089e-06 0.094037051)
(-0.00020064847 -6.1079801e-06 0.078398233)
(5.7831146e-05 -3.0755958e-06 0.056989934)
(-0.00046416023 6.9821107e-05 0.032790875)
(-0.00046047076 -2.8210074e-05 0.016505288)
(0.00037041432 -1.1950846e-05 0.070944191)
(0.0010418556 -2.2075245e-05 0.16065385)
(0.0018976498 1.3996097e-05 0.21763886)
(0.0023654309 2.6592006e-05 0.25223411)
(0.0025463489 5.2757538e-05 0.27239138)
(0.002569531 5.6049806e-05 0.28354617)
(0.0024539534 7.5690289e-05 0.28914841)
(0.002303483 8.3212662e-05 0.29126584)
(0.0021333107 7.9179773e-05 0.29107815)
(0.0019027089 0.00010822534 0.28923974)
(0.0017389902 9.2912337e-05 0.28611356)
(0.0015556518 6.9874684e-05 0.28188287)
(0.0013276065 7.7633669e-05 0.27667006)
(0.0011783979 5.0566455e-05 0.27056744)
(0.00097074806 3.8360287e-05 0.26362988)
(0.00080792172 3.0477505e-05 0.25593997)
(0.00060956675 3.5439281e-05 0.24758356)
(0.00048653568 1.7059542e-05 0.23868763)
(0.00031208023 2.3007097e-05 0.22936408)
(0.00017604979 2.5453742e-05 0.21979881)
(8.1230289e-05 1.0486447e-05 0.21010452)
(-6.5069384e-05 2.0830047e-05 0.20040188)
(-0.00013897218 2.5357729e-05 0.19096838)
(-0.00024551438 1.6927584e-05 0.18188479)
(-0.00025673626 -6.4045316e-07 0.17313229)
(-0.00040638306 1.7707038e-05 0.16477934)
(-0.00035793974 -6.4798837e-07 0.15680025)
(-0.00048318167 1.3725635e-05 0.14908551)
(-0.00044502183 3.6723309e-06 0.1415731)
(-0.00048318392 -1.3540381e-06 0.13399122)
(-0.00049921428 1.2133914e-05 0.12630144)
(-0.00047721402 -3.4369725e-07 0.11820298)
(-0.00045241932 -5.4392848e-06 0.10934136)
(-0.00047223405 7.8586371e-06 0.099649887)
(-0.00040028976 -1.9883513e-06 0.08884379)
(-0.00038594135 -2.2345364e-06 0.076592138)
(-0.00034340308 -8.4455541e-06 0.062877414)
(-0.00024532374 -6.9847562e-06 0.047350608)
(-0.00033034933 2.9762162e-05 0.030422024)
(3.9753321e-05 -2.4197023e-05 0.011158126)
(0.00061618599 -6.3536602e-05 0.070794911)
(0.0014565853 -6.3059551e-05 0.16023765)
(0.0023109394 3.2417711e-05 0.21698354)
(0.0026033467 8.049569e-05 0.25122436)
(0.002481684 0.0001071182 0.270727)
(0.0021103259 0.00011480177 0.28083297)
(0.0016309654 0.00011079922 0.28498388)
(0.0011476713 9.8649707e-05 0.28528951)
(0.0007030015 8.3282806e-05 0.28299475)
(0.00032733027 6.6920699e-05 0.27881738)
(3.0336102e-05 4.9622141e-05 0.27319054)
(-0.00021385507 3.5981085e-05 0.26641603)
(-0.00039297918 2.5283649e-05 0.25879297)
(-0.00051935399 1.6277382e-05 0.25050979)
(-0.00061017484 1.1124262e-05 0.241737)
(-0.00066160763 7.8023798e-06 0.23263797)
(-0.00068400242 5.1152912e-06 0.22336359)
(-0.00068097784 3.2760037e-06 0.21402772)
(-0.00066785497 2.8241214e-06 0.20473864)
(-0.00062893721 1.544536e-06 0.19557988)
(-0.00059062715 9.6271722e-07 0.1866271)
(-0.00054241084 1.0274582e-06 0.1779479)
(-0.00048838158 -2.6319452e-07 0.1695783)
(-0.00043014557 -1.5771123e-06 0.1615379)
(-0.00038186248 -1.3332618e-06 0.15382391)
(-0.00032842384 -1.4433593e-06 0.14642119)
(-0.0002720871 -2.1155536e-06 0.13925847)
(-0.00023315553 -1.9109699e-06 0.13227459)
(-0.00017267015 -3.1250212e-06 0.12534831)
(-0.00014329923 -2.6467453e-06 0.11835999)
(-9.5534941e-05 -3.1755189e-06 0.11116762)
(-5.8485126e-05 -4.2820946e-06 0.10357824)
(-3.1631663e-05 -3.6390031e-06 0.095423533)
(-2.0377606e-06 -4.188155e-06 0.086514778)
(2.6961707e-05 -5.0434067e-06 0.076645456)
(3.6040472e-05 -5.1531469e-06 0.065686265)
(6.2170088e-05 -5.8093078e-06 0.053482844)
(5.2787541e-05 -5.6103391e-06 0.039928322)
(6.7399384e-05 -9.8588082e-06 0.024943539)
(6.6344031e-05 -1.371952e-05 0.0085064529)
(0.00083856586 -5.8175033e-05 0.070848219)
(0.0015174364 1.1376017e-05 0.16059213)
(0.0019045082 0.00015521309 0.2175055)
(0.0017208543 0.000191224 0.25143263)
(0.0011965631 0.00016782435 0.27000048)
(0.00059463707 0.00012134962 0.27864036)
(9.026883e-05 7.4834264e-05 0.28098997)
(-0.00024447579 3.7982569e-05 0.27936718)
(-0.00041030749 1.3090322e-05 0.27523473)
(-0.00044286072 -1.218626e-06 0.2694696)
(-0.00038766707 -8.062076e-06 0.26258109)
(-0.00028538782 -9.8337465e-06 0.25488132)
(-0.00016342144 -8.7724725e-06 0.2465872)
(-4.340104e-05 -6.6963226e-06 0.23786227)
(6.1317535e-05 -4.2295982e-06 0.22884078)
(0.0001478294 -2.1460366e-06 0.21967796)
(0.00021220908 -4.8299195e-07 0.2104759)
(0.00025648641 6.7863768e-07 0.2013207)
(0.00028199659 1.4979918e-06 0.1922859)
(0.00029159877 1.7996615e-06 0.18343145)
(0.00028630113 1.7705509e-06 0.1748042)
(0.00027090114 1.5592778e-06 0.166437)
(0.00024829813 1.0917232e-06 0.15834675)
(0.00021690413 7.2356158e-07 0.15053557)
(0.00018414349 2.885479e-07 0.14298869)
(0.0001494358 -7.1083548e-08 0.13567352)
(0.0001155844 -6.7249609e-07 0.12853833)
(8.127966e-05 -9.9956395e-07 0.12151478)
(5.1150108e-05 -1.4456723e-06 0.11451776)
(1.9842256e-05 -1.6937379e-06 0.10744713)
(-3.1978921e-06 -1.9069299e-06 0.10019034)
(-2.9208057e-05 -2.0378209e-06 0.092640381)
(-4.8864908e-05 -1.9877194e-06 0.084678778)
(-6.3982012e-05 -1.9136063e-06 0.076178157)
(-7.7153174e-05 -1.7283649e-06 0.067019704)
(-8.3883092e-05 -1.3132162e-06 0.057093705)
(-8.5623993e-05 -8.7517105e-07 0.046294953)
(-7.7933596e-05 -5.2498122e-07 0.034517297)
(-5.90072e-05 3.2658936e-07 0.021639277)
(-3.0270757e-05 1.32226e-06 0.007498982)
(0.0004311727 1.7093518e-05 0.071020665)
(0.0006273226 0.00014452126 0.16133951)
(0.00059367641 0.00023334801 0.21848416)
(0.00037829301 0.00020102934 0.25204634)
(0.00014211587 0.00011913812 0.26975961)
(5.6517451e-06 4.7855346e-05 0.27731692)
(-7.6043848e-06 6.6358434e-06 0.27858643)
(5.916923e-05 -9.1494038e-06 0.27601739)
(0.00014543137 -1.0528995e-05 0.27107378)
(0.00020697233 -6.3980606e-06 0.26460895)
(0.00022386952 -1.6447634e-06 0.25712323)
(0.00019556074 1.9914128e-06 0.24892627)
(0.00013350247 4.1680188e-06 0.24022894)
(5.1792604e-05 5.092492e-06 0.23119109)
(-3.6138621e-05 5.2406542e-06 0.22194447)
(-0.00011992862 4.8952575e-06 0.21260935)
(-0.00019303931 4.2762426e-06 0.20329151)
(-0.00025165314 3.5611568e-06 0.19407597)
(-0.00029466159 2.78353e-06 0.18503205)
(-0.00032204086 1.9342783e-06 0.17621281)
(-0.0003356343 1.1166797e-06 0.16765594)
(-0.00033673461 3.8923332e-07 0.1593838)
(-0.00032791043 -3.0299307e-07 0.1514037)
(-0.00031056777 -8.6567018e-07 0.14370835)
(-0.00028683425 -1.2850361e-06 0.13627612)
(-0.00025853207 -1.659384e-06 0.12907143)
(-0.00022760311 -1.9883138e-06 0.12204531)
(-0.00019585462 -2.1997004e-06 0.11513673)
(-0.00016330421 -2.3652829e-06 0.10827342)
(-0.00013215819 -2.3910142e-06 0.10137279)
(-0.00010163387 -2.3714765e-06 0.094343506)
(-7.3222181e-05 -2.3008292e-06 0.087085575)
(-4.5973531e-05 -2.0684592e-06 0.079492673)
(-2.1135649e-05 -1.8560828e-06 0.071450566)
(1.8297318e-06 -1.6283806e-06 0.06283842)
(2.2312034e-05 -1.4888328e-06 0.053530885)
(4.1612567e-05 -1.5908687e-06 0.043407551)
(5.5825686e-05 -1.9706197e-06 0.032342398)
(6.0472442e-05 -2.6320758e-06 0.020218109)
(3.9105676e-05 -2.2894781e-06 0.0069389571)
(-0.00043117342 1.7093573e-05 0.071020664)
(-0.00062732384 0.00014452143 0.16133951)
(-0.00059367725 0.00023334824 0.21848415)
(-0.00037829344 0.00020102911 0.25204634)
(-0.00014211569 0.00011913801 0.26975961)
(-5.6514488e-06 4.7855585e-05 0.27731691)
(7.6048192e-06 6.6358392e-06 0.27858643)
(-5.9168672e-05 -9.1493092e-06 0.27601739)
(-0.000145431 -1.0529055e-05 0.27107378)
(-0.00020697212 -6.3983261e-06 0.26460895)
(-0.00022386934 -1.6448837e-06 0.25712323)
(-0.00019556065 1.9913996e-06 0.24892627)
(-0.0001335027 4.1679374e-06 0.24022894)
(-5.1792716e-05 5.0923368e-06 0.23119108)
(3.6138621e-05 5.2405322e-06 0.22194446)
(0.00011992893 4.8952383e-06 0.21260935)
(0.00019303952 4.2763478e-06 0.20329151)
(0.00025165325 3.5612127e-06 0.19407596)
(0.00029466172 2.7835558e-06 0.18503205)
(0.00032204074 1.9343024e-06 0.17621281)
(0.00033563407 1.116531e-06 0.16765594)
(0.00033673441 3.8910686e-07 0.1593838)
(0.00032791048 -3.0308132e-07 0.1514037)
(0.00031056795 -8.6570286e-07 0.14370834)
(0.00028683429 -1.28493e-06 0.13627612)
(0.00025853224 -1.659463e-06 0.12907142)
(0.00022760337 -1.9883398e-06 0.12204531)
(0.0001958546 -2.1996357e-06 0.11513673)
(0.0001633041 -2.3652987e-06 0.10827341)
(0.00013215801 -2.39099e-06 0.10137279)
(0.00010163363 -2.3713479e-06 0.094343505)
(7.3222319e-05 -2.3006849e-06 0.087085574)
(4.5973518e-05 -2.0684906e-06 0.079492673)
(2.1135485e-05 -1.8560565e-06 0.071450566)
(-1.8297365e-06 -1.6284214e-06 0.06283842)
(-2.2311977e-05 -1.4889679e-06 0.053530884)
(-4.1613121e-05 -1.5909065e-06 0.04340755)
(-5.5825935e-05 -1.9708369e-06 0.032342397)
(-6.0472186e-05 -2.6318967e-06 0.020218108)
(-3.9106045e-05 -2.28889e-06 0.0069389552)
(-0.00083856604 -5.81751e-05 0.070848215)
(-0.0015174366 1.1375766e-05 0.16059212)
(-0.0019045083 0.00015521291 0.21750549)
(-0.0017208547 0.00019122397 0.25143262)
(-0.0011965637 0.00016782422 0.27000047)
(-0.00059463713 0.00012134955 0.27864035)
(-9.026835e-05 7.4834123e-05 0.28098995)
(0.00024447625 3.7982433e-05 0.27936717)
(0.00041030757 1.3090477e-05 0.27523472)
(0.00044286091 -1.2185532e-06 0.26946959)
(0.00038766745 -8.0621496e-06 0.26258108)
(0.00028538767 -9.8336712e-06 0.25488131)
(0.0001634211 -8.77244e-06 0.24658719)
(4.3400534e-05 -6.6963767e-06 0.23786226)
(-6.131795e-05 -4.2295558e-06 0.22884077)
(-0.00014783008 -2.145992e-06 0.21967796)
(-0.00021220979 -4.8294306e-07 0.21047589)
(-0.00025648671 6.7861756e-07 0.2013207)
(-0.00028199696 1.4979733e-06 0.19228589)
(-0.00029159913 1.7997375e-06 0.18343145)
(-0.00028630123 1.7705512e-06 0.1748042)
(-0.00027090112 1.5592393e-06 0.16643699)
(-0.00024829825 1.0916378e-06 0.15834675)
(-0.00021690434 7.2345388e-07 0.15053556)
(-0.00018414333 2.8855643e-07 0.14298868)
(-0.00014943563 -7.1062678e-08 0.13567352)
(-0.00011558443 -6.7251624e-07 0.12853833)
(-8.1279401e-05 -9.9959178e-07 0.12151477)
(-5.1149803e-05 -1.4455875e-06 0.11451776)
(-1.9842317e-05 -1.6937104e-06 0.10744713)
(3.198146e-06 -1.9069496e-06 0.10019034)
(2.9207882e-05 -2.0377095e-06 0.092640382)
(4.8864923e-05 -1.9876626e-06 0.08467878)
(6.3982262e-05 -1.9136971e-06 0.076178159)
(7.7153026e-05 -1.7282967e-06 0.067019705)
(8.3883215e-05 -1.3131663e-06 0.057093705)
(8.562424e-05 -8.7523464e-07 0.046294952)
(7.7933288e-05 -5.2493764e-07 0.034517297)
(5.9006774e-05 3.2651652e-07 0.021639277)
(3.026978e-05 1.3222802e-06 0.0074989814)
(-0.00061618604 -6.3536347e-05 0.070794904)
(-0.0014565849 -6.305926e-05 0.16023763)
(-0.0023109387 3.241751e-05 0.21698352)
(-0.0026033462 8.0495756e-05 0.25122434)
(-0.0024816836 0.00010711825 0.27072698)
(-0.0021103252 0.0001148017 0.28083296)
(-0.0016309646 0.00011079911 0.28498386)
(-0.0011476708 9.8649531e-05 0.28528949)
(-0.00070300078 8.3282604e-05 0.28299474)
(-0.00032732942 6.6920546e-05 0.27881736)
(-3.0335348e-05 4.9622097e-05 0.27319052)
(0.00021385615 3.5980892e-05 0.26641602)
(0.0003929801 2.5283482e-05 0.25879295)
(0.00051935488 1.6277289e-05 0.25050978)
(0.00061017589 1.1124118e-05 0.24173698)
(0.00066160802 7.8022767e-06 0.23263796)
(0.00068400287 5.115272e-06 0.22336357)
(0.00068097818 3.2760887e-06 0.21402771)
(0.00066785486 2.824145e-06 0.20473863)
(0.0006289372 1.5446308e-06 0.19557988)
(0.00059062695 9.6283213e-07 0.1866271)
(0.00054241068 1.027343e-06 0.17794789)
(0.00048838147 -2.6333444e-07 0.1695783)
(0.00043014514 -1.5771242e-06 0.16153789)
(0.00038186214 -1.3332182e-06 0.1538239)
(0.00032842376 -1.4434037e-06 0.14642119)
(0.00027208684 -2.1155626e-06 0.13925847)
(0.00023315551 -1.9109491e-06 0.13227459)
(0.00017266992 -3.1251007e-06 0.12534831)
(0.00014329908 -2.6468041e-06 0.11836)
(9.5534862e-05 -3.1755952e-06 0.11116762)
(5.8484957e-05 -4.2821105e-06 0.10357825)
(3.1631617e-05 -3.6389372e-06 0.095423539)
(2.0376141e-06 -4.1880323e-06 0.086514784)
(-2.696161e-05 -5.0433354e-06 0.076645461)
(-3.6040221e-05 -5.1531409e-06 0.065686269)
(-6.2169889e-05 -5.8092625e-06 0.053482848)
(-5.2787083e-05 -5.6103651e-06 0.039928324)
(-6.7399655e-05 -9.8589589e-06 0.024943541)
(-6.6343892e-05 -1.3719563e-05 0.0085064536)
(-0.00037041361 -1.1950907e-05 0.070944186)
(-0.001041855 -2.2074983e-05 0.16065384)
(-0.0018976498 1.3996296e-05 0.21763884)
(-0.0023654308 2.6592162e-05 0.25223409)
(-0.002546349 5.2757804e-05 0.27239136)
(-0.0025695315 5.6049911e-05 0.28354615)
(-0.0024539543 7.569047e-05 0.28914839)
(-0.0023034838 8.3212713e-05 0.29126582)
(-0.0021333114 7.9179795e-05 0.29107813)
(-0.0019027098 0.0001082254 0.28923972)
(-0.0017389909 9.2912354e-05 0.28611354)
(-0.0015556524 6.9874772e-05 0.28188286)
(-0.0013276071 7.7633671e-05 0.27667004)
(-0.0011783983 5.0566412e-05 0.27056742)
(-0.00097074808 3.8360256e-05 0.26362986)
(-0.00080792187 3.0477535e-05 0.25593995)
(-0.00060956659 3.5439189e-05 0.24758354)
(-0.00048653561 1.7059514e-05 0.23868762)
(-0.00031208037 2.3007177e-05 0.22936407)
(-0.00017604972 2.5453767e-05 0.2197988)
(-8.1230397e-05 1.0486471e-05 0.21010451)
(6.5069406e-05 2.0830098e-05 0.20040187)
(0.00013897211 2.5357759e-05 0.19096837)
(0.00024551425 1.6927583e-05 0.18188479)
(0.00025673613 -6.4046343e-07 0.17313229)
(0.00040638281 1.7707044e-05 0.16477934)
(0.00035793952 -6.480339e-07 0.15680025)
(0.00048318145 1.3725617e-05 0.14908552)
(0.00044502171 3.6723151e-06 0.14157311)
(0.00048318387 -1.3540962e-06 0.13399123)
(0.00049921411 1.2133904e-05 0.12630145)
(0.00047721385 -3.437127e-07 0.11820299)
(0.00045241916 -5.4392901e-06 0.10934137)
(0.00047223381 7.8585662e-06 0.099649897)
(0.00040028996 -1.9883787e-06 0.0888438)
(0.00038594134 -2.2344799e-06 0.076592147)
(0.00034340316 -8.4456108e-06 0.062877421)
(0.00024532371 -6.984777e-06 0.047350613)
(0.00033034895 2.9762212e-05 0.030422027)
(-3.9752742e-05 -2.4197193e-05 0.011158127)
(-0.00030713895 1.3644561e-05 0.071095708)
(-0.00080897662 1.0413552e-05 0.16115031)
(-0.0015115339 3.3683915e-05 0.21847966)
(-0.0018817092 3.0002975e-05 0.25341088)
(-0.0020248922 5.6286532e-05 0.27393329)
(-0.0020645902 3.9834279e-05 0.28557449)
(-0.0020322551 6.5146673e-05 0.29181387)
(-0.0019706691 7.1875521e-05 0.29473672)
(-0.0019336462 6.1421669e-05 0.29554779)
(-0.0018393162 0.0001232822 0.29481768)
(-0.0017609941 0.00010097932 0.29305859)
(-0.0017176853 6.6497543e-05 0.29042364)
(-0.0016172011 9.2272541e-05 0.28683583)
(-0.0015690127 4.9115033e-05 0.2826832)
(-0.001491371 3.5666109e-05 0.27764475)
(-0.0014444079 2.5500569e-05 0.27196211)
(-0.0013496858 4.1056833e-05 0.26529766)
(-0.0012958195 1.1009626e-05 0.25825281)
(-0.0012234429 2.5249941e-05 0.25013282)
(-0.0011139136 3.2736301e-05 0.2417593)
(-0.0010636063 8.3527016e-06 0.2331601)
(-0.0009586872 2.880944e-05 0.22365881)
(-0.00087138461 3.7662842e-05 0.21426071)
(-0.00073989834 2.7646401e-05 0.20533004)
(-0.00070937441 -3.4653176e-06 0.19643434)
(-0.00054689678 3.09615e-05 0.18781072)
(-0.00051622699 -1.3487181e-06 0.17981962)
(-0.00039076701 2.4976329e-05 0.17170843)
(-0.00032228532 8.5360962e-06 0.16395313)
(-0.00025523579 3.933965e-07 0.15615511)
(-0.00016742035 2.3210696e-05 0.14799928)
(-8.5003013e-05 3.9807454e-06 0.1403397)
(-7.4053059e-05 -4.8872217e-06 0.13160103)
(-2.1899071e-06 1.7532378e-05 0.12051377)
(5.3594624e-05 2.1617252e-06 0.10875387)
(4.0083271e-05 2.9324357e-06 0.094037063)
(0.00020064888 -6.1079875e-06 0.078398244)
(-5.7831367e-05 -3.0757007e-06 0.056989942)
(0.00046416043 6.9821121e-05 0.032790879)
(0.00046047108 -2.821022e-05 0.016505289)
(-1.8377585e-05 4.4922517e-05 0.077957451)
(-0.00032921562 6.5901086e-05 0.17566197)
(-0.00070028989 5.9600677e-05 0.23522784)
(-0.0011052799 2.180781e-05 0.26830085)
(-0.0014884698 7.0671911e-06 0.28510546)
(-0.0017482315 -6.6645538e-05 0.29297398)
(-0.0019057629 -8.9105651e-05 0.29628566)
(-0.0019550813 -0.00013135414 0.29727177)
(-0.0018815218 -0.00018957662 0.29692267)
(-0.0018095667 -0.00013996215 0.29560795)
(-0.0016733821 -0.00019596143 0.29351638)
(-0.0014754819 -0.0002603443 0.29068392)
(-0.001327336 -0.00022784769 0.28707207)
(-0.0011182123 -0.00028991642 0.28280963)
(-0.00093734039 -0.00029981762 0.27776796)
(-0.00073546655 -0.00030042621 0.27202038)
(-0.0005962455 -0.00025554498 0.26544229)
(-0.00041994608 -0.00028112565 0.25830492)
(-0.00028732734 -0.00023327294 0.25032154)
(-0.00020678487 -0.00019580341 0.24196455)
(-7.8614903e-05 -0.00021181257 0.23328836)
(-2.7542566e-05 -0.00015269003 0.22393688)
(1.6884334e-05 -0.00011560812 0.21459779)
(7.4470412e-06 -0.00011131577 0.20560973)
(8.9675837e-05 -0.00014602006 0.19672721)
(1.2684164e-05 -6.7826675e-05 0.18813732)
(6.9770354e-05 -0.00010898185 0.18005797)
(8.3838537e-06 -4.7610465e-05 0.17197987)
(1.4777893e-06 -6.4800886e-05 0.16417565)
(-7.3788709e-06 -6.7441468e-05 0.15634776)
(-6.0560468e-05 -1.7461931e-05 0.14824132)
(-0.00010076188 -4.3549755e-05 0.14045813)
(-6.6128239e-05 -5.1742245e-05 0.13163796)
(-0.00011187774 -6.2811916e-06 0.12065897)
(-0.0001296758 -2.9579472e-05 0.10877938)
(-9.9561739e-05 -2.7652894e-05 0.094191084)
(-0.00021583822 -4.1542597e-05 0.078288656)
(6.0054299e-05 -4.3782837e-05 0.057175354)
(-0.00050139857 6.1224049e-05 0.033774466)
(-0.00040669802 -0.00011426772 0.015095198)
(-6.2148948e-05 4.0772432e-05 0.077801193)
(-0.00034684564 5.0280812e-05 0.17522363)
(-0.00069146337 1.5409558e-05 0.23450088)
(-0.0010422502 -4.7856508e-05 0.26725524)
(-0.0013428027 -0.00010420038 0.28365834)
(-0.0015040679 -0.00018476323 0.29099101)
(-0.0015813397 -0.00023338811 0.29360165)
(-0.0015303981 -0.00028032456 0.29371412)
(-0.0013994795 -0.00032497672 0.29232037)
(-0.0012792714 -0.00030699155 0.28981482)
(-0.0010613614 -0.00033286661 0.28633332)
(-0.00087300498 -0.00035807978 0.28192709)
(-0.00075776713 -0.00032875245 0.27663766)
(-0.00058407188 -0.00034269844 0.2704976)
(-0.00050745316 -0.00032982354 0.26355905)
(-0.00042537272 -0.00030873334 0.25588437)
(-0.00041022044 -0.0002659472 0.24755596)
(-0.00034421837 -0.0002598051 0.23868717)
(-0.00036741045 -0.00021767827 0.2293986)
(-0.00037295841 -0.00018225121 0.21985484)
(-0.00035326215 -0.0001773122 0.21018122)
(-0.00041509129 -0.00013456168 0.2005141)
(-0.00041993784 -0.00010404545 0.19108565)
(-0.0004588292 -9.5789729e-05 0.18199078)
(-0.00042077433 -0.00010741356 0.17323582)
(-0.00054055794 -6.0544975e-05 0.16487406)
(-0.00045483423 -7.7328201e-05 0.15687267)
(-0.00056224477 -4.1081157e-05 0.1491501)
(-0.00050083256 -4.7591455e-05 0.14160261)
(-0.00051887755 -4.7445543e-05 0.13401543)
(-0.00053296391 -1.7403593e-05 0.12630367)
(-0.00048811574 -3.192826e-05 0.11817574)
(-0.00045417385 -3.6514391e-05 0.10931018)
(-0.00047350916 -1.0032895e-05 0.099602968)
(-0.00038593683 -2.4126588e-05 0.088770088)
(-0.00036628713 -2.4578112e-05 0.076514699)
(-0.00031477316 -3.4656336e-05 0.062771873)
(-0.00021256662 -3.7592228e-05 0.0472542)
(-0.00030976346 1.671764e-05 0.030232333)
(0.00011645975 -7.77721e-05 0.010828017)
(-0.00010062904 2.3712998e-05 0.07760258)
(-0.0003412825 -9.5000158e-06 0.17468428)
(-0.00061074221 -0.00010921981 0.2336163)
(-0.00088309354 -0.00022805909 0.26591702)
(-0.0011149861 -0.00033827705 0.28161728)
(-0.0012753331 -0.00042535526 0.2878924)
(-0.0013553134 -0.00048128809 0.28906397)
(-0.0013547819 -0.00050822418 0.28738903)
(-0.001304525 -0.00050959241 0.28392204)
(-0.0012222012 -0.00049134467 0.27912525)
(-0.0011236089 -0.00046176935 0.27321779)
(-0.0010426781 -0.00042211459 0.26635935)
(-0.00096809743 -0.00037719846 0.25872302)
(-0.00090117703 -0.00033222591 0.25045703)
(-0.00085069719 -0.00028662715 0.24171577)
(-0.00080202948 -0.00024361171 0.23264693)
(-0.00075510107 -0.00020504164 0.22339416)
(-0.00070648596 -0.00017104264 0.21407268)
(-0.00066393322 -0.00014046268 0.20479448)
(-0.00060866357 -0.00011545807 0.19564256)
(-0.00056074578 -9.4182468e-05 0.18669386)
(-0.00051028002 -7.5801702e-05 0.17801644)
(-0.00045570685 -6.2278019e-05 0.16964513)
(-0.00040030957 -5.1739624e-05 0.16160283)
(-0.00035570827 -4.1821252e-05 0.15388459)
(-0.00030737104 -3.3824296e-05 0.14647743)
(-0.00025541429 -2.8392308e-05 0.13930721)
(-0.0002196921 -2.3260997e-05 0.13231743)
(-0.00016360472 -2.0821025e-05 0.12538229)
(-0.00013581618 -1.7499008e-05 0.11838824)
(-9.1014856e-05 -1.5818683e-05 0.11118666)
(-5.4143955e-05 -1.5613532e-05 0.10359191)
(-2.8399634e-05 -1.3910487e-05 0.095431526)
(1.4827286e-06 -1.3662751e-05 0.086518357)
(3.1264972e-05 -1.4432289e-05 0.076645861)
(4.184745e-05 -1.4645994e-05 0.065686352)
(6.7160029e-05 -1.5614998e-05 0.053486833)
(5.9893334e-05 -1.6311903e-05 0.039938642)
(7.3281493e-05 -2.3139387e-05 0.024972112)
(7.7616805e-05 -2.4425596e-05 0.0085651806)
(-7.5573548e-05 -1.341817e-05 0.077461659)
(-0.0002262947 -0.00011033843 0.1743325)
(-0.00039664984 -0.00025218121 0.23305257)
(-0.00061312579 -0.00039322482 0.26495361)
(-0.0008401108 -0.00049903379 0.27989026)
(-0.001016054 -0.00055760633 0.28498823)
(-0.0010943711 -0.00056988281 0.28465403)
(-0.0010647609 -0.00054556718 0.28130469)
(-0.00094906374 -0.0004970371 0.27617714)
(-0.00077979966 -0.00043573149 0.26988571)
(-0.00058928639 -0.00037105186 0.26274541)
(-0.00040279118 -0.0003086763 0.25494475)
(-0.00023301753 -0.00025209608 0.24662496)
(-8.8631639e-05 -0.00020326996 0.23790954)
(2.6076918e-05 -0.00016225137 0.22891704)
(0.00011459313 -0.0001287968 0.21977514)
(0.00017812717 -0.00010172134 0.21058552)
(0.00022078042 -8.0077791e-05 0.20143605)
(0.00024484265 -6.294723e-05 0.192409)
(0.00025389364 -4.977906e-05 0.18355894)
(0.00024914114 -3.9760037e-05 0.17493245)
(0.00023491808 -3.2131513e-05 0.16656249)
(0.00021398164 -2.65512e-05 0.15846682)
(0.00018510219 -2.2333316e-05 0.15064799)
(0.0001546388 -1.9240359e-05 0.14309182)
(0.00012258555 -1.6892014e-05 0.13576608)
(9.1511116e-05 -1.5454732e-05 0.12861953)
(6.0083424e-05 -1.4201772e-05 0.12158472)
(3.2740005e-05 -1.3337771e-05 0.11457531)
(4.7606792e-06 -1.2454397e-05 0.10749278)
(-1.5978418e-05 -1.1680396e-05 0.10022685)
(-3.8945514e-05 -1.0967016e-05 0.092668081)
(-5.6227332e-05 -1.0043134e-05 0.084697489)
(-6.8940763e-05 -9.0101647e-06 0.076188834)
(-7.9381171e-05 -7.8520519e-06 0.067022867)
(-8.385692e-05 -6.3656318e-06 0.057090101)
(-8.2925263e-05 -4.7983633e-06 0.046283197)
(-7.2510528e-05 -3.2282507e-06 0.034496712)
(-5.0643912e-05 -1.0313171e-06 0.02160422)
(-2.0948591e-05 8.1106535e-07 0.0074472891)
(-2.1058864e-05 -3.7274733e-05 0.077409363)
(-7.6979965e-05 -0.00017145696 0.17420524)
(-0.00015720278 -0.00032271345 0.23283758)
(-0.00026383537 -0.00046041507 0.2644958)
(-0.0003502178 -0.00054875955 0.27894598)
(-0.000368053 -0.00057805108 0.28333982)
(-0.00030604175 -0.00055593222 0.28218463)
(-0.00019171157 -0.0004998855 0.2780043)
(-6.8794805e-05 -0.00042834324 0.27209739)
(2.7060457e-05 -0.00035525605 0.26510579)
(7.7861554e-05 -0.00028872376 0.25735677)
(8.2079752e-05 -0.0002319271 0.24904226)
(4.9548048e-05 -0.00018524339 0.24030165)
(-6.5649865e-06 -0.00014772543 0.2312554)
(-7.3358073e-05 -0.00011783278 0.22201623)
(-0.00014047738 -9.4137446e-05 0.21269236)
(-0.00020096877 -7.5388165e-05 0.20338316)
(-0.00025040383 -6.0569603e-05 0.19417307)
(-0.00028703637 -4.8938659e-05 0.18513175)
(-0.00031035976 -3.9923658e-05 0.17631242)
(-0.00032161409 -3.2964093e-05 0.16775325)
(-0.00032179576 -2.7601754e-05 0.15947701)
(-0.0003129229 -2.3547945e-05 0.15149144)
(-0.00029629419 -2.0435168e-05 0.14378972)
(-0.00027372132 -1.799965e-05 0.13635038)
(-0.00024684005 -1.6131061e-05 0.12913812)
(-0.00021743308 -1.4678526e-05 0.12210431)
(-0.00018716287 -1.3440654e-05 0.11518815)
(-0.00015613104 -1.237229e-05 0.10831735)
(-0.00012622359 -1.1321551e-05 0.10140969)
(-9.6840644e-05 -1.0305834e-05 0.094373452)
(-6.9306665e-05 -9.2630053e-06 0.087109294)
(-4.2892476e-05 -8.0532831e-06 0.079510358)
(-1.8601298e-05 -6.834243e-06 0.071462552)
(3.9461729e-06 -5.6131176e-06 0.062845331)
(2.4240564e-05 -4.5814927e-06 0.053533498)
(4.3456613e-05 -3.883562e-06 0.043405504)
(5.7914359e-05 -3.6054045e-06 0.032338759)
(6.2700987e-05 -4.0459148e-06 0.020217278)
(4.1372232e-05 -2.8587215e-06 0.0069442166)
(2.1059417e-05 -3.7274663e-05 0.077409361)
(7.6980435e-05 -0.00017145692 0.17420523)
(0.00015720304 -0.0003227133 0.23283757)
(0.00026383534 -0.00046041505 0.26449579)
(0.00035021814 -0.00054875975 0.27894598)
(0.0003680534 -0.00057805099 0.28333982)
(0.00030604219 -0.00055593208 0.28218462)
(0.00019171203 -0.00049988547 0.2780043)
(6.8795065e-05 -0.00042834331 0.27209739)
(-2.7060287e-05 -0.0003552559 0.26510578)
(-7.7861672e-05 -0.00028872372 0.25735677)
(-8.2079839e-05 -0.00023192718 0.24904225)
(-4.9548368e-05 -0.00018524348 0.24030165)
(6.5646877e-06 -0.00014772563 0.2312554)
(7.3357772e-05 -0.0001178329 0.22201622)
(0.00014047739 -9.4137455e-05 0.21269235)
(0.00020096881 -7.5388158e-05 0.20338316)
(0.00025040392 -6.056993e-05 0.19417306)
(0.00028703645 -4.8938762e-05 0.18513175)
(0.00031035976 -3.9923751e-05 0.17631242)
(0.00032161408 -3.2963957e-05 0.16775325)
(0.00032179571 -2.7601725e-05 0.159477)
(0.0003129232 -2.3547827e-05 0.15149143)
(0.00029629433 -2.0434886e-05 0.14378972)
(0.00027372161 -1.7999757e-05 0.13635037)
(0.00024684026 -1.6130952e-05 0.12913812)
(0.00021743334 -1.4678576e-05 0.1221043)
(0.00018716294 -1.3440639e-05 0.11518815)
(0.0001561309 -1.2372171e-05 0.10831735)
(0.00012622351 -1.1321635e-05 0.10140969)
(9.6840344e-05 -1.0305837e-05 0.094373451)
(6.9306758e-05 -9.2628752e-06 0.087109293)
(4.2892456e-05 -8.0532777e-06 0.079510357)
(1.8601063e-05 -6.8340623e-06 0.071462552)
(-3.9463393e-06 -5.6129601e-06 0.062845331)
(-2.424056e-05 -4.5816832e-06 0.053533498)
(-4.3456985e-05 -3.8835268e-06 0.043405504)
(-5.7914406e-05 -3.6046736e-06 0.032338758)
(-6.270081e-05 -4.0464185e-06 0.020217277)
(-4.1370925e-05 -2.8604482e-06 0.0069442162)
(7.5574172e-05 -1.3418015e-05 0.077461655)
(0.00022629549 -0.00011033833 0.17433249)
(0.00039665058 -0.00025218117 0.23305256)
(0.00061312643 -0.0003932247 0.2649536)
(0.0008401114 -0.00049903385 0.27989024)
(0.0010160546 -0.0005576063 0.28498822)
(0.0010943719 -0.00056988271 0.28465402)
(0.0010647615 -0.00054556716 0.28130468)
(0.00094906415 -0.00049703713 0.27617713)
(0.00077979988 -0.00043573152 0.2698857)
(0.00058928651 -0.0003710518 0.2627454)
(0.00040279096 -0.00030867623 0.25494474)
(0.0002330171 -0.00025209601 0.24662495)
(8.8630984e-05 -0.00020326999 0.23790953)
(-2.6077462e-05 -0.0001622515 0.22891703)
(-0.00011459383 -0.00012879695 0.21977514)
(-0.00017812782 -0.00010172137 0.21058551)
(-0.00022078094 -8.007798e-05 0.20143604)
(-0.00024484314 -6.2947394e-05 0.192409)
(-0.00025389395 -4.9779253e-05 0.18355894)
(-0.00024914128 -3.975999e-05 0.17493245)
(-0.00023491795 -3.2131622e-05 0.16656249)
(-0.00021398179 -2.6551486e-05 0.15846681)
(-0.00018510227 -2.2333315e-05 0.15064798)
(-0.00015463853 -1.9240351e-05 0.14309182)
(-0.00012258538 -1.6891958e-05 0.13576607)
(-9.1511063e-05 -1.5454852e-05 0.12861953)
(-6.0083343e-05 -1.4201534e-05 0.12158472)
(-3.2739841e-05 -1.3337324e-05 0.11457531)
(-4.7606799e-06 -1.245411e-05 0.10749278)
(1.5978647e-05 -1.1680475e-05 0.10022685)
(3.8945399e-05 -1.0966932e-05 0.092668083)
(5.6227235e-05 -1.0042718e-05 0.08469749)
(6.8941081e-05 -9.0103107e-06 0.076188836)
(7.938126e-05 -7.8519701e-06 0.067022868)
(8.3857056e-05 -6.3653638e-06 0.057090101)
(8.2925748e-05 -4.7986788e-06 0.046283197)
(7.251047e-05 -3.2282469e-06 0.034496712)
(5.0644103e-05 -1.0309604e-06 0.021604219)
(2.0948994e-05 8.109986e-07 0.0074472871)
(0.00010062873 2.3713064e-05 0.077602573)
(0.00034128223 -9.4999497e-06 0.17468426)
(0.00061074249 -0.00010921991 0.23361628)
(0.00088309366 -0.00022805916 0.265917)
(0.0011149865 -0.00033827709 0.28161726)
(0.0012753336 -0.00042535523 0.28789238)
(0.0013553139 -0.00048128806 0.28906395)
(0.0013547824 -0.00050822414 0.28738902)
(0.0013045255 -0.00050959227 0.28392202)
(0.0012222017 -0.00049134472 0.27912523)
(0.0011236097 -0.0004617695 0.27321777)
(0.0010426789 -0.0004221145 0.26635934)
(0.00096809837 -0.00037719844 0.258723)
(0.00090117799 -0.00033222607 0.25045701)
(0.00085069777 -0.00028662693 0.24171576)