/*--------------------------------*- C++ -*----------------------------------*\
| =========                 |                                                 |
| \\      /  F ield         | OpenFOAM: The Open Source CFD Toolbox           |
|  \\    /   O peration     | Version:  3.0.1                                 |
|   \\  /    A nd           | Web:      www.OpenFOAM.org                      |
|    \\/     M anipulation  |                                                 |
\*---------------------------------------------------------------------------*/
FoamFile
{
    version     2.0;
    format      ascii;
    class       surfaceScalarField;
    location    "2297";
    object      phi;
}
// * * * * * * * * * * * * * * * * * * * * * * * * * * * * * * * * * * * * * //

dimensions      [1 0 -1 0 0 0 0];

internalField   nonuniform List<scalar> 
7860
(
3.5704996e-10
8.3307357e-09
8.6745195e-10
2.4411501e-08
1.1308276e-09
4.1871774e-08
1.0154855e-09
6.0118805e-08
5.8999798e-10
7.8876749e-08
6.3884996e-12
9.8175143e-08
-5.8937042e-10
1.1826364e-07
-1.0989514e-09
1.3951374e-07
-1.4767218e-09
1.6234272e-07
-1.7191077e-09
1.8716381e-07
-1.8484851e-09
2.1436947e-07
-1.8989637e-09
2.4433289e-07
-1.9064232e-09
2.7741871e-07
-1.9029967e-09
3.139975e-07
-1.9148599e-09
3.5446083e-07
-1.9619768e-09
3.9923573e-07
-2.0589745e-09
4.4879803e-07
-2.2161428e-09
5.0368448e-07
-2.4404778e-09
5.6450327e-07
-2.7362842e-09
6.3194235e-07
-3.1056863e-09
7.0677401e-07
-3.5485937e-09
7.8985336e-07
-4.0626805e-09
8.8210673e-07
-4.6431501e-09
9.8450442e-07
-5.2823013e-09
1.0980095e-06
-5.9692604e-09
1.2234914e-06
-6.689292e-09
1.3615879e-06
-7.4234655e-09
1.5124945e-06
-8.1480297e-09
1.6756529e-06
-8.8339987e-09
1.8493008e-06
-9.4465963e-09
2.0298396e-06
-9.9457908e-09
2.210962e-06
-1.0284784e-08
2.3824838e-06
-1.0412765e-08
2.5288024e-06
-1.0268817e-08
2.6269295e-06
-9.7862418e-09
2.6439624e-06
-8.8535566e-09
2.5339444e-06
-7.2938449e-09
2.2335593e-06
-4.5555355e-09
1.6563611e-06
6.8267504e-07
-6.0704017e-10
8.9377756e-09
-2.2808803e-09
2.608534e-08
-4.8710001e-09
4.4461894e-08
-8.073927e-09
6.3321732e-08
-1.1498615e-08
8.2301433e-08
-1.4758448e-08
1.0143498e-07
-1.755159e-08
1.2105678e-07
-1.9700572e-08
1.4166272e-07
-2.1149185e-08
1.6379133e-07
-2.1936685e-08
1.879513e-07
-2.2161971e-08
2.1459476e-07
-2.1950138e-08
2.4412106e-07
-2.1427546e-08
2.7689609e-07
-2.0706515e-08
3.132765e-07
-1.9878869e-08
3.5363317e-07
-1.9014717e-08
3.9837159e-07
-1.8165173e-08
4.4794848e-07
-1.7366018e-08
5.0288534e-07
-1.6641721e-08
5.6377896e-07
-1.6008378e-08
6.31309e-07
-1.5476066e-08
7.0624172e-07
-1.5050173e-08
7.8942744e-07
-1.4731729e-08
8.8178829e-07
-1.4517669e-08
9.8429038e-07
-1.440045e-08
1.0978923e-06
-1.4367487e-08
1.2234584e-06
-1.4400327e-08
1.3616208e-06
-1.4474229e-08
1.5125684e-06
-1.4556957e-08
1.6757357e-06
-1.4609032e-08
1.8493529e-06
-1.4582729e-08
2.0298132e-06
-1.4423257e-08
2.2108025e-06
-1.4069721e-08
2.3821302e-06
-1.3458335e-08
2.528191e-06
-1.2522042e-08
2.6259932e-06
-1.1196079e-08
2.6426365e-06
-9.3900697e-09
2.5321384e-06
-6.967882e-09
2.231137e-06
-3.5927303e-09
1.652986e-06
6.790822e-07
-6.5206826e-10
9.5898435e-09
-2.5958681e-09
2.8029139e-08
-5.8304139e-09
4.7696442e-08
-1.0127448e-08
6.7618763e-08
-1.5067617e-08
8.7241609e-08
-2.0136969e-08
1.0650433e-07
-2.4844772e-08
1.2576458e-07
-2.8816778e-08
1.4563474e-07
-3.183876e-08
1.668133e-07
-3.3852762e-08
1.8996532e-07
-3.4923259e-08
2.1566525e-07
-3.5191556e-08
2.4438936e-07
-3.483314e-08
2.7653768e-07
-3.4024977e-08
3.1246833e-07
-3.2924808e-08
3.5253302e-07
-3.1661515e-08
3.9710831e-07
-3.0333357e-08
4.466203e-07
-2.9010983e-08
5.0156296e-07
-2.7742839e-08
5.6251083e-07
-2.6560644e-08
6.3012679e-07
-2.5483763e-08
7.0516485e-07
-2.4522737e-08
7.8846639e-07
-2.3681004e-08
8.8094654e-07
-2.2955958e-08
9.8356537e-07
-2.2339254e-08
1.0972756e-06
-2.1816112e-08
1.2229354e-06
-2.1365248e-08
1.3611699e-06
-2.0957506e-08
1.5121607e-06
-2.0555777e-08
1.675334e-06
-2.0114092e-08
1.8489112e-06
-1.957762e-08
2.0292768e-06
-1.8884117e-08
2.2101089e-06
-1.7964433e-08
2.3812105e-06
-1.6747083e-08
2.5269737e-06
-1.5159097e-08
2.6244053e-06
-1.3130076e-08
2.6406075e-06
-1.0570163e-08
2.5295784e-06
-7.3558677e-09
2.2279229e-06
-3.3629927e-09
1.648993e-06
6.7571932e-07
-5.8480448e-10
1.0174649e-08
-2.4119723e-09
2.9856306e-08
-5.6138447e-09
5.0898314e-08
-1.0120078e-08
7.2124998e-08
-1.5632661e-08
9.2754192e-08
-2.1674467e-08
1.1254613e-07
-2.7694303e-08
1.3178441e-07
-3.3183863e-08
1.5112429e-07
-3.776492e-08
1.7139437e-07
-4.1227988e-08
1.9342839e-07
-4.352614e-08
2.1796341e-07
-4.4740289e-08
2.456035e-07
-4.503281e-08
2.7683019e-07
-4.4602974e-08
3.120385e-07
-4.3651823e-08
3.5158188e-07
-4.235913e-08
3.9581559e-07
-4.0871795e-08
4.4513298e-07
-3.9301606e-08
4.9999277e-07
-3.77282e-08
5.6093744e-07
-3.6205129e-08
6.2860371e-07
-3.4765931e-08
7.0372568e-07
-3.3429648e-08
7.8713011e-07
-3.2204416e-08
8.7972131e-07
-3.1089842e-08
9.824508e-07
-3.0078047e-08
1.0962638e-06
-2.9153724e-08
1.2220111e-06
-2.829391e-08
1.36031e-06
-2.7467106e-08
1.5113339e-06
-2.6632672e-08
1.6744995e-06
-2.5740279e-08
1.8480188e-06
-2.4730262e-08
2.0282668e-06
-2.3533889e-08
2.2089126e-06
-2.2076135e-08
2.3797528e-06
-2.0278723e-08
2.5251763e-06
-1.806309e-08
2.6221896e-06
-1.535257e-08
2.637897e-06
-1.2057626e-08
2.5262835e-06
-8.0751445e-09
2.2239403e-06
-3.4662429e-09
1.6443841e-06
6.7225299e-07
-5.2056247e-10
1.0695211e-08
-2.1860569e-09
3.15218e-08
-5.1901245e-09
5.3902383e-08
-9.5721089e-09
7.6506982e-08
-1.5161753e-08
9.8343836e-08
-2.1582259e-08
1.1896664e-07
-2.8318128e-08
1.3852028e-07
-3.4820862e-08
1.5762703e-07
-4.0611919e-08
1.7718542e-07
-4.5352466e-08
1.9816894e-07
-4.8869815e-08
2.2148076e-07
-5.1146419e-08
2.4788012e-07
-5.2285267e-08
2.7796903e-07
-5.2465539e-08
3.1221877e-07
-5.1899912e-08
3.5101626e-07
-5.080025e-08
3.947159e-07
-4.9354592e-08
4.4368734e-07
-4.7715805e-08
4.98354e-07
-4.5998954e-08
5.5922058e-07
-4.4284602e-08
6.2688936e-07
-4.2625104e-08
7.0206617e-07
-4.105107e-08
7.8555606e-07
-3.9576886e-08
8.7824717e-07
-3.8204884e-08
9.8107874e-07
-3.6927032e-08
1.094986e-06
-3.5726551e-08
1.2208106e-06
-3.4577591e-08
1.359161e-06
-3.344478e-08
1.5102011e-06
-3.2283036e-08
1.6733377e-06
-3.1036492e-08
1.8467723e-06
-2.9639304e-08
2.0268695e-06
-2.8016116e-08
2.2072895e-06
-2.6084788e-08
2.3778215e-06
-2.3760028e-08
2.5228515e-06
-2.0956465e-08
2.6193859e-06
-1.759082e-08
2.6345315e-06
-1.3574163e-08
2.5222667e-06
-8.8331265e-09
2.2191993e-06
-3.6079313e-09
1.6391592e-06
6.6864495e-07
-4.7061612e-10
1.1165827e-08
-1.9959351e-09
3.304712e-08
-4.7936652e-09
5.6700114e-08
-8.9669648e-09
8.0680281e-08
-1.4441145e-08
1.0381802e-07
-2.0939723e-08
1.2546522e-07
-2.8018468e-08
1.4559902e-07
-3.5147123e-08
1.6475569e-07
-4.1807777e-08
1.8384607e-07
-4.757794e-08
2.039391e-07
-5.2179976e-08
2.2608279e-07
-5.5494075e-08
2.5119421e-07
-5.7541877e-08
2.8001684e-07
-5.8452052e-08
3.1312896e-07
-5.8418856e-08
3.5098304e-07
-5.7662322e-08
3.9395939e-07
-5.6396812e-08
4.4242181e-07
-5.4809603e-08
4.967668e-07
-5.3050739e-08
5.574617e-07
-5.1230978e-08
6.2506961e-07
-4.9425799e-08
7.00261e-07
-4.7681669e-08
7.8381191e-07
-4.602246e-08
8.76588e-07
-4.4455247e-08
9.7951146e-07
-4.2973342e-08
1.0935041e-06
-4.155896e-08
1.2193963e-06
-4.0183759e-08
1.3577858e-06
-3.8808572e-08
1.5088259e-06
-3.7383224e-08
1.6719124e-06
-3.5846393e-08
1.8452354e-06
-3.4125323e-08
2.0251485e-06
-3.2137916e-08
2.2053019e-06
-2.979403e-08
2.3754776e-06
-2.7000506e-08
2.5200581e-06
-2.3664674e-08
2.6160501e-06
-1.9696636e-08
2.6305635e-06
-1.500879e-08
2.5175789e-06
-9.56598e-09
2.2137565e-06
-3.7756062e-09
1.6333688e-06
6.6486936e-07
-4.306237e-10
1.1596452e-08
-1.8381804e-09
3.4454674e-08
-4.4484501e-09
5.9310386e-08
-8.4013935e-09
8.4633225e-08
-1.3688947e-08
1.0910557e-07
-2.0117657e-08
1.3189393e-07
-2.7318721e-08
1.5280009e-07
-3.4806132e-08
1.722431e-07
-4.2062044e-08
1.9110198e-07
-4.8620837e-08
2.104979e-07
-5.4130837e-08
2.3159278e-07
-5.8384742e-08
2.5544812e-07
-6.1321068e-08
2.8295318e-07
-6.3003325e-08
3.148112e-07
-6.358585e-08
3.5156557e-07
-6.3275353e-08
3.936489e-07
-6.2294759e-08
4.4144121e-07
-6.085475e-08
4.9532679e-07
-5.913529e-08
5.5574228e-07
-5.7277356e-08
6.2321163e-07
-5.5381856e-08
6.9836553e-07
-5.3514581e-08
7.8194461e-07
-5.1712193e-08
8.7478564e-07
-4.9988942e-08
9.777882e-07
-4.8341389e-08
1.0918565e-06
-4.6751792e-08
1.2178066e-06
-4.5189674e-08
1.3562237e-06
-4.3612445e-08
1.5072487e-06
-4.1965361e-08
1.6702652e-06
-4.0181173e-08
1.8434512e-06
-3.8180785e-08
2.0231482e-06
-3.587468e-08
2.2029958e-06
-3.3165354e-08
2.3727682e-06
-2.9951172e-08
2.516844e-06
-2.6132177e-08
2.612231e-06
-2.1612005e-08
2.6260435e-06
-1.6306951e-08
2.5122738e-06
-1.0225779e-08
2.2076752e-06
-3.9306872e-09
1.6270737e-06
6.609388e-07
-3.9809977e-10
1.1994551e-08
-1.7069962e-09
3.5763571e-08
-4.153101e-09
6.1756492e-08
-7.8976939e-09
8.8377817e-08
-1.2978878e-08
1.1418675e-07
-1.9268379e-08
1.3818343e-07
-2.6465758e-08
1.5999746e-07
-3.4137212e-08
1.7991455e-07
-4.178626e-08
1.9875103e-07
-4.8932686e-08
2.1764433e-07
-5.5178526e-08
2.3783862e-07
-6.0249605e-08
2.6051919e-07
-6.4010554e-08
2.8671413e-07
-6.6457238e-08
3.1725789e-07
-6.7692794e-08
3.5280111e-07
-6.7894282e-08
3.938504e-07
-6.727703e-08
4.4082395e-07
-6.6062029e-08
4.9411179e-07
-6.4451248e-08
5.5413149e-07
-6.2612153e-08
6.2137256e-07
-6.0671727e-08
6.9642509e-07
-5.871708e-08
7.7998996e-07
-5.680062e-08
8.7286918e-07
-5.4946461e-08
9.7593407e-07
-5.3156395e-08
1.0900665e-06
-5.1414265e-08
1.2160645e-06
-4.9688468e-08
1.354498e-06
-4.7933747e-08
1.5054939e-06
-4.6090809e-08
1.6684224e-06
-4.4087406e-08
1.8414478e-06
-4.1838104e-08
2.0208989e-06
-3.9246229e-08
2.2004039e-06
-3.6206756e-08
2.3697287e-06
-3.2610558e-08
2.5132479e-06
-2.8349691e-08
2.6079702e-06
-2.3323208e-08
2.6210168e-06
-1.7452876e-08
2.5064037e-06
-1.0796296e-08
2.2010185e-06
-4.0597374e-09
1.6203369e-06
6.568792e-07
-3.7104615e-10
1.2365597e-08
-1.5963182e-09
3.6988843e-08
-3.89931e-09
6.4059482e-08
-7.4535805e-09
9.1932088e-08
-1.2329591e-08
1.1906276e-07
-1.8449627e-08
1.4430347e-07
-2.5571887e-08
1.6711972e-07
-3.3314356e-08
1.8765702e-07
-4.1211882e-08
2.0664855e-07
-4.87875e-08
2.2521994e-07
-5.5618202e-08
2.4466933e-07
-6.1382359e-08
2.6628334e-07
-6.5884171e-08
2.9121594e-07
-6.905698e-08
3.204307e-07
-7.0949279e-08
3.5469341e-07
-7.1698857e-08
3.9459997e-07
-7.1500587e-08
4.4062566e-07
-7.0573328e-08
4.9318456e-07
-6.9131458e-08
5.5268958e-07
-6.7363367e-08
6.1960448e-07
-6.5419808e-08
6.9448156e-07
-6.3410109e-08
7.7798023e-07
-6.1404253e-08
8.7086333e-07
-5.9438718e-08
9.7396853e-07
-5.7522564e-08
1.0881503e-06
-5.5642777e-08
1.2141847e-06
-5.3768184e-08
1.3526233e-06
-5.1851162e-08
1.5035769e-06
-4.9829189e-08
1.6664004e-06
-4.762494e-08
1.8392436e-06
-4.5147378e-08
2.0184213e-06
-4.2293189e-08
2.1975498e-06
-3.8950232e-08
2.3663858e-06
-3.5002212e-08
2.5092998e-06
-3.0334173e-08
2.6033021e-06
-2.4840901e-08
2.6155235e-06
-1.8453684e-08
2.5000166e-06
-1.1281051e-08
2.1938458e-06
-4.1620912e-09
1.6132179e-06
6.5271728e-07
-3.4814596e-10
1.2713742e-08
-1.5016684e-09
3.8142367e-08
-3.6794472e-09
6.623726e-08
-7.0618534e-09
9.5314495e-08
-1.1742336e-08
1.2374324e-07
-1.7682516e-08
1.5024365e-07
-2.4689908e-08
1.7412711e-07
-3.2430483e-08
1.953976e-07
-4.0473997e-08
2.1469207e-07
-4.8357174e-08
2.3310311e-07
-5.5646885e-08
2.5195904e-07
-6.1989958e-08
2.7262641e-07
-6.7143781e-08
2.9636977e-07
-7.0987637e-08
3.2427457e-07
-7.3517439e-08
3.5722321e-07
-7.4827474e-08
3.9591e-07
-7.5083563e-08
4.4088175e-07
-7.44922e-08
4.925932e-07
-7.3270404e-08
5.5146778e-07
-7.1620615e-08
6.1795473e-07
-6.97137e-08
6.9257463e-07
-6.7680022e-08
7.7594649e-07
-6.560808e-08
8.6879145e-07
-6.3548666e-08
9.7190911e-07
-6.1520067e-08
1.0861217e-06
-5.951413e-08
1.2121788e-06
-5.7501222e-08
1.3506103e-06
-5.543264e-08
1.5015083e-06
-5.3242992e-08
1.6642107e-06
-5.085076e-08
1.8368514e-06
-4.8159713e-08
2.0157302e-06
-4.5060597e-08
2.1944507e-06
-4.1434759e-08
2.3627599e-06
-3.7158906e-08
2.505024e-06
-3.2112072e-08
2.5982554e-06
-2.6186546e-08
2.609598e-06
-1.9325417e-08
2.4931553e-06
-1.1689808e-08
2.1862102e-06
-4.2411445e-09
1.6057692e-06
6.4847603e-07
-3.2846737e-10
1.3042209e-08
-1.4197132e-09
3.9233614e-08
-3.4872384e-09
6.8304783e-08
-6.7148096e-09
9.8542067e-08
-1.1212396e-08
1.2824083e-07
-1.6972483e-08
1.5600374e-07
-2.3843823e-08
1.8099845e-07
-3.1535538e-08
2.0308932e-07
-3.9652533e-08
2.2280906e-07
-4.775088e-08
2.4120146e-07
-5.5397286e-08
2.5960545e-07
-6.2219232e-08
2.7944836e-07
-6.7939273e-08
3.020898e-07
-7.2391983e-08
3.2872728e-07
-7.5525625e-08
3.6035684e-07
-7.7390804e-08
3.9777519e-07
-7.8119659e-08
4.4161059e-07
-7.7898483e-08
4.9237203e-07
-7.6938572e-08
5.5050791e-07
-7.5449243e-08
6.1646538e-07
-7.361628e-08
6.9074167e-07
-7.1588873e-08
7.7391911e-07
-6.9474214e-08
8.6667675e-07
-6.7338034e-08
9.6977295e-07
-6.5209716e-08
1.0839933e-06
-6.3087664e-08
1.2100568e-06
-6.0944909e-08
1.3484676e-06
-5.8732959e-08
1.4992964e-06
-5.6384286e-08
1.661862e-06
-5.3813744e-08
1.8342808e-06
-5.0920462e-08
2.012837e-06
-4.7589935e-08
2.1911201e-06
-4.3697337e-08
2.3588673e-06
-3.9113358e-08
2.50044e-06
-3.3711743e-08
2.5928537e-06
-2.7383607e-08
2.6032698e-06
-2.008626e-08
2.4858578e-06
-1.2034317e-08
2.1781588e-06
-4.3018094e-09
1.5980361e-06
6.441746e-07
-3.1134336e-10
1.3353552e-08
-1.3479748e-09
4.0270246e-08
-3.3177329e-09
7.0274541e-08
-6.4056051e-09
1.0162994e-07
-1.0733529e-08
1.3256875e-07
-1.6318412e-08
1.6158862e-07
-2.3043555e-08
1.8772359e-07
-3.0656348e-08
2.1070211e-07
-3.8795413e-08
2.3094813e-07
-4.7038949e-08
2.49445e-07
-5.4959912e-08
2.675264e-07
-6.217541e-08
2.8666386e-07
-6.8382927e-08
3.0829732e-07
-7.3381205e-08
3.3372557e-07
-7.7077049e-08
3.6405266e-07
-7.9479736e-08
4.001779e-07
-8.0685975e-08
4.4281682e-07
-8.0856959e-08
4.92543e-07
-8.0191483e-08
5.4984246e-07
-7.8898726e-08
6.151726e-07
-7.7174201e-08
6.8901714e-07
-7.5182582e-08
7.7192753e-07
-7.3048309e-08
8.6454245e-07
-7.0852772e-08
9.6757745e-07
-6.863751e-08
1.081778e-06
-6.6408847e-08
1.2078281e-06
-6.4144115e-08
1.3462029e-06
-6.1795756e-08
1.4969481e-06
-5.9295033e-08
1.6593613e-06
-5.6554026e-08
1.8315398e-06
-5.3467682e-08
2.0097507e-06
-4.9916593e-08
2.187569e-06
-4.57706e-08
2.3547213e-06
-4.0894951e-08
2.4955643e-06
-3.5158822e-08
2.5871176e-06
-2.8453757e-08
2.5965648e-06
-2.0753382e-08
2.4781574e-06
-1.2326959e-08
2.1697323e-06
-4.3473133e-09
1.5900568e-06
6.3982704e-07
-2.9628297e-10
1.3649835e-08
-1.2845786e-09
4.1258542e-08
-3.1670516e-09
7.2157015e-08
-6.128487e-09
1.0459137e-07
-1.0299511e-08
1.3673978e-07
-1.5716566e-08
1.6700568e-07
-2.2291993e-08
1.9429901e-07
-2.9806905e-08
2.1821703e-07
-3.7931556e-08
2.3907278e-07
-4.6267188e-08
2.5778063e-07
-5.4397056e-08
2.7565627e-07
-6.1934366e-08
2.9420117e-07
-6.8559264e-08
3.1492222e-07
-7.4042376e-08
3.3920869e-07
-7.8255307e-08
3.6826559e-07
-8.1169879e-08
4.0309245e-07
-8.2847742e-08
4.4449469e-07
-8.3422321e-08
4.9311757e-07
-8.3074929e-08
5.4949508e-07
-8.2008713e-08
6.1410638e-07
-8.0423498e-08
6.8743193e-07
-7.8495658e-08
7.6999971e-07
-7.6364808e-08
8.6241155e-07
-7.4127608e-08
9.6534028e-07
-7.1838448e-08
1.0794888e-06
-6.9512926e-08
1.2055026e-06
-6.7133628e-08
1.3438236e-06
-6.4655448e-08
1.4944698e-06
-6.2008802e-08
1.6567147e-06
-5.9103921e-08
1.8286349e-06
-5.5832233e-08
2.0064789e-06
-5.2069778e-08
2.1838066e-06
-4.7681842e-08
2.3503333e-06
-4.2528407e-08
2.4904109e-06
-3.6475389e-08
2.5810646e-06
-2.9416055e-08
2.5895054e-06
-2.1341956e-08
2.4700834e-06
-1.2576231e-08
2.1609663e-06
-4.3826385e-09
1.5818631e-06
6.3544452e-07
-2.8291462e-10
1.3932749e-08
-1.2280835e-09
4.2203714e-08
-3.0321307e-09
7.3961058e-08
-5.8786893e-09
1.0743793e-07
-9.9047074e-09
1.407658e-07
-1.5162353e-08
1.7226332e-07
-2.1588505e-08
2.0072517e-07
-2.8994013e-08
2.2562254e-07
-3.7078317e-08
2.4715709e-07
-4.5465668e-08
2.6616798e-07
-5.3752078e-08
2.8394267e-07
-6.1551321e-08
3.0200042e-07
-6.8532245e-08
3.2190314e-07
-7.4443793e-08
3.4512024e-07
-7.912835e-08
3.7295014e-07
-8.2524434e-08
4.0648855e-07
-8.4660674e-08
4.4663091e-07
-8.5641674e-08
4.9409859e-07
-8.5628083e-08
5.4948147e-07
-8.48122e-08
6.132905e-07
-8.3393257e-08
6.8601299e-07
-8.1555189e-08
7.6816163e-07
-7.9450128e-08
8.603065e-07
-7.7189175e-08
9.630793e-07
-7.4839506e-08
1.0771392e-06
-7.2427061e-08
1.2030901e-06
-6.9940842e-08
1.3413374e-06
-6.7338859e-08
1.4918677e-06
-6.4552231e-08
1.6539282e-06
-6.1489431e-08
1.8255721e-06
-5.8039112e-08
2.0030286e-06
-5.4073435e-08
2.1798409e-06
-4.9453205e-08
2.345713e-06
-4.4034266e-08
2.484992e-06
-3.7679819e-08
2.5747101e-06
-3.0286218e-08
2.5821118e-06
-2.1864891e-08
2.461662e-06
-1.2790396e-08
2.1518922e-06
-4.4093514e-09
1.573482e-06
6.3103515e-07
-2.7095268e-10
1.4203703e-08
-1.1773786e-09
4.3110138e-08
-2.910527e-09
7.569421e-08
-5.6523065e-09
1.1017971e-07
-9.5441909e-09
1.4465768e-07
-1.4651106e-08
1.7737024e-07
-2.0930818e-08
2.0700488e-07
-2.8220339e-08
2.3291206e-07
-3.6245933e-08
2.5518268e-07
-4.4654222e-08
2.7457626e-07
-5.3055275e-08
2.9234373e-07
-6.1066692e-08
3.1001184e-07
-6.8350487e-08
3.2918693e-07
-7.4639254e-08
3.51409e-07
-7.9751368e-08
3.7806225e-07
-8.3596462e-08
4.1033366e-07
-8.6172677e-08
4.492071e-07
-8.7556264e-08
4.9548219e-07
-8.7885249e-08
5.4981044e-07
-8.7337631e-08
6.1274289e-07
-8.6107712e-08
6.8478307e-07
-8.438296e-08
7.6643686e-07
-8.232518e-08
8.5824873e-07
-8.0058147e-08
9.6081227e-07
-7.7661817e-08
1.0747429e-06
-7.5172676e-08
1.200601e-06
-7.2587215e-08
1.338752e-06
-6.9867687e-08
1.4891482e-06
-6.6946495e-08
1.651007e-06
-6.3731306e-08
1.822357e-06
-6.0108436e-08
1.9994056e-06
-5.5946681e-08
2.1756791e-06
-5.1102811e-08
2.3408692e-06
-4.5429349e-08
2.4793185e-06
-3.8787175e-08
2.5680679e-06
-3.1077157e-08
2.5744019e-06
-2.2331652e-08
2.4529165e-06
-1.2976079e-08
2.1425367e-06
-4.4301354e-09
1.5649357e-06
6.2660512e-07
-2.60177e-10
1.4463881e-08
-1.1315642e-09
4.3981524e-08
-2.8002941e-09
7.736294e-08
-5.4461187e-09
1.1282553e-07
-9.2137206e-09
1.4842528e-07
-1.4178455e-08
1.8233497e-07
-2.0315904e-08
2.1314233e-07
-2.7486239e-08
2.4008239e-07
-3.5440213e-08
2.6313666e-07
-4.3845881e-08
2.8298193e-07
-5.2328051e-08
3.0082589e-07
-6.0510252e-08
3.1819405e-07
-6.8051154e-08
3.3672782e-07
-7.4671213e-08
3.5802908e-07
-8.016939e-08
3.8356042e-07
-8.4430477e-08
4.1459474e-07
-8.7425027e-08
4.5220166e-07
-8.9202298e-08
4.9725947e-07
-8.9876906e-08
5.5048506e-07
-8.9610167e-08
6.1247615e-07
-8.8587851e-08
6.8376075e-07
-8.6997281e-08
7.6484629e-07
-8.5006902e-08
8.5625836e-07
-8.275116e-08
9.5855655e-07
-8.0322076e-08
1.0723138e-06
-7.7766756e-08
1.1980457e-06
-7.5090075e-08
1.3360753e-06
-7.2259098e-08
1.4863172e-06
-6.9208758e-08
1.6479566e-06
-6.5846369e-08
1.8189946e-06
-6.2056504e-08
1.9956157e-06
-5.7705065e-08
2.1713278e-06
-5.2645584e-08
2.3358097e-06
-4.6727132e-08
2.4734001e-06
-3.9809697e-08
2.5611504e-06
-3.179948e-08
2.5663918e-06
-2.2750762e-08
2.4438677e-06
-1.3138069e-08
2.1329239e-06
-4.4457151e-09
1.5562434e-06
6.2215936e-07
-2.5040972e-10
1.471429e-08
-1.0899359e-09
4.4821051e-08
-2.6998343e-09
7.8972837e-08
-5.2574536e-09
1.1538315e-07
-8.9096696e-09
1.520775e-07
-1.3740396e-08
1.871657e-07
-1.9740531e-08
2.1914246e-07
-2.6790745e-08
2.471326e-07
-3.4664176e-08
2.7101009e-07
-4.3049187e-08
2.9136695e-07
-5.158551e-08
3.0936221e-07
-5.9904083e-08
3.2651262e-07
-6.7662778e-08
3.4448652e-07
-7.4573393e-08
3.6493969e-07
-8.0419156e-08
3.8940618e-07
-8.5063785e-08
4.1923938e-07
-8.8453343e-08
4.5559122e-07
-9.0611765e-08
4.9941788e-07
-9.1630441e-08
5.5150373e-07
-9.1652423e-08
6.1249815e-07
-9.0852287e-08
6.8296063e-07
-8.9414006e-08
7.6340795e-07
-8.750945e-08
8.5435384e-07
-8.5281747e-08
9.5632885e-07
-8.2833665e-08
1.0698657e-06
-8.0223021e-08
1.195435e-06
-7.7463183e-08
1.3333155e-06
-7.4527217e-08
1.4833813e-06
-7.1352916e-08
1.6447823e-06
-6.7848312e-08
1.8154899e-06
-6.3896586e-08
1.991664e-06
-5.9361431e-08
2.1667926e-06
-5.4093359e-08
2.3305417e-06
-4.7938827e-08
2.4672455e-06
-4.0757293e-08
2.5539689e-06
-3.2461861e-08
2.5580964e-06
-2.3128824e-08
2.4345347e-06
-1.3279888e-08
2.1230748e-06
-4.4576001e-09
1.5474212e-06
6.1770166e-07
-2.4150538e-10
1.4955796e-08
-1.0519125e-09
4.5631459e-08
-2.6078407e-09
8.0528766e-08
-5.0840888e-09
1.178594e-07
-8.6289509e-09
1.5562236e-07
-1.3333378e-08
1.9187012e-07
-1.9201501e-08
2.2501058e-07
-2.6132211e-08
2.5406331e-07
-3.3919069e-08
2.7879696e-07
-4.2269625e-08
2.9971751e-07
-5.0838357e-08
3.1793094e-07
-5.9264624e-08
3.3493888e-07
-6.7207398e-08
3.5242931e-07
-7.4372501e-08
3.7210478e-07
-8.0530649e-08
3.9556433e-07
-8.5527752e-08
4.2423649e-07
-8.9288288e-08
4.5935174e-07
-9.1812808e-08
5.0194243e-07
-9.3170346e-08
5.5286125e-07
-9.3484913e-08
6.1281272e-07
-9.2917888e-08
6.8239361e-07
-9.1647004e-08
7.6213704e-07
-8.9845008e-08
8.5255186e-07
-8.7661199e-08
9.5414502e-07
-8.5207737e-08
1.0674122e-06
-8.2552545e-08
1.1927798e-06
-7.9717967e-08
1.3304809e-06
-7.6683434e-08
1.4803467e-06
-7.339041e-08
1.6414893e-06
-6.9748316e-08
1.8118478e-06
-6.563967e-08
1.9875554e-06
-6.0926297e-08
2.1620793e-06
-5.5456088e-08
2.3250715e-06
-4.907349e-08
2.4608628e-06
-4.163829e-08
2.5465338e-06
-3.3071068e-08
2.5495292e-06
-2.347112e-08
2.4249346e-06
-1.3404624e-08
2.1130084e-06
-4.4665108e-09
1.5384832e-06
6.1323535e-07
-2.3334946e-10
1.5189146e-08
-1.0170265e-09
4.6415133e-08
-2.5232417e-09
8.2034985e-08
-4.9241686e-09
1.2026033e-07
-8.3689106e-09
1.5906711e-07
-1.295425e-08
1.9645546e-07
-1.8695771e-08
2.3075211e-07
-2.5508623e-08
2.6087616e-07
-3.320504e-08
2.8649337e-07
-4.1510564e-08
3.0802303e-07
-5.009416e-08
3.2651454e-07
-5.8604144e-08
3.4344886e-07
-6.6702087e-08
3.6052725e-07
-7.4089898e-08
3.7949258e-07
-8.0528471e-08
4.0200291e-07
-8.5848748e-08
4.2955676e-07
-8.9956207e-08
4.6345922e-07
-9.2830375e-08
5.0481656e-07
-9.451874e-08
5.5454963e-07
-9.5126376e-08
6.1342033e-07
-9.480004e-08
6.8206725e-07
-9.3708977e-08
7.6104603e-07
-9.2024327e-08
8.5086717e-07
-8.9899111e-08
9.5201985e-07
-8.7453498e-08
1.0649666e-06
-8.4764623e-08
1.190091e-06
-8.1863781e-08
1.3275801e-06
-7.8737175e-08
1.4772201e-06
-7.5330764e-08
1.638083e-06
-7.1555829e-08
1.8080729e-06
-6.7294942e-08
1.9832945e-06
-6.2408347e-08
2.1571927e-06
-5.6742143e-08
2.3194052e-06
-5.0138796e-08
2.4542595e-06
-4.2459636e-08
2.5388545e-06
-3.3633121e-08
2.5407028e-06
-2.378177e-08
2.4150833e-06
-1.3514628e-08
2.1027412e-06
-4.4727106e-09
1.5294411e-06
6.0876262e-07
-2.2584797e-10
1.5414994e-08
-9.8487785e-10
4.7174162e-08
-2.4451357e-09
8.3495244e-08
-4.7761212e-09
1.2259131e-07
-8.127285e-09
1.6241827e-07
-1.2600231e-08
2.0092841e-07
-1.822054e-08
2.3637242e-07
-2.4917867e-08
2.6757349e-07
-3.2521548e-08
2.9409705e-07
-4.0774008e-08
3.1627549e-07
-4.9358239e-08
3.3509878e-07
-5.7931902e-08
3.5202251e-07
-6.6160134e-08
3.6875551e-07
-7.374272e-08
3.8707516e-07
-8.0432845e-08
4.0869303e-07
-8.6048876e-08
4.3517279e-07
-9.0479921e-08
4.6789026e-07
-9.3686264e-08
5.0802292e-07
-9.5695558e-08
5.5655891e-07
-9.659394e-08
6.1431873e-07
-9.6512907e-08
6.8198621e-07
-9.5611627e-08
7.6014473e-07
-9.4057039e-08
8.4931258e-07
-9.2004047e-08
9.499669e-07
-8.9578838e-08
1.0625414e-06
-8.6867114e-08
1.1873792e-06
-8.3908446e-08
1.3246215e-06
-8.0696482e-08
1.4740081e-06
-7.7182079e-08
1.6345685e-06
-7.3278876e-08
1.8041697e-06
-6.8870066e-08
1.9788857e-06
-6.3815115e-08
2.1521378e-06
-5.7958311e-08
2.3135483e-06
-5.1141323e-08
2.4474425e-06
-4.3226786e-08
2.5309401e-06
-3.4152877e-08
2.5316288e-06
-2.4064721e-08
2.4049951e-06
-1.3611845e-08
2.0922884e-06
-4.4765949e-09
1.5203059e-06
6.0428591e-07
-2.1891963e-10
1.5633913e-08
-9.55143e-10
4.7910386e-08
-2.372768e-09
8.4912867e-08
-4.6386101e-09
1.2485715e-07
-7.9021194e-09
1.6568178e-07
-1.2268882e-08
2.0529517e-07
-1.7773214e-08
2.4187674e-07
-2.4357797e-08
2.7415807e-07
-3.1867617e-08
3.0160688e-07
-4.0060937e-08
3.244688e-07
-4.8634283e-08
3.4367213e-07
-5.725475e-08
3.6064297e-07
-6.5591945e-08
3.770927e-07
-7.3344699e-08
3.9482792e-07
-8.0260347e-08
4.1560868e-07
-8.6146827e-08
4.4105927e-07
-9.0878874e-08
4.7262234e-07
-9.439981e-08
5.1154383e-07
-9.6718591e-08
5.5887769e-07
-9.7903308e-08
6.1550346e-07
-9.8069718e-08
6.8215262e-07
-9.7365584e-08
7.5944061e-07
-9.5952004e-08
8.4789897e-07
-9.398354e-08
9.4799846e-07
-9.1590756e-08
1.0601486e-06
-8.8866557e-08
1.184655e-06
-8.5858822e-08
1.3216137e-06
-8.2568177e-08
1.4707175e-06
-7.8951024e-08
1.6309513e-06
-7.4924112e-08
1.8001428e-06
-7.0371763e-08
1.9743333e-06
-6.5152938e-08
2.1469189e-06
-5.9110681e-08
2.3075062e-06
-5.2086474e-08
2.4404183e-06
-4.3945234e-08
2.5227988e-06
-3.4634297e-08
2.522318e-06
-2.4322687e-08
2.3946833e-06
-1.3697859e-08
2.0816638e-06
-4.4786855e-09
1.5110867e-06
5.998071e-07
-2.124952e-10
1.5846409e-08
-9.2754517e-10
4.8625434e-08
-2.3054843e-09
8.6290809e-08
-4.5104984e-09
1.2706216e-07
-7.6917222e-09
1.6886301e-07
-1.1958051e-08
2.095615e-07
-1.7351451e-08
2.4727014e-07
-2.382634e-08
2.8063296e-07
-3.1242072e-08
3.0902261e-07
-3.9371712e-08
3.3259844e-07
-4.7924804e-08
3.5222523e-07
-5.6577928e-08
3.6929608e-07
-6.5005608e-08
3.855204e-07
-7.2906935e-08
4.0272923e-07
-8.0024735e-08
4.2272649e-07
-8.6158323e-08
4.4719283e-07
-9.1170054e-08
4.7763409e-07
-9.4987941e-08
5.153617e-07
-9.7603935e-08
5.6149369e-07
-9.9068841e-08
6.1696837e-07
-9.9482712e-08
6.8256649e-07
-9.8981049e-08
7.5893895e-07
-9.7717462e-08
8.466354e-07
-9.5844545e-08
9.461255e-07
-9.34953e-08
1.0577994e-06
-9.0768869e-08
1.1819286e-06
-8.772044e-08
1.3185653e-06
-8.4358095e-08
1.4673551e-06
-8.0643514e-08
1.6272368e-06
-7.6497469e-08
1.7959967e-06
-7.1805576e-08
1.9696415e-06
-6.6427143e-08
2.1415404e-06
-6.0204612e-08
2.3012836e-06
-5.2979161e-08
2.4331928e-06
-4.461867e-08
2.5144384e-06
-3.5081258e-08
2.5127805e-06
-2.4558277e-08
2.3841604e-06
-1.3774065e-08
2.0708795e-06
-4.4791382e-09
1.5017919e-06
5.9532787e-07
-2.0652109e-10
1.605293e-08
-9.0184879e-10
4.9320758e-08
-2.2427533e-09
8.7631716e-08
-4.3908102e-09
1.2921022e-07
-7.4946303e-09
1.7196683e-07
-1.1665843e-08
2.1373271e-07
-1.6953141e-08
2.5255745e-07
-2.3321538e-08
2.8700135e-07
-3.0643578e-08
3.1634465e-07
-3.8706212e-08
3.4066108e-07
-4.7231467e-08
3.6075049e-07
-5.5905274e-08
3.7796988e-07
-6.440756e-08
3.940227e-07
-7.2438374e-08
4.1076005e-07
-7.9737387e-08
4.3002549e-07
-8.6096646e-08
4.5355209e-07
-9.1367904e-08
4.8290535e-07
-9.5465531e-08
5.1945934e-07
-9.8365967e-08
5.6439412e-07
-1.0010367e-07
6.1870605e-07
-1.007632e-07
6.8322606e-07
-1.0046744e-07
7.5864315e-07
-9.9361201e-08
8.4552918e-07
-9.7593357e-08
9.4435768e-07
-9.5298122e-08
1.0555042e-06
-9.2579169e-08
1.1792096e-06
-8.9498507e-08
1.3154846e-06
-8.6071124e-08
1.4639277e-06
-8.2264734e-08
1.6234304e-06
-7.8003924e-08
1.791736e-06
-7.3176702e-08
1.9648142e-06
-6.7642742e-08
2.1360065e-06
-6.1244358e-08
2.2948853e-06
-5.3823321e-08
2.4257717e-06
-4.5251324e-08
2.5058663e-06
-3.5496584e-08
2.5030259e-06
-2.4773829e-08
2.3734375e-06
-1.384132e-08
2.0599469e-06
-4.4780309e-09
1.492429e-06
5.9084957e-07
-2.0094956e-10
1.625388e-08
-8.7784855e-10
4.9997659e-08
-2.1840959e-09
8.8937962e-08
-4.2786948e-09
1.3130482e-07
-7.3095659e-09
1.749977e-07
-1.139058e-08
2.1781372e-07
-1.6576383e-08
2.5774325e-07
-2.284153e-08
2.932665e-07
-3.0070767e-08
3.2357389e-07
-3.8064041e-08
3.4865435e-07
-4.6555285e-08
3.6924173e-07
-5.523968e-08
3.8665428e-07
-6.3802796e-08
4.0258581e-07
-7.194633e-08
4.1890358e-07
-7.9407696e-08
4.3748685e-07
-8.5973034e-08
4.6011746e-07
-9.1484944e-08
4.8841726e-07
-9.5845725e-08
5.238201e-07
-9.9017575e-08
5.6756598e-07
-1.0101967e-07
6.2070818e-07
-1.019218e-07
6.8412814e-07
-1.0183355e-07
7.5855491e-07
-1.0089038e-07
8.4458602e-07
-9.9236064e-08
9.4270332e-07
-9.7004212e-08
1.0532723e-06
-9.4302033e-08
1.1765075e-06
-9.119739e-08
1.31238e-06
-8.7711786e-08
1.4604421e-06
-8.3819043e-08
1.6195377e-06
-7.9448044e-08
1.787365e-06
-7.4489399e-08
1.9598555e-06
-6.8803837e-08
2.1303209e-06
-6.2234196e-08
2.2883157e-06
-5.4622969e-08
2.4181606e-06
-4.5846112e-08
2.4970894e-06
-3.5883261e-08
2.493063e-06
-2.4971133e-08
2.3625254e-06
-1.390051e-08
2.0488763e-06
-4.4759702e-09
1.4830045e-06
5.8637367e-07
-1.9573627e-10
1.6449616e-08
-8.5538186e-10
5.0657303e-08
-2.1291106e-09
9.0211689e-08
-4.1734263e-09
1.3334914e-07
-7.1354152e-09
1.7795969e-07
-1.1130787e-08
2.2180909e-07
-1.6219439e-08
2.628319e-07
-2.2384614e-08
2.9943168e-07
-2.9522285e-08
3.3071155e-07
-3.7444573e-08
3.5657665e-07
-4.5896825e-08
3.7769398e-07
-5.4583254e-08
3.9534071e-07
-6.3195249e-08
4.111978e-07
-7.1436668e-08
4.27145e-07
-7.9043498e-08
4.4509367e-07
-8.5797077e-08
4.6687104e-07
-9.1532016e-08
4.941522e-07
-9.6139969e-08
5.2842803e-07
-9.9570246e-08
5.7099627e-07
-1.018279e-07
6.2296581e-07
-1.0296813e-07
6.8526841e-07
-1.0308778e-07
7.5867453e-07
-1.0231193e-07
8.4381019e-07
-1.0077816e-07
9.4116953e-07
-9.8618324e-08
1.0511125e-06
-9.5941641e-08
1.1738308e-06
-9.2820986e-08
1.3092593e-06
-8.9284039e-08
1.4569052e-06
-8.5310359e-08
1.615564e-06
-8.0833737e-08
1.7828883e-06
-7.5747539e-08
1.9547694e-06
-6.9914297e-08
2.1244876e-06
-6.3177438e-08
2.2815789e-06
-5.5381307e-08
2.4103644e-06
-4.6406224e-08
2.4881143e-06
-3.6243506e-08
2.4829003e-06
-2.5151942e-08
2.3514338e-06
-1.3952779e-08
2.037677e-06
-4.4725528e-09
1.4735244e-06
5.8190119e-07
-1.9084823e-10
1.6640464e-08
-8.3429046e-10
5.1300745e-08
-2.0774346e-09
9.1454836e-08
-4.0743602e-09
1.3534606e-07
-6.971191e-09
1.8085652e-07
-1.0885143e-08
2.2572304e-07
-1.5880761e-08
2.6782752e-07
-2.1949196e-08
3.0550011e-07
-2.8996762e-08
3.3775912e-07
-3.684708e-08
3.6442696e-07
-4.5256317e-08
3.8610322e-07
-5.3937544e-08
4.0402194e-07
-6.2588042e-08
4.1984829e-07
-7.0914233e-08
4.354712e-07
-7.8651362e-08
4.528308e-07
-8.5576846e-08
4.7379652e-07
-9.1518464e-08
5.0009381e-07
-9.6358399e-08
5.3326795e-07
-1.0003431e-07
5.7467222e-07
-1.0253809e-07
6.2546958e-07
-1.0391137e-07
6.8664165e-07
-1.0423789e-07
7.5900109e-07
-1.0363235e-07
8.4320465e-07
-1.0222506e-07
9.3976223e-07
-1.0014485e-07
1.0490323e-06
-9.7501888e-08
1.1711878e-06