/*--------------------------------*- C++ -*----------------------------------*\
| =========                 |                                                 |
| \\      /  F ield         | OpenFOAM: The Open Source CFD Toolbox           |
|  \\    /   O peration     | Version:  3.0.1                                 |
|   \\  /    A nd           | Web:      www.OpenFOAM.org                      |
|    \\/     M anipulation  |                                                 |
\*---------------------------------------------------------------------------*/
FoamFile
{
    version     2.0;
    format      ascii;
    class       volScalarField;
    location    "2297";
    object      Qr;
}
// * * * * * * * * * * * * * * * * * * * * * * * * * * * * * * * * * * * * * //

dimensions      [1 0 -3 0 0 0 0];

internalField   uniform 0;

boundaryField
{
    LeftWedge
    {
        type            wedge;
    }
    RightWedge
    {
        type            wedge;
    }
    Inlet
    {
        type            calculated;
        value           nonuniform List<scalar> 
40
(
13.98289
13.98289
13.98289
13.98289
13.98289
13.98289
13.98289
13.98289
13.98289
13.98289
13.98289
13.98289
13.98289
13.98289
13.98289
13.98289
13.98289
13.98289
13.98289
13.98289
13.98289
13.98289
13.98289
13.98289
13.98289
13.98289
13.98289
13.98289
13.98289
13.98289
13.98289
13.98289
13.98289
13.98289
13.98289
13.98289
13.98289
13.98289
13.98289
13.98289
)
;
    }
    Outlet
    {
        type            calculated;
        value           nonuniform List<scalar> 
40
(
-568.01393
-494.63759
-429.94339
-372.0971
-319.95288
-272.82593
-230.31466
-192.17243
-158.21934
-128.29339
-102.21758
-79.781135
-60.783753
-44.944033
-31.924336
-21.374892
-12.947074
-6.3045947
-1.1333649
2.829794
5.8379138
8.0980432
9.7795194
11.018821
11.924111
12.579765
13.050667
13.386084
13.623002
13.788904
13.90402
13.983106
14.036831
14.072835
14.096527
14.111687
14.120922
14.126027
14.1283
14.12885
)
;
    }
    Outterwall
    {
        type            calculated;
        value           nonuniform List<scalar> 
100
(
13.984391
13.986097
13.987794
13.989484
13.991171
13.992856
13.994539
13.99622
13.997901
13.999582
14.001262
14.002941
14.004621
14.0063
14.007979
14.009657
14.011336
14.013014
14.014692
14.01637
14.018048
14.019725
14.021403
14.023081
14.024758
14.026435
14.028112
14.029789
14.031466
14.033143
14.03482
14.036496
14.038172
14.039848
14.041524
14.043199
14.044874
14.046548
14.048222
14.049895
14.051567
14.053238
14.054908
14.056577
14.058244
14.059909
14.061572
14.063233
14.064891
14.066547
14.068199
14.069847
14.071491
14.073131
14.074765
14.076394
14.078017
14.079633
14.081242
14.082843
14.084435
14.086018
14.08759
14.089152
14.090702
14.092239
14.093763
14.095273
14.096767
14.098245
14.099706
14.101148
14.102571
14.103974
14.105355
14.106713
14.108048
14.109357
14.11064
14.111895
14.113121
14.114317
14.115481
14.116612
14.117709
14.118769
14.119792
14.120776
14.121719
14.12262
14.123477
14.124289
14.125053
14.125768
14.126432
14.127043
14.127598
14.128095
14.128524
14.12885
)
;
    }
    Innerwall
    {
        type            calculated;
        value           nonuniform List<scalar> 
100
(
-334.99831
-398.54653
-427.46923
-445.15237
-457.56216
-466.97
-474.46731
-480.65332
-485.88993
-490.41096
-494.37551
-497.89627
-501.0558
-503.91617
-506.52517
-508.92033
-511.13155
-513.18309
-515.09481
-516.8832
-518.56208
-520.14314
-521.63634
-523.05023
-524.39223
-525.66876
-526.88547
-528.04731
-529.15868
-530.22346
-531.24513
-532.2268
-533.17127
-534.08105
-534.95842
-535.80546
-536.62404
-537.41589
-538.18256
-538.92551
-539.64606
-540.34542
-541.02472
-541.685
-542.32722
-542.95228
-543.56101
-544.15418
-544.73251
-545.29669
-545.84733
-546.38503
-546.91034
-547.42379
-547.92586
-548.417
-548.89767
-549.36825
-549.82915
-550.28072
-550.7233
-551.15724
-551.58283
-552.00037
-552.41014
-552.8124
-553.20741
-553.59541
-553.97662
-554.35127
-554.71956
-555.08169
-555.43785
-555.78822
-556.13297
-556.47227
-556.80629
-557.13516
-557.45904
-557.77807
-558.09238
-558.4021
-558.70736
-559.00827
-559.30495
-559.5975
-559.88605
-560.17068
-560.45151
-560.72865
-561.00222
-561.27243
-561.53981
-561.80563
-562.07503
-562.36149
-562.71803
-563.19965
-564.23999
-565.48194
)
;
    }
}


// ************************************************************************* //
