/*--------------------------------*- C++ -*----------------------------------*\
| =========                 |                                                 |
| \\      /  F ield         | OpenFOAM: The Open Source CFD Toolbox           |
|  \\    /   O peration     | Version:  3.0.1                                 |
|   \\  /    A nd           | Web:      www.OpenFOAM.org                      |
|    \\/     M anipulation  |                                                 |
\*---------------------------------------------------------------------------*/
FoamFile
{
    version     2.0;
    format      ascii;
    class       volScalarField;
    location    "2297";
    object      rho;
}
// * * * * * * * * * * * * * * * * * * * * * * * * * * * * * * * * * * * * * //

dimensions      [1 -3 0 0 0 0 0];

internalField   nonuniform List<scalar> 
4000
(
1.1139939
1.1429505
1.1648355
1.179836
1.1893641
1.195058
1.1982936
1.2000518
1.2009717
1.2014363
1.2016631
1.2017701
1.2018189
1.2018404
1.2018495
1.2018532
1.2018547
1.2018552
1.2018554
1.2018555
1.2018555
1.2018555
1.2018555
1.2018555
1.2018555
1.2018555
1.2018555
1.2018555
1.2018555
1.2018555
1.2018555
1.2018555
1.2018555
1.2018555
1.2018555
1.2018555
1.2018555
1.2018555
1.2018555
1.2018555
1.0960055
1.1220515
1.1448585
1.1633353
1.1771628
1.1867819
1.1930567
1.196927
1.1991999
1.2004769
1.2011654
1.2015222
1.2017001
1.2017853
1.2018245
1.2018419
1.2018492
1.2018522
1.2018534
1.2018538
1.201854
1.201854
1.201854
1.201854
1.201854
1.201854
1.201854
1.201854
1.201854
1.201854
1.201854
1.201854
1.201854
1.201854
1.201854
1.201854
1.201854
1.201854
1.201854
1.201854
1.0882247
1.1122096
1.1340022
1.1528043
1.1680402
1.1796061
1.1878543
1.1934089
1.1969605
1.1991266
1.2003908
1.2010982
1.2014781
1.201674
1.2017708
1.2018166
1.2018374
1.2018465
1.2018502
1.2018517
1.2018522
1.2018524
1.2018525
1.2018525
1.2018525
1.2018525
1.2018525
1.2018525
1.2018525
1.2018525
1.2018525
1.2018525
1.2018525
1.2018525
1.2018525
1.2018525
1.2018525
1.2018525
1.2018525
1.2018525
1.0835837
1.106255
1.1271364
1.1456683
1.1613206
1.1738249
1.1832647
1.1900148
1.1946036
1.1975803
1.1994282
1.2005279
1.201156
1.2015001
1.201681
1.2017721
1.201816
1.2018361
1.201845
1.2018487
1.2018502
1.2018507
1.2018509
1.201851
1.201851
1.201851
1.201851
1.201851
1.201851
1.201851
1.201851
1.201851
1.201851
1.201851
1.201851
1.201851
1.201851
1.201851
1.201851
1.201851
1.080377
1.1021229
1.1222873
1.1404604
1.1561884
1.1691634
1.1793375
1.1869239
1.1923161
1.1959797
1.1983652
1.1998561
1.2007513
1.2012676
1.2015533
1.201705
1.201782
1.2018194
1.2018367
1.2018443
1.2018475
1.2018488
1.2018493
1.2018495
1.2018495
1.2018495
1.2018495
1.2018495
1.2018495
1.2018495
1.2018495
1.2018495
1.2018495
1.2018495
1.2018495
1.2018495
1.2018495
1.2018495
1.2018495
1.2018495
1.077973
1.0990189
1.1186115
1.1364401
1.1521173
1.1653358
1.1759811
1.1841639
1.190176
1.1944076
1.197267
1.1991251
1.200287
1.200986
1.2013902
1.2016147
1.2017341
1.2017949
1.2018244
1.201838
1.201844
1.2018465
1.2018475
1.2018478
1.201848
1.201848
1.201848
1.201848
1.201848
1.201848
1.201848
1.201848
1.201848
1.201848
1.201848
1.201848
1.201848
1.201848
1.201848
1.201848
1.0760733
1.0965637
1.1156881
1.1332058
1.1487834
1.1621266
1.1730867
1.1817072
1.1882041
1.1929042
1.1961749
1.1983673
1.1997843
1.200667
1.2011968
1.2015025
1.2016718
1.2017616
1.2018071
1.2018291
1.2018392
1.2018436
1.2018454
1.2018461
1.2018464
1.2018465
1.2018465
1.2018465
1.2018465
1.2018465
1.2018465
1.2018465
1.2018465
1.2018465
1.2018465
1.2018465
1.2018465
1.2018465
1.2018465
1.2018465
1.0745164
1.0945505
1.1132822
1.1305228
1.1459828
1.1593848
1.1705622
1.1795129
1.1863958
1.1914856
1.195112
1.197605
1.1992603
1.2003219
1.200979
1.2013709
1.2015957
1.2017194
1.2017845
1.2018173
1.2018329
1.20184
1.2018431
1.2018443
1.2018448
1.201845
1.201845
1.201845
1.201845
1.201845
1.201845
1.201845
1.201845
1.201845
1.201845
1.201845
1.201845
1.201845
1.201845
1.201845
1.0732059
1.0928551
1.1112508
1.1282444
1.1435821
1.1570041
1.1683352
1.1775411
1.1847371
1.1901548
1.19409
1.1968522
1.1987278
1.19996
1.2007429
1.2012231
1.201507
1.2016684
1.2017563
1.2018021
1.2018248
1.2018355
1.2018403
1.2018423
1.2018431
1.2018434
1.2018435
1.2018435
1.2018435
1.2018435
1.2018435
1.2018435
1.2018435
1.2018435
1.2018435
1.2018435
1.2018435
1.2018435
1.2018435
1.2018435
1.0720797
1.0913979
1.1095015
1.1262736
1.1414904
1.1549088
1.1663502
1.1757577
1.1832118
1.1889085
1.1931138
1.1961173
1.1981954
1.1995887
1.2004937
1.2010624
1.2014075
1.2016092
1.2017225
1.2017834
1.2018146
1.2018299
1.2018369
1.20184
1.2018413
1.2018418
1.2018419
1.201842
1.201842
1.201842
1.201842
1.201842
1.201842
1.201842
1.201842
1.201842
1.201842
1.201842
1.201842
1.201842
1.0710961
1.0901252
1.1079712
1.1245435
1.1396433
1.1530434
1.1645648
1.174134
1.1818042
1.1877409
1.1921841
1.1954049
1.197669
1.1992135
1.2002358
1.2008917
1.2012988
1.2015427
1.2016834
1.2017611
1.2018023
1.201823
1.2018329
1.2018374
1.2018393
1.2018401
1.2018404
1.2018405
1.2018405
1.2018405
1.2018405
1.2018405
1.2018405
1.2018405
1.2018405
1.2018405
1.2018405
1.2018405
1.2018405
1.2018405
1.0702257
1.0889988
1.1066152
1.123006
1.137994
1.1513663
1.1629458
1.1726467
1.1805
1.1866456
1.1913
1.1947171
1.1971524
1.1988385
1.1999728
1.2007136
1.2011826
1.2014697
1.2016392
1.2017354
1.2017877
1.2018148
1.2018282
1.2018344
1.2018372
1.2018383
1.2018388
1.201839
1.201839
1.201839
1.201839
1.201839
1.201839
1.201839
1.201839
1.201839
1.201839
1.201839
1.201839
1.201839
1.069447
1.0879911
1.1054009
1.1216258
1.1365074
1.149846
1.1614674
1.1712768
1.179287
1.1856157
1.190459
1.1940545
1.1966477
1.1984664
1.1997073
1.2005304
1.2010605
1.2013912
1.2015906
1.2017064
1.2017709
1.2018052
1.2018226
1.201831
1.2018349
1.2018365
1.2018372
1.2018374
1.2018375
1.2018375
1.2018375
1.2018375
1.2018375
1.2018375
1.2018375
1.2018375
1.2018375
1.2018375
1.2018375
1.2018375
1.068744
1.0870813
1.1043038
1.1203762
1.1351568
1.1484579
1.160109
1.1700085
1.1781545
1.1846453
1.1896585
1.1934169
1.1961562
1.1980993
1.1994414
1.2003438
1.2009338
1.2013081
1.201538
1.2016743
1.2017519
1.2017942
1.2018163
1.2018272
1.2018323
1.2018345
1.2018355
1.2018358
1.201836
1.201836
1.201836
1.201836
1.201836
1.201836
1.201836
1.201836
1.201836
1.201836
1.201836
1.201836
1.0681044
1.0862535
1.1033048
1.1192365
1.1339212
1.1471826
1.158854
1.1688292
1.1770934
1.1837287
1.1888956
1.1928035
1.1956784
1.1977382
1.1991766
1.2001553
1.2008037
1.2012213
1.201482
1.2016393
1.2017308
1.2017818
1.201809
1.2018228
1.2018294
1.2018324
1.2018337
1.2018342
1.2018344
1.2018345
1.2018345
1.2018345
1.2018345
1.2018345
1.2018345
1.2018345
1.2018345
1.2018345
1.2018345
1.2018345
1.0675184
1.0854953
1.1023893
1.1181904
1.1327841
1.1460045
1.1576889
1.1677278
1.1760961
1.1828608
1.1881677
1.1922132
1.1952144
1.1973842
1.1989139
1.199966
1.2006712
1.2011314
1.2014229
1.2016018
1.2017077
1.2017679
1.2018008
1.2018178
1.2018262
1.2018302
1.2018319
1.2018326
1.2018329
1.201833
1.201833
1.201833
1.201833
1.201833
1.201833
1.201833
1.201833
1.201833
1.201833
1.201833
1.0669786
1.0847968
1.1015453
1.1172248
1.1317321
1.1449108
1.1566027
1.1666956
1.1751557
1.1820372
1.1874721
1.1916449
1.1947642
1.1970375
1.1986543
1.1997767
1.2005371
1.2010391
1.2013613
1.201562
1.2016828
1.2017528
1.2017917
1.2018123
1.2018228
1.2018277
1.20183
1.2018309
1.2018313
1.2018315
1.2018315
1.2018315
1.2018315
1.2018315
1.2018315
1.2018315
1.2018315
1.2018315
1.2018315
1.2018315
1.0664787
1.0841499
1.1007635
1.1163292
1.1307544
1.1438912
1.155586
1.165725
1.1742666
1.1812539
1.1868064
1.1910974
1.1943273
1.1966985
1.1983981
1.1995882
1.2004021
1.200945
1.2012977
1.2015202
1.2016562
1.2017363
1.2017817
1.2018062
1.2018189
1.2018251
1.201828
1.2018292
1.2018297
1.2018299
1.20183
1.20183
1.20183
1.20183
1.20183
1.20183
1.20183
1.20183
1.20183
1.20183
1.0660136
1.0835482
1.100036
1.1154949
1.1298418
1.142937
1.1546311
1.1648093
1.1734238
1.1805074
1.1861683
1.1905694
1.1939032
1.1963671
1.1981459
1.199401
1.2002666
1.2008495
1.2012323
1.2014767
1.2016281
1.2017186
1.2017708
1.2017996
1.2018147
1.2018223
1.2018259
1.2018275
1.2018281
1.2018284
1.2018285
1.2018285
1.2018285
1.2018285
1.2018285
1.2018285
1.2018285
1.2018285
1.2018285
1.2018285
1.0655792
1.0829863
1.0993563
1.1147147
1.128987
1.1420409
1.1537315
1.1639433
1.172623
1.1797946
1.1855558
1.1900598
1.1934916
1.1960434
1.1978978
1.1992154
1.2001311
1.2007531
1.2011655
1.2014317
1.2015986
1.2016998
1.2017591
1.2017923
1.2018101
1.2018192
1.2018236
1.2018256
1.2018265
1.2018268
1.201827
1.201827
1.201827
1.201827
1.201827
1.201827
1.201827
1.201827
1.201827
1.201827
1.065172
1.0824595
1.098719
1.1139826
1.1281836
1.1411968
1.1528814
1.163122
1.1718605
1.1791128
1.1849671
1.1895675
1.1930917
1.1957273
1.1976539
1.1990318
1.199996
1.2006561
1.2010976
1.2013854
1.2015679
1.20168
1.2017465
1.2017845
1.2018052
1.2018159
1.2018213
1.2018237
1.2018248
1.2018253
1.2018254
1.2018255
1.2018255
1.2018255
1.2018255
1.2018255
1.2018255
1.2018255
1.2018255
1.2018255
1.064789
1.0819641
1.0981195
1.1132933
1.1274262
1.1403994
1.1520762
1.1623414
1.1711329
1.1784596
1.1844005
1.1890915
1.1927031
1.1954184
1.1974143
1.1988502
1.1998616
1.2005588
1.2010288
1.201338
1.2015361
1.2016593
1.2017333
1.2017761
1.2017998
1.2018124
1.2018188
1.2018218
1.2018231
1.2018237
1.2018239
1.201824
1.201824
1.201824
1.201824
1.201824
1.201824
1.201824
1.201824
1.201824
1.0644277
1.0814969
1.0975539
1.1126426
1.1267102
1.1396441
1.1513116
1.1615978
1.1704374
1.1778326
1.1838544
1.1886307
1.1923253
1.1951166
1.1971791
1.1986709
1.1997279
1.2004614
1.2009594
1.2012898
1.2015034
1.2016376
1.2017193
1.2017672
1.2017941
1.2018087
1.2018161
1.2018197
1.2018214
1.2018221
1.2018224
1.2018225
1.2018225
1.2018225
1.2018225
1.2018225
1.2018225
1.2018225
1.2018225
1.2018225
1.064086
1.081055
1.0970189
1.1120267
1.1260317
1.1389271
1.150584
1.1608882
1.1697714
1.17723
1.1833275
1.1881843
1.1919578
1.1948217
1.1969481
1.198494
1.1995953
1.2003641
1.2008896
1.2012408
1.2014699
1.2016152
1.2017046
1.2017577
1.2017881
1.2018047
1.2018133
1.2018176
1.2018196
1.2018205
1.2018208
1.201821
1.201821
1.201821
1.201821
1.201821
1.201821
1.201821
1.201821
1.201821
1.063762
1.0806361
1.0965116
1.1114424
1.1253872
1.1382449
1.1498901
1.1602097
1.1691327
1.1766501
1.1828186
1.1877514
1.1915999
1.1945335
1.1967213
1.1983195
1.1994638
1.200267
1.2008194
1.2011912
1.2014356
1.2015921
1.2016893
1.2017478
1.2017816
1.2018004
1.2018104
1.2018154
1.2018177
1.2018188
1.2018193
1.2018194
1.2018195
1.2018195
1.2018195
1.2018195
1.2018195
1.2018195
1.2018195
1.2018195
1.0634542
1.080238
1.0960295
1.1108867
1.1247737
1.1375945
1.1492273
1.1595598
1.1685191
1.1760912
1.1823265
1.1873313
1.1912513
1.1942516
1.1964986
1.1981473
1.1993334
1.2001703
1.2007491
1.2011411
1.2014007
1.2015683
1.2016735
1.2017374
1.2017749
1.2017959
1.2018072
1.201813
1.2018158
1.2018171
1.2018177
1.2018179
1.201818
1.201818
1.201818
1.201818
1.201818
1.201818
1.201818
1.201818
1.063161
1.079859
1.0955704
1.1103572
1.1241887
1.1369734
1.1485931
1.1589365
1.1679289
1.1755519
1.18185
1.1869232
1.1909116
1.1939759
1.19628
1.1979777
1.1992044
1.200074
1.2006787
1.2010907
1.2013653
1.201544
1.2016572
1.2017266
1.2017677
1.2017912
1.201804
1.2018106
1.2018139
1.2018154
1.2018161
1.2018164
1.2018165
1.2018165
1.2018165
1.2018165
1.2018165
1.2018165
1.2018165
1.2018165
1.0628813
1.0794974
1.0951323
1.1098519
1.1236297
1.1363791
1.1479851
1.1583376
1.1673604
1.1750311
1.1813884
1.1865266
1.1905802
1.193706
1.1960653
1.1978104
1.1990767
1.1999783
1.2006083
1.20104
1.2013295
1.2015192
1.2016403
1.2017154
1.2017603
1.2017862
1.2018006
1.2018081
1.2018119
1.2018137
1.2018145
1.2018148
1.201815
1.201815
1.201815
1.201815
1.201815
1.201815
1.201815
1.201815
1.062614
1.0791519
1.0947136
1.1093686
1.1230948
1.1358096
1.1474016
1.1577616
1.1668122
1.1745273
1.1809407
1.1861407
1.1902569
1.1934419
1.1958544
1.1976456
1.1989503
1.1998832
1.2005381
1.2009891
1.2012933
1.201494
1.2016231
1.2017037
1.2017526
1.201781
1.201797
1.2018055
1.2018098
1.2018119
1.2018129
1.2018133
1.2018134
1.2018135
1.2018135
1.2018135
1.2018135
1.2018135
1.2018135
1.2018135
1.062358
1.0788211
1.0943128
1.1089057
1.122582
1.1352632
1.1468406
1.1572068
1.1662829
1.1740398
1.1805061
1.185765
1.1899411
1.1931832
1.1956472
1.1974831
1.1988253
1.1997888
1.2004681
1.200938
1.2012568
1.2014684
1.2016054
1.2016918
1.2017445
1.2017756
1.2017932
1.2018028
1.2018077
1.2018101
1.2018112
1.2018117
1.2018119
1.201812
1.201812
1.201812
1.201812
1.201812
1.201812
1.201812
1.0621126
1.0785039
1.0939284
1.1084618
1.1220898
1.134738
1.1463007
1.1566717
1.1657713
1.1735673
1.1800839
1.1853991
1.1896326
1.1929297
1.1954436
1.1973229
1.1987016
1.1996951
1.2003982
1.2008869
1.20122
1.2014424
1.2015874
1.2016795
1.2017362
1.20177
1.2017893
1.2017999
1.2018055
1.2018083
1.2018096
1.2018101
1.2018104
1.2018105
1.2018105
1.2018105
1.2018105
1.2018105
1.2018105
1.2018105
1.061877
1.0781994
1.0935594
1.1080353
1.1216167
1.1342326
1.1457805
1.1561552
1.1652764
1.1731092
1.1796734
1.1850423
1.1893311
1.1926812
1.1952435
1.197165
1.1985794
1.1996021
1.2003287
1.2008358
1.2011831
1.2014161
1.2015691
1.2016668
1.2017276
1.2017641
1.2017853
1.201797
1.2018032
1.2018064
1.2018079
1.2018086
1.2018088
1.201809
1.201809
1.201809
1.201809
1.201809
1.201809
1.201809
1.0616504
1.0779067
1.0932045
1.1076252
1.1211614
1.1337458
1.1452786
1.155656
1.1647972
1.1726645
1.179274
1.1846943
1.1890362
1.1924375
1.1950467
1.1970093
1.1984585
1.1995098
1.2002595
1.2007847
1.2011459
1.2013896
1.2015504
1.201654
1.2017188
1.2017581
1.2017811
1.201794
1.2018009
1.2018044
1.2018062
1.201807
1.2018073
1.2018074
1.2018075
1.2018075
1.2018075
1.2018075
1.2018075
1.2018075
1.0614323
1.0776249
1.0928629
1.1072302
1.1207226
1.1332762
1.1447938
1.1551731
1.1643326
1.1722325
1.1788851
1.1843546
1.1887477
1.1921985
1.1948532
1.1968558
1.198339
1.1994184
1.2001906
1.2007336
1.2011087
1.2013629
1.2015315
1.2016408
1.2017097
1.2017518
1.2017767
1.2017908
1.2017985
1.2018025
1.2018044
1.2018054
1.2018058
1.2018059
1.201806
1.201806
1.201806
1.201806
1.201806
1.201806
1.0612221
1.0773533
1.0925337
1.1068494
1.1202994
1.1328228
1.1443252
1.1547055
1.1638819
1.1718126
1.1785062
1.1840229
1.1884652
1.191964
1.1946628
1.1967044
1.1982208
1.1993277
1.2001221
1.2006826
1.2010714
1.201336
1.2015124
1.2016274
1.2017004
1.2017454
1.2017722
1.2017876
1.201796
1.2018005
1.2018027
1.2018037
1.2018042
1.2018044
1.2018045
1.2018045
1.2018045
1.2018045
1.2018045
1.2018045
1.0610192
1.0770913
1.092216
1.1064819
1.1198906
1.1323845
1.1438717
1.1542523
1.1634444
1.1714041
1.1781368
1.1836987
1.1881885
1.1917337
1.1944755
1.1965551
1.1981039
1.1992377
1.2000539
1.2006318
1.201034
1.2013089
1.2014931
1.2016138
1.2016909
1.2017388
1.2017676
1.2017842
1.2017935
1.2017984
1.2018009
1.2018021
1.2018026
1.2018029
1.201803
1.201803
1.201803
1.201803
1.201803
1.201803
1.0608233
1.0768382
1.0919092
1.1061268
1.1194955
1.1319606
1.1434324
1.1538127
1.1630192
1.1710063
1.1777764
1.1833818
1.1879174
1.1915076
1.1942911
1.1964078
1.1979884
1.1991486
1.1999862
1.2005811
1.2009966
1.2012817
1.2014736
1.2016
1.2016812
1.201732
1.2017628
1.2017808
1.2017909
1.2017963
1.2017991
1.2018004
1.2018011
1.2018013
1.2018014
1.2018015
1.2018015
1.2018015
1.2018015
1.2018015
1.0606338
1.0765935
1.0916126
1.1057834
1.1191132
1.13155
1.1430066
1.1533859
1.1626059
1.1706189
1.1774246
1.1830718
1.1876517
1.1912855
1.1941096
1.1962624
1.1978741
1.1990602
1.1999189
1.2005306
1.2009592
1.2012544
1.2014539
1.201586
1.2016714
1.2017251
1.2017579
1.2017772
1.2017882
1.2017942
1.2017972
1.2017988
1.2017995
1.2017998
1.2017999
1.2018
1.2018
1.2018
1.2018
1.2018
1.0604505
1.0763567
1.0913255
1.105451
1.118743
1.1311521
1.1425935
1.1529714
1.1622036
1.1702412
1.177081
1.1827684
1.1873911
1.1910672
1.1939308
1.196119
1.1977611
1.1989726
1.199852
1.2004802
1.2009218
1.201227
1.2014341
1.2015718
1.2016613
1.201718
1.2017529
1.2017736
1.2017854
1.201792
1.2017954
1.2017971
1.2017979
1.2017983
1.2017984
1.2017985
1.2017985
1.2017985
1.2017985
1.2017985
1.0602729
1.0761274
1.0910474
1.105129
1.1183842
1.1307662
1.1421924
1.1525684
1.161812
1.1698729
1.1767453
1.1824713
1.1871354
1.1908525
1.1937547
1.1959774
1.1976493
1.1988857
1.1997856
1.2004301
1.2008845
1.2011995
1.2014141
1.2015575
1.2016511
1.2017108
1.2017477
1.2017698
1.2017826
1.2017897
1.2017935
1.2017954
1.2017963
1.2017967
1.2017969
1.201797
1.201797
1.201797
1.201797
1.201797
1.0601007
1.0759051
1.0907779
1.1048167
1.1180361
1.1303916
1.1418026
1.1521763
1.1614304
1.1695134
1.1764171
1.1821804
1.1868844
1.1906415
1.1935812
1.1958376
1.1975387
1.1987997
1.1997195
1.2003801
1.2008472
1.201172
1.2013941
1.201543
1.2016408
1.2017034
1.2017424
1.201766
1.2017797
1.2017874
1.2017915
1.2017936
1.2017947
1.2017952
1.2017954
1.2017954
1.2017955
1.2017955
1.2017955
1.2017955
1.0599336
1.0756894
1.0905163
1.1045137
1.1176982
1.1300277
1.1414237
1.1517946
1.1610584
1.1691623
1.176096
1.1818952
1.1866381
1.1904339
1.1934102
1.1956996
1.1974293
1.1987143
1.1996539
1.2003304
1.2008099
1.2011445
1.2013739
1.2015284
1.2016303
1.2016959
1.201737
1.2017621
1.2017768
1.2017851
1.2017896
1.2017919
1.201793
1.2017936
1.2017938
1.2017939
1.201794
1.201794
1.201794
1.201794
1.0597714
1.07548
1.0902624
1.1042195
1.1173699
1.1296739
1.141055
1.1514228
1.1606955
1.1688194
1.1757818
1.1816157
1.1863961
1.1902296
1.1932417
1.1955633
1.197321
1.1986298
1.1995888
1.2002809
1.2007727
1.2011169
1.2013537
1.2015137
1.2016197
1.2016883
1.2017316
1.201758
1.2017737
1.2017827
1.2017876
1.2017901
1.2017914
1.201792
1.2017923
1.2017924
1.2017925
1.2017925
1.2017925
1.2017925
1.0596138
1.0752766
1.0900157
1.1039336
1.1170508
1.1293298
1.140696
1.1510604
1.1603414
1.1684842
1.1754741
1.1813415
1.1861583
1.1900286
1.1930755
1.1954286
1.1972139
1.1985459
1.1995241
1.2002316
1.2007356
1.2010893
1.2013334
1.2014989
1.201609
1.2016806
1.201726
1.2017539
1.2017706
1.2017802
1.2017855
1.2017883
1.2017898
1.2017904
1.2017908
1.2017909
1.201791
1.201791
1.201791
1.201791
1.0594605
1.0750788
1.0897758
1.1036555
1.1167404
1.1289948
1.1403463
1.150707
1.1599956
1.1681564
1.1751728
1.1810725
1.1859247
1.1898306
1.1929115
1.1952956
1.1971079
1.1984628
1.1994598
1.2001825
1.2006986
1.2010617
1.201313
1.201484
1.2015981
1.2016727
1.2017203
1.2017498
1.2017675
1.2017777
1.2017835
1.2017865
1.2017881
1.2017889
1.2017892
1.2017894
1.2017894
1.2017895
1.2017895
1.2017895
1.0593114
1.0748863
1.0895425
1.103385
1.1164382
1.1286685
1.1400054
1.1503621
1.1596577
1.1678357
1.1748776
1.1808085
1.185695
1.1896357
1.1927498
1.1951642
1.197003
1.1983803
1.199396
1.2001337
1.2006617
1.2010341
1.2012925
1.201469
1.2015872
1.2016648
1.2017145
1.2017455
1.2017642
1.2017752
1.2017814
1.2017847
1.2017864
1.2017873
1.2017877
1.2017879
1.2017879
1.201788
1.201788
1.201788
1.0591662
1.074699
1.0893153
1.1031215
1.1161438
1.1283506
1.1396729
1.1500255
1.1593275
1.1675218
1.1745882
1.1805493
1.1854691
1.1894437
1.1925903
1.1950343
1.1968991
1.1982986
1.1993326
1.2000851
1.200625
1.2010065
1.2012721
1.2014539
1.2015762
1.2016567
1.2017086
1.2017411
1.201761
1.2017726
1.2017792
1.2017828
1.2017847
1.2017857
1.2017861
1.2017863
1.2017864
1.2017865
1.2017865
1.2017865
1.0590247
1.0745165
1.089094
1.1028649
1.115857
1.1280406
1.1393485
1.1496966
1.1590046
1.1672145
1.1743043
1.1802947
1.1852468
1.1892545
1.1924328
1.1949059
1.1967963
1.1982176
1.1992696
1.2000368
1.2005883
1.2009789
1.2012516
1.2014388
1.2015651
1.2016486
1.2017027
1.2017367
1.2017576
1.20177
1.2017771
1.201781
1.201783
1.2017841
1.2017846
1.2017848
1.2017849
1.2017849
1.201785
1.201785
1.0588868
1.0743386
1.0888783
1.1026147
1.1155772
1.1277381
1.1390317
1.1493753
1.1586887
1.1669134
1.1740259
1.1800446
1.1850281
1.189068
1.1922774
1.194779
1.1966945
1.1981372
1.199207
1.1999887
1.2005517
1.2009514
1.201231
1.2014235
1.2015539
1.2016404
1.2016966
1.2017322
1.2017542
1.2017673
1.2017749
1.2017791
1.2017813
1.2017824
1.201783
1.2017833
1.2017834
1.2017834
1.2017835
1.2017835
1.0587524
1.0741651
1.0886679
1.1023707
1.1153043
1.1274428
1.1387224
1.1490611
1.1583795
1.1666183
1.1737527
1.1797988
1.1848129
1.1888842
1.192124
1.1946535
1.1965937
1.1980575
1.1991449
1.1999408
1.2005152
1.2009239
1.2012104
1.2014083
1.2015426
1.2016321
1.2016905
1.2017277
1.2017507
1.2017646
1.2017726
1.2017771
1.2017796
1.2017808
1.2017814
1.2017817
1.2017819
1.2017819
1.2017819
1.201782
1.0586211
1.0739959
1.0884626
1.1021325
1.1150379
1.1271545
1.13842
1.1487538
1.1580767
1.166329
1.1734845
1.1795571
1.184601
1.188703
1.1919724
1.1945293
1.1964938
1.1979784
1.1990831
1.1998932
1.2004789
1.2008964
1.2011899
1.201393
1.2015312
1.2016237
1.2016843
1.201723
1.2017472
1.2017618
1.2017704
1.2017752
1.2017778
1.2017792
1.2017799
1.2017802
1.2017803
1.2017804
1.2017804
1.2017804
1.058493
1.0738306
1.0882623
1.1019
1.1147778
1.1268728
1.1381244
1.1484531
1.1577801
1.1660453
1.1732211
1.1793195
1.1843923
1.1885242
1.1918228
1.1944066
1.1963949
1.1979
1.1990218
1.1998459
1.2004427
1.200869
1.2011693
1.2013776
1.2015198
1.2016153
1.201678
1.2017183
1.2017436
1.201759
1.201768
1.2017732
1.201776
1.2017775
1.2017783
1.2017786
1.2017788
1.2017789
1.2017789
1.2017789
1.0583679
1.0736692
1.0880666
1.1016729
1.1145236
1.1265974
1.1378353
1.1481588
1.1574895
1.165767
1.1729623
1.1790857
1.1841867
1.1883479
1.1916749
1.1942851
1.1962969
1.1978222
1.1989609
1.1997987
1.2004066
1.2008417
1.2011487
1.2013622
1.2015084
1.2016067
1.2016717
1.2017136
1.20174
1.2017561
1.2017657
1.2017712
1.2017742
1.2017759
1.2017767
1.2017771
1.2017773
1.2017774
1.2017774
1.2017774
1.0582456
1.0735115
1.0878753
1.101451
1.1142751
1.1263281
1.1375523
1.1478705
1.1572046
1.1654939
1.1727081
1.1788557
1.1839842
1.1881739
1.1915289
1.194165
1.1961999
1.197745
1.1989004
1.1997519
1.2003707
1.2008143
1.2011281
1.2013467
1.2014969
1.2015982
1.2016653
1.2017088
1.2017363
1.2017532
1.2017633
1.2017692
1.2017724
1.2017742
1.2017751
1.2017755
1.2017758
1.2017759
1.2017759
1.2017759
1.058126
1.0733574
1.0876884
1.101234
1.1140321
1.1260647
1.1372754
1.1475881
1.1569253
1.1652257
1.1724582
1.1786294
1.1837846
1.1880022
1.1913845
1.194046
1.1961037
1.1976685
1.1988403
1.1997052
1.2003349
1.2007871
1.2011075
1.2013313
1.2014853
1.2015895
1.2016588
1.2017039
1.2017325
1.2017503
1.2017609
1.2017671
1.2017706
1.2017725
1.2017735
1.201774
1.2017742
1.2017743
1.2017744
1.2017744
1.058009
1.0732066
1.0875056
1.1010218
1.1137944
1.1258068
1.1370041
1.1473113
1.1566512
1.1649624
1.1722125
1.1784066
1.1835878
1.1878328
1.1912418
1.1939284
1.1960084
1.1975925
1.1987805
1.1996588
1.2002992
1.2007599
1.2010869
1.2013158
1.2014737
1.2015808
1.2016523
1.2016989
1.2017287
1.2017473
1.2017585
1.2017651
1.2017688
1.2017708
1.2017719
1.2017724
1.2017727
1.2017728
1.2017729
1.2017729
1.0578946
1.0730591
1.0873267
1.1008141
1.1135617
1.1255543
1.1367384
1.1470399
1.1563823
1.1647038
1.1719709
1.1781871
1.1833938
1.1876655
1.1911008
1.1938119
1.1959139
1.1975171
1.1987212
1.1996126
1.2002636
1.2007327
1.2010663
1.2013002
1.201462
1.2015721
1.2016457
1.2016939
1.2017249
1.2017442
1.201756
1.201763
1.2017669
1.2017691
1.2017703
1.2017709
1.2017712
1.2017713
1.2017713
1.2017714
1.0577826
1.0729147
1.0871516
1.1006108
1.1133339
1.125307
1.136478
1.1467738
1.1561184
1.1644496
1.1717332
1.177971
1.1832025
1.1875003
1.1909614
1.1936966
1.1958203
1.1974423
1.1986622
1.1995667
1.2002282
1.2007056
1.2010457
1.2012847
1.2014503
1.2015633
1.201639
1.2016889
1.201721
1.2017412
1.2017535
1.2017608
1.201765
1.2017674
1.2017686
1.2017693
1.2017696
1.2017698
1.2017698
1.2017698
1.0576728
1.0727733
1.0869801
1.1004117
1.1131108
1.1250647
1.1362227
1.1465127
1.1558592
1.1641998
1.1714994
1.1777581
1.1830138
1.1873371
1.1908235
1.1935824
1.1957275
1.197368
1.1986036
1.199521
1.2001929
1.2006786
1.2010251
1.2012691
1.2014385
1.2015544
1.2016323
1.2016838
1.2017171
1.2017381
1.201751
1.2017587
1.2017631
1.2017656
1.201767
1.2017677
1.2017681
1.2017682
1.2017683
1.2017683
1.0575654
1.0726347
1.0868122
1.1002167
1.1128921
1.1248272
1.1359723
1.1462565
1.1556046
1.1639542
1.1712692
1.1775484
1.1828276
1.1871759
1.1906871
1.1934694
1.1956354
1.1972943
1.1985454
1.1994755
1.2001577
1.2006516
1.2010046
1.2012535
1.2014268
1.2015455
1.2016256
1.2016786
1.2017131
1.2017349
1.2017484
1.2017565
1.2017612
1.2017639
1.2017653
1.2017661
1.2017665
1.2017667
1.2017668
1.2017668
1.05746
1.072499
1.0866476
1.1000255
1.1126778
1.1245943
1.1357267
1.1460049
1.1553545
1.1637127
1.1710426
1.1773416
1.1826439
1.1870167
1.1905522
1.1933574
1.1955442
1.1972211
1.1984875
1.1994302
1.2001227
1.2006247
1.200984
1.2012379
1.2014149
1.2015366
1.2016188
1.2016734
1.201709
1.2017317
1.2017458
1.2017543
1.2017593
1.2017621
1.2017637
1.2017645
1.2017649
1.2017651
1.2017652
1.2017653
1.0573567
1.0723659
1.0864862
1.0998382
1.1124676
1.1243658
1.1354856
1.1457579
1.1551087
1.1634751
1.1708195
1.1771378
1.1824626
1.1868594
1.1904188
1.1932465
1.1954537
1.1971485
1.1984299
1.1993852
1.2000878
1.2005979
1.2009635
1.2012223
1.2014031
1.2015276
1.201612
1.2016682
1.201705
1.2017285
1.2017431
1.2017521
1.2017573
1.2017603
1.201762
1.2017629
1.2017634
1.2017636
1.2017637
1.2017637
1.0572555
1.0722355
1.086328
1.0996544
1.1122615
1.1241417
1.135249
1.1455153
1.1548671
1.1632414
1.1705997
1.1769368
1.1822836
1.1867039
1.1902867
1.1931367
1.195364
1.1970763
1.1983728
1.1993404
1.200053
1.2005711
1.200943
1.2012067
1.2013912
1.2015185
1.2016051
1.2016629
1.2017008
1.2017252
1.2017405
1.2017498
1.2017553
1.2017585
1.2017603
1.2017613
1.2017618
1.2017621
1.2017622
1.2017622
1.0571561
1.0721075
1.0861729
1.0994741
1.1120593
1.1239217
1.1350166
1.1452769
1.1546295
1.1630113
1.1703832
1.1767386
1.1821069
1.1865502
1.1901561
1.1930279
1.195275
1.1970047
1.1983159
1.1992958
1.2000184
1.2005444
1.2009226
1.2011911
1.2013793
1.2015095
1.2015982
1.2016576
1.2016967
1.2017219
1.2017378
1.2017475
1.2017534
1.2017567
1.2017586
1.2017597
1.2017602
1.2017605
1.2017606
1.2017606
1.0570586
1.0719819
1.0860206
1.0992973
1.1118608
1.1237057
1.1347884
1.1450427
1.1543958
1.1627849
1.1701699
1.1765432
1.1819325
1.1863983
1.1900268
1.19292
1.1951868
1.1969336
1.1982594
1.1992515
1.1999839
1.2005178
1.2009021
1.2011755
1.2013674
1.2015004
1.2015912
1.2016522
1.2016925
1.2017186
1.201735
1.2017452
1.2017513
1.2017549
1.2017569
1.2017581
1.2017586
1.2017589
1.2017591
1.2017591
1.0569629
1.0718586
1.0858711
1.0991236
1.1116659
1.1234936
1.1345642
1.1448124
1.154166
1.1625619
1.1699596
1.1763503
1.1817601
1.1862481
1.1898988
1.1928132
1.1950992
1.196863
1.1982033
1.1992073
1.1999495
1.2004912
1.2008817
1.2011599
1.2013555
1.2014913
1.2015842
1.2016468
1.2016883
1.2017152
1.2017323
1.2017429
1.2017493
1.2017531
1.2017552
1.2017564
1.2017571
1.2017574
1.2017575
1.2017575
1.0568689
1.0717375
1.0857244
1.0989531
1.1114745
1.1232852
1.1343438
1.1445859
1.1539398
1.1623423
1.1697524
1.17616
1.1815899
1.1860995
1.189772
1.1927073
1.1950123
1.1967929
1.1981474
1.1991634
1.1999152
1.2004647
1.2008613
1.2011442
1.2013435
1.2014821
1.2015771
1.2016413
1.201684
1.2017118
1.2017295
1.2017405
1.2017473
1.2017512
1.2017535
1.2017548
1.2017555
1.2017558
1.201756
1.201756
1.0567765
1.0716187
1.0855803
1.0987857
1.1112865
1.1230805
1.1341272
1.1443631
1.1537171
1.162126
1.169548
1.1759722
1.1814218
1.1859526
1.1896466
1.1926024
1.1949262
1.1967232
1.1980919
1.1991196
1.1998811
1.2004382
1.200841
1.2011286
1.2013315
1.2014729
1.2015701
1.2016359
1.2016797
1.2017083
1.2017267
1.2017382
1.2017452
1.2017494
1.2017518
1.2017531
1.2017539
1.2017542
1.2017544
1.2017544
1.0566858
1.0715019
1.0854387
1.0986212
1.1111018
1.1228792
1.1339142
1.144144
1.1534979
1.1619129
1.1693465
1.1757868
1.1812556
1.1858073
1.1895224
1.1924984
1.1948406
1.1966541
1.1980367
1.1990761
1.1998471
1.2004119
1.2008206
1.201113
1.2013195
1.2014637
1.201563
1.2016303
1.2016753
1.2017048
1.2017238
1.2017358
1.2017431
1.2017475
1.20175
1.2017515
1.2017523
1.2017527
1.2017528
1.2017529
1.0565967
1.0713871
1.0852996
1.0984595
1.1109202
1.1226814
1.1337047
1.1439284
1.1532821
1.1617029
1.1691478
1.1756037
1.1810914
1.1856635
1.1893993
1.1923952
1.1947558
1.1965853
1.1979819
1.1990328
1.1998132
1.2003856
1.2008003
1.2010973
1.2013075
1.2014544
1.2015558
1.2016248
1.2016709
1.2017013
1.2017209
1.2017333
1.201741
1.2017456
1.2017483
1.2017498
1.2017506
1.2017511
1.2017513
1.2017513
1.0565091
1.0712743
1.0851628
1.0983006
1.1107417
1.1224869
1.1334987
1.1437161
1.1530695
1.1614959
1.1689517
1.175423
1.180929
1.1855213
1.1892775
1.192293
1.1946716
1.1965171
1.1979273
1.1989897
1.1997795
1.2003594
1.2007801
1.2010817
1.2012955
1.2014452
1.2015486
1.2016192
1.2016665
1.2016978
1.201718
1.2017309
1.2017388
1.2017436
1.2017465
1.2017481
1.201749
1.2017495
1.2017497
1.2017497
1.0564229
1.0711634
1.0850284
1.0981444
1.1105662
1.1222955
1.1332959
1.1435071
1.1528601
1.1612918
1.1687583
1.1752445
1.1807686
1.1853805
1.1891568
1.1921916
1.194588
1.1964493
1.197873
1.1989467
1.1997458
1.2003332
1.2007598
1.2010661
1.2012835
1.2014359
1.2015414
1.2016135
1.2016621
1.2016942
1.2017151
1.2017284
1.2017367
1.2017417
1.2017447
1.2017464
1.2017474
1.2017479
1.2017481
1.2017481
1.0563382
1.0710543
1.0848962
1.0979908
1.1103936
1.1221073
1.1330963
1.1433014
1.1526538
1.1610906
1.1685674
1.1750682
1.1806099
1.1852412
1.1890372
1.1920911
1.194505
1.1963819
1.1978191
1.198904
1.1997123
1.2003071
1.2007396
1.2010505
1.2012714
1.2014266
1.2015342
1.2016079
1.2016576
1.2016906
1.2017121
1.2017259
1.2017345
1.2017398
1.2017429
1.2017447
1.2017457
1.2017463
1.2017465
1.2017465
1.0562548
1.070947
1.0847661
1.0978396
1.1102237
1.121922
1.1328999
1.1430987
1.1524505
1.1608921
1.1683789
1.174894
1.180453
1.1851034
1.1889188
1.1919914
1.1944226
1.1963149
1.1977654
1.1988615
1.199679
1.2002811
1.2007194
1.2010349
1.2012593
1.2014172
1.2015269
1.2016022
1.2016531
1.201687
1.2017091
1.2017234
1.2017323
1.2017378
1.2017411
1.201743
1.2017441
1.2017446
1.2017449
1.201745
1.0561727
1.0708415
1.0846382
1.0976909
1.1100566