/*--------------------------------*- C++ -*----------------------------------*\
| =========                 |                                                 |
| \\      /  F ield         | OpenFOAM: The Open Source CFD Toolbox           |
|  \\    /   O peration     | Version:  3.0.1                                 |
|   \\  /    A nd           | Web:      www.OpenFOAM.org                      |
|    \\/     M anipulation  |                                                 |
\*---------------------------------------------------------------------------*/
FoamFile
{
    version     2.0;
    format      ascii;
    class       volScalarField;
    location    "2297";
    object      T;
}
// * * * * * * * * * * * * * * * * * * * * * * * * * * * * * * * * * * * * * //

dimensions      [0 0 0 1 0 0 0];

internalField   nonuniform List<scalar> 
4000
(
316.8642
308.83647
303.03402
299.18124
296.78448
295.37043
294.57289
294.1413
293.916
293.80234
293.74689
293.72073
293.70881
293.70356
293.70133
293.70042
293.70006
293.69993
293.69988
293.69986
293.69986
293.69986
293.69986
293.69986
293.69986
293.69986
293.69986
293.69986
293.69986
293.69986
293.69986
293.69986
293.69986
293.69986
293.69986
293.69986
293.69986
293.69986
293.69986
293.69987
322.06424
314.58822
308.32122
303.42427
299.86011
297.4297
295.8654
294.90869
294.34973
294.03662
293.86808
293.78081
293.73734
293.71651
293.70692
293.70268
293.70088
293.70015
293.69987
293.69976
293.69973
293.69972
293.69971
293.69971
293.69971
293.69971
293.69971
293.69971
293.69971
293.69971
293.69971
293.69971
293.69971
293.69971
293.69971
293.69971
293.69971
293.69971
293.69972
293.69972
324.36642
317.37145
311.27237
306.19555
302.20154
299.2385
297.16066
295.77756
294.89993
294.36722
294.05721
293.88401
293.79108
293.74321
293.71955
293.70833
293.70325
293.70104
293.70013
293.69977
293.69964
293.69959
293.69957
293.69957
293.69956
293.69956
293.69956
293.69956
293.69956
293.69956
293.69956
293.69956
293.69956
293.69956
293.69956
293.69957
293.69957
293.69957
293.69957
293.69957
325.75513
319.07918
313.1679
308.10222
303.94962
300.71177
298.31275
296.62063
295.48123
294.74678
294.2927
294.02311
293.86937
293.78519
293.74097
293.71871
293.70799
293.70306
293.70089
293.69998
293.69962
293.69949
293.69944
293.69942
293.69942
293.69942
293.69942
293.69942
293.69942
293.69942
293.69942
293.69942
293.69942
293.69942
293.69942
293.69942
293.69942
293.69942
293.69942
293.69943
326.72143
320.27493
314.52048
309.50863
305.29829
301.91017
299.30562
297.39255
296.04761
295.14074
294.55323
294.18722
293.9679
293.84156
293.77167
293.7346
293.71577
293.70663
293.7024
293.70054
293.69976
293.69945
293.69933
293.69929
293.69928
293.69927
293.69927
293.69927
293.69927
293.69927
293.69927
293.69927
293.69927
293.69927
293.69927
293.69927
293.69927
293.69928
293.69928
293.69928
327.44951
321.17892
315.55344
310.60302
306.37654
302.90129
300.15935
298.08518
296.57942
295.5287
294.82288
294.36604
294.0811
293.90994
293.81104
293.75616
293.72697
293.71212
293.70491
293.70158
293.70011
293.6995
293.69926
293.69917
293.69914
293.69913
293.69913
293.69913
293.69912
293.69912
293.69913
293.69913
293.69913
293.69913
293.69913
293.69913
293.69913
293.69913
293.69913
293.69913
328.02701
321.89748
316.37972
311.48897
307.26516
303.73722
300.8994
298.70436
297.07111
295.90061
295.09155
294.55167
294.20381
293.9875
293.85785
293.78309
293.74169
293.71973
293.70861
293.70323
293.70076
293.69969
293.69925
293.69907
293.69901
293.69899
293.69898
293.69898
293.69898
293.69898
293.69898
293.69898
293.69898
293.69898
293.69898
293.69898
293.69898
293.69898
293.69899
293.69899
328.50171
322.489
317.06291
312.22765
308.01552
304.45499
301.54782
299.25954
297.52339
296.2524
295.35348
294.73865
294.33183
294.07151
293.91063
293.81475
293.75978
293.72954
293.71362
293.70562
293.7018
293.70006
293.69931
293.69901
293.69889
293.69885
293.69884
293.69883
293.69883
293.69883
293.69883
293.69883
293.69883
293.69883
293.69883
293.69883
293.69884
293.69884
293.69884
293.69884
328.90229
322.98872
317.64194
312.85762
308.66158
305.0809
302.12209
299.76011
297.9394
296.58316
295.60575
294.92352
294.46208
294.15969
293.96791
293.85038
293.78094
293.74149
293.72001
293.70882
293.70327
293.70066
293.69949
293.69899
293.6988
293.69872
293.6987
293.69869
293.69869
293.69869
293.69869
293.69869
293.69869
293.69869
293.69869
293.69869
293.69869
293.69869
293.69869
293.69869
329.24721
323.41938
318.1422
313.40453
309.22664
305.63386
302.63572
300.21428
298.32295
296.89355
295.84711
295.1042
294.5924
294.25023
294.02841
293.88919
293.80476
293.75544
293.72775
293.71288
293.70524
293.70152
293.69979
293.69904
293.69873
293.69861
293.69856
293.69855
293.69854
293.69854
293.69854
293.69854
293.69854
293.69854
293.69854
293.69854
293.69854
293.69855
293.69855
293.69855
329.54898
323.79643
318.58106
313.88617
309.72729
306.1278
303.09919
300.62892
298.67776
297.18487
296.07728
295.27956
294.72136
294.34177
294.09107
293.93045
293.83084
293.77119
293.73681
293.7178
293.70775
293.70268
293.70026
293.69916
293.69869
293.6985
293.69843
293.69841
293.6984
293.69839
293.69839
293.69839
293.69839
293.6984
293.6984
293.6984
293.6984
293.6984
293.6984
293.6984
329.81642
324.13078
318.97086
314.31535
310.17564
306.57317
303.52061
301.00969
299.00721
297.45868
296.29651
295.44904
294.84803
294.43334
294.15502
293.97353
293.85875
293.78852
293.74708
293.72357
293.71079
293.70417
293.7009
293.69937
293.6987
293.69842
293.69831
293.69827
293.69825
293.69825
293.69825
293.69825
293.69825
293.69825
293.69825
293.69825
293.69825
293.69825
293.69825
293.69826
330.05599
324.43043
319.3207
314.70157
310.58082
306.97797
303.90643
301.36123
299.31425
297.71653
296.50531
295.61248
294.97187
294.52423
294.2196
294.01788
293.88811
293.8072
293.75845
293.73015
293.71439
293.706
293.70174
293.69969
293.69876
293.69836
293.69819
293.69813
293.69811
293.6981
293.6981
293.6981
293.6981
293.6981
293.6981
293.6981
293.69811
293.69811
293.69811
293.69811
330.27253
324.70138
319.63741
315.05202
310.94981
307.34847
304.26175
301.68736
299.60144
297.95988
296.70431
295.7699
295.09256
294.61398
294.28431
294.06307
293.9186
293.82702
293.7708
293.73749
293.71853
293.70818
293.70279
293.70012
293.69888
293.69832
293.69809
293.698
293.69797
293.69796
293.69796
293.69796
293.69796
293.69796
293.69796
293.69796
293.69796
293.69796
293.69796
293.69796
330.46974
324.94825
319.92626
315.37228
311.28809
307.68961
304.59072
301.99125
299.87099
298.19009
296.89416
295.92149
295.20996
294.70227
294.34879
294.10875
293.94993
293.84775
293.78399
293.74553
293.72317
293.7107
293.70406
293.70068
293.69906
293.69832
293.69801
293.69788
293.69783
293.69782
293.69781
293.69781
293.69781
293.69781
293.69781
293.69781
293.69781
293.69782
293.69782
293.69782
330.65055
325.17465
320.1914
315.66678
311.60002
308.0054
304.89672
302.27553
300.12477
298.40836
297.07553
296.06748
295.32404
294.7889
294.41276
294.15463
293.98186
293.86924
293.79792
293.75419
293.7283
293.71357
293.70555
293.70138
293.69932
293.69836
293.69794
293.69777
293.6977
293.69768
293.69767
293.69766
293.69766
293.69766
293.69767
293.69767
293.69767
293.69767
293.69767
293.69767
330.81727
325.38347
320.43614
315.93905
311.88912
308.29908
305.18254
302.54243
300.36441
298.61576
297.24904
296.20815
295.43481
294.87375
294.47602
294.20052
294.01418
293.8913
293.81247
293.7634
293.73388
293.71677
293.70726
293.70221
293.69966
293.69845
293.6979
293.69766
293.69757
293.69753
293.69752
293.69752
293.69752
293.69752
293.69752
293.69752
293.69752
293.69752
293.69752
293.69752
330.97177
325.57704
320.66317
316.19196
312.15826
308.57334
305.4505
302.79383
300.59131
298.81325
297.41526
296.34379
295.54238
294.95678
294.53844
294.24623
294.04675
293.91382
293.82753
293.7731
293.73986
293.72028
293.70919
293.70319
293.70009
293.69857
293.69787
293.69757
293.69744
293.6974
293.69738
293.69737
293.69737
293.69737
293.69737
293.69737
293.69738
293.69738
293.69738
293.69738
331.11558
325.75727
320.87469
316.42789
312.40984
308.83041
305.70257
303.03132
300.80667
299.00169
297.57473
296.47469
295.64683
295.03795
294.59994
294.29165
294.07942
293.93667
293.84301
293.78323
293.74622
293.72408
293.71134
293.70431
293.70061
293.69875
293.69788
293.69749
293.69732
293.69726
293.69724
293.69723
293.69723
293.69723
293.69723
293.69723
293.69723
293.69723
293.69723
293.69723
331.24999
325.92574
321.07252
316.6488
312.64584
309.07219
305.94042
303.25627
301.01157
299.1818
297.72795
296.60113
295.74829
295.11728
294.66045
294.33668
294.1121
293.95975
293.85884
293.79373
293.75292
293.72816
293.71369
293.70557
293.70121
293.69899
293.69791
293.69742
293.69721
293.69713
293.6971
293.69708
293.69708
293.69708
293.69708
293.69708
293.69708
293.69709
293.69709
293.69709
331.37605
326.08377
321.2582
316.85637
312.86794
309.30026
306.16546
303.46987
301.20691
299.35428
297.87534
296.72336
295.84689
295.19481
294.71993
294.38126
294.1447
293.98299
293.87494
293.80453
293.75991
293.7325
293.71624
293.70697
293.70191
293.69928
293.69798
293.69737
293.69711
293.697
293.69696
293.69694
293.69694
293.69694
293.69694
293.69694
293.69694
293.69694
293.69694
293.69694
331.49466
326.2325
321.43303
317.05198
313.07758
309.516
306.37892
303.67314
301.3935
299.51971
298.01732
296.84164
295.94276
295.27056
294.77838
294.42532
294.17715
294.0063
293.89125
293.8156
293.76717
293.73706
293.71897
293.70851
293.7027
293.69962
293.69808
293.69734
293.69701
293.69687
293.69682
293.6968
293.69679
293.69679
293.69679
293.69679
293.69679
293.69679
293.69679
293.69679
331.60659
326.37287
321.5981
317.23684
313.27598
309.72059
306.58185
303.867
301.57207
299.67862
298.15426
296.95619
296.03602
295.3446
294.8358
294.46885
294.20941
294.02965
293.90772
293.82689
293.77465
293.74184
293.72188
293.71017
293.70358
293.70003
293.69821
293.69733
293.69693
293.69675
293.69668
293.69666
293.69665
293.69664
293.69664
293.69665
293.69665
293.69665
293.69665
293.69665
331.71249
326.50571
321.75438
317.412
313.46421
309.91503
306.7752
304.05222
301.74324
299.83149
298.28649
297.06724
296.12679
295.41698
294.89218
294.51181
294.24142
294.05298
293.9243
293.83836
293.78234
293.74681
293.72495
293.71197
293.70455
293.7005
293.69838
293.69734
293.69685
293.69664
293.69655
293.69651
293.6965
293.6965
293.6965
293.6965
293.6965
293.6965
293.6965
293.6965
331.81294
326.63171
321.90267
317.57833
313.64317
310.10024
306.95977
304.22951
301.90758
299.97874
298.41432
297.17499
296.2152
295.48775
294.94755
294.55419
294.27318
294.07625
293.94096
293.84998
293.7902
293.75195
293.72817
293.71388
293.70561
293.70102
293.69859
293.69737
293.69679
293.69653
293.69642
293.69637
293.69636
293.69635
293.69635
293.69635
293.69635
293.69636
293.69636
293.69636
331.90842
326.7515
322.04371
317.73663
313.81369
310.27698
307.13627
304.39947
302.06558
300.12077
298.53802
297.27962
296.30136
295.55697
295.00192
294.59598
294.30464
294.09943
293.95767
293.86172
293.79822
293.75724
293.73153
293.71591
293.70676
293.70161
293.69884
293.69742
293.69674
293.69643
293.69629
293.69624
293.69622
293.69621
293.69621
293.69621
293.69621
293.69621
293.69621
293.69621
331.99936
326.86562
322.1781
317.88758
313.97645
310.44595
307.30534
304.56267
302.2177
300.25792
298.65784
297.3813
296.38538
295.62471
295.05532
294.63719
294.3358
294.12251
293.97438
293.87354
293.80636
293.76267
293.73501
293.71804
293.70798
293.70225
293.69913
293.6975
293.6967
293.69633
293.69617
293.6961
293.69607
293.69606
293.69606
293.69606
293.69606
293.69606
293.69606
293.69606
332.08615
326.97453
322.30641
318.03178
314.1321
310.60776
307.46754
304.71959
302.36435
300.3905
298.77402
297.4802
296.46735
295.69102
295.10777
294.67782
294.36664
294.14545
293.9911
293.88544
293.81461
293.76822
293.73861
293.72027
293.70929
293.70295
293.69945
293.6976
293.69668
293.69624
293.69605
293.69596
293.69593
293.69592
293.69592
293.69592
293.69592
293.69592
293.69592
293.69592
332.16912
327.07866
322.42912
318.16977
314.28118
310.76294
307.62338
304.87067
302.50589
300.5188
298.88677
297.57646
296.54738
295.75596
295.1593
294.71787
294.39715
294.16825
294.00778
293.89739
293.82295
293.77388
293.74232
293.7226
293.71067
293.70371
293.69982
293.69773
293.69667
293.69616
293.69593
293.69583
293.69579
293.69578
293.69577
293.69577
293.69577
293.69577
293.69577
293.69577
332.24856
327.17838
322.54667
318.30202
314.42418
310.91199
307.7733
305.01631
302.64264
300.64308
298.99628
297.67021
296.62555
295.81957
295.20993
294.75735
294.42734
294.19088
294.02443
293.90937
293.83137
293.77963
293.74613
293.72502
293.71212
293.70452
293.70022
293.69789
293.69668
293.69609
293.69582
293.6957
293.69565
293.69563
293.69563
293.69563
293.69563
293.69563
293.69563
293.69563
332.32475
327.27402
322.65943
318.42895
314.56156
311.05535
307.91772
305.15687
302.77491
300.76358
299.10273
297.76159
296.70194
295.88192
295.25969
294.79626
294.45719
294.21335
294.04102
293.92136
293.83985
293.78547
293.75002
293.72751
293.71364
293.70539
293.70066
293.69806
293.69671
293.69603
293.69571
293.69557
293.69551
293.69549
293.69548
293.69548
293.69548
293.69548
293.69548
293.69548
332.39791
327.36588
322.76775
318.55095
314.69369
311.19339
308.057
305.29267
302.90298
300.88052
299.20628
297.85072
296.77665
295.94304
295.30862
294.83463
294.48671
294.23565
294.05754
293.93337
293.84838
293.79138
293.75399
293.73008
293.71523
293.70631
293.70114
293.69827
293.69675
293.69598
293.69561
293.69545
293.69537
293.69535
293.69534
293.69533
293.69533
293.69533
293.69534
293.69534
332.46827
327.45421
322.87195
318.66835
314.82095
311.32648
308.19147
305.42401
303.02708
300.99409
299.3071
297.93769
296.84973
296.003
295.35673
294.87246
294.5159
294.25776
294.07399
293.94536
293.85695
293.79735
293.75803
293.73272
293.71688
293.70727
293.70165
293.6985
293.6968
293.69594
293.69552
293.69532
293.69524
293.69521
293.69519
293.69519
293.69519
293.69519
293.69519
293.69519
332.536
327.53927
322.97231
318.78147
314.94365
311.45494
308.32143
305.55116
303.14746
301.10448
299.40531
298.02262
296.92127
296.06182
295.40405
294.90977
294.54476
294.27969
294.09035
293.95735
293.86555
293.80337
293.76213
293.73542
293.71858
293.70828
293.70221
293.69875
293.69688
293.69591
293.69543
293.6952
293.6951
293.69506
293.69505
293.69504
293.69504
293.69504
293.69504
293.69504
332.6013
327.62127
323.06907
318.89059
315.06209
311.57905
308.44717
305.67436
303.26431
301.21186
299.50105
298.1056
296.99133
296.11956
295.4506
294.94656
294.5733
294.30144
294.10663
293.96931
293.87416
293.80944
293.76629
293.73818
293.72034
293.70934
293.70279
293.69903
293.69697
293.69588
293.69534
293.69509
293.69497
293.69492
293.69491
293.6949
293.6949
293.6949
293.6949
293.6949
332.66431
327.7004
323.16247
318.99596
315.17652
311.69909
308.56892
305.79384
303.37783
301.31638
299.59444
298.18672
297.05996
296.17626
295.49642
294.98286
294.60152
294.32299
294.12281
293.98125
293.8828
293.81555
293.77051
293.741
293.72215
293.71045
293.70341
293.69934
293.69708
293.69588
293.69527
293.69497
293.69484
293.69479
293.69476
293.69475
293.69475
293.69475
293.69475
293.69475
332.72517
327.77684
323.25271
319.0978
315.28721
311.81529
308.68691
305.90981
303.4882
301.4182
299.68559
298.26606
297.12724
296.23195
295.54153
295.01866
294.62942
294.34436
294.1389
293.99315
293.89143
293.82169
293.77476
293.74386
293.724
293.71159
293.70407
293.69967
293.6972
293.69588
293.6952
293.69487
293.69471
293.69465
293.69462
293.69461
293.69461
293.69461
293.69461
293.69461
332.78403
327.85076
323.34
319.19634
315.39436
311.92788
308.80137
306.02246
303.59558
301.51743
299.77461
298.34369
297.1932
296.28667
295.58594
295.05399
294.65702
294.36554
294.15488
294.00501
293.90008
293.82785
293.77906
293.74677
293.7259
293.71277
293.70475
293.70003
293.69735
293.69589
293.69514
293.69476
293.69459
293.69451
293.69448
293.69447
293.69446
293.69446
293.69446
293.69446
332.84099
327.92231
323.42449
319.29176
315.49818
312.03706
308.91248
306.13196
303.70013
301.61421
299.86159
298.4197
297.25791
296.34046
295.62968
295.08886
294.68431
294.38654
294.17077
294.01682
293.90871
293.83404
293.7834
293.74973
293.72784
293.71399
293.70547
293.70041
293.69751
293.69592
293.69508
293.69466
293.69446
293.69437
293.69434
293.69432
293.69432
293.69432
293.69432
293.69432
332.89616
327.99162
323.50635
319.38424
315.59885
312.14301
309.02043
306.23847
303.80198
301.70866
299.94662
298.49414
297.32142
296.39335
295.67277
295.12328
294.7113
294.40735
294.18655
294.0286
293.91734
293.84025
293.78776
293.75271
293.72982
293.71524
293.70622
293.70081
293.69769
293.69595
293.69503
293.69457
293.69434
293.69424
293.6942
293.69418
293.69417
293.69417
293.69417
293.69417
332.94965
328.05882
323.58574
319.47394
315.69656
312.24592
309.12537
306.34215
303.90126
301.80087
300.02979
298.56709
297.38376
296.44537
295.71524
295.15726
294.738
294.42797
294.20223
294.04032
293.92596
293.84647
293.79215
293.75574
293.73184
293.71653
293.70699
293.70123
293.69788
293.696
293.69499
293.69448
293.69422
293.69411
293.69406
293.69404
293.69403
293.69402
293.69402
293.69402
333.00155
328.12402
323.66277
319.56102
315.79145
312.34593
309.22746
306.44313
303.9981
301.89096
300.11117
298.6386
297.44498
296.49654
295.75709
295.19082
294.76441
294.44842
294.2178
294.05199
293.93456
293.8527
293.79657
293.75879
293.73389
293.71785
293.7078
293.70168
293.69809
293.69606
293.69496
293.69439
293.69411
293.69398
293.69392
293.69389
293.69388
293.69388
293.69388
293.69388
333.05194
328.18734
323.73759
319.64561
315.88367
312.4432
309.32684
306.54155
304.0926
301.97901
300.19085
298.70873
297.50513
296.54691
295.79836
295.22396
294.79055
294.46868
294.23326
294.06361
293.94315
293.85893
293.80101
293.76188
293.73597
293.7192
293.70862
293.70215
293.69832
293.69613
293.69494
293.69431
293.694
293.69385
293.69378
293.69375
293.69374
293.69373
293.69373
293.69373
333.1009
328.24886
323.81029
319.72785
315.97337
312.53786
309.42365
306.63753
304.18488
302.06511
300.26888
298.77754
297.56424
296.59649
295.83905
295.25669
294.81641
294.48877
294.24862
294.07517
293.95172
293.86517
293.80547
293.76499
293.73808
293.72058
293.70948
293.70264
293.69856
293.69622
293.69492
293.69423
293.69389
293.69372
293.69364
293.69361
293.6936
293.69359
293.69359
293.69359
333.14851
328.30868
323.881
319.80784
316.06066
312.63005
309.518
306.73117
304.27503
302.14934
300.34535
298.84506
297.62235
296.64532
295.87918
295.28903
294.842
294.50868
294.26387
294.08668
293.96026
293.87141
293.80994
293.76812
293.74021
293.72198
293.71036
293.70315
293.69882
293.69631
293.69491
293.69416
293.69378
293.69359
293.69351
293.69347
293.69345
293.69345
293.69344
293.69344
333.19483
328.36689
323.94981
319.8857
316.14566
312.71987
309.61001
306.82258
304.36314
302.23179
300.4203
298.91136
297.67949
296.69341
295.91878
295.32099
294.86733
294.52843
294.27902
294.09812
293.96879
293.87765
293.81442
293.77128
293.74237
293.72341
293.71126
293.70368
293.6991
293.69642
293.69491
293.6941
293.69368
293.69347
293.69337
293.69333
293.69331
293.6933
293.6933
293.6933
333.23993
328.42356
324.01681
319.96154
316.22848
312.80744
309.69979
306.91186
304.44931
302.31252
300.4938
298.97646
297.7357
296.74079
295.95785
295.35258
294.8924
294.548
294.29407
294.10952
293.97728
293.88389
293.81892
293.77445
293.74455
293.72486
293.71218
293.70423
293.69939
293.69654
293.69492
293.69404
293.69358
293.69335
293.69324
293.69319
293.69317
293.69316
293.69315
293.69315
333.28385
328.47877
324.08208
320.03544
316.30922
312.89287
309.78743
306.99911
304.5336
302.3916
300.5659
299.04043
297.79101
296.78748
295.99641
295.3838
294.91722
294.56741
294.30901
294.12085
293.98575
293.89012
293.82342
293.77764
293.74676
293.72634
293.71313
293.7048
293.6997
293.69667
293.69494
293.69399
293.69348
293.69323
293.69311
293.69305
293.69302
293.69301
293.69301
293.69301
333.32667
328.53258
324.14572
320.1075
316.38798
312.97624
309.87304
307.08441
304.6161
302.4691
300.63666
299.10329
297.84544
296.8335
296.03448
295.41466
294.9418
294.58666
294.32385
294.13213
293.99419
293.89634
293.82794
293.78085
293.74898
293.72783
293.71409
293.70538
293.70002
293.69681
293.69497
293.69394
293.69339
293.69311
293.69298
293.69291
293.69288
293.69287
293.69287
293.69286
333.36843
328.58506
324.20779
320.1778
316.46484
313.05765
309.95669
307.16783
304.69688
302.54507
300.70612
299.16509
297.89903
296.87888
296.07207
295.44519
294.96614
294.60574
294.33859
294.14334
294.00261
293.90256
293.83245
293.78407
293.75123
293.72935
293.71508
293.70599
293.70035
293.69697
293.695
293.6939
293.69331
293.693
293.69285
293.69277
293.69274
293.69273
293.69272
293.69272
333.40917
328.63627
324.26836
320.24642
316.5399
313.13719
310.03847
307.24946
304.77601
302.61958
300.77432
299.22586
297.9518
296.92363
296.10919
295.47537
294.99024
294.62467
294.35323
294.1545
294.01099
293.90877
293.83698
293.7873
293.75349
293.73088
293.71608
293.70661
293.7007
293.69713
293.69504
293.69386
293.69322
293.69289
293.69272
293.69264
293.6926
293.69258
293.69258
293.69258
333.44894
328.68627
324.3275
320.31343
316.61321
313.21492
310.11845
307.32938
304.85355
302.69268
300.84132
299.28563
298.00378
296.96776
296.14586
295.50522
295.01411
294.64344
294.36777
294.1656
294.01935
293.91497
293.8415
293.79055
293.75576
293.73244
293.7171
293.70724
293.70107
293.69731
293.69509
293.69383
293.69314
293.69278
293.69259
293.6925
293.69246
293.69244
293.69243
293.69243
333.48779
328.7351
324.38527
320.3789
316.68487
313.29094
310.19672
307.40763
304.92956
302.76441
300.90716
299.34444
298.05499
297.01131
296.18208
295.53476
295.03776
294.66206
294.38221
294.17664
294.02767
293.92115
293.84603
293.7938
293.75806
293.73401
293.71814
293.70789
293.70144
293.6975
293.69515
293.69381
293.69307
293.69267
293.69247
293.69237
293.69232
293.6923
293.69229
293.69229
333.52575
328.78282
324.44172
320.4429
316.75494
313.3653
310.27333
307.4843
305.00409
302.83484
300.97187
299.40232
298.10546
297.05428
296.21787
295.56398
295.06118
294.68054
294.39656
294.18762
294.03596
293.92733
293.85056
293.79707
293.76036
293.73559
293.71919
293.70856
293.70183
293.69769
293.69522
293.69379
293.693
293.69257
293.69235
293.69224
293.69218
293.69216
293.69215
293.69215
333.56286
328.82947
324.49692
320.50548
316.82347
313.43807
310.34835
307.55943
305.07721
302.904
301.03549
299.4593
298.15521
297.09669
296.25325
295.5929
295.08439
294.69886
294.41081
294.19855
294.04422
293.93349
293.85508
293.80034
293.76268
293.73719
293.72026
293.70924
293.70224
293.6979
293.6953
293.69378
293.69293
293.69247
293.69223
293.6921
293.69205
293.69202
293.69201
293.69201
333.59915
328.87509
324.55091
320.5667
316.89055
313.50931
310.42184
307.63309
305.14895
302.97193
301.09805
299.5154
298.20425
297.13856
296.28821
295.62152
295.1074
294.71704
294.42496
294.20942
294.05245
293.93964
293.85961
293.80362
293.76501
293.73881
293.72134
293.70993
293.70265
293.69812
293.69538
293.69378
293.69287
293.69237
293.69211
293.69197
293.69191
293.69188
293.69187
293.69186
333.63466
328.91973
324.60374
320.62662
316.95621
313.57909
310.49387
307.70533
305.21938
303.03869
301.1596
299.57066
298.25262
297.1799
296.32278
295.64984
295.13019
294.73509
294.43903
294.22023
294.06065
293.94577
293.86414
293.8069
293.76735
293.74043
293.72244
293.71064
293.70308
293.69835
293.69547
293.69378
293.69281
293.69228
293.69199
293.69185
293.69177
293.69174
293.69173
293.69172
333.66941
328.96343
324.65545
320.68529
317.02051
313.64746
310.56447
307.7762
305.28854
303.1043
301.22017
299.6251
298.30032
297.22072
296.35696
295.67789
295.15278
294.75299
294.453
294.23098
294.06882
293.95189
293.86866
293.81019
293.7697
293.74207
293.72355
293.71136
293.70352
293.69859
293.69557
293.69378
293.69276
293.69218
293.69188
293.69172
293.69164
293.6916
293.69159
293.69158
333.70344
329.00621
324.7061
320.74274
317.08351
313.71447
310.63371
307.84575
305.35646
303.16881
301.27978
299.67873
298.34738
297.26105
296.39075
295.70565
295.17518
294.77076
294.46689
294.24168
294.07695
293.958
293.87318
293.81349
293.77206
293.74373
293.72467
293.7121
293.70397
293.69884
293.69568
293.6938
293.69271
293.6921
293.69177
293.69159
293.6915
293.69146
293.69145
293.69144
333.73678
329.04813
324.75571
320.79904
317.14526
313.78017
310.70164
307.91403
305.42319
303.23224
301.33846
299.7316
298.39382
297.30088
296.42418
295.73315
295.19738
294.78839
294.48068
294.25232
294.08506
293.96409
293.87769
293.81678
293.77442
293.74539
293.72581
293.71284
293.70443
293.69909
293.6958
293.69382
293.69266
293.69201
293.69166
293.69147
293.69137
293.69133
293.69131
293.6913
333.76944
329.0892
324.80433
320.85422
317.20579
313.8446
310.7683
307.98108
305.48878
303.29465
301.39624
299.78371
298.43965
297.34024
296.45725
295.76037
295.21939
294.80589
294.49439
294.26291
294.09313
293.97016
293.8822
293.82009
293.7768
293.74706
293.72696
293.7136
293.7049
293.69936
293.69592
293.69384
293.69262
293.69193
293.69155
293.69134
293.69124
293.69119
293.69117
293.69116
333.80146
329.12946
324.85199
320.90832
317.26516
313.90782
310.83373
308.04693
305.55325
303.35605
301.45315
299.83509
298.48489
297.37913
296.48997
295.78734
295.24122
294.82327
294.50801
294.27344
294.10117
293.97622
293.88671
293.82339
293.77918
293.74875
293.72812
293.71437
293.70539
293.69964
293.69605
293.69388
293.69259
293.69185
293.69144
293.69122
293.69111
293.69105
293.69103
293.69103
333.83285
329.16893
324.89873
320.96139
317.3234
313.96986
310.89797
308.11164
305.61664
303.41648
301.50922
299.88577
298.52955
297.41758
296.52234
295.81406
295.26287
294.84051
294.52155
294.28392
294.10918
293.98226
293.89121
293.8267
293.78157
293.75044
293.72929
293.71515
293.70588
293.69993
293.69619
293.69391
293.69256
293.69178
293.69134
293.6911
293.69098
293.69092
293.6909
293.69089
333.86365
329.20766
324.94459
321.01345
317.38056
314.03077
310.96107
308.17523
305.679
303.47597
301.56447
299.93575
298.57365
297.45558
296.55437
295.84052
295.28433
294.85764
294.535
294.29435
294.11715
293.98829
293.89571
293.83001
293.78397
293.75215
293.73047
293.71594
293.70638
293.70022
293.69634
293.69396
293.69253
293.69171
293.69124
293.69099
293.69085
293.69079
293.69076
293.69075
333.89386
329.24566
324.98958
321.06454
317.43667
314.09058
311.02307
308.23775
305.74034
303.53454
301.61892
299.98506
298.61721
297.49315
296.58608
295.86675
295.30562
294.87464
294.54838
294.30473
294.1251
293.9943
293.9002
293.83331
293.78637
293.75386
293.73166
293.71674
293.7069
293.70053
293.6965
293.69401
293.69251
293.69164
293.69114
293.69087
293.69073
293.69066
293.69063
293.69062
333.92352
329.28295
325.03374
321.1147
317.49176
314.14933
311.08399
308.29922
305.8007
303.59223
301.67259
300.03372
298.66023
297.53031
296.61747
295.89273
295.32674
294.89152
294.56167
294.31505
294.13301
294.00029
293.90468
293.83662
293.78878
293.75558
293.73286
293.71755
293.70742
293.70084
293.69666
293.69407
293.6925
293.69158
293.69105
293.69076
293.6906
293.69053
293.69049
293.69048
333.95263
329.31956
325.07711
321.16396
317.54587
314.20706
311.14388
308.35968
305.86011
303.64905
301.72551
300.08174
298.70273
297.56705
296.64854
295.91848
295.34769
294.90829
294.57488
294.32532
294.14089
294.00627
293.90916
293.83994
293.79119
293.7573
293.73407
293.71837
293.70795
293.70116
293.69683
293.69413
293.69249
293.69152
293.69096
293.69065
293.69048
293.6904
293.69036
293.69035
333.98122
329.35552
325.1197
321.21234
317.59904
314.26379
311.20276
308.41917
305.9186
303.70504
301.7777
300.12915
298.74473
297.60339
296.6793
295.944
295.36848
294.92493
294.58801
294.33554
294.14875
294.01223
293.91363
293.84325
293.79361
293.75904
293.73528
293.7192
293.70849
293.70149
293.69701
293.6942
293.69248
293.69146
293.69087
293.69054
293.69036
293.69027
293.69023
293.69022
334.00931
329.39084
325.16153
321.25987
317.65129
314.31956
311.26068
308.4777
305.97619
303.76021
301.82918
300.17595
298.78624
297.63934
296.70977
295.9693
295.38911
294.94147
294.60107
294.34571
294.15657
294.01817
293.91809
293.84656
293.79603
293.76078
293.73651
293.72004
293.70904
293.70183
293.69719
293.69427
293.69248
293.69141
293.69079
293.69043
293.69024
293.69014
293.6901
293.69009
334.03691
329.42555
325.20265
321.30659
317.70265
314.3744
311.31764
308.53531
306.03292
303.8146
301.87996
300.22216
298.82726
297.67491
296.73994
295.99438
295.40957
294.95789
294.61405
294.35583
294.16436
294.0241
293.92255
293.84987
293.79845
293.76253
293.73774
293.72089
293.7096
293.70217
293.69738
293.69435
293.69249
293.69136
293.6907
293.69033
293.69012
293.69002
293.68997
293.68996
334.06403
329.45967
325.24306
321.35252
317.75314
314.42833
311.3737
308.59203
306.0888
303.86821
301.93007
300.2678
298.86781
297.71011
296.76983
296.01925
295.42988
294.97421
294.62696
294.3659
294.17212
294.03001
293.927
293.85318
293.80088
293.76428
293.73898
293.72174
293.71017
293.70253
293.69758
293.69444
293.6925
293.69132
293.69062
293.69023
293.69001
293.6899
293.68985
293.68983
334.0907
329.49321
325.28279
321.39768
317.80281
314.48139
311.42887
308.64788
306.14386
303.92108
301.97952
300.31288
298.9079
297.74494
296.79943
296.0439
295.45004
294.99041
294.63979
294.37593
294.17986
294.03591
293.93144
293.85648
293.80331
293.76604
293.74023
293.7226
293.71074
293.70289
293.69779
293.69454
293.69251
293.69128
293.69055
293.69013
293.68989
293.68977
293.68972
293.68971
334.11692
329.52619
325.32186
321.44209
317.85166
314.53361
311.48317
308.70289
306.19813
303.97322
302.02832
300.35741
298.94755
297.77942
296.82876
296.06835
295.47005
295.00651
294.65255
294.3859
294.18756
294.04178
293.93587
293.85979
293.80575
293.76781
293.74149
293.72348
293.71132
293.70326
293.698
293.69463
293.69253
293.69124
293.69048
293.69003
293.68978
293.68965
293.6896
293.68958
334.1427
329.55862
325.3603
321.48578
317.89973
314.58499
311.53665
308.75708
306.25162
304.02465
302.07651
300.40141
298.98676
297.81354
296.85782
296.0926
295.48991
295.02251
294.66524
294.39583
294.19523
294.04765
293.9403
293.8631
293.80819
293.76958
293.74275