/*--------------------------------*- C++ -*----------------------------------*\
| =========                 |                                                 |
| \\      /  F ield         | OpenFOAM: The Open Source CFD Toolbox           |
|  \\    /   O peration     | Version:  3.0.1                                 |
|   \\  /    A nd           | Web:      www.OpenFOAM.org                      |
|    \\/     M anipulation  |                                                 |
\*---------------------------------------------------------------------------*/
FoamFile
{
    version     2.0;
    format      ascii;
    class       volVectorField;
    location    "2297";
    object      U;
}
// * * * * * * * * * * * * * * * * * * * * * * * * * * * * * * * * * * * * * //

dimensions      [0 1 -1 0 0 0 0];

internalField   nonuniform List<vector> 
4000
(
(5.8320093e-05 -9.9780839e-19 0.038678246)
(9.2377985e-05 -2.2878417e-18 0.08814873)
(0.0001522897 -3.4881854e-18 0.12020033)
(0.00013601129 -4.6269315e-18 0.13970947)
(8.7437368e-05 -4.9888967e-18 0.15051414)
(2.7795751e-05 -5.3524767e-18 0.15549547)
(-2.4668816e-05 -5.7315984e-18 0.15672257)
(-6.2500828e-05 -6.1089646e-18 0.1556223)
(-8.4772442e-05 -5.8572269e-18 0.15314048)
(-9.4216976e-05 -5.6294561e-18 0.14987377)
(-9.472548e-05 -5.4565526e-18 0.14618626)
(-9.0025648e-05 -5.3399388e-18 0.14229433)
(-8.3043466e-05 -5.2762716e-18 0.13832455)
(-7.5789921e-05 -5.2715334e-18 0.13435097)
(-6.9478872e-05 -5.3179978e-18 0.13041815)
(-6.4728469e-05 -5.4189429e-18 0.12655457)
(-6.175674e-05 -5.5943019e-18 0.12278002)
(-6.0536595e-05 -6.7268523e-18 0.11910933)
(-6.0904804e-05 -7.9238621e-18 0.115554)
(-6.26303e-05 -9.2142887e-18 0.11212246)
(-6.5454117e-05 -1.0620991e-17 0.10881979)
(-6.9111587e-05 -1.2181711e-17 0.10564687)
(-7.3340216e-05 -1.2494276e-17 0.10259936)
(-7.7884458e-05 -1.033654e-17 0.099666441)
(-8.2499316e-05 -9.7582507e-18 0.096829344)
(-8.6945136e-05 -8.1364087e-18 0.094059754)
(-9.0995866e-05 -6.7686738e-18 0.091318006)
(-9.4425051e-05 -6.6821089e-18 0.088551108)
(-9.7031931e-05 -6.7801731e-18 0.085690634)
(-9.85919e-05 -7.0819422e-18 0.082650523)
(-9.8954714e-05 -6.6140165e-18 0.079324975)
(-9.7872283e-05 -4.4084273e-18 0.075586553)
(-9.5320867e-05 -2.500972e-18 0.071285023)
(-9.0938019e-05 -8.0204414e-19 0.066246799)
(-8.5025871e-05 7.3016755e-19 0.060276216)
(-7.6772485e-05 2.1156729e-18 0.053156678)
(-6.7293797e-05 2.232381e-18 0.044654359)
(-5.3946855e-05 1.2356692e-18 0.034515113)
(-3.9888262e-05 1.0530366e-18 0.022462215)
(-1.2789201e-05 3.3235662e-19 0.0081517429)
(-2.1656705e-05 -1.3116802e-18 0.041873397)
(-0.00021888978 -2.7769578e-18 0.094919275)
(-0.0004884743 -4.1124183e-18 0.12822963)
(-0.00077384068 -5.5291136e-18 0.14729124)
(-0.0010206606 -5.3703529e-18 0.15672163)
(-0.0012027703 -5.4875738e-18 0.16005817)
(-0.0013096611 -5.7070578e-18 0.1597798)
(-0.0013453036 -5.8783011e-18 0.15749266)
(-0.0013221114 -5.8675308e-18 0.15416721)
(-0.0012560528 -5.7379364e-18 0.15035244)
(-0.0011629468 -5.6861706e-18 0.14634019)
(-0.0010562415 -5.799644e-18 0.14227681)
(-0.00094611145 -5.4458407e-18 0.13823236)
(-0.00083947222 -5.3057877e-18 0.13424027)
(-0.00074049185 -5.2289146e-18 0.13031831)
(-0.0006512717 -5.0644682e-18 0.12647853)
(-0.0005724982 -5.2941881e-18 0.12273142)
(-0.00050397947 -6.7567374e-18 0.11908698)
(-0.00044503473 -8.2234208e-18 0.11555445)
(-0.0003947501 -9.3677054e-18 0.11214147)
(-0.00035213287 -1.079324e-17 0.10885303)
(-0.00031619813 -1.2590818e-17 0.10569027)
(-0.00028600483 -1.2485173e-17 0.10264925)
(-0.00026067173 -1.0443279e-17 0.099719546)
(-0.0002393815 -1.0076432e-17 0.096882831)
(-0.000221373 -8.2009438e-18 0.094111186)
(-0.00020594137 -6.7895169e-18 0.09136532)
(-0.00019242458 -6.7011617e-18 0.088592595)
(-0.00018021812 -6.7969444e-18 0.085724916)
(-0.00016873878 -7.0596766e-18 0.082676548)
(-0.00015749829 -6.3413552e-18 0.079342005)
(-0.00014597285 -4.2118062e-18 0.075594188)
(-0.00013386739 -2.48693e-18 0.071283167)
(-0.00012067829 -8.0684296e-19 0.066235736)
(-0.00010650548 7.2137793e-19 0.060256413)
(-9.0638294e-05 2.0990536e-18 0.053128907)
(-7.401809e-05 2.113151e-18 0.044618765)
(-5.4558192e-05 1.3150782e-18 0.034471034)
(-3.5149816e-05 1.0547584e-18 0.022403288)
(-6.7313074e-06 3.0138259e-19 0.0080789605)
(-2.1674286e-05 -9.6600098e-19 0.045525988)
(-0.00023870303 -2.4136067e-18 0.10329959)
(-0.00057360063 -3.5543608e-18 0.13904317)
(-0.00095646765 -4.5572725e-18 0.15846372)
(-0.0013208256 -5.1649884e-18 0.16674143)
(-0.0016218773 -5.4223592e-18 0.16810723)
(-0.0018329756 -5.5634337e-18 0.16564796)
(-0.0019467198 -5.7242654e-18 0.1613764)
(-0.0019705129 -5.7107846e-18 0.15646106)
(-0.0019209268 -5.5815282e-18 0.15149368)
(-0.0018182309 -5.1585623e-18 0.14671875)
(-0.0016822365 -5.5134332e-18 0.14219779)
(-0.0015297838 -5.4970887e-18 0.13791231)
(-0.0013736982 -5.3833807e-18 0.13382024)
(-0.0012227773 -5.3382319e-18 0.12988248)
(-0.0010823723 -5.4015494e-18 0.12607209)
(-0.00095520062 -5.798029e-18 0.12237487)
(-0.00084214826 -6.9209767e-18 0.11878641)
(-0.00074294866 -8.3143542e-18 0.11530824)
(-0.00065668603 -9.762744e-18 0.1119444)
(-0.00058213127 -1.0454014e-17 0.10869849)
(-0.00051795131 -1.1895397e-17 0.10557148)
(-0.0004628217 -1.169366e-17 0.10255979)
(-0.00041548017 -1.052249e-17 0.099653593)
(-0.0003747513 -9.7356456e-18 0.096835203)
(-0.00033954572 -8.2346045e-18 0.094077338)
(-0.00030886032 -7.0105513e-18 0.091341305)
(-0.00028176508 -6.757352e-18 0.088575019)
(-0.00025741263 -6.7842465e-18 0.085710899)
(-0.00023500737 -6.8575387e-18 0.082663689)
(-0.0002138615 -6.0939928e-18 0.07932836)
(-0.00019329797 -4.0018846e-18 0.075578264)
(-0.00017285663 -2.4469624e-18 0.071263901)
(-0.00015195413 -8.0676248e-19 0.066212511)
(-0.00013053772 6.9823966e-19 0.060228967)
(-0.00010795186 1.9252767e-18 0.053097331)
(-8.488203e-05 1.8824149e-18 0.044582994)
(-5.970241e-05 1.3295202e-18 0.034430739)
(-3.4307069e-05 1.0471272e-18 0.022357792)
(-5.3406558e-06 3.2070858e-19 0.0080463164)
(-1.8345099e-05 -6.7575366e-19 0.048791032)
(-0.00021660228 -1.9928907e-18 0.11120979)
(-0.00054307242 -3.0089269e-18 0.14991098)
(-0.00094152835 -3.599967e-18 0.17052799)
(-0.0013515411 -4.7250059e-18 0.17844004)
(-0.001723035 -5.5437672e-18 0.17832103)
(-0.0020179274 -5.4130822e-18 0.17379385)
(-0.0022154674 -5.6246614e-18 0.16734492)
(-0.0023117206 -5.7459342e-18 0.16046756)
(-0.0023160167 -5.6236617e-18 0.15391816)
(-0.0022458597 -5.3133736e-18 0.14797957)
(-0.0021219883 -5.0312083e-18 0.14267338)
(-0.0019645556 -5.4827904e-18 0.137905)
(-0.0017907597 -5.5423436e-18 0.13354956)
(-0.0016138 -5.5487479e-18 0.1294948)
(-0.0014428169 -5.7881413e-18 0.12565687)
(-0.0012834181 -6.4851291e-18 0.12198144)
(-0.0011384721 -7.1227721e-18 0.11843803)
(-0.0010089189 -8.1085741e-18 0.11501261)
(-0.00089446693 -9.5650106e-18 0.11170072)
(-0.00079412378 -1.0433109e-17 0.10850188)
(-0.00070655625 -1.1052474e-17 0.10541546)
(-0.00063031404 -1.1171682e-17 0.10243759)
(-0.00056395244 -1.0645306e-17 0.099558792)
(-0.0005060948 -9.3070686e-18 0.096761958)
(-0.00045545192 -8.2558433e-18 0.094020476)
(-0.0004108305 -7.415145e-18 0.091296313)
(-0.00037112482 -6.8460643e-18 0.08853801)
(-0.0003353222 -6.7456609e-18 0.085678572)
(-0.00030247858 -6.5152274e-18 0.082633301)
(-0.00027176492 -5.8319421e-18 0.079297695)
(-0.00024238998 -3.9878462e-18 0.075545631)
(-0.00021376838 -2.4110037e-18 0.071228116)
(-0.00018525584 -8.0768512e-19 0.066172907)
(-0.00015666993 6.5065957e-19 0.060185303)
(-0.00012740483 1.6347773e-18 0.053049735)
(-9.7901638e-05 1.8027867e-18 0.044531502)
(-6.6959267e-05 1.351974e-18 0.034375195)
(-3.5929273e-05 9.1593643e-19 0.022299437)
(-4.9964167e-06 3.3814145e-19 0.0080051135)
(-1.5979172e-05 -7.8039717e-19 0.051647964)
(-0.00019416394 -1.9663047e-18 0.11833694)
(-0.00049747147 -2.9610196e-18 0.16005477)
(-0.00088225544 -3.6835719e-18 0.18228962)
(-0.0012983946 -4.4053348e-18 0.19043522)
(-0.0016991754 -4.9688915e-18 0.18939651)
(-0.0020434354 -5.3597933e-18 0.18318254)
(-0.0023025919 -5.740397e-18 0.1747017)
(-0.00246311 -5.832973e-18 0.16580146)
(-0.0025256226 -5.8676215e-18 0.15747328)
(-0.00250153 -5.9880627e-18 0.15011407)
(-0.0024086165 -5.6226707e-18 0.14376504)
(-0.0022669071 -5.6650176e-18 0.13829191)
(-0.0020954849 -5.8146127e-18 0.13350222)
(-0.0019105117 -5.9159177e-18 0.12921084)
(-0.0017243497 -6.1128358e-18 0.12526905)
(-0.0015455254 -6.6101501e-18 0.12157139)
(-0.0013792259 -7.2795163e-18 0.11805087)
(-0.0012280344 -8.2006366e-18 0.11466952)
(-0.0010926946 -9.2044281e-18 0.11140843)
(-0.00097277473 -1.0655669e-17 0.10825923)
(-0.00086717564 -1.0986142e-17 0.10521748)
(-0.00077447932 -1.1141925e-17 0.10227785)
(-0.00069316348 -1.0417086e-17 0.099430637)
(-0.00062171977 -9.3111662e-18 0.096659103)
(-0.00055871015 -8.2737153e-18 0.093937232)
(-0.00050279367 -7.4350908e-18 0.091227657)
(-0.00045272482 -6.9088664e-18 0.088479584)
(-0.00040736112 -6.7151325e-18 0.085626657)
(-0.00036564549 -6.4147041e-18 0.082584785)
(-0.00032664018 -5.607181e-18 0.079250057)
(-0.00028947052 -4.1506804e-18 0.07549693)
(-0.00025345958 -2.3999517e-18 0.071176982)
(-0.00021792652 -8.1015027e-19 0.066118538)
(-0.00018259157 6.0766383e-19 0.060127391)
(-0.00014690569 1.5633828e-18 0.052988373)
(-0.00011111986 1.8333934e-18 0.04446683)
(-7.4406725e-05 1.3735533e-18 0.034307558)
(-3.7926235e-05 8.4242145e-19 0.02223262)
(-4.7724219e-06 2.9423662e-19 0.0079631944)
(-1.4338787e-05 -1.0295178e-18 0.054205657)
(-0.00017636504 -2.1801738e-18 0.12481266)
(-0.00045727481 -3.2539808e-18 0.16945394)
(-0.00082199271 -4.3677365e-18 0.19347923)
(-0.0012291355 -4.4405129e-18 0.20222765)
(-0.0016375477 -4.4469576e-18 0.20071101)
(-0.0020073816 -4.9667983e-18 0.19319947)
(-0.0023069846 -5.3676916e-18 0.18294215)
(-0.0025167689 -5.7832176e-18 0.17211673)
(-0.0026302741 -5.9632197e-18 0.16197114)
(-0.0026525181 -6.1224962e-18 0.15306099)
(-0.0025967388 -6.2087735e-18 0.14549531)
(-0.0024806596 -5.9693479e-18 0.13913953)
(-0.0023231366 -6.0187866e-18 0.13375916)
(-0.0021416418 -6.1660576e-18 0.12910816)
(-0.0019507213 -6.3734971e-18 0.12497458)
(-0.0017613521 -6.5961721e-18 0.1211973)
(-0.0015809864 -7.4598449e-18 0.11766563)
(-0.0014140364 -8.5394754e-18 0.11431035)
(-0.001262559 -9.4599986e-18 0.11109212)
(-0.0011269587 -1.0562541e-17 0.10799028)
(-0.0010065964 -1.1235176e-17 0.10499376)
(-0.0009002503 -1.1137879e-17 0.10209412)
(-0.00080643011 -1.005324e-17 0.099280557)
(-0.0007235679 -9.464286e-18 0.096536281)
(-0.00065012474 -8.279713e-18 0.093835715)
(-0.0005846426 -7.2237442e-18 0.091142121)
(-0.00052575841 -6.9166682e-18 0.088405385)
(-0.00047221686 -6.6997809e-18 0.085559823)
(-0.00042285981 -6.4752537e-18 0.082521996)
(-0.00037665387 -5.5135816e-18 0.079188626)
(-0.00033265039 -4.0832235e-18 0.07543479)
(-0.00029009266 -2.3861107e-18 0.071112679)
(-0.00024826549 -8.1276629e-19 0.066051219)
(-0.00020680593 5.7910989e-19 0.060056738)
(-0.00016521514 1.6385006e-18 0.05291449)
(-0.00012360364 1.7646696e-18 0.044390008)
(-8.1464952e-05 1.3494043e-18 0.034228766)
(-4.0033594e-05 8.988971e-19 0.022157918)
(-4.6697318e-06 2.5152164e-19 0.007919406)
(-1.3077214e-05 -7.3215232e-19 0.056527532)
(-0.00016195486 -1.4063273e-18 0.13074894)
(-0.00042318139 -2.6652821e-18 0.17818091)
(-0.00076757908 -3.5996556e-18 0.20405277)
(-0.0011604128 -4.1884791e-18 0.21362552)
(-0.0015658504 -4.5769488e-18 0.21194978)
(-0.0019469149 -4.9037306e-18 0.20346954)
(-0.0022715721 -5.4049823e-18 0.19170078)
(-0.0025169902 -5.7987159e-18 0.17911081)
(-0.002671729 -5.9882909e-18 0.16719824)
(-0.0027354291 -6.084908e-18 0.15669664)
(-0.0027166732 -6.291464e-18 0.14781415)
(-0.0026299516 -6.2479854e-18 0.14044812)
(-0.0024925515 -6.2318663e-18 0.13434822)
(-0.0023218987 -6.4317068e-18 0.12922467)
(-0.0021336292 -6.67845e-18 0.12481048)
(-0.0019404598 -6.9323776e-18 0.12089008)
(-0.0017517744 -7.4006626e-18 0.11730582)
(-0.0015737643 -7.9758115e-18 0.11395213)
(-0.0014099212 -9.1319395e-18 0.11076391)
(-0.0012616739 -1.0691967e-17 0.10770388)
(-0.0011290294 -1.0993402e-17 0.1047511)
(-0.001011115 -1.0909744e-17 0.10189195)
(-0.0009065821 -1.0057943e-17 0.099113317)
(-0.00081387873 -9.3218002e-18 0.096397734)
(-0.00073141075 -8.2893825e-18 0.093719766)
(-0.0006576317 -7.3395177e-18 0.091043199)
(-0.00059108056 -6.9440869e-18 0.08831858)
(-0.00053040392 -6.7868726e-18 0.085480921)
(-0.00047435294 -6.3113644e-18 0.082447473)
(-0.00042180818 -5.2026623e-18 0.079115633)
(-0.00037175248 -3.9973469e-18 0.075361144)
(-0.00032335796 -2.3616754e-18 0.071036855)
(-0.00027587668 -8.133491e-19 0.06597233)
(-0.00022887508 5.5546925e-19 0.059974475)
(-0.00018189095 1.6065842e-18 0.052829009)
(-0.00013494089 1.5920565e-18 0.044301815)
(-8.7803914e-05 1.3078367e-18 0.034139584)
(-4.1961064e-05 8.5261219e-19 0.022075906)
(-4.5771488e-06 2.620079e-19 0.0078735787)
(-1.2076125e-05 -4.7336159e-20 0.058661452)
(-0.00015013939 -8.483171e-19 0.13624105)
(-0.00039443732 -1.3994145e-18 0.18632655)
(-0.00072002974 -1.5591118e-18 0.21404522)
(-0.0010972062 -3.1472212e-18 0.22457453)
(-0.0014946789 -4.1732743e-18 0.2229665)
(-0.0018786582 -4.6960427e-18 0.21378016)
(-0.0022180307 -5.2850589e-18 0.20073949)
(-0.0024885252 -5.7623478e-18 0.18656004)
(-0.0026754633 -5.9295455e-18 0.17297379)
(-0.0027743558 -5.9465158e-18 0.16089607)
(-0.0027896801 -5.8153031e-18 0.1506514)
(-0.002732556 -6.2125572e-18 0.14219197)
(-0.0026180492 -6.4724929e-18 0.13527381)
(-0.0024626316 -6.8018504e-18 0.12958101)
(-0.0022821152 -7.3318111e-18 0.1248029)
(-0.0020902191 -7.7891334e-18 0.12067456)
(-0.0018977832 -7.7863826e-18 0.11699181)
(-0.0017125631 -8.1640234e-18 0.11361005)
(-0.0015394629 -9.1501815e-18 0.11043454)
(-0.0013810316 -1.0116487e-17 0.10740739)
(-0.0012380626 -9.9936205e-18 0.10449461)
(-0.0011101671 -9.9751507e-18 0.10167504)
(-0.00099624837 -1.0031049e-17 0.098931776)
(-0.0008948466 -8.7289692e-18 0.09624581)
(-0.00080436489 -8.2125431e-18 0.093591418)
(-0.00072320064 -7.5441692e-18 0.090932712)
(-0.00064981636 -6.9790967e-18 0.088220837)
(-0.00058277274 -6.6951584e-18 0.085391498)
(-0.0005207393 -6.0529569e-18 0.082362661)
(-0.00046251924 -5.1310827e-18 0.079032434)
(-0.00040702984 -4.0944979e-18 0.075277266)
(-0.00035337693 -2.3553979e-18 0.070950702)
(-0.00030078094 -8.1632319e-19 0.065882988)
(-0.0002487471 5.1120111e-19 0.059881646)
(-0.00019683878 1.3902114e-18 0.052732916)
(-0.00014501803 1.5310163e-18 0.044203222)
(-9.3323718e-05 1.2698956e-18 0.034041038)
(-4.3591333e-05 7.5056985e-19 0.021987494)
(-4.465979e-06 2.8091139e-19 0.0078260605)
(-1.1253604e-05 -8.5153987e-19 0.060641176)
(-0.00014025243 -2.1468674e-18 0.1413614)
(-0.00036995429 -2.6561654e-18 0.19397052)
(-0.00067859116 -3.3472048e-18 0.22350942)
(-0.0010403182 -3.5409743e-18 0.23507373)
(-0.0014276098 -4.131046e-18 0.23369597)
(-0.0018097113 -4.5916904e-18 0.22401044)
(-0.0021569903 -4.6760846e-18 0.20990389)
(-0.0024448044 -5.3191336e-18 0.19430329)
(-0.0026564818 -5.9088668e-18 0.17915325)
(-0.0027845019 -6.2381211e-18 0.16554645)
(-0.0028299617 -6.6261641e-18 0.15393171)
(-0.0028008682 -6.5279866e-18 0.14433094)
(-0.0027098836 -6.6804473e-18 0.13652358)
(-0.0025720208 -6.8674384e-18 0.13018316)
(-0.0024026141 -7.0377794e-18 0.1249672)
(-0.0022157445 -7.5592766e-18 0.12056879)
(-0.0020232056 -8.227401e-18 0.11674015)
(-0.0018340059 -9.1994746e-18 0.11329734)
(-0.0016543326 -9.7332422e-18 0.11011365)
(-0.0014878587 -9.7519577e-18 0.10710747)
(-0.0013362446 -1.0264326e-17 0.10422874)
(-0.0011996935 -9.8977571e-18 0.1014464)
(-0.0010774595 -9.7600762e-18 0.098738072)
(-0.00096825353 -8.9889463e-18 0.096082146)
(-0.00087052975 -8.1964643e-18 0.09345202)
(-0.0007826673 -7.5311794e-18 0.090811846)
(-0.00070307324 -6.9696747e-18 0.088113244)
(-0.00063023869 -6.4895204e-18 0.08529258)
(-0.00056276162 -5.9324028e-18 0.082268545)
(-0.00049937322 -5.0239262e-18 0.078939983)
(-0.0004389327 -3.7798519e-18 0.075184086)
(-0.00038048405 -2.3140863e-18 0.070855133)
(-0.00032321561 -8.1954439e-19 0.065784082)
(-0.00026658099 4.5597413e-19 0.059779119)
(-0.00021015944 1.2287332e-18 0.052627074)
(-0.00015389151 1.4763952e-18 0.044095122)
(-9.8064483e-05 1.3288243e-18 0.033934088)
(-4.4921145e-05 7.6617797e-19 0.021893522)
(-4.3403907e-06 2.2379338e-19 0.0077771726)
(-1.0562046e-05 -9.6753242e-19 0.062491838)
(-0.00013184248 -1.5467772e-18 0.14616607)
(-0.00034886598 -2.7216182e-18 0.20117939)
(-0.0006423226 -3.8442906e-18 0.2324992)
(-0.00098940639 -4.0730026e-18 0.2451437)
(-0.0013656953 -4.3963674e-18 0.24411414)
(-0.001743173 -4.7290906e-18 0.23409275)
(-0.0020938767 -5.3644025e-18 0.21909442)
(-0.0023934033 -5.7087276e-18 0.20222637)
(-0.002623931 -6.0676443e-18 0.18562517)
(-0.002775765 -6.3174783e-18 0.17055263)
(-0.0028473114 -6.6628892e-18 0.15758402)
(-0.0028438679 -6.7948629e-18 0.14682)
(-0.0027757724 -6.8801878e-18 0.13807575)
(-0.002656369 -7.0713133e-18 0.13102697)
(-0.0025001035 -7.2481686e-18 0.12531031)
(-0.0023209306 -7.4053089e-18 0.12058487)
(-0.0021311425 -8.1039253e-18 0.11656386)
(-0.0019406567 -8.6435863e-18 0.11302544)
(-0.0017567444 -9.3335104e-18 0.10981009)
(-0.0015841355 -1.0207057e-17 0.10681037)
(-0.0014253813 -1.0543116e-17 0.10395769)
(-0.0012813457 -1.0530444e-17 0.10120878)
(-0.0011517177 -9.5262536e-18 0.098534018)
(-0.0010354536 -9.2172746e-18 0.095908004)
(-0.00093111478 -8.2215097e-18 0.093302532)
(-0.00083709958 -7.3719596e-18 0.090681397)
(-0.00075178516 -6.9540731e-18 0.087996517)
(-0.00067360915 -6.6094937e-18 0.085184846)
(-0.00060110826 -5.9995688e-18 0.082165789)
(-0.00053295073 -4.9587115e-18 0.078838948)
(-0.00046794124 -3.7085942e-18 0.075082279)
(-0.00040506987 -2.2700797e-18 0.07075083)
(-0.00034349115 -8.201738e-19 0.06567631)
(-0.00028261476 4.3403854e-19 0.059667608)
(-0.00022203393 1.3951464e-18 0.052512224)
(-0.00016169042 1.4370718e-18 0.043978317)
(-0.00010211675 1.1912953e-18 0.033819603)
(-4.5985049e-05 8.236864e-19 0.021794755)
(-4.2067697e-06 2.438902e-19 0.0077272183)
(-9.9700555e-06 -7.1412974e-20 0.064232595)
(-0.00012458663 -9.8448007e-19 0.15069904)
(-0.00033050242 -1.6191741e-18 0.20800792)
(-0.00061036463 -1.7754436e-18 0.24106374)
(-0.0009438056 -3.2625501e-18 0.25481251)
(-0.00130898 -4.095108e-18 0.25421775)
(-0.0016802912 -4.6285664e-18 0.2439904)
(-0.0020314568 -5.2802492e-18 0.22824683)
(-0.0023386498 -5.8229681e-18 0.21024848)
(-0.0025834587 -6.0778915e-18 0.19230476)
(-0.0027546538 -6.2315654e-18 0.17583683)
(-0.0028485319 -6.2128605e-18 0.16154527)
(-0.0028681024 -6.7541603e-18 0.14961451)
(-0.0028215826 -7.0985645e-18 0.13990406)
(-0.0027206226 -7.4498571e-18 0.13210169)
(-0.0025785603 -7.9786734e-18 0.12583267)
(-0.0024088853 -8.3354149e-18 0.12072981)
(-0.0022240169 -8.4487697e-18 0.11647256)
(-0.0020344538 -8.7361661e-18 0.11280387)
(-0.0018483225 -9.2637113e-18 0.10953182)
(-0.0016712889 -9.7539351e-18 0.10652208)
(-0.0015067667 -9.5458534e-18 0.10368559)
(-0.0013563189 -9.6108813e-18 0.10096488)
(-0.0012201298 -9.5264363e-18 0.098321349)
(-0.0010974647 -8.7078685e-18 0.09572452)
(-0.00098704672 -8.162608e-18 0.093143746)
(-0.00088733317 -7.6290307e-18 0.090541979)
(-0.00079669949 -6.9574331e-18 0.087871178)
(-0.00071354682 -6.519876e-18 0.085068783)
(-0.00063636204 -5.8037641e-18 0.082054875)
(-0.00056375795 -4.8955735e-18 0.078729818)
(-0.00049449081 -3.8369237e-18 0.074972355)
(-0.00042750097 -2.2635934e-18 0.070638331)
(-0.00036191131 -8.2475976e-19 0.065560235)
(-0.00029709565 3.9016778e-19 0.059547705)
(-0.00023265817 1.1550756e-18 0.052389006)
(-0.00016856186 1.3828127e-18 0.043853515)
(-0.00010558288 1.1498712e-18 0.033698357)
(-4.6828653e-05 6.9272702e-19 0.021691854)
(-4.0738449e-06 2.6395344e-19 0.0076764485)
(-9.4556238e-06 -5.0761837e-19 0.065878427)
(-0.0001182513 -1.7788348e-18 0.1549954)
(-0.0003143534 -2.2452133e-18 0.21450126)
(-0.00058200297 -2.7071834e-18 0.24924634)
(-0.00090282587 -3.3628563e-18 0.26410982)
(-0.0012571344 -4.0259613e-18 0.26401409)
(-0.0016214552 -4.6096382e-18 0.25368504)
(-0.0019711172 -5.2396952e-18 0.23731981)
(-0.0022830446 -5.7938899e-18 0.21831234)
(-0.0025386062 -6.1271954e-18 0.19912772)
(-0.002725506 -6.3386956e-18 0.18133642)
(-0.0028383974 -6.4987347e-18 0.16576129)
(-0.0028783861 -6.9098536e-18 0.15267288)
(-0.0028518128 -7.3074772e-18 0.1419809)
(-0.0027687117 -7.6396585e-18 0.13339273)
(-0.0026412285 -8.0195213e-18 0.12653007)
(-0.0024821743 -8.4258322e-18 0.12100638)
(-0.0023038138 -8.7803003e-18 0.11647272)
(-0.0021169452 -9.3746225e-18 0.11264017)
(-0.0019303179 -9.6563356e-18 0.1092858)
(-0.0017503844 -9.354831e-18 0.10624816)
(-0.0015813566 -9.5062294e-18 0.10341647)
(-0.0014254935 -9.3912063e-18 0.10071741)
(-0.0012835155 -9.2778458e-18 0.09810181)
(-0.0011550504 -8.6338313e-18 0.09553281)
(-0.0010390317 -8.0706283e-18 0.092976403)
(-0.00093401659 -7.5358966e-18 0.090394126)
(-0.00083840579 -6.9198916e-18 0.087737661)
(-0.00075058292 -6.317543e-18 0.084944778)
(-0.00066899754 -5.7690913e-18 0.081936181)
(-0.00059221598 -5.0966362e-18 0.07861298)
(-0.00051894957 -3.7659166e-18 0.074854722)
(-0.0004480949 -2.2476134e-18 0.070518069)
(-0.00037874691 -8.3312714e-19 0.065436321)
(-0.00031024736 3.3592797e-19 0.059419913)
(-0.00024221242 9.9106513e-19 0.052257972)
(-0.00017464375 1.4559295e-18 0.04372134)
(-0.00010856321 1.0964496e-18 0.033571027)
(-4.7499669e-05 6.9666306e-19 0.021585384)
(-3.9442046e-06 2.3673024e-19 0.0076250585)
(-9.0033433e-06 -1.2927731e-18 0.067441295)
(-0.00011266288 -2.3216273e-18 0.15908359)
(-0.00030002706 -3.357236e-18 0.22069691)
(-0.00055665915 -4.7406829e-18 0.25708466)
(-0.00086584023 -4.2680531e-18 0.27306427)
(-0.0012097078 -4.4010355e-18 0.2735155)
(-0.0015666515 -4.769528e-18 0.26316926)
(-0.0019135056 -5.2581345e-18 0.24628706)
(-0.0022280299 -5.8282525e-18 0.22637723)
(-0.0024916163 -6.3002308e-18 0.20604535)
(-0.0026912421 -6.6900279e-18 0.18700135)
(-0.0028202856 -7.252282e-18 0.17018634)
(-0.0028782782 -7.2520402e-18 0.15595773)
(-0.0028699273 -7.4472742e-18 0.14427929)
(-0.002803777 -7.6327044e-18 0.13488364)
(-0.002690781 -7.7277919e-18 0.12739519)
(-0.0025429559 -7.9912017e-18 0.12141411)
(-0.0023722144 -8.8434257e-18 0.11656811)
(-0.0021894251 -9.5651392e-18 0.11254002)
(-0.002003746 -9.6576442e-18 0.10907791)
(-0.0018222566 -9.6830663e-18 0.10599364)
(-0.0016498756 -1.0180206e-17 0.10315417)
(-0.0014895306 -9.9877473e-18 0.10046908)
(-0.0013424925 -9.1822065e-18 0.097877182)
(-0.0012087896 -9.0102731e-18 0.095334013)
(-0.0010876114 -8.0762354e-18 0.09280124)
(-0.00097765184 -7.2612905e-18 0.090238343)
(-0.00087736631 -6.8350328e-18 0.08759635)
(-0.0007851393 -6.3119306e-18 0.084813164)
(-0.00069939558 -5.8361608e-18 0.081810022)
(-0.00061866493 -4.9271607e-18 0.078488757)
(-0.0005416195 -3.4876195e-18 0.074729719)
(-0.00046711719 -2.1937954e-18 0.070390408)
(-0.0003942252 -8.3741605e-19 0.065304962)
(-0.00032225993 2.9934895e-19 0.059284663)
(-0.00025085335 1.0899273e-18 0.052119604)
(-0.0001800583 1.3593411e-18 0.043582342)
(-0.00011113904 1.0988614e-18 0.033438199)
(-4.8034145e-05 7.7194162e-19 0.021475814)
(-3.8242733e-06 2.0857706e-19 0.0075731961)
(-8.6012813e-06 -8.3897853e-19 0.068930913)
(-0.00010768898 -2.0851314e-18 0.16298698)
(-0.00028721849 -3.0960551e-18 0.22662626)
(-0.00053386607 -3.9274229e-18 0.26461128)
(-0.00083230618 -4.3611162e-18 0.28170247)
(-0.0011662358 -4.6589928e-18 0.28273658)
(-0.0015156824 -5.033958e-18 0.27244222)
(-0.0018588712 -5.4863109e-18 0.25513223)
(-0.0021744248 -5.9242495e-18 0.23441417)
(-0.0024439173 -6.4238316e-18 0.21302056)
(-0.0026538493 -6.8293668e-18 0.19279162)
(-0.0027966091 -7.3507217e-18 0.17478222)
(-0.0028704276 -7.4945601e-18 0.15943622)
(-0.0028786031 -7.6078425e-18 0.14677391)
(-0.0028283336 -7.8474756e-18 0.1365574)
(-0.0027294278 -8.0479121e-18 0.12841882)
(-0.0025930611 -8.3128398e-18 0.12195011)
(-0.0024306666 -8.8342439e-18 0.11676024)
(-0.0022530061 -9.4262763e-18 0.11250736)
(-0.0020694638 -9.663453e-18 0.10891287)
(-0.0018875881 -9.7362519e-18 0.10576301)
(-0.0017128987 -9.9590374e-18 0.10290234)
(-0.0015489412 -9.8345962e-18 0.10022254)
(-0.0013975334 -9.2009285e-18 0.097649275)
(-0.0012591275 -8.8137776e-18 0.095129302)
(-0.0011332045 -8.0754524e-18 0.092619008)
(-0.001018631 -7.3222575e-18 0.090075132)
(-0.00091394289 -6.7892261e-18 0.087447613)
(-0.00081754831 -6.2733429e-18 0.084674244)
(-0.00072786032 -5.7188527e-18 0.081676678)
(-0.00064337971 -4.7710353e-18 0.078357426)
(-0.00056274619 -3.4386994e-18 0.074597638)
(-0.00048478273 -2.1413999e-18 0.07025566)
(-0.00040853265 -8.398035e-19 0.0651665)
(-0.00033329261 2.5990407e-19 0.05914233)
(-0.00025871175 1.0034688e-18 0.051974327)
(-0.00018490695 1.2538209e-18 0.043437008)
(-0.00011338274 1.1087579e-18 0.033300387)
(-4.8463354e-05 7.2978914e-19 0.021363539)
(-3.7124492e-06 2.2387451e-19 0.0075209732)
(-8.2412138e-06 -4.4106768e-19 0.070355295)
(-0.0001032291 -1.585287e-18 0.16672505)
(-0.00027568831 -2.4821205e-18 0.23231584)
(-0.00051324552 -2.979064e-18 0.27185448)
(-0.00080176418 -4.2296968e-18 0.29004868)
(-0.001126283 -5.3309164e-18 0.29169256)
(-0.0014682763 -5.3257445e-18 0.28150701)
(-0.0018072465 -5.5815973e-18 0.26384569)
(-0.0021226736 -5.9912975e-18 0.24240252)
(-0.0023964185 -6.4478874e-18 0.2200251)
(-0.0026146872 -6.7319683e-18 0.19867529)
(-0.0027691012 -6.7725113e-18 0.17951711)
(-0.0028568159 -7.4268374e-18 0.16307978)
(-0.0028799161 -7.7646438e-18 0.14944162)
(-0.0028443977 -8.0327628e-18 0.13839734)
(-0.0027589988 -8.3468159e-18 0.12959074)
(-0.0026340505 -8.8174652e-18 0.12260983)
(-0.0024804306 -8.9648206e-18 0.11704882)
(-0.0023086667 -9.1919962e-18 0.11254461)
(-0.0021282169 -9.5753255e-18 0.10879436)
(-0.0019469561 -9.644105e-18 0.10556008)
(-0.001770895 -9.4902496e-18 0.1026643)
(-0.0016041312 -9.356931e-18 0.099980353)
(-0.0014490072 -9.2595566e-18 0.097419902)
(-0.0013064107 -8.4611106e-18 0.094919883)
(-0.0011761393 -8.0387107e-18 0.092430488)
(-0.001057262 -7.5650145e-18 0.089905006)
(-0.00094842383 -6.8177498e-18 0.087291812)
(-0.00084807628 -6.2062163e-18 0.084528303)
(-0.0007546347 -5.4333642e-18 0.081536403)
(-0.00066658045 -4.6552166e-18 0.078219238)
(-0.00058252699 -3.388452e-18 0.074458736)
(-0.00050126682 -2.1040269e-18 0.070114102)
(-0.00042182229 -8.4612784e-19 0.065021232)
(-0.00034347477 2.0780687e-19 0.058993247)
(-0.00026589403 8.0106367e-19 0.051822521)
(-0.00018927095 1.175884e-18 0.043285769)
(-0.00011534883 1.0523348e-18 0.033158035)
(-4.8811496e-05 6.1840331e-19 0.02124889)
(-3.6096715e-06 2.380693e-19 0.0074684729)
(-7.9161168e-06 -9.761469e-19 0.071721137)
(-9.9202127e-05 -2.062133e-18 0.17031419)
(-0.00026524476 -3.1101428e-18 0.23778828)
(-0.0004944908 -4.2610079e-18 0.27883886)
(-0.00077382682 -4.5277961e-18 0.29812484)
(-0.0010894581 -5.0385523e-18 0.3003985)
(-0.0014241411 -5.2429041e-18 0.29036903)
(-0.0017585481 -5.2127022e-18 0.2724223)
(-0.0020729949 -5.905235e-18 0.25032766)
(-0.0023496939 -6.5481889e-18 0.22703732)
(-0.0025746918 -7.0800112e-18 0.20462677)
(-0.0027390172 -7.7394082e-18 0.18436458)
(-0.0028389342 -7.7030458e-18 0.1668638)
(-0.0028754828 -7.923029e-18 0.15226159)
(-0.002853591 -8.1457574e-18 0.14038757)
(-0.0027810114 -8.1643453e-18 0.1309004)
(-0.0026672539 -8.4664584e-18 0.12338762)
(-0.0025226058 -9.0334685e-18 0.1174322)
(-0.0023572732 -9.4525404e-18 0.11265288)
(-0.0021806683 -9.5822811e-18 0.10872503)
(-0.0020008675 -9.6658669e-18 0.10538801)
(-0.0018242638 -9.7938858e-18 0.10244302)
(-0.0016554344 -9.3508237e-18 0.099744958)
(-0.0014972114 -9.1752001e-18 0.09719085)
(-0.0013509146 -8.6931908e-18 0.094706979)
(-0.0012166757 -8.0383016e-18 0.092236482)
(-0.0010937906 -7.513629e-18 0.089728491)
(-0.0009810395 -6.8287745e-18 0.087129308)
(-0.00087693709 -6.1312227e-18 0.084375617)
(-0.00077991534 -5.3157241e-18 0.081389435)
(-0.00068844636 -4.2630009e-18 0.078074417)
(-0.00060112239 -3.1035843e-18 0.074313245)
(-0.00051671168 -2.038054e-18 0.069965978)
(-0.00043421833 -8.4862086e-19 0.064869428)
(-0.00035291175 1.6619707e-19 0.058837713)
(-0.00027248769 7.7060849e-19 0.051664528)
(-0.00019321911 1.0089407e-18 0.043129014)
(-0.00011708194 1.0818178e-18 0.033011537)
(-4.9094086e-05 6.282722e-19 0.021132144)
(-3.5150608e-06 1.8194489e-19 0.0074157602)
(-7.6208977e-06 -7.792933e-19 0.0730341)
(-9.5544925e-05 -1.9350147e-18 0.17376836)
(-0.00025573382 -2.9003257e-18 0.243063)
(-0.00047734917 -3.675142e-18 0.28558588)
(-0.0007481673 -4.1430972e-18 0.30595069)
(-0.0010554144 -4.2762691e-18 0.30886889)
(-0.0013829894 -5.1759551e-18 0.29903495)
(-0.0017126347 -5.9278224e-18 0.28085997)
(-0.0020254696 -6.1294557e-18 0.25817937)
(-0.0023040986 -6.6972787e-18 0.23404061)
(-0.0025345085 -7.1649393e-18 0.2106255)
(-0.0027072716 -7.7472992e-18 0.18930263)
(-0.002817911 -7.9764198e-18 0.17076712)
(-0.002866567 -8.1700223e-18 0.15521528)
(-0.0028572205 -8.4475821e-18 0.14251333)
(-0.0027967232 -8.7991233e-18 0.13233731)
(-0.0026938056 -8.7436381e-18 0.12427721)
(-0.0025581549 -9.0252786e-18 0.11790773)
(-0.0023995997 -9.4102063e-18 0.11283223)
(-0.002227416 -9.6074221e-18 0.10870665)
(-0.002049775 -9.6480199e-18 0.10524935)
(-0.0018733542 -9.670666e-18 0.10224111)
(-0.0017031336 -9.5970339e-18 0.099518601)
(-0.0015423904 -8.9625352e-18 0.096963854)
(-0.0013928617 -8.6076951e-18 0.094491818)
(-0.0012550219 -8.0181875e-18 0.092037813)
(-0.0011284151 -7.2550428e-18 0.089546128)
(-0.0010119761 -6.7440315e-18 0.086960469)
(-0.00090430397 -6.0818416e-18 0.084216458)
(-0.00080386182 -5.417268e-18 0.081236)
(-0.00070912191 -4.4778319e-18 0.077923175)
(-0.00061866319 -3.3184755e-18 0.074161375)
(-0.00053123369 -2.0107794e-18 0.069811511)
(-0.00044582146 -8.4885357e-19 0.064711327)
(-0.00036168958 1.4313594e-19 0.058675997)
(-0.00027856409 8.8285637e-19 0.051500657)
(-0.00019680567 1.1495863e-18 0.042967093)
(-0.0001186169 9.3916498e-19 0.032861237)
(-4.9324189e-05 6.9274401e-19 0.021013539)
(-3.4275887e-06 2.0420006e-19 0.007362886)
(-7.3510575e-06 -4.4710661e-19 0.074299015)
(-9.2205591e-05 -1.5195931e-18 0.17709954)
(-0.00024702924 -2.3330653e-18 0.24815683)
(-0.00046161189 -2.722561e-18 0.29211443)