/*--------------------------------*- C++ -*----------------------------------*\
| =========                 |                                                 |
| \\      /  F ield         | OpenFOAM: The Open Source CFD Toolbox           |
|  \\    /   O peration     | Version:  3.0.1                                 |
|   \\  /    A nd           | Web:      www.OpenFOAM.org                      |
|    \\/     M anipulation  |                                                 |
\*---------------------------------------------------------------------------*/
FoamFile
{
    version     2.0;
    format      ascii;
    class       surfaceScalarField;
    location    "2248";
    object      phi;
}
// * * * * * * * * * * * * * * * * * * * * * * * * * * * * * * * * * * * * * //

dimensions      [1 0 -1 0 0 0 0];

internalField   nonuniform List<scalar> 
7860
(
2.2050431e-09
1.3030598e-08
6.1496114e-09
3.9128216e-08
9.7667506e-09
6.8063571e-08
1.2158688e-08
9.8179297e-08
1.3364503e-08
1.2865314e-07
1.3809505e-08
1.5953496e-07
1.3913619e-08
1.9139546e-07
1.3946781e-08
2.2495046e-07
1.4033398e-08
2.6084076e-07
1.4203694e-08
2.9955839e-07
1.4441235e-08
3.4145205e-07
1.4713313e-08
3.8676003e-07
1.4986174e-08
4.3564565e-07
1.5230777e-08
4.8822755e-07
1.5423736e-08
5.4460429e-07
1.5546462e-08
6.0487565e-07
1.5583938e-08
6.6916289e-07
1.5523877e-08
7.3762993e-07
1.5356139e-08
8.1050579e-07
1.5072704e-08
8.8810808e-07
1.4667773e-08
9.7086564e-07
1.4137947e-08
1.0593374e-06
1.3482696e-08
1.1542225e-06
1.2704803e-08
1.2563544e-06
1.1810765e-08
1.3666683e-06
1.0811455e-08
1.4861287e-06
9.7227044e-09
1.6155951e-06
8.5656795e-09
1.7556003e-06
7.3675302e-09
1.9060066e-06
6.1613494e-09
2.0654959e-06
4.9855673e-09
2.2308433e-06
3.8826037e-09
2.3959212e-06
2.8955323e-09
2.5503871e-06
2.0632432e-09
2.6780272e-06
1.4126668e-09
2.7547621e-06
9.5047965e-10
2.7463644e-06
6.5163434e-10
2.6059412e-06
4.5600542e-10
2.2711855e-06
2.8035612e-10
1.6610845e-06
6.7145251e-07
-7.2019309e-10
1.375079e-08
-2.6235041e-09
4.1031528e-08
-5.5207815e-09
7.0960849e-08
-9.0495148e-09
1.0170803e-07
-1.265502e-08
1.3225864e-07
-1.5764082e-08
1.6264403e-07
-1.7985811e-08
1.9361718e-07
-1.9184069e-08
2.2614872e-07
-1.9427207e-08
2.610839e-07
-1.8894027e-08
2.9902521e-07
-1.7793746e-08
3.4035177e-07
-1.6318318e-08
3.8528461e-07
-1.4623021e-08
4.3395034e-07
-1.2824618e-08
4.8642914e-07
-1.1007831e-08
5.4278751e-07
-9.2338879e-09
6.031017e-07
-7.5479801e-09
6.6747699e-07
-5.9847955e-09
7.3606674e-07
-4.5717479e-09
8.0909273e-07
-3.3306496e-09
8.8686699e-07
-2.2784682e-09
9.6981347e-07
-1.4272923e-09
1.0584862e-06
-7.8350466e-10
1.1535788e-06
-3.4806085e-10
1.2559189e-06
-1.1501663e-10
1.3664352e-06
-7.1042242e-11
1.4860847e-06
-1.9458563e-10
1.6157186e-06
-4.5505384e-10
1.7558608e-06
-8.123048e-10
1.9063639e-06
-1.2164215e-09
2.0659001e-06
-1.6089424e-09
2.2312358e-06
-1.9256263e-09
2.3962378e-06
-2.1021053e-09
2.5505636e-06
-2.0836006e-09
2.6780087e-06
-1.8392129e-09
2.7545175e-06
-1.3781921e-09
2.7459035e-06
-7.7482851e-10
2.6053378e-06
-1.8416744e-10
2.2705948e-06
1.4882597e-10
1.6607517e-06
6.7160128e-07
-9.1031006e-10
1.46611e-08
-3.6043425e-09
4.3725561e-08
-8.0124318e-09
7.5368937e-08
-1.3697193e-08
1.0739279e-07
-1.9899184e-08
1.3846063e-07
-2.5738128e-08
1.6848297e-07
-3.0487908e-08
1.9836696e-07
-3.3751713e-08
2.2941253e-07
-3.546934e-08
2.6280153e-07
-3.5815983e-08
2.9937185e-07
-3.5079049e-08
3.3961484e-07
-3.3563628e-08
3.8376918e-07
-3.1538879e-08
4.319256e-07
-2.9218021e-08
4.8410828e-07
-2.6758818e-08
5.403283e-07
-2.4273686e-08
6.0061657e-07
-2.1841936e-08
6.6504524e-07
-1.9520283e-08
7.3374509e-07
-1.7350506e-08
8.0692294e-07
-1.5364051e-08
8.8488054e-07
-1.3584587e-08
9.6803402e-07
-1.2028932e-08
1.0569305e-06
-1.0707171e-08
1.152257e-06
-9.6220314e-09
1.2548338e-06
-8.7685123e-09
1.3655817e-06
-8.1325971e-09
1.4854488e-06
-7.6905899e-09
1.6152766e-06
-7.4080912e-09
1.7555783e-06
-7.2393369e-09
1.9061951e-06
-7.1273616e-09
2.0657881e-06
-7.0049574e-09
2.2311134e-06
-6.7987053e-09
2.3960315e-06
-6.4349097e-09
2.5501998e-06
-5.8511834e-09
2.677425e-06
-5.011972e-09
2.7536782e-06
-3.9281908e-09
2.7448197e-06
-2.681689e-09
2.6040913e-06
-1.4439416e-09
2.2693572e-06
-4.9042814e-10
1.6597979e-06
6.71111e-07
-8.3020536e-10
1.5491306e-08
-3.4524992e-09
4.6347854e-08
-8.0491072e-09
7.9965544e-08
-1.4422024e-08
1.1376571e-07
-2.1927939e-08
1.4596655e-07
-2.9612291e-08
1.7616732e-07
-3.650502e-08
2.0525969e-07
-4.1899907e-08
2.3480741e-07
-4.5475259e-08
2.6637689e-07
-4.7253674e-08
3.0115027e-07
-4.7480904e-08
3.3984207e-07
-4.6499992e-08
3.8278827e-07
-4.4659099e-08
4.3008471e-07
-4.2260292e-08
4.8170947e-07
-3.9541215e-08
5.3760922e-07
-3.6677204e-08
5.9775255e-07
-3.3792796e-08
6.6216084e-07
-3.0975332e-08
7.3092765e-07
-2.8286628e-08
8.0423422e-07
-2.5771113e-08
8.8236505e-07
-2.346124e-08
9.6572411e-07
-2.1379735e-08
1.0548491e-06
-1.954114e-08
1.1504184e-06
-1.7951063e-08
1.2532438e-06
-1.6606314e-08
1.3642369e-06
-1.5493322e-08
1.4843359e-06
-1.458764e-08
1.6143709e-06
-1.3852635e-08
1.7548432e-06
-1.3238646e-08
1.9055812e-06
-1.2683649e-08
2.065233e-06
-1.2113937e-08
2.2305438e-06
-1.1448482e-08
2.395366e-06
-1.0605773e-08
2.5493571e-06
-9.5155526e-09
2.6763348e-06
-8.1356034e-09
2.7522982e-06
-6.472496e-09
2.7431567e-06
-4.606098e-09
2.6022249e-06
-2.7090129e-09
2.2674601e-06
-1.0534458e-09
1.6581423e-06
6.7005748e-07
-7.3826569e-10
1.6229571e-08
-3.1450154e-09
4.8754606e-08
-7.5310526e-09
8.435158e-08
-1.3908492e-08
1.2014315e-07
-2.1846993e-08
1.5390505e-07
-3.0499538e-08
1.8481987e-07
-3.883339e-08
2.1359354e-07
-4.5937719e-08
2.4191174e-07
-5.1236448e-08
2.7167562e-07
-5.4537106e-08
3.0445093e-07
-5.5956055e-08
3.4126101e-07
-5.5795406e-08
3.8262762e-07
-5.4428276e-08
4.2871758e-07
-5.2217854e-08
4.7949904e-07
-4.9473696e-08
5.3486507e-07
-4.6437427e-08
5.9471628e-07
-4.3286588e-08
6.5901e-07
-4.0146857e-08
7.2778793e-07
-3.7105787e-08
8.0119313e-07
-3.4224235e-08
8.7948351e-07
-3.1544715e-08
9.630446e-07
-2.9096181e-08
1.0524005e-06
-2.6896539e-08
1.1482187e-06
-2.4953359e-08
1.2513006e-06
-2.3263839e-08
1.3625474e-06
-2.1813839e-08
1.4828859e-06
-2.0576904e-08
1.613134e-06
-1.9513394e-08
1.7537796e-06
-1.8569237e-08
1.9046371e-06
-1.7676717e-08
2.0643405e-06
-1.675548e-08
2.2296225e-06
-1.5716557e-08
2.3943272e-06
-1.447065e-08
2.5481111e-06
-1.2938988e-08
2.6748032e-06
-1.1072363e-08
2.7504315e-06
-8.8715539e-09
2.7409559e-06
-6.412904e-09
2.5997662e-06
-3.8685074e-09
2.2649158e-06
-1.5286567e-09
1.6558025e-06
6.6852873e-07
-6.6742095e-10
1.6896993e-08
-2.8774579e-09
5.0964642e-08
-6.9926265e-09
8.8466748e-08
-1.3156219e-08
1.2630675e-07
-2.1123862e-08
1.6187269e-07
-3.0210861e-08
1.9390687e-07
-3.9437363e-08
2.2282005e-07
-4.7806497e-08
2.5028087e-07
-5.4559034e-08
2.7842816e-07
-5.9296581e-08
3.0918847e-07
-6.1968773e-08
3.439332e-07
-6.278005e-08
3.834389e-07
-6.2074922e-08
4.2801244e-07
-6.0239473e-08
4.776636e-07
-5.7634816e-08
5.3226041e-07
-5.4562746e-08
5.916442e-07
-5.125629e-08
6.5570356e-07
-4.7885675e-08
7.2441732e-07
-4.4570698e-08
7.9787815e-07
-4.1393946e-08
8.7630677e-07
-3.8411645e-08
9.600623e-07
-3.5661054e-08
1.0496499e-06
-3.3164766e-08
1.1457224e-06
-3.0932839e-08
1.2490687e-06
-2.8963068e-08
1.3605776e-06
-2.7240644e-08
1.4811635e-06
-2.573724e-08
1.6116306e-06
-2.4409903e-08
1.7524522e-06
-2.3200159e-08
1.9034274e-06
-2.2034593e-08
2.0631749e-06
-2.0825845e-08
2.2284138e-06
-1.9477499e-08
2.3929788e-06
-1.7891344e-08
2.5465249e-06
-1.598062e-08
2.6728925e-06
-1.3687704e-08
2.7481386e-06
-1.1006909e-08
2.7382752e-06
-8.0093248e-09
2.5967685e-06
-4.8676305e-09
2.2617742e-06
-1.9091019e-09
1.6528439e-06
6.6661957e-07
-6.1067085e-10
1.7507663e-08
-2.6525439e-09
5.3006515e-08
-6.5065566e-09
9.2320761e-08
-1.2393854e-08
1.3219404e-07
-2.0209319e-08
1.6968815e-07
-2.9425161e-08
2.0312271e-07
-3.9163371e-08
2.3255825e-07
-4.8422803e-08
2.595403e-07
-5.6337256e-08
2.8634261e-07
-6.2344721e-08
3.1519594e-07
-6.6230317e-08
3.4781879e-07
-6.807344e-08
3.8528203e-07
-6.8150238e-08
4.2808924e-07
-6.6832306e-08
4.7634566e-07
-6.4505492e-08
5.2993361e-07
-6.1517528e-08
5.8865621e-07
-5.8152849e-08
6.523389e-07
-5.4628356e-08
7.2089282e-07
-5.1100868e-08
7.9435065e-07
-4.7679569e-08
8.7288549e-07
-4.4438465e-08
9.5682117e-07
-4.1425801e-08
1.0466373e-06
-3.8670631e-08
1.1429673e-06
-3.6186388e-08
1.2465844e-06
-3.3972026e-08
1.3583633e-06
-3.2012569e-08
1.479204e-06
-3.0277788e-08
1.6098959e-06
-2.8721795e-08
1.7508963e-06
-2.7282152e-08
1.9019877e-06
-2.5879745e-08
2.0617725e-06
-2.4420947e-08
2.226955e-06
-2.2801649e-08
2.3913596e-06
-2.0915851e-08
2.5446391e-06
-1.8668267e-08
2.670645e-06
-1.5993435e-08
2.7454638e-06
-1.2878808e-08
2.7351605e-06
-9.3905022e-09
2.5932803e-06
-5.7054036e-09
2.2580889e-06
-2.2030659e-09
1.6493418e-06
6.6441652e-07
-5.6452694e-10
1.807219e-08
-2.464398e-09
5.4906388e-08
-6.0835821e-09
9.5939944e-08
-1.1689187e-08
1.3779965e-07
-1.9276595e-08
1.7727556e-07
-2.8451959e-08
2.1229807e-07
-3.8451267e-08
2.4255756e-07
-4.831506e-08
2.6940409e-07
-5.712921e-08
2.9515677e-07
-6.4216202e-08
3.2228294e-07
-6.9219348e-08
3.5282193e-07
-7.2089107e-08
3.8815179e-07
-7.3010756e-08
4.2901089e-07
-7.2311817e-08
4.7564673e-07
-7.0376039e-08
5.2799782e-07
-6.7578273e-08
5.8585847e-07
-6.4245056e-08
6.4900566e-07
-6.0637603e-08
7.1728539e-07
-5.6951991e-08
7.9066504e-07
-5.3327976e-08
8.6926146e-07
-4.9861061e-08
9.5335429e-07
-4.6613814e-08
1.04339e-06
-4.3623759e-08
1.1399773e-06
-4.0909071e-08
1.2438697e-06
-3.8470947e-08
1.3559251e-06
-3.6294417e-08
1.4770274e-06
-3.4348066e-08
1.6079495e-06
-3.2583453e-08
1.7491317e-06
-3.0934272e-08
1.9003385e-06
-2.9316511e-08
2.0601548e-06
-2.7630472e-08
2.2252689e-06
-2.5765077e-08
2.3894943e-06
-2.3606827e-08
2.5424808e-06
-2.1052496e-08
2.6680907e-06
-1.802935e-08
2.7424406e-06
-1.4518136e-08
2.7316493e-06
-1.0581389e-08
2.5893435e-06
-6.4035742e-09
2.2539113e-06
-2.4291423e-09
1.6453673e-06
6.6198728e-07
-5.2615447e-10
1.8598345e-08
-2.3051634e-09
5.6685395e-08
-5.7167247e-09
9.9351507e-08
-1.1054951e-08
1.4313787e-07
-1.8387532e-08
1.8460814e-07
-2.743013e-08
2.2134067e-07
-3.7528451e-08
2.5265588e-07
-4.7786786e-08
2.7966243e-07
-5.7283069e-08
3.0465305e-07
-6.5265889e-08
3.3026576e-07
-7.1266002e-08
3.5882204e-07
-7.5115135e-08
3.9200092e-07
-7.6900007e-08
4.3079576e-07
-7.688479e-08
4.756315e-07
-7.5428403e-08
5.2654144e-07
-7.2913466e-08
5.8334353e-07
-6.9695426e-08
6.4578761e-07
-6.6074057e-08
7.1366401e-07
-6.228382e-08
7.8687481e-07
-5.8497263e-08
8.6547489e-07
-5.4834755e-08
9.496918e-07
-5.1376015e-08
1.0399312e-06
-4.8169624e-08
1.1367709e-06
-4.5240127e-08
1.2409402e-06
-4.2591797e-08
1.3532768e-06
-4.0210658e-08
1.4746463e-06
-3.8064562e-08
1.6058035e-06
-3.6102825e-08
1.74717e-06
-3.4255976e-08
1.8984915e-06
-3.2435289e-08
2.0583341e-06
-3.0535735e-08
2.2233694e-06
-2.8440006e-08
2.3873985e-06
-2.6027366e-08
2.5400682e-06
-2.3187867e-08
2.6652512e-06
-1.9841366e-08
2.7390942e-06
-1.5963299e-08
2.7277711e-06
-1.1613492e-08
2.5849938e-06
-6.9890038e-09
2.2492868e-06
-2.6048811e-09
1.6409831e-06
6.5938246e-07
-4.9367055e-10
1.9092016e-08
-2.1686967e-09
5.8360422e-08
-5.3970391e-09
1.0257985e-07
-1.0488241e-08
1.4822908e-07
-1.7562374e-08
1.9168228e-07
-2.6423479e-08
2.3020177e-07
-3.6516561e-08
2.6274896e-07
-4.7017976e-08
2.9016384e-07
-5.702268e-08
3.1465775e-07
-6.5737429e-08
3.3898051e-07
-7.2608605e-08
3.656932e-07
-7.7365797e-08
3.9675813e-07
-7.9999603e-08
4.3342955e-07
-8.070116e-08
4.7633307e-07
-7.9788068e-08
5.2562833e-07
-7.7632954e-08
5.8118843e-07
-7.4606215e-08
6.4276086e-07
-7.1037383e-08
7.1009518e-07
-6.7195959e-08
7.8303339e-07
-6.3287477e-08
8.6156641e-07
-5.9459411e-08
9.4586375e-07
-5.5811394e-08
1.0362832e-06
-5.2405402e-08
1.1333649e-06
-4.9274155e-08
1.2378089e-06
-4.6426435e-08
1.3504291e-06
-4.3849761e-08
1.4720697e-06
-4.1512041e-08
1.6034657e-06
-3.9360917e-08
1.7450188e-06
-3.732381e-08
1.8964544e-06
-3.5308178e-08
2.0563186e-06
-3.3204048e-08
2.2212653e-06
-3.0888298e-08
2.3850828e-06
-2.8234018e-08
2.5374138e-06
-2.5124522e-08
2.6621417e-06
-2.1473953e-08
2.7354435e-06
-1.7252078e-08
2.7235494e-06
-1.251854e-08
2.5802603e-06
-7.4864622e-09
2.2442546e-06
-2.7443811e-09
1.6362412e-06
6.5663809e-07
-4.6575351e-10
1.9557769e-08
-2.0503679e-09
5.9945037e-08
-5.1164654e-09
1.0564595e-07
-9.9817883e-09
1.530944e-07
-1.680471e-08
1.985052e-07
-2.5460471e-08
2.3885754e-07
-3.5481554e-08
2.7277004e-07
-4.6117278e-08
3.0079957e-07
-5.6494304e-08
3.2503477e-07
-6.5800733e-08
3.4828696e-07
-7.3422639e-08
3.733151e-07
-7.9005611e-08
4.0234112e-07
-8.2452256e-08
4.368762e-07
-8.387843e-08
4.7775923e-07
-8.3549944e-08
5.2529985e-07
-8.181546e-08
5.7945396e-07
-7.9046691e-08
6.3999207e-07
-7.5592845e-08
7.0664135e-07
-7.1752903e-08
7.7919345e-07
-6.776381e-08
8.5757731e-07
-6.3801063e-08
9.4190099e-07
-5.9986287e-08
1.0324684e-06
-5.6397142e-08
1.1297758e-06
-5.3076452e-08
1.2344882e-06
-5.003864e-08
1.3473913e-06
-4.7274236e-08
1.4693052e-06
-4.4751327e-08
1.6009428e-06
-4.2416408e-08
1.7426839e-06
-4.0194465e-08
1.8942324e-06
-3.7989558e-08
2.0541136e-06
-3.5687e-08
2.2189628e-06
-3.3158675e-08
2.3825544e-06
-3.0271747e-08
2.534527e-06
-2.6904024e-08
2.658774e-06
-2.2963649e-08
2.7315032e-06
-1.8416739e-08
2.7190024e-06
-1.3323343e-08
2.5751669e-06
-7.9165982e-09
2.2388476e-06
-2.8588299e-09
1.6311836e-06
6.5377933e-07
-4.4145562e-10
1.9999225e-08
-1.9466833e-09
6.1450265e-08
-4.868356e-09
1.0856762e-07
-9.527772e-09
1.5775381e-07
-1.6111543e-08
2.0508896e-07
-2.4552478e-08
2.4729848e-07
-3.4459203e-08
2.8267676e-07
-4.5151181e-08
3.1149155e-07
-5.5794729e-08
3.3567831e-07
-6.5575576e-08
3.5806781e-07
-7.3838696e-08
3.8157822e-07
-8.0162732e-08
4.0866514e-07
-8.4373024e-08
4.410865e-07
-8.6512738e-08
4.7989894e-07
-8.6790937e-08
5.2557804e-07
-8.5522089e-08
5.7818511e-07
-8.3067353e-08
6.3753736e-07
-7.9785498e-08
7.0335949e-07
-7.5997951e-08
7.754059e-07
-7.1969745e-08
8.5354914e-07
-6.7904093e-08
9.3783533e-07
-6.3945942e-08
1.0285102e-06
-6.0190493e-08
1.1260204e-06
-5.6692544e-08
1.2309903e-06
-5.3473861e-08
1.3441726e-06
-5.052856e-08
1.46636e-06
-4.7826048e-08
1.5982403e-06
-4.5312087e-08
1.74017e-06
-4.2909751e-08
1.89183e-06
-4.0519723e-08
2.0517237e-06
-3.8023541e-08
2.2164666e-06
-3.5288146e-08
2.379819e-06
-3.2175713e-08
2.5314146e-06
-2.855845e-08
2.6551568e-06
-2.4339947e-08
2.7272846e-06
-1.9482603e-08
2.7141451e-06
-1.4049404e-08
2.5697337e-06
-8.2951727e-09
2.2330936e-06
-2.9556538e-09
1.6258443e-06
6.5082345e-07
-4.2008303e-10
2.0419308e-08
-1.8549898e-09
6.2885171e-08
-4.647364e-09
1.1135999e-07
-9.1190367e-09
1.6222549e-07
-1.5477522e-08
2.1144745e-07
-2.3702481e-08
2.5552344e-07
-3.3468488e-08
2.9244277e-07
-4.4160652e-08
3.2218372e-07
-5.4988722e-08
3.4650639e-07
-6.5147091e-08
3.6822617e-07
-7.3954554e-08
3.9038569e-07
-8.0937607e-08
4.1564819e-07
-8.5855692e-08
4.4600458e-07
-8.8684738e-08
4.8272798e-07
-8.9575971e-08
5.2646928e-07
-8.880326e-08
5.774124e-07
-8.6707862e-08
6.3544197e-07
-8.3648371e-08
7.0029999e-07
-7.9961171e-08
7.717187e-07
-7.5934965e-08
8.4952292e-07
-7.1798843e-08
9.3369922e-07
-6.7721585e-08
1.024433e-06
-6.3817479e-08
1.1221162e-06
-6.0154862e-08
1.2273277e-06
-5.6764326e-08
1.3407821e-06
-5.3644944e-08
1.4632406e-06
-5.0767991e-08
1.5953634e-06
-4.8079311e-08
1.7374813e-06
-4.5500163e-08
1.8892509e-06
-4.2928686e-08
2.0491522e-06
-4.0242675e-08
2.2137805e-06
-3.7304639e-08
2.376881e-06
-3.3972179e-08
2.5280821e-06
-3.0112698e-08
2.6512972e-06
-2.5625059e-08
2.722797e-06
-2.0469444e-08
2.7089895e-06
-1.4712899e-08
2.563977e-06
-8.6345231e-09
2.2270155e-06
-3.0408123e-09
1.62025e-06
6.4778282e-07
-4.0110934e-10
2.0820417e-08
-1.7732359e-09
6.4257298e-08
-4.4491941e-09
1.1403595e-07
-8.7493547e-09
1.6652565e-07
-1.4896747e-08
2.1759484e-07
-2.2909359e-08
2.6353605e-07
-3.251891e-08
3.0205232e-07
-4.3170999e-08
3.3283581e-07
-5.4120001e-08
3.5745539e-07
-6.4576276e-08
3.7868245e-07
-7.3843831e-08
3.9965324e-07
-8.1409376e-08
4.2321374e-07
-8.6977177e-08
4.5157239e-07
-9.0462767e-08
4.8621356e-07
-9.1961286e-08
5.2796781e-07
-9.1702668e-08
5.7715377e-07
-9.0001339e-08
6.3374063e-07
-8.720736e-08
6.9750604e-07
-8.366469e-08
7.68176e-07
-7.9680186e-08
8.4553842e-07
-7.5506321e-08
9.2952534e-07
-7.133506e-08
1.0202617e-06
-6.7300651e-08
1.1180818e-06
-6.3486563e-08
1.2235135e-06
-5.9933573e-08
1.3372291e-06
-5.6646853e-08
1.4599538e-06
-5.3600556e-08
1.5923171e-06
-5.0741068e-08
1.7346218e-06
-4.7988516e-08
1.8864984e-06
-4.523873e-08
2.0464024e-06
-4.2365989e-08
2.2109078e-06
-3.922906e-08
2.3737441e-06
-3.5681132e-08
2.5245341e-06
-3.1584994e-08
2.6472011e-06
-2.6835992e-08
2.718048e-06
-2.1392271e-08
2.7035458e-06
-1.5326254e-08
2.5579109e-06
-8.9438947e-09
2.2206331e-06
-3.1166951e-09
1.6144228e-06
6.4466623e-07
-3.8413151e-10
2.1204549e-08
-1.6998238e-09
6.5572989e-08
-4.2703963e-09
1.1660652e-07
-8.4134523e-09
1.706687e-07
-1.4363509e-08
2.2354489e-07
-2.2170107e-08
2.7134265e-07
-3.1614528e-08
3.1149674e-07
-4.2197688e-08
3.4341897e-07
-5.3218207e-08
3.6847591e-07
-6.3907161e-08
3.8937141e-07
-7.3562225e-08
4.093083e-07
-8.1640479e-08
4.3129199e-07
-8.7800633e-08
4.5773255e-07
-9.1905017e-08
4.9031794e-07
-9.3996124e-08
5.3005892e-07
-9.4259028e-08
5.7741667e-07
-9.2976758e-08
6.3245836e-07
-9.0484162e-08
6.9501346e-07
-8.7125561e-08
7.6481738e-07
-8.3220491e-08
8.4163337e-07
-7.9041228e-08
9.2534607e-07
-7.480168e-08
1.0160222e-06
-7.0656174e-08
1.1139363e-06
-6.6704438e-08
1.2195618e-06
-6.2998691e-08
1.3335234e-06
-5.9551578e-08
1.4565067e-06
-5.634102e-08
1.5891065e-06
-5.3314596e-08
1.7315954e-06
-5.0391771e-08
1.8835755e-06
-4.7466406e-08
2.043477e-06
-4.440974e-08
2.2078512e-06
-4.1077049e-08
2.3704114e-06
-3.7317392e-08
2.5207744e-06
-3.2989515e-08
2.6428733e-06
-2.7985411e-08
2.7130438e-06
-2.2262172e-08
2.6978225e-06
-1.5898854e-08
2.5515477e-06
-9.2287457e-09
2.2139631e-06
-3.1863499e-09
1.60838e-06
6.4148005e-07
-3.6883463e-10
2.1573383e-08
-1.6334781e-09
6.6837634e-08
-4.1081757e-09
1.1908122e-07
-8.1068935e-09
1.7466742e-07
-1.3872583e-08
2.2931058e-07
-2.148092e-08
2.7895099e-07
-3.0756297e-08
3.2077211e-07
-4.1249981e-08
3.5391265e-07
-5.2303532e-08
3.7952946e-07
-6.3171701e-08
4.0023958e-07
-7.3152108e-08
4.1928871e-07
-8.1680359e-08
4.3982024e-07
-8.8377959e-08
4.6443015e-07
-9.3061037e-08
4.9500102e-07
-9.5723781e-08
5.3272164e-07
-9.6507236e-08
5.7820013e-07
-9.566039e-08
6.3161153e-07
-9.3497775e-08
6.9285084e-07
-9.0357891e-08
7.616775e-07
-8.656737e-08
8.3784285e-07
-8.2414226e-08
9.2119294e-07
-7.8132267e-08
1.0117402e-06
-7.389551e-08
1.1096996e-06
-6.9820567e-08
1.2154868e-06
-6.5972498e-08
1.3296754e-06
-6.2372087e-08
1.4529063e-06
-5.9002393e-08
1.5857368e-06
-5.5812786e-08
1.7284057e-06
-5.2722672e-08
1.8804854e-06
-4.9624186e-08
2.0403786e-06
-4.6386247e-08
2.2046132e-06
-4.2860489e-08
2.3668857e-06
-3.8892272e-08
2.5168062e-06
-3.4336837e-08
2.6383179e-06
-2.9082911e-08
2.7077899e-06
-2.3087491e-08
2.6918272e-06
-1.6437483e-08
2.5448977e-06
-9.4946124e-09
2.2070199e-06
-3.2506667e-09
1.6021365e-06
6.382291e-07
-3.5496609e-10
2.1928348e-08
-1.5731787e-09
6.8055848e-08
-3.960243e-09
1.2146828e-07
-7.8259412e-09
1.7853312e-07
-1.3419325e-08
2.3490397e-07
-2.0837811e-08
2.8636948e-07
-2.9943414e-08
3.2987771e-07
-4.0333157e-08
3.643024e-07
-5.1389725e-08
3.9058603e-07
-6.2393207e-08
4.1124306e-07
-7.264584e-08
4.2954134e-07
-8.1568263e-08
4.4874266e-07
-8.8751853e-08
4.7161374e-07
-9.3973038e-08
5.002222e-07
-9.7182315e-08
5.3593093e-07
-9.8478794e-08
5.794966e-07
-9.8076363e-08
6.3120911e-07
-9.6265545e-08
6.9104001e-07
-9.3373956e-08
7.5878591e-07
-8.9729939e-08
8.3419885e-07
-8.5633139e-08
9.1709612e-07
-8.1334476e-08
1.0074416e-06
-7.7026833e-08
1.105392e-06
-7.2843835e-08
1.2113038e-06
-6.8864115e-08
1.3256957e-06
-6.5118118e-08
1.4491603e-06
-6.1594494e-08
1.5822132e-06
-5.8245539e-08
1.7250567e-06
-5.4990955e-08
1.8772309e-06
-5.1721855e-08
2.0371095e-06
-4.8304738e-08
2.201196e-06
-4.4588301e-08
2.3631692e-06
-4.0414316e-08
2.5126323e-06
-3.5634771e-08
2.6335384e-06
-3.0135759e-08
2.7022909e-06
-2.3874837e-08
2.6855661e-06
-1.6947617e-08
2.5379706e-06
-9.7438093e-09
2.1998162e-06
-3.3117179e-09
1.5957041e-06
6.3491761e-07
-3.423239e-10
2.2270672e-08
-1.5180968e-09
6.923162e-08
-3.8247168e-09
1.237749e-07
-7.5674459e-09
1.8227585e-07
-1.2999634e-08
2.4033615e-07
-2.0236876e-08
2.9360672e-07
-2.9174109e-08
3.3881495e-07
-3.9449924e-08
3.7457821e-07
-5.0486068e-08
4.0162217e-07
-6.1588772e-08
4.2234576e-07
-7.2068298e-08
4.4002087e-07
-8.1335455e-08
4.5800982e-07
-8.8957491e-08
4.7923577e-07
-9.467691e-08
5.0594162e-07
-9.840524e-08
5.3965927e-07
-1.0020228e-07
5.8129365e-07
-1.0024708e-07
6.3125389e-07
-9.8803731e-08
6.8959667e-07
-9.6184923e-08
7.5616712e-07
-9.2716065e-08
8.3072998e-07
-8.8703969e-08
9.1308402e-07
-8.4413884e-08
1.0031515e-06
-8.0055872e-08
1.101034e-06
-7.5780475e-08
1.2070284e-06
-7.1680509e-08
1.3215957e-06
-6.7796818e-08
1.4452766e-06
-6.4124836e-08
1.5785412e-06
-6.0620307e-08
1.7215522e-06
-5.7204192e-08
1.8738148e-06
-5.3766708e-08
2.033672e-06
-5.0172478e-08
2.1976017e-06
-4.6267276e-08
2.3592641e-06
-4.189015e-08
2.5082551e-06
-3.6889556e-08
2.6285378e-06
-3.1149619e-08
2.696551e-06
-2.4628803e-08
2.6790453e-06
-1.7432805e-08
2.5307746e-06
-9.9797215e-09
2.1923631e-06
-3.3689944e-09
1.5890934e-06
6.3154868e-07
-3.3074462e-10
2.2601417e-08
-1.4675453e-09
7.0368422e-08
-3.7000382e-09
1.260074e-07
-7.3287493e-09
1.8590456e-07
-1.2609941e-08
2.4561734e-07
-1.967445e-08
3.0067123e-07
-2.8446136e-08
3.4758663e-07
-3.8601364e-08
3.8473344e-07
-4.9598761e-08
4.1261957e-07
-6.0770938e-08
4.3351794e-07
-7.1438647e-08
4.5068857e-07
-8.1006935e-08
4.6757811e-07
-8.902389e-08
4.8725272e-07
-9.5203213e-08
5.1212095e-07
-9.942194e-08
5.4387799e-07
-1.0170359e-07
5.835753e-07
-1.0219332e-07
6.317436e-07
-1.011277e-07
6.8853106e-07
-9.8801409e-08
7.5384083e-07
-9.5532703e-08
8.2746128e-07
-9.163168e-08
9.0918297e-07
-8.7374536e-08
9.9889433e-07
-8.298677e-08
1.0966462e-06
-7.8635048e-08
1.2026766e-06
-7.4426585e-08
1.3173872e-06
-7.0413579e-08
1.4412636e-06
-6.6598995e-08
1.5747266e-06
-6.2942961e-08
1.7178962e-06
-5.9368082e-08
1.8702399e-06
-5.576449e-08
2.0300684e-06
-5.1994892e-08
2.1938322e-06
-4.7903127e-08
2.3551722e-06
-4.3324749e-08
2.5036767e-06
-3.8105826e-08
2.6233189e-06
-3.2128732e-08
2.6905738e-06
-2.5353459e-08
2.67227e-06
-1.7896191e-08
2.5233174e-06
-1.0203732e-08
2.1846705e-06
-3.4233843e-09
1.5823134e-06
6.2812511e-07
-3.2009191e-10
2.2921508e-08
-1.4209643e-09
7.1469295e-08
-3.5848945e-09
1.2817132e-07
-7.1075909e-09
1.8942726e-07
-1.224712e-08
2.5075687e-07
-1.9147155e-08
3.0757126e-07
-2.7757034e-08
3.5619651e-07
-3.7787475e-08
3.9476388e-07
-4.8731854e-08
4.2356395e-07
-5.9948939e-08
4.4473503e-07
-7.0771696e-08
4.6151133e-07
-8.0602709e-08
4.7740913e-07
-8.8975019e-08
4.9562502e-07
-9.557795e-08
5.1872388e-07
-1.0025814e-07
5.4855818e-07
-1.0300601e-07
5.8632318e-07
-1.0393442e-07
6.32672e-07
-1.0325211e-07
6.8784875e-07
-1.0123353e-07
7.5182226e-07
-9.8186504e-08
8.2441423e-07
-9.4420493e-08
9.0541699e-07
-9.0219594e-08
9.9469344e-07
-8.5822377e-08
1.092249e-06
-8.1410611e-08
1.1982649e-06
-7.710605e-08
1.3130826e-06
-7.2972408e-08
1.43713e-06
-6.9021269e-08
1.5707755e-06
-6.5217907e-08
1.7140928e-06
-6.1487227e-08
1.8665092e-06
-5.7719526e-08
2.0263007e-06
-5.3776582e-08
2.1898892e-06
-4.9499697e-08
2.3508953e-06
-4.4722201e-08
2.4988993e-06
-3.9287508e-08
2.6178842e-06
-3.3076427e-08
2.6843628e-06
-2.6051547e-08
2.665245e-06
-1.8340173e-08
2.5156061e-06
-1.0417025e-08
2.1767474e-06
-3.4755029e-09
1.5753718e-06
6.2464962e-07
-3.1025147e-10
2.323176e-08
-1.3778775e-09
7.253692e-08
-3.4781811e-09
1.3027163e-07
-6.9020364e-09
1.9285111e-07
-1.1908449e-08
2.5576329e-07
-1.8651912e-08
3.1431473e-07
-2.71043e-08
3.646489e-07
-3.7007616e-08
4.046672e-07
-4.7887864e-08
4.344442e-07
-5.9129506e-08
4.5597667e-07
-7.0078976e-08
4.724608e-07
-8.0138922e-08
4.8746907e-07
-8.8830732e-08
5.0431683e-07
-9.5823202e-08
5.2571635e-07
-1.0093634e-07
5.5367131e-07
-1.0413055e-07
5.8951741e-07
-1.0548834e-07
6.3402978e-07
-1.0519089e-07
6.8755132e-07
-1.0349118e-07
7.5012253e-07
-1.0068379e-07
8.2160683e-07
-9.7074375e-08
9.0180759e-07
-9.2951584e-08
9.9057065e-07
-8.8564738e-08
1.0878621e-06
-8.4109387e-08
1.1938095e-06
-7.9721252e-08
1.3086945e-06
-7.5476255e-08
1.4328851e-06
-7.1395056e-08
1.5666942e-06
-6.7448597e-08
1.7101464e-06
-6.3565092e-08
1.8626257e-06
-5.9635525e-08
2.0223711e-06
-5.5520779e-08
2.1857746e-06
-5.1060562e-08
2.3464351e-06
-4.6085683e-08
2.4939244e-06
-4.0437289e-08
2.6122358e-06
-3.3995531e-08
2.677921e-06
-2.6725408e-08
2.657975e-06
-1.8766678e-08
2.5076472e-06
-1.0620955e-08
2.1686019e-06
-3.5251459e-09
1.5682758e-06
6.2112449e-07
-3.0113065e-10
2.3532891e-08
-1.3378836e-09
7.3573673e-08
-3.3789663e-09
1.3231271e-07
-6.7104302e-09
1.9618258e-07
-1.1591549e-08
2.6064441e-07
-1.8185956e-08
3.2090913e-07
-2.6485499e-08
3.7294844e-07
-3.6260731e-08
4.1444243e-07
-4.706825e-08
4.4525173e-07
-5.8317581e-08
4.67226e-07
-6.9369451e-08
4.8351267e-07
-7.9628565e-08
4.9772819e-07
-8.8607519e-08
5.1329578e-07
-9.595785e-08
5.3306667e-07
-1.0147621e-07
5.5918967e-07
-1.0509607e-07
5.9313726e-07
-1.068716e-07
6.3580532e-07
-1.0695735e-07
6.8763706e-07
-1.0558401e-07
7.4874916e-07
-1.0303093e-07
8.1905377e-07
-9.9597118e-08
8.9837377e-07
-9.5572751e-08
9.8654629e-07
-9.1215391e-08
1.0835047e-06
-8.6732783e-08
1.1893269e-06
-8.2274014e-08
1.3042357e-06
-7.7927215e-08
1.4285383e-06
-7.3722552e-08
1.5624895e-06
-6.9637722e-08
1.7060615e-06
-6.5604432e-08
1.8585924e-06
-6.1515186e-08
2.0182818e-06
-5.7230393e-08
2.1814898e-06
-5.2588232e-08
2.3417929e-06
-4.7417647e-08
2.4887537e-06
-4.155772e-08
2.606376e-06
-3.4888017e-08
2.6712513e-06
-2.7377133e-08
2.6504641e-06
-1.9176707e-08
2.4994469e-06
-1.0816686e-08
2.1602416e-06
-3.5723426e-09
1.5610318e-06
6.1755194e-07
-2.9264737e-10
2.3825538e-08
-1.3006466e-09
7.4581671e-08
-3.2864441e-09
1.3429851e-07
-6.5313412e-09
1.9942747e-07
-1.1294334e-08
2.654074e-07
-1.774678e-08
3.2736158e-07
-2.5898294e-08
3.8109996e-07
-3.5545502e-08
4.2408963e-07
-4.6273713e-08
4.5597994e-07
-5.7516731e-08
4.7846902e-07
-6.865009e-08
4.9464602e-07
-7.9082174e-08
5.0816026e-07
-8.8319097e-08
5.2253271e-07
-9.5997914e-08
5.4074549e-07
-1.0189497e-07
5.6508673e-07
-1.0591946e-07
5.9716175e-07
-1.080995e-07
6.3798536e-07
-1.0856402e-07
6.8810159e-07
-1.0752133e-07
7.4770648e-07
-1.0523421e-07
8.1676666e-07
-1.0199249e-07
8.9513204e-07
-9.8085167e-08
9.8263897e-07
-9.3775521e-08
1.0791951e-06
-8.9281764e-08
1.1848332e-06
-8.4765437e-08
1.2997194e-06
-8.032665e-08
1.4240995e-06
-7.6005607e-08
1.5581685e-06
-7.1787207e-08
1.7018431e-06
-6.7607467e-08
1.8544127e-06
-6.3360704e-08
2.0140351e-06
-5.8907572e-08
2.1770367e-06
-5.4085011e-08
2.3369703e-06
-4.8720052e-08
2.4833888e-06
-4.2650683e-08
2.6003064e-06
-3.575572e-08
2.6643564e-06
-2.8008033e-08
2.6427164e-06
-1.9572124e-08
2.491011e-06
-1.1003839e-08
2.1516734e-06
-3.6179004e-09
1.5536457e-06
6.1393417e-07
-2.8473532e-10
2.4110273e-08
-1.2658716e-09
7.5562809e-08
-3.199926e-09
1.3623257e-07
-6.3635299e-09
2.0259108e-07
-1.1014972e-08
2.7005884e-07
-1.733214e-08
3.3367875e-07
-2.5340494e-08
3.8910831e-07
-3.4860513e-08
4.3360965e-07
-4.5504435e-08
4.6662385e-07
-5.6729498e-08
4.8969409e-07
-6.7926348e-08
5.0584287e-07
-7.8508272e-08
5.1874219e-07
-8.7976888e-08
5.3200133e-07
-9.5957133e-08
5.4872574e-07
-1.0220761e-07
5.7133721e-07
-1.0661584e-07
6.0156998e-07
-1.0918598e-07
6.4055551e-07
-1.1002278e-07
6.8893838e-07
-1.0931236e-07
7.4699608e-07
-1.0729998e-07
8.1475426e-07
-1.0426433e-07
8.920964e-07
-1.0049087e-07
9.7886551e-07
-9.6246175e-08
1.0749504e-06
-9.1757045e-08
1.1803441e-06
-8.719621e-08
1.2951586e-06
-8.2675575e-08
1.4195789e-06
-7.8245534e-08
1.5537384e-06
-7.3898622e-08
1.6974962e-06
-6.9575762e-08
1.8500898e-06
-6.5173879e-08
2.0096332e-06
-6.0554118e-08
2.1724168e-06
-5.5552461e-08
2.3319687e-06
-4.9994836e-08
2.4778312e-06
-4.3717528e-08
2.5940292e-06
-3.6600174e-08
2.6572389e-06
-2.8619498e-08
2.6347358e-06
-1.9953425e-08
2.4823448e-06
-1.1183817e-08
2.1429038e-06
-3.6611242e-09
1.546123e-06
6.1027305e-07
-2.7733152e-10
2.4387605e-08
-1.233315e-09
7.651879e-08
-3.1188197e-09
1.3811807e-07
-6.2059151e-09
2.0567817e-07
-1.0751847e-08
2.7460477e-07
-1.6940022e-08
3.3986692e-07
-2.4810051e-08
3.9697834e-07
-3.4204291e-08
4.4300389e-07
-4.4760201e-08
4.7717977e-07
-5.5957652e-08
5.0089154e-07
-6.7202451e-08
5.1708767e-07
-7.7913819e-08
5.2945355e-07
-8.7590436e-08
5.4167795e-07
-9.5847222e-08
5.5698251e-07
-1.0242727e-07
5.7791726e-07
-1.0719872e-07
6.0634145e-07
-1.1014389e-07
6.4350068e-07
-1.1134474e-07
6.9013923e-07
-1.1096589e-07
7.4661723e-07
-1.0923446e-07
8.1302281e-07
-1.064166e-07
8.8927856e-07
-1.0279202e-07
9.7524093e-07
-9.8628333e-08
1.0707867e-06
-9.4158957e-08
1.1758747e-06
-8.9566666e-08
1.2905663e-06
-8.4974558e-08
1.4149867e-06
-8.0443067e-08
1.549207e-06
-7.5972945e-08
1.6930261e-06
-7.1510718e-08
1.8456276e-06
-6.6956082e-08
2.0050785e-06
-6.2171292e-08
2.167632e-06
-5.6992091e-08
2.3267895e-06
-5.1243149e-08
2.4720822e-06
-4.4759877e-08
2.5875459e-06
-3.7422406e-08
2.6499014e-06
-2.921267e-08
2.626526e-06
-2.0321396e-08
2.4734537e-06
-1.1356709e-08
2.133939e-06
-3.7025354e-09
1.5384687e-06
6.0657056e-07
-2.7038991e-10
2.4657995e-08
-1.202754e-09
7.7451154e-08
-3.0426052e-09
1.3995792e-07
-6.0575589e-09
2.0869313e-07
-1.0503537e-08
2.7905075e-07
-1.6568614e-08
3.45932e-07
-2.4305066e-08
4.0471479e-07
-3.357535e-08
4.5227418e-07
-4.4040589e-08
4.8764501e-07
-5.5202369e-08
5.1205332e-07
-6.6481706e-08
5.2836702e-07
-7.730447e-08
5.4027631e-07
-8.716778e-08
5.5154126e-07
-9.567819e-08
5.6549292e-07
-1.0256537e-07
5.8480444e-07
-1.0768016e-07
6.1145624e-07
-1.1098494e-07
6.4680544e-07
-1.125404e-07
6.9169471e-07
-1.1249045e-07
7.4656726e-07
-1.1104389e-07
8.1157626e-07
-1.0845331e-07
8.8668799e-07
-1.0499083e-07
9.7177843e-07
-1.00923e-07
1.0667189e-06
-9.648791e-08
1.1714396e-06
-9.1877069e-08
1.2859554e-06
-8.7223783e-08
1.4103334e-06