/*--------------------------------*- C++ -*----------------------------------*\
| =========                 |                                                 |
| \\      /  F ield         | OpenFOAM: The Open Source CFD Toolbox           |
|  \\    /   O peration     | Version:  3.0.1                                 |
|   \\  /    A nd           | Web:      www.OpenFOAM.org                      |
|    \\/     M anipulation  |                                                 |
\*---------------------------------------------------------------------------*/
FoamFile
{
    version     2.0;
    format      ascii;
    class       volScalarField;
    location    "2248";
    object      Qin;
}
// * * * * * * * * * * * * * * * * * * * * * * * * * * * * * * * * * * * * * //

dimensions      [1 0 -3 0 0 0 0];

internalField   uniform 0;

boundaryField
{
    LeftWedge
    {
        type            wedge;
    }
    RightWedge
    {
        type            wedge;
    }
    Inlet
    {
        type            calculated;
        value           uniform 0;
    }
    Outlet
    {
        type            calculated;
        value           nonuniform List<scalar> 
40
(
1.5481113e-29
1.5481113e-29
1.5481113e-29
1.5481113e-29
1.5481113e-29
1.5481113e-29
1.5481113e-29
1.5481113e-29
1.5481113e-29
1.5481113e-29
1.5481113e-29
1.5481113e-29
1.5481113e-29
1.5481113e-29
1.5481113e-29
1.5481113e-29
1.5481113e-29
1.5481113e-29
1.5481113e-29
1.5481113e-29
1.5481113e-29
1.5481113e-29
1.5481113e-29
1.5481113e-29
1.5481113e-29
1.5481113e-29
1.5481113e-29
1.5481113e-29
1.5481113e-29
1.5481113e-29
1.5481113e-29
1.5481113e-29
1.5481113e-29
1.5481113e-29
1.5481113e-29
1.5481113e-29
1.5481113e-29
1.5481113e-29
1.5481113e-29
1.5481113e-29
)
;
    }
    Outterwall
    {
        type            calculated;
        value           nonuniform List<scalar> 
100
(
990.49556
1147.5955
1224.7298
1273.6921
1308.9304
1336.1309
1358.108
1376.4406
1392.0992
1405.7196
1417.74
1428.4738
1438.153
1446.9531
1455.0104
1462.4326
1469.3061
1475.701
1481.6754
1487.2775
1492.5479
1497.5212
1502.2268
1506.6902
1510.9335
1514.9758
1518.8341
1522.5233
1526.0566
1529.4458
1532.7013
1535.8327
1538.8484
1541.756
1544.5626
1547.2744
1549.8972
1552.4363
1554.8965
1557.2822
1559.5974
1561.8461
1564.0316
1566.1571
1568.2256
1570.2399
1572.2026
1574.1161
1575.9826
1577.8042
1579.5829
1581.3205
1583.0188
1584.6793
1586.3036
1587.8932
1589.4494
1590.9734
1592.4666
1593.9299
1595.3646
1596.7717
1598.1521
1599.5067
1600.8365
1602.1422
1603.4247
1604.6847
1605.923
1607.1402
1608.337
1609.514
1610.6718
1611.8111
1612.9323
1614.0359
1615.1226
1616.1927
1617.2467
1618.2851
1619.3083
1620.3167
1621.3108
1622.2908
1623.2571
1624.2102
1625.1503
1626.0778
1626.9929
1627.8962
1628.7878
1629.6685
1630.5397
1631.4051
1632.2791
1633.2018
1634.3189
1635.8037
1638.8726
1642.6356
)
;
    }
    Innerwall
    {
        type            calculated;
        value           nonuniform List<scalar> 
100
(
421.91927
421.91842
421.91757
421.91672
421.91588
421.91504
421.91419
421.91335
421.91251
421.91167
421.91083
421.90999
421.90915
421.90831
421.90747
421.90663
421.90579
421.90495
421.90411
421.90327
421.90243
421.90159
421.90075
421.89992
421.89908
421.89824
421.8974
421.89656
421.89572
421.89488
421.89404
421.8932
421.89237
421.89153
421.89069
421.88985
421.88901
421.88817
421.88734
421.8865
421.88566
421.88482
421.88398
421.88315
421.88231
421.88147
421.88064
421.8798
421.87897
421.87813
421.8773
421.87647
421.87564
421.87481
421.87398
421.87315
421.87232
421.8715
421.87067
421.86985
421.86904
421.86822
421.86741
421.8666
421.86579
421.86499
421.86419
421.8634
421.86261
421.86183
421.86105
421.86028
421.85951
421.85875
421.858
421.85726
421.85653
421.8558
421.85508
421.85438
421.85368
421.853
421.85232
421.85166
421.85101
421.85038
421.84976
421.84915
421.84856
421.84799
421.84744
421.8469
421.84638
421.84588
421.8454
421.84494
421.84451
421.8441
421.84372
421.84341
)
;
    }
}


// ************************************************************************* //
