/*--------------------------------*- C++ -*----------------------------------*\
| =========                 |                                                 |
| \\      /  F ield         | OpenFOAM: The Open Source CFD Toolbox           |
|  \\    /   O peration     | Version:  3.0.1                                 |
|   \\  /    A nd           | Web:      www.OpenFOAM.org                      |
|    \\/     M anipulation  |                                                 |
\*---------------------------------------------------------------------------*/
FoamFile
{
    version     2.0;
    format      ascii;
    class       volScalarField;
    location    "2248";
    object      Qr;
}
// * * * * * * * * * * * * * * * * * * * * * * * * * * * * * * * * * * * * * //

dimensions      [1 0 -3 0 0 0 0];

internalField   uniform 0;

boundaryField
{
    LeftWedge
    {
        type            wedge;
    }
    RightWedge
    {
        type            wedge;
    }
    Inlet
    {
        type            calculated;
        value           uniform -6.3277868e-30;
    }
    Outlet
    {
        type            calculated;
        value           nonuniform List<scalar> 
40
(
1.5481113e-29
1.5481113e-29
1.5481113e-29
1.5481113e-29
1.5481113e-29
1.5481113e-29
1.5481113e-29
1.5481113e-29
1.5481113e-29
1.5481113e-29
1.5481113e-29
1.5481113e-29
1.5481113e-29
1.5481113e-29
1.5481113e-29
1.5481113e-29
1.5481113e-29
1.5481113e-29
1.5481113e-29
1.5481113e-29
1.5481113e-29
1.5481113e-29
1.5481113e-29
1.5481113e-29
1.5481113e-29
1.5481113e-29
1.5481113e-29
1.5481113e-29
1.5481113e-29
1.5481113e-29
1.5481113e-29
1.5481113e-29
1.5481113e-29
1.5481113e-29
1.5481113e-29
1.5481113e-29
1.5481113e-29
1.5481113e-29
1.5481113e-29
1.5481113e-29
)
;
    }
    Outterwall
    {
        type            calculated;
        value           nonuniform List<scalar> 
100
(
568.57629
725.67706
802.81221
851.77536
887.01454
914.21586
936.19379
954.52729
970.18667
983.80794
995.82913
1006.5638
1016.2438
1025.0448
1033.103
1040.526
1047.4003
1053.796
1059.7712
1065.3742
1070.6455
1075.6196
1080.3261
1084.7903
1089.0344
1093.0776
1096.9367
1100.6268
1104.1609
1107.5509
1110.8073
1113.9395
1116.956
1119.8645
1122.6719
1125.3845
1128.0082
1130.5481
1133.0091
1135.3957
1137.7118
1139.9613
1142.1476
1144.2739
1146.3433
1148.3585
1150.322
1152.2363
1154.1036
1155.9261
1157.7056
1159.444
1161.1431
1162.8045
1164.4296
1166.02
1167.577
1169.1019
1170.5959
1172.0601
1173.4956
1174.9035
1176.2847
1177.6401
1178.9707
1180.2772
1181.5605
1182.8213
1184.0604
1185.2783
1186.4759
1187.6537
1188.8123
1189.9523
1191.0743
1192.1787
1193.266
1194.3369
1195.3916
1196.4307
1197.4546
1198.4637
1199.4584
1200.4391
1201.4061
1202.3598
1203.3005
1204.2286
1205.1444
1206.0482
1206.9404
1207.8216
1208.6933
1209.5593
1210.4337
1211.3568
1212.4744
1213.9596
1217.0289
1220.7922
)
;
    }
    Innerwall
    {
        type            calculated;
        value           nonuniform List<scalar> 
100
(
-568.57629
-725.67706
-802.81221
-851.77536
-887.01454
-914.21586
-936.19379
-954.52729
-970.18667
-983.80794
-995.82913
-1006.5638
-1016.2438
-1025.0448
-1033.103
-1040.526
-1047.4003
-1053.796
-1059.7712
-1065.3742
-1070.6455
-1075.6196
-1080.3261
-1084.7903
-1089.0344
-1093.0776
-1096.9367
-1100.6268
-1104.1609
-1107.5509
-1110.8073
-1113.9395
-1116.956
-1119.8645
-1122.6719
-1125.3845
-1128.0082
-1130.5481
-1133.0091
-1135.3957
-1137.7118
-1139.9613
-1142.1476
-1144.2739
-1146.3433
-1148.3585
-1150.322
-1152.2363
-1154.1036
-1155.9261
-1157.7056
-1159.444
-1161.1431
-1162.8045
-1164.4296
-1166.02
-1167.577
-1169.1019
-1170.5959
-1172.0601
-1173.4956
-1174.9035
-1176.2847
-1177.6401
-1178.9707
-1180.2772
-1181.5605
-1182.8213
-1184.0604
-1185.2783
-1186.4759
-1187.6537
-1188.8123
-1189.9523
-1191.0743
-1192.1787
-1193.266
-1194.3369
-1195.3916
-1196.4307
-1197.4546
-1198.4637
-1199.4584
-1200.4391
-1201.4061
-1202.3598
-1203.3005
-1204.2286
-1205.1444
-1206.0482
-1206.9404
-1207.8216
-1208.6933
-1209.5593
-1210.4337
-1211.3568
-1212.4744
-1213.9596
-1217.0289
-1220.7922
)
;
    }
}


// ************************************************************************* //
