/*--------------------------------*- C++ -*----------------------------------*\
| =========                 |                                                 |
| \\      /  F ield         | OpenFOAM: The Open Source CFD Toolbox           |
|  \\    /   O peration     | Version:  3.0.1                                 |
|   \\  /    A nd           | Web:      www.OpenFOAM.org                      |
|    \\/     M anipulation  |                                                 |
\*---------------------------------------------------------------------------*/
FoamFile
{
    version     2.0;
    format      ascii;
    class       volScalarField;
    location    "2248";
    object      rho;
}
// * * * * * * * * * * * * * * * * * * * * * * * * * * * * * * * * * * * * * //

dimensions      [1 -3 0 0 0 0 0];

internalField   nonuniform List<scalar> 
4000
(
1.0058483
1.0741969
1.1262247
1.1604477
1.1806121
1.1915363
1.1970759
1.1997355
1.2009528
1.2014861
1.2017101
1.2018005
1.2018355
1.2018485
1.2018532
1.2018548
1.2018553
1.2018555
1.2018555
1.2018555
1.2018555
1.2018555
1.2018555
1.2018555
1.2018555
1.2018555
1.2018555
1.2018555
1.2018555
1.2018555
1.2018555
1.2018555
1.2018555
1.2018555
1.2018555
1.2018555
1.2018555
1.2018555
1.2018555
1.2018555
0.96231347
1.022741
1.0784559
1.123745
1.156174
1.1769315
1.1890451
1.1956058
1.1989468
1.2005601
1.2013024
1.2016286
1.2017657
1.2018208
1.2018421
1.2018499
1.2018527
1.2018536
1.2018539
1.201854
1.201854
1.201854
1.201854
1.201854
1.201854
1.201854
1.201854
1.201854
1.201854
1.201854
1.201854
1.201854
1.201854
1.201854
1.201854
1.201854
1.201854
1.201854
1.201854
1.201854
0.94374539
0.99833809
1.051201
1.0980786
1.1354677
1.1622611
1.179689
1.1901261
1.195957
1.199026
1.2005576
1.201285
1.2016145
1.201757
1.2018158
1.201839
1.2018478
1.2018509
1.201852
1.2018524
1.2018525
1.2018525
1.2018525
1.2018525
1.2018525
1.2018525
1.2018525
1.2018525
1.2018525
1.2018525
1.2018525
1.2018525
1.2018525
1.2018525
1.2018525
1.2018525
1.2018525
1.2018525
1.2018525
1.2018525
0.93274505
0.98364443
1.0337605
1.0800071
1.1191569
1.1492962
1.1704547
1.184128
1.1923525
1.197001
1.1994865
1.2007492
1.2013601
1.2016419
1.2017658
1.2018179
1.2018387
1.2018466
1.2018495
1.2018505
1.2018509
1.201851
1.201851
1.201851
1.201851
1.201851
1.201851
1.201851
1.201851
1.201851
1.201851
1.201851
1.201851
1.201851
1.201851
1.201851
1.201851
1.201851
1.201851
1.201851
0.92516833
0.97348819
1.0214154
1.0665963
1.1062365
1.1382238
1.1619222
1.1781329
1.1884619
1.1946453
1.1981465
1.2000297
1.2009942
1.2014651
1.2016844
1.2017817
1.201823
1.2018396
1.201846
1.2018483
1.2018491
1.2018494
1.2018495
1.2018495
1.2018495
1.2018495
1.2018495
1.2018495
1.2018495
1.2018495
1.2018495
1.2018495
1.2018495
1.2018495
1.2018495
1.2018495
1.2018495
1.2018495
1.2018495
1.2018495
0.91950154
0.96588583
1.0120662
1.0561684
1.0957765
1.1287965
1.1542372
1.1724052
1.1845146
1.1921063
1.1966117
1.1991539
1.2005212
1.2012227
1.2015662
1.2017267
1.2017981
1.2018284
1.2018407
1.2018454
1.2018471
1.2018477
1.2018479
1.201848
1.201848
1.201848
1.201848
1.201848
1.201848
1.201848
1.201848
1.201848
1.201848
1.201848
1.201848
1.201848
1.201848
1.201848
1.201848
1.201848
0.91503279
0.95989105
1.004645
1.047754
1.0871078
1.1207038
1.1473639
1.1670485
1.1806458
1.1894938
1.1949515
1.1981569
1.1999538
1.2009163
1.2014089
1.2016497
1.2017619
1.2018118
1.2018329
1.2018415
1.2018447
1.2018459
1.2018463
1.2018465
1.2018465
1.2018465
1.2018465
1.2018465
1.2018465
1.2018465
1.2018465
1.2018465
1.2018465
1.2018465
1.2018465
1.2018465
1.2018465
1.2018465
1.2018465
1.2018465
0.91137719
0.95498895
0.99855121
1.0407676
1.0797735
1.1136784
1.1412098
1.1620844
1.1769255
1.1868817
1.1932221
1.1970727
1.1993087
1.2005516
1.2012128
1.2015492
1.2017127
1.2017885
1.201822
1.2018361
1.2018417
1.2018439
1.2018446
1.2018449
1.201845
1.201845
1.201845
1.201845
1.201845
1.201845
1.201845
1.201845
1.201845
1.201845
1.201845
1.201845
1.201845
1.201845
1.201845
1.201845
0.90830505
0.95087131
0.99341831
1.0348359
1.0734589
1.1075101
1.1356752
1.157497
1.1733845
1.1843155
1.1914649
1.1959309
1.198603
1.2001364
1.2009801
1.2014249
1.2016492
1.2017573
1.201807
1.2018288
1.2018379
1.2018415
1.2018428
1.2018433
1.2018435
1.2018435
1.2018435
1.2018435
1.2018435
1.2018435
1.2018435
1.2018435
1.2018435
1.2018435
1.2018435
1.2018435
1.2018435
1.2018435
1.2018435
1.2018435
0.90566937
0.94734056
0.98900837
1.029709
1.067942
1.1020375
1.1306697
1.1532559
1.170031
1.1818216
1.189709
1.1947551
1.1978525
1.1996792
1.2007145
1.2012776
1.2015712
1.2017177
1.2017875
1.2018192
1.2018329
1.2018386
1.2018408
1.2018416
1.2018419
1.201842
1.201842
1.201842
1.201842
1.201842
1.201842
1.201842
1.201842
1.201842
1.201842
1.201842
1.201842
1.201842
1.201842
1.201842
0.90337092
0.94426322
0.98515926
1.0252133
1.0630627
1.0971366
1.1261161
1.149327
1.1668618
1.1794134
1.1879735
1.1935633
1.1970706
1.1991886
1.2004201
1.2011088
1.2014787
1.2016691
1.2017628
1.2018069
1.2018267
1.2018351
1.2018385
1.2018398
1.2018403
1.2018405
1.2018405
1.2018405
1.2018405
1.2018405
1.2018405
1.2018405
1.2018405
1.2018405
1.2018405
1.2018405
1.2018405
1.2018405
1.2018405
1.2018405
0.90133986
0.94154534
0.98175613
1.0212237
1.0587022
1.0927115
1.1219501
1.1456772
1.1638678
1.1770965
1.1862708
1.1923689
1.1962684
1.1986722
1.2001015
1.2009206
1.2013723
1.2016114
1.2017328
1.2017916
1.2018188
1.2018308
1.2018359
1.2018379
1.2018386
1.2018389
1.201839
1.201839
1.201839
1.201839
1.201839
1.201839
1.201839
1.201839
1.201839
1.201839
1.201839
1.201839
1.201839
1.201839
0.89952538
0.93911849
0.97871494
1.0176475
1.0547708
1.0886871
1.1181188
1.1422764
1.1610373
1.1748719
1.1846084
1.1911813
1.1954546
1.1981367
1.199763
1.2007152
1.2012528
1.2015448
1.201697
1.201773
1.2018092
1.2018257
1.2018328
1.2018358
1.2018369
1.2018373
1.2018375
1.2018375
1.2018375
1.2018375
1.2018375
1.2018375
1.2018375
1.2018375
1.2018375
1.2018375
1.2018375
1.2018375
1.2018375
1.2018375
0.89788941
0.93693148
0.97597257
1.0144146
1.0511992
1.0850036
1.1145779
1.1390976
1.1583583
1.1727377
1.1829903
1.1900072
1.1946362
1.1975876
1.1994084
1.200495
1.2011214
1.2014696
1.2016556
1.2017509
1.2017977
1.2018195
1.2018293
1.2018334
1.2018351
1.2018357
1.2018359
1.201836
1.201836
1.201836
1.201836
1.201836
1.201836
1.201836
1.201836
1.201836
1.201836
1.201836
1.201836
1.201836
0.89640282
0.93494508
0.97348054
1.0114705
1.0479329
1.0816131
1.1112912
1.1361172
1.1558186
1.1706905
1.1814185
1.188851
1.1938181
1.1970295
1.1990413
1.2002623
1.2009794
1.2013862
1.2016086
1.2017253
1.201784
1.2018122
1.2018251
1.2018308
1.2018331
1.201834
1.2018344
1.2018345
1.2018345
1.2018345
1.2018345
1.2018345
1.2018345
1.2018345
1.2018345
1.2018345
1.2018345
1.2018345
1.2018345
1.2018345
0.89504284
0.93312865
0.97120087
1.0087724
1.0449284
1.0784768
1.108228
1.1333149
1.153407
1.168726
1.1798933
1.1877157
1.1930042
1.1964663
1.1986646
1.200019
1.200828
1.2012954
1.2015561
1.201696
1.2017681
1.2018036
1.2018203
1.2018278
1.201831
1.2018323
1.2018328
1.201833
1.201833
1.201833
1.201833
1.201833
1.201833
1.201833
1.201833
1.201833
1.201833
1.201833
1.201833
1.201833
0.89379136
0.93145784
0.96910333
1.006286
1.0421507
1.0755626
1.1053627
1.1306728
1.1511131
1.1668397
1.1784143
1.1866032
1.1921975
1.1959008
1.198281
1.1997673
1.2006683
1.2011978
1.2014985
1.2016632
1.2017499
1.2017937
1.2018148
1.2018245
1.2018287
1.2018305
1.2018312
1.2018314
1.2018315
1.2018315
1.2018315
1.2018315
1.2018315
1.2018315
1.2018315
1.2018315
1.2018315
1.2018315
1.2018315
1.2018315
0.89263379
0.929913
0.96716347
1.0039833
1.0395709
1.0728439
1.1026737
1.1281753
1.1489275
1.1650271
1.1769804
1.1855143
1.1913999
1.1953354
1.1978926
1.1995087
1.2005017
1.201094
1.2014361
1.201627
1.2017295
1.2017824
1.2018084
1.2018207
1.2018262
1.2018285
1.2018295
1.2018299
1.20183
1.20183
1.20183
1.20183
1.20183
1.20183
1.20183
1.20183
1.20183
1.20183
1.20183
1.20183
0.89155816
0.92847809
0.9653613
1.0018414
1.0371652
1.0702984
1.1001423
1.1258089
1.1468414
1.1632837
1.17559
1.1844495
1.1906129
1.1947719
1.1975011
1.1992447
1.2003291
1.2009847
1.2013692
1.2015874
1.2017068
1.2017696
1.2018012
1.2018165
1.2018235
1.2018265
1.2018278
1.2018283
1.2018285
1.2018285
1.2018285
1.2018285
1.2018285
1.2018285
1.2018285
1.2018285
1.2018285
1.2018285
1.2018285
1.2018285
0.89055463
0.92713984
0.96368027
0.99984142
1.0349137
1.0679074
1.0977528
1.1235617
1.1448473
1.1616052
1.1742415
1.1834089
1.1898374
1.1942117
1.197108
1.1989766
1.2001515
1.2008706
1.2012983
1.2015447
1.2016819
1.2017554
1.2017932
1.2018117
1.2018205
1.2018244
1.201826
1.2018267
1.2018269
1.201827
1.201827
1.201827
1.201827
1.201827
1.201827
1.201827
1.201827
1.201827
1.201827
1.201827
0.88961493
0.92588714
0.96210655
0.99796731
1.0327995
1.0656548
1.0954914
1.1214234
1.142938
1.1599876
1.1729331
1.1823922
1.1890742
1.193656
1.1967146
1.1987055
1.1999698
1.2007524
1.2012236
1.201499
1.2016548
1.2017397
1.2017842
1.2018065
1.2018172
1.201822
1.2018242
1.201825
1.2018254
1.2018255
1.2018255
1.2018255
1.2018255
1.2018255
1.2018255
1.2018255
1.2018255
1.2018255
1.2018255
1.2018255
0.88873211
0.92471066
0.96062845
0.99620558
1.0308084
1.0635269
1.0933463
1.1193847
1.1411072
1.1584272
1.171663
1.1813989
1.1883236
1.1931055
1.1963217
1.1984324
1.1997849
1.2006305
1.2011457
1.2014506
1.2016256
1.2017225
1.2017742
1.2018006
1.2018136
1.2018196
1.2018222
1.2018234
1.2018238
1.201824
1.201824
1.201824
1.201824
1.201824
1.201824
1.201824
1.201824
1.201824
1.201824
1.201824
0.88790026
0.92360245
0.95923603
0.99454471
1.0289281
1.0615117
1.0913071
1.1174375
1.1393494
1.1569204
1.1704295
1.1804285
1.1875857
1.1925608
1.1959301
1.1981579
1.1995973
1.2005056
1.2010647
1.2013997
1.2015945
1.201704
1.2017633
1.2017942
1.2018096
1.2018169
1.2018202
1.2018216
1.2018222
1.2018224
1.2018225
1.2018225
1.2018225
1.2018225
1.2018225
1.2018225
1.2018225
1.2018225
1.2018225
1.2018225
0.8871143
0.9225557
0.95792077
0.99297479
1.0271479
1.059599
1.0893647
1.1155747
1.1376593
1.155464
1.1692308
1.1794802
1.1868606
1.1920223
1.1955406
1.1978829
1.1994076
1.2003781
1.2009812
1.2013465
1.2015615
1.2016841
1.2017515
1.2017872
1.2018053
1.2018141
1.2018181
1.2018199
1.2018206
1.2018209
1.201821
1.201821
1.201821
1.201821
1.201821
1.201821
1.201821
1.201821
1.201821
1.201821
0.88636985
0.92156453
0.95667532
0.99148728
1.0254588
1.0577798
1.0875112
1.1137897
1.1360324
1.1540551
1.1680653
1.1785534
1.1861482
1.1914905
1.1951535
1.1976077
1.1992165
1.2002484
1.2008954
1.2012912
1.2015268
1.2016628
1.2017388
1.2017796
1.2018006
1.201811
1.2018159
1.201818
1.201819
1.2018193
1.2018195
1.2018195
1.2018195
1.2018195
1.2018195
1.2018195
1.2018195
1.2018195
1.2018195
1.2018195
0.88566313
0.92062385
0.9554933
0.99007471
1.0238526
1.0560461
1.0857393
1.1120769
1.1344644
1.1526909
1.1669313
1.1776474
1.1854484
1.1909653
1.1947692
1.1973329
1.1990242
1.2001169
1.2008075
1.201234
1.2014905
1.2016404
1.2017251
1.2017714
1.2017956
1.2018077
1.2018135
1.2018162
1.2018173
1.2018178
1.2018179
1.201818
1.201818
1.201818
1.201818
1.201818
1.201818
1.201818
1.201818
1.201818
0.88499081
0.91972921
0.95436912
0.98873057
1.0223224
1.054391
1.0840428
1.1104311
1.1329516
1.1513689
1.1658274
1.1767615
1.184761
1.190447
1.194388
1.1970588
1.1988313
1.199984
1.200718
1.2011751
1.2014527
1.2016167
1.2017106
1.2017625
1.2017901
1.2018042
1.201811
1.2018142
1.2018156
1.2018162
1.2018164
1.2018165
1.2018165
1.2018165
1.2018165
1.2018165
1.2018165
1.2018165
1.2018165
1.2018165
0.88434997
0.91887669
0.95329789
0.98744912
1.0208618
1.0528083
1.0824161
1.1088476
1.1314903
1.1500866
1.1647521
1.1758948
1.1840856
1.1899356
1.1940102
1.1967857
1.198638
1.1998499
1.200627
1.2011147
1.2014135
1.2015919
1.2016952
1.2017531
1.2017843
1.2018004
1.2018084
1.2018122
1.2018139
1.2018146
1.2018149
1.201815
1.201815
1.201815
1.201815
1.201815
1.201815
1.201815
1.201815
1.201815
0.88373806
0.91806285
0.95227528
0.9862253
1.0194655
1.0512923
1.0808542
1.1073222
1.1300775
1.148842
1.1637041
1.1750467
1.1834221
1.1894312
1.193636
1.196514
1.1984446
1.1997149
1.2005347
1.2010529
1.2013732
1.2015661
1.201679
1.2017431
1.2017781
1.2017964
1.2018057
1.2018101
1.2018121
1.201813
1.2018133
1.2018135
1.2018135
1.2018135
1.2018135
1.2018135
1.2018135
1.2018135
1.2018135
1.2018135
0.88315279
0.91728464
0.95129745
0.9850546
1.0181284
1.0498383
1.0793524
1.1058512
1.1287103
1.1476329
1.1626822
1.1742165
1.1827701
1.1889336
1.1932653
1.1962437
1.1982513
1.1995793
1.2004414
1.20099
1.2013316
1.2015393
1.2016621
1.2017325
1.2017714
1.2017922
1.2018028
1.2018079
1.2018103
1.2018113
1.2018118
1.2018119
1.201812
1.201812
1.201812
1.201812
1.201812
1.201812
1.201812
1.201812
0.88259212
0.91653932
0.95036098
0.98393302
1.0168463
1.0484418
1.0779067
1.104431
1.127386
1.1464576
1.1616852
1.1734035
1.1821294
1.1884428
1.1928984
1.1959752
1.1980584
1.1994433
1.2003472
1.2009261
1.2012891
1.2015116
1.2016444
1.2017213
1.2017644
1.2017877
1.2017997
1.2018056
1.2018084
1.2018097
1.2018102
1.2018104
1.2018105
1.2018105
1.2018105
1.2018105
1.2018105
1.2018105
1.2018105
1.2018105
0.88205426
0.91582448
0.94946284
0.98285696
1.0156151
1.0470988
1.0765135
1.1030586
1.1261022
1.1453143
1.1607118
1.1726071
1.1814995
1.1879587
1.1925353
1.1957084
1.197866
1.199307
1.2002523
1.2008612
1.2012457
1.2014831
1.201626
1.2017097
1.201757
1.2017829
1.2017965
1.2018033
1.2018065
1.201808
1.2018086
1.2018089
1.201809
1.201809
1.201809
1.201809
1.201809
1.201809
1.201809
1.201809
0.88153757
0.91513794
0.94860028
0.98182321
1.0144314
1.0458058
1.0751693
1.1017311
1.1248566
1.1442014
1.1597612
1.1718267
1.1808802
1.1874813
1.192176
1.1954434
1.1976743
1.1991705
1.2001569
1.2007956
1.2012014
1.2014538
1.201607
1.2016975
1.2017493
1.2017779
1.2017931
1.2018008
1.2018045
1.2018063
1.201807
1.2018073
1.2018075
1.2018075
1.2018075
1.2018075
1.2018075
1.2018075
1.2018075
1.2018075
0.88104058
0.91447772
0.94777084
0.98082885
1.0132919
1.0445593
1.0738711
1.1004459
1.1236471
1.1431174
1.1588322
1.1710616
1.1802713
1.1870103
1.1918204
1.1951805
1.1974833
1.1990341
1.200061
1.2007293
1.2011564
1.2014238
1.2015874
1.2016848
1.2017411
1.2017726
1.2017895
1.2017982
1.2018025
1.2018045
1.2018054
1.2018058
1.201806
1.201806
1.201806
1.201806
1.201806
1.201806
1.201806
1.201806
0.88056198
0.91384206
0.94697228
0.97987127
1.0121937
1.0433566
1.0726161
1.0992005
1.1224719
1.1420609
1.157924
1.1703113
1.1796722
1.1865457
1.1914687
1.1949196
1.1972932
1.1988978
1.1999648
1.2006625
1.2011108
1.2013932
1.2015672
1.2016717
1.2017326
1.201767
1.2017858
1.2017955
1.2018004
1.2018027
1.2018038
1.2018042
1.2018044
1.2018045
1.2018045
1.2018045
1.2018045
1.2018045
1.2018045
1.2018045
0.88010057
0.91322935
0.9462026
0.97894807
1.0111342
1.0421949
1.0714018
1.0979927
1.1213292
1.1410306
1.1570357
1.1695752
1.1790829
1.1860874
1.1911207
1.1946608
1.197104
1.1987617
1.1998683
1.2005952
1.2010646
1.201362
1.2015464
1.2016581
1.2017238
1.2017613
1.2017819
1.2017928
1.2017983
1.2018009
1.2018022
1.2018027
1.2018029
1.201803
1.201803
1.201803
1.201803
1.201803
1.201803
1.201803
0.87965525
0.91263813
0.94545996
0.97805709
1.0101111
1.0410717
1.0702258
1.0968205
1.1202173
1.1400254
1.1561664
1.1688529
1.178503
1.1856351
1.1907765
1.194404
1.1969158
1.1986259
1.1997718
1.2005276
1.2010179
1.2013302
1.2015252
1.2016441
1.2017146
1.2017552
1.2017778
1.2017899
1.2017961
1.2017991
1.2018005
1.2018011
1.2018014
1.2018015
1.2018015
1.2018015
1.2018015
1.2018015
1.2018015
1.2018015
0.87922503
0.91206708
0.94474269
0.97719636
1.0091221
1.0399848
1.0690859
1.095682
1.1191347
1.139044
1.1553155
1.1681438
1.1779322
1.1851888
1.1904359
1.1941494
1.1967287
1.1984905
1.1996751
1.2004596
1.2009707
1.201298
1.2015035
1.2016297
1.2017052
1.201749
1.2017736
1.2017869
1.2017938
1.2017972
1.2017988
1.2017995
1.2017998
1.2018
1.2018
1.2018
1.2018
1.2018
1.2018
1.2018
0.87880902
0.91151499
0.94404927
0.97636407
1.0081652
1.0389321
1.0679803
1.0945755
1.1180801
1.1380855
1.1544821
1.1674475
1.1773701
1.1847483
1.190099
1.1938969
1.1965427
1.1983555
1.1995785
1.2003914
1.2009232
1.2012654
1.2014815
1.2016149
1.2016954
1.2017425
1.2017692
1.2017838
1.2017914
1.2017953
1.2017971
1.2017979
1.2017983
1.2017984
1.2017985
1.2017985
1.2017985
1.2017985
1.2017985
1.2017985
0.87840638
0.91098073
0.94337829
0.97555857
1.0072386
1.0379117
1.066907
1.0934993
1.1170521
1.1371488
1.1536655
1.1667635
1.1768167
1.1843134
1.1897656
1.1936465
1.1963578
1.1982209
1.199482
1.2003229
1.2008754
1.2012324
1.201459
1.2015998
1.2016853
1.2017358
1.2017646
1.2017805
1.201789
1.2017933
1.2017954
1.2017963
1.2017967
1.2017969
1.201797
1.201797
1.201797
1.201797
1.201797
1.201797
0.87801634
0.9104633
0.94272848
0.97477835
1.0063406
1.0369219
1.0658644
1.092452
1.1160494
1.136233
1.1528652
1.1660914
1.1762716
1.1838842
1.1894358
1.1933982
1.196174
1.1980869
1.1993855
1.2002544
1.2008273
1.2011991
1.2014362
1.2015844
1.201675
1.2017288
1.2017599
1.2017772
1.2017865
1.2017913
1.2017936
1.2017947
1.2017952
1.2017954
1.2017955
1.2017955
1.2017955
1.2017955
1.2017955
1.2017955
0.87763821
0.90996176
0.94209866
0.97402199
1.0054697
1.035961
1.064851
1.0914321
1.115071
1.1353373
1.1520805
1.1654308
1.1757345
1.1834603
1.1891095
1.193152
1.1959914
1.1979535
1.1992892
1.2001857
1.2007789
1.2011654
1.2014131
1.2015687
1.2016644
1.2017217
1.201755
1.2017738
1.2017839
1.2017892
1.2017918
1.2017931
1.2017936
1.2017939
1.201794
1.201794
1.201794
1.201794
1.201794
1.201794
0.87727134
0.90947523
0.94148774
0.97328822
1.0046243
1.0350276
1.0638652
1.0904384
1.1141158
1.1344608
1.1513108
1.1647813
1.1752053
1.1830417
1.1887865
1.1929079
1.1958101
1.1978206
1.1991931
1.2001171
1.2007304
1.2011315
1.2013897
1.2015527
1.2016535
1.2017143
1.20175
1.2017702
1.2017813
1.2017871
1.20179
1.2017914
1.2017921
1.2017923
1.2017925
1.2017925
1.2017925
1.2017925
1.2017925
1.2017925
0.87691514
0.90900294
0.94089472
0.97257584
1.0038032
1.0341202
1.0629057
1.0894697
1.1131826
1.1336027
1.1505556
1.1641426
1.1746837
1.1826282
1.1884669
1.1926658
1.1956299
1.1976884
1.1990973
1.2000484
1.2006817
1.2010974
1.201366
1.2015365
1.2016425
1.2017068
1.2017448
1.2017665
1.2017785
1.2017849
1.2017882
1.2017897
1.2017905
1.2017908
1.2017909
1.201791
1.201791
1.201791
1.201791
1.201791
0.87656905
0.90854412
0.94031867
0.97188375
1.0030052
1.0332376
1.0619713
1.0885247
1.1122707
1.1327624
1.1498143
1.1635143
1.1741694
1.1822198
1.1881505
1.1924258
1.1954508
1.1975568
1.1990017
1.1999797
1.2006329
1.201063
1.2013421
1.20152
1.2016312
1.2016991
1.2017395
1.2017628
1.2017758
1.2017827
1.2017863
1.2017881
1.2017889
1.2017893
1.2017894
1.2017895
1.2017895
1.2017895
1.2017895
1.2017895
0.87623256
0.90809811
0.93975874
0.97121092
1.002229
1.0323785
1.0610608
1.0876026
1.1113792
1.1319391
1.1490865
1.162896
1.1736624
1.1818163
1.1878374
1.1921878
1.195273
1.1974258
1.1989063
1.199911
1.2005839
1.2010285
1.201318
1.2015033
1.2016197
1.2016912
1.201734
1.2017589
1.2017729
1.2017805
1.2017844
1.2017864
1.2017873
1.2017877
1.2017879
1.201788
1.201788
1.201788
1.201788
1.201788
0.8759052
0.90766427
0.93921411
0.97055642
1.0014737
1.0315419
1.0601731
1.0867022
1.1105071
1.1311322
1.1483717
1.1622875
1.1731622
1.1814175
1.1875274
1.1919518
1.1950964
1.1972955
1.1988113
1.1998425
1.2005349
1.2009938
1.2012936
1.2014864
1.201608
1.2016831
1.2017284
1.2017549
1.2017699
1.2017781
1.2017825
1.2017846
1.2017857
1.2017862
1.2017864
1.2017865
1.2017865
1.2017865
1.2017865
1.2017865
0.87558652
0.90724201
0.93868405
0.96991935
1.0007382
1.0307266
1.0593072
1.0858226
1.1096538
1.1303411
1.1476694
1.1616884
1.1726689
1.1810234
1.1872204
1.1917177
1.194921
1.1971658
1.1987166
1.199774
1.2004859
1.200959
1.2012692
1.2014693
1.2015961
1.2016749
1.2017227
1.2017508
1.2017669
1.2017758
1.2017805
1.2017829
1.2017841
1.2017846
1.2017848
1.2017849
1.201785
1.201785
1.201785
1.201785
0.87527612
0.90683077
0.93816787
0.96929888
1.0000217
1.0299318
1.0584621
1.084963
1.1088184
1.1295652
1.1469793
1.1610984
1.1721822
1.1806338
1.1869165
1.1914856
1.1947467
1.1970368
1.1986222
1.1997057
1.2004369
1.2009241
1.2012445
1.201452
1.2015841
1.2016666
1.2017168
1.2017467
1.2017638
1.2017734
1.2017785
1.2017811
1.2017824
1.201783
1.2017833
1.2017834
1.2017835
1.2017835
1.2017835
1.2017835
0.87497361
0.90643004
0.93766492
0.96869426
0.99932318
1.0291565
1.0576369
1.0841226
1.1080003
1.1288039
1.1463008
1.1605174
1.1717018
1.1802487
1.1866155
1.1912554
1.1945736
1.1969085
1.1985282
1.1996374
1.2003878
1.2008891
1.2012197
1.2014346
1.2015719
1.2016581
1.2017108
1.2017424
1.2017607
1.2017709
1.2017765
1.2017793
1.2017808
1.2017815
1.2017818
1.2017819
1.201782
1.201782
1.201782
1.201782
0.87467863
0.90603935
0.93717459
0.96810476
0.99864191
1.0283999
1.0568308
1.0833006
1.1071989
1.1280568
1.1456337
1.1599449
1.1712277
1.1798679
1.1863175
1.191027
1.1944016
1.1967808
1.1984345
1.1995694
1.2003387
1.200854
1.2011948
1.201417
1.2015596
1.2016494
1.2017048
1.201738
1.2017574
1.2017684
1.2017744
1.2017775
1.2017791
1.2017799
1.2017802
1.2017804
1.2017805
1.2017805
1.2017805
1.2017805
0.87439085
0.90565825
0.93669633
0.96752972
0.99797713
1.0276611
1.056043
1.0824962
1.1064134
1.1273233
1.1449776
1.1593808
1.1707596
1.1794913
1.1860222
1.1908004
1.1942308
1.1966538
1.1983412
1.1995014
1.2002897
1.2008189
1.2011698
1.2013993
1.2015471
1.2016406
1.2016985
1.2017335
1.2017541
1.2017658
1.2017723
1.2017757
1.2017774
1.2017783
1.2017787
1.2017789
1.2017789
1.201779
1.201779
1.201779
0.87410994
0.90528631
0.93622961
0.96696849
0.99732812
1.0269395
1.0552728
1.0817087
1.1056434
1.1266031
1.1443321
1.1588248
1.1702975
1.1791188
1.1857298
1.1905757
1.1940611
1.1965275
1.1982483
1.1994337
1.2002407
1.2007837
1.2011447
1.2013815
1.2015345
1.2016317
1.2016922
1.201729
1.2017508
1.2017632
1.2017702
1.2017739
1.2017758
1.2017767
1.2017771
1.2017773
1.2017774
1.2017775
1.2017775
1.2017775
0.87383563
0.90492315
0.93577392
0.96642049
0.99669423
1.0262342
1.0545194
1.0809376
1.1048882
1.1258955
1.1436968
1.1582767
1.1698411
1.1787504
1.18544
1.1903527
1.1938925
1.1964018
1.1981557
1.1993661
1.2001917
1.2007485
1.2011195
1.2013636
1.2015218
1.2016227
1.2016858
1.2017244
1.2017473
1.2017606
1.201768
1.201772
1.2017741
1.2017751
1.2017756
1.2017758
1.2017759
1.201776
1.201776
1.201776
0.87356762
0.90456839
0.9353288
0.96588517
0.99607482
1.0255447
1.0537822
1.0801822
1.1041474
1.1252003
1.1430716
1.1577363
1.1693903
1.1783859
1.1851529
1.1901315
1.193725
1.1962768
1.1980635
1.1992987
1.2001428
1.2007132
1.2010942
1.2013456
1.201509
1.2016136
1.2016793
1.2017196
1.2017438
1.2017579
1.2017658
1.2017701
1.2017723
1.2017735
1.201774
1.2017743
1.2017744
1.2017745
1.2017745
1.2017745
0.87330566
0.90422168
0.93489382
0.96536199
0.9954693
1.0248702
1.0530605
1.0794419
1.1034204
1.124517
1.142456
1.1572033
1.168945
1.1780252
1.1848684
1.189912
1.1935586
1.1961525
1.1979716
1.1992315
1.200094
1.200678
1.2010689
1.2013274
1.2014961
1.2016044
1.2016727
1.2017148
1.2017402
1.2017551
1.2017635
1.2017682
1.2017706
1.2017719
1.2017725
1.2017728
1.2017729
1.2017729
1.201773
1.201773
0.87304951
0.9038827
0.93446857
0.96485048
0.99487712
1.0242103
1.0523539
1.0787162
1.1027068
1.1238452
1.1418499
1.1566776
1.168505
1.1776683
1.1845865
1.1896941
1.1933933
1.1960288
1.1978802
1.1991644
1.2000452
1.2006427
1.2010435
1.2013092
1.2014831
1.2015951
1.201666
1.20171
1.2017366
1.2017523
1.2017613
1.2017662
1.2017689
1.2017702
1.2017709
1.2017712
1.2017714
1.2017714
1.2017715
1.2017715
0.87279892
0.90355113
0.93405264
0.96435016
0.99429776
1.0235644
1.0516616
1.0780045
1.102006
1.1231845
1.1412528
1.1561589
1.1680702
1.177315
1.1843071
1.1894779
1.193229
1.1959058
1.1977891
1.1990976
1.1999966
1.2006075
1.2010181
1.201291
1.20147
1.2015857
1.2016592
1.201705
1.2017329
1.2017494
1.2017589
1.2017642
1.2017671
1.2017686
1.2017693
1.2017697
1.2017698
1.2017699
1.2017699
1.2017699
0.8725537
0.9032267
0.93364569
0.9638606
0.99373071
1.0229319
1.0509832
1.0773064
1.1013178
1.1225347
1.1406646
1.155647
1.1676405
1.1769654
1.1840301
1.1892633
1.1930658
1.1957834
1.1976984
1.199031
1.199948
1.2005722
1.2009926
1.2012726
1.2014568
1.2015762
1.2016524
1.2017
1.2017291
1.2017465
1.2017566
1.2017622
1.2017653
1.2017669
1.2017677
1.2017681
1.2017683
1.2017684
1.2017684
1.2017684
0.87231362
0.90290911
0.93324736
0.96338139
0.99317551
1.0223123
1.0503182
1.0766214
1.1006416
1.1218954
1.1400849
1.1551419
1.1672157
1.1766193
1.1837555
1.1890504
1.1929036
1.1956617
1.197608
1.1989646
1.1998994
1.200537
1.2009671
1.2012542
1.2014435
1.2015666
1.2016454
1.2016949
1.2017253
1.2017436
1.2017542
1.2017602
1.2017635
1.2017652
1.2017661
1.2017666
1.2017668
1.2017669
1.2017669
1.2017669
0.87207849
0.90259812
0.93285732
0.96291213
0.99263172
1.0217052
1.0496662
1.075949
1.0999771
1.1212663
1.1395137
1.1546432
1.1667957
1.1762765
1.1834833
1.1888389
1.1927424
1.1955405
1.1975181
1.1988983
1.199851
1.2005017
1.2009416
1.2012358
1.2014302
1.201557
1.2016384
1.2016898
1.2017215
1.2017406
1.2017518
1.2017582
1.2017617
1.2017636
1.2017645
1.201765
1.2017653
1.2017654
1.2017654
1.2017654
0.87184813
0.90229348
0.93247527
0.96245245
0.99209892
1.02111
1.0490265
1.0752889
1.0993239
1.120647
1.1389505
1.1541509
1.1663805
1.1759372
1.1832134
1.188629
1.1925821
1.19542
1.1974285
1.1988323
1.1998027
1.2004665
1.2009161
1.2012173
1.2014168
1.2015473
1.2016313
1.2016845
1.2017175
1.2017375
1.2017493
1.2017561
1.2017599
1.2017619
1.2017629
1.2017635
1.2017637
1.2017638
1.2017639
1.2017639
0.87162237
0.90199495
0.93210091
0.96200201
0.99157671
1.0205265
1.0483989
1.0746406
1.0986817
1.1200372
1.1383953
1.1536647
1.1659698
1.1756011
1.1829457
1.1884207
1.1924229
1.1953001
1.1973392
1.1987665
1.1997545
1.2004314
1.2008905
1.2011987
1.2014034
1.2015375
1.2016242
1.2016792
1.2017135
1.2017344
1.2017468
1.201754
1.201758
1.2017602
1.2017613
1.2017619
1.2017622
1.2017623
1.2017624
1.2017624
0.87140104
0.90170231
0.93173396
0.96156047
0.99106472
1.0199541
1.0477829
1.0740037
1.0980501
1.1194368
1.1378477
1.1531846
1.1655637
1.1752683
1.1826803
1.1882138
1.1922646
1.1951808
1.1972504
1.1987009
1.1997064
1.2003962
1.2008649
1.2011801
1.2013898
1.2015277
1.201617
1.2016739
1.2017095
1.2017313
1.2017443
1.2017519
1.2017561
1.2017585
1.2017597
1.2017603
1.2017606
1.2017608
1.2017608
1.2017609
0.87118398
0.90141536
0.93137417
0.96112752
0.99056258
1.0193926
1.0471782
1.0733778
1.0974288
1.1188454
1.1373076
1.1527103
1.1651619
1.1749386
1.182417
1.1880083
1.1921073
1.1950621
1.1971619
1.1986355
1.1996583
1.2003611
1.2008394
1.2011615
1.2013763
1.2015178
1.2016097
1.2016685
1.2017054
1.2017281
1.2017418
1.2017497
1.2017542
1.2017567
1.2017581
1.2017587
1.2017591
1.2017592
1.2017593
1.2017593
0.87097105
0.90113389
0.93102128
0.96070285
0.99006996
1.0188414
1.0465843
1.0727627
1.0968174
1.1182628
1.1367748
1.1522418
1.1647645
1.174612
1.1821559
1.1878043
1.1919509
1.194944
1.1970737
1.1985703
1.1996104
1.2003261
1.2008138
1.2011429
1.2013627
1.2015078
1.2016024
1.201663
1.2017013
1.2017249
1.2017392
1.2017475
1.2017523
1.201755
1.2017564
1.2017572
1.2017575
1.2017577
1.2017578
1.2017578
0.8707621
0.90085772
0.93067505
0.96028619
0.98958653
1.0183004
1.0460009
1.072158
1.0962158
1.1176887
1.1362491
1.1517789
1.1643712
1.1742884
1.1818969
1.1876017
1.1917954
1.1948265
1.1969859
1.1985053
1.1995626
1.2002911
1.2007882
1.2011242
1.201349
1.2014978
1.201595
1.2016575
1.2016971
1.2017217
1.2017365
1.2017453
1.2017504
1.2017532
1.2017548
1.2017556
1.201756
1.2017562
1.2017563
1.2017563
0.87055699
0.90058666
0.93033526
0.95987726
0.98911198
1.017769
1.0454277
1.0715633
1.0956235
1.1171229
1.1357303
1.1513214
1.1639821
1.1739677
1.1816399
1.1874005
1.1916408
1.1947095
1.1968985
1.1984405
1.1995149
1.2002561
1.2007626
1.2011055
1.2013353
1.2014877
1.2015875
1.201652
1.2016929
1.2017184
1.2017339
1.2017431
1.2017484
1.2017515
1.2017531
1.201754
1.2017544
1.2017546
1.2017547
1.2017547
0.8703556
0.90032055
0.93000168
0.9594758
0.98864603
1.0172472
1.0448644
1.0709784
1.0950404
1.1165652
1.1352183
1.1508693
1.1635969
1.17365
1.1813849
1.1872006
1.1914871
1.1945931
1.1968114
1.1983759
1.1994673
1.2002212
1.200737
1.2010868
1.2013216
1.2014776
1.20158
1.2016463
1.2016886
1.201715
1.2017312
1.2017408
1.2017465
1.2017497
1.2017514
1.2017524
1.2017528
1.2017531
1.2017532
1.2017532
0.87015781
0.90005923
0.92967413
0.95908158
0.98818839
1.0167344
1.0443106
1.070403
1.0944662
1.1160153
1.1347128
1.1504224
1.1632157
1.1733351
1.1811319
1.1870021
1.1913342
1.1944773
1.1967246
1.1983115
1.1994198
1.2001863
1.2007114
1.201068
1.2013078
1.2014675
1.2015725
1.2016407
1.2016843
1.2017116
1.2017285
1.2017386
1.2017445
1.2017479
1.2017497
1.2017508
1.2017513
1.2017515
1.2017516
1.2017517
0.86996351
0.89980253
0.9293524
0.95869435
0.9877388
1.0162305
1.043766
1.0698367
1.0939005
1.1154731
1.1342137
1.1499805
1.1628384
1.173023
1.1808809
1.1868048
1.1911822
1.194362
1.1966382
1.1982473
1.1993724
1.2001514
1.2006859
1.2010492
1.201294
1.2014573
1.2015649
1.201635
1.2016799
1.2017082
1.2017257
1.2017363
1.2017425
1.2017461
1.201748
1.2017491
1.2017497
1.20175
1.2017501
1.2017501
0.86977257
0.89955031
0.9290363
0.95831389
0.987297
1.0157351
1.0432305
1.0692794
1.0933433
1.1149383
1.1337209
1.1495437
1.1624648
1.1727136
1.1806318
1.1866089
1.1910311
1.1942472
1.1965521
1.1981833
1.1993251
1.2001166
1.2006603
1.2010305
1.2012802
1.201447
1.2015573
1.2016292
1.2016755
1.2017048
1.2017229
1.2017339
1.2017404
1.2017442
1.2017463
1.2017475
1.2017481
1.2017484
1.2017485
1.2017486
0.86958489
0.89930243
0.92872566
0.95793999
0.98686274
1.0152481
1.0427036
1.0687307
1.0927942
1.1144108
1.1332342
1.1491117
1.1620949
1.1724069
1.1803845
1.1864142
1.1908808
1.194133
1.1964663
1.1981195
1.199278
1.2000819
1.2006348
1.2010117
1.2012663
1.2014367
1.2015496
1.2016234
1.2016711
1.2017013
1.2017201
1.2017316
1.2017384
1.2017424
1.2017446
1.2017459
1.2017465
1.2017469
1.201747
1.201747
0.86940038
0.89905875
0.9284203
0.95757245
0.98643581
1.0147691
1.0421852
1.0681905
1.0922531
1.1138903
1.1327534
1.1486844
1.1617286
1.1721029
1.1801391
1.1862208
1.1907313
1.1940193