/*--------------------------------*- C++ -*----------------------------------*\
| =========                 |                                                 |
| \\      /  F ield         | OpenFOAM: The Open Source CFD Toolbox           |
|  \\    /   O peration     | Version:  3.0.1                                 |
|   \\  /    A nd           | Web:      www.OpenFOAM.org                      |
|    \\/     M anipulation  |                                                 |
\*---------------------------------------------------------------------------*/
FoamFile
{
    version     2.0;
    format      ascii;
    class       volScalarField;
    location    "2248";
    object      T;
}
// * * * * * * * * * * * * * * * * * * * * * * * * * * * * * * * * * * * * * //

dimensions      [0 0 0 1 0 0 0];

internalField   nonuniform List<scalar> 
4000
(
350.93242
328.60345
313.42307
304.17984
298.98457
296.24343
294.87252
294.21884
293.92062
293.79017
293.7354
293.71331
293.70476
293.70157
293.70043
293.70004
293.69991
293.69987
293.69986
293.69986
293.69986
293.69986
293.69986
293.69986
293.69986
293.69986
293.69986
293.69986
293.69986
293.69986
293.69986
293.69986
293.69986
293.69986
293.69986
293.69986
293.69986
293.69986
293.69986
293.69987
366.8079
345.13544
327.30516
314.11413
305.30367
299.91905
296.86358
295.23459
294.41187
294.01624
293.83458
293.75482
293.7213
293.70782
293.70263
293.70072
293.70004
293.69982
293.69974
293.69972
293.69971
293.69971
293.69971
293.69971
293.69971
293.69971
293.69971
293.69971
293.69971
293.69971
293.69971
293.69971
293.69971
293.69971
293.69971
293.69971
293.69971
293.69971
293.69972
293.69972
374.02415
353.57117
335.79073
321.45563
310.87064
303.70419
299.21747
296.59342
295.14737
294.39192
294.01635
293.83831
293.75773
293.72291
293.70853
293.70286
293.70072
293.69995
293.69969
293.6996
293.69957
293.69957
293.69956
293.69956
293.69956
293.69956
293.69956
293.69956
293.69956
293.69956
293.69956
293.69956
293.69956
293.69956
293.69956
293.69957
293.69957
293.69957
293.69957
293.69957
378.43454
358.85218
341.45523
326.83391
315.40076
307.12964
301.57762
298.09525
296.03909
294.88944
294.27837
293.96891
293.81943
293.75054
293.72024
293.70752
293.70243
293.70049
293.69978
293.69954
293.69945
293.69943
293.69942
293.69942
293.69942
293.69942
293.69942
293.69942
293.69942
293.69942
293.69942
293.69942
293.69942
293.69942
293.69942
293.69942
293.69942
293.69942
293.69942
293.69943
381.53309
362.59539
345.58156
330.94276
319.08395
310.1168
303.79172
299.61165
297.0077
295.47039
294.60699
294.14467
293.90844
293.79324
293.73963
293.71584
293.70577
293.7017
293.70014
293.69957
293.69937
293.6993
293.69928
293.69927
293.69927
293.69927
293.69927
293.69927
293.69927
293.69927
293.69927
293.69927
293.69927
293.69927
293.69927
293.69927
293.69927
293.69928
293.69928
293.69928
383.88377
365.44869
348.77336
334.2097
322.1293
312.70624
305.81383
301.07485
297.99693
296.0992
294.98435
294.35897
294.02373
293.85201
293.76801
293.72879
293.71133
293.70392
293.70092
293.69977
293.69934
293.6992
293.69915
293.69913
293.69913
293.69912
293.69912
293.69912
293.69912
293.69912
293.69912
293.69912
293.69913
293.69913
293.69913
293.69913
293.69913
293.69913
293.69913
293.69913
385.75787
367.73038
351.34909
336.89312
324.69742
314.96378
307.64529
302.45623
298.97291
296.74901
295.39366
294.60341
294.16224
293.92647
293.80595
293.74709
293.71966
293.70746
293.7023
293.70022
293.69942
293.69913
293.69903
293.69899
293.69898
293.69898
293.69898
293.69898
293.69898
293.69898
293.69898
293.69898
293.69898
293.69898
293.69898
293.69898
293.69898
293.69898
293.69898
293.69899
387.3045
369.61735
353.49262
339.15398
326.90232
316.95011
309.30377
303.74771
299.91743
297.40158
295.82128
294.86972
294.31995
294.01525
293.85341
293.77115
293.73118
293.71266
293.70447
293.70102
293.69964
293.69912
293.69893
293.69886
293.69884
293.69883
293.69883
293.69883
293.69883
293.69883
293.69883
293.69883
293.69883
293.69883
293.69883
293.69883
293.69884
293.69884
293.69884
293.69884
388.61379
371.21729
355.31846
341.09744
328.82477
318.71481
310.81058
304.95101
300.822
298.04546
296.25703
295.15073
294.49273
294.11647
293.90984
293.80102
293.74617
293.71975
293.70761
293.70229
293.70007
293.69919
293.69886
293.69874
293.6987
293.69869
293.69869
293.69869
293.69869
293.69869
293.69869
293.69869
293.69869
293.69869
293.69869
293.69869
293.69869
293.69869
293.69869
293.69869
389.74405
372.60017
356.90219
342.79514
330.52286
320.29696
312.18601
306.07194
301.68367
298.67389
296.69378
295.44068
294.67674
294.22803
293.97435
293.83654
293.76473
293.72893
293.71187
293.70412
293.70077
293.69938
293.69884
293.69864
293.69857
293.69855
293.69854
293.69854
293.69854
293.69854
293.69854
293.69854
293.69854
293.69854
293.69854
293.69854
293.69854
293.69854
293.69855
293.69855
390.735
373.81381
358.29601
344.29775
332.03934
321.72715
313.44783
307.11768
302.50251
299.28323
297.12669
295.73515
294.8687
294.34789
294.04592
293.87732
293.78684
293.74029
293.71738
293.70661
293.70178
293.69973
293.69889
293.69857
293.69845
293.69841
293.6984
293.69839
293.69839
293.69839
293.69839
293.69839
293.69839
293.69839
293.6984
293.6984
293.6984
293.6984
293.6984
293.6984
391.61479
374.89222
359.53737
345.64221
333.40633
323.02946
314.61115
308.09552
303.28017
299.87178
297.55265
296.03088
295.06591
294.47418
294.12347
293.92286
293.81236
293.75388
293.72422
293.70984
293.70318
293.70025
293.69902
293.69853
293.69835
293.69828
293.69826
293.69825
293.69825
293.69825
293.69825
293.69825
293.69825
293.69825
293.69825
293.69825
293.69825
293.69825
293.69825
293.69825
392.40405
375.86035
360.65394
346.85624
334.64843
324.22301
315.68865
309.01226
304.01899
300.43905
297.9697
296.3255
295.26625
294.60529
294.20595
293.97262
293.84106
293.76966
293.73245
293.71388
293.70502
293.70099
293.69925
293.69854
293.69826
293.69815
293.69812
293.69811
293.6981
293.6981
293.6981
293.6981
293.6981
293.6981
293.6981
293.6981
293.69811
293.69811
293.69811
293.69811
393.11833
376.73704
361.66671
347.96106
335.78487
325.32315
316.69099
309.87406
304.7216
300.98528
298.37674
296.61735
295.46803
294.73986
294.29241
294.02603
293.87269
293.78754
293.74206
293.71876
293.70734
293.70199
293.69961
293.6986
293.69819
293.69804
293.69798
293.69796
293.69796
293.69796
293.69796
293.69796
293.69796
293.69796
293.69796
293.69796
293.69796
293.69796
293.69796
293.69796
393.76959
377.5368
362.59191
348.97326
336.83089
326.34235
317.62708
310.68639
305.39063
301.5111
298.77319
296.9053
295.66998
294.87675
294.38201
294.08254
293.90693
293.8074
293.75305
293.72451
293.71017
293.70327
293.70011
293.69873
293.69816
293.69793
293.69785
293.69782
293.69781
293.69781
293.69781
293.69781
293.69781
293.69781
293.69781
293.69781
293.69781
293.69781
293.69781
293.69782
394.36722
378.27105
363.44238
349.90603
337.79879
327.29081
318.50445
311.45408
306.02862
302.01737
299.15887
297.18858
295.87116
295.01505
294.47399
294.14163
293.94348
293.8291
293.76535
293.73115
293.71354
293.70485
293.70077
293.69894
293.69816
293.69785
293.69773
293.69768
293.69767
293.69766
293.69766
293.69766
293.69766
293.69766
293.69766
293.69767
293.69767
293.69767
293.69767
293.69767
394.91872
378.94892
364.22838
350.77002
338.69856
328.17703
319.32951
312.18133
306.63792
302.50507
299.53381
297.46671
296.07086
295.15404
294.56775
294.20284
293.98205
293.85248
293.77892
293.73865
293.71746
293.70677
293.70161
293.69924
293.69821
293.69778
293.69761
293.69755
293.69753
293.69752
293.69752
293.69752
293.69752
293.69752
293.69752
293.69752
293.69752
293.69752
293.69752
293.69752
395.43016
379.57779
364.95829
351.57392
339.53848
329.0081
320.10769
312.87188
307.22071
302.9752
299.89822
297.73941
296.26855
295.29313
294.66276
294.26575
294.02235
293.87736
293.79367
293.747
293.72194
293.70902
293.70265
293.69965
293.69831
293.69774
293.6975
293.69742
293.69739
293.69738
293.69737
293.69737
293.69737
293.69737
293.69737
293.69737
293.69737
293.69738
293.69738
293.69738
395.90654
380.16374
365.63897
352.32493
340.32544
329.78999
320.84368
313.52898
307.779
303.42874
300.25239
298.00654
296.46387
295.43188
294.75857
294.33001
294.06412
293.90358
293.80951
293.75616
293.72698
293.71163
293.7039
293.70017
293.69846
293.69772
293.69741
293.69729
293.69725
293.69723
293.69723
293.69723
293.69723
293.69723
293.69723
293.69723
293.69723
293.69723
293.69723
293.69723
396.35198
380.71182
366.27614
353.02907
341.06524
330.5278
321.54152
314.1555
308.31457
303.86666
300.59668
298.26807
296.65657
295.56994
294.85484
294.39531
294.10711
293.93099
293.82635
293.76609
293.73256
293.7146
293.70536
293.70082
293.69869
293.69773
293.69733
293.69717
293.69711
293.69709
293.69708
293.69708
293.69708
293.69708
293.69708
293.69708
293.69708
293.69708
293.69708
293.69708
396.76995
381.22624
366.87462
353.69142
341.76281
331.2259
322.2047
314.75398
308.82908
304.28987
300.93146
298.52402
296.84647
295.70703
294.95127
294.46137
294.15112
293.95942
293.8441
293.77674
293.73867
293.71792
293.70705
293.70159
293.69898
293.69779
293.69727
293.69706
293.69698
293.69695
293.69694
293.69693
293.69693
293.69693
293.69693
293.69694
293.69694
293.69694
293.69694
293.69694
397.16339
381.7106
367.43848
354.31628
342.42237
331.88805
322.83628
315.32668
309.32401
304.69923
301.25714
298.77449
297.03346
295.84296
295.04762
294.52797
294.19596
293.98874
293.86266
293.78806
293.74529
293.72159
293.70896
293.70251
293.69935
293.69788
293.69723
293.69696
293.69685
293.69681
293.69679
293.69679
293.69679
293.69679
293.69679
293.69679
293.69679
293.69679
293.69679
293.69679
397.53479
382.16794
367.97121
354.90737
343.04754
332.51752
323.43896
315.87559
309.8007
305.09554
301.57411
299.0196
297.2175
295.97757
295.1437
294.59492
294.24146
294.01883
293.88195
293.8
293.75238
293.72562
293.71111
293.70356
293.6998
293.69802
293.69721
293.69686
293.69672
293.69667
293.69665
293.69664
293.69664
293.69664
293.69664
293.69664
293.69664
293.69665
293.69665
293.69665
397.8863
382.60089
368.47581
355.46786
343.64147
333.11717
324.0151
316.40251
310.26038
305.47955
301.88276
299.25948
297.39856
296.11075
295.23935
294.66206
294.28746
294.04955
293.90188
293.81251
293.75993
293.72997
293.71349
293.70476
293.70034
293.6982
293.69721
293.69678
293.6966
293.69653
293.69651
293.6965
293.6965
293.6965
293.6965
293.6965
293.6965
293.6965
293.6965
293.6965
398.21978
383.01171
368.95486
356.00055
344.20692
333.68949
324.5668
316.90902
310.70417
305.85195
302.18347
299.49428
297.57665
296.24242
295.33447
294.72925
294.33386
294.08081
293.92237
293.82553
293.76791
293.73465
293.71609
293.70611
293.70097
293.69844
293.69725
293.69671
293.69649
293.6964
293.69637
293.69635
293.69635
293.69635
293.69635
293.69635
293.69635
293.69635
293.69635
293.69635
398.53685
383.4024
369.41064
356.50784
344.74629
334.23672
325.0959
317.39657
311.13306
306.21339
302.47659
299.72416
297.7518
296.37253
295.42894
294.79638
294.38054
294.11252
293.94335
293.83901
293.77627
293.73963
293.71891
293.70761
293.70169
293.69873
293.69731
293.69666
293.69638
293.69627
293.69623
293.69621
293.69621
293.6962
293.6962
293.69621
293.69621
293.69621
293.69621
293.69621
398.83892
383.77468
369.84514
356.99188
345.26172
334.7608
325.60409
317.86645
311.54798
306.56446
302.76247
299.9493
297.92404
296.50104
295.5227
294.86337
294.4274
294.14458
293.96476
293.8529
293.785
293.7449
293.72195
293.70926
293.70251
293.69907
293.6974
293.69663
293.69628
293.69614
293.69609
293.69607
293.69606
293.69606
293.69606
293.69606
293.69606
293.69606
293.69606
293.69606
399.12724
384.13007
370.26009
357.45453
345.75508
335.26348
326.09285
318.31983
311.94978
306.90572
303.04145
300.16985
298.09344
296.62794
295.61569
294.93012
294.47437
294.17694
293.98653
293.86717
293.79406
293.75045
293.72519
293.71105
293.70343
293.69948
293.69753
293.69661
293.69619
293.69602
293.69595
293.69592
293.69592
293.69591
293.69591
293.69591
293.69591
293.69592
293.69592
293.69592
399.4029
384.46992
370.65705
357.89748
346.22805
335.74633
326.56353
318.75776
312.33923
307.23768
303.31382
300.38597
298.26005
296.75323
295.70787
294.99659
294.52137
294.20951
294.00862
293.88176
293.80342
293.75625
293.72864
293.71299
293.70444
293.69995
293.69769
293.69661
293.69612
293.6959
293.69582
293.69578
293.69577
293.69577
293.69577
293.69577
293.69577
293.69577
293.69577
293.69577
399.66689
384.79542
371.0374
358.3222
346.68213
336.21074
327.01733
319.18122
312.71702
307.56083
303.57988
300.59783
298.42394
296.87691
295.7992
295.06272
294.56836
294.24226
294.03096
293.89664
293.81306
293.76229
293.73227
293.71506
293.70554
293.70047
293.69789
293.69663
293.69605
293.69579
293.69568
293.69564
293.69563
293.69562
293.69562
293.69562
293.69562
293.69562
293.69562
293.69562
399.92008
385.10766
371.40236
358.73002
347.11865
336.65798
327.45534
319.59109
313.08381
307.87559
303.83991
300.80557
298.58518
296.99899
295.88966
295.12847
294.61527
294.27512
294.05351
293.91178
293.82295
293.76854
293.73608
293.71727
293.70674
293.70106
293.69813
293.69667
293.69599
293.69568
293.69555
293.6955
293.69548
293.69548
293.69548
293.69548
293.69548
293.69548
293.69548
293.69548
400.16325
385.40758
371.75304
359.12214
347.53884
337.08919
327.87857
319.98815
313.44021
308.18239
304.09417
301.00934
298.74384
297.11949
295.97924
295.19381
294.66208
294.30805
294.07625
293.92714
293.83307
293.77501
293.74006
293.71962
293.70804
293.70172
293.6984
293.69674
293.69594
293.69558
293.69543
293.69536
293.69534
293.69533
293.69533
293.69533
293.69533
293.69533
293.69533
293.69533
400.3971
385.69605
372.09043
359.49963
347.94378
337.50539
328.28792
320.37316
313.78675
308.48161
304.34291
301.20929
298.89998
297.23844
296.06794
295.2587
294.70874
294.34102
294.09912
293.94268
293.84338
293.78166
293.7442
293.72208
293.70943
293.70243
293.69872
293.69683
293.69591
293.69549
293.6953
293.69523
293.6952
293.69519
293.69518
293.69518
293.69518
293.69519
293.69519
293.69519
400.62226
385.97383
372.41541
359.86346
348.33445
337.90753
328.68421
320.74677
314.12395
308.7736
304.58635
301.40556
299.05368
297.35585
296.15574
295.32314
294.75523
294.374
294.12211
293.95839
293.85387
293.78848
293.74849
293.72467
293.7109
293.70321
293.69908
293.69695
293.6959
293.6954
293.69519
293.69509
293.69506
293.69504
293.69504
293.69504
293.69504
293.69504
293.69504
293.69504
400.8393
386.24164
372.72881
360.21451
348.71176
338.29646
329.0682
321.10962
314.45228
309.0587
304.82471
301.59827
299.20501
297.47177
296.24265
295.38711
294.80152
294.40696
294.14518
293.97424
293.86453
293.79545
293.75291
293.72737
293.71246
293.70405
293.69948
293.69709
293.69589
293.69533
293.69507
293.69496
293.69492
293.6949
293.69489
293.69489
293.69489
293.69489
293.69489
293.69489
401.04875
386.5001
373.03135
360.55359
349.07653
338.67296
329.44059
321.46228
314.77219
309.33721
305.05821
301.78755
299.35404
297.58621
296.32868
295.4506
294.8476
294.43987
294.1683
293.9902
293.87532
293.80257
293.75747
293.73017
293.71411
293.70495
293.69992
293.69725
293.69591
293.69526
293.69496
293.69483
293.69478
293.69476
293.69475
293.69475
293.69475
293.69475
293.69475
293.69475
401.25108
386.7498
373.32371
360.88141
349.4295
339.03776
329.80202
321.80527
315.08407
309.60944
305.28703
301.97352
299.50083
297.6992
296.41383
295.51359
294.89344
294.47271
294.19147
294.00626
293.88623
293.80982
293.76214
293.73308
293.71584
293.70591
293.7004
293.69745
293.69594
293.6952
293.69485
293.6947
293.69464
293.69461
293.6946
293.6946
293.6946
293.6946
293.6946
293.6946
401.44672
386.99127
373.60649
361.19865
349.77135
339.3915
330.15307
322.13909
315.3883
309.87565
305.51136
302.1563
299.64544
297.81079
296.49811
295.57609
294.93903
294.50548
294.21465
294.0224
293.89726
293.81718
293.76693
293.73609
293.71764
293.70693
293.70092
293.69767
293.69598
293.69515
293.69475
293.69458
293.6945
293.69447
293.69446
293.69446
293.69446
293.69446
293.69446
293.69446
401.63605
387.225
373.88026
361.50591
350.10272
339.73479
330.49429
322.46418
315.68524
310.13609
305.73137
302.33599
299.78795
297.921
296.58154
295.63809
294.98437
294.53814
294.23784
294.0386
293.90837
293.82465
293.77181
293.73918
293.71952
293.70801
293.70148
293.69792
293.69605
293.69511
293.69466
293.69445
293.69437
293.69433
293.69432
293.69431
293.69431
293.69431
293.69431
293.69431
401.81946
387.45141
374.14553
361.80377
350.42418
340.06819
330.82618
322.78097
315.97521
310.39102
305.94722
302.5127
299.92841
298.02986
296.66411
295.69959
295.02945
294.57069
294.26101
294.05484
293.91957
293.83221
293.77679
293.74236
293.72147
293.70914
293.70208
293.69819
293.69613
293.69508
293.69457
293.69433
293.69423
293.69419
293.69417
293.69417
293.69416
293.69416
293.69417
293.69417
401.99725
387.67093
374.40277
362.09273
350.73627
340.39222
331.1492
323.08985
316.25853
310.64064
306.15908
302.68653
300.06689
298.13741
296.74586
295.76059
295.07425
294.60312
294.28416
294.07112
293.93083
293.83985
293.78186
293.74561
293.72348
293.71032
293.70272
293.69849
293.69623
293.69506
293.69449
293.69422
293.6941
293.69405
293.69403
293.69402
293.69402
293.69402
293.69402
293.69402
402.16975
387.88393
374.65242
362.37328
351.03947
340.70735
331.46379
323.39119
316.53548
310.88518
306.36707
302.85757
300.20343
298.24367
296.82679
295.8211
295.11878
294.63543
294.30727
294.08743
293.94215
293.84757
293.787
293.74894
293.72556
293.71155
293.7034
293.69882
293.69634
293.69505
293.69441
293.69411
293.69397
293.69391
293.69389
293.69388
293.69387
293.69387
293.69387
293.69387
402.33723
388.09075
374.89487
362.64584
351.33424
341.01402
331.77035
323.68533
316.80633
311.12484
306.57136
303.02591
300.3381
298.34867
296.90691
295.88112
295.16303
294.66759
294.33034
294.10375
293.95352
293.85535
293.79221
293.75234
293.72769
293.71283
293.70412
293.69918
293.69648
293.69506
293.69434
293.694
293.69384
293.69377
293.69374
293.69373
293.69373
293.69373
293.69373
293.69373
402.49996
388.29171
375.1305
362.91083
351.62101
341.31265
332.06926
323.97259
317.07134
311.3598
306.77205
303.19165
300.47094
298.45246
296.98624
295.94065
295.207
294.69962
294.35336
294.12007
293.96493
293.86319
293.79749
293.7558
293.72989
293.71416
293.70487
293.69956
293.69663
293.69507
293.69428
293.69389
293.69371
293.69363
293.6936
293.69359
293.69358
293.69358
293.69358
293.69358
402.65817
388.48712
375.35965
363.16863
351.90017
341.60362
332.36086
324.25326
317.33073
311.59023
306.96929
303.35485
300.60201
298.55505
297.0648
295.9997
295.25069
294.73149
294.37631
294.13639
293.97637
293.87108
293.80282
293.75932
293.73213
293.71553
293.70566
293.69997
293.6968
293.6951
293.69422
293.69379
293.69359
293.6935
293.69346
293.69344
293.69344
293.69344
293.69344
293.69344
402.8121
388.67725
375.58265
363.41959
352.17207
341.88728
332.64548
324.52762
317.58475
311.81632
307.16318
303.5156
300.73136
298.65647
297.14259
296.05828
295.2941
294.76322
294.3992
294.1527
293.98784
293.87901
293.80821
293.76289
293.73443
293.71695
293.70649
293.70041
293.69699
293.69514
293.69417
293.6937
293.69347
293.69336
293.69332
293.6933
293.69329
293.69329
293.69329
293.69329
402.96194
388.86235
375.79978
363.66403
352.43706
342.16397
332.92343
324.79594
317.83359
312.03821
307.35384
303.67398
300.85903
298.75676
297.21965
296.11639
295.33723
294.79479
294.42203
294.169
293.99932
293.88698
293.81364
293.76651
293.73677
293.71841
293.70734
293.70087
293.6972
293.69519
293.69413
293.6936
293.69335
293.69323
293.69318
293.69316
293.69315
293.69315
293.69315
293.69315
403.1079
389.04266
376.01134
363.90226
352.69547
342.434
333.195
325.05847
318.07745
312.25606
307.54138
303.83006
300.98508
298.85593
297.29597
296.17403
295.38008
294.8262
294.44477
294.18527
294.01082
293.89499
293.81912
293.77018
293.73916
293.7199
293.70823
293.70135
293.69742
293.69525
293.6941
293.69352
293.69323
293.6931
293.69304
293.69301
293.693
293.693
293.693
293.693
403.25015
389.21841
376.21756
364.13456
352.94757
342.69766
333.46044
325.31544
318.31653
312.47
307.7259
303.9839
301.10954
298.95402
297.37157
296.23121
295.42265
294.85746
294.46744
294.20152
294.02232
293.90302
293.82463
293.77389
293.74159
293.72144
293.70915
293.70186
293.69766
293.69533
293.69408
293.69344
293.69312
293.69297
293.6929
293.69287
293.69286
293.69286
293.69286
293.69285
403.38886
389.3898
376.4187
364.36121
353.19366
342.95523
333.72003
325.56706
318.551
312.68018
307.90749
304.13557
301.23245
299.05106
297.44648
296.28795
295.46494
294.88856
294.49003
294.21773
294.03382
293.91107
293.83018
293.77763
293.74405
293.723
293.7101
293.70239
293.69792
293.69542
293.69406
293.69336
293.69301
293.69284
293.69276
293.69273
293.69272
293.69271
293.69271
293.69271
403.5242
389.55703
376.61499
364.58244
353.43399
343.20695
333.97399
325.81355
318.78103
312.88672
308.08625
304.28513
301.35387
299.14706
297.52069
296.34425
295.50697
294.9195
294.51254
294.23392
294.04533
293.91915
293.83576
293.78142
293.74656
293.7246
293.71108
293.70295
293.6982
293.69552
293.69406
293.69329
293.6929
293.69271
293.69263
293.69259
293.69257
293.69257
293.69256
293.69256
403.65631
389.72027
376.80662
364.79849
353.66881
343.45308
334.22254
326.05509
319.00678
313.08975
308.26226
304.43265
301.47382
299.24205
297.59424
296.40011
295.54872
294.95028
294.53496
294.25007
294.05683
293.92723
293.84137
293.78523
293.74909
293.72623
293.71208
293.70352
293.6985
293.69563
293.69406
293.69322
293.6928
293.69259
293.69249
293.69245
293.69243
293.69242
293.69242
293.69242
403.78532
389.87971
376.99381
365.00958
353.89834
343.69384
334.46591
326.29187
319.2284
313.28937
308.43561
304.57818
301.59234
299.33605
297.66712
296.45554
295.59021
294.98091
294.55729
294.26618
294.06832
293.93533
293.847
293.78907
293.75166
293.7279
293.71311
293.70412
293.69881
293.69576
293.69407
293.69316
293.6927
293.69247
293.69236
293.69231
293.69229
293.69228
293.69228
293.69227
403.91137
390.03549
377.17673
365.21592
354.1228
343.92944
334.70428
326.52407
319.44602
313.48571
308.60638
304.72178
301.70947
299.42909
297.73936
296.51056
295.63143
295.01137
294.57954
294.28225
294.0798
293.94344
293.85265
293.79295
293.75425
293.72959
293.71417
293.70474
293.69914
293.6959
293.69408
293.69311
293.6926
293.69235
293.69223
293.69217
293.69215
293.69213
293.69213
293.69213
404.03459
390.18778
377.35557
365.4177
354.34239
344.16008
334.93785
326.75185
319.6598
313.67885
308.77465
304.86349
301.82525
299.52119
297.81096
296.56516
295.67239
295.04168
294.6017
294.29827
294.09127
293.95156
293.85832
293.79684
293.75687
293.7313
293.71525
293.70538
293.69948
293.69605
293.69411
293.69306
293.69251
293.69223
293.69209
293.69203
293.692
293.69199
293.69199
293.69199
404.15508
390.33671
377.53048
365.61509
354.55731
344.38595
335.16679
326.97537
319.86985
313.86891
308.94048
305.00337
301.93971
299.61237
297.88194
296.61935
295.71309
295.07183
294.62377
294.31425
294.10272
293.95968
293.864
293.80076
293.75952
293.73304
293.71635
293.70604
293.69984
293.69621
293.69415
293.69302
293.69242
293.69211
293.69196
293.69189
293.69186
293.69185
293.69184
293.69184
404.27295
390.48242
377.70163
365.80829
354.76773
344.60724
335.39127
327.19478
320.0763
314.05598
309.10395
305.14148
302.05287
299.70265
297.95232
296.67315
295.75355
295.10183
294.64575
294.33019
294.11416
293.9678
293.8697
293.8047
293.76219
293.7348
293.71747
293.70672
293.70022
293.69638
293.69419
293.69298
293.69233
293.692
293.69184
293.69176
293.69172
293.69171
293.6917
293.6917
404.38831
390.62503
377.86916
365.99743
354.97383
344.82411
335.61146
327.41021
320.27927
314.24015
309.26512
305.27784
302.16478
299.79204
298.0221
296.72655
295.79375
295.13167
294.66764
294.34608
294.12558
293.97592
293.87541
293.80865
293.76488
293.73659
293.71862
293.70742
293.70061
293.69657
293.69424
293.69295
293.69225
293.69189
293.69171
293.69162
293.69158
293.69156
293.69156
293.69155
404.50126
390.76465
378.0332
366.18269
355.17577
345.03672
335.8275
327.6218
320.47886
314.42151
309.42407
305.41252
302.27546
299.88058
298.0913
296.77957
295.8337
295.16137
294.68945
294.36192
294.13698
293.98404
293.88112
293.81263
293.76759
293.7384
293.71978
293.70814
293.70101
293.69677
293.69431
293.69292
293.69218
293.69178
293.69158
293.69149
293.69144
293.69142
293.69141
293.69141
404.61188
390.90142
378.19389
366.3642
355.3737
345.24524
336.03953
327.82968
320.67518
314.60014
309.58084
305.54555
302.38494
299.96828
298.15992
296.83222
295.87341
295.19091
294.71116
294.37772
294.14836
293.99216
293.88685
293.81661
293.77032
293.74022
293.72096
293.70887
293.70143
293.69698
293.69438
293.69291
293.6921
293.69168
293.69146
293.69135
293.6913
293.69128
293.69127
293.69127
404.72026
391.03542
378.35136
366.5421
355.56776
345.44979
336.24771
328.03397
320.86834
314.77612
309.7355
305.67697
302.49325
300.05515
298.22798
296.88449
295.91289
295.2203
294.73279
294.39347
294.15972
294.00027
293.89258
293.82061
293.77307
293.74207
293.72217
293.70962
293.70187
293.6972
293.69445
293.69289
293.69203
293.69158
293.69134
293.69122
293.69116
293.69114
293.69113
293.69113
404.82649
391.16676
378.50572
366.71653
355.75809
345.65052
336.45214
328.23479
321.05843
314.94952
309.88811
305.80683
302.60041
300.14122
298.29549
296.93639
295.95213
295.24954
294.75433
294.40917
294.17105
294.00838
293.89832
293.82463
293.77583
293.74393
293.72338
293.71038
293.70231
293.69743
293.69454
293.69289
293.69197
293.69148
293.69122
293.69109
293.69103
293.691
293.69099
293.69098
404.93064
391.29554
378.65708
366.88759
355.94483
345.84756
336.65296
328.43224
321.24555
315.12042
310.03871
305.93516
302.70646
300.22649
298.36246
296.98794
295.99113
295.27865
294.77578
294.42482
294.18236
294.01648
293.90407
293.82865
293.77861
293.74581
293.72462
293.71116
293.70278
293.69767
293.69464
293.69289
293.69191
293.69138
293.6911
293.69096
293.69089
293.69086
293.69085
293.69084
405.03278
391.42185
378.80554
367.05543
356.12809
346.04104
336.85029
328.62643
321.42977
315.28889
310.18737
306.062
302.81141
300.31099
298.42891
297.03913
296.02991
295.3076
294.79714
294.44042
294.19365
294.02457
293.90981
293.83268
293.7814
293.7477
293.72587
293.71195
293.70325
293.69792
293.69474
293.6929
293.69186
293.69129
293.69099
293.69083
293.69076
293.69072
293.69071
293.6907
405.13299
391.54577
378.95121
367.22013
356.308
346.23106
337.04423
328.81746
321.61119
315.45499
310.33413
306.18739
302.91529
300.39474
298.49483
297.08998
296.06847
295.33642
294.81842
294.45597
294.20491
294.03265
293.91556
293.83673
293.7842
293.74961
293.72714
293.71276
293.70373
293.69819
293.69486
293.69291
293.69181
293.6912
293.69087
293.69071
293.69062
293.69058
293.69057
293.69056
405.23133
391.66739
379.09419
367.38181
356.48466
346.41775
337.2349
329.00542
321.78989
315.6188
310.47904
306.31135
303.01813
300.47774
298.56024
297.14049
296.1068
295.3651
294.83962
294.47147
294.21615
294.04073
293.92131
293.84078
293.78702
293.75153
293.72842
293.71358
293.70423
293.69846
293.69498
293.69293
293.69176
293.69111
293.69076
293.69058
293.69049
293.69044
293.69043
293.69042
405.32786
391.78677
379.23456
367.54058
356.65819
346.60121
337.4224
329.19042
321.96594
315.78036
310.62215
306.43393
303.11995
300.56002
298.62516
297.19067
296.14492
295.39364
294.86073
294.48693
294.22736
294.04879
293.92706
293.84484
293.78984
293.75347
293.72971
293.71442
293.70474
293.69874
293.69511
293.69296
293.69172
293.69103
293.69065
293.69046
293.69036
293.69031
293.69029
293.69028
405.42265
391.90401
379.37241
367.69652
356.82868
346.78155
337.60681
329.37253
322.13942
315.93974
310.76349
306.55516
303.22076
300.64158
298.68958
297.24051
296.18282
295.42204
294.88176
294.50234
294.23855
294.05685
293.93281
293.8489
293.79268
293.75542
293.73102
293.71526
293.70527
293.69904
293.69524
293.69299
293.69168
293.69095
293.69055
293.69033
293.69022
293.69017
293.69015
293.69014
405.51575
392.01916
379.50782
367.84972
356.99623
346.95886
337.78825
329.55184
322.3104
316.09701
310.90313
306.67505
303.32059
300.72245
298.75352
297.29004
296.22051
295.45031
294.9027
294.5177
294.24971
294.0649
293.93856
293.85297
293.79553
293.75737
293.73233
293.71612
293.7058
293.69934
293.69539
293.69303
293.69165
293.69087
293.69044
293.69021
293.69009
293.69004
293.69001
293.69001
405.60722
392.1323
379.64087
368.00028
357.16094
347.13323
337.96679
329.72843
322.47894
316.2522
311.04108
306.79366
303.41947
300.80263
298.81699
297.33924
296.258
295.47845
294.92357
294.53301
294.26085
294.07293
293.94431
293.85704
293.79838
293.75934
293.73366
293.717
293.70634
293.69966
293.69554
293.69307
293.69163
293.6908
293.69034
293.69009
293.68997
293.6899
293.68988
293.68987
405.69711
392.24348
379.77163
368.14828
357.32288
347.30475
338.14252
329.90237
322.64512
316.40538
311.1774
306.911
303.5174
300.88214
298.87999
297.38814
296.29528
295.50646
294.94435
294.54827
294.27196
294.08095
293.95006
293.86112
293.80124
293.76132
293.73501
293.71788
293.7069
293.69998
293.6957
293.69312
293.6916
293.69073
293.69024
293.68998
293.68984
293.68977
293.68974
293.68974
405.78546
392.35278
379.90018
368.2938
357.48216
347.47351
338.31552
330.07375
322.809
316.55659
311.31213
307.0271
303.61442
300.96099
298.94254
297.43673
296.33236
295.53434
294.96506
294.56349
294.28305
294.08897
293.9558
293.86521
293.80412
293.76331
293.73636
293.71877
293.70746
293.70031
293.69587
293.69318
293.69159
293.69067
293.69015
293.68986
293.68971
293.68964
293.68961
293.6896
405.87233
392.46024
380.02659
368.4369
357.63884
347.6396
338.48588
330.24263
322.97063
316.70588
311.4453
307.14199
303.71053
301.0392
299.00464
297.48501
296.36924
295.56209
294.98568
294.57867
294.29411
294.09697
293.96154
293.86929
293.80699
293.76531
293.73772
293.71967
293.70804
293.70065
293.69605
293.69325
293.69158
293.6906
293.69005
293.68975
293.68959
293.68951
293.68948
293.68947
405.95776
392.56592
380.15092
368.57768
357.793
347.80308
338.65366
330.40908
323.13008
316.85331
311.57694
307.25569
303.80576
301.11677
299.0663
297.533
296.40593
295.58972
295.00623
294.59379
294.30515
294.10496
293.96728
293.87338
293.80988