/*--------------------------------*- C++ -*----------------------------------*\
| =========                 |                                                 |
| \\      /  F ield         | OpenFOAM: The Open Source CFD Toolbox           |
|  \\    /   O peration     | Version:  3.0.1                                 |
|   \\  /    A nd           | Web:      www.OpenFOAM.org                      |
|    \\/     M anipulation  |                                                 |
\*---------------------------------------------------------------------------*/
FoamFile
{
    version     2.0;
    format      ascii;
    class       volVectorField;
    location    "2248";
    object      U;
}
// * * * * * * * * * * * * * * * * * * * * * * * * * * * * * * * * * * * * * //

dimensions      [0 1 -1 0 0 0 0];

internalField   nonuniform List<vector> 
4000
(
(0.0002885343 -1.3284639e-18 0.06785968)
(0.00067342894 -2.8526985e-18 0.15240101)
(0.0011905443 -4.3328556e-18 0.20452972)
(0.0013535112 -5.9976653e-18 0.23419073)
(0.001341453 -6.3738497e-18 0.2491501)
(0.0012360602 -6.6365991e-18 0.25489601)
(0.0011100424 -6.9079139e-18 0.25505003)
(0.00099335182 -7.1920766e-18 0.25187127)
(0.00089604585 -6.5469925e-18 0.24670349)
(0.00081701113 -6.0468937e-18 0.24031739)
(0.00075206863 -5.5848292e-18 0.23314766)
(0.00069683848 -5.2363935e-18 0.2254437)
(0.00064795961 -4.92298e-18 0.21735896)
(0.00060313579 -4.680731e-18 0.20900058)
(0.00056092763 -4.5179248e-18 0.20045527)
(0.00052047484 -4.4583216e-18 0.19180171)
(0.00048128835 -4.4458733e-18 0.18311576)
(0.00044310805 -5.6640276e-18 0.17447185)
(0.00040581722 -7.1058417e-18 0.16594244)
(0.00036939267 -8.754217e-18 0.15759653)
(0.00033387675 -1.0676201e-17 0.14949761)
(0.00029935725 -1.2917962e-17 0.14170132)
(0.00026595586 -1.3721089e-17 0.134253)
(0.00023382049 -1.1357755e-17 0.12718511)
(0.00020311801 -1.0847741e-17 0.12051462)
(0.00017402734 -9.0289386e-18 0.11424035)
(0.00014673784 -7.3916694e-18 0.10834026)
(0.00012144148 -7.3256132e-18 0.1027688)
(9.8331055e-05 -7.492458e-18 0.097454187)
(7.7589147e-05 -7.9181671e-18 0.092296027)
(5.9384701e-05 -7.5371958e-18 0.087163324)
(4.3844891e-05 -5.264632e-18 0.081893516)
(3.1058129e-05 -3.249745e-18 0.07629312)
(2.1001714e-05 -1.4152454e-18 0.070140911)
(1.3590334e-05 2.6923377e-19 0.063194335)
(8.4998241e-06 1.8211677e-18 0.055199694)
(5.3972476e-06 2.0322164e-18 0.045905083)
(3.4830482e-06 1.1095174e-18 0.035074013)
(2.3804693e-06 9.8915391e-19 0.022493817)
(8.7599561e-07 3.0571616e-19 0.0079731144)
(-1.6625054e-05 -1.7496917e-18 0.073688857)
(-0.00029294944 -3.4838229e-18 0.16473891)
(-0.00059058599 -5.2893328e-18 0.21873515)
(-0.00090300342 -7.2918867e-18 0.24673583)
(-0.0011535469 -6.9282854e-18 0.25839908)
(-0.0013145826 -6.7767844e-18 0.26077644)
(-0.0013735681 -6.8040707e-18 0.25827272)
(-0.0013433037 -6.8357293e-18 0.25330891)
(-0.0012480712 -6.5390552e-18 0.24708452)
(-0.0011144255 -6.0867955e-18 0.2401477)
(-0.00096444074 -5.7603512e-18 0.23273857)
(-0.00081377018 -5.7172665e-18 0.22496899)
(-0.00067201709 -5.0569715e-18 0.21690647)
(-0.00054421382 -4.7077895e-18 0.20860907)
(-0.00043234899 -4.4389882e-18 0.20013747)
(-0.00033660181 -3.9933434e-18 0.19155748)
(-0.00025618105 -4.0808862e-18 0.18293914)
(-0.00018984122 -5.7144887e-18 0.17435456)
(-0.00013616731 -7.485046e-18 0.16587561)
(-9.3716408e-05 -8.9071296e-18 0.15757145)
(-6.1084588e-05 -1.0845629e-17 0.14950608)
(-3.6933824e-05 -1.3365949e-17 0.14173581)
(-1.9996011e-05 -1.3801635e-17 0.1343067)
(-9.0776224e-06 -1.142931e-17 0.12725196)
(-3.0578126e-06 -1.1139156e-17 0.12058928)
(-8.8410556e-07 -9.0813482e-18 0.11431819)
(-1.5710268e-06 -7.419396e-18 0.10841732)
(-4.1992211e-06 -7.3458483e-18 0.10284174)
(-7.915194e-06 -7.5088055e-18 0.09752031)
(-1.1937699e-05 -7.9124623e-18 0.092353221)
(-1.5562299e-05 -7.2547231e-18 0.087210105)
(-1.8194846e-05 -5.0519868e-18 0.081929057)
(-1.9362416e-05 -3.2326463e-18 0.076317317)
(-1.8796607e-05 -1.4202348e-18 0.070154436)
(-1.6427135e-05 2.6066337e-19 0.063198706)
(-1.2554229e-05 1.8077489e-18 0.055197245)
(-7.7003665e-06 1.9108864e-18 0.045898927)
(-2.9978145e-06 1.1949436e-18 0.035067705)
(5.0318562e-07 1.0051101e-18 0.022490589)
(8.5158567e-07 2.7647704e-19 0.0079763038)
(-2.6044483e-05 -1.2373784e-18 0.080437238)
(-0.00037577179 -3.158854e-18 0.18004621)
(-0.00085837446 -4.8215939e-18 0.23786411)
(-0.0013742994 -6.0909819e-18 0.26536202)
(-0.0018205265 -6.5201314e-18 0.27366358)
(-0.0021415672 -6.6440443e-18 0.27160269)
(-0.0023115693 -6.8373994e-18 0.26493624)
(-0.0023376951 -6.8193885e-18 0.25674536)
(-0.0022483359 -6.4738577e-18 0.24834242)
(-0.002080455 -5.9844803e-18 0.24010369)
(-0.0018690511 -5.1904813e-18 0.23201589)
(-0.0016417978 -5.418103e-18 0.22396219)
(-0.0014177018 -5.0995586e-18 0.2158416)
(-0.0012081868 -4.7409685e-18 0.2076026)
(-0.0010190389 -4.4814816e-18 0.19924101)
(-0.00085233264 -4.2967506e-18 0.19078728)
(-0.00070794652 -4.5967292e-18 0.18229365)
(-0.00058459723 -5.8623307e-18 0.1738241)
(-0.00048047129 -7.5241817e-18 0.16544738)
(-0.00039357789 -9.383049e-18 0.15723194)
(-0.00032192516 -1.0591021e-17 0.14924218)
(-0.00026359804 -1.2755837e-17 0.14153532)
(-0.00021678933 -1.2860549e-17 0.13415849)
(-0.00017980563 -1.1550544e-17 0.12714605)
(-0.00015106578 -1.084902e-17 0.12051681)
(-0.00012909609 -9.1049327e-18 0.11427139)
(-0.00011252414 -7.6324399e-18 0.10838944)
(-0.00010007638 -7.3934055e-18 0.102827)
(-9.057434e-05 -7.5065558e-18 0.097513795)
(-8.2942242e-05 -7.7138523e-18 0.092350878)
(-7.6211943e-05 -6.9570547e-18 0.087208699)
(-6.9555985e-05 -4.779127e-18 0.081926178)
(-6.2307915e-05 -3.1907547e-18 0.076311407)
(-5.4042088e-05 -1.4204116e-18 0.070144834)
(-4.4587636e-05 2.3755684e-19 0.063185677)
(-3.4175135e-05 1.6332722e-18 0.055181974)
(-2.3361085e-05 1.6790954e-18 0.045883469)
(-1.3226722e-05 1.2523157e-18 0.035054795)
(-5.1875557e-06 1.0014588e-18 0.022483575)
(-8.9358712e-07 2.9980412e-19 0.0079753268)
(-2.2861201e-05 -7.9977575e-19 0.086461299)
(-0.00034992652 -2.554529e-18 0.19456471)
(-0.00085122924 -4.0176948e-18 0.25739747)
(-0.0014335469 -4.9073744e-18 0.28611193)
(-0.001989867 -6.2194146e-18 0.29239798)
(-0.0024423679 -7.4460562e-18 0.28639059)
(-0.0027408279 -6.9506866e-18 0.27525684)
(-0.0028717755 -6.7512584e-18 0.26308094)
(-0.0028520131 -6.496485e-18 0.2516338)
(-0.0027163419 -6.0565773e-18 0.24133657)
(-0.0025046302 -5.4794645e-18 0.23200616)
(-0.0022528534 -4.8986549e-18 0.22329472)
(-0.0019887725 -4.9645339e-18 0.21489233)
(-0.001731226 -4.7554367e-18 0.20659074)
(-0.0014914163 -4.5860415e-18 0.19828161)
(-0.0012749102 -4.6479059e-18 0.18993241)
(-0.001083563 -5.2955852e-18 0.18156028)
(-0.00091702847 -6.0726058e-18 0.17321125)
(-0.00077379428 -7.2761804e-18 0.1649457)
(-0.00065181667 -9.2061754e-18 0.15682878)
(-0.00054887739 -1.0591139e-17 0.14892412)
(-0.0004627629 -1.1860547e-17 0.14128927)
(-0.00039134705 -1.219691e-17 0.13397227)
(-0.00033261934 -1.1715334e-17 0.12700856)
(-0.0002846942 -1.0426506e-17 0.12041809)
(-0.00024580991 -9.1091595e-18 0.11420262)
(-0.00021432119 -7.9966847e-18 0.10834292)
(-0.00018869864 -7.4745205e-18 0.10279606)
(-0.00016752603 -7.4780169e-18 0.097492784)
(-0.00014950511 -7.4327526e-18 0.092335105)
(-0.00013346628 -6.7592235e-18 0.087194426)
(-0.00011840107 -4.7391613e-18 0.081910631)
(-0.00010348731 -3.1544415e-18 0.076292814)
(-8.8165828e-05 -1.4201273e-18 0.070122463)
(-7.2172552e-05 1.9268883e-19 0.06315987)
(-5.565176e-05 1.3645382e-18 0.055154117)
(-3.9161418e-05 1.6218412e-18 0.045855902)
(-2.3682495e-05 1.2476938e-18 0.035030541)
(-1.080814e-05 8.343019e-19 0.022465858)
(-1.9015612e-06 3.0964527e-19 0.007965803)
(-2.0232661e-05 -9.7586951e-19 0.091662066)
(-0.00031537865 -2.4995011e-18 0.20755657)
(-0.00079154664 -3.820611e-18 0.2756738)
(-0.0013745587 -4.8656317e-18 0.30664587)
(-0.0019706889 -5.7873733e-18 0.31218995)
(-0.002498409 -6.6967243e-18 0.3031947)
(-0.0028931166 -6.9072732e-18 0.28797882)
(-0.0031222544 -6.655081e-18 0.27168403)
(-0.0031860362 -6.4355234e-18 0.25675156)
(-0.0031092773 -6.2189927e-18 0.24386184)
(-0.0029291527 -6.2443326e-18 0.2328044)
(-0.0026844468 -5.4132039e-18 0.22306345)
(-0.0024086361 -5.1820517e-18 0.21412751)
(-0.0021269156 -4.9229618e-18 0.20561079)
(-0.0018560601 -4.7431137e-18 0.19727206)
(-0.00160582 -4.9286655e-18 0.18899001)
(-0.0013808172 -5.4568574e-18 0.18072769)
(-0.0011823146 -6.2939096e-18 0.17250081)
(-0.0010095927 -7.4310134e-18 0.16435419)
(-0.00086088934 -8.7941656e-18 0.15634581)
(-0.00073397778 -1.0817538e-17 0.14853654)
(-0.00062649153 -1.1723597e-17 0.14098344)
(-0.00053608752 -1.2328269e-17 0.13373506)
(-0.00046051844 -1.1556021e-17 0.12682779)
(-0.00039766326 -1.0376509e-17 0.12028276)
(-0.00034553278 -9.1186469e-18 0.11410288)
(-0.0003022688 -8.0664333e-18 0.10827012)
(-0.0002661419 -7.5387148e-18 0.10274267)
(-0.00023554919 -7.4486751e-18 0.097452367)
(-0.00020902133 -7.3101418e-18 0.0923023)
(-0.00018523391 -6.6378677e-18 0.087164922)
(-0.00016303763 -5.0351048e-18 0.081881186)
(-0.00014149429 -3.1506643e-18 0.076261291)
(-0.00011994262 -1.4218928e-18 0.070087874)
(-9.8052637e-05 1.5070103e-19 0.0631224)
(-7.5903014e-05 1.2790138e-18 0.055115085)
(-5.406249e-05 1.6834882e-18 0.045817643)
(-3.3445701e-05 1.2305371e-18 0.034996125)
(-1.5768164e-05 7.3455749e-19 0.02243866)
(-2.5126189e-06 2.60575e-19 0.0079502292)
(-1.8532235e-05 -1.4242603e-18 0.096288585)
(-0.00028779408 -2.9853408e-18 0.21930867)
(-0.00073403181 -4.4524096e-18 0.29261397)
(-0.0012975372 -6.0526072e-18 0.32634745)
(-0.001899547 -5.7273844e-18 0.33203114)
(-0.0024639563 -5.4806413e-18 0.32093403)
(-0.0029217908 -6.356325e-18 0.30222643)
(-0.0032283527 -6.555994e-18 0.28200707)
(-0.0033693045 -6.5309235e-18 0.26345699)
(-0.0033573759 -6.2725749e-18 0.24765764)
(-0.0032227688 -6.166589e-18 0.23450444)
(-0.0030026009 -6.0981864e-18 0.2234016)
(-0.0027326307 -5.4147555e-18 0.21367587)
(-0.0024424129 -5.1105011e-18 0.20476901)
(-0.0021535399 -5.0090482e-18 0.1962936)
(-0.0018799973 -5.1980464e-18 0.18802048)
(-0.0016296037 -5.3416261e-18 0.17984108)
(-0.0014057492 -6.4807156e-18 0.17172762)
(-0.0012089583 -7.928897e-18 0.16370064)
(-0.0010380854 -9.1098982e-18 0.15580582)
(-0.00089112362 -1.0748884e-17 0.14809851)
(-0.00076569868 -1.1950032e-17 0.14063387)
(-0.00065934311 -1.2296556e-17 0.13346035)
(-0.0005696352 -1.1228787e-17 0.12661504)
(-0.00049426214 -1.0541329e-17 0.12012017)
(-0.0004310404 -9.1294055e-18 0.11397986)
(-0.00037792583 -7.9341012e-18 0.10817729)
(-0.00033301239 -7.5644029e-18 0.10267187)
(-0.00029453155 -7.4343867e-18 0.097396604)
(-0.000260862 -7.317936e-18 0.092255718)
(-0.00023054005 -6.4970609e-18 0.087122804)
(-0.00020229271 -5.051503e-18 0.08183996)
(-0.00017507668 -3.1464643e-18 0.076218572)
(-0.00014813881 -1.4237391e-18 0.070042498)
(-0.00012109106 1.2558046e-19 0.063074445)
(-9.3954315e-05 1.3291893e-18 0.05506583)
(-6.7297827e-05 1.6037352e-18 0.045769422)
(-4.2000824e-05 1.2333112e-18 0.034952073)
(-1.9871027e-05 8.2749259e-19 0.022402585)
(-2.8528288e-06 2.2678961e-19 0.0079295705)
(-1.7170409e-05 -1.0163427e-18 0.1004718)
(-0.00026525747 -1.8326062e-18 0.2300501)
(-0.0006834835 -3.6346143e-18 0.30834064)
(-0.0012221901 -4.9283962e-18 0.34506304)
(-0.0018150137 -5.5451944e-18 0.3514656)
(-0.0023936715 -5.8159447e-18 0.33897427)
(-0.002890302 -6.3784647e-18 0.31736647)
(-0.0032540037 -6.9187706e-18 0.29355409)
(-0.0034598422 -6.5704875e-18 0.27144392)
(-0.0035095125 -6.2154338e-18 0.25259022)
(-0.0034248334 -6.0111611e-18 0.2370926)
(-0.0032385543 -6.0094484e-18 0.2243594)
(-0.0029858952 -5.6092014e-18 0.2136089)
(-0.0026985982 -5.2678258e-18 0.20413335)
(-0.0024018049 -5.1960277e-18 0.19540048)
(-0.0021132636 -5.3702924e-18 0.1870632)
(-0.0018440403 -5.7111837e-18 0.17892774)
(-0.0015999502 -6.503333e-18 0.17091049)
(-0.0013831172 -7.3565525e-18 0.1629985)
(-0.001193319 -8.795551e-18 0.15521901)
(-0.0010289961 -1.0945767e-17 0.14761825)
(-0.00088791971 -1.1766667e-17 0.14024754)
(-0.00076759734 -1.1943951e-17 0.13315423)
(-0.00066549515 -1.1198016e-17 0.12637575)
(-0.00057914864 -1.0376131e-17 0.11993522)
(-0.00050621159 -9.138525e-18 0.11383795)
(-0.00044447626 -8.0615343e-18 0.10806838)
(-0.00039187808 -7.6190283e-18 0.10258719)
(-0.00034650116 -7.5784366e-18 0.097328621)
(-0.00030658537 -7.176798e-18 0.092198121)
(-0.00027054148 -6.0870424e-18 0.08707049)
(-0.00023698343 -4.9010863e-18 0.081789056)
(-0.00020477166 -3.1252972e-18 0.076166467)
(-0.00017307044 -1.4240624e-18 0.06998788)
(-0.00014143536 1.0744144e-19 0.063017312)
(-0.00010983778 1.3416557e-18 0.055007443)
(-7.8838354e-05 1.4109648e-18 0.045712153)
(-4.9313105e-05 1.2178667e-18 0.034899202)
(-2.3151149e-05 7.9424253e-19 0.022358623)
(-3.0082028e-06 2.4179634e-19 0.0079049398)
(-1.6060139e-05 -2.0784859e-20 0.10430573)
(-0.00024666249 -1.3381479e-18 0.23996645)
(-0.00064003782 -2.2756381e-18 0.32301508)
(-0.0011537115 -2.1160305e-18 0.36281145)
(-0.0017310114 -4.4029552e-18 0.3703114)
(-0.0023113438 -5.5304869e-18 0.35696757)
(-0.0028303769 -6.1590268e-18 0.33298352)
(-0.0032348812 -6.552917e-18 0.30594498)
(-0.0034929266 -6.5132838e-18 0.28043292)
(-0.0035972834 -6.0963362e-18 0.25849868)
(-0.003561661 -5.7574124e-18 0.24050907)
(-0.003413268 -5.2766336e-18 0.2259446)
(-0.0031849108 -5.5160641e-18 0.21396832)
(-0.0029086566 -5.4620825e-18 0.20375468)
(-0.0026118031 -5.5688149e-18 0.19463868)
(-0.0023150754 -6.0796692e-18 0.18615384)
(-0.0020325277 -6.7615149e-18 0.17801289)
(-0.0017724776 -6.8744571e-18 0.17006635)
(-0.0015388768 -7.3225727e-18 0.16225889)
(-0.0013326854 -8.867827e-18 0.15459279)
(-0.0011530067 -1.051644e-17 0.14710091)
(-0.00099791869 -1.0802623e-17 0.13982819)
(-0.00086501009 -1.1056736e-17 0.13281961)
(-0.00075170222 -1.1168347e-17 0.12611222)
(-0.00065542417 -9.7502438e-18 0.1197298)
(-0.00057369416 -9.100841e-18 0.11367876)
(-0.00050416152 -8.3721681e-18 0.10794479)
(-0.00044462072 -7.6832049e-18 0.10248987)
(-0.00039302014 -7.4678848e-18 0.097249552)
(-0.00034747297 -6.8820888e-18 0.092130557)
(-0.00030627456 -6.032e-18 0.087008972)
(-0.00026793293 -4.9624954e-18 0.081729426)
(-0.00023122043 -3.1185071e-18 0.076105897)
(-0.00019522402 -1.4276379e-18 0.069924911)
(-0.00015944531 6.4977903e-20 0.062951864)
(-0.00012381391 1.0834923e-18 0.054940758)
(-8.8874286e-05 1.3557312e-18 0.045646646)
(-5.5526868e-05 1.1699618e-18 0.034838351)
(-2.5748572e-05 7.0148784e-19 0.022307806)
(-3.053221e-06 2.6248932e-19 0.0078772748)
(-1.5123852e-05 -1.1898916e-18 0.10785561)
(-0.00023102411 -3.063087e-18 0.24919692)
(-0.00060256372 -3.6795996e-18 0.33678145)
(-0.00109261 -4.7511335e-18 0.3796626)
(-0.0016520472 -4.7803317e-18 0.38850931)
(-0.002227094 -5.3255223e-18 0.37472487)
(-0.0027577754 -5.701558e-18 0.34880845)
(-0.0031908046 -5.6712879e-18 0.31889947)
(-0.0034899572 -6.1089377e-18 0.2901893)
(-0.0036412117 -6.0546064e-18 0.26522316)
(-0.0036511691 -5.9578941e-18 0.24467089)
(-0.0035413229 -6.1117826e-18 0.22813531)
(-0.0033410515 -5.72806e-18 0.21477065)
(-0.003081385 -5.6702018e-18 0.20366706)
(-0.0027905138 -5.6690572e-18 0.19404504)
(-0.0024912438 -5.6972226e-18 0.18532414)
(-0.0022001462 -6.4318342e-18 0.17712057)
(-0.0019279212 -7.2682151e-18 0.16921193)
(-0.0016804452 -8.4033234e-18 0.1614929)
(-0.0014600432 -9.4971e-18 0.15393439)
(-0.0012666742 -1.0114139e-17 0.14655124)
(-0.0010988769 -1.1025512e-17 0.13937911)
(-0.0009544337 -1.0994568e-17 0.13245883)
(-0.00083079619 -1.0897164e-17 0.12582624)
(-0.00072533306 -1.0016949e-17 0.11950534)
(-0.00063545989 -9.0966054e-18 0.11350345)
(-0.00055870341 -8.3679916e-18 0.10780749)
(-0.00049273162 -7.7036766e-18 0.10238075)
(-0.00043537103 -7.22937e-18 0.097160138)
(-0.00038461738 -6.8062226e-18 0.09205371)
(-0.00033865905 -5.936857e-18 0.086938902)
(-0.00029590801 -4.6164815e-18 0.081661705)
(-0.0002550525 -3.0821791e-18 0.076037497)
(-0.00021510935 -1.4299135e-18 0.069854236)
(-0.0001755269 1.431781e-20 0.062878754)
(-0.00013619918 8.9985451e-19 0.054866435)
(-9.7650902e-05 1.2966137e-18 0.045573579)
(-6.0830183e-05 1.2111107e-18 0.034770271)
(-2.7820166e-05 7.0381246e-19 0.02225105)
(-3.0397164e-06 2.0461051e-19 0.0078472674)
(-1.4319137e-05 -1.4353546e-18 0.11116909)
(-0.00021766217 -1.916863e-18 0.25784769)
(-0.00056998214 -3.6286166e-18 0.34976035)
(-0.0010382608 -5.2733359e-18 0.39569763)
(-0.0015793535 -5.1715429e-18 0.40605646)
(-0.0021453151 -5.4513198e-18 0.39214631)
(-0.0026806175 -5.9249107e-18 0.36466779)
(-0.0031331665 -6.4757266e-18 0.33221469)
(-0.00346432 -6.3023776e-18 0.30052463)
(-0.0036550594 -6.0963191e-18 0.27261897)
(-0.0037060611 -5.946057e-18 0.24948813)
(-0.0036334607 -6.0584471e-18 0.230892)
(-0.0034628165 -5.9425638e-18 0.21601353)
(-0.0032232555 -5.8162204e-18 0.20388962)
(-0.0029428563 -5.8761813e-18 0.19364694)
(-0.002645642 -5.9876112e-18 0.18460097)
(-0.0023501297 -6.2806543e-18 0.1762728)
(-0.002069138 -7.2002711e-18 0.1683634)
(-0.0018104363 -7.9155942e-18 0.16071157)
(-0.0015778175 -9.0955603e-18 0.153251)
(-0.0013722456 -1.0525819e-17 0.14597388)
(-0.0011928626 -1.1332419e-17 0.13890327)
(-0.0010377569 -1.1541726e-17 0.1320739)
(-0.00090448976 -1.0594719e-17 0.12551922)
(-0.00079042171 -1.0150318e-17 0.11926285)
(-0.00069289631 -9.0970899e-18 0.11331281)
(-0.00060934077 -8.1469506e-18 0.1076571)
(-0.00053731403 -7.7084997e-18 0.10226036)
(-0.00047452959 -7.4129717e-18 0.097060843)
(-0.00041887622 -6.9228476e-18 0.091968012)
(-0.00036844449 -5.8788403e-18 0.086860699)
(-0.00032155566 -4.5855959e-18 0.081586321)
(-0.00027682036 -3.0452913e-18 0.075961711)
(-0.00023319035 -1.429765e-18 0.069776321)
(-0.00019006388 -5.7709549e-21 0.062798477)
(-0.00014730453 1.1255213e-18 0.054785)
(-0.00010541363 1.2612808e-18 0.045493521)
(-6.5407745e-05 1.0635007e-18 0.034695619)
(-2.9500212e-05 7.5222461e-19 0.022189133)
(-2.9990708e-06 2.2624685e-19 0.0078154241)
(-1.361665e-05 -1.3712326e-20 0.11428216)
(-0.00020608934 -1.2989623e-18 0.26600131)
(-0.00054140262 -2.2116134e-18 0.36205118)
(-0.00098979906 -2.3141398e-18 0.41099492)
(-0.0015129339 -4.0456961e-18 0.4229754)
(-0.0020678151 -5.1867418e-18 0.40918258)
(-0.0026031362 -5.8699486e-18 0.38044993)
(-0.0030686428 -6.3267234e-18 0.34574462)
(-0.0034245362 -6.2580737e-18 0.31129075)
(-0.0036482006 -6.0370234e-18 0.28056141)
(-0.0037355024 -5.7707994e-18 0.25487328)
(-0.0036978024 -5.3570817e-18 0.23416647)
(-0.003556838 -5.8382159e-18 0.21768162)
(-0.0033393625 -6.0051341e-18 0.20442936)
(-0.0030726206 -6.2218138e-18 0.1934629)
(-0.0027811127 -6.8753313e-18 0.18400595)
(-0.0024847174 -7.4217894e-18 0.1754892)
(-0.0021980184 -7.5159442e-18 0.16753615)
(-0.0019305455 -8.1141032e-18 0.15992585)
(-0.0016875815 -9.1222688e-18 0.15254995)
(-0.0014711953 -1.0177999e-17 0.1453735)
(-0.0012812535 -1.0333681e-17 0.13840366)
(-0.0011162568 -1.0591394e-17 0.13166673)
(-0.00097395644 -1.0674639e-17 0.1251924)
(-0.00085175929 -9.5696506e-18 0.11900321)
(-0.00074697576 -9.0513521e-18 0.11310744)
(-0.00065695645 -8.4021857e-18 0.10749409)
(-0.00057916352 -7.7305338e-18 0.10212905)
(-0.00051121134 -7.3396377e-18 0.096951976)
(-0.00045089089 -6.671041e-18 0.091873743)
(-0.00039620054 -5.817363e-18 0.08677464)
(-0.00034537868 -4.7650392e-18 0.08150356)
(-0.00029696301 -3.0346659e-18 0.07587885)
(-0.00024984521 -1.4326612e-18 0.069691509)
(-0.00020337452 -4.7565279e-20 0.062711408)
(-0.00015739034 8.9229756e-19 0.054696864)
(-0.00011237246 1.205618e-18 0.045406936)
(-6.9417585e-05 1.0453983e-18 0.034614947)
(-3.0897199e-05 6.5520771e-19 0.022122687)
(-2.9502796e-06 2.4846823e-19 0.0077820992)
(-1.2996208e-05 -6.6673405e-19 0.11722271)
(-0.00019595018 -2.6301255e-18 0.27372319)
(-0.00051611967 -2.8585988e-18 0.37373587)
(-0.00094639397 -3.1962602e-18 0.42562557)
(-0.0014523495 -4.0514322e-18 0.43929937)
(-0.0019952011 -5.0457412e-18 0.42581337)
(-0.002527523 -5.7802605e-18 0.3960834)
(-0.0030011995 -6.3956262e-18 0.3593841)
(-0.0033761083 -6.1204393e-18 0.32237226)
(-0.0036270946 -5.9571895e-18 0.28894575)
(-0.0037461731 -5.7891912e-18 0.26074589)
(-0.003740564 -5.6799689e-18 0.23790775)
(-0.0036283956 -5.9269747e-18 0.21975157)
(-0.0034338606 -6.1426546e-18 0.20528406)
(-0.0031829008 -6.4483715e-18 0.19350372)
(-0.0028999089 -6.9266425e-18 0.18355549)
(-0.0026055857 -7.4588566e-18 0.17478652)
(-0.0023158938 -7.9259929e-18 0.1667444)
(-0.0020419196 -8.9038666e-18 0.15914646)
(-0.0017903839 -9.6297126e-18 0.15183864)
(-0.0015645108 -9.7840998e-18 0.14475497)
(-0.0013649834 -1.029294e-17 0.13788335)
(-0.0011908102 -1.0481913e-17 0.13123924)
(-0.0010400119 -1.0421999e-17 0.12484702)
(-0.00091010104 -9.6306113e-18 0.11872721)
(-0.00079839125 -9.00965e-18 0.1128879)
(-0.00070218178 -8.3745737e-18 0.10731886)
(-0.00061885627 -7.7099295e-18 0.10198714)
(-0.00054594041 -7.1077677e-18 0.096833777)
(-0.00048113545 -6.6144428e-18 0.091771117)
(-0.00042235437 -5.9444592e-18 0.08668093)
(-0.00036775886 -4.6660291e-18 0.081413637)
(-0.00031581764 -3.0165437e-18 0.075789149)
(-0.00026536715 -1.438471e-18 0.06960006)
(-0.0002157106 -9.9721978e-20 0.062617839)
(-0.00016666496 6.9647974e-19 0.054602356)
(-0.00011869444 1.2292651e-18 0.045314202)
(-7.2984999e-05 1.0448502e-18 0.034528719)
(-3.2087698e-05 6.4909645e-19 0.022052222)
(-2.9014213e-06 2.2160507e-19 0.0077475361)
(-1.2442742e-05 -1.8050306e-18 0.12001289)
(-0.00018697933 -3.0998877e-18 0.28106606)
(-0.00049357853 -4.400852e-18 0.38488243)
(-0.00090731998 -6.0452719e-18 0.43965255)
(-0.0013970318 -5.2699622e-18 0.45506511)
(-0.0019275186 -5.3041855e-18 0.4420351)
(-0.0024548691 -5.6841838e-18 0.41152306)
(-0.0029332064 -6.135472e-18 0.37305723)
(-0.0033226311 -6.1994918e-18 0.33367951)
(-0.0035962376 -6.0469113e-18 0.29768522)
(-0.0037429771 -6.1036041e-18 0.26703434)
(-0.0037665306 -6.4980094e-18 0.2420658)
(-0.0036817293 -6.2079534e-18 0.22219566)
(-0.0035102002 -6.2707688e-18 0.2064449)
(-0.0032763104 -6.4440543e-18 0.19377379)
(-0.0030039163 -6.4727212e-18 0.18326114)
(-0.002714083 -6.9223708e-18 0.17417849)
(-0.0024237694 -8.0842677e-18 0.16600085)
(-0.0021453711 -9.1749473e-18 0.15838359)
(-0.0018869433 -9.6684845e-18 0.15112447)
(-0.0016528645 -1.0096059e-17 0.14412328)
(-0.0014446933 -1.113315e-17 0.13734554)
(-0.0012620281 -1.1107144e-17 0.13079344)
(-0.0011032333 -1.0217918e-17 0.12448433)
(-0.00096598378 -1.0093945e-17 0.11843565)
(-0.00084763963 -9.0109707e-18 0.11265472)
(-0.00074547504 -8.1544535e-18 0.10713175)
(-0.00065681273 -7.6591872e-18 0.10183486)
(-0.00057910076 -7.0979726e-18 0.096706447)
(-0.00050995968 -6.6882759e-18 0.091660304)
(-0.0004472239 -5.8314711e-18 0.086579731)
(-0.00038898188 -4.392887e-18 0.081316719)
(-0.00033363888 -2.9699681e-18 0.07569279)
(-0.00027998005 -1.4412968e-18 0.069502179)
(-0.0002272639 -1.321739e-19 0.062518004)
(-0.00017528826 7.8710543e-19 0.054501743)
(-0.00012450754 1.1755093e-18 0.045215638)
(-7.6205781e-05 1.0141664e-18 0.034437325)
(-3.3132152e-05 7.0280797e-19 0.021978143)
(-2.8591267e-06 1.8958669e-19 0.0077119048)
(-1.1944842e-05 -1.1278722e-18 0.12267058)
(-0.00017897402 -2.8083186e-18 0.28807309)
(-0.00047333981 -4.174469e-18 0.39554779)
(-0.00087196341 -5.2780899e-18 0.45313108)
(-0.0013464062 -5.4431221e-18 0.47030942)
(-0.0018645553 -5.4934167e-18 0.45785379)
(-0.0023856614 -5.778093e-18 0.42674116)
(-0.002866076 -6.1156523e-18 0.38670914)
(-0.0032664752 -6.2349642e-18 0.34514276)
(-0.0035587877 -6.1612072e-18 0.3067084)
(-0.0037295374 -6.1546707e-18 0.27367615)
(-0.0037794034 -6.4604849e-18 0.24659352)
(-0.0037202592 -6.4836959e-18 0.22498443)
(-0.0035712683 -6.4630545e-18 0.2078987)
(-0.0033550978 -6.6864541e-18 0.19427247)
(-0.0030947746 -6.852645e-18 0.18313014)
(-0.0028113589 -7.3045732e-18 0.17367586)
(-0.0025224559 -8.1661926e-18 0.16531655)
(-0.0022415118 -9.1058395e-18 0.15764669)
(-0.0019777706 -9.7136313e-18 0.15041466)
(-0.0017367218 -1.0188669e-17 0.14348348)
(-0.0015208292 -1.0902818e-17 0.13679357)
(-0.0013303405 -1.0908145e-17 0.13033145)
(-0.0011640306 -1.0266079e-17 0.12410564)
(-0.0010197961 -9.8897195e-18 0.11812935)
(-0.00089508387 -9.0038002e-18 0.11240841)
(-0.00078717217 -8.1764617e-18 0.10693311)
(-0.00069334211 -7.6206701e-18 0.10167248)
(-0.0006109768 -7.0751176e-18 0.096570166)
(-0.00053762415 -6.5979872e-18 0.091541451)
(-0.00047104535 -5.7734739e-18 0.086471178)
(-0.00040926163 -4.3402572e-18 0.081212943)
(-0.00035061833 -2.9195924e-18 0.075589921)
(-0.00029385154 -1.4414452e-18 0.069398034)
(-0.00023817865 -1.6396359e-19 0.062412092)
(-0.00018338201 7.3413332e-19 0.054395247)
(-0.00012991032 1.1312632e-18 0.04511151)
(-7.9153336e-05 9.8136923e-19 0.034341092)
(-3.4068587e-05 6.69315e-19 0.021900776)
(-2.8216199e-06 2.0290223e-19 0.0076753278)
(-1.1493967e-05 -5.5957409e-19 0.12521051)
(-0.00017177796 -2.1457242e-18 0.29478013)
(-0.00045505355 -3.2688846e-18 0.40578006)
(-0.00083981285 -3.7708137e-18 0.46610952)
(-0.0012999414 -5.3216711e-18 0.48506748)
(-0.0018059914 -6.246604e-18 0.47328087)
(-0.0023200523 -5.9498252e-18 0.44172161)
(-0.0028006333 -6.1860193e-18 0.4003001)
(-0.0032092101 -6.2750487e-18 0.35670767)
(-0.0035169801 -6.1145027e-18 0.31595666)
(-0.0037085483 -5.9947799e-18 0.28061735)
(-0.0037820547 -5.7662314e-18 0.25144773)
(-0.0037467484 -6.3855194e-18 0.2280884)
(-0.0036194873 -6.6081426e-18 0.20962964)
(-0.0034212115 -6.8843732e-18 0.19499537)
(-0.0031739336 -7.3548903e-18 0.18316609)
(-0.0028984286 -7.8906306e-18 0.17328659)
(-0.0026126482 -8.3639508e-18 0.16470078)
(-0.0023308324 -8.9019907e-18 0.15694437)
(-0.0020632451 -9.7063224e-18 0.14971613)
(-0.0018164128 -1.0134957e-17 0.14284062)
(-0.0015937021 -1.030315e-17 0.13623085)
(-0.0013960505 -1.0426969e-17 0.12985544)
(-0.0012226995 -1.0413529e-17 0.12371232)
(-0.0010718199 -9.5410482e-18 0.11780915)
(-0.00094098946 -8.9700567e-18 0.11214949)
(-0.00082752164 -8.3676264e-18 0.10672328)
(-0.00072867489 -7.6195723e-18 0.1015002)
(-0.0006417805 -7.0276522e-18 0.096425097)
(-0.00056432255 -6.3735006e-18 0.091414689)
(-0.00049399566 -5.6389497e-18 0.086355388)
(-0.00042875825 -4.2269124e-18 0.081102424)
(-0.00036689894 -2.8793599e-18 0.075480664)
(-0.00030710775 -1.4429991e-18 0.069287761)
(-0.00024856431 -2.0879403e-19 0.062300259)
(-0.00019103715 5.5311835e-19 0.054283051)
(-0.000134976 1.0240238e-18 0.045002047)
(-8.1879129e-05 9.3788209e-19 0.034240298)
(-3.4922351e-05 5.59464e-19 0.021820384)
(-2.7912262e-06 2.1951418e-19 0.007637892)
(-1.108308e-05 -1.4132215e-18 0.12764491)
(-0.00016526681 -2.7990126e-18 0.30121729)
(-0.00043843705 -4.1345196e-18 0.4156202)
(-0.00081044179 -5.7182145e-18 0.4786302)
(-0.0012571631 -5.7032374e-18 0.49937214)
(-0.001751473 -5.9559256e-18 0.48833063)
(-0.0022580105 -5.8397584e-18 0.45645615)
(-0.0027373416 -5.6488641e-18 0.41380143)
(-0.0031518774 -6.093345e-18 0.36833173)
(-0.0034724077 -6.1580025e-18 0.32538187)
(-0.0036820255 -6.2933203e-18 0.28781164)
(-0.0037767228 -6.7060528e-18 0.25658949)
(-0.0037634331 -6.5856029e-18 0.23147909)
(-0.0036568897 -6.7407753e-18 0.21162052)
(-0.0034763422 -6.9812614e-18 0.19593544)
(-0.0032426885 -7.0616139e-18 0.18336963)
(-0.0029762139 -7.545062e-18 0.17301612)
(-0.0026949673 -8.4156121e-18 0.16416103)
(-0.0024137487 -9.1563289e-18 0.1562842)
(-0.0021436647 -9.7457013e-18 0.14903535)
(-0.0018921798 -1.0184157e-17 0.14219964)
(-0.0016635335 -1.0618923e-17 0.13566086)
(-0.0014593734 -1.0472609e-17 0.12936772)
(-0.0012794517 -1.0275293e-17 0.1233058)
(-0.0011222629 -9.7504678e-18 0.11747593)
(-0.00098555549 -8.9773493e-18 0.11187852)
(-0.00086670936 -8.3352709e-18 0.1065026)
(-0.00076298369 -7.6144462e-18 0.10131825)
(-0.00067167135 -6.9842377e-18 0.096271395)
(-0.00059020143 -6.2742742e-18 0.091280137)
(-0.0005162084 -5.2565472e-18 0.086232461)
(-0.00044759299 -3.9779643e-18 0.08098526)
(-0.00038258953 -2.8189844e-18 0.075365125)
(-0.00031984502 -1.4421313e-18 0.069171475)
(-0.00025850341 -2.4713452e-19 0.06218264)
(-0.00019832202 5.1922925e-19 0.054165316)
(-0.00013975888 8.5102527e-19 0.044887448)
(-8.4425389e-05 9.7051864e-19 0.034135182)
(-3.5713767e-05 5.6415435e-19 0.021737183)
(-2.7641438e-06 1.6087194e-19 0.0075996616)
(-1.0706448e-05 -1.0891439e-18 0.12998411)
(-0.00015934134 -2.6637811e-18 0.30741011)
(-0.00042326077 -3.9350956e-18 0.42510343)
(-0.00078349396 -5.0124326e-18 0.49073035)
(-0.0012176553 -5.355496e-18 0.51325374)
(-0.001700649 -5.0664718e-18 0.50301873)
(-0.0021994071 -5.8361984e-18 0.47094181)
(-0.0026764373 -6.5243532e-18 0.42719257)
(-0.0030951643 -6.2699902e-18 0.37998159)
(-0.0034262113 -6.2753961e-18 0.33494441)
(-0.0036514845 -6.3753035e-18 0.2952194)
(-0.0037651579 -6.7560418e-18 0.26198405)
(-0.0037721257 -6.8262003e-18 0.23512969)
(-0.003685182 -6.9656182e-18 0.21385371)
(-0.0035219589 -7.2863548e-18 0.1970838)
(-0.0033021977 -7.7345207e-18 0.18373909)
(-0.0030455569 -7.8956544e-18 0.17286769)
(-0.0027699845 -8.4714673e-18 0.16370318)
(-0.0024906326 -9.2277197e-18 0.15567271)
(-0.0022192772 -9.8056147e-18 0.14837829)
(-0.0019642059 -1.0185974e-17 0.14156532)
(-0.001730481 -1.0509078e-17 0.13508707)
(-0.0015204611 -1.0633862e-17 0.12887063)
(-0.0013344402 -9.9583687e-18 0.1228876)
(-0.0011712755 -9.634857e-18 0.11713063)
(-0.0010289284 -8.9416543e-18 0.11159605)
(-0.00090487647 -8.121813e-18 0.10627141)
(-0.0007964002 -7.563678e-18 0.10112686)
(-0.00070077117 -6.9566928e-18 0.09610921)
(-0.00061537274 -6.3758843e-18 0.091137905)
(-0.00053778585 -5.4871154e-18 0.08610249)
(-0.00046585762 -4.2662653e-18 0.080861536)
(-0.00039777172 -2.7913361e-18 0.075243391)
(-0.00033213476 -1.4406796e-18 0.069049276)
(-0.00026805803 -2.698356e-19 0.062059349)
(-0.00020528907 6.1052541e-19 0.05404218)
(-0.00014430135 9.6387043e-19 0.044767886)
(-8.6820297e-05 8.4704899e-19 0.034025951)
(-3.6454093e-05 6.2886982e-19 0.021651351)
(-2.743103e-06 1.8505416e-19 0.0075606895)
(-1.0359599e-05 -5.2586372e-19 0.13223692)
(-0.00015392087 -2.0785045e-18 0.31338049)
(-0.00040933513 -3.1606379e-18 0.43426018)
(-0.00075867032 -3.5347747e-18 0.50244276)
(-0.0011810556 -5.0805907e-18 0.52674005)
(-0.0016531867 -6.2295801e-18 0.51736126)
(-0.0021440629 -6.0527742e-18 0.48517923)
(-0.0026180139 -6.4267871e-18 0.44045892)