/*--------------------------------*- C++ -*----------------------------------*\
| =========                 |                                                 |
| \\      /  F ield         | OpenFOAM: The Open Source CFD Toolbox           |
|  \\    /   O peration     | Version:  3.0.1                                 |
|   \\  /    A nd           | Web:      www.OpenFOAM.org                      |
|    \\/     M anipulation  |                                                 |
\*---------------------------------------------------------------------------*/
FoamFile
{
    version     2.0;
    format      ascii;
    class       surfaceScalarField;
    location    "2503";
    object      phi;
}
// * * * * * * * * * * * * * * * * * * * * * * * * * * * * * * * * * * * * * //

dimensions      [1 0 -1 0 0 0 0];

internalField   nonuniform List<scalar> 
7860
(
-1.649803e-11
5.4076215e-09
-1.734958e-10
1.6041669e-08
-5.513557e-10
2.7896002e-08
-1.1479839e-09
4.0732517e-08
-1.8995098e-09
5.4449736e-08
-2.7154425e-09
6.9088296e-08
-3.5092552e-09
8.4810929e-08
-4.2171119e-09
1.0187063e-07
-4.8042119e-09
1.2057923e-07
-5.2624523e-09
1.4128344e-07
-5.6034341e-09
1.6435045e-07
-5.8504484e-09
1.9016222e-07
-6.031586e-09
2.1911618e-07
-6.1745701e-09
2.5163024e-07
-6.3039741e-09
2.8815004e-07
-6.4397113e-09
3.2915717e-07
-6.5970765e-09
3.7517724e-07
-6.7870652e-09
4.2678694e-07
-7.0173392e-09
4.8461955e-07
-7.2926225e-09
5.493677e-07
-7.6153733e-09
6.217821e-07
-7.9860233e-09
7.0266392e-07
-8.4029211e-09
7.9284767e-07
-8.8623082e-09
8.9316931e-07
-9.3579392e-09
1.0044129e-06
-9.8808205e-09
1.1272254e-06
-1.0418653e-08
1.2619866e-06
-1.095543e-08
1.4086145e-06
-1.1470762e-08
1.5662832e-06
-1.1939596e-08
1.7330204e-06
-1.2331389e-08
1.9051452e-06
-1.2609971e-08
2.0764979e-06
-1.2732182e-08
2.2374048e-06
-1.2648469e-08
2.3733053e-06
-1.2295602e-08
2.4629751e-06
-1.1597065e-08
2.476191e-06
-1.0418059e-08
2.3707523e-06
-8.5328217e-09
2.0882631e-06
-5.2809052e-09
1.5483191e-06
6.3830923e-07
-4.4503004e-10
5.8526508e-09
-1.6897734e-09
1.7286414e-08
-3.6603248e-09
2.9866553e-08
-6.17914e-09
4.3251332e-08
-9.0017332e-09
5.7272331e-08
-1.1865089e-08
7.1951652e-08
-1.4533764e-08
8.7479606e-08
-1.6832244e-08
1.0416912e-07
-1.8658728e-08
1.2240571e-07
-1.9982015e-08
1.4260673e-07
-2.0827426e-08
1.6519586e-07
-2.1257762e-08
1.9059255e-07
-2.1354678e-08
2.1921311e-07
-2.1203638e-08
2.5147919e-07
-2.0883424e-08
2.8782982e-07
-2.046061e-08
3.2873437e-07
-1.9987752e-08
3.7470436e-07
-1.9504e-08
4.2630321e-07
-1.9037458e-08
4.84153e-07
-1.860735e-08
5.4893757e-07
-1.8226261e-08
6.2140102e-07
-1.7901821e-08
7.0233949e-07
-1.7637506e-08
7.9258334e-07
-1.743289e-08
8.9296472e-07
-1.7283754e-08
1.0042637e-06
-1.7181379e-08
1.1271231e-06
-1.7112208e-08
1.2619174e-06
-1.7056906e-08
1.4085592e-06
-1.6989913e-08
1.5662162e-06
-1.6878468e-08
1.732909e-06
-1.6683036e-08
1.9049497e-06
-1.6356433e-08
2.0761714e-06
-1.5844859e-08
2.2368932e-06
-1.508861e-08
2.3725491e-06
-1.4019314e-08
2.4619057e-06
-1.256017e-08
2.4747319e-06
-1.0589623e-08
2.3687818e-06
-7.9078412e-09
2.0855814e-06
-4.0818059e-09
1.5444929e-06
6.3422762e-07
-4.6818204e-10
6.3208331e-09
-1.8613348e-09
1.8679564e-08
-4.2048587e-09
3.221008e-08
-7.3917409e-09
4.6438213e-08
-1.1193551e-08
6.1074139e-08
-1.5301271e-08
7.6059375e-08
-1.9382826e-08
9.1561161e-08
-2.3139414e-08
1.0792571e-07
-2.6346346e-08
1.2561264e-07
-2.887201e-08
1.451324e-07
-3.0676257e-08
1.6700011e-07
-3.1794158e-08
1.9171045e-07
-3.2312465e-08
2.1973141e-07
-3.2345163e-08
2.5151189e-07
-3.2012674e-08
2.8749733e-07
-3.1426905e-08
3.281486e-07
-3.0682644e-08
3.7396011e-07
-2.985444e-08
4.2547501e-07
-2.8997252e-08
4.8329582e-07
-2.8149417e-08
5.4808969e-07
-2.7335906e-08
6.2058754e-07
-2.6572006e-08
7.0157557e-07
-2.5865231e-08
7.9187657e-07
-2.5217077e-08
8.923166e-07
-2.4623658e-08
1.0036703e-06
-2.4075473e-08
1.1265749e-06
-2.3557138e-08
1.2613991e-06
-2.3046929e-08
1.408049e-06
-2.2515671e-08
1.565685e-06
-2.1926814e-08
1.7323201e-06
-2.123541e-08
1.9042584e-06
-2.0389028e-08
2.075325e-06
-1.9327734e-08
2.2358318e-06
-1.7985588e-08
2.371207e-06
-1.6288897e-08
2.460209e-06
-1.4154478e-08
2.4725975e-06
-1.1459595e-08
2.3660869e-06
-8.0198404e-09
2.0821416e-06
-3.6581876e-09
1.5401314e-06
6.3056912e-07
-4.2261685e-10
6.7434505e-09
-1.7304548e-09
1.9987402e-08
-4.0250272e-09
3.450465e-08
-7.296398e-09
4.9709583e-08
-1.1404719e-08
6.5182466e-08
-1.6092669e-08
8.0747317e-08
-2.1026762e-08
9.6495259e-08
-2.5854557e-08
1.127535e-07
-3.026045e-08
1.3001853e-07
-3.4006823e-08
1.4887876e-07
-3.6954154e-08
1.6994743e-07
-3.9060725e-08
1.9381703e-07
-4.0366988e-08
2.2103767e-07
-4.0971198e-08
2.521161e-07
-4.1003195e-08
2.8752934e-07
-4.0601003e-08
3.2774639e-07
-3.9893343e-08
3.7325247e-07
-3.8989396e-08
4.2457106e-07
-3.7974533e-08
4.8228096e-07
-3.6910943e-08
5.4702612e-07
-3.5840962e-08
6.1951753e-07
-3.4790979e-08
7.0052561e-07
-3.3775582e-08
7.9086117e-07
-3.2800121e-08
8.9134113e-07
-3.1862475e-08
1.0027326e-06
-3.0953761e-08
1.1256661e-06
-3.0058259e-08
1.2605036e-06
-2.9153105e-08
1.4071438e-06
-2.8207322e-08
1.5647392e-06
-2.7181539e-08
1.7312944e-06
-2.6027681e-08
1.9031045e-06
-2.4689105e-08
2.0739864e-06
-2.3101531e-08
2.2342442e-06
-2.1194099e-08
2.3692996e-06
-1.8888528e-08
2.4579035e-06
-1.6096199e-08
2.4698052e-06
-1.269555e-08
2.3626861e-06
-8.5295638e-09
2.0779757e-06
-3.6407357e-09
1.5352427e-06
6.2692821e-07
-3.7834883e-10
7.1218004e-09
-1.5738394e-09
2.118289e-08
-3.7221048e-09
3.6652917e-08
-6.8754134e-09
5.2862892e-08
-1.097223e-08
6.9279286e-08
-1.5828821e-08
8.5603908e-08
-2.1159073e-08
1.018255e-07
-2.6617705e-08
1.1821215e-07
-3.1854315e-08
1.3525513e-07
-3.656349e-08
1.5358794e-07
-4.0521011e-08
1.7390496e-07
-4.3600856e-08
1.9689687e-07
-4.5773857e-08
2.2321068e-07
-4.7092213e-08
2.5343446e-07
-4.7665401e-08
2.8810254e-07
-4.7633865e-08
3.2771484e-07
-4.7145012e-08
3.7276363e-07
-4.6335322e-08
4.2376137e-07
-4.5319296e-08
4.8126493e-07
-4.4185234e-08
5.4589207e-07
-4.2995966e-08
6.1832825e-07
-4.1792312e-08
6.9932195e-07
-4.0597678e-08
7.8966652e-07
-3.9421967e-08
8.9016547e-07
-3.8264888e-08
1.0015755e-06
-3.7116922e-08
1.1245183e-06
-3.5960989e-08
1.2593477e-06
-3.4771437e-08
1.4059542e-06
-3.3514068e-08
1.5634818e-06
-3.2145743e-08
1.729926e-06
-3.0613866e-08
1.9015726e-06
-2.8857115e-08
2.0722296e-06
-2.6805698e-08
2.2321929e-06
-2.4383512e-08
2.3668773e-06
-2.150667e-08
2.4550267e-06
-1.8081043e-08
2.4663796e-06
-1.3986984e-08
2.3585921e-06
-9.1071569e-09
2.0730957e-06
-3.6871185e-09
1.5298227e-06
6.2324125e-07
-3.4321648e-10
7.4650175e-09
-1.4408896e-09
2.2280562e-08
-3.4419101e-09
3.8653936e-08
-6.4334968e-09
5.5854481e-08
-1.0408706e-08
7.3254497e-08
-1.5247489e-08
9.0442687e-08
-2.0720603e-08
1.0729862e-07
-2.6517515e-08
1.2400905e-07
-3.2290802e-08
1.4102842e-07
-3.7705456e-08
1.5900259e-07
-4.2481639e-08
1.7868115e-07
-4.6423711e-08
2.0083893e-07
-4.9432171e-08
2.2621914e-07
-5.1499984e-08
2.5550227e-07
-5.2696211e-08
2.8929876e-07
-5.3142357e-08
3.28161e-07
-5.2986625e-08
3.7260788e-07
-5.2380546e-08
4.231553e-07
-5.1461706e-08
4.8034609e-07
-5.034332e-08
5.4477367e-07
-4.9110536e-08
6.1709547e-07
-4.7821671e-08
6.9803309e-07
-4.6512042e-08
7.8835692e-07
-4.5198729e-08
8.8885215e-07
-4.388444e-08
1.0002612e-06
-4.2560409e-08
1.1231942e-06
-4.1207895e-08
1.2579952e-06
-3.9798774e-08
1.404545e-06
-3.8295203e-08
1.5619783e-06
-3.664963e-08
1.7282804e-06
-3.4804591e-08
1.8997276e-06
-3.2693077e-08
2.0701181e-06
-3.0239666e-08
2.2297394e-06
-2.7361527e-08
2.3639992e-06
-2.396905e-08
2.4516342e-06
-1.9962437e-08
2.462373e-06
-1.5226428e-08
2.3538561e-06
-9.691259e-09
2.0675605e-06
-3.785215e-09
1.5239163e-06
6.1945613e-07
-3.1474323e-10
7.7797605e-09
-1.3296296e-09
2.3295449e-08
-3.1977952e-09
4.0522098e-08
-6.0261877e-09
5.8682876e-08
-9.8445058e-09
7.7072818e-08
-1.4581847e-08
9.5180025e-08
-2.0060707e-08
1.1277748e-07
-2.6012598e-08
1.2996095e-07
-3.2111928e-08
1.4712775e-07
-3.8019651e-08
1.6491031e-07
-4.3426551e-08
1.8408806e-07
-4.8088036e-08
2.0550041e-07
-5.1845531e-08
2.2997664e-07
-5.4633232e-08
2.5828997e-07
-5.6471161e-08
2.9113667e-07
-5.7447713e-08
3.2913758e-07
-5.769633e-08
3.7285648e-07
-5.7370379e-08
4.2282935e-07
-5.6621413e-08
4.7959711e-07
-5.558306e-08
5.4373531e-07
-5.4362068e-08
6.158745e-07
-5.3035828e-08
6.9670684e-07
-5.1654101e-08
7.869752e-07
-5.0243415e-08
8.8744147e-07
-4.8811614e-08
9.9882939e-07
-4.7351704e-08
1.1217343e-06
-4.584412e-08
1.2564877e-06
-4.4258615e-08
1.4029594e-06
-4.2553613e-08
1.5602733e-06
-4.0677269e-08
1.7264041e-06
-3.8566931e-08
1.8976173e-06
-3.6149844e-08
2.0677011e-06
-3.334447e-08
2.2269339e-06
-3.0061475e-08
2.3607162e-06
-2.6204835e-08
2.4477775e-06
-2.1669757e-08
2.457838e-06
-1.6348389e-08
2.3485347e-06
-1.0223495e-08
2.0614356e-06
-3.8859866e-09
1.5175789e-06
6.1557008e-07
-2.9144504e-10
8.071205e-09
-1.2367173e-09
2.4240722e-08
-2.9888835e-09
4.2274268e-08
-5.6660338e-09
6.1360024e-08
-9.3225745e-09
8.0729358e-08
-1.3924553e-08
9.9782002e-08
-1.933781e-08
1.1819074e-07
-2.5334645e-08
1.3595778e-07
-3.1618488e-08
1.5341159e-07
-3.7860777e-08
1.7115261e-07
-4.3741523e-08
1.899688e-07
-4.8985692e-08
2.1074459e-07
-5.3390093e-08
2.3438103e-07
-5.6837643e-08
2.6173753e-07
-5.9299079e-08
2.9359811e-07
-6.0822876e-08
3.3066137e-07
-6.1516635e-08
3.7355026e-07
-6.1523832e-08
4.2283654e-07
-6.0999936e-08
4.7907321e-07
-6.009237e-08
5.4282774e-07
-5.8926476e-08
6.1470864e-07
-5.759849e-08
6.9537885e-07
-5.6174179e-08
7.8555088e-07
-5.469176e-08
8.8595902e-07
-5.3166209e-08
9.9730387e-07
-5.159391e-08
1.120162e-06
-4.9956067e-08
1.2548497e-06
-4.8220212e-08
1.4012237e-06
-4.6342361e-08
1.5583953e-06
-4.4266001e-08
1.7243278e-06
-4.1923718e-08
1.895275e-06
-3.9237251e-08
2.0650145e-06
-3.6118553e-08
2.2238153e-06
-3.2472178e-08
2.3570699e-06
-2.8195826e-08
2.4435011e-06
-2.3180722e-08
2.4528231e-06
-1.7329182e-08
2.342683e-06
-1.0679997e-08
2.0547864e-06
-3.9704765e-09
1.5108693e-06
6.1159972e-07
-2.7198186e-10
8.3431871e-09
-1.1580585e-09
2.5126797e-08
-2.809188e-09
4.3925398e-08
-5.349593e-09
6.3900427e-08
-8.8506167e-09
8.4230383e-08
-1.3306123e-08
1.0423751e-07
-1.8617312e-08
1.2350194e-07
-2.4593109e-08
1.4193357e-07
-3.0967322e-08
1.5978581e-07
-3.7429131e-08
1.7761441e-07
-4.3659594e-08
1.9619926e-07
-4.9367389e-08
2.1645238e-07
-5.4317999e-08
2.3933165e-07
-5.8353132e-08
2.6577265e-07
-6.1398752e-08
2.9664374e-07
-6.3462156e-08
3.3272477e-07
-6.4619103e-08
3.7470721e-07
-6.4994154e-08
4.2321157e-07
-6.4737508e-08
4.7881658e-07
-6.400292e-08
5.4209317e-07
-6.292965e-08
6.1363534e-07
-6.1630761e-08
6.9407999e-07
-6.0188449e-08
7.8410855e-07
-5.865398e-08
8.8442457e-07
-5.7051584e-08
9.9570141e-07
-5.5382485e-08
1.118493e-06
-5.3629809e-08
1.253097e-06
-5.1760545e-08
1.3993544e-06
-4.972802e-08
1.5563628e-06
-4.747245e-08
1.7220722e-06
-4.4921547e-08
1.8927241e-06
-4.1991723e-08
2.0620848e-06
-3.8589522e-08
2.220413e-06
-3.4612866e-08
2.3530933e-06
-2.995401e-08
2.4388422e-06
-2.4502128e-08
2.4473712e-06
-1.8171669e-08
2.3363525e-06
-1.1059749e-08
2.0476746e-06
-4.0340241e-09
1.5038439e-06
6.0756527e-07
-2.5546307e-10
8.5986503e-09
-1.0906379e-09
2.5961971e-08
-2.6533896e-09
4.548815e-08
-5.0710739e-09
6.6318111e-08
-8.4267909e-09
8.7586102e-08
-1.2735548e-08
1.0854627e-07
-1.7927255e-08
1.2869364e-07
-2.3842672e-08
1.4784899e-07
-3.0244815e-08
1.6618796e-07
-3.6843572e-08
1.8421316e-07
-4.3328082e-08
2.0268379e-07
-4.9400643e-08
2.2252493e-07
-5.4806312e-08
2.4473733e-07
-5.9355277e-08
2.7032161e-07
-6.2935435e-08
3.0022391e-07
-6.5515207e-08
3.3530451e-07
-6.7136287e-08
3.7632829e-07
-6.7898664e-08
4.2397396e-07
-6.7939965e-08
4.7885788e-07
-6.7412974e-08
5.4156616e-07
-6.6465243e-08
6.1268759e-07
-6.5223664e-08
6.9283846e-07
-6.3785812e-08
7.8267067e-07
-6.2216778e-08
8.8285551e-07
-6.0551212e-08
9.9403579e-07
-5.879704e-08
1.1167389e-06
-5.6940561e-08
1.2512405e-06
-5.4949225e-08
1.3973631e-06
-5.2774741e-08
1.5541883e-06
-5.0354185e-08
1.7196517e-06
-4.761146e-08
1.8899814e-06
-4.4458025e-08
2.0589313e-06
-4.0794896e-08
2.2167499e-06
-3.6514731e-08
2.3488131e-06
-3.1504462e-08
2.433832e-06
-2.5652911e-08
2.4415195e-06
-1.8889412e-08
2.3295891e-06
-1.1370171e-08
2.0401552e-06
-4.0789228e-09
1.4965527e-06
6.0348639e-07
-2.4124095e-10
8.8398903e-09
-1.0321568e-09
2.6752888e-08
-2.517081e-09
4.6973074e-08
-4.8246404e-09
6.8625671e-08
-8.0461758e-09
9.0807635e-08
-1.2212936e-08
1.1271303e-07
-1.7278213e-08
1.3375891e-07
-2.3110173e-08
1.5368095e-07
-2.9498716e-08
1.725765e-07
-3.6175173e-08
1.9088961e-07
-4.2840712e-08
2.0934933e-07
-4.9197802e-08
2.2888202e-07
-5.4979419e-08
2.5051894e-07
-5.9972601e-08
2.7531479e-07
-6.4034198e-08
3.0428553e-07
-6.7097892e-08
3.3836821e-07
-6.9172002e-08
3.7840239e-07
-7.0329088e-08
4.2513105e-07
-7.0688765e-08
4.7921756e-07
-7.0396699e-08
5.4127409e-07
-6.9603156e-08
6.1189407e-07
-6.8445006e-08
6.9168031e-07
-6.7033113e-08
7.8125874e-07
-6.5446061e-08
8.8126853e-07
-6.3730034e-08
9.9231971e-07
-6.1900967e-08
1.1149099e-06
-5.9949519e-08
1.249289e-06
-5.7844638e-08
1.3952583e-06
-5.5537547e-08
1.5518811e-06
-5.2962812e-08
1.717077e-06
-5.004083e-08
1.8870594e-06
-4.6678846e-08
2.0555694e-06
-4.2772969e-08
2.2128441e-06
-3.8210874e-08
2.344251e-06
-3.2875423e-08
2.4284965e-06
-2.6656108e-08
2.4353001e-06
-1.9500268e-08
2.3224332e-06
-1.1621558e-08
2.0322766e-06
-4.107665e-09
1.4890387e-06
5.9937859e-07
-2.2884501e-10
9.0687358e-09
-9.808944e-10
2.7504938e-08
-2.3967895e-09
4.8388969e-08
-4.6052503e-09
7.0834134e-08
-7.7034074e-09
9.3905786e-08
-1.1735129e-08
1.1674476e-07
-1.6672861e-08
1.3869665e-07
-2.240832e-08
1.594164e-07
-2.8755656e-08
1.7892384e-07
-3.5467201e-08
1.9760115e-07
-4.2258119e-08
2.1614025e-07
-4.8835347e-08
2.3545925e-07
-5.4925779e-08
2.5660936e-07
-6.0300206e-08
2.8068922e-07
-6.4790901e-08
3.0877623e-07
-6.8301639e-08
3.4187894e-07
-7.080961e-08
3.8091035e-07
-7.2359252e-08
4.2668069e-07
-7.3048953e-08
4.7990727e-07
-7.3012322e-08
5.4123747e-07
-7.2397287e-08
6.1127902e-07
-7.1346235e-08
6.906293e-07
-6.9980903e-08
7.7989336e-07
-6.8392382e-08
8.7968005e-07
-6.663843e-08
9.9056573e-07
-6.4744027e-08
1.1130154e-06
-6.2705342e-08
1.2472504e-06
-6.0494381e-08
1.3930473e-06
-5.8062028e-08
1.5494488e-06
-5.5341685e-08
1.7143566e-06
-5.2250494e-08
1.8839683e-06
-4.8692085e-08
2.0520109e-06
-4.4558237e-08
2.2087102e-06
-3.9732027e-08
2.3394249e-06
-3.4093522e-08
2.4228579e-06
-2.7534199e-08
2.4287407e-06
-2.0021239e-08
2.3149204e-06
-1.1825084e-08
2.0240805e-06
-4.1244177e-09
1.4813382e-06
5.9525406e-07
-2.1793122e-10
9.2866674e-09
-9.3554233e-10
2.8222549e-08
-2.2897877e-09
4.9743212e-08
-4.4087222e-09
7.2953071e-08
-7.3935103e-09
9.6890573e-08
-1.1297953e-08
1.206492e-07
-1.611029e-08
1.4350898e-07
-2.1742424e-08
1.6504853e-07
-2.8030318e-08
1.8521174e-07
-3.4746205e-08
2.0431703e-07
-4.1620003e-08
2.2301406e-07
-4.8365873e-08
2.4220511e-07
-5.4708906e-08
2.6295239e-07
-6.0409e-08
2.8638933e-07
-6.5279485e-08
3.1364669e-07
-6.9198996e-08
3.4579847e-07
-7.2116738e-08
3.838281e-07
-7.4049871e-08
4.2861382e-07
-7.5073902e-08
4.8093131e-07
-7.5306955e-08
5.4147051e-07
-7.4890151e-08
6.1086221e-07
-7.3967433e-08
6.8970659e-07
-7.2668125e-08
7.7859403e-07
-7.1094422e-08
8.7810633e-07
-6.9315142e-08
9.8878649e-07
-6.7364997e-08
1.1110653e-06
-6.5246875e-08
1.2451322e-06
-6.293618e-08
1.3907367e-06
-6.0385317e-08
1.5468979e-06
-5.752623e-08
1.7114976e-06
-5.4274276e-08
1.8807163e-06
-5.0529487e-08
2.0482662e-06
-4.6180044e-08
2.2043607e-06
-4.1104985e-08
2.33435e-06
-3.5182091e-08
2.4169351e-06
-2.8307022e-08
2.4218656e-06
-2.0467889e-08
2.3070814e-06
-1.1990146e-08
2.0156026e-06
-4.1325118e-09
1.4734806e-06
5.9112156e-07
-2.082349e-10
9.4949027e-09
-8.9509233e-10
2.8909406e-08
-2.1939174e-09
5.1042037e-08
-4.2316202e-09
7.4990776e-08
-7.1121387e-09
9.977109e-08
-1.0897119e-08
1.2443418e-07
-1.5587932e-08
1.481998e-07
-2.1113923e-08
1.7057452e-07
-2.7330477e-08
1.9142831e-07
-3.402844e-08
2.11015e-07
-4.0952637e-08
2.2993825e-07
-4.7825926e-08
2.4907841e-07
-5.437474e-08
2.695012e-07
-6.0352221e-08
2.9236681e-07
-6.555726e-08
3.1885173e-07
-6.9847956e-08
3.5008917e-07
-7.3148892e-08
3.8712901e-07
-7.5451579e-08
4.3091654e-07
-7.6808446e-08
4.8228815e-07
-7.7319777e-08
5.4198187e-07
-7.7116618e-08
6.10659e-07
-7.6340529e-08
6.8893053e-07
-7.5125409e-08
7.773789e-07
-7.3582231e-08
8.7656322e-07
-7.1790556e-08
9.8699476e-07
-6.979447e-08
1.1090692e-06
-6.7604432e-08
1.2429422e-06
-6.5200499e-08
1.3883328e-06
-6.2536887e-08
1.5442342e-06
-5.9545591e-08
1.7085062e-06
-5.6139874e-08
1.8773107e-06
-5.2217406e-08
2.0443436e-06
-4.7662689e-08
2.199806e-06
-4.2351987e-08
2.3290393e-06
-3.6161215e-08
2.4107444e-06
-2.8991467e-08
2.4146958e-06
-2.085333e-08
2.2989433e-06
-1.2124415e-08
2.0068737e-06
-4.1343705e-09
1.4654905e-06
5.8698728e-07
-1.9955427e-10
9.6944559e-09
-8.5875075e-10
2.9568605e-08
-2.1074642e-09
5.2290751e-08
-4.0711395e-09
7.6954451e-08
-6.8555614e-09
1.0255551e-07
-1.052862e-08
1.2810724e-07
-1.51027e-08
1.5277389e-07
-2.0522193e-08
1.7599401e-07
-2.6659897e-08
1.97566e-07
-3.3323841e-08
2.1767895e-07
-4.0273414e-08
2.368878e-07
-4.7241151e-08
2.5604616e-07
-5.3956843e-08
2.762169e-07
-6.0170029e-08
2.9857997e-07
-6.5668959e-08
3.2435066e-07
-7.029502e-08
3.5471525e-07
-7.39516e-08
3.9078558e-07
-7.6606843e-08
4.3357179e-07
-7.8290511e-08
4.8397181e-07
-7.9084079e-08
5.4277545e-07
-7.9105729e-08
6.1068066e-07
-7.8491728e-08
6.8831651e-07
-7.737722e-08
7.762644e-07
-7.5879915e-08
8.7506593e-07
-7.408843e-08
9.8520326e-07
-7.2056445e-08
1.1070373e-06
-6.9802367e-08
1.2406881e-06
-6.7311448e-08
1.3858419e-06
-6.454069e-08
1.5414635e-06
-6.1422825e-08
1.7053883e-06
-5.7869857e-08
1.8737577e-06
-5.3777142e-08
2.0402509e-06
-4.9026443e-08
2.1950553e-06
-4.3491379e-08
2.3235041e-06
-3.7047213e-08
2.4043004e-06
-2.9601555e-08
2.40725e-06
-2.1188011e-08
2.2905298e-06
-1.22346e-08
1.9979202e-06
-4.1318557e-09
1.4573878e-06
5.8285556e-07
-1.9172618e-10
9.8861818e-09
-8.2589682e-10
3.0202775e-08
-2.0290512e-09
5.3493905e-08
-3.9249753e-09
7.8850377e-08
-6.6206189e-09
1.0525115e-07
-1.0188864e-08
1.3167548e-07
-1.4651373e-08
1.5723639e-07
-1.9965622e-08
1.8130826e-07
-2.6019948e-08
2.0362033e-07
-3.2638275e-08
2.2429728e-07
-3.9593937e-08
2.4384346e-07
-4.6629609e-08
2.6308184e-07
-5.3479893e-08
2.8306717e-07
-5.9892946e-08
3.0499304e-07
-6.5649555e-08
3.3010726e-07
-7.0577686e-08
3.5964338e-07
-7.4562593e-08
3.9477048e-07
-7.7551496e-08
4.3656071e-07
-7.955267e-08
4.85973e-07
-8.0628478e-08
5.4385122e-07
-8.088254e-08
6.1093473e-07
-8.0443035e-08
6.8787702e-07
-7.9443763e-08
7.7526514e-07
-7.8006614e-08
8.7362877e-07
-7.6227875e-08
9.8342453e-07
-7.4170197e-08
1.1049796e-06
-7.1859864e-08
1.2383777e-06
-6.9288332e-08
1.3832703e-06
-6.6416092e-08
1.5385912e-06
-6.3176846e-08
1.7021491e-06
-5.9482463e-08
1.8700633e-06
-5.5226226e-08
2.0359947e-06
-5.0287615e-08
2.1901167e-06
-4.4538158e-08
2.3177547e-06
-3.7853586e-08
2.3976158e-06
-3.0148476e-08
2.399545e-06
-2.1480766e-08
2.281862e-06
-1.232527e-08
1.9887648e-06
-4.1262208e-09
1.4491887e-06
5.7872914e-07
-1.8462621e-10
1.0070808e-08
-7.9602101e-10
3.081417e-08
-1.9575517e-09
5.4655435e-08
-3.7912275e-09
8.0684053e-08
-6.4046389e-09
1.0786456e-07
-9.8746716e-09
1.3514552e-07
-1.4230855e-08
1.6159257e-07
-1.9442097e-08
1.8651951e-07
-2.5410642e-08
2.0958887e-07
-3.1975014e-08
2.3086165e-07
-3.8921871e-08
2.5079032e-07
-4.6004121e-08
2.701641e-07
-5.2962087e-08
2.9002513e-07
-5.9544385e-08
3.1157535e-07
-6.5526606e-08
3.3608948e-07
-7.0726148e-08
3.6484293e-07
-7.5013005e-08
3.9905735e-07
-7.8315903e-08
4.3986356e-07
-8.0623017e-08
4.8828015e-07
-8.197786e-08
5.4520607e-07
-8.2468631e-08
6.1142551e-07
-8.2213401e-08
6.8762176e-07
-8.1342001e-08
7.7439375e-07
-7.9978179e-08
8.7226499e-07
-7.8224338e-08
9.8167068e-07
-7.6151124e-08
1.1029063e-06
-7.379268e-08
1.2360193e-06
-7.1146981e-08
1.3806246e-06
-6.8178511e-08
1.5356227e-06
-6.4823131e-08
1.6987938e-06
-6.0992461e-08
1.8662327e-06
-5.6578835e-08
2.031581e-06
-5.1459581e-08
2.1849975e-06
-4.5504793e-08
2.3117999e-06
-3.8591156e-08
2.3907021e-06
-3.0641729e-08
2.3915956e-06
-2.1738265e-08
2.2729586e-06
-1.2400592e-08
1.979427e-06
-4.1187205e-09
1.440907e-06
5.7461046e-07
-1.7815219e-10
1.024896e-08
-7.6872025e-10
3.1404737e-08
-1.8920495e-09
5.5778765e-08
-3.6683119e-09
8.2460317e-08
-6.2053514e-09
1.104016e-07
-9.5832759e-09
1.3852344e-07
-1.3838279e-08
1.6584758e-07
-1.8949349e-08
1.9163058e-07
-2.4831177e-08
2.1547069e-07
-3.133572e-08
2.373662e-07
-3.8262257e-08
2.5771685e-07
-4.5373808e-08
2.7727565e-07
-5.2417015e-08
2.9706834e-07
-5.9142286e-08
3.1830061e-07
-6.5321871e-08
3.4226909e-07
-7.0765004e-08
3.7028604e-07
-7.5328807e-08
4.0362118e-07
-7.8925756e-08
4.4346049e-07
-8.1525794e-08
4.9088021e-07
-8.3154167e-08
5.4683443e-07
-8.3883154e-08
6.1215451e-07
-8.3819251e-08
6.8755787e-07
-8.3086414e-08
7.736609e-07
-8.180801e-08
8.7098656e-07
-8.0090549e-08
9.7995329e-07
-7.8011808e-08
1.1008276e-06
-7.5613494e-08
1.233621e-06
-7.2900079e-08
1.3779112e-06
-6.9840953e-08
1.5325635e-06
-6.6374218e-08
1.6953271e-06
-6.2412294e-08
1.8622708e-06
-5.7846605e-08
2.0270154e-06
-5.2553337e-08
2.1797042e-06
-4.6401264e-08
2.3056478e-06
-3.9268998e-08
2.3835698e-06
-3.1088808e-08
2.3834154e-06
-2.1966084e-08
2.2638361e-06
-1.2463283e-08
1.969924e-06
-4.1098176e-09
1.4325537e-06
5.7050057e-07
-1.7221926e-10
1.042118e-08
-7.4365196e-10
3.197617e-08
-1.831782e-09
5.6866893e-08
-3.5549119e-09
8.4183446e-08
-6.0208317e-09
1.1286753e-07
-9.3122388e-09
1.4181484e-07
-1.3471067e-08
1.7000641e-07
-1.8485114e-08
1.9664462e-07
-2.4280312e-08
2.2126589e-07
-3.072099e-08
2.4380687e-07
-3.7618267e-08
2.6461412e-07
-4.474509e-08
2.8440247e-07
-5.1854812e-08
3.0417807e-07
-5.8700513e-08
3.251463e-07
-6.5052668e-08
3.4862125e-07
-7.071412e-08
3.759475e-07
-7.5531525e-08
4.0843856e-07
-7.9402963e-08
4.4733196e-07
-8.2282002e-08
4.9375925e-07
-8.4176528e-08
5.4872895e-07
-8.5142987e-08
6.1312095e-07
-8.5275269e-08
6.8769019e-07
-8.4689707e-08
7.7307533e-07
-8.350734e-08
8.6980421e-07
-8.1837258e-08
9.782832e-07
-7.9762748e-08
1.0987531e-06
-7.7332729e-08
1.231191e-06
-7.4558261e-08
1.3751368e-06
-7.1413737e-08
1.529419e-06
-6.784045e-08
1.6917538e-06
-6.3751964e-08
1.8581824e-06
-5.9039422e-08
2.0223028e-06
-5.3577989e-08
2.1742427e-06
-4.7236054e-08
2.2993059e-06
-3.9894497e-08
2.3762283e-06
-3.1495702e-08
2.3750165e-06
-2.2169036e-08
2.2545094e-06
-1.2515615e-08
1.9602705e-06
-4.0999735e-09
1.4241382e-06
5.6640053e-07
-1.6675729e-10
1.0587939e-08
-7.2054528e-10
3.2529954e-08
-1.7761095e-09
5.7922463e-08
-3.4499068e-09
8.585724e-08
-5.8494385e-09
1.1526706e-07
-9.0594727e-09
1.4502487e-07
-1.3126862e-08
1.740738e-07
-1.8047215e-08
2.0156498e-07
-2.3756609e-08
2.2697529e-07
-3.0130712e-08
2.5018097e-07
-3.6991835e-08
2.7147525e-07
-4.4122535e-08
2.9153317e-07
-5.1283064e-08
3.1133859e-07
-5.8229837e-08
3.3209308e-07
-6.4732743e-08
3.5512416e-07
-7.0589858e-08
3.8180462e-07
-7.5639054e-08
4.1348775e-07
-7.9766234e-08
4.5145912e-07
-8.2909901e-08
4.9690296e-07
-8.5061952e-08
5.5088098e-07
-8.626318e-08
6.1432218e-07
-8.6594511e-08
6.880215e-07
-8.6163153e-08
7.7264398e-07
-8.5086176e-08
8.6872728e-07
-8.3473559e-08
9.766705e-07
-8.1412731e-08
1.0966923e-06
-7.895913e-08
1.2287374e-06
-7.6130251e-08
1.3723079e-06
-7.2905741e-08
1.5261945e-06
-6.9230611e-08
1.6880787e-06
-6.5019981e-08
1.8539718e-06
-6.0165384e-08
2.0174482e-06
-5.4541138e-08
2.1686186e-06
-4.8016166e-08
2.2927808e-06
-4.0474063e-08
2.3686863e-06
-3.1867709e-08
2.3664101e-06
-2.2350344e-08
2.244992e-06
-1.2559505e-08
1.9504797e-06
-4.0895732e-09
1.4156684e-06
5.6231094e-07
-1.6171424e-10
1.0749653e-08
-6.9915826e-10
3.3067397e-08
-1.7245062e-09
5.8947814e-08
-3.3523552e-09
8.7485085e-08
-5.6897619e-09
1.1760447e-07
-8.8231367e-09
1.4815825e-07
-1.2803571e-08
1.7805423e-07
-1.7633613e-08
2.0639502e-07
-2.3258504e-08
2.3260018e-07
-2.9564388e-08
2.5648685e-07
-3.6384068e-08
2.7829493e-07
-4.3509358e-08
2.9865847e-07
-5.0707467e-08
3.185367e-07
-5.7738674e-08
3.3912428e-07
-6.4373161e-08
3.6175865e-07
-7.0405572e-08
3.8783701e-07
-7.5666537e-08
4.1874873e-07
-8.0031404e-08
4.5582399e-07
-8.3425426e-08
5.0029696e-07
-8.5825412e-08
5.5328099e-07
-8.7257316e-08
6.1575407e-07
-8.7788677e-08
6.8855285e-07
-8.7516818e-08
7.7237211e-07
-8.6553335e-08
8.6776379e-07
-8.5007202e-08
9.7512437e-07
-8.2969229e-08
1.0946543e-06
-8.0499983e-08
1.2262681e-06
-7.7623337e-08
1.3694312e-06
-7.4324338e-08
1.5228955e-06
-7.0552024e-08
1.6843063e-06
-6.6223449e-08
1.8496433e-06
-6.1231153e-08
2.0124557e-06
-5.5449351e-08
2.1628369e-06
-4.8747381e-08
2.2860788e-06
-4.1012882e-08
2.3609516e-06
-3.2209257e-08
2.3576066e-06
-2.2513074e-08
2.2352959e-06
-1.2596378e-08
1.9405629e-06
-4.0787352e-09
1.4071508e-06
5.5823203e-07
-1.570361e-10
1.0906688e-08
-6.7929907e-10
3.3589661e-08
-1.6765132e-09
5.9945029e-08
-3.2614494e-09
8.9070019e-08
-5.5405849e-09
1.1988361e-07
-8.601623e-09
1.5121928e-07
-1.2499322e-08
1.8195194e-07
-1.7242413e-08
2.111381e-07
-2.2784451e-08
2.3814222e-07
-2.9021224e-08
2.6272363e-07
-3.5795422e-08
2.8506912e-07
-4.2907731e-08
3.0577079e-07
-5.0132287e-08
3.2576126e-07
-5.7233578e-08
3.4622557e-07
-6.3982817e-08
3.6850788e-07
-7.0172191e-08
3.940264e-07
-7.5626553e-08
4.2420309e-07
-8.0212129e-08
4.6040956e-07
-8.3842311e-08
5.0392714e-07
-8.6480233e-08
5.5591892e-07
-8.8137502e-08
6.1741136e-07
-8.8868468e-08
6.8928381e-07
-8.8759894e-08
7.7226348e-07
-8.7916538e-08
8.6692049e-07
-8.6445327e-08
9.7365313e-07
-8.4438578e-08
1.0926476e-06
-8.1961559e-08
1.2237912e-06
-7.9043795e-08
1.3665134e-06
-7.5675772e-08
1.5195276e-06
-7.1810774e-08
1.6804412e-06
-6.7368629e-08
1.8452012e-06
-6.2242662e-08
2.0073298e-06
-5.6308096e-08
2.1569023e-06
-4.9434924e-08
2.2792057e-06
-4.1515152e-08
2.3530318e-06
-3.2523681e-08
2.3486152e-06
-2.2659947e-08
2.2254319e-06
-1.2627144e-08
1.9305303e-06
-4.0678779e-09
1.3985913e-06
5.5416441e-07
-1.5268331e-10
1.1059371e-08
-6.6080046e-10
3.4097778e-08
-1.6317427e-09
6.0915972e-08
-3.1764964e-09
9.0614772e-08
-5.4008551e-09
1.2210797e-07
-8.3935318e-09
1.5421196e-07
-1.221247e-08
1.8577087e-07
-1.6871882e-08
2.1579752e-07
-2.2332934e-08
2.4360328e-07
-2.8500319e-08
2.6889101e-07
-3.5225973e-08
2.9179477e-07
-4.2319116e-08
3.1286394e-07
-4.956073e-08
3.3300286e-07
-5.6719702e-08
3.5338455e-07
-6.3568831e-08
3.7535701e-07
-6.9898803e-08
4.0035636e-07
-7.5529711e-08
4.2983401e-07
-8.0320027e-08
4.6519986e-07
-8.4172613e-08
5.0777974e-07
-8.7038112e-08
5.5878444e-07
-8.8914668e-08
6.1928791e-07
-8.9843599e-08
6.9021272e-07
-8.9900629e-08
7.723205e-07
-8.9183021e-08
8.6620291e-07
-8.7794005e-08
9.7226413e-07
-8.5826585e-08
1.0906801e-06
-8.33493e-08
1.2213139e-06
-8.0396909e-08
1.363561e-06
-7.696542e-08
1.516096e-06
-7.3012328e-08
1.6764881e-06
-6.8460503e-08
1.8406494e-06
-6.3205041e-08
2.0020744e-06
-5.7121941e-08
2.1508192e-06
-5.0083125e-08
2.2721668e-06
-4.1984882e-08
2.3449337e-06
-3.2814427e-08
2.3394446e-06
-2.2792659e-08
2.2154102e-06
-1.2653244e-08
1.9203908e-06
-4.0564506e-09
1.3899946e-06
5.5010788e-07
-1.4862166e-10
1.1207993e-08
-6.4351782e-10
3.4592675e-08
-1.589865e-09
6.1862319e-08
-3.0969042e-09
9.2121808e-08
-5.2696621e-09
1.2428074e-07
-8.1976329e-09
1.5713992e-07
-1.1941503e-08
1.8951474e-07
-1.6520455e-08
2.2037647e-07
-2.1902515e-08
2.4898534e-07
-2.8000651e-08
2.7498915e-07
-3.4675508e-08
2.9846962e-07
-4.1744445e-08
3.1993288e-07
-4.8995132e-08
3.4025355e-07
-5.6201062e-08
3.6059048e-07
-6.3137018e-08
3.8229297e-07
-6.959287e-08
4.068122e-07
-7.5384943e-08
4.3562609e-07
-8.0365059e-08
4.7017998e-07
-8.4426865e-08
5.1184153e-07
-8.7509569e-08
5.6186713e-07
-8.9598617e-08
6.21377e-07
-9.0722837e-08
6.9133691e-07
-9.094673e-08
7.7254439e-07
-9.0359278e-08
8.6561544e-07
-8.9058991e-08
9.7096386e-07
-8.7138142e-08
1.0887593e-06
-8.4667845e-08
1.2188436e-06
-8.1687404e-08
1.3605805e-06
-7.8197729e-08
1.5126064e-06
-7.4161078e-08
1.6724515e-06
-6.9503723e-08
1.835992e-06
-6.4122618e-08
1.9966932e-06
-5.7895182e-08
2.1445918e-06
-5.0695608e-08
2.2649671e-06
-4.2425497e-08
2.3366637e-06
-3.3083832e-08
2.3301029e-06
-2.2913206e-08
2.2052397e-06
-1.2675095e-08
1.9101525e-06
-4.0453151e-09
1.3813649e-06
5.4606246e-07
-1.4482119e-10
1.1352814e-08
-6.2732891e-10
3.5075184e-08
-1.550591e-09
6.2785578e-08
-3.0221431e-09
9.3593362e-08
-5.1462077e-09
1.264048e-07
-8.0128285e-09
1.6000654e-07
-1.1685113e-08
1.9318702e-07
-1.6186654e-08
2.2487801e-07
-2.1491818e-08
2.5429051e-07
-2.7521206e-08
2.8101853e-07
-3.4143622e-08
3.0509204e-07
-4.1184251e-08
3.269735e-07
-4.8437257e-08
3.4750656e-07
-5.5680833e-08
3.6783406e-07
-6.2692061e-08
3.8930422e-07
-6.9260608e-08
4.1338072e-07
-7.5199808e-08
4.4156531e-07
-8.0355865e-08
4.7533603e-07
-8.4614213e-08
5.1609988e-07
-8.7903749e-08
5.6515668e-07
-9.0198245e-08
6.2367149e-07
-9.1514252e-08
6.9265292e-07
-9.1905225e-08
7.7293536e-07
-9.1451264e-08
8.6516145e-07
-9.0245286e-08
9.6975792e-07
-8.8377837e-08
1.0868918e-06
-8.5921382e-08
1.2163873e-06
-8.2919133e-08
1.3575783e-06
-7.9376852e-08
1.5090642e-06
-7.5261202e-08
1.6683358e-06
-7.0502117e-08
1.831233e-06
-6.4999084e-08
1.9911902e-06
-5.8631467e-08
2.1382242e-06
-5.1275815e-08
2.2576115e-06
-4.2839818e-08
2.3282276e-06
-3.3334232e-08
2.3205974e-06
-2.3023185e-08
2.1949287e-06
-1.2693292e-08
1.8998225e-06
-4.0341226e-09
1.3727059e-06
5.4202839e-07
-1.412556e-10
1.1494069e-08
-6.1212911e-10
3.5546058e-08
-1.5136718e-09
6.3687119e-08
-2.9517704e-09
9.5031463e-08
-5.029787e-09
1.2848282e-07
-7.838167e-09
1.6281492e-07
-1.1442104e-08
1.9679096e-07
-1.5869194e-08
2.293051e-07
-2.1099568e-08
2.5952088e-07
-2.7060942e-08
2.8697991e-07
-3.3629815e-08
3.1166091e-07
-4.0638759e-08
3.3398245e-07
-4.7888376e-08
3.5475617e-07
-5.5161487e-08
3.7510717e-07
-6.2237806e-08
3.9638054e-07
-6.8907146e-08
4.2005008e-07
-7.4980724e-08
4.4763885e-07
-8.0299803e-08
4.8065514e-07
-8.4742718e-08
5.2054278e-07
-8.8228988e-08
5.6864295e-07
-9.0721465e-08
6.2616397e-07
-9.2225196e-08
6.9415666e-07
-9.2782621e-08
7.7349274e-07
-9.2464493e-08
8.6484337e-07
-9.1357633e-08
9.6865109e-07