/*--------------------------------*- C++ -*----------------------------------*\
| =========                 |                                                 |
| \\      /  F ield         | OpenFOAM: The Open Source CFD Toolbox           |
|  \\    /   O peration     | Version:  3.0.1                                 |
|   \\  /    A nd           | Web:      www.OpenFOAM.org                      |
|    \\/     M anipulation  |                                                 |
\*---------------------------------------------------------------------------*/
FoamFile
{
    version     2.0;
    format      ascii;
    class       volScalarField;
    location    "2503";
    object      rho;
}
// * * * * * * * * * * * * * * * * * * * * * * * * * * * * * * * * * * * * * //

dimensions      [1 -3 0 0 0 0 0];

internalField   nonuniform List<scalar> 
4000
(
1.1591166
1.1720735
1.1820969
1.1893068
1.1941936
1.1973437
1.1992877
1.2004414
1.2011017
1.2014666
1.2016614
1.2017619
1.201812
1.201836
1.2018471
1.201852
1.2018541
1.201855
1.2018553
1.2018555
1.2018555
1.2018555
1.2018555
1.2018555
1.2018555
1.2018555
1.2018555
1.2018555
1.2018555
1.2018555
1.2018555
1.2018555
1.2018555
1.2018555
1.2018555
1.2018555
1.2018555
1.2018555
1.2018555
1.2018555
1.1487686
1.1610564
1.1717111
1.1804832
1.1873137
1.1923499
1.1958776
1.1982342
1.1997405
1.2006642
1.2012083
1.2015164
1.2016841
1.2017719
1.2018159
1.2018371
1.2018468
1.2018511
1.2018529
1.2018536
1.2018539
1.201854
1.201854
1.201854
1.201854
1.201854
1.201854
1.201854
1.201854
1.201854
1.201854
1.201854
1.201854
1.201854
1.201854
1.201854
1.201854
1.201854
1.201854
1.201854
1.1438158
1.1554985
1.165923
1.1749253
1.1823826
1.188283
1.1927381
1.1959512
1.1981687
1.1996356
1.2005668
1.2011345
1.2014668
1.2016535
1.201754
1.2018058
1.2018314
1.2018434
1.2018488
1.2018511
1.201852
1.2018523
1.2018525
1.2018525
1.2018525
1.2018525
1.2018525
1.2018525
1.2018525
1.2018525
1.2018525
1.2018525
1.2018525
1.2018525
1.2018525
1.2018525
1.2018525
1.2018525
1.2018525
1.2018525
1.1407064
1.1519769
1.1621482
1.1711222
1.1787917
1.1851034
1.1900903
1.19387
1.1966191
1.1985393
1.1998283
1.2006601
1.201176
1.2014832
1.2016587
1.2017547
1.2018049
1.20183
1.2018419
1.2018473
1.2018496
1.2018505
1.2018508
1.201851
1.201851
1.201851
1.201851
1.201851
1.201851
1.201851
1.201851
1.201851
1.201851
1.201851
1.201851
1.201851
1.201851
1.201851
1.201851
1.201851
1.1384879
1.1494561
1.1594144
1.1683062
1.1760455
1.182571
1.1878805
1.1920417
1.1951815
1.1974628
1.1990594
1.2001358
1.2008345
1.2012708
1.2015325
1.201683
1.2017659
1.2018094
1.2018312
1.2018416
1.2018463
1.2018483
1.2018491
1.2018494
1.2018495
1.2018495
1.2018495
1.2018495
1.2018495
1.2018495
1.2018495
1.2018495
1.2018495
1.2018495
1.2018495
1.2018495
1.2018495
1.2018495
1.2018495
1.2018495
1.1367858
1.147519
1.1573004
1.1661014
1.1738543
1.1804991
1.1860167
1.1904451
1.1938771
1.1964448
1.1982996
1.1995931
1.2004635
1.2010281
1.2013808
1.2015923
1.201714
1.2017809
1.201816
1.2018335
1.2018418
1.2018455
1.2018471
1.2018477
1.2018479
1.201848
1.201848
1.201848
1.201848
1.201848
1.201848
1.201848
1.201848
1.201848
1.201848
1.201848
1.201848
1.201848
1.201848
1.201848
1.1354166
1.1459591
1.1555916
1.164305
1.1720468
1.178761
1.1844202
1.1890436
1.1926999
1.1954975
1.1975685
1.1990517
1.2000789
1.2007661
1.2012098
1.2014855
1.2016502
1.2017443
1.2017958
1.2018225
1.2018358
1.201842
1.2018447
1.2018458
1.2018463
1.2018465
1.2018465
1.2018465
1.2018465
1.2018465
1.2018465
1.2018465
1.2018465
1.2018465
1.2018465
1.2018465
1.2018465
1.2018465
1.2018465
1.2018465
1.1342781
1.1446613
1.154166
1.1627982
1.1705173
1.1772723
1.1830319
1.1878026
1.1916356
1.194621
1.1968745
1.1985231
1.1996916
1.2004934
1.2010254
1.201366
1.2015759
1.2017001
1.2017704
1.2018084
1.201828
1.2018375
1.2018419
1.2018438
1.2018446
1.2018449
1.201845
1.201845
1.201845
1.201845
1.201845
1.201845
1.201845
1.201845
1.201845
1.201845
1.201845
1.201845
1.201845
1.201845
1.1333081
1.1435549
1.1529483
1.1615059
1.1691969
1.1759755
1.1818083
1.1866935
1.1906692
1.1938104
1.1962196
1.198013
1.1993086
1.2002163
1.2008324
1.2012368
1.2014929
1.2016489
1.2017402
1.2017911
1.2018183
1.201832
1.2018385
1.2018415
1.2018428
1.2018433
1.2018434
1.2018435
1.2018435
1.2018435
1.2018435
1.2018435
1.2018435
1.2018435
1.2018435
1.2018435
1.2018435
1.2018435
1.2018435
1.2018435
1.1324658
1.1425941
1.1518892
1.1603782
1.1680388
1.1748298
1.1807174
1.1856937
1.1897867
1.1930595
1.195603
1.197524
1.1989339
1.1999391
1.2006346
1.2011008
1.2014029
1.2015918
1.2017053
1.2017706
1.2018065
1.2018252
1.2018345
1.2018389
1.2018408
1.2018416
1.2018419
1.201842
1.201842
1.201842
1.201842
1.201842
1.201842
1.201842
1.201842
1.201842
1.201842
1.201842
1.201842
1.201842
1.1317235
1.141747
1.1509544
1.1593804
1.1670099
1.173806
1.1797351
1.1847854
1.1889765
1.1923618
1.1950224
1.1970566
1.1985699
1.1996648
1.2004347
1.2009602
1.2013077
1.2015297
1.2016663
1.201747
1.2017926
1.2018172
1.2018298
1.2018358
1.2018386
1.2018398
1.2018403
1.2018404
1.2018405
1.2018405
1.2018405
1.2018405
1.2018405
1.2018405
1.2018405
1.2018405
1.2018405
1.2018405
1.2018405
1.2018405
1.1310614
1.1409913
1.1501196
1.1584875
1.1660858
1.172882
1.1788432
1.1839543
1.1882286
1.1917114
1.194475
1.1966106
1.1982176
1.1993952
1.2002349
1.2008169
1.2012084
1.2014634
1.2016237
1.2017206
1.2017768
1.2018079
1.2018242
1.2018324
1.2018362
1.2018379
1.2018386
1.2018389
1.201839
1.201839
1.201839
1.201839
1.201839
1.201839
1.201839
1.201839
1.201839
1.201839
1.201839
1.201839
1.1304648
1.1403103
1.1493667
1.1576807
1.1652486
1.1720414
1.1780274
1.1831891
1.187535
1.191103
1.1939582
1.1961849
1.1978775
1.1991315
1.2000365
1.2006723
1.2011064
1.2013939
1.201578
1.2016916
1.201759
1.2017972
1.2018178
1.2018284
1.2018336
1.2018359
1.2018369
1.2018373
1.2018375
1.2018375
1.2018375
1.2018375
1.2018375
1.2018375
1.2018375
1.2018375
1.2018375
1.2018375
1.2018375
1.2018375
1.1299227
1.1396914
1.148682
1.156946
1.1644842
1.1712712
1.1772765
1.1824809
1.1868887
1.1905319
1.1934691
1.1957785
1.1975495
1.1988742
1.1998405
1.2005274
1.2010025
1.2013218
1.2015297
1.2016603
1.2017394
1.2017852
1.2018106
1.201824
1.2018306
1.2018337
1.2018351
1.2018357
1.2018359
1.201836
1.201836
1.201836
1.201836
1.201836
1.201836
1.201836
1.201836
1.201836
1.201836
1.201836
1.1294266
1.1391249
1.148055
1.1562722
1.1637817
1.1705612
1.1765814
1.1818221
1.1862841
1.1899943
1.1930053
1.19539
1.1972332
1.1986238
1.1996477
1.200383
1.2008976
1.2012478
1.2014792
1.201627
1.2017181
1.201772
1.2018025
1.201819
1.2018274
1.2018314
1.2018333
1.201834
1.2018344
1.2018345
1.2018345
1.2018345
1.2018345
1.2018345
1.2018345
1.2018345
1.2018345
1.2018345
1.2018345
1.2018345
1.1289696
1.1386032
1.1474772
1.1556506
1.1631324
1.1699032
1.1759349
1.1812068
1.1857164
1.1894866
1.1925646
1.1950183
1.1969282
1.1983802
1.1994583
1.2002397
1.2007921
1.2011725
1.201427
1.201592
1.2016954
1.2017577
1.2017936
1.2018134
1.2018238
1.2018289
1.2018313
1.2018324
1.2018328
1.2018329
1.201833
1.201833
1.201833
1.201833
1.201833
1.201833
1.201833
1.201833
1.201833
1.201833
1.1285466
1.1381202
1.1469419
1.1550742
1.1625292
1.1692904
1.1753311
1.1806297
1.1851817
1.1890058
1.1921449
1.1946621
1.196634
1.1981435
1.1992727
1.2000979
1.2006867
1.2010962
1.2013734
1.2015556
1.2016713
1.2017422
1.2017839
1.2018073
1.2018199
1.2018262
1.2018292
1.2018306
1.2018312
1.2018314
1.2018315
1.2018315
1.2018315
1.2018315
1.2018315
1.2018315
1.2018315
1.2018315
1.2018315
1.2018315
1.128153
1.1376707
1.1464438
1.1545373
1.1619665
1.1687175
1.1747648
1.1800866
1.1846764
1.1885495
1.1917445
1.1943203
1.1963499
1.1979134
1.1990909
1.1999579
1.2005816
1.2010194
1.2013188
1.2015178
1.201646
1.2017257
1.2017734
1.2018007
1.2018156
1.2018233
1.2018271
1.2018288
1.2018296
1.2018299
1.20183
1.20183
1.20183
1.20183
1.20183
1.20183
1.20183
1.20183
1.20183
1.20183
1.1277852
1.1372508
1.1459782
1.1540351
1.1614395
1.1681798
1.174232
1.179574
1.1841976
1.1881152
1.1913616
1.1939919
1.1960755
1.1976898
1.1989131
1.1998199
1.200477
1.2009422
1.2012634
1.2014791
1.2016197
1.2017084
1.2017622
1.2017935
1.2018109
1.2018201
1.2018248
1.2018269
1.2018279
1.2018283
1.2018285
1.2018285
1.2018285
1.2018285
1.2018285
1.2018285
1.2018285
1.2018285
1.2018285
1.2018285
1.1274404
1.136857
1.1455414
1.1535636
1.1609441
1.1676736
1.173729
1.1790887
1.1837429
1.1877011
1.190995
1.193676
1.1958102
1.1974724
1.1987392
1.199684
1.2003734
1.200865
1.2012073
1.2014395
1.2015925
1.2016901
1.2017502
1.2017858
1.2018059
1.2018168
1.2018223
1.201825
1.2018262
1.2018267
1.2018269
1.201827
1.201827
1.201827
1.201827
1.201827
1.201827
1.201827
1.201827
1.201827
1.1271159
1.1364865
1.1451303
1.1531196
1.1604771
1.1671954
1.173253
1.1786282
1.1833099
1.1873055
1.1906434
1.1933716
1.1955534
1.197261
1.1985692
1.1995503
1.2002707
1.200788
1.2011509
1.2013992
1.2015645
1.2016712
1.2017377
1.2017776
1.2018006
1.2018132
1.2018197
1.201823
1.2018245
1.2018251
1.2018254
1.2018255
1.2018255
1.2018255
1.2018255
1.2018255
1.2018255
1.2018255
1.2018255
1.2018255
1.1268097
1.1361367
1.1447422
1.1527001
1.1600354
1.1667426
1.1728013
1.17819
1.1828968
1.1869268
1.1903055
1.1930781
1.1953047
1.1970552
1.1984029
1.1994189
1.2001691
1.2007112
1.2010942
1.2013584
1.2015358
1.2016515
1.2017246
1.201769
1.2017949
1.2018093
1.201817
1.2018209
1.2018227
1.2018235
1.2018238
1.201824
1.201824
1.201824
1.201824
1.201824
1.201824
1.201824
1.201824
1.201824
1.1265198
1.1358057
1.1443748
1.1523028
1.1596167
1.1663126
1.1723717
1.1777724
1.1825019
1.1865636
1.1899805
1.1927946
1.1950636
1.196855
1.1982402
1.1992897
1.2000687
1.2006348
1.2010374
1.2013171
1.2015066
1.2016313
1.2017109
1.2017599
1.2017889
1.2018053
1.2018141
1.2018187
1.2018208
1.2018218
1.2018223
1.2018224
1.2018225
1.2018225
1.2018225
1.2018225
1.2018225
1.2018225
1.2018225
1.2018225
1.1262448
1.1354917
1.1440262
1.1519256
1.1592187
1.1659036
1.1719621
1.1773734
1.1821237
1.1862148
1.1896673
1.1925206
1.1948297
1.1966599
1.1980812
1.1991628
1.1999695
1.200559
1.2009806
1.2012756
1.2014769
1.2016105
1.2016967
1.2017503
1.2017825
1.201801
1.2018111
1.2018164
1.201819
1.2018202
1.2018207
1.2018209
1.201821
1.201821
1.201821
1.201821
1.201821
1.201821
1.201821
1.201821
1.1259833
1.1351931
1.1436946
1.1515667
1.1588398
1.1655135
1.171571
1.1769915
1.1817609
1.1858793
1.1893652
1.1922554
1.1946025
1.1964698
1.1979255
1.1990381
1.1998716
1.2004837
1.2009239
1.2012338
1.2014467
1.2015893
1.2016821
1.2017404
1.2017758
1.2017964
1.2018079
1.201814
1.201817
1.2018185
1.2018191
1.2018194
1.2018195
1.2018195
1.2018195
1.2018195
1.2018195
1.2018195
1.2018195
1.2018195
1.1257341
1.1349085
1.1433785
1.1512244
1.1584781
1.1651409
1.1711968
1.1766255
1.1814124
1.1855562
1.1890734
1.1919984
1.1943817
1.1962844
1.1977732
1.1989155
1.199775
1.200409
1.2008674
1.2011919
1.2014163
1.2015677
1.201667
1.2017301
1.2017689
1.2017917
1.2018046
1.2018115
1.201815
1.2018167
1.2018175
1.2018178
1.201818
1.201818
1.201818
1.201818
1.201818
1.201818
1.201818
1.201818
1.1254961
1.1346367
1.1430767
1.1508974
1.1581324
1.1647842
1.1708381
1.1762741
1.1810771
1.1852446
1.1887912
1.1917493
1.194167
1.1961035
1.1976241
1.1987951
1.1996796
1.200335
1.2008111
1.2011498
1.2013856
1.2015457
1.2016516
1.2017195
1.2017616
1.2017867
1.2018011
1.2018089
1.201813
1.2018149
1.2018159
1.2018163
1.2018164
1.2018165
1.2018165
1.2018165
1.2018165
1.2018165
1.2018165
1.2018165
1.1252685
1.1343768
1.1427879
1.1505844
1.1578013
1.1644424
1.1704939
1.1759362
1.180754
1.1849437
1.1885181
1.1915075
1.193958
1.1959269
1.197478
1.1986767
1.1995856
1.2002617
1.200755
1.2011078
1.2013547
1.2015234
1.2016359
1.2017086
1.2017541
1.2017815
1.2017974
1.2018062
1.2018108
1.2018131
1.2018142
1.2018147
1.2018149
1.201815
1.201815
1.201815
1.201815
1.201815
1.201815
1.201815
1.1250503
1.1341277
1.1425112
1.1502845
1.1574837
1.1641141
1.1701629
1.1756109
1.1804424
1.1846528
1.1882534
1.1912726
1.1937544
1.1957544
1.197335
1.1985604
1.1994929
1.2001891
1.2006993
1.2010658
1.2013236
1.2015009
1.2016198
1.2016973
1.2017463
1.2017762
1.2017936
1.2018034
1.2018086
1.2018113
1.2018126
1.2018131
1.2018134
1.2018135
1.2018135
1.2018135
1.2018135
1.2018135
1.2018135
1.2018135
1.124841
1.1338887
1.1422456
1.1499965
1.1571787
1.1637986
1.1698444
1.1752973
1.1801415
1.1843714
1.1879968
1.1910443
1.193556
1.1955858
1.1971947
1.1984461
1.1994014
1.2001173
1.2006439
1.2010238
1.2012924
1.2014782
1.2016035
1.2016858
1.2017383
1.2017706
1.2017897
1.2018005
1.2018064
1.2018094
1.2018109
1.2018115
1.2018118
1.201812
1.201812
1.201812
1.201812
1.201812
1.201812
1.201812
1.1246399
1.1336591
1.1419904
1.1497196
1.1568852
1.1634948
1.1695373
1.1749946
1.1798505
1.1840987
1.1877476
1.1908221
1.1933624
1.1954209
1.1970572
1.1983337
1.1993112
1.2000462
1.2005889
1.200982
1.2012611
1.2014552
1.201587
1.2016741
1.2017301
1.2017648
1.2017856
1.2017975
1.2018041
1.2018075
1.2018092
1.2018099
1.2018103
1.2018104
1.2018105
1.2018105
1.2018105
1.2018105
1.2018105
1.2018105
1.1244463
1.133438
1.1417448
1.1494531
1.1566026
1.1632019
1.1692411
1.1747022
1.1795689
1.1838344
1.1875055
1.1906058
1.1931736
1.1952597
1.1969224
1.1982231
1.1992222
1.1999759
1.2005342
1.2009402
1.2012298
1.2014321
1.2015702
1.2016621
1.2017216
1.2017589
1.2017814
1.2017944
1.2018017
1.2018055
1.2018074
1.2018083
1.2018087
1.2018089
1.201809
1.201809
1.201809
1.201809
1.201809
1.201809
1.1242598
1.1332251
1.1415081
1.1491962
1.15633
1.1629193
1.1689549
1.1744193
1.1792962
1.1835778
1.1872702
1.190395
1.1929891
1.1951018
1.19679
1.1981143
1.1991344
1.1999063
1.20048
1.2008987
1.2011985
1.2014089
1.2015533
1.20165
1.201713
1.2017527
1.201777
1.2017912
1.2017992
1.2018035
1.2018057
1.2018067
1.2018072
1.2018074
1.2018075
1.2018075
1.2018075
1.2018075
1.2018075
1.2018075
1.1240799
1.1330197
1.1412797
1.1489483
1.1560669
1.1626463
1.1686781
1.1741454
1.1790317
1.1833287
1.1870411
1.1901894
1.1928089
1.1949472
1.1966601
1.1980073
1.1990478
1.1998374
1.2004261
1.2008573
1.2011672
1.2013855
1.2015362
1.2016376
1.2017041
1.2017465
1.2017725
1.2017879
1.2017967
1.2018014
1.2018039
1.2018051
1.2018056
1.2018059
1.201806
1.201806
1.201806
1.201806
1.201806
1.201806
1.1239061
1.1328213
1.1410592
1.1487088
1.1558126
1.1623823
1.1684102
1.17388
1.178775
1.1830865
1.1868181
1.1899889
1.1926327
1.1947958
1.1965326
1.197902
1.1989624
1.1997693
1.2003727
1.200816
1.2011358
1.2013621
1.2015189
1.2016251
1.2016952
1.20174
1.2017679
1.2017845
1.2017941
1.2017993
1.201802
1.2018034
1.201804
1.2018043
1.2018044
1.2018045
1.2018045
1.2018045
1.2018045
1.2018045
1.1237381
1.1326295
1.140846
1.1484772
1.1555666
1.1621267
1.1681507
1.1736225
1.1785257
1.1828509
1.1866008
1.1897932
1.1924604
1.1946473
1.1964073
1.1977983
1.1988781
1.199702
1.2003198
1.200775
1.2011046
1.2013387
1.2015016
1.2016124
1.201686
1.2017335
1.2017631
1.201781
1.2017914
1.2017971
1.2018002
1.2018017
1.2018024
1.2018028
1.2018029
1.201803
1.201803
1.201803
1.201803
1.201803
1.1235756
1.132444
1.1406397
1.1482531
1.1553284
1.1618791
1.167899
1.1733726
1.1782834
1.1826215
1.1863889
1.189602
1.1922917
1.1945017
1.1962843
1.1976962
1.1987949
1.1996353
1.2002672
1.2007342
1.2010734
1.2013151
1.2014841
1.2015996
1.2016767
1.2017268
1.2017583
1.2017774
1.2017886
1.2017949
1.2017983
1.2018
1.2018009
1.2018012
1.2018014
1.2018015
1.2018015
1.2018015
1.2018015
1.2018015
1.1234181
1.1322642
1.1404398
1.1480359
1.1550975
1.1616389
1.1676547
1.1731298
1.1780477
1.1823981
1.1861822
1.1894151
1.1921266
1.194359
1.1961633
1.1975956
1.1987128
1.1995694
1.2002151
1.2006937
1.2010422
1.2012916
1.2014665
1.2015867
1.2016673
1.2017199
1.2017533
1.2017737
1.2017858
1.2017927
1.2017964
1.2017983
1.2017992
1.2017997
1.2017999
1.2018
1.2018
1.2018
1.2018
1.2018
1.1232655
1.13209
1.1402461
1.1478253
1.1548736
1.1614058
1.1674175
1.1728937
1.1778182
1.1821804
1.1859803
1.1892324
1.1919649
1.1942188
1.1960443
1.1974965
1.1986318
1.1995042
1.2001634
1.2006533
1.2010112
1.201268
1.2014489
1.2015736
1.2016577
1.2017129
1.2017482
1.20177
1.201783
1.2017904
1.2017944
1.2017966
1.2017976
1.2017981
1.2017983
1.2017984
1.2017985
1.2017985
1.2017985
1.2017985
1.1231174
1.1319209
1.1400581
1.147621
1.1546562
1.1611794
1.1671868
1.172664
1.1775947
1.181968
1.1857832
1.1890536
1.1918063
1.1940813
1.1959273
1.1973989
1.1985517
1.1994396
1.2001122
1.2006132
1.2009802
1.2012445
1.2014312
1.2015605
1.201648
1.2017059
1.201743
1.2017661
1.20178
1.201788
1.2017925
1.2017948
1.201796
1.2017966
1.2017968
1.2017969
1.201797
1.201797
1.201797
1.201797
1.1229736
1.1317568
1.1398755
1.1474225
1.1544449
1.1609594
1.1669625
1.1724404
1.1773769
1.1817607
1.1855905
1.1888786
1.1916509
1.1939462
1.1958122
1.1973027
1.1984727
1.1993758
1.2000613
1.2005733
1.2009494
1.2012209
1.2014134
1.2015472
1.2016382
1.2016987
1.2017377
1.2017622
1.201777
1.2017856
1.2017904
1.201793
1.2017943
1.201795
1.2017953
1.2017954
1.2017955
1.2017955
1.2017955
1.2017955
1.1228338
1.1315973
1.1396981
1.1472296
1.1542396
1.1607453
1.1667441
1.1722225
1.1771645
1.1815583
1.1854022
1.1887072
1.1914985
1.1938134
1.195699
1.1972078
1.1983946
1.1993126
1.2000109
1.2005337
1.2009187
1.2011974
1.2013956
1.2015339
1.2016284
1.2016914
1.2017323
1.2017582
1.2017739
1.2017832
1.2017884
1.2017912
1.2017927
1.2017934
1.2017937
1.2017939
1.201794
1.201794
1.201794
1.201794
1.1226979
1.1314421
1.1395256
1.147042
1.1540398
1.160537
1.1665314
1.1720102
1.1769572
1.1813606
1.1852179
1.1885393
1.1913489
1.193683
1.1955875
1.1971143
1.1983175
1.19925
1.199961
1.2004943
1.200888
1.2011738
1.2013777
1.2015205
1.2016184
1.201684
1.2017269
1.2017541
1.2017708
1.2017807
1.2017863
1.2017894
1.201791
1.2017918
1.2017922
1.2017924
1.2017924
1.2017925
1.2017925
1.2017925
1.1225656
1.1312912
1.1393578
1.1468594
1.1538453
1.160334
1.1663241
1.171803
1.1767548
1.1811673
1.1850375
1.1883748
1.1912021
1.1935547
1.1954777
1.197022
1.1982413
1.1991881
1.1999114
1.2004552
1.2008575
1.2011504
1.2013599
1.201507
1.2016083
1.2016765
1.2017213
1.2017499
1.2017676
1.2017781
1.2017842
1.2017875
1.2017893
1.2017902
1.2017906
1.2017908
1.2017909
1.201791
1.201791
1.201791
1.1224369
1.1311442
1.1391943
1.1466815
1.1536558
1.1601362
1.166122
1.1716008
1.176557
1.1809782
1.1848609
1.1882135
1.191058
1.1934286
1.1953695
1.196931
1.1981661
1.1991268
1.1998623
1.2004163
1.2008272
1.2011269
1.201342
1.2014935
1.2015982
1.201669
1.2017157
1.2017456
1.2017643
1.2017755
1.201782
1.2017857
1.2017876
1.2017886
1.2017891
1.2017893
1.2017894
1.2017895
1.2017895
1.2017895
1.1223114
1.131001
1.139035
1.1465082
1.1534711
1.1599434
1.1659248
1.1714034
1.1763638
1.1807933
1.1846879
1.1880552
1.1909164
1.1933046
1.195263
1.1968412
1.1980917
1.1990662
1.1998135
1.2003777
1.2007969
1.2011035
1.2013241
1.2014799
1.201588
1.2016613
1.2017099
1.2017413
1.201761
1.2017729
1.2017799
1.2017838
1.2017859
1.201787
1.2017875
1.2017878
1.2017879
1.2017879
1.201788
1.201788
1.122189
1.1308614
1.1388797
1.1463393
1.1532909
1.1597552
1.1657322
1.1712106
1.1761748
1.1806123
1.1845183
1.1878999
1.1907772
1.1931825
1.195158
1.1967526
1.1980181
1.1990061
1.1997652
1.2003393
1.2007668
1.2010802
1.2013062
1.2014663
1.2015777
1.2016536
1.2017041
1.2017369
1.2017576
1.2017702
1.2017776
1.2017819
1.2017842
1.2017854
1.201786
1.2017862
1.2017864
1.2017864
1.2017865
1.2017865
1.1220697
1.1307252
1.1387282
1.1461744
1.1531152
1.1595715
1.1655441
1.1710221
1.17599
1.180435
1.1843521
1.1877475
1.1906405
1.1930623
1.1950545
1.1966651
1.1979454
1.1989466
1.1997172
1.2003012
1.2007369
1.2010569
1.2012882
1.2014526
1.2015674
1.2016458
1.2016983
1.2017325
1.2017542
1.2017675
1.2017754
1.2017799
1.2017824
1.2017837
1.2017844
1.2017847
1.2017848
1.2017849
1.2017849
1.2017849
1.1219532
1.1305923
1.1385804
1.1460135
1.1529435
1.1593921
1.1653604
1.1708377
1.175809
1.1802613
1.184189
1.1875978
1.190506
1.192944
1.1949525
1.1965787
1.1978735
1.1988878
1.1996697
1.2002633
1.200707
1.2010337
1.2012703
1.201439
1.201557
1.201638
1.2016923
1.201728
1.2017507
1.2017647
1.2017731
1.2017779
1.2017806
1.2017821
1.2017828
1.2017832
1.2017833
1.2017834
1.2017834
1.2017834
1.1218394
1.1304625
1.138436
1.1458563
1.1527759
1.1592167
1.1651807
1.1706574
1.1756319
1.1800911
1.1840291
1.1874508
1.1903738
1.1928275
1.1948519
1.1964934
1.1978024
1.1988294
1.1996225
1.2002256
1.2006773
1.2010105
1.2012524
1.2014252
1.2015465
1.20163
1.2016863
1.2017234
1.2017471
1.2017619
1.2017708
1.2017759
1.2017788
1.2017804
1.2017812
1.2017816
1.2017818
1.2017819
1.2017819
1.2017819
1.1217283
1.1303357
1.1382949
1.1457028
1.152612
1.1590453
1.1650049
1.1704809
1.1754584
1.1799242
1.1838721
1.1873063
1.1902436
1.1927128
1.1947526
1.1964092
1.1977321
1.1987717
1.1995757
1.2001882
1.2006478
1.2009874
1.2012345
1.2014115
1.201536
1.2016221
1.2016803
1.2017187
1.2017435
1.201759
1.2017684
1.2017739
1.201777
1.2017787
1.2017796
1.20178
1.2017803
1.2017804
1.2017804
1.2017804
1.1216196
1.1302117
1.1381571
1.1455526
1.1524518
1.1588776
1.1648329
1.170308
1.1752883
1.1797605
1.1837179
1.1871643
1.1901156
1.1925997
1.1946547
1.1963259
1.1976626
1.1987144
1.1995293
1.2001511
1.2006184
1.2009644
1.2012167
1.2013977
1.2015255
1.201614
1.2016742
1.2017141
1.2017399
1.2017561
1.201766
1.2017719
1.2017752
1.201777
1.201778
1.2017785
1.2017787
1.2017788
1.2017789
1.2017789
1.1215134
1.1300905
1.1380222
1.1454058
1.152295
1.1587135
1.1646645
1.1701387
1.1751216
1.1795999
1.1835665
1.1870247
1.1899896
1.1924883
1.1945581
1.1962437
1.1975937
1.1986577
1.1994833
1.2001141
1.2005891
1.2009414
1.2011988
1.201384
1.2015149
1.201606
1.201668
1.2017093
1.2017362
1.2017532
1.2017636
1.2017698
1.2017734
1.2017753
1.2017764
1.2017769
1.2017772
1.2017773
1.2017774
1.2017774
1.1214094
1.1299719
1.1378903
1.1452622
1.1521417
1.1585529
1.1644996
1.1699727
1.1749581
1.1794422
1.1834178
1.1868874
1.1898655
1.1923784
1.1944627
1.1961624
1.1975256
1.1986016
1.1994376
1.2000775
1.20056
1.2009185
1.201181
1.2013702
1.2015043
1.2015978
1.2016618
1.2017045
1.2017324
1.2017502
1.2017612
1.2017677
1.2017715
1.2017736
1.2017748
1.2017754
1.2017756
1.2017758
1.2017758
1.2017759
1.1213077
1.1298559
1.1377612
1.1451215
1.1519915
1.1583956
1.164338
1.1698101
1.1747977
1.1792875
1.1832716
1.1867523
1.1897433
1.1922701
1.1943686
1.1960821
1.1974582
1.1985459
1.1993923
1.200041
1.200531
1.2008957
1.2011632
1.2013564
1.2014937
1.2015897
1.2016555
1.2016997
1.2017286
1.2017472
1.2017587
1.2017656
1.2017696
1.2017719
1.2017731
1.2017738
1.2017741
1.2017743
1.2017743
1.2017743
1.121208
1.1297422
1.1376347
1.1449838
1.1518444
1.1582415
1.1641796
1.1696506
1.1746404
1.1791355
1.1831279
1.1866194
1.1896229
1.1921632
1.1942756
1.1960026
1.1973915
1.1984907
1.1993473
1.2000048
1.2005021
1.2008729
1.2011454
1.2013426
1.2014831
1.2015815
1.2016492
1.2016948
1.2017248
1.2017441
1.2017561
1.2017634
1.2017677
1.2017702
1.2017715
1.2017722
1.2017726
1.2017727
1.2017728
1.2017728
1.1211104
1.1296309
1.1375109
1.1448489
1.1517003
1.1580905
1.1640243
1.1694941
1.1744859
1.1789861
1.1829866
1.1864885
1.1895042
1.1920579
1.1941838
1.1959241
1.1973255
1.198436
1.1993026
1.1999688
1.2004734
1.2008503
1.2011276
1.2013288
1.2014724
1.2015732
1.2016428
1.2016898
1.2017209
1.201741
1.2017536
1.2017613
1.2017658
1.2017684
1.2017698
1.2017706
1.201771
1.2017712
1.2017713
1.2017713
1.1210148
1.1295218
1.1373895
1.1447167
1.1515591
1.1579424
1.163872
1.1693405
1.1743341
1.1788393
1.1828477
1.1863597
1.1893873
1.1919539
1.1940931
1.1958465
1.1972601
1.1983818
1.1992583
1.199933
1.2004449
1.2008277
1.2011099
1.2013149
1.2014617
1.2015649
1.2016364
1.2016848
1.201717
1.2017378
1.201751
1.2017591
1.2017639
1.2017666
1.2017682
1.201769
1.2017694
1.2017696
1.2017697
1.2017698
1.120921
1.1294149
1.1372706
1.1445871
1.1514206
1.1577971
1.1637226
1.1691897
1.1741851
1.1786951
1.1827109
1.1862328
1.189272
1.1918513
1.1940035
1.1957697
1.1971954
1.1983281
1.1992143
1.1998975
1.2004164
1.2008052
1.2010922
1.2013011
1.2014509
1.2015566
1.2016299
1.2016798
1.201713
1.2017347
1.2017484
1.2017569
1.2017619
1.2017649
1.2017665
1.2017674
1.2017679
1.2017681
1.2017682
1.2017682
1.1208291
1.12931
1.1371539
1.14446
1.1512847
1.1576546
1.1635759
1.1690417
1.1740387
1.1785532
1.1825763
1.1861079
1.1891584
1.19175
1.193915
1.1956937
1.1971313
1.1982748
1.1991707
1.1998621
1.2003882
1.2007827
1.2010746
1.2012873
1.2014402
1.2015483
1.2016234
1.2016747
1.201709
1.2017315
1.2017457
1.2017546
1.2017599
1.2017631
1.2017648
1.2017658
1.2017663
1.2017665
1.2017667
1.2017667
1.1207389
1.1292071
1.1370395
1.1443353
1.1511514
1.1575148
1.1634319
1.1688963
1.1738947
1.1784137
1.1824439
1.1859847
1.1890463
1.19165
1.1938275
1.1956185
1.1970678
1.198222
1.1991274
1.199827
1.20036
1.2007604
1.2010569
1.2012735
1.2014294
1.2015399
1.2016169
1.2016696
1.201705
1.2017282
1.2017431
1.2017523
1.2017579
1.2017612
1.2017631
1.2017642
1.2017647
1.201765
1.2017651
1.2017651
1.1206503
1.1291062
1.1369272
1.1442129
1.1510206
1.1573774
1.1632905
1.1687534
1.1737532
1.1782764
1.1823135
1.1858634
1.1889358
1.1915513
1.1937411
1.1955442
1.1970049
1.1981697
1.1990843
1.1997921
1.200332
1.2007381
1.2010393
1.2012597
1.2014186
1.2015315
1.2016103
1.2016645
1.2017009
1.2017249
1.2017404
1.20175
1.2017559
1.2017594
1.2017614
1.2017625
1.2017631
1.2017634
1.2017636
1.2017636
1.1205634
1.1290071
1.1368169
1.1440928
1.1508921
1.1572426
1.1631515
1.1686129
1.1736141
1.1781413
1.182185
1.1857438
1.1888267
1.1914538
1.1936556
1.1954706
1.1969426
1.1981177
1.1990416
1.1997574
1.2003041
1.2007159
1.2010218
1.2012459
1.2014078
1.201523
1.2016037
1.2016593
1.2016968
1.2017216
1.2017376
1.2017477
1.2017539
1.2017576
1.2017597
1.2017609
1.2017615
1.2017619
1.201762
1.201762
1.1204781
1.1289098
1.1367087
1.1439748
1.150766
1.1571101
1.163015
1.1684749
1.1734772
1.1780083
1.1820585
1.1856259
1.188719
1.1913575
1.1935711
1.1953977
1.1968808
1.1980662
1.1989992
1.1997229
1.2002764
1.2006938
1.2010043
1.2012322
1.201397
1.2015146
1.2015971
1.2016541
1.2016926
1.2017182
1.2017348
1.2017454
1.2017518
1.2017557
1.201758
1.2017593
1.2017599
1.2017603
1.2017604
1.2017605
1.1203943
1.1288142
1.1366023
1.143859
1.150642
1.15698
1.1628808
1.1683391
1.1733425
1.1778774
1.1819338
1.1855096
1.1886128
1.1912624
1.1934875
1.1953256
1.1968197
1.1980151
1.1989571
1.1996887
1.2002488
1.2006717
1.2009868
1.2012184
1.2013862
1.2015061
1.2015905
1.2016488
1.2016885
1.2017149
1.201732
1.201743
1.2017498
1.2017538
1.2017562
1.2017576
1.2017583
1.2017587
1.2017589
1.2017589
1.1203119
1.1287203
1.1364979
1.1437451
1.1505202
1.156852
1.1627488
1.1682056
1.17321
1.1777485
1.1818109
1.1853949
1.1885079
1.1911684
1.1934048
1.1952542
1.196759
1.1979644
1.1989153
1.1996546
1.2002213
1.2006498
1.2009694
1.2012046
1.2013754
1.2014976
1.2015838
1.2016435
1.2016842
1.2017114
1.2017292
1.2017406
1.2017477
1.201752
1.2017545
1.2017559
1.2017567
1.2017571
1.2017573
1.2017574
1.1202309
1.128628
1.1363952
1.1436332
1.1504005
1.1567262
1.1626191
1.1680742
1.1730795
1.1776215
1.1816898
1.1852818
1.1884044
1.1910755
1.1933231
1.1951835
1.196699
1.1979141
1.1988738
1.1996207
1.2001939
1.2006279
1.200952
1.2011909
1.2013646
1.2014891
1.201577
1.2016382
1.20168
1.201708
1.2017264
1.2017382
1.2017455
1.20175
1.2017527
1.2017543
1.2017551
1.2017555
1.2017557
1.2017558
1.1201514
1.1285373
1.1362943
1.1435232
1.1502828
1.1566025
1.1624914
1.1679448
1.172951
1.1774963
1.1815704
1.1851702
1.1883021
1.1909836
1.1932422
1.1951136
1.1966394
1.1978642
1.1988325
1.199587
1.2001667
1.2006061
1.2009347
1.2011772
1.2013537
1.2014805
1.2015703
1.2016329
1.2016757
1.2017045
1.2017235
1.2017357
1.2017434
1.2017481
1.2017509
1.2017526
1.2017535
1.2017539
1.2017541
1.2017542
1.1200731
1.1284481
1.136195
1.143415
1.150167
1.1564809
1.1623658
1.1678176
1.1728245
1.177373
1.1814527
1.18506
1.1882011
1.1908929
1.1931621
1.1950442
1.1965804
1.1978147
1.1987916
1.1995535
1.2001396
1.2005844
1.2009174
1.2011634
1.2013429
1.201472
1.2015635
1.2016275
1.2016714
1.201701
1.2017206
1.2017332
1.2017413
1.2017462
1.2017491
1.2017509
1.2017518
1.2017523
1.2017526
1.2017526
1.1199961
1.1283603
1.1360974
1.1433086
1.1500532
1.1563611
1.1622422
1.1676922
1.1726998
1.1772515
1.1813366
1.1849513
1.1881014
1.1908031
1.1930829
1.1949756
1.1965218
1.1977655
1.1987509
1.1995203
1.2001127
1.2005627
1.2009001
1.2011497
1.2013321
1.2014634
1.2015567
1.2016221
1.201667
1.2016975
1.2017176
1.2017308
1.2017391
1.2017442
1.2017473
1.2017492
1.2017502
1.2017507
1.201751
1.201751
1.1199204
1.128274
1.1360014
1.1432039
1.1499411
1.1562433
1.1621204
1.1675688
1.172577
1.1771317
1.181222
1.1848439
1.1880028
1.1907144
1.1930045
1.1949076
1.1964638
1.1977168
1.1987104
1.1994871
1.2000858
1.2005411
1.2008829
1.2011361
1.2013212
1.2014548
1.2015499
1.2016166
1.2016627
1.2016939
1.2017147
1.2017282
1.2017369
1.2017423
1.2017455
1.2017474
1.2017485
1.2017491
1.2017494
1.2017494
1.1198459
1.1281891
1.1359069
1.1431009
1.1498308
1.1561273
1.1620006
1.1674472
1.172456
1.1770136
1.181109
1.184738
1.1879054
1.1906266
1.1929269
1.1948402
1.1964063
1.1976684
1.1986703
1.1994542
1.2000591
1.2005196
1.2008657
1.2011224
1.2013104
1.2014462
1.2015431
1.2016112
1.2016583
1.2016903
1.2017117
1.2017257
1.2017347
1.2017403
1.2017437
1.2017457
1.2017469
1.2017475
1.2017477
1.2017478
1.1197725
1.1281054
1.1358139
1.1429995
1.1497223
1.1560131
1.1618826
1.1673275
1.1723367
1.176897
1.1809974
1.1846333
1.1878091
1.1905398
1.1928501
1.1947734
1.1963492
1.1976203
1.1986304
1.1994215
1.2000325
1.2004982
1.2008485
1.2011087
1.2012995
1.2014376
1.2015362
1.2016057
1.2016538
1.2016867
1.2017087
1.2017231
1.2017324
1.2017383
1.2017418
1.201744
1.2017452
1.2017458
1.2017461
1.2017462
1.1197003
1.1280231
1.1357223
1.1428997
1.1496154
1.1559007
1.1617663
1.1672094
1.1722191
1.1767821
1.1808873
1.1845299
1.187714
1.1904539
1.192774
1.1947072
1.1962926
1.1975726
1.1985907
1.1993889
1.2000061
1.2004769
1.2008315
1.2010951
1.2012887
1.201429
1.2015294
1.2016002
1.2016494
1.201683
1.2017056
1.2017205
1.2017302
1.2017362
1.20174
1.2017422
1.2017435
1.2017442
1.2017445
1.2017446
1.1196292
1.1279421
1.1356322
1.1428014
1.1495101
1.1557899