/*--------------------------------*- C++ -*----------------------------------*\
| =========                 |                                                 |
| \\      /  F ield         | OpenFOAM: The Open Source CFD Toolbox           |
|  \\    /   O peration     | Version:  3.0.1                                 |
|   \\  /    A nd           | Web:      www.OpenFOAM.org                      |
|    \\/     M anipulation  |                                                 |
\*---------------------------------------------------------------------------*/
FoamFile
{
    version     2.0;
    format      ascii;
    class       volScalarField;
    location    "2503";
    object      T;
}
// * * * * * * * * * * * * * * * * * * * * * * * * * * * * * * * * * * * * * //

dimensions      [0 0 0 1 0 0 0];

internalField   nonuniform List<scalar> 
4000
(
304.52915
301.16267
298.60903
296.79876
295.58423
294.80658
294.3287
294.04583
293.8842
293.79494
293.7473
293.72273
293.7105
293.70463
293.70191
293.70071
293.70019
293.69998
293.6999
293.69987
293.69986
293.69986
293.69986
293.69986
293.69986
293.69986
293.69986
293.69986
293.69986
293.69986
293.69986
293.69986
293.69986
293.69986
293.69986
293.69986
293.69986
293.69986
293.69986
293.69987
307.27177
304.01984
301.25529
299.01669
297.29647
296.04078
295.16749
294.58698
294.2171
293.99076
293.8576
293.78224
293.74123
293.71979
293.70903
293.70386
293.70147
293.70043
293.69999
293.69981
293.69975
293.69972
293.69971
293.69971
293.69971
293.69971
293.69971
293.69971
293.69971
293.69971
293.69971
293.69971
293.69971
293.69971
293.69971
293.69971
293.69971
293.69971
293.69972
293.69972
308.60175
305.48163
302.75033
300.43064
298.53582
297.05344
295.94391
295.1488
294.60256
294.24232
294.01409
293.87513
293.79385
293.74821
293.72364
293.71097
293.70473
293.7018
293.70048
293.69992
293.6997
293.69961
293.69958
293.69957
293.69956
293.69956
293.69956
293.69956
293.69956
293.69956
293.69956
293.69956
293.69956
293.69956
293.69956
293.69957
293.69957
293.69957
293.69957
293.69957
309.44243
306.41496
303.73317
301.40574
299.44472
297.84992
296.60181
295.66279
294.98355
294.51094
294.19455
293.99073
293.86447
293.78933
293.74642
293.72295
293.71068
293.70456
293.70165
293.70034
293.69978
293.69955
293.69946
293.69943
293.69942
293.69942
293.69942
293.69942
293.69942
293.69942
293.69942
293.69942
293.69942
293.69942
293.69942
293.69942
293.69942
293.69942
293.69943
293.69943
310.04487
307.08638
304.44879
302.13171
300.14343
298.48722
297.15307
296.11577
295.33786
294.77519
294.38268
294.11866
293.94753
293.84077
293.77677
293.73997
293.71972
293.70907
293.70375
293.70121
293.70007
293.69958
293.69938
293.69931
293.69928
293.69927
293.69927
293.69927
293.69927
293.69927
293.69927
293.69927
293.69927
293.69927
293.69927
293.69927
293.69927
293.69928
293.69928
293.69928
310.50855
307.60426
305.00439
302.70242
300.70317
299.01058
297.61952
296.51238
295.66001
295.02549
294.56883
294.25121
294.03786
293.89962
293.81336
293.76163
293.73188
293.71553
293.70696
293.70268
293.70065
293.69975
293.69936
293.69921
293.69915
293.69913
293.69913
293.69913
293.69913
293.69913
293.69913
293.69913
293.69913
293.69913
293.69913
293.69913
293.69913
293.69913
293.69913
293.69913
310.88246
308.02243
305.45489
303.16892
301.16638
299.45095
298.02017
296.86136
295.95132
295.25875
294.74814
294.38355
294.13158
293.96323
293.85466
293.78723
293.74698
293.72396
293.71139
293.70484
293.70161
293.7001
293.69943
293.69915
293.69904
293.699
293.69898
293.69898
293.69898
293.69898
293.69898
293.69898
293.69898
293.69898
293.69898
293.69898
293.69898
293.69898
293.69899
293.69899
311.19395
308.37113
305.83165
303.56126
301.55939
299.82908
298.36938
297.171
296.21511
295.47488
294.91855
294.51288
294.22602
294.0295
293.89927
293.81595
293.76462
293.73426
293.71706
293.70777
293.703
293.70067
293.6996
293.69913
293.69894
293.69887
293.69885
293.69884
293.69883
293.69883
293.69883
293.69883
293.69883
293.69883
293.69883
293.69884
293.69884
293.69884
293.69884
293.69884
311.45977
308.66892
306.15411
303.89847
301.89942
300.15921
298.67778
297.44821
296.45503
295.67497
295.07949
294.63776
294.31947
294.09688
293.94599
293.84704
293.7844
293.74625
293.72395
293.7115
293.70486
293.70151
293.69991
293.69918
293.69888
293.69876
293.69871
293.69869
293.69869
293.69869
293.69869
293.69869
293.69869
293.69869
293.69869
293.69869
293.69869
293.69869
293.69869
293.69869
311.69087
308.92796
306.43508
304.19327
302.19822
300.45139
298.95321
297.6985
296.67439
295.86055
295.23116
294.75757
294.41093
294.16431
293.99391
293.8798
293.80588
293.7597
293.73196
293.716
293.70723
293.70265
293.70038
293.69932
293.69885
293.69866
293.69858
293.69855
293.69854
293.69854
293.69854
293.69854
293.69854
293.69854
293.69854
293.69854
293.69854
293.69855
293.69855
293.69855
311.89475
309.1566
306.68342
304.45454
302.46414
300.71294
299.20159
297.92623
296.87604
296.03316
295.37409
294.87213
294.49984
294.23106
294.04234
293.91368
293.82867
293.77438
293.74098
293.72125
293.7101
293.7041
293.70103
293.69954
293.69887
293.69858
293.69846
293.69842
293.6984
293.6984
293.6984
293.69839
293.6984
293.6984
293.6984
293.6984
293.6984
293.6984
293.6984
293.6984
312.07679
309.36083
306.90549
304.68867
302.70329
300.94929
299.42745
298.13485
297.06238
296.19421
295.50891
294.98153
294.5859
294.29668
294.09079
293.94824
293.85243
293.79007
293.75089
293.7272
293.71347
293.70587
293.70187
293.69988
293.69894
293.69852
293.69835
293.69828
293.69826
293.69825
293.69825
293.69825
293.69825
293.69825
293.69825
293.69825
293.69825
293.69825
293.69826
293.69826
312.24095
309.54505
307.10599
304.90047
302.92026
301.16461
299.63428
298.32712
297.23538
296.34499
295.63632
295.08598
294.66903
294.36089
294.13889
293.98313
293.87688
293.80656
293.76155
293.73377
293.7173
293.70796
293.70292
293.70033
293.69907
293.6985
293.69826
293.69816
293.69812
293.69811
293.6981
293.6981
293.6981
293.6981
293.6981
293.69811
293.69811
293.69811
293.69811
293.69811
312.39021
309.7126
307.28851
305.09358
303.11858
301.36213
299.82489
298.50528
297.39671
296.48662
295.75695
295.18576
294.74923
294.42354
294.18642
294.0181
293.90178
293.82367
293.77285
293.7409
293.72158
293.71037
293.70417
293.70091
293.69928
293.69852
293.69818
293.69804
293.69798
293.69797
293.69796
293.69796
293.69796
293.69796
293.69796
293.69796
293.69796
293.69796
293.69796
293.69796
312.52689
309.86607
307.45581
305.27083
303.30103
301.5444
300.00148
298.67115
297.54776
296.62006
295.87141
295.28118
294.82658
294.48454
294.2332
294.05296
293.92696
293.84125
293.78467
293.74852
293.72626
293.71309
293.70563
293.70162
293.69956
293.69857
293.69812
293.69793
293.69785
293.69782
293.69781
293.69781
293.69781
293.69781
293.69781
293.69781
293.69781
293.69782
293.69782
293.69782
312.65283
310.00751
307.61009
305.43449
303.46981
301.71348
300.16589
298.82623
297.68969
296.74614
295.98024
295.37252
294.90119
294.54387
294.27914
294.08755
293.95225
293.85917
293.79692
293.75657
293.73131
293.71609
293.7073
293.70246
293.69993
293.69867
293.69809
293.69783
293.69773
293.69769
293.69767
293.69767
293.69767
293.69767
293.69767
293.69767
293.69767
293.69767
293.69767
293.69767
312.7695
310.13855
307.7531
305.58636
303.62672
301.87106
300.31959
298.97177
297.82348
296.86561
296.08392
295.46007
294.97319
294.60156
294.32417
294.12179
293.97756
293.87732
293.80951
293.76497
293.73668
293.71935
293.70916
293.70344
293.70037
293.69882
293.69808
293.69774
293.6976
293.69755
293.69753
293.69752
293.69752
293.69752
293.69752
293.69752
293.69752
293.69752
293.69752
293.69753
312.87807
310.26053
307.8863
305.72795
303.77322
302.01851
300.46383
299.10883
297.94999
296.97908
296.18289
295.54411
295.0427
294.65763
294.36827
294.15559
294.00279
293.89561
293.82236
293.77368
293.74235
293.72286
293.71121
293.70455
293.70091
293.69902
293.6981
293.69767
293.69749
293.69741
293.69739
293.69738
293.69737
293.69737
293.69737
293.69738
293.69738
293.69738
293.69738
293.69738
312.97954
310.37455
308.01085
305.86047
303.91054
302.15699
300.59964
299.23829
298.06993
297.0871
296.27755
295.62488
295.10988
294.71213
294.41141
294.18891
294.02787
293.91398
293.83541
293.78265
293.74827
293.7266
293.71345
293.70579
293.70153
293.69928
293.69815
293.69762
293.69738
293.69728
293.69725
293.69723
293.69723
293.69723
293.69723
293.69723
293.69723
293.69723
293.69723
293.69723
313.07472
310.48152
308.12775
305.98494
304.03969
302.28748
300.72792
299.36093
298.18392
297.19016
296.36823
295.7026
295.17485
294.76512
294.45361
294.22172
294.05275
293.93236
293.8486
293.79182
293.75441
293.73054
293.71585
293.70715
293.70224
293.69959
293.69823
293.69758
293.69728
293.69716
293.69711
293.69709
293.69708
293.69708
293.69708
293.69708
293.69708
293.69709
293.69709
293.69709
313.16431
310.58221
308.23783
306.10224
304.16153
302.41079
300.8494
299.47738
298.29251
297.28867
296.45525
295.7775
295.23773
294.81665
294.49488
294.25399
294.0774
293.95071
293.86189
293.80115
293.76074
293.73466
293.7184
293.70864
293.70303
293.69996
293.69835
293.69756
293.6972
293.69704
293.69697
293.69695
293.69694
293.69694
293.69694
293.69694
293.69694
293.69694
293.69694
293.69694
313.24887
310.67727
308.34179
306.21309
304.2768
302.52763
300.96475
299.58822
298.39616
297.38301
296.53887
295.84976
295.29864
294.86681
294.53523
294.28572
294.10178
293.96899
293.87524
293.81063
293.76724
293.73895
293.7211
293.71025
293.70391
293.70038
293.69851
293.69757
293.69712
293.69692
293.69684
293.69681
293.69679
293.69679
293.69679
293.69679
293.69679
293.69679
293.69679
293.6968
313.32892
310.76726
308.44024
306.31813
304.38614
302.63861
301.07452
299.69394
298.49529
297.47351
296.61936
295.91955
295.35771
294.91563
294.57469
294.31691
294.12587
293.98718
293.88863
293.8202
293.77388
293.74338
293.72393
293.71196
293.70487
293.70086
293.6987
293.69759
293.69706
293.69681
293.69671
293.69667
293.69665
293.69665
293.69665
293.69665
293.69665
293.69665
293.69665
293.69665
313.40488
310.85267
308.5337
306.4179
304.4901
302.74427
301.17921
299.79498
298.59026
297.56046
296.69692
295.98703
295.41502
294.9632
294.61328
294.34755
294.14967
294.00524
293.90201
293.82985
293.78063
293.74795
293.72689
293.71378
293.70592
293.7014
293.69893
293.69764
293.697
293.69671
293.69658
293.69653
293.69651
293.6965
293.6965
293.6965
293.6965
293.6965
293.6965
293.6965
313.47713
310.9339
308.62262
306.51288
304.58914
302.84506
301.27923
299.89171
298.6814
297.64412
296.77177
296.05236
295.47068
295.00955
294.65105
294.37765
294.17316
294.02317
293.91537
293.83956
293.78748
293.75262
293.72995
293.71569
293.70703
293.70199
293.69919
293.69771
293.69696
293.69661
293.69646
293.69639
293.69637
293.69636
293.69635
293.69635
293.69636
293.69636
293.69636
293.69636
313.54598
311.01133
308.70739
306.60347
304.68369
302.94139
301.37497
299.98448
298.76899
297.72472
296.84408
296.11565
295.52478
295.05476
294.688
294.40723
294.19634
294.04094
293.9287
293.84931
293.79441
293.75739
293.73312
293.71769
293.70822
293.70264
293.6995
293.6978
293.69694
293.69653
293.69634
293.69626
293.69622
293.69621
293.69621
293.69621
293.69621
293.69621
293.69621
293.69621
313.61173
311.08528
308.78837
306.69005
304.77411
303.03362
301.46676
300.07358
298.85329
297.80248
296.91402
296.17703
295.57741
295.09887
294.72418
294.43629
294.2192
294.05856
293.94197
293.85907
293.80141
293.76225
293.73637
293.71977
293.70948
293.70335
293.69984
293.69792
293.69693
293.69645
293.69622
293.69612
293.69608
293.69607
293.69606
293.69606
293.69606
293.69606
293.69607
293.69607
313.67463
311.15602
308.86586
306.77293
304.86074
303.12206
301.5549
300.15927
298.93454
297.87758
296.98174
296.23662
295.62863
295.14193
294.75961
294.46485
294.24175
294.076
293.95518
293.86885
293.80846
293.76719
293.73971
293.72193
293.71081
293.7041
293.70022
293.69807
293.69694
293.69638
293.69611
293.69599
293.69594
293.69593
293.69592
293.69592
293.69592
293.69592
293.69592
293.69592
313.73489
311.22381
308.94012
306.8524
304.94385
303.20699
301.63966
300.24181
299.01293
297.9502
297.04736
296.29451
295.67853
295.18399
294.79432
294.49291
294.26398
294.09327
293.96831
293.87861
293.81554
293.77218
293.74311
293.72416
293.7122
293.7049
293.70063
293.69824
293.69696
293.69631
293.696
293.69586
293.69581
293.69578
293.69577
293.69577
293.69577
293.69577
293.69577
293.69577
313.79272
311.28886
309.01141
306.92871
305.02371
303.28868
301.72127
300.3214
299.08866
298.02049
297.11102
296.35081
295.72717
295.2251
294.82834
294.52049
294.28591
294.11036
293.98136
293.88837
293.82266
293.77724
293.74659
293.72646
293.71364
293.70575
293.70108
293.69843
293.697
293.69626
293.69591
293.69574
293.69567
293.69564
293.69563
293.69563
293.69563
293.69563
293.69563
293.69563
313.8483
311.35138
309.07993
307.00209
305.10055
303.36734
301.79995
300.39824
299.16189
298.08859
297.17283
296.40558
295.77461
295.2653
294.86169
294.54761
294.30753
294.12727
293.99433
293.8981
293.82979
293.78233
293.75012
293.72882
293.71514
293.70665
293.70157
293.69865
293.69706
293.69622
293.69581
293.69562
293.69553
293.6955
293.69549
293.69548
293.69548
293.69548
293.69548
293.69548
313.90178
311.41155
309.14589
307.07274
305.17457
303.44318
301.8759
300.4725
299.23278
298.15463
297.23289
296.45892
295.82092
295.30462
294.8944
294.57428
294.32886
294.14399
294.0072
293.90779
293.83694
293.78747
293.7537
293.73123
293.71669
293.70759
293.70209
293.6989
293.69713
293.69619
293.69572
293.6955
293.6954
293.69536
293.69534
293.69534
293.69534
293.69534
293.69534
293.69534
313.95331
311.46953
309.20945
307.14085
305.24597
303.51639
301.94928
300.54435
299.30148
298.21874
297.29129
296.5109
295.86613
295.34311
294.92649
294.60051
294.34989
294.16054
294.01997
293.91746
293.84409
293.79264
293.75733
293.73369
293.71829
293.70857
293.70264
293.69917
293.69722
293.69617
293.69564
293.69539
293.69527
293.69522
293.6952
293.69519
293.69519
293.69519
293.69519
293.69519
314.00301
311.52545
309.27077
307.20658
305.31491
303.58714
302.02025
300.61394
299.36809
298.28101
297.34813
296.56159
295.91032
295.3808
294.95799
294.62631
294.37063
294.1769
294.03264
293.92708
293.85125
293.79783
293.761
293.7362
293.71994
293.70959
293.70323
293.69946
293.69733
293.69617
293.69557
293.69528
293.69514
293.69508
293.69506
293.69505
293.69504
293.69504
293.69504
293.69504
314.05101
311.57946
309.33001
307.27009
305.38155
303.65556
302.08897
300.68139
299.43276
298.34155
297.40349
296.61104
295.95352
295.41773
294.98891
294.6517
294.39109
294.19309
294.04521
293.93665
293.85839
293.80304
293.7647
293.73875
293.72162
293.71065
293.70385
293.69978
293.69745
293.69617
293.6955
293.69517
293.69501
293.69494
293.69491
293.6949
293.6949
293.6949
293.6949
293.6949
314.09741
311.63167
309.38727
307.33151
305.44603
303.72182
302.15557
300.74682
299.49558
298.40045
297.45744
296.65932
295.99577
295.45392
295.01928
294.67669
294.41127
294.2091
294.05767
293.94618
293.86553
293.80827
293.76844
293.74133
293.72335
293.71175
293.7045
293.70012
293.69759
293.69619
293.69544
293.69507
293.69489
293.69481
293.69477
293.69476
293.69475
293.69475
293.69475
293.69475
314.1423
311.68219
309.4427
307.39097
305.50848
303.78602
302.22016
300.81035
299.55665
298.4578
297.51005
296.70649
296.03712
295.48941
295.04912
294.7013
294.43119
294.22493
294.07003
293.95566
293.87265
293.81351
293.7722
293.74395
293.72511
293.71287
293.70517
293.70049
293.69775
293.69621
293.69539
293.69497
293.69477
293.69467
293.69463
293.69462
293.69461
293.69461
293.69461
293.69461
314.18578
311.73113
309.49638
307.44858
305.56901
303.8483
302.28286
300.87209
299.61606
298.51367
297.56138
296.75259
296.07761
295.52422
295.07845
294.72553
294.45085
294.24059
294.08229
293.96508
293.87976
293.81876
293.77598
293.7466
293.7269
293.71403
293.70588
293.70088
293.69792
293.69625
293.69534
293.69488
293.69465
293.69454
293.69449
293.69447
293.69446
293.69446
293.69446
293.69446
314.22793
311.77856
309.54843
307.50444
305.62773
303.90874
302.34376
300.93212
299.6739
298.56814
297.6115
296.79767
296.11728
295.55838
295.10728
294.7494
294.47024
294.25608
294.09444
293.97444
293.88684
293.82401
293.77978
293.74928
293.72873
293.71522
293.70661
293.70129
293.69811
293.6963
293.69531
293.69479
293.69453
293.69441
293.69435
293.69433
293.69432
293.69432
293.69432
293.69432
314.26882
311.82458
309.59893
307.55866
305.68474
303.96747
302.40298
300.99054
299.73026
298.62127
297.66046
296.84177
296.15614
295.59192
295.13563
294.77292
294.48939
294.2714
294.10649
293.98375
293.8939
293.82926
293.7836
293.75199
293.73058
293.71644
293.70736
293.70172
293.69832
293.69636
293.69528
293.69471
293.69442
293.69428
293.69421
293.69419
293.69418
293.69417
293.69417
293.69417
314.30852
311.86927
309.64798
307.61132
305.74014
304.02455
302.46058
301.04742
299.78519
298.67312
297.70831
296.88495
296.19425
295.62485
295.16352
294.79609
294.5083
294.28655
294.11843
293.993
293.90094
293.83451
293.78743
293.75471
293.73246
293.71769
293.70814
293.70217
293.69855
293.69644
293.69526
293.69463
293.69431
293.69415
293.69408
293.69405
293.69403
293.69403
293.69403
293.69403
314.34709
311.91269
309.69563
307.66251
305.794
304.08009
302.51666
301.10285
299.83876
298.72376
297.7551
296.92723
296.23163
295.6572
295.19097
294.81893
294.52697
294.30155
294.13027
294.00219
293.90795
293.83976
293.79127
293.75746
293.73436
293.71896
293.70895
293.70264
293.69879
293.69652
293.69525
293.69456
293.6942
293.69402
293.69394
293.6939
293.69389
293.69388
293.69388
293.69388
314.38459
311.9549
309.74198
307.7123
305.84641
304.13415
302.57129
301.15688
299.89105
298.77324
297.80088
296.96865
296.2683
295.689
295.21798
294.84145
294.54541
294.31638
294.142
294.01132
293.91493
293.84499
293.79512
293.76022
293.73629
293.72025
293.70977
293.70313
293.69904
293.69662
293.69524
293.69449
293.6941
293.6939
293.69381
293.69376
293.69375
293.69374
293.69374
293.69374
314.42109
311.99598
309.78708
307.76075
305.89743
304.18681
302.62454
301.20959
299.94211
298.82161
297.84569
297.00925
296.3043
295.72025
295.24458
294.86366
294.56362
294.33106
294.15364
294.02039
293.92188
293.85023
293.79898
293.763
293.73824
293.72156
293.71062
293.70363
293.69931
293.69673
293.69525
293.69443
293.694
293.69378
293.69367
293.69362
293.6936
293.69359
293.69359
293.69359
314.45661
312.03598
309.83099
307.80795
305.94714
304.23814
302.67647
301.26104
299.99199
298.86892
297.88957
297.04906
296.33964
295.75098
295.27078
294.88557
294.58161
294.34559
294.16517
294.0294
293.9288
293.85545
293.80285
293.76579
293.7402
293.7229
293.71149
293.70416
293.6996
293.69685
293.69526
293.69437
293.6939
293.69366
293.69354
293.69349
293.69346
293.69345
293.69345
293.69345
314.49123
312.07494
309.87377
307.85394
305.9956
304.28819
302.72714
301.31128
300.04075
298.91521
297.93255
297.08811
296.37436
295.78121
295.29658
294.90718
294.59939
294.35996
294.17661
294.03835
293.93569
293.86066
293.80671
293.7686
293.74218
293.72426
293.71237
293.7047
293.6999
293.69698
293.69528
293.69432
293.69381
293.69354
293.69341
293.69335
293.69332
293.69331
293.6933
293.6933
314.52496
312.11293
309.91549
307.89878
306.04286
304.33704
302.77662
301.36037
300.08843
298.96052
297.97468
297.12642
296.40847
295.81096
295.32201
294.92851
294.61696
294.3742
294.18795
294.04724
293.94255
293.86586
293.81058
293.77142
293.74418
293.72563
293.71328
293.70526
293.70021
293.69713
293.69531
293.69428
293.69372
293.69343
293.69328
293.69321
293.69318
293.69316
293.69316
293.69316
314.55787
312.14997
309.95617
307.94253
306.08898
304.38472
302.82495
301.40836
300.13508
299.0049
298.01598
297.16404
296.442
295.84023
295.34706
294.94956
294.63433
294.38828
294.19919
294.05607
293.94937
293.87104
293.81445
293.77425
293.7462
293.72702
293.7142
293.70584
293.70054
293.69728
293.69535
293.69424
293.69364
293.69332
293.69315
293.69307
293.69304
293.69302
293.69302
293.69301
314.58998
312.18613
309.99588
307.98523
306.13401
304.4313
302.87218
301.45529
300.18074
299.04838
298.05649
297.20097
296.47497
295.86905
295.37177
294.97034
294.6515
294.40223
294.21034
294.06484
293.95616
293.87622
293.81832
293.77708
293.74822
293.72843
293.71514
293.70643
293.70088
293.69745
293.6954
293.69421
293.69356
293.69321
293.69303
293.69294
293.6929
293.69288
293.69287
293.69287
314.62133
312.22143
310.03465
308.02694
306.178
304.47681
302.91836
301.50121
300.22545
299.09099
298.09624
297.23725
296.50739
295.89744
295.39613
294.99085
294.66847
294.41604
294.22139
294.07355
293.96292
293.88137
293.82219
293.77992
293.75026
293.72985
293.71609
293.70703
293.70123
293.69762
293.69545
293.69419
293.69348
293.6931
293.6929
293.69281
293.69276
293.69274
293.69273
293.69273
314.65196
312.25591
310.07253
308.06769
306.221
304.52131
302.96353
301.54615
300.26925
299.13277
298.13525
297.2729
296.53928
295.92539
295.42015
295.01111
294.68526
294.42971
294.23236
294.0822
293.96964
293.88651
293.82605
293.78277
293.75232
293.73128
293.71706
293.70766
293.7016
293.69781
293.69551
293.69417
293.69341
293.693
293.69278
293.69267
293.69262
293.6926
293.69259
293.69258
314.68189
312.28961
310.10956
308.10752
306.26304
304.56484
303.00774
301.59016
300.31217
299.17376
298.17355
297.30794
296.57067
295.95293
295.44385
295.03112
294.70186
294.44326
294.24323
294.09079
293.97633
293.89164
293.82991
293.78562
293.75438
293.73273
293.71804
293.70829
293.70198
293.69801
293.69558
293.69416
293.69334
293.6929
293.69266
293.69254
293.69248
293.69246
293.69245
293.69244
314.71115
312.32256
310.14576
308.14648
306.30416
304.60744
303.05102
301.63328
300.35425
299.21397
298.21117
297.34239
296.60156
295.98007
295.46723
295.05089
294.71828
294.45667
294.25401
294.09933
293.98298
293.89674
293.83376
293.78848
293.75645
293.7342
293.71904
293.70894
293.70237
293.69821
293.69566
293.69415
293.69328
293.6928
293.69254
293.69241
293.69235
293.69232
293.6923
293.6923
314.73977
312.35479
310.18117
308.18459
306.3444
304.64914
303.09341
301.67553
300.39551
299.25344
298.24813
297.37627
296.63198
296.00683
295.4903
295.07043
294.73452
294.46996
294.2647
294.10781
293.9896
293.90183
293.83761
293.79134
293.75853
293.73567
293.72005
293.7096
293.70277
293.69843
293.69575
293.69415
293.69322
293.69271
293.69243
293.69228
293.69221
293.69218
293.69216
293.69216
314.76778
312.38633
310.21583
308.2219
306.3838
304.68997
303.13494
301.71695
300.436
299.29219
298.28446
297.40961
296.66193
296.03321
295.51308
295.08973
294.7506
294.48312
294.27531
294.11623
293.99619
293.9069
293.84146
293.7942
293.76061
293.73715
293.72107
293.71027
293.70319
293.69866
293.69585
293.69416
293.69317
293.69262
293.69231
293.69216
293.69208
293.69204
293.69202
293.69202
314.79521
312.41721
310.24977
308.25843
306.42239
304.72998
303.17565
301.75757
300.47573
299.33026
298.32016
297.4424
296.69144
296.05922
295.53557
295.10881
294.7665
294.49616
294.28584
294.12459
294.00274
293.91196
293.84529
293.79706
293.76271
293.73865
293.7221
293.71095
293.70361
293.6989
293.69595
293.69417
293.69312
293.69253
293.6922
293.69203
293.69194
293.6919
293.69188
293.69188
314.82206
312.44746
310.283
308.29421
306.46019
304.7692
303.21557
301.79743
300.51473
299.36765
298.35527
297.47469
296.72051
296.08487
295.55777
295.12767
294.78225
294.50908
294.29628
294.1329
294.00926
293.91699
293.84912
293.79993
293.76481
293.74015
293.72315
293.71165
293.70405
293.69914
293.69606
293.69419
293.69308
293.69244
293.69209
293.69191
293.69181
293.69176
293.69175
293.69174
314.84837
312.47709
310.31557
308.32928
306.49725
304.80764
303.25472
301.83654
300.55303
299.4044
298.38981
297.50647
296.74916
296.11018
295.5797
295.14632
294.79783
294.52189
294.30664
294.14116
294.01574
293.92201
293.85295
293.80279
293.76692
293.74166
293.7242
293.71236
293.70449
293.6994
293.69618
293.69421
293.69304
293.69236
293.69199
293.69178
293.69168
293.69163
293.69161
293.6916
314.87416
312.50613
310.34749
308.36365
306.53358
304.84535
303.29313
301.87493
300.59065
299.44052
298.42379
297.53777
296.7774
296.13516
295.60136
295.16476
294.81326
294.53458
294.31692
294.14936
294.02219
293.92701
293.85676
293.80566
293.76903
293.74318
293.72527
293.71307
293.70495
293.69966
293.69631
293.69424
293.693
293.69229
293.69188
293.69166
293.69155
293.69149
293.69147
293.69146
314.89945
312.53461
310.37879
308.39736
306.56922
304.88234
303.33084
301.91263
300.62762
299.47605
298.45722
297.5686
296.80525
296.15981
295.62276
295.183
294.82853
294.54716
294.32712
294.15751
294.0286
293.93199
293.86057
293.80852
293.77114
293.74471
293.72634
293.7138
293.70542
293.69994
293.69644
293.69428
293.69297
293.69221
293.69178
293.69155
293.69142
293.69136
293.69133
293.69133
314.92424
312.56254
310.40949
308.43043
306.60418
304.91865
303.36785
301.94967
300.66396
299.51099
298.49014
297.59897
296.83271
296.18414
295.64391
295.20104
294.84365
294.55963
294.33724
294.1656
294.03499
293.93695
293.86437
293.81138
293.77326
293.74625
293.72742
293.71454
293.70589
293.70022
293.69659
293.69432
293.69295
293.69214
293.69168
293.69143
293.6913
293.69123
293.6912
293.69119
314.94857
312.58994
310.43961
308.46288
306.6385
304.95429
303.40421
301.98605
300.69968
299.54536
298.52254
297.6289
296.85979
296.20816
295.66481
295.21889
294.85863
294.57199
294.34729
294.17365
294.04133
293.94189
293.86816
293.81425
293.77539
293.74779
293.72851
293.71528
293.70638
293.70051
293.69674
293.69437
293.69293
293.69208
293.69159
293.69132
293.69117
293.6911
293.69107
293.69106
314.97245
312.61683
310.46917
308.49473
306.67219
304.98929
303.43992
302.02182
300.73481
299.57918
298.55446
297.6584
296.88651
296.23188
295.68546
295.23655
294.87346
294.58425
294.35726
294.18164
294.04765
293.94681
293.87194
293.81711
293.77751
293.74934
293.72961
293.71604
293.70687
293.70081
293.69689
293.69443
293.69292
293.69202
293.69149
293.6912
293.69105
293.69097
293.69093
293.69092
314.99589
312.64323
310.4982
308.526
306.70527
305.02368
303.47501
302.05698
300.76936
299.61248
298.58589
297.68748
296.91287
296.25531
295.70589
295.25402
294.88816
294.5964
294.36715
294.18958
294.05393
293.95171
293.87571
293.81996
293.77964
293.7509
293.73072
293.7168
293.70737
293.70112
293.69706
293.69449
293.69291
293.69196
293.6914
293.69109
293.69092
293.69084
293.6908
293.69079
315.01891
312.66915
310.5267
308.55672
306.73777
305.05746
303.5095
302.09155
300.80336
299.64526
298.61687
297.71616
296.93889
296.27846
295.72608
295.27132
294.90272
294.60845
294.37698
294.19747
294.06018
293.95659
293.87947
293.82282
293.78177
293.75246
293.73184
293.71757
293.70788
293.70143
293.69723
293.69456
293.6929
293.6919
293.69132
293.69099
293.6908
293.69071
293.69067
293.69066
315.04151
312.69462
310.5547
308.5869
306.76971
305.09067
303.54342
302.12556
300.83682
299.67754
298.64739
297.74444
296.96458
296.30132
295.74605
295.28844
294.91714
294.62041
294.38673
294.20532
294.0664
293.96146
293.88322
293.82567
293.78391
293.75402
293.73296
293.71835
293.7084
293.70175
293.69741
293.69463
293.6929
293.69185
293.69123
293.69088
293.69069
293.69059
293.69054
293.69053
315.06373
312.71964
310.58221
308.61655
306.8011
305.12331
303.57677
302.15902
300.86976
299.70933
298.67748
297.77234
296.98993
296.32391
295.76579
295.30539
294.93143
294.63226
294.39642
294.21311
294.07259
293.9663
293.88696
293.82852
293.78604
293.75559
293.73409
293.71914
293.70893
293.70208
293.69759
293.69471
293.69291
293.6918
293.69115
293.69078
293.69057
293.69046
293.69042
293.6904
315.08556
312.74423
310.60926
308.6457
306.83196
305.15541
303.60958
302.19194
300.90219
299.74066
298.70714
297.79987
297.01497
296.34624
295.78533
295.32217
294.9456
294.64402
294.40603
294.22086
294.07874
293.97113
293.8907
293.83137
293.78818
293.75717
293.73522
293.71994
293.70946
293.70242
293.69778
293.69479
293.69291
293.69176
293.69107
293.69068
293.69045
293.69034
293.69029
293.69028
315.10703
312.76841
310.63584
308.67436
306.8623
305.18699
303.64186
302.22436
300.93412
299.77153
298.73639
297.82703
297.0397
296.36831
295.80466
295.33878
294.95963
294.65569
294.41558
294.22856
294.08487
293.97593
293.89442
293.83421
293.79032
293.75875
293.73637
293.72074
293.71001
293.70277
293.69798
293.69489
293.69293
293.69172
293.691
293.69058
293.69034
293.69022
293.69017
293.69015
315.12813
312.79219
310.66199
308.70255
306.89215
305.21805
303.67363
302.25627
300.96558
299.80195
298.76523
297.85384
297.06412
296.39013
295.82378
295.35524
294.97355
294.66726
294.42506
294.23621
294.09096
293.98072
293.89813
293.83705
293.79245
293.76033
293.73751
293.72155
293.71056
293.70312
293.69819
293.69498
293.69295
293.69169
293.69093
293.69048
293.69023
293.6901
293.69004
293.69003
315.14889
312.81557
310.68771
308.73028
306.92152
305.24862
303.7049
302.28769
300.99658
299.83194
298.79369
297.88031
297.08825
296.4117
295.8427
295.37153
294.98734
294.67875
294.43447
294.24382
294.09703
293.98549
293.90183
293.83988
293.79459
293.76192
293.73867
293.72236
293.71111
293.70348
293.6984
293.69509
293.69297
293.69166
293.69086
293.69039
293.69012
293.68999
293.68992
293.68991
315.16932
312.83858
310.71301
308.75757
306.95042
305.27871
303.73569
302.31864
301.02712
299.86151
298.82176
297.90644
297.11209
296.43304
295.86143
295.38767
295.00101
294.69014
294.44382
294.25138
294.10306
293.99024
293.90553
293.84271
293.79673
293.76351
293.73983
293.72319
293.71168
293.70385
293.69862
293.69519
293.693
293.69163
293.6908
293.6903
293.69002
293.68987
293.68981
293.68979
315.18942
312.86122
310.73791
308.78442
306.97887
305.30834
303.76602
302.34913
301.05722
299.89067
298.84946
297.93224
297.13565
296.45413
295.87996
295.40367
295.01457
294.70145
294.45311
294.2589
294.10906
293.99497
293.90921
293.84554
293.79887
293.7651
293.74099
293.72401
293.71225
293.70422
293.69884
293.69531
293.69304
293.69161
293.69073
293.69021
293.68992
293.68976
293.68969
293.68967
315.2092
312.8835
310.76242
308.81086
307.00688
305.33751
303.79589
302.37918
301.0869
299.91944
298.87681
297.95772
297.15894
296.475
295.89831
295.41951
295.02802
294.71267
294.46234
294.26637
294.11504
293.99969
293.91288
293.84836
293.80101