/*--------------------------------*- C++ -*----------------------------------*\
| =========                 |                                                 |
| \\      /  F ield         | OpenFOAM: The Open Source CFD Toolbox           |
|  \\    /   O peration     | Version:  3.0.1                                 |
|   \\  /    A nd           | Web:      www.OpenFOAM.org                      |
|    \\/     M anipulation  |                                                 |
\*---------------------------------------------------------------------------*/
FoamFile
{
    version     2.0;
    format      ascii;
    class       volVectorField;
    location    "2503";
    object      U;
}
// * * * * * * * * * * * * * * * * * * * * * * * * * * * * * * * * * * * * * //

dimensions      [0 1 -1 0 0 0 0];

internalField   nonuniform List<vector> 
4000
(
(1.1865459e-05 -8.0768173e-19 0.02400039)
(-1.3631197e-05 -1.8856049e-18 0.056176295)
(-4.2930306e-05 -2.9013108e-18 0.078492386)
(-9.5929703e-05 -3.862337e-18 0.093442637)
(-0.00015428135 -4.2703886e-18 0.10301861)
(-0.00020826726 -4.7071465e-18 0.10877814)
(-0.00025053775 -5.1317965e-18 0.11190273)
(-0.00027828215 -5.5407056e-18 0.11325792)
(-0.00029189392 -5.472662e-18 0.11345587)
(-0.00029374841 -5.4362665e-18 0.11291509)
(-0.00028699786 -5.422938e-18 0.11191256)
(-0.00027475944 -5.436883e-18 0.1106262)
(-0.0002596629 -5.5028766e-18 0.10916722)
(-0.000243683 -5.6203151e-18 0.10760356)
(-0.00022815158 -5.7793898e-18 0.10597611)
(-0.0002138647 -5.9811885e-18 0.10430937)
(-0.00020121686 -6.2860969e-18 0.10261806)
(-0.0001903259 -7.3420197e-18 0.10091108)
(-0.00018114029 -8.467e-18 0.099193577)
(-0.00017351114 -9.6373205e-18 0.097467848)
(-0.00016723768 -1.0864104e-17 0.095733522)
(-0.00016210069 -1.2235128e-17 0.093987226)
(-0.00015787428 -1.2363051e-17 0.092221938)
(-0.00015433449 -1.0298104e-17 0.090426079)
(-0.00015126392 -9.7015911e-18 0.088582382)
(-0.00014844734 -8.2205459e-18 0.086666567)
(-0.00014568001 -6.9511704e-18 0.084645808)
(-0.00014275432 -6.8375573e-18 0.082477027)
(-0.0001394827 -6.880003e-18 0.080105029)
(-0.00013565373 -7.0787093e-18 0.077460548)
(-0.00013112072 -6.438555e-18 0.074458328)
(-0.00012563692 -4.3752451e-18 0.0709953)
(-0.00011916449 -2.545251e-18 0.066949264)
(-0.00011131567 -9.1146453e-19 0.062177794)
(-0.00010234723 5.5112186e-19 0.056518374)
(-9.1343331e-05 1.8566431e-18 0.049787716)
(-7.9338974e-05 2.0142188e-18 0.041782913)
(-6.3326404e-05 1.1454653e-18 0.032275249)
(-4.6408145e-05 9.4546784e-19 0.02100472)
(-1.4657047e-05 3.0225065e-19 0.0076314889)
(-1.5795772e-05 -9.9556136e-19 0.0260643)
(-0.00015379967 -2.1515076e-18 0.060591516)
(-0.00035535968 -3.2391445e-18 0.083889524)
(-0.00057732554 -4.4317253e-18 0.098803441)
(-0.00078271647 -4.5664224e-18 0.10772198)
(-0.00094973064 -4.8070284e-18 0.1125477)
(-0.0010667585 -5.0847042e-18 0.11470812)
(-0.0011316696 -5.3610656e-18 0.11521234)
(-0.0011491116 -5.5447772e-18 0.1147338)
(-0.0011277768 -5.5710189e-18 0.11369758)
(-0.0010779201 -5.6757914e-18 0.11235758)
(-0.0010095212 -5.9703914e-18 0.11085721)
(-0.00093115555 -5.7211373e-18 0.10927286)
(-0.00084949551 -5.6862578e-18 0.107643)
(-0.00076926888 -5.7085383e-18 0.10598607)
(-0.00069349572 -5.663888e-18 0.10431085)
(-0.00062384989 -5.9973755e-18 0.10262189)
(-0.00056103496 -7.3548315e-18 0.10092189)
(-0.00050511617 -8.7062083e-18 0.09921249)
(-0.00045577728 -9.7559639e-18 0.097494174)
(-0.00041249695 -1.1017961e-17 0.095765727)
(-0.00037466452 -1.2604796e-17 0.094023467)
(-0.000341646 -1.2422693e-17 0.092260333)
(-0.00031281436 -1.0400167e-17 0.090464834)
(-0.00028756705 -9.9598113e-18 0.088619851)
(-0.00026532718 -8.2852075e-18 0.086701271)
(-0.0002455476 -6.9570293e-18 0.084676448)
(-0.00022770201 -6.861725e-18 0.082502487)
(-0.00021129986 -6.8926398e-18 0.080124381)
(-0.00019585502 -7.0542531e-18 0.077473061)
(-0.00018095476 -6.191049e-18 0.074463469)
(-0.00016613903 -4.1672675e-18 0.070992761)
(-0.00015114492 -2.5288406e-18 0.066938922)
(-0.00013547771 -9.1591176e-19 0.062159774)
(-0.00011920324 5.4418146e-19 0.056492827)
(-0.0001015097 1.8271133e-18 0.049754921)
(-8.3199414e-05 1.9017273e-18 0.041742241)
(-6.1792548e-05 1.2235006e-18 0.032224887)
(-3.9948816e-05 9.3976556e-19 0.020936467)
(-7.5349767e-06 2.7464997e-19 0.0075476398)
(-1.5403251e-05 -7.2935334e-19 0.028460318)
(-0.00016387529 -1.8315251e-18 0.066095403)
(-0.00039999611 -2.7806472e-18 0.091123918)
(-0.00067892863 -3.5490983e-18 0.10654607)
(-0.00095882772 -4.1410919e-18 0.11503273)
(-0.0012082411 -4.6131008e-18 0.11882948)
(-0.0014051029 -4.9664776e-18 0.11969015)
(-0.001538265 -5.2995597e-18 0.11887896)
(-0.0016063417 -5.3790179e-18 0.11723287)
(-0.0016154138 -5.3394021e-18 0.1152557)
(-0.0015761726 -5.188948e-18 0.11321661)
(-0.0015012241 -5.6322175e-18 0.11123515)
(-0.0014029643 -5.7347662e-18 0.10934557)
(-0.0012921977 -5.742271e-18 0.10754047)
(-0.0011774561 -5.8462545e-18 0.1057972)
(-0.001064869 -5.9935744e-18 0.10409194)
(-0.0009583998 -6.4601696e-18 0.10240555)
(-0.00086026561 -7.5137472e-18 0.10072493)
(-0.00077140387 -8.7862503e-18 0.099041909)
(-0.00069189793 -1.0134278e-17 0.09735134)
(-0.00062131231 -1.0678174e-17 0.095649062)
(-0.00055893617 -1.1827114e-17 0.093930037)
(-0.00050393888 -1.1534736e-17 0.092186725)
(-0.00045545666 -1.0464035e-17 0.0904076)
(-0.0004126435 -9.7047348e-18 0.088575715)
(-0.00037468989 -8.3241448e-18 0.08666722)
(-0.0003408284 -7.1991031e-18 0.084649762)
(-0.00031033294 -6.9063943e-18 0.082480748)
(-0.0002825298 -6.8750526e-18 0.080105473)
(-0.00025677047 -6.8566556e-18 0.077455172)
(-0.00023248654 -5.9953151e-18 0.074445084)
(-0.00020909627 -3.9641547e-18 0.070972675)
(-0.00018619964 -2.4844931e-18 0.06691622)
(-0.00016324146 -9.1643029e-19 0.062133845)
(-0.00014013798 5.2157439e-19 0.056463252)
(-0.00011614 1.6883184e-18 0.049721457)
(-9.1757601e-05 1.6890781e-18 0.041704261)
(-6.5017547e-05 1.2677856e-18 0.032181265)
(-3.7447471e-05 9.3895701e-19 0.020886019)
(-5.6270622e-06 2.9266615e-19 0.0075116203)
(-1.3141976e-05 -5.3566975e-19 0.030637578)
(-0.00014931083 -1.4968252e-18 0.071343787)
(-0.0003769513 -2.3190655e-18 0.098395657)
(-0.00066041073 -2.9315193e-18 0.1148055)
(-0.00096333926 -3.9259164e-18 0.12335165)
(-0.0012538122 -4.859109e-18 0.12648465)
(-0.001504935 -4.9740146e-18 0.12621784)
(-0.0016981908 -5.1951623e-18 0.12407266)
(-0.0018244515 -5.3612346e-18 0.12109617)
(-0.0018833724 -5.3529216e-18 0.11793381)
(-0.0018814874 -5.2083064e-18 0.11492784)
(-0.0018297174 -5.0318359e-18 0.11221581)
(-0.0017408994 -5.5705964e-18 0.10981328)
(-0.0016277569 -5.7981624e-18 0.10767484)
(-0.0015015035 -6.0270635e-18 0.1057341)
(-0.0013711028 -6.3962811e-18 0.10392634)
(-0.0012430705 -7.0839596e-18 0.10219887)
(-0.0011216665 -7.7297418e-18 0.10051358)
(-0.0010093002 -8.6793666e-18 0.098845217)
(-0.00090700426 -9.9337805e-18 0.097177813)
(-0.0008148855 -1.0645164e-17 0.095500917)
(-0.00073248343 -1.1024783e-17 0.093806149)
(-0.00065903325 -1.0939872e-17 0.092084402)
(-0.00059363595 -1.0507184e-17 0.090323566)
(-0.00053535497 -9.3168121e-18 0.088506618)
(-0.00048326959 -8.3387449e-18 0.086609865)
(-0.0004364952 -7.4971129e-18 0.084601214)
(-0.00039419162 -6.9890727e-18 0.08243837)
(-0.00035557218 -6.8360402e-18 0.080066944)
(-0.00031988501 -6.5382863e-18 0.077418492)
(-0.00028645792 -5.7668282e-18 0.074408582)
(-0.0002546268 -3.9579487e-18 0.070935017)
(-0.00022389073 -2.447406e-18 0.066876404)
(-0.00019365218 -9.1683382e-19 0.062091198)
(-0.00016370664 4.7583612e-19 0.056417343)
(-0.00013336572 1.4755924e-18 0.049672004)
(-0.0001028746 1.6234934e-18 0.041650654)
(-7.0732627e-05 1.2510699e-18 0.032122527)
(-3.7914012e-05 8.0779799e-19 0.020823207)
(-5.0308852e-06 3.0077602e-19 0.007467512)
(-1.1460858e-05 -6.1420963e-19 0.032563878)
(-0.00013442782 -1.5873972e-18 0.07611121)
(-0.00034552932 -2.4526825e-18 0.10520053)
(-0.00061666488 -3.1423985e-18 0.12281562)
(-0.00091810685 -3.7863029e-18 0.13175813)
(-0.0012214076 -4.4992945e-18 0.13458206)
(-0.001499771 -4.9318972e-18 0.13347457)
(-0.0017316374 -5.2684601e-18 0.13016533)
(-0.0019028099 -5.2612566e-18 0.12590249)
(-0.0020072386 -5.4405616e-18 0.12149394)
(-0.0020463593 -5.8415293e-18 0.11739095)
(-0.0020274251 -5.7042048e-18 0.1137868)
(-0.0019613618 -5.9130095e-18 0.11070917)
(-0.0018606399 -6.1537687e-18 0.10809491)
(-0.0017374969 -6.3226866e-18 0.10584357)
(-0.001602688 -6.6555788e-18 0.10385103)
(-0.0014648024 -7.1412753e-18 0.10202741)
(-0.0013300739 -7.8519609e-18 0.10030362)
(-0.0012025531 -8.761348e-18 0.098631065)
(-0.0010844921 -9.5710648e-18 0.096977683)
(-0.00097680501 -1.0798256e-17 0.095322772)
(-0.00087950375 -1.0984269e-17 0.093651973)
(-0.00079205167 -1.1022546e-17 0.091953003)
(-0.00071362238 -1.030817e-17 0.090212277)
(-0.00064326337 -9.2962742e-18 0.08841223)
(-0.00057999052 -8.3529157e-18 0.086529111)
(-0.00052284114 -7.5699009e-18 0.084530996)
(-0.00047089222 -7.0475892e-18 0.082375858)
(-0.00042327439 -6.8001202e-18 0.080009616)
(-0.00037916364 -6.4299124e-18 0.077364161)
(-0.00033781533 -5.5784464e-18 0.074355408)
(-0.00029851143 -4.132482e-18 0.07088152)
(-0.0002606837 -2.4415056e-18 0.066821466)
(-0.00022371406 -9.2080769e-19 0.06203406)
(-0.00018731052 4.3096913e-19 0.056357522)
(-0.00015085162 1.3584577e-18 0.049609185)
(-0.00011437927 1.6661393e-18 0.041584341)
(-7.681037e-05 1.2375451e-18 0.032052372)
(-3.8966815e-05 7.6007311e-19 0.020753179)
(-4.6481885e-06 2.6236368e-19 0.0074241899)
(-1.0257606e-05 -8.2035384e-19 0.034299732)
(-0.0001224156 -1.8571521e-18 0.080468077)
(-0.00031793428 -2.8022993e-18 0.11152515)
(-0.00057383699 -3.5839695e-18 0.13042308)
(-0.00086560849 -3.7092884e-18 0.13995585)
(-0.0011687077 -3.9291278e-18 0.14272611)
(-0.001458333 -4.5475287e-18 0.14103293)
(-0.0017125612 -5.0061175e-18 0.13676343)
(-0.0019147379 -5.2537213e-18 0.13133802)
(-0.0020549965 -5.496021e-18 0.1257217)
(-0.0021305186 -5.9551636e-18 0.12048756)
(-0.0021447084 -6.3418889e-18 0.11590726)
(-0.0021056428 -6.3094095e-18 0.1120454)
(-0.0020242156 -6.4915043e-18 0.10884243)
(-0.0019123371 -6.6318839e-18 0.10617876)
(-0.0017814393 -6.8408962e-18 0.10391885)
(-0.0016414315 -7.215902e-18 0.1019377)
(-0.0015001339 -8.0137535e-18 0.10013339)
(-0.0013631427 -9.0558826e-18 0.098430092)
(-0.0012340166 -9.8119802e-18 0.09677529)
(-0.00111465 -1.0694335e-17 0.095134195)
(-0.0010057089 -1.121329e-17 0.093483545)
(-0.00090704158 -1.106277e-17 0.091805915)
(-0.00081800909 -1.0037422e-17 0.090085038)
(-0.00073771986 -9.4812413e-18 0.08830215)
(-0.00066517849 -8.3496951e-18 0.086433106)
(-0.0005993748 -7.4397021e-18 0.084445996)
(-0.00053932315 -7.0447279e-18 0.082299)
(-0.00048408743 -6.7723867e-18 0.079938332)
(-0.00043278169 -6.4568432e-18 0.077296213)
(-0.00038459984 -5.4903777e-18 0.074288913)
(-0.00033877765 -4.0224905e-18 0.070814968)
(-0.00029468898 -2.4334581e-18 0.06675372)
(-0.00025170067 -9.2587243e-19 0.061964352)
(-0.00020944789 3.9836388e-19 0.056285378)
(-0.0001673666 1.3532537e-18 0.049534306)
(-0.00012535782 1.5802432e-18 0.041506409)
(-8.2696937e-05 1.2299911e-18 0.031971787)
(-4.0348684e-05 8.365185e-19 0.020676393)
(-4.4623157e-06 2.3551746e-19 0.0073799317)
(-9.3276941e-06 -6.2398371e-19 0.035881763)
(-0.00011258783 -1.2263915e-18 0.084477102)
(-0.00029445855 -2.2898065e-18 0.11741095)
(-0.00053555225 -3.1041727e-18 0.13760681)
(-0.00081524319 -3.6216169e-18 0.1478393)
(-0.0011123675 -4.0139996e-18 0.15073078)
(-0.0014045108 -4.4931793e-18 0.14865227)
(-0.0016705822 -4.958612e-18 0.14360845)
(-0.0018930896 -5.2351975e-18 0.13716199)
(-0.0020599393 -5.5080616e-18 0.13041987)
(-0.0021652488 -5.9739743e-18 0.12407625)
(-0.00220916 -6.4103347e-18 0.11849127)
(-0.0021968596 -6.5709193e-18 0.1137824)
(-0.0021371271 -6.7064969e-18 0.10991076)
(-0.0020407241 -6.9891428e-18 0.10675243)
(-0.0019188828 -7.1872778e-18 0.10415098)
(-0.0017820813 -7.3616997e-18 0.10195202)
(-0.0016392043 -7.9041453e-18 0.1000224)
(-0.0014971171 -8.5432109e-18 0.098257759)
(-0.0013606095 -9.4492649e-18 0.096582271)
(-0.0012326095 -1.0766168e-17 0.09494386)
(-0.001114554 -1.0960677e-17 0.093307519)
(-0.0010067986 -1.0781963e-17 0.091648513)
(-0.00090899611 -1.000668e-17 0.089946446)
(-0.00082039234 -9.3042971e-18 0.088180471)
(-0.00074003065 -8.3441662e-18 0.086325572)
(-0.00066688329 -7.4619988e-18 0.084349622)
(-0.00059992166 -7.0671238e-18 0.082210909)
(-0.00053815623 -6.8901147e-18 0.079855903)
(-0.00048064645 -6.3010699e-18 0.077217157)
(-0.00042653236 -5.1693991e-18 0.074211306)
(-0.00037500825 -3.9925708e-18 0.07073727)
(-0.00032539688 -2.4151484e-18 0.066674789)
(-0.00027705111 -9.3000334e-19 0.061883426)
(-0.00022954697 3.7718696e-19 0.056202015)
(-0.00018236373 1.4208497e-18 0.04944827)
(-0.00013531766 1.3923247e-18 0.041417631)
(-8.7996388e-05 1.1840123e-18 0.031881542)
(-4.1691673e-05 7.9203635e-19 0.020593322)
(-4.3217664e-06 2.4322058e-19 0.0073343436)
(-8.5898252e-06 -1.4291257e-19 0.03733994)
(-0.00010449242 -8.1946065e-19 0.088196937)
(-0.00027464809 -1.3419507e-18 0.12291562)
(-0.00050228617 -1.6301615e-18 0.14439554)
(-0.0007697088 -2.8429345e-18 0.15538828)
(-0.0010585095 -3.6991449e-18 0.15852028)
(-0.00134854 -4.3467973e-18 0.15620884)
(-0.0016199811 -4.8506814e-18 0.15054695)
(-0.0018553755 -5.1473588e-18 0.14321385)
(-0.0020414717 -5.4035656e-18 0.13544139)
(-0.002170332 -5.804865e-18 0.12803798)
(-0.0022395737 -5.977577e-18 0.12145452)
(-0.002251844 -6.5508718e-18 0.11587001)
(-0.0022137559 -6.9430344e-18 0.11127817)
(-0.0021345466 -7.288049e-18 0.10756298)
(-0.0020246858 -7.7751427e-18 0.10455752)
(-0.0018946186 -8.1366481e-18 0.10208532)
(-0.0017537807 -8.2804548e-18 0.099985826)
(-0.001609951 -8.6872633e-18 0.098127045)
(-0.0014689679 -9.4477624e-18 0.09640868)
(-0.0013347524 -1.0174554e-17 0.094759133)
(-0.001209559 -9.9202067e-18 0.0931292)
(-0.0010943406 -9.91466e-18 0.091484711)
(-0.00098913257 -9.9900993e-18 0.089799541)
(-0.00089339186 -8.7694658e-18 0.088049713)
(-0.00080625512 -8.2827268e-18 0.08620872)
(-0.00072671352 -7.6513321e-18 0.084243884)
(-0.00065371483 -7.0954055e-18 0.082113443)
(-0.00058622863 -6.7750043e-18 0.079764067)
(-0.00052326973 -6.023787e-18 0.07712862)
(-0.00046392711 -5.1171931e-18 0.074124104)
(-0.0004073566 -4.1665539e-18 0.070649844)
(-0.00035283632 -2.4161377e-18 0.066585987)
(-0.00029970145 -9.3543553e-19 0.061792497)
(-0.0002474796 3.2735056e-19 0.056108552)
(-0.00019568257 1.1365407e-18 0.049352124)
(-0.00014408473 1.3392139e-18 0.041319036)
(-9.2562092e-05 1.1439053e-18 0.031782704)
(-4.2830366e-05 6.8664577e-19 0.020504816)
(-4.1802106e-06 2.5174765e-19 0.0072876393)
(-7.9848084e-06 -6.8736493e-19 0.038695658)
(-9.7696799e-05 -1.8371376e-18 0.0916728)
(-0.00025775694 -2.4118904e-18 0.12808994)
(-0.00047337919 -3.1317877e-18 0.150827)
(-0.00072912223 -3.3763051e-18 0.16261204)
(-0.0010088114 -3.73263e-18 0.16606689)
(-0.0012943029 -4.1675254e-18 0.16363839)
(-0.0015671476 -4.4029251e-18 0.15748648)
(-0.0018103582 -4.9563065e-18 0.14938625)
(-0.0020101902 -5.5015046e-18 0.14067845)
(-0.0021573875 -6.1245201e-18 0.13227682)
(-0.0022476968 -6.7008197e-18 0.12472111)
(-0.0022816768 -6.8299958e-18 0.11825566)
(-0.0022639598 -7.109832e-18 0.11291434)
(-0.0022021754 -7.3274533e-18 0.10859822)
(-0.0021057327 -7.4563153e-18 0.10513884)
(-0.0019846308 -7.9114395e-18 0.10234499)
(-0.0018484262 -8.6878402e-18 0.1000337)
(-0.0017054544 -9.6490395e-18 0.098047751)
(-0.0015623634 -1.0040947e-17 0.09626265)
(-0.0014239548 -9.8856483e-18 0.094586117)
(-0.0012932858 -1.0267801e-17 0.092952911)
(-0.0011719514 -9.8606901e-18 0.091317519)
(-0.00106044 -9.7024222e-18 0.089646487)
(-0.00095848884 -9.0648209e-18 0.087911545)
(-0.00086538057 -8.2731997e-18 0.086083945)
(-0.00078016202 -7.6345833e-18 0.084130034)
(-0.0007017849 -7.0657009e-18 0.082007783)
(-0.00062919071 -6.51726e-18 0.079663957)
(-0.00056135774 -5.9370977e-18 0.077031699)
(-0.00049733299 -5.007462e-18 0.074028378)
(-0.00043623479 -3.7401156e-18 0.070553726)
(-0.00037730156 -2.3701618e-18 0.066488319)
(-0.00031985014 -9.3976962e-19 0.061692537)
(-0.00026336746 2.7036385e-19 0.056005929)
(-0.00020739071 9.3910611e-19 0.049246796)
(-0.00015168732 1.2870316e-18 0.04121158)
(-9.640648e-05 1.2061665e-18 0.03167627)
(-4.3727652e-05 6.9120675e-19 0.02041167)
(-4.0313822e-06 2.0720923e-19 0.0072400513)
(-7.4777665e-06 -7.6209596e-19 0.039965186)
(-9.1906077e-05 -1.4292111e-18 0.094940449)
(-0.00024320091 -2.4524603e-18 0.13297691)
(-0.00044813042 -3.4564868e-18 0.15693856)
(-0.00069303327 -3.7294616e-18 0.16953085)
(-0.00096355391 -4.1205216e-18 0.1733661)
(-0.0012432828 -4.5640787e-18 0.17090937)
(-0.0015150953 -5.1236255e-18 0.16437191)
(-0.0017626759 -5.2783425e-18 0.15560813)
(-0.001972188 -5.6600793e-18 0.14605375)
(-0.0021335642 -6.1856527e-18 0.13671859)
(-0.0022411959 -6.760829e-18 0.1282274)
(-0.0022939804 -7.060785e-18 0.12089073)
(-0.0022948366 -7.2904134e-18 0.11478699)
(-0.0022498612 -7.5519118e-18 0.10984078)
(-0.0021672947 -7.7119879e-18 0.10588928)
(-0.0020564397 -7.8639448e-18 0.10273317)
(-0.0019266548 -8.509277e-18 0.10017221)
(-0.0017865202 -8.9823981e-18 0.098027249)
(-0.0016432451 -9.6208809e-18 0.096150969)
(-0.0015023549 -1.0313573e-17 0.09443022)
(-0.0013676464 -1.0559848e-17 0.092782574)
(-0.0012413622 -1.0366142e-17 0.091149627)
(-0.0011244873 -9.4408378e-18 0.089489108)
(-0.0010170949 -9.1440652e-18 0.087767251)
(-0.00091866445 -8.2821012e-18 0.085952234)
(-0.00082833756 -7.465205e-18 0.084008912)
(-0.00074509523 -7.0154034e-18 0.081894698)
(-0.00066786979 -6.5600217e-18 0.07955632)
(-0.00059561189 -6.0249904e-18 0.07692714)
(-0.00052733335 -4.9425707e-18 0.073924878)
(-0.00046212093 -3.6946587e-18 0.070449676)
(-0.00039917521 -2.3275154e-18 0.06638255)
(-0.000337795 -9.4104523e-19 0.061584314)
(-0.00027743529 2.53429e-19 0.055894923)
(-0.00021765316 1.2119603e-18 0.049133086)
(-0.0001582375 1.2553964e-18 0.041096118)
(-9.960289e-05 1.0653659e-18 0.031563144)
(-4.4401814e-05 7.5102158e-19 0.020314607)
(-3.8834586e-06 2.2754311e-19 0.0071918269)
(-7.0450352e-06 -1.7718507e-19 0.041161031)
(-8.6904018e-05 -9.5500891e-19 0.098028185)
(-0.00023052147 -1.521839e-18 0.13761207)
(-0.00042591407 -1.7150904e-18 0.1627639)
(-0.00066085502 -2.94702e-18 0.17616788)
(-0.00092248828 -3.8541691e-18 0.18042407)
(-0.001195896 -4.5037585e-18 0.17800802)
(-0.0014651814 -5.0850348e-18 0.17117057)
(-0.0017147777 -5.4471493e-18 0.16183225)
(-0.0019309917 -5.6565472e-18 0.15151182)
(-0.0021032908 -5.9997567e-18 0.14130654)
(-0.0022250968 -6.2918445e-18 0.13192145)
(-0.0022940049 -7.0092688e-18 0.1237325)
(-0.0023114939 -7.4619056e-18 0.11686487)
(-0.0022822744 -7.8628311e-18 0.11127111)
(-0.0022134225 -8.4027272e-18 0.10679946)
(-0.002113422 -8.71812e-18 0.10324804)
(-0.0019912203 -8.8090167e-18 0.10040429)
(-0.0018553919 -8.9896269e-18 0.098070671)
(-0.0017134767 -9.4449728e-18 0.09607911)
(-0.0015715529 -9.8287688e-18 0.094296194)
(-0.0014340632 -9.5446751e-18 0.092621819)
(-0.0013038662 -9.5312541e-18 0.090983583)
(-0.0011824605 -9.5469484e-18 0.089329106)
(-0.0010702968 -8.6180157e-18 0.087617969)
(-0.0009670966 -8.2297614e-18 0.085814393)
(-0.00087213348 -7.6546497e-18 0.083881148)
(-0.00078444335 -7.0031457e-18 0.081774747)
(-0.00070296964 -6.4762289e-18 0.079441692)
(-0.00062664727 -5.7375291e-18 0.076815484)
(-0.00055445935 -4.8836892e-18 0.073814159)
(-0.00048546561 -3.8945458e-18 0.070338268)
(-0.00041883441 -2.3192714e-18 0.066269278)
(-0.00035384596 -9.4761378e-19 0.061468452)
(-0.00028993102 2.051096e-19 0.055776183)
(-0.00022666509 9.449562e-19 0.049011688)
(-0.00016387849 1.1986834e-18 0.040973412)
(-0.0001022494 1.0251517e-18 0.031444123)
(-4.4886655e-05 6.2966893e-19 0.020214262)
(-3.7353346e-06 2.3565642e-19 0.007143178)
(-6.6702606e-06 -5.0757937e-19 0.042293055)
(-8.2532902e-05 -1.5121581e-18 0.10095877)
(-0.00021936853 -2.0197743e-18 0.1420249)
(-0.00040621843 -2.535105e-18 0.16833246)
(-0.00063203376 -3.1379296e-18 0.18254599)
(-0.00088520884 -3.8247388e-18 0.18725182)
(-0.001152111 -4.5161325e-18 0.18493053)
(-0.0014179614 -5.1238571e-18 0.17786361)
(-0.0016679545 -5.4437802e-18 0.16802714)
(-0.0018886757 -5.672828e-18 0.15701284)
(-0.0020693605 -6.0476151e-18 0.14599745)
(-0.0022027468 -6.574592e-18 0.13576147)
(-0.0022854144 -7.1669928e-18 0.12674449)
(-0.0023176482 -7.6505179e-18 0.11911936)
(-0.0023029427 -8.027389e-18 0.1128694)
(-0.002247277 -8.4276872e-18 0.10785796)
(-0.0021582747 -8.8090089e-18 0.10388515)
(-0.0020443446 -9.154281e-18 0.10073033)
(-0.0019138717 -9.6696842e-18 0.09818119)
(-0.0017745317 -9.7953045e-18 0.096051286)
(-0.001632791 -9.4680641e-18 0.094188118)
(-0.0014936201 -9.5779713e-18 0.092473991)
(-0.0013604413 -9.4887189e-18 0.090821842)
(-0.0012352622 -9.306506e-18 0.089168156)
(-0.0011189314 -8.67382e-18 0.087464805)
(-0.001011449 -8.1563827e-18 0.085671166)
(-0.00091225557 -7.6007854e-18 0.083747288)
(-0.00082047157 -6.9896635e-18 0.081648379)
(-0.00073506852 -6.3846781e-18 0.079320489)
(-0.00065497792 -5.7366986e-18 0.076697143)
(-0.00057916471 -5.0562345e-18 0.073696651)
(-0.00050666393 -3.795973e-18 0.070219959)
(-0.00043661719 -2.3084629e-18 0.066148984)
(-0.00036828802 -9.5622112e-19 0.06134546)
(-0.00030108762 1.5197284e-19 0.055650255)
(-0.0002346126 7.5493368e-19 0.048883198)
(-0.00016875073 1.2464518e-18 0.040844125)
(-0.00010444096 1.0022251e-18 0.0313199)
(-4.5224139e-05 6.2381696e-19 0.020111168)
(-3.5948883e-06 2.1142815e-19 0.0070942681)
(-6.3418113e-06 -1.0033206e-18 0.043369171)
(-7.8674995e-05 -1.9730592e-18 0.10375076)
(-0.00020947305 -2.9761888e-18 0.14623993)
(-0.00038863284 -4.2798313e-18 0.1736697)
(-0.00060608735 -3.905087e-18 0.1886865)
(-0.00085128726 -4.2024741e-18 0.19386222)
(-0.0011117131 -4.6609789e-18 0.19167856)
(-0.0013735924 -5.1606208e-18 0.18444079)
(-0.0016228618 -5.5744231e-18 0.17417194)
(-0.0018464629 -5.8576584e-18 0.16252808)
(-0.0020335546 -6.3881277e-18 0.15075837)
(-0.0021763994 -7.1921294e-18 0.13971403)
(-0.0022707894 -7.4361657e-18 0.12989606)
(-0.0023160256 -7.7742686e-18 0.12152502)
(-0.0023145497 -8.03102e-18 0.11461673)
(-0.0022713383 -8.1528602e-18 0.10905261)
(-0.0021931695 -8.5420436e-18 0.10463831)
(-0.0020878477 -9.2378198e-18 0.10114882)
(-0.0019634432 -9.8827458e-18 0.098360328)
(-0.0018276137 -9.8694394e-18 0.09607053)
(-0.00168706 -9.8419452e-18 0.094109372)
(-0.0015471648 -1.0305215e-17 0.092342105)
(-0.0014118428 -1.0135334e-17 0.090666749)
(-0.0012835829 -9.2068531e-18 0.089007919)
(-0.0011636415 -9.0825696e-18 0.08730887)
(-0.0010523211 -8.1691647e-18 0.085523288)
(-0.00094926058 -7.3984849e-18 0.083607844)
(-0.00085369058 -6.9402651e-18 0.081515991)
(-0.0007646309 -6.395019e-18 0.079193061)
(-0.00068102343 -5.8734314e-18 0.076572461)
(-0.00060182235 -4.9205071e-18 0.073572707)
(-0.00052604493 -3.4970916e-18 0.07009512)
(-0.00045281038 -2.2593562e-18 0.066022068)
(-0.00038136636 -9.6250725e-19 0.061215767)
(-0.00031110936 1.251011e-19 0.055517605)
(-0.00024166096 8.8816365e-19 0.048748134)
(-0.00017298062 1.1745808e-18 0.040708839)
(-0.00010626212 9.8532268e-19 0.031191072)
(-4.5449575e-05 6.9775559e-19 0.020005766)
(-3.4650654e-06 1.8375391e-19 0.0070452198)
(-6.0508448e-06 -6.8029667e-19 0.044395834)
(-7.5240186e-05 -1.6981287e-18 0.10641946)
(-0.00020062492 -2.572069e-18 0.15027778)
(-0.00037282686 -3.3401377e-18 0.17879762)
(-0.00058260955 -3.8835696e-18 0.19460879)
(-0.00082032392 -4.3671574e-18 0.20026852)
(-0.0010744197 -4.8458487e-18 0.19825679)
(-0.0013320315 -5.446368e-18 0.19089728)
(-0.0015798023 -5.7278521e-18 0.18025288)
(-0.0018050675 -6.0180012e-18 0.16803673)
(-0.0019970169 -6.4766465e-18 0.15556409)
(-0.0021475896 -7.2108438e-18 0.14375239)
(-0.0022519659 -7.6228264e-18 0.13316166)
(-0.0023086391 -7.9023144e-18 0.12405961)
(-0.0023191464 -8.202482e-18 0.1164956)
(-0.0022875643 -8.4077463e-18 0.1103712)
(-0.0022198695 -8.7066574e-18 0.10550041)
(-0.0021232399 -9.183725e-18 0.1016569)
(-0.0020053523 -9.6983e-18 0.098608264)
(-0.0018737288 -9.8817234e-18 0.096138818)
(-0.0017351781 -9.9078975e-18 0.094062645)
(-0.001595382 -1.0072741e-17 0.092228807)
(-0.0014586669 -9.8581321e-18 0.090520505)
(-0.0013279625 -9.2919516e-18 0.08885003)
(-0.0012049273 -8.909503e-18 0.087151288)
(-0.001090182 -8.1917479e-18 0.085371507)
(-0.00098358617 -7.4547973e-18 0.083463322)
(-0.00088450604 -6.8933045e-18 0.081377958)
(-0.00079202957 -6.3526019e-18 0.079059722)
(-0.00070512318 -5.7536173e-18 0.076441731)
(-0.0006227384 -4.7716783e-18 0.073442627)
(-0.00054388051 -3.4741561e-18 0.069964068)
(-0.00046765088 -2.2145227e-18 0.065888868)
(-0.00039328411 -9.6501079e-19 0.061079738)
(-0.0003201681 9.182114e-20 0.055378634)
(-0.00024795097 8.2746951e-19 0.048606948)
(-0.00017667524 1.1012483e-18 0.040568062)
(-0.00010778406 9.5657132e-19 0.031058149)
(-4.5591193e-05 6.5557199e-19 0.019898421)
(-3.3452497e-06 1.9812048e-19 0.00699612)
(-5.7910827e-06 -4.4376117e-19 0.045378388)
(-7.2158875e-05 -1.3807909e-18 0.10897768)
(-0.00019265859 -2.0688371e-18 0.15415591)
(-0.00035853474 -2.4515479e-18 0.18373525)
(-0.00056126035 -3.7775389e-18 0.20033028)
(-0.00079196205 -4.8850007e-18 0.20648362)
(-0.0010399396 -5.0634106e-18 0.2046715)
(-0.0012931429 -5.4612367e-18 0.19723168)
(-0.0015388798 -5.8265964e-18 0.18626113)
(-0.0017648963 -6.0273687e-18 0.17352373)
(-0.0019604825 -6.3479003e-18 0.16039525)
(-0.0021173688 -6.6924365e-18 0.14785517)
(-0.0022302607 -7.4782297e-18 0.13652005)
(-0.0022969866 -7.9770862e-18 0.12670393)
(-0.0023183094 -8.3240319e-18 0.11849017)
(-0.002297506 -8.6171236e-18 0.111802)
(-0.0022398092 -9.0739212e-18 0.10646391)
(-0.0021517775 -9.2495772e-18 0.10225077)
(-0.0020406513 -9.4243618e-18 0.098924136)
(-0.0019137332 -9.7747811e-18 0.096257208)
(-0.0017778353 -9.796333e-18 0.094049966)
(-0.0016388372 -9.5589498e-18 0.092136352)
(-0.0015013953 -9.388629e-18 0.090385127)
(-0.0013688306 -9.4344663e-18 0.088696068)
(-0.0012431843 -8.6508032e-18 0.08699319)
(-0.0011254007 -8.155797e-18 0.085216589)
(-0.0010155792 -7.6722561e-18 0.083314241)
(-0.00091324188 -6.908935e-18 0.081234648)
(-0.00081756321 -6.3005555e-18 0.078920765)
(-0.000727549 -5.6091713e-18 0.07630522)
(-0.00064215909 -4.6836999e-18 0.073306673)
(-0.00056039094 -3.463266e-18 0.069827076)
(-0.00048133334 -2.1848e-18 0.065749674)
(-0.00040421057 -9.7093125e-19 0.060937692)
(-0.00032840596 4.6286254e-20 0.055233695)
(-0.000253599 6.7217141e-19 0.048460039)
(-0.00017992273 1.0325885e-18 0.040422239)
(-0.00010906391 9.1782827e-19 0.030921568)
(-4.5672272e-05 5.7051064e-19 0.019789429)
(-3.2361416e-06 2.1667244e-19 0.0069470292)
(-5.5570959e-06 -8.2063258e-19 0.046321307)
(-6.9376235e-05 -1.7479518e-18 0.11143624)
(-0.00018544286 -2.6010959e-18 0.15788922)
(-0.00034554068 -3.3534569e-18 0.18849911)
(-0.00054175683 -3.9941583e-18 0.20586653)
(-0.0007658919 -4.6374204e-18 0.21251974)
(-0.0010079948 -4.9648335e-18 0.21092967)
(-0.0012567505 -5.0820936e-18 0.20344477)
(-0.0015000876 -5.7473544e-18 0.19219119)
(-0.0017261654 -6.1962051e-18 0.17897816)
(-0.0019244218 -6.6354251e-18 0.16523694)
(-0.0020864615 -7.3226278e-18 0.15200521)
(-0.0022066249 -7.697395e-18 0.1399536)
(-0.0022821899 -8.0910606e-18 0.12944145)
(-0.0023132565 -8.3706538e-18 0.12058627)
(-0.0023023972 -8.3929084e-18 0.11333398)
(-0.0022541621 -8.7510562e-18 0.10752122)
(-0.0021745136 -9.3056241e-18 0.10292609)
(-0.0020702379 -9.6886511e-18 0.0993063)
(-0.0019483644 -9.7906199e-18 0.096425991)
(-0.0018156263 -9.8299223e-18 0.094072755)
(-0.0016780106 -9.918184e-18 0.092066598)
(-0.0015404277 -9.55199e-18 0.090262425)
(-0.0014065351 -9.3004051e-18 0.088547535)
(-0.0012787288 -8.9047145e-18 0.086835694)
(-0.0011582717 -8.1370264e-18 0.085059313)
(-0.0010455154 -7.5857452e-18 0.083161127)
(-0.00094015596 -6.9066973e-18 0.081086432)
(-0.00084147263 -6.2385074e-18 0.078776474)
(-0.00074852259 -5.4635491e-18 0.076163172)
(-0.00066028437 -4.3467627e-18 0.07316508)
(-0.00057575633 -3.178921e-18 0.069684384)
(-0.00049401659 -2.1201029e-18 0.065604745)
(-0.00041428222 -9.7376043e-19 0.060789907)
(-0.0003359385 6.3660965e-21 0.055083099)
(-0.00025869951 6.307891e-19 0.048307761)
(-0.00018279526 8.6565265e-19 0.040271761)
(-0.00011014704 9.5131728e-19 0.030781707)
(-4.5707768e-05 5.5934838e-19 0.019679032)
(-3.1371237e-06 1.5629889e-19 0.0068979889)
(-5.3452331e-06 -6.4974731e-19 0.047228385)
(-6.6848316e-05 -1.6116199e-18 0.11380435)
(-0.00017887031 -2.4412717e-18 0.16149055)
(-0.00033366754 -3.1657423e-18 0.19310365)
(-0.00052386258 -3.7233582e-18 0.21123145)
(-0.00074184541 -4.0691241e-18 0.21838824)
(-0.00097832964 -4.9708523e-18 0.21703854)
(-0.0012226651 -5.7691155e-18 0.20953871)
(-0.001463358 -5.9912684e-18 0.19803996)
(-0.001688974 -6.3729472e-18 0.18439215)
(-0.0018891301 -6.7554778e-18 0.17007762)
(-0.0020553694 -7.3725988e-18 0.15618866)
(-0.0021817496 -7.8753675e-18 0.14344764)
(-0.0022650944 -8.249193e-18 0.13225801)
(-0.0023049358 -8.6399075e-18 0.12277136)
(-0.0023032232 -9.0098318e-18 0.11495697)
(-0.0022638877 -9.0093537e-18 0.10866493)
(-0.0021923313 -9.27279e-18 0.10367823)
(-0.0020948831 -9.6256963e-18 0.099752556)
(-0.0019782625 -9.7828422e-18 0.09664484)
(-0.0018490674 -9.7799741e-18 0.094131895)
(-0.0017133181 -9.7775461e-18 0.092021019)
(-0.0015761045 -9.6982735e-18 0.090153983)
(-0.001441365 -8.9965255e-18 0.088405831)
(-0.0013118174 -8.6928055e-18 0.086679894)
(-0.0011890326 -8.0969976e-18 0.084900464)
(-0.0010736186 -7.3182251e-18 0.083004521)
(-0.00096545846 -6.8239742e-18 0.080933684)
(-0.00086395183 -6.1744704e-18 0.078627127)
(-0.00076822301 -5.4127052e-18 0.076015818)
(-0.00067727809 -4.5216291e-18 0.073018064)
(-0.00059012217 -3.3677505e-18 0.069536211)
(-0.00050582953 -2.0946014e-18 0.065454308)
(-0.00042361223 -9.7679789e-19 0.060636631)
(-0.00034286124 -2.1443697e-20 0.054927122)
(-0.00026333001 6.8382093e-19 0.048150428)
(-0.00018535063 9.6342206e-19 0.040116978)
(-0.00011106998 8.2604928e-19 0.030638889)
(-4.5711373e-05 5.8244021e-19 0.019567433)
(-3.0466306e-06 1.753466e-19 0.0068490285)
(-5.1519093e-06 -4.1513828e-19 0.048102862)
(-6.4539832e-05 -1.3620544e-18 0.11608995)