/*--------------------------------*- C++ -*----------------------------------*\
| =========                 |                                                 |
| \\      /  F ield         | OpenFOAM: The Open Source CFD Toolbox           |
|  \\    /   O peration     | Version:  3.0.1                                 |
|   \\  /    A nd           | Web:      www.OpenFOAM.org                      |
|    \\/     M anipulation  |                                                 |
\*---------------------------------------------------------------------------*/
FoamFile
{
    version     2.0;
    format      ascii;
    class       surfaceScalarField;
    location    "3500/fluid";
    object      phi;
}
// * * * * * * * * * * * * * * * * * * * * * * * * * * * * * * * * * * * * * //

dimensions      [1 0 -1 0 0 0 0];

internalField   nonuniform List<scalar> 
9850
(
4.2005298e-12
1.8610337e-10
1.4338722e-11
6.234653e-10
3.0352341e-11
1.1846455e-09
5.3001356e-11
1.8939104e-09
8.2945892e-11
2.7794015e-09
1.2067854e-10
3.8728905e-09
1.6645254e-10
5.2099364e-09
2.2021331e-10
6.83011e-09
2.8154131e-10
8.7772786e-09
3.4962046e-10
1.110018e-08
4.2323936e-10
1.3853342e-08
5.0083592e-10
1.709857e-08
5.8058994e-10
2.0907183e-08
6.6055709e-10
2.5363215e-08
7.3884283e-10
3.056768e-08
8.1379312e-10
3.6644018e-08
8.8419077e-10
4.3744802e-08
9.4942922e-10
5.2059504e-08
1.0096466e-09
6.1823524e-08
1.0658058e-09
7.3328124e-08
1.1196997e-09
8.6931701e-08
1.1738811e-09
1.030722e-07
1.2315169e-09
1.222817e-07
1.296185e-09
1.4520324e-07
1.3716228e-09
1.7261157e-07
1.4614666e-09
2.0543876e-07
1.5689764e-09
2.4480542e-07
1.6967419e-09
2.9206068e-07
1.8463592e-09
3.4882945e-07
2.0180428e-09
4.1707155e-07
2.2101461e-09
4.9915294e-07
2.4186218e-09
5.9793073e-07
2.636508e-09
7.1685692e-07
2.8535954e-09
8.6010173e-07
3.0564154e-09
1.0327051e-06
3.2285383e-09
1.2407575e-06
3.3525396e-09
1.4916169e-06
3.4108537e-09
1.7941796e-06
3.3890532e-09
2.1591969e-06
3.2775094e-09
2.5996671e-06
3.0743126e-09
3.131307e-06
2.7859911e-09
3.7731215e-06
2.42817e-09
4.5480974e-06
2.0240906e-09
5.4840361e-06
1.6021471e-09
6.6145693e-06
1.1928924e-09
7.9803817e-06
8.2311385e-10
9.6306948e-06
5.1641154e-10
1.162505e-05
2.3377621e-10
1.4035584e-05
1.6949258e-05
6.3975033e-11
1.2212842e-10
2.7225153e-10
4.1518882e-10
6.5557704e-10
8.0132008e-10
1.2454582e-09
1.3040292e-09
2.0730536e-09
1.951806e-09
3.1670167e-09
2.7789275e-09
4.5507573e-09
3.8261959e-09
6.2392369e-09
5.1416305e-09
8.2354833e-09
6.7810323e-09
1.052719e-08
8.8084733e-09
1.3083855e-08
1.1296676e-08
1.5855034e-08
1.4327391e-08
1.8770285e-08
1.7991933e-08
2.174134e-08
2.2392159e-08
2.4666797e-08
2.7642223e-08
2.7439275e-08
3.3871539e-08
2.9954542e-08
4.1229536e-08
3.2121526e-08
4.989252e-08
3.3871721e-08
6.0073327e-08
3.5166184e-08
7.2033661e-08
3.599847e-08
8.6099416e-08
3.6392508e-08
1.0267816e-07
3.6395512e-08
1.2227869e-07
3.6067322e-08
1.4553143e-07
3.5468663e-08
1.7321023e-07
3.4651165e-08
2.0625626e-07
3.3651399e-08
2.4580518e-07
3.2489765e-08
2.9322231e-07
3.1173576e-08
3.5014564e-07
2.9702585e-08
4.1854254e-07
2.8074982e-08
5.0078056e-07
2.6292414e-08
5.9971331e-07
2.436356e-08
7.1878578e-07
2.2306284e-08
8.6215901e-07
2.0149227e-08
1.0348621e-06
1.7915844e-08
1.2429908e-06
1.5647671e-08
1.4938851e-06
1.3392984e-08
1.7964342e-06
1.1201128e-08
2.1613888e-06
9.1212565e-09
2.6017469e-06
7.1960959e-09
3.1332322e-06
5.4621701e-09
3.7748555e-06
3.9433321e-09
4.5496162e-06
2.6589829e-09
5.4853205e-06
1.6095397e-09
6.6156187e-06
8.0830179e-10
7.9811829e-06
2.2196939e-10
9.6312811e-06
-1.1408075e-10
1.1625386e-05
-2.0116988e-10
1.4035671e-05
1.6949057e-05
4.2135964e-13
1.2170707e-10
3.5147837e-12
4.1209541e-10
1.2477338e-11
7.9235747e-10
3.2111715e-11
1.2843949e-09
6.9120377e-11
1.9147971e-09
1.3234411e-10
2.7157038e-09
2.3280118e-10
3.7257389e-09
3.8338996e-10
4.9910416e-09
5.9812313e-10
6.5662992e-09
8.9077636e-10
8.5158201e-09
1.2729276e-09
1.0914525e-08
1.7514773e-09
1.3848842e-08
2.3259164e-09
1.7417493e-08
2.9857947e-09
2.1732281e-08
3.7089704e-09
2.6919048e-08
4.4612878e-09
3.3119222e-08
5.1981988e-09
4.0492625e-08
5.8685818e-09
4.9222138e-08
6.4205644e-09
5.9521345e-08
6.808601e-09
7.1645625e-08
7.0005317e-09
8.5907487e-08
6.9830224e-09
1.0269567e-07
6.7638328e-09
1.2249788e-07
6.3699536e-09
1.4592531e-07
5.8418121e-09
1.7373837e-07
5.2250382e-09
2.0687303e-07
4.5622586e-09
2.4646797e-07
3.8873221e-09
2.9389725e-07
3.2233698e-09
3.5080959e-07
2.5843315e-09
4.1918158e-07
1.9783728e-09
5.0138652e-07
1.4106948e-09
6.0028099e-07
8.853865e-10
7.1931109e-07
4.0326702e-10
8.6264114e-07
-3.6719394e-11
1.0353021e-06
-4.2041399e-10
1.2433745e-06
-7.541264e-10
1.4942188e-06
-1.0483249e-09
1.7967285e-06
-1.3149177e-09
2.1616554e-06
-1.5631888e-09
2.6019952e-06
-1.79879e-09
3.1334678e-06
-2.0161332e-09
3.7750728e-06
-2.2044884e-09
4.5498046e-06
-2.3335668e-09
5.4854496e-06
-2.3803526e-09
6.6156655e-06
-2.2911365e-09
7.9810937e-06
-2.0481739e-09
9.6310381e-06
-1.5940064e-09
1.1624931e-05
-9.6466335e-10
1.4035041e-05
1.6948092e-05
-4.6376788e-12
1.2634473e-10
-1.9624656e-11
4.2708242e-10
-4.7237321e-11
8.1997011e-10
-8.9889366e-11
1.3270469e-09
-1.4996872e-10
1.9748765e-09
-2.2961735e-10
2.7953526e-09
-3.3042688e-10
3.8265483e-09
-4.5305349e-10
5.1136682e-09
-5.9678405e-10
6.7100299e-09
-7.5911333e-10
8.6781491e-09
-9.3543505e-10
1.1090847e-08
-1.1189933e-09
1.40324e-08
-1.30123e-09
1.7599731e-08
-1.4726567e-09
2.1903708e-08
-1.6242326e-09
2.7070624e-08
-1.7490996e-09
3.3244089e-08
-1.8442822e-09
4.0587809e-08
-1.9118285e-09
4.9289684e-08
-1.9588214e-09
5.9568338e-08
-1.9959078e-09
7.1682712e-08
-2.0343926e-09
8.5945972e-08
-2.0825531e-09
1.0274383e-07
-2.142307e-09
1.2255764e-07
-2.2076637e-09
1.4599067e-07
-2.2659494e-09
1.7379666e-07
-2.3019819e-09
2.0690906e-07
-2.304021e-09
2.4647001e-07
-2.2693873e-09
2.9386263e-07
-2.2074708e-09
3.5074768e-07
-2.1388084e-09
4.1911292e-07
-2.0908749e-09
5.0133859e-07
-2.0919207e-09
6.0028204e-07
-2.165863e-09
7.1938505e-07
-2.3265319e-09
8.6280183e-07
-2.5806873e-09
1.0355563e-06
-2.9211467e-09
1.243715e-06
-3.3324104e-09
1.4946301e-06
-3.7886062e-09
1.7971847e-06
-4.2580206e-09
2.1621248e-06
-4.7027943e-09
2.60244e-06
-5.0851842e-09
3.1338502e-06
-5.3640175e-09
3.7753517e-06
-5.507681e-09
4.5499482e-06
-5.476345e-09
5.4854182e-06
-5.2509744e-09
6.6154401e-06
-4.7861618e-09
7.9806288e-06
-4.0772522e-09
9.6303292e-06
-3.0562246e-09
1.162391e-05
-1.7499975e-09
1.4033735e-05
1.6946342e-05
-9.0886186e-12
1.354334e-10
-3.9431624e-11
4.5742552e-10
-9.6909511e-11
8.7744798e-10
-1.8843189e-10
1.4185694e-09
-3.2200212e-10
2.1084468e-09
-5.0669822e-10
2.9800487e-09
-7.5255605e-10
4.0724059e-09
-1.0703089e-09
5.4314211e-09
-1.4709412e-09
7.1106622e-09
-1.9650125e-09
9.1722206e-09
-2.561737e-09
1.1687571e-08
-3.267833e-09
1.4738496e-08
-4.0862312e-09
1.8418129e-08
-5.0147988e-09
2.2832276e-08
-6.0453311e-09
2.8101156e-08
-7.1630792e-09
3.4361838e-08
-8.3470743e-09
4.1771803e-08
-9.5713302e-09
5.0513941e-08
-1.0806797e-08
6.0803805e-08
-1.2023625e-08
7.289954e-08
-1.3193165e-08
8.7115513e-08
-1.4289177e-08
1.0383984e-07
-1.5288079e-08
1.2355654e-07
-1.616859e-08
1.4687118e-07
-1.6911617e-08
1.7453969e-07
-1.7501137e-08
2.0749859e-07
-1.7926383e-08
2.4689526e-07
-1.8184583e-08
2.9412083e-07
-1.828272e-08
3.5084583e-07
-1.8236888e-08
4.190671e-07
-1.8068978e-08
5.0117069e-07
-1.7801495e-08
6.0001457e-07
-1.7453538e-08
7.1903711e-07
-1.7038189e-08
8.623865e-07
-1.6563828e-08
1.035082e-06
-1.6040333e-08
1.2431916e-06
-1.5472733e-08
1.4940625e-06
-1.4865663e-08
1.7965776e-06
-1.4224291e-08
2.1614835e-06
-1.3550466e-08
2.6017662e-06
-1.2843965e-08
3.1331437e-06
-1.2092384e-08
3.7746001e-06
-1.1281022e-08
4.5491369e-06
-1.0371872e-08
5.484509e-06
-9.3346405e-09
6.6144028e-06
-8.1009095e-09
7.9793951e-06
-6.6355627e-09
9.6288638e-06
-4.8376289e-09
1.1622112e-05
-2.6883791e-09
1.4031586e-05
1.6943653e-05
-8.1294601e-12
1.4356295e-10
-3.5479523e-11
4.847756e-10
-8.774257e-11
9.2971097e-10
-1.7183419e-10
1.5026611e-09
-2.960587e-10
2.2326713e-09
-4.7025817e-10
3.1542481e-09
-7.0591589e-10
4.3080638e-09
-1.0161754e-09
5.7416806e-09
-1.4157146e-09
7.5102012e-09
-1.9204099e-09
9.6769164e-09
-2.54671e-09
1.2313871e-08
-3.3106271e-09
1.5502413e-08
-4.2263018e-09
1.9333803e-08
-5.3041251e-09
2.3910099e-08
-6.5485184e-09
2.934555e-08
-7.955602e-09
3.5768921e-08
-9.5111176e-09
4.3327321e-08
-1.118911e-08
5.2191932e-08
-1.2951807e-08
6.2566503e-08
-1.4751056e-08
7.469879e-08
-1.6531262e-08
8.8895721e-08
-1.8233459e-08
1.0554204e-07
-1.9799858e-08
1.2512294e-07
-2.117821e-08
1.4824954e-07
-2.2325629e-08
1.7568711e-07
-2.3211834e-08
2.0838479e-07
-2.3821896e-08
2.4750532e-07
-2.4158252e-08
2.9445719e-07
-2.4241237e-08
3.5092882e-07
-2.4107005e-08
4.1893288e-07
-2.3802291e-08
5.0086599e-07
-2.3376906e-08
5.9958919e-07
-2.2875747e-08
7.1853596e-07
-2.2333353e-08
8.6184413e-07
-2.1770327e-08
1.034519e-06
-2.1196648e-08
1.2426179e-06
-2.0610401e-08
1.4934763e-06
-2.0000741e-08
1.795968e-06
-1.935081e-08
2.1608335e-06
-1.8636872e-08
2.6010523e-06
-1.7834001e-08
3.1323408e-06
-1.6909491e-08
3.7736756e-06
-1.5835316e-08
4.5480627e-06
-1.4568182e-08
5.4832419e-06
-1.3077621e-08
6.6129122e-06
-1.1299636e-08
7.9776171e-06
-9.1976962e-09
9.6267618e-06
-6.6723277e-09
1.1619587e-05
-3.6702919e-09
1.4028584e-05
1.6939983e-05
-8.3236715e-12
1.5188661e-10
-3.6452337e-11
5.1290438e-10
-9.0381237e-11
9.8364006e-10
-1.7744332e-10
1.5897232e-09
-3.0653315e-10
2.3617609e-09
-4.8832654e-10
3.3360417e-09
-7.3548239e-10
4.5552197e-09
-1.0627904e-09
6.0689885e-09
-1.4872192e-09
7.9346303e-09
-2.027802e-09
1.0217499e-08
-2.7052659e-09
1.2991335e-08
-3.5413065e-09
1.6338453e-08
-4.5573946e-09
2.0349891e-08
-5.7730194e-09
2.5125724e-08
-7.2033292e-09
3.0775861e-08
-8.8562351e-09
3.7421827e-08
-1.0729206e-08
4.5200293e-08
-1.2806202e-08
5.4268928e-08
-1.5055346e-08
6.4815647e-08
-1.7428057e-08
7.7071503e-08
-1.9860253e-08
9.1327917e-08
-2.2275851e-08
1.0795764e-07
-2.4592404e-08
1.2743949e-07
-2.6728103e-08
1.5038524e-07
-2.8609199e-08
1.7756821e-07
-3.0176814e-08
2.0995241e-07
-3.139239e-08
2.4872091e-07
-3.2241096e-08
2.953059e-07
-3.2732529e-08
3.5142026e-07
-3.289809e-08
4.1909845e-07
-3.2784669e-08
5.0075258e-07
-3.244569e-08
5.9925022e-07
-3.1931394e-08
7.1802169e-07
-3.1281828e-08
8.6119458e-07
-3.0523188e-08
1.0337603e-06
-2.9669497e-08
1.2417642e-06
-2.8725739e-08
1.4925325e-06
-2.7690981e-08
1.7949333e-06
-2.65615e-08
2.1597041e-06
-2.5328816e-08
2.5998196e-06
-2.3982368e-08
3.1309944e-06
-2.2501126e-08
3.7721943e-06
-2.0861931e-08
4.5464235e-06
-1.9021528e-08
5.4814015e-06
-1.6939158e-08
6.6108299e-06
-1.4541053e-08
7.9752189e-06
-1.1765105e-08
9.6239859e-06
-8.5005358e-09
1.1616322e-05
-4.6472746e-09
1.4024731e-05
1.6935336e-05
-7.4027032e-12
1.5928934e-10
-3.2504892e-11
5.3800664e-10
-8.0811543e-11
1.0319469e-09
-1.5913885e-10
1.6680505e-09
-2.7585972e-10
2.4784817e-09
-4.4117298e-10
3.5013549e-09
-6.6737873e-10
4.7814253e-09
-9.6913755e-10
6.3707475e-09
-1.3636756e-09
8.3291682e-09
-1.8708733e-09
1.0724697e-08
-2.5131619e-09
1.3633623e-08
-3.3151074e-09
1.7140399e-08
-4.302557e-09
2.1337341e-08
-5.5011947e-09
2.6324362e-08
-6.9343815e-09
3.2209048e-08
-8.6202169e-09
3.9107662e-08
-1.0567893e-08
4.714797e-08
-1.2773636e-08
5.6474672e-08
-1.5216771e-08
6.7258781e-08
-1.7856706e-08
7.9711438e-08
-2.0631783e-08
9.4102995e-08
-2.3460806e-08
1.1078666e-07
-2.6247689e-08
1.3022638e-07
-2.8889076e-08
1.5302663e-07
-3.1284036e-08
1.7996317e-07
-3.3344514e-08
2.120129e-07
-3.5004938e-08
2.5038134e-07
-3.6229431e-08
2.965304e-07
-3.701525e-08
3.522061e-07
-3.7391454e-08
4.1947467e-07
-3.7412288e-08
5.0077343e-07
-3.7146171e-08
5.9898413e-07
-3.6662612e-08
7.1753816e-07
-3.6020595e-08
8.6055259e-07
-3.5261354e-08
1.0330011e-06
-3.4406809e-08
1.2409097e-06
-3.346223e-08
1.491588e-06
-3.24202e-08
1.7938913e-06
-3.1265283e-08
2.1585492e-06
-2.9974942e-08
2.5985293e-06
-2.8523514e-08
3.129543e-06
-2.6877694e-08
3.7705485e-06
-2.5003019e-08
4.5445488e-06
-2.2851624e-08
5.4792501e-06
-2.0374826e-08
6.608353e-06
-1.7500427e-08
7.9723445e-06
-1.4152328e-08
9.6206377e-06
-1.0221074e-08
1.1612391e-05
-5.5746123e-09
1.4020084e-05
1.6929761e-05
-7.0634941e-12
1.6635284e-10
-3.1062225e-11
5.6200551e-10
-7.731427e-11
1.0781989e-09
-1.5242284e-10
1.7431588e-09
-2.645349e-10
2.5905937e-09
-4.2362645e-10
3.6604465e-09
-6.4180852e-10
4.9996072e-09
-9.3363543e-10
6.6625747e-09
-1.3163897e-09
8.7119223e-09
-1.810288e-09
1.1218596e-08
-2.4385464e-09
1.4261882e-08
-3.2271952e-09
1.7929048e-08
-4.2045143e-09
2.231466e-08
-5.3999294e-09
2.7519777e-08
-6.8421996e-09
3.3651318e-08
-8.5567521e-09
4.0822215e-08
-1.056212e-08
4.9153338e-08
-1.2865591e-08
5.8778143e-08
-1.5458469e-08
6.9851661e-08
-1.8311635e-08
8.2564605e-08
-2.137238e-08
9.7163741e-08
-2.4563625e-08
1.1397791e-07
-2.7786471e-08
1.3344923e-07
-3.092652e-08
1.5616668e-07
-3.3863662e-08
1.8290032e-07
-3.6484206e-08
2.1463345e-07
-3.8693535e-08
2.5259067e-07
-4.0427127e-08
2.98264e-07
-4.1657805e-08
3.5343678e-07
-4.2397396e-08
4.2021427e-07
-4.2691778e-08
5.0106783e-07
-4.260978e-08
5.9890215e-07
-4.222826e-08
7.1715666e-07
-4.1617286e-08
8.5994164e-07
-4.082966e-08
1.0322135e-06
-3.989695e-08
1.239977e-06
-3.883145e-08
1.4905225e-06
-3.7630829e-08
1.7926907e-06
-3.6283382e-08
2.1572018e-06
-3.4769989e-08
2.5970159e-06
-3.3066334e-08
3.1278394e-06
-3.1140058e-08
3.7686223e-06
-2.8952261e-08
4.542361e-06
-2.6451614e-08
5.4767494e-06
-2.357648e-08
6.6054779e-06
-2.0248299e-08
7.9690163e-06
-1.6369095e-08
9.6167585e-06
-1.1821405e-08
1.1607843e-05
-6.4403795e-09
1.4014703e-05
1.6923321e-05
-6.4445952e-12
1.7279731e-10
-2.8382728e-11
5.8394369e-10
-7.0748547e-11
1.1205648e-09
-1.3970612e-10
1.8121163e-09
-2.4290773e-10
2.6937952e-09
-3.8979132e-10
3.8073301e-09
-5.919084e-10
5.2017244e-09
-8.6327407e-10
6.9339405e-09
-1.2207133e-09
9.0693616e-09
-1.6841663e-09
1.1682048e-08
-2.2768885e-09
1.4854604e-08
-3.0254582e-09
1.8677618e-08
-3.9594544e-09
2.3248656e-08
-5.1106529e-09
2.8670976e-08
-6.5115465e-09
3.5052212e-08
-8.1929983e-09
4.2503668e-08
-1.0180902e-08
5.1141241e-08
-1.2491836e-08
6.1089079e-08
-1.5127962e-08
7.2487788e-08
-1.8071695e-08
8.5508338e-08
-2.1281075e-08
1.0037312e-07
-2.468702e-08
1.1738386e-07
-2.8193669e-08
1.3695588e-07
-3.168281e-08
1.5965583e-07
-3.5022624e-08
1.8624014e-07
-3.8080155e-08
2.1769098e-07
-4.0735893e-08
2.5524642e-07
-4.2898167e-08
3.0042628e-07
-4.4514519e-08
3.5505315e-07
-4.5577479e-08
4.2127725e-07
-4.6122698e-08
5.0161307e-07
-4.6219032e-08
5.9899851e-07
-4.5952398e-08
7.1689005e-07
-4.5407566e-08
8.5939685e-07
-4.4653065e-08
1.0314591e-06
-4.3732975e-08
1.239057e-06
-4.2666416e-08
1.489456e-06
-4.1452075e-08
1.7914764e-06
-4.007409e-08
2.1558239e-06
-3.8506717e-08
2.5954486e-06
-3.6716589e-08
3.1260493e-06
-3.4663718e-08
3.7665694e-06
-3.22993e-08
4.5399966e-06
-2.9566731e-08
5.4740169e-06
-2.6393391e-08
6.6023045e-06
-2.2697086e-08
7.96532e-06
-1.8364248e-08
9.6124256e-06
-1.327157e-08
1.1602751e-05
-7.2296877e-09
1.4008661e-05
1.6916091e-05
-6.0772197e-12
1.7887449e-10
-2.6788783e-11
6.0465539e-10
-6.682366e-11
1.1605997e-09
-1.3205114e-10
1.8773437e-09
-2.2977818e-10
2.7915223e-09
-3.690464e-10
3.9465983e-09
-5.609662e-10
5.3936444e-09
-8.1908457e-10
7.1920591e-09
-1.1597638e-09
9.410041e-09
-1.6025443e-09
1.2124829e-08
-2.1704372e-09
1.5422497e-08
-2.8900663e-09
1.9397247e-08
-3.7915425e-09
2.4150132e-08
-4.9079148e-09
2.9787349e-08
-6.274006e-09
3.6418303e-08
-7.9244151e-09
4.4154077e-08
-9.8905073e-09
5.3107335e-08
-1.2196289e-08
6.3394861e-08
-1.4853264e-08
7.5144764e-08
-1.7854676e-08
8.8509751e-08
-2.1169912e-08
1.0368836e-07
-2.47402e-08
1.2095414e-07
-2.8476963e-08
1.4069265e-07
-3.226408e-08
1.6344295e-07
-3.5964829e-08
1.8994089e-07
-3.9433461e-08
2.2115962e-07
-4.2530267e-08
2.5834323e-07
-4.5137998e-08
3.0303402e-07
-4.7176682e-08
3.5709185e-07
-4.8613617e-08
4.227142e-07
-4.9465622e-08
5.0246509e-07
-4.9791973e-08
5.9932488e-07
-4.9679022e-08
7.1677713e-07
-4.9220121e-08
8.5893798e-07
-4.8496779e-08
1.0307357e-06
-4.7566281e-08
1.2381266e-06
-4.6458103e-08
1.4883479e-06
-4.5177498e-08
1.7901958e-06
-4.3711301e-08
2.1543577e-06
-4.2034491e-08
2.5937718e-06
-4.0111488e-08
3.1241263e-06
-3.789994e-08
3.7643579e-06
-3.5344537e-08
4.5374413e-06
-3.2383575e-08
5.4710559e-06
-2.8932939e-08
6.5988539e-06
-2.4902968e-08
7.96129e-06
-2.0163693e-08
9.6076863e-06
-1.4581347e-08
1.1597168e-05
-7.9447135e-09
1.4002024e-05
1.6908146e-05
-5.6536664e-12
1.8452812e-10
-2.4944449e-11
6.2394612e-10
-6.2276195e-11
1.1979315e-09
-1.2318005e-10
1.9382476e-09
-2.145662e-10
2.8829084e-09
-3.4501831e-10
4.0770505e-09
-5.2513368e-10
5.5737598e-09
-7.6790045e-10
7.4348261e-09
-1.0891032e-09
9.7312439e-09
-1.5077289e-09
1.2543455e-08
-2.0463311e-09
1.59611e-08
-2.7312778e-09
2.0082194e-08
-3.592783e-09
2.5011638e-08
-4.6645658e-09
3.0859131e-08
-5.9829526e-09
3.7736691e-08
-7.5852001e-09
4.5756325e-08
-9.5068125e-09
5.5028947e-08
-1.1777692e-08
6.5665741e-08
-1.4417123e-08
7.7784196e-08
-1.7427845e-08
9.1520475e-08
-2.0789858e-08
1.0705037e-07
-2.445499e-08
1.2461928e-07
-2.834361e-08
1.4458127e-07
-3.2344908e-08
1.6744425e-07
-3.632188e-08
1.9391787e-07
-4.0121436e-08
2.2495919e-07
-4.3589061e-08
2.6181087e-07
-4.6586252e-08
3.0603122e-07
-4.9007907e-08
3.5951351e-07
-5.0796135e-08
4.2450245e-07
-5.1946917e-08
5.0361589e-07
-5.2506836e-08
5.9988483e-07
-5.2559633e-08
7.1682995e-07
-5.2205377e-08
8.5858378e-07
-5.1538253e-08
1.0300687e-06
-5.0629579e-08
1.2372179e-06
-4.9520006e-08
1.4872384e-06
-4.8221173e-08
1.788897e-06
-4.6721224e-08
2.1528578e-06
-4.4993145e-08
2.5920438e-06
-4.2996484e-08
3.1221297e-06
-4.0683732e-08
3.7620451e-06
-3.7992306e-08
4.5347498e-06
-3.4854652e-08
5.4679183e-06
-3.11773e-08
6.5951765e-06
-2.6863516e-08
7.9569762e-06
-2.1770812e-08
9.6025936e-06
-1.5754926e-08
1.1591152e-05
-8.5876802e-09
1.3994857e-05
1.6899559e-05
-5.342447e-12
1.898706e-10
-2.3585448e-11
6.4218914e-10
-5.8913042e-11
1.2332591e-09
-1.1658808e-10
1.9959227e-09
-2.0319864e-10
2.9695189e-09
-3.2694734e-10
4.2007994e-09
-4.9798867e-10
5.744801e-09
-7.2880935e-10
7.6656467e-09
-1.0346462e-09
1.0037081e-08
-1.4339187e-09
1.2942727e-08
-1.9486408e-09
1.6475822e-08
-2.6047509e-09
2.0738304e-08
-3.4322599e-09
2.5839148e-08
-4.4650888e-09
3.1891961e-08
-5.7404033e-09
3.9012005e-08
-7.2972249e-09
4.7313146e-08
-9.1740799e-09
5.6905803e-08
-1.1405472e-08
6.7897134e-08
-1.4017096e-08
8.0395822e-08
-1.7019937e-08
9.4523316e-08
-2.0403745e-08
1.1043418e-07
-2.4130829e-08
1.2834636e-07
-2.8131454e-08
1.485819e-07
-3.2302366e-08
1.7161517e-07
-3.6509805e-08
1.9812531e-07
-4.0597856e-08
2.2904724e-07
-4.4401955e-08
2.6561497e-07
-4.7766389e-08
3.0939567e-07
-5.0563201e-08
3.6231034e-07
-5.2709065e-08
4.2664833e-07
-5.4176084e-08
5.0508293e-07
-5.4992932e-08
6.0070171e-07
-5.5234584e-08
7.1707164e-07
-5.5002426e-08
8.5835165e-07
-5.4399883e-08
1.0294662e-06
-5.3511495e-08
1.2363296e-06
-5.2390468e-08
1.4861174e-06
-5.1057669e-08
1.7875643e-06
-4.950596e-08
2.1513062e-06
-4.7709591e-08
2.5902475e-06
-4.5626414e-08
3.1200466e-06
-4.3205919e-08
3.7596247e-06
-4.0380245e-08
4.5319242e-06
-3.7076181e-08
5.4646142e-06
-3.3191916e-08
6.5912922e-06
-2.8622278e-08
7.9524065e-06
-2.3213427e-08
9.5971847e-06
-1.6808956e-08
1.1584748e-05
-9.1661049e-09
1.3987214e-05
1.6890393e-05
-5.0361003e-12
1.9490668e-10
-2.2245722e-11
6.5939866e-10
-5.5595848e-11
1.2666092e-09
-1.1008667e-10
2.0504134e-09
-1.9198991e-10
3.0514219e-09
-3.0913303e-10
4.3179427e-09
-4.7123407e-10
5.9069019e-09
-6.9028084e-10
7.8846939e-09
-9.8095862e-10
1.0327758e-08
-1.3610992e-09
1.3322868e-08
-1.8521302e-09
1.6966853e-08
-2.4794651e-09
2.136564e-08
-3.2727499e-09
2.6632433e-08
-4.2658395e-09
3.288505e-08
-5.4963276e-09
4.0242493e-08
-7.0044126e-09
4.8821232e-08
-8.8308517e-09
5.8732241e-08
-1.1013742e-08
7.0080025e-08
-1.3584017e-08
8.2966098e-08
-1.6559674e-08
9.7498973e-08
-1.9939118e-08
1.1381363e-07
-2.3694426e-08
1.3210167e-07
-2.7765756e-08
1.5265323e-07
-3.2058387e-08
1.759078e-07
-3.644396e-08
2.0251089e-07
-4.0766969e-08
2.3337026e-07
-4.4856864e-08
2.6970488e-07
-4.8544931e-08
3.1308375e-07
-5.1683928e-08
3.6544934e-07
-5.4167144e-08
4.2913156e-07
-5.5942854e-08
5.0685867e-07
-5.7019815e-08
6.017787e-07
-5.7460945e-08
7.175128e-07
-5.7365354e-08
8.5825611e-07
-5.6843185e-08
1.028944e-06
-5.5991016e-08
1.2354775e-06
-5.4874843e-08
1.4850013e-06
-5.3525373e-08
1.7862149e-06
-5.1940721e-08
2.1497216e-06
-5.0096308e-08
2.5884031e-06
-4.7948111e-08
3.1178984e-06
-4.5442032e-08
3.7571186e-06
-4.2505358e-08
4.5289875e-06
-3.9059155e-08
5.461168e-06
-3.4994865e-08
6.5872279e-06
-3.0199144e-08
7.9476107e-06
-2.4509141e-08
9.5914946e-06
-1.7756648e-08
1.1577995e-05
-9.6869602e-09
1.3979144e-05
1.6880706e-05
-4.7851701e-12
1.9969191e-10
-2.1146215e-11
6.7575966e-10
-5.2867198e-11
1.2983302e-09
-1.047232e-10
2.1022694e-09
-1.8271231e-10
3.1294109e-09
-2.9433305e-10
4.4295636e-09
-4.489132e-10
6.0614818e-09
-6.5798607e-10
8.0937669e-09
-9.357203e-10
1.0605492e-08
-1.2993795e-09
1.3686527e-08
-1.7697983e-09
1.7437271e-08
-2.3718145e-09
2.1967656e-08
-3.1345934e-09
2.7395212e-08
-4.0917208e-09
3.3842178e-08
-5.2808992e-09
4.1431672e-08
-6.7430388e-09
5.0283372e-08
-8.5204805e-09
6.0509684e-08
-1.0654103e-08
7.2213648e-08
-1.31791e-08
8.5491098e-08
-1.6119425e-08
1.004393e-07
-1.948113e-08
1.1717533e-07
-2.3245311e-08
1.3586586e-07
-2.7361763e-08
1.5676969e-07
-3.1744815e-08
1.8029086e-07
-3.6272954e-08
2.0703903e-07
-4.0793556e-08
2.3789087e-07
-4.513335e-08
2.7404468e-07
-4.9114258e-08
3.1706467e-07
-5.2573022e-08
3.6890812e-07
-5.5381688e-08
4.3194025e-07
-5.7464969e-08
5.0894197e-07
-5.8809841e-08
6.031236e-07
-5.9463492e-08
7.1816648e-07
-5.9518473e-08
8.5831114e-07
-5.9087889e-08
1.0285135e-06
-5.8278361e-08
1.234668e-06
-5.7168536e-08
1.4838915e-06
-5.5800221e-08
1.7848466e-06
-5.4178786e-08
2.1481002e-06
-5.2282614e-08
2.586507e-06
-5.0067521e-08
3.1156834e-06
-4.7476891e-08
3.754528e-06
-4.4434398e-08
4.525945e-06
-4.0855669e-08
5.4575893e-06
-3.6626322e-08
6.5829986e-06
-3.1624869e-08
7.9426093e-06
-2.5680525e-08
9.5855502e-06
-1.8613256e-08
1.1570928e-05
-1.0157976e-08
1.3970689e-05
1.6870548e-05
-4.5519759e-12
2.0424396e-10
-2.0123486e-11
6.9133109e-10
-5.0327806e-11
1.3285346e-09
-9.9730573e-11
2.1516719e-09
-1.7407399e-10
3.2037542e-09
-2.8054872e-10
4.5360385e-09
-4.2811552e-10
6.2090486e-09
-6.2787944e-10
8.2935307e-09
-8.9351566e-10
1.0871129e-08
-1.2417399e-09
1.4034751e-08
-1.6927976e-09
1.7888329e-08
-2.2709356e-09
2.2545793e-08
-3.0047825e-09
2.8129059e-08
-3.9275385e-09
3.4764934e-08
-5.0768113e-09
4.2580945e-08
-6.4938983e-09
5.1700459e-08
-8.2222621e-09
6.2238049e-08
-1.0304921e-08
7.4296308e-08
-1.2780535e-08
8.7966712e-08
-1.5678076e-08
1.0333684e-07
-1.9010278e-08
1.2050754e-07
-2.2766398e-08
1.3962198e-07
-2.6905323e-08
1.6090861e-07
-3.1350432e-08
1.8473597e-07
-3.5987832e-08
2.1167644e-07
-4.0669431e-08
2.4257247e-07
-4.5221764e-08
2.7859702e-07
-4.9460556e-08
3.2130347e-07
-5.3209845e-08
3.7265742e-07
-5.6323193e-08
4.3505362e-07
-5.8703253e-08
5.1132206e-07
-6.0314951e-08
6.0473533e-07
-6.1187771e-08
7.1903934e-07
-6.140451e-08
8.5852793e-07
-6.1078065e-08
1.0281871e-06
-6.0322785e-08
1.2339128e-06
-5.9229191e-08
1.482798e-06
-5.7850508e-08
1.783468e-06
-5.6200191e-08
2.14645e-06
-5.4260325e-08
2.5845672e-06
-5.1987153e-08
3.1134102e-06
-4.9321791e-08
3.7518627e-06
-4.6184696e-08
4.522808e-06
-4.2486479e-08
5.4538911e-06
-3.8107905e-08
6.57862e-06
-3.2919753e-08
7.9374211e-06
-2.6744614e-08
9.5793751e-06
-1.9391389e-08
1.1563574e-05
-1.0585932e-08
1.3961883e-05
1.6859962e-05
-4.3499556e-12
2.0859385e-10
-1.9235611e-11
7.0621676e-10
-4.8119994e-11
1.357419e-09
-9.5382227e-11
2.1989341e-09
-1.6653607e-10
3.2749082e-09
-2.6849531e-10
4.6379976e-09
-4.0988651e-10
6.3504399e-09
-6.0142041e-10
8.4850646e-09
-8.5631394e-10
1.1126022e-08
-1.1907626e-09
1.43692e-08
-1.6244422e-09
1.8322009e-08
-2.1810058e-09
2.3102357e-08
-2.8885121e-09
2.8836565e-08
-3.7796921e-09
3.5656114e-08
-4.8919062e-09
4.3693159e-08
-6.2665921e-09
5.3075145e-08
-7.9479632e-09
6.3919419e-08
-9.9806664e-09
7.6329013e-08
-1.2406166e-08
9.0392212e-08
-1.5257671e-08
1.0618835e-07
-1.8553745e-08
1.2380361e-07
-2.2290995e-08
1.4335923e-07
-2.6436807e-08
1.6505443e-07
-3.0923415e-08
1.8922258e-07
-3.5644946e-08
2.1639797e-07
-4.0459007e-08
2.4738654e-07
-4.5193882e-08
2.8333191e-07
-4.9661691e-08
3.2577129e-07
-5.367666e-08
3.7667241e-07
-5.7076518e-08
4.384535e-07
-5.9743567e-08
5.1398913e-07
-6.1620891e-08
6.0661269e-07
-6.2718686e-08
7.2013717e-07
-6.310711e-08
8.589164e-07
-6.2895489e-08
1.0279755e-06
-6.2203276e-08
1.2332206e-06
-6.1131688e-08
1.4817265e-06
-5.9745568e-08
1.7820819e-06
-5.8067627e-08
2.1447721e-06
-5.6084854e-08
2.5825845e-06
-5.3755139e-08
3.1110806e-06
-5.1017994e-08
3.7491256e-06
-4.7791541e-08
4.5195815e-06
-4.398159e-08
5.4500811e-06
-3.9464803e-08
6.5741032e-06
-3.4104629e-08
7.9320609e-06
-2.7717777e-08
9.5729882e-06
-2.0102689e-08
1.1555959e-05
-1.0977038e-08
1.3952758e-05
1.6848984e-05
-4.1648222e-12
2.127586e-10
-1.8421783e-11
7.2047378e-10
-4.6095622e-11
1.3850927e-09
-9.1393457e-11
2.2442319e-09
-1.5961855e-10
3.3431334e-09
-2.5742781e-10
4.7358068e-09
-3.9313902e-10
6.4861511e-09
-5.7709512e-10
8.6690205e-09
-8.2208247e-10
1.137101e-08
-1.1438048e-09
1.4690922e-08
-1.5613919e-09
1.8739595e-08
-2.0979135e-09
2.3638878e-08
-2.78085e-09
2.9519502e-08
-3.642419e-09
3.6517684e-08
-4.7196346e-09
4.4770375e-08
-6.0539007e-09
5.4409411e-08
-7.6899033e-09
6.5555423e-08
-9.6735232e-09
7.8312634e-08
-1.2048488e-08
9.2767178e-08
-1.4851578e-08
1.0899144e-07
-1.8106422e-08
1.2705846e-07
-2.1816206e-08
1.4706902e-07
-2.5956156e-08
1.6919438e-07
-3.0466982e-08
1.9373341e-07
-3.5250931e-08
2.2118193e-07
-4.0172022e-08
2.5230764e-07
-4.5061721e-08
2.8822162e-07
-4.9730653e-08
3.3044024e-07
-5.3985816e-08
3.8092759e-07
-5.765172e-08
4.4211943e-07
-6.0592409e-08
5.1692985e-07
-6.2730056e-08
6.0875037e-07
-6.4054991e-08
7.2146214e-07
-6.4622646e-08
8.5948411e-07
-6.4535943e-08
1.0278889e-06
-6.3916836e-08
1.2326016e-06
-6.2875586e-08
1.4806853e-06
-6.14884e-08
1.7806948e-06
-5.9787756e-08
2.1430715e-06
-5.7766515e-08
2.5805633e-06
-5.538489e-08
3.108699e-06
-5.2581408e-08
3.7463222e-06
-4.9272189e-08
4.5162723e-06
-4.5358776e-08
5.4461677e-06
-4.0714122e-08
6.5694585e-06
-3.5195037e-08
7.9265417e-06
-2.861296e-08
9.566406e-06
-2.075671e-08
1.1548103e-05
-1.1336525e-08
1.3943337e-05
1.6837648e-05
-3.9988562e-12
2.1675742e-10
-1.7691938e-11
7.3416674e-10
-4.4277986e-11
1.4116787e-09
-8.7808609e-11
2.2877627e-09
-1.5339509e-10
3.40872e-09
-2.4745916e-10
4.829871e-09
-3.7803423e-10
6.6167263e-09
-5.5512276e-10
8.8461093e-09
-7.9111134e-10
1.1606998e-08
-1.1012395e-09
1.5001051e-08
-1.504116e-09
1.9142472e-08
-2.0222471e-09
2.4157009e-08
-2.6825339e-09
3.0179788e-08
-3.5166544e-09
3.7351804e-08
-4.5612069e-09
4.5814928e-08
-5.8574299e-09
5.5705634e-08
-7.450271e-09
6.7148265e-08
-9.3865215e-09
8.0248886e-08
-1.1711733e-08
9.509239e-08
-1.4465693e-08
1.117454e-07
-1.7676431e-08
1.302692e-07
-2.1353018e-08
1.5074561e-07
-2.5477877e-08
1.7331924e-07
-2.9999759e-08
1.982553e-07
-3.4828947e-08
2.2601112e-07
-3.9836299e-08
2.57315e-07
-4.485752e-08
2.9324285e-07
-4.9703416e-08
3.3528615e-07
-5.4175943e-08
3.8540013e-07
-5.8088774e-08
4.4603228e-07
-6.1289787e-08
5.2013089e-07
-6.3681468e-08
6.1114208e-07
-6.5234145e-08
7.2301486e-07
-6.598698e-08
8.60237e-07
-6.6033919e-08
1.0279359e-06
-6.5496776e-08
1.2320645e-06
-6.4493064e-08
1.4796816e-06
-6.3109753e-08
1.7793116e-06
-6.1389593e-08
2.1413514e-06
-5.9332242e-08
2.578506e-06
-5.6901134e-08
3.1062679e-06
-5.4034538e-08
3.7434556e-06
-5.0647031e-08
4.5128848e-06
-4.6636336e-08
5.442157e-06
-4.187209e-08
6.5646942e-06
-3.6204912e-08
7.9208745e-06
-2.9441466e-08
9.5596425e-06
-2.1361676e-08
1.1540023e-05
-1.1668883e-08
1.3933644e-05
1.6825979e-05
-3.8464998e-12
2.2060393e-10
-1.7021267e-11
7.4734156e-10
-4.2607511e-11
1.4372651e-09
-8.4513076e-11
2.3296683e-09
-1.4767155e-10
3.4718784e-09
-2.38287e-10
4.9204864e-09
-3.6412892e-10
6.7425682e-09
-5.3488274e-10
9.0168633e-09
-7.6256006e-10
1.1834676e-08
-1.0619649e-09
1.5300456e-08
-1.4512106e-09
1.9531718e-08
-1.9522598e-09
2.4658059e-08
-2.5914459e-09
3.0818975e-08
-3.3998982e-09
3.8160257e-08
-4.4137568e-09
4.6828786e-08
-5.6740016e-09
5.696588e-08
-7.2256795e-09
6.8699944e-08
-9.1162407e-09
8.2139448e-08
-1.1392703e-08
9.7368852e-08
-1.4097383e-08
1.1445008e-07
-1.726214e-08
1.3343396e-07
-2.0901289e-08
1.5438476e-07
-2.5003828e-08
1.7742179e-07
-2.9526069e-08
2.0277754e-07
-3.4386112e-08
2.3087117e-07
-3.9461864e-08
2.6239076e-07
-4.4593993e-08
2.9837499e-07
-4.9594816e-08
3.4028698e-07
-5.4263083e-08
3.9006842e-07
-5.8403808e-08
4.5017302e-07
-6.1850781e-08
5.2357789e-07
-6.4488302e-08
6.1377964e-07
-6.6267116e-08
7.2479371e-07
-6.7209164e-08
8.6117909e-07
-6.7397352e-08
1.0281241e-06
-6.6950869e-08
1.2316181e-06
-6.5992498e-08
1.4787233e-06
-6.4619099e-08
1.7779382e-06
-6.2883816e-08
2.1396162e-06
-6.0793804e-08
2.5764161e-06
-5.8316514e-08
3.1037907e-06
-5.5390546e-08
3.7405296e-06
-5.1929344e-08
4.5094236e-06
-4.7827264e-08
5.4380549e-06
-4.2950887e-08
6.5598178e-06
-3.7145229e-08
7.9150688e-06
-3.0212447e-08
9.5527097e-06
-2.1924394e-08
1.1531735e-05
-1.1977853e-08
1.3923698e-05
1.6814001e-05
-3.7075288e-12
2.2431145e-10
-1.6409165e-11
7.6004314e-10
-4.1081769e-11
1.4619376e-09
-8.1500642e-11
2.3700872e-09
-1.4243537e-10
3.5328134e-09
-2.2988964e-10
5.0079404e-09
-3.5138727e-10
6.8640657e-09
-5.1631914e-10
9.1817952e-09
-7.3634569e-10
1.2054702e-08
-1.0258612e-09
1.5589971e-08
-1.4025094e-09
1.9908366e-08
-1.8877317e-09
2.5143281e-08
-2.5073076e-09
3.1438551e-08
-3.2918164e-09
3.8944766e-08
-4.2769107e-09
4.7813881e-08
-5.503248e-09
5.8192217e-08
-7.0158473e-09
7.0212543e-08
-8.8626151e-09
8.3986218e-08
-1.1091739e-08
9.9597977e-08
-1.3747672e-08
1.1710602e-07
-1.6865598e-08
1.3655188e-07
-2.0464508e-08
1.5798367e-07
-2.4539412e-08
1.8149669e-07
-2.9053679e-08
2.0729181e-07
-3.3932942e-08
2.3575044e-07
-3.9062206e-08
2.6752003e-07
-4.4287606e-08