/*--------------------------------*- C++ -*----------------------------------*\
| =========                 |                                                 |
| \\      /  F ield         | OpenFOAM: The Open Source CFD Toolbox           |
|  \\    /   O peration     | Version:  3.0.1                                 |
|   \\  /    A nd           | Web:      www.OpenFOAM.org                      |
|    \\/     M anipulation  |                                                 |
\*---------------------------------------------------------------------------*/
FoamFile
{
    version     2.0;
    format      ascii;
    class       surfaceScalarField;
    location    "9000/fluid";
    object      phi;
}
// * * * * * * * * * * * * * * * * * * * * * * * * * * * * * * * * * * * * * //

dimensions      [1 0 -1 0 0 0 0];

internalField   nonuniform List<scalar> 
7860
(
9.5156949e-11
6.0205226e-09
1.7521401e-10
1.7989405e-08
9.0287688e-11
3.1515992e-08
-2.0649449e-10
4.6407777e-08
-6.805586e-10
6.2628381e-08
-1.255299e-09
8.0307403e-08
-1.847504e-09
9.9717993e-08
-2.3916302e-09
1.2123492e-07
-2.8492997e-09
1.4529486e-07
-3.2080525e-09
1.7236676e-07
-3.4743585e-09
2.0293287e-07
-3.6653442e-09
2.374817e-07
-3.8019242e-09
2.7650623e-07
-3.9040514e-09
3.2050533e-07
-3.9885092e-09
3.6998752e-07
-4.0680982e-09
4.2546951e-07
-4.1521369e-09
4.8747715e-07
-4.2470429e-09
5.5653878e-07
-4.3573314e-09
6.3317607e-07
-4.4860094e-09
7.1788968e-07
-4.6351881e-09
8.1114175e-07
-4.8060505e-09
9.1332696e-07
-4.9991015e-09
1.0247354e-06
-5.213973e-09
1.1455047e-06
-5.4494206e-09
1.2755503e-06
-5.7030604e-09
1.4144732e-06
-5.9713565e-09
1.5614376e-06
-6.2490212e-09
1.7149969e-06
-6.5291336e-09
1.8728687e-06
-6.8022682e-09
2.0316213e-06
-7.0561681e-09
2.1862614e-06
-7.2748371e-09
2.329668e-06
-7.4364573e-09
2.4518461e-06
-7.5125015e-09
2.5389143e-06
-7.4602265e-09
2.5717695e-06
-7.2195956e-09
2.5242517e-06
-6.6782337e-09
2.3607268e-06
-5.6400639e-09
2.0326006e-06
-3.5814799e-09
1.4735226e-06
5.9161121e-07
-3.3459387e-10
6.3551167e-09
-1.3104183e-09
1.896523e-08
-2.8924339e-09
3.3098009e-08
-4.9462193e-09
4.846156e-08
-7.2684162e-09
6.4950577e-08
-9.6302157e-09
8.2669207e-08
-1.1821502e-08
1.0190927e-07
-1.368547e-08
1.230989e-07
-1.5134376e-08
1.4674376e-07
-1.614661e-08
1.73379e-07
-1.6751618e-08
2.0353787e-07
-1.7009754e-08
2.3773984e-07
-1.6993635e-08
2.7649011e-07
-1.6774087e-08
3.2028578e-07
-1.6412089e-08
3.6962552e-07
-1.5955718e-08
4.2501313e-07
-1.5440708e-08
4.8696213e-07
-1.4892715e-08
5.5599079e-07
-1.4330177e-08
6.3261355e-07
-1.3766786e-08
7.173263e-07
-1.3213217e-08
8.1058815e-07
-1.267806e-08
9.1279181e-07
-1.2168494e-08
1.0242258e-06
-1.1690297e-08
1.1450265e-06
-1.124758e-08
1.2751076e-06
-1.0842795e-08
1.4140684e-06
-1.0475935e-08
1.5610708e-06
-1.0144627e-08
1.7146656e-06
-9.84339e-09
1.8725675e-06
-9.5633605e-09
2.0313412e-06
-9.2913842e-09
2.1859895e-06
-9.0098827e-09
2.3293865e-06
-8.694599e-09
2.4515309e-06
-8.3145845e-09
2.5385342e-06
-7.8250909e-09
2.5712801e-06
-7.1650504e-09
2.5235916e-06
-6.2247945e-09
2.3597866e-06
-4.8145165e-09
2.0311903e-06
-2.5565678e-09
1.4712647e-06
5.8905472e-07
-3.6672747e-10
6.7218431e-09
-1.4892414e-09
2.0087745e-08
-3.4133476e-09
3.5022115e-08
-6.0648632e-09
5.1113072e-08
-9.2523767e-09
6.8138094e-08
-1.2702221e-08
8.6119052e-08
-1.6113696e-08
1.0532075e-07
-1.9216337e-08
1.2620154e-07
-2.1812228e-08
1.4933966e-07
-2.3794823e-08
1.7536158e-07
-2.5144807e-08
2.0488785e-07
-2.5910311e-08
2.3850537e-07
-2.6180506e-08
2.7676029e-07
-2.6060122e-08
3.201654e-07
-2.5650452e-08
3.6921583e-07
-2.5037858e-08
4.2440056e-07
-2.4289771e-08
4.8621403e-07
-2.345531e-08
5.5515633e-07
-2.2568914e-08
6.3172713e-07
-2.1654303e-08
7.1641172e-07
-2.0728387e-08
8.0966223e-07
-1.980363e-08
9.1186704e-07
-1.8889737e-08
1.0233119e-06
-1.7994454e-08
1.1441312e-06
-1.7123758e-08
1.2742369e-06
-1.6281764e-08
1.4132264e-06
-1.547044e-08
1.5602595e-06
-1.4689158e-08
1.7138843e-06
-1.3934098e-08
1.8718125e-06
-1.3198037e-08
2.0306051e-06
-1.2469208e-08
2.1852606e-06
-1.1730637e-08
2.3286479e-06
-1.0958756e-08
2.4507591e-06
-1.0121789e-08
2.5376972e-06
-9.1741888e-09
2.5703325e-06
-8.0511218e-09
2.5224685e-06
-6.6404854e-09
2.3583759e-06
-4.7595862e-09
2.0293093e-06
-2.2081178e-09
1.4687132e-06
5.8684656e-07
-3.5339209e-10
7.0752359e-09
-1.4546077e-09
2.1188958e-08
-3.3985235e-09
3.6966033e-08
-6.184384e-09
5.3898932e-08
-9.6931952e-09
7.1646904e-08
-1.3694146e-08
9.0120002e-08
-1.7881691e-08
1.0950829e-07
-2.1931775e-08
1.3025162e-07
-2.5558982e-08
1.5296686e-07
-2.8558454e-08
1.7836106e-07
-3.0824336e-08
2.0715373e-07
-3.2344981e-08
2.4002602e-07
-3.3181757e-08
2.7759707e-07
-3.3440217e-08
3.2042387e-07
-3.3242263e-08
3.6901786e-07
-3.2704665e-08
4.2386296e-07
-3.192642e-08
4.8543578e-07
-3.0984091e-08
5.5421402e-07
-2.9933101e-08
6.3067613e-07
-2.8811765e-08
7.1529037e-07
-2.7646278e-08
8.0849676e-07
-2.6455038e-08
9.1067579e-07
-2.525145e-08
1.0221084e-06
-2.4045958e-08
1.1429257e-06
-2.284644e-08
1.2730374e-06
-2.1658977e-08
1.4120389e-06
-2.0487106e-08
1.5590876e-06
-1.9331687e-08
1.7127289e-06
-1.819045e-08
1.8706712e-06
-1.7057144e-08
2.0294718e-06
-1.5920947e-08
2.1841244e-06
-1.476533e-08
2.3274923e-06
-1.356673e-08
2.4495605e-06
-1.2292712e-08
2.5364232e-06
-1.0896877e-08
2.5689366e-06
-9.3112029e-09
2.5208829e-06
-7.4235671e-09
2.3564883e-06
-5.0682916e-09
2.0269541e-06
-2.1912043e-09
1.4658359e-06
5.8465559e-07
-3.2983538e-10
7.4050726e-09
-1.3706906e-09
2.2229811e-08
-3.2402166e-09
3.8835561e-08
-5.9837192e-09
5.6642432e-08
-9.5444546e-09
7.520764e-08
-1.3752501e-08
9.4328045e-08
-1.834084e-08
1.1409663e-07
-2.2986684e-08
1.3489747e-07
-2.7365986e-08
1.5734616e-07
-3.1205231e-08
1.822003e-07
-3.4317533e-08
2.1026604e-07
-3.6616663e-08
2.4232514e-07
-3.8109564e-08
2.7908997e-07
-3.887389e-08
3.2118819e-07
-3.9028529e-08
3.6917251e-07
-3.8705506e-08
4.2353992e-07
-3.8028535e-08
4.847588e-07
-3.7100708e-08
5.5328622e-07
-3.6000662e-08
6.2957609e-07
-3.4784293e-08
7.1407398e-07
-3.348954e-08
8.0720203e-07
-3.2141958e-08
9.0932818e-07
-3.0758761e-08
1.0207252e-06
-2.935241e-08
1.1415193e-06
-2.7931711e-08
1.2716168e-06
-2.65031e-08
1.4106103e-06
-2.5070409e-08
1.5576549e-06
-2.3634697e-08
1.7112932e-06
-2.2193845e-08
1.8692303e-06
-2.0741507e-08
2.0280196e-06
-1.9266956e-08
2.1826498e-06
-1.7753244e-08
2.3259786e-06
-1.6176246e-08
2.4479835e-06
-1.4502195e-08
2.5347492e-06
-1.2682868e-08
2.5671172e-06
-1.0647147e-08
2.5188471e-06
-8.2831656e-09
2.3541245e-06
-5.4500977e-09
2.024121e-06
-2.2263728e-09
1.4626122e-06
5.8242915e-07
-3.0791697e-10
7.7129906e-09
-1.2879028e-09
2.3209795e-08
-3.0676475e-09
4.0615306e-08
-5.7192998e-09
5.9294082e-08
-9.2297256e-09
7.8718066e-08
-1.3481566e-08
9.8579892e-08
-1.8255178e-08
1.1887024e-07
-2.325458e-08
1.3989688e-07
-2.8152004e-08
1.6224357e-07
-3.2638673e-08
1.8668696e-07
-3.6469079e-08
2.1409645e-07
-3.9489002e-08
2.4534506e-07
-4.1643034e-08
2.8124401e-07
-4.2963463e-08
3.2250861e-07
-4.3546056e-08
3.6975512e-07
-4.352093e-08
4.2351479e-07
-4.3025311e-08
4.8426319e-07
-4.218396e-08
5.5244485e-07
-4.109828e-08
6.2849041e-07
-3.9843993e-08
7.128197e-07
-3.8473876e-08
8.0583191e-07
-3.7023117e-08
9.0787739e-07
-3.5514648e-08
1.0192168e-06
-3.3963714e-08
1.1399684e-06
-3.2380374e-08
1.2700334e-06
-3.0771154e-08
1.4090011e-06
-2.9139735e-08
1.5560234e-06
-2.7486559e-08
1.70964e-06
-2.5808602e-08
1.8675524e-06
-2.4098939e-08
2.0263099e-06
-2.2345392e-08
2.1808962e-06
-2.0529862e-08
2.324163e-06
-1.8626495e-08
2.4460802e-06
-1.6599552e-08
2.5327222e-06
-1.4397704e-08
2.5649155e-06
-1.1946909e-08
2.5163963e-06
-9.1373633e-09
2.3513148e-06
-5.85825e-09
2.0208419e-06
-2.3058767e-09
1.4590599e-06
5.8012319e-07
-2.8797387e-10
8.0009648e-09
-1.2108032e-09
2.4132623e-08
-2.9006461e-09
4.2305154e-08
-5.4461627e-09
6.1839593e-08
-8.8644956e-09
8.2136403e-08
-1.3079455e-08
1.0279485e-07
-1.7914998e-08
1.2370579e-07
-2.3109708e-08
1.4509158e-07
-2.8350406e-08
1.6748428e-07
-3.3317281e-08
1.9165384e-07
-3.7729195e-08
2.1850836e-07
-4.1379288e-08
2.4899516e-07
-4.4154268e-08
2.8401898e-07
-4.6035037e-08
3.2438939e-07
-4.7081614e-08
3.7080168e-07
-4.7407386e-08
4.2384058e-07
-4.7150776e-08
4.8400657e-07
-4.6449979e-08
5.5174405e-07
-4.5426012e-08
6.2746646e-07
-4.4174503e-08
7.1156816e-07
-4.2764831e-08
8.0442225e-07
-4.1244277e-08
9.0635685e-07
-3.9643525e-08
1.017616e-06
-3.7981886e-08
1.1383067e-06
-3.6271437e-08
1.2683229e-06
-3.4519212e-08
1.4072489e-06
-3.2728399e-08
1.5542327e-06
-3.0898879e-08
1.7078104e-06
-2.9026378e-08
1.86568e-06
-2.7102603e-08
2.0243861e-06
-2.5113878e-08
2.1789074e-06
-2.3039961e-08
2.3220892e-06
-2.0853051e-08
2.4438933e-06
-1.8514316e-08
2.5303834e-06
-1.5969581e-08
2.5623708e-06
-1.314128e-08
2.513568e-06
-9.9234305e-09
2.3480969e-06
-6.2390634e-09
2.0171576e-06
-2.3889019e-09
1.4552098e-06
5.7773416e-07
-2.703223e-10
8.2712867e-09
-1.1414305e-09
2.5003731e-08
-2.7469483e-09
4.3910672e-08
-5.1859626e-09
6.4278609e-08
-8.4971588e-09
8.5447598e-08
-1.2636105e-08
1.0693379e-07
-1.7463965e-08
1.2853365e-07
-2.2753758e-08
1.5038137e-07
-2.8214868e-08
1.7294539e-07
-3.3531094e-08
1.9697006e-07
-3.8403372e-08
2.2338064e-07
-4.2588243e-08
2.5318003e-07
-4.5924343e-08
2.8735508e-07
-4.8343109e-08
3.2680816e-07
-4.9863027e-08
3.723216e-07
-5.057067e-08
4.2454823e-07
-5.0594302e-08
4.8403019e-07
-5.0076625e-08
5.5122638e-07
-4.9152694e-08
6.2654253e-07
-4.7936033e-08
7.103515e-07
-4.6513273e-08
8.0299952e-07
-4.494561e-08
9.0478913e-07
-4.3273183e-08
1.0159436e-06
-4.1521265e-08
1.1365548e-06
-3.9704861e-08
1.2665066e-06
-3.7832227e-08
1.4053762e-06
-3.5906492e-08
1.5523069e-06
-3.3926669e-08
1.7058306e-06
-3.1887588e-08
1.8636409e-06
-2.9779249e-08
2.0222777e-06
-2.7586184e-08
2.1767143e-06
-2.5286125e-08
2.3197892e-06
-2.2848546e-08
2.4414557e-06
-2.0231472e-08
2.5277665e-06
-1.7377676e-08
2.5595169e-06
-1.4206813e-08
2.5103971e-06
-1.0618234e-08
2.3445084e-06
-6.5710858e-09
2.0131105e-06
-2.4600973e-09
1.4510987e-06
5.7527403e-07
-2.5469824e-10
8.5259872e-09
-1.0793237e-09
2.5828353e-08
-2.6072531e-09
4.5438603e-08
-4.9442891e-09
6.6615642e-08
-8.1447613e-09
8.8648078e-08
-1.2189016e-08
1.1097804e-07
-1.6969233e-08
1.3331387e-07
-2.229008e-08
1.5570222e-07
-2.7885931e-08
1.7854124e-07
-3.3452225e-08
2.0253636e-07
-3.8684211e-08
2.2861263e-07
-4.3315083e-08
2.5781089e-07
-4.714645e-08
2.9118647e-07
-5.0066173e-08
3.2972786e-07
-5.2050847e-08
3.7430629e-07
-5.3154572e-08
4.2565195e-07
-5.3486923e-08
4.8436253e-07
-5.3186417e-08
5.5092589e-07
-5.2395671e-08
6.2575176e-07
-5.1242458e-08
7.0919831e-07
-4.9829866e-08
8.015869e-07
-4.8233563e-08
9.0319283e-07
-4.650507e-08
1.0142151e-06
-4.4677053e-08
1.1347268e-06
-4.2768763e-08
1.2645983e-06
-4.0790297e-08
1.4033978e-06
-3.8745402e-08
1.550262e-06
-3.6632561e-08
1.7037178e-06
-3.4445544e-08
1.8614539e-06
-3.2173103e-08
2.0200052e-06
-2.9797669e-08
2.1743389e-06
-2.7295034e-08
2.3172865e-06
-2.463182e-08
2.4387925e-06
-2.176326e-08
2.524898e-06
-1.862858e-08
2.5563822e-06
-1.5145707e-08
2.5069143e-06
-1.1221617e-08
2.3405842e-06
-6.8519749e-09
2.0087412e-06
-2.5161707e-09
1.4467629e-06
5.7275778e-07
-2.4086348e-10
8.7668506e-09
-1.0237871e-09
2.6611276e-08
-2.4809059e-09
4.6895725e-08
-4.7222745e-09
6.8857008e-08
-7.8138345e-09
9.1739639e-08
-1.1755445e-08
1.1491964e-07
-1.646516e-08
1.3802359e-07
-2.1775784e-08
1.6101284e-07
-2.7446515e-08
1.8421197e-07
-3.3188464e-08
2.0827831e-07
-3.8698965e-08
2.3412313e-07
-4.3698025e-08
2.6280994e-07
-4.796026e-08
2.954487e-07
-5.1337153e-08
3.3310476e-07
-5.3766418e-08
3.7673556e-07
-5.5267663e-08
4.2715321e-07
-5.5926221e-08
4.8502107e-07
-5.5869214e-08
5.508689e-07
-5.5240133e-08
6.2512267e-07
-5.4176616e-08
7.0813477e-07
-5.2795816e-08
8.0020612e-07
-5.1188081e-08
9.0158509e-07
-4.9417074e-08
1.0124441e-06
-4.7524315e-08
1.132834e-06
-4.553445e-08
1.2626084e-06
-4.346057e-08
1.4013239e-06
-4.130747e-08
1.5481089e-06
-3.9073552e-08
1.7014839e-06
-3.6751851e-08
1.8591322e-06
-3.4329674e-08
2.017583e-06
-3.1787926e-08
2.1717972e-06
-2.9100279e-08
2.3145987e-06
-2.6230688e-08
2.435923e-06
-2.3131758e-08
2.521799e-06
-1.9739541e-08
2.5529899e-06
-1.5971011e-08
2.5031457e-06
-1.1741983e-08
2.3363553e-06
-7.0866386e-09
2.0040856e-06
-2.5585368e-09
1.442235e-06
5.701991e-07
-2.2856295e-10
8.995414e-09
-9.7402911e-10
2.7356741e-08
-2.3666797e-09
4.8288375e-08
-4.519131e-09
7.1009462e-08
-7.5060483e-09
9.4726553e-08
-1.1342882e-08
1.1875648e-07
-1.5969311e-08
1.4265002e-07
-2.1242908e-08
1.6628644e-07
-2.6946374e-08
1.8991544e-07
-3.2808166e-08
2.141401e-07
-3.8532553e-08
2.3984751e-07
-4.3833634e-08
2.6811102e-07
-4.8467252e-08
3.0008232e-07
-5.2255854e-08
3.3689336e-07
-5.5102713e-08
3.7958242e-07
-5.6993665e-08
4.2904415e-07
-5.7986709e-08
4.8601413e-07
-5.8192341e-08
5.5107452e-07
-5.7748884e-08
6.2467921e-07
-5.6798867e-08
7.0718476e-07
-5.5470716e-08
7.9887796e-07
-5.3868198e-08
8.9998259e-07
-5.2067623e-08
1.0106436e-06
-5.012032e-08
1.1308867e-06
-4.8057646e-08
1.2605457e-06
-4.5896488e-08
1.3991627e-06
-4.3643412e-08
1.5458558e-06
-4.1297299e-08
1.6991378e-06
-3.8850646e-08
1.8566856e-06
-3.6289663e-08
2.015022e-06
-3.3593727e-08
2.1691013e-06
-3.0734439e-08
2.3117395e-06
-2.7673775e-08
2.4328623e-06
-2.4361229e-08
2.5184864e-06
-2.0730483e-08
2.5493592e-06
-1.6698526e-08
2.4991138e-06
-1.219202e-08
2.3318489e-06
-7.2820423e-09
1.9991755e-06
-2.5897711e-09
1.437543e-06
5.6760919e-07
-2.1758482e-10
9.2129981e-09
-9.2931376e-10
2.8068472e-08
-2.2632504e-09
4.9622309e-08
-4.3334183e-09
7.3079628e-08
-7.221035e-09
9.7614173e-08
-1.0954165e-08
1.2248961e-07
-1.549067e-08
1.4718653e-07
-2.0709833e-08
1.715056e-07
-2.6416148e-08
1.9562176e-07
-3.2355781e-08
2.2007973e-07
-3.8242764e-08
2.457345e-07
-4.3790416e-08
2.7365868e-07
-4.8742329e-08
3.0503422e-07
-5.289841e-08
3.4104944e-07
-5.6132469e-08
3.828165e-07
-5.8398857e-08
4.3131053e-07
-5.9727392e-08
4.8734266e-07
-6.0208205e-08
5.5155535e-07
-5.9969669e-08
6.2444069e-07
-5.9154459e-08
7.0636953e-07
-5.7898676e-08
7.9762217e-07
-5.6317859e-08
8.9840177e-07
-5.4500558e-08
1.0088263e-06
-5.2508661e-08
1.1288948e-06
-5.0381181e-08
1.2584182e-06
-4.813977e-08
1.3969213e-06
-4.5793598e-08
1.5435096e-06
-4.334232e-08
1.6966866e-06
-4.077835e-08
1.8541216e-06
-3.808707e-08
2.0123307e-06
-3.524642e-08
2.1662607e-06
-3.2226345e-08
2.3087194e-06
-2.8986537e-08
2.4296225e-06
-2.5474161e-08
2.514974e-06
-2.1620745e-08
2.5455057e-06
-1.7344335e-08
2.4948375e-06
-1.2583615e-08
2.3270881e-06
-7.4457195e-09
1.9940377e-06
-2.612869e-09
1.4327101e-06
5.6499642e-07
-2.077406e-10
9.4207377e-09
-8.8898631e-10
2.874972e-08
-2.1693687e-09
5.090269e-08
-4.1634851e-09
7.5073743e-08
-6.9575176e-09
1.0040821e-07
-1.0589771e-08
1.2612186e-07
-1.5033513e-08
1.5163027e-07
-2.0187088e-08
1.7665917e-07
-2.5874935e-08
2.0130961e-07
-3.1860596e-08
2.2606538e-07
-3.7869486e-08
2.5174339e-07
-4.3617605e-08
2.794068e-07
-4.8841249e-08
3.1025786e-07
-5.3323364e-08
3.4553156e-07
-5.691322e-08
3.8640635e-07
-5.9536697e-08
4.33934e-07
-6.1195987e-08
4.8900195e-07
-6.1958936e-08
5.523183e-07
-6.1940173e-08
6.2442191e-07
-6.1278153e-08
7.0570752e-07
-6.0113138e-08
7.9645715e-07
-5.8570103e-08
8.9685873e-07
-5.6749053e-08
1.0070053e-06
-5.4722555e-08
1.1268683e-06
-5.2538036e-08
1.2562337e-06
-5.0222938e-08
1.3946062e-06
-4.7789548e-08
1.5410762e-06
-4.5239174e-08
1.6941361e-06
-4.2564168e-08
1.8514466e-06
-3.9749454e-08
2.009516e-06
-3.6771901e-08
2.1632832e-06
-3.3599777e-08
2.3055472e-06
-3.0190674e-08
2.4262135e-06
-2.6489905e-08
2.5112732e-06
-2.2427047e-08
2.541443e-06
-1.792239e-08
2.4903328e-06
-1.292733e-08
2.3220931e-06
-7.5848548e-09
1.9886952e-06
-2.6298348e-09
1.4277552e-06
5.6236646e-07
-1.988711e-10
9.6196098e-09
-8.5247663e-10
2.9403325e-08
-2.0839052e-09
5.2134118e-08
-4.0077314e-09
7.6997568e-08
-6.7138636e-09
1.0311434e-07
-1.0249006e-08
1.29657e-07
-1.4599552e-08
1.5598081e-07
-1.9680579e-08
1.817402e-07
-2.5334738e-08
2.0696377e-07
-3.1342213e-08
2.3207286e-07
-3.7440579e-08
2.5784176e-07
-4.3350918e-08
2.8531713e-07
-4.8805926e-08
3.1571289e-07
-5.3576183e-08
3.5030181e-07
-5.7490834e-08
3.9032101e-07
-6.0450728e-08
4.368939e-07
-6.2431905e-08
4.9098314e-07
-6.3479176e-08
5.5336556e-07
-6.3690741e-08
6.2463352e-07
-6.3197435e-08
7.0521417e-07
-6.2139932e-08
7.9539968e-07
-6.0650182e-08
8.9536899e-07
-5.8838364e-08
1.0051934e-06
-5.6787387e-08
1.1248173e-06
-5.4553755e-08
1.2540001e-06
-5.2171226e-08
1.3922237e-06
-4.9656117e-08
1.5385611e-06
-4.7011812e-08
1.6914918e-06
-4.4231284e-08
1.8486661e-06
-4.129902e-08
2.0065837e-06
-3.8191057e-08
2.1601752e-06
-3.487409e-08
2.3022303e-06
-3.1304188e-08
2.4226436e-06
-2.7424327e-08
2.5073934e-06
-2.3163629e-08
2.5371822e-06
-1.8444412e-08
2.4856137e-06
-1.3232425e-08
2.3168811e-06
-7.7047478e-09
1.9831674e-06
-2.642928e-09
1.4226938e-06
5.5972343e-07
-1.9084794e-10
9.8104583e-09
-8.1929265e-10
3.003177e-08
-2.0058541e-09
5.332068e-08
-3.8646497e-09
7.8856361e-08
-6.4883639e-09
1.0573806e-07
-9.9306184e-09
1.3309925e-07
-1.4189011e-08
1.6023921e-07
-1.9193445e-08
1.8674463e-07
-2.480304e-08
2.1257337e-07
-3.0813839e-08
2.3808365e-07
-3.6975767e-08
2.6400369e-07
-4.3016541e-08
2.9135791e-07
-4.8668151e-08
3.2136449e-07
-5.3692349e-08
3.55326e-07
-5.7902152e-08
3.9453082e-07
-6.1176783e-08
4.4016851e-07
-6.3468061e-08
4.9327444e-07
-6.4797988e-08
5.5469548e-07
-6.5246803e-08
6.2508234e-07
-6.4934617e-08
7.0490197e-07
-6.3999613e-08
7.944647e-07
-6.2577903e-08
8.9394724e-07
-6.0787982e-08
1.0034036e-06
-5.8722874e-08
1.1227522e-06
-5.6448046e-08
1.2517253e-06
-5.4004358e-08
1.38978e-06
-5.1412892e-08
1.5359696e-06
-4.8679408e-08
1.6887583e-06
-4.5798163e-08
1.8457848e-06
-4.2753436e-08
2.003539e-06
-3.9520503e-08
2.1569423e-06
-3.606502e-08
2.2987747e-06
-3.2341329e-08
2.4189198e-06
-2.8290715e-08
2.5033429e-06
-2.3841667e-08
2.5327331e-06
-1.8920056e-08
2.4806922e-06
-1.3506168e-08
2.3114671e-06
-7.809483e-09
1.9774705e-06
-2.6533692e-09
1.4175379e-06
5.5706991e-07
-1.8355683e-10
9.9940154e-09
-7.8901783e-10
3.0637229e-08
-1.9343448e-09
5.4466008e-08
-3.732881e-09
8.0654897e-08
-6.2793601e-09
1.0828454e-07
-9.633088e-09
1.3645298e-07
-1.380135e-08
1.6440747e-07
-1.8727078e-08
1.9167036e-07
-2.4284474e-08
2.1813076e-07
-3.028437e-08
2.4408356e-07
-3.6489085e-08
2.7020839e-07
-4.2633909e-08
2.9750274e-07
-4.8452147e-08
3.2718273e-07
-5.3699757e-08
3.6057361e-07
-5.8176952e-08
3.9900802e-07
-6.1744391e-08
4.4373596e-07
-6.4332156e-08
4.9586219e-07
-6.5940107e-08
5.5630343e-07
-6.6629699e-08
6.2577197e-07
-6.6508376e-08
7.0478062e-07
-6.5708861e-08
7.9366519e-07
-6.4368733e-08
8.9260716e-07
-6.2613311e-08
1.0016481e-06
-6.0544343e-08
1.1206833e-06
-5.823644e-08
1.2494174e-06
-5.5737923e-08
1.3872816e-06
-5.3075203e-08
1.5333069e-06
-5.0257111e-08
1.6859403e-06
-4.727946e-08
1.8428071e-06
-4.4126756e-08
2.0003864e-06
-4.0773895e-08
2.1535894e-06
-3.7185138e-08
2.295186e-06
-3.3313705e-08
2.4150483e-06
-2.9099414e-08
2.4991286e-06
-2.4470469e-08
2.5281041e-06
-1.9357173e-08
2.4755788e-06
-1.3754131e-08
2.3058642e-06
-7.9025046e-09
1.9716186e-06
-2.6620201e-09
1.4122978e-06
5.5440772e-07
-1.7690248e-10
1.0170919e-08
-7.6129043e-10
3.1221617e-08
-1.868615e-09
5.5573331e-08
-3.6112147e-09
8.2397497e-08
-6.0852838e-09
1.1075861e-07
-9.3548506e-09
1.3972254e-07
-1.3435533e-08
1.6848815e-07
-1.8281881e-08
1.965167e-07
-2.3781717e-08
2.2363061e-07
-2.975984e-08
2.5006167e-07
-3.5990563e-08
2.7643912e-07
-4.2217439e-08
3.0372962e-07
-4.8176607e-08
3.3314188e-07
-5.362048e-08
3.6601749e-07
-5.8339353e-08
4.037269e-07
-6.2178252e-08
4.4757485e-07
-6.5047653e-08
4.9873161e-07
-6.6926725e-08
5.5818249e-07
-6.7857987e-08
6.2670322e-07
-6.7934525e-08
7.0485716e-07
-6.7281506e-08
7.9301215e-07
-6.6035546e-08
8.9136121e-07
-6.4326428e-08
9.9993898e-07
-6.2263916e-08
1.1186207e-06
-5.9931202e-08
1.2470846e-06
-5.7384301e-08
1.3847347e-06
-5.4655335e-08
1.5305779e-06
-5.1757056e-08
1.683042e-06
-4.8686954e-08
1.8397371e-06
-4.5430419e-08
1.9971298e-06
-4.1961822e-08
2.1501207e-06
-3.8244566e-08
2.2914688e-06
-3.4230672e-08
2.4110344e-06
-2.9858875e-08
2.4947569e-06
-2.5057542e-08
2.5233027e-06
-1.9761655e-08
2.470283e-06
-1.3981188e-08
2.3000837e-06
-7.9862085e-09
1.9656236e-06
-2.6697729e-09
1.4069812e-06
5.5173795e-07
-1.7080721e-10
1.0341725e-08
-7.3580945e-10
3.1786619e-08
-1.8080031e-09
5.6645526e-08
-3.4985776e-09
8.4088072e-08
-5.9047181e-09
1.1316475e-07
-9.0943602e-09
1.4291218e-07
-1.3090365e-08
1.7248416e-07
-1.7857574e-08
2.0128392e-07
-2.3296287e-08
2.2906931e-07
-2.924424e-08
2.5600962e-07
-3.5487449e-08
2.8268233e-07
-4.1778014e-08
3.1002019e-07
-4.7855959e-08
3.3921983e-07
-5.3472075e-08
3.716336e-07
-5.8409035e-08
4.0866386e-07
-6.2498808e-08
4.5166462e-07
-6.5634622e-08
5.0186742e-07
-6.7776258e-08
5.6032414e-07
-6.8947694e-08
6.2787465e-07
-6.9226862e-08
7.0513633e-07
-6.8729364e-08
7.9251466e-07
-6.7588784e-08
8.9022059e-07
-6.5937319e-08
9.9828756e-07
-6.3891328e-08
1.1165747e-06
-6.1542057e-08
1.2447353e-06
-5.895329e-08
1.3821459e-06
-5.6163275e-08
1.5277879e-06
-5.3188983e-08
1.6800677e-06
-5.0030324e-08
1.8365784e-06
-4.6673551e-08
1.993773e-06
-4.3092958e-08
2.1465402e-06
-3.9251529e-08
2.2876274e-06
-3.5099809e-08
2.4068827e-06
-3.0575998e-08
2.490233e-06
-2.5608767e-08
2.5183355e-06
-2.0138632e-08
2.4648129e-06
-1.4190691e-08
2.2941358e-06
-8.0628806e-09
1.9594957e-06
-2.6766008e-09
1.401595e-06
5.4906148e-07
-1.6520046e-10
1.0506926e-08
-7.1230884e-10
3.2333728e-08
-1.7519454e-09
5.7685162e-08
-3.3940323e-09
8.5730157e-08
-5.7363734e-09
1.1550709e-07
-8.8501608e-09
1.4602597e-07
-1.2764534e-08
1.7639853e-07
-1.745355e-08
2.0597293e-07
-2.2828821e-08
2.3444459e-07
-2.8740206e-08
2.6192101e-07
-3.4984938e-08
2.8892706e-07
-4.1323789e-08
3.1635903e-07
-4.7501473e-08
3.4539752e-07
-5.3268578e-08
3.774007e-07
-5.8402141e-08
4.1379743e-07
-6.2723274e-08
4.5598576e-07
-6.6110107e-08
5.0525424e-07
-6.8504708e-08
5.6271873e-07
-6.9913033e-08
6.2928298e-07
-7.0397494e-08
7.056208e-07
-7.0062768e-08
7.9217993e-07
-6.9037307e-08
8.8919513e-07
-6.7454143e-08
9.9670439e-07
-6.5434465e-08
1.1145551e-06
-6.3076909e-08
1.2423778e-06
-6.0452823e-08
1.3795218e-06
-5.7606895e-08
1.524942e-06
-5.4560806e-08
1.6770216e-06
-5.1317158e-08
1.8333348e-06
-4.7863666e-08
1.9903194e-06
-4.4174667e-08
2.1428512e-06
-4.0212585e-08
2.2836653e-06
-3.5927343e-08
2.4025974e-06
-3.1256254e-08
2.4855618e-06
-2.6129089e-08
2.5132084e-06
-2.0492086e-08
2.459176e-06
-1.4385679e-08
2.2880292e-06
-8.1334647e-09
1.9532436e-06
-2.6830022e-09
1.3961444e-06
5.4637845e-07
-1.6002641e-10
1.0666952e-08
-6.9057091e-10
3.2864271e-08
-1.6999442e-09
5.8694539e-08
-3.2967388e-09
8.7326952e-08
-5.5790975e-09
1.1778945e-07
-8.6208782e-09
1.4906775e-07
-1.2456737e-08
1.8023438e-07
-1.7068925e-08
2.1058514e-07
-2.2379442e-08
2.3975509e-07
-2.8249385e-08
2.6779095e-07
-3.4486733e-08
2.9516442e-07
-4.0860923e-08
3.2273321e-07
-4.7121942e-08
3.5165854e-07
-5.3021256e-08
3.8330001e-07
-5.8331905e-08
4.1910808e-07
-6.2866112e-08
4.6051997e-07
-6.6488811e-08
5.0887695e-07
-6.9125989e-08
5.6535588e-07
-7.0766499e-08
6.3092351e-07
-7.1457143e-08
7.0631147e-07
-7.129071e-08
7.9201348e-07
-7.0388919e-08
8.8829335e-07
-6.8883724e-08
9.9519918e-07
-6.6899815e-08
1.1125712e-06
-6.4542176e-08
1.2400201e-06
-6.1889457e-08
1.3768691e-06
-5.8992856e-08
1.5220455e-06
-5.5879086e-08
1.6739078e-06
-5.2554017e-08
1.8300097e-06
-4.9006872e-08
1.9867723e-06
-4.5212615e-08
2.139057e-06
-4.1133409e-08
2.2795861e-06
-3.6718301e-08
2.3981823e-06
-3.1904212e-08
2.4807478e-06
-2.6622456e-08
2.5079267e-06
-2.0825381e-08
2.4533789e-06
-1.4568083e-08
2.281772e-06
-8.1996293e-09
1.946875e-06
-2.6892078e-09
1.390634e-06
5.436894e-07
-1.5523605e-10
1.0822188e-08
-6.7039272e-10
3.3379428e-08
-1.6515728e-09
5.9675722e-08
-3.2059795e-09
8.8881359e-08
-5.4318502e-09
1.2001532e-07
-8.4052848e-09
1.5204119e-07
-1.2165698e-08
1.839948e-07
-1.6702774e-08
2.1512221e-07
-2.1947902e-08
2.4500022e-07
-2.7772748e-08
2.736158e-07
-3.3995509e-08
3.0138717e-07
-4.0394136e-08
3.2913185e-07
-4.672429e-08
3.5798871e-07
-5.2739219e-08
3.8931492e-07
-5.8209284e-08
4.2457815e-07
-6.2939482e-08
4.6525017e-07
-6.6783358e-08
5.1272082e-07
-6.965233e-08
5.6822484e-07
-7.1519249e-08
6.3279044e-07
-7.2415534e-08
7.0720772e-07
-7.2421297e-08
7.9201927e-07
-7.1650381e-08
8.8752245e-07
-7.0231987e-08
9.9378076e-07
-6.8292777e-08
1.110632e-06
-6.5943164e-08
1.2376705e-06
-6.3268409e-08
1.3741944e-06
-6.0326465e-08
1.5191035e-06
-5.7149162e-08
1.6707305e-06
-5.3746066e-08
1.8266066e-06
-5.01084e-08
1.9831346e-06
-4.6211839e-08
2.1351605e-06
-4.2018541e-08
2.2753927e-06
-3.7476813e-08
2.3936406e-06
-3.2523767e-08
2.4757947e-06
-2.7092273e-08
2.5024951e-06
-2.1141044e-08
2.4474277e-06
-1.4740226e-08
2.2753712e-06
-8.2616901e-09
1.9403965e-06
-2.6950596e-09
1.3850675e-06
5.4099432e-07
-1.5078684e-10
1.0972973e-08
-6.5161375e-10
3.3880257e-08
-1.6064592e-09
6.0630567e-08
-3.1211151e-09
9.0396013e-08
-5.2937229e-09
1.2218793e-07
-8.2022245e-09
1.5494968e-07
-1.1890227e-08
1.8768281e-07
-1.635406e-08
2.1958603e-07
-2.153377e-08
2.5017993e-07
-2.7310795e-08
2.7939283e-07
-3.351307e-08
3.0758945e-07
-3.9926964e-08
3.3554574e-07
-4.6313989e-08
3.6437573e-07
-5.2429833e-08
3.9543077e-07
-5.8043334e-08
4.3019165e-07
-6.2953662e-08
4.7016051e-07
-6.7004606e-08
5.1677175e-07
-7.009446e-08
5.7131471e-07
-7.2181205e-08
6.3487717e-07
-7.3281222e-08
7.0830774e-07
-7.3461806e-08
7.9219987e-07
-7.2827768e-08
8.8688839e-07
-7.1504071e-08
9.9245704e-07
-6.9618012e-08
1.108746e-06
-6.7284195e-08
1.2353367e-06
-6.4594192e-08
1.3715043e-06
-6.161218e-08
1.5161215e-06
-5.8375593e-08
1.6674938e-06
-5.4897815e-08
1.8231288e-06
-5.117246e-08
1.9794093e-06
-4.7176486e-08
2.1311645e-06
-4.2871682e-08
2.2710879e-06
-3.8206605e-08
2.3889755e-06
-3.3118119e-08
2.4707062e-06
-2.7541162e-08
2.4969182e-06
-2.1441315e-08
2.4413279e-06
-1.4903192e-08
2.2688331e-06
-8.3204914e-09
1.9338139e-06
-2.7009127e-09
1.379448e-06
5.3829324e-07
-1.4664028e-10
1.1119614e-08
-6.3409079e-10
3.4367707e-08
-1.564278e-09
6.1560753e-08
-3.0415771e-09
9.187331e-08
-5.1638881e-09
1.2431024e-07
-8.0106577e-09
1.5779645e-07
-1.1629193e-08
1.9130135e-07
-1.6021778e-08
2.2397862e-07
-2.1136406e-08
2.5529456e-07
-2.6863663e-08
2.8512008e-07
-3.30407e-08
3.137665e-07
-3.946209e-08
3.4196712e-07
-4.5895346e-08
3.7080898e-07
-5.2099108e-08
4.0163454e-07
-5.7841594e-08
4.3593414e-07
-6.2917436e-08
4.7523634e-07
-6.716194e-08
5.2101626e-07
-7.0461838e-08
5.746146e-07
-7.2761229e-08
6.3717657e-07
-7.4062137e-08
7.0960868e-07
-7.4418966e-08
7.9255665e-07
-7.3926528e-08
8.8639598e-07
-7.2704523e-08
9.9123503e-07
-7.0879521e-08
1.106921e-06
-6.8569093e-08
1.2330263e-06
-6.5870396e-08
1.3688056e-06
-6.2853669e-08
1.5131049e-06
-5.9561992e-08
1.6642021e-06
-5.6012936e-08
1.8195798e-06
-5.2202892e-08
1.9755992e-06
-4.8109806e-08
2.1270714e-06
-4.369633e-08
2.2666744e-06
-3.8910507e-08
2.3841898e-06
-3.3689885e-08
2.4654855e-06
-2.7971565e-08
2.4911999e-06
-2.1728036e-08
2.4350844e-06
-1.5058303e-08
2.2621634e-06
-8.376756e-09
1.9271322e-06
-2.7070264e-09
1.3737782e-06
5.3558612e-07
-1.4276709e-10
1.1262382e-08
-6.1769483e-10
3.4842634e-08
-1.5247379e-09
6.2467799e-08
-2.9668653e-09
9.3315435e-08
-5.0416143e-09
1.2638499e-07
-7.8296533e-09
1.6058449e-07
-1.1381533e-08
1.9485322e-07
-1.5704931e-08
2.2830201e-07
-2.0755144e-08
2.6034477e-07
-2.6431266e-08
2.907962e-07
-3.2579236e-08
3.1991447e-07
-3.9001527e-08
3.4838941e-07
-4.5471748e-08
3.772792e-07
-5.1751929e-08
4.0791473e-07
-5.7610366e-08
4.4179258e-07
-6.2838168e-08
4.8046413e-07
-6.726353e-08
5.2544161e-07
-7.0762751e-08
5.7811384e-07
-7.3267281e-08
6.396811e-07
-7.4765494e-08
7.1110687e-07
-7.5298745e-08
7.9308991e-07
-7.4951692e-08
8.8604892e-07
-7.3837484e-08
9.9012084e-07
-7.2080759e-08
1.1051642e-06
-6.9801068e-08
1.2307466e-06
-6.7100094e-08
1.3661046e-06
-6.4054158e-08
1.5100589e-06
-6.0711626e-08
1.6608596e-06
-5.7094666e-08
1.8159629e-06
-5.3202579e-08
1.9717071e-06
-4.9015028e-08
2.1228839e-06
-4.4495089e-08
2.2621545e-06
-3.9591326e-08
2.3792859e-06
-3.4241424e-08
2.4601357e-06
-2.8385414e-08
2.4853439e-06
-2.2002858e-08
2.4287018e-06
-1.520663e-08
2.2553673e-06
-8.4306169e-09
1.9203561e-06
-2.713031e-09
1.3680605e-06
5.3287329e-07
-1.3914226e-10
1.1401524e-08
-6.0231729e-10
3.5305809e-08
-1.4876008e-09
6.3353082e-08
-2.896551e-09
9.4724384e-08
-4.9262497e-09
1.2841469e-07
-7.6583686e-09
1.633166e-07
-1.1146286e-08
1.9834115e-07
-1.5402588e-08
2.3255831e-07
-2.0389266e-08
2.6533145e-07
-2.6013373e-08
2.9642031e-07
-3.2129156e-08
3.2603026e-07
-3.8546775e-08
3.5480703e-07
-4.5045909e-08
3.8377834e-07
-5.1392316e-08
4.1426112e-07
-5.7354911e-08
4.4775518e-07
-6.2722196e-08
4.8583143e-07
-6.7316357e-08
5.3003576e-07
-7.1004531e-08
5.8180201e-07
-7.3706483e-08
6.4238305e-07
-7.5397648e-08
7.1279804e-07
-7.6106776e-08
7.9379905e-07
-7.5907814e-08
8.8584997e-07
-7.4906693e-08
9.891197e-07
-7.322486e-08
1.1034824e-06
-7.0982779e-08
1.2285045e-06
-6.8286004e-08
1.3634079e-06
-6.5216153e-08
1.506989e-06
-6.1827112e-08
1.6574706e-06
-5.8145644e-08
1.8122814e-06
-5.4174226e-08
1.9677357e-06
-4.9894578e-08
2.1186042e-06
-4.5270592e-08
2.2575305e-06
-4.0250987e-08
2.3742664e-06
-3.4774702e-08
2.4546594e-06
-2.8784487e-08
2.4793536e-06
-2.2267026e-08
2.4221845e-06
-1.534915e-08
2.2484495e-06
-8.4826509e-09
1.9134895e-06
-2.718825e-09
1.3622968e-06
5.3015428e-07
-1.3573904e-10
1.1537262e-08
-5.8786241e-10
3.5757933e-08
-1.4526401e-09
6.4217859e-08
-2.8302389e-09
9.6101986e-08
-4.81722e-09
1.3040167e-07
-7.496021e-09
1.6599541e-07
-1.0922565e-08
2.0176769e-07
-1.5113838e-08
2.3674958e-07
-2.0038029e-08
2.7025564e-07
-2.5609612e-08
3.0199189e-07
-3.1690732e-08
3.3211138e-07
-3.8098954e-08
3.6121525e-07
-4.4620003e-08
3.9029939e-07
-5.1023506e-08
4.2066462e-07
-5.707963e-08
4.5381131e-07
-6.2574981e-08
4.9132677e-07
-6.7326635e-08
5.3478742e-07
-7.1193668e-08
5.8566904e-07
-7.4085214e-08
6.4527461e-07
-7.5964583e-08
7.1467741e-07
-7.6848229e-08
7.9468269e-07
-7.6799253e-08
8.8580098e-07
-7.5915591e-08
9.8823605e-07
-7.4314684e-08
1.1018815e-06
-7.2116705e-08