/*--------------------------------*- C++ -*----------------------------------*\
| =========                 |                                                 |
| \\      /  F ield         | OpenFOAM: The Open Source CFD Toolbox           |
|  \\    /   O peration     | Version:  3.0.1                                 |
|   \\  /    A nd           | Web:      www.OpenFOAM.org                      |
|    \\/     M anipulation  |                                                 |
\*---------------------------------------------------------------------------*/
FoamFile
{
    version     2.0;
    format      ascii;
    class       volScalarField;
    location    "9000/fluid";
    object      Qin;
}
// * * * * * * * * * * * * * * * * * * * * * * * * * * * * * * * * * * * * * //

dimensions      [1 0 -3 0 0 0 0];

internalField   uniform 0;

boundaryField
{
    LeftWedge
    {
        type            wedge;
    }
    RightWedge
    {
        type            wedge;
    }
    Inlet
    {
        type            calculated;
        value           uniform 0;
    }
    Outlet
    {
        type            calculated;
        value           nonuniform List<scalar> 
40
(
7.3778611e-30
7.3778611e-30
7.3778611e-30
7.3778611e-30
7.3778611e-30
7.3778611e-30
7.3778611e-30
7.3778611e-30
7.3778611e-30
7.3778611e-30
7.3778611e-30
7.3778611e-30
7.3778611e-30
7.3778611e-30
7.3778611e-30
7.3778611e-30
7.3778611e-30
7.3778611e-30
7.3778611e-30
7.3778611e-30
7.3778611e-30
7.3778611e-30
7.3778611e-30
7.3778611e-30
7.3778611e-30
7.3778611e-30
7.3778611e-30
7.3778611e-30
7.3778611e-30
7.3778611e-30
7.3778611e-30
7.3778611e-30
7.3778611e-30
7.3778611e-30
7.3778611e-30
7.3778611e-30
7.3778611e-30
7.3778611e-30
7.3778611e-30
7.3778611e-30
)
;
    }
    Outterwall
    {
        type            calculated;
        value           nonuniform List<scalar> 
100
(
513.53477
517.1307
520.99566
524.55829
527.69729
530.42032
532.77377
534.81171
536.58493
538.13755
539.50653
540.7223
541.80973
542.78905
543.67678
544.48638
545.22891
545.91349
546.54764
547.13766
547.6888
548.20549
548.6915
549.15002
549.5838
549.99522
550.38631
550.75888
551.1145
551.45453
551.78022
552.09263
552.39275
552.68144
552.95948
553.22757
553.48636
553.73643
553.97829
554.21244
554.43932
554.65933
554.87284
555.08019
555.28172
555.4777
555.66842
555.85413
556.03506
556.21144
556.38346
556.55133
556.71522
556.8753
557.03173
557.18467
557.33424
557.48058
557.62383
557.76409
557.90147
558.03609
558.16804
558.29742
558.42432
558.54882
558.67101
558.79096
558.90874
559.02443
559.1381
559.2498
559.3596
559.46755
559.57372
559.67816
559.78092
559.88204
559.98158
560.07958
560.1761
560.27117
560.36486
560.45721
560.54828
560.63816
560.72694
560.81476
560.90181
560.98837
561.07489
561.16201
561.25074
561.34261
561.43985
561.5455
561.66299
561.79285
561.93018
562.02989
)
;
    }
    fluid_to_solid
    {
        type            calculated;
        value           nonuniform List<scalar> 
100
(
421.91928
421.91843
421.91758
421.91673
421.91589
421.91504
421.9142
421.91336
421.91252
421.91168
421.91084
421.91
421.90915
421.90831
421.90747
421.90663
421.90579
421.90495
421.90411
421.90327
421.90243
421.9016
421.90076
421.89992
421.89908
421.89824
421.8974
421.89656
421.89572
421.89488
421.89404
421.8932
421.89236
421.89152
421.89068
421.88984
421.88901
421.88817
421.88733
421.88649
421.88565
421.88481
421.88398
421.88314
421.8823
421.88147
421.88063
421.8798
421.87896
421.87813
421.87729
421.87646
421.87563
421.8748
421.87397
421.87314
421.87232
421.8715
421.87067
421.86985
421.86904
421.86822
421.86741
421.8666
421.8658
421.865
421.8642
421.86341
421.86262
421.86183
421.86105
421.86028
421.85951
421.85875
421.85799
421.85724
421.8565
421.85576
421.85504
421.85432
421.85361
421.85291
421.85222
421.85154
421.85087
421.85021
421.84956
421.84892
421.8483
421.84769
421.84709
421.84651
421.84594
421.84538
421.84484
421.84432
421.84381
421.84333
421.84287
421.84249
)
;
    }
}


// ************************************************************************* //
