/*--------------------------------*- C++ -*----------------------------------*\
| =========                 |                                                 |
| \\      /  F ield         | OpenFOAM: The Open Source CFD Toolbox           |
|  \\    /   O peration     | Version:  3.0.1                                 |
|   \\  /    A nd           | Web:      www.OpenFOAM.org                      |
|    \\/     M anipulation  |                                                 |
\*---------------------------------------------------------------------------*/
FoamFile
{
    version     2.0;
    format      ascii;
    class       volScalarField;
    location    "3500/fluid";
    object      Qin;
}
// * * * * * * * * * * * * * * * * * * * * * * * * * * * * * * * * * * * * * //

dimensions      [1 0 -3 0 0 0 0];

internalField   uniform 0;

boundaryField
{
    Outterwall
    {
        type            calculated;
        value           nonuniform List<scalar> 
100
(
438.53174
463.05484
481.40848
495.18829
505.59734
513.5517
519.70954
524.55192
528.42017
531.56207
534.15514
536.32923
538.17902
539.77478
541.16882
542.40069
543.50051
544.49151
545.39179
546.21561
546.97431
547.67703
548.33117
548.94281
549.51697
550.05786
550.56901
551.05344
551.51372
551.95209
552.37047
552.77056
553.15383
553.5216
553.87502
554.21514
554.54287
554.85906
555.16444
555.45972
555.7455
556.02235
556.2908
556.55131
556.80433
557.05025
557.28944
557.52225
557.749
557.96998
558.18545
558.39569
558.60092
558.80137
558.99725
559.18874
559.37604
559.55931
559.73872
559.91442
560.08655
560.25524
560.42063
560.58283
560.74195
560.89811
561.05141
561.20195
561.34981
561.49509
561.63787
561.77823
561.91624
562.05199
562.18553
562.31695
562.44629
562.57362
562.69901
562.8225
562.94415
563.06403
563.18218
563.29865
563.41352
563.52684
563.63868
563.74915
563.85836
563.96647
564.07373
564.18049
564.28728
564.39488
564.50452
564.61803
564.73816
564.86876
565.01298
565.15875
)
;
    }
    symmetryleft
    {
        type            symmetry;
    }
    symmetryrigt
    {
        type            symmetry;
    }
    Outlet
    {
        type            calculated;
        value           nonuniform List<scalar> 
50
(
7.4053129e-30
7.4053129e-30
7.4053129e-30
7.4053129e-30
7.4053129e-30
7.4053129e-30
7.4053129e-30
7.4053129e-30
7.4053129e-30
7.4053129e-30
7.4053129e-30
7.4053129e-30
7.4053129e-30
7.4053129e-30
7.4053129e-30
7.4053129e-30
7.4053129e-30
7.4053129e-30
7.4053129e-30
7.4053129e-30
7.4053129e-30
7.4053129e-30
7.4053129e-30
7.4053129e-30
7.4053129e-30
7.4053129e-30
7.4053129e-30
7.4053129e-30
7.4053129e-30
7.4053129e-30
7.4053129e-30
7.4053129e-30
7.4053129e-30
7.4053129e-30
7.4053129e-30
7.4053129e-30
7.4053129e-30
7.4053129e-30
7.4053129e-30
7.4053129e-30
7.4053129e-30
7.4053129e-30
7.4053129e-30
7.4053129e-30
7.4053129e-30
7.4053129e-30
7.4053129e-30
7.4053129e-30
7.4053129e-30
7.4053129e-30
)
;
    }
    Inlet
    {
        type            calculated;
        value           uniform 0;
    }
    fluid_to_cilcen
    {
        type            calculated;
        value           nonuniform List<scalar> 
100
(
421.51755
421.51671
421.51587
421.51503
421.51419
421.51336
421.51252
421.51168
421.51084
421.51
421.50916
421.50832
421.50748
421.50664
421.5058
421.50496
421.50412
421.50328
421.50245
421.50161
421.50077
421.49993
421.49909
421.49825
421.49741
421.49657
421.49573
421.49489
421.49406
421.49322
421.49238
421.49154
421.4907
421.48986
421.48902
421.48818
421.48734
421.48651
421.48567
421.48483
421.48399
421.48315
421.48231
421.48147
421.48063
421.4798
421.47896
421.47812
421.47728
421.47644
421.4756
421.47476
421.47392
421.47309
421.47225
421.47141
421.47057
421.46973
421.46889
421.46805
421.46722
421.46638
421.46554
421.4647
421.46386
421.46302
421.46218
421.46135
421.46051
421.45967
421.45883
421.45799
421.45715
421.45632
421.45548
421.45464
421.4538
421.45296
421.45212
421.45129
421.45045
421.44961
421.44877
421.44793
421.44709
421.44626
421.44542
421.44458
421.44374
421.44291
421.44207
421.44123
421.44039
421.43955
421.43872
421.43788
421.43704
421.4362
421.43537
421.43454
)
;
    }
}


// ************************************************************************* //
