/*--------------------------------*- C++ -*----------------------------------*\
| =========                 |                                                 |
| \\      /  F ield         | OpenFOAM: The Open Source CFD Toolbox           |
|  \\    /   O peration     | Version:  3.0.1                                 |
|   \\  /    A nd           | Web:      www.OpenFOAM.org                      |
|    \\/     M anipulation  |                                                 |
\*---------------------------------------------------------------------------*/
FoamFile
{
    version     2.0;
    format      ascii;
    class       volScalarField;
    location    "9000/fluid";
    object      Qr;
}
// * * * * * * * * * * * * * * * * * * * * * * * * * * * * * * * * * * * * * //

dimensions      [1 0 -3 0 0 0 0];

internalField   uniform 0;

boundaryField
{
    LeftWedge
    {
        type            wedge;
    }
    RightWedge
    {
        type            wedge;
    }
    Inlet
    {
        type            calculated;
        value           uniform -6.3277868e-30;
    }
    Outlet
    {
        type            calculated;
        value           nonuniform List<scalar> 
40
(
7.3778611e-30
7.3778611e-30
7.3778611e-30
7.3778611e-30
7.3778611e-30
7.3778611e-30
7.3778611e-30
7.3778611e-30
7.3778611e-30
7.3778611e-30
7.3778611e-30
7.3778611e-30
7.3778611e-30
7.3778611e-30
7.3778611e-30
7.3778611e-30
7.3778611e-30
7.3778611e-30
7.3778611e-30
7.3778611e-30
7.3778611e-30
7.3778611e-30
7.3778611e-30
7.3778611e-30
7.3778611e-30
7.3778611e-30
7.3778611e-30
7.3778611e-30
7.3778611e-30
7.3778611e-30
7.3778611e-30
7.3778611e-30
7.3778611e-30
7.3778611e-30
7.3778611e-30
7.3778611e-30
7.3778611e-30
7.3778611e-30
7.3778611e-30
7.3778611e-30
)
;
    }
    Outterwall
    {
        type            calculated;
        value           nonuniform List<scalar> 
100
(
91.615485
95.212273
99.078088
102.64156
105.7814
108.50528
110.85957
112.89835
114.67241
116.22587
117.59569
118.81231
119.90057
120.88074
121.7693
122.57974
123.32312
124.00853
124.64353
125.23438
125.78636
126.3039
126.79074
127.2501
127.68473
128.09698
128.48892
128.86233
129.21878
129.55965
129.88618
130.19943
130.50039
130.78992
131.0688
131.33773
131.59736
131.84826
132.09097
132.32595
132.55367
132.77451
132.98886
133.19705
133.39942
133.59624
133.78779
133.97434
134.1561
134.33331
134.50617
134.67487
134.83959
135.0005
135.15776
135.31152
135.46192
135.60909
135.75315
135.89423
136.03243
136.16787
136.30063
136.43082
136.55852
136.68383
136.80681
136.92755
137.04613
137.1626
137.27705
137.38952
137.50009
137.60881
137.71574
137.82092
137.92442
138.02628
138.12654
138.22527
138.32249
138.41827
138.51264
138.60567
138.69742
138.78796
138.87739
138.96584
139.05351
139.14069
139.2278
139.31551
139.40481
139.49724
139.59502
139.70119
139.81919
139.94953
140.08732
140.18741
)
;
    }
    fluid_to_solid
    {
        type            calculated;
        value           nonuniform List<scalar> 
100
(
-91.615452
-95.212247
-99.078064
-102.64153
-105.78138
-108.50526
-110.85955
-112.89833
-114.67239
-116.22585
-117.59568
-118.81229
-119.90056
-120.88072
-121.76929
-122.57973
-123.32311
-124.00852
-124.64351
-125.23437
-125.78635
-126.30388
-126.79073
-127.25009
-127.68472
-128.09697
-128.48891
-128.86232
-129.21877
-129.55965
-129.88617
-130.19942
-130.50038
-130.78991
-131.06879
-131.33772
-131.59735
-131.84825
-132.09096
-132.32595
-132.55366
-132.7745
-132.98885
-133.19705
-133.39941
-133.59623
-133.78779
-133.97433
-134.1561
-134.33331
-134.50616
-134.67486
-134.83959
-135.0005
-135.15776
-135.31152
-135.46192
-135.60909
-135.75315
-135.89423
-136.03243
-136.16787
-136.30063
-136.43082
-136.55852
-136.68382
-136.80681
-136.92755
-137.04612
-137.1626
-137.27704
-137.38952
-137.50009
-137.60881
-137.71573
-137.82092
-137.92441
-138.02627
-138.12654
-138.22526
-138.32249
-138.41826
-138.51264
-138.60567
-138.69741
-138.78795
-138.87738
-138.96583
-139.0535
-139.14068
-139.22779
-139.3155
-139.4048
-139.49722
-139.59501
-139.70117
-139.81917
-139.94951
-140.0873
-140.18738
)
;
    }
}


// ************************************************************************* //
