/*--------------------------------*- C++ -*----------------------------------*\
| =========                 |                                                 |
| \\      /  F ield         | OpenFOAM: The Open Source CFD Toolbox           |
|  \\    /   O peration     | Version:  3.0.1                                 |
|   \\  /    A nd           | Web:      www.OpenFOAM.org                      |
|    \\/     M anipulation  |                                                 |
\*---------------------------------------------------------------------------*/
FoamFile
{
    version     2.0;
    format      ascii;
    class       volScalarField;
    location    "3500/fluid";
    object      Qr;
}
// * * * * * * * * * * * * * * * * * * * * * * * * * * * * * * * * * * * * * //

dimensions      [1 0 -3 0 0 0 0];

internalField   uniform 0;

boundaryField
{
    Outterwall
    {
        type            calculated;
        value           nonuniform List<scalar> 
100
(
17.014186
41.538126
59.89261
73.673255
84.083147
92.038347
98.197024
103.04025
106.90933
110.05207
112.64598
114.82091
116.67154
118.26814
119.66302
120.89573
121.99639
122.98823
123.88934
124.714
125.47355
126.1771
126.83208
127.44456
128.01956
128.56129
129.07328
129.55855
130.01967
130.45887
130.87809
131.27902
131.66313
132.03174
132.386
132.72696
133.05553
133.37255
133.67878
133.97489
134.26151
134.5392
134.80849
135.06984
135.32369
135.57045
135.81049
136.04414
136.27172
136.49354
136.70985
136.92093
137.127
137.32828
137.525
137.71733
137.90547
138.08958
138.26983
138.44637
138.61933
138.78886
138.95509
139.11813
139.27809
139.43509
139.58923
139.7406
139.8893
140.03542
140.17904
140.32024
140.45909
140.59567
140.73006
140.86231
140.99249
141.12066
141.24688
141.37121
141.49371
141.61442
141.73341
141.85072
141.96642
142.08058
142.19326
142.30457
142.41461
142.52357
142.63167
142.73927
142.84688
142.95533
143.0658
143.18016
143.30112
143.43255
143.57762
143.72421
)
;
    }
    symmetryleft
    {
        type            symmetry;
    }
    symmetryrigt
    {
        type            symmetry;
    }
    Outlet
    {
        type            calculated;
        value           nonuniform List<scalar> 
50
(
7.4053129e-30
7.4053129e-30
7.4053129e-30
7.4053129e-30
7.4053129e-30
7.4053129e-30
7.4053129e-30
7.4053129e-30
7.4053129e-30
7.4053129e-30
7.4053129e-30
7.4053129e-30
7.4053129e-30
7.4053129e-30
7.4053129e-30
7.4053129e-30
7.4053129e-30
7.4053129e-30
7.4053129e-30
7.4053129e-30
7.4053129e-30
7.4053129e-30
7.4053129e-30
7.4053129e-30
7.4053129e-30
7.4053129e-30
7.4053129e-30
7.4053129e-30
7.4053129e-30
7.4053129e-30
7.4053129e-30
7.4053129e-30
7.4053129e-30
7.4053129e-30
7.4053129e-30
7.4053129e-30
7.4053129e-30
7.4053129e-30
7.4053129e-30
7.4053129e-30
7.4053129e-30
7.4053129e-30
7.4053129e-30
7.4053129e-30
7.4053129e-30
7.4053129e-30
7.4053129e-30
7.4053129e-30
7.4053129e-30
7.4053129e-30
)
;
    }
    Inlet
    {
        type            calculated;
        value           nonuniform List<scalar> 
50
(
-6.3277868e-30
-6.3277868e-30
-6.3277868e-30
-6.3277868e-30
-6.3277867e-30
-6.3277867e-30
-6.3277866e-30
-6.3277865e-30
-6.3277864e-30
-6.3277864e-30
-6.3277863e-30
-6.3277862e-30
-6.3277862e-30
-6.3277861e-30
-6.327786e-30
-6.327786e-30
-6.327786e-30
-6.3277859e-30
-6.3277859e-30
-6.3277859e-30
-6.3277859e-30
-6.3277859e-30
-6.3277859e-30
-6.3277859e-30
-6.3277859e-30
-6.3277859e-30
-6.3277859e-30
-6.3277859e-30
-6.3277859e-30
-6.3277859e-30
-6.3277859e-30
-6.3277859e-30
-6.3277859e-30
-6.3277859e-30
-6.3277859e-30
-6.3277859e-30
-6.3277859e-30
-6.3277859e-30
-6.3277859e-30
-6.3277859e-30
-6.3277859e-30
-6.3277859e-30
-6.3277859e-30
-6.3277859e-30
-6.3277859e-30
-6.3277859e-30
-6.3277859e-30
-6.3277859e-30
-6.3277859e-30
-6.3277859e-30
)
;
    }
    fluid_to_cilcen
    {
        type            calculated;
        value           nonuniform List<scalar> 
100
(
-17.013397
-41.536007
-59.889644
-73.669846
-84.079548
-92.034712
-98.193443
-103.03677
-106.90598
-110.04886
-112.64291
-114.81798
-116.66874
-118.26545
-119.66044
-120.89326
-121.994
-122.98593
-123.88711
-124.71183
-125.47143
-126.17503
-126.83005
-127.44255
-128.01758
-128.55932
-129.07133
-129.55661
-130.01775
-130.45697
-130.8762
-131.27713
-131.66125
-132.02986
-132.38414
-132.7251
-133.05368
-133.37071
-133.67695
-133.97307
-134.2597
-134.5374
-134.80669
-135.06805
-135.32192
-135.56869
-135.80873
-136.04239
-136.26998
-136.49181
-136.70813
-136.91921
-137.12529
-137.32659
-137.52331
-137.71565
-137.9038
-138.08791
-138.26817
-138.44471
-138.61768
-138.78722
-138.95345
-139.1165
-139.27647
-139.43347
-139.58761
-139.73899
-139.8877
-140.03382
-140.17744
-140.31865
-140.45751
-140.5941
-140.72849
-140.86074
-140.99093
-141.1191
-141.24533
-141.36967
-141.49216
-141.61288
-141.73187
-141.84919
-141.9649
-142.07906
-142.19175
-142.30305
-142.4131
-142.52206
-142.63016
-142.73776
-142.84539
-142.95383
-143.06431
-143.17866
-143.29962
-143.43105
-143.5761
-143.72268
)
;
    }
}


// ************************************************************************* //
