/*--------------------------------*- C++ -*----------------------------------*\
| =========                 |                                                 |
| \\      /  F ield         | OpenFOAM: The Open Source CFD Toolbox           |
|  \\    /   O peration     | Version:  3.0.1                                 |
|   \\  /    A nd           | Web:      www.OpenFOAM.org                      |
|    \\/     M anipulation  |                                                 |
\*---------------------------------------------------------------------------*/
FoamFile
{
    version     2.0;
    format      ascii;
    class       volScalarField;
    location    "3500/fluid";
    object      rho;
}
// * * * * * * * * * * * * * * * * * * * * * * * * * * * * * * * * * * * * * //

dimensions      [1 -3 0 0 0 0 0];

internalField   nonuniform List<scalar> 
5000
(
1.1896663
1.190357
1.1910879
1.1918546
1.1926508
1.1934681
1.1942967
1.195125
1.1959404
1.1967299
1.1974804
1.19818
1.1988185
1.1993881
1.1998842
1.2003051
1.2006526
1.2009311
1.2011474
1.2013099
1.2014276
1.2015096
1.2015644
1.2015993
1.2016206
1.2016328
1.2016395
1.2016429
1.2016445
1.2016453
1.2016456
1.2016457
1.2016457
1.2016457
1.2016457
1.2016457
1.2016457
1.2016457
1.2016457
1.2016457
1.2016457
1.2016457
1.2016457
1.2016457
1.2016457
1.2016457
1.2016457
1.2016457
1.2016457
1.2016457
1.1732968
1.1746406
1.1760697
1.1775791
1.1791614
1.1808062
1.1824997
1.1842256
1.1859646
1.1876951
1.1893941
1.1910379
1.1926033
1.1940688
1.1954154
1.1966281
1.1976963
1.198615
1.1993843
1.2000098
1.2005023
1.2008763
1.2011491
1.2013395
1.201466
1.2015457
1.201593
1.2016193
1.201633
1.2016395
1.2016424
1.2016436
1.201644
1.2016442
1.2016442
1.2016442
1.2016442
1.2016442
1.2016442
1.2016442
1.2016442
1.2016442
1.2016442
1.2016442
1.2016442
1.2016442
1.2016442
1.2016442
1.2016442
1.2016442
1.1616512
1.1632286
1.1649131
1.1667048
1.1686016
1.170599
1.1726891
1.1748604
1.1770972
1.1793795
1.1816825
1.1839776
1.1862327
1.1884135
1.1904857
1.1924164
1.1941769
1.1957448
1.1971054
1.198253
1.1991911
1.1999321
1.2004957
1.2009067
1.2011929
1.2013822
1.2015005
1.20157
1.2016081
1.2016275
1.2016366
1.2016404
1.201642
1.2016425
1.2016427
1.2016427
1.2016427
1.2016427
1.2016427
1.2016427
1.2016427
1.2016427
1.2016427
1.2016427
1.2016427
1.2016427
1.2016427
1.2016427
1.2016427
1.2016427
1.1532597
1.1549652
1.1567888
1.1587323
1.1607959
1.1629775
1.1652728
1.1676738
1.1701691
1.1727428
1.1753741
1.1780372
1.1807013
1.1833308
1.1858869
1.1883289
1.1906168
1.1927139
1.1945899
1.1962234
1.1976039
1.1987329
1.1996233
1.2002982
1.2007876
1.2011257
1.201347
1.2014834
1.2015622
1.2016046
1.2016256
1.2016351
1.2016391
1.2016405
1.201641
1.2016412
1.2016412
1.2016412
1.2016412
1.2016412
1.2016412
1.2016412
1.2016412
1.2016412
1.2016412
1.2016412
1.2016412
1.2016412
1.2016412
1.2016412
1.1471093
1.1488908
1.1507969
1.1528305
1.1549931
1.1572842
1.1597013
1.1622389
1.1648882
1.167636
1.1704648
1.1733515
1.1762678
1.1791797
1.1820485
1.1848315
1.1874843
1.1899631
1.1922282
1.1942469
1.1959964
1.1974668
1.198661
1.1995952
1.2002961
1.2007984
1.2011405
1.2013606
1.2014937
1.2015687
1.2016078
1.2016266
1.2016348
1.2016381
1.2016392
1.2016396
1.2016397
1.2016397
1.2016397
1.2016397
1.2016397
1.2016397
1.2016397
1.2016397
1.2016397
1.2016397
1.2016397
1.2016397
1.2016397
1.2016397
1.1425088
1.144328
1.1462752
1.148354
1.1505666
1.1529138
1.1553943
1.1580045
1.1607375
1.1635827
1.1665249
1.1695443
1.1726152
1.1757062
1.1787803
1.1817955
1.1847061
1.1874653
1.1900277
1.1923528
1.1944086
1.1961747
1.197644
1.198824
1.1997351
1.2004088
1.2008834
1.2012004
1.2013999
1.2015173
1.2015814
1.2016138
1.2016286
1.2016348
1.2016372
1.2016379
1.2016382
1.2016382
1.2016382
1.2016382
1.2016382
1.2016382
1.2016382
1.2016382
1.2016382
1.2016382
1.2016382
1.2016382
1.2016382
1.2016382
1.1390041
1.1408407
1.142807
1.1449071
1.1471437
1.1495186
1.1520314
1.1546798
1.1574583
1.1603583
1.1633669
1.1664663
1.1696336
1.1728398
1.17605
1.1792238
1.1823159
1.1852784
1.1880632
1.1906251
1.1929254
1.1949358
1.1966407
1.1980391
1.1991446
1.1999834
1.2005916
1.2010108
1.2012839
1.2014508
1.2015458
1.2015958
1.20162
1.2016305
1.2016347
1.2016361
1.2016366
1.2016367
1.2016367
1.2016367
1.2016367
1.2016367
1.2016367
1.2016367
1.2016367
1.2016367
1.2016367
1.2016367
1.2016367
1.2016367
1.1362799
1.1381195
1.1400893
1.1421936
1.1444359
1.1468182
1.1493412
1.1520033
1.1548006
1.1577259
1.160768
1.1639116
1.1671358
1.1704143
1.1737143
1.1769973
1.1802195
1.183333
1.1862883
1.1890372
1.1915365
1.1937516
1.1956598
1.1972526
1.1985366
1.1995323
1.2002719
1.2007956
1.2011471
1.2013692
1.2015003
1.2015721
1.2016082
1.2016248
1.2016316
1.2016341
1.2016349
1.2016352
1.2016352
1.2016352
1.2016352
1.2016352
1.2016352
1.2016352
1.2016352
1.2016352
1.2016352
1.2016352
1.2016352
1.2016352
1.1341233
1.1359585
1.1379238
1.1400238
1.1422621
1.1446414
1.1471628
1.1498256
1.1526268
1.1555605
1.1586171
1.161783
1.1650394
1.168362
1.1717205
1.1750784
1.1783933
1.1816183
1.1847036
1.1875994
1.1902592
1.1926438
1.1947248
1.1964871
1.197931
1.1990714
1.199936
1.2005624
1.2009938
1.2012744
1.2014455
1.2015425
1.2015932
1.2016174
1.2016278
1.2016318
1.2016332
1.2016336
1.2016337
1.2016337
1.2016337
1.2016337
1.2016337
1.2016337
1.2016337
1.2016337
1.2016337
1.2016337
1.2016337
1.2016337
1.1323833
1.1342093
1.1361648
1.1382546
1.1404827
1.1428518
1.1453638
1.1480184
1.1508134
1.1537441
1.1568022
1.1599755
1.1632471
1.1665948
1.1699902
1.1733989
1.1767803
1.1800888
1.1832747
1.1862876
1.1890788
1.1916055
1.1938348
1.195746
1.1973335
1.1986069
1.1995894
1.2003155
1.2008268
1.2011677
1.2013816
1.2015068
1.2015745
1.201608
1.2016231
1.2016291
1.2016313
1.201632
1.2016322
1.2016322
1.2016322
1.2016322
1.2016322
1.2016322
1.2016322
1.2016322
1.2016322
1.2016322
1.2016322
1.2016322
1.130955
1.1327695
1.1347128
1.1367898
1.1390045
1.1413601
1.1438585
1.1465004
1.1492839
1.1522052
1.1552571
1.1584288
1.1617048
1.1650647
1.1684822
1.1719247
1.1753534
1.1787241
1.1819879
1.1850942
1.1879929
1.1906389
1.192995
1.1950364
1.1967521
1.1981466
1.1992389
1.20006
1.2006495
1.2010514
1.2013098
1.2014653
1.2015521
1.2015966
1.2016174
1.201626
1.2016293
1.2016303
1.2016306
1.2016307
1.2016307
1.2016307
1.2016307
1.2016307
1.2016307
1.2016307
1.2016307
1.2016307
1.2016307
1.2016307
1.1297625
1.1315642
1.1334939
1.1355564
1.1377561
1.1400961
1.1425788
1.145205
1.1479737
1.1508816
1.1539224
1.1570864
1.1603596
1.1637231
1.1671523
1.1706165
1.1740786
1.1774959
1.1808207
1.1840022
1.18699
1.1897367
1.1922024
1.1943581
1.1961886
1.1976937
1.198888
1.1997991
1.2004644
1.2009268
1.2012308
1.2014184
1.2015261
1.201583
1.2016105
1.2016224
1.201627
1.2016286
1.2016291
1.2016292
1.2016292
1.2016292
1.2016292
1.2016292
1.2016292
1.2016292
1.2016292
1.2016292
1.2016292
1.2016292
1.1287513
1.13054
1.1324557
1.1345034
1.1366874
1.1390112
1.1414773
1.1440867
1.146839
1.1497314
1.1527583
1.1559111
1.159177
1.1625383
1.1659721
1.1694493
1.1729346
1.1763867
1.179759
1.1830015
1.1860632
1.1888954
1.1914559
1.1937124
1.1956457
1.1972513
1.19854
1.199536
1.2002741
1.200796
1.2011458
1.2013665
1.2014964
1.2015671
1.2016023
1.2016182
1.2016245
1.2016268
1.2016275
1.2016277
1.2016277
1.2016277
1.2016277
1.2016277
1.2016277
1.2016277
1.2016277
1.2016277
1.2016277
1.2016277
1.1278815
1.1296571
1.131559
1.1335919
1.1357602
1.1380677
1.1405168
1.143109
1.1458442
1.1487199
1.1517315
1.154871
1.1581265
1.1614818
1.1649151
1.1683992
1.1719002
1.1753782
1.178788
1.1820802
1.1852037
1.1881091
1.1907521
1.1930978
1.1951234
1.1968208
1.1981969
1.1992727
1.2000804
1.2006601
1.2010555
1.2013101
1.2014634
1.201549
1.2015929
1.2016133
1.2016217
1.2016249
1.2016259
1.2016262
1.2016262
1.2016262
1.2016262
1.2016262
1.2016262
1.2016262
1.2016262
1.2016262
1.2016262
1.2016262
1.1271234
1.1288864
1.1307748
1.1327933
1.1349464
1.1372378
1.1396703
1.1422455
1.1449634
1.1478223
1.1508178
1.1539427
1.1571862
1.1605329
1.1639625
1.1674489
1.17096
1.1744572
1.1778965
1.1812293
1.1844049
1.1873731
1.1900884
1.1925132
1.194622
1.1964032
1.1978602
1.1990109
1.1998849
1.2005207
1.2009611
1.2012497
1.2014272
1.2015287
1.2015821
1.2016076
1.2016186
1.2016228
1.2016242
1.2016246
1.2016247
1.2016247
1.2016247
1.2016247
1.2016247
1.2016247
1.2016247
1.2016247
1.2016247
1.2016247
1.1264549
1.1282058
1.1300811
1.1320858
1.1342242
1.1365001
1.1389164
1.1414749
1.144176
1.1470181
1.1499974
1.1531073
1.1563377
1.1596742
1.1630977
1.1665833
1.1701003
1.1736115
1.1770741
1.1804404
1.1836601
1.1866826
1.1894613
1.1919569
1.1941409
1.1959988
1.1975308
1.1987517
1.1996888
1.2003786
1.2008632
1.2011859
1.2013881
1.2015063
1.2015699
1.2016013
1.2016151
1.2016206
1.2016225
1.2016231
1.2016232
1.2016232
1.2016232
1.2016232
1.2016232
1.2016232
1.2016232
1.2016232
1.2016232
1.2016232
1.1258591
1.1275984
1.1294614
1.1314528
1.1335772
1.1358383
1.1382391
1.1407816
1.1434662
1.1462919
1.1492552
1.1523499
1.1555668
1.1588922
1.162308
1.1657906
1.1693104
1.1728316
1.1763126
1.1797066
1.1829637
1.1860335
1.1888683
1.1914271
1.1936794
1.1956077
1.1972092
1.1984961
1.1994931
1.2002349
1.2007626
1.2011191
1.2013464
1.2014818
1.2015564
1.2015941
1.2016112
1.2016182
1.2016207
1.2016215
1.2016217
1.2016217
1.2016217
1.2016217
1.2016217
1.2016217
1.2016217
1.2016217
1.2016217
1.2016217
1.1253231
1.1270515
1.1289027
1.1308815
1.1329925
1.1352395
1.1376255
1.1401526
1.1428215
1.1456313
1.1485789
1.1516587
1.1548618
1.1581756
1.1615827
1.1650606
1.1685809
1.1721091
1.1756045
1.1790215
1.1823108
1.1854218
1.1883064
1.1909222
1.1932366
1.1952296
1.1968958
1.1982446
1.1992985
1.2000903
1.2006599
1.2010499
1.2013023
1.2014554
1.2015416
1.2015861
1.2016069
1.2016156
1.2016188
1.2016199
1.2016202
1.2016202
1.2016202
1.2016202
1.2016202
1.2016202
1.2016202
1.2016202
1.2016202
1.2016202
1.1248369
1.1265549
1.1283949
1.1303619
1.1324602
1.1346938
1.1370657
1.1395782
1.142232
1.1450264
1.1479589
1.151024
1.1542135
1.1575154
1.1609132
1.1643853
1.1679043
1.171437
1.1749438
1.17838
1.1816969
1.1848442
1.1877731
1.1904404
1.1928114
1.1948642
1.1965907
1.1979978
1.1991056
1.1999453
1.2005556
1.2009785
1.2012561
1.2014273
1.2015255
1.2015773
1.2016021
1.2016128
1.2016169
1.2016182
1.2016186
1.2016187
1.2016187
1.2016187
1.2016187
1.2016187
1.2016187
1.2016187
1.2016187
1.2016187
1.1243925
1.1261007
1.1279302
1.1298858
1.1319722
1.134193
1.1365516
1.1390501
1.1416895
1.1444693
1.1473871
1.150438
1.1536141
1.1569041
1.1602921
1.1637576
1.1672742
1.1708095
1.1743252
1.1777774
1.1811182
1.1842974
1.1872661
1.18998
1.1924031
1.1945111
1.1962939
1.1977557
1.1989148
1.1998006
1.2004503
1.2009054
1.201208
1.2013975
1.2015081
1.2015677
1.2015969
1.2016098
1.2016148
1.2016166
1.2016171
1.2016172
1.2016172
1.2016172
1.2016172
1.2016172
1.2016172
1.2016172
1.2016172
1.2016172
1.1239837
1.1256826
1.1275021
1.1294471
1.1315221
1.1337309
1.1360767
1.1385619
1.1411876
1.1439535
1.1468572
1.1498943
1.1530573
1.1563355
1.1597137
1.163172
1.1666851
1.1702216
1.1737442
1.1772098
1.1805713
1.1837788
1.1867833
1.1895396
1.1920105
1.1941698
1.1960051
1.1975187
1.1987265
1.1996563
1.2003442
1.200831
1.2011584
1.2013662
1.2014896
1.2015572
1.2015912
1.2016065
1.2016127
1.2016149
1.2016155
1.2016157
1.2016157
1.2016157
1.2016157
1.2016157
1.2016157
1.2016157
1.2016157
1.2016157
1.1236055
1.1252956
1.1271057
1.1290405
1.1311047
1.1333021
1.1356359
1.1381085
1.1407211
1.1434735
1.1463638
1.1493876
1.1525379
1.1558044
1.1591727
1.1626236
1.1661324
1.169669
1.1731967
1.1766737
1.1800532
1.183286
1.1863228
1.1891178
1.1916327
1.1938396
1.1957243
1.1972867
1.1985409
1.199513
1.2002378
1.2007554
1.2011073
1.2013336
1.2014699
1.201546
1.201585
1.201603
1.2016104
1.2016131
1.201614
1.2016142
1.2016142
1.2016142
1.2016142
1.2016142
1.2016142
1.2016142
1.2016142
1.2016142
1.1232538
1.1249355
1.1267366
1.1286619
1.1307159
1.1329024
1.1352247
1.1376853
1.1402855
1.1430251
1.1459025
1.1489135
1.1520515
1.1553066
1.158665
1.1621082
1.1656123
1.169148
1.1726796
1.176166
1.1795614
1.1828167
1.1858827
1.1887133
1.1912689
1.1935202
1.1954512
1.1970598
1.1983582
1.1993708
1.2001313
1.200679
1.2010551
1.2012998
1.2014492
1.2015341
1.2015783
1.2015992
1.201608
1.2016113
1.2016124
1.2016127
1.2016127
1.2016127
1.2016127
1.2016127
1.2016127
1.2016127
1.2016127
1.2016127
1.1229252
1.1245991
1.1263916
1.1283078
1.130352
1.1325282
1.1348397
1.1372889
1.1398772
1.1426046
1.1454696
1.1484683
1.1515944
1.1548385
1.1581871
1.1616224
1.1651214
1.1686554
1.1721898
1.1756842
1.1790934
1.182369
1.1854616
1.1883248
1.1909181
1.193211
1.1951855
1.1968378
1.1981784
1.1992299
1.2000249
1.2006019
1.2010019
1.2012648
1.2014276
1.2015214
1.2015711
1.2015951
1.2016055
1.2016094
1.2016108
1.2016111
1.2016112
1.2016112
1.2016112
1.2016112
1.2016112
1.2016112
1.2016112
1.2016112
1.1226171
1.1242833
1.1260678
1.1279754
1.1300104
1.1321767
1.1344778
1.1369161
1.1394931
1.1422089
1.145062
1.1480489
1.1511635
1.1543968
1.1577357
1.1611632
1.1646568
1.1681886
1.1717249
1.175226
1.1786474
1.1819411
1.185058
1.1879513
1.1905797
1.1929115
1.194927
1.1966208
1.1980016
1.1990905
1.1999189
1.2005245
1.2009478
1.2012289
1.201405
1.2015079
1.2015635
1.2015908
1.2016028
1.2016075
1.2016091
1.2016096
1.2016097
1.2016097
1.2016097
1.2016098
1.2016098
1.2016098
1.2016098
1.2016098
1.122327
1.1239861
1.1257629
1.1276622
1.1296884
1.1318454
1.1341366
1.1365645
1.1391307
1.1418353
1.144677
1.1476526
1.1507561
1.1539789
1.1573084
1.1607281
1.1642161
1.1677453
1.1712826
1.1747893
1.1782215
1.1815316
1.1846707
1.1875918
1.1902529
1.1926211
1.1946754
1.1964087
1.1978278
1.1989527
1.1998134
1.2004467
1.200893
1.2011922
1.2013816
1.2014939
1.2015554
1.2015861
1.2016
1.2016055
1.2016075
1.2016081
1.2016082
1.2016082
1.2016083
1.2016083
1.2016083
1.2016083
1.2016083
1.2016083
1.122053
1.1237053
1.1254748
1.1273662
1.129384
1.1315321
1.1338139
1.1362319
1.1387877
1.1414817
1.1443125
1.1472772
1.15037
1.1535826
1.1569029
1.1603147
1.163797
1.1673232
1.170861
1.1743723
1.177814
1.181139
1.1842985
1.1872454
1.189937
1.1923395
1.1944304
1.1962012
1.1976571
1.1988165
1.1997084
1.2003689
1.2008376
1.2011546
1.2013575
1.2014791
1.2015468
1.2015812
1.201597
1.2016035
1.2016058
1.2016065
1.2016067
1.2016067
1.2016068
1.2016068
1.2016068
1.2016068
1.2016068
1.2016068
1.1217936
1.1234393
1.1252018
1.1270857
1.1290955
1.1312351
1.1335079
1.1359165
1.1384624
1.1411461
1.1439665
1.1469206
1.1500031
1.1532058
1.1565171
1.1599213
1.1633977
1.1669206
1.1704583
1.1739735
1.1774236
1.1807621
1.1839404
1.1869111
1.1896313
1.1920661
1.1941918
1.1959983
1.1974894
1.1986821
1.1996042
1.200291
1.2007818
1.2011164
1.2013326
1.2014638
1.2015377
1.201576
1.2015939
1.2016014
1.2016041
1.201605
1.2016052
1.2016052
1.2016053
1.2016053
1.2016053
1.2016053
1.2016053
1.2016053
1.1215472
1.1231867
1.1249425
1.1268193
1.1288214
1.1309529
1.1332171
1.1356165
1.138153
1.1408269
1.1436372
1.1465812
1.1496538
1.1528469
1.1561494
1.159546
1.1630166
1.1665359
1.1700731
1.1735915
1.177049
1.1803997
1.1835954
1.1865884
1.1893354
1.1918006
1.1939593
1.1957998
1.1973247
1.1985494
1.1995008
1.2002133
1.2007256
1.2010776
1.2013071
1.2014479
1.2015283
1.2015705
1.2015906
1.2015991
1.2016023
1.2016034
1.2016037
1.2016037
1.2016038
1.2016038
1.2016038
1.2016038
1.2016038
1.2016038
1.1213127
1.1229463
1.1246956
1.1265655
1.1285603
1.130684
1.1329399
1.1353307
1.1378581
1.1405225
1.1433233
1.1462575
1.1493204
1.1525043
1.1557983
1.1591873
1.162652
1.1661677
1.169704
1.1732249
1.1766891
1.180051
1.1832626
1.1862764
1.1890486
1.1915426
1.1937326
1.1956057
1.1971629
1.1984185
1.1993982
1.2001357
1.2006692
1.2010384
1.2012811
1.2014315
1.2015184
1.2015647
1.2015871
1.2015968
1.2016006
1.2016018
1.2016022
1.2016022
1.2016023
1.2016023
1.2016023
1.2016023
1.2016023
1.2016023
1.121089
1.1227169
1.1244601
1.1263234
1.1283112
1.1304274
1.1326754
1.1350578
1.1375764
1.1402319
1.1430233
1.1459482
1.1490018
1.1521767
1.1554623
1.158844
1.1623028
1.1658147
1.1693498
1.1728727
1.1763428
1.1797149
1.1829413
1.1859745
1.1887704
1.1912917
1.1935115
1.1954157
1.197004
1.1982894
1.1992966
1.2000584
1.2006126
1.2009986
1.2012545
1.2014145
1.2015081
1.2015586
1.2015835
1.2015945
1.2015988
1.2016002
1.2016006
1.2016007
1.2016008
1.2016008
1.2016008
1.2016008
1.2016008
1.2016008
1.1208752
1.1224976
1.1242349
1.1260919
1.1280729
1.1301819
1.1324223
1.1347967
1.137307
1.1399537
1.1427362
1.145652
1.1486966
1.1518628
1.1551403
1.1585148
1.1619678
1.1654757
1.1690093
1.1725339
1.1760092
1.1793906
1.1826307
1.1856821
1.1885003
1.1910475
1.1932957
1.1952297
1.1968479
1.1981622
1.199196
1.1999814
1.2005559
1.2009586
1.2012274
1.2013971
1.2014974
1.2015523
1.2015797
1.201592
1.2015969
1.2015986
1.2015991
1.2015992
1.2015993
1.2015993
1.2015993
1.2015993
1.2015993
1.2015993
1.1206705
1.1222876
1.1240192
1.1258701
1.1278447
1.1299468
1.1321799
1.1345466
1.1370487
1.1396871
1.142461
1.1453681
1.148404
1.1515617
1.1548312
1.1581986
1.1616459
1.1651497
1.1686817
1.1722074
1.1756874
1.1790773
1.1823303
1.1853987
1.188238
1.1908097
1.193085
1.1950476
1.1966946
1.1980366
1.1990963
1.1999049
1.2004992
1.2009182
1.2011999
1.2013793
1.2014864
1.2015457
1.2015757
1.2015894
1.201595
1.201597
1.2015976
1.2015977
1.2015978
1.2015978
1.2015978
1.2015978
1.2015978
1.2015978
1.1204741
1.1220861
1.1238123
1.1256574
1.1276257
1.1297212
1.1319472
1.1343065
1.1368009
1.1394311
1.1421967
1.1450953
1.1481228
1.1512723
1.1545341
1.1578946
1.1613361
1.1648359
1.168366
1.1718926
1.1753766
1.1787745
1.1820393
1.1851238
1.187983
1.1905781
1.1928793
1.1948692
1.1965439
1.1979129
1.1989976
1.1998287
1.2004424
1.2008775
1.2011721
1.2013611
1.201475
1.2015388
1.2015716
1.2015868
1.2015931
1.2015953
1.201596
1.2015962
1.2015963
1.2015963
1.2015963
1.2015963
1.2015963
1.2015963
1.1202855
1.1218926
1.1236136
1.125453
1.1274153
1.1295044
1.1317236
1.1340757
1.1365626
1.139185
1.1419426
1.1448331
1.1478524
1.1509939
1.1542482
1.1576019
1.1610377
1.1645334
1.1680614
1.1715886
1.1750763
1.1784813
1.1817573
1.1848569
1.187735
1.1903523
1.1926782
1.1946945
1.1963959
1.1977909
1.1989
1.199753
1.2003858
1.2008367
1.2011439
1.2013425
1.2014633
1.2015317
1.2015673
1.201584
1.2015911
1.2015937
1.2015945
1.2015947
1.2015948
1.2015948
1.2015948
1.2015948
1.2015948
1.2015948
1.120104
1.1217064
1.1234223
1.1252563
1.1272128
1.1292957
1.1315084
1.1338536
1.1363332
1.1389482
1.1416979
1.1445805
1.1475919
1.1507257
1.1539726
1.1573197
1.1607499
1.1642415
1.1677673
1.1712947
1.1747857
1.1781974
1.1814837
1.1845975
1.1874936
1.190132
1.1924817
1.1945232
1.1962504
1.1976706
1.1988034
1.1996778
1.2003292
1.2007957
1.2011154
1.2013235
1.2014512
1.2015243
1.2015628
1.2015812
1.201589
1.201592
1.2015929
1.2015932
1.2015932
1.2015933
1.2015933
1.2015933
1.2015933
1.2015933
1.1199292
1.1215271
1.1232381
1.1250668
1.1270177
1.1290947
1.131301
1.1336396
1.1361122
1.1387198
1.1414621
1.144337
1.1473407
1.150467
1.1537068
1.1570474
1.1604721
1.1639595
1.167483
1.1710104
1.1745043
1.1779221
1.1812181
1.1843453
1.1872584
1.189917
1.1922895
1.1943553
1.1961074
1.1975521
1.1987079
1.1996032
1.2002728
1.2007546
1.2010866
1.2013042
1.2014389
1.2015167
1.2015581
1.2015782
1.2015869
1.2015903
1.2015914
1.2015917
1.2015917
1.2015918
1.2015918
1.2015918
1.2015918
1.2015918
1.1197606
1.1213541
1.1230603
1.1248841
1.1268296
1.1289007
1.131101
1.1334331
1.1358989
1.1384995
1.1412344
1.144102
1.1470982
1.1502172
1.15345
1.1567842
1.1602035
1.1636867
1.1672078
1.1707351
1.1742315
1.1776549
1.18096
1.1841
1.1870292
1.1897072
1.1921014
1.1941907
1.1959668
1.1974352
1.1986134
1.1995291
1.2002165
1.2007134
1.2010576
1.2012847
1.2014263
1.2015088
1.2015533
1.2015752
1.2015848
1.2015885
1.2015898
1.2015902
1.2015902
1.2015903
1.2015903
1.2015903
1.2015903
1.2015903
1.1195978
1.121187
1.1228887
1.1247076
1.1266478
1.1287134
1.1309077
1.1332336
1.1356929
1.1382866
1.1410145
1.1438748
1.1468639
1.1499758
1.1532018
1.1565297
1.1599436
1.1634227
1.1669414
1.1704683
1.1739668
1.1773955
1.1807091
1.1838611
1.1868057
1.1895021
1.1919173
1.1940292
1.1958286
1.1973199
1.19852
1.1994555
1.2001605
1.2006722
1.2010284
1.2012649
1.2014134
1.2015008
1.2015484
1.201572
1.2015826
1.2015868
1.2015882
1.2015886
1.2015887
1.2015888
1.2015888
1.2015888
1.2015888
1.2015888
1.1194405
1.1210256
1.1227228
1.1245369
1.1264721
1.1285323
1.1307209
1.1330407
1.1354937
1.1380808
1.1408018
1.1436552
1.1466372
1.1497422
1.1529615
1.1562833
1.1596919
1.1631669
1.166683
1.1702094
1.1737099
1.1771434
1.180465
1.1836283
1.1865876
1.1893017
1.191737
1.1938707
1.1956926
1.1972063
1.1984275
1.1993826
1.2001046
1.2006309
1.200999
1.2012448
1.2014002
1.2014925
1.2015432
1.2015688
1.2015804
1.201585
1.2015866
1.2015871
1.2015872
1.2015873
1.2015873
1.2015873
1.2015873
1.2015873
1.1192882
1.1208693
1.1225623
1.1243718
1.1263021
1.128357
1.1305401
1.132854
1.1353008
1.1378815
1.1405959
1.1434425
1.1464177
1.1495159
1.1527288
1.1560446
1.159448
1.1629189
1.1664324
1.1699581
1.1734602
1.1768981
1.1802273
1.1834014
1.1863747
1.1891058
1.1915604
1.1937151
1.1955589
1.1970942
1.1983362
1.1993102
1.2000491
1.2005896
1.2009695
1.2012245
1.2013868
1.201484
1.2015379
1.2015654
1.2015781
1.2015832
1.201585
1.2015856
1.2015857
1.2015858
1.2015858
1.2015858
1.2015858
1.2015858
1.1191407
1.120718
1.1224068
1.1242118
1.1261373
1.1281872
1.1303649
1.1326732
1.135114
1.1376884
1.1403964
1.1432364
1.1462049
1.1492966
1.1525031
1.1558131
1.1592113
1.1626781
1.166189
1.1697139
1.1732175
1.1766595
1.1799958
1.1831801
1.1861668
1.1889141
1.1913874
1.1935623
1.1954273
1.1969837
1.1982458
1.1992384
1.1999937
1.2005484
1.2009398
1.201204
1.2013732
1.2014753
1.2015325
1.201562
1.2015757
1.2015814
1.2015834
1.2015841
1.2015842
1.2015843
1.2015843
1.2015843
1.2015843
1.2015843
1.1189978
1.1205712
1.122256
1.1240567
1.1259776
1.1280226
1.1301951
1.1324978
1.1349328
1.1375012
1.1402029
1.1430365
1.1459985
1.1490838
1.1522841
1.1555884
1.1589815
1.1624443
1.1659525
1.1694764
1.1729813
1.1764271
1.1797701
1.1829641
1.1859636
1.1887265
1.1912177
1.1934123
1.1952977
1.1968746
1.1981564
1.1991672
1.1999387
1.2005072
1.2009101
1.2011833
1.2013594
1.2014664
1.2015269
1.2015584
1.2015733
1.2015795
1.2015818
1.2015825
1.2015827
1.2015828
1.2015828
1.2015828
1.2015828
1.2015828
1.1188591
1.1204289
1.1221097
1.1239063
1.1258227
1.1278629
1.1300302
1.1323276
1.134757
1.1373195
1.1400151
1.1428424
1.1457982
1.1488772
1.1520715
1.1553701
1.1587583
1.162217
1.1657225
1.1692454
1.1727513
1.1762007
1.1795499
1.1827532
1.1857649
1.1885428
1.1910513
1.1932649
1.1951702
1.1967671
1.1980681
1.1990966
1.1998839
1.200466
1.2008802
1.2011625
1.2013454
1.2014573
1.2015212
1.2015548
1.2015708
1.2015776
1.2015802
1.201581
1.2015812
1.2015813
1.2015813
1.2015813
1.2015813
1.2015813
1.1187243
1.1202906
1.1219677
1.1237601
1.1256722
1.1277077
1.1298702
1.1321623
1.1345862
1.137143
1.1398327
1.1426539
1.1456035
1.1486764
1.1518648
1.1551579
1.1585412
1.161996
1.1654987
1.1690205
1.1725273
1.1759799
1.179335
1.1825471
1.1855705
1.1883628
1.1908881
1.1931201
1.1950447
1.196661
1.1979807
1.1990265
1.1998295
1.200425
1.2008503
1.2011415
1.2013313
1.2014481
1.2015153
1.201551
1.2015683
1.2015757
1.2015785
1.2015794
1.2015797
1.2015798
1.2015798
1.2015798
1.2015798
1.2015798
1.1185934
1.1201562
1.1218296
1.1236181
1.1255259
1.1275569
1.1297146
1.1320016
1.1344202
1.1369714
1.1396553
1.1424706
1.1454143
1.1484812
1.1516638
1.1549515
1.15833
1.1617808
1.1652807
1.1688013
1.1723088
1.1757645
1.1791252
1.1823457
1.1853803
1.1881865
1.1907279
1.1929777
1.1949211
1.1965562
1.1978942
1.1989571
1.1997753
1.200384
1.2008204
1.2011203
1.2013169
1.2014387
1.2015093
1.2015472
1.2015657
1.2015737
1.2015769
1.2015779
1.2015782
1.2015783
1.2015783
1.2015783
1.2015783
1.2015783
1.1184661
1.1200256
1.1216953
1.1234799
1.1253836
1.1274103
1.1295632
1.1318454
1.1342587
1.1368045
1.1394828
1.1422923
1.1452301
1.1482913
1.1514682
1.1547506
1.1581244
1.1615713
1.1650684
1.1685877
1.1720958
1.1755542
1.1789203
1.1821487
1.1851941
1.1880136
1.1905706
1.1928377
1.1947993
1.1964529
1.1978088
1.1988883
1.1997215
1.2003432
1.2007904
1.2010991
1.2013024
1.2014291
1.2015032
1.2015433
1.201563
1.2015718
1.2015752
1.2015763
1.2015767
1.2015768
1.2015768
1.2015768
1.2015768
1.2015768
1.1183422
1.1198984
1.1215647
1.1233455
1.1252452
1.1272675
1.1294159
1.1316933
1.1341016
1.1366421
1.1393149
1.1421187
1.1450509
1.1481063
1.1512778
1.1545549
1.157924
1.161367
1.1648614
1.1683794
1.1718879
1.1753488
1.1787199
1.181956
1.1850118
1.1878441
1.1904162
1.1927
1.1946794
1.1963509
1.1977242
1.1988201
1.199668
1.2003024
1.2007603
1.2010777
1.2012877
1.2014194
1.201497
1.2015392
1.2015603
1.2015698
1.2015735
1.2015748
1.2015752
1.2015753
1.2015753
1.2015753
1.2015753
1.2015753
1.1182215
1.1197745
1.1214374
1.1232146
1.1251103
1.1271285
1.1292725
1.1315451
1.1339485
1.1364838
1.1391513
1.1419497
1.1448762
1.1479261
1.1510921
1.1543642
1.1577287
1.1611679
1.1646595
1.168176
1.1716848
1.1751482
1.178524
1.1817674
1.1848331
1.1876778
1.1902645
1.1925646
1.1945611
1.1962502
1.1976406
1.1987525
1.1996148
1.2002618
1.2007303
1.2010562
1.2012729
1.2014096
1.2014906
1.2015351
1.2015575
1.2015677
1.2015718
1.2015732
1.2015736
1.2015738
1.2015738
1.2015738
1.2015738
1.2015738
1.1181039
1.1196538
1.1213134
1.123087
1.1249789
1.126993
1.1291327
1.1314007
1.1337993
1.1363296
1.1389918
1.1417849
1.1447059
1.1477504
1.1509112
1.1541782
1.1575382
1.1609736
1.1644624
1.1679774
1.1714865
1.174952
1.1783323
1.1815827
1.1846579
1.1875147
1.1901154
1.1924313
1.1944446
1.1961508
1.1975579
1.1986855
1.1995619
1.2002214
1.2007003
1.2010347
1.201258
1.2013996
1.2014841
1.2015309
1.2015547
1.2015656
1.2015701
1.2015716
1.2015721
1.2015722
1.2015723
1.2015723
1.2015723
1.2015723
1.1179893
1.1195362
1.1211924
1.1229626
1.1248508
1.1268609
1.1289964
1.13126
1.1336538
1.1361792
1.1388363
1.1416241
1.1445399
1.147579
1.1507346
1.1539967
1.1573522
1.1607839
1.1642699
1.1677835
1.1712926
1.1747602
1.1781447
1.1814018
1.1844861
1.1873545
1.1899689
1.1923001
1.1943298
1.1960526
1.1974761
1.198619
1.1995094
1.2001811
1.2006703
1.2010131
1.201243
1.2013895
1.2014774
1.2015266
1.2015518
1.2015635
1.2015683
1.2015701
1.2015706
1.2015707
1.2015708
1.2015708
1.2015708
1.2015708
1.1178774
1.1194213
1.1210744
1.1228412
1.1247257
1.126732
1.1288633
1.1311226
1.1335119
1.1360325
1.1386846
1.1414673
1.1443778
1.1474118
1.1505623
1.1538196
1.1571707
1.1605986
1.1640818
1.1675939
1.171103
1.1745725
1.1779611
1.1812245
1.1843176
1.1871971
1.1898248
1.1921709
1.1942165
1.1959557
1.1973951
1.1985531
1.1994572
1.2001409
1.2006403
1.2009914
1.2012278
1.2013793
1.2014707
1.2015222
1.2015489
1.2015614
1.2015666
1.2015685
1.2015691
1.2015692
1.2015693
1.2015693
1.2015693
1.2015693
1.1177682
1.1193093
1.1209593
1.1227227
1.1246037
1.1266062
1.1287335
1.1309885
1.1333733
1.1358892
1.1385365
1.1413141
1.1442196
1.1472485
1.150394
1.1536465
1.1569933
1.1604176
1.163898
1.1674085
1.1709175
1.1743887
1.1777811
1.1810507
1.1841523
1.1870426
1.1896832
1.1920437
1.1941049
1.1958599
1.197315
1.1984878
1.1994054
1.2001009
1.2006103
1.2009697
1.2012126
1.2013689
1.2014639
1.2015177
1.2015459
1.2015592
1.2015648
1.2015669
1.2015676
1.2015677
1.2015678
1.2015678
1.2015678
1.2015678
1.1176616
1.1191998
1.1208468
1.1226069
1.1244845
1.1264833
1.1286067
1.1308575
1.1332379
1.1357493
1.1383918
1.1411645
1.144065
1.1470889
1.1502295
1.1534774
1.15682
1.1602406
1.1637183
1.1672271
1.170736
1.1742088
1.1776048
1.1808802
1.18399
1.1868908
1.1895438
1.1919184
1.1939947
1.1957653
1.1972357
1.1984231
1.1993539
1.2000611
1.2005804
1.2009479
1.2011972
1.2013585
1.201457
1.2015132
1.2015428
1.201557
1.201563
1.2015653
1.201566
1.2015662
1.2015663
1.2015663
1.2015663
1.2015663
1.1175574
1.1190928
1.1207368
1.1224938
1.124368
1.1263632
1.1284827
1.1307295
1.1331057
1.1356125
1.1382504
1.1410183
1.143914
1.1469329
1.1500687
1.1533121
1.1566505
1.1600675
1.1635424
1.1670496
1.1705582
1.1740325
1.1774319
1.180713
1.1838307
1.1867415
1.1894066
1.191795
1.193886
1.1956719
1.1971573
1.1983589
1.1993027
1.2000214
1.2005505
1.2009261
1.2011818
1.2013479
1.2014499
1.2015086
1.2015397
1.2015547
1.2015612
1.2015637
1.2015645
1.2015647
1.2015648
1.2015648
1.2015648
1.2015648
1.1174555
1.1189883
1.1206294
1.1223833
1.1242541
1.1262458
1.1283616
1.1306044
1.1329763
1.1354788
1.1381121
1.1408754
1.1437662
1.1467804
1.1499115
1.1531504
1.1564846
1.1598981
1.1633703
1.1668758
1.1703841
1.1738597
1.1772624
1.1805488
1.1836741
1.1865948
1.1892717
1.1916733
1.1937788
1.1955795
1.1970797
1.1982952
1.1992519
1.1999819
1.2005207
1.2009042
1.2011663
1.2013372
1.2014428
1.2015038
1.2015365
1.2015524
1.2015594
1.2015621
1.201563
1.2015632
1.2015633
1.2015633
1.2015633
1.2015633
1.1173558
1.118886
1.1205243
1.1222751
1.1241428
1.1261309
1.1282431
1.130482
1.1328499
1.135348
1.1379769
1.1407356
1.1436217
1.1466312
1.1497577
1.1529921
1.1563223
1.1597323
1.1632017
1.1667055
1.1702135
1.1736903
1.1770961
1.1803877
1.1835204
1.1864505
1.1891388
1.1915534
1.193673
1.1954883
1.1970028
1.1982321
1.1992014
1.1999426
1.2004909
1.2008823
1.2011507
1.2013265
1.2014356
1.2014991
1.2015333
1.2015501
1.2015576
1.2015605
1.2015614
1.2015617
1.2015618
1.2015618
1.2015618
1.2015618
1.1172583
1.1187859
1.1204214
1.1221693
1.1240338
1.1260186
1.1281271
1.1303622
1.1327261
1.1352201
1.1378445
1.1405987
1.1434803
1.1464852
1.1496071
1.1528372
1.1561634
1.1595699
1.1630366
1.1665387
1.1700462
1.1735241
1.1769329
1.1802295
1.1833692
1.1863085
1.1890079
1.1914353
1.1935686
1.1953981
1.1969268
1.1981696
1.1991513
1.1999034
1.2004612
1.2008604
1.2011351
1.2013156
1.2014282
1.2014942
1.20153
1.2015478
1.2015557
1.2015588
1.2015599
1.2015602
1.2015603
1.2015603
1.2015603
1.2015603
1.1171629
1.1186879
1.1203207
1.1220657
1.1239271
1.1259086
1.1280136
1.130245
1.1326049
1.1350948
1.137715
1.1404647
1.1433418
1.1463422
1.1494597
1.1526855
1.1560077
1.1594108
1.1628748
1.1663752
1.1698822
1.1733611
1.1767727
1.180074
1.1832206
1.1861689
1.1888791
1.1913187
1.1934654
1.1953089
1.1968515
1.1981076
1.1991015
1.1998645
1.2004316
1.2008385
1.2011194
1.2013047