/*--------------------------------*- C++ -*----------------------------------*\
| =========                 |                                                 |
| \\      /  F ield         | OpenFOAM: The Open Source CFD Toolbox           |
|  \\    /   O peration     | Version:  3.0.1                                 |
|   \\  /    A nd           | Web:      www.OpenFOAM.org                      |
|    \\/     M anipulation  |                                                 |
\*---------------------------------------------------------------------------*/
FoamFile
{
    version     2.0;
    format      ascii;
    class       volScalarField;
    location    "9000/fluid";
    object      rho;
}
// * * * * * * * * * * * * * * * * * * * * * * * * * * * * * * * * * * * * * //

dimensions      [1 -3 0 0 0 0 0];

internalField   nonuniform List<scalar> 
4000
(
1.151973
1.1675923
1.1795698
1.1880559
1.1936863
1.1972173
1.1993253
1.2005283
1.2011861
1.2015311
1.2017046
1.2017882
1.2018268
1.2018438
1.201851
1.2018538
1.2018549
1.2018553
1.2018555
1.2018555
1.2018555
1.2018555
1.2018555
1.2018555
1.2018555
1.2018555
1.2018555
1.2018555
1.2018555
1.2018555
1.2018555
1.2018555
1.2018555
1.2018555
1.2018555
1.2018555
1.2018555
1.2018555
1.2018555
1.2018555
1.1473614
1.1598202
1.1708135
1.1799866
1.1871692
1.1924475
1.1961001
1.1984898
1.1999729
1.2008481
1.2013398
1.201603
1.2017371
1.2018022
1.2018321
1.2018453
1.2018507
1.2018528
1.2018536
1.2018539
1.201854
1.201854
1.201854
1.201854
1.201854
1.201854
1.201854
1.201854
1.201854
1.201854
1.201854
1.201854
1.201854
1.201854
1.201854
1.201854
1.201854
1.201854
1.201854
1.201854
1.144551
1.155968
1.1662523
1.1752322
1.1827367
1.1886971
1.1931846
1.1963872
1.1985562
1.1999517
1.2008054
1.2013021
1.2015768
1.2017211
1.201793
1.201827
1.2018421
1.2018485
1.2018511
1.201852
1.2018524
1.2018525
1.2018525
1.2018525
1.2018525
1.2018525
1.2018525
1.2018525
1.2018525
1.2018525
1.2018525
1.2018525
1.2018525
1.2018525
1.2018525
1.2018525
1.2018525
1.2018525
1.2018525
1.2018525
1.1422765
1.1532298
1.163154
1.1719627
1.1795367
1.1857951
1.19074
1.1944671
1.1971445
1.198977
1.2001719
1.2009138
1.2013522
1.2015982
1.2017293
1.2017954
1.201827
1.2018412
1.2018472
1.2018497
1.2018506
1.2018509
1.201851
1.201851
1.201851
1.201851
1.201851
1.201851
1.201851
1.201851
1.201851
1.201851
1.201851
1.201851
1.201851
1.201851
1.201851
1.201851
1.201851
1.201851
1.1403676
1.1510534
1.1607663
1.1694609
1.1770526
1.1834696
1.188692
1.1927705
1.1958209
1.1980035
1.1994961
1.2004708
1.2010778
1.2014377
1.2016405
1.2017488
1.2018035
1.2018297
1.2018414
1.2018464
1.2018484
1.2018492
1.2018494
1.2018495
1.2018495
1.2018495
1.2018495
1.2018495
1.2018495
1.2018495
1.2018495
1.2018495
1.2018495
1.2018495
1.2018495
1.2018495
1.2018495
1.2018495
1.2018495
1.2018495
1.138749
1.1492498
1.158817
1.1674295
1.1750246
1.1815399
1.1869481
1.1912759
1.194607
1.1970691
1.1988146
1.1999999
1.2007697
1.2012469
1.2015287
1.2016868
1.2017708
1.201813
1.2018331
1.201842
1.2018457
1.2018472
1.2018478
1.2018479
1.201848
1.201848
1.201848
1.201848
1.201848
1.201848
1.201848
1.201848
1.201848
1.201848
1.201848
1.201848
1.201848
1.201848
1.201848
1.201848
1.1373663
1.1477223
1.1571755
1.1657217
1.1733129
1.1798945
1.185436
1.1899504
1.1934996
1.1961881
1.1981475
1.1995196
1.2004412
1.2010337
1.2013976
1.2016104
1.2017285
1.2017907
1.2018215
1.201836
1.2018423
1.201845
1.201846
1.2018464
1.2018465
1.2018465
1.2018465
1.2018465
1.2018465
1.2018465
1.2018465
1.2018465
1.2018465
1.2018465
1.2018465
1.2018465
1.2018465
1.2018465
1.2018465
1.2018465
1.1361763
1.1464097
1.1557661
1.1642537
1.1718355
1.1784632
1.1841048
1.1887641
1.192488
1.1953632
1.1975048
1.1990416
1.2001024
1.2008052
1.2012511
1.2015213
1.2016771
1.2017624
1.2018065
1.2018281
1.201838
1.2018423
1.201844
1.2018447
1.2018449
1.201845
1.201845
1.201845
1.201845
1.201845
1.201845
1.201845
1.201845
1.201845
1.201845
1.201845
1.201845
1.201845
1.201845
1.201845
1.135144
1.1452691
1.1545389
1.1629718
1.1705398
1.1771994
1.1829182
1.1876933
1.1915603
1.1945922
1.1968906
1.198573
1.1997605
1.2005671
1.2010931
1.2014215
1.2016173
1.2017282
1.2017878
1.2018181
1.2018326
1.2018391
1.2018418
1.2018429
1.2018433
1.2018435
1.2018435
1.2018435
1.2018435
1.2018435
1.2018435
1.2018435
1.2018435
1.2018435
1.2018435
1.2018435
1.2018435
1.2018435
1.2018435
1.2018435
1.1342414
1.144268
1.1534584
1.1618392
1.1693896
1.1760706
1.1818498
1.1867193
1.1907058
1.1938712
1.1963058
1.1981175
1.1994202
1.2003237
1.2009268
1.2013132
1.20155
1.2016885
1.2017654
1.2018058
1.2018259
1.2018352
1.2018394
1.201841
1.2018417
1.2018419
1.201842
1.201842
1.201842
1.201842
1.201842
1.201842
1.201842
1.201842
1.201842
1.201842
1.201842
1.201842
1.201842
1.201842
1.1334457
1.1433818
1.1524982
1.1608286
1.1683585
1.175053
1.1808798
1.1858272
1.1899149
1.1931955
1.1957497
1.197677
1.1990846
1.2000783
1.2007548
1.201198
1.2014764
1.2016436
1.2017392
1.2017911
1.2018178
1.2018306
1.2018365
1.201839
1.20184
1.2018403
1.2018405
1.2018405
1.2018405
1.2018405
1.2018405
1.2018405
1.2018405
1.2018405
1.2018405
1.2018405
1.2018405
1.2018405
1.2018405
1.2018405
1.1327389
1.142591
1.1516378
1.1599195
1.1674269
1.1741287
1.1799931
1.1850057
1.18918
1.192561
1.1952212
1.1972523
1.1987558
1.1998332
1.2005795
1.2010777
1.2013975
1.2015942
1.2017097
1.2017741
1.2018082
1.2018252
1.2018332
1.2018367
1.2018382
1.2018387
1.2018389
1.201839
1.201839
1.201839
1.201839
1.201839
1.201839
1.201839
1.201839
1.201839
1.201839
1.201839
1.201839
1.201839
1.1321064
1.14188
1.1508614
1.1590959
1.1665793
1.1732836
1.1791778
1.1842452
1.1884944
1.1919637
1.1947183
1.1968434
1.1984347
1.1995901
1.2004023
1.2009537
1.2013143
1.2015408
1.2016768
1.2017547
1.2017971
1.2018188
1.2018294
1.2018342
1.2018363
1.2018371
1.2018374
1.2018375
1.2018375
1.2018375
1.2018375
1.2018375
1.2018375
1.2018375
1.2018375
1.2018375
1.2018375
1.2018375
1.2018375
1.2018375
1.1315363
1.1412365
1.1501561
1.158345
1.1658035
1.1725066
1.1784243
1.183538
1.1878525
1.1914001
1.1942395
1.1964499
1.198122
1.1993501
1.2002246
1.200827
1.2012276
1.2014839
1.2016411
1.2017331
1.2017845
1.2018116
1.2018251
1.2018314
1.2018342
1.2018354
1.2018358
1.201836
1.201836
1.201836
1.201836
1.201836
1.201836
1.201836
1.201836
1.201836
1.201836
1.201836
1.201836
1.201836
1.131019
1.1406505
1.1495116
1.1576565
1.1650896
1.1717887
1.1777247
1.1828779
1.1872495
1.1908669
1.193783
1.1960713
1.1978181
1.199114
1.2000473
1.2006987
1.2011382
1.201424
1.2016027
1.2017095
1.2017703
1.2018033
1.2018202
1.2018283
1.201832
1.2018336
1.2018342
1.2018344
1.2018345
1.2018345
1.2018345
1.2018345
1.2018345
1.2018345
1.2018345
1.2018345
1.2018345
1.2018345
1.2018345
1.2018345
1.130547
1.1401137
1.1489194
1.1570221
1.1644295
1.1711223
1.1770725
1.1822595
1.1866815
1.1903614
1.193347
1.1957069
1.1975228
1.1988823
1.1998713
1.2005695
1.2010467
1.2013617
1.2015619
1.2016838
1.2017548
1.201794
1.2018146
1.2018248
1.2018296
1.2018317
1.2018325
1.2018329
1.201833
1.201833
1.201833
1.201833
1.201833
1.201833
1.201833
1.201833
1.201833
1.201833
1.201833
1.201833
1.1301137
1.1396195
1.1483728
1.1564347
1.1638165
1.1705013
1.1764624
1.1816784
1.186145
1.1898812
1.1929303
1.195356
1.1972362
1.1986552
1.1996969
1.2004399
1.2009537
1.2012974
1.2015191
1.2016564
1.2017378
1.2017838
1.2018085
1.201821
1.201827
1.2018297
1.2018308
1.2018313
1.2018315
1.2018315
1.2018315
1.2018315
1.2018315
1.2018315
1.2018315
1.2018315
1.2018315
1.2018315
1.2018315
1.2018315
1.129714
1.1391622
1.1478658
1.1558886
1.163245
1.1699206
1.1758897
1.1811306
1.1856369
1.1894241
1.1925312
1.1950179
1.196958
1.1984329
1.1995247
1.2003105
1.2008597
1.2012314
1.2014744
1.2016273
1.2017195
1.2017726
1.2018017
1.2018168
1.2018242
1.2018276
1.2018291
1.2018297
1.2018299
1.20183
1.20183
1.20183
1.20183
1.20183
1.20183
1.20183
1.20183
1.20183
1.20183
1.20183
1.1293435
1.1387374
1.1473936
1.1553789
1.1627104
1.1693757
1.1753505
1.1806129
1.1851546
1.1889881
1.1921486
1.1946917
1.1966879
1.1982156
1.1993548
1.2001817
1.200765
1.2011641
1.2014283
1.2015968
1.2017
1.2017605
1.2017943
1.2018122
1.2018212
1.2018254
1.2018273
1.2018281
1.2018284
1.2018285
1.2018285
1.2018285
1.2018285
1.2018285
1.2018285
1.2018285
1.2018285
1.2018285
1.2018285
1.2018285
1.1289987
1.1383411
1.1469524
1.1549016
1.1622085
1.1688628
1.1748415
1.1801225
1.1846959
1.1885716
1.1917814
1.194377
1.1964256
1.1980031
1.1991874
1.2000536
1.20067
1.2010958
1.2013808
1.2015649
1.2016793
1.2017475
1.2017863
1.2018072
1.2018179
1.2018231
1.2018254
1.2018264
1.2018268
1.201827
1.201827
1.201827
1.201827
1.201827
1.201827
1.201827
1.201827
1.201827
1.201827
1.201827
1.1286764
1.13797
1.1465385
1.1544531
1.1617359
1.1683788
1.1743598
1.1796568
1.1842588
1.1881731
1.1914283
1.1940729
1.1961709
1.1977955
1.1990227
1.1999266
1.2005749
1.2010267
1.2013322
1.2015319
1.2016576
1.2017336
1.2017776
1.2018017
1.2018144
1.2018206
1.2018235
1.2018247
1.2018252
1.2018254
1.2018255
1.2018255
1.2018255
1.2018255
1.2018255
1.2018255
1.2018255
1.2018255
1.2018255
1.2018255
1.1283742
1.1376214
1.1461491
1.1540305
1.1612898
1.1679208
1.1739027
1.1792136
1.1838414
1.1877911
1.1910885
1.193779
1.1959234
1.1975926
1.1988608
1.1998009
1.2004799
1.2009571
1.2012827
1.2014978
1.2016349
1.201719
1.2017683
1.2017959
1.2018105
1.2018179
1.2018214
1.201823
1.2018236
1.2018239
1.201824
1.201824
1.201824
1.201824
1.201824
1.201824
1.201824
1.201824
1.201824
1.201824
1.1280898
1.1372929
1.1457817
1.1536312
1.1608675
1.1674864
1.1734682
1.1787911
1.1834422
1.1874245
1.1907611
1.1934945
1.1956828
1.1973944
1.1987017
1.1996765
1.2003852
1.2008871
1.2012325
1.2014629
1.2016114
1.2017036
1.2017584
1.2017896
1.2018065
1.2018151
1.2018193
1.2018212
1.201822
1.2018224
1.2018225
1.2018225
1.2018225
1.2018225
1.2018225
1.2018225
1.2018225
1.2018225
1.2018225
1.2018225
1.1278215
1.1369825
1.1454341
1.1532529
1.1604669
1.1670735
1.1730542
1.1783876
1.1830597
1.1870721
1.1904453
1.1932191
1.1954488
1.1972006
1.1985454
1.1995535
1.200291
1.2008169
1.2011816
1.2014271
1.201587
1.2016874
1.201748
1.2017829
1.2018021
1.2018121
1.2018171
1.2018194
1.2018204
1.2018208
1.201821
1.201821
1.201821
1.201821
1.201821
1.201821
1.201821
1.201821
1.201821
1.201821
1.1275675
1.1366885
1.1451045
1.1528937
1.1600859
1.1666802
1.1726591
1.1780015
1.1826928
1.186733
1.1901404
1.1929521
1.1952211
1.1970113
1.1983918
1.199432
1.2001974
1.2007466
1.2011302
1.2013907
1.2015619
1.2016706
1.201737
1.2017758
1.2017975
1.201809
1.2018147
1.2018175
1.2018187
1.2018192
1.2018194
1.2018195
1.2018195
1.2018195
1.2018195
1.2018195
1.2018195
1.2018195
1.2018195
1.2018195
1.1273266
1.1364093
1.1447912
1.152552
1.159723
1.1663049
1.1722814
1.1776315
1.1823403
1.1864062
1.1898456
1.1926931
1.1949994
1.1968262
1.198241
1.1993122
1.2001044
1.2006763
1.2010785
1.2013537
1.2015362
1.2016532
1.2017255
1.2017683
1.2017926
1.2018056
1.2018123
1.2018155
1.201817
1.2018176
1.2018179
1.201818
1.201818
1.201818
1.201818
1.201818
1.201818
1.201818
1.201818
1.201818
1.1270976
1.1361436
1.1444928
1.1522261
1.1593766
1.1659462
1.1719196
1.1772764
1.1820011
1.186091
1.1895604
1.1924418
1.1947834
1.1966451
1.1980929
1.1991939
1.2000122
1.2006061
1.2010266
1.2013162
1.2015099
1.2016353
1.2017135
1.2017605
1.2017874
1.2018021
1.2018098
1.2018135
1.2018153
1.201816
1.2018164
1.2018165
1.2018165
1.2018165
1.2018165
1.2018165
1.2018165
1.2018165
1.2018165
1.2018165
1.1268794
1.1358902
1.144208
1.1519149
1.1590454
1.1656027
1.1715726
1.1769352
1.1816745
1.1857866
1.1892842
1.1921976
1.1945729
1.1964681
1.1979475
1.1990772
1.1999208
1.2005362
1.2009744
1.2012783
1.201483
1.2016168
1.2017011
1.2017522
1.2017819
1.2017984
1.2018071
1.2018114
1.2018135
1.2018144
1.2018148
1.201815
1.201815
1.201815
1.201815
1.201815
1.201815
1.201815
1.201815
1.201815
1.1266711
1.1356481
1.1439358
1.1516172
1.1587281
1.1652733
1.1712394
1.1766068
1.1813594
1.1854923
1.1890164
1.1919602
1.1943677
1.1962948
1.1978046
1.1989621
1.1998302
1.2004666
1.2009221
1.20124
1.2014558
1.2015978
1.2016882
1.2017436
1.2017762
1.2017945
1.2018043
1.2018093
1.2018117
1.2018128
1.2018132
1.2018134
1.2018135
1.2018135
1.2018135
1.2018135
1.2018135
1.2018135
1.2018135
1.2018135
1.1264719
1.1354165
1.1436751
1.1513319
1.1584238
1.1649569
1.1709189
1.1762904
1.1810553
1.1852076
1.1887567
1.1917293
1.1941674
1.1961252
1.1976644
1.1988487
1.1997405
1.2003973
1.2008698
1.2012015
1.2014281
1.2015784
1.2016749
1.2017347
1.2017702
1.2017904
1.2018014
1.2018071
1.2018098
1.2018111
1.2018117
1.2018119
1.201812
1.201812
1.201812
1.201812
1.201812
1.201812
1.201812
1.201812
1.1262811
1.1351945
1.1434251
1.151058
1.1581316
1.1646527
1.1706102
1.1759853
1.1807614
1.1849317
1.1885045
1.1915045
1.1939719
1.1959592
1.1975265
1.1987368
1.1996517
1.2003283
1.2008175
1.2011627
1.2014001
1.2015586
1.2016613
1.2017254
1.201764
1.2017862
1.2017984
1.2018048
1.2018079
1.2018094
1.2018101
1.2018104
1.2018105
1.2018105
1.2018105
1.2018105
1.2018105
1.2018105
1.2018105
1.2018105
1.126098
1.1349814
1.1431849
1.1507949
1.1578504
1.1643598
1.1703126
1.1756906
1.180477
1.1846644
1.1882595
1.1912855
1.1937809
1.1957966
1.1973911
1.1986266
1.1995638
1.2002598
1.2007653
1.2011238
1.2013717
1.2015385
1.2016473
1.2017158
1.2017575
1.2017817
1.2017952
1.2018024
1.201806
1.2018077
1.2018085
1.2018088
1.201809
1.201809
1.201809
1.201809
1.201809
1.201809
1.201809
1.201809
1.1259221
1.1347765
1.142954
1.1505416
1.1575797
1.1640775
1.1700254
1.1754058
1.1802016
1.184405
1.1880213
1.1910721
1.1935944
1.1956372
1.1972581
1.1985179
1.1994769
1.2001918
1.2007131
1.2010847
1.2013431
1.201518
1.2016329
1.201706
1.2017508
1.2017771
1.201792
1.2017999
1.201804
1.201806
1.2018069
1.2018073
1.2018074
1.2018075
1.2018075
1.2018075
1.2018075
1.2018075
1.2018075
1.2018075
1.1257529
1.1345793
1.1427317
1.1502977
1.1573187
1.163805
1.1697479
1.1751302
1.1799348
1.1841531
1.1877895
1.190864
1.193412
1.195481
1.1971273
1.1984107
1.1993909
1.2001242
1.2006611
1.2010456
1.2013143
1.2014972
1.2016183
1.2016958
1.2017438
1.2017723
1.2017886
1.2017974
1.201802
1.2018042
1.2018053
1.2018057
1.2018059
1.201806
1.201806
1.201806
1.201806
1.201806
1.201806
1.201806
1.1255899
1.1343893
1.1425173
1.1500623
1.1570667
1.1635418
1.1694796
1.1748632
1.1796759
1.1839083
1.1875638
1.190661
1.1932336
1.1953279
1.1969987
1.198305
1.1993059
1.2000571
1.2006093
1.2010064
1.2012853
1.2014762
1.2016034
1.2016854
1.2017366
1.2017673
1.201785
1.2017948
1.2017999
1.2018024
1.2018036
1.2018042
1.2018044
1.2018045
1.2018045
1.2018045
1.2018045
1.2018045
1.2018045
1.2018045
1.1254327
1.134206
1.1423104
1.1498351
1.1568233
1.1632872
1.1692198
1.1746045
1.1794247
1.1836703
1.1873439
1.1904627
1.1930591
1.1951777
1.1968723
1.1982008
1.1992217
1.1999906
1.2005577
1.2009672
1.2012561
1.201455
1.2015882
1.2016748
1.2017292
1.2017622
1.2017814
1.2017921
1.2017977
1.2018006
1.201802
1.2018026
1.2018029
1.201803
1.201803
1.201803
1.201803
1.201803
1.201803
1.201803
1.125281
1.134029
1.1421105
1.1496154
1.1565878
1.1630408
1.1689681
1.1743536
1.1791806
1.1834387
1.1871295
1.1902691
1.1928882
1.1950304
1.196748
1.1980981
1.1991386
1.1999246
1.2005063
1.200928
1.2012268
1.2014335
1.2015728
1.2016639
1.2017216
1.2017569
1.2017776
1.2017893
1.2017955
1.2017987
1.2018003
1.201801
1.2018013
1.2018015
1.2018015
1.2018015
1.2018015
1.2018015
1.2018015
1.2018015
1.1251343
1.1338578
1.1419172
1.1494029
1.1563599
1.1628021
1.168724
1.1741099
1.1789432
1.1832132
1.1869204
1.1900798
1.1927209
1.1948858
1.1966257
1.1979968
1.1990563
1.1998591
1.2004552
1.2008888
1.2011974
1.2014119
1.2015571
1.2016528
1.2017138
1.2017514
1.2017737
1.2017864
1.2017933
1.2017968
1.2017986
1.2017994
1.2017998
1.2017999
1.2018
1.2018
1.2018
1.2018
1.2018
1.2018
1.1249925
1.1336922
1.14173
1.1491971
1.1561391
1.1625707
1.1684871
1.1738732
1.1787123
1.1829934
1.1867163
1.1898948
1.192557
1.1947438
1.1965054
1.1978969
1.198975
1.1997941
1.2004043
1.2008497
1.2011679
1.20139
1.2015413
1.2016415
1.2017058
1.2017458
1.2017697
1.2017834
1.201791
1.2017949
1.2017969
1.2017978
1.2017982
1.2017984
1.2017985
1.2017985
1.2017985
1.2017985
1.2017985
1.2017985
1.1248551
1.1335317
1.1415487
1.1489977
1.1559249
1.1623461
1.168257
1.173643
1.1784875
1.1827792
1.186517
1.1897138
1.1923964
1.1946044
1.196387
1.1977984
1.1988946
1.1997297
1.2003537
1.2008107
1.2011384
1.2013681
1.2015253
1.20163
1.2016977
1.20174
1.2017656
1.2017804
1.2017886
1.2017929
1.2017951
1.2017962
1.2017967
1.2017969
1.201797
1.201797
1.201797
1.201797
1.201797
1.201797
1.124722
1.1333762
1.1413729
1.1488042
1.1557171
1.162128
1.1680334
1.1734191
1.1782686
1.1825702
1.1863223
1.1895366
1.1922389
1.1944675
1.1962704
1.1977011
1.198815
1.1996659
1.2003034
1.2007717
1.2011088
1.201346
1.2015091
1.2016183
1.2016894
1.2017341
1.2017613
1.2017772
1.2017862
1.2017909
1.2017934
1.2017946
1.2017951
1.2017954
1.2017955
1.2017955
1.2017955
1.2017955
1.2017955
1.2017955
1.1245929
1.1332253
1.1412023
1.1486164
1.1555152
1.161916
1.1678159
1.173201
1.1780552
1.1823662
1.186132
1.1893632
1.1920844
1.1943329
1.1961556
1.1976052
1.1987364
1.1996026
1.2002534
1.2007329
1.2010792
1.2013238
1.2014928
1.2016065
1.2016809
1.2017281
1.201757
1.201774
1.2017837
1.2017889
1.2017916
1.2017929
1.2017935
1.2017938
1.2017939
1.201794
1.201794
1.201794
1.201794
1.201794
1.1244675
1.1330789
1.1410366
1.1484339
1.1553191
1.1617099
1.1676042
1.1729886
1.177847
1.1821671
1.1859459
1.1891933
1.1919328
1.1942007
1.1960426
1.1975106
1.1986586
1.1995399
1.2002037
1.2006942
1.2010495
1.2013016
1.2014763
1.2015945
1.2016722
1.2017219
1.2017525
1.2017707
1.2017811
1.2017868
1.2017898
1.2017913
1.201792
1.2017923
1.2017924
1.2017925
1.2017925
1.2017925
1.2017925
1.2017925
1.1243458
1.1329365
1.1408756
1.1482565
1.1551283
1.1615093
1.167398
1.1727816
1.1776439
1.1819724
1.1857638
1.1890268
1.1917841
1.1940706
1.1959313
1.1974172
1.1985817
1.1994777
1.2001543
1.2006557
1.2010199
1.2012792
1.2014597
1.2015823
1.2016634
1.2017155
1.2017479
1.2017673
1.2017785
1.2017847
1.2017879
1.2017896
1.2017904
1.2017908
1.2017909
1.201791
1.201791
1.201791
1.201791
1.201791
1.1242275
1.1327982
1.140719
1.1480839
1.1549426
1.161314
1.1671972
1.1725797
1.1774456
1.1817822
1.1855855
1.1888636
1.191638
1.1939427
1.1958216
1.197325
1.1985057
1.1994161
1.2001052
1.2006172
1.2009903
1.2012568
1.201443
1.2015701
1.2016545
1.2017091
1.2017432
1.2017638
1.2017758
1.2017825
1.2017861
1.2017879
1.2017888
1.2017892
1.2017894
1.2017895
1.2017895
1.2017895
1.2017895
1.2017895
1.1241123
1.1326635
1.1405666
1.147916
1.1547617
1.1611237
1.1670013
1.1723827
1.1772519
1.1815962
1.185411
1.1887036
1.1914946
1.1938169
1.1957136
1.1972339
1.1984304
1.199355
1.2000565
1.200579
1.2009608
1.2012343
1.2014262
1.2015576
1.2016455
1.2017025
1.2017384
1.2017603
1.2017731
1.2017803
1.2017842
1.2017862
1.2017872
1.2017877
1.2017879
1.201788
1.201788
1.201788
1.201788
1.201788
1.1240003
1.1325324
1.1404182
1.1477523
1.1545855
1.1609381
1.1668102
1.1721903
1.1770626
1.1814142
1.18524
1.1885466
1.1913537
1.1936931
1.1956071
1.1971441
1.198356
1.1992945
1.200008
1.2005408
1.2009313
1.2012118
1.2014093
1.2015451
1.2016363
1.2016958
1.2017336
1.2017567
1.2017703
1.2017781
1.2017823
1.2017845
1.2017856
1.2017861
1.2017863
1.2017864
1.2017865
1.2017865
1.2017865
1.2017865
1.1238912
1.1324047
1.1402736
1.1475929
1.1544138
1.1607572
1.1666238
1.1720024
1.1768775
1.181236
1.1850724
1.1883925
1.1912152
1.1935713
1.1955021
1.1970553
1.1982824
1.1992344
1.1999599
1.2005029
1.2009018
1.2011893
1.2013923
1.2015325
1.201627
1.2016891
1.2017286
1.201753
1.2017675
1.2017758
1.2017803
1.2017827
1.201784
1.2017845
1.2017848
1.2017849
1.201785
1.201785
1.201785
1.201785
1.1237848
1.1322803
1.1401326
1.1474374
1.1542462
1.1605805
1.1664417
1.1718187
1.1766965
1.1810616
1.1849081
1.1882413
1.191079
1.1934514
1.1953985
1.1969677
1.1982096
1.199175
1.1999122
1.2004651
1.2008724
1.2011668
1.2013753
1.2015198
1.2016176
1.2016822
1.2017235
1.2017492
1.2017646
1.2017734
1.2017784
1.201781
1.2017823
1.201783
1.2017833
1.2017834
1.2017835
1.2017835
1.2017835
1.2017835
1.1236811
1.1321589
1.1399951
1.1472857
1.1540826
1.1604081
1.1662637
1.1716392
1.1765193
1.1808907
1.184747
1.1880928
1.1909452
1.1933333
1.1952964
1.1968812
1.1981375
1.199116
1.1998647
1.2004275
1.2008431
1.2011442
1.2013581
1.201507
1.2016081
1.2016752
1.2017184
1.2017453
1.2017616
1.2017711
1.2017764
1.2017792
1.2017807
1.2017814
1.2017817
1.2017819
1.201782
1.201782
1.201782
1.201782
1.12358
1.1320405
1.1398609
1.1471376
1.1539229
1.1602396
1.1660898
1.1714636
1.1763458
1.1807232
1.1845889
1.187947
1.1908135
1.1932169
1.1951957
1.1967956
1.1980662
1.1990576
1.1998176
1.2003901
1.2008138
1.2011216
1.201341
1.2014941
1.2015985
1.2016681
1.2017131
1.2017414
1.2017586
1.2017686
1.2017743
1.2017774
1.201779
1.2017798
1.2017802
1.2017804
1.2017805
1.2017805
1.2017805
1.2017805
1.1234812
1.1319248
1.1397299
1.1469929
1.1537669
1.1600749
1.1659198
1.1712917
1.176176
1.180559
1.1844338
1.1878036
1.190684
1.1931023
1.1950964
1.1967111
1.1979957
1.1989997
1.1997708
1.2003529
1.2007846
1.2010991
1.2013238
1.2014811
1.2015889
1.2016609
1.2017078
1.2017374
1.2017555
1.2017662
1.2017723
1.2017756
1.2017773
1.2017782
1.2017786
1.2017788
1.2017789
1.201779
1.201779
1.201779
1.1233848
1.1318119
1.1396019
1.1468516
1.1536144
1.1599139
1.1657534
1.1711234
1.1760095
1.180398
1.1842815
1.1876628
1.1905565
1.1929894
1.1949983
1.1966277
1.1979258
1.1989422
1.1997243
1.2003159
1.2007555
1.2010765
1.2013065
1.2014681
1.2015791
1.2016536
1.2017024
1.2017333
1.2017524
1.2017637
1.2017702
1.2017738
1.2017757
1.2017766
1.2017771
1.2017773
1.2017774
1.2017775
1.2017775
1.2017775
1.1232906
1.1317015
1.1394768
1.1467134
1.1534653
1.1597564
1.1655905
1.1709587
1.1758464
1.18024
1.1841319
1.1875243
1.190431
1.1928781
1.1949016
1.1965451
1.1978567
1.1988853
1.1996782
1.200279
1.2007265
1.201054
1.2012892
1.201455
1.2015693
1.2016463
1.2016969
1.2017292
1.2017492
1.2017611
1.2017681
1.2017719
1.201774
1.201775
1.2017755
1.2017758
1.2017759
1.201776
1.201776
1.201776
1.1231985
1.1315936
1.1393545
1.1465783
1.1533194
1.1596023
1.1654311
1.1707972
1.1756864
1.180085
1.183985
1.1873881
1.1903075
1.1927684
1.194806
1.1964636
1.1977883
1.1988289
1.1996324
1.2002424
1.2006976
1.2010315
1.2012719
1.2014418
1.2015593
1.2016389
1.2016913
1.201725
1.2017459
1.2017586
1.2017659
1.20177
1.2017722
1.2017734
1.201774
1.2017743
1.2017744
1.2017744
1.2017745
1.2017745
1.1231084
1.1314881
1.1392348
1.1464461
1.1531767
1.1594514
1.1652749
1.170639
1.1755295
1.1799329
1.1838407
1.1872541
1.1901858
1.1926602
1.1947118
1.1963829
1.1977206
1.1987729
1.1995869
1.2002059
1.2006688
1.201009
1.2012546
1.2014286
1.2015494
1.2016313
1.2016857
1.2017207
1.2017426
1.2017559
1.2017637
1.2017681
1.2017705
1.2017718
1.2017724
1.2017727
1.2017729
1.2017729
1.201773
1.201773
1.1230203
1.1313849
1.1391177
1.1463167
1.1530369
1.1593036
1.1651219
1.1704838
1.1753756
1.1797834
1.1836988
1.1871223
1.190066
1.1925535
1.1946186
1.1963032
1.1976535
1.1987175
1.1995417
1.2001696
1.20064
1.2009865
1.2012372
1.2014153
1.2015393
1.2016238
1.20168
1.2017164
1.2017393
1.2017533
1.2017615
1.2017662
1.2017688
1.2017701
1.2017708
1.2017712
1.2017713
1.2017714
1.2017715
1.2017715
1.1229341
1.1312838
1.1390031
1.14619
1.1529
1.1591588
1.1649719
1.1703317
1.1752245
1.1796366
1.1835593
1.1869926
1.1899479
1.1924482
1.1945267
1.1962244
1.1975871
1.1986625
1.1994968
1.2001336
1.2006114
1.2009641
1.2012199
1.201402
1.2015292
1.2016161
1.2016742
1.201712
1.2017359
1.2017506
1.2017593
1.2017643
1.201767
1.2017685
1.2017693
1.2017696
1.2017698
1.2017699
1.2017699
1.2017699
1.1228496
1.1311848
1.1388908
1.1460659
1.1527659
1.1590169
1.1648248
1.1701824
1.1750762
1.1794924
1.1834221
1.1868648
1.1898316
1.1923444
1.1944359
1.1961464
1.1975214
1.1986079
1.1994523
1.2000977
1.2005829
1.2009417
1.2012025
1.2013887
1.201519
1.2016084
1.2016684
1.2017075
1.2017324
1.2017478
1.201757
1.2017623
1.2017653
1.2017668
1.2017677
1.2017681
1.2017683
1.2017684
1.2017684
1.2017684
1.1227669
1.1310879
1.1387808
1.1459443
1.1526344
1.1588778
1.1646805
1.1700359
1.1749306
1.1793507
1.1832871
1.1867391
1.1897169
1.1922419
1.1943461
1.1960693
1.1974563
1.1985539
1.1994081
1.200062
1.2005545
1.2009194
1.2011851
1.2013753
1.2015088
1.2016007
1.2016625
1.201703
1.2017289
1.201745
1.2017547
1.2017603
1.2017635
1.2017652
1.2017661
1.2017665
1.2017668
1.2017669
1.2017669
1.2017669
1.1226859
1.1309928
1.138673
1.1458251
1.1525055
1.1587413
1.164539
1.1698921
1.1747875
1.1792113
1.1831543
1.1866152
1.1896038
1.1921408
1.1942575
1.195993
1.1973918
1.1985002
1.1993641
1.2000265
1.2005262
1.2008971
1.2011678
1.2013619
1.2014985
1.2015928
1.2016565
1.2016985
1.2017254
1.2017422
1.2017524
1.2017583
1.2017617
1.2017635
1.2017645
1.201765
1.2017652
1.2017653
1.2017654
1.2017654
1.1226065
1.1308997
1.1385673
1.1457082
1.1523791
1.1586074
1.1644
1.1697508
1.1746469
1.1790743
1.1830236
1.1864932
1.1894923
1.192041
1.1941699
1.1959175
1.1973279
1.198447
1.1993205
1.1999912
1.200498
1.2008748
1.2011504
1.2013484
1.2014882
1.201585
1.2016505
1.2016939
1.2017218
1.2017393
1.20175
1.2017563
1.2017599
1.2017618
1.2017629
1.2017634
1.2017637
1.2017638
1.2017639
1.2017639
1.1225286
1.1308084
1.1384637
1.1455936
1.1522551
1.158476
1.1642636
1.1696121
1.1745087
1.1789395
1.1828949
1.186373
1.1893823
1.1919424
1.1940833
1.1958429
1.1972646
1.1983943
1.1992772
1.1999561
1.20047
1.2008527
1.201133
1.201335
1.2014779
1.201577
1.2016444
1.2016892
1.2017182
1.2017364
1.2017476
1.2017542
1.201758
1.2017601
1.2017613
1.2017619
1.2017622
1.2017623
1.2017624
1.2017624
1.1224522
1.1307188
1.138362
1.145481
1.1521334
1.158347
1.1641297
1.1694758
1.1743728
1.1788069
1.1827683
1.1862546
1.1892738
1.1918451
1.1939977
1.195769
1.1972019
1.1983419
1.1992341
1.1999212
1.200442
1.2008305
1.2011157
1.2013215
1.2014675
1.2015691
1.2016383
1.2016845
1.2017145
1.2017335
1.2017452
1.2017521
1.2017562
1.2017584
1.2017596
1.2017603
1.2017606
1.2017608
1.2017608
1.2017608
1.1223772
1.1306309
1.1382622
1.1453706
1.1520139
1.1582203
1.163998
1.1693418
1.1742392
1.1786764
1.1826435
1.1861378
1.1891668
1.191749
1.193913
1.1956958
1.1971398
1.19829
1.1991914
1.1998865
1.2004142
1.2008084
1.2010983
1.201308
1.2014571
1.201561
1.2016321
1.2016797
1.2017108
1.2017305
1.2017427
1.20175
1.2017543
1.2017567
1.201758
1.2017587
1.2017591
1.2017592
1.2017593
1.2017593
1.1223037
1.1305446
1.1381642
1.1452622
1.1518965
1.1580959
1.1638687
1.1692101
1.1741077
1.178548
1.1825206
1.1860227
1.1890612
1.1916541
1.1938294
1.1956234
1.1970783
1.1982385
1.1991489
1.199852
1.2003864
1.2007864
1.201081
1.2012945
1.2014466
1.201553
1.2016259
1.2016749
1.201707
1.2017275
1.2017402
1.2017479
1.2017524
1.201755
1.2017564
1.2017571
1.2017575
1.2017577
1.2017578
1.2017578
1.1222315
1.1304598
1.138068
1.1451557
1.1517812
1.1579736
1.1637416
1.1690805
1.1739784
1.1784215
1.1823995
1.1859091
1.1889569
1.1915603
1.1937466
1.1955518
1.1970173
1.1981874
1.1991068
1.1998177
1.2003588
1.2007644
1.2010637
1.201281
1.2014361
1.2015449
1.2016197
1.20167
1.2017032
1.2017244
1.2017377
1.2017458
1.2017505
1.2017532
1.2017547
1.2017555
1.201756
1.2017562
1.2017562
1.2017563
1.1221606
1.1303766
1.1379735
1.1450511
1.151668
1.1578535
1.1636166
1.1689531
1.1738511
1.178297
1.1822802
1.1857971
1.188854
1.1914676
1.1936648
1.1954808
1.1969568
1.1981367
1.1990649
1.1997835
1.2003313
1.2007425
1.2010464
1.2012675
1.2014256
1.2015367
1.2016134
1.2016651
1.2016993
1.2017214
1.2017352
1.2017436
1.2017486
1.2017515
1.2017531
1.2017539
1.2017544
1.2017546
1.2017547
1.2017547
1.1220909
1.1302949
1.1378807
1.1449484
1.1515567
1.1577353
1.1634937
1.1688278
1.1737258
1.1781743
1.1821625
1.1856867
1.1887524
1.191376
1.1935838
1.1954106
1.1968969
1.1980864
1.1990233
1.1997496
1.200304
1.2007207
1.2010292
1.2012539
1.201415
1.2015285
1.201607
1.2016602
1.2016954
1.2017182
1.2017326
1.2017414
1.2017467
1.2017497
1.2017514
1.2017523
1.2017528
1.2017531
1.2017532
1.2017532
1.1220224
1.1302145
1.1377894
1.1448473
1.1514472
1.1576192
1.1633729
1.1687044
1.1736025
1.1780535
1.1820466
1.1855777
1.1886521
1.1912855
1.1935037
1.195341
1.1968375
1.1980365
1.198982
1.1997158
1.2002767
1.2006989
1.2010119
1.2012404
1.2014045
1.2015203
1.2016006
1.2016552
1.2016915
1.2017151
1.20173
1.2017392
1.2017447
1.2017479
1.2017497
1.2017507
1.2017513
1.2017515
1.2017516
1.2017517
1.1219552
1.1301356
1.1376997
1.144748
1.1513396
1.1575049
1.1632539
1.168583
1.173481
1.1779344
1.1819322
1.1854701
1.188553
1.191196
1.1934245
1.1952721
1.1967786
1.197987
1.1989409
1.1996822
1.2002496
1.2006772
1.2009947
1.2012269
1.2013939
1.2015121
1.2015942
1.2016502
1.2016875
1.2017119
1.2017274
1.201737
1.2017427
1.2017461
1.2017481
1.2017491
1.2017497
1.20175
1.2017501
1.2017501
1.121889
1.1300579
1.1376115
1.1446503
1.1512338
1.1573925
1.1631369
1.1684635
1.1733613
1.177817
1.1818194
1.185364
1.1884551
1.1911076
1.1933461
1.1952038
1.1967202
1.1979379
1.1989001
1.1996488
1.2002225
1.2006556
1.2009775
1.2012133
1.2013833
1.2015038
1.2015878
1.2016451
1.2016835
1.2017087
1.2017247
1.2017347
1.2017408
1.2017443
1.2017464
1.2017475
1.2017481
1.2017484
1.2017485
1.2017486
1.121824
1.1299816
1.1375248
1.1445543
1.1511297
1.1572819
1.1630217
1.1683458
1.1732435
1.1777013
1.1817082
1.1852592
1.1883584
1.1910201
1.1932685
1.1951362
1.1966623
1.1978891
1.1988596
1.1996156
1.2001956
1.200634
1.2009604
1.2011998
1.2013727
1.2014955
1.2015813
1.20164
1.2016795
1.2017054
1.201722
1.2017324
1.2017387
1.2017425
1.2017447
1.2017459
1.2017465
1.2017468
1.201747
1.201747
1.12176
1.1299065
1.1374395
1.1444597
1.1510272
1.1571731
1.1629082
1.1682299
1.1731273
1.1775872
1.1815984
1.1851557
1.1882629
1.1909336
1.1931917
1.1950693
1.1966049
1.1978407
1.1988194
1.1995826
1.2001688
1.2006125
1.2009433
1.2011863
1.201362
1.2014872
1.2015747
1.2016349
1.2016754
1.2017021
1.2017193
1.2017301
1.2017367
1.2017407
1.2017429
1.2017442
1.2017449
1.2017453
1.2017454
1.2017455
1.1216971
1.1298326
1.1373555
1.1443667
1.1509264
1.1570659
1.1627965
1.1681156
1.1730128
1.1774747
1.1814901