/*--------------------------------*- C++ -*----------------------------------*\
| =========                 |                                                 |
| \\      /  F ield         | OpenFOAM: The Open Source CFD Toolbox           |
|  \\    /   O peration     | Version:  3.0.1                                 |
|   \\  /    A nd           | Web:      www.OpenFOAM.org                      |
|    \\/     M anipulation  |                                                 |
\*---------------------------------------------------------------------------*/
FoamFile
{
    version     2.0;
    format      ascii;
    class       volScalarField;
    location    "9000/fluid";
    object      T;
}
// * * * * * * * * * * * * * * * * * * * * * * * * * * * * * * * * * * * * * //

dimensions      [0 0 0 1 0 0 0];

internalField   nonuniform List<scalar> 
4000
(
306.4176
302.31852
299.24877
297.11126
295.70986
294.83769
294.31947
294.02455
293.86354
293.77917
293.73675
293.71631
293.70688
293.70272
293.70097
293.70027
293.7
293.6999
293.69987
293.69986
293.69986
293.69986
293.69986
293.69986
293.69986
293.69986
293.69986
293.69986
293.69986
293.69986
293.69986
293.69986
293.69986
293.69986
293.69986
293.69986
293.69986
293.69986
293.69986
293.69987
307.64866
304.34388
301.48626
299.14254
297.33267
296.01654
295.11256
294.52413
294.16013
293.94574
293.82542
293.76106
293.72828
293.71238
293.70506
293.70185
293.70052
293.7
293.69981
293.69974
293.69972
293.69971
293.69971
293.69971
293.69971
293.69971
293.69971
293.69971
293.69971
293.69971
293.69971
293.69971
293.69971
293.69971
293.69971
293.69971
293.69971
293.69971
293.69972
293.69972
308.40352
305.35756
302.66483
300.35218
298.44645
296.94998
295.83316
295.04124
294.50732
294.16481
293.95567
293.83413
293.76696
293.73169
293.71411
293.70581
293.70211
293.70054
293.69992
293.69969
293.6996
293.69957
293.69957
293.69956
293.69956
293.69956
293.69956
293.69956
293.69956
293.69956
293.69956
293.69956
293.69956
293.69956
293.69956
293.69957
293.69957
293.69957
293.69957
293.69957
309.01709
306.08207
303.47051
301.18959
299.25558
297.67618
296.43998
295.51499
294.85409
294.40344
294.11032
293.92862
293.82138
293.76121
293.72917
293.71301
293.70529
293.70182
293.70034
293.69975
293.69953
293.69945
293.69943
293.69942
293.69942
293.69942
293.69942
293.69942
293.69942
293.69942
293.69942
293.69942
293.69942
293.69942
293.69942
293.69942
293.69942
293.69942
293.69943
293.69943
309.53382
306.66026
304.09423
301.83338
299.88662
298.26058
296.95019
295.93483
295.17994
294.64216
294.27551
294.03657
293.88797
293.79994
293.75037
293.72389
293.71051
293.70412
293.70125
293.70003
293.69954
293.69936
293.6993
293.69928
293.69927
293.69927
293.69927
293.69927
293.69927
293.69927
293.69927
293.69927
293.69927
293.69927
293.69927
293.69927
293.69927
293.69928
293.69928
293.69928
309.97325
307.14098
304.60523
302.35805
300.40368
298.74717
297.38598
296.30559
295.47936
294.87162
294.44229
294.15145
293.96288
293.84609
293.77718
293.73854
293.718
293.70768
293.70278
293.7006
293.69968
293.69932
293.69919
293.69915
293.69913
293.69913
293.69913
293.69912
293.69912
293.69912
293.69912
293.69913
293.69913
293.69913
293.69913
293.69913
293.69913
293.69913
293.69913
293.69913
310.34954
307.54923
305.03679
302.80049
300.84141
299.16327
297.76478
296.63515
295.75301
295.08828
294.60571
294.26873
294.04281
293.89774
293.80873
293.7567
293.72782
293.71263
293.70509
293.70155
293.7
293.69936
293.69911
293.69902
293.69899
293.69898
293.69898
293.69898
293.69898
293.69898
293.69898
293.69898
293.69898
293.69898
293.69898
293.69898
293.69898
293.69898
293.69899
293.69899
310.67405
307.90081
305.40824
303.18177
301.22017
299.5261
298.09901
296.93063
296.00338
295.29141
294.76331
294.38551
294.12531
293.95316
293.84404
293.77797
293.73988
293.71903
293.70824
293.70297
293.70055
293.6995
293.69908
293.69892
293.69886
293.69884
293.69883
293.69883
293.69883
293.69883
293.69883
293.69883
293.69883
293.69883
293.69883
293.69883
293.69884
293.69884
293.69884
293.69884
310.95602
308.20694
305.73234
303.51541
301.55307
299.84713
298.39752
297.19782
296.23331
295.48147
294.91407
294.5001
294.20862
294.01095
293.88219
293.80184
293.75399
293.72687
293.7123
293.7049
293.70136
293.69977
293.6991
293.69883
293.69874
293.6987
293.69869
293.69869
293.69869
293.69869
293.69869
293.69869
293.69869
293.69869
293.69869
293.69869
293.69869
293.69869
293.69869
293.69869
311.20294
308.47602
306.01819
303.81077
301.84916
300.13441
298.66677
297.44124
296.44541
295.65942
295.05772
294.61155
294.29157
294.07006
293.92238
293.82784
293.76992
293.73607
293.71728
293.7074
293.70249
293.7002
293.6992
293.69878
293.69862
293.69857
293.69855
293.69854
293.69854
293.69854
293.69854
293.69854
293.69854
293.69854
293.69854
293.69854
293.69854
293.69855
293.69855
293.69855
311.42085
308.71457
306.27262
304.07473
302.11499
300.39379
298.91157
297.66447
296.64191
295.82631
295.19441
294.71939
294.37341
294.12967
293.96395
293.85549
293.7874
293.74652
293.72315
293.71047
293.70396
293.70081
293.69938
293.69877
293.69853
293.69844
293.69841
293.6984
293.6984
293.69839
293.69839
293.69839
293.69839
293.6984
293.6984
293.6984
293.6984
293.6984
293.6984
293.6984
311.61462
308.92772
306.50089
304.31252
302.35555
300.62975
299.13566
297.87032
296.82471
295.98319
295.32444
294.82343
294.45366
294.18924
294.00638
293.88441
293.80618
293.75809
293.72987
293.71412
293.70579
293.70163
293.69968
293.69882
293.69846
293.69832
293.69827
293.69826
293.69825
293.69825
293.69825
293.69825
293.69825
293.69825
293.69825
293.69825
293.69825
293.69825
293.69825
293.69825
311.7882
309.11953
306.70713
304.52822
302.57471
300.84576
299.34197
298.06109
296.99543
296.13099
295.44822
294.92364
294.53203
294.24834
294.04926
293.91425
293.82602
293.77064
293.73738
293.71834
293.70799
293.70267
293.70009
293.69892
293.69842
293.69821
293.69814
293.69811
293.69811
293.6981
293.6981
293.6981
293.6981
293.6981
293.6981
293.6981
293.69811
293.69811
293.69811
293.69811
311.94474
309.29329
306.89468
304.7251
302.77554
301.0446
299.53286
298.23866
297.15541
296.27058
295.56616
295.02012
294.60838
294.3067
294.09228
293.94474
293.84671
293.78404
293.74561
293.7231
293.71056
293.70394
293.70064
293.69909
293.6984
293.69812
293.69801
293.69797
293.69796
293.69796
293.69796
293.69796
293.69796
293.69796
293.69796
293.69796
293.69796
293.69796
293.69796
293.69796
312.08685
309.45166
307.06622
304.90579
302.96054
301.22853
299.71027
298.40457
297.3058
296.40271
295.67868
295.11299
294.68262
294.36414
294.1352
293.97564
293.86808
293.79816
293.75449
293.72838
293.7135
293.70545
293.70132
293.69933
293.69843
293.69805
293.6979
293.69784
293.69782
293.69781
293.69781
293.69781
293.69781
293.69781
293.69781
293.69781
293.69781
293.69781
293.69782
293.69782
312.21662
309.59681
307.22394
305.07245
303.13175
301.3994
299.87579
298.56013
297.44759
296.52806
295.78617
295.20241
294.75476
294.42053
294.17785
294.00677
293.88994
293.81288
293.76394
293.73413
293.71679
293.70719
293.70216
293.69967
293.6985
293.69799
293.69779
293.69771
293.69768
293.69767
293.69766
293.69766
293.69766
293.69766
293.69767
293.69767
293.69767
293.69767
293.69767
293.69767
312.33577
309.73053
307.36966
305.22687
303.29089
301.55876
300.03079
298.70644
297.58162
296.64721
295.889
295.28855
294.82481
294.4758
294.22009
294.03799
293.91219
293.8281
293.7739
293.74033
293.72043
293.70918
293.70315
293.70009
293.69862
293.69796
293.69769
293.69758
293.69754
293.69752
293.69752
293.69752
293.69752
293.69752
293.69752
293.69752
293.69752
293.69752
293.69752
293.69752
312.44573
309.85431
307.50488
305.37054
303.43936
301.70793
300.17639
298.84445
297.70862
296.7607
295.98749
295.37159
294.89283
294.5299
294.26183
294.06917
293.93469
293.84373
293.7843
293.74692
293.72438
293.7114
293.70429
293.7006
293.6988
293.69796
293.6976
293.69746
293.6974
293.69738
293.69737
293.69737
293.69737
293.69737
293.69737
293.69737
293.69738
293.69738
293.69738
293.69738
312.54768
309.96936
307.63087
305.50471
303.57836
301.848
300.31356
298.97496
297.82924
296.86899
296.08196
295.4517
294.95887
294.58281
294.303
294.10024
293.95736
293.85968
293.79507
293.75388
293.72864
293.71385
293.70559
293.70122
293.69903
293.69799
293.69753
293.69734
293.69727
293.69724
293.69723
293.69723
293.69723
293.69723
293.69723
293.69723
293.69723
293.69723
293.69723
293.69723
312.64261
310.07674
307.74869
305.63044
303.70893
301.97991
300.44315
299.09869
297.94404
296.9725
296.17269
295.52904
295.02301
294.63454
294.34356
294.1311
293.98011
293.87588
293.80617
293.76115
293.73318
293.71652
293.70705
293.70193
293.69931
293.69805
293.69748
293.69723
293.69713
293.6971
293.69709
293.69708
293.69708
293.69708
293.69708
293.69708
293.69708
293.69708
293.69708
293.69709
312.73133
310.17731
307.85924
305.74864
303.83194
302.10449
300.56588
299.21625
298.0535
297.0716
296.25994
295.60378
295.08531
294.6851
294.38347
294.16172
294.00289
293.89227
293.81754
293.76871
293.73797
293.71939
293.70865
293.70275
293.69967
293.69815
293.69744
293.69713
293.69701
293.69696
293.69694
293.69694
293.69693
293.69693
293.69693
293.69694
293.69694
293.69694
293.69694
293.69694
312.81455
310.27182
307.9633
305.86007
303.94813
302.22243
300.68238
299.32817
298.15807
297.16661
296.34393
295.67605
295.14587
294.7345
294.42271
294.19204
294.02564
293.9088
293.82913
293.77653
293.743
293.72246
293.71041
293.70367
293.70008
293.69828
293.69743
293.69705
293.69688
293.69682
293.6968
293.69679
293.69679
293.69679
293.69679
293.69679
293.69679
293.69679
293.69679
293.69679
312.89286
310.36089
308.06151
305.96542
304.05817
302.33436
300.79319
299.43493
298.25813
297.25785
296.42489
295.74601
295.20474
294.78279
294.46129
294.22203
294.04831
293.92542
293.84091
293.78456
293.74825
293.72572
293.71231
293.70469
293.70057
293.69846
293.69743
293.69697
293.69677
293.69669
293.69666
293.69665
293.69664
293.69664
293.69664
293.69664
293.69664
293.69665
293.69665
293.69665
312.96676
310.44507
308.15445
306.06524
304.16261
302.44079
300.89882
299.53695
298.35402
297.34557
296.50301
295.81376
295.26201
294.82997
294.49918
294.25168
294.07088
293.9421
293.85284
293.79279
293.7537
293.72915
293.71435
293.70581
293.70112
293.69867
293.69747
293.6969
293.69666
293.69656
293.69652
293.6965
293.6965
293.6965
293.6965
293.6965
293.6965
293.6965
293.6965
293.6965
313.0367
310.52484
308.24262
306.16006
304.26195
302.54221
300.99967
299.63461
298.44606
297.43002
296.57847
295.87945
295.31775
294.8761
294.5364
294.28096
294.0933
293.9588
293.86489
293.80119
293.75932
293.73274
293.71652
293.70703
293.70174
293.69893
293.69752
293.69685
293.69655
293.69643
293.69638
293.69636
293.69635
293.69635
293.69635
293.69635
293.69635
293.69635
293.69635
293.69635
313.10304
310.60059
308.32644
306.25031
304.35663
302.63904
301.09614
299.72822
298.53453
297.51142
296.65143
295.94318
295.37203
294.92119
294.57296
294.30986
294.11557
293.97549
293.87703
293.80973
293.7651
293.73649
293.71882
293.70835
293.70243
293.69923
293.6976
293.69681
293.69646
293.6963
293.69624
293.69622
293.69621
293.69621
293.69621
293.69621
293.69621
293.69621
293.69621
293.69621
313.16611
310.67269
308.4063
306.33638
304.44704
302.73163
301.18856
299.8181
298.61966
297.58997
296.72203
296.00505
295.4249
294.96529
294.60885
294.33838
294.13766
293.99215
293.88924
293.81839
293.77102
293.74037
293.72123
293.70976
293.70318
293.69958
293.69771
293.69679
293.69637
293.69618
293.6961
293.69607
293.69606
293.69606
293.69606
293.69606
293.69606
293.69606
293.69606
293.69606
313.22621
310.74145
308.48251
306.4186
304.53352
302.82031
301.27724
299.90451
298.70169
297.66584
296.79043
296.06516
295.47645
295.00843
294.64411
294.3665
294.15956
294.00876
293.90149
293.82715
293.77706
293.74437
293.72376
293.71127
293.704
293.69998
293.69785
293.69679
293.69629
293.69606
293.69597
293.69593
293.69592
293.69591
293.69591
293.69591
293.69591
293.69592
293.69592
293.69592
313.28357
310.80714
308.55539
306.49729
304.61636
302.90539
301.36243
299.98768
298.78083
297.73921
296.85674
296.1236
295.52671
295.05064
294.67873
294.39424
294.18125
294.0253
293.91377
293.83599
293.78322
293.74849
293.7264
293.71285
293.70489
293.70041
293.69802
293.6968
293.69622
293.69595
293.69584
293.69579
293.69577
293.69577
293.69577
293.69577
293.69577
293.69577
293.69577
293.69577
313.33842
310.87
308.62518
306.57271
304.69585
302.98711
301.4444
300.06784
298.85725
297.81023
296.92108
296.18047
295.57576
295.09195
294.71273
294.42158
294.20273
294.04177
293.92606
293.8449
293.78948
293.75272
293.72913
293.71453
293.70584
293.7009
293.69821
293.69683
293.69616
293.69584
293.69571
293.69565
293.69563
293.69562
293.69562
293.69562
293.69562
293.69562
293.69562
293.69562
313.39096
310.93026
308.69213
306.64511
304.77221
303.06572
301.52335
300.14518
298.93112
297.87903
296.98356
296.23583
295.62364
295.13241
294.74613
294.44854
294.22399
294.05814
293.93835
293.85387
293.79582
293.75705
293.73196
293.71628
293.70685
293.70143
293.69844
293.69688
293.69611
293.69574
293.69558
293.69552
293.69549
293.69548
293.69548
293.69548
293.69548
293.69548
293.69548
293.69548
313.44136
310.9881
308.75643
306.7147
304.84568
303.14143
301.59949
300.21989
299.00261
297.94574
297.04428
296.28975
295.67041
295.17203
294.77895
294.47512
294.24503
294.07441
293.95062
293.86289
293.80224
293.76146
293.73487
293.7181
293.70793
293.702
293.6987
293.69695
293.69607
293.69565
293.69546
293.69538
293.69535
293.69533
293.69533
293.69533
293.69533
293.69533
293.69533
293.69533
313.48978
311.0437
308.81827
306.78167
304.91644
303.21443
301.673
300.29212
299.07184
298.01047
297.10333
296.34232
295.71611
295.21085
294.8112
294.50131
294.26584
294.09057
293.96287
293.87193
293.80872
293.76595
293.73786
293.72
293.70906
293.70262
293.69899
293.69704
293.69604
293.69556
293.69534
293.69524
293.69521
293.69519
293.69519
293.69518
293.69518
293.69519
293.69519
293.69519
313.53635
311.09721
308.87782
306.8462
304.98468
303.28489
301.74404
300.36202
299.13896
298.07334
297.1608
296.39359
295.76079
295.2489
294.84289
294.52714
294.28643
294.10662
293.97509
293.88099
293.81526
293.77052
293.74093
293.72197
293.71025
293.70328
293.69931
293.69715
293.69603
293.69548
293.69522
293.69511
293.69507
293.69505
293.69504
293.69504
293.69504
293.69504
293.69504
293.69504
313.58121
311.14878
308.93524
306.90846
305.05056
303.35297
301.81275
300.42973
299.20408
298.13445
297.21676
296.44362
295.80448
295.28621
294.87404
294.55259
294.30678
294.12254
293.98726
293.89007
293.82184
293.77514
293.74406
293.724
293.71149
293.70398
293.69965
293.69728
293.69603
293.69541
293.69511
293.69498
293.69493
293.6949
293.6949
293.69489
293.69489
293.69489
293.69489
293.69489
313.62446
311.19853
308.99066
306.96857
305.11422
303.41882
301.87929
300.49538
299.2673
298.19388
297.27128
296.49247
295.84724
295.3228
294.90467
294.57769
294.32691
294.13834
293.99939
293.89915
293.82847
293.77983
293.74726
293.72609
293.71278
293.70472
293.70003
293.69743
293.69604
293.69534
293.69501
293.69485
293.69479
293.69476
293.69475
293.69475
293.69475
293.69475
293.69475
293.69475
313.6662
311.24657
309.0442
307.02669
305.1758
303.48257
301.94377
300.55907
299.32873
298.25171
297.32444
296.54019
295.8891
295.35869
294.93479
294.60243
294.34682
294.15401
294.01146
293.90823
293.83512
293.78456
293.75051
293.72824
293.71413
293.70551
293.70044
293.6976
293.69607
293.69528
293.6949
293.69473
293.69465
293.69462
293.69461
293.6946
293.6946
293.6946
293.6946
293.6946
313.70654
311.29301
309.09598
307.08292
305.23542
303.54434
302.0063
300.62092
299.38847
298.30804
297.37631
296.58683
295.93009
295.39392
294.96442
294.62683
294.36649
294.16955
294.02347
293.9173
293.8418
293.78935
293.75382
293.73044
293.71552
293.70633
293.70088
293.69779
293.69611
293.69523
293.6948
293.6946
293.69451
293.69448
293.69446
293.69446
293.69446
293.69446
293.69446
293.69446
313.74555
311.33795
309.1461
307.13737
305.29319
303.60424
302.06701
300.68102
299.44659
298.36293
297.42693
296.63244
295.97024
295.4285
294.99357
294.65089
294.38595
294.18496
294.03542
293.92636
293.8485
293.79417
293.75718
293.73269
293.71696
293.70719
293.70135
293.698
293.69616
293.69519
293.69471
293.69448
293.69438
293.69434
293.69432
293.69431
293.69431
293.69431
293.69431
293.69431
313.78332
311.38146
309.19466
307.19015
305.34922
303.66237
302.12597
300.73947
299.50318
298.41645
297.47637
296.67705
296.0096
295.46246
295.02225
294.67462
294.40518
294.20024
294.0473
293.9354
293.85522
293.79902
293.76058
293.73499
293.71844
293.70809
293.70185
293.69823
293.69623
293.69516
293.69462
293.69437
293.69425
293.6942
293.69418
293.69417
293.69416
293.69416
293.69416
293.69416
313.81991
311.42365
309.24175
307.24136
305.40359
303.71883
302.18328
300.79634
299.55832
298.46867
297.52467
296.72072
296.04819
295.49582
295.05048
294.69802
294.4242
294.21538
294.05911
293.94442
293.86194
293.80391
293.76403
293.73733
293.71996
293.70902
293.70238
293.69849
293.69631
293.69514
293.69454
293.69425
293.69412
293.69406
293.69403
293.69402
293.69402
293.69402
293.69402
293.69402
313.8554
311.46456
309.28744
307.29106
305.45641
303.77371
302.23904
300.85171
299.61206
298.51964
297.57189
296.76347
296.08603
295.5286
295.07827
294.72111
294.443
294.23038
294.07085
293.95341
293.86867
293.80882
293.76751
293.73971
293.72153
293.70999
293.70293
293.69876
293.6964
293.69513
293.69447
293.69414
293.69399
293.69392
293.69389
293.69388
293.69387
293.69387
293.69387
293.69387
313.88983
311.50429
309.33181
307.33935
305.50775
303.82708
302.2933
300.90566
299.66449
298.56941
297.61808
296.80535
296.12317
295.56082
295.10564
294.74389
294.46158
294.24526
294.08252
293.96237
293.87541
293.81375
293.77102
293.74213
293.72312
293.71099
293.70351
293.69906
293.69651
293.69512
293.6944
293.69403
293.69386
293.69378
293.69375
293.69373
293.69373
293.69373
293.69373
293.69373
313.92327
311.54288
309.37493
307.38629
305.55768
303.87902
302.34616
300.95826
299.71565
298.61805
297.66326
296.84639
296.15961
295.59249
295.13259
294.76637
294.47996
294.26
294.09411
293.9713
293.88214
293.81871
293.77457
293.74459
293.72476
293.71203
293.70412
293.69937
293.69664
293.69513
293.69433
293.69393
293.69373
293.69365
293.69361
293.69359
293.69358
293.69358
293.69358
293.69358
313.95577
311.58039
309.41686
307.43196
305.60627
303.9296
302.39766
301.00955
299.7656
298.6656
297.7075
296.88662
296.19539
295.62363
295.15915
294.78855
294.49814
294.2746
294.10562
293.9802
293.88887
293.82368
293.77814
293.74708
293.72643
293.71309
293.70475
293.69971
293.69678
293.69515
293.69427
293.69383
293.69361
293.69351
293.69347
293.69345
293.69344
293.69344
293.69344
293.69344
313.98737
311.61689
309.45767
307.47641
305.65359
303.97888
302.44788
301.05962
299.8144
298.7121
297.75081
296.92607
296.23053
295.65427
295.18531
294.81045
294.51611
294.28908
294.11705
293.98906
293.89559
293.82866
293.78174
293.7496
293.72813
293.71418
293.7054
293.70006
293.69693
293.69517
293.69422
293.69373
293.69349
293.69338
293.69333
293.6933
293.69329
293.69329
293.69329
293.69329
314.01812
311.65241
309.4974
307.51971
305.69971
304.02693
302.49688
301.1085
299.8621
298.7576
297.79325
296.96477
296.26506
295.68441
295.21109
294.83206
294.53389
294.30342
294.12841
293.99788
293.9023
293.83365
293.78536
293.75215
293.72986
293.7153
293.70608
293.70044
293.6971
293.69521
293.69418
293.69364
293.69337
293.69324
293.69319
293.69316
293.69315
293.69315
293.69314
293.69314
314.04806
311.68701
309.5361
307.5619
305.74466
304.0738
302.54471
301.15625
299.90873
298.80214
297.83484
297.00274
296.29898
295.71408
295.2365
294.8534
294.55147
294.31763
294.13969
294.00666
293.90899
293.83865
293.789
293.75472
293.73161
293.71645
293.70679
293.70083
293.69729
293.69526
293.69414
293.69355
293.69326
293.69311
293.69305
293.69302
293.69301
293.693
293.693
293.693
314.07723
311.72073
309.57383
307.60304
305.78852
304.11955
302.59141
301.20292
299.95435
298.84575
297.87561
297.04002
296.33233
295.74329
295.26156
294.87448
294.56886
294.33172
294.15089
294.01539
293.91568
293.84365
293.79266
293.75732
293.7334
293.71762
293.70752
293.70124
293.69748
293.69531
293.69411
293.69347
293.69314
293.69299
293.69291
293.69288
293.69286
293.69286
293.69285
293.69285
314.10567
311.7536
309.61063
307.64318
305.83132
304.16421
302.63705
301.24855
299.999
298.88848
297.9156
297.07663
296.36512
295.77204
295.28626
294.89529
294.58606
294.34567
294.16201
294.02409
293.92235
293.84866
293.79633
293.75994
293.73521
293.71882
293.70826
293.70167
293.6977
293.69538
293.69409
293.69339
293.69303
293.69286
293.69277
293.69274
293.69272
293.69271
293.69271
293.69271
314.1334
311.78567
309.64654
307.68237
305.87311
304.20785
302.68165
301.29319
300.04271
298.93035
297.95483
297.11259
296.39737
295.80036
295.31063
294.91584
294.60307
294.3595
294.17304
294.03274
293.929
293.85367
293.80001
293.76258
293.73704
293.72004
293.70903
293.70212
293.69792
293.69546
293.69407
293.69332
293.69293
293.69273
293.69264
293.69259
293.69258
293.69257
293.69256
293.69256
314.16047
311.81698
309.6816
307.72063
305.91394
304.2505
302.72528
301.33688
300.08552
298.9714
297.99334
297.14792
296.4291
295.82826
295.33466
294.93615
294.61991
294.37321
294.184
294.04134
293.93563
293.85868
293.80371
293.76524
293.73889
293.72128
293.70983
293.70259
293.69816
293.69555
293.69406
293.69325
293.69282
293.69261
293.6925
293.69245
293.69243
293.69242
293.69242
293.69242
314.18688
311.84755
309.71584
307.75801
305.95384
304.2922
302.76795
301.37964
300.12747
299.01166
298.03114
297.18265
296.46032
295.85575
295.35838
294.95622
294.63657
294.3868
294.19488
294.0499
293.94224
293.86368
293.80742
293.76791
293.74077
293.72255
293.71064
293.70307
293.69841
293.69565
293.69406
293.69319
293.69272
293.69249
293.69237
293.69231
293.69229
293.69228
293.69227
293.69227
314.21269
311.87742
309.74931
307.79456
305.99286
304.33299
302.80973
301.42153
300.16859
299.05116
298.06826
297.21679
296.49105
295.88283
295.38178
294.97604
294.65306
294.40026
294.20569
294.05842
293.94883
293.86868
293.81113
293.7706
293.74266
293.72383
293.71146
293.70357
293.69868
293.69576
293.69407
293.69313
293.69262
293.69237
293.69224
293.69218
293.69215
293.69214
293.69213
293.69213
314.2379
311.90661
309.78202
307.83029
306.03103
304.37291
302.85062
301.46257
300.2089
299.08992
298.10473
297.25036
296.52131
295.90954
295.40488
294.99564
294.66937
294.4136
294.21641
294.06688
293.95539
293.87368
293.81485
293.77331
293.74457
293.72513
293.71231
293.70408
293.69896
293.69587
293.69408
293.69307
293.69253
293.69225
293.69211
293.69204
293.69201
293.69199
293.69199
293.69199
314.26256
311.93515
309.81402
307.86525
306.06838
304.41199
302.89068
301.50279
300.24844
299.12797
298.14056
297.28338
296.5511
295.93586
295.42768
295.015
294.68552
294.42683
294.22705
294.07531
293.96194
293.87867
293.81858
293.77603
293.7465
293.72645
293.71318
293.70461
293.69925
293.696
293.6941
293.69302
293.69244
293.69213
293.69198
293.6919
293.69187
293.69185
293.69184
293.69184
314.28666
311.96308
309.84532
307.89946
306.10495
304.45027
302.92994
301.54222
300.28724
299.16533
298.17578
297.31587
296.58044
295.96182
295.45019
295.03415
294.70151
294.43994
294.23762
294.08368
293.96845
293.88365
293.82231
293.77876
293.74844
293.72779
293.71406
293.70516
293.69956
293.69614
293.69413
293.69298
293.69235
293.69202
293.69185
293.69176
293.69172
293.69171
293.6917
293.6917
314.31025
311.9904
309.87597
307.93296
306.14076
304.48777
302.96841
301.5809
300.32532
299.20203
298.21041
297.34785
296.60936
295.98743
295.47241
295.05308
294.71733
294.45294
294.24811
294.092
293.97495
293.88862
293.82605
293.7815
293.7504
293.72915
293.71496
293.70572
293.69988
293.69629
293.69416
293.69294
293.69227
293.69191
293.69172
293.69163
293.69158
293.69156
293.69156
293.69155
314.33334
312.01716
309.90597
307.96577
306.17585
304.52452
303.00614
301.61885
300.3627
299.2381
298.24446
297.37933
296.63785
296.01269
295.49437
295.07179
294.733
294.46582
294.25853
294.10028
293.98142
293.89359
293.82978
293.78425
293.75238
293.73052
293.71587
293.70629
293.70021
293.69645
293.69421
293.69291
293.69219
293.6918
293.6916
293.6915
293.69145
293.69142
293.69141
293.69141
314.35594
312.04336
309.93537
307.99791
306.21023
304.56055
303.04315
301.65609
300.39941
299.27354
298.27795
297.41032
296.66592
296.03761
295.51605
295.0903
294.74851
294.47859
294.26887
294.10851
293.98786
293.89854
293.83352
293.78701
293.75436
293.7319
293.7168
293.70688
293.70055
293.69662
293.69426
293.69288
293.69211
293.69169
293.69147
293.69136
293.69131
293.69128
293.69127
293.69127
314.37808
312.06903
309.96417
308.02942
306.24394
304.59589
303.07945
301.69265
300.43548
299.30838
298.31091
297.44084
296.69361
296.06221
295.53747
295.10861
294.76387
294.49126
294.27914
294.1167
293.99427
293.90348
293.83726
293.78978
293.75636
293.7333
293.71774
293.70749
293.7009
293.6968
293.69431
293.69286
293.69204
293.69159
293.69135
293.69123
293.69117
293.69114
293.69113
293.69113
314.39978
312.09418
309.9924
308.0603
306.277
304.63056
303.11509
301.72855
300.47092
299.34264
298.34335
297.47091
296.7209
296.08648
295.55864
295.12672
294.77908
294.50381
294.28933
294.12483
294.00066
293.90841
293.84099
293.79255
293.75837
293.73472
293.7187
293.7081
293.70127
293.69698
293.69438
293.69285
293.69197
293.69149
293.69123
293.6911
293.69103
293.691
293.69099
293.69098
314.42104
312.11884
310.02009
308.0906
306.30944
304.66458
303.15008
301.76381
300.50575
299.37634
298.37527
297.50053
296.74782
296.11045
295.57956
295.14463
294.79415
294.51627
294.29945
294.13292
294.00702
293.91333
293.84473
293.79533
293.76039
293.73614
293.71967
293.70873
293.70164
293.69718
293.69445
293.69283
293.69191
293.69139
293.69111
293.69097
293.6909
293.69086
293.69085
293.69084
314.44189
312.14303
310.04724
308.12032
306.34126
304.69798
303.18443
301.79846
300.53999
299.4095
298.40671
297.52972
296.77437
296.13411
295.60023
295.16236
294.80907
294.52861
294.30949
294.14097
294.01336
293.91824
293.84846
293.79811
293.76241
293.73758
293.72065
293.70937
293.70203
293.69739
293.69453
293.69283
293.69185
293.6913
293.691
293.69084
293.69076
293.69072
293.69071
293.6907
314.46234
312.16676
310.07388
308.14949
306.37251
304.73077
303.21818
301.83252
300.57367
299.44212
298.43767
297.55849
296.80056
296.15747
295.62067
295.1799
294.82385
294.54086
294.31947
294.14896
294.01966
293.92313
293.85219
293.8009
293.76445
293.73903
293.72165
293.71002
293.70243
293.6976
293.69462
293.69283
293.69179
293.6912
293.69088
293.69071
293.69063
293.69058
293.69057
293.69056
314.4824
312.19004
310.10003
308.17812
306.40318
304.76298
303.25135
301.86599
300.60679
299.47424
298.46817
297.58686
296.8264
296.18055
295.64087
295.19726
294.8385
294.553
294.32937
294.15691
294.02594
293.92801
293.85591
293.80369
293.7665
293.74049
293.72265
293.71068
293.70284
293.69783
293.69472
293.69284
293.69174
293.69111
293.69077
293.69059
293.69049
293.69045
293.69043
293.69042
314.50209
312.21289
310.12571
308.20624
306.43331
304.79463
303.28394
301.89891
300.63938
299.50585
298.49822
297.61483
296.85191
296.20334
295.66085
295.21444
294.85301
294.56505
294.33921
294.16481
294.03219
293.93287
293.85963
293.80648
293.76855
293.74196
293.72367
293.71136
293.70326
293.69806
293.69482
293.69285
293.69169
293.69103
293.69066
293.69046
293.69036
293.69031
293.69029
293.69028
314.52141
312.23533
310.15092
308.23385
306.46291
304.82573
303.31598
301.93129
300.67146
299.53699
298.52782
297.64241
296.87709
296.22587
295.68061
295.23144
294.86739
294.577
294.34898
294.17267
294.03842
293.93772
293.86335
293.80928
293.77061
293.74343
293.7247
293.71204
293.70369
293.6983
293.69493
293.69287
293.69165
293.69094
293.69055
293.69034
293.69023
293.69017
293.69015
293.69015
314.54039
312.25737
310.17568
308.26099
306.492
304.8563
303.34749
301.96314
300.70303
299.56765
298.55701
297.66962
296.90194
296.24812
295.70015
295.24828
294.88164
294.58885
294.35868
294.18048
294.04461
293.94255
293.86706
293.81207
293.77267
293.74492
293.72574
293.71274
293.70413
293.69855
293.69504
293.69289
293.69161
293.69086
293.69045
293.69022
293.6901
293.69004
293.69001
293.69001
314.55903
312.27902
310.20001
308.28765
306.52059
304.88636
303.37848
301.99448
300.73411
299.59786
298.58578
297.69647
296.92649
296.27011
295.71947
295.26495
294.89575
294.60061
294.36831
294.18825
294.05077
293.94737
293.87076
293.81487
293.77474
293.74642
293.72679
293.71345
293.70457
293.69881
293.69517
293.69292
293.69157
293.69079
293.69034
293.6901
293.68997
293.68991
293.68988
293.68987
314.57735
312.3003
310.22393
308.31386
306.54871
304.91592
303.40897
302.02533
300.76471
299.62763
298.61415
297.72296
296.95072
296.29185
295.73859
295.28145
294.90975
294.61227
294.37787
294.19597
294.05691
293.95218
293.87446
293.81767
293.77682
293.74792
293.72784
293.71416
293.70503
293.69908
293.6953
293.69295
293.69154
293.69071
293.69024
293.68998
293.68984
293.68977
293.68974
293.68974
314.59534
312.32121
310.24744
308.33963
306.57635
304.94499
303.43898
302.0557
300.79486
299.65696
298.64212
297.7491
296.97466
296.31334
295.75751
295.2978
294.92362
294.62385
294.38737
294.20365
294.06302
293.95696
293.87815
293.82047
293.7789
293.74943
293.72891
293.71489
293.7055
293.69936
293.69543
293.69299
293.69151
293.69064
293.69014
293.68987
293.68972
293.68964
293.68961
293.6896
314.61303
312.34176
310.27055
308.36497
306.60355
304.9736
303.46851
302.08561
300.82456
299.68588
298.66972
297.7749
296.99831
296.33458
295.77623
295.31398
294.93737
294.63533
294.39681
294.21128
294.0691
293.96173
293.88184
293.82327
293.78098
293.75095
293.72998
293.71562
293.70597
293.69964
293.69558
293.69304
293.69149
293.69058
293.69005
293.68975
293.68959
293.68951
293.68948
293.68947
314.63043
312.36198
310.29329
308.3899
306.6303
305.00176
303.49758
302.11506
300.85382
299.71439
298.69694
297.80038
297.02167
296.35559
295.79475
295.33002
294.951
294.64672
294.40618
294.21887
294.07516
293.96649
293.88552
293.82606
293.78307
293.75248