/*--------------------------------*- C++ -*----------------------------------*\
| =========                 |                                                 |
| \\      /  F ield         | OpenFOAM: The Open Source CFD Toolbox           |
|  \\    /   O peration     | Version:  3.0.1                                 |
|   \\  /    A nd           | Web:      www.OpenFOAM.org                      |
|    \\/     M anipulation  |                                                 |
\*---------------------------------------------------------------------------*/
FoamFile
{
    version     2.0;
    format      ascii;
    class       volScalarField;
    location    "3500/fluid";
    object      T;
}
// * * * * * * * * * * * * * * * * * * * * * * * * * * * * * * * * * * * * * //

dimensions      [0 0 0 1 0 0 0];

internalField   nonuniform List<scalar> 
5000
(
296.65726
296.48515
296.3032
296.11258
295.91492
295.71226
295.50711
295.3023
295.10095
294.90628
294.72145
294.54936
294.39249
294.25267
294.13102
294.02788
293.94279
293.87462
293.82169
293.78195
293.75317
293.73312
293.71973
293.71118
293.70598
293.70299
293.70136
293.70053
293.70013
293.69996
293.69988
293.69986
293.69985
293.69985
293.69984
293.69984
293.69984
293.69984
293.69984
293.69984
293.69984
293.69984
293.69984
293.69984
293.69984
293.69984
293.69984
293.69984
293.69984
293.69984
300.79563
300.4515
300.08642
299.70176
299.2996
298.88271
298.45466
298.01969
297.5827
297.14912
296.72465
296.31513
295.92618
295.56299
295.23005
294.93086
294.6678
294.44196
294.25311
294.09971
293.97906
293.88752
293.82077
293.7742
293.74325
293.72377
293.71221
293.70578
293.70244
293.70084
293.70014
293.69985
293.69975
293.69971
293.6997
293.6997
293.6997
293.6997
293.6997
293.6997
293.6997
293.6997
293.6997
293.6997
293.6997
293.6997
293.6997
293.6997
293.6997
293.6997
303.81057
303.39861
302.95989
302.49463
302.00362
301.48831
300.95097
300.39477
299.82393
299.24374
298.66053
298.08158
297.51492
296.96895
296.45206
295.97206
295.53571
295.14819
294.81274
294.5304
294.29999
294.11824
293.98017
293.87956
293.80954
293.76325
293.73432
293.71733
293.70802
293.70328
293.70106
293.70011
293.69974
293.69961
293.69957
293.69955
293.69955
293.69955
293.69955
293.69955
293.69955
293.69955
293.69955
293.69955
293.69955
293.69955
293.69955
293.69955
293.69955
293.69955
306.02069
305.56879
305.08707
304.57536
304.03392
303.46357
302.86584
302.24307
301.59856
300.93668
300.26297
299.58418
298.90821
298.244
297.60116
296.98959
296.41889
295.8977
295.43303
295.02961
294.68952
294.41198
294.19344
294.02803
293.90819
293.82547
293.77135
293.73798
293.71871
293.70836
293.70323
293.7009
293.69993
293.69957
293.69945
293.69942
293.69941
293.69941
293.69941
293.69941
293.69941
293.69941
293.69941
293.69941
293.69941
293.69941
293.69941
293.69941
293.69941
293.69941
307.66092
307.18385
306.67504
306.13407
305.56088
304.95595
304.32034
303.65589
302.9653
302.25232
301.52185
300.78003
300.03431
299.29338
298.56702
297.86573
297.20031
296.5812
296.01773
295.51738
295.08508
294.72275
294.42911
294.19983
294.02803
293.90503
293.82133
293.76749
293.73496
293.71663
293.70705
293.70246
293.70045
293.69966
293.69938
293.69929
293.69927
293.69926
293.69926
293.69926
293.69926
293.69926
293.69926
293.69926
293.69926
293.69926
293.69926
293.69926
293.69926
293.69926
308.89923
308.40815
307.88424
307.32691
306.73591
306.11143
305.45422
304.76571
304.04814
303.30469
302.53968
301.75862
300.96836
300.17709
299.39428
298.63042
297.89674
297.20454
296.56459
295.98629
295.47683
295.04059
294.67862
294.38858
294.16501
293.99992
293.88371
293.80615
293.75738
293.72868
293.71299
293.70509
293.70146
293.69994
293.69937
293.69919
293.69913
293.69912
293.69911
293.69911
293.69911
293.69911
293.69911
293.69911
293.69911
293.69911
293.69911
293.69911
293.69911
293.69911
309.84917
309.35035
308.81808
308.25163
307.65061
307.01501
306.34534
305.64272
304.909
304.14697
303.36043
302.55436
301.73506
300.9102
300.08882
299.28117
298.49846
297.75237
297.05445
296.41528
295.8437
295.34597
294.92518
294.58093
294.30935
294.10362
293.95462
293.85202
293.78524
293.74443
293.72119
293.70896
293.70307
293.70049
293.69947
293.69912
293.699
293.69898
293.69897
293.69897
293.69897
293.69897
293.69897
293.69897
293.69897
293.69897
293.69897
293.69897
293.69897
293.69897
310.59147
310.08946
309.5537
308.98338
308.378
307.73739
307.06186
306.35228
305.6102
304.83801
304.03908
303.21791
302.38027
301.53328
300.68548
299.84677
299.02814
298.24136
297.49838
296.8106
296.18802
295.63842
295.1666
294.77391
294.45814
294.21372
294.03242
293.90418
293.81818
293.76386
293.7318
293.71425
293.70542
293.70138
293.69971
293.6991
293.6989
293.69884
293.69882
293.69882
293.69882
293.69882
293.69882
293.69882
293.69882
293.69882
293.69882
293.69882
293.69882
293.69882
311.18155
310.67882
310.14224
309.57094
308.96431
308.32209
307.64441
306.93196
306.18603
305.4087
304.60298
303.77294
302.92387
302.0624
301.1966
300.3359
299.49103
298.67362
297.8958
297.16943
296.50536
295.91252
295.3971
294.96199
294.60647
294.3263
294.11422
293.96075
293.85516
293.78653
293.7447
293.72098
293.70859
293.70268
293.70013
293.69914
293.69881
293.69871
293.69868
293.69868
293.69867
293.69867
293.69867
293.69867
293.69867
293.69867
293.69867
293.69867
293.69867
293.69867
311.65914
311.15741
310.62185
310.05155
309.44584
308.80435
308.1271
307.41461
306.66797
305.88898
305.08035
304.24575
303.39007
302.51946
301.64152
300.76526
299.90101
299.06023
298.25501
297.49753
296.79919
296.16984
295.61681
295.14431
294.75297
294.43984
294.19868
294.02072
293.89553
293.8121
293.75979
293.72919
293.71264
293.70444
293.70076
293.69928
293.69875
293.69859
293.69854
293.69853
293.69853
293.69853
293.69853
293.69853
293.69853
293.69853
293.69853
293.69853
293.69853
293.69853
312.0522
311.55236
311.01879
310.45055
309.8469
309.20742
308.53203
307.8211
307.07556
306.297
305.48784
304.65145
303.79232
302.91622
302.03028
301.14308
300.26458
299.40595
298.57919
297.79659
297.06995
296.40978
295.82437
295.31905
294.89567
294.55243
294.28415
294.0828
293.93842
293.84006
293.77685
293.73882
293.7176
293.70672
293.70165
293.69953
293.69874
293.69848
293.6984
293.69839
293.69838
293.69838
293.69838
293.69838
293.69838
293.69838
293.69838
293.69838
293.69838
293.69838
312.38105
311.88367
311.3527
310.78718
310.18634
309.54969
308.87707
308.16874
307.42549
306.64874
305.84066
305.00435
304.14397
303.26491
302.37389
301.47909
300.59008
299.71771
298.87383
298.07071
297.32045
296.63404
296.02053
295.48623
295.03406
294.66331
294.36978
294.14623
293.98321
293.87001
293.79565
293.74978
293.72346
293.70954
293.70282
293.69991
293.69877
293.69839
293.69827
293.69824
293.69824
293.69824
293.69824
293.69824
293.69824
293.69824
293.69824
293.69824
293.69824
293.69824
312.66034
312.16567
311.63759
311.0751
310.47741
309.84398
309.17459
308.46942
307.72913
306.95498
306.14897
305.31393
304.45374
303.57346
302.67944
301.77947
300.88274
299.9998
299.14225
298.32233
297.55225
296.84341
296.20547
295.64555
295.16752
294.77167
294.45472
294.21023
294.02931
293.90153
293.81594
293.76196
293.73019
293.7129
293.7043
293.70043
293.69887
293.69832
293.69815
293.6981
293.69809
293.69809
293.69809
293.69809
293.69809
293.69809
293.69809
293.69809
293.69809
293.69809
312.90092
312.40909
311.88402
311.3247
310.73033
310.10032
309.43442
308.73271
307.99577
307.22472
306.42138
305.58839
304.72937
303.84907
302.95353
302.05016
301.1478
300.25667
299.38814
298.55433
297.76751
297.03936
296.38003
295.79734
295.29599
294.87719
294.53853
294.27432
294.07625
293.93427
293.8375
293.77524
293.73775
293.71682
293.70609
293.70111
293.69904
293.69828
293.69803
293.69796
293.69795
293.69794
293.69794
293.69794
293.69794
293.69794
293.69794
293.69794
293.69794
293.69794
313.11083
312.62183
312.09977
311.54364
310.95261
310.32607
309.66372
308.96559
308.23216
307.46445
306.66413
305.83367
304.97645
304.09697
303.20095
302.29548
301.38907
300.49161
299.61422
298.76886
297.96782
297.22295
296.54482
295.94182
295.41941
294.9796
294.6208
294.33807
294.12366
293.9679
293.86009
293.78949
293.74608
293.72127
293.70822
293.70198
293.69929
293.69827
293.69793
293.69783
293.6978
293.6978
293.6978
293.6978
293.6978
293.6978
293.6978
293.6978
293.6978
293.6978
313.2961
312.80989
312.29079
311.7378
311.15006
310.52696
309.86815
309.1736
308.44374
307.67948
306.88237
306.05472
305.19972
304.32161
303.42586
302.51925
301.60997
300.70761
299.82302
298.96801
298.1548
297.39538
296.70062
296.07943
295.53792
295.07883
294.70134
294.40119
294.17123
294.00217
293.88354
293.80458
293.75513
293.72625
293.71068
293.70302
293.69963
293.6983
293.69784
293.6977
293.69766
293.69765
293.69765
293.69765
293.69765
293.69765
293.69765
293.69765
293.69765
293.69765
313.46135
312.97782
312.4616
311.91164
311.32711
310.70735
310.052
309.36098
308.63465
307.87386
307.08003
306.25533
305.40279
304.52644
303.63149
302.72444
301.8132
300.90706
300.01661
299.15346
298.32978
297.55762
296.84811
296.21056
295.65167
295.17484
294.77997
294.46346
294.21871
294.03686
293.90765
293.8204
293.76482
293.73172
293.71347
293.70427
293.70007
293.69837
293.69776
293.69757
293.69752
293.69751
293.69751
293.6975
293.6975
293.6975
293.6975
293.6975
293.6975
293.6975
313.6101
313.12916
312.61569
312.06867
311.48722
310.87069
310.21868
309.53109
308.80822
308.05085
307.2603
306.43862
305.58868
304.71433
303.82055
302.91359
302.00107
301.09202
300.19678
299.32676
298.49402
297.71064
296.98796
296.33564
295.76088
295.2677
294.85664
294.52474
294.26594
294.07178
293.93228
293.83683
293.77509
293.73765
293.71658
293.70571
293.70062
293.69849
293.6977
293.69745
293.69738
293.69736
293.69736
293.69736
293.69736
293.69736
293.69736
293.69736
293.69736
293.69736
313.74512
313.26665
312.75582
312.21159
311.6331
311.01966
310.37087
309.68659
308.96708
308.21303
307.42572
306.60706
305.75979
304.88759
303.99524
303.08875
302.1755
301.26424
300.36506
299.48919
298.64856
297.85527
297.12078
296.45507
295.86577
295.35747
294.93131
294.58492
294.31276
294.10679
293.95729
293.85378
293.78588
293.74402
293.72001
293.70735
293.70127
293.69866
293.69767
293.69734
293.69724
293.69722
293.69721
293.69721
293.69721
293.69721
293.69721
293.69721
293.69721
293.69721
313.86857
313.39246
312.88414
312.34258
311.76691
311.15644
310.51073
309.82963
309.11334
308.36253
307.57838
306.7627
305.91813
305.04816
304.15741
303.25168
302.3381
301.42517
300.52276
299.64189
298.79437
297.99226
297.24714
296.56923
295.96658
295.44427
295.00399
294.64393
294.35907
294.14177
293.98257
293.87115
293.79712
293.75079
293.72375
293.70918
293.70204
293.69889
293.69765
293.69723
293.69711
293.69707
293.69707
293.69707
293.69707
293.69707
293.69707
293.69707
293.69707
293.69707
313.98217
313.5083
313.00238
312.46336
311.89038
311.28273
310.63997
309.96192
309.24874
308.50105
307.71996
306.90721
306.06531
305.19763
304.3086
303.40383
302.49023
301.57608
300.67101
299.78585
298.93226
298.12227
297.36754
296.67851
296.06355
295.5282
295.07469
294.70174
294.4048
294.17662
294.00803
293.88886
293.80875
293.75792
293.72777
293.71122
293.70292
293.69917
293.69767
293.69714
293.69697
293.69693
293.69692
293.69692
293.69692
293.69692
293.69692
293.69692
293.69692
293.69692
314.08731
313.61558
313.11193
312.57534
312.00492
311.39997
310.76002
310.08488
309.37468
308.62999
307.85187
307.04198
306.20271
305.33732
304.45008
303.54643
302.63306
301.71804
300.81078
299.92192
299.06298
298.24593
297.48247
296.78323
296.15689
295.60941
295.14348
294.75833
294.44987
294.21125
294.03359
293.90684
293.82072
293.76538
293.73206
293.71345
293.70393
293.69952
293.69771
293.69705
293.69684
293.69679
293.69678
293.69677
293.69677
293.69677
293.69677
293.69677
293.69677
293.69677
314.1851
313.71541
313.21393
312.67965
312.11167
311.50929
310.87203
310.19967
309.49233
308.75053
307.97527
307.16814
306.33145
305.46835
304.58295
303.68052
302.76757
301.85197
300.94291
300.05084
299.18716
298.36374
297.59234
296.88371
296.24682
295.688
295.21039
294.81369
294.49427
294.24562
294.05917
293.92504
293.83299
293.77314
293.7366
293.71586
293.70505
293.69994
293.69778
293.69698
293.69672
293.69665
293.69663
293.69663
293.69663
293.69663
293.69663
293.69663
293.69663
293.69663
314.27648
313.80873
313.30932
312.77723
312.21158
311.61165
310.97696
310.30726
309.60265
308.86362
308.09112
307.28668
306.45251
305.59166
304.70812
303.80699
302.89461
301.97866
301.06813
300.17328
299.30537
298.4762
297.69753
296.98025
296.33355
295.76411
295.2755
294.86785
294.53795
294.27968
294.08472
293.94338
293.8455
293.78117
293.74138
293.71845
293.70629
293.70042
293.69789
293.69692
293.6966
293.69651
293.69649
293.69648
293.69648
293.69648
293.69648
293.69648
293.69648
293.69648
314.36221
313.8963
313.39886
312.86887
312.30544
311.70785
311.07561
310.40845
309.70647
308.97009
308.20025
307.3984
306.56669
305.70805
304.82637
303.9266
303.01491
302.09879
301.18706
300.2898
299.41811
298.58373
297.79839
297.0731
296.41726
295.83786
295.33886
294.9208
294.5809
294.31338
294.11019
293.96184
293.85823
293.78944
293.74639
293.72122
293.70765
293.70097
293.69803
293.69688
293.69649
293.69637
293.69634
293.69634
293.69634
293.69634
293.69634
293.69634
293.69634
293.69634
314.44291
313.97876
313.48321
312.95522
312.39391
311.79856
311.16865
310.50394
309.80446
309.07064
308.30335
307.504
306.67468
305.81821
304.93838
304.04
303.1291
302.21297
301.30027
300.4009
299.52583
298.6867
297.89523
297.16251
296.49813
295.90937
295.40054
294.97259
294.62312
294.3467
294.13555
293.98036
293.87112
293.79793
293.75159
293.72415
293.70912
293.7016
293.69821
293.69685
293.69638
293.69624
293.6962
293.69619
293.69619
293.69619
293.69619
293.69619
293.69619
293.69619
314.51913
314.05667
313.56291
313.03683
312.47755
311.88433
311.25667
310.59429
309.89721
309.16584
308.40102
307.60409
306.77708
305.92274
305.04474
304.14778
303.23772
302.32172
301.40824
300.50704
299.62893
298.78546
297.98834
297.24871
296.57633
295.97875
295.46061
295.02324
294.6646
294.37961
294.16077
293.99892
293.88416
293.80659
293.75699
293.72724
293.7107
293.70229
293.69842
293.69684
293.69628
293.6961
293.69606
293.69605
293.69604
293.69604
293.69604
293.69604
293.69604
293.69604
314.59133
314.13047
313.63843
313.11418
312.55684
311.96567
311.34015
310.68001
309.98524
309.25623
308.49377
307.69918
306.87441
306.02215
305.14596
304.25042
303.34126
302.42549
301.5114
300.6086
299.72775
298.88031
298.07796
297.33189
296.65201
296.04611
295.51913
295.07277
294.70535
294.41212
294.18581
294.01748
293.89731
293.81543
293.76255
293.73048
293.7124
293.70305
293.69867
293.69685
293.69618
293.69597
293.69591
293.6959
293.6959
293.6959
293.6959
293.6959
293.6959
293.6959
314.65988
314.20057
313.71018
313.18768
312.63219
312.04299
311.41953
310.76152
310.06897
309.34222
308.58205
307.78972
306.96713
306.11689
305.24248
304.34836
303.44015
302.52469
301.61014
300.70593
299.82261
298.97153
298.16433
297.41225
296.72532
296.11154
295.57617
295.12123
294.74538
294.44419
294.21066
294.03601
293.91054
293.8244
293.76827
293.73385
293.7142
293.70388
293.69897
293.69688
293.6961
293.69584
293.69577
293.69575
293.69575
293.69575
293.69575
293.69575
293.69575
293.69575
314.72514
314.26731
313.77849
313.25768
312.70397
312.11664
311.49516
310.83921
310.14879
309.42422
308.66625
307.8761
307.05562
306.20736
305.33469
304.442
303.53476
302.61969
301.70479
300.79936
299.9138
299.05937
298.24766
297.48995
296.79638
296.17515
295.63179
295.16864
294.7847
294.47584
294.2353
294.0545
293.92384
293.8335
293.77413
293.73736
293.7161
293.70478
293.6993
293.69693
293.69602
293.69572
293.69563
293.69561
293.69561
293.6956
293.6956
293.6956
293.6956
293.6956
314.78739
314.33097
313.84367
313.32447
312.77248
312.18696
311.56737
310.9134
310.22503
309.50257
308.74671
307.95868
307.14024
306.29389
305.42294
304.53166
303.62542
302.7108
301.79566
300.88916
300.00157
299.14405
298.32815
297.56515
296.86531
296.23702
295.68604
295.21504
294.82332
294.50705
294.25972
294.07293
293.93718
293.8427
293.78012
293.74098
293.71811
293.70575
293.69968
293.697
293.69595
293.69559
293.69549
293.69546
293.69546
293.69546
293.69546
293.69546
293.69546
293.69546
314.84688
314.39183
313.90599
313.38834
312.83799
312.25421
311.63645
310.98439
310.29799
309.57755
308.82374
308.03775
307.2213
306.37682
305.50755
304.61767
303.71244
302.79831
301.88303
300.97559
300.08616
299.22579
298.40597
297.63801
296.93224
296.29723
295.73899
295.26046
294.86126
294.53782
294.2839
294.09128
293.95055
293.852
293.78623
293.74473
293.7202
293.70679
293.7001
293.69709
293.69589
293.69548
293.69535
293.69532
293.69531
293.69531
293.69531
293.69531
293.69531
293.69531
314.90385
314.45011
313.96567
313.44952
312.90075
312.31864
311.70264
311.05241
310.36792
309.64943
308.89761
308.11358
307.29906
306.4564
305.58878
304.70028
303.79607
302.88249
301.96713
301.05888
300.16777
299.30476
298.48128
297.70865
296.99727
296.35587
295.7907
295.30494
294.89852
294.56816
294.30785
294.10953
293.96393
293.86136
293.79244
293.74857
293.72239
293.7079
293.70055
293.6972
293.69584
293.69536
293.69521
293.69518
293.69517
293.69517
293.69517
293.69517
293.69517
293.69517
314.95849
314.50602
314.02293
313.50821
312.96097
312.38047
311.76616
311.11771
310.43505
309.71845
308.96854
308.18643
307.37377
306.53289
305.66688
304.77975
303.87657
302.96356
302.0482
301.13924
300.2466
299.38114
298.55423
297.77719
297.0605
296.41302
295.8412
295.34851
294.93513
294.59808
294.33155
294.12768
293.97731
293.87079
293.79874
293.75252
293.72466
293.70906
293.70105
293.69734
293.6958
293.69525
293.69508
293.69503
293.69502
293.69502
293.69502
293.69502
293.69502
293.69502
315.01097
314.55972
314.07793
313.5646
313.01883
312.43989
311.82722
311.18047
310.49959
309.78481
309.03675
308.25649
307.44565
306.6065
305.74206
304.85629
303.95413
303.04173
302.12642
301.21685
300.32282
299.45508
298.62496
297.84376
297.12202
296.46873
295.89055
295.39119
294.97111
294.62757
294.35501
294.14572
293.99067
293.88027
293.80513
293.75656
293.72702
293.71029
293.7016
293.6975
293.69578
293.69514
293.69494
293.69489
293.69488
293.69487
293.69487
293.69487
293.69487
293.69487
315.06146
314.61138
314.13085
313.61886
313.07451
312.49707
311.88598
311.24089
310.56172
309.8487
309.10244
308.32397
307.5149
306.67743
305.81454
304.93009
304.02897
303.11718
302.20199
301.29189
300.39658
299.52673
298.69359
297.90845
297.18191
296.52308
295.9388
295.43303
295.00647
294.65664
294.37821
294.16364
294.00402
293.88979
293.81158
293.76068
293.72945
293.71159
293.70218
293.69768
293.69576
293.69504
293.69481
293.69475
293.69473
293.69473
293.69473
293.69473
293.69473
293.69473
315.11008
314.66115
314.18183
313.67113
313.12816
312.55217
311.9426
311.29911
310.6216
309.91029
309.16576
308.38904
307.58168
306.74585
305.88447
305.00134
304.10124
303.1901
302.27506
301.36451
300.46804
299.59621
298.76023
297.97136
297.24025
296.57613
295.986
295.47404
295.04122
294.6853
294.40116
294.18144
294.01732
293.89934
293.81811
293.76488
293.73195
293.71293
293.7028
293.69789
293.69576
293.69495
293.69468
293.6946
293.69459
293.69458
293.69458
293.69458
293.69458
293.69458
315.15698
314.70914
314.231
313.72155
313.17991
312.60532
311.99723
311.35529
310.67938
309.96973
309.22689
308.45186
307.64616
306.81193
305.95203
305.07018
304.17111
303.26063
302.34579
301.43486
300.53732
299.66365
298.82499
298.03259
297.29712
296.62793
296.03218
295.51426
295.07539
294.71355
294.42385
294.1991
294.03059
293.90892
293.82469
293.76915
293.73453
293.71434
293.70346
293.69812
293.69577
293.69486
293.69455
293.69446
293.69444
293.69444
293.69444
293.69444
293.69444
293.69444
315.20225
314.75548
314.27848
313.77024
313.22988
312.65666
312.05
311.40955
310.7352
310.02715
309.28595
308.51256
307.70849
306.87582
306.01736
305.13679
304.23873
303.32892
302.41431
301.50306
300.60455
299.72916
298.88797
298.09221
297.35259
296.67854
296.07739
295.55372
295.10898
294.7414
294.44629
294.21663
294.04381
293.9185
293.83132
293.77348
293.73717
293.7158
293.70417
293.69838
293.6958
293.69477
293.69442
293.69432
293.6943
293.69429
293.69429
293.69429
293.69429
293.69429
315.24601
314.80027
314.32437
313.81731
313.27819
312.70628
312.10101
311.46202
310.78918
310.08269
309.34307
308.57128
307.76879
306.93764
306.0806
305.20127
304.30422
303.3951
302.48074
301.56923
300.66983
299.79284
298.94926
298.15031
297.40672
296.72801
296.12166
295.59244
295.14203
294.76887
294.46849
294.23401
294.05698
293.92809
293.838
293.77788
293.73987
293.71732
293.70491
293.69866
293.69583
293.6947
293.6943
293.69418
293.69415
293.69414
293.69414
293.69414
293.69414
293.69414
315.28834
314.8436
314.36877
313.86285
313.32494
312.75431
312.15039
311.5128
310.84143
310.13645
309.39837
308.62814
307.82718
306.99752
306.14186
305.26376
304.36771
303.45928
302.54522
301.63349
300.73327
299.85477
299.00894
298.20695
297.45957
296.77639
296.16503
295.63045
295.17453
294.79595
294.49043
294.25126
294.07009
293.93768
293.84471
293.78233
293.74263
293.71888
293.70569
293.69897
293.69588
293.69463
293.69418
293.69404
293.69401
293.694
293.694
293.694
293.694
293.694
315.32934
314.88557
314.41178
313.90696
313.37022
312.80084
312.19822
311.562
310.89205
310.18854
309.45196
308.68325
307.88378
307.05557
306.20127
305.32438
304.42932
303.52158
302.60783
301.69593
300.79497
299.91506
299.06709
298.26221
297.5112
296.82373
296.20753
295.66777
295.20651
294.82266
294.51212
294.26836
294.08313
293.94727
293.85145
293.78683
293.74544
293.72049
293.7065
293.6993
293.69595
293.69456
293.69406
293.6939
293.69386
293.69385
293.69385
293.69385
293.69385
293.69385
315.36908
314.92625
314.45347
313.94972
313.41412
312.84594
312.24459
311.6097
310.94114
310.23905
309.50394
308.73669
307.93869
307.11189
306.25892
305.38322
304.48914
303.58211
302.66868
301.75666
300.85501
299.97379
299.12379
298.31615
297.56166
296.87006
296.2492
295.70442
295.23799
294.849
294.53358
294.28532
294.09611
293.95684
293.85822
293.79137
293.7483
293.72215
293.70735
293.69965
293.69603
293.6945
293.69394
293.69377
293.69372
293.69371
293.69371
293.69371
293.69371
293.69371
315.40763
314.96572
314.49391
313.99121
313.45672
312.88971
312.28959
311.65599
310.98877
310.28808
309.55439
308.78858
307.992
307.16658
306.31492
305.44038
304.54727
303.64094
302.72787
301.81575
300.91348
300.03102
299.1791
298.36883
297.611
296.91542
296.29007
295.74043
295.26897
294.87499
294.55479
294.30214
294.10902
293.9664
293.86501
293.79596
293.75121
293.72385
293.70824
293.70003
293.69612
293.69445
293.69383
293.69363
293.69357
293.69356
293.69356
293.69356
293.69356
293.69356
315.44506
315.00404
314.53318
314.03149
313.49808
312.93221
312.33329
311.70095
311.03504
310.3357
309.60339
308.83898
308.0438
307.21973
306.36934
305.49595
304.60381
303.69818
302.78547
301.8733
300.97046
300.08683
299.23309
298.4203
297.65927
296.95986
296.33017
295.77581
295.29947
294.90062
294.57576
294.31881
294.12186
293.97594
293.87182
293.80059
293.75417
293.7256
293.70916
293.70044
293.69623
293.69441
293.69372
293.69349
293.69343
293.69342
293.69341
293.69341
293.69341
293.69341
315.48142
315.04127
314.57134
314.07064
313.53828
312.97351
312.37576
311.74464
311.08001
310.38199
309.65103
308.88799
308.09416
307.27142
306.42227
305.55001
304.65882
303.75389
302.84157
301.92937
301.02601
300.14128
299.28581
298.47061
297.70651
297.00342
296.36952
295.8106
295.3295
294.92592
294.5965
294.33533
294.13462
293.98546
293.87863
293.80524
293.75717
293.72738
293.71012
293.70086
293.69635
293.69437
293.69361
293.69336
293.69329
293.69327
293.69327
293.69327
293.69327
293.69327
315.51679
315.07748
314.60845
314.10871
313.57736
313.01368
312.41707
311.78714
311.12375
310.42701
309.69737
308.93566
308.14316
307.32171
306.47379
305.60264
304.71238
303.80817
302.89623
301.98403
301.0802
300.19444
299.33732
298.51982
297.75277
297.04611
296.40815
295.8448
295.35909
294.95088
294.61701
294.35171
294.1473
293.99495
293.88546
293.80993
293.7602
293.72921
293.7111
293.70131
293.69648
293.69434
293.69351
293.69323
293.69315
293.69313
293.69312
293.69312
293.69312
293.69312
315.55119
315.11271
314.64456
314.14575
313.6154
313.05277
312.45727
311.8285
311.16633
310.47084
309.74249
308.98207
308.19087
307.37068
306.52396
305.6539
304.76458
303.86106
302.94954
302.03736
301.13309
300.24636
299.38768
298.56797
297.79807
297.08798
296.44608
295.87844
295.38823
294.97551
294.63729
294.36795
294.15991
294.00441
293.8923
293.81464
293.76328
293.73107
293.71212
293.70178
293.69663
293.69432
293.69341
293.6931
293.693
293.69298
293.69298
293.69297
293.69297
293.69297
315.5847
315.14701
314.67972
314.18182
313.65244
313.09084
312.49641
311.86879
311.20779
310.51353
309.78642
309.02728
308.23735
307.4184
306.57285
305.70387
304.81546
303.91265
303.00153
302.08941
301.18475
300.29711
299.43692
298.6151
297.84247
297.12906
296.48335
295.91153
295.41694
294.99982
294.65735
294.38404
294.17244
294.01385
293.89913
293.81938
293.76638
293.73296
293.71317
293.70228
293.6968
293.69431
293.69331
293.69297
293.69286
293.69283
293.69283
293.69283
293.69283
293.69283
315.61733
315.18043
314.71398
314.21697
313.68854
313.12793
312.53456
311.90804
311.24819
310.55513
309.82925
309.07135
308.28265
307.46492
306.62053
305.7526
304.8651
303.96298
303.05229
302.14024
301.23522
300.34671
299.48511
298.66126
297.88599
297.16937
296.51997
295.94409
295.44524
295.02383
294.67718
294.39999
294.18488
294.02325
293.90597
293.82414
293.76952
293.73489
293.71425
293.7028
293.69698
293.69431
293.69322
293.69284
293.69272
293.69269
293.69268
293.69268
293.69268
293.69268
315.64915
315.21301
314.74737
314.25124
313.72372
313.16409
312.57175
311.94631
311.28759
310.59569
309.87101
309.11432
308.32684
307.5103
306.66704
305.80014
304.91354
304.01212
303.10186
302.1899
301.28455
300.39524
299.53227
298.70647
297.92867
297.20895
296.55596
295.97614
295.47314
295.04753
294.69681
294.4158
294.19725
294.03261
293.91281
293.82892
293.77268
293.73685
293.71535
293.70333
293.69717
293.69431
293.69313
293.69271
293.69258
293.69255
293.69254
293.69254
293.69254
293.69254
315.68019
315.2448
314.77995
314.28466
313.75805
313.19937
312.60804
311.98365
311.32603
310.63527
309.91176
309.15626
308.36996
307.55458
306.71244
305.84656
304.96084
304.06012
303.15029
302.23844
301.3328
300.44272
299.57846
298.75079
297.97053
297.24781
296.59135
296.00769
295.50064
295.07093
294.71622
294.43147
294.20953
294.04194
293.91963
293.83371
293.77588
293.73884
293.71648
293.70389
293.69738
293.69432
293.69305
293.69258
293.69244
293.6924
293.69239
293.69239
293.69239
293.69239
315.71048
315.27581
314.81174
314.31728
313.79155
313.2338
312.64345
312.0201
311.36356
310.67391
309.95154
309.1972
308.41207
307.59783
306.75677
305.89191
305.00706
304.10702
303.19764
302.28591
301.38001
300.48921
299.6237
298.79424
298.01161
297.28599
296.62615
296.03876
295.52776
295.09404
294.73542
294.447
294.22174
294.05123
293.92646
293.83851
293.77909
293.74086
293.71764
293.70447
293.6976
293.69434
293.69297
293.69246
293.6923
293.69226
293.69225
293.69224
293.69224
293.69224
315.74005
315.3061
314.84279
314.34914
313.82427
313.26743
312.67804
312.05569
311.4002
310.71164
309.9904
309.23719
308.4532
307.64008
306.8001
305.93622
305.05224
304.15288
303.24394
302.33236
301.42622
300.53474
299.66804
298.83685
298.05194
297.3235
296.66039
296.06936
295.55451
295.11687
294.75442
294.46239
294.23386
294.06047
293.93327
293.84333
293.78233
293.74291
293.71882
293.70508
293.69784
293.69437
293.69289
293.69234
293.69216
293.69211
293.6921
293.6921
293.6921
293.6921
315.76894
315.33568
314.87312
314.38026
313.85623
313.30028
312.71183
312.09047
311.43601
310.74852
310.02837
309.27628
308.4934
307.68138
306.84245
305.97954
305.09641
304.19774
303.28925
302.37782
301.47147
300.57934
299.71151
298.87866
298.09154
297.36038
296.69408
296.09951
295.5809
295.13942
294.77322
294.47765
294.24589
294.06968
293.94007
293.84816
293.78559
293.74497
293.72003
293.7057
293.69808
293.69441
293.69282
293.69222
293.69202
293.69197
293.69195
293.69195
293.69195
293.69195
315.79718
315.3646
314.90276
314.41068
313.88747
313.3324
312.74487
312.12447
311.47101
310.78457
310.06549
309.31449
308.53271
307.72176
306.88386
306.02192
305.13963
304.24163
303.3336
302.42233
301.51579
300.62306
299.75415
298.91969
298.13044
297.39663
296.72723
296.12922
295.60693
295.1617
294.79182
294.49278
294.25785
294.07885
293.94686
293.85299
293.78887
293.74707
293.72126
293.70634
293.69835
293.69446
293.69275
293.6921
293.69188
293.69182
293.69181
293.69181
293.69181
293.69181
315.82479
315.39288
314.93176
314.44043
313.91803
313.3638
312.77717
312.15772
311.50525
310.81982
310.1018
309.35187
308.57116
307.76127
306.92439
306.06339
305.18193
304.2846
303.37702
302.46593
301.55923
300.66592
299.79597
298.95997
298.16866
297.43228
296.75987
296.1585
295.63262
295.18372
294.81023
294.50777
294.26973
294.08797
293.95364
293.85783
293.79217
293.74918
293.72252
293.70699
293.69863
293.69451
293.69269
293.69199
293.69175
293.69168
293.69166
293.69166
293.69166
293.69166
315.85181
315.42055
314.96012
314.46953
313.94792
313.39453
312.80878
312.19025
311.53875
310.85432
310.13732
309.38844
308.60879
307.79993
306.96405
306.10398
305.22334
304.32668
303.41956
302.50866
301.60181
300.70797
299.83702
298.99953
298.20622
297.46735
296.79201
296.18736
295.65797
295.20548
294.82845
294.52263
294.28152
294.09705
293.9604
293.86267
293.79548
293.75132
293.72379
293.70767
293.69892
293.69457
293.69263
293.69187
293.69161
293.69154
293.69152
293.69151
293.69151
293.69151
315.87824
315.44762
314.98787
314.49802
313.97718
313.42461
312.83972
312.22209
311.57153
310.88809
310.1721
309.42425
308.64563
307.83779
307.0029
306.14374
305.26391
304.36791
303.46125
302.55055
301.64358
300.74922
299.87732
299.0384
298.24315
297.50186
296.82367
296.21581
295.683
295.22699
294.84648
294.53736
294.29323
294.10609
293.96714
293.86752
293.79881
293.75348
293.72509
293.70837
293.69922
293.69464
293.69258
293.69176
293.69148
293.69139