/*--------------------------------*- C++ -*----------------------------------*\
| =========                 |                                                 |
| \\      /  F ield         | OpenFOAM: The Open Source CFD Toolbox           |
|  \\    /   O peration     | Version:  3.0.1                                 |
|   \\  /    A nd           | Web:      www.OpenFOAM.org                      |
|    \\/     M anipulation  |                                                 |
\*---------------------------------------------------------------------------*/
FoamFile
{
    version     2.0;
    format      ascii;
    class       volVectorField;
    location    "9000/fluid";
    object      U;
}
// * * * * * * * * * * * * * * * * * * * * * * * * * * * * * * * * * * * * * //

dimensions      [0 1 -1 0 0 0 0];

internalField   nonuniform List<vector> 
4000
(
(2.0486365e-05 5.9238894e-19 0.027201865)
(2.0933696e-05 1.5137433e-18 0.063877976)
(2.4328207e-05 1.9770483e-18 0.089635199)
(-3.1399839e-06 1.9353536e-18 0.10733946)
(-4.3945327e-05 1.9039879e-18 0.11922974)
(-8.7905527e-05 1.8961317e-18 0.12702757)
(-0.00012605986 1.8949959e-18 0.13201683)
(-0.00015397366 1.1947923e-18 0.1351124)
(-0.00017070717 7.3147234e-19 0.13694009)
(-0.00017762691 2.2570724e-19 0.13791092)
(-0.00017711458 -2.0200295e-19 0.13828414)
(-0.0001716758 4.5693791e-19 0.13821681)
(-0.00016344569 1.0828717e-18 0.13780023)
(-0.00015400962 1.6815452e-18 0.13708531)
(-0.00014441701 1.2831191e-18 0.13609923)
(-0.00013528698 8.6026779e-19 0.13485594)
(-0.00012693507 4.4804791e-19 0.13336226)
(-0.0001194816 -8.2569913e-19 0.13162145)
(-0.00011293416 -2.0958039e-18 0.12963497)
(-0.00010724127 -3.3553335e-18 0.12740332)
(-0.00010232209 -4.6156545e-18 0.12492631)
(-9.8084149e-05 -5.8640608e-18 0.12220298)
(-9.4430387e-05 -5.5417524e-18 0.11923133)
(-9.1263096e-05 -5.2721717e-18 0.11600787)
(-8.8487458e-05 -5.0256809e-18 0.11252703)
(-8.6006277e-05 -6.2972659e-18 0.10878041)
(-8.3729969e-05 -7.5419116e-18 0.10475597)
(-8.1561323e-05 -7.4674257e-18 0.10043703)
(-7.9416194e-05 -7.4552289e-18 0.095801161)
(-7.7187893e-05 -7.497942e-18 0.090818952)
(-7.480889e-05 -7.562504e-18 0.085452639)
(-7.2130329e-05 -5.7520076e-18 0.079654559)
(-6.9130675e-05 -5.8441762e-18 0.073365551)
(-6.552622e-05 -5.9115811e-18 0.066512921)
(-6.1432685e-05 -6.0497105e-18 0.059008547)
(-5.6143974e-05 -4.8515785e-18 0.050745659)
(-5.0182509e-05 -4.8619317e-18 0.041596355)
(-4.1323064e-05 -3.9199459e-18 0.03140414)
(-3.1279756e-05 -2.3006064e-18 0.019977942)
(-1.0092976e-05 -7.2766378e-19 0.007060572)
(-1.1160736e-05 3.4867633e-19 0.028729656)
(-0.00011664727 8.9230832e-19 0.067366902)
(-0.00027817317 1.336048e-18 0.094066435)
(-0.00045979124 1.1241596e-18 0.11183939)
(-0.00063046073 1.4433539e-18 0.12322184)
(-0.00077042161 1.6111184e-18 0.13023604)
(-0.00086846578 1.6639902e-18 0.13439303)
(-0.00092190905 8.7491432e-19 0.13674766)
(-0.00093453321 5.1261249e-19 0.13798793)
(-0.00091406104 1.3359967e-19 0.13853294)
(-0.00086970334 -2.1444334e-19 0.13862027)
(-0.00081031353 3.9988092e-19 0.13837423)
(-0.00074329115 8.8686958e-19 0.13785383)
(-0.00067416456 1.2758587e-18 0.13708348)
(-0.00060664993 1.1770251e-18 0.13607117)
(-0.00054296977 8.0006822e-19 0.13481807)
(-0.00048425592 4.0693823e-19 0.13332322)
(-0.00043092225 -8.2884038e-19 0.13158537)
(-0.00038295398 -2.0412828e-18 0.12960356)
(-0.00034010954 -3.0522241e-18 0.127377)
(-0.00030204194 -4.9169774e-18 0.1249049)
(-0.0002683644 -5.9312497e-18 0.12218598)
(-0.00023868406 -5.5637792e-18 0.1192181)
(-0.00021261608 -5.2762725e-18 0.11599771)
(-0.00018978733 -5.0270314e-18 0.11251922)
(-0.00016983633 -6.2998548e-18 0.10877426)
(-0.00015241588 -7.538897e-18 0.10475082)
(-0.00013718556 -7.4708033e-18 0.10043228)
(-0.00012382698 -7.4584243e-18 0.095796273)
(-0.0001120146 -7.4984155e-18 0.090813435)
(-0.00010146707 -7.5511607e-18 0.08544606)
(-9.1853596e-05 -5.7931914e-18 0.079646545)
(-8.2960574e-05 -6.021404e-18 0.073355736)
(-7.4381111e-05 -5.9331326e-18 0.066500968)
(-6.604555e-05 -6.0572389e-18 0.058993979)
(-5.7238391e-05 -4.8566776e-18 0.050727909)
(-4.823677e-05 -4.9873201e-18 0.041574045)
(-3.7064861e-05 -4.0155136e-18 0.031374832)
(-2.4956218e-05 -2.2430249e-18 0.019934609)
(-4.6427749e-06 -7.4122426e-19 0.0070044009)
(-1.1175335e-05 3.0909738e-19 0.030508378)
(-0.00012857902 7.619294e-19 0.071678708)
(-0.000321668 1.0724176e-18 0.099930915)
(-0.00055392687 1.1866758e-18 0.11826305)
(-0.00079014045 1.2109135e-18 0.12937045)
(-0.0010019549 1.2637696e-18 0.135545)
(-0.0011687445 1.1717194e-18 0.1385888)
(-0.0012797309 8.2488318e-19 0.13979918)
(-0.0013334271 4.3130882e-19 0.14002448)
(-0.0013355864 2.6368375e-19 0.13976119)
(-0.0012963606 2.1085357e-19 0.13926042)
(-0.001227528 5.0538407e-19 0.13862101)
(-0.0011403379 8.4838666e-19 0.13785952)
(-0.0010441937 1.1447488e-18 0.13695627)
(-0.00094612756 9.5762385e-19 0.13588165)
(-0.00085085862 5.9264679e-19 0.13460875)
(-0.00076118691 5.0147627e-20 0.13311761)
(-0.00067850335 -9.4471301e-19 0.13139516)
(-0.00060327004 -2.1228252e-18 0.12943362)
(-0.00053540025 -3.3395239e-18 0.12722856)
(-0.00047452026 -5.0807245e-18 0.12477732)
(-0.00042012833 -5.6886399e-18 0.12207777)
(-0.00037168275 -5.5447312e-18 0.11912739)
(-0.00032864416 -5.3290893e-18 0.11592251)
(-0.00029049177 -5.3076949e-18 0.11245752)
(-0.00025672841 -6.3159042e-18 0.10872411)
(-0.00022688235 -7.3460192e-18 0.10471037)
(-0.00020050047 -7.448675e-18 0.1003998)
(-0.00017715623 -7.4549716e-18 0.095770154)
(-0.00015642822 -7.4686698e-18 0.090792232)
(-0.00013793822 -7.3300359e-18 0.085428462)
(-0.00012127286 -5.7662995e-18 0.079631381)
(-0.00010611881 -5.9326802e-18 0.073341951)
(-9.2012055e-05 -5.9251816e-18 0.06648762)
(-7.8756005e-05 -5.9190552e-18 0.058980146)
(-6.5640058e-05 -4.9813208e-18 0.050712667)
(-5.2692084e-05 -4.8505322e-18 0.041556084)
(-3.8228076e-05 -3.882858e-18 0.031352362)
(-2.2628438e-05 -2.1947426e-18 0.019905896)
(-3.3549116e-06 -7.1313722e-19 0.0069834897)
(-1.0444543e-05 1.4071034e-19 0.032280692)
(-0.00012421208 3.6468451e-19 0.076015916)
(-0.00031665833 5.1382688e-19 0.106018)
(-0.00055799372 1.1538333e-18 0.12525247)
(-0.00081739882 1.0274578e-18 0.13646135)
(-0.0010665949 9.2101829e-19 0.1420844)
(-0.0012810282 7.2692942e-19 0.14414316)
(-0.001443478 9.2209759e-19 0.14417046)
(-0.0015455402 6.9453911e-19 0.14321515)
(-0.0015873223 6.9092978e-19 0.14191055)
(-0.0015756086 9.9478588e-19 0.14057637)
(-0.0015212627 7.2709527e-19 0.13932424)
(-0.0014366182 7.9418605e-19 0.13814723)
(-0.0013333969 8.5086565e-19 0.13698489)
(-0.0012214012 7.1038662e-19 0.13576394)
(-0.0011079711 2.4681521e-19 0.13441936)
(-0.00099803524 -5.2239059e-19 0.1329021)
(-0.00089451125 -1.1996252e-18 0.13117913)
(-0.00079883619 -2.3396874e-18 0.12923012)
(-0.00071147349 -3.8761311e-18 0.12704335)
(-0.00063231125 -4.929426e-18 0.12461222)
(-0.00056093773 -5.5113989e-18 0.12193258)
(-0.0004968095 -5.5210694e-18 0.11900098)
(-0.00043934232 -5.4414798e-18 0.11581328)
(-0.00038795201 -5.7750567e-18 0.11236373)
(-0.00034207245 -6.3481824e-18 0.10864395)
(-0.00030116329 -6.9917755e-18 0.10464208)
(-0.00026470297 -7.3850166e-18 0.10034164)
(-0.00023219756 -7.4338496e-18 0.095720511)
(-0.00020316176 -7.3911781e-18 0.090749574)
(-0.00017714903 -6.901408e-18 0.085391375)
(-0.00015369032 -5.8750568e-18 0.079598566)
(-0.00013239725 -5.7171883e-18 0.073312212)
(-0.00011276642 -5.8734747e-18 0.06645985)
(-9.4502113e-05 -5.6898437e-18 0.058953253)
(-7.6909145e-05 -5.1527464e-18 0.050685509)
(-5.9802659e-05 -4.6337254e-18 0.041527131)
(-4.1774859e-05 -3.6760089e-18 0.031319691)
(-2.2815902e-05 -2.2706869e-18 0.019869056)
(-3.0329539e-06 -6.8837729e-19 0.006956798)
(-9.5516056e-06 2.0689124e-19 0.033932305)
(-0.00011628894 5.5115808e-19 0.08011231)
(-0.00029997509 7.7198435e-19 0.11188151)
(-0.00053591834 9.7532969e-19 0.13217514)
(-0.00079822416 9.8575835e-19 0.14373992)
(-0.0010616087 9.6544549e-19 0.14908926)
(-0.0013017575 9.1927424e-19 0.15038903)
(-0.0014988352 8.5781706e-19 0.1493591)
(-0.0016398471 6.9222122e-19 0.14723745)
(-0.0017196856 6.4964151e-19 0.14481358)
(-0.001740595 7.4138125e-19 0.14251127)
(-0.0017104413 7.7866174e-19 0.14049191)
(-0.0016403881 7.1240931e-19 0.13875372)
(-0.0015425968 5.7696541e-19 0.1372121)
(-0.0014283967 4.3431122e-19 0.1357556)
(-0.001307141 -8.7445242e-21 0.13427898)
(-0.0011857568 -6.8740524e-19 0.13269816)
(-0.001068833 -1.4377342e-18 0.13095338)
(-0.00095902819 -2.4791356e-18 0.12900591)
(-0.0008575959 -3.6771764e-18 0.12683249)
(-0.0007648749 -4.3913136e-18 0.12441982)
(-0.00068067178 -5.3087361e-18 0.12176016)
(-0.00060452193 -5.4829349e-18 0.11884823)
(-0.00053584698 -5.5126172e-18 0.11567903)
(-0.00047403559 -5.8365023e-18 0.11224639)
(-0.00041848109 -6.3807883e-18 0.10854182)
(-0.00036859925 -6.9631617e-18 0.10455336)
(-0.00032382682 -7.3294917e-18 0.10026461)
(-0.00028362926 -7.4034225e-18 0.095653481)
(-0.00024748418 -7.3271917e-18 0.090690945)
(-0.00021490441 -6.8809183e-18 0.085339649)
(-0.00018539008 -6.1670199e-18 0.079552351)
(-0.00015850685 -5.8073634e-18 0.073270212)
(-0.00013373223 -5.8373872e-18 0.066420854)
(-0.00011069753 -5.6450998e-18 0.058916067)
(-8.8732242e-05 -5.1334414e-18 0.050648877)
(-6.7486624e-05 -4.5670165e-18 0.041489497)
(-4.5787644e-05 -3.6050647e-18 0.031279458)
(-2.3523051e-05 -2.2907385e-18 0.019827651)
(-2.8315413e-06 -7.0612141e-19 0.0069307502)
(-8.803547e-06 1.9957892e-19 0.035474549)
(-0.00010884499 5.313666e-19 0.083968889)
(-0.00028293718 8.9803042e-19 0.11746657)
(-0.00050993461 5.1517758e-19 0.13888117)
(-0.00076778108 8.0335976e-19 0.15095182)
(-0.0010343305 9.372237e-19 0.15622921)
(-0.0012869719 1.0396578e-18 0.15697376)
(-0.0015055441 5.5053951e-19 0.15504655)
(-0.0016747684 4.5099948e-19 0.15184659)
(-0.001785936 3.5456462e-19 0.14831413)
(-0.0018373114 1.2092352e-19 0.14499044)
(-0.0018333121 4.8381906e-19 0.14211034)
(-0.0017828098 5.1703408e-19 0.13970233)
(-0.001697055 4.5310598e-19 0.13767773)
(-0.0015877028 2.8857951e-19 0.13589915)
(-0.0014652843 -1.3807825e-19 0.13422559)
(-0.0013382965 -5.939874e-19 0.13253687)
(-0.0012128953 -1.5070321e-18 0.13074243)
(-0.0010930523 -2.4061236e-18 0.12878036)
(-0.00098097859 -3.1476753e-18 0.12661165)
(-0.00087763072 -4.324201e-18 0.12421322)
(-0.00078316557 -5.1551824e-18 0.12157174)
(-0.00069728555 -5.4359091e-18 0.11867891)
(-0.00061947153 -5.5221912e-18 0.11552829)
(-0.00054911514 -5.6244629e-18 0.11211298)
(-0.0004855856 -6.3863782e-18 0.10842419)
(-0.00042826565 -7.1531758e-18 0.10444985)
(-0.0003765574 -7.3127729e-18 0.10017352)
(-0.00032988972 -7.3772474e-18 0.095573156)
(-0.00028770945 -7.2979237e-18 0.090619797)
(-0.00024949493 -7.1106397e-18 0.085276167)
(-0.00021472034 -6.2607284e-18 0.079495116)
(-0.00018291456 -6.0504365e-18 0.073217892)
(-0.00015354157 -5.8419264e-18 0.066372185)
(-0.00012617438 -5.7225268e-18 0.058869798)
(-0.00010016372 -4.9957946e-18 0.050603685)
(-7.5046194e-05 -4.589349e-18 0.041443852)
(-4.98458e-05 -3.6312234e-18 0.031232188)
(-2.4554571e-05 -2.1735445e-18 0.019781746)
(-2.76547e-06 -7.2666565e-19 0.0069039268)
(-8.1503327e-06 3.3179698e-19 0.03691397)
(-0.000102029 5.5458503e-19 0.087594577)
(-0.00026683181 8.0643813e-19 0.12276434)
(-0.00048406755 9.8628966e-19 0.14531961)
(-0.0007346283 1.2806026e-18 0.15798696)
(-0.0009990428 1.77997e-18 0.16333535)
(-0.0012566564 1.5905071e-18 0.16368877)
(-0.0014879703 8.4090113e-19 0.16101508)
(-0.0016768489 4.0606714e-19 0.15684658)
(-0.0018123964 3.2984464e-19 0.15225972)
(-0.0018898949 2.9504125e-19 0.14791328)
(-0.0019106666 3.8914094e-19 0.14412702)
(-0.0018810098 3.8298009e-19 0.14097708)
(-0.0018105438 3.1660925e-19 0.13838846)
(-0.001710368 4.9053096e-20 0.13621174)
(-0.0015913989 -3.8041373e-19 0.13427849)
(-0.0014631494 -9.3499172e-19 0.13243527)
(-0.0013330598 -1.8121124e-18 0.13055967)
(-0.0012063509 -2.4913442e-18 0.12856349)
(-0.001086262 -3.273661e-18 0.12638837)
(-0.00097448472 -4.1769296e-18 0.12399836)
(-0.00087163932 -4.7297189e-18 0.12137229)
(-0.00077768522 -5.3366762e-18 0.11849746)
(-0.00069222008 -5.5362177e-18 0.1153651)
(-0.00061467171 -5.7559262e-18 0.11196723)
(-0.00054440634 -6.4287337e-18 0.10829449)
(-0.00048078317 -7.2445635e-18 0.10433465)
(-0.00042317538 -7.3333756e-18 0.10007117)
(-0.00037098098 -7.5306713e-18 0.095482016)
(-0.00032361702 -7.2865107e-18 0.090538284)
(-0.00028053257 -7.0378698e-18 0.085202767)
(-0.00024117743 -6.5375165e-18 0.079428397)
(-0.00020504737 -6.2550413e-18 0.073156502)
(-0.00017159483 -5.8590709e-18 0.066314836)
(-0.00014034432 -5.6304816e-18 0.058815211)
(-0.00011066053 -4.8739737e-18 0.050550509)
(-8.2005164e-05 -4.498799e-18 0.041390648)
(-5.3575759e-05 -3.5538408e-18 0.031178297)
(-2.5589352e-05 -2.2253939e-18 0.019731532)
(-2.717138e-06 -7.4530713e-19 0.0068760259)
(-7.5905123e-06 1.2767994e-19 0.038262363)
(-9.5963536e-05 3.2615245e-19 0.091011249)
(-0.0002521987 4.6788967e-19 0.12779175)
(-0.00045987956 1.2317008e-18 0.15148602)
(-0.00070221974 1.1706896e-18 0.16480595)
(-0.00096195937 1.0178812e-18 0.17032765)
(-0.0012202893 7.9658686e-19 0.17041872)
(-0.0014587314 9.8014219e-19 0.16712903)
(-0.0016610626 6.8878362e-19 0.16210098)
(-0.0018151727 6.7280247e-19 0.15653113)
(-0.0019142594 9.624292e-19 0.15118965)
(-0.0019571421 5.3850248e-19 0.14648466)
(-0.0019477077 2.7294106e-19 0.14255027)
(-0.0018936947 8.4403462e-20 0.13933851)
(-0.0018051221 -1.5690348e-19 0.13670069)
(-0.0016926772 -6.8180004e-19 0.13445052)
(-0.0015663523 -1.4175288e-18 0.13240669)
(-0.0014345115 -1.9069552e-18 0.1304164)
(-0.0013034561 -2.6758916e-18 0.12836388)
(-0.0011774303 -3.6660609e-18 0.12616886)
(-0.0010589242 -3.7880244e-18 0.12377976)
(-0.00094911379 -4.3455496e-18 0.12116528)
(-0.00084829647 -5.1998898e-18 0.11830672)
(-0.00075624825 -5.5914198e-18 0.11519199)
(-0.00067247428 -6.0586851e-18 0.11181143)
(-0.00059635946 -6.4541175e-18 0.10815489)
(-0.00052725266 -6.9311112e-18 0.10420977)
(-0.00046450399 -7.3035395e-18 0.09995943)
(-0.00040748476 -7.4528888e-18 0.095381794)
(-0.00035558549 -7.2437533e-18 0.090447993)
(-0.00030822586 -6.7582179e-18 0.085120886)
(-0.00026483386 -6.7758841e-18 0.079353482)
(-0.00022487474 -6.0645405e-18 0.073087186)
(-0.00018778603 -5.8326993e-18 0.066249809)
(-0.00015305347 -5.4312502e-18 0.058753174)
(-0.00012004887 -4.9537795e-18 0.050490112)
(-8.8190227e-05 -4.2063822e-18 0.041330589)
(-5.683526e-05 -3.2794972e-18 0.031118479)
(-2.6487186e-05 -2.2165308e-18 0.01967753)
(-2.6568353e-06 -6.8176626e-19 0.0068471962)
(-7.1057207e-06 -3.0096301e-19 0.039530045)
(-9.0572039e-05 -5.1437959e-19 0.094239834)
(-0.00023900499 -2.6439438e-19 0.13256994)
(-0.00043766231 -2.3812432e-19 0.1573904)
(-0.00067163341 7.2103436e-20 0.17139735)
(-0.00092549377 -2.0933196e-19 0.17716714)
(-0.0011820833 -2.2150751e-19 0.17709736)
(-0.0014240322 -1.8653762e-19 0.17330182)
(-0.0016354224 2.9528545e-19 0.16751447)
(-0.0018035426 4.4391345e-19 0.16103717)
(-0.0019201886 5.158957e-19 0.15474318)
(-0.0019822511 4.0650563e-19 0.14912792)
(-0.0019915356 4.329241e-20 0.14438865)
(-0.0019539286 -4.6496353e-19 0.14051355)
(-0.0018781241 -4.7304151e-19 0.13736505)
(-0.0017741706 -8.6432158e-19 0.13474825)
(-0.0016520954 -1.3815932e-18 0.13246043)
(-0.00152082 -1.718672e-18 0.13032157)
(-0.0013874959 -2.5800888e-18 0.12818877)
(-0.0012572796 -3.2467994e-18 0.12595841)
(-0.0011334666 -4.3233883e-18 0.12356113)
(-0.001017845 -4.8614761e-18 0.12095335)
(-0.0009111217 -5.2193264e-18 0.11810867)
(-0.00081331223 -5.6240655e-18 0.11501057)
(-0.00072404053 -6.0540452e-18 0.11164702)
(-0.00064273692 -6.4529824e-18 0.10800671)
(-0.00056875492 -6.7562885e-18 0.10407649)
(-0.00050143192 -7.2138144e-18 0.099839505)
(-0.00044011574 -7.2124133e-18 0.095273627)
(-0.00038417308 -7.1909238e-18 0.090349997)
(-0.00033299779 -6.7969921e-18 0.085031528)
(-0.00028599595 -6.5022312e-18 0.079271304)
(-0.0002426046 -6.087254e-18 0.073010802)
(-0.00020224617 -5.815534e-18 0.066177889)
(-0.0001643728 -5.4368917e-18 0.058684406)
(-0.00012835819 -5.0681544e-18 0.050423164)
(-9.3603082e-05 -4.3198033e-18 0.041264326)
(-5.9619547e-05 -3.3350039e-18 0.031053387)
(-2.7218594e-05 -1.9866805e-18 0.019620249)
(-2.5844962e-06 -6.5040589e-19 0.006817609)
(-6.6840674e-06 5.2509298e-19 0.040726311)
(-8.5778494e-05 1.066173e-18 0.097299866)
(-0.0002271406 1.1951036e-18 0.13712072)
(-0.00041740814 8.9436549e-19 0.16304846)
(-0.00064321766 9.4562549e-19 0.17776309)
(-0.00089068479 1.45944e-18 0.18383654)
(-0.0011441014 1.5567231e-18 0.18368673)
(-0.0013871864 7.0515966e-19 0.1794779)
(-0.0016045175 3.0823282e-19 0.17302074)
(-0.001783162 1.7909201e-19 0.16570955)
(-0.0019139966 -1.5453065e-19 0.15851205)
(-0.00199246 1.1836005e-19 0.15200769)
(-0.0020186356 3.710656e-20 0.14645872)
(-0.0019967172 -4.1834841e-20 0.14189525)
(-0.0019340164 -5.222057e-19 0.13819874)
(-0.0018397066 -9.2543479e-19 0.13517369)
(-0.0017235223 -1.2597301e-18 0.13260253)
(-0.0015946179 -2.0516309e-18 0.13028227)
(-0.0014607462 -2.6702848e-18 0.12804446)
(-0.0013278369 -3.3974794e-18 0.12576189)
(-0.0011999498 -4.2552131e-18 0.1233459)
(-0.0010795087 -4.8901938e-18 0.12073883)
(-0.00096768185 -5.2523356e-18 0.11790495)
(-0.00086477896 -5.6188057e-18 0.11482208)
(-0.00077058507 -5.8619214e-18 0.11147502)
(-0.00068460506 -6.4779577e-18 0.10785085)
(-0.00060621648 -7.2038437e-18 0.10393564)
(-0.00053475261 -7.22781e-18 0.099712201)
(-0.00046954452 -7.3726858e-18 0.095158289)
(-0.00040993819 -7.1929442e-18 0.090245038)
(-0.0003553044 -7.0782192e-18 0.084935406)
(-0.0003050281 -6.4896329e-18 0.079182541)
(-0.0002585212 -6.3015795e-18 0.072927995)
(-0.00021519044 -5.8369816e-18 0.06609969)
(-0.00017445919 -5.5561051e-18 0.058609489)
(-0.00013570185 -4.8520328e-18 0.050350231)
(-9.8317302e-05 -4.3723059e-18 0.041192443)
(-6.1974845e-05 -3.3850018e-18 0.030983614)
(-2.7794697e-05 -2.0495125e-18 0.019560159)
(-2.5054432e-06 -6.7594572e-19 0.0067874431)
(-6.3144932e-06 1.5295531e-19 0.041859204)
(-8.1503139e-05 3.5613352e-19 0.10020872)
(-0.0002164612 3.9952259e-19 0.14146462)
(-0.00039898078 1.1634e-18 0.16847748)
(-0.00061699313 1.078162e-18 0.18391118)
(-0.00085792257 9.7890373e-19 0.19033009)
(-0.0011073375 8.0660819e-19 0.19016537)
(-0.001349984 1.1156207e-18 0.18562123)
(-0.0015710225 6.0206725e-19 0.17857326)
(-0.0017575301 4.4602784e-19 0.17049717)
(-0.0018998018 5.7363215e-19 0.16244695)
(-0.0019921966 2.1009158e-19 0.15508186)
(-0.0020333994 -8.2577434e-20 0.14872904)
(-0.0020261193 -2.8999098e-19 0.14346386)
(-0.0019763354 -6.3884126e-19 0.13919247)
(-0.0018922391 -1.1710013e-18 0.1357254)
(-0.0017830504 -1.7565707e-18 0.13283633)
(-0.0016578945 -2.1260479e-18 0.13030377)
(-0.0015248926 -2.8407232e-18 0.12793634)
(-0.0013905834 -3.7895053e-18 0.12558375)
(-0.0012597136 -3.8956781e-18 0.12313735)
(-0.0011353356 -4.4724942e-18 0.12052398)
(-0.00101911 -5.1888884e-18 0.11769708)
(-0.0009116834 -5.6619616e-18 0.11462758)
(-0.00081304501 -6.1664084e-18 0.11129625)
(-0.00072280529 -6.4783504e-18 0.107688)
(-0.0006403834 -6.884662e-18 0.10378784)
(-0.0005651207 -7.1896991e-18 0.099578101)
(-0.00049634008 -7.3074586e-18 0.095036345)
(-0.00043337022 -7.1574362e-18 0.090133666)
(-0.0003755608 -6.7744176e-18 0.084833052)
(-0.00032227722 -6.6381776e-18 0.079087713)
(-0.00027290916 -6.1105019e-18 0.072839268)
(-0.00022684776 -5.8108672e-18 0.066015698)
(-0.00018349098 -5.3616421e-18 0.058528903)
(-0.00014221466 -4.9589267e-18 0.0502718)
(-0.00010243176 -4.0514507e-18 0.041115449)
(-6.3968026e-05 -3.1114363e-18 0.030909684)
(-2.8241285e-05 -2.079673e-18 0.019497675)
(-2.4251996e-06 -6.2211735e-19 0.0067568481)
(-5.9887491e-06 5.6958669e-21 0.042935663)
(-7.7676207e-05 2.9178164e-19 0.10298168)
(-0.00020682622 4.6108066e-19 0.14562039)
(-0.00038220949 5.5990445e-19 0.17369458)
(-0.00059285289 3.8783309e-19 0.18985236)
(-0.00082730417 -6.1955313e-20 0.1966484)
(-0.0010722572 8.9760231e-20 0.19652173)
(-0.0013134099 5.0185627e-19 0.19170837)
(-0.0015365368 3.8628728e-19 0.18413908)
(-0.0017288678 3.0860991e-19 0.17536163)
(-0.0018803504 2.9468205e-19 0.16650878)
(-0.0019845448 1.6821724e-19 0.1583151)
(-0.002039013 -1.4955895e-19 0.1511713)
(-0.0020451905 -4.3909381e-19 0.14519976)
(-0.0020078249 -7.9870598e-19 0.14033526)
(-0.0019341028 -1.2600097e-18 0.13639954)
(-0.0018326003 -1.7157049e-18 0.13316285)
(-0.0017122155 -1.9904069e-18 0.13038974)
(-0.0015812309 -2.8297839e-18 0.12786879)
(-0.0014466325 -3.6745164e-18 0.12542801)
(-0.0013137537 -4.1321418e-18 0.12293861)
(-0.0011862386 -4.9037511e-18 0.12031102)
(-0.001066251 -5.232987e-18 0.11748656)
(-0.00095480793 -5.6781683e-18 0.11442807)
(-0.00085213911 -6.121502e-18 0.11111142)
(-0.00075798972 -6.4671753e-18 0.10751873)
(-0.00067184318 -6.6434926e-18 0.10363359)
(-0.00059306199 -7.1058176e-18 0.099437658)
(-0.00052096726 -7.0991426e-18 0.094908225)
(-0.00045487536 -7.1074129e-18 0.090016299)
(-0.00039411834 -6.7764525e-18 0.084724877)
(-0.00033804429 -6.3418841e-18 0.078987223)
(-0.00028602223 -5.9125098e-18 0.07274502)
(-0.00023742687 -5.7669501e-18 0.06592631)
(-0.00019163729 -5.364432e-18 0.058443043)
(-0.00014803113 -4.9897665e-18 0.05018828)
(-0.00010604606 -4.055016e-18 0.041033785)
(-6.5664861e-05 -3.0779481e-18 0.030832047)
(-2.8587628e-05 -1.9343068e-18 0.01943314)
(-2.3487059e-06 -5.8548101e-19 0.0067259394)
(-5.6994424e-06 1.3464809e-19 0.043961656)
(-7.4236132e-05 3.5253941e-19 0.10563212)
(-0.00019810671 6.0550338e-19 0.14960482)
(-0.00036691913 -1.202947e-19 0.17871597)
(-0.00057063838 1.7065257e-19 0.19559838)
(-0.00079878317 2.8169762e-19 0.20279557)
(-0.0010390438 5.9722253e-19 0.20275042)
(-0.0012779947 1.1045516e-19 0.19772416)
(-0.0015020253 8.6001806e-20 0.18969476)
(-0.0016986054 -8.7075114e-21 0.18027393)
(-0.0018574989 -2.9915916e-19 0.17066655)
(-0.0019716805 -1.5783119e-19 0.16167796)
(-0.0020378122 -3.2804445e-19 0.15376058)
(-0.0020562485 -5.6331509e-19 0.14708438)
(-0.0020306304 -8.2904398e-19 0.14161543)
(-0.0019671686 -1.2510553e-18 0.13719067)
(-0.0018737285 -1.4991809e-18 0.13358141)
(-0.0017588442 -2.0369286e-18 0.13054238)
(-0.0016307927 -2.7520188e-18 0.12784529)
(-0.0014968504 -3.3780903e-18 0.12529819)
(-0.0013628269 -4.6243954e-18 0.12275265)
(-0.001232905 -5.2885491e-18 0.12010214)
(-0.0011097421 -5.3466949e-18 0.11727489)
(-0.00099474636 -5.6641327e-18 0.11422458)
(-0.00088841704 -5.8780705e-18 0.11092123)
(-0.00079066394 -6.4612476e-18 0.10734355)
(-0.00070105567 -6.8945416e-18 0.1034733)
(-0.00061899082 -7.0870154e-18 0.099291245)
(-0.00054379646 -7.1068489e-18 0.09477428)
(-0.00047478156 -7.0851946e-18 0.089893276)
(-0.00041126521 -6.9834858e-18 0.084611214)
(-0.0003525787 -6.2161545e-18 0.078881398)
(-0.00029807251 -6.0843097e-18 0.072645576)
(-0.0002471072 -5.7641237e-18 0.06583185)
(-0.00019904513 -5.4914693e-18 0.058352242)
(-0.00015326733 -4.8068299e-18 0.050100022)
(-0.00010924763 -4.2579094e-18 0.040947832)
(-6.7125021e-05 -3.2460143e-18 0.030751087)
(-2.8860645e-05 -1.8233565e-18 0.019366839)
(-2.2769553e-06 -6.0556829e-19 0.0066947993)
(-5.4411578e-06 7.0724837e-20 0.044942318)
(-7.1130525e-05 2.2234455e-19 0.10817171)
(-0.00019018911 2.5781477e-19 0.15343292)
(-0.00035294724 1.7025023e-19 0.18355665)
(-0.00055017854 1.7746988e-19 0.20116107)
(-0.00077224849 2.6226251e-19 0.20877763)
(-0.0010077332 3.3859851e-19 0.20884989)
(-0.0012440106 9.1683532e-20 0.20365903)
(-0.0014680706 -6.8647738e-20 0.19522349)
(-0.0016676759 -1.2151459e-19 0.18521205)
(-0.0018325207 -2.464099e-19 0.17489561)
(-0.0019551564 -2.8127243e-19 0.16514602)
(-0.0020315248 -4.1451001e-19 0.15647521)
(-0.0020610678 -6.1375423e-19 0.14910062)
(-0.0020464453 -9.530276e-19 0.1430213)
(-0.0019929498 -1.3389157e-18 0.13809237)
(-0.0019077162 -1.6705661e-18 0.13408996)
(-0.0017988265 -2.1279861e-18 0.13076266)
(-0.0016744195 -2.8361267e-18 0.12786839)
(-0.0015419266 -3.5660804e-18 0.12519729)
(-0.0014075232 -4.5195564e-18 0.12258217)
(-0.0012758609 -5.2134633e-18 0.11989946)
(-0.0011500685 -5.4103091e-18 0.11706359)
(-0.0010319511 -5.6840015e-18 0.11401812)
(-0.0009223016 -5.9615637e-18 0.11072636)
(-0.00082121952 -6.4590388e-18 0.10716294)
(-0.00072838027 -6.8938462e-18 0.10330735)
(-0.00064323248 -7.0643777e-18 0.099139185)
(-0.00056512041 -7.0908565e-18 0.094634807)
(-0.00049335128 -7.0525935e-18 0.089764878)
(-0.00042723252 -6.876706e-18 0.084492335)
(-0.00036608256 -6.2688554e-18 0.078770508)
(-0.00030923496 -6.0755267e-18 0.072541204)
(-0.00025603652 -5.7577549e-18 0.065732588)
(-0.00020583622 -5.4337616e-18 0.058256777)
(-0.00015802242 -4.8012354e-18 0.050007324)
(-0.00011211104 -4.1734978e-18 0.040857916)
(-6.8396529e-05 -3.1805019e-18 0.030667127)
(-2.9081305e-05 -1.854813e-18 0.019299002)
(-2.211811e-06 -5.9429363e-19 0.0066634841)
(-5.2092077e-06 -3.5484409e-20 0.045882078)
(-6.8315143e-05 -7.8857985e-20 0.11061063)
(-0.00018297396 -1.0862148e-19 0.15711798)
(-0.00034014523 7.0031993e-19 0.18823033)
(-0.00053130511 4.1236318e-19 0.2065519)
(-0.00074756141 1.8934774e-19 0.21460152)
(-0.00097828011 -2.988836e-20 0.21482101)
(-0.0012115768 4.5902343e-19 0.20950718)
(-0.0014350184 1.3993542e-19 0.2007133)
(-0.00163669 1.4309351e-19 0.19015914)
(-0.0018062985 3.9038341e-19 0.17917628)
(-0.0019360926 -1.7862175e-19 0.16869902)
(-0.0020214409 -5.2149492e-19 0.15929647)
(-0.0020610158 -7.682766e-19 0.15123297)
(-0.0020566131 -1.0681526e-18 0.14454157)
(-0.0020126795 -1.5709372e-18 0.1390978)
(-0.0019356294 -2.1257383e-18 0.13468556)
(-0.00183304 -2.3335168e-18 0.13105055)
(-0.0017128174 -3.0504751e-18 0.12793983)
(-0.0015824303 -4.1318383e-18 0.12512778)
(-0.0014483152 -4.6074635e-18 0.12242964)
(-0.00131552 -5.1646564e-18 0.11970503)
(-0.0011876058 -5.4671879e-18 0.11685416)
(-0.0010667724 -5.7689441e-18 0.11380973)
(-0.0009541208 -6.2788067e-18 0.11052752)
(-0.0008499619 -6.477428e-18 0.1069774)
(-0.00075409868 -6.6844251e-18 0.10313611)
(-0.00066604525 -7.0246378e-18 0.098981772)
(-0.00058517274 -7.0683323e-18 0.094490062)
(-0.00051079276 -6.9896959e-18 0.089631347)
(-0.00044220543 -6.5945779e-18 0.084368473)
(-0.00037871808 -6.244377e-18 0.078654782)
(-0.00031964996 -5.8347138e-18 0.072432131)
(-0.00026433446 -5.7072831e-18 0.065628754)
(-0.00021211039 -5.2459268e-18 0.058156888)
(-0.00016237645 -4.8905543e-18 0.049910445)
(-0.00011469675 -4.0187177e-18 0.040764319)
(-6.9518376e-05 -3.0339875e-18 0.030580442)
(-2.9263586e-05 -1.9409904e-18 0.019229814)
(-2.1528408e-06 -5.8127532e-19 0.0066320321)
(-4.9996842e-06 -2.7088554e-19 0.046784772)
(-6.5752202e-05 -7.3949458e-19 0.11295781)
(-0.00017637597 -5.8019791e-19 0.16067185)
(-0.00032838194 -6.0012568e-19 0.19274948)
(-0.00051386098 -1.9615069e-19 0.21178174)
(-0.00072457527 -7.3195245e-20 0.22027458)
(-0.00095059886 -1.4667455e-19 0.2206662)
(-0.0011807227 -4.046513e-19 0.21526546)
(-0.0014030644 -2.0103787e-19 0.20615565)
(-0.0016060466 -1.1798453e-19 0.1951023)
(-0.001779447 -8.5252488e-20 0.18349281)
(-0.0019153058 -3.1539641e-19 0.17232015)
(-0.0020085327 -7.7602235e-19 0.16220827)
(-0.0020571527 -1.3051515e-18 0.15346758)
(-0.0020622059 -1.3595102e-18 0.14616559)
(-0.0020273672 -1.6903716e-18 0.14019991)
(-0.0019583586 -2.0779483e-18 0.13536459)
(-0.0018622307 -2.4710875e-18 0.13140521)
(-0.0017465861 -3.0899211e-18 0.12806063)
(-0.0016188393 -3.7438132e-18 0.1250916)
(-0.0014855922 -4.9376422e-18 0.12229719)
(-0.0013522115 -5.2415694e-18 0.11952074)
(-0.001222649 -5.5088999e-18 0.11664808)
(-0.0010994836 -5.8248087e-18 0.11360046)
(-0.00098413051 -6.2346129e-18 0.11032542)
(-0.0008771306 -6.4936178e-18 0.10678741)
(-0.00077843324 -6.7257674e-18 0.10295991)
(-0.00068763313 -6.9867339e-18 0.098819276)
(-0.00060413862 -7.0424398e-18 0.09434028)
(-0.00052727276 -6.9476613e-18 0.089492895)
(-0.00045633286 -6.584355e-18 0.084239831)
(-0.00039061652 -6.2531553e-18 0.078534417)
(-0.00032943026 -6.0386176e-18 0.072318552)
(-0.0002720974 -5.6936455e-18 0.065520545)
(-0.0002179479 -5.2511517e-18 0.058052783)
(-0.00016639414 -4.8353137e-18 0.049809611)
(-0.00011705405 -4.1035081e-18 0.040667286)
(-7.0520862e-05 -3.1004977e-18 0.030491263)
(-2.9419187e-05 -1.8296009e-18 0.019159422)
(-2.1009127e-06 -6.1222086e-19 0.0066004683)
(-4.8095121e-06 3.1452147e-19 0.047653731)
(-6.3409516e-05 8.629729e-19 0.11522106)
(-0.0001703211 8.4755387e-19 0.16410499)
(-0.00031754167 2.6858165e-19 0.19712536)
(-0.00049770236 8.928313e-20 0.21686076)
(-0.00070314618 1.5940327e-19 0.2258042)
(-0.0009245831 3.6040046e-19 0.22638879)
(-0.0011514244 -1.8530137e-19 0.22093252)
(-0.001372309 -3.4833257e-19 0.21154456)
(-0.0015760032 -4.7368238e-19 0.2000316)
(-0.0017523967 -8.797405e-19 0.1878325)
(-0.0018933926 -6.3101219e-19 0.1759954)
(-0.0019935368 -7.5697555e-19 0.16519679)
(-0.0020503078 -7.9765778e-19 0.15579209)
(-0.0020640844 -1.3519378e-18 0.14788348)
(-0.002037844 -1.7043802e-18 0.14139176)
(-0.0019766546 -1.8653637e-18 0.13612309)
(-0.0018870353 -2.4753195e-18 0.13182521)
(-0.0017762439 -3.1697861e-18 0.12823117)
(-0.0016515642 -3.7876754e-18 0.12509022)
(-0.0015196807 -4.3804473e-18 0.12218666)
(-0.0013862075 -5.1866639e-18 0.11934835)
(-0.0012554348 -5.5210936e-18 0.11644677)
(-0.0011303 -5.7992197e-18 0.11339136)
(-0.0010125333 -5.9475941e-18 0.11012078)
(-0.00090291607 -6.4797801e-18 0.10659345)
(-0.00080156114 -6.9170124e-18 0.1027791)
(-0.00070815903 -6.9818908e-18 0.098651958)
(-0.00062216634 -7.0225741e-18 0.094185673)
(-0.00054292514 -6.9471479e-18 0.089349712)
(-0.00046973367 -6.7967212e-18 0.084106586)
(-0.00040188239 -6.295517e-18 0.078409584)
(-0.00033866737 -6.0841466e-18 0.072200636)
(-0.00027940288 -5.7047627e-18 0.065408134)
(-0.00022341363 -5.3916506e-18 0.057944641)
(-0.0001701274 -4.6771129e-18 0.049705021)
(-0.00011922014 -4.0480372e-18 0.040567032)
(-7.1427668e-05 -3.0508656e-18 0.030399789)
(-2.9556354e-05 -1.8288987e-18 0.019087947)
(-2.0546218e-06 -5.8659778e-19 0.0065688097)
(-4.6361853e-06 3.3051003e-20 0.048491861)
(-6.1260387e-05 6.2670469e-20 0.11740727)
(-0.00016474616 -7.0290706e-20 0.16742676)
(-0.0003075229 5.7340605e-19 0.20136816)
(-0.00048270044 3.0342637e-19 0.2217984)
(-0.00068313815 7.5807473e-20 0.23119758)