/*--------------------------------*- C++ -*----------------------------------*\
| =========                 |                                                 |
| \\      /  F ield         | OpenFOAM: The Open Source CFD Toolbox           |
|  \\    /   O peration     | Version:  3.0.1                                 |
|   \\  /    A nd           | Web:      www.OpenFOAM.org                      |
|    \\/     M anipulation  |                                                 |
\*---------------------------------------------------------------------------*/
FoamFile
{
    version     2.0;
    format      ascii;
    class       volVectorField;
    location    "3500/fluid";
    object      U;
}
// * * * * * * * * * * * * * * * * * * * * * * * * * * * * * * * * * * * * * //

dimensions      [0 1 -1 0 0 0 0];

internalField   nonuniform List<vector> 
5000
(
(4.2245068e-07 1.8441457e-08 0.0059082102)
(2.635602e-06 1.1506428e-07 0.017401991)
(5.675882e-06 2.4779815e-07 0.02906351)
(9.3792498e-06 4.0948118e-07 0.040779831)
(1.4175229e-05 6.1886811e-07 0.05242282)
(1.9771883e-05 8.6321341e-07 0.063852343)
(2.6140616e-05 1.1412666e-06 0.074920961)
(3.3053036e-05 1.4430564e-06 0.085480151)
(4.0310339e-05 1.7599044e-06 0.095387728)
(4.7635716e-05 2.0797256e-06 0.10451602)
(5.4755042e-05 2.390552e-06 0.11276008)
(6.1381719e-05 2.6798701e-06 0.12004495)
(6.7260046e-05 2.9365176e-06 0.12633111)
(7.2175435e-05 3.1511245e-06 0.13161728)
(7.5980591e-05 3.3172611e-06 0.13593994)
(7.8604351e-05 3.4318179e-06 0.13936951)
(8.0059468e-05 3.4953534e-06 0.14200353)
(8.0437593e-05 3.5118674e-06 0.14395765)
(7.9898735e-05 3.4883447e-06 0.14535559)
(7.8652661e-05 3.4339456e-06 0.1463194)
(7.6937049e-05 3.3590446e-06 0.14696114)
(7.4993369e-05 3.2741849e-06 0.14737686)
(7.3044766e-05 3.1891086e-06 0.14764349)
(7.1278151e-05 3.111976e-06 0.1478183)
(6.9831998e-05 3.0488384e-06 0.14794072)
(6.8790489e-05 3.003363e-06 0.14803551)
(6.8183215e-05 2.9768458e-06 0.14811666)
(6.7987575e-05 2.9683047e-06 0.148191)
(6.8133561e-05 2.9746759e-06 0.1482612)
(6.8508194e-05 2.9910333e-06 0.14832787)
(6.8959567e-05 3.0107388e-06 0.14839082)
(6.9303694e-05 3.0257655e-06 0.14844967)
(6.9333503e-05 3.0270698e-06 0.14850413)
(6.8832803e-05 3.0052123e-06 0.14855398)
(6.7596093e-05 2.9512224e-06 0.14859912)
(6.5451019e-05 2.8575724e-06 0.14863954)
(6.2279301e-05 2.7191012e-06 0.14867511)
(5.8067196e-05 2.5352047e-06 0.14870599)
(5.2869662e-05 2.3082856e-06 0.14873225)
(4.6863556e-05 2.0460616e-06 0.14875412)
(4.029739e-05 1.7593844e-06 0.14877187)
(3.3491007e-05 1.4622199e-06 0.14878586)
(2.6782666e-05 1.1693338e-06 0.14879648)
(2.0499651e-05 8.9501668e-07 0.14880418)
(1.4914361e-05 6.5116267e-07 0.14880942)
(1.0220246e-05 4.4621673e-07 0.14881268)
(6.5081766e-06 2.8414751e-07 0.14881446)
(3.7735494e-06 1.647532e-07 0.14881513)
(1.6938289e-06 7.3952372e-08 0.14881581)
(3.7434484e-07 1.6343977e-08 0.14881513)
(1.360681e-05 5.9400952e-07 0.0039025545)
(5.2921806e-05 2.3103687e-06 0.011697148)
(0.0001198618 5.2328082e-06 0.019856028)
(0.00022171142 9.6793537e-06 0.028356538)
(0.00035469285 1.548506e-05 0.037163855)
(0.0005207783 2.273605e-05 0.046228516)
(0.00071686722 3.1296956e-05 0.055484302)
(0.00093961082 4.102156e-05 0.064846839)
(0.0011827809 5.1637988e-05 0.074213463)
(0.0014386467 6.2808715e-05 0.08346481)
(0.0016975124 7.4110445e-05 0.092468558)
(0.0019485975 8.5072499e-05 0.10108538)
(0.0021805114 9.5197648e-05 0.10917691)
(0.0023822549 0.0001040056 0.11661509)
(0.0025440998 0.00011107169 0.12329196)
(0.0026585631 0.00011606916 0.12912863)
(0.0027211423 0.00011880147 0.13408238)
(0.0027308023 0.00011922339 0.13815059)
(0.0026900361 0.00011744375 0.14137097)
(0.0026045043 0.00011370968 0.14381755)
(0.0024822561 0.00010837258 0.14559288)
(0.0023326708 0.00010184197 0.14681713)
(0.0021652989 9.4534753e-05 0.14761559)
(0.0019888258 8.6830157e-05 0.14810666)
(0.0018103413 7.9037846e-05 0.14839219)
(0.0016350196 7.1383479e-05 0.14855169)
(0.0014661959 6.4012808e-05 0.14864112)
(0.001305725 5.700687e-05 0.14869544)
(0.0011544621 5.040289e-05 0.14873362)
(0.001012714 4.4214351e-05 0.14876421)
(0.00088056917 3.8445027e-05 0.14879011)
(0.00075808537 3.3097511e-05 0.14881188)
(0.00064536099 2.8176063e-05 0.14882942)
(0.00054253651 2.3686825e-05 0.14884277)
(0.00044973145 1.963502e-05 0.14885214)
(0.00036697501 1.6021919e-05 0.1488596)
(0.0002938398 1.2828884e-05 0.14886395)
(0.00023063857 1.0069547e-05 0.1488657)
(0.00017674027 7.7163745e-06 0.14886534)
(0.00013187873 5.7577354e-06 0.14886329)
(9.5268405e-05 4.1593435e-06 0.14885996)
(6.6205619e-05 2.8904775e-06 0.14885566)
(4.3735285e-05 1.909433e-06 0.14885077)
(2.697686e-05 1.1777683e-06 0.14884541)
(1.4942874e-05 6.5237307e-07 0.14884007)
(6.8458579e-06 2.9886467e-07 0.14883461)
(1.7443843e-06 7.614121e-08 0.14882993)
(1.0191408e-07 4.4369087e-09 0.14882524)
(-8.2828661e-07 -3.6171462e-08 0.14882244)
(-8.717886e-07 -3.8064515e-08 0.1488188)
(1.6049205e-06 7.0046803e-08 0.0039321875)
(-2.6505583e-06 -1.1580841e-07 0.011730425)
(3.9483229e-06 1.7222347e-07 0.019829606)
(4.9912783e-06 2.1764648e-07 0.028198709)
(1.2276508e-05 5.3557014e-07 0.036798794)
(2.1739213e-05 9.485238e-07 0.045582347)
(3.7086661e-05 1.6183521e-06 0.054492887)
(5.8173319e-05 2.5387013e-06 0.063464569)
(8.6658111e-05 3.7820077e-06 0.072421993)
(0.00012270791 5.3555465e-06 0.081280263)
(0.00016644571 7.2647014e-06 0.089945574)
(0.00021682334 9.4637273e-06 0.09831655)
(0.00027202534 1.1873385e-05 0.10628673)
(0.00032916409 1.4367609e-05 0.11374851)
(0.00038462587 1.6788649e-05 0.12059876)
(0.00043429422 1.895681e-05 0.1267459)
(0.00047409568 2.0694261e-05 0.13211796)
(0.00050050943 2.1847291e-05 0.13667054)
(0.00051112777 2.2310794e-05 0.14039325)
(0.00050504094 2.2045043e-05 0.14331322)
(0.00048302478 2.1083907e-05 0.14549433)
(0.00044742431 1.9529762e-05 0.14703174)
(0.00040176844 1.7536653e-05 0.1480419)
(0.00035017009 1.5284136e-05 0.14864956)
(0.00029666483 1.2948415e-05 0.14897428)
(0.00024464107 1.0677369e-05 0.1491189)
(0.00019650086 8.5758847e-06 0.14916239)
(0.00015359806 6.7030758e-06 0.14915815)
(0.00011641456 5.0799537e-06 0.14913704)
(8.4850503e-05 3.7021744e-06 0.1491134)
(5.8510976e-05 2.552472e-06 0.14909167)
(3.6892709e-05 1.6088897e-06 0.14907182)
(1.9484806e-05 8.4910957e-07 0.14905256)
(5.9487259e-06 2.583456e-07 0.14903321)
(3.9080008e-06 1.6942546e-07 0.14901307)
(3.5374164e-06 1.5340866e-07 0.14899258)
(-3.9846146e-06 -1.7482826e-07 0.14897222)
(-9.588848e-06 -4.1935007e-07 0.14895242)
(-1.3731461e-05 -6.0008071e-07 0.1489335)
(-1.6707988e-05 -7.2991867e-07 0.14891555)
(-1.9000187e-05 -8.2990016e-07 0.14889883)
(-2.0554451e-05 -8.9768066e-07 0.14888323)
(-2.1696683e-05 -9.4748612e-07 0.14886909)
(-2.1905305e-05 -9.5654326e-07 0.14885599)
(-2.1711663e-05 -9.480491e-07 0.14884466)
(-1.9990462e-05 -8.7286834e-07 0.14883411)
(-1.8175622e-05 -7.9360797e-07 0.148826)
(-1.425814e-05 -6.2255019e-07 0.14881825)
(-1.0442216e-05 -4.5593293e-07 0.14881356)
(-4.7904941e-06 -2.0916071e-07 0.14880759)
(6.418716e-06 2.8023639e-07 0.0041101635)
(-4.0219095e-07 -1.7593152e-08 0.012241477)
(-3.797717e-06 -1.6587821e-07 0.020661687)
(-8.9084469e-06 -3.8906627e-07 0.029331928)
(-1.6314067e-05 -7.124782e-07 0.03820425)
(-2.6149211e-05 -1.1419869e-06 0.047221506)
(-3.8392417e-05 -1.6766708e-06 0.05631734)
(-5.2868177e-05 -2.3088675e-06 0.065416695)
(-6.9212641e-05 -3.0226918e-06 0.074436693)
(-8.6854015e-05 -3.7931942e-06 0.083288045)
(-0.00010500836 -4.5861455e-06 0.09187697)
(-0.00012271208 -5.3594689e-06 0.10010763)
(-0.00013889175 -6.0662961e-06 0.10788502)
(-0.00015247991 -6.6600155e-06 0.11511838)
(-0.00016256266 -7.1007203e-06 0.12172502)
(-0.00016853895 -7.3621387e-06 0.12763455)
(-0.00017025177 -7.4374017e-06 0.13279358)
(-0.00016805172 -7.3417922e-06 0.13717044)
(-0.00016275624 -7.1109687e-06 0.14075962)
(-0.00015549646 -6.7943019e-06 0.14358509)
(-0.00014746985 -6.4440516e-06 0.14570127)
(-0.0001396669 -6.1034569e-06 0.1471909)
(-0.0001326375 -5.7965218e-06 0.14815888)
(-0.00012640399 -5.5242314e-06 0.14872252)
(-0.00012051285 -5.2668066e-06 0.14899951)
(-0.00011430404 -4.9954347e-06 0.14909579)
(-0.00010715581 -4.6829969e-06 0.14909623)
(-9.8876934e-05 -4.3211653e-06 0.14905989)
(-8.9636228e-05 -3.917321e-06 0.14902086)
(-8.0256196e-05 -3.5073917e-06 0.14899333)
(-7.1397629e-05 -3.1202376e-06 0.14897886)
(-6.4321056e-05 -2.8109013e-06 0.14897325)
(-5.8910717e-05 -2.5743386e-06 0.14897125)
(-5.6586803e-05 -2.4725585e-06 0.14896907)
(-5.6424222e-05 -2.4651891e-06 0.14896478)
(-5.6630063e-05 -2.4739383e-06 0.14895637)
(-5.8874529e-05 -2.5717013e-06 0.14894563)
(-6.1529578e-05 -2.6874115e-06 0.14893296)
(-6.4101203e-05 -2.7995079e-06 0.14891907)
(-6.5722179e-05 -2.8701213e-06 0.14890433)
(-6.6380868e-05 -2.898745e-06 0.14888943)
(-6.5212453e-05 -2.8476191e-06 0.1488744)
(-6.2938215e-05 -2.7482301e-06 0.14886017)
(-5.842855e-05 -2.5512579e-06 0.14884621)
(-5.3372272e-05 -2.3304373e-06 0.14883402)
(-4.5889527e-05 -2.003685e-06 0.14882214)
(-3.8744956e-05 -1.6917118e-06 0.14881315)
(-2.9083229e-05 -1.2698439e-06 0.14880432)
(-2.0650512e-05 -9.016463e-07 0.14879972)
(-9.4107149e-06 -4.1088618e-07 0.14879261)
(7.6215995e-07 3.3269909e-08 0.0044309662)
(-1.8122662e-06 -7.9146257e-08 0.013182954)
(-7.7528029e-06 -3.3853277e-07 0.022227989)
(-1.8348031e-05 -8.0115336e-07 0.031518693)
(-3.4333627e-05 -1.4991346e-06 0.040996954)
(-5.6376246e-05 -2.4615863e-06 0.050593657)
(-8.5073884e-05 -3.7146197e-06 0.060228829)
(-0.00012090729 -5.2792294e-06 0.069812357)
(-0.00016417599 -7.1684958e-06 0.079245396)
(-0.00021492438 -9.3843584e-06 0.088422576)
(-0.00027286278 -1.191418e-05 0.097235111)
(-0.00033729188 -1.4727428e-05 0.10557475)
(-0.00040704319 -1.7773095e-05 0.11333846)
(-0.00048045181 -2.0978477e-05 0.12043362)
(-0.00055538002 -2.4250251e-05 0.12678328)
(-0.0006293059 -2.7478299e-05 0.13233108)
(-0.0006994836 -3.0542726e-05 0.13704535)
(-0.00076316448 -3.3323506e-05 0.14092191)
(-0.00081784813 -3.5711457e-05 0.14398529)
(-0.00086151967 -3.7618578e-05 0.14628824)
(-0.00089281605 -3.8985337e-05 0.14790926)
(-0.00091109261 -3.9783577e-05 0.14894821)
(-0.00091636704 -4.0014032e-05 0.14951963)
(-0.00090919749 -3.9701061e-05 0.14974421)
(-0.00089050885 -3.8885124e-05 0.14973885)
(-0.00086150517 -3.7618673e-05 0.14960666)
(-0.00082356983 -3.5962176e-05 0.14942879)
(-0.00077834949 -3.3987592e-05 0.14925997)
(-0.00072762329 -3.1772538e-05 0.14912875)
(-0.00067342587 -2.940593e-05 0.14904236)
(-0.00061762837 -2.6969419e-05 0.14899426)
(-0.00056207542 -2.4543597e-05 0.14897198)
(-0.00050809314 -2.2186361e-05 0.1489633)
(-0.00045648995 -1.993301e-05 0.14895901)
(-0.00040825217 -1.7826617e-05 0.14895431)
(-0.00036302419 -1.5851657e-05 0.14894669)
(-0.00032148301 -1.4037688e-05 0.1489361)
(-0.00028325585 -1.236842e-05 0.14892287)
(-0.00024870329 -1.0859618e-05 0.14890796)
(-0.00021708192 -9.4788102e-06 0.14889183)
(-0.00018906694 -8.2554866e-06 0.14887553)
(-0.00016320302 -7.1261069e-06 0.14885897)
(-0.00014072853 -6.1447302e-06 0.14884349)
(-0.00011915709 -5.2028011e-06 0.14882815)
(-0.00010069864 -4.3968107e-06 0.14881502)
(-8.1665227e-05 -3.5657279e-06 0.148802)
(-6.5611274e-05 -2.8647506e-06 0.14879249)
(-4.7570759e-05 -2.0770455e-06 0.14878271)
(-3.2764862e-05 -1.4305809e-06 0.14877805)
(-1.4915252e-05 -6.5122215e-07 0.14877001)
(7.3248578e-07 3.1974964e-08 0.0047155717)
(-1.6156519e-06 -7.0559359e-08 0.014026414)
(-6.9921011e-06 -3.0531417e-07 0.023644273)
(-1.6663493e-05 -7.2759418e-07 0.03351655)
(-3.1412499e-05 -1.371577e-06 0.043578565)
(-5.2008442e-05 -2.2708541e-06 0.053753095)
(-7.9221746e-05 -3.4590643e-06 0.063950354)
(-0.00011379279 -4.968537e-06 0.074068608)
(-0.00015638434 -6.8282099e-06 0.083995563)
(-0.0002075187 -9.0608878e-06 0.093610732)
(-0.00026749967 -1.1679845e-05 0.10278895)
(-0.00033631989 -1.4684759e-05 0.11140507)
(-0.00041355794 -1.8057241e-05 0.11933983)
(-0.00049827495 -2.1756284e-05 0.12648664)
(-0.00058892613 -2.5714459e-05 0.13275885)
(-0.0006833091 -2.9835604e-05 0.13809678)
(-0.00077857407 -3.399529e-05 0.14247362)
(-0.00087132011 -3.8045021e-05 0.14589928)
(-0.00095779 -4.1820749e-05 0.14842136)
(-0.0010341578 -4.5155409e-05 0.15012273)
(-0.0010968747 -4.7894038e-05 0.15111582)
(-0.0011430197 -4.99091e-05 0.15153413)
(-0.0011705877 -5.1112996e-05 0.15152168)
(-0.0011786673 -5.1465917e-05 0.15122171)
(-0.0011674774 -5.0977515e-05 0.1507656)
(-0.0011382961 -4.9703424e-05 0.15026318)
(-0.0010932959 -4.7738572e-05 0.14979583)
(-0.0010353501 -4.5208478e-05 0.14941344)
(-0.00096780249 -4.2259052e-05 0.14913589)
(-0.00089419122 -3.9044873e-05 0.148959)
(-0.00081800429 -3.5718169e-05 0.14886332)
(-0.00074223039 -3.2409502e-05 0.14882349)
(-0.00066940405 -2.9229527e-05 0.14881588)
(-0.00060092845 -2.6239511e-05 0.1488226)
(-0.0005379432 -2.3489227e-05 0.14883276)
(-0.00048031181 -2.097271e-05 0.14884071)
(-0.00042827041 -1.8700288e-05 0.14884465)
(-0.00038080574 -1.6627695e-05 0.14884423)
(-0.00033812579 -1.4764035e-05 0.14884029)
(-0.00029855874 -1.30363e-05 0.14883319)
(-0.00026301818 -1.1484388e-05 0.14882427)
(-0.00022907803 -1.0002377e-05 0.14881338)
(-0.00019884461 -8.6822218e-06 0.14880237)
(-0.00016881127 -7.3708208e-06 0.14879011)
(-0.00014259573 -6.2261336e-06 0.14877943)
(-0.00011525749 -5.0324394e-06 0.14876778)
(-9.2078852e-05 -4.0203802e-06 0.14875952)
(-6.6469824e-05 -2.9022157e-06 0.14875018)
(-4.5368334e-05 -1.9808717e-06 0.14874611)
(-2.0823946e-05 -9.0920422e-07 0.1487377)
(6.8261192e-07 2.9798522e-08 0.0050049345)
(-1.661965e-06 -7.2577433e-08 0.014886628)
(-7.2021114e-06 -3.1447488e-07 0.025092852)
(-1.7211686e-05 -7.5151314e-07 0.035566539)
(-3.2529533e-05 -1.4203217e-06 0.04623731)
(-5.4001954e-05 -2.3578522e-06 0.057020843)
(-8.2500008e-05 -3.6021367e-06 0.067818691)
(-0.0001188945 -5.1911984e-06 0.078518767)
(-0.00016401595 -7.1612994e-06 0.088996644)
(-0.0002186007 -9.5445883e-06 0.099117947)
(-0.00028322103 -1.236606e-05 0.10874203)
(-0.00035819832 -1.5639748e-05 0.11772706)
(-0.00044349991 -1.9364234e-05 0.12593662)
(-0.00053862395 -2.3517593e-05 0.13324754)
(-0.0006424805 -2.8052257e-05 0.13955872)
(-0.00075328501 -3.289031e-05 0.14480004)
(-0.00086848645 -3.7920367e-05 0.14894039)
(-0.00098475851 -4.2997197e-05 0.15199346)
(-0.0010980839 -4.7945403e-05 0.15402006)
(-0.0012039523 -5.256804e-05 0.15512584)
(-0.0012976765 -5.6660459e-05 0.15545425)
(-0.0013748007 -6.0028108e-05 0.15517499)
(-0.0014315465 -6.2505973e-05 0.15446946)
(-0.0014652189 -6.3976361e-05 0.15351511)
(-0.0014745044 -6.4382035e-05 0.15247074)
(-0.0014595924 -6.3731052e-05 0.15146466)
(-0.0014221448 -6.2096051e-05 0.15058726)
(-0.0013650602 -5.9603673e-05 0.14988866)
(-0.0012922042 -5.6422565e-05 0.14938179)
(-0.0012079136 -5.2742204e-05 0.14905029)
(-0.0011167118 -4.8759993e-05 0.14885941)
(-0.0010226188 -4.4651545e-05 0.14876771)
(-0.00092920404 -4.0572702e-05 0.1487367)
(-0.00083876821 -3.6623904e-05 0.14873665)
(-0.00075322305 -3.2888647e-05 0.14874827)
(-0.00067295172 -2.9383655e-05 0.14876098)
(-0.00059885244 -2.6148174e-05 0.14877044)
(-0.00053000474 -2.3141977e-05 0.14877524)
(-0.00046740161 -2.0408453e-05 0.14877599)
(-0.00040909874 -1.7862688e-05 0.14877297)
(-0.00035692037 -1.5584346e-05 0.14876774)
(-0.00030765524 -1.3433223e-05 0.14876)
(-0.00026441866 -1.1545325e-05 0.1487519)
(-0.00022237525 -9.7095391e-06 0.148742)
(-0.00018628732 -8.1338025e-06 0.14873355)
(-0.00014952518 -6.5286383e-06 0.14872352)
(-0.0001186625 -5.1810763e-06 0.14871684)
(-8.5392739e-05 -3.7284271e-06 0.1487085)
(-5.7892056e-05 -2.5276804e-06 0.14870535)
(-2.679869e-05 -1.1700702e-06 0.148697)
(6.29984e-07 2.7501111e-08 0.0052614089)
(-1.4773616e-06 -6.4516231e-08 0.015652463)
(-6.4339549e-06 -2.8093403e-07 0.026387832)
(-1.5421589e-05 -6.7335178e-07 0.03740748)
(-2.9237568e-05 -1.2765848e-06 0.048637075)
(-4.8705927e-05 -2.1266122e-06 0.059987177)
(-7.4699644e-05 -3.2615496e-06 0.071352872)
(-0.00010812508 -4.7209721e-06 0.08261405)
(-0.00014989369 -6.5446751e-06 0.093636531)
(-0.0002008806 -8.7708659e-06 0.1042743)
(-0.00026186762 -1.1433688e-05 0.11437317)
(-0.00033346817 -1.4559923e-05 0.12377591)
(-0.00041603139 -1.8164823e-05 0.13232926)
(-0.00050952647 -2.2247029e-05 0.13989244)
(-0.0006134111 -2.6782882e-05 0.14634708)
(-0.00072649315 -3.1720331e-05 0.15160776)
(-0.00084680455 -3.6973447e-05 0.15563204)
(-0.0009715127 -4.2418555e-05 0.15842856)
(-0.0010969039 -4.7893519e-05 0.16006144)
(-0.0012184735 -5.3201643e-05 0.16064953)
(-0.0013311501 -5.8121503e-05 0.16035957)
(-0.0014296578 -6.2422756e-05 0.15939328)
(-0.0015089958 -6.5887009e-05 0.15796977)
(-0.0015649617 -6.8330766e-05 0.1563057)
(-0.0015946527 -6.962741e-05 0.15459591)
(-0.0015968146 -6.9721946e-05 0.15299769)
(-0.001572037 -6.8640191e-05 0.15162067)
(-0.0015226431 -6.6483669e-05 0.15052364)
(-0.001452489 -6.3420592e-05 0.14971826)
(-0.0013663761 -5.9660736e-05 0.14917865)
(-0.001269697 -5.5439424e-05 0.14885495)
(-0.0011675002 -5.0977196e-05 0.14868786)
(-0.0010644852 -4.6479225e-05 0.14862119)
(-0.00096383996 -4.208469e-05 0.14861002)
(-0.00086830474 -3.7913271e-05 0.14862374)
(-0.00077850084 -3.3992085e-05 0.14864443)
(-0.00069574026 -3.0378451e-05 0.14866368)
(-0.0006186728 -2.7013376e-05 0.14867815)
(-0.00054861117 -2.3954212e-05 0.14868776)
(-0.00048278862 -2.1080132e-05 0.14869247)
(-0.00042363175 -1.8497101e-05 0.14869395)
(-0.00036690537 -1.602021e-05 0.14869182)
(-0.00031675921 -1.3830626e-05 0.14868851)
(-0.00026720402 -1.1666861e-05 0.14868245)
(-0.00022434905 -9.7956599e-06 0.14867724)
(-0.00018033233 -7.8737438e-06 0.1486697)
(-0.00014308342 -6.2473444e-06 0.14866509)
(-0.00010312516 -4.5026596e-06 0.14865827)
(-6.9696857e-05 -3.0431002e-06 0.14865624)
(-3.2550881e-05 -1.4212194e-06 0.14864823)
(5.8195146e-07 2.5404487e-08 0.0055054186)
(-1.4132145e-06 -6.1713736e-08 0.016382182)
(-6.1592377e-06 -2.6893606e-07 0.027623477)
(-1.4781106e-05 -6.4538145e-07 0.039166808)
(-2.8055712e-05 -1.2249735e-06 0.050934519)
(-4.6793946e-05 -2.0431176e-06 0.062832837)
(-7.1863635e-05 -3.137704e-06 0.074751333)
(-0.00010417819 -4.5486153e-06 0.086563025)
(-0.00014467423 -6.3167447e-06 0.098125326)
(-0.00019427797 -8.4825312e-06 0.10928212)
(-0.00025385794 -1.1083903e-05 0.1198673)
(-0.00032416105 -1.415347e-05 0.12970995)
(-0.00040572881 -1.7714883e-05 0.13864139)
(-0.00049879226 -2.1778216e-05 0.14650424)
(-0.00060314645 -2.6334539e-05 0.15316298)
(-0.00071800935 -3.1349706e-05 0.1585158)
(-0.00084187738 -3.6758069e-05 0.16250621)
(-0.00097239797 -4.2456914e-05 0.16513324)
(-0.0011062895 -4.8302966e-05 0.16645809)
(-0.0012393448 -5.4112525e-05 0.16660537)
(-0.0013665583 -5.9667046e-05 0.1657575)
(-0.0014823977 -6.4724992e-05 0.16414177)
(-0.0015812307 -6.9040401e-05 0.16201106)
(-0.0016578558 -7.238616e-05 0.15962061)
(-0.0017080927 -7.4579883e-05 0.15720439)
(-0.001729283 -7.550525e-05 0.15495472)
(-0.0017206931 -7.5130311e-05 0.15300829)
(-0.0016835791 -7.3510009e-05 0.15144054)
(-0.0016211553 -7.0784506e-05 0.15026866)
(-0.0015380286 -6.7155093e-05 0.14946212)
(-0.0014398913 -6.2870169e-05 0.14895842)
(-0.0013323871 -5.8176261e-05 0.14868067)
(-0.0012211386 -5.3318839e-05 0.14855365)
(-0.0011101563 -4.8473004e-05 0.1485149)
(-0.0010031779 -4.3801982e-05 0.14851992)
(-0.00090129624 -3.935348e-05 0.14854127)
(-0.00080661099 -3.5219213e-05 0.148565)
(-0.00071770817 -3.1337401e-05 0.14858498)
(-0.00063661652 -2.779666e-05 0.14860003)
(-0.00056006711 -2.4454239e-05 0.14860974)
(-0.00049131908 -2.1452449e-05 0.14861579)
(-0.00042527392 -1.8568692e-05 0.14861773)
(-0.00036704508 -1.6026207e-05 0.14861811)
(-0.00030952237 -1.3514566e-05 0.14861529)
(-0.0002598207 -1.1344426e-05 0.14861295)
(-0.00020892141 -9.1220024e-06 0.14860785)
(-0.00016565911 -7.233045e-06 0.14860528)
(-0.000119607 -5.2222898e-06 0.14860016)
(-8.0649975e-05 -3.5213342e-06 0.14859927)
(-3.7959461e-05 -1.6573662e-06 0.14859178)
(5.3936439e-07 2.3545401e-08 0.0057275015)
(-1.2898017e-06 -5.632448e-08 0.017047947)
(-5.6352733e-06 -2.4605767e-07 0.02875337)
(-1.3545238e-05 -5.9141992e-07 0.040779521)
(-2.5753045e-05 -1.1244333e-06 0.053046274)
(-4.303296e-05 -1.8789038e-06 0.065456524)
(-6.622444e-05 -2.891483e-06 0.077895483)
(-9.6225605e-05 -4.2013857e-06 0.090230597)
(-0.00013397693 -5.8496734e-06 0.1023123)
(-0.00018043518 -7.8781185e-06 0.11397589)
(-0.00023653491 -1.0327531e-05 0.1250449)
(-0.00030313436 -1.3235383e-05 0.13533615)
(-0.00038094194 -1.6632609e-05 0.14466689)
(-0.00047042022 -2.0539395e-05 0.15286395)
(-0.00057166725 -2.4960037e-05 0.15977499)
(-0.00068427589 -2.9876758e-05 0.1652811)
(-0.00080718029 -3.524302e-05 0.16930994)
(-0.00093850431 -4.0976914e-05 0.17184772)
(-0.0010754394 -4.6955818e-05 0.17294805)
(-0.0012141849 -5.3013784e-05 0.17273543)
(-0.0013499954 -5.8943628e-05 0.17140141)
(-0.0014773662 -6.4505018e-05 0.16919249)
(-0.0015903877 -6.9439887e-05 0.1663902)
(-0.0016832376 -7.3494024e-05 0.16328559)
(-0.001750797 -7.6444066e-05 0.16015185)
(-0.0017892346 -7.8122482e-05 0.15721942)
(-0.0017965711 -7.8442931e-05 0.15465754)
(-0.0017729079 -7.7409949e-05 0.15256513)
(-0.0017206012 -7.5126205e-05 0.15097175)
(-0.0016437721 -7.1771806e-05 0.14984799)
(-0.0015481322 -6.7595961e-05 0.14912264)
(-0.001439684 -6.286088e-05 0.14870306)
(-0.0013248345 -5.7846266e-05 0.14849477)
(-0.0012083384 -5.2759717e-05 0.14841613)
(-0.0010949092 -4.7807062e-05 0.14840639)
(-0.00098607618 -4.3055064e-05 0.14842627)
(-0.00088465366 -3.8626651e-05 0.14845438)
(-0.00078904688 -3.4452143e-05 0.14848065)
(-0.0007018105 -3.0643124e-05 0.14850213)
(-0.00061904379 -2.7029254e-05 0.14851778)
(-0.00054462665 -2.3779948e-05 0.1485291)
(-0.00047262602 -2.0636171e-05 0.14853568)
(-0.00040895869 -1.7856235e-05 0.14854007)
(-0.000345644 -1.5091709e-05 0.14854075)
(-0.0002906523 -1.2690597e-05 0.14854137)
(-0.00023419305 -1.0225415e-05 0.14853886)
(-0.00018580422 -8.1126219e-06 0.14853833)
(-0.00013449817 -5.8724679e-06 0.14853501)
(-9.0573793e-05 -3.9546273e-06 0.14853527)
(-4.2926606e-05 -1.8742394e-06 0.14852838)
(5.0249735e-07 2.1936083e-08 0.0059365322)
(-1.2180418e-06 -5.3190355e-08 0.01767523)
(-5.325245e-06 -2.3251971e-07 0.029818971)
(-1.2809769e-05 -5.5930565e-07 0.042302072)
(-2.4372975e-05 -1.0641735e-06 0.055042347)
(-4.0759576e-05 -1.7796386e-06 0.067939874)
(-6.2781834e-05 -2.7411652e-06 0.080876148)
(-9.1315571e-05 -3.9869943e-06 0.093713834)
(-0.0001272876 -5.557591e-06 0.10629734)
(-0.00017165475 -7.4947301e-06 0.11845448)
(-0.00022537223 -9.8401233e-06 0.12999971)
(-0.00028934775 -1.2633402e-05 0.14073898)
(-0.00036437775 -1.5909345e-05 0.15047684)
(-0.00045106265 -1.9694155e-05 0.15902568)
(-0.00054969834 -2.4000767e-05 0.16621732)
(-0.00066014352 -2.8823011e-05 0.17191624)
(-0.00078166777 -3.4128994e-05 0.17603387)
(-0.00091279164 -3.9854125e-05 0.17854212)
(-0.0010511407 -4.589474e-05 0.17948424)
(-0.0011933424 -5.2103579e-05 0.17898051)
(-0.0013350116 -5.8289191e-05 0.17722647)
(-0.0014708577 -6.4220592e-05 0.1744822)
(-0.0015949604 -6.9639257e-05 0.17105254)
(-0.0017011968 -7.4277846e-05 0.1672603)
(-0.0017838344 -7.7886217e-05 0.16341586)
(-0.0018381386 -8.0257384e-05 0.15978824)
(-0.0018610386 -8.1257369e-05 0.15658215)
(-0.0018514799 -8.0840234e-05 0.15392475)
(-0.0018107969 -7.906403e-05 0.15186376)
(-0.0017423303 -7.6074786e-05 0.15037657)
(-0.0016514455 -7.2106596e-05 0.14938791)
(-0.0015441462 -6.7421718e-05 0.1487924)
(-0.0014273388 -6.2321654e-05 0.1484774)
(-0.0013063651 -5.7039632e-05 0.14834153)
(-0.0011868756 -5.1822394e-05 0.14830614)
(-0.0010709338 -4.6760034e-05 0.14831808)
(-0.0009621983 -4.2012336e-05 0.14834674)
(-0.00085911566 -3.7511429e-05 0.14837687)
(-0.00076488244 -3.3396927e-05 0.14840304)
(-0.00067519724 -2.9480993e-05 0.14842331)
(-0.00059454673 -2.5959534e-05 0.14843882)
(-0.00051636723 -2.2545985e-05 0.14844922)
(-0.00044719556 -1.9525725e-05 0.14845697)
(-0.0003783682 -1.652051e-05 0.14846074)
(-0.00031840468 -1.390232e-05 0.14846395)
(-0.00025694179 -1.1218671e-05 0.14846387)
(-0.00020389964 -8.902705e-06 0.14846522)
(-0.00014793662 -6.4592182e-06 0.14846365)
(-9.9519633e-05 -4.3452203e-06 0.14846501)
(-4.7441117e-05 -2.0713501e-06 0.14845873)
(4.7041581e-07 2.0535606e-08 0.0061306574)
(-1.1337401e-06 -4.9508986e-08 0.018258606)
(-4.963311e-06 -2.1671622e-07 0.030811276)
(-1.195024e-05 -5.217762e-07 0.043721912)
(-2.2759646e-05 -9.9373148e-07 0.05690671)
(-3.8102206e-05 -1.6636115e-06 0.070263476)
(-5.8758543e-05 -2.5654991e-06 0.083670632)
(-8.5577602e-05 -3.7364615e-06 0.09698682)
(-0.00011946751 -5.2161479e-06 0.11005128)
(-0.00016137921 -7.0460761e-06 0.12268537)
(-0.00021228023 -9.2684955e-06 0.1346955)
(-0.00027311572 -1.1924671e-05 0.14587792)
(-0.00034475298 -1.5052476e-05 0.15602566)
(-0.00042790542 -1.8683047e-05 0.16493777)
(-0.00052303308 -2.2836483e-05 0.17243108)
(-0.00063021765 -2.7516352e-05 0.17835403)
(-0.00074901489 -3.2703255e-05 0.18260171)
(-0.00087829127 -3.8347705e-05 0.18513085)
(-0.001016064 -4.4363138e-05 0.18597243)
(-0.0011593694 -5.062014e-05 0.1852395)
(-0.0013042012 -5.6943813e-05 0.18312756)
(-0.0014455559 -6.3115702e-05 0.17990557)
(-0.0015776377 -6.8882719e-05 0.17589689)
(-0.0016942167 -7.3972861e-05 0.17145189)
(-0.0017891814 -7.8119431e-05 0.16691532)
(-0.0018571345 -8.1086522e-05 0.16259392)
(-0.0018941178 -8.2701402e-05 0.1587291)
(-0.0018980472 -8.2873188e-05 0.15547947)
(-0.0018692563 -8.1616232e-05 0.1529155)
(-0.00181022 -7.9038761e-05 0.15102648)
(-0.0017257851 -7.535221e-05 0.14973788)
(-0.0016217482 -7.0809807e-05 0.14893516)
(-0.0015053034 -6.5725608e-05 0.14848949)
(-0.0013822345 -6.035213e-05 0.14828003)
(-0.0012590182 -5.4972196e-05 0.14820911)
(-0.0011382438 -4.9698847e-05 0.14820794)
(-0.0010243639 -4.472655e-05 0.14823488)
(-0.0009159161 -3.9991399e-05 0.14826812)
(-0.00081663468 -3.5656491e-05 0.14829884)
(-0.00072188664 -3.1519513e-05 0.14832377)
(-0.00063659438 -2.7795394e-05 0.14834351)
(-0.0005537056 -2.4176237e-05 0.14835775)
(-0.00048018576 -2.0966133e-05 0.14836878)
(-0.00040691731 -1.7767016e-05 0.14837556)
(-0.00034277962 -1.4966577e-05 0.14838124)
(-0.00027709126 -1.2098437e-05 0.14838348)
(-0.00021998021 -9.6048155e-06 0.1483866)
(-0.00015995942 -6.9841581e-06 0.14838673)
(-0.00010753003 -4.6949701e-06 0.14838911)
(-5.1511086e-05 -2.2490515e-06 0.14838343)
(4.4261905e-07 1.932218e-08 0.0063138571)
(-1.0722983e-06 -4.6825766e-08 0.018809565)
(-4.6969735e-06 -2.0508659e-07 0.031749096)
(-1.1315051e-05 -4.9404154e-07 0.045064823)
(-2.1561525e-05 -9.414178e-07 0.058671593)
(-3.611753e-05 -1.5769548e-06 0.07246527)
(-5.573425e-05 -2.43345e-06 0.086321633)
(-8.1232796e-05 -3.5467554e-06 0.10009583)
(-0.00011349752 -4.9554819e-06 0.11362258)
(-0.00015346284 -6.7004263e-06 0.12671753)
(-0.00020209152 -8.8236283e-06 0.13917999)
(-0.00026034142 -1.136691e-05 0.15079751)
(-0.00032911729 -1.4369777e-05 0.16135269)
(-0.00040920318 -1.786645e-05 0.17063237)
(-0.00050117245 -2.1881979e-05 0.17843946)
(-0.00060527183 -2.6427135e-05 0.18460714)
(-0.0007212808 -3.1492286e-05 0.1890146)
(-0.00084835062 -3.7040381e-05 0.19160314)
(-0.00098483829 -4.2999687e-05 0.19239039)
(-0.0011281556 -4.9257194e-05 0.19148013)
(-0.0012746741 -5.565449e-05 0.18906478)
(-0.001419719 -6.1987476e-05 0.1854183)
(-0.0015577125 -6.8012585e-05 0.18087835)
(-0.0016824632 -7.3459491e-05 0.17581873)
(-0.0017876668 -7.8053092e-05 0.17061535)
(-0.0018674687 -8.153751e-05 0.16561079)
(-0.0019172121 -8.3709511e-05 0.16108312)
(-0.00193392 -8.4439225e-05 0.15722416)
(-0.0019169725 -8.3699383e-05 0.15413042)
(-0.0018679292 -8.1558241e-05 0.15180737)
(-0.0017909644 -7.8197878e-05 0.15018563)
(-0.0016914625 -7.3853507e-05 0.14914538)
(-0.0015766669 -6.8841345e-05 0.14854422)
(-0.0014526311 -6.3425673e-05 0.14824291)
(-0.0013265213 -5.7919424e-05 0.14812442)
(-0.0012014641 -5.2459097e-05 0.14810298)
(-0.001082704 -4.7273733e-05 0.1481243)
(-0.00096902305 -4.2310104e-05 0.14815859)
(-0.00086469724 -3.7754957e-05 0.14819272)
(-0.00076494834 -3.339964e-05 0.14822159)
(-0.00067505307 -2.9474551e-05 0.148245)
(-0.00058765142 -2.5658361e-05 0.14826266)
(-0.00050997597 -2.2266821e-05 0.1482766)
(-0.00043262305 -1.8889373e-05 0.14828611)
(-0.00036463865 -1.5920982e-05 0.14829402)
(-0.000295168 -1.2887703e-05 0.14829841)
(-0.00023438114 -1.0233589e-05 0.14830314)
(-0.00017075273 -7.4554157e-06 0.14830486)
(-0.00011471598 -5.0087233e-06 0.14830818)
(-5.5174355e-05 -2.408996e-06 0.14830306)
(4.1829917e-07 1.8260561e-08 0.0064863462)
(-1.0112977e-06 -4.4161806e-08 0.019328759)
(-4.4333439e-06 -1.9357531e-07 0.03263355)
(-1.068614e-05 -4.6658139e-07 0.046332418)
(-2.0375298e-05 -8.8962419e-07 0.060339108)
(-3.4152876e-05 -1.4911736e-06 0.074547862)
(-5.2741065e-05 -2.3027611e-06 0.088832201)
(-7.6933331e-05 -3.3590316e-06 0.10304424)
(-0.00010758974 -4.6975354e-06 0.11701476)
(-0.00014562655 -6.3582769e-06 0.13055434)
(-0.00019199818 -8.3829311e-06 0.14345593)
(-0.00024766872 -1.0813591e-05 0.15549927)
(-0.00031356951 -1.3690925e-05 0.16645743)
(-0.000390539 -1.7051528e-05 0.17610601)
(-0.00047924055 -2.0924378e-05 0.18423495)
(-0.00058005493 -2.5326099e-05 0.19066292)
(-0.00069294729 -3.0255166e-05 0.19525372)
(-0.00081731009 -3.5685057e-05 0.19793322)
(-0.00095179513 -4.1556914e-05 0.19870509)
(-0.0010941512 -4.7772438e-05 0.19766237)
(-0.0012411045 -5.4188701e-05 0.1949921)
(-0.0013883122 -6.0616098e-05 0.19097013)
(-0.0015304543 -6.6822322e-05 0.18594474)
(-0.0016614614 -7.2542376e-05 0.18030951)
(-0.0017749617 -7.7498205e-05 0.17446824)
(-0.0018648001 -8.1420811e-05 0.16879712)
(-0.0019257874 -8.4083731e-05 0.16361005)
(-0.0019542052 -8.5324719e-05 0.15913286)
(-0.0019485822 -8.5079324e-05 0.15549036)
(-0.0019095979 -8.337739e-05 0.15270759)
(-0.0018407022 -8.036935e-05 0.15072427)
(-0.0017467572 -7.6267629e-05 0.14941906)
(-0.0016348835 -7.1383069e-05 0.14863895)
(-0.0015112602 -6.5985434e-05 0.14822794)
(-0.0013835892 -6.0411043e-05 0.1480498)
(-0.0012554995 -5.4818326e-05 0.14800092)
(-0.0011329569 -4.9467822e-05 0.14801289)
(-0.0010150646 -4.4320323e-05 0.14804655)
(-0.00090657558 -3.9583411e-05 0.14808341)
(-0.00080267863 -3.5046988e-05 0.14811596)