/*--------------------------------*- C++ -*----------------------------------*\
| =========                 |                                                 |
| \\      /  F ield         | OpenFOAM: The Open Source CFD Toolbox           |
|  \\    /   O peration     | Version:  3.0.1                                 |
|   \\  /    A nd           | Web:      www.OpenFOAM.org                      |
|    \\/     M anipulation  |                                                 |
\*---------------------------------------------------------------------------*/
FoamFile
{
    version     2.0;
    format      ascii;
    class       volScalarField;
    location    "6000/cilcen";
    object      T;
}
// * * * * * * * * * * * * * * * * * * * * * * * * * * * * * * * * * * * * * //

dimensions      [0 0 0 1 0 0 0];

internalField   nonuniform List<scalar> 
3000
(
323.9225
323.9016
323.87983
323.86487
323.85567
323.9225
323.90159
323.87976
323.86471
323.8554
323.9225
323.90157
323.87966
323.86446
323.85502
323.9225
323.90155
323.87954
323.8642
323.85463
323.9225
323.90153
323.87944
323.864
323.85434
323.9225
323.90152
323.87939
323.86389
323.85419
324.5094
324.49716
324.4847
324.47637
324.47135
324.5094
324.49714
324.48461
324.47615
324.47099
324.5094
324.49712
324.48445
324.47579
324.47044
324.5094
324.49708
324.48428
324.4754
324.46987
324.50939
324.49706
324.48413
324.47508
324.4694
324.50939
324.49704
324.48405
324.4749
324.46915
325.33074
325.32174
325.3126
325.30653
325.3029
325.33074
325.32173
325.31251
325.3063
325.30253
325.33074
325.3217
325.31236
325.30595
325.30199
325.33074
325.32167
325.31219
325.30557
325.30144
325.33074
325.32164
325.31204
325.30527
325.30099
325.33074
325.32163
325.31196
325.3051
325.30075
326.25441
326.24691
326.23931
326.23428
326.23129
326.25441
326.2469
326.23922
326.23406
326.23094
326.25441
326.24687
326.23907
326.23372
326.23043
326.25441
326.24684
326.2389
326.23336
326.22988
326.25441
326.24681
326.23876
326.23304
326.22943
326.25441
326.2468
326.23867
326.23286
326.22915
327.21948
327.2128
327.206
327.20149
327.1988
327.21948
327.21278
327.20593
327.20131
327.1985
327.21948
327.21276
327.20581
327.20103
327.19807
327.21948
327.21274
327.20568
327.20074
327.19764
327.21948
327.21272
327.20557
327.20051
327.19731
327.21948
327.21271
327.20551
327.20038
327.19713
328.19204
328.18578
328.17942
328.1752
328.17268
328.19204
328.18577
328.17935
328.17503
328.17239
328.19204
328.18575
328.17924
328.17477
328.17199
328.19204
328.18573
328.17912
328.1745
328.1716
328.19204
328.18571
328.17902
328.17428
328.17129
328.19204
328.1857
328.17896
328.17416
328.17112
329.15447
329.14847
329.14234
329.13826
329.13583
329.15447
329.14846
329.14228
329.1381
329.13555
329.15447
329.14844
329.14218
329.13787
329.1352
329.15447
329.14842
329.14207
329.13764
329.13486
329.15447
329.1484
329.14199
329.13746
329.1346
329.15447
329.14839
329.14194
329.13736
329.13446
330.09658
330.0907
330.0847
330.08071
330.07832
330.09658
330.09069
330.08464
330.08055
330.07806
330.09658
330.09067
330.08455
330.08033
330.07771
330.09658
330.09065
330.08445
330.08011
330.07738
330.09658
330.09064
330.08436
330.07993
330.07714
330.09658
330.09063
330.08432
330.07984
330.07702
331.01298
331.00717
331.00125
330.99729
330.99493
331.01298
331.00716
331.00119
330.99715
330.99468
331.01298
331.00715
331.0011
330.99694
330.99434
331.01298
331.00713
331.00101
330.99672
330.99404
331.01298
331.00712
331.00093
330.99656
330.99381
331.01298
331.00711
331.00088
330.99648
330.9937
331.90056
331.89479
331.88891
331.88498
331.88263
331.90056
331.89478
331.88885
331.88483
331.88238
331.90056
331.89477
331.88876
331.88462
331.88204
331.90056
331.89475
331.88867
331.88441
331.88174
331.90056
331.89474
331.88859
331.88425
331.88152
331.90056
331.89473
331.88855
331.88417
331.88141
332.75776
332.75201
332.74615
332.74223
332.73989
332.75776
332.75201
332.74609
332.74209
332.73964
332.75775
332.75199
332.74601
332.74188
332.73932
332.75775
332.75197
332.74591
332.74168
332.73902
332.75775
332.75196
332.74584
332.74153
332.73881
332.75775
332.75195
332.7458
332.74144
332.7387
333.58355
333.57782
333.57197
333.56806
333.56573
333.58355
333.57781
333.57192
333.56792
333.56547
333.58355
333.5778
333.57183
333.56771
333.56515
333.58355
333.57778
333.57173
333.56751
333.56485
333.58355
333.57777
333.57166
333.56735
333.56464
333.58355
333.57776
333.57162
333.56727
333.56454
334.37751
334.37179
334.36594
334.36204
334.3597
334.37751
334.37178
334.36589
334.36189
334.35945
334.37751
334.37177
334.3658
334.36169
334.35913
334.37751
334.37175
334.36571
334.36149
334.35884
334.37751
334.37174
334.36564
334.36134
334.35864
334.37751
334.37173
334.3656
334.36126
334.35853
335.13928
335.13356
335.12772
335.12381
335.12148
335.13928
335.13355
335.12766
335.12367
335.12122
335.13928
335.13354
335.12757
335.12346
335.1209
335.13928
335.13352
335.12748
335.12326
335.12061
335.13928
335.13351
335.12741
335.12311
335.12041
335.13928
335.1335
335.12737
335.12304
335.12031
335.86885
335.86312
335.85728
335.85337
335.85104
335.86885
335.86312
335.85722
335.85323
335.85078
335.86885
335.8631
335.85714
335.85302
335.85046
335.86885
335.86309
335.85705
335.85283
335.85018
335.86885
335.86307
335.85698
335.85268
335.84998
335.86884
335.86306
335.85694
335.85261
335.84988
336.56617
336.56044
336.55459
336.55068
336.54835
336.56617
336.56043
336.55454
336.55054
336.54809
336.56617
336.56042
336.55445
336.55033
336.54777
336.56617
336.5604
336.55436
336.55013
336.54748
336.56617
336.56039
336.55429
336.54999
336.54728
336.56617
336.56038
336.55425
336.54991
336.54719
337.2315
337.22577
337.21991
337.21599
337.21365
337.2315
337.22576
337.21986
337.21585
337.21339
337.2315
337.22575
337.21977
337.21565
337.21308
337.2315
337.22573
337.21968
337.21546
337.2128
337.2315
337.22572
337.21961
337.21531
337.21261
337.2315
337.22571
337.21957
337.21524
337.21251
337.86506
337.85931
337.85344
337.84951
337.84717
337.86506
337.8593
337.85338
337.84937
337.84691
337.86506
337.85929
337.8533
337.84917
337.84659
337.86505
337.85927
337.85321
337.84897
337.84631
337.86505
337.85926
337.85314
337.84883
337.84612
337.86505
337.85925
337.8531
337.84876
337.84603
338.46731
338.46155
338.45567
338.45173
338.44938
338.46731
338.46154
338.45561
338.45159
338.44912
338.46731
338.46153
338.45553
338.45139
338.44881
338.46731
338.46152
338.45545
338.4512
338.44854
338.46731
338.4615
338.45538
338.45106
338.44835
338.46731
338.46149
338.45534
338.45099
338.44826
339.03868
339.03291
339.027
339.02305
339.0207
339.03868
339.0329
339.02695
339.02291
339.02044
339.03868
339.03288
339.02687
339.02271
339.02013
339.03868
339.03287
339.02678
339.02252
339.01985
339.03868
339.03285
339.02671
339.02239
339.01967
339.03868
339.03285
339.02667
339.02232
339.01958
339.57984
339.57405
339.56813
339.56416
339.56179
339.57984
339.57404
339.56807
339.56402
339.56154
339.57984
339.57403
339.56799
339.56383
339.56123
339.57984
339.57401
339.56791
339.56365
339.56097
339.57983
339.574
339.56784
339.56351
339.56079
339.57983
339.57399
339.56781
339.56344
339.5607
340.09137
340.08556
340.07962
340.07565
340.07327
340.09137
340.08556
340.07957
340.0755
340.07301
340.09137
340.08554
340.07949
340.07531
340.0727
340.09137
340.08553
340.0794
340.07512
340.07244
340.09137
340.08551
340.07934
340.07499
340.07225
340.09137
340.08551
340.0793
340.07492
340.07217
340.57414
340.56831
340.56235
340.55835
340.55596
340.57414
340.5683
340.5623
340.55821
340.55571
340.57414
340.56829
340.56222
340.55802
340.55541
340.57414
340.56828
340.56213
340.55784
340.55515
340.57414
340.56826
340.56207
340.55771
340.55498
340.57414
340.56826
340.56203
340.55765
340.55489
341.02885
341.023
341.01701
341.013
341.0106
341.02885
341.02299
341.01696
341.01286
341.01034
341.02884
341.02297
341.01688
341.01266
341.01004
341.02884
341.02296
341.01679
341.01248
341.00978
341.02884
341.02295
341.01673
341.01235
341.00961
341.02884
341.02294
341.01669
341.01229
341.00952
341.45645
341.45058
341.44456
341.44053
341.43812
341.45645
341.45057
341.44451
341.4404
341.43787
341.45645
341.45056
341.44444
341.44021
341.43757
341.45645
341.45054
341.44436
341.44004
341.43732
341.45645
341.45053
341.44429
341.43991
341.43716
341.45645
341.45052
341.44426
341.43985
341.43708
341.85777
341.85187
341.84583
341.84178
341.83936
341.85777
341.85186
341.84578
341.84165
341.83911
341.85777
341.85185
341.8457
341.84146
341.83881
341.85777
341.85183
341.84562
341.84128
341.83856
341.85777
341.85182
341.84556
341.84115
341.83839
341.85777
341.85181
341.84552
341.84109
341.8383
342.23386
342.22794
342.22188
342.21781
342.21537
342.23386
342.22794
342.22183
342.21767
342.21512
342.23386
342.22792
342.22175
342.21749
342.21483
342.23386
342.22791
342.22167
342.21732
342.21459
342.23386
342.2279
342.22161
342.2172
342.21443
342.23386
342.22789
342.22158
342.21714
342.21435
342.5856
342.57965
342.57356
342.56947
342.56703
342.5856
342.57965
342.57351
342.56934
342.56678
342.5856
342.57963
342.57344
342.56915
342.56648
342.5856
342.57962
342.57336
342.56898
342.56624
342.5856
342.57961
342.57329
342.56886
342.56608
342.5856
342.5796
342.57326
342.5688
342.566
342.91408
342.90812
342.90199
342.89789
342.89542
342.91408
342.90811
342.90195
342.89775
342.89518
342.91408
342.9081
342.90187
342.89757
342.89489
342.91408
342.90808
342.9018
342.89741
342.89466
342.91408
342.90807
342.90174
342.89729
342.8945
342.91408
342.90806
342.90171
342.89724
342.89443
343.22022
343.21422
343.20807
343.20394
343.20147
343.22022
343.21422
343.20802
343.20381
343.20122
343.22022
343.2142
343.20795
343.20363
343.20093
343.22022
343.21419
343.20787
343.20346
343.2007
343.22022
343.21418
343.20781
343.20335
343.20054
343.22022
343.21417
343.20778
343.20329
343.20047
343.5052
343.49918
343.493
343.48885
343.48636
343.5052
343.49917
343.49296
343.48872
343.48612
343.5052
343.49916
343.49288
343.48854
343.48584
343.5052
343.49915
343.49281
343.48839
343.48561
343.5052
343.49913
343.49275
343.48828
343.48547
343.5052
343.49913
343.49272
343.48822
343.4854
343.7699
343.76385
343.75764
343.75347
343.75097
343.7699
343.76384
343.75759
343.75334
343.75072
343.7699
343.76383
343.75752
343.75316
343.75044
343.7699
343.76381
343.75745
343.753
343.75021
343.7699
343.7638
343.75739
343.75289
343.75006
343.7699
343.7638
343.75736
343.75283
343.74999
344.01552
344.00945
344.00321
343.99902
343.99651
344.01552
344.00944
344.00317
343.99889
343.99626
344.01552
344.00943
344.0031
343.99872
343.99599
344.01552
344.00942
344.00303
343.99857
343.99577
344.01552
344.0094
344.00297
343.99846
343.99563
344.01552
344.0094
344.00294
343.99841
343.99557
344.24291
344.23681
344.23055
344.22634
344.22381
344.24291
344.2368
344.2305
344.22621
344.22357
344.24291
344.23679
344.23043
344.22604
344.22329
344.24291
344.23678
344.23036
344.22588
344.22307
344.24291
344.23677
344.23031
344.22577
344.22293
344.24291
344.23676
344.23028
344.22572
344.22287
344.45319
344.44707
344.44078
344.43655
344.43401
344.45319
344.44706
344.44074
344.43642
344.43377
344.45319
344.44705
344.44067
344.43625
344.4335
344.45319
344.44704
344.4406
344.43611
344.43329
344.45319
344.44703
344.44055
344.43601
344.43316
344.45319
344.44702
344.44052
344.43596
344.43311
344.6472
344.64105
344.63474
344.63049
344.62794
344.6472
344.64105
344.6347
344.63036
344.6277
344.6472
344.64104
344.63463
344.63019
344.62743
344.6472
344.64102
344.63456
344.63004
344.62721
344.6472
344.64101
344.6345
344.62994
344.62707
344.6472
344.64101
344.63447
344.62988
344.62701
344.82611
344.81994
344.8136
344.80934
344.80677
344.82611
344.81994
344.81356
344.80921
344.80653
344.82611
344.81993
344.81349
344.80905
344.80627
344.82611
344.81991
344.81343
344.8089
344.80607
344.82611
344.8199
344.81338
344.80881
344.80594
344.82611
344.8199
344.81335
344.80876
344.80589
344.99066
344.98446
344.9781
344.97381
344.97123
344.99066
344.98446
344.97806
344.97369
344.971
344.99066
344.98445
344.97799
344.97352
344.97074
344.99066
344.98443
344.97792
344.97337
344.97053
344.99066
344.98442
344.97787
344.97327
344.9704
344.99066
344.98442
344.97784
344.97322
344.97034
345.14194
345.13573
345.12934
345.12503
345.12244
345.14194
345.13572
345.1293
345.12491
345.12221
345.14194
345.13571
345.12923
345.12475
345.12195
345.14194
345.1357
345.12917
345.12461
345.12176
345.14194
345.13569
345.12912
345.12452
345.12164
345.14194
345.13568
345.12909
345.12448
345.12159
345.28063
345.2744
345.26799
345.26367
345.26107
345.28063
345.27439
345.26794
345.26354
345.26083
345.28063
345.27438
345.26788
345.26338
345.26057
345.28063
345.27437
345.26781
345.26323
345.26037
345.28063
345.27436
345.26776
345.26314
345.26024
345.28063
345.27435
345.26773
345.26309
345.26019
345.40776
345.40151
345.39508
345.39074
345.38812
345.40776
345.4015
345.39503
345.39062
345.38789
345.40776
345.40149
345.39497
345.39046
345.38764
345.40776
345.40148
345.39491
345.39032
345.38745
345.40776
345.40147
345.39486
345.39024
345.38734
345.40776
345.40147
345.39484
345.3902
345.3873
345.52397
345.51769
345.51124
345.50689
345.50426
345.52397
345.51769
345.5112
345.50676
345.50403
345.52397
345.51767
345.51113
345.5066
345.50378
345.52397
345.51766
345.51107
345.50646
345.50358
345.52397
345.51765
345.51102
345.50637
345.50346
345.52397
345.51765
345.51099
345.50633
345.50341
345.63019
345.6239
345.61742
345.61305
345.61042
345.63019
345.62389
345.61738
345.61293
345.61019
345.63019
345.62388
345.61732
345.61278
345.60994
345.63019
345.62387
345.61726
345.61265
345.60976
345.63019
345.62386
345.61721
345.61257
345.60966
345.63019
345.62386
345.61719
345.61253
345.60962
345.72703
345.72071
345.71422
345.70984
345.7072
345.72703
345.72071
345.71418
345.70972
345.70697
345.72703
345.7207
345.71411
345.70956
345.70672
345.72702
345.72068
345.71405
345.70942
345.70653
345.72702
345.72068
345.714
345.70933
345.70641
345.72702
345.72067
345.71398
345.70929
345.70637
345.81534
345.80901
345.8025
345.79811
345.79545
345.81534
345.80901
345.80246
345.79799
345.79523
345.81534
345.809
345.8024
345.79784
345.79498
345.81534
345.80899
345.80234
345.79771
345.7948
345.81534
345.80898
345.8023
345.79763
345.7947
345.81534
345.80897
345.80228
345.79759
345.79467
345.89563
345.88929
345.88276
345.87835
345.8757
345.89563
345.88928
345.88272
345.87823
345.87547
345.89563
345.88927
345.88266
345.87808
345.87522
345.89563
345.88926
345.8826
345.87795
345.87504
345.89563
345.88925
345.88255
345.87786
345.87493
345.89563
345.88925
345.88253
345.87783
345.87489
345.96865
345.96229
345.95574
345.95132
345.94866
345.96865
345.96228
345.95571
345.95121
345.94843
345.96865
345.96227
345.95565
345.95106
345.94819
345.96864
345.96226
345.95559
345.95093
345.94801
345.96864
345.96225
345.95554
345.95085
345.94792
345.96864
345.96225
345.95552
345.95082
345.94789
346.03486
346.02849
346.02193
346.0175
346.01483
346.03486
346.02849
346.02189
346.01738
346.0146
346.03486
346.02848
346.02183
346.01723
346.01436
346.03486
346.02846
346.02177
346.0171
346.01418
346.03486
346.02846
346.02172
346.01702
346.01407
346.03486
346.02845
346.0217
346.01698
346.01403
346.095
346.08861
346.08204
346.0776
346.07491
346.095
346.08861
346.082
346.07748
346.07469
346.095
346.0886
346.08194
346.07733
346.07446
346.095
346.08859
346.08189
346.07721
346.07428
346.095
346.08858
346.08184
346.07714
346.07419
346.095
346.08857
346.08182
346.0771
346.07416
346.1494
346.143
346.13642
346.13196
346.12928
346.1494
346.143
346.13638
346.13185
346.12905
346.1494
346.14299
346.13632
346.1317
346.12881
346.1494
346.14298
346.13626
346.13157
346.12864
346.1494
346.14297
346.13621
346.13149
346.12854
346.1494
346.14296
346.13619
346.13146
346.12851
346.19865
346.19225
346.18565
346.18119
346.17849
346.19865
346.19224
346.18561
346.18107
346.17827
346.19865
346.19223
346.18555
346.18093
346.17804
346.19865
346.19222
346.1855
346.18081
346.17787
346.19865
346.19221
346.18546
346.18073
346.17778
346.19865
346.19221
346.18543
346.1807
346.17775
346.24311
346.23669
346.23008
346.22561
346.22291
346.24311
346.23668
346.23004
346.2255
346.22269
346.24311
346.23668
346.22998
346.22535
346.22245
346.24311
346.23666
346.22992
346.22522
346.22228
346.24311
346.23666
346.22988
346.22514
346.22218
346.24311
346.23665
346.22986
346.22511
346.22215
346.28334
346.27691
346.27029
346.26581
346.26311
346.28334
346.27691
346.27025
346.2657
346.26289
346.28334
346.2769
346.2702
346.26556
346.26266
346.28334
346.27689
346.27014
346.26544
346.26249
346.28334
346.27688
346.2701
346.26537
346.26241
346.28334
346.27688
346.27008
346.26534
346.26238
346.31957
346.31313
346.3065
346.30202
346.29931
346.31957
346.31312
346.30646
346.3019
346.29909
346.31957
346.31312
346.3064
346.30176
346.29885
346.31957
346.3131
346.30635
346.30163
346.29868
346.31957
346.3131
346.3063
346.30156
346.29859
346.31957
346.31309
346.30628
346.30153
346.29856
346.35227
346.34583
346.33919
346.3347
346.33198
346.35227
346.34582
346.33915
346.33458
346.33176
346.35227
346.34581
346.33909
346.33444
346.33153
346.35227
346.3458
346.33904
346.33433
346.33137
346.35227
346.3458
346.339
346.33426
346.33129
346.35227
346.34579
346.33898
346.33423
346.33127
346.38166
346.37521
346.36856
346.36406
346.36135
346.38166
346.3752
346.36852
346.36395
346.36113
346.38166
346.37519
346.36846
346.3638
346.36089
346.38166
346.37518
346.36841
346.36368
346.36073
346.38166
346.37517
346.36837
346.36361
346.36063
346.38166
346.37517
346.36834
346.36358
346.3606
346.40819
346.40173
346.39507
346.39057
346.38785
346.40819
346.40173
346.39504
346.39046
346.38763
346.40819
346.40172
346.39498
346.39032
346.3874
346.40819
346.40171
346.39493
346.3902
346.38725
346.40819
346.4017
346.39489
346.39014
346.38717
346.40819
346.40169
346.39487
346.39011
346.38714
346.43198
346.42551
346.41885
346.41434
346.41162
346.43198
346.4255
346.41881
346.41422
346.4114
346.43197
346.42549
346.41875
346.41408
346.41116
346.43197
346.42548
346.41869
346.41396
346.411
346.43197
346.42548
346.41865
346.41389
346.41091
346.43197
346.42547
346.41863
346.41386
346.41088
346.45343
346.44696
346.44029
346.43577
346.43304
346.45343
346.44695
346.44025
346.43566
346.43283
346.45343
346.44694
346.4402
346.43552
346.4326
346.45343
346.44693
346.44014
346.43541
346.43245
346.45342
346.44692
346.4401
346.43534
346.43237
346.45342
346.44692
346.44009
346.43532
346.43235
346.47262
346.46614
346.45947
346.45495
346.45222
346.47262
346.46614
346.45943
346.45484
346.452
346.47262
346.46613
346.45937
346.45469
346.45177
346.47262
346.46612
346.45932
346.45458
346.45161
346.47262
346.46611
346.45928
346.45451
346.45152
346.47262
346.4661
346.45926
346.45448
346.4515
346.4899
346.48343
346.47674
346.47222
346.46949
346.4899
346.48342
346.47671
346.47211
346.46927
346.4899
346.48341
346.47665
346.47197
346.46905
346.4899
346.4834
346.4766
346.47186
346.46889
346.4899
346.48339
346.47656
346.4718
346.46882
346.4899
346.48339
346.47654
346.47177
346.4688
346.50535
346.49886
346.49217
346.48765
346.48492
346.50535
346.49885
346.49214
346.48754
346.4847
346.50534
346.49884
346.49208
346.4874
346.48447
346.50534
346.49883
346.49202
346.48728
346.48431
346.50534
346.49883
346.49198
346.48721
346.48422
346.50534
346.49882
346.49196
346.48718
346.48419
346.51925
346.51277
346.50608
346.50155
346.49881
346.51925
346.51276
346.50604
346.50144
346.49859
346.51925
346.51275
346.50599
346.5013
346.49837
346.51925
346.51274
346.50594
346.50119
346.49822
346.51925
346.51274
346.5059
346.50113
346.49814
346.51925
346.51273
346.50588
346.5011
346.49813
346.53165
346.52516
346.51846
346.51393
346.51119
346.53165
346.52515
346.51842
346.51382
346.51098
346.53165
346.52514
346.51837
346.51368
346.51075
346.53165
346.52513
346.51831
346.51356
346.51059
346.53165
346.52512
346.51827
346.51349
346.5105
346.53165
346.52512
346.51825
346.51346
346.51048
346.54281
346.53632
346.52962
346.52509
346.52234
346.54281
346.53631
346.52959
346.52498
346.52213
346.54281
346.53631
346.52953
346.52484
346.52191
346.54281
346.5363
346.52948
346.52473
346.52176
346.54281
346.53629
346.52944
346.52467
346.52168
346.54281
346.53628
346.52942
346.52464
346.52166
346.55275
346.54625
346.53955
346.53501
346.53227
346.55275
346.54624
346.53951
346.5349
346.53206
346.55275
346.54623
346.53946
346.53476
346.53183
346.55275
346.54622
346.5394
346.53465
346.53167
346.55275
346.54622
346.53936
346.53458
346.53158
346.55275
346.54621
346.53934
346.53455
346.53156
346.56171
346.55521
346.54851
346.54397
346.54122
346.56171
346.55521
346.54847
346.54386
346.54101
346.56171
346.5552
346.54842
346.54372
346.54079
346.56171
346.55519
346.54837
346.54361
346.54064
346.56171
346.55518
346.54833
346.54355
346.54056
346.56171
346.55518
346.54831
346.54353
346.54055
346.56968
346.56317
346.55647
346.55193
346.54918
346.56968
346.56317
346.55643
346.55182
346.54897
346.56968
346.56316
346.55637
346.55168
346.54874
346.56968
346.56315
346.55632
346.55156
346.54858
346.56968
346.56314
346.55628
346.55149
346.5485
346.56968
346.56314
346.55626
346.55146
346.54847
346.57688
346.57037
346.56366
346.55912
346.55637
346.57688
346.57037
346.56363
346.55901
346.55616
346.57688
346.57036
346.56357
346.55887
346.55594
346.57688
346.57035
346.56352
346.55876
346.55578
346.57688
346.57034
346.56348
346.5587
346.55571
346.57688
346.57034
346.56347
346.55868
346.55569
346.58328
346.57677
346.57006
346.56552
346.56277
346.58328
346.57677
346.57003
346.56541
346.56256
346.58328
346.57676
346.56997
346.56527
346.56233
346.58328
346.57675
346.56992
346.56516
346.56217
346.58328
346.57674
346.56988
346.56509
346.56209
346.58328
346.57674
346.56986
346.56506
346.56207
346.58907
346.58256
346.57585
346.5713
346.56855
346.58907
346.58255
346.57581
346.57119
346.56834
346.58907
346.58255
346.57576
346.57105
346.56811
346.58907
346.58254
346.57571
346.57095
346.56796
346.58907
346.58253
346.57567
346.57088
346.56789
346.58907
346.58252
346.57565
346.57086
346.56788
346.59421
346.58769
346.58098
346.57643
346.57368
346.59421
346.58769
346.58094
346.57632
346.57347
346.59421
346.58768
346.58089
346.57618
346.57324
346.59421
346.58767
346.58083
346.57607
346.57309
346.59421
346.58766
346.58079
346.576
346.57301
346.59421
346.58766
346.58077
346.57597
346.57298
346.59889
346.59238
346.58566
346.58111
346.57836
346.59889
346.59237
346.58563
346.581
346.57815
346.59889
346.59237
346.58557
346.58087
346.57793
346.59889
346.59236
346.58552
346.58076
346.57778
346.59889
346.59235
346.58549
346.5807
346.57771
346.59889
346.59234
346.58547
346.58067
346.57769
346.60307
346.59655
346.58983
346.58528
346.58253
346.60307
346.59654
346.58979
346.58517
346.58232
346.60307
346.59653
346.58974
346.58503
346.58209
346.60307
346.59652
346.58969
346.58492
346.58193
346.60306
346.59652
346.58965
346.58485
346.58185
346.60306
346.59651
346.58963
346.58482
346.58183
346.60692
346.6004
346.59368
346.58913
346.58638
346.60692
346.6004
346.59365
346.58902
346.58616
346.60692
346.60039
346.59359
346.58889
346.58594
346.60692
346.60038
346.59354
346.58878
346.58579
346.60692
346.60037
346.59351
346.58872
346.58572
346.60692
346.60037
346.59349
346.58869
346.58571
346.61038
346.60386
346.59714
346.59259
346.58984
346.61038
346.60386
346.5971
346.59248
346.58962
346.61038
346.60385
346.59705
346.59234
346.5894
346.61038
346.60384
346.597
346.59223
346.58924
346.61038
346.60383
346.59696
346.59216
346.58917
346.61038
346.60383
346.59694
346.59214
346.58915
346.61357
346.60705
346.60033
346.59577
346.59302
346.61357
346.60704
346.60029
346.59566
346.59281
346.61357
346.60704
346.60024
346.59553
346.59259
346.61357
346.60703
346.60019
346.59542
346.59243
346.61357
346.60702
346.60015
346.59536
346.59236
346.61357
346.60702
346.60013
346.59533
346.59235
346.61648
346.60995
346.60323
346.59868
346.59592
346.61648
346.60995
346.60319
346.59857
346.59571
346.61647
346.60994
346.60314
346.59843
346.59549
346.61647
346.60993
346.60309
346.59832
346.59533
346.61647
346.60992
346.60305
346.59825
346.59525
346.61647
346.60992
346.60303
346.59822
346.59523
346.61924
346.61271
346.60599
346.60143
346.59868
346.61924
346.61271
346.60595
346.60132
346.59846
346.61924
346.6127
346.6059
346.60119
346.59825
346.61923
346.61269
346.60585
346.60108
346.5981
346.61923
346.61268
346.60581
346.60102
346.59802
346.61923
346.61268
346.60579
346.60099
346.59801
346.62182
346.6153
346.60857
346.60402
346.60126
346.62182
346.61529
346.60853
346.60391
346.60105
346.62182
346.61528
346.60848
346.60377
346.60083
346.62182
346.61527
346.60843
346.60366
346.60067
346.62182
346.61527
346.60839
346.60359
346.60059
346.62182
346.61526
346.60837
346.60357
346.60057
346.62432
346.6178
346.61107
346.60651
346.60376
346.62432
346.61779
346.61103
346.6064
346.60354
346.62432
346.61778
346.61098
346.60627
346.60332
346.62432
346.61777
346.61093
346.60616
346.60317
346.62432
346.61777
346.61089
346.6061
346.6031
346.62432
346.61776
346.61088
346.60608
346.60309
346.6267
346.62017
346.61344
346.60888
346.60613
346.6267
346.62016
346.6134
346.60877
346.60591
346.6267
346.62016
346.61335
346.60864
346.60569
346.6267
346.62015
346.6133
346.60853
346.60554
346.62669
346.62014
346.61326
346.60846
346.60546
346.62669
346.62013
346.61324
346.60843
346.60544
346.6291
346.62258
346.61585
346.61129
346.60853
346.6291
346.62257
346.61581
346.61118
346.60832
346.6291
346.62256
346.61576
346.61104
346.6081
346.6291
346.62255
346.61571
346.61094
346.60795
346.6291
346.62255
346.61567
346.61087
346.60788
346.6291
346.62254
346.61565
346.61085
346.60786
346.63152
346.62499
346.61826
346.61371
346.61095
346.63152
346.62499
346.61823
346.6136
346.61074
346.63152
346.62498
346.61817
346.61346
346.61051
346.63152
346.62497
346.61812
346.61335
346.61036
346.63152
346.62496
346.61808
346.61328
346.61028
346.63152
346.62496
346.61807
346.61326
346.61027
346.63402
346.62749
346.62076
346.6162
346.61344
346.63402
346.62749
346.62073
346.61609
346.61323
346.63402
346.62748
346.62067
346.61596
346.61301
346.63402
346.62747
346.62062
346.61585
346.61286
346.63402
346.62746
346.62059
346.61579
346.61279
346.63402
346.62746
346.62057
346.61576
346.61277
346.63661
346.63008
346.62335
346.61879
346.61603
346.63661
346.63008
346.62331
346.61868
346.61581
346.63661
346.63007
346.62326
346.61854
346.61559
346.63661
346.63006
346.6232
346.61843
346.61544
346.63661
346.63005
346.62317
346.61836
346.61536
346.63661
346.63005
346.62315
346.61833
346.61534
346.63945
346.63292
346.62618
346.62162
346.61886
346.63945
346.63291
346.62615
346.62151
346.61865
346.63945
346.63291
346.62609
346.62138
346.61843
346.63945
346.6329
346.62604
346.62127
346.61828
346.63945
346.63289
346.62601
346.62121
346.61821
346.63945
346.63288
346.62599
346.62118
346.61819
346.64251
346.63598
346.62924
346.62468
346.62192
346.64251
346.63597
346.6292
346.62457
346.6217
346.64251
346.63596
346.62915
346.62443
346.62148
346.64251
346.63595
346.6291
346.62432
346.62132
346.64251
346.63595
346.62906
346.62425
346.62125
346.64251
346.63594
346.62904
346.62422
346.62122
346.64599
346.63945
346.63271
346.62814
346.62538
346.64599
346.63945
346.63267
346.62803
346.62517
346.64599
346.63944
346.63262
346.6279
346.62495
346.64599
346.63943
346.63257
346.62779
346.6248
346.64599
346.63942
346.63254
346.62773
346.62473
346.64599
346.63942
346.63252
346.62771
346.62472
346.64987
346.64333
346.63659
346.63202
346.62926
346.64987
346.64333
346.63655
346.63191
346.62905
346.64987
346.64332
346.6365
346.63177
346.62882
346.64987
346.64331
346.63645
346.63166
346.62867
346.64987
346.6433
346.63641
346.6316
346.62859
346.64987
346.6433
346.63639
346.63157
346.62857
346.65441
346.64787
346.64112
346.63655
346.63379
346.65441
346.64787
346.64109
346.63644
346.63357
346.65441
346.64786
346.64103
346.63631
346.63335
346.65441
346.64785
346.64098
346.6362
346.6332
346.65441
346.64784
346.64095
346.63614
346.63313
346.65441
346.64784
346.64093
346.63611
346.63312
346.65966
346.65311
346.64636
346.64179
346.63902
346.65966
346.65311
346.64632
346.64168
346.63881
346.65966
346.6531
346.64627
346.64154
346.63858
346.65966
346.65309
346.64622
346.64143
346.63843
346.65966
346.65308
346.64618
346.64136
346.63835
346.65966
346.65308
346.64616
346.64133
346.63833
346.66592
346.65937
346.65261
346.64803
346.64526
346.66592
346.65936
346.65257
346.64792
346.64504
346.66592
346.65935
346.65252
346.64778
346.64482
346.66592
346.65935
346.65247
346.64768
346.64467
346.66592
346.65934
346.65243
346.64762
346.64461
346.66592
346.65933
346.65242
346.64759
346.64459
346.67337
346.6668
346.66003
346.65544
346.65267
346.67337
346.66679
346.65999
346.65533
346.65245
346.67337
346.66679
346.65994
346.65519
346.65223
346.67336
346.66678
346.65989
346.65508
346.65208
346.67336
346.66677
346.65985
346.65502
346.652
346.67336
346.66676
346.65983
346.65499
346.65198
346.68249
346.67591
346.66913
346.66453
346.66175
346.68249
346.67591
346.66909
346.66442
346.66153
346.68249
346.6759
346.66904
346.66428
346.66131
346.68249
346.67589
346.66899
346.66418
346.66116
346.68249
346.67588
346.66895
346.66412
346.6611
346.68249
346.67588
346.66893
346.66409
346.66108
346.69384
346.68724
346.68043
346.67582
346.67303
346.69384
346.68723
346.6804
346.67571
346.67282
346.69384
346.68723
346.68034
346.67557
346.67259
346.69384
346.68722
346.68029
346.67546
346.67244
346.69384
346.68721
346.68025
346.67539
346.67236
346.69384
346.6872
346.68023
346.67537
346.67234
346.70835
346.70173
346.69491
346.69028
346.68749
346.70835
346.70173
346.69487
346.69017
346.68727
346.70835
346.70172
346.69482
346.69004
346.68705
346.70835
346.70171
346.69477
346.68993
346.6869
346.70835
346.7017
346.69473
346.68987
346.68683
346.70835
346.7017
346.69471
346.68985
346.68682
346.72656
346.71997
346.71317
346.70856
346.70577
346.72656
346.71997
346.71314
346.70845
346.70556
346.72656
346.71996
346.71308
346.70832
346.70534
346.72656
346.71995
346.71304
346.70822
346.7052
346.72656
346.71994
346.713
346.70816
346.70513
346.72656
346.71994
346.71298
346.70814
346.70512
346.74742
346.74098
346.73432
346.7298
346.72706