/*--------------------------------*- C++ -*----------------------------------*\
| =========                 |                                                 |
| \\      /  F ield         | OpenFOAM: The Open Source CFD Toolbox           |
|  \\    /   O peration     | Version:  4.0                                   |
|   \\  /    A nd           | Web:      www.OpenFOAM.org                      |
|    \\/     M anipulation  |                                                 |
\*---------------------------------------------------------------------------*/
FoamFile
{
    version     2.0;
    format      ascii;
    class       volScalarField;
    location    "3000/fluid";
    object      G;
}
// * * * * * * * * * * * * * * * * * * * * * * * * * * * * * * * * * * * * * //

dimensions      [1 0 -3 0 0 0 0];

internalField   nonuniform List<scalar> 
5000
(
3205.4187
3205.4175
3205.4162
3205.4149
3205.4135
3205.412
3205.4105
3205.4088
3205.407
3205.4052
3205.4032
3205.4011
3205.399
3205.3971
3205.3955
3205.3942
3205.3933
3205.3926
3205.3921
3205.3917
3205.3913
3205.391
3205.3907
3205.3904
3205.3901
3205.3898
3205.3895
3205.3891
3205.3888
3205.3885
3205.3882
3205.3878
3205.3875
3205.3871
3205.3868
3205.3864
3205.3861
3205.3857
3205.3853
3205.385
3205.3846
3205.3843
3205.3839
3205.3835
3205.3831
3205.3828
3205.3824
3205.382
3205.3817
3205.3807
3318.7941
3318.793
3318.7919
3318.7907
3318.7895
3318.7882
3318.7868
3318.7853
3318.7837
3318.782
3318.7802
3318.7783
3318.7765
3318.7748
3318.7733
3318.7722
3318.7713
3318.7707
3318.7702
3318.7699
3318.7696
3318.7693
3318.769
3318.7687
3318.7685
3318.7682
3318.7679
3318.7676
3318.7673
3318.767
3318.7667
3318.7664
3318.7661
3318.7658
3318.7655
3318.7652
3318.7648
3318.7645
3318.7642
3318.7639
3318.7635
3318.7632
3318.7629
3318.7626
3318.7622
3318.7619
3318.7616
3318.7612
3318.761
3318.7601
3410.8813
3410.8804
3410.8794
3410.8783
3410.8772
3410.876
3410.8748
3410.8734
3410.872
3410.8705
3410.8689
3410.8672
3410.8656
3410.864
3410.8628
3410.8617
3410.861
3410.8604
3410.86
3410.8597
3410.8594
3410.8591
3410.8589
3410.8586
3410.8584
3410.8581
3410.8579
3410.8576
3410.8574
3410.8571
3410.8568
3410.8566
3410.8563
3410.856
3410.8557
3410.8555
3410.8552
3410.8549
3410.8546
3410.8543
3410.854
3410.8537
3410.8534
3410.8531
3410.8528
3410.8525
3410.8523
3410.8519
3410.8517
3410.8509
3484.427
3484.4262
3484.4253
3484.4243
3484.4233
3484.4223
3484.4211
3484.42
3484.4187
3484.4173
3484.4159
3484.4144
3484.4129
3484.4115
3484.4103
3484.4094
3484.4087
3484.4082
3484.4079
3484.4076
3484.4073
3484.4071
3484.4069
3484.4066
3484.4064
3484.4062
3484.406
3484.4058
3484.4055
3484.4053
3484.405
3484.4048
3484.4045
3484.4043
3484.404
3484.4038
3484.4035
3484.4033
3484.403
3484.4028
3484.4025
3484.4022
3484.402
3484.4017
3484.4014
3484.4012
3484.4009
3484.4006
3484.4004
3484.3997
3544.0518
3544.051
3544.0502
3544.0494
3544.0485
3544.0475
3544.0465
3544.0454
3544.0443
3544.043
3544.0417
3544.0404
3544.039
3544.0378
3544.0367
3544.0359
3544.0353
3544.0348
3544.0345
3544.0342
3544.034
3544.0338
3544.0336
3544.0334
3544.0332
3544.033
3544.0328
3544.0326
3544.0323
3544.0321
3544.0319
3544.0317
3544.0315
3544.0312
3544.031
3544.0308
3544.0306
3544.0303
3544.0301
3544.0299
3544.0296
3544.0294
3544.0291
3544.0289
3544.0287
3544.0284
3544.0282
3544.0279
3544.0278
3544.0271
3592.9189
3592.9182
3592.9174
3592.9167
3592.9158
3592.915
3592.914
3592.9131
3592.912
3592.9109
3592.9097
3592.9084
3592.9072
3592.9061
3592.9051
3592.9043
3592.9038
3592.9034
3592.903
3592.9028
3592.9026
3592.9024
3592.9022
3592.9021
3592.9019
3592.9017
3592.9015
3592.9013
3592.9011
3592.9009
3592.9007
3592.9005
3592.9003
3592.9001
3592.8999
3592.8997
3592.8995
3592.8993
3592.8991
3592.8988
3592.8986
3592.8984
3592.8982
3592.898
3592.8978
3592.8975
3592.8973
3592.8971
3592.8969
3592.8963
3633.5481
3633.5474
3633.5467
3633.546
3633.5453
3633.5445
3633.5436
3633.5427
3633.5417
3633.5407
3633.5396
3633.5384
3633.5373
3633.5363
3633.5354
3633.5347
3633.5341
3633.5338
3633.5335
3633.5333
3633.5331
3633.5329
3633.5327
3633.5326
3633.5324
3633.5322
3633.5321
3633.5319
3633.5317
3633.5315
3633.5313
3633.5311
3633.531
3633.5308
3633.5306
3633.5304
3633.5302
3633.53
3633.5298
3633.5296
3633.5294
3633.5292
3633.529
3633.5288
3633.5286
3633.5284
3633.5282
3633.528
3633.5278
3633.5273
3667.7825
3667.7819
3667.7813
3667.7806
3667.7799
3667.7792
3667.7784
3667.7775
3667.7766
3667.7757
3667.7746
3667.7736
3667.7725
3667.7715
3667.7707
3667.7701
3667.7696
3667.7692
3667.769
3667.7688
3667.7686
3667.7684
3667.7683
3667.7681
3667.768
3667.7678
3667.7676
3667.7675
3667.7673
3667.7671
3667.767
3667.7668
3667.7666
3667.7664
3667.7663
3667.7661
3667.7659
3667.7657
3667.7655
3667.7654
3667.7652
3667.765
3667.7648
3667.7646
3667.7644
3667.7642
3667.7641
3667.7638
3667.7637
3667.7632
3697.0559
3697.0554
3697.0548
3697.0542
3697.0535
3697.0528
3697.0521
3697.0513
3697.0504
3697.0495
3697.0486
3697.0476
3697.0466
3697.0457
3697.0449
3697.0443
3697.0438
3697.0435
3697.0433
3697.0431
3697.0429
3697.0427
3697.0426
3697.0425
3697.0423
3697.0422
3697.042
3697.0419
3697.0417
3697.0416
3697.0414
3697.0412
3697.0411
3697.0409
3697.0407
3697.0406
3697.0404
3697.0402
3697.0401
3697.0399
3697.0397
3697.0395
3697.0394
3697.0392
3697.039
3697.0389
3697.0387
3697.0385
3697.0384
3697.0379
3722.4225
3722.4219
3722.4214
3722.4208
3722.4202
3722.4195
3722.4188
3722.4181
3722.4173
3722.4164
3722.4155
3722.4146
3722.4137
3722.4128
3722.4121
3722.4115
3722.4111
3722.4108
3722.4105
3722.4104
3722.4102
3722.4101
3722.4099
3722.4098
3722.4097
3722.4095
3722.4094
3722.4092
3722.4091
3722.4089
3722.4088
3722.4086
3722.4085
3722.4083
3722.4082
3722.408
3722.4079
3722.4077
3722.4075
3722.4074
3722.4072
3722.4071
3722.4069
3722.4067
3722.4066
3722.4064
3722.4063
3722.4061
3722.4059
3722.4055
3744.6895
3744.689
3744.6885
3744.6879
3744.6873
3744.6867
3744.686
3744.6853
3744.6846
3744.6838
3744.6829
3744.6821
3744.6812
3744.6804
3744.6797
3744.6792
3744.6788
3744.6785
3744.6782
3744.6781
3744.6779
3744.6778
3744.6777
3744.6775
3744.6774
3744.6773
3744.6771
3744.677
3744.6769
3744.6767
3744.6766
3744.6765
3744.6763
3744.6762
3744.676
3744.6759
3744.6757
3744.6756
3744.6754
3744.6753
3744.6751
3744.675
3744.6748
3744.6747
3744.6745
3744.6744
3744.6742
3744.674
3744.6739
3744.6735
3764.4584
3764.458
3764.4575
3764.4569
3764.4564
3764.4558
3764.4551
3764.4545
3764.4538
3764.453
3764.4522
3764.4514
3764.4505
3764.4498
3764.4491
3764.4486
3764.4482
3764.448
3764.4478
3764.4476
3764.4475
3764.4473
3764.4472
3764.4471
3764.447
3764.4468
3764.4467
3764.4466
3764.4465
3764.4463
3764.4462
3764.4461
3764.4459
3764.4458
3764.4457
3764.4455
3764.4454
3764.4453
3764.4451
3764.445
3764.4448
3764.4447
3764.4445
3764.4444
3764.4443
3764.4441
3764.444
3764.4438
3764.4437
3764.4433
3782.1922
3782.1917
3782.1913
3782.1908
3782.1902
3782.1897
3782.1891
3782.1884
3782.1878
3782.187
3782.1863
3782.1855
3782.1847
3782.184
3782.1834
3782.1829
3782.1825
3782.1823
3782.1821
3782.1819
3782.1818
3782.1817
3782.1815
3782.1814
3782.1813
3782.1812
3782.1811
3782.181
3782.1809
3782.1807
3782.1806
3782.1805
3782.1804
3782.1802
3782.1801
3782.18
3782.1798
3782.1797
3782.1796
3782.1795
3782.1793
3782.1792
3782.1791
3782.1789
3782.1788
3782.1787
3782.1785
3782.1784
3782.1783
3782.1779
3798.2435
3798.243
3798.2426
3798.2421
3798.2416
3798.2411
3798.2405
3798.2399
3798.2392
3798.2386
3798.2378
3798.2371
3798.2363
3798.2357
3798.2351
3798.2346
3798.2343
3798.2341
3798.2339
3798.2337
3798.2336
3798.2335
3798.2334
3798.2333
3798.2332
3798.2331
3798.233
3798.2329
3798.2327
3798.2326
3798.2325
3798.2324
3798.2323
3798.2322
3798.232
3798.2319
3798.2318
3798.2317
3798.2316
3798.2314
3798.2313
3798.2312
3798.2311
3798.231
3798.2308
3798.2307
3798.2306
3798.2304
3798.2304
3798.23
3812.8882
3812.8878
3812.8873
3812.8869
3812.8864
3812.8859
3812.8853
3812.8848
3812.8841
3812.8835
3812.8828
3812.8821
3812.8814
3812.8808
3812.8802
3812.8798
3812.8795
3812.8793
3812.8791
3812.879
3812.8788
3812.8787
3812.8786
3812.8785
3812.8784
3812.8783
3812.8782
3812.8781
3812.878
3812.8779
3812.8778
3812.8777
3812.8776
3812.8775
3812.8774
3812.8773
3812.8772
3812.8771
3812.877
3812.8768
3812.8767
3812.8766
3812.8765
3812.8764
3812.8763
3812.8762
3812.8761
3812.8759
3812.8759
3812.8756
3826.3421
3826.3417
3826.3413
3826.3408
3826.3404
3826.3399
3826.3393
3826.3388
3826.3382
3826.3376
3826.337
3826.3363
3826.3356
3826.3351
3826.3345
3826.3342
3826.3339
3826.3336
3826.3335
3826.3334
3826.3333
3826.3332
3826.3331
3826.333
3826.3329
3826.3328
3826.3327
3826.3326
3826.3325
3826.3324
3826.3323
3826.3322
3826.3321
3826.332
3826.3319
3826.3318
3826.3317
3826.3316
3826.3315
3826.3314
3826.3313
3826.3312
3826.3311
3826.331
3826.3309
3826.3308
3826.3307
3826.3306
3826.3306
3826.3303
3838.7774
3838.777
3838.7766
3838.7762
3838.7758
3838.7753
3838.7748
3838.7743
3838.7738
3838.7732
3838.7726
3838.772
3838.7713
3838.7708
3838.7703
3838.77
3838.7697
3838.7695
3838.7694
3838.7692
3838.7691
3838.7691
3838.769
3838.7689
3838.7688
3838.7687
3838.7687
3838.7686
3838.7685
3838.7684
3838.7683
3838.7682
3838.7681
3838.768
3838.768
3838.7679
3838.7678
3838.7677
3838.7676
3838.7675
3838.7674
3838.7673
3838.7672
3838.7672
3838.7671
3838.767
3838.7669
3838.7668
3838.7667
3838.7665
3850.3325
3850.3321
3850.3318
3850.3314
3850.3309
3850.3305
3850.33
3850.3296
3850.329
3850.3285
3850.3279
3850.3274
3850.3268
3850.3263
3850.3259
3850.3255
3850.3253
3850.3251
3850.325
3850.3249
3850.3248
3850.3247
3850.3246
3850.3246
3850.3245
3850.3244
3850.3244
3850.3243
3850.3242
3850.3241
3850.3241
3850.324
3850.3239
3850.3238
3850.3238
3850.3237
3850.3236
3850.3235
3850.3234
3850.3234
3850.3233
3850.3232
3850.3231
3850.3231
3850.323
3850.3229
3850.3229
3850.3228
3850.3227
3850.3225
3861.1201
3861.1198
3861.1194
3861.119
3861.1186
3861.1182
3861.1178
3861.1173
3861.1169
3861.1164
3861.1158
3861.1153
3861.1148
3861.1143
3861.114
3861.1137
3861.1134
3861.1133
3861.1132
3861.1131
3861.113
3861.1129
3861.1129
3861.1128
3861.1128
3861.1127
3861.1126
3861.1126
3861.1125
3861.1124
3861.1124
3861.1123
3861.1122
3861.1122
3861.1121
3861.1121
3861.112
3861.1119
3861.1119
3861.1118
3861.1117
3861.1117
3861.1116
3861.1116
3861.1115
3861.1115
3861.1114
3861.1113
3861.1113
3861.1112
3871.233
3871.2327
3871.2323
3871.232
3871.2316
3871.2312
3871.2308
3871.2304
3871.2299
3871.2295
3871.229
3871.2285
3871.2281
3871.2277
3871.2273
3871.2271
3871.2269
3871.2267
3871.2266
3871.2266
3871.2265
3871.2264
3871.2264
3871.2263
3871.2263
3871.2262
3871.2262
3871.2261
3871.2261
3871.226
3871.226
3871.2259
3871.2259
3871.2258
3871.2258
3871.2257
3871.2257
3871.2256
3871.2256
3871.2255
3871.2255
3871.2255
3871.2254
3871.2254
3871.2253
3871.2253
3871.2253
3871.2252
3871.2252
3871.2251
3880.7483
3880.7479
3880.7476
3880.7473
3880.7469
3880.7466
3880.7462
3880.7458
3880.7454
3880.745
3880.7446
3880.7441
3880.7438
3880.7434
3880.7431
3880.7429
3880.7427
3880.7426
3880.7425
3880.7425
3880.7424
3880.7424
3880.7424
3880.7423
3880.7423
3880.7422
3880.7422
3880.7422
3880.7421
3880.7421
3880.7421
3880.742
3880.742
3880.7419
3880.7419
3880.7419
3880.7418
3880.7418
3880.7418
3880.7418
3880.7417
3880.7417
3880.7417
3880.7417
3880.7416
3880.7416
3880.7416
3880.7416
3880.7416
3880.7415
3889.7307
3889.7304
3889.7301
3889.7298
3889.7294
3889.7291
3889.7288
3889.7284
3889.728
3889.7277
3889.7273
3889.7269
3889.7266
3889.7263
3889.7261
3889.7259
3889.7258
3889.7257
3889.7256
3889.7256
3889.7256
3889.7255
3889.7255
3889.7255
3889.7255
3889.7254
3889.7254
3889.7254
3889.7254
3889.7253
3889.7253
3889.7253
3889.7253
3889.7253
3889.7252
3889.7252
3889.7252
3889.7252
3889.7252
3889.7252
3889.7252
3889.7252
3889.7252
3889.7252
3889.7252
3889.7252
3889.7252
3889.7252
3889.7252
3889.7252
3898.2351
3898.2348
3898.2345
3898.2343
3898.234
3898.2337
3898.2333
3898.233
3898.2327
3898.2324
3898.2321
3898.2318
3898.2315
3898.2313
3898.2311
3898.231
3898.2309
3898.2308
3898.2308
3898.2308
3898.2308
3898.2307
3898.2307
3898.2307
3898.2307
3898.2307
3898.2307
3898.2307
3898.2307
3898.2307
3898.2307
3898.2307
3898.2307
3898.2307
3898.2307
3898.2307
3898.2307
3898.2307
3898.2307
3898.2307
3898.2307
3898.2307
3898.2307
3898.2308
3898.2308
3898.2308
3898.2308
3898.2309
3898.2309
3898.231
3906.3084
3906.3081
3906.3079
3906.3076
3906.3073
3906.307
3906.3068
3906.3065
3906.3062
3906.306
3906.3057
3906.3055
3906.3053
3906.3051
3906.305
3906.305
3906.3049
3906.3049
3906.3049
3906.3048
3906.3048
3906.3048
3906.3048
3906.3048
3906.3049
3906.3049
3906.3049
3906.3049
3906.3049
3906.3049
3906.3049
3906.3049
3906.3049
3906.305
3906.305
3906.305
3906.305
3906.3051
3906.3051
3906.3051
3906.3052
3906.3052
3906.3052
3906.3053
3906.3053
3906.3054
3906.3054
3906.3055
3906.3055
3906.3057
3913.9908
3913.9906
3913.9903
3913.9901
3913.9898
3913.9896
3913.9894
3913.9891
3913.9889
3913.9887
3913.9885
3913.9884
3913.9883
3913.9882
3913.9881
3913.9881
3913.9881
3913.9881
3913.9881
3913.9881
3913.9882
3913.9882
3913.9882
3913.9882
3913.9882
3913.9883
3913.9883
3913.9883
3913.9883
3913.9884
3913.9884
3913.9884
3913.9885
3913.9885
3913.9886
3913.9886
3913.9887
3913.9887
3913.9888
3913.9888
3913.9889
3913.9889
3913.989
3913.9891
3913.9891
3913.9892
3913.9893
3913.9894
3913.9894
3913.9897
3921.3173
3921.3171
3921.3169
3921.3167
3921.3165
3921.3163
3921.3161
3921.3159
3921.3157
3921.3156
3921.3155
3921.3154
3921.3154
3921.3154
3921.3154
3921.3154
3921.3155
3921.3155
3921.3156
3921.3156
3921.3156
3921.3157
3921.3157
3921.3157
3921.3158
3921.3158
3921.3158
3921.3159
3921.3159
3921.316
3921.3161
3921.3161
3921.3162
3921.3162
3921.3163
3921.3164
3921.3164
3921.3165
3921.3166
3921.3167
3921.3168
3921.3169
3921.317
3921.3171
3921.3172
3921.3173
3921.3173
3921.3175
3921.3175
3921.3179
3928.3184
3928.3182
3928.318
3928.3178
3928.3177
3928.3175
3928.3173
3928.3172
3928.3171
3928.317
3928.317
3928.317
3928.3171
3928.3172
3928.3173
3928.3174
3928.3175
3928.3175
3928.3176
3928.3177
3928.3177
3928.3178
3928.3178
3928.3179
3928.3179
3928.318
3928.3181
3928.3181
3928.3182
3928.3183
3928.3183
3928.3184
3928.3185
3928.3186
3928.3187
3928.3188
3928.3189
3928.319
3928.3191
3928.3192
3928.3193
3928.3194
3928.3196
3928.3197
3928.3198
3928.32
3928.3201
3928.3202
3928.3203
3928.3208
3935.0207
3935.0206
3935.0204
3935.0203
3935.0201
3935.02
3935.0199
3935.0198
3935.0198
3935.0198
3935.0198
3935.0199
3935.0201
3935.0203
3935.0205
3935.0206
3935.0208
3935.0209
3935.021
3935.0211
3935.0212
3935.0212
3935.0213
3935.0214
3935.0215
3935.0215
3935.0216
3935.0217
3935.0218
3935.0219
3935.022
3935.0221
3935.0222
3935.0223
3935.0225
3935.0226
3935.0227
3935.0228
3935.023
3935.0231
3935.0233
3935.0234
3935.0236
3935.0237
3935.0239
3935.024
3935.0242
3935.0244
3935.0245
3935.0251
3941.4479
3941.4478
3941.4477
3941.4476
3941.4475
3941.4474
3941.4473
3941.4473
3941.4473
3941.4474
3941.4475
3941.4477
3941.448
3941.4483
3941.4486
3941.4488
3941.449
3941.4492
3941.4493
3941.4494
3941.4495
3941.4496
3941.4497
3941.4498
3941.4499
3941.45
3941.4501
3941.4502
3941.4504
3941.4505
3941.4506
3941.4508
3941.4509
3941.451
3941.4512
3941.4513
3941.4515
3941.4517
3941.4518
3941.452
3941.4522
3941.4523
3941.4525
3941.4527
3941.4529
3941.4531
3941.4533
3941.4536
3941.4537
3941.4544
3947.6209
3947.6208
3947.6207
3947.6206
3947.6206
3947.6206
3947.6206
3947.6206
3947.6207
3947.6208
3947.6211
3947.6214
3947.6218
3947.6222
3947.6225
3947.6229
3947.6231
3947.6233
3947.6235
3947.6236
3947.6238
3947.6239
3947.624
3947.6241
3947.6242
3947.6244
3947.6245
3947.6246
3947.6248
3947.6249
3947.6251
3947.6252
3947.6254
3947.6256
3947.6258
3947.6259
3947.6261
3947.6263
3947.6265
3947.6267
3947.6269
3947.6272
3947.6274
3947.6276
3947.6278
3947.6281
3947.6283
3947.6286
3947.6287
3947.6295
3953.5583
3953.5582
3953.5581
3953.5581
3953.5581
3953.5581
3953.5582
3953.5583
3953.5584
3953.5587
3953.559
3953.5594
3953.5599
3953.5605
3953.5609
3953.5613
3953.5617
3953.5619
3953.5621
3953.5623
3953.5624
3953.5626
3953.5627
3953.5629
3953.563
3953.5632
3953.5633
3953.5635
3953.5637
3953.5638
3953.564
3953.5642
3953.5644
3953.5646
3953.5648
3953.565
3953.5653
3953.5655
3953.5657
3953.566
3953.5662
3953.5665
3953.5667
3953.567
3953.5673
3953.5675
3953.5678
3953.5681
3953.5683
3953.5692
3959.2767
3959.2766
3959.2766
3959.2766
3959.2767
3959.2767
3959.2769
3959.277
3959.2772
3959.2776
3959.278
3959.2786
3959.2792
3959.2798
3959.2804
3959.2809
3959.2813
3959.2816
3959.2819
3959.2821
3959.2822
3959.2824
3959.2826
3959.2827
3959.2829
3959.2831
3959.2833
3959.2835
3959.2837
3959.2839
3959.2841
3959.2843
3959.2846
3959.2848
3959.285
3959.2853
3959.2855
3959.2858
3959.2861
3959.2863
3959.2866
3959.2869
3959.2872
3959.2875
3959.2878
3959.2881
3959.2884
3959.2888
3959.289
3959.2901
3964.791
3964.7911
3964.7911
3964.7911
3964.7912
3964.7914
3964.7915
3964.7918
3964.7921
3964.7925
3964.7931
3964.7938
3964.7945
3964.7953
3964.796
3964.7966
3964.797
3964.7974
3964.7977
3964.7979
3964.7981
3964.7983
3964.7985
3964.7987
3964.7989
3964.7991
3964.7993
3964.7995
3964.7998
3964.8
3964.8003
3964.8005
3964.8008
3964.8011
3964.8013
3964.8016
3964.8019
3964.8022
3964.8025
3964.8028
3964.8032
3964.8035
3964.8038
3964.8042
3964.8045
3964.8049
3964.8052
3964.8057
3964.8059
3964.8071
3970.1149
3970.115
3970.115
3970.1151
3970.1153
3970.1155
3970.1157
3970.116
3970.1164
3970.117
3970.1176
3970.1185
3970.1194
3970.1203
3970.1211
3970.1218
3970.1223
3970.1227
3970.123
3970.1233
3970.1236
3970.1238
3970.124
3970.1242
3970.1245
3970.1247
3970.1249
3970.1252
3970.1255
3970.1257
3970.126
3970.1263
3970.1266
3970.1269
3970.1272
3970.1275
3970.1279
3970.1282
3970.1286
3970.1289
3970.1293
3970.1297
3970.13
3970.1304
3970.1308
3970.1312
3970.1316
3970.1321
3970.1323
3970.1337
3975.2605
3975.2606
3975.2607
3975.2608
3975.261
3975.2613
3975.2616
3975.262
3975.2625
3975.2631
3975.2639
3975.2649
3975.2659
3975.267
3975.2679
3975.2687
3975.2693
3975.2698
3975.2702
3975.2705
3975.2708
3975.271
3975.2713
3975.2715
3975.2718
3975.272
3975.2723
3975.2726
3975.2729
3975.2732
3975.2735
3975.2739
3975.2742
3975.2745
3975.2749
3975.2753
3975.2756
3975.276
3975.2764
3975.2768
3975.2772
3975.2776
3975.2781
3975.2785
3975.2789
3975.2794
3975.2798
3975.2804
3975.2806
3975.2821
3980.2388
3980.2389
3980.2391
3980.2393
3980.2396
3980.2399
3980.2403
3980.2408
3980.2413
3980.2421
3980.243
3980.2441
3980.2453
3980.2465
3980.2476
3980.2485
3980.2492
3980.2497
3980.2502
3980.2505
3980.2508
3980.2511
3980.2514
3980.2517
3980.2519
3980.2523
3980.2526
3980.2529
3980.2532
3980.2536
3980.2539
3980.2543
3980.2547
3980.255
3980.2554
3980.2558
3980.2563
3980.2567
3980.2571
3980.2576
3980.258
3980.2585
3980.2589
3980.2594
3980.2599
3980.2604
3980.2609
3980.2615
3980.2618
3980.2634
3985.06
3985.0601
3985.0603
3985.0606
3985.0609
3985.0613
3985.0618
3985.0624
3985.0631
3985.0639
3985.065
3985.0663
3985.0676
3985.069
3985.0702
3985.0712
3985.072
3985.0726
3985.073
3985.0734
3985.0738
3985.0741
3985.0744
3985.0747
3985.075
3985.0754
3985.0757
3985.0761
3985.0765
3985.0768
3985.0772
3985.0776
3985.078
3985.0785
3985.0789
3985.0794
3985.0798
3985.0803
3985.0808
3985.0813
3985.0818
3985.0823
3985.0828
3985.0833
3985.0838
3985.0844
3985.0849
3985.0856
3985.0859
3985.0877
3989.7332
3989.7334
3989.7336
3989.734
3989.7343
3989.7348
3989.7354
3989.736
3989.7368
3989.7378
3989.739
3989.7405
3989.742
3989.7435
3989.7449
3989.746
3989.7469
3989.7475
3989.748
3989.7485
3989.7489
3989.7492
3989.7496
3989.7499
3989.7503
3989.7506
3989.751
3989.7514
3989.7518
3989.7522
3989.7527
3989.7531
3989.7536
3989.754
3989.7545
3989.755
3989.7555
3989.756
3989.7566
3989.7571
3989.7577
3989.7582
3989.7588
3989.7594
3989.76
3989.7606
3989.7611
3989.7619
3989.7622
3989.7642
3994.2668
3994.2671
3994.2674
3994.2678
3994.2682
3994.2688
3994.2694
3994.2702
3994.2711
3994.2722
3994.2736
3994.2752
3994.2769
3994.2786
3994.2801
3994.2813
3994.2823
3994.283
3994.2836
3994.2841
3994.2845
3994.2849
3994.2853
3994.2856
3994.286
3994.2864
3994.2869
3994.2873
3994.2877
3994.2882
3994.2887
3994.2892
3994.2897
3994.2902
3994.2907
3994.2913
3994.2918
3994.2924
3994.2929
3994.2935
3994.2941
3994.2947
3994.2954
3994.296
3994.2966
3994.2973
3994.2979
3994.2987
3994.2991
3994.3012
3998.6687
3998.669
3998.6694
3998.6698
3998.6703
3998.671
3998.6717
3998.6725
3998.6736
3998.6748
3998.6764
3998.6781
3998.68
3998.6819
3998.6835
3998.6849
3998.686
3998.6868
3998.6874
3998.6879
3998.6884
3998.6888
3998.6892
3998.6897
3998.6901
3998.6905
3998.691
3998.6915
3998.692
3998.6925
3998.693
3998.6935
3998.6941
3998.6946
3998.6952
3998.6958
3998.6964
3998.697
3998.6976
3998.6983
3998.6989
3998.6996
3998.7003
3998.701
3998.7016
3998.7024
3998.703
3998.7039
3998.7043
3998.7066
4002.9458
4002.9462
4002.9466
4002.9471
4002.9477
4002.9484
4002.9493
4002.9502
4002.9514
4002.9528
4002.9545
4002.9564
4002.9585
4002.9606
4002.9624
4002.9639
4002.9651
4002.966
4002.9666
4002.9672
4002.9677
4002.9682
4002.9686
4002.9691
4002.9696
4002.97
4002.9705
4002.971
4002.9716
4002.9721
4002.9727
4002.9733
4002.9739
4002.9745
4002.9751
4002.9757
4002.9764
4002.977
4002.9777
4002.9784
4002.9791
4002.9798
4002.9806
4002.9813
4002.9821
4002.9828
4002.9836
4002.9845
4002.985
4002.9874
4007.1049
4007.1053
4007.1058
4007.1064
4007.107
4007.1078
4007.1088
4007.1098
4007.1111
4007.1127
4007.1145
4007.1167
4007.1189
4007.1212
4007.1232
4007.1248
4007.1261
4007.1271
4007.1278
4007.1284
4007.129
4007.1295
4007.13
4007.1305
4007.131
4007.1315
4007.132
4007.1326
4007.1332
4007.1338
4007.1344
4007.135
4007.1356
4007.1363
4007.137
4007.1376
4007.1384
4007.1391
4007.1398
4007.1405
4007.1413
4007.1421
4007.1429
4007.1437
4007.1445
4007.1453
4007.1461
4007.1471
4007.1476
4007.1503
4011.1518
4011.1523
4011.1529
4011.1535
4011.1543
4011.1552
4011.1562
4011.1574
4011.1588
4011.1605
4011.1625
4011.1649
4011.1673
4011.1698
4011.1719
4011.1737
4011.1751
4011.1762
4011.177
4011.1776
4011.1782
4011.1788
4011.1793
4011.1798
4011.1804
4011.1809
4011.1815
4011.1821
4011.1828
4011.1834
4011.1841
4011.1847
4011.1854
4011.1861
4011.1869
4011.1876
4011.1884
4011.1891
4011.1899
4011.1907
4011.1915
4011.1924
4011.1932
4011.1941
4011.195
4011.1959
4011.1967
4011.1978
4011.1983
4011.2012
4015.0923
4015.0928
4015.0935
4015.0942
4015.095
4015.096
4015.0972
4015.0985
4015.1
4015.1019
4015.1041
4015.1066
4015.1093
4015.112
4015.1143
4015.1162
4015.1177
4015.1189
4015.1197
4015.1205
4015.1211
4015.1217
4015.1223
4015.1228
4015.1234
4015.124
4015.1247
4015.1253
4015.126
4015.1267
4015.1274
4015.1281
4015.1288
4015.1296
4015.1304
4015.1312
4015.132
4015.1328
4015.1337
4015.1345
4015.1354
4015.1363
4015.1372
4015.1381
4015.1391
4015.14
4015.1409
4015.1421
4015.1427
4015.1457
4018.9315
4018.9321
4018.9328
4018.9336
4018.9346
4018.9356
4018.9369
4018.9383
4018.94
4018.942
4018.9445
4018.9472
4018.9501
4018.953
4018.9555
4018.9576
4018.9592
4018.9604
4018.9613
4018.9621
4018.9628
4018.9634
4018.964
4018.9647
4018.9653
4018.966
4018.9666
4018.9673
4018.968
4018.9688
4018.9695
4018.9703
4018.9711
4018.9719
4018.9728
4018.9736
4018.9745
4018.9754
4018.9763
4018.9772
4018.9781
4018.9791
4018.9801
4018.9811
4018.982
4018.9831
4018.984
4018.9853
4018.9859
4018.9891
4022.6743
4022.675
4022.6758
4022.6767
4022.6777
4022.6789
4022.6802
4022.6818
4022.6836
4022.6858
4022.6884
4022.6914
4022.6945
4022.6976
4022.7003
4022.7025
4022.7043
4022.7056
4022.7066
4022.7074
4022.7081
4022.7088
4022.7095
4022.7102
4022.7108
4022.7115
4022.7122
4022.713
4022.7138
4022.7145
4022.7154
4022.7162
4022.717
4022.7179
4022.7188
4022.7197
4022.7206
4022.7216
4022.7225
4022.7235
4022.7245
4022.7256
4022.7266
4022.7277
4022.7287
4022.7298
4022.7308
4022.7322
4022.7328
4022.7363
4026.3252
4026.3259
4026.3268
4026.3278
4026.3289
4026.3302
4026.3316
4026.3333
4026.3353
4026.3377
4026.3405
4026.3437
4026.3471
4026.3504
4026.3533
4026.3557
4026.3575
4026.3589
4026.36
4026.3609
4026.3617
4026.3624
4026.3631
4026.3638
4026.3645
4026.3653
4026.366
4026.3668
4026.3676
4026.3685
4026.3694
4026.3702
4026.3711
4026.3721
4026.373
4026.374
4026.375
4026.376
4026.377
4026.3781
4026.3791
4026.3802
4026.3813
4026.3824
4026.3836
4026.3847
4026.3858
4026.3872
4026.388
4026.3916
4029.8884
4029.8892
4029.8901
4029.8912
4029.8924
4029.8938
4029.8954
4029.8972
4029.8993
4029.9019
4029.9049
4029.9083
4029.9119
4029.9155
4029.9186
4029.9211
4029.9231
4029.9246
4029.9258
4029.9267
4029.9275
4029.9283
4029.929
4029.9298
4029.9306
4029.9314
4029.9322
4029.933
4029.9339
4029.9348
4029.9357
4029.9367
4029.9376
4029.9386
4029.9396
4029.9406
4029.9417
4029.9428
4029.9438
4029.945
4029.9461
4029.9472
4029.9484
4029.9496
4029.9508
4029.952
4029.9532
4029.9547
4029.9555
4029.9593
4033.3677
4033.3686
4033.3696
4033.3707
4033.3721
4033.3736
4033.3753
4033.3773
4033.3796
4033.3823
4033.3855
4033.3892
4033.3931
4033.3968
4033.4001
4033.4029
4033.405
4033.4066
4033.4078
4033.4088
4033.4097
4033.4105
4033.4113
4033.4121
4033.4129
4033.4138
4033.4146
4033.4155
4033.4164
4033.4174
4033.4184
4033.4194
4033.4204
4033.4214
4033.4225
4033.4236
4033.4247
4033.4258
4033.427
4033.4282
4033.4294
4033.4306
4033.4318
4033.4331
4033.4344
4033.4357
4033.4369
4033.4385
4033.4393
4033.4433
4036.7669
4036.7679
4036.769
4036.7702
4036.7716
4036.7732
4036.7751
4036.7772
4036.7797
4036.7826
4036.7861
4036.79
4036.7941
4036.7981
4036.8016
4036.8045
4036.8068
4036.8085
4036.8098
4036.8108
4036.8117
4036.8126
4036.8135
4036.8143
4036.8152
4036.8161
4036.817
4036.8179
4036.8189
4036.8199
4036.821
4036.822
4036.8231
4036.8242
4036.8253
4036.8265
4036.8277
4036.8289
4036.8301
4036.8313
4036.8326
4036.8339
4036.8352
4036.8366
4036.8379
4036.8393
4036.8406
4036.8422
4036.8431
4036.8474
4040.0894
4040.0905
4040.0916
4040.093
4040.0945
4040.0962
4040.0982
4040.1005
4040.1032
4040.1063
4040.1099
4040.1141
4040.1185
4040.1227
4040.1265
4040.1295
4040.1319
4040.1337
4040.1351
4040.1362
4040.1372
4040.1381
4040.139
4040.1399
4040.1408
4040.1418
4040.1428
4040.1438
4040.1448
4040.1459
4040.1469
4040.1481
4040.1492
4040.1504
4040.1516
4040.1528
4040.154
4040.1553
4040.1566
4040.1579
4040.1592
4040.1606
4040.162
4040.1634
4040.1648
4040.1663
4040.1676
4040.1694
4040.1703
4040.1748
4043.3384
4043.3396
4043.3408
4043.3423
4043.3439
4043.3458
4043.3479
4043.3503
4043.3531
4043.3565
4043.3604
4043.3648
4043.3694
4043.3739
4043.3779
4043.3811
4043.3837
4043.3856
4043.387
4043.3882
4043.3892
4043.3902
4043.3912
4043.3921
4043.3931
4043.3941
4043.3951
4043.3962
4043.3973
4043.3984
4043.3995
4043.4007
4043.4019
4043.4032
4043.4044
4043.4057
4043.407
4043.4083
4043.4097
4043.4111
4043.4125
4043.4139
4043.4154
4043.4169
4043.4184
4043.4199
4043.4213
4043.4232
4043.4242
4043.4289
4046.517
4046.5182
4046.5196
4046.5211
4046.5229
4046.5248
4046.5271
4046.5297
4046.5327
4046.5362
4046.5404
4046.545
4046.55
4046.5547
4046.5589
4046.5624
4046.565
4046.567
4046.5686
4046.5698
4046.5709
4046.5719
4046.5729
4046.574
4046.575
4046.576
4046.5771
4046.5782
4046.5794
4046.5805
4046.5818
4046.583
4046.5843
4046.5856
4046.5869
4046.5882
4046.5896
4046.591
4046.5925
4046.5939
4046.5954
4046.5969
4046.5985
4046.6
4046.6016
4046.6032
4046.6047
4046.6066
4046.6077
4046.6126
4049.628
4049.6292
4049.6307
4049.6323
4049.6342
4049.6363
4049.6387
4049.6415
4049.6447
4049.6484
4049.6528
4049.6577
4049.6629
4049.668
4049.6724
4049.676
4049.6788
4049.681
4049.6826
4049.6839
4049.685
4049.6861
4049.6872
4049.6882
4049.6893
4049.6904
4049.6916
4049.6927
4049.6939
4049.6952
4049.6965
4049.6978
4049.6991
4049.7005
4049.7019
4049.7033
4049.7047
4049.7062
4049.7077
4049.7092
4049.7108
4049.7124
4049.714
4049.7156
4049.7173
4049.7189
4049.7205
4049.7226
4049.7237
4049.7289
4052.674
4052.6754
4052.6769
4052.6787
4052.6806
4052.6829
4052.6855
4052.6884
4052.6917
4052.6957
4052.7003
4052.7055
4052.711
4052.7163
4052.721
4052.7248
4052.7278
4052.73
4052.7317
4052.7331
4052.7343
4052.7355
4052.7366
4052.7377
4052.7388
4052.74
4052.7412
4052.7424
4052.7437
4052.745
4052.7463
4052.7477
4052.7491
4052.7505
4052.752
4052.7535
4052.755
4052.7565
4052.7581
4052.7597
4052.7613
4052.763
4052.7647
4052.7664
4052.7681
4052.7699
4052.7716
4052.7737
4052.7748
4052.7803
4055.6576
4055.6591
4055.6607
4055.6626
4055.6647
4055.6671
4055.6698
4055.6729
4055.6764
4055.6806
4055.6855
4055.691
4055.6968
4055.7023
4055.7073
4055.7113
4055.7144
4055.7167
4055.7185
4055.72
4055.7213
4055.7224
4055.7236
4055.7248
4055.726
4055.7272
4055.7284
4055.7297
4055.7311
4055.7324
4055.7338
4055.7353
4055.7367
4055.7382
4055.7398
4055.7413
4055.7429
4055.7445
4055.7462
4055.7479
4055.7496
4055.7513
4055.7531
4055.7549
4055.7567
4055.7585
4055.7603
4055.7625
4055.7637
4055.7694
4058.5812
4058.5827
4058.5845
4058.5865
4058.5887
4058.5912
4058.5941
4058.5974
4058.6011
4058.6055
4058.6107
4058.6164
4058.6225
4058.6284
4058.6335
4058.6378
4058.641
4058.6435
4058.6454
4058.6469
4058.6482
4058.6495
4058.6507
4058.6519
4058.6532
4058.6544
4058.6558
4058.6571
4058.6585
4058.6599
4058.6614
4058.6629
4058.6644
4058.666
4058.6676
4058.6692
4058.6709
4058.6726
4058.6743
4058.6761
4058.6779
4058.6797
4058.6816
4058.6834
4058.6853
4058.6872
4058.6891
4058.6914
4058.6926
4058.6986
4061.447
4061.4486
4061.4505
4061.4526
4061.4549
4061.4576
4061.4606
4061.4641
4061.4681
4061.4727
4061.4781
4061.4842
4061.4905
4061.4967
4061.5021
4061.5065
4061.51
4061.5125
4061.5145
4061.5161
4061.5175
4061.5188
4061.5201
4061.5214
4061.5227
4061.524
4061.5254
4061.5268
4061.5283
4061.5298
4061.5313
4061.5329
4061.5345
4061.5361
4061.5378
4061.5395
4061.5412
4061.543
4061.5448
4061.5466
4061.5485
4061.5504
4061.5523
4061.5543
4061.5563
4061.5583
4061.5602
4061.5626
4061.5639
4061.5701
4064.2571
4064.2589
4064.2609
4064.2631
4064.2656
4064.2684
4064.2716
4064.2752
4064.2794
4064.2842
4064.2899
4064.2963
4064.303
4064.3094
4064.3151
4064.3197
4064.3233
4064.326
4064.3281
4064.3297
4064.3312
4064.3326
4064.3339
4064.3352
4064.3366
4064.338
4064.3394
4064.3409
4064.3424
4064.344
4064.3456
4064.3472
4064.3489
4064.3506
4064.3524
4064.3542
4064.356
4064.3578
4064.3597
4064.3616
4064.3636
4064.3656
4064.3676
4064.3696
4064.3717
4064.3738