/*--------------------------------*- C++ -*----------------------------------*\
| =========                 |                                                 |
| \\      /  F ield         | OpenFOAM: The Open Source CFD Toolbox           |
|  \\    /   O peration     | Version:  4.0                                   |
|   \\  /    A nd           | Web:      www.OpenFOAM.org                      |
|    \\/     M anipulation  |                                                 |
\*---------------------------------------------------------------------------*/
FoamFile
{
    version     2.0;
    format      ascii;
    class       volScalarField;
    location    "3000/fluid";
    object      ILambda_0_0;
}
// * * * * * * * * * * * * * * * * * * * * * * * * * * * * * * * * * * * * * //

dimensions      [1 0 -3 0 0 0 0];

internalField   nonuniform List<scalar> 
5000
(
375.85705
375.85686
375.85666
375.85645
375.85623
375.85599
375.85574
375.85548
375.8552
375.8549
375.85458
375.85425
375.85392
375.85362
375.85336
375.85316
375.85301
375.8529
375.85282
375.85275
375.8527
375.85265
375.8526
375.85255
375.8525
375.85245
375.8524
375.85235
375.8523
375.85225
375.85219
375.85214
375.85208
375.85203
375.85197
375.85192
375.85186
375.8518
375.85175
375.85169
375.85163
375.85157
375.85151
375.85145
375.8514
375.85134
375.85128
375.85121
375.85117
375.85101
393.90158
393.90141
393.90123
393.90104
393.90084
393.90063
393.90041
393.90017
393.89992
393.89965
393.89936
393.89906
393.89877
393.8985
393.89827
393.89809
393.89795
393.89785
393.89778
393.89772
393.89767
393.89762
393.89758
393.89754
393.89749
393.89745
393.89741
393.89736
393.89731
393.89727
393.89722
393.89717
393.89712
393.89707
393.89702
393.89697
393.89692
393.89687
393.89682
393.89677
393.89671
393.89666
393.89661
393.89656
393.8965
393.89645
393.8964
393.89634
393.8963
393.89616
408.55798
408.55782
408.55767
408.5575
408.55732
408.55713
408.55693
408.55672
408.5565
408.55626
408.556
408.55573
408.55547
408.55523
408.55502
408.55486
408.55474
408.55465
408.55458
408.55453
408.55449
408.55445
408.55441
408.55437
408.55433
408.55429
408.55425
408.55421
408.55417
408.55413
408.55408
408.55404
408.554
408.55395
408.55391
408.55386
408.55382
408.55377
408.55373
408.55368
408.55363
408.55359
408.55354
408.55349
408.55345
408.5534
408.55335
408.5533
408.55327
408.55314
420.2634
420.26327
420.26313
420.26298
420.26282
420.26265
420.26247
420.26228
420.26208
420.26186
420.26163
420.26139
420.26116
420.26094
420.26075
420.26061
420.2605
420.26042
420.26036
420.26031
420.26027
420.26023
420.2602
420.26017
420.26013
420.2601
420.26006
420.26002
420.25999
420.25995
420.25991
420.25987
420.25983
420.25979
420.25975
420.25971
420.25967
420.25963
420.25959
420.25955
420.2595
420.25946
420.25942
420.25938
420.25934
420.2593
420.25925
420.25921
420.25918
420.25906
429.75325
429.75313
429.753
429.75286
429.75272
429.75257
429.75241
429.75224
429.75205
429.75186
429.75165
429.75143
429.75122
429.75102
429.75085
429.75072
429.75062
429.75055
429.75049
429.75045
429.75042
429.75038
429.75035
429.75032
429.75029
429.75026
429.75022
429.75019
429.75016
429.75012
429.75009
429.75005
429.75002
429.74998
429.74995
429.74991
429.74987
429.74983
429.7498
429.74976
429.74972
429.74968
429.74965
429.74961
429.74957
429.74953
429.7495
429.74945
429.74943
429.74932
437.53096
437.53084
437.53073
437.5306
437.53047
437.53033
437.53019
437.53003
437.52986
437.52968
437.52949
437.52929
437.5291
437.52892
437.52876
437.52864
437.52855
437.52849
437.52844
437.5284
437.52837
437.52834
437.52831
437.52828
437.52825
437.52822
437.52819
437.52816
437.52813
437.5281
437.52807
437.52804
437.528
437.52797
437.52794
437.5279
437.52787
437.52784
437.5278
437.52777
437.52773
437.5277
437.52766
437.52763
437.5276
437.52756
437.52753
437.52749
437.52746
437.52737
443.99756
443.99746
443.99735
443.99724
443.99712
443.99699
443.99685
443.99671
443.99655
443.99639
443.99621
443.99603
443.99585
443.99568
443.99554
443.99543
443.99535
443.99528
443.99524
443.9952
443.99517
443.99515
443.99512
443.99509
443.99507
443.99504
443.99501
443.99498
443.99496
443.99493
443.9949
443.99487
443.99484
443.99481
443.99478
443.99475
443.99472
443.99469
443.99465
443.99462
443.99459
443.99456
443.99453
443.9945
443.99446
443.99443
443.9944
443.99436
443.99434
443.99425
449.44641
449.44631
449.44621
449.44611
449.446
449.44588
449.44575
449.44562
449.44547
449.44532
449.44516
449.44499
449.44482
449.44466
449.44453
449.44443
449.44435
449.4443
449.44425
449.44422
449.44419
449.44417
449.44414
449.44412
449.44409
449.44407
449.44404
449.44402
449.44399
449.44396
449.44394
449.44391
449.44388
449.44385
449.44382
449.4438
449.44377
449.44374
449.44371
449.44368
449.44365
449.44362
449.44359
449.44356
449.44353
449.4435
449.44347
449.44344
449.44342
449.44334
454.10569
454.1056
454.1055
454.10541
454.1053
454.10519
454.10507
454.10494
454.10481
454.10467
454.10451
454.10436
454.1042
454.10405
454.10393
454.10383
454.10376
454.10371
454.10367
454.10364
454.10361
454.10359
454.10357
454.10354
454.10352
454.1035
454.10347
454.10345
454.10342
454.1034
454.10337
454.10335
454.10332
454.1033
454.10327
454.10324
454.10322
454.10319
454.10316
454.10313
454.10311
454.10308
454.10305
454.10302
454.103
454.10297
454.10294
454.10291
454.10289
454.10281
458.14316
458.14308
458.14299
458.1429
458.1428
458.14269
458.14258
458.14246
458.14234
458.1422
458.14206
458.14191
458.14176
458.14163
458.14151
458.14142
458.14135
458.1413
458.14127
458.14124
458.14121
458.14119
458.14117
458.14115
458.14113
458.1411
458.14108
458.14106
458.14104
458.14101
458.14099
458.14096
458.14094
458.14092
458.14089
458.14087
458.14084
458.14081
458.14079
458.14076
458.14074
458.14071
458.14069
458.14066
458.14063
458.14061
458.14058
458.14055
458.14053
458.14046
461.68734
461.68726
461.68718
461.68709
461.687
461.6869
461.68679
461.68668
461.68656
461.68643
461.6863
461.68616
461.68602
461.68589
461.68578
461.68569
461.68563
461.68558
461.68555
461.68552
461.6855
461.68548
461.68546
461.68544
461.68542
461.6854
461.68537
461.68535
461.68533
461.68531
461.68529
461.68526
461.68524
461.68522
461.6852
461.68517
461.68515
461.68512
461.6851
461.68508
461.68505
461.68503
461.685
461.68498
461.68495
461.68493
461.68491
461.68488
461.68486
461.68479
464.83393
464.83386
464.83378
464.83369
464.8336
464.83351
464.83341
464.8333
464.83319
464.83307
464.83294
464.83281
464.83267
464.83255
464.83245
464.83237
464.83231
464.83226
464.83223
464.83221
464.83218
464.83216
464.83215
464.83213
464.83211
464.83209
464.83207
464.83205
464.83203
464.83201
464.83199
464.83197
464.83194
464.83192
464.8319
464.83188
464.83186
464.83183
464.83181
464.83179
464.83177
464.83174
464.83172
464.8317
464.83168
464.83165
464.83163
464.8316
464.83159
464.83153
467.65661
467.65654
467.65647
467.65639
467.6563
467.65621
467.65612
467.65601
467.65591
467.65579
467.65567
467.65554
467.65542
467.65531
467.65521
467.65513
467.65508
467.65503
467.655
467.65498
467.65496
467.65494
467.65492
467.6549
467.65489
467.65487
467.65485
467.65483
467.65481
467.65479
467.65477
467.65475
467.65473
467.65471
467.65469
467.65467
467.65465
467.65463
467.65461
467.65459
467.65457
467.65454
467.65452
467.6545
467.65448
467.65446
467.65444
467.65441
467.6544
467.65434
470.21152
470.21145
470.21138
470.21131
470.21122
470.21114
470.21105
470.21095
470.21085
470.21074
470.21063
470.21051
470.21039
470.21028
470.21019
470.21012
470.21006
470.21002
470.21
470.20997
470.20995
470.20994
470.20992
470.2099
470.20989
470.20987
470.20985
470.20983
470.20982
470.2098
470.20978
470.20976
470.20974
470.20972
470.2097
470.20969
470.20967
470.20965
470.20963
470.20961
470.20959
470.20957
470.20955
470.20953
470.20951
470.20949
470.20947
470.20945
470.20944
470.20938
472.54257
472.5425
472.54243
472.54236
472.54228
472.5422
472.54211
472.54202
472.54193
472.54182
472.54171
472.5416
472.54149
472.54139
472.5413
472.54124
472.54119
472.54115
472.54112
472.5411
472.54108
472.54107
472.54105
472.54103
472.54102
472.541
472.54099
472.54097
472.54095
472.54094
472.54092
472.5409
472.54089
472.54087
472.54085
472.54083
472.54082
472.5408
472.54078
472.54076
472.54075
472.54073
472.54071
472.54069
472.54067
472.54066
472.54064
472.54062
472.54061
472.54056
474.68409
474.68403
474.68396
474.68389
474.68382
474.68374
474.68366
474.68357
474.68348
474.68338
474.68328
474.68317
474.68307
474.68297
474.68289
474.68283
474.68278
474.68275
474.68272
474.6827
474.68269
474.68267
474.68266
474.68264
474.68263
474.68261
474.6826
474.68259
474.68257
474.68255
474.68254
474.68252
474.68251
474.68249
474.68248
474.68246
474.68244
474.68243
474.68241
474.6824
474.68238
474.68236
474.68235
474.68233
474.68232
474.6823
474.68229
474.68227
474.68226
474.68221
476.6635
476.66344
476.66338
476.66331
476.66324
476.66317
476.66309
476.66301
476.66292
476.66283
476.66273
476.66263
476.66254
476.66245
476.66238
476.66232
476.66227
476.66224
476.66222
476.6622
476.66219
476.66217
476.66216
476.66215
476.66213
476.66212
476.66211
476.6621
476.66208
476.66207
476.66205
476.66204
476.66203
476.66201
476.662
476.66198
476.66197
476.66196
476.66194
476.66193
476.66191
476.6619
476.66189
476.66187
476.66186
476.66184
476.66183
476.66181
476.6618
476.66177
478.50282
478.50276
478.5027
478.50264
478.50257
478.5025
478.50243
478.50235
478.50227
478.50218
478.50209
478.502
478.50191
478.50183
478.50176
478.50171
478.50167
478.50164
478.50162
478.50161
478.50159
478.50158
478.50157
478.50156
478.50155
478.50153
478.50152
478.50151
478.5015
478.50149
478.50148
478.50146
478.50145
478.50144
478.50143
478.50141
478.5014
478.50139
478.50138
478.50137
478.50135
478.50134
478.50133
478.50132
478.50131
478.5013
478.50128
478.50127
478.50126
478.50124
480.21999
480.21994
480.21988
480.21982
480.21975
480.21969
480.21962
480.21955
480.21947
480.21939
480.21931
480.21922
480.21914
480.21907
480.21901
480.21896
480.21893
480.2189
480.21888
480.21887
480.21886
480.21885
480.21884
480.21883
480.21882
480.21881
480.2188
480.21879
480.21878
480.21877
480.21876
480.21875
480.21874
480.21873
480.21872
480.21871
480.2187
480.21869
480.21868
480.21867
480.21866
480.21865
480.21864
480.21863
480.21862
480.21861
480.2186
480.21859
480.21859
480.21857
481.82977
481.82972
481.82966
481.82961
481.82955
481.82949
481.82942
481.82935
481.82928
481.82921
481.82913
481.82906
481.82899
481.82892
481.82887
481.82883
481.8288
481.82877
481.82876
481.82875
481.82874
481.82873
481.82872
481.82871
481.8287
481.8287
481.82869
481.82868
481.82867
481.82866
481.82866
481.82865
481.82864
481.82863
481.82862
481.82862
481.82861
481.8286
481.82859
481.82859
481.82858
481.82857
481.82857
481.82856
481.82855
481.82855
481.82854
481.82853
481.82853
481.82852
483.34444
483.34439
483.34434
483.34429
483.34423
483.34417
483.34411
483.34405
483.34399
483.34392
483.34385
483.34379
483.34372
483.34367
483.34362
483.34359
483.34356
483.34354
483.34353
483.34352
483.34351
483.34351
483.3435
483.34349
483.34349
483.34348
483.34348
483.34347
483.34346
483.34346
483.34345
483.34345
483.34344
483.34344
483.34343
483.34343
483.34342
483.34342
483.34341
483.34341
483.3434
483.3434
483.34339
483.34339
483.34339
483.34338
483.34338
483.34338
483.34337
483.34337
484.7743
484.77426
484.77421
484.77416
484.77411
484.77406
484.774
484.77394
484.77389
484.77383
484.77377
484.77371
484.77366
484.77361
484.77357
484.77355
484.77353
484.77351
484.7735
484.7735
484.77349
484.77349
484.77348
484.77348
484.77347
484.77347
484.77347
484.77346
484.77346
484.77346
484.77345
484.77345
484.77345
484.77344
484.77344
484.77344
484.77344
484.77343
484.77343
484.77343
484.77343
484.77343
484.77343
484.77343
484.77343
484.77343
484.77343
484.77343
484.77343
484.77344
486.12809
486.12805
486.128
486.12796
486.12791
486.12786
486.12781
486.12776
486.12771
486.12766
486.12761
486.12756
486.12752
486.12749
486.12746
486.12744
486.12742
486.12741
486.12741
486.1274
486.1274
486.1274
486.1274
486.12739
486.12739
486.12739
486.12739
486.12739
486.12739
486.12739
486.12739
486.12739
486.12739
486.12739
486.12739
486.12739
486.12739
486.12739
486.12739
486.12739
486.12739
486.1274
486.1274
486.1274
486.12741
486.12741
486.12741
486.12742
486.12742
486.12744
487.41326
487.41322
487.41318
487.41314
487.41309
487.41305
487.41301
487.41296
487.41292
487.41288
487.41284
487.4128
487.41277
487.41275
487.41273
487.41272
487.41271
487.4127
487.4127
487.4127
487.4127
487.4127
487.4127
487.4127
487.4127
487.4127
487.4127
487.4127
487.41271
487.41271
487.41271
487.41271
487.41272
487.41272
487.41272
487.41273
487.41273
487.41274
487.41274
487.41275
487.41275
487.41276
487.41276
487.41277
487.41278
487.41279
487.41279
487.4128
487.41281
487.41284
488.63622
488.63619
488.63615
488.63611
488.63607
488.63604
488.636
488.63596
488.63592
488.63589
488.63586
488.63584
488.63582
488.63581
488.6358
488.6358
488.6358
488.6358
488.6358
488.6358
488.6358
488.63581
488.63581
488.63581
488.63582
488.63582
488.63582
488.63583
488.63583
488.63584
488.63584
488.63585
488.63586
488.63586
488.63587
488.63588
488.63588
488.63589
488.6359
488.63591
488.63592
488.63593
488.63594
488.63595
488.63596
488.63597
488.63598
488.636
488.63601
488.63605
489.80254
489.80251
489.80247
489.80244
489.80241
489.80238
489.80235
489.80232
489.80229
489.80226
489.80225
489.80224
489.80223
489.80223
489.80224
489.80225
489.80225
489.80226
489.80226
489.80227
489.80227
489.80228
489.80229
489.80229
489.8023
489.8023
489.80231
489.80232
489.80233
489.80233
489.80234
489.80235
489.80236
489.80237
489.80238
489.80239
489.80241
489.80242
489.80243
489.80244
489.80246
489.80247
489.80249
489.8025
489.80252
489.80253
489.80255
489.80257
489.80258
489.80264
490.91706
490.91703
490.917
490.91698
490.91695
490.91692
490.9169
490.91688
490.91686
490.91685
490.91684
490.91684
490.91685
490.91687
490.91689
490.9169
490.91692
490.91693
490.91694
490.91695
490.91696
490.91697
490.91698
490.91698
490.91699
490.917
490.91701
490.91702
490.91704
490.91705
490.91706
490.91707
490.91709
490.9171
490.91712
490.91713
490.91715
490.91716
490.91718
490.9172
490.91722
490.91723
490.91725
490.91727
490.91729
490.91732
490.91734
490.91736
490.91737
490.91745
491.98404
491.98402
491.98399
491.98397
491.98395
491.98393
491.98391
491.9839
491.98389
491.98389
491.9839
491.98392
491.98394
491.98397
491.984
491.98403
491.98405
491.98407
491.98409
491.9841
491.98411
491.98412
491.98414
491.98415
491.98416
491.98417
491.98419
491.9842
491.98422
491.98423
491.98425
491.98427
491.98428
491.9843
491.98432
491.98434
491.98436
491.98438
491.9844
491.98442
491.98445
491.98447
491.9845
491.98452
491.98455
491.98457
491.9846
491.98463
491.98465
491.98474
493.00723
493.00721
493.00719
493.00718
493.00716
493.00715
493.00714
493.00713
493.00714
493.00715
493.00717
493.0072
493.00725
493.00729
493.00734
493.00738
493.00741
493.00744
493.00746
493.00747
493.00749
493.0075
493.00752
493.00753
493.00755
493.00757
493.00758
493.0076
493.00762
493.00764
493.00766
493.00768
493.0077
493.00773
493.00775
493.00778
493.0078
493.00783
493.00785
493.00788
493.00791
493.00794
493.00797
493.008
493.00803
493.00806
493.00809
493.00813
493.00815
493.00826
493.98996
493.98994
493.98993
493.98992
493.98991
493.98991
493.98991
493.98991
493.98992
493.98995
493.98998
493.99004
493.9901
493.99016
493.99022
493.99027
493.99031
493.99035
493.99037
493.99039
493.99041
493.99043
493.99045
493.99047
493.99049
493.99051
493.99053
493.99055
493.99058
493.9906
493.99063
493.99065
493.99068
493.99071
493.99073
493.99076
493.99079
493.99082
493.99086
493.99089
493.99092
493.99096
493.99099
493.99103
493.99106
493.9911
493.99114
493.99118
493.99121
493.99133
494.93519
494.93518
494.93517
494.93516
494.93516
494.93517
494.93517
494.93519
494.93521
494.93525
494.93531
494.93537
494.93545
494.93554
494.93561
494.93568
494.93573
494.93577
494.9358
494.93583
494.93585
494.93587
494.9359
494.93592
494.93594
494.93597
494.93599
494.93602
494.93605
494.93608
494.93611
494.93614
494.93617
494.9362
494.93623
494.93627
494.9363
494.93634
494.93638
494.93641
494.93645
494.93649
494.93653
494.93658
494.93662
494.93666
494.9367
494.93676
494.93678
494.93693
495.84557
495.84556
495.84556
495.84556
495.84557
495.84558
495.8456
495.84562
495.84566
495.84571
495.84578
495.84587
495.84597
495.84607
495.84617
495.84624
495.84631
495.84636
495.84639
495.84643
495.84645
495.84648
495.84651
495.84653
495.84656
495.84659
495.84662
495.84665
495.84668
495.84672
495.84675
495.84679
495.84682
495.84686
495.8469
495.84694
495.84698
495.84702
495.84706
495.84711
495.84715
495.8472
495.84725
495.8473
495.84734
495.84739
495.84744
495.8475
495.84753
495.8477
496.72348
496.72348
496.72348
496.72349
496.72351
496.72353
496.72355
496.72359
496.72364
496.72371
496.7238
496.72391
496.72403
496.72415
496.72426
496.72435
496.72443
496.72449
496.72453
496.72457
496.7246
496.72463
496.72466
496.72469
496.72473
496.72476
496.72479
496.72483
496.72487
496.7249
496.72494
496.72498
496.72503
496.72507
496.72511
496.72516
496.72521
496.72525
496.7253
496.72535
496.7254
496.72546
496.72551
496.72557
496.72562
496.72568
496.72573
496.7258
496.72584
496.72602
497.57107
497.57107
497.57108
497.5711
497.57112
497.57115
497.57119
497.57124
497.57131
497.57139
497.5715
497.57163
497.57177
497.57191
497.57205
497.57215
497.57224
497.57231
497.57236
497.5724
497.57244
497.57247
497.57251
497.57255
497.57258
497.57262
497.57266
497.5727
497.57274
497.57279
497.57283
497.57288
497.57292
497.57297
497.57302
497.57307
497.57313
497.57318
497.57324
497.57329
497.57335
497.57341
497.57347
497.57353
497.5736
497.57366
497.57372
497.5738
497.57384
497.57405
498.39027
498.39029
498.39031
498.39033
498.39036
498.3904
498.39045
498.39052
498.3906
498.3907
498.39082
498.39098
498.39114
498.39131
498.39146
498.39158
498.39168
498.39176
498.39182
498.39187
498.39191
498.39195
498.39199
498.39203
498.39207
498.39211
498.39216
498.3922
498.39225
498.3923
498.39235
498.3924
498.39246
498.39251
498.39257
498.39263
498.39269
498.39275
498.39281
498.39287
498.39294
498.393
498.39307
498.39314
498.39321
498.39328
498.39335
498.39344
498.39348
498.39371
499.18287
499.18289
499.18291
499.18295
499.18299
499.18304
499.1831
499.18318
499.18327
499.18339
499.18354
499.18371
499.1839
499.18409
499.18427
499.18441
499.18452
499.18461
499.18467
499.18473
499.18477
499.18482
499.18487
499.18491
499.18496
499.18501
499.18506
499.18511
499.18516
499.18521
499.18527
499.18533
499.18539
499.18545
499.18551
499.18558
499.18564
499.18571
499.18578
499.18585
499.18592
499.186
499.18607
499.18615
499.18622
499.1863
499.18638
499.18648
499.18652
499.18678
499.95044
499.95047
499.95051
499.95055
499.9506
499.95066
499.95073
499.95083
499.95094
499.95107
499.95124
499.95144
499.95166
499.95188
499.95207
499.95223
499.95236
499.95245
499.95253
499.95259
499.95264
499.95269
499.95274
499.95279
499.95284
499.9529
499.95295
499.95301
499.95307
499.95313
499.95319
499.95326
499.95332
499.95339
499.95346
499.95353
499.9536
499.95368
499.95375
499.95383
499.95391
499.95399
499.95408
499.95416
499.95425
499.95433
499.95442
499.95452
499.95458
499.95486
500.69447
500.69451
500.69455
500.6946
500.69466
500.69474
500.69482
500.69493
500.69506
500.69522
500.69541
500.69564
500.69588
500.69612
500.69634
500.69652
500.69665
500.69676
500.69684
500.69691
500.69697
500.69703
500.69708
500.69714
500.6972
500.69726
500.69732
500.69738
500.69744
500.69751
500.69758
500.69765
500.69772
500.6978
500.69788
500.69795
500.69803
500.69812
500.6982
500.69828
500.69837
500.69846
500.69855
500.69865
500.69874
500.69883
500.69892
500.69904
500.6991
500.69941
501.4163
501.41634
501.41639
501.41645
501.41652
501.41661
501.41671
501.41683
501.41698
501.41715
501.41737
501.41762
501.4179
501.41816
501.4184
501.4186
501.41876
501.41888
501.41897
501.41904
501.41911
501.41917
501.41923
501.41929
501.41936
501.41942
501.41949
501.41956
501.41963
501.4197
501.41978
501.41985
501.41993
501.42002
501.4201
501.42018
501.42027
501.42036
501.42045
501.42055
501.42064
501.42074
501.42084
501.42094
501.42104
501.42115
501.42124
501.42137
501.42144
501.42177
502.11714
502.11719
502.11725
502.11732
502.1174
502.1175
502.11762
502.11776
502.11792
502.11812
502.11836
502.11864
502.11895
502.11924
502.11951
502.11973
502.1199
502.12002
502.12012
502.12021
502.12028
502.12035
502.12041
502.12048
502.12055
502.12062
502.12069
502.12077
502.12085
502.12093
502.12101
502.12109
502.12118
502.12127
502.12136
502.12146
502.12155
502.12165
502.12175
502.12185
502.12195
502.12206
502.12217
502.12228
502.12239
502.1225
502.12261
502.12275
502.12282
502.12318
502.79814
502.7982
502.79827
502.79835
502.79844
502.79856
502.79869
502.79884
502.79903
502.79925
502.79952
502.79983
502.80016
502.80048
502.80077
502.80101
502.8012
502.80134
502.80145
502.80154
502.80162
502.80169
502.80177
502.80184
502.80191
502.80199
502.80207
502.80215
502.80224
502.80232
502.80241
502.80251
502.8026
502.8027
502.8028
502.8029
502.803
502.80311
502.80321
502.80332
502.80344
502.80355
502.80367
502.80379
502.80391
502.80403
502.80414
502.8043
502.80437
502.80476
503.46034
503.4604
503.46048
503.46058
503.46068
503.46081
503.46096
503.46113
503.46133
503.46158
503.46187
503.46221
503.46258
503.46293
503.46325
503.46351
503.46371
503.46387
503.46399
503.46408
503.46417
503.46425
503.46433
503.46441
503.46449
503.46457
503.46466
503.46475
503.46484
503.46493
503.46503
503.46513
503.46523
503.46534
503.46545
503.46555
503.46567
503.46578
503.4659
503.46602
503.46614
503.46626
503.46639
503.46652
503.46664
503.46678
503.4669
503.46706
503.46715
503.46756
504.1047
504.10477
504.10486
504.10497
504.10509
504.10523
504.10539
504.10558
504.10581
504.10608
504.1064
504.10677
504.10717
504.10755
504.1079
504.10818
504.1084
504.10857
504.1087
504.1088
504.1089
504.10898
504.10907
504.10916
504.10924
504.10933
504.10943
504.10952
504.10962
504.10972
504.10983
504.10993
504.11005
504.11016
504.11027
504.11039
504.11051
504.11063
504.11076
504.11089
504.11102
504.11115
504.11129
504.11142
504.11156
504.11171
504.11184
504.11201
504.1121
504.11255
504.73211
504.7322
504.7323
504.73241
504.73255
504.7327
504.73288
504.73309
504.73334
504.73364
504.73399
504.73439
504.73482
504.73524
504.73562
504.73592
504.73616
504.73634
504.73648
504.73659
504.73669
504.73679
504.73688
504.73697
504.73707
504.73716
504.73726
504.73737
504.73747
504.73758
504.73769
504.73781
504.73793
504.73805
504.73817
504.7383
504.73843
504.73856
504.73869
504.73883
504.73897
504.73911
504.73926
504.73941
504.73956
504.73971
504.73985
504.74004
504.74013
504.74061
505.34341
505.34351
505.34362
505.34375
505.3439
505.34407
505.34426
505.34449
505.34476
505.34509
505.34547
505.34591
505.34637
505.34682
505.34723
505.34756
505.34781
505.34801
505.34816
505.34828
505.34839
505.34849
505.34859
505.34868
505.34879
505.34889
505.349
505.34911
505.34922
505.34934
505.34946
505.34958
505.34971
505.34984
505.34997
505.35011
505.35025
505.35039
505.35053
505.35068
505.35083
505.35098
505.35114
505.35129
505.35145
505.35161
505.35177
505.35197
505.35207
505.35258
505.93936
505.93947
505.93959
505.93973
505.9399
505.94008
505.9403
505.94055
505.94084
505.94119
505.94161
505.94208
505.94258
505.94307
505.9435
505.94385
505.94413
505.94434
505.9445
505.94463
505.94475
505.94485
505.94496
505.94507
505.94517
505.94528
505.9454
505.94552
505.94564
505.94576
505.94589
505.94603
505.94616
505.9463
505.94644
505.94659
505.94673
505.94688
505.94704
505.94719
505.94735
505.94752
505.94768
505.94785
505.94802
505.94819
505.94836
505.94857
505.94868
505.94922
506.52069
506.5208
506.52094
506.52109
506.52127
506.52148
506.52171
506.52198
506.5223
506.52268
506.52312
506.52363
506.52417
506.52469
506.52515
506.52553
506.52583
506.52605
506.52622
506.52636
506.52649
506.5266
506.52672
506.52683
506.52694
506.52706
506.52719
506.52731
506.52744
506.52757
506.52771
506.52785
506.528
506.52815
506.5283
506.52845
506.52861
506.52877
506.52893
506.5291
506.52927
506.52944
506.52962
506.5298
506.52998
506.53016
506.53033
506.53056
506.53067
506.53125
507.08805
507.08818
507.08832
507.08849
507.08869
507.08891
507.08916
507.08945
507.0898
507.0902
507.09068
507.09122
507.0918
507.09236
507.09286
507.09326
507.09358
507.09382
507.094
507.09415
507.09428
507.0944
507.09452
507.09464
507.09477
507.09489
507.09502
507.09516
507.0953
507.09544
507.09558
507.09573
507.09589
507.09604
507.0962
507.09637
507.09653
507.09671
507.09688
507.09706
507.09724
507.09742
507.09761
507.0978
507.09799
507.09818
507.09837
507.09861
507.09873
507.09934
507.64207
507.64221
507.64237
507.64255
507.64276
507.643
507.64328
507.64359
507.64396
507.64439
507.64491
507.64549
507.6461
507.6467
507.64723
507.64767
507.648
507.64825
507.64845
507.64861
507.64875
507.64888
507.64901
507.64913
507.64926
507.6494
507.64954
507.64968
507.64983
507.64998
507.65013
507.65029
507.65045
507.65062
507.65079
507.65096
507.65114
507.65132
507.6515
507.65169
507.65188
507.65208
507.65228
507.65248
507.65268
507.65289
507.65308
507.65333
507.65346
507.65411
508.18334
508.18349
508.18366
508.18386
508.18409
508.18435
508.18464
508.18498
508.18537
508.18584
508.18639
508.18701
508.18766
508.1883
508.18886
508.18932
508.18968
508.18995
508.19016
508.19033
508.19047
508.19061
508.19075
508.19088
508.19102
508.19116
508.19131
508.19146
508.19162
508.19178
508.19194
508.19211
508.19228
508.19246
508.19264
508.19282
508.19301
508.1932
508.19339
508.19359
508.19379
508.194
508.19421
508.19442
508.19463
508.19485
508.19506
508.19533
508.19546
508.19614
508.7124
508.71256
508.71275
508.71296
508.71321
508.71348
508.7138
508.71416
508.71458
508.71508
508.71566
508.71632
508.71702
508.7177
508.71829
508.71878
508.71916
508.71945
508.71967
508.71985
508.72
508.72015
508.72029
508.72044
508.72058
508.72073
508.72089
508.72105
508.72121
508.72138
508.72155
508.72173
508.72191
508.7221
508.72229
508.72248
508.72268
508.72288
508.72309
508.7233
508.72351
508.72373
508.72395
508.72417
508.7244
508.72463
508.72484
508.72513
508.72527
508.72599
509.22976
509.22994
509.23014
509.23037
509.23063
509.23093
509.23127
509.23165
509.2321
509.23263
509.23325
509.23395
509.23469
509.23541
509.23604
509.23656
509.23696
509.23726
509.2375
509.23768
509.23785
509.238
509.23816
509.23831
509.23846
509.23862
509.23878
509.23895
509.23913
509.2393
509.23949
509.23967
509.23987
509.24006
509.24026
509.24047
509.24068
509.24089
509.24111
509.24133
509.24155
509.24178
509.24201
509.24225
509.24248
509.24273
509.24295
509.24325
509.24341
509.24416
509.73591
509.73611
509.73632
509.73657
509.73685
509.73716
509.73752
509.73794
509.73841
509.73897
509.73963
509.74038
509.74116
509.74191
509.74259
509.74313
509.74356
509.74388
509.74412
509.74432
509.74449
509.74466
509.74482
509.74498
509.74514
509.74531
509.74548
509.74566
509.74584
509.74603
509.74622
509.74642
509.74662
509.74683
509.74704
509.74725
509.74747
509.7477
509.74792
509.74816
509.74839
509.74863
509.74888
509.74913
509.74937
509.74963
509.74987
509.75018
509.75034
509.75113
510.2313
510.23151
510.23174
510.232
510.2323
510.23264
510.23302
510.23346
510.23397
510.23456
510.23526
510.23604
510.23687
510.23767
510.23838
510.23896
510.2394
510.23974
510.24
510.24021
510.24039
510.24056
510.24073
510.2409
510.24107
510.24125
510.24143
510.24161
510.24181
510.242
510.24221
510.24241
510.24263
510.24284
510.24307
510.24329
510.24352
510.24376
510.244
510.24424
510.24449
510.24474
510.245
510.24526
510.24552
510.24579
510.24604
510.24637
510.24654
510.24736
510.71636
510.71658
510.71683
510.71711
510.71742
510.71778
510.71819
510.71865
510.71919
510.71982
510.72056
510.72138
510.72226
510.7231
510.72384
510.72445
510.72492
510.72528
510.72555
510.72577
510.72596
510.72614
510.72632
510.7265
510.72668
510.72686
510.72705
510.72725
510.72745
510.72766
510.72787
510.72809
510.72831
510.72854
510.72877
510.72901
510.72925
510.7295
510.72975
510.73
510.73026
510.73053
510.7308
510.73107
510.73135
510.73163
510.73189
510.73223
510.73241
510.73328
511.19148
511.19172
511.19198
511.19228
511.19261
511.19299
511.19342
511.19392
511.19448
511.19515
511.19593
511.1968
511.19772
511.1986
511.19939
511.20003
511.20052
511.2009
511.20118
511.20141
511.20162
511.20181
511.20199
511.20218
511.20237
511.20256
511.20276
511.20297
511.20318
511.20339
511.20362
511.20385
511.20408
511.20432
511.20456
511.20481
511.20506
511.20532
511.20558
511.20585
511.20612
511.2064
511.20668
511.20697
511.20726
511.20755
511.20783
511.20819
511.20837
511.20928
511.65705
511.6573
511.65758
511.65789
511.65825
511.65865
511.65911
511.65963
511.66023
511.66093
511.66175
511.66267
511.66363
511.66457
511.66539
511.66606
511.66658
511.66697
511.66727
511.66751
511.66773
511.66793
511.66812
511.66831
511.66851
511.66872
511.66892
511.66914
511.66936
511.66959
511.66982
511.67006
511.67031
511.67056
511.67081
511.67107
511.67134
511.67161
511.67188
511.67216
511.67245
511.67274
511.67303
511.67333
511.67363
511.67394
511.67422
511.6746
511.67479
511.67574
512.11343
512.11369
512.11399
512.11432
512.11469
512.11512
512.1156
512.11615
512.11678
512.11752
512.11838
512.11935
512.12036
512.12134
512.1222
512.12291
512.12345
512.12386
512.12418
512.12443
512.12465
512.12486
512.12506
512.12527
512.12547
512.12569
512.12591
512.12613
512.12636
512.1266
512.12685
512.1271
512.12735
512.12761
512.12788
512.12815
512.12843
512.12871
512.129
512.12929
512.12959
512.12989
512.1302
512.13051
512.13082
512.13114
512.13144
512.13184
512.13204
512.13302
512.56095
512.56122
512.56154
512.56189
512.56228
512.56273
512.56324
512.56382
512.56448
512.56526
512.56616
512.56718
512.56824
512.56926
512.57017
512.57091
512.57148
512.57191
512.57223
512.5725
512.57273
512.57295
512.57316
512.57338
512.57359
512.57381
512.57404
512.57428
512.57452
512.57477
512.57502
512.57529
512.57555
512.57583
512.5761
512.57639
512.57668
512.57697
512.57727
512.57758
512.57789
512.5782
512.57852
512.57885
512.57917
512.57951
512.57982
512.58023
512.58044