/*--------------------------------*- C++ -*----------------------------------*\
| =========                 |                                                 |
| \\      /  F ield         | OpenFOAM: The Open Source CFD Toolbox           |
|  \\    /   O peration     | Version:  4.0                                   |
|   \\  /    A nd           | Web:      www.OpenFOAM.org                      |
|    \\/     M anipulation  |                                                 |
\*---------------------------------------------------------------------------*/
FoamFile
{
    version     2.0;
    format      ascii;
    class       surfaceScalarField;
    location    "3000/fluid";
    object      phi;
}
// * * * * * * * * * * * * * * * * * * * * * * * * * * * * * * * * * * * * * //

dimensions      [1 0 -1 0 0 0 0];

internalField   nonuniform List<scalar> 
9850
(
7.7093032e-11
1.7446001e-10
3.1530864e-10
5.8747632e-10
7.3038004e-10
1.1263187e-09
1.3310119e-09
1.8174028e-09
2.1155882e-09
2.689671e-09
3.068892e-09
3.7733996e-09
4.1593319e-09
5.098272e-09
5.3373963e-09
6.6907177e-09
6.5361747e-09
8.5705473e-09
7.6746986e-09
1.0747331e-08
8.6645302e-09
1.321727e-08
9.4193366e-09
1.5961574e-08
9.8663167e-09
1.8947596e-08
9.9574176e-09
2.2133881e-08
9.6777367e-09
2.5479425e-08
9.0486687e-09
2.8956667e-08
8.1245054e-09
3.256649e-08
6.9830034e-09
3.635251e-08
5.7122506e-09
4.0412239e-08
4.3971748e-09
4.4903382e-08
3.1086841e-09
5.0045134e-08
1.8970804e-09
5.611553e-08
7.8970926e-10
6.3446777e-08
-2.0826676e-10
7.2419809e-08
-1.1116088e-09
8.3461709e-08
-1.9528088e-09
9.7044414e-08
-2.7797131e-09
1.1369284e-07
-3.6547783e-09
1.3399679e-07
-4.6519029e-09
1.5863539e-07
-5.8592282e-09
1.8840737e-07
-7.3720415e-09
2.2427457e-07
-9.3063593e-09
2.6739728e-07
-1.1777976e-08
3.1920483e-07
-1.4946206e-08
3.8140908e-07
-1.8945532e-08
4.5614247e-07
-2.4008245e-08
5.4588871e-07
-3.0263998e-08
6.5383129e-07
-3.8062056e-08
7.8348851e-07
-4.7455783e-08
9.3968043e-07
-5.8978858e-08
1.1272398e-06
-7.2466472e-08
1.3536457e-06
-8.8722724e-08
1.6251806e-06
-1.0714027e-07
1.9538161e-06
-1.2877687e-07
2.3467513e-06
-1.5231612e-07
2.8240064e-06
-1.782858e-07
3.3904809e-06
-2.0478467e-07
4.0825651e-06
-2.338246e-07
4.8996647e-06
-2.8785315e-07
5.9832466e-06
6.2517338e-06
-7.088879e-11
2.4534884e-10
-3.0431364e-10
8.2090118e-10
-7.3969293e-10
1.561698e-09
-1.4228124e-09
2.5005223e-09
-2.406619e-09
3.6734777e-09
-3.7521183e-09
5.1188989e-09
-5.5291919e-09
6.8753459e-09
-7.8169705e-09
8.9784963e-09
-1.0703013e-08
1.145659e-08
-1.4280157e-08
1.4324474e-08
-1.8639591e-08
1.7576703e-08
-2.385884e-08
2.1180823e-08
-2.9984335e-08
2.5073091e-08
-3.7010327e-08
2.9159874e-08
-4.4858646e-08
3.3327744e-08
-5.3366109e-08
3.746413e-08
-6.228647e-08
4.148685e-08
-7.1310359e-08
4.5376399e-08
-8.0100768e-08
4.9202649e-08
-8.8335627e-08
5.3138241e-08
-9.5746517e-08
5.7456025e-08
-1.0214471e-07
6.2513718e-08
-1.0743096e-07
6.8733028e-08
-1.1159114e-07
7.6579997e-08
-1.1468284e-07
8.6553406e-08
-1.1681826e-07
9.9179834e-08
-1.1814664e-07
1.1502122e-07
-1.188394e-07
1.3468955e-07
-1.1907443e-07
1.5887042e-07
-1.1902807e-07
1.8836101e-07
-1.1886012e-07
2.2410662e-07
-1.1872487e-07
2.6726204e-07
-1.1874956e-07
3.1922953e-07
-1.1909144e-07
3.8175096e-07
-1.1986766e-07
4.5691869e-07
-1.2131777e-07
5.4733882e-07
-1.2357108e-07
6.560846e-07
-1.2706525e-07
7.8698268e-07
-1.3192271e-07
9.4453789e-07
-1.3892071e-07
1.1342378e-06
-1.4812243e-07
1.3628474e-06
-1.6076538e-07
1.6378236e-06
-1.7689072e-07
1.9699414e-06
-1.9815378e-07
2.3680144e-06
-2.2501126e-07
2.8508639e-06
-2.5921548e-07
3.4246851e-06
-3.043261e-07
4.1276757e-06
-3.9311273e-07
4.9884513e-06
-5.50479e-07
6.1406129e-06
5.7012548e-06
-3.0492283e-11
2.7584109e-10
-1.3614536e-10
9.2655421e-10
-3.4370703e-10
1.7692597e-09
-6.8737724e-10
2.8441924e-09
-1.2103996e-09
4.1965001e-09
-1.9668046e-09
5.875304e-09
-3.0231887e-09
7.9317302e-09
-4.4603481e-09
1.0415656e-08
-6.3744221e-09
1.3370664e-08
-8.8769527e-09
1.6827005e-08
-1.209286e-08
2.079261e-08
-1.6154772e-08
2.5242735e-08
-2.1191707e-08
3.0110025e-08
-2.7310211e-08
3.5278378e-08
-3.4567557e-08
4.0585089e-08
-4.2940049e-08
4.5836623e-08
-5.229435e-08
5.0841151e-08
-6.2373246e-08
5.5455296e-08
-7.2806251e-08
5.9635654e-08
-8.3147929e-08
6.3479918e-08
-9.2936114e-08
6.7244209e-08
-1.0175434e-07
7.1331947e-08
-1.0928244e-07
7.626113e-08
-1.1532555e-07
8.2623107e-08
-1.1982051e-07
9.1048357e-08
-1.2282441e-07
1.0218374e-07
-1.2449304e-07
1.1668985e-07
-1.2505423e-07
1.3525074e-07
-1.2478252e-07
1.585987e-07
-1.2397382e-07
1.8755231e-07
-1.229292e-07
2.23062e-07
-1.2193724e-07
2.6627007e-07
-1.2127795e-07
3.1857024e-07
-1.2121295e-07
3.8168596e-07
-1.2201577e-07
4.577215e-07
-1.2395533e-07
5.4927838e-07
-1.2734561e-07
6.5947488e-07
-1.3251404e-07
7.9215109e-07
-1.3984937e-07
9.518732e-07
-1.4980511e-07
1.1441935e-06
-1.6287602e-07
1.3759184e-06
-1.7981022e-07
1.6547578e-06
-2.0126076e-07
1.991392e-06
-2.2882578e-07
2.3955794e-06
-2.6299447e-07
2.8850326e-06
-3.0851398e-07
3.4702045e-06
-3.6977746e-07
4.1889392e-06
-4.9760651e-07
5.1162804e-06
-5.9559504e-07
6.2386014e-06
5.1056598e-06
-2.4650892e-11
3.0049195e-10
-1.0960416e-10
1.0115076e-09
-2.7556773e-10
1.9352233e-09
-5.4906494e-10
3.1176895e-09
-9.639711e-10
4.6114062e-09
-1.5633362e-09
6.4746692e-09
-2.4014954e-09
8.7698895e-09
-3.5463826e-09
1.1560543e-08
-5.0818228e-09
1.4906104e-08
-7.109381e-09
1.8854563e-08
-9.749053e-09
2.3432282e-08
-1.3137663e-08
2.8631345e-08
-1.7423353e-08
3.4395716e-08
-2.2754169e-08
4.0609194e-08
-2.9258837e-08
4.7089757e-08
-3.7019194e-08
5.359698e-08
-4.603704e-08
5.9858996e-08
-5.6203041e-08
6.5621298e-08
-6.7279658e-08
7.0712271e-08
-7.8909605e-08
7.5109865e-08
-9.0654098e-08
7.8988703e-08
-1.0205331e-07
8.2731159e-08
-1.1269226e-07
8.6900081e-08
-1.2225412e-07
9.2184964e-08
-1.3054999e-07
9.9344225e-08
-1.3752322e-07
1.0915697e-07
-1.432343e-07
1.2240092e-07
-1.478338e-07
1.3985024e-07
-1.5153156e-07
1.6229647e-07
-1.5456607e-07
1.9058682e-07
-1.5717981e-07
2.2567574e-07
-1.595984e-07
2.6868866e-07
-1.6202582e-07
3.2099766e-07
-1.6463723e-07
3.8429737e-07
-1.6760813e-07
4.606924e-07
-1.7110729e-07
5.5277753e-07
-1.7537172e-07
6.637393e-07
-1.806649e-07
7.9744428e-07
-1.8740122e-07
9.586095e-07
-1.9607879e-07
1.1528711e-06
-2.0734403e-07
1.3871836e-06
-2.2221438e-07
1.6696281e-06
-2.4138189e-07
2.0105595e-06
-2.6719063e-07
2.4213881e-06
-2.9937881e-07
2.9172207e-06
-3.4482022e-07
3.515646e-06
-4.114602e-07
4.2555791e-06
-5.3391573e-07
5.2387359e-06
-5.3477366e-07
6.2394593e-06
4.5708861e-06
-1.8739399e-11
3.1923136e-10
-8.3499342e-11
1.0762675e-09
-2.104316e-10
2.0621556e-09
-4.204175e-10
3.3276754e-09
-7.4033633e-10
4.9313251e-09
-1.204654e-09
6.9389869e-09
-1.8573478e-09
9.4225833e-09
-2.7541735e-09
1.2457368e-08
-3.9651891e-09
1.611712e-08
-5.577314e-09
2.0466688e-08
-7.6964483e-09
2.5551416e-08
-1.0448295e-08
3.1383192e-08
-1.3976522e-08
3.7923943e-08
-1.8436357e-08
4.5069029e-08
-2.3981359e-08
5.2634759e-08
-3.0741519e-08
6.035714e-08
-3.8792706e-08
6.7910183e-08
-4.8121288e-08
7.494988e-08
-5.8592903e-08
8.1183886e-08
-6.9937954e-08
8.6454916e-08
-8.1764796e-08
9.0815545e-08
-9.3603006e-08
9.4569369e-08
-1.049674e-07
9.8264473e-08
-1.1542533e-07
1.026429e-07
-1.2465056e-07
1.0856945e-07
-1.3245365e-07
1.1696006e-07
-1.3878868e-07
1.2873595e-07
-1.4374084e-07
1.4480241e-07
-1.4750224e-07
1.6605787e-07
-1.5034185e-07
1.9342643e-07
-1.5257449e-07
2.2790838e-07
-1.5453299e-07
2.7064716e-07
-1.5654674e-07
3.2301141e-07
-1.5893067e-07
3.8668129e-07
-1.6198365e-07
4.637454e-07
-1.6600049e-07
5.5679437e-07
-1.7128097e-07
6.6901979e-07
-1.7816605e-07
8.0432933e-07
-1.8701052e-07
9.6745398e-07
-1.9832535e-07
1.1641859e-06
-2.1252571e-07
1.4013839e-06
-2.3060082e-07
1.6877032e-06
-2.5289693e-07
2.0328556e-06
-2.8154345e-07
2.4500346e-06
-3.1654398e-07
2.9522213e-06
-3.6449177e-07
3.5635938e-06
-4.3866818e-07
4.3297555e-06
-5.4325909e-07
5.3433268e-06
-4.7811272e-07
6.1743129e-06
4.0927734e-06
-1.7268452e-11
3.3649983e-10
-7.683032e-11
1.1358294e-09
-1.9328214e-10
2.1786073e-09
-3.8535499e-10
3.5197483e-09
-6.7701591e-10
5.2229862e-09
-1.0988202e-09
7.3607911e-09
-1.6895562e-09
1.0013319e-08
-2.4982084e-09
1.3266021e-08
-3.586208e-09
1.720512e-08
-5.0298593e-09
2.191034e-08
-6.9226651e-09
2.7444222e-08
-9.3769866e-09
3.3837514e-08
-1.2524055e-08
4.1071011e-08
-1.6510821e-08
4.9055796e-08
-2.14916e-08
5.7615538e-08
-2.7612322e-08
6.6477862e-08
-3.498612e-08
7.5283982e-08
-4.3661502e-08
8.3625262e-08
-5.358875e-08
9.1111134e-08
-6.4594898e-08
9.7461065e-08
-7.6379422e-08
1.0260007e-07
-8.8538519e-08
1.0672847e-07
-1.006159e-07
1.1034185e-07
-1.1216726e-07
1.1419426e-07
-1.2282118e-07
1.1922336e-07
-1.3232183e-07
1.2646071e-07
-1.4054819e-07
1.3696231e-07
-1.4751112e-07
1.5176535e-07
-1.5333457e-07
1.7188132e-07
-1.5822778e-07
1.9831965e-07
-1.6245363e-07
2.3213422e-07
-1.6629844e-07
2.7449196e-07
-1.7004538e-07
3.2675836e-07
-1.7396054e-07
3.9059645e-07
-1.7828398e-07
4.6806884e-07
-1.8325022e-07
5.617606e-07
-1.8908996e-07
6.7485952e-07
-1.9609908e-07
8.1133846e-07
-2.0459896e-07
9.7595387e-07
-2.1510074e-07
1.1746877e-06
-2.281052e-07
1.4143884e-06
-2.4452292e-07
1.7041209e-06
-2.6507267e-07
2.0534054e-06
-2.91171e-07
2.4761329e-06
-3.2428068e-07
2.985331e-06
-3.7003062e-07
3.6093437e-06
-4.4264586e-07
4.4023708e-06
-5.1899519e-07
5.4196761e-06
-4.0616623e-07
6.061484e-06
3.6866072e-06
-1.5015017e-11
3.5151483e-10
-6.6853317e-11
1.1876676e-09
-1.6833629e-10
2.2800902e-09
-3.3599006e-10
3.6874021e-09
-5.9103833e-10
5.4780344e-09
-9.6063987e-10
7.7303927e-09
-1.4794047e-09
1.0532084e-08
-2.1912117e-09
1.3977828e-08
-3.1513224e-09
1.816523e-08
-4.4287085e-09
2.3187725e-08
-6.1083984e-09
2.9123912e-08
-8.2934269e-09
3.6022542e-08
-1.1105623e-08
4.3883207e-08
-1.4684038e-08
5.2634211e-08
-1.9179245e-08
6.2110745e-08
-2.4741426e-08
7.2040042e-08
-3.1500458e-08
8.2043014e-08
-3.9537864e-08
9.1662667e-08
-4.8853904e-08
1.0042717e-07
-5.9337732e-08
1.0794489e-07
-7.0751895e-08
1.1401423e-07
-8.274141e-08
1.1871798e-07
-9.487053e-08
1.2247097e-07
-1.0667981e-07
1.2600354e-07
-1.177488e-07
1.3029235e-07
-1.2774858e-07
1.364605e-07
-1.3647509e-07
1.4568882e-07
-1.4386076e-07
1.5915102e-07
-1.4996845e-07
1.7798901e-07
-1.5497283e-07
2.0332402e-07
-1.5913385e-07
2.3629524e-07
-1.6276715e-07
2.7812526e-07
-1.6621388e-07
3.3020509e-07
-1.698167e-07
3.9419927e-07
-1.7390177e-07
4.721539e-07
-1.7877822e-07
5.6663705e-07
-1.8473962e-07
6.8082092e-07
-1.9209073e-07
8.1868958e-07
-2.0115649e-07
9.8501961e-07
-2.1231734e-07
1.1858485e-06
-2.2604495e-07
1.428116e-06
-2.4286516e-07
1.7209412e-06
-2.635714e-07
2.0741116e-06
-2.8883707e-07
2.5013986e-06
-3.2089399e-07
3.0173879e-06
-3.6522965e-07
3.6536794e-06
-4.3180125e-07
4.4689424e-06
-4.8015179e-07
5.4680267e-06
-3.3902828e-07
5.9203604e-06
3.3475789e-06
-1.3933314e-11
3.6544815e-10
-6.2011142e-11
1.2357454e-09
-1.5605483e-10
2.374134e-09
-3.1126343e-10
3.8426107e-09
-5.4712127e-10
5.7138921e-09
-8.8852478e-10
8.0717963e-09
-1.3671674e-09
1.1010727e-08
-2.023214e-09
1.4633874e-08
-2.9072677e-09
1.9049284e-08
-4.082583e-09
2.4363041e-08
-5.6273797e-09
3.0668709e-08
-7.6369312e-09
3.8032093e-08
-1.0224823e-08
4.6471099e-08
-1.3522386e-08
5.5931774e-08
-1.7674794e-08
6.6263154e-08
-2.2831934e-08
7.7197182e-08
-2.9132139e-08
8.8343219e-08
-3.6677947e-08
9.9208476e-08
-4.5505672e-08
1.092549e-07
-5.5554632e-08
1.1799385e-07
-6.6645911e-08
1.2510551e-07
-7.8481299e-08
1.3055337e-07
-9.066855e-08
1.3465823e-07
-1.0276969e-07
1.3810468e-07
-1.143606e-07
1.4188327e-07
-1.2508617e-07
1.4718607e-07
-1.346996e-07
1.5530225e-07
-1.4308087e-07
1.6753229e-07
-1.5023646e-07
1.8514461e-07
-1.562851e-07
2.0937267e-07
-1.6143488e-07
2.4144502e-07
-1.6595547e-07
2.8264586e-07
-1.7014979e-07
3.3439941e-07
-1.7432726e-07
3.9837674e-07
-1.7878684e-07
4.7661349e-07
-1.8380634e-07
5.7165654e-07
-1.8965713e-07
6.8667172e-07
-1.9660555e-07
8.2563801e-07
-2.0497483e-07
9.9338888e-07
-2.150996e-07
1.1959733e-06
-2.2749083e-07
1.4405072e-06
-2.4258854e-07
1.7360389e-06
-2.6121389e-07
2.092737e-06
-2.8398787e-07
2.5241726e-06
-3.1338454e-07
3.0467845e-06
-3.5502593e-07
3.6953208e-06
-4.124133e-07
4.5263298e-06
-4.3510056e-07
5.4907139e-06
-2.8036637e-07
5.7656263e-06
3.0672125e-06
-1.2640167e-11
3.7808831e-10
-5.6276137e-11
1.2793814e-09
-1.4168506e-10
2.4595428e-09
-2.8275319e-10
3.9836789e-09
-4.9731594e-10
5.9284549e-09
-8.0820861e-10
8.3826889e-09
-1.2445636e-09
1.1447082e-08
-1.8433883e-09
1.5232699e-08
-2.6514335e-09
1.9857329e-08
-3.727326e-09
2.5438933e-08
-5.1438537e-09
3.2085236e-08
-6.9901387e-09
3.9878378e-08
-9.3731977e-09
4.8854158e-08
-1.2418036e-08
5.8976612e-08
-1.6264952e-08
7.0110069e-08
-2.1062293e-08
8.1994522e-08
-2.6952782e-08
9.4233708e-08
-3.405215e-08
1.0630784e-07
-4.2420882e-08
1.1762363e-07
-5.2033443e-08
1.2760641e-07
-6.2753387e-08
1.3582545e-07
-7.4324811e-08
1.421248e-07
-8.6387957e-08
1.4672137e-07
-9.8519001e-08
1.5023572e-07
-1.1028532e-07
1.5364958e-07
-1.2130165e-07
1.5820241e-07
-1.3127505e-07
1.6527565e-07
-1.4003126e-07
1.762885e-07
-1.4752277e-07
1.9263612e-07
-1.5382213e-07
2.1567203e-07
-1.5910515e-07
2.4672804e-07
-1.6362712e-07
2.8716783e-07
-1.6769615e-07
3.3846845e-07
-1.7164402e-07
4.023246e-07
-1.7580394e-07
4.8077342e-07
-1.804894e-07
5.76342e-07
-1.8599916e-07
6.9218148e-07
-1.9260627e-07
8.3224513e-07
-2.0061071e-07
1.0013933e-06
-2.1029751e-07
1.2056601e-06
-2.2206691e-07
1.4522767e-06
-2.3626878e-07
1.7502408e-06
-2.5349843e-07
2.1099666e-06
-2.7447341e-07
2.5451476e-06
-3.0159263e-07
3.0739038e-06
-3.4001648e-07
3.7337447e-06
-3.8703591e-07
4.5733492e-06
-3.8793814e-07
5.4916162e-06
-2.2971097e-07
5.6073992e-06
2.8375015e-06
-1.1834123e-11
3.8992244e-10
-5.2677756e-11
1.3202251e-09
-1.3259177e-10
2.5394569e-09
-2.6452545e-10
4.1156126e-09
-4.6509894e-10
6.1290282e-09
-7.5558076e-10
8.6731708e-09
-1.163099e-09
1.18546e-08
-1.7221204e-09
1.579172e-08
-2.4762184e-09
2.0611427e-08
-3.4801136e-09
2.6442828e-08
-4.8019088e-09
3.3407032e-08
-6.5253031e-09
4.1601773e-08
-8.751364e-09
5.108022e-08
-1.1599126e-08
6.1824374e-08
-1.5203836e-08
7.3714779e-08
-1.9711241e-08
8.6501928e-08
-2.5266062e-08
9.9788529e-08
-3.199316e-08
1.1303494e-07
-3.9971547e-08
1.2560202e-07
-4.9204418e-08
1.3683929e-07
-5.959237e-08
1.4621341e-07
-7.091972e-08
1.5345215e-07
-8.2862626e-08
1.5866428e-07
-9.502145e-08
1.6239455e-07
-1.069712e-07
1.6559933e-07
-1.1831683e-07
1.6954803e-07
-1.2874064e-07
1.7569947e-07
-1.3803292e-07
1.8558078e-07
-1.4610425e-07
2.0070745e-07
-1.5298254e-07
2.2255032e-07
-1.5879926e-07
2.5254477e-07
-1.6376873e-07
2.9213729e-07
-1.6816362e-07
3.4286334e-07
-1.722881e-07
4.0644907e-07
-1.7645426e-07
4.849396e-07
-1.8096157e-07
5.8084932e-07
-1.8609308e-07
6.9731298e-07
-1.921129e-07
8.3826497e-07
-1.9929397e-07
1.0085744e-06
-2.0791869e-07
1.2142848e-06
-2.1832358e-07
1.4626815e-06
-2.3087406e-07
1.7627913e-06
-2.4604383e-07
2.1251365e-06
-2.6473291e-07
2.5638367e-06
-2.8926026e-07
3.0984311e-06
-3.2369852e-07
3.768183e-06
-3.6021014e-07
4.6098608e-06
-3.4374445e-07
5.4751505e-06
-1.8795341e-07
5.4516082e-06
2.6495481e-06
-1.09918e-11
4.009142e-10
-4.8936999e-11
1.3581703e-09
-1.2320267e-10
2.6137225e-09
-2.4585702e-10
4.238267e-09
-4.3240461e-10
6.3155759e-09
-7.0270728e-10
8.9434734e-09
-1.0821269e-09
1.223402e-08
-1.6029299e-09
1.6312523e-08
-2.3059721e-09
2.1314469e-08
-3.2426635e-09
2.737952e-08
-4.4771513e-09
3.4641519e-08
-6.0885472e-09
4.3213168e-08
-8.1728413e-09
5.3164513e-08
-1.0843861e-08
6.4495393e-08
-1.4232229e-08
7.7103147e-08
-1.848083e-08
9.0750529e-08
-2.373499e-08
1.0504269e-07
-3.0125741e-08
1.1942569e-07
-3.7745805e-08
1.3322208e-07
-4.6620583e-08
1.4571406e-07
-5.6680214e-08
1.5627304e-07
-6.7741916e-08
1.6451385e-07
-7.9511844e-08
1.7043421e-07
-9.1610633e-08
1.7449334e-07
-1.0361885e-07
1.7760755e-07
-1.1513072e-07
1.810599e-07
-1.2580343e-07
1.8637218e-07
-1.35392e-07
1.9516936e-07
-1.4376679e-07
2.0908224e-07
-1.5091547e-07
2.29699e-07
-1.5693358e-07
2.5856289e-07
-1.6200758e-07
2.972113e-07
-1.6639273e-07
3.4724849e-07
-1.7038787e-07
4.1044422e-07
-1.7430937e-07
4.8886109e-07
-1.7846872e-07
5.8500868e-07
-1.8315686e-07
7.0200114e-07
-1.8864364e-07
8.4375174e-07
-1.9518009e-07
1.0151109e-06
-2.0302669e-07
1.2221314e-06
-2.1244283e-07
1.4720977e-06
-2.237544e-07
1.7741028e-06
-2.3734519e-07
2.1387272e-06
-2.5419978e-07
2.5806913e-06
-2.7651022e-07
3.1207415e-06
-3.0686618e-07
3.798539e-06
-3.3361119e-07
4.6366058e-06
-3.0387132e-07
5.4454107e-06
-1.5396332e-07
5.3017002e-06
2.4955849e-06
-1.0375215e-11
4.1128943e-10
-4.618834e-11
1.3939834e-09
-1.1626939e-10
2.6838035e-09
-2.3199031e-10
4.353988e-09
-4.0795735e-10
6.4915429e-09
-6.6287891e-10
9.1983949e-09
-1.0206465e-09
1.2591787e-08
-1.5116654e-09
1.6803542e-08
-2.1744601e-09
2.1977264e-08
-3.0575642e-09
2.8262624e-08
-4.2216438e-09
3.5805599e-08
-5.7417192e-09
4.4733244e-08
-7.7091738e-09
5.5131968e-08
-1.0232993e-08
6.7019212e-08
-1.3439287e-08
8.0309442e-08
-1.746774e-08
9.4778982e-08
-2.2463237e-08
1.1003819e-07
-2.8560988e-08
1.2552344e-07
-3.5864407e-08
1.405255e-07
-4.4417304e-08
1.5426696e-07
-5.4175468e-08
1.660312e-07
-6.4986176e-08
1.7532456e-07
-7.6584982e-08
1.8203301e-07
-8.8615328e-08
1.8652369e-07
-1.006692e-07
1.8966142e-07
-1.1233871e-07
1.9272941e-07
-1.2326619e-07
1.9729966e-07
-1.3318181e-07
2.0508498e-07
-1.419244e-07
2.1782483e-07
-1.4944657e-07
2.3722117e-07
-1.5580772e-07
2.6492404e-07
-1.6115949e-07
3.0256307e-07
-1.6572586e-07
3.5181486e-07
-1.6978034e-07
4.144987e-07
-1.736206e-07
4.9270136e-07
-1.7754686e-07
5.8893494e-07
-1.8184183e-07
7.0629611e-07
-1.8676953e-07
8.4867944e-07
-1.9256848e-07
1.0209098e-06
-1.9948444e-07
1.2290474e-06
-2.0774816e-07
1.4803614e-06
-2.1766338e-07
1.7840181e-06
-2.2961863e-07
2.1506825e-06
-2.446382e-07
2.5957109e-06
-2.6474559e-07
3.1408489e-06
-2.9091055e-07
3.8247039e-06
-3.0884379e-07
4.6545391e-06
-2.6924675e-07
5.4058137e-06
-1.2692103e-07
5.1593745e-06
2.3686638e-06
-9.7776726e-12
4.2106707e-10
-4.3531943e-11
1.4277377e-09
-1.0959355e-10
2.7498651e-09
-2.1869678e-10
4.4630913e-09
-3.8463509e-10
6.6574812e-09
-6.2508589e-10
9.4388458e-09
-9.6263864e-10
1.292934e-08
-1.4260632e-09
1.7266967e-08
-2.0518497e-09
2.2603051e-08
-2.8860264e-09
2.9096801e-08
-3.9862299e-09
3.6905802e-08
-5.4239056e-09
4.617092e-08
-7.2863803e-09
5.6994443e-08
-9.6783047e-09
6.9411137e-08
-1.2721626e-08
8.3352764e-08
-1.6552821e-08
9.8610177e-08
-2.1315735e-08
1.148011e-07
-2.7148302e-08
1.3135601e-07
-3.4162131e-08
1.4753933e-07
-4.2415922e-08
1.6252075e-07
-5.1886962e-08
1.7550224e-07
-6.2448466e-08
1.8588606e-07
-7.3862105e-08
1.9344665e-07
-8.5792251e-08
1.9845383e-07
-9.7841925e-08
2.0171109e-07
-1.0960189e-07
2.0448938e-07
-1.2070103e-07
2.083988e-07
-1.3084637e-07
2.1523031e-07
-1.3984737e-07
2.2682584e-07
-1.4762454e-07
2.4499834e-07
-1.5420554e-07
2.7150504e-07
-1.597132e-07
3.0807074e-07
-1.64348e-07
3.5644967e-07
-1.68367e-07
4.1851771e-07
-1.7205941e-07
4.9639376e-07
-1.7572354e-07
5.9259908e-07
-1.7964429e-07
7.1021686e-07
-1.840851e-07
8.5312027e-07
-1.892791e-07
1.0261039e-06
-1.9545054e-07
1.2352188e-06
-2.0280806e-07
1.4877189e-06
-2.1161721e-07
1.7928273e-06
-2.2229105e-07
2.1613564e-06
-2.3583157e-07
2.6092515e-06
-2.5401312e-07
3.1590305e-06
-2.7623798e-07
3.8469288e-06
-2.8653799e-07
4.6648391e-06
-2.3984884e-07
5.3591245e-06
-1.0564051e-07
5.0251662e-06
2.2630234e-06
-9.2946474e-12
4.3036172e-10
-4.1380137e-11
1.4598232e-09
-1.0417162e-10
2.8126565e-09
-2.0786576e-10
4.5667856e-09
-3.6556567e-10
6.815181e-09
-5.940636e-10
9.6673438e-09
-9.1482166e-10
1.3250098e-08
-1.3551838e-09
1.7707329e-08
-1.9498503e-09
2.3197717e-08
-2.7426318e-09
2.9889582e-08
-3.7884632e-09
3.7951634e-08
-5.1555764e-09
4.7538033e-08
-6.9276107e-09
5.8766477e-08
-9.2052149e-09
7.1688741e-08
-1.210638e-08
8.625393e-08
-1.5764334e-08
1.0226813e-07
-2.0321414e-08
1.1935818e-07
-2.59172e-08
1.369518e-07
-3.2669688e-08
1.5429182e-07
-4.0649996e-08
1.7050106e-07
-4.9854085e-08
1.8470633e-07
-6.0178575e-08
1.9621055e-07
-7.1409774e-08
2.0467785e-07
-8.3233219e-08
2.1027728e-07
-9.5265166e-08
2.1374304e-07
-1.0709901e-07
2.1632323e-07
-1.183554e-07
2.1965519e-07
-1.2872404e-07
2.2559894e-07
-1.3799059e-07
2.360924e-07
-1.4604795e-07
2.530557e-07
-1.5289455e-07
2.7835164e-07
-1.586242e-07
3.138004e-07
-1.6341046e-07
3.6123592e-07
-1.674872e-07
4.2259447e-07
-1.7112634e-07
5.000329e-07
-1.7461468e-07
5.9608742e-07
-1.7823198e-07
7.1383417e-07
-1.822371e-07
8.5712538e-07
-1.868613e-07
1.0307281e-06
-1.9231531e-07
1.2406728e-06
-1.9880524e-07
1.4942089e-06
-2.0657891e-07
1.8006009e-06
-2.1609504e-07
2.1708725e-06
-2.2831133e-07
2.6214678e-06
-2.4468238e-07
3.1754015e-06
-2.6320525e-07
3.8654517e-06
-2.6694234e-07
4.6685762e-06
-2.152479e-07
5.3074301e-06
-8.907062e-08
4.898989e-06
2.1739528e-06
-8.843752e-12
4.3920551e-10
-3.9374611e-11
1.4903541e-09
-9.9127441e-11
2.8724093e-09
-1.9781171e-10
4.66547e-09
-3.4790705e-10
6.9652764e-09
-5.6541231e-10
9.884849e-09
-8.7078273e-10
1.3555468e-08
-1.2900924e-09
1.8126638e-08
-1.856453e-09
2.3764078e-08
-2.6117069e-09
3.0644836e-08
-3.6083863e-09
3.8948313e-08
-4.9118563e-09
4.8841503e-08
-6.6024435e-09
6.0457064e-08
-8.7771593e-09
7.3863456e-08
-1.1550324e-08
8.9027094e-08
-1.5052002e-08
1.0576981e-07
-1.9422768e-08
1.2372895e-07
-2.4803065e-08
1.4233209e-07
-3.1315826e-08
1.6080458e-07
-3.9042433e-08
1.7822767e-07
-4.7994875e-08
1.9365877e-07
-5.8090457e-08
2.0630614e-07
-6.9137926e-08
2.1572532e-07
-8.0842791e-08
2.2198215e-07
-9.2834566e-08
2.2573481e-07
-1.0471038e-07
2.2819904e-07
-1.1608449e-07
2.310293e-07
-1.2663139e-07
2.3614584e-07
-1.3611532e-07
2.4557634e-07
-1.4440416e-07
2.6134454e-07
-1.5147009e-07
2.8541758e-07
-1.5738139e-07
3.1971171e-07
-1.6228852e-07
3.6614307e-07
-1.6640633e-07
4.2671228e-07
-1.6999331e-07
5.0361989e-07
-1.7332845e-07
5.9942257e-07
-1.7668962e-07
7.1719535e-07
-1.8033427e-07
8.6077004e-07
-1.8449398e-07
1.0348878e-06
-1.8936962e-07
1.2455485e-06
-1.9516588e-07
1.5000051e-06
-2.0211995e-07
1.807555e-06
-2.1072426e-07
2.1794768e-06
-2.2186691e-07
2.6326104e-06
-2.3661948e-07
3.1901542e-06
-2.5177744e-07
3.8806097e-06
-2.4995541e-07
4.6667542e-06
-1.9483387e-07
5.2523086e-06
-7.6259403e-08
4.7804146e-06
2.0976935e-06
-8.4571164e-12
4.4766261e-10
-3.7652586e-11
1.5195496e-09
-9.479042e-11
2.9295472e-09
-1.8915394e-10
4.7598334e-09
-3.3267421e-10
7.1087966e-09
-5.4064893e-10
1.0092824e-08
-8.3264024e-10
1.384746e-08
-1.2335914e-09
1.852759e-08
-1.7751927e-09
2.4305679e-08
-2.4975185e-09
3.1367162e-08
-3.4509362e-09
3.990173e-08
-4.6982104e-09
5.0088778e-08
-6.3166424e-09
6.2075496e-08
-8.399886e-09
7.59467e-08
-1.1058806e-08
9.1686015e-08
-1.442038e-08
1.0913138e-07
-1.8623222e-08
1.2793179e-07
-2.3808041e-08
1.4751691e-07
-3.0101583e-08
1.6709812e-07
-3.7593834e-08
1.8571992e-07
-4.6310746e-08
2.0237569e-07
-5.6188246e-08
2.1618364e-07
-6.7055961e-08
2.2659303e-07
-7.8638824e-08
2.3356501e-07
-9.0580351e-08
2.3767634e-07
-1.0248339e-07
2.4010208e-07
-1.1395869e-07
2.425046e-07
-1.2466906e-07
2.4685621e-07
-1.3436087e-07
2.5526816e-07
-1.428803e-07
2.6986397e-07
-1.5017597e-07
2.9271325e-07
-1.562922e-07
3.2582793e-07
-1.6135655e-07
3.7120742e-07
-1.6556336e-07
4.309191e-07
-1.6915482e-07
5.0721135e-07
-1.7239854e-07
6.026663e-07
-1.7556693e-07
7.2036374e-07
-1.7891499e-07
8.6411812e-07
-1.8267525e-07
1.038648e-06
-1.8704597e-07
1.2499192e-06
-1.9223682e-07
1.505196e-06
-1.9848991e-07
1.8138081e-06
-2.0632261e-07
2.1873095e-06
-2.1654011e-07
2.642828e-06
-2.2979415e-07
3.2034082e-06
-2.4188362e-07
3.8926992e-06
-2.353453e-07
4.6602159e-06
-1.7794005e-07
5.1949034e-06
-6.6375131e-08
4.6688497e-06
2.0313184e-06
-8.1012756e-12
4.557639e-10
-3.6069254e-11
1.5475176e-09
-9.0806424e-11
2.9842844e-09
-1.8120837e-10
4.8502353e-09
-3.1871003e-10
7.2462984e-09
-5.1797554e-10
1.0292089e-08
-7.9776174e-10
1.4127246e-08
-1.1819926e-09
1.8911821e-08
-1.7010787e-09
2.4824765e-08
-2.3935024e-09
3.2059586e-08
-3.3076747e-09
4.0815903e-08
-4.5040069e-09
5.128511e-08
-6.0570456e-09
6.3628535e-08
-8.0573582e-09
7.7947013e-08
-1.0612588e-08
9.4241245e-08
-1.3846746e-08
1.1236554e-07
-1.7896389e-08
1.3198143e-07
-2.2902053e-08
1.5252258e-07
-2.8993401e-08
1.7318947e-07
-3.6267609e-08
1.9299412e-07
-4.4762775e-08
2.1087085e-07
-5.4431477e-08
2.2585234e-07
-6.5122534e-08
2.3728409e-07
-7.6579315e-08
2.4502179e-07
-8.845929e-08
2.4955632e-07
-1.0037191e-07
2.520147e-07
-1.11926e-07
2.540587e-07
-1.227746e-07
2.5770481e-07
-1.3264837e-07
2.6514193e-07
-1.41374e-07
2.785896e-07
-1.4887882e-07
3.0021808e-07
-1.5518562e-07
3.3213474e-07
-1.6040147e-07
3.7642327e-07
-1.6470248e-07
4.3522012e-07
-1.683163e-07
5.1082516e-07
-1.7150062e-07
6.0585062e-07
-1.7452311e-07
7.2338625e-07
-1.7763782e-07
8.6723282e-07
-1.8107876e-07
1.042089e-06
-1.8504564e-07
1.2538861e-06
-1.8975368e-07
1.509904e-06
-1.9545554e-07
1.81951e-06
-2.0267652e-07
2.1945305e-06
-2.1212177e-07
2.6522733e-06
-2.2400482e-07
3.2152912e-06
-2.3331685e-07
3.9020113e-06
-2.2278143e-07
4.6496805e-06
-1.6393083e-07
5.1360528e-06
-5.8747464e-08
4.5636664e-06
1.9725709e-06
-7.7852516e-12
4.6354918e-10
-3.4662182e-11
1.5743945e-09
-8.726371e-11
3.0368859e-09
-1.7413805e-10
4.9371097e-09
-3.062744e-10
7.3784347e-09
-4.9776609e-10
1.0483581e-08
-7.6664323e-10
1.4396123e-08
-1.1359086e-09
1.9281086e-08
-1.6348132e-09
2.5323669e-08
-2.3003926e-09
3.2725165e-08
-3.1792772e-09
4.1694787e-08
-4.3297267e-09
5.2435559e-08
-5.8237559e-09
6.5122564e-08
-7.7490744e-09
7.9872331e-08
-1.0210301e-08
9.6702472e-08
-1.3328586e-08
1.1548383e-07
-1.7238375e-08
1.3589122e-07
-2.2079688e-08
1.5736389e-07
-2.7984391e-08
1.7909417e-07
-3.5055702e-08
2.0006543e-07
-4.3342358e-08
2.1915751e-07
-5.2811947e-08
2.3532193e-07
-6.3331069e-08
2.4780321e-07
-7.4660736e-08
2.5635146e-07
-8.647248e-08
2.6136806e-07
-9.8383348e-08
2.6392557e-07
-1.1000201e-07
2.6567736e-07
-1.2097396e-07
2.6867677e-07
-1.3101654e-07
2.7518452e-07
-1.3993933e-07
2.8751239e-07
-1.4765055e-07
3.079293e-07
-1.5415321e-07
3.3863741e-07
-1.5953505e-07
3.8180512e-07
-1.6395437e-07
4.3963944e-07
-1.6762368e-07
5.1449449e-07
-1.7078968e-07
6.0901662e-07
-1.737137e-07
7.2631029e-07
-1.7664826e-07
8.7016739e-07
-1.7982921e-07
1.04527e-06
-1.8346146e-07
1.2575183e-06
-1.877686e-07
1.5142112e-06
-1.9301894e-07
1.8247603e-06
-1.997329e-07
2.2012445e-06
-2.0850201e-07
2.6610424e-06
-2.1910263e-07
3.2258919e-06
-2.2588305e-07
3.9087917e-06
-2.1194053e-07
4.635738e-06
-1.5224767e-07
5.07636e-06
-5.2831329e-08
4.4642501e-06
1.9197396e-06
-7.4950311e-12
4.7104426e-10
-3.3370471e-11
1.60027e-09
-8.4012771e-11
3.0875282e-09
-1.6765293e-10
5.0207499e-09
-2.9487319e-10
7.5056551e-09
-4.7924753e-10
1.0667955e-08
-7.3814353e-10
1.4655019e-08
-1.0937254e-09
1.9636668e-08
-1.5741876e-09
2.5804131e-08
-2.2152472e-09
3.3366225e-08
-3.0619088e-09
4.2541449e-08
-4.1704608e-09
5.3544111e-08
-5.6105895e-09
6.6562693e-08
-7.4673583e-09
8.17291e-08
-9.8425529e-09
9.9077667e-08
-1.285459e-08
1.1849586e-07
-1.6635782e-08
1.3967241e-07
-2.1325392e-08
1.620535e-07
-2.7056903e-08
1.8482569e-07
-3.3938621e-08
2.0694715e-07
-4.2028603e-08
2.2724749e-07
-5.1307947e-08
2.4460127e-07
-6.165967e-08
2.5815494e-07
-7.2861527e-08
2.6755332e-07
-8.45989e-08
2.7310544e-07
-9.6497007e-08
2.7582368e-07
-1.0816552e-07
2.7734587e-07
-1.1924394e-07
2.7975518e-07
-1.29438e-07
2.8537859e-07
-1.3854196e-07
2.9661635e-07
-1.4644674e-07
3.1583408e-07
-1.5313735e-07
3.4532803e-07
-1.586839e-07
3.8735168e-07
-1.6322837e-07
4.4418391e-07
-1.6696931e-07
5.1823543e-07
-1.7014297e-07
6.1219028e-07
-1.7300458e-07
7.2917191e-07
-1.7580536e-07
8.7296819e-07
-1.7878334e-07
1.048248e-06
-1.8215052e-07
1.2608855e-06
-1.8613953e-07
1.5182002e-06
-1.9103374e-07
1.8296546e-06
-1.9733531e-07
2.2075461e-06
-2.0550773e-07
2.6692148e-06
-2.14904e-07
3.2352882e-06
-2.1937039e-07
3.9132581e-06
-2.0251074e-07
4.6188784e-06
-1.4241452e-07
5.0162638e-06
-4.8199854e-08
4.3700355e-06
1.8715398e-06
-7.2318659e-12
4.7827616e-10
-3.2198891e-11
1.625237e-09
-8.1063039e-11
3.1363924e-09
-1.6176685e-10
5.1014536e-09
-2.8452161e-10
7.6284099e-09
-4.6242674e-10
1.084586e-08
-7.122454e-10
1.4904838e-08
-1.0553749e-09
1.9979798e-08
-1.5190424e-09
2.6267799e-08
-2.1377563e-09
3.3984939e-08
-2.955027e-09
4.335872e-08
-4.0253269e-09
5.4614411e-08
-5.4161901e-09
6.7953556e-08
-7.2102153e-09
8.3523126e-08
-9.506526e-09
1.0137398e-07
-1.2420921e-08
1.2141026e-07
-1.6083585e-08
1.4333508e-07
-2.0632832e-08
1.6660275e-07
-2.6203299e-08
1.9039615e-07
-3.2907567e-08
2.1365142e-07
-4.0811898e-08
2.3515182e-07
-4.9909609e-08
2.5369899e-07
-6.0098913e-08
2.6834424e-07
-7.117348e-08
2.7862789e-07
-8.2832341e-08
2.847643e-07
-9.4709386e-08
2.8770072e-07
-1.0641639e-07
2.8905288e-07
-1.1758835e-07
2.9092715e-07
-1.279211e-07
2.9571134e-07
-1.3719526e-07
3.0589052e-07
-1.4528608e-07
3.2392489e-07
-1.5216209e-07
3.5220405e-07
-1.5787701e-07
3.9306661e-07
-1.6255735e-07
4.4886426e-07
-1.66388e-07
5.2206608e-07
-1.695946e-07
6.153969e-07
-1.7242568e-07
7.3200299e-07
-1.7513074e-07
8.7567325e-07
-1.7795012e-07
1.0510673e-06
-1.8110413e-07
1.2640395e-06
-1.8483532e-07
1.5219314e-06
-1.8944052e-07
1.8342598e-06
-1.9539262e-07
2.2134982e-06
-2.030159e-07
2.6768381e-06
-2.1126343e-07
3.2435357e-06
-2.1359886e-07
3.9155936e-06
-1.9422592e-07
4.5995055e-06
-1.340457e-07
4.9560836e-06
-4.4525979e-08
4.2805158e-06
1.8270138e-06
-6.9893309e-12
4.8526553e-10
-3.1119225e-11
1.6493669e-09
-7.8345493e-11
3.1836187e-09
-1.5634499e-10
5.179453e-09
-2.7498832e-10
7.7470533e-09
-4.4693899e-10
1.1017811e-08
-6.8840465e-10
1.5146303e-08
-1.0200779e-09
2.0311471e-08
-1.4682962e-09
2.6716017e-08
-2.0664558e-09
3.4583099e-08
-2.8566898e-09
4.4148954e-08
-3.8917941e-09
5.5649515e-08
-5.2373062e-09
6.9299068e-08
-6.9735292e-09
8.5259349e-08
-9.1970826e-09
1.0359753e-07
-1.2021266e-08
1.2423444e-07
-1.5574161e-08
1.4688797e-07
-1.999299e-08
1.7102158e-07
-2.5413164e-08
1.9581633e-07
-3.1950866e-08
2.2018912e-07
-3.9679579e-08
2.4288054e-07
-4.8603683e-08
2.6262309e-07
-5.863545e-08
2.7837601e-07
-6.9583626e-08
2.8957606e-07
-8.116059e-08