/*--------------------------------*- C++ -*----------------------------------*\
| =========                 |                                                 |
| \\      /  F ield         | OpenFOAM: The Open Source CFD Toolbox           |
|  \\    /   O peration     | Version:  4.0                                   |
|   \\  /    A nd           | Web:      www.OpenFOAM.org                      |
|    \\/     M anipulation  |                                                 |
\*---------------------------------------------------------------------------*/
FoamFile
{
    version     2.0;
    format      ascii;
    class       volScalarField;
    location    "3000/fluid";
    object      Qin;
}
// * * * * * * * * * * * * * * * * * * * * * * * * * * * * * * * * * * * * * //

dimensions      [1 0 -3 0 0 0 0];

internalField   uniform 0;

boundaryField
{
    Outterwall
    {
        type            calculated;
        value           nonuniform List<scalar> 
100
(
1180.7707
1237.4612
1283.5075
1320.2827
1350.0973
1374.5327
1394.849
1411.9678
1426.606
1439.2907
1450.4255
1460.3113
1469.1794
1477.2063
1484.5299
1491.2581
1497.4771
1503.256
1508.6511
1513.7089
1518.468
1522.9607
1527.2144
1531.2526
1535.0955
1538.7604
1542.2627
1545.6157
1548.8312
1551.9196
1554.8903
1557.7516
1560.5109
1563.1751
1565.7502
1568.2417
1570.6547
1572.9938
1575.2631
1577.4667
1579.608
1581.6902
1583.7165
1585.6897
1587.6122
1589.4867
1591.3152
1593.0999
1594.8428
1596.5457
1598.2102
1599.8381
1601.4309
1602.9898
1604.5164
1606.0118
1607.4773
1608.9139
1610.3228
1611.7049
1613.0611
1614.3925
1615.6998
1616.9839
1618.2456
1619.4855
1620.7044
1621.9029
1623.0818
1624.2415
1625.3827
1626.506
1627.6119
1628.7008
1629.7733
1630.8298
1631.8708
1632.8967
1633.908
1634.905
1635.8881
1636.8577
1637.8141
1638.7577
1639.6889
1640.6081
1641.5156
1642.412
1643.2979
1644.1745
1645.0434
1645.9074
1646.7716
1647.645
1648.5441
1649.4992
1650.5619
1651.8381
1653.3968
1655.7173
)
;
    }
    leftWedge
    {
        type            symmetry;
    }
    rigtWedge
    {
        type            symmetry;
    }
    Outlet
    {
        type            calculated;
        value           nonuniform List<scalar> 
50
(
1.5577447e-29
1.5577477e-29
1.5577511e-29
1.5577548e-29
1.5577589e-29
1.5577635e-29
1.5577686e-29
1.5577743e-29
1.5577808e-29
1.5577882e-29
1.5577965e-29
1.5578055e-29
1.5578145e-29
1.5578228e-29
1.5578298e-29
1.5578354e-29
1.5578395e-29
1.5578427e-29
1.5578451e-29
1.5578471e-29
1.5578489e-29
1.5578506e-29
1.5578523e-29
1.557854e-29
1.5578557e-29
1.5578575e-29
1.5578593e-29
1.5578612e-29
1.5578631e-29
1.5578651e-29
1.5578671e-29
1.5578691e-29
1.5578712e-29
1.5578734e-29
1.5578755e-29
1.5578778e-29
1.55788e-29
1.5578823e-29
1.5578846e-29
1.557887e-29
1.5578893e-29
1.5578918e-29
1.5578942e-29
1.5578967e-29
1.5578992e-29
1.5579017e-29
1.5579041e-29
1.5579073e-29
1.557909e-29
1.5579171e-29
)
;
    }
    Inlet
    {
        type            calculated;
        value           uniform 0;
    }
    fluid_to_cilcen
    {
        type            calculated;
        value           nonuniform List<scalar> 
100
(
421.91959
421.91875
421.91792
421.91708
421.91624
421.9154
421.91456
421.91372
421.91287
421.91203
421.91119
421.91035
421.90951
421.90867
421.90783
421.90699
421.90615
421.90531
421.90447
421.90363
421.90279
421.90195
421.90111
421.90026
421.89942
421.89858
421.89774
421.8969
421.89606
421.89522
421.89438
421.89354
421.8927
421.89186
421.89102
421.89018
421.88934
421.8885
421.88766
421.88682
421.88598
421.88514
421.8843
421.88346
421.88262
421.88178
421.88094
421.8801
421.87926
421.87842
421.87758
421.87674
421.8759
421.87506
421.87422
421.87338
421.87255
421.87171
421.87087
421.87003
421.8692
421.86836
421.86753
421.86669
421.86586
421.86503
421.8642
421.86337
421.86254
421.86171
421.86088
421.86006
421.85924
421.85842
421.8576
421.85678
421.85596
421.85515
421.85434
421.85353
421.85273
421.85193
421.85113
421.85034
421.84955
421.84876
421.84798
421.8472
421.84643
421.84566
421.8449
421.84414
421.8434
421.84265
421.84192
421.84119
421.84047
421.83975
421.83905
421.83818
)
;
    }
}


// ************************************************************************* //
