/*--------------------------------*- C++ -*----------------------------------*\
| =========                 |                                                 |
| \\      /  F ield         | OpenFOAM: The Open Source CFD Toolbox           |
|  \\    /   O peration     | Version:  4.0                                   |
|   \\  /    A nd           | Web:      www.OpenFOAM.org                      |
|    \\/     M anipulation  |                                                 |
\*---------------------------------------------------------------------------*/
FoamFile
{
    version     2.0;
    format      ascii;
    class       volScalarField;
    location    "3000/fluid";
    object      Qr;
}
// * * * * * * * * * * * * * * * * * * * * * * * * * * * * * * * * * * * * * //

dimensions      [1 0 -3 0 0 0 0];

internalField   uniform 0;

boundaryField
{
    Outterwall
    {
        type            calculated;
        value           nonuniform List<scalar> 
100
(
758.85109
815.54244
861.58955
898.36564
928.18101
952.61731
972.93448
990.05412
1004.6931
1017.3786
1028.5143
1038.4009
1047.2699
1055.2976
1062.6221
1069.3511
1075.5709
1081.3506
1086.7466
1091.8053
1096.5652
1101.0587
1105.3133
1109.3523
1113.196
1116.8618
1120.365
1123.7188
1126.9351
1130.0244
1132.9959
1135.858
1138.6182
1141.2832
1143.8591
1146.3515
1148.7653
1151.1053
1153.3755
1155.5799
1157.722
1159.8051
1161.8322
1163.8062
1165.7296
1167.6049
1169.4342
1171.2198
1172.9635
1174.6672
1176.3327
1177.9614
1179.555
1181.1148
1182.6422
1184.1384
1185.6047
1187.0422
1188.4519
1189.8348
1191.1919
1192.5241
1193.8323
1195.1172
1196.3797
1197.6204
1198.8402
1200.0396
1201.2192
1202.3798
1203.5219
1204.6459
1205.7526
1206.8424
1207.9157
1208.973
1210.0148
1211.0416
1212.0536
1213.0514
1214.0353
1215.0057
1215.9629
1216.9074
1217.8394
1218.7593
1219.6676
1220.5647
1221.4515
1222.3288
1223.1985
1224.0632
1224.9282
1225.8023
1226.7021
1227.658
1228.7214
1229.9983
1231.5577
1233.8791
)
;
    }
    leftWedge
    {
        type            symmetry;
    }
    rigtWedge
    {
        type            symmetry;
    }
    Outlet
    {
        type            calculated;
        value           nonuniform List<scalar> 
50
(
1.5577447e-29
1.5577477e-29
1.5577511e-29
1.5577548e-29
1.5577589e-29
1.5577635e-29
1.5577686e-29
1.5577743e-29
1.5577808e-29
1.5577882e-29
1.5577965e-29
1.5578055e-29
1.5578145e-29
1.5578228e-29
1.5578298e-29
1.5578354e-29
1.5578395e-29
1.5578427e-29
1.5578451e-29
1.5578471e-29
1.5578489e-29
1.5578506e-29
1.5578523e-29
1.557854e-29
1.5578557e-29
1.5578575e-29
1.5578593e-29
1.5578612e-29
1.5578631e-29
1.5578651e-29
1.5578671e-29
1.5578691e-29
1.5578712e-29
1.5578734e-29
1.5578755e-29
1.5578778e-29
1.55788e-29
1.5578823e-29
1.5578846e-29
1.557887e-29
1.5578893e-29
1.5578918e-29
1.5578942e-29
1.5578967e-29
1.5578992e-29
1.5579017e-29
1.5579041e-29
1.5579073e-29
1.557909e-29
1.5579171e-29
)
;
    }
    Inlet
    {
        type            calculated;
        value           nonuniform List<scalar> 
50
(
-6.3277868e-30
-6.3277868e-30
-6.3277868e-30
-6.3277867e-30
-6.3277867e-30
-6.3277866e-30
-6.3277865e-30
-6.3277864e-30
-6.3277864e-30
-6.3277863e-30
-6.3277863e-30
-6.3277863e-30
-6.3277863e-30
-6.3277863e-30
-6.3277863e-30
-6.3277863e-30
-6.3277864e-30
-6.3277864e-30
-6.3277865e-30
-6.3277865e-30
-6.3277865e-30
-6.3277866e-30
-6.3277866e-30
-6.3277866e-30
-6.3277866e-30
-6.3277866e-30
-6.3277866e-30
-6.3277866e-30
-6.3277866e-30
-6.3277866e-30
-6.3277866e-30
-6.3277867e-30
-6.3277867e-30
-6.3277867e-30
-6.3277867e-30
-6.3277867e-30
-6.3277867e-30
-6.3277867e-30
-6.3277867e-30
-6.3277867e-30
-6.3277867e-30
-6.3277867e-30
-6.3277867e-30
-6.3277867e-30
-6.3277867e-30
-6.3277867e-30
-6.3277867e-30
-6.3277867e-30
-6.3277867e-30
-6.3277867e-30
)
;
    }
    fluid_to_cilcen
    {
        type            calculated;
        value           nonuniform List<scalar> 
100
(
-758.87005
-815.55944
-861.60472
-898.37926
-928.19334
-952.62857
-972.94485
-990.06376
-1004.7022
-1017.3871
-1028.5223
-1038.4085
-1047.277
-1055.3044
-1062.6284
-1069.357
-1075.5764
-1081.3556
-1086.7511
-1091.8092
-1096.5685
-1101.0614
-1105.3153
-1109.3536
-1113.1965
-1116.8615
-1120.3637
-1123.7165
-1126.9318
-1130.02
-1132.9904
-1135.8512
-1138.6101
-1141.2737
-1143.8482
-1146.3391
-1148.7513
-1151.0896
-1153.3581
-1155.5607
-1157.701
-1159.7822
-1161.8074
-1163.7793
-1165.7006
-1167.5737
-1169.4008
-1171.1841
-1172.9254
-1174.6267
-1176.2897
-1177.9158
-1179.5068
-1181.064
-1182.5887
-1184.0822
-1185.5456
-1186.9802
-1188.387
-1189.7669
-1191.121
-1192.4502
-1193.7552
-1195.0369
-1196.2962
-1197.5337
-1198.7501
-1199.9461
-1201.1223
-1202.2795
-1203.418
-1204.5386
-1205.6417
-1206.7278
-1207.7975
-1208.8511
-1209.8892
-1210.9122
-1211.9205
-1212.9144
-1213.8944
-1214.8609
-1215.8142
-1216.7547
-1217.6826
-1218.5985
-1219.5027
-1220.3958
-1221.2784
-1222.1516
-1223.017
-1223.8775
-1224.738
-1225.6077
-1226.5028
-1227.4537
-1228.5117
-1229.7824
-1231.3349
-1233.6473
)
;
    }
}


// ************************************************************************* //
