/*--------------------------------*- C++ -*----------------------------------*\
| =========                 |                                                 |
| \\      /  F ield         | OpenFOAM: The Open Source CFD Toolbox           |
|  \\    /   O peration     | Version:  4.0                                   |
|   \\  /    A nd           | Web:      www.OpenFOAM.org                      |
|    \\/     M anipulation  |                                                 |
\*---------------------------------------------------------------------------*/
FoamFile
{
    version     2.0;
    format      ascii;
    class       volScalarField;
    location    "3000/fluid";
    object      rho;
}
// * * * * * * * * * * * * * * * * * * * * * * * * * * * * * * * * * * * * * //

dimensions      [1 -3 0 0 0 0 0];

internalField   nonuniform List<scalar> 
5000
(
0.92925787
0.9424324
0.95685964
0.97252151
0.98934929
1.0072121
1.0259078
1.0451577
1.0646103
1.0838542
1.1024433
1.119934
1.1359272
1.1501112
1.162294
1.1724175
1.1805517
1.1868705
1.1916157
1.19506
1.1974744
1.1991064
1.200167
1.2008271
1.201218
1.2014369
1.2015515
1.201607
1.2016315
1.2016411
1.2016444
1.2016453
1.2016455
1.2016455
1.2016455
1.2016455
1.2016455
1.2016455
1.2016455
1.2016455
1.2016455
1.2016455
1.2016455
1.2016455
1.2016455
1.2016455
1.2016455
1.2016455
1.2016455
1.2016455
0.91592523
0.92400757
0.932878
0.94263452
0.95338205
0.96522608
0.97826198
0.99255928
1.0081407
1.0249565
1.0428582
1.0615765
1.0807114
1.0997459
1.1180867
1.135134
1.1503665
1.1634186
1.1741284
1.18254
1.1888652
1.1934208
1.1965641
1.1986407
1.1999519
1.2007406
1.2011903
1.2014317
1.2015525
1.2016083
1.2016317
1.2016404
1.2016432
1.2016439
1.201644
1.201644
1.201644
1.201644
1.201644
1.201644
1.201644
1.201644
1.201644
1.201644
1.201644
1.201644
1.201644
1.201644
1.201644
1.201644
0.90732082
0.91497291
0.9233259
0.93243897
0.94237516
0.95320061
0.96498242
0.97778439
0.99165909
1.0066352
1.0226988
1.0397694
1.0576733
1.0761207
1.0946972
1.1128807
1.1300916
1.1457707
1.1594687
1.1709182
1.1800644
1.1870469
1.1921442
1.1957049
1.1980852
1.199607
1.2005351
1.2010733
1.2013681
1.2015197
1.201592
1.2016237
1.2016363
1.2016407
1.2016421
1.2016424
1.2016425
1.2016425
1.2016425
1.2016425
1.2016425
1.2016425
1.2016425
1.2016425
1.2016425
1.2016425
1.2016425
1.2016425
1.2016425
1.2016425
0.90076146
0.908171
0.91625425
0.92506586
0.93466235
0.94510083
0.95643697
0.96872173
0.98199656
0.99628605
1.0115873
1.0278553
1.0449841
1.0627861
1.0809733
1.0991509
1.1168312
1.1334777
1.148576
1.1617161
1.1726599
1.1813701
1.1879932
1.1928065
1.1961514
1.1983742
1.1997857
1.20064
1.2011312
1.2013977
1.2015333
1.2015973
1.2016249
1.2016358
1.2016395
1.2016407
1.2016409
1.201641
1.201641
1.201641
1.201641
1.201641
1.201641
1.201641
1.201641
1.201641
1.201641
1.201641
1.201641
1.201641
0.8955999
0.90279611
0.91064291
0.91919286
0.92850046
0.93862097
0.94960855
0.96151327
0.97437677
0.98822599
1.0030644
1.0188607
1.0355338
1.0529366
1.0708394
1.0889185
1.106758
1.1238729
1.1397574
1.1539552
1.1661323
1.1761298
1.1839779
1.1898675
1.1940946
1.1969976
1.198905
1.2001028
1.2008197
1.2012271
1.2014454
1.2015549
1.2016057
1.2016273
1.2016356
1.2016384
1.2016393
1.2016395
1.2016395
1.2016395
1.2016395
1.2016395
1.2016395
1.2016395
1.2016395
1.2016395
1.2016395
1.2016395
1.2016395
1.2016395
0.89147279
0.89849259
0.90614401
0.91447794
0.92354736
0.93340636
0.94410845
0.9557041
0.96823685
0.9817378
0.99621785
1.0116574
1.0279936
1.045105
1.0627962
1.0807864
1.0987055
1.1161081
1.132508
1.1474363
1.1605091
1.1714893
1.1803185
1.1871103
1.1921085
1.1956291
1.198003
1.1995347
1.2004786
1.2010326
1.2013407
1.2015018
1.2015805
1.2016159
1.2016304
1.2016357
1.2016374
1.2016379
1.201638
1.201638
1.201638
1.201638
1.201638
1.201638
1.201638
1.201638
1.201638
1.201638
1.201638
1.201638
0.88810697
0.89497433
0.90245695
0.9106043
0.91946802
0.92910112
0.93955656
0.95088507
0.96313177
0.9763313
0.99050093
1.0056312
1.0216741
1.0385288
1.056027
1.0739195
1.091871
1.1094666
1.1262391
1.1417167
1.1554865
1.1672572
1.1769031
1.1844718
1.190157
1.1942463
1.1970642
1.1989242
1.2000993
1.2008081
1.2012146
1.2014351
1.2015472
1.2016002
1.2016231
1.2016321
1.2016353
1.2016362
1.2016365
1.2016365
1.2016365
1.2016365
1.2016365
1.2016365
1.2016365
1.2016365
1.2016365
1.2016365
1.2016365
1.2016365
0.88531633
0.89205306
0.89939109
0.90737864
0.91606616
0.92550567
0.93574951
0.94684839
0.95884851
0.97178711
0.98568628
1.0005445
1.0163258
1.032946
1.0502588
1.0680414
1.0859872
1.1037081
1.120755
1.1366584
1.1509869
1.1634099
1.1737479
1.1819925
1.1882904
1.1928993
1.196132
1.1983056
1.1997061
1.2005693
1.2010766
1.2013595
1.2015081
1.2015811
1.2016141
1.2016277
1.2016328
1.2016344
1.2016349
1.201635
1.201635
1.201635
1.201635
1.201635
1.201635
1.201635
1.201635
1.201635
1.201635
1.201635
0.88296116
0.88958273
0.89679332
0.90464003
0.91317225
0.92244104
0.9324981
0.94339403
0.95517571
0.96788233
0.98153981
0.99615297
1.0116954
1.028097
1.0452293
1.0628924
1.0808043
1.0986011
1.1158515
1.1320918
1.1468789
1.1598525
1.1707894
1.1796323
1.1864846
1.1915736
1.1951976
1.1976733
1.1992954
1.2003138
1.2009249
1.2012739
1.2014624
1.2015579
1.2016029
1.2016223
1.2016298
1.2016325
1.2016333
1.2016335
1.2016335
1.2016335
1.2016335
1.2016335
1.2016335
1.2016335
1.2016335
1.2016335
1.2016335
1.2016335
0.8809432
0.88746314
0.89456128
0.90228373
0.91067888
0.91979692
0.9296889
0.94040517
0.95199299
0.964493
0.97793404
0.99232601
1.0076504
1.0238483
1.0408069
1.0583452
1.0762032
1.094039
1.1114388
1.127947
1.1431141
1.1565573
1.168017
1.1773935
1.1847499
1.1902835
1.194276
1.1970406
1.1988781
1.2000496
1.2007648
1.2011813
1.2014116
1.2015315
1.2015897
1.2016158
1.2016265
1.2016303
1.2016316
1.2016319
1.201632
1.201632
1.201632
1.201632
1.201632
1.201632
1.201632
1.201632
1.201632
1.201632
0.87918867
0.88561747
0.8926148
0.90022584
0.90849808
0.91748091
0.92722471
0.9377795
0.94919278
0.96150625
0.97475106
0.98894124
1.0040648
1.0200723
1.0368641
1.0542757
1.0720665
1.0899144
1.1074229
1.1241458
1.1396311
1.1534789
1.1653997
1.1752562
1.1830744
1.1890221
1.1933634
1.1964055
1.198453
1.1997761
1.200596
1.2010817
1.2013556
1.2015015
1.2015745
1.2016082
1.2016225
1.201628
1.2016298
1.2016304
1.2016305
1.2016305
1.2016305
1.2016305
1.2016305
1.2016305
1.2016305
1.2016305
1.2016305
1.2016305
0.87764411
0.8839909
0.89089751
0.89840831
0.90656997
0.91543108
0.92504139
0.93545055
0.94670613
0.9588506
0.97191696
0.98592258
1.0008609
1.0166906
1.033323
1.0506083
1.068323
1.0861632
1.1037488
1.1206441
1.1363974
1.1505961
1.1629258
1.1732161
1.1814588
1.1877932
1.1924648
1.1957734
1.1980248
1.1994971
1.2004212
1.2009767
1.2012954
1.2014687
1.2015573
1.2015995
1.201618
1.2016254
1.201628
1.2016288
1.201629
1.201629
1.201629
1.201629
1.201629
1.201629
1.201629
1.201629
1.201629
1.201629
0.87626884
0.88254109
0.88936528
0.896785
0.90484616
0.91359665
0.92308558
0.9333622
0.94447405
0.95646416
0.96936703
0.98320279
0.99796943
1.0136326
1.0301132
1.0472742
1.0649073
1.0827253
1.1003638
1.1173979
1.1333783
1.1478833
1.1605779
1.1712623
1.1798971
1.1865939
1.1915792
1.1951439
1.1975939
1.1992128
1.2002407
1.2008667
1.2012312
1.2014329
1.2015383
1.2015897
1.2016129
1.2016225
1.201626
1.2016271
1.2016274
1.2016275
1.2016275
1.2016275
1.2016275
1.2016275
1.2016275
1.2016275
1.2016275
1.2016275
0.87503239
0.8812366
0.88798557
0.89532218
0.90329165
0.91194116
0.92131925
0.93147474
0.94245506
0.95430366
0.9670562
0.98073514
0.99534234
1.0108494
1.0271857
1.0442252
1.0617735
1.0795587
1.0972311
1.1143768
1.1305506
1.1453244
1.1583458
1.1693898
1.1783877
1.1854247
1.1907082
1.1945193
1.1971622
1.1989252
1.2000561
1.2007527
1.2011636
1.2013946
1.2015175
1.2015788
1.2016072
1.2016193
1.2016239
1.2016254
1.2016259
1.201626
1.201626
1.201626
1.201626
1.201626
1.201626
1.201626
1.201626
1.201626
0.87391112
0.88005281
0.88673267
0.89399294
0.90187817
0.91043491
0.91971112
0.9297552
0.94061444
0.95233255
0.96494616
0.97847968
0.99293828
1.0082987
1.0244977
1.0414193
1.0588814
1.076626
1.0943174
1.1115528
1.1278919
1.1429027
1.1562185
1.1675917
1.1769268
1.1842839
1.1898515
1.1938998
1.1967304
1.1986349
1.1998678
1.2006351
1.201093
1.2013539
1.201495
1.2015669
1.2016009
1.2016158
1.2016216
1.2016237
1.2016243
1.2016245
1.2016245
1.2016245
1.2016245
1.2016245
1.2016245
1.2016245
1.2016245
1.2016245
0.87288674
0.87897073
0.88558683
0.89277667
0.90058419
0.90905534
0.91823753
0.92817874
0.93892605
0.95052339
0.96300814
0.97640636
0.9907261
1.0059486
1.0220172
1.0388247
1.0562001
1.0738985
1.091597
1.1089042
1.1253851
1.1406057
1.1541875
1.1658629
1.1755121
1.1831712
1.1890097
1.1932865
1.1962996
1.1983428
1.1996767
1.2005145
1.2010197
1.2013111
1.2014711
1.2015539
1.201594
1.2016119
1.2016192
1.2016219
1.2016227
1.201623
1.201623
1.201623
1.201623
1.201623
1.201623
1.201623
1.201623
1.201623
0.87194473
0.87797522
0.88453219
0.89165673
0.89939221
0.90778399
0.91687899
0.92672475
0.93736815
0.94885322
0.96121797
0.97448987
0.98867946
1.0037719
1.0197164
1.0364137
1.053703
1.0713511
1.0890476
1.1064116
1.1230147
1.1384216
1.1522447
1.1641986
1.174141
1.1820854
1.1881825
1.1926796
1.1958702
1.1980496
1.1994833
1.2003913
1.2009441
1.2012665
1.2014457
1.20154
1.2015865
1.2016078
1.2016167
1.20162
1.2016211
1.2016214
1.2016215
1.2016215
1.2016215
1.2016215
1.2016215
1.2016215
1.2016215
1.2016215
0.87107354
0.87705421
0.88355615
0.89061991
0.89828834
0.90660627
0.9156201
0.92537698
0.93592355
0.94730388
0.95955653
0.97271014
0.98677744
1.0017471
1.0175735
1.0341646
1.0513688
1.0689638
1.0866508
1.1040593
1.1207676
1.1363409
1.1503834
1.1625946
1.1728113
1.1810255
1.1873699
1.1920796
1.195443
1.1977558
1.1992881
1.200266
1.2008665
1.2012201
1.201419
1.2015252
1.2015785
1.2016033
1.201614
1.2016181
1.2016195
1.2016199
1.20162
1.20162
1.20162
1.20162
1.20162
1.20162
1.20162
1.20162
0.87026377
0.87619789
0.8826484
0.88965538
0.89726116
0.90551009
0.91444807
0.92412187
0.93457787
0.94586017
0.95800772
0.97105023
0.98500232
0.9998558
1.0155697
1.0320584
1.0491789
1.0667189
1.0843905
1.1018334
1.1186326
1.1343545
1.1485974
1.1610467
1.1715207
1.1799906
1.1865717
1.1914866
1.1950181
1.1974618
1.1990915
1.2001389
1.200787
1.2011722
1.2013912
1.2015095
1.2015698
1.2015985
1.2016111
1.201616
1.2016178
1.2016184
1.2016185
1.2016185
1.2016185
1.2016185
1.2016185
1.2016185
1.2016185
1.2016185
0.86950777
0.87539823
0.88180052
0.88875427
0.89630133
0.90448557
0.91335244
0.92294833
0.93331937
0.94450962
0.95655838
0.96949624
0.98333954
0.99808286
1.0136894
1.0300796
1.0471179
1.0646017
1.0822533
1.0997219
1.1165996
1.1324549
1.1468811
1.1595516
1.1702671
1.1789798
1.1857876
1.1909009
1.1945961
1.1971681
1.1988938
1.2000102
1.200706
1.201123
1.2013623
1.2014931
1.2015607
1.2015934
1.201608
1.2016139
1.2016161
1.2016168
1.201617
1.201617
1.201617
1.201617
1.201617
1.201617
1.201617
1.201617
0.86879917
0.87464856
0.88100549
0.88790918
0.89540103
0.90352443
0.91232444
0.92184705
0.93213812
0.94324169
0.95519731
0.96803637
0.9817767
0.99641539
1.0119195
1.0282147
1.0451728
1.0625996
1.0802273
1.0977144
1.1146601
1.1306353
1.1452296
1.1581058
1.1690486
1.1779922
1.1850173
1.1903224
1.194177
1.1968749
1.1986954
1.1998802
1.2006236
1.2010725
1.2013323
1.2014759
1.2015511
1.201588
1.2016048
1.2016117
1.2016144
1.2016152
1.2016155
1.2016155
1.2016155
1.2016155
1.2016155
1.2016155
1.2016155
1.2016155
0.86813266
0.87394331
0.88025747
0.88711394
0.89455371
0.90261976
0.91135671
0.92081018
0.93102581
0.94204753
0.95391513
0.96666068
0.98030334
0.99484248
1.0102486
1.0264523
1.043332
1.0607016
1.0783024
1.0958019
1.1128063
1.1288896
1.1436385
1.1567064
1.1678636
1.1770267
1.1842605
1.1897511
1.1937612
1.1965824
1.1984964
1.1997492
1.20054
1.2010209
1.2013015
1.2014581
1.201541
1.2015823
1.2016014
1.2016095
1.2016126
1.2016136
1.2016139
1.201614
1.201614
1.201614
1.201614
1.201614
1.201614
1.201614
0.86750378
0.87327777
0.87955147
0.8863633
0.89375384
0.90176565
0.91044297
0.91983107
0.92997533
0.94091957
0.9527038
0.96536064
0.97891048
0.99335472
1.008667
1.0247826
1.0415858
1.0588982
1.0764697
1.0939764
1.1110315
1.1272124
1.1421036
1.1553507
1.1667101
1.1760825
1.1835169
1.1891871
1.1933486
1.1962909
1.1982971
1.1996172
1.2004554
1.2009683
1.2012699
1.2014396
1.2015304
1.2015762
1.2015978
1.2016071
1.2016108
1.201612
1.2016124
1.2016125
1.2016125
1.2016125
1.2016125
1.2016125
1.2016125
1.2016125
0.86690869
0.87264794
0.87888329
0.8856528
0.89299666
0.90095708
0.90957788
0.91890402
0.92898059
0.93985135
0.9515564
0.96412893
0.97759038
0.99194403
1.0071664
1.0231969
1.0399256
1.0571811
1.0747214
1.0922308
1.1093296
1.1255987
1.1406215
1.1540361
1.1655868
1.1751588
1.1827861
1.1886303
1.1929395
1.1960005
1.1980977
1.1994845
1.2003698
1.2009147
1.2012374
1.2014205
1.2015195
1.20157
1.201594
1.2016046
1.2016089
1.2016104
1.2016109
1.201611
1.201611
1.201611
1.201611
1.201611
1.201611
1.201611
0.86634414
0.87205037
0.87824928
0.88497858
0.89227812
0.9001897
0.90875682
0.91802409
0.92803635
0.93883724
0.95046699
0.96295922
0.97633636
0.99060338
1.0057395
1.0216879
1.038344
1.055543
1.0730506
1.090559
1.1076953
1.1240443
1.1391887
1.1527603
1.1644921
1.1742548
1.1820677
1.1880806
1.1925338
1.1957113
1.1978982
1.1993512
1.2002834
1.2008604
1.2012043
1.2014009
1.2015081
1.2015634
1.2015901
1.2016021
1.201607
1.2016088
1.2016093
1.2016095
1.2016095
1.2016095
1.2016095
1.2016095
1.2016095
1.2016095
0.8658073
0.87148209
0.87764631
0.88433734
0.89159468
0.89945979
0.90797581
0.91718703
0.92713806
0.9378724
0.94943036
0.96184598
0.97514256
0.98932662
1.0043799
1.020249
1.0368344
1.0539775
1.0714511
1.0889553
1.1061236
1.1225451
1.1378022
1.1515212
1.1634247
1.1733696
1.1813614
1.1875378
1.1921316
1.1954234
1.1976988
1.1992174
1.2001963
1.2008054
1.2011705
1.2013807
1.2014963
1.2015566
1.2015861
1.2015995
1.201605
1.2016071
1.2016078
1.201608
1.201608
1.201608
1.201608
1.201608
1.201608
1.201608
0.86529572
0.87094052
0.87707163
0.88372616
0.89094326
0.89876405
0.90723134
0.91638911
0.92628173
0.93695256
0.94844198
0.96078438
0.97400387
0.98810839
1.0030819
1.0188745
1.035391
1.0524788
1.0699176
1.0874147
1.1046104
1.1210976
1.1364592
1.1503168
1.1623832
1.1725026
1.1806667
1.1870019
1.191733
1.195137
1.1974996
1.1990831
1.2001085
1.2007496
1.2011361
1.2013601
1.2014842
1.2015495
1.2015819
1.2015967
1.201603
1.2016054
1.2016062
1.2016065
1.2016065
1.2016065
1.2016065
1.2016065
1.2016065
1.2016065
0.86480725
0.87042338
0.87652287
0.88314252
0.89032117
0.89809962
0.90652035
0.91562706
0.92546386
0.93607399
0.94749786
0.95977017
0.97291577
0.98694391
1.0018406
1.0175592
1.0340086
1.0510418
1.0684452
1.0859329
1.1031515
1.1196986
1.1351573
1.1491453
1.1613665
1.171653
1.1799835
1.1864727
1.1913378
1.194852
1.1973007
1.1989485
1.2000201
1.2006933
1.2011012
1.201339
1.2014717
1.2015422
1.2015775
1.2015939
1.201601
1.2016037
1.2016047
1.201605
1.201605
1.201605
1.201605
1.201605
1.201605
1.201605
0.86434001
0.8699287
0.87599792
0.88258418
0.88972603
0.89746397
0.90584015
0.914898
0.92468137
0.93523338
0.94659446
0.95879959
0.97187428
0.98582899
1.0006517
1.0162986
1.0326827
1.0496621
1.0670295
1.0845057
1.1017436
1.118345
1.1338941
1.148005
1.1603735
1.1708202
1.1793112
1.1859502
1.1909462
1.1945685
1.1971021
1.1988137
1.1999312
1.2006363
1.2010657
1.2013175
1.201459
1.2015347
1.201573
1.201591
1.2015989
1.201602
1.2016031
1.2016034
1.2016035
1.2016035
1.2016035
1.2016035
1.2016035
1.2016035
0.86389233
0.8694547
0.8754949
0.88204917
0.88915576
0.89685486
0.90518835
0.91419936
0.92393153
0.93442781
0.94572865
0.95786929
0.97087583
0.98475987
0.99951121
1.0150887
1.0314091
1.0483356
1.0656666
1.0831295
1.1003833
1.1170341
1.1326674
1.1468943
1.1594031
1.1700036
1.1786497
1.1854341
1.1905581
1.1942866
1.1969039
1.1986787
1.1998419
1.2005789
1.2010298
1.2012956
1.2014459
1.2015269
1.2015683
1.201588
1.2015968
1.2016003
1.2016015
1.2016019
1.201602
1.201602
1.201602
1.201602
1.201602
1.201602
0.86346271
0.86899983
0.87501217
0.88153572
0.88860846
0.8962703
0.90456281
0.91352887
0.92321188
0.93365465
0.94489764
0.95697629
0.96991727
0.9837332
0.99841559
1.0139258
1.0301843
1.0470586
1.0643531
1.0818012
1.0990678
1.1157635
1.1314754
1.1458119
1.1584544
1.1692025
1.1779985
1.1849244
1.1901734
1.1940062
1.1967062
1.1985435
1.1997522
1.200521
1.2009934
1.2012733
1.2014325
1.201519
1.2015635
1.201585
1.2015946
1.2015985
1.2015999
1.2016004
1.2016005
1.2016005
1.2016006
1.2016006
1.2016006
1.2016006
0.86304986
0.86856269
0.87454825
0.88104228
0.88808248
0.8957085
0.90396164
0.91288449
0.92252025
0.93291159
0.94409893
0.95611792
0.96899574
0.98274598
0.99736172
1.0128067
1.0290047
1.0458279
1.0630856
1.0805176
1.0977944
1.114531
1.1303162
1.1447562
1.1575264
1.1684164
1.1773574
1.184421
1.1897922
1.1937275
1.1965091
1.1984083
1.1996621
1.2004626
1.2009566
1.2012506
1.2014188
1.2015108
1.2015585
1.2015818
1.2015923
1.2015967
1.2015983
1.2015989
1.201599
1.201599
1.2015991
1.2015991
1.2015991
1.2015991
0.86265257
0.86814202
0.87410181
0.88056742
0.88757632
0.89516787
0.90338312
0.9122644
0.92185469
0.93219651
0.94333027
0.95529178
0.9681087
0.9817955
0.99634676
1.0117285
1.0278675
1.0446403
1.0618613
1.079276
1.0965605
1.1133344
1.1291881
1.1437262
1.1566182
1.1676447
1.1767261
1.1839236
1.1894145
1.1934504
1.1963124
1.198273
1.1995717
1.2004039
1.2009194
1.2012277
1.2014049
1.2015025
1.2015535
1.2015786
1.2015901
1.2015949
1.2015967
1.2015973
1.2015975
1.2015975
1.2015976
1.2015976
1.2015976
1.2015976
0.86226978
0.8677367
0.87367165
0.88010989
0.88708862
0.89464697
0.90282571
0.91166695
0.92121343
0.93150753
0.94258963
0.95449571
0.96725384
0.98087933
0.99536814
1.0106884
1.02677
1.0434932
1.0606776
1.078074
1.0953641
1.1121718
1.1280895
1.1427206
1.1557291
1.166887
1.1761043
1.1834321
1.1890401
1.193175
1.1961164
1.1981377
1.199481
1.2003448
1.2008819
1.2012044
1.2013907
1.2014939
1.2015483
1.2015753
1.2015877
1.2015931
1.2015951
1.2015958
1.201596
1.201596
1.2015961
1.2015961
1.2015961
1.2015961
0.86190054
0.86734572
0.87325671
0.87966854
0.88661818
0.8941445
0.90228804
0.91109064
0.92059487
0.93084294
0.94187519
0.95372774
0.96642906
0.97999524
0.99442354
1.0096841
1.0257096
1.0423842
1.059532
1.0769093
1.094203
1.1110414
1.1270192
1.1417384
1.1548583
1.1661427
1.1754917
1.1829465
1.188669
1.1929013
1.195921
1.1980025
1.1993901
1.2002853
1.200844
1.2011808
1.2013763
1.2014852
1.201543
1.2015719
1.2015854
1.2015912
1.2015935
1.2015942
1.2015945
1.2015945
1.2015946
1.2015946
1.2015946
1.2015946
0.86154397
0.86696816
0.872856
0.87924233
0.88616388
0.89365928
0.90176883
0.91053414
0.91999756
0.93020118
0.94118528
0.9529861
0.96563247
0.97914123
0.99351085
1.0087133
1.0246841
1.0413109
1.0584223
1.0757798
1.0930754
1.1099416
1.1259756
1.1407785
1.154005
1.1654114
1.174888
1.1824667
1.1883013
1.1926292
1.1957263
1.1978673
1.199299
1.2002255
1.2008057
1.2011569
1.2013617
1.2014763
1.2015375
1.2015684
1.201583
1.2015893
1.2015918
1.2015927
1.201593
1.201593
1.2015931
1.2015931
1.2015931
1.2015931
0.86119928
0.86660317
0.87246865
0.87883032
0.88572473
0.89319025
0.90126694
0.90999621
0.9194202
0.92958085
0.94051839
0.95226916
0.96486235
0.97831546
0.99262813
1.0077741
1.0236915
1.0402713
1.0573466
1.0746835
1.0919794
1.1088709
1.1249575
1.1398399
1.1531687
1.1646927
1.1742931
1.1819923
1.1879368
1.1923588
1.1955322
1.1977323
1.1992077
1.2001655
1.2007672
1.2011327
1.2013468
1.2014673
1.201532
1.2015648
1.2015805
1.2015874
1.2015902
1.2015911
1.2015915
1.2015915
1.2015916
1.2015916
1.2015916
1.2015916
0.86086575
0.86625001
0.87209384
0.87843167
0.8852998
0.89273641
0.90078134
0.90947574
0.91886158
0.92898065
0.93987313
0.95157545
0.96411712
0.97751626
0.99177362
1.0068647
1.0227298
1.0392635
1.0563028
1.0736187
1.0909134
1.1078278
1.1239639
1.1389218
1.1523486
1.1639861
1.1737066
1.1815235
1.1875755
1.19209
1.1953388
1.1975974
1.1991163
1.2001052
1.2007284
1.2011083
1.2013318
1.2014581
1.2015263
1.2015612
1.201578
1.2015855
1.2015885
1.2015896
1.2015899
1.20159
1.2015901
1.2015901
1.2015901
1.2015901
0.86054273
0.86590796
0.87173083
0.87804557
0.88488827
0.8922969
0.90031105
0.9089717
0.91832061
0.92839941
0.93924825
0.95090362
0.96339532
0.97674209
0.9909457
1.0059832
1.0217974
1.0382858
1.0552894
1.0725838
1.0898761
1.1068111
1.1229935
1.1380233
1.1515441
1.1632912
1.1731283
1.18106
1.1872174
1.191823
1.1951461
1.1974627
1.1990248
1.2000446
1.2006894
1.2010837
1.2013165
1.2014487
1.2015205
1.2015575
1.2015754
1.2015835
1.2015868
1.201588
1.2015884
1.2015885
1.2015886
1.2015886
1.2015886
1.2015886
0.86022961
0.8655764
0.87137896
0.87767131
0.88448937
0.89187087
0.89985522
0.90848316
0.91779627
0.92783606
0.93864258
0.95025243
0.96269565
0.97599155
0.99014288
1.0051282
1.0208926
1.0373364
1.0543046
1.0715773
1.0888658
1.1058195
1.1220454
1.1371437
1.1507547
1.1626077
1.1725581
1.1806018
1.1868625
1.1915576
1.1949542
1.1973281
1.1989331
1.1999839
1.2006501
1.2010588
1.2013011
1.2014392
1.2015146
1.2015537
1.2015728
1.2015815
1.2015851
1.2015864
1.2015869
1.201587
1.2015871
1.2015871
1.2015871
1.2015871
0.85992584
0.86525475
0.8710376
0.87730824
0.88410239
0.89145759
0.89941303
0.90800925
0.91728765
0.92728959
0.93805507
0.94962073
0.96201687
0.97526334
0.98936381
1.0042983
1.0200139
1.036414
1.0533472
1.0705976
1.0878815
1.1048519
1.1211187
1.1362822
1.1499799
1.1619352
1.1719956
1.1801486
1.1865106
1.1912938
1.194763
1.1971938
1.1988414
1.1999229
1.2006105
1.2010338
1.2012854
1.2014296
1.2015086
1.2015499
1.2015702
1.2015795
1.2015834
1.2015849
1.2015854
1.2015855
1.2015856
1.2015856
1.2015856
1.2015856
0.85963091
0.86494245
0.87070617
0.87695574
0.88372669
0.89105637
0.89898375
0.90754918
0.91679389
0.92675909
0.93748472
0.94900747
0.96135787
0.97455627
0.98860722
1.0034921
1.0191601
1.0355172
1.0524156
1.0696436
1.0869217
1.1039073
1.1202125
1.1354381
1.1492191
1.1612733
1.1714407
1.1797005
1.1861618
1.1910317
1.1945725
1.1970596
1.1987496
1.1998618
1.2005708
1.2010085
1.2012696
1.2014198
1.2015026
1.201546
1.2015675
1.2015774
1.2015817
1.2015833
1.2015838
1.201584
1.2015841
1.2015841
1.2015841
1.2015841
0.85934435
0.86463902
0.87038416
0.87661326
0.88336168
0.89066655
0.89856668
0.90710222
0.91631421
0.92624373
0.93693064
0.94841168
0.96071761
0.97386923
0.98787193
1.0027084
1.0183298
1.0346447
1.0515086
1.068714
1.0859856
1.1029845
1.1193258
1.1346107
1.1484718
1.1606218
1.1708932
1.1792573
1.185816
1.1907713
1.1943829
1.1969257
1.1986578
1.1998005
1.2005308
1.200983
1.2012537
1.2014099
1.2014964
1.201542
1.2015648
1.2015754
1.2015799
1.2015817
1.2015823
1.2015825
1.2015826
1.2015826
1.2015826
1.2015826
0.85906573
0.864344
0.87007107
0.87628028
0.88300679
0.89028757
0.89816121
0.9066677
0.91584788
0.92574271
0.93639199
0.94783247
0.96009513
0.97320121
0.98715688
1.0019461
1.0175218
1.0337952
1.0506251
1.0678076
1.0850719
1.1020827
1.1184579
1.1337994
1.1477377
1.1599803
1.1703529
1.1788189
1.1854731
1.1905125
1.194194
1.1967921
1.198566
1.199739
1.2004907
1.2009573
1.2012375
1.2013998
1.2014901
1.201538
1.201562
1.2015733
1.2015782
1.2015801
1.2015808
1.201581
1.2015811
1.2015811
1.2015811
1.2015811
0.85879465
0.86405696
0.86976646
0.87595631
0.88266152
0.88991886
0.89776675
0.90624498
0.91539423
0.92525533
0.93586799
0.94726901
0.95948953
0.97255124
0.98646106
1.0012042
1.0167352
1.0329678
1.0497639
1.0669235
1.0841796
1.101201
1.1176082
1.1330037
1.1470161
1.1593486
1.1698197
1.1783852
1.1851331
1.1902553
1.1940058
1.1966587
1.1984741
1.1996774
1.2004504
1.2009315
1.2012213
1.2013897
1.2014837
1.2015339
1.2015592
1.2015712
1.2015764
1.2015785
1.2015792
1.2015795
1.2015795
1.2015796
1.2015796
1.2015796
0.85853073
0.86377751
0.8694699
0.87564092
0.88232539
0.88955993
0.89738275
0.90583348
0.91495263
0.9247809
0.93535792
0.94672051
0.9589
0.97191846
0.98578353
1.0004815
1.0159688
1.0321613
1.0489241
1.0660606
1.083308
1.1003386
1.1167758
1.1322229
1.1463068
1.1587262
1.1692932
1.1779561
1.184796
1.1899997
1.1938185
1.1965256
1.1983823
1.1996157
1.2004099
1.2009055
1.2012048
1.2013794
1.2014773
1.2015297
1.2015564
1.201569
1.2015746
1.2015769
1.2015777
1.201578
1.201578
1.2015781
1.2015781
1.2015781
0.85827363
0.86350528
0.86918101
0.87533368
0.88199797
0.88921029
0.89700872
0.90543267
0.91452251
0.9243188
0.93486111
0.94618627
0.95832576
0.97130204
0.98512343
0.99977734
1.0152217
1.0313749
1.0481046
1.065218
1.082456
1.0994947
1.1159601
1.1314565
1.1456094
1.1581131
1.1687734
1.1775315
1.1844618
1.1897458
1.1936319
1.1963928
1.1982905
1.1995539
1.2003692
1.2008793
1.2011883
1.201369
1.2014707
1.2015255
1.2015535
1.2015669
1.2015728
1.2015753
1.2015762
1.2015765
1.2015765
1.2015766
1.2015766
1.2015766
0.85802303
0.86323994
0.86889943
0.87503423
0.88167884
0.88886952
0.89664417
0.90504203
0.91410332
0.92386846
0.93437694
0.9456656
0.9577661
0.97070122
0.98447995
0.99909075
1.0144931
1.0306075
1.0473046
1.0643949
1.0816229
1.0986686
1.1151605
1.1307041
1.1449234
1.1575088
1.1682601
1.1771114
1.1841303
1.1894934
1.1934462
1.1962603
1.1981987
1.1994919
1.2003284
1.200853
1.2011716
1.2013585
1.2014641
1.2015212
1.2015505
1.2015647
1.201571
1.2015736
1.2015746
1.2015749
1.201575
1.2015751
1.2015751
1.2015751
0.85777863
0.86298115
0.86862481
0.87474218
0.88136762
0.88853721
0.89628867
0.90466111
0.91369456
0.92342933
0.93390482
0.9451579
0.95722034
0.97011529
0.98385234
0.99842096
1.0137821
1.0298585
1.0465232
1.0635903
1.080808
1.0978596
1.1143764
1.1299651
1.1442485
1.1569132
1.1677531
1.1766955
1.1838015
1.1892426
1.1932612
1.1961281
1.1981069
1.1994299
1.2002875
1.2008265
1.2011547
1.2013479
1.2014574
1.2015168
1.2015475
1.2015625
1.2015692
1.201572
1.2015731
1.2015734
1.2015735
1.2015736
1.2015736
1.2015736
0.85754014
0.86272864
0.86835685
0.87445722
0.88106395
0.88821296
0.89594182
0.90428945
0.91329576
0.9230009
0.93344422
0.94466257
0.95668787
0.96954358
0.98323989
0.99776722
1.013088
1.0291269
1.0457597
1.0628036
1.0800104
1.0970669
1.1136073
1.1292392
1.1435844
1.156326
1.1672523
1.1762839
1.1834755
1.1889933
1.193077
1.1959963
1.1980152
1.1993678
1.2002464
1.2007999
1.2011378
1.2013372
1.2014506
1.2015124
1.2015445
1.2015602
1.2015674
1.2015704
1.2015715
1.2015719
1.201572
1.2015721
1.2015721
1.2015721
0.8573073
0.86248211
0.86809525
0.87417903
0.8807675
0.88789643
0.89560323
0.90392666
0.91290647
0.9225827
0.93299462
0.94417907
0.95616809
0.96898546
0.98264193
0.99712885
1.01241
1.028412
1.0450133
1.062034
1.0792296
1.0962901
1.1128525
1.1285258
1.1429306
1.155747
1.1667576
1.1758765
1.1831521
1.1887456
1.1928936
1.1958647
1.1979235
1.1993056
1.2002052
1.2007731
1.2011207
1.2013264
1.2014437
1.201508
1.2015415
1.2015579
1.2015655
1.2015687
1.20157
1.2015704
1.2015705
1.2015706
1.2015706
1.2015706
0.85707987
0.86224131
0.86783973
0.87390731
0.88047795
0.88758728
0.89527254
0.90357234
0.91252629
0.92217429
0.93255554
0.94370688
0.95566047
0.96844036
0.98205785
0.99650519
1.0117475
1.0277132
1.0442833
1.0612809
1.0784648
1.0955286
1.1121117
1.1278246
1.1422871
1.1551759
1.1662687
1.1754732
1.1828313
1.1884995
1.192711
1.1957335
1.1978319
1.1992433
1.2001639
1.2007463
1.2011034
1.2013154
1.2014368
1.2015034
1.2015383
1.2015556
1.2015636
1.2015671
1.2015684
1.2015689
1.201569
1.2015691
1.2015691
1.2015691
0.85685762
0.862006
0.86759004
0.87364179
0.88019502
0.8872852
0.89494942
0.90322614
0.91215482
0.92177525
0.93212654
0.94324553
0.95516448
0.96790771
0.98148706
0.99589562
1.0110998
1.0270298
1.043569
1.0605436
1.0777155
1.0947817
1.1113843
1.1271351
1.1416533
1.1546126
1.1657856
1.1750738
1.1825131
1.1882548
1.1925292
1.1956026
1.1977404
1.199181
1.2001224
1.2007192
1.2010861
1.2013044
1.2014297
1.2014988
1.2015352
1.2015533
1.2015617
1.2015654
1.2015668
1.2015673
1.2015675
1.2015676
1.2015676
1.2015676
0.85664034
0.86177594
0.86734593
0.87338221
0.87991842
0.88698989
0.89463355
0.90288772
0.91179171
0.9213852
0.93170721
0.94279457
0.95467964
0.96738702
0.98092903
0.99529957
1.0104663
1.0263612
1.0428699
1.0598215
1.0769811
1.094049
1.1106699
1.126457
1.1410291
1.1540568
1.1653082
1.1746784
1.1821974
1.1880117
1.1923482
1.195472
1.197649
1.1991186
1.2000808
1.2006921
1.2010687
1.2012933
1.2014226
1.2014942
1.201532
1.201551
1.2015598
1.2015637
1.2015652
1.2015658
1.201566
1.2015661
1.2015661
1.2015661
0.85642781
0.86155092
0.86710717
0.87312832
0.87964789
0.88670107
0.89432463
0.90255675
0.91143661
0.92100375
0.93129713
0.94235357
0.9542055
0.96687779
0.98038322
0.9947165
1.0098465
1.0257068
1.0421854
1.059114
1.0762611
1.09333
1.1099681
1.12579
1.1404141
1.1535084
1.1648362
1.1742868
1.1818842
1.18777
1.1921679
1.1953418
1.1975576
1.1990562
1.2000392
1.2006648
1.2010511
1.2012821
1.2014154
1.2014895
1.2015288
1.2015486
1.2015579
1.201562
1.2015637
1.2015643
1.2015645
1.2015646
1.2015646
1.2015646
0.85621985
0.86133075
0.86687355
0.87287991
0.8793832
0.88641848
0.89402239
0.90223295
0.9110892
0.92063058
0.93089595
0.94192213
0.95374163
0.96637956
0.97984916
0.99414589
1.0092398
1.0250661
1.0415148
1.0584207
1.0755549
1.0926241
1.1092784
1.1251337
1.1398081
1.1529672
1.1643696
1.173899
1.1815735
1.1875298
1.1919885
1.195212
1.1974663
1.1989937
1.1999974
1.2006375
1.2010334
1.2012707
1.2014082
1.2014847
1.2015255
1.2015462
1.201556
1.2015603
1.2015621
1.2015628
1.201563
1.2015631
1.2015631
1.2015631
0.85601628
0.86111522
0.86664486
0.87263674
0.87912411
0.88614188
0.89372656
0.90191602
0.91074917
0.92026534
0.93050331
0.94149987
0.95328763
0.9658919
0.97932639
0.99358727
1.0086457
1.0244385
1.0408578
1.0577409
1.0748621
1.091931
1.1086005
1.1244878
1.1392109
1.1524329
1.1639082
1.1735149
1.1812652
1.1872911
1.1918098
1.1950825
1.1973752
1.1989312
1.1999555
1.20061
1.2010156
1.2012593
1.2014008
1.2014799
1.2015222
1.2015437
1.201554
1.2015586
1.2015605
1.2015612
1.2015615
1.2015615
1.2015616
1.2015616
0.85581692
0.86090416
0.86642092
0.87239863
0.8788704
0.88587104
0.89343689
0.9016057
0.91041625
0.91990774
0.93011888
0.94108644
0.95284311
0.96541442
0.97881447
0.99304017
1.0080637
1.0238235
1.0402137
1.0570742
1.0741822
1.0912503
1.1079339
1.123852
1.1386222
1.1519055
1.163452