/*--------------------------------*- C++ -*----------------------------------*\
| =========                 |                                                 |
| \\      /  F ield         | OpenFOAM: The Open Source CFD Toolbox           |
|  \\    /   O peration     | Version:  4.0                                   |
|   \\  /    A nd           | Web:      www.OpenFOAM.org                      |
|    \\/     M anipulation  |                                                 |
\*---------------------------------------------------------------------------*/
FoamFile
{
    version     2.0;
    format      ascii;
    class       surfaceScalarField;
    location    "3000/fluid";
    object      snGradRho;
}
// * * * * * * * * * * * * * * * * * * * * * * * * * * * * * * * * * * * * * //

dimensions      [1 -4 0 0 0 0 0];

internalField   nonuniform List<scalar> 
9850
(
133.35484
-0.8888425
132.74907
-1.2283225
130.99862
-1.5987763
127.94538
-1.9924665
123.4592
-2.397816
117.45939
-2.7990711
109.93919
-3.1763864
100.9896
-3.5065619
90.816819
-3.7646447
79.746466
-3.9265132
68.207676
-3.972342
56.694359
-3.8905012
45.707045
-3.681048
35.686673
-3.3576875
26.956777
-2.9471527
19.689543
-2.4855604
13.903716
-2.0123499
9.491477
-1.5634605
6.2625192
-1.1658202
3.9907268
-0.83466114
2.4520855
-0.57394793
1.4486989
-0.37903847
0.81948507
-0.24019261
0.44127306
-0.14575559
0.22450911
-0.08441014
0.10689455
-0.046419708
0.047065431
-0.024080274
0.018873979
-0.011688326
0.0067537869
-0.0052630873
0.0020926871
-0.0021866315
0.0005336458
-0.00084775666
0.00010028157
-0.00032934375
9.04519e-06
-0.00015628258
-1.6847709e-06
-0.00010912866
-6.4920669e-07
-9.9934428e-05
4.7779116e-08
-9.932967e-05
1.1998445e-07
-9.9732498e-05
3.5785226e-08
-9.9933381e-05
2.3461375e-08
-9.9979008e-05
-6.450927e-09
-9.9977861e-05
1.6213852e-08
-9.9968146e-05
-5.6159007e-09
-9.9958782e-05
2.0377088e-08
-9.9951659e-05
-2.9125468e-09
-9.9945094e-05
2.6155531e-08
-9.9942366e-05
-2.0849172e-09
-9.9938837e-05
9.3993775e-09
-9.9946262e-05
-1.4308142e-08
-9.994096e-05
4.0692844e-07
-9.9873885e-05
-0.000100141
81.81073
-0.57362783
81.619335
-0.60231076
81.605219
-0.63680682
81.715932
-0.67970355
81.860062
-0.73379303
81.90089
-0.80169844
81.653991
-0.88530371
80.891775
-0.98499336
79.358307
-1.0987714
76.797426
-1.2214193
72.994954
-1.3439626
67.831739
-1.4538026
61.337106
-1.5358748
53.725226
-1.5750153
45.393711
-1.5593036
36.871138
-1.483554
28.719609
-1.3516549
21.42198
-1.1765244
15.294546
-0.97731315
10.454591
-0.77478681
6.8449025
-0.58671508
4.2933195
-0.42492799
2.5782814
-0.2946636
1.4798473
-0.19572475
0.80918008
-0.12444268
0.4194248
-0.075573487
0.20466022
-0.043674299
0.093154418
-0.023891582
0.039084777
-0.012291657
0.0148833
-0.0059078875
0.0050356976
-0.002642711
0.0014664922
-0.0011090814
0.00034743652
-0.00045701303
5.8294391e-05
-0.00021027352
2.9371215e-06
-0.00012888098
-2.1237798e-06
-0.0001060865
-8.6443567e-07
-0.00010086747
-1.6746926e-07
-9.9954949e-05
2.8107109e-08
-9.9855617e-05
2.9312314e-08
-9.986149e-05
4.7547257e-08
-9.9871972e-05
1.6051883e-08
-9.9880249e-05
3.8532914e-08
-9.9888767e-05
3.9447444e-09
-9.9894275e-05
3.4219749e-08
-9.9903487e-05
-1.7508747e-08
-9.9909365e-05
1.9411422e-08
-9.9921379e-05
1.008298e-07
-9.9901734e-05
-9.8866175e-09
-9.9919383e-05
-0.0001002197
77.455729
-0.43729026
76.858215
-0.45346027
76.223285
-0.47144314
75.547114
-0.49154057
74.820134
-0.51418759
74.021862
-0.53998499
73.113861
-0.56969735
72.031476
-0.60417738
70.67618
-0.64416823
68.911881
-0.68994134
66.569858
-0.74076464
63.467666
-0.79427471
59.445196
-0.84594634
54.415586
-0.88897431
48.419305
-0.91492044
41.660205
-0.9153201
34.499906
-0.88402757
27.398966
-0.81953462
20.818245
-0.72618106
15.117454
-0.61347378
10.491217
-0.4936364
6.9621262
-0.37845094
4.42092
-0.27672984
2.6866477
-0.19322339
1.5612747
-0.12892436
0.86569669
-0.082181166
0.45624725
-0.049965331
0.22725799
-0.028882486
0.10617288
-0.015798295
0.046076363
-0.0081298605
0.018354193
-0.0039153532
0.0066141676
-0.0017644235
0.0021181166
-0.00075745038
0.000589264
-0.00033131042
0.00013811273
-0.0001710686
2.6010918e-05
-0.00011859819
3.6073404e-06
-0.00010399885
2.7502428e-07
-0.00010065389
4.3256877e-09
-0.00010004923
-9.2760888e-09
-9.9966721e-05
1.9851027e-08
-9.9956479e-05
-9.859595e-09
-9.9951933e-05
2.3301276e-08
-9.9948686e-05
-1.9212107e-08
-9.9945471e-05
2.07887e-08
-9.994424e-05
-4.2466685e-08
-9.9944325e-05
5.6508327e-08
-9.9936104e-05
7.0534337e-08
-9.9917985e-05
-4.7851225e-07
-9.9979165e-05
-0.00010002437
75.000596
-0.34410467
74.376232
-0.35832638
73.70181
-0.37408933
72.964259
-0.39153313
72.14565
-0.41079265
71.221746
-0.43199065
70.160054
-0.45522751
68.917247
-0.48056379
67.435945
-0.50798599
65.641449
-0.53733758
63.439785
-0.56819116
60.7201
-0.5996409
57.365382
-0.63002213
53.275535
-0.65662909
48.403342
-0.67559393
42.796392
-0.682161
36.628539
-0.67154556
30.199876
-0.64032369
23.892222
-0.58791006
18.088583
-0.51739744
13.087235
-0.43517529
9.0461489
-0.349354
5.9761453
-0.26769217
3.7752259
-0.19593599
2.2806503
-0.1371164
1.3163985
-0.091773853
0.72436867
-0.058707972
0.37852075
-0.035817326
0.18676175
-0.020762898
0.086338626
-0.011377583
0.037033506
-0.0058597534
0.014563596
-0.0028248809
0.0051762306
-0.0012797752
0.0016346121
-0.00056096191
0.00044927232
-0.00025992517
0.00010471285
-0.00014833624
1.9999173e-05
-0.00011241491
2.968614e-06
-0.0001025896
3.384435e-07
-0.00010036656
2.8424741e-08
-9.9966933e-05
3.5065789e-08
-9.9916477e-05
1.7516761e-11
-9.9916752e-05
3.2190011e-08
-9.9921187e-05
-1.6115924e-08
-9.9926696e-05
2.0593826e-08
-9.9930038e-05
-2.5389171e-08
-9.9934556e-05
9.0721547e-08
-9.9925277e-05
-3.4483493e-08
-9.9931115e-05
-5.4904883e-07
-0.0001000139
-0.00010003766
72.841279
-0.27514045
72.200641
-0.2869012
71.513265
-0.29992695
70.767742
-0.31432815
69.947999
-0.33020621
69.031887
-0.34764125
67.989567
-0.36667375
66.781783
-0.38727847
65.358175
-0.40932848
63.656049
-0.43254645
61.600132
-0.45643991
59.104621
-0.48021642
56.079299
-0.50267863
52.442236
-0.52211241
48.14104
-0.53621317
43.181824
-0.54214178
37.659037
-0.53683482
31.772455
-0.51765328
25.815382
-0.48328771
20.127117
-0.43459198
15.021453
-0.37487764
10.719205
-0.30936841
7.3125335
-0.24395794
4.7710375
-0.18381336
2.9784699
-0.13240523
1.7789925
-0.091232739
1.0154808
-0.060133731
0.5525609
-0.037874772
0.28539359
-0.022739664
0.13905186
-0.01296345
0.063389241
-0.0069822241
0.026761248
-0.0035366392
0.01033466
-0.0016842606
0.0035984451
-0.00076558297
0.001111016
-0.00035108839
0.00029835714
-0.00018363775
6.814765e-05
-0.00012412795
1.2871622e-05
-0.00010587985
1.9567354e-06
-0.00010115241
2.1416084e-07
-0.00010014127
3.4145362e-08
-9.9965725e-05
-1.3473361e-08
-9.9941604e-05
1.6955876e-08
-9.9936948e-05
-2.4515651e-08
-9.993778e-05
1.0268989e-08
-9.9936262e-05
-6.1141643e-09
-9.9935816e-05
7.9697251e-08
-9.9927289e-05
-1.7658115e-07
-9.9950823e-05
-5.8613416e-07
-0.00010001486
-9.9967707e-05
71.055614
-0.22438775
70.402837
-0.23455099
69.706454
-0.24580402
68.956875
-0.25824283
68.140464
-0.27195623
67.238249
-0.28701555
66.224419
-0.30345895
65.06467
-0.32126864
63.714597
-0.34033889
62.118528
-0.36043294
60.209324
-0.38112803
57.910224
-0.40174998
55.139942
-0.42130322
51.822661
-0.43840997
47.90424
-0.45128512
43.374512
-0.45779164
38.292137
-0.45563741
32.803534
-0.44276635
27.143508
-0.41793141
21.607615
-0.38130408
16.497882
-0.33484168
12.05931
-0.28213696
8.432667
-0.22769449
5.6413736
-0.17589815
3.6121126
-0.13010461
2.2140698
-0.092189018
1.2985595
-0.062592035
0.72753374
-0.040694851
0.38813347
-0.025288245
0.19619204
-0.01496933
0.093311724
-0.008401871
0.04138463
-0.0044488455
0.016927378
-0.002215973
0.0063024279
-0.0010448155
0.0021040304
-0.00048179667
0.0006191619
-0.00023744012
0.00015757156
-0.00014329373
3.3931025e-05
-0.00011167718
6.0513643e-06
-0.00010260279
8.6037722e-07
-0.00010042506
1.1486381e-07
-9.99987e-05
6.8815205e-10
-9.9935231e-05
1.4656592e-08
-9.9929094e-05
-2.0701294e-08
-9.9932211e-05
1.1287976e-08
-9.9932482e-05
1.1599406e-08
-9.9931284e-05
3.5258372e-08
-9.9929193e-05
-2.8649837e-07
-9.9959799e-05
-5.1256163e-07
-9.9999077e-05
-9.993929e-05
69.512505
-0.18604258
68.849702
-0.19475123
68.145849
-0.20439061
67.392883
-0.21504411
66.579225
-0.22679063
65.68861
-0.23969663
64.698713
-0.25380393
63.579602
-0.2691116
62.292159
-0.28555023
60.786818
-0.30294644
59.003042
-0.3209767
56.870508
-0.33911128
54.313064
-0.35655334
51.256938
-0.37218548
47.644356
-0.3845465
43.452728
-0.39187294
38.716955
-0.3922484
33.548663
-0.38389574
28.142481
-0.36560668
22.759558
-0.33722114
17.685727
-0.29997319
13.174706
-0.25649057
9.3973228
-0.21034632
6.416655
-0.16528618
4.1956318
-0.12443746
2.6281336
-0.089800766
1.5770373
-0.062147082
0.90564532
-0.041241354
0.49657667
-0.02621422
0.25893265
-0.015921288
0.12764097
-0.0092047803
0.059011775
-0.005042425
0.025331972
-0.002607763
0.0099753184
-0.0012760229
0.0035531115
-0.00060299821
0.0011266852
-0.00029327432
0.0003125069
-0.00016559828
7.4354809e-05
-0.00011929131
1.4870113e-05
-0.00010479276
2.4299048e-06
-0.0001009515
3.2725276e-07
-0.00010010704
1.9357417e-08
-9.9956666e-05
6.0366734e-09
-9.9934814e-05
-2.1382963e-08
-9.9932991e-05
1.4025244e-08
-9.9931055e-05
1.5942792e-08
-9.9928372e-05
-2.2535193e-08
-9.9932559e-05
-3.5392105e-07
-9.9964072e-05
-4.1926932e-07
-9.9985148e-05
-9.9928746e-05
68.190248
-0.15701169
67.519283
-0.1646886
66.809233
-0.17318433
66.053212
-0.1825735
65.241226
-0.19292773
64.359127
-0.20430922
63.387348
-0.21676073
62.299467
-0.230291
61.060698
-0.24485366
59.626588
-0.26031813
57.94226
-0.27643137
55.943051
-0.29277046
53.557464
-0.30868967
50.713805
-0.32327094
47.351723
-0.33529617
43.439096
-0.34326982
38.99264
-0.34552862
34.097394
-0.3404699
28.916668
-0.32690008
23.683047
-0.30444218
18.665726
-0.27386449
14.120092
-0.23715554
10.236524
-0.19723393
7.1082209
-0.1573483
4.7286889
-0.12038957
3.0150106
-0.088380112
1.8429062
-0.062289618
1.0793699
-0.042156163
0.60474682
-0.027377918
0.32309716
-0.017029705
0.1637881
-0.010112585
0.078231922
-0.0057080601
0.034888956
-0.0030499581
0.014365839
-0.0015420481
0.0053898335
-0.00074688554
0.0018149598
-0.00036245153
0.00053943194
-0.00019474397
0.00013894168
-0.00012987868
3.0425387e-05
-0.00010804838
5.5385195e-06
-0.00010177973
8.3044925e-07
-0.00010027465
8.583177e-08
-9.9979541e-05
1.1076963e-08
-9.9933809e-05
-1.6514715e-08
-9.9928874e-05
2.0155672e-08
-9.9927017e-05
7.244367e-09
-9.9925884e-05
-8.2041253e-08
-9.9934953e-05
-3.9009849e-07
-9.9963051e-05
-3.3125842e-07
-9.9967297e-05
-9.9910622e-05
67.024644
-0.13453091
66.34671
-0.14130627
65.631244
-0.14880271
64.872328
-0.15708712
64.061279
-0.16622481
63.185687
-0.17627434
62.228247
-0.18727955
61.165422
-0.19925752
59.965983
-0.21218128
58.589716
-0.22595554
56.986504
-0.24038444
55.09657
-0.25513101
52.852659
-0.26967046
50.185427
-0.28324443
47.033239
-0.29483006
43.357082
-0.3031475
39.159606
-0.30673747
34.504533
-0.3041392
29.529184
-0.29417753
24.441159
-0.27631831
19.493063
-0.25098446
14.93799
-0.21968248
10.979354
-0.18482373
7.7339296
-0.14925261
5.221313
-0.11564496
3.3800185
-0.086007633
2.0989538
-0.06144062
1.2502172
-0.042179943
0.71349792
-0.027824115
0.38917817
-0.017614465
0.20203831
-0.010674667
0.09921599
-0.0061697996
0.045710191
-0.0033875446
0.019553135
-0.0017638954
0.0076696007
-0.00087758064
0.0027190359
-0.00043086159
0.00085730109
-0.00022616303
0.00023618945
-0.0001423551
5.581039e-05
-0.00011226431
1.1079009e-05
-0.00010297254
1.8179835e-06
-0.00010055312
2.2494696e-07
-0.00010003241
2.472309e-08
-9.9941296e-05
-1.1846848e-08
-9.9928103e-05
2.2743799e-08
-9.9924556e-05
-1.1593318e-08
-9.992494e-05
-1.3510033e-07
-9.9936163e-05
-3.9738547e-07
-9.9958971e-05
-2.4282265e-07
-9.9952778e-05
-9.9908262e-05
65.995924
-0.11696842
65.312057
-0.12304418
64.59186
-0.12976537
63.83019
-0.13719271
63.019418
-0.14538616
62.148547
-0.15440068
61.202128
-0.16427954
60.159003
-0.17504436
58.990917
-0.18668058
57.661229
-0.19911703
56.123903
-0.21219857
54.323455
-0.22565111
52.196543
-0.23904067
49.676364
-0.2517314
46.701024
-0.26285367
43.226736
-0.27130149
39.245364
-0.27578626
34.803415
-0.27497552
30.016277
-0.26773029
25.069262
-0.25341591
20.198539
-0.23220235
15.652163
-0.20522441
11.641831
-0.17448546
8.3029048
-0.14248682
5.6774301
-0.11170144
3.7237127
-0.084092563
2.3439017
-0.060842516
1.416181
-0.04233729
0.82079285
-0.028339247
0.45547582
-0.018233478
0.24115992
-0.011253766
0.12118017
-0.0066416625
0.057362007
-0.0037337969
0.025335068
-0.0019946637
0.01031873
-0.0010168766
0.0038225226
-0.00050632198
0.0012679977
-0.00026237789
0.0003702353
-0.00015751598
9.3437599e-05
-0.00011770656
1.9985327e-05
-0.00010461649
3.5604825e-06
-0.00010096158
5.0210324e-07
-0.00010011238
6.1206748e-08
-9.9950982e-05
-2.9316361e-09
-9.9926072e-05
2.1866951e-08
-9.9921439e-05
-3.4907811e-08
-9.9924007e-05
-1.781686e-07
-9.9936186e-05
-3.8675535e-07
-9.9953659e-05
-1.7335769e-07
-9.9941204e-05
-9.9904689e-05
65.073425
-0.10297046
64.384404
-0.10843834
63.660007
-0.11448591
62.89574
-0.12116845
62.08486
-0.12854116
61.217556
-0.13665571
60.279937
-0.1455547
59.252849
-0.15526323
58.110552
-0.16577668
56.819444
-0.17704326
55.336997
-0.18894041
53.611484
-0.20124433
51.583119
-0.21359364
49.18766
-0.2254508
46.3636
-0.23607031
43.0639
-0.24448919
39.272123
-0.24956344
35.020796
-0.25007626
30.406687
-0.2449351
25.595209
-0.23344323
20.80656
-0.21558158
16.281931
-0.19218937
12.237774
-0.16493083
8.8240992
-0.13600828
6.1023293
-0.10770406
4.0489825
-0.081923559
2.5792423
-0.059902177
1.5780086
-0.042142829
0.92699608
-0.028541628
0.52215479
-0.018602981
0.28121279
-0.011652536
0.14413596
-0.0069960674
0.069842572
-0.0040123766
0.031713727
-0.0021923178
0.013346417
-0.001143708
0.0051375737
-0.00057943157
0.0017818683
-0.00029979855
0.00054757486
-0.0001742781
0.00014644609
-0.00012417131
3.343972e-05
-0.00010672633
6.4022092e-06
-0.00010153365
9.9307131e-07
-0.00010023836
1.3009164e-07
-9.9971831e-05
8.7126719e-09
-9.9927092e-05
1.5999218e-08
-9.9919897e-05
-6.0205317e-08
-9.9923699e-05
-2.1116401e-07
-9.9935477e-05
-3.6537579e-07
-9.9947802e-05
-1.1637823e-07
-9.99319e-05
-9.9904048e-05
64.243224
-0.09168471
63.549723
-0.096654056
62.821598
-0.10214925
62.054894
-0.10822092
61.243603
-0.11492008
60.378908
-0.12229517
59.448234
-0.13038739
58.434129
-0.13922356
57.313002
-0.1488056
56.053874
-0.15909557
54.617279
-0.16999516
52.954827
-0.18131908
51.009987
-0.19276265
48.721049
-0.20386653
46.027333
-0.21398564
42.879661
-0.22227531
39.255197
-0.22771483
35.175047
-0.22919219
30.720116
-0.22566818
26.038053
-0.21641385
21.333767
-0.2012722
16.840393
-0.18084922
12.776428
-0.15652731
9.3032877
-0.13024724
6.49909
-0.10411162
4.3570632
-0.079955801
2.8050971
-0.059043235
1.7352483
-0.041966486
1.031443
-0.028732941
0.58855417
-0.018951071
0.32165095
-0.01202943
0.16769035
-0.0073330689
0.082903885
-0.0042799437
0.038554401
-0.0023851316
0.016692684
-0.0012702271
0.0066450162
-0.00065457317
0.0023969751
-0.00033973647
0.00077078624
-0.00019299793
0.00021708992
-0.00013178079
5.2554935e-05
-0.00010936064
1.0736703e-05
-0.00010229517
1.8038319e-06
-0.00010041755
2.5380611e-07
-0.00010000388
2.6801377e-08
-9.9929696e-05
7.3101927e-09
-9.9918687e-05
-8.4670984e-08
-9.9923194e-05
-2.3443807e-07
-9.9934108e-05
-3.3807819e-07
-9.99422e-05
-7.2917558e-08
-9.9925174e-05
-9.9905184e-05
63.488716
-0.082429938
62.791281
-0.086965709
62.059831
-0.091980511
61.290865
-0.09752088
60.479008
-0.10363407
59.616291
-0.11036558
58.691265
-0.11775517
57.687942
-0.12583075
56.584586
-0.13459929
55.352496
-0.14403383
53.954885
-0.15405554
52.346331
-0.16451016
50.473267
-0.17513898
48.276424
-0.18554654
45.696227
-0.19517062
42.68216
-0.20326565
39.206436
-0.20891666
35.280779
-0.2111057
30.972518
-0.208849
26.413461
-0.20140481
21.794055
-0.18851472
17.338691
-0.17059827
13.265869
-0.14880096
9.7457619
-0.12483323
6.870847
-0.10062937
4.6496315
-0.077948366
3.0222709
-0.058064745
1.8882377
-0.041640786
1.1342423
-0.028777203
0.65467837
-0.019172453
0.36243554
-0.012307793
0.19179288
-0.0076005643
0.096501651
-0.0045034996
0.045827554
-0.0025536323
0.02034363
-0.0013857628
0.0083422345
-0.00072638945
0.0031160601
-0.00037980467
0.0010434911
-0.00021278802
0.00030788079
-0.00014029461
7.8564208e-05
-0.00011249505
1.7019866e-05
-0.0001032644
3.0622183e-06
-0.00010066395
4.5894392e-07
-0.00010005343
5.4476358e-08
-9.9936385e-05
-2.9883946e-09
-9.9918761e-05
-1.0734189e-07
-9.992293e-05
-2.4971976e-07
-9.9932563e-05
-3.0885059e-07
-9.9937187e-05
-4.1726154e-08
-9.9920216e-05
-9.9906101e-05
62.800038
-0.074751533
62.099142
-0.078919487
61.364722
-0.083526783
60.593666
-0.088616388
59.781135
-0.094232195
58.91989
-0.10041691
57.999453
-0.10720864
57.005104
-0.11463553
55.916724
-0.12270797
54.707608
-0.13140711
53.343342
-0.14066912
51.781158
-0.1503643
49.970204
-0.16027095
47.85355
-0.17004575
45.372895
-0.17919519
42.47698
-0.18705719
39.134185
-0.19280806
35.348487
-0.19551438
31.175551
-0.1942481
26.733045
-0.18826866
22.197851
-0.17724466
17.785266
-0.16144714
13.712244
-0.1418228
10.155531
-0.11987968
7.2199066
-0.097395466
4.9278047
-0.076048788
3.2311429
-0.057111282
2.0369501
-0.041297774
1.2351802
-0.028787043
0.72025821
-0.019356412
0.40331452
-0.012552835
0.21624229
-0.0078419343
0.11049451
-0.0047089274
0.053446229
-0.0027113586
0.02425384
-0.001496298
0.0102106
-0.00079696736
0.0039345169
-0.00042049298
0.0013664285
-0.00023368413
0.00042045568
-0.00014970081
0.00011254393
-0.00011614037
2.5721884e-05
-0.00010445766
4.9194055e-06
-0.00010098689
7.8261038e-07
-0.00010012344
9.8778171e-08
-9.9947436e-05
-1.2516044e-08
-9.9919708e-05
-1.2735113e-07
-9.9922634e-05
-2.5845264e-07
-9.9930855e-05
-2.7971784e-07
-9.993279e-05
-1.9701675e-08
-9.9916684e-05
-9.9907482e-05
62.167208
-0.068292204
61.463246
-0.072138429
60.726167
-0.076389311
59.953193
-0.081084649
59.13995
-0.086265329
58.279832
-0.09197151
57.363211
-0.098239646
56.376475
-0.10509786
55.30092
-0.11255904
54.111606
-0.12061076
52.776222
-0.1292013
51.254386
-0.13822097
49.497726
-0.14747851
47.451531
-0.1566739
45.05887
-0.16537122
42.268174
-0.17297936
39.044862
-0.1787537
35.38648
-0.18183657
31.338634
-0.18135401
27.006363
-0.17657578
22.553891
-0.16711824
18.187322
-0.15313335
14.120913
-0.13539989
10.536188
-0.11524747
7.548431
-0.094308714
5.1927418
-0.074180689
3.4322514
-0.056122256
2.1815833
-0.040887657
1.3342883
-0.028721416
0.78525452
-0.019470089
0.44422538
-0.012739574
0.24097544
-0.0080393219
0.12482969
-0.0048842202
0.061372757
-0.0028506657
0.028401005
-0.0015971991
0.012240094
-0.00086365155
0.0048499644
-0.0004604038
0.0017405501
-0.00025504691
0.00055635941
-0.00015976812
0.00015555009
-0.00012024431
3.7336312e-05
-0.00010587782
7.5460064e-06
-0.00010139565
1.2693007e-06
-0.0001002189
1.6847925e-07
-9.9964659e-05
-1.9202444e-08
-9.9922023e-05
-1.4442773e-07
-9.9922534e-05
-2.621079e-07
-9.9929207e-05
-2.5206994e-07
-9.9929077e-05
-5.3421117e-09
-9.991422e-05
-9.9908558e-05
61.583226
-0.062800535
60.876542
-0.06636764
60.137078
-0.070309335
59.362345
-0.07466262
58.548375
-0.07946568
57.689118
-0.084756303
56.775687
-0.09056928
55.795447
-0.096932338
54.730947
-0.10386002
53.558812
-0.1113448
52.248616
-0.11934454
50.76213
-0.12776577
49.053254
-0.1364423
47.069378
-0.14511019
44.754986
-0.15338207
42.058516
-0.16072753
38.94311
-0.16647083
35.400958
-0.1698222
31.468956
-0.16995953
27.240843
-0.16616906
22.869079
-0.15803093
18.550638
-0.14560176
14.496232
-0.12951849
10.890679
-0.11095355
7.8582004
-0.091405801
5.4453805
-0.072391135
3.6259977
-0.055147965
2.3222339
-0.040458844
1.4315121
-0.028623341
0.84955285
-0.019548955
0.48504377
-0.012895009
0.26588301
-0.0082114927
0.13942311
-0.0050410876
0.069549829
-0.0029779324
0.032751082
-0.0016913432
0.014413917
-0.00092738401
0.0058563058
-0.00049964563
0.0021649898
-0.00027676552
0.00071641189
-0.00017040804
0.00020843579
-0.00012477773
5.2335207e-05
-0.00010752612
1.1125659e-05
-0.00010189679
1.972344e-06
-0.00010034345
2.7565372e-07
-9.9989138e-05
-2.036861e-08
-9.9925797e-05
-1.5828889e-07
-9.9922601e-05
-2.6186357e-07
-9.9927632e-05
-2.2656656e-07
-9.9925942e-05
3.4934585e-09
-9.9912489e-05
-9.9909372e-05
61.041623
-0.058079602
60.332513
-0.061400494
59.590903
-0.065069482
58.814563
-0.069121072
57.999883
-0.073591019
57.141299
-0.078514947
56.230582
-0.083926058
55.255963
-0.089851533
54.201107
-0.096307096
53.044036
-0.10328906
51.756016
-0.11076311
50.300767
-0.11864918
48.63428
-0.12680198
46.705919
-0.13498797
44.461593
-0.1428611
41.849985
-0.14994315
38.832495
-0.1556186
35.396837
-0.15915856
31.572337
-0.15978987
27.442612
-0.15681911
23.149204
-0.14980211
18.880146
-0.13871898
14.841986
-0.12408626
11.221621
-0.10693767
8.1508352
-0.088649025
5.6866137
-0.070656619
3.8128068
-0.054173005
2.4590609
-0.040000279
1.5268763
-0.028484204
0.91311969
-0.019586082
0.52571681
-0.013013674
0.29091139
-0.0083543092
0.15422896
-0.0051765125
0.077942979
-0.0030909953
0.037281506
-0.0017771839
0.016719765
-0.00098708
0.0069485187
-0.00053750613
0.0026387819
-0.00029842934
0.0009011928
-0.00018142798
0.00027194212
-0.00012967558
7.1172915e-05
-0.00010939252
1.585088e-05
-0.00010249446
2.952113e-06
-0.00010050093
4.3487761e-07
-0.00010002247
-1.3065284e-08
-9.9931461e-05
-1.687398e-07
-9.9922963e-05
-2.586726e-07
-9.9926194e-05
-2.0347361e-07
-9.9923319e-05
8.3578613e-09
-9.9911289e-05
-9.9909926e-05
60.537404
-0.0539843
59.826122
-0.057088116
59.08258
-0.060516693
58.304773
-0.064302312
57.489406
-0.068478537
56.631351
-0.073078998
55.722963
-0.078135361
54.753245
-0.083674121
53.706861
-0.089711746
52.563088
-0.096247526
51.29472
-0.10325348
49.867253
-0.11066061
48.2386
-0.11834118
46.35998
-0.12608737
44.178722
-0.13358848
41.643917
-0.14041147
38.715657
-0.14599369
35.377896
-0.14966093
31.653362
-0.15068595
27.616584
-0.148398
23.398993
-0.14233773
19.179936
-0.1324239
15.161361
-0.11907082
11.531247
-0.1031897
8.4277375
-0.086043416
5.9172206
-0.068991083
3.9930487
-0.053215443
2.5921951
-0.039530865
1.6203882
-0.028321637
0.97590758
-0.01959658
0.56618012
-0.013107521
0.31599813
-0.008476441
0.16919529
-0.005296167
0.086513714
-0.0031931039
0.041966974
-0.0018562543
0.019143322
-0.00104324
0.0081201027
-0.0005739974
0.0031599895
-0.00031990985
0.0011107652
-0.00019272108
0.0003466078
-0.00013488841
9.4256206e-05
-0.00011146558
2.1915152e-05
-0.00010319062
4.275191e-06
-0.00010069431
6.6365474e-07
-0.000100066
6.3520595e-09
-9.993936e-05
-1.7544986e-07
-9.9923687e-05
-2.5324499e-07
-9.9924902e-05
-1.8282225e-07
-9.9921119e-05
1.0484579e-08
-9.9910438e-05
-9.9910192e-05
60.066144
-0.050400281
59.352912
-0.053310816
58.607627
-0.056525359
57.828482
-0.060074196
57.012465
-0.06398891
56.154836
-0.068301309
55.248473
-0.073041609
54.283074
-0.07823557
53.244199
-0.08390012
52.112261
-0.090036908
50.86144
-0.096623159
49.45885
-0.10359916
47.864178
-0.110852
46.030388
-0.11819585
43.906198
-0.12535045
41.441235
-0.13192206
38.594617
-0.13739465
35.347142
-0.14114314
31.715763
-0.1424831
27.766837
-0.14076772
23.622428
-0.13552923
19.453509
-0.1266373
15.457132
-0.11441908
11.821532
-0.099677424
8.6901721
-0.083571653
6.1379229
-0.06738663
4.1670825
-0.052272605
2.7217819
-0.039050383
1.7120813
-0.028136315
1.0378992
-0.019581272
0.60639779
-0.013177242
0.34110442
-0.008578365
0.18428753
-0.005400295
0.095234741
-0.0032842754
0.046788304
-0.0019283852
0.02167291
-0.0010955862
0.0093652462
-0.00060882688
0.003726579
-0.00034097467
0.0013449599
-0.00020414544
0.00043283153
-0.0001403523
0.0001219471
-0.00011372717
2.9508858e-05
-0.0001039847
6.0126533e-06
-0.00010092607
9.8199334e-07
-0.00010012116
4.2168347e-08
-9.9949974e-05
-1.779744e-07
-9.9924893e-05
-2.4610179e-07
-9.9923777e-05
-1.6448708e-07
-9.9919268e-05
1.0867791e-08
-9.9909819e-05
-9.991025e-05
59.62423
-0.047239992
58.909244
-0.049977987
58.16238
-0.053001486
57.382015
-0.056338979
56.565387
-0.060020256
55.708106
-0.064075448
54.803522
-0.068533401
53.841955
-0.073419096
52.809782
-0.078749694
51.688442
-0.084528694
50.453379
-0.090737605
49.07319
-0.097324517
47.509203
-0.10418915
45.716021
-0.11116454
43.643714
-0.11799681
41.242533
-0.1243266
38.470896
-0.12967912
35.306939
-0.13347356
31.762548
-0.1350653
27.896715
-0.13383188
23.822832
-0.12930238
19.703831
-0.1213072
15.73168
-0.11009913
12.094202
-0.096385053
8.9392588
-0.081229426
6.3493692
-0.065846111
4.3352363
-0.051351108
2.8479565
-0.03856688
1.8019876
-0.027936262
1.0990785
-0.019547332
0.6463358
-0.013228731
0.36619331
-0.0086645453
0.19947275
-0.005491975
0.10407998
-0.0033663929
0.051726962
-0.0019945436
0.024296927
-0.0011444778
0.010677843
-0.00064202612
0.0043361141
-0.00036153545
0.0016032915
-0.00021561057
0.00053084354
-0.00014601512
0.00015454879
-0.0001161588
3.8813144e-05
-0.00010487445
8.2384366e-06
-0.00010119791
1.4123199e-06
-0.00010018924
9.9483013e-08
-9.9963773e-05
-1.7565766e-07
-9.99267e-05
-2.3758616e-07
-9.9922834e-05
-1.4826867e-07
-9.9917703e-05
1.019575e-08
-9.9909349e-05
-9.9910133e-05
59.208513
-0.044433599
58.491943
-0.047016556
57.74365
-0.04986841
56.962171
-0.05301603
56.144975
-0.056487575
55.287985
-0.06031164
54.384978
-0.064515788
53.426843
-0.069124213
52.400692
-0.074154156
51.288904
-0.079610578
50.068077
-0.085478557
48.708173
-0.0917128
47.172038
-0.098223848
45.415816
-0.10486106
43.39089
-0.11139354
41.048191
-0.11749213
38.345657
-0.12271869
35.259181
-0.12653236
31.796189
-0.12832544
28.009015
-0.12749976
24.003025
-0.12358509
19.933458
-0.11638061
15.987092
-0.1060755
12.350785
-0.093291478
9.1760073
-0.079006136
6.5521553
-0.064365728
4.4978199
-0.050450987
2.9708542
-0.03808218
1.8901483
-0.027723869
1.1594417
-0.019497084
0.68597255
-0.013263971
0.39123879
-0.0087365239
0.21472659
-0.0055722993
0.11302933
-0.0034401325
0.056768014
-0.002055057
0.027005537
-0.0011899908
0.012052373
-0.00067352907
0.0049861676
-0.00038148097
0.0018851197
-0.00022702269
0.00064075017
-0.00015182267
0.00019231017
-0.00011873932
4.9997059e-05
-0.00010585581
1.1027694e-05
-0.00010151091
1.9790887e-06
-0.00010027143
1.8419954e-07
-9.9981278e-05
-1.6762685e-07
-9.992926e-05
-2.2789711e-07
-9.9922096e-05
-1.3392905e-07
-9.9916377e-05
8.9720848e-09
-9.990897e-05
-9.9909894e-05
58.816336
-0.041925948
58.098332
-0.044369098
57.348741
-0.04706619
56.566247
-0.05004262
55.748524
-0.053325066
54.891783
-0.056940705
53.990187
-0.060915897
53.035143
-0.065274054
52.014437
-0.070032373
50.911305
-0.07519697
49.703405
-0.080755899
48.361957
-0.086669506
46.85122
-0.092857666
45.128785
-0.099183924
43.147299
-0.10543751
40.858422
-0.11131593
38.219785
-0.11641373
35.205383
-0.12022619
31.818708
-0.12217979
28.106071
-0.12170026
24.165398
-0.11832099
20.144585
-0.11181641
16.225181
-0.10232123
12.592635
-0.090381502
9.4013225
-0.076895254
6.7468235
-0.062944595
4.6551205
-0.049574528
3.0906038
-0.037600001
1.976605
-0.027503206
1.2189883
-0.019434342
0.72529025
-0.013286211
0.41621838
-0.0087968618
0.23002769
-0.0056431253
0.12206496
-0.0035067093
0.061898022
-0.0021106124
0.029789673
-0.0012324282
0.013483541
-0.00070340349
0.005674235
-0.00040077074
0.0021896438
-0.00023831894
0.00076253604
-0.00015773014
0.00023542292
-0.00012144838
6.3214108e-05
-0.00010692371
1.445521e-05
-0.0001018655
2.7084633e-06
-0.00010036877
3.0306685e-07
-0.00010000301
-1.527455e-07
-9.9932735e-05
-2.1709736e-07
-9.9921592e-05
-1.2121527e-07
-9.9915253e-05
7.5313124e-09
-9.9908646e-05
-9.9909571e-05
58.445387
-0.039672376
57.726081
-0.04198884
56.975311
-0.044545708
56.19189
-0.047367042
55.373682
-0.050478162
54.517157
-0.053904946
53.616836
-0.057672625
52.664596
-0.061803846
51.648841
-0.066315679
50.553593
-0.071215149
49.357488
-0.076492817
48.03291
-0.082113866
46.545431
-0.088006266
44.854008
-0.094045961
42.912503
-0.10003989
40.673329
-0.10570922
38.093952
-0.11067774
35.146769
-0.11447349
31.831787
-0.11655462
28.189853
-0.11637007
24.311997
-0.113459
20.339118
-0.10757643
16.447547
-0.098810318
12.820956
-0.087639386
9.6160225
-0.074888754
6.9338717
-0.061579823
4.8074067
-0.048721832
3.2073301
-0.037121903
2.061402
-0.02727634
1.2777229
-0.019361163
0.76427709
-0.013297255
0.44111518
-0.0088470146
0.24535928
-0.0057055396
0.13117249
-0.0035668594
0.067105822
-0.002161641
0.032641534
-0.0012719844
0.014966578
-0.00073168781
0.0063979112
-0.00041936609
0.0025159898
-0.00024944329
0.00089609589
-0.00016369595
0.00028402755
-0.0001242655
7.8601029e-05
-0.00010807211
1.8594081e-05
-0.00010226153
3.6279066e-06
-0.00010048216
4.6364907e-07
-0.00010002949
-1.2959838e-07
-9.9937312e-05
-2.0512768e-07
-9.9921362e-05
-1.0987402e-07
-9.9914308e-05
6.0877912e-09
-9.9908355e-05
-9.9909198e-05
58.093672
-0.037636722
57.373184
-0.039837973
56.621339
-0.042267333
55.837072
-0.044947646
55.018418
-0.047902988
54.162088
-0.051158036
53.262926
-0.054736967
52.313244
-0.058661684
51.302012
-0.062949065
50.21398
-0.067606851
49.028685
-0.072627716
47.71959
-0.077981017
46.253495
-0.083601777
44.590639
-0.089376835
42.686059
-0.095128794
40.492929
-0.10059988
37.96867
-0.10544016
35.084328
-0.10920742
31.83682
-0.11138915
28.262027
-0.11145671
24.444576
-0.10895659
20.518715
-0.10362876
16.655595
-0.095521004
13.036824
-0.085052021
9.8208464
-0.072980112
7.1137559
-0.060269318
4.954929
-0.047893407
3.3211519
-0.036649677
2.144584
-0.027045509
1.335653
-0.019279758
0.8029243
-0.013299051
0.46591517
-0.0088885683
0.26070712
-0.00576074
0.14033953
-0.0036214109
0.072381657
-0.0022086502
0.035554159
-0.001308916
0.016497095
-0.00075846881
0.0071548687
-0.00043726122
0.0028632254
-0.000260358
0.0010412466
-0.0001696859
0.0003382163
-0.00012717175
9.6276642e-05
-0.00010929456
2.3514549e-05
-0.0001026984
4.7657957e-06
-0.00010061232
6.7429704e-07
-0.00010006125
-9.6467096e-08
-9.9943189e-05
-1.9180726e-07
-9.9921454e-05
-9.9656156e-08
-9.9913526e-05
4.7727001e-09
-9.9908086e-05
-9.99088e-05
57.759451
-0.035789235
57.037886
-0.037885297