/*--------------------------------*- C++ -*----------------------------------*\
| =========                 |                                                 |
| \\      /  F ield         | OpenFOAM: The Open Source CFD Toolbox           |
|  \\    /   O peration     | Version:  4.0                                   |
|   \\  /    A nd           | Web:      www.OpenFOAM.org                      |
|    \\/     M anipulation  |                                                 |
\*---------------------------------------------------------------------------*/
FoamFile
{
    version     2.0;
    format      ascii;
    class       volScalarField;
    location    "3000/fluid";
    object      T;
}
// * * * * * * * * * * * * * * * * * * * * * * * * * * * * * * * * * * * * * //

dimensions      [0 0 0 1 0 0 0];

internalField   nonuniform List<scalar> 
5000
(
379.79038
374.48118
368.83487
362.895
356.72255
350.39609
344.01065
337.67459
331.50458
325.61872
320.1282
315.12858
310.69175
306.86006
303.64366
301.02179
298.94768
297.35611
296.17199
295.3184
294.72296
294.32184
294.06173
293.9001
293.80445
293.75093
293.72291
293.70935
293.70336
293.701
293.7002
293.69997
293.69993
293.69992
293.69992
293.69993
293.69993
293.69993
293.69993
293.69993
293.69993
293.69993
293.69993
293.69993
293.69993
293.69993
293.69993
293.69993
293.69993
293.69992
385.31811
381.94772
378.3159
374.40023
370.17959
365.63722
360.76489
355.56826
350.07276
344.32934
338.41856
332.4514
326.56504
320.91283
315.64867
310.90828
306.79144
303.34961
300.58261
298.44451
296.85669
295.72351
294.94664
294.43567
294.11394
293.92076
293.81072
293.75169
293.72214
293.70851
293.70279
293.70067
293.69999
293.69981
293.69978
293.69978
293.69978
293.69978
293.69978
293.69978
293.69978
293.69978
293.69978
293.69978
293.69978
293.69978
293.69978
293.69978
293.69978
293.69978
388.97153
385.71849
382.22904
378.49337
374.50262
370.24942
365.72891
360.94048
355.89042
350.5957
345.08887
339.4233
333.67767
327.95761
322.39233
317.1247
312.295
308.02146
304.38248
301.40616
299.07008
297.31089
296.03966
295.1581
294.57167
294.198
293.97054
293.83883
293.76671
293.72966
293.71197
293.70422
293.70115
293.70007
293.69974
293.69965
293.69964
293.69963
293.69963
293.69963
293.69963
293.69963
293.69963
293.69963
293.69963
293.69963
293.69963
293.69963
293.69963
293.69963
391.80334
388.60671
385.1784
381.50943
377.59235
373.4219
368.99593
364.31654
359.39163
354.23697
348.87878
343.35703
337.72891
332.07186
326.48478
321.08543
316.0024
311.36153
307.26861
303.79311
300.95798
298.73902
297.07353
295.87477
295.0474
294.50011
294.15366
293.94434
293.82415
293.75896
293.72582
293.71018
293.70342
293.70077
293.69985
293.69957
293.6995
293.69949
293.69949
293.69949
293.69949
293.69949
293.69949
293.69949
293.69949
293.69949
293.69949
293.69949
293.69949
293.69949
394.06071
390.91965
387.55118
383.94634
380.09753
375.9992
371.64865
367.04718
362.20151
357.12553
351.84253
346.38762
340.81044
335.17756
329.5739
324.10206
318.87795
314.02194
309.6455
305.83574
302.64212
300.06955
298.08052
296.60508
295.55508
294.83829
294.36921
294.07542
293.89985
293.80018
293.74679
293.72002
293.7076
293.70232
293.70029
293.69961
293.6994
293.69935
293.69934
293.69934
293.69934
293.69934
293.69934
293.69934
293.69934
293.69934
293.69934
293.69934
293.69934
293.69934
395.88434
392.79135
389.47465
385.92524
382.13537
378.09912
373.81311
369.2776
364.49771
359.48511
354.25998
348.85338
343.30964
337.68868
332.06753
326.54012
321.21448
316.20605
311.62703
307.57274
304.10802
301.25766
299.00414
297.29346
296.04697
295.17524
294.59034
294.21419
293.98284
293.84724
293.77189
293.73248
293.71326
293.70461
293.70107
293.69977
293.69935
293.69923
293.6992
293.69919
293.69919
293.69919
293.69919
293.69919
293.69919
293.69919
293.69919
293.69919
293.69919
293.69919
397.384
394.33478
391.0652
387.56626
383.8301
379.85047
375.62348
371.14843
366.4291
361.47515
356.30406
350.94327
345.43257
339.82639
334.19554
328.62751
323.22455
318.09837
313.36109
309.11302
305.42937
302.34939
299.87134
297.95518
296.53189
295.51651
294.82087
294.36347
294.07525
293.90167
293.8022
293.74828
293.72087
293.70793
293.70232
293.70012
293.69936
293.69912
293.69906
293.69905
293.69905
293.69905
293.69905
293.69905
293.69905
293.69905
293.69905
293.69905
293.69905
293.69905
398.63591
395.62544
392.39758
388.94335
385.2548
381.32547
377.15103
372.73009
368.06532
363.16482
358.04383
352.72682
347.24976
341.66246
336.03041
330.43558
324.97517
319.75744
314.89388
310.48808
306.62286
303.34872
300.67691
298.57963
296.99717
295.84969
295.05013
294.51492
294.17112
293.95962
293.83546
293.76626
293.72992
293.71209
293.70402
293.70069
293.69945
293.69905
293.69893
293.69891
293.6989
293.6989
293.6989
293.6989
293.6989
293.6989
293.6989
293.6989
293.6989
293.6989
399.69852
396.72338
393.53356
390.12011
386.47503
382.59168
378.46541
374.09424
369.47995
364.62931
359.55574
354.2812
348.83845
343.27333
337.64674
332.03575
326.533
321.24333
316.2771
311.73998
307.7206
304.27857
301.43618
299.17651
297.44868
296.17833
295.28027
294.66991
294.27134
294.02167
293.87206
293.78669
293.74059
293.71723
293.70624
293.7015
293.69965
293.69901
293.69882
293.69877
293.69876
293.69875
293.69875
293.69875
293.69875
293.69875
293.69875
293.69875
293.69876
293.69876
400.61341
397.67021
394.51479
391.13822
387.53249
383.69084
379.60833
375.28256
370.71455
365.91002
360.88084
355.64688
350.2382
344.69721
339.08082
333.46177
327.92844
322.58234
317.53224
312.88496
308.73352
305.14498
302.15112
299.74487
297.88368
296.49883
295.50762
294.82514
294.37327
294.08589
293.91073
293.80881
293.7525
293.72319
293.70895
293.70257
293.69997
293.69902
293.69872
293.69863
293.69861
293.69861
293.69861
293.69861
293.69861
293.69861
293.69861
293.69861
293.69861
293.69861
401.41218
398.49828
395.3744
392.03167
388.46206
384.65873
380.61652
376.33264
371.80755
367.04602
362.05863
356.8635
351.48832
345.97256
340.36963
334.74835
329.19325
323.80254
318.68318
313.94242
309.67656
305.95881
302.82917
300.28946
298.30503
296.81285
295.73309
294.98112
294.47717
294.15242
293.95155
293.83267
293.76568
293.72999
293.71217
293.70391
293.70042
293.69909
293.69864
293.6985
293.69847
293.69846
293.69846
293.69846
293.69846
293.69846
293.69846
293.69846
293.69846
293.69846
402.11792
399.23083
396.13582
392.82408
389.28757
385.51938
381.5142
377.26892
372.7835
368.06195
363.11376
357.95551
352.61287
347.12275
341.53543
335.91627
330.34618
324.92025
319.74342
314.92284
310.55723
306.72486
303.47287
300.81111
298.71242
297.11941
295.95541
295.13655
294.58189
294.22033
293.99383
293.85783
293.77989
293.73752
293.71585
293.70553
293.70101
293.69921
293.69858
293.69838
293.69833
293.69832
293.69832
293.69832
293.69832
293.69832
293.69832
293.69832
293.69832
293.69832
402.74832
399.88598
396.81761
393.53447
390.02851
386.2928
382.32187
378.11238
373.66385
368.97964
364.0683
358.94508
353.63389
348.16936
342.59904
336.98511
331.4052
325.95137
320.72648
315.83718
311.38395
307.44919
304.08628
301.31235
299.10726
297.4192
296.17487
295.29148
294.68739
294.28956
294.03752
293.88424
293.79508
293.74575
293.71999
293.70741
293.70174
293.69941
293.69855
293.69827
293.69819
293.69817
293.69817
293.69817
293.69817
293.69817
293.69817
293.69817
293.69817
293.69817
403.31671
400.47723
397.43347
394.17675
390.69905
386.99338
383.05418
378.8779
374.46368
369.81435
364.93762
359.8476
354.56664
349.12738
343.57488
337.96847
332.38274
326.90689
321.64163
316.69286
312.16223
308.13558
304.67169
301.7943
299.48988
297.71203
296.39099
295.44537
294.79313
294.35964
294.08224
293.91163
293.81109
293.75461
293.72456
293.70956
293.70262
293.69968
293.69855
293.69817
293.69806
293.69803
293.69802
293.69802
293.69802
293.69802
293.69802
293.69802
293.69802
293.69802
403.83349
401.01522
397.99433
394.76215
391.3107
387.63295
383.72329
379.57795
375.19579
370.57914
365.73499
360.67645
355.42448
350.00995
344.4757
338.87845
333.28999
327.79681
322.49747
317.4969
312.89751
308.78795
305.23173
302.25856
299.86112
297.99828
296.60387
295.59815
294.89898
294.43043
294.12788
293.93991
293.82785
293.76404
293.72953
293.71197
293.70365
293.70002
293.69859
293.69808
293.69793
293.69789
293.69788
293.69788
293.69788
293.69788
293.69788
293.69788
293.69788
293.69788
404.3067
401.5082
398.50859
395.29926
391.87226
388.22054
384.33842
380.22198
375.86981
371.28382
366.47038
361.44168
356.21748
350.82704
345.31118
339.72428
334.13551
328.62879
323.30058
318.25469
313.59394
309.40926
305.76831
302.70621
300.22145
298.27801
296.81335
295.74957
295.00467
294.50167
294.17421
293.96892
293.84526
293.77398
293.73488
293.71463
293.70482
293.70044
293.69866
293.69801
293.6978
293.69775
293.69773
293.69773
293.69773
293.69773
293.69773
293.69773
293.69773
293.69773
404.74279
401.96276
398.98304
395.79507
392.39093
388.76357
384.90722
380.81787
376.49385
371.93671
367.15225
362.15188
356.95426
351.58718
346.08968
340.51395
334.92676
329.40959
324.05684
318.97111
314.25533
310.00231
306.28332
303.13843
300.5715
298.55149
297.01948
295.89954
295.11007
294.57324
294.22114
293.99857
293.86325
293.78439
293.74057
293.71752
293.70614
293.70094
293.69877
293.69796
293.69769
293.69761
293.69759
293.69758
293.69758
293.69758
293.69758
293.69758
293.69759
293.69759
405.14688
402.38416
399.42309
396.25515
392.87243
389.26791
385.43576
381.37185
377.07431
372.54437
367.78732
362.81387
357.64167
352.29723
346.81791
341.25392
335.66978
330.1447
324.77105
319.65014
314.88483
310.56943
306.77834
303.55614
300.91177
298.81889
297.22223
296.04796
295.21503
294.64498
294.26851
294.02875
293.88174
293.79522
293.74657
293.72062
293.7076
293.70153
293.69892
293.69792
293.69757
293.69747
293.69744
293.69744
293.69744
293.69744
293.69744
293.69744
293.69744
293.69744
405.52315
402.77672
399.83317
396.68406
393.3215
389.73846
385.92909
381.88915
377.61659
373.11235
368.38128
363.43342
358.28556
352.96301
347.50161
341.94974
336.36983
330.83892
325.44744
320.29535
315.48528
311.11272
307.25485
303.9603
301.24275
299.08043
297.42166
296.19477
295.31946
294.71679
294.31625
294.05939
293.90067
293.80642
293.75287
293.72393
293.70919
293.70219
293.69912
293.6979
293.69747
293.69734
293.6973
293.69729
293.69729
293.69729
293.69729
293.69729
293.69729
293.69729
405.87503
403.14394
400.21693
397.08557
393.74202
390.17924
386.39136
382.37405
378.12512
373.64521
368.93879
364.01533
358.89078
353.58938
348.14557
342.60604
337.03128
331.49627
326.08956
320.90977
316.05912
311.63403
307.71411
304.3517
301.56491
299.33633
297.61781
296.33994
295.42328
294.78859
294.36426
294.09041
293.91999
293.81796
293.75943
293.72744
293.71091
293.70292
293.69935
293.6979
293.69737
293.69721
293.69716
293.69715
293.69715
293.69715
293.69715
293.69715
293.69715
293.69715
406.20536
403.48878
400.57739
397.46281
394.13723
390.59362
386.82607
382.83019
378.60363
374.14682
369.46385
364.56365
359.46145
354.18048
348.75391
343.22684
337.65794
332.12028
326.70058
321.49609
316.60851
312.13502
308.15731
304.73112
301.87869
299.58678
297.81074
296.48345
295.52643
294.86029
294.41248
294.12175
293.93964
293.8298
293.76623
293.73112
293.71275
293.70374
293.69963
293.69793
293.69729
293.69708
293.69702
293.697
293.697
293.697
293.697
293.697
293.697
293.697
406.51651
403.81368
400.91709
397.81842
394.50986
390.98442
387.23615
383.2606
379.05529
374.62044
369.95981
365.08184
360.00108
354.73984
349.33012
343.81555
338.25309
332.71398
327.2832
322.05663
317.13539
312.61716
308.58551
305.09925
302.1845
299.832
298.00053
296.62528
295.62886
294.93184
294.46084
294.15336
293.95959
293.84191
293.77326
293.73498
293.71471
293.70462
293.69995
293.69797
293.69721
293.69695
293.69688
293.69686
293.69685
293.69685
293.69685
293.69685
293.69685
293.69685
406.8105
404.12072
401.2382
398.15462
394.86225
391.35406
387.62411
383.66789
379.48281
375.06888
370.42956
365.57286
360.51269
355.27052
349.87725
344.37514
338.81957
333.28004
327.83983
322.59348
317.64144
313.08177
308.99967
305.45673
302.48271
300.07219
298.18724
296.76544
295.73055
295.0032
294.5093
294.18521
293.97981
293.85427
293.78049
293.73898
293.71678
293.70558
293.70031
293.69804
293.69714
293.69683
293.69674
293.69671
293.69671
293.69671
293.69671
293.69671
293.69671
293.69671
407.08905
404.41169
401.54254
398.47334
395.19636
391.7046
387.9921
384.05429
379.88849
375.49452
370.87558
366.03925
360.99888
355.77515
350.39793
344.90822
339.35988
333.82078
328.37258
323.10847
318.12819
313.53006
309.40065
305.80415
302.7737
300.30753
298.37097
296.90395
295.83146
295.07431
294.55781
294.21724
294.00025
293.86685
293.7879
293.74313
293.71895
293.7066
293.70072
293.69812
293.69709
293.69672
293.6966
293.69657
293.69656
293.69656
293.69656
293.69656
293.69656
293.69656
407.35361
404.68811
401.83172
398.77622
395.51392
392.03783
388.34197
384.42174
380.27434
375.89946
371.30002
366.48324
361.46192
356.25602
350.89446
345.41703
339.8762
334.33826
328.88331
323.60324
318.59702
313.96309
309.78926
306.14205
303.0578
300.5382
298.55178
297.04081
295.93158
295.14517
294.60635
294.24943
294.02091
293.87963
293.79549
293.74742
293.72122
293.7077
293.70116
293.69823
293.69704
293.6966
293.69646
293.69642
293.69642
293.69641
293.69641
293.69641
293.69641
293.69641
407.60548
404.95129
402.10709
399.06468
395.8164
392.35528
388.67533
384.7719
380.64212
376.28551
371.70477
366.90677
361.9038
356.71515
351.36885
345.90358
340.37046
334.83429
329.37369
324.07924
319.04914
314.38184
310.16622
306.47095
303.33533
300.76439
298.72976
297.17606
296.0309
295.21573
294.65488
294.28176
294.04174
293.89259
293.80324
293.75184
293.72358
293.70885
293.70164
293.69836
293.697
293.6965
293.69633
293.69628
293.69627
293.69627
293.69627
293.69627
293.69627
293.69627
407.84575
405.20239
402.36985
399.33998
396.10512
392.65832
388.9936
385.10626
380.99335
376.65427
372.09148
367.31153
362.32626
357.15432
351.8229
346.36963
340.84437
335.3105
329.84521
324.5378
319.48567
314.7872
310.5322
306.79129
303.60658
300.98627
298.90499
297.3097
296.12941
295.28597
294.70338
294.3142
294.06274
293.90572
293.81114
293.75637
293.72603
293.71006
293.70216
293.69852
293.69698
293.69639
293.6962
293.69614
293.69612
293.69612
293.69612
293.69612
293.69612
293.69612
408.0754
405.44242
402.62106
399.60319
396.38119
392.94813
389.29801
385.4261
381.32939
377.00713
372.4616
367.69904
362.73085
357.5751
352.25818
346.81675
341.29945
335.76834
330.29919
324.9801
319.90761
315.17998
310.88781
307.10352
303.87183
301.20399
299.07755
297.44178
296.22712
295.35589
294.75183
294.34672
294.08388
293.919
293.81918
293.76101
293.72856
293.71134
293.70271
293.69869
293.69697
293.6963
293.69607
293.696
293.69598
293.69598
293.69598
293.69598
293.69598
293.69598
408.29529
405.67227
402.86163
399.85529
396.64564
393.22576
389.58965
385.73256
381.65141
377.34533
372.81641
368.07061
363.11893
357.97887
352.6761
347.24632
341.73706
336.20909
330.73684
325.4072
320.31587
315.56091
311.23361
307.40803
304.13134
301.41771
299.24751
297.57232
296.32401
295.42547
294.80021
294.37931
294.10515
293.93243
293.82734
293.76576
293.73117
293.71266
293.70331
293.69889
293.69697
293.69621
293.69594
293.69586
293.69583
293.69583
293.69583
293.69583
293.69583
293.69583
408.50616
405.89272
403.09239
400.09712
396.89934
393.49214
389.86951
386.02667
381.96049
377.66998
373.15707
368.42745
363.49173
358.36689
353.07792
347.65961
342.15843
336.63392
331.15923
325.82006
320.71128
315.93067
311.57012
307.70519
304.38536
301.62756
299.41495
297.70134
296.42009
295.49469
294.8485
294.41196
294.12653
293.94598
293.83562
293.77061
293.73386
293.71405
293.70394
293.69911
293.69698
293.69612
293.69581
293.69572
293.69569
293.69568
293.69568
293.69568
293.69568
293.69568
408.7087
406.10447
403.31407
400.32946
397.1431
393.74809
390.13843
386.30932
382.25756
377.98207
373.4846
368.7706
363.85033
358.74028
353.46475
348.05774
342.56466
337.04389
331.56735
326.21958
321.09459
316.28988
311.89782
307.99534
304.63411
301.8337
299.57994
297.82888
296.51537
295.56355
294.8967
294.44465
294.14802
293.95964
293.84401
293.77555
293.73662
293.71548
293.7046
293.69934
293.697
293.69604
293.69569
293.69558
293.69555
293.69554
293.69554
293.69554
293.69554
293.69554
408.9035
406.30816
403.52731
400.55297
397.37762
393.99437
390.39721
386.58133
382.54347
378.28247
373.79992
369.10102
364.19572
359.10002
353.83763
348.44171
342.95674
337.43995
331.96208
326.60654
321.46649
316.63911
312.21716
308.27882
304.87781
302.03625
299.74254
297.95496
296.60986
295.63204
294.94478
294.47736
294.16959
293.97342
293.8525
293.78058
293.73945
293.71696
293.70529
293.6996
293.69703
293.69596
293.69557
293.69544
293.6954
293.69539
293.69539
293.69539
293.69539
293.69539
409.0911
406.50433
403.73271
400.76828
397.60354
394.23163
390.64654
386.84343
382.819
378.57199
374.10385
369.41958
364.52878
359.44704
354.19746
348.81246
343.33557
337.82297
332.34423
326.98168
321.82763
316.97889
312.52853
308.55591
305.11666
302.23533
299.90283
298.07962
296.70355
295.70016
294.99274
294.51009
294.19125
293.9873
293.86109
293.78568
293.74234
293.71849
293.70602
293.69988
293.69707
293.6959
293.69545
293.6953
293.69526
293.69525
293.69524
293.69524
293.69524
293.69524
409.27199
406.69349
403.93078
400.97592
397.82144
394.46048
390.88704
387.09627
383.08481
378.85133
374.39715
369.72704
364.85032
359.78215
354.54507
349.1708
343.70197
338.19374
332.71455
327.34568
322.17859
317.30969
312.83232
308.8269
305.35086
302.43106
300.06087
298.20288
296.79645
295.7679
295.04057
294.54283
294.21297
294.00126
293.86977
293.79087
293.74529
293.72006
293.70678
293.70018
293.69713
293.69583
293.69533
293.69516
293.69511
293.6951
293.6951
293.6951
293.6951
293.6951
409.44661
406.87611
404.12201
401.1764
398.03183
394.68146
391.11929
387.34045
383.34154
379.12116
374.68049
370.02411
365.16106
360.10609
354.88124
349.5175
344.0567
338.55297
333.07371
327.69914
322.5199
317.63196
313.12889
309.09205
305.58057
302.62355
300.21672
298.32477
296.88858
295.83526
295.08827
294.57556
294.23475
294.01531
293.87853
293.79613
293.7483
293.72168
293.70757
293.7005
293.6972
293.69577
293.69522
293.69503
293.69497
293.69496
293.69495
293.69495
293.69495
293.69495
409.61536
407.0526
404.30682
401.37017
398.23519
394.89506
391.3438
387.57651
383.58975
379.38206
374.95448
370.31143
365.46165
360.41955
355.20663
349.85325
344.40042
338.90132
333.42233
328.04264
322.85207
317.94613
313.41856
309.3516
305.80598
302.81292
300.37045
298.44532
296.97994
295.90223
295.13581
294.60828
294.25659
294.02944
293.88737
293.80146
293.75137
293.72334
293.70838
293.70084
293.69727
293.69572
293.69511
293.69489
293.69483
293.69481
293.69481
293.69481
293.69481
293.69481
409.77859
407.22332
404.48562
401.55763
398.43194
395.10174
391.56104
387.80494
383.82996
379.63457
375.2197
370.58958
365.75271
360.72314
355.52189
350.17869
344.73377
339.23941
333.76098
328.3767
323.17554
318.25258
313.70165
309.60578
306.02724
302.99926
300.52211
298.56456
297.07054
295.96882
295.18321
294.64098
294.27847
294.04364
293.89628
293.80685
293.75449
293.72504
293.70923
293.70119
293.69736
293.69568
293.695
293.69476
293.69469
293.69467
293.69466
293.69466
293.69466
293.69466
409.93663
407.38864
404.65876
401.73917
398.62249
395.30191
391.77145
388.02619
384.06264
379.87918
375.47664
370.85909
366.03479
361.01743
355.82758
350.49439
345.05732
339.56779
334.09019
328.70179
323.49075
318.55167
313.97843
309.85482
306.2445
303.18267
300.67175
298.68251
297.16039
296.03503
295.23045
294.67366
294.3004
294.0579
293.90526
293.8123
293.75766
293.72678
293.7101
293.70156
293.69746
293.69564
293.6949
293.69463
293.69454
293.69452
293.69451
293.69451
293.69451
293.69451
410.0898
407.54885
404.82656
401.91512
398.80718
395.49593
391.97541
388.24068
384.28822
380.11635
375.72579
371.12046
366.30839
361.30294
356.12425
350.80088
345.37159
339.88696
334.41045
329.01838
323.7981
318.84373
314.24918
310.0989
306.45791
303.36324
300.81943
298.7992
297.2495
296.10085
295.27753
294.7063
294.32235
294.07222
293.91431
293.81782
293.76088
293.72855
293.711
293.70196
293.69758
293.69561
293.6948
293.6945
293.6944
293.69438
293.69437
293.69437
293.69437
293.69437
410.23835
407.70425
404.98932
402.08581
398.98634
395.68416
392.17328
388.44878
384.50709
380.34648
375.96758
371.37414
366.57398
361.58015
356.41237
351.09866
345.67709
340.19742
334.72221
329.32686
324.09794
319.12908
314.51415
310.33823
306.66759
303.54106
300.9652
298.91466
297.33788
296.16629
295.32444
294.73891
294.34433
294.0866
293.92342
293.82339
293.76414
293.73036
293.71193
293.70236
293.6977
293.69558
293.6947
293.69437
293.69426
293.69423
293.69422
293.69422
293.69422
293.69422
410.38255
407.8551
405.14733
402.25151
399.16028
395.86691
392.36541
388.65084
384.71963
380.56996
376.20239
371.62053
366.83199
361.84951
356.69241
351.38819
345.97426
340.4996
335.02588
329.62763
324.39064
319.40801
314.77358
310.57299
306.87368
303.71622
301.10912
299.02891
297.42554
296.23134
295.37119
294.77147
294.36634
294.10103
293.93258
293.82901
293.76745
293.73221
293.71288
293.70279
293.69783
293.69556
293.69461
293.69424
293.69412
293.69409
293.69408
293.69408
293.69407
293.69407
410.52263
408.00165
405.30084
402.41249
399.32928
396.04447
392.55209
388.84718
384.92615
380.78714
376.43061
371.86003
367.0828
362.11141
356.96477
351.66987
346.26351
340.79389
335.32186
329.92105
324.6765
319.68079
315.02769
310.80334
307.0763
303.88879
301.25122
299.14198
297.51249
296.29601
295.41776
294.80398
294.38836
294.1155
293.9418
293.83468
293.7708
293.73409
293.71385
293.70323
293.69797
293.69555
293.69452
293.69412
293.69398
293.69394
293.69393
293.69393
293.69393
293.69393
410.65881
408.14412
405.45008
402.56901
399.49359
396.21711
392.7336
389.0381
385.12698
380.99835
376.65256
372.09298
367.3268
362.36624
357.22984
351.94411
346.54524
341.0807
335.6105
330.20746
324.95582
319.94768
315.27669
311.02944
307.27556
304.05884
301.39155
299.25389
297.59873
296.36029
295.46416
294.83645
294.4104
294.13001
293.95107
293.8404
293.77419
293.736
293.71485
293.70369
293.69813
293.69554
293.69443
293.69399
293.69384
293.6938
293.69379
293.69378
293.69378
293.69378
410.79128
408.28271
405.59527
402.72128
399.65345
396.38508
392.91021
389.22387
385.32241
381.20388
376.86857
372.31971
367.56432
362.61434
357.48797
352.21127
346.8198
341.36036
335.89215
330.48716
325.22889
320.20892
315.52077
311.25145
307.47158
304.22646
301.53016
299.36466
297.68429
296.4242
295.51038
294.86885
294.43245
294.14457
293.96039
293.84617
293.77762
293.73794
293.71587
293.70416
293.69829
293.69554
293.69434
293.69387
293.69371
293.69365
293.69364
293.69364
293.69364
293.69364
410.92023
408.41763
405.73661
402.86952
399.80909
396.54862
393.08216
389.40475
385.5127
381.40402
377.07893
372.54053
367.79567
362.85604
357.73951
352.47167
347.08753
341.6332
336.16711
330.76044
325.49597
320.46474
315.76013
311.46951
307.66446
304.39172
301.6671
299.47431
297.76916
296.48773
295.55643
294.9012
294.4545
294.15916
293.96975
293.85198
293.78109
293.73991
293.71691
293.70466
293.69847
293.69554
293.69426
293.69375
293.69357
293.69351
293.6935
293.69349
293.69349
293.69349
411.04583
408.54905
405.87429
403.01392
399.9607
396.70793
393.24968
389.58097
385.69809
381.59902
377.2839
372.75572
368.02115
363.09165
357.98476
352.72563
347.34875
341.89953
336.43568
331.02759
325.7573
320.71534
315.99493
311.68376
307.85429
304.55467
301.80239
299.58288
297.85336
296.55089
295.60229
294.93349
294.47655
294.17378
293.97915
293.85783
293.7846
293.74191
293.71798
293.70516
293.69865
293.69555
293.69418
293.69363
293.69343
293.69337
293.69335
293.69334
293.69334
293.69334
411.16825
408.67714
406.00849
403.15467
400.10848
396.86322
393.41297
389.75274
385.87882
381.78912
377.48374
372.96553
368.24103
363.32145
358.22401
352.97346
347.60374
342.15965
336.69815
331.28886
326.01313
320.96094
316.22535
311.89432
308.04118
304.71539
301.93609
299.69038
297.9369
296.61368
295.64798
294.96571
294.4986
294.18843
293.9886
293.86372
293.78814
293.74394
293.71907
293.70568
293.69885
293.69557
293.69411
293.69352
293.6933
293.69323
293.6932
293.6932
293.6932
293.6932
411.28762
408.80204
406.13935
403.29194
400.2526
397.01468
393.57224
389.92029
386.0551
381.97456
377.67868
373.17023
368.45557
363.54569
358.45753
353.21541
347.85278
342.41381
336.95475
331.54449
326.26365
321.20173
316.45154
312.10133
308.22521
304.87393
302.06822
299.79683
298.01979
296.67609
295.69348
294.99787
294.52065
294.20311
293.99808
293.86965
293.79171
293.74599
293.72018
293.70622
293.69905
293.69559
293.69404
293.6934
293.69316
293.69308
293.69306
293.69305
293.69305
293.69305
411.40409
408.92392
406.26704
403.42588
400.39324
397.16247
393.72765
390.08379
386.22714
382.15554
377.86895
373.37003
368.665
363.76463
358.68557
353.45175
348.09612
342.66227
337.20575
331.7947
326.5091
321.43787
316.67364
312.30489
308.40647
305.03035
302.19883
299.90225
298.10203
296.73814
295.7388
295.02996
294.5427
294.21781
294.00759
293.87562
293.79532
293.74808
293.7213
293.70677
293.69927
293.69562
293.69397
293.69329
293.69303
293.69294
293.69291
293.69291
293.69291
293.69291
411.51779
409.04289
406.3917
403.55664
400.53054
397.30676
393.87939
390.24343
386.39511
382.33226
378.05475
373.56515
368.86954
363.9785
358.90836
353.68271
348.33401
342.90526
337.45135
332.03972
326.74964
321.66954
316.89181
312.50512
308.58504
305.18472
302.32796
300.00666
298.18364
296.79983
295.78394
295.06197
294.56473
294.23254
294.01714
293.88162
293.79896
293.75018
293.72245
293.70734
293.6995
293.69566
293.69391
293.69318
293.6929
293.6928
293.69277
293.69276
293.69276
293.69276
411.62883
409.1591
406.51346
403.68436
400.66465
397.44771
394.02761
390.39937
386.55921
382.5049
378.23627
373.7558
369.06942
364.18751
359.12614
353.90853
348.56667
343.14302
337.69179
332.27975
326.98548
321.8969
317.10617
312.70212
308.76099
305.33708
302.45563
300.11008
298.26462
296.86115
295.8289
295.09392
294.58676
294.24728
294.02673
293.88765
293.80262
293.75232
293.72362
293.70792
293.69973
293.6957
293.69385
293.69307
293.69277
293.69266
293.69263
293.69262
293.69261
293.69261
411.73734
409.27265
406.63244
403.80917
400.79571
397.58545
394.17247
390.55178
386.71958
382.67363
378.41369
373.94216
369.26482
364.39186
359.3391
354.1294
348.79432
343.37574
337.92727
332.51496
327.21678
322.12011
317.31685
312.896
308.93442
305.48749
302.58188
300.21254
298.34499
296.92212
295.87367
295.12579
294.60877
294.26204
294.03634
293.89372
293.80632
293.75448
293.72481
293.70851
293.69998
293.69575
293.6938
293.69296
293.69263
293.69252
293.69248
293.69247
293.69247
293.69247
411.84342
409.38366
406.74876
403.93119
400.92385
397.72011
394.31409
390.70079
386.8764
382.83862
378.58719
374.1244
369.45592
364.59175
359.54745
354.34554
349.01715
343.60362
338.15796
332.74555
327.44371
322.3393
317.52397
313.08684
309.10538
305.63599
302.70674
300.31404
298.42475
296.98274
295.91827
295.15758
294.63077
294.27682
294.04598
293.89982
293.81005
293.75666
293.72602
293.70912
293.70023
293.69581
293.69375
293.69286
293.69251
293.69238
293.69234
293.69233
293.69232
293.69232
411.94716
409.49223
406.86252
404.05054
401.04917
397.85184
394.45263
390.84656
387.02979
383.00003
378.75692
374.3027
369.6429
364.78736
359.75136
354.55713
349.23535
343.82686
338.38406
332.97168
327.66642
322.55462
317.72765
313.27475
309.27394
305.78264
302.83024
300.41461
298.50392
297.04301
295.96268
295.1893
294.65275
294.29162
294.05565
293.90595
293.81381
293.75887
293.72724
293.70974
293.7005
293.69587
293.6937
293.69275
293.69238
293.69224
293.69219
293.69218
293.69218
293.69217
412.04867
409.59847
406.97384
404.16732
401.17181
397.98073
394.58819
390.9892
387.1799
383.15798
378.92304
374.47721
369.82593
364.97885
359.95102
354.76434
349.44909
344.04562
338.60573
333.19352
327.88506
322.76618
317.928
313.45982
309.44018
305.92749
302.95242
300.51427
298.5825
297.10292
296.0069
295.22094
294.67471
294.30643
294.06535
293.91211
293.81759
293.7611
293.72849
293.71038
293.70077
293.69594
293.69366
293.69265
293.69225
293.6921
293.69205
293.69203
293.69203
293.69203
412.14803
409.70246
407.08281
404.28164
401.29186
398.10691
394.7209
391.12884
387.32687
383.31262
379.08568
374.64809
370.00516
365.16638
360.14658
354.96734
349.65856
344.26008
338.82313
333.41122
328.09977
322.97413
318.12512
313.64211
309.60415
306.07057
303.07329
300.61303
298.66049
297.1625
296.05095
295.2525
294.69666
294.32125
294.07507
293.9183
293.8214
293.76336
293.72975
293.71103
293.70106
293.69602
293.69362
293.69256
293.69212
293.69196
293.69191
293.69189
293.69188
293.69188
412.24532
409.80429
407.18952
404.39359
401.40943
398.23048
394.85087
391.26559
387.4708
383.46408
379.24498
374.81546
370.18073
365.3501
360.3382
355.16629
349.8639
344.47038
339.03643
333.62491
328.31068
323.17857
318.31911
313.82172
309.76592
306.21192
303.1929
300.7109
298.73792
297.22174
296.09482
295.28398
294.71858
294.33608
294.08482
293.92452
293.82524
293.76563
293.73103
293.7117
293.70135
293.6961
293.69358
293.69246
293.692
293.69182
293.69176
293.69174
293.69174
293.69174
412.34063
409.90404
407.29406
404.50326
401.5246
398.35154
394.9782
391.39958
387.61181
383.61248
379.40106
374.97946
370.35278
365.53017
360.52602
355.36134
350.06526
344.67668
339.24575
333.83475
328.51792
323.37962
318.51006
313.99872
309.92554
306.3516
303.31126
300.80791
298.81479
297.28063
296.1385
295.31539
294.74049
294.35092
294.09459
293.93077
293.8291
293.76793
293.73233
293.71238
293.70166
293.69619
293.69355
293.69237
293.69188
293.69169
293.69162
293.6916
293.69159
293.69159
412.43403
410.00179
407.3965
404.61074
401.63748
398.47018
395.10299
391.53089
387.75002
383.75793
379.55405
375.14023
370.52144
365.7067
360.7102
355.55264
350.26279
344.87913
339.45125
334.04085
328.72161
323.57738
318.69808
314.17319
310.08307
306.48964
303.42841
300.90407
298.8911
297.3392
296.18201
295.34671
294.76237
294.36577
294.10438
293.93704
293.83299
293.77025
293.73365
293.71307
293.70197
293.69628
293.69353
293.69228
293.69175