/*--------------------------------*- C++ -*----------------------------------*\
| =========                 |                                                 |
| \\      /  F ield         | OpenFOAM: The Open Source CFD Toolbox           |
|  \\    /   O peration     | Version:  4.0                                   |
|   \\  /    A nd           | Web:      www.OpenFOAM.org                      |
|    \\/     M anipulation  |                                                 |
\*---------------------------------------------------------------------------*/
FoamFile
{
    version     2.0;
    format      ascii;
    class       volVectorField;
    location    "3000/fluid";
    object      U;
}
// * * * * * * * * * * * * * * * * * * * * * * * * * * * * * * * * * * * * * //

dimensions      [0 1 -1 0 0 0 0];

internalField   nonuniform List<vector> 
5000
(
(8.7645842e-06 5.4382589e-23 0.0078539753)
(4.2857379e-05 9.6432255e-23 0.022749258)
(0.00012187485 -5.1094123e-22 0.037395458)
(0.00022573644 6.1658341e-22 0.051548713)
(0.00035950275 1.864313e-21 0.064945272)
(0.00051069801 2.0513316e-21 0.077311193)
(0.00067165895 2.4860951e-21 0.088375634)
(0.0008298319 8.9434635e-21 0.097887148)
(0.0009738094 7.328111e-21 0.10563226)
(0.0010918507 -8.0068655e-21 0.11145473)
(0.0011744667 -1.5205836e-20 0.11527335)
(0.0012148056 -1.1010266e-20 0.11709572)
(0.0012099254 1.6142132e-20 0.11702512)
(0.0011609693 6.1654408e-21 0.11525839)
(0.0010731587 1.5771799e-20 0.11207358)
(0.00095497337 1.0744391e-20 0.10780835)
(0.00081697668 -5.3585101e-21 0.10283137)
(0.00067028607 -2.8062901e-22 0.097511002)
(0.00052513077 -5.603411e-21 0.092185471)
(0.00038970252 -1.1415707e-20 0.087138533)
(0.00026954824 2.2100923e-21 0.082583113)
(0.00016748774 -1.4775532e-20 0.078653992)
(8.3978911e-05 -3.9303405e-21 0.075409336)
(1.7600162e-05 -7.2732035e-21 0.072839814)
(-3.5074106e-05 8.3825182e-21 0.07088353)
(-7.4777019e-05 4.1804364e-21 0.069444177)
(-0.0001075193 7.5516502e-22 0.068410534)
(-0.00013373535 -3.023223e-22 0.067672329)
(-0.00016061219 -3.9900653e-21 0.067134359)
(-0.0001847185 -1.4999354e-21 0.06672052)
(-0.00021695821 1.5596213e-21 0.066379907)
(-0.00024662677 1.3866123e-21 0.066076427)
(-0.00029238073 1.3809849e-20 0.065796297)
(-0.0003313226 -1.3455041e-21 0.065523494)
(-0.00039640282 -9.5945751e-21 0.065265661)
(-0.00044526042 -3.3816028e-21 0.065005835)
(-0.00053393145 -3.2910835e-21 0.06476831)
(-0.00059102207 -1.7153144e-20 0.064520163)
(-0.00070571385 -1.813888e-20 0.064309265)
(-0.00076725633 -1.9019746e-21 0.064072428)
(-0.00090740749 6.9660513e-21 0.063894676)
(-0.00096752461 -3.3168249e-20 0.063664812)
(-0.0011282062 -7.2020585e-21 0.06352316)
(-0.0011781643 -3.5273696e-20 0.063286394)
(-0.0013478907 7.0722822e-21 0.063176821)
(-0.0013716885 5.6914157e-20 0.062895653)
(-0.0015244726 3.3447875e-21 0.062801727)
(-0.0014803144 -4.0181975e-20 0.062440781)
(-0.0015327927 -1.3814952e-20 0.06300273)
(-0.0010648029 -6.1216553e-20 0.056711037)
(-8.4260919e-06 -6.9672681e-23 0.009373973)
(-4.6803671e-05 -3.0432292e-22 0.027379858)
(-0.00012342859 -6.6049981e-22 0.045359083)
(-0.00024448632 -7.6799128e-22 0.063051697)
(-0.00041292387 -1.9283605e-21 0.080153449)
(-0.00063138174 -2.8067668e-21 0.09631879)
(-0.00090165407 -6.0176912e-21 0.11116839)
(-0.0012244865 -1.8752163e-20 0.12430327)
(-0.0015993497 1.2106228e-20 0.13532655)
(-0.0020241191 3.0864667e-20 0.14387374)
(-0.0024946018 2.2978328e-20 0.14965038)
(-0.0030039161 -3.0791485e-20 0.15247425)
(-0.003541801 -3.2179292e-20 0.15231588)
(-0.0040940582 -1.7320289e-20 0.14932878)
(-0.0046424214 -1.9592957e-20 0.14385915)
(-0.0051651587 5.4750512e-20 0.13642688)
(-0.0056386072 4.5902433e-20 0.12767515)
(-0.0060395453 5.0186453e-20 0.11829561)
(-0.0063480581 6.5178481e-20 0.10894457)
(-0.0065501612 5.6150602e-20 0.10016987)
(-0.0066396678 -3.0019444e-20 0.092363947)
(-0.0066185371 -5.9525055e-20 0.085749304)
(-0.0064962359 -1.1409204e-19 0.080392617)
(-0.0062874655 -6.2172762e-20 0.076237337)
(-0.0060105944 -4.5339015e-20 0.073143758)
(-0.0056843091 2.0357138e-20 0.070927842)
(-0.0053277062 6.0244146e-21 0.06939349)
(-0.0049561613 1.614137e-20 0.068356737)
(-0.0045851326 1.5867002e-20 0.06766019)
(-0.0042228031 7.6387144e-21 0.067181151)
(-0.0038809226 3.0462642e-20 0.066830664)
(-0.0035587654 2.3206048e-20 0.066551585)
(-0.0032679981 8.3932256e-20 0.066308558)
(-0.0029976585 2.064554e-20 0.066084849)
(-0.0027660404 -3.8158638e-20 0.065870482)
(-0.0025486633 -6.3655421e-21 0.065663609)
(-0.0023792955 -1.5177261e-21 0.065462047)
(-0.002212738 -1.0804335e-20 0.065264546)
(-0.0021089961 -1.2871606e-20 0.065074624)
(-0.0019906296 -6.3137817e-22 0.064881427)
(-0.0019574573 1.0693451e-20 0.064703885)
(-0.0018835298 -3.351229e-20 0.0645043)
(-0.0019279792 -1.2693354e-20 0.06433985)
(-0.0018904852 -4.1066115e-20 0.064110693)
(-0.0020264696 6.0786192e-21 0.063958214)
(-0.0020074321 5.7700544e-20 0.063644382)
(-0.0022771314 -1.5787497e-21 0.063500742)
(-0.0022553813 -4.2757994e-20 0.063311757)
(-0.0028142982 -4.1434132e-20 0.064413213)
(-0.0019894728 -6.6642372e-20 0.051929389)
(-2.8835996e-06 -2.1267127e-23 0.010792926)
(-2.1415897e-05 -2.8327475e-23 0.03166878)
(-5.7687106e-05 -3.9334778e-23 0.05268748)
(-0.00011826933 -2.7213117e-23 0.073579837)
(-0.00020749338 -2.7996443e-22 0.094024355)
(-0.00033032007 -1.157262e-21 0.11364633)
(-0.00049191961 -6.436959e-21 0.13202045)
(-0.00069742223 -1.5139481e-20 0.1486789)
(-0.00095159483 -2.4688875e-20 0.16312688)
(-0.0012584066 7.6321169e-21 0.17486791)
(-0.0016204673 6.737217e-21 0.18344068)
(-0.0020383123 -1.0456607e-19 0.18846746)
(-0.0025095264 -7.825477e-20 0.18971148)
(-0.0030277315 -2.5609733e-20 0.18713568)
(-0.0035815729 -2.7908167e-20 0.18095072)
(-0.004153979 8.3976527e-20 0.17163595)
(-0.0047221345 7.7729477e-20 0.15991836)
(-0.0052586023 2.3753393e-20 0.14670269)
(-0.0057338462 6.4538994e-20 0.13296064)
(-0.0061198536 5.5655744e-20 0.11960336)
(-0.0063941619 6.8079895e-20 0.10736957)
(-0.0065430808 5.0671847e-20 0.096756407)
(-0.0065634871 -6.6924193e-20 0.088003947)
(-0.0064624309 2.4821308e-20 0.081126243)
(-0.0062555664 2.8684885e-20 0.075970042)
(-0.005963865 6.0765835e-20 0.072281362)
(-0.0056114272 7.9977103e-20 0.069764845)
(-0.0052214293 9.8537067e-20 0.068128963)
(-0.004816411 2.3260722e-20 0.06711485)
(-0.0044132281 -3.8099739e-21 0.0665119)
(-0.0040284693 -3.3632981e-20 0.066161011)
(-0.0036688816 1.0982029e-20 0.065952401)
(-0.003346601 9.7473096e-20 0.065814915)
(-0.0030570824 1.3400988e-19 0.065709312)
(-0.0028142002 -2.9818201e-20 0.065612748)
(-0.0025999387 -7.9436026e-21 0.065518365)
(-0.0024396958 -1.5141538e-20 0.065419407)
(-0.0022946886 -1.0248026e-19 0.065318069)
(-0.0022161759 -1.3470239e-20 0.065212124)
(-0.0021285754 1.8831678e-21 0.065100278)
(-0.0021326584 1.3327141e-20 0.06499152)
(-0.0020864947 -3.617517e-20 0.064862658)
(-0.0021818545 -1.4498332e-20 0.06475895)
(-0.0021587736 -4.2281631e-20 0.064597647)
(-0.0023700036 2.5429944e-20 0.064505032)
(-0.0023572433 6.8863648e-20 0.064277835)
(-0.0027359087 -3.2844852e-21 0.064258699)
(-0.0027891581 -3.4305617e-20 0.06472552)
(-0.0033115001 1.0273617e-19 0.065727169)
(-0.0021842169 2.4194469e-20 0.047323744)
(-2.3164201e-06 6.4449173e-22 0.012018037)
(-1.736116e-05 2.329092e-21 0.035359847)
(-4.6641804e-05 6.0366742e-21 0.05897928)
(-9.5336248e-05 2.6243065e-21 0.082600937)
(-0.00016681125 1.7420917e-21 0.10589242)
(-0.00026506009 1.9630487e-21 0.12846171)
(-0.00039445347 1.5452728e-21 0.14985744)
(-0.00055965489 5.8193091e-21 0.16957366)
(-0.00076547918 1.6573337e-20 0.18706132)
(-0.00101665 3.3780349e-20 0.20174861)
(-0.0013174203 7.7795482e-20 0.21307289)
(-0.0016710219 7.5675975e-20 0.220526)
(-0.0020789224 -5.7614692e-20 0.22371295)
(-0.002539891 -6.6548952e-20 0.22242039)
(-0.0030489262 -1.8806329e-19 0.21668547)
(-0.0035961861 -1.5361502e-19 0.20684945)
(-0.0041661914 6.8397119e-20 0.19357572)
(-0.004737696 2.9955979e-20 0.17781361)
(-0.0052846804 9.1636862e-20 0.16070136)
(-0.0057786968 4.0299439e-20 0.14342122)
(-0.0061924227 -7.593728e-20 0.12704052)
(-0.0065035754 6.2817008e-20 0.11238049)
(-0.0066982768 -6.2264584e-20 0.099945179)
(-0.0067726446 -9.4544774e-20 0.08991971)
(-0.0067327684 -5.2816257e-20 0.08222382)
(-0.0065924805 -4.4108774e-20 0.076594512)
(-0.0063711547 -1.7397456e-19 0.07267187)
(-0.0060897083 8.1793561e-20 0.070070946)
(-0.0057697765 8.047081e-20 0.068432284)
(-0.0054289591 5.6321625e-20 0.067451344)
(-0.0050845134 7.1718797e-21 0.066890257)
(-0.0047451574 -4.8547906e-20 0.066577391)
(-0.0044238103 8.0290564e-20 0.066398307)
(-0.004118158 1.4666619e-19 0.066283707)
(-0.0038428477 2.2735463e-20 0.066195133)
(-0.0035817171 2.1984119e-20 0.066114372)
(-0.0033627539 8.9061044e-21 0.066033288)
(-0.0031469574 -7.170186e-20 0.065949136)
(-0.0029942104 -1.2688583e-19 0.065862438)
(-0.002821782 -8.6309809e-21 0.065769712)
(-0.0027511163 1.2845602e-20 0.065679609)
(-0.0026191899 -4.0710339e-20 0.065575845)
(-0.0026525434 -1.4469704e-20 0.065487705)
(-0.0025599913 -4.8995829e-20 0.065368778)
(-0.0027188663 -8.0746465e-20 0.065278915)
(-0.0026814166 -2.1557544e-20 0.065144748)
(-0.0029877428 -2.2731174e-20 0.065250277)
(-0.0031023749 -2.9890395e-20 0.066323849)
(-0.0033537587 1.2843064e-19 0.066152449)
(-0.0019072769 4.2931651e-20 0.042493138)
(-1.6880689e-06 -7.4457714e-23 0.012965328)
(-1.3325942e-05 -4.457415e-22 0.038225889)
(-3.5833152e-05 -8.4369859e-23 0.063883781)
(-7.3425978e-05 9.1557892e-22 0.089662922)
(-0.00012885781 1.1984871e-21 0.11522731)
(-0.00020544473 1.4992308e-21 0.1401772)
(-0.00030689023 2.7088998e-21 0.16404763)
(-0.00043725822 1.0970833e-20 0.18631102)
(-0.00060091787 4.9216113e-20 0.20638562)
(-0.00080242675 4.4092075e-20 0.22365216)
(-0.0010463173 6.9657124e-20 0.2374815)
(-0.0013367425 2.2757038e-19 0.24727565)
(-0.001676935 5.9303558e-20 0.2525237)
(-0.0020684404 9.424307e-21 0.25287118)
(-0.0025101242 -4.0074944e-20 0.24819723)
(-0.0029970171 -6.6691392e-20 0.23868659)
(-0.003519184 -3.3917476e-20 0.22487713)
(-0.0040609286 1.9087529e-20 0.20765962)
(-0.0046007894 2.751705e-20 0.18821197)
(-0.0051127158 4.2156453e-20 0.16786677)
(-0.0055686614 -3.3565607e-20 0.14793578)
(-0.0059421796 -7.0831994e-20 0.129535)
(-0.0062123812 -8.2693251e-20 0.11345738)
(-0.0063668766 -2.8693755e-20 0.10012188)
(-0.0064034461 -1.499309e-19 0.089599262)
(-0.0063292499 -5.2035738e-20 0.08169122)
(-0.0061595668 -4.741803e-20 0.076030753)
(-0.005913962 -1.5181203e-19 0.072176758)
(-0.0056152816 -3.8282466e-20 0.069687506)
(-0.0052840311 3.0052693e-20 0.068168411)
(-0.0049416787 8.4561107e-20 0.067296703)
(-0.0046010186 2.3296131e-20 0.066828155)
(-0.0042794525 8.7201371e-21 0.066591847)
(-0.0039771265 2.7010109e-20 0.066477518)
(-0.0037120963 1.3007973e-20 0.06642053)
(-0.0034673677 3.1168008e-20 0.066386361)
(-0.0032736062 2.6716541e-20 0.066359056)
(-0.0030871752 5.054014e-20 0.066331527)
(-0.0029705367 -1.4242899e-19 0.066301515)
(-0.0028344884 -2.8304613e-20 0.066268132)
(-0.0027997668 1.3653697e-20 0.066230597)
(-0.0027052063 -4.2715265e-20 0.066190809)
(-0.0027579011 -1.3227586e-20 0.066144334)
(-0.0027045011 -6.0462526e-20 0.066099365)
(-0.002848918 -1.4956041e-19 0.066031792)
(-0.0028602884 -2.8041417e-20 0.066016665)
(-0.003124446 -2.8143942e-20 0.066344549)
(-0.0032689606 -2.9257089e-20 0.067752584)
(-0.0033093418 -3.5210147e-20 0.065777685)
(-0.0016353915 -8.2547268e-20 0.037965798)
(-1.6189652e-06 -5.891824e-22 0.013805601)
(-1.2305263e-05 -2.1371405e-21 0.040764171)
(-3.3078129e-05 -5.5159935e-21 0.068221394)
(-6.7677203e-05 -1.944959e-21 0.09589985)
(-0.00011854531 -8.1609528e-23 0.12345996)
(-0.00018859837 1.1745699e-22 0.15049534)
(-0.00028106586 -1.993358e-21 0.17653031)
(-0.00039946703 -3.5997636e-21 0.20102095)
(-0.00054757187 1.4691116e-21 0.22336157)
(-0.00072932354 1.8448412e-20 0.24289879)
(-0.0009486996 1.8706151e-20 0.25895606)
(-0.0012094809 1.1924404e-19 0.2708712)
(-0.0015148885 4.806848e-20 0.27804911)
(-0.001867043 2.9147334e-20 0.28002969)
(-0.0022662173 -2.0943286e-21 0.27656736)
(-0.0027098834 1.3030472e-19 0.26771232)
(-0.0031916518 8.632968e-20 0.25387635)
(-0.0037003015 2.7397992e-20 0.23585986)
(-0.0042192757 -2.5210993e-20 0.21481689)
(-0.0047270313 -2.1031549e-21 0.19214627)
(-0.005198646 3.1252702e-20 0.16931995)
(-0.0056085726 -5.1744415e-20 0.14768604)
(-0.005934252 -4.9338268e-20 0.12829839)
(-0.0061593511 6.1056863e-20 0.1118167)
(-0.0062762667 -4.4372278e-20 0.09849411)
(-0.0062863503 -6.3739246e-20 0.088238801)
(-0.0061995395 5.1125677e-20 0.080717001)
(-0.0060310816 -4.2620127e-20 0.07546364)
(-0.0058007412 -7.5886302e-21 0.071976643)
(-0.005527166 3.7367731e-21 0.069784106)
(-0.0052309232 2.558762e-20 0.068483702)
(-0.0049247765 2.3168729e-20 0.067759276)
(-0.004626321 2.251824e-20 0.067380583)
(-0.00433664 -3.3425643e-21 0.06719306)
(-0.0040738234 -2.4206331e-20 0.067101116)
(-0.0038228256 1.3906732e-20 0.067052203)
(-0.0036128265 2.2068731e-20 0.067018875)
(-0.003405376 2.9207629e-20 0.066991739)
(-0.0032569542 -6.797786e-20 0.066963075)
(-0.0030925118 -3.1665093e-20 0.066938447)
(-0.003014377 2.2548396e-20 0.066906903)
(-0.0028947096 -3.101607e-20 0.066887507)
(-0.0028961752 -2.3423934e-20 0.066851843)
(-0.0028284542 -7.7673932e-20 0.06683977)
(-0.002918671 -1.1594505e-19 0.066793755)
(-0.0029225124 8.0654078e-20 0.066881711)
(-0.0031439808 -2.6076765e-20 0.06747842)
(-0.0032291627 -2.9442061e-20 0.068899102)
(-0.0030768225 -6.6566605e-20 0.064851015)
(-0.0013352338 -8.8597651e-20 0.034169916)
(-1.3990358e-06 -6.9690647e-22 0.014533234)
(-1.0754995e-05 -2.3618483e-21 0.042965801)
(-2.8926293e-05 -4.2617277e-21 0.071989393)
(-5.92463e-05 -2.5539982e-21 0.10132659)
(-0.00010391426 -7.4454557e-22 0.13063598)
(-0.00016557123 -1.2488253e-21 0.1595069)
(-0.00024716473 -6.6006641e-21 0.1874559)
(-0.00035193392 -1.9004385e-20 0.21392663)
(-0.00048338158 -4.7548119e-20 0.23829465)
(-0.00064521334 -1.6851018e-20 0.25987945)
(-0.00084122583 -4.9312478e-20 0.2779664)
(-0.0010751198 -8.6041878e-20 0.29184153)
(-0.0013502067 9.2607564e-21 0.30084144)
(-0.0016689713 4.0371821e-20 0.3044195)
(-0.0020324571 1.0616979e-19 0.30222598)
(-0.0024394603 1.2217563e-19 0.29419447)
(-0.002885579 8.1585406e-20 0.28061959)
(-0.0033622439 2.9308879e-20 0.26220398)
(-0.003856015 -2.7129247e-20 0.24004896)
(-0.0043484834 -1.3312725e-19 0.21557046)
(-0.0048172151 1.8426446e-19 0.19034072)
(-0.0052378023 1.008736e-19 0.16588415)
(-0.0055869885 -3.0684987e-20 0.14347801)
(-0.0058458755 1.2967894e-19 0.12401077)
(-0.006002876 5.2167961e-20 0.10792989)
(-0.0060547726 -6.3525146e-20 0.09527779)
(-0.0060071792 7.452564e-20 0.085787864)
(-0.0058720707 7.3469904e-20 0.079003165)
(-0.0056672181 4.1850019e-20 0.074386798)
(-0.0054109691 -7.4667391e-21 0.071406718)
(-0.0051245365 -4.7496386e-20 0.069590131)
(-0.0048229304 2.4946482e-20 0.068551364)
(-0.0045254258 2.9442348e-20 0.067998496)
(-0.0042366861 2.1785978e-20 0.067727507)
(-0.0039749859 -2.0977574e-20 0.06760583)
(-0.003729796 -2.1628418e-20 0.067557006)
(-0.0035260632 -1.1469258e-19 0.067537927)
(-0.0033326282 -1.0566421e-19 0.067532726)
(-0.0031938794 5.8698411e-20 0.06752793)
(-0.0030491999 -2.4298861e-20 0.067530083)
(-0.0029772858 2.3594721e-20 0.067524387)
(-0.0028762856 -2.9860037e-20 0.067532655)
(-0.0028734178 -2.2383947e-20 0.06752308)
(-0.0028137241 -6.0486281e-20 0.067535115)
(-0.0028880095 7.560554e-20 0.067528124)
(-0.0028840539 9.131103e-20 0.067722765)
(-0.0030790491 -2.5264053e-20 0.068550671)
(-0.0030908758 -3.2249126e-20 0.069688959)
(-0.0027774587 -5.2268834e-20 0.063499635)
(-0.0010703919 1.0882805e-20 0.030886339)
(-1.3226043e-06 1.32888e-21 0.015199351)
(-1.0003813e-05 2.1863092e-21 0.044980191)
(-2.6907664e-05 4.4569645e-21 0.075435292)
(-5.5088994e-05 1.0349343e-20 0.10628708)
(-9.6571337e-05 2.9461143e-20 0.13719247)
(-0.00015377912 1.0100571e-20 0.16773703)
(-0.00022941481 3.3226987e-21 0.19743078)
(-0.00032644771 1.7868861e-21 0.22570699)
(-0.0004480936 1.9369327e-21 0.25192577)
(-0.00059776816 -1.0856501e-20 0.27538428)
(-0.00077899921 -6.0126559e-20 0.29533665)
(-0.0009952773 -2.1999747e-19 0.31102626)
(-0.0012498176 -5.7293967e-20 0.32173323)
(-0.0015452001 -1.4958352e-20 0.3268387)
(-0.0018828566 1.7597595e-20 0.32590479)
(-0.0022623827 -8.3050006e-20 0.31876407)
(-0.0026806989 4.678827e-20 0.30560567)
(-0.0031311415 3.1217689e-20 0.28703713)
(-0.0036027035 5.597346e-20 0.26409613)
(-0.0040797012 -3.7221298e-20 0.23818915)
(-0.0045422852 -4.1135564e-20 0.21094972)
(-0.0049679498 1.3500383e-19 0.18403582)
(-0.0053341495 -1.6284424e-20 0.15891229)
(-0.0056212716 5.236616e-20 0.13667569)
(-0.0058156567 1.4378819e-19 0.11796448)
(-0.00591112 -5.9280994e-20 0.10296604)
(-0.0059098564 -1.0155822e-19 0.091499355)
(-0.0058206536 5.0068701e-20 0.083135812)
(-0.0056583856 9.479927e-20 0.077321653)
(-0.0054394958 6.3266684e-20 0.073478558)
(-0.0051834965 3.2689086e-20 0.07107279)
(-0.0049052622 5.501973e-20 0.069654583)
(-0.0046231351 5.3553442e-20 0.068872624)
(-0.004343485 2.5051313e-20 0.06847287)
(-0.0040831796 -4.8291039e-21 0.068284273)
(-0.0038354884 2.7731816e-20 0.068203297)
(-0.0036217371 -2.9319274e-20 0.068170147)
(-0.0034176583 -7.8918046e-20 0.068159119)
(-0.0032602539 7.5331321e-20 0.068153499)
(-0.003100127 -1.6958106e-20 0.068156216)
(-0.0030043507 1.0106646e-20 0.0681558)
(-0.0028856734 -2.9732044e-20 0.068167736)
(-0.0028573826 -2.9710791e-20 0.068168809)
(-0.0027783632 -3.9329517e-20 0.068187108)
(-0.0028280227 8.4239643e-20 0.068218189)
(-0.0028048745 -4.4735383e-21 0.068524398)
(-0.0029641432 -2.7273673e-20 0.069504228)
(-0.0028998101 -3.4553613e-20 0.07013947)
(-0.0024597503 -4.0407763e-20 0.061936011)
(-0.00085111209 1.640984e-20 0.028167667)
(-1.1994084e-06 7.494022e-22 0.015801865)
(-9.1058702e-06 2.3022059e-21 0.046803935)
(-2.4500615e-05 3.8122027e-21 0.078557744)
(-5.0189657e-05 1.4504734e-21 0.11078615)
(-8.8044034e-05 9.0888068e-22 0.14314521)
(-0.00014031272 2.2109013e-21 0.17521785)
(-0.00020951373 -7.5497092e-22 0.20650899)
(-0.00029842797 -3.4447425e-21 0.23644353)
(-0.0004100852 2.9130552e-21 0.26436867)
(-0.00054772773 2.3161411e-20 0.28956274)
(-0.00071473794 4.7178884e-20 0.31125316)
(-0.0009145119 1.1714722e-19 0.32864664)
(-0.0011502555 7.6411869e-21 0.34097439)
(-0.0014246727 -2.411374e-20 0.34755455)
(-0.0017395167 -1.1743244e-19 0.34787152)
(-0.0020949779 -8.6746796e-20 0.34166739)
(-0.0024889217 -2.4779697e-20 0.32903421)
(-0.0029160303 2.8954124e-20 0.31048768)
(-0.0033670216 3.2967042e-20 0.28699637)
(-0.0038281805 1.3753532e-19 0.25994093)
(-0.0042815819 -8.9932264e-20 0.23098974)
(-0.0047062042 1.6283808e-20 0.20190252)
(-0.0050801278 -3.5397024e-23 0.17430211)
(-0.0053832571 5.9600783e-21 0.1494729)
(-0.0056003135 -7.9552532e-20 0.12823713)
(-0.0057226846 2.7586988e-20 0.11093226)
(-0.0057497161 -7.7848788e-20 0.097476436)
(-0.0056875539 -6.5292735e-20 0.087486543)
(-0.0055488227 2.2685469e-20 0.080408854)
(-0.0053487112 2.9717317e-20 0.075632856)
(-0.0051059677 4.0008121e-20 0.072574124)
(-0.0048360581 -1.7760009e-20 0.070724978)
(-0.0045576585 7.2435306e-20 0.069677406)
(-0.0042791808 2.6702091e-20 0.069126931)
(-0.0040176864 -3.0524864e-20 0.068861958)
(-0.0037692589 -6.4590531e-20 0.068748249)
(-0.0035538214 2.1654821e-19 0.068706411)
(-0.003350289 1.6456386e-19 0.06869728)
(-0.0031918979 2.4636476e-20 0.068699639)
(-0.0030328549 -1.2076532e-21 0.068710309)
(-0.0029345742 1.1184196e-21 0.068721019)
(-0.0028139895 -2.8594663e-20 0.06873995)
(-0.0027777912 -1.2966054e-20 0.06875162)
(-0.0026910442 -5.4206301e-20 0.068778811)
(-0.0027251495 -1.7894908e-19 0.068852473)
(-0.0026896293 2.0722176e-21 0.069270454)
(-0.0028092342 -2.8376378e-20 0.070308538)
(-0.002676508 -4.9789548e-20 0.070289797)
(-0.0021452458 -3.950228e-20 0.060285468)
(-0.0006705195 -9.839762e-20 0.025935645)
(-1.1345937e-06 4.3302292e-22 0.01636194)
(-8.5419655e-06 7.0347945e-22 0.048498938)
(-2.2985552e-05 1.2492054e-21 0.08145938)
(-4.7079824e-05 2.0353157e-21 0.11496655)
(-8.2573998e-05 -6.29424e-22 0.1486758)
(-0.0001315692 3.5898798e-21 0.18216781)
(-0.00019641819 1.7350706e-21 0.21494321)
(-0.00027972169 2.1327329e-21 0.24641972)
(-0.00038431896 1.9324676e-21 0.27593359)
(-0.00051325967 3.2063979e-21 0.30274704)
(-0.00066974528 -1.2194133e-20 0.32606462)
(-0.00085702407 -2.2391893e-20 0.34506145)
(-0.0010782185 1.8776859e-20 0.35892632)
(-0.0013360572 1.9901193e-20 0.36692227)
(-0.0016324823 -3.2815712e-20 0.36846496)
(-0.0019681052 -4.3162854e-20 0.36321517)
(-0.0023415136 1.9557172e-20 0.35117576)
(-0.0027484646 1.3408005e-20 0.33277482)
(-0.0031811059 8.1933566e-21 0.3089098)
(-0.0036274219 2.4454514e-20 0.28092523)
(-0.0040712541 -2.0312213e-21 0.25050569)
(-0.0044931095 -2.2197023e-20 0.21948842)
(-0.0048720085 -8.8367365e-20 0.18962987)
(-0.005187949 3.5819878e-20 0.16238337)
(-0.0054248027 6.1251267e-20 0.13874538)
(-0.0055723269 -7.0492578e-20 0.11920356)
(-0.0056277192 -5.0387605e-20 0.10378266)
(-0.0055948766 -3.4444273e-20 0.092156283)
(-0.0054842685 -7.5370795e-21 0.083782518)
(-0.0053093996 -1.8522243e-20 0.078029091)
(-0.0050876332 -1.4513299e-20 0.074269112)
(-0.0048338197 -7.0821205e-21 0.071942836)
(-0.0045661046 2.2353025e-20 0.070589136)
(-0.0042933902 2.1654583e-20 0.069854715)
(-0.0040326945 -4.7936125e-21 0.0694873)
(-0.0037814499 -3.0692573e-20 0.069320863)
(-0.003559342 3.2107185e-20 0.069254472)
(-0.0033472065 8.6928638e-20 0.069234348)
(-0.0031771834 3.2348278e-20 0.069232799)
(-0.0030061651 2.4150231e-21 0.069241365)
(-0.002892863 2.339143e-20 0.069252324)
(-0.0027587735 -2.8562416e-20 0.069270257)
(-0.0027044313 -1.2011864e-20 0.069282935)
(-0.0026046202 -4.4928691e-20 0.069317747)
(-0.0026173388 -1.348362e-19 0.069433703)
(-0.0025694636 -1.9340333e-20 0.06994947)
(-0.0026439109 -2.2068349e-20 0.070952003)
(-0.0024538099 -3.8449295e-20 0.07018952)
(-0.0018605036 -1.9194084e-20 0.058622849)
(-0.00052730663 -8.0510202e-20 0.024097027)
(-1.0557624e-06 7.3423402e-22 0.016880753)
(-7.9525982e-06 1.537027e-23 0.050069873)
(-2.140441e-05 -7.6112367e-22 0.084149914)
(-4.3855249e-05 -2.5059649e-21 0.11884484)
(-7.6947716e-05 2.3144039e-20 0.15380969)
(-0.00012265836 -2.8715954e-21 0.1886235)
(-0.00018320598 -4.1051611e-20 0.22278337)
(-0.0002610504 -1.5014128e-20 0.25570101)
(-0.00035888692 -3.970467e-21 0.28670323)
(-0.00047962406 1.9738054e-21 0.31503824)
(-0.00062633441 -1.2661261e-20 0.33989057)
(-0.00080216451 -1.0458819e-19 0.36040745)
(-0.0010101846 -2.8322239e-20 0.3757401)
(-0.0012531523 2.6949155e-20 0.38510236)
(-0.0015331629 1.9455988e-19 0.38784798)
(-0.0018511581 -1.8620801e-19 0.38356367)
(-0.0022062891 1.1461239e-19 0.37216949)
(-0.0025951557 1.348814e-19 0.3540098)
(-0.0030110368 2.8518414e-20 0.32991018)
(-0.0034432808 -2.6411683e-20 0.30117188)
(-0.0038771752 -2.0190908e-20 0.26948167)
(-0.0042945135 -2.6077525e-20 0.23673519)
(-0.0046751527 -1.8961958e-19 0.20480212)
(-0.004999233 -1.487107e-19 0.17528789)
(-0.0052499654 3.1420158e-20 0.14935344)
(-0.0054157354 6.2423005e-20 0.12763505)
(-0.0054918927 1.3122524e-19 0.11026928)
(-0.0054803591 3.8140357e-20 0.096995734)
(-0.0053897652 7.892762e-20 0.087294898)
(-0.0052322083 -7.3908249e-21 0.080522621)
(-0.0050240759 -2.3538502e-20 0.076017597)
(-0.0047799022 -3.0073031e-20 0.073173906)
(-0.0045178093 3.2668135e-20 0.071480918)
(-0.004247388 2.4960212e-20 0.070538243)
(-0.0039860893 1.9214781e-20 0.070052733)
(-0.0037326526 8.5873227e-20 0.069825523)
(-0.003506723 -1.502634e-19 0.069731712)
(-0.0032908323 -1.2820488e-19 0.069701491)
(-0.0031154332 -7.7697248e-21 0.069697784)
(-0.0029402536 -2.1663273e-20 0.069707175)
(-0.0028191947 -1.6552826e-19 0.069719305)
(-0.0026801866 -4.4750385e-20 0.069738145)
(-0.0026134815 -1.1070804e-20 0.069751653)
(-0.0025084117 -6.1436404e-20 0.069798944)
(-0.0025030124 -2.0685541e-19 0.069959984)
(-0.0024474371 4.631684e-21 0.070552829)
(-0.0024774146 -1.8646246e-20 0.071439704)
(-0.0022414139 -5.4894375e-20 0.069894726)
(-0.0016109307 -1.3220239e-19 0.057005664)
(-0.00041459088 -5.7523951e-20 0.022596541)
(-1.002797e-06 -2.0379226e-22 0.017368359)
(-7.5188312e-06 -1.7805828e-22 0.051546292)
(-2.0238914e-05 -4.1834846e-22 0.086678562)
(-4.1466694e-05 -1.7769432e-21 0.12248983)
(-7.2754847e-05 -1.4418772e-21 0.15863495)
(-0.0001159715 2.5948814e-21 0.19469158)
(-0.00017321492 9.261574e-22 0.2301538)
(-0.00024681391 -1.3568333e-21 0.26442811)
(-0.00033932478 3.2461303e-21 0.29683309)
(-0.00045351419 5.5116201e-21 0.32660467)
(-0.00059231845 -1.7325587e-21 0.35290973)
(-0.00075876654 -1.325003e-20 0.3748709)
(-0.00095584956 -5.5512367e-21 0.39160594)
(-0.0011863125 -1.5731491e-20 0.40228468)
(-0.0014523427 1.3226861e-20 0.40620498)
(-0.0017551247 -5.0943794e-21 0.40288589)
(-0.0020942557 -1.3201655e-20 0.3921706)
(-0.0024670287 5.6954674e-20 0.37432382)
(-0.0028676818 5.8761662e-20 0.35009974)
(-0.0032867538 1.003632e-20 0.32075157)
(-0.0037108407 2.0086489e-20 0.28795762)
(-0.0041229669 7.1881e-20 0.25365656)
(-0.0045038944 -2.5811954e-20 0.21981406)
(-0.0048341146 -1.2223882e-19 0.18817246)
(-0.0050965075 -6.656507e-20 0.16004735)
(-0.0052784837 -1.1599834e-20 0.13622053)
(-0.0053739369 7.6841878e-21 0.11694322)
(-0.005383128 3.4183702e-20 0.10202762)
(-0.0053130224 2.2475272e-20 0.090984681)
(-0.005174316 6.6327988e-20 0.083166135)
(-0.0049822217 -1.8063612e-21 0.077882797)
(-0.0047506293 -5.2687146e-21 0.074487624)
(-0.0044971157 2.403426e-20 0.072423977)
(-0.0042315398 3.3248584e-20 0.071246557)
(-0.0039711557 3.1932103e-21 0.070622083)
(-0.0037159591 2.2971547e-20 0.070318776)
(-0.0034849608 -7.1393841e-20 0.070186537)
(-0.0032631989 -8.6752824e-20 0.070138593)
(-0.0030786427 -2.4547403e-20 0.070126721)
(-0.0028958637 -2.5240101e-20 0.07013241)
(-0.0027623702 -1.1424122e-19 0.070141208)
(-0.0026157647 -8.1271356e-20 0.070157833)
(-0.002533289 -1.2897943e-20 0.070170257)
(-0.0024225033 -4.0627737e-20 0.070231817)
(-0.0023978186 -1.2828811e-19 0.070437431)
(-0.0023343256 3.313996e-21 0.071079572)
(-0.0023215269 -1.9867549e-20 0.071784623)
(-0.002048688 -5.203778e-20 0.069452064)
(-0.0013994447 -1.3228658e-19 0.055458372)
(-0.00032768284 -5.1762291e-20 0.021361941)
(-9.4732717e-07 -2.1861359e-22 0.017826859)
(-7.0982238e-06 1.502501e-21 0.052934977)
(-1.9109707e-05 4.2515791e-21 0.089057584)
(-3.9160494e-05 1.1251496e-20 0.12592015)
(-6.8723784e-05 8.6571802e-21 0.16317755)
(-0.00010957376 1.7141012e-20 0.20040637)
(-0.00016370632 4.3327653e-20 0.23709818)
(-0.0002333407 1.3249451e-20 0.27265493)
(-0.00032091875 9.2443825e-21 0.30638797)
(-0.00042909148 2.3173529e-20 0.33752232)
(-0.00056068455 5.1108628e-20 0.36520911)
(-0.00071863131 1.4243617e-19 0.38854888)
(-0.00090585745 2.0109293e-20 0.40662926)
(-0.0011250951 -2.5789841e-20 0.4185802)
(-0.0013786015 -1.1913248e-19 0.42364859)
(-0.001667754 6.4956443e-20 0.4212912)
(-0.0019925083 -1.46011e-19 0.41127952)
(-0.0023507241 -1.0820916e-19 0.39380242)
(-0.0027374354 -4.6370229e-20 0.3695437)
(-0.0031441853 -2.0472442e-19 0.33970532)
(-0.0035586974 -2.5947732e-20 0.30594887)
(-0.0039650882 2.9793134e-20 0.27024342)
(-0.0043449596 1.3011022e-19 0.2346358)
(-0.0046791853 5.2823893e-20 0.20099162)
(-0.0049504303 -1.1093549e-19 0.17077164)
(-0.0051453087 5.8313124e-21 0.14489937)
(-0.0052564496 -1.2811666e-19 0.1237423)
(-0.0052826491 -2.2691325e-20 0.10719061)
(-0.0052293643 -8.5882138e-20 0.094792776)
(-0.005106067 -1.1023135e-20 0.085903566)
(-0.0049269118 -3.9648292e-20 0.079812113)
(-0.0047053492 -2.6437444e-20 0.075835104)
(-0.0044584625 8.7401451e-20 0.07337332)
(-0.0041966364 1.5265506e-19 0.071938667)
(-0.003936796 2.5563195e-20 0.071158609)
(-0.0036805485 2.9079967e-20 0.070768318)
(-0.0034457906 1.2957222e-19 0.070591541)
(-0.0032206352 5.0892482e-20 0.070523208)
(-0.0030295825 -2.4525583e-20 0.070502552)
(-0.0028429236 2.4016739e-20 0.070504801)
(-0.0027003272 1.4409454e-19 0.070510912)
(-0.0025501771 -6.4930831e-20 0.07052609)
(-0.0024554259 -1.1043239e-20 0.070539935)
(-0.0023423669 -3.3124056e-20 0.07061904)
(-0.0023015451 6.4029921e-20 0.070868041)
(-0.0022312112 3.2401973e-20 0.071530406)
(-0.0021802451 -2.2892022e-20 0.072002675)
(-0.0018785187 -5.3761085e-20 0.068900772)
(-0.0012236573 2.5608874e-20 0.053993335)
(-0.00026129276 -3.4491093e-20 0.020339443)
(-9.0422643e-07 6.4422214e-23 0.01826151)
(-6.7569206e-06 1.6693622e-22 0.054251483)
(-1.819256e-05 4.2053345e-22 0.091313058)
(-3.7282378e-05 1.3865755e-21 0.12917252)
(-6.5430196e-05 6.7124273e-21 0.16748487)
(-0.00010432696 4.408089e-21 0.20582581)
(-0.00015587605 1.8384398e-21 0.24368472)
(-0.00022219617 2.6455363e-21 0.28045955)
(-0.00030562208 1.5810417e-20 0.31545521)
(-0.00040869437 5.1243099e-21 0.34788699)
(-0.00053413046 -5.6669848e-21 0.37689188)
(-0.00068476635 2.1401377e-20 0.40155051)
(-0.00086345451 2.2061545e-20 0.42092325)
(-0.0010728975 5.0241116e-21 0.43410379)
(-0.0013153931 -4.5476015e-21 0.44029238)
(-0.0015924641 9.1013689e-21 0.43888827)
(-0.0019043567 2.0464954e-21 0.42959599)
(-0.0022494045 1.5158239e-20 0.4125323)
(-0.0026233235 2.4076922e-20 0.38831212)
(-0.0030185381 -2.9984799e-20 0.35808411)
(-0.0034237865 -4.1685572e-20 0.32348682)
(-0.0038242041 2.3705337e-20 0.28650924)
(-0.0042022273 -3.1417806e-20 0.24926664)
(-0.0045391935 1.7438823e-20 0.21373555)
(-0.0048177126 5.9907563e-20 0.18151268)
(-0.0050238233 -1.339364e-20 0.15365897)
(-0.0051491195 -3.0448984e-20 0.13065864)
(-0.0051911525 -1.5067268e-20 0.11248381)
(-0.0051540144 -2.9764958e-20 0.098726237)
(-0.0050460486 -3.479903e-20 0.0887497)
(-0.004880308 -1.9773802e-20 0.081826931)
(-0.0046697467 2.8119946e-20 0.077242573)
(-0.0044307105 -2.564923e-20 0.074357967)
(-0.0041739854 4.8059474e-20 0.072644324)
(-0.0039157978 3.1933943e-20 0.07169106)
(-0.0036593635 -2.2929182e-20 0.071200576)
(-0.0034211083 2.9081493e-20 0.070970169)
(-0.0031924988 2.8854521e-20 0.070875454)
(-0.0029943507 1.93293e-20 0.070842371)
(-0.0028031237 2.9999008e-20 0.070838585)
(-0.0026507498 1.1961597e-19 0.070840698)
(-0.0024964632 -4.0566431e-20 0.070853591)
(-0.0023897829 -1.3789396e-20 0.07087063)