/*--------------------------------*- C++ -*----------------------------------*\
| =========                 |                                                 |
| \\      /  F ield         | OpenFOAM: The Open Source CFD Toolbox           |
|  \\    /   O peration     | Version:  3.0.1                                 |
|   \\  /    A nd           | Web:      www.OpenFOAM.org                      |
|    \\/     M anipulation  |                                                 |
\*---------------------------------------------------------------------------*/
FoamFile
{
    version     2.0;
    format      ascii;
    class       volScalarField;
    location    "10000/solid";
    object      T;
}
// * * * * * * * * * * * * * * * * * * * * * * * * * * * * * * * * * * * * * //

dimensions      [0 0 0 1 0 0 0];

internalField   nonuniform List<scalar> 
400
(
422.4755
422.42416
422.3112
422.13952
428.71562
428.67266
428.57815
428.4346
434.55949
434.51737
434.42471
434.28391
439.33954
439.2973
439.20436
439.06315
443.15337
443.11087
443.01737
442.87531
446.20222
446.15949
446.06549
445.92265
448.66931
448.6264
448.532
448.38856
450.69771
450.65466
450.55997
450.41608
452.39375
452.3506
452.25569
452.11148
453.83519
453.79198
453.69691
453.55246
455.07884
455.03557
454.94039
454.79577
456.16641
456.12311
456.02784
455.88308
457.12889
457.08555
456.99022
456.84537
457.98956
457.94621
457.85083
457.7059
458.7662
458.72283
458.62741
458.48243
459.47255
459.42916
459.33371
459.18868
460.11937
460.07598
459.9805
459.83544
460.71525
460.67185
460.57636
460.43126
461.26709
461.22368
461.12818
460.98306
461.78053
461.73711
461.64159
461.49646
462.2602
462.21677
462.12125
461.9761
462.70997
462.66655
462.57101
462.42585
463.13312
463.08969
462.99414
462.84897
463.53238
463.48895
463.3934
463.24822
463.91014
463.86671
463.77115
463.62596
464.26843
464.22499
464.12943
463.98423
464.60901
464.56557
464.47001
464.3248
464.93343
464.88999
464.79442
464.64921
465.24303
465.19959
465.10402
464.95881
465.53903
465.49558
465.40001
465.25479
465.82246
465.77902
465.68344
465.53822
466.09428
466.05084
465.95526
465.81004
466.35533
466.31189
466.21631
466.07108
466.60637
466.56292
466.46734
466.32211
466.84807
466.80462
466.70904
466.56381
467.08106
467.03761
466.94203
466.79679
467.30588
467.26243
467.16685
467.02162
467.52306
467.47961
467.38403
467.23879
467.73305
467.6896
467.59401
467.44878
467.93627
467.89282
467.79724
467.652
468.13312
468.08967
467.99409
467.84885
468.32395
468.2805
468.18491
468.03967
468.50909
468.46564
468.37005
468.22481
468.68884
468.64539
468.5498
468.40456
468.86348
468.82003
468.72444
468.5792
469.03327
468.98982
468.89423
468.74899
469.19845
469.155
469.05941
468.91417
469.35925
469.3158
469.22021
469.07497
469.51587
469.47242
469.37683
469.23159
469.66851
469.62506
469.52947
469.38422
469.81735
469.7739
469.67831
469.53306
469.96255
469.9191
469.82351
469.67826
470.10428
470.06083
469.96524
469.82
470.24269
470.19924
470.10365
469.9584
470.37791
470.33446
470.23887
470.09362
470.51008
470.46663
470.37104
470.22579
470.63932
470.59587
470.50028
470.35503
470.76574
470.72229
470.6267
470.48145
470.88947
470.84602
470.75042
470.60518
471.01059
470.96714
470.87155
470.7263
471.12921
471.08576
470.99017
470.84492
471.24542
471.20197
471.10638
470.96113
471.35931
471.31586
471.22027
471.07502
471.47097
471.42752
471.33192
471.18668
471.58046
471.53701
471.44142
471.29617
471.68787
471.64442
471.54883
471.40358
471.79327
471.74982
471.65423
471.50898
471.89673
471.85328
471.75768
471.61244
471.9983
471.95485
471.85926
471.71401
472.09806
472.05461
471.95902
471.81377
472.19606
472.15261
472.05701
471.91177
472.29235
472.2489
472.15331
472.00806
472.38699
472.34354
472.24795
472.1027
472.48004
472.43658
472.34099
472.19574
472.57153
472.52808
472.43248
472.28724
472.66151
472.61806
472.52247
472.37722
472.75004
472.70659
472.611
472.46575
472.83715
472.7937
472.69811
472.55286
472.92289
472.87944
472.78385
472.6386
473.00729
472.96384
472.86824
472.723
473.09039
473.04693
472.95134
472.8061
473.17222
473.12877
473.03318
472.88793
473.25283
473.20938
473.11379
472.96854
473.33226
473.2888
473.19321
473.04797
473.41052
473.36707
473.27148
473.12623
473.48767
473.44422
473.34863
473.20338
473.56375
473.5203
473.42471
473.27946
473.63883
473.59538
473.49978
473.35454
473.71298
473.66953
473.57393
473.42869
473.78635
473.7429
473.64731
473.50206
473.85919
473.81574
473.72014
473.57489
473.93194
473.88849
473.79289
473.64764
474.00543
473.96197
473.86637
473.72111
474.08114
474.03768
473.94207
473.7968
474.16172
474.11826
474.02264
473.87735
474.25153
474.20806
474.11242
473.96711
474.35683
474.31335
474.2177
474.07237
474.4827
474.43922
474.34357
474.19823
474.63074
474.58732
474.49182
474.3467
474.74785
474.70455
474.60928
474.46452
)
;

boundaryField
{
    CHTLeftWedge
    {
        type            wedge;
    }
    CHTRightWedge
    {
        type            wedge;
    }
    defaultFaces
    {
        type            empty;
    }
    solid_to_fluid
    {
        type            compressible::turbulentTemperatureRadCoupledMixed;
        refValue        nonuniform List<scalar> 
100
(
394.55213
408.54037
416.10173
421.69113
426.04405
429.50984
432.32391
434.65133
436.60997
438.2848
439.73768
441.01416
442.14827
443.16576
444.08643
444.92567
445.69567
446.40616
447.06503
447.67877
448.25272
448.79137
449.29851
449.77736
450.23068
450.66087
451.07
451.45988
451.83211
452.1881
452.52911
452.85624
453.1705
453.47279
453.76391
454.04459
454.31551
454.57726
454.8304
455.07543
455.31282
455.54298
455.76632
455.98319
456.19392
456.39883
456.59821
456.79232
456.98141
457.16571
457.34544
457.52081
457.692
457.85919
458.02255
458.18224
458.3384
458.49117
458.64069
458.78709
458.93047
459.07095
459.20863
459.34362
459.47601
459.6059
459.73335
459.85847
459.98132
460.10197
460.22051
460.33699
460.45149
460.56405
460.67475
460.78363
460.89075
460.99616
461.09992
461.20206
461.30263
461.40168
461.49925
461.59539
461.69012
461.78351
461.87559
461.96642
462.0561
462.14474
462.23255
462.31993
462.4076
462.49691
462.59058
462.69367
462.8166
462.96739
463.19498
463.41563
)
;
        refGradient     nonuniform List<scalar> 
100
(
-88.121779
-95.166605
-101.97986
-107.75295
-112.49465
-116.37409
-119.57213
-122.2415
-124.5015
-126.44249
-128.13219
-129.62132
-130.94815
-132.14182
-133.22478
-134.21453
-135.12493
-135.96705
-136.74986
-137.48074
-138.16577
-138.81006
-139.41792
-139.99303
-140.53852
-141.05714
-141.55125
-142.02293
-142.474
-142.90609
-143.32061
-143.71887
-144.10201
-144.47106
-144.82695
-145.17053
-145.50258
-145.82378
-146.13478
-146.43617
-146.72847
-147.0122
-147.28779
-147.55568
-147.81625
-148.06986
-148.31686
-148.55756
-148.79224
-149.02118
-149.24464
-149.46285
-149.67603
-149.88441
-150.08816
-150.28749
-150.48256
-150.67355
-150.8606
-151.04386
-151.22348
-151.39958
-151.5723
-151.74174
-151.90802
-152.07126
-152.23154
-152.38898
-152.54366
-152.69566
-152.84508
-152.99199
-153.13647
-153.2786
-153.41844
-153.55606
-153.69153
-153.8249
-153.95624
-154.0856
-154.21304
-154.33861
-154.46237
-154.58436
-154.70463
-154.82325
-154.94029
-155.05583
-155.17
-155.28302
-155.39528
-155.50744
-155.62078
-155.73758
-155.86194
-156.00057
-156.16324
-156.35791
-156.58797
-156.7709
)
;
        valueFraction   nonuniform List<scalar> 
100
(
0.0027781016
0.0028073104
0.0028341779
0.0028559802
0.002873279
0.0028870499
0.0028981568
0.0029072648
0.0029148641
0.0029213113
0.0029268653
0.0029317159
0.0029360036
0.0029398339
0.002943287
0.0029464249
0.0029492962
0.0029519395
0.0029543858
0.0029566605
0.0029587844
0.0029607749
0.0029626466
0.0029644118
0.0029660812
0.0029676639
0.0029691678
0.0029705998
0.0029719659
0.0029732715
0.0029745212
0.0029757194
0.0029768698
0.0029779757
0.0029790401
0.002980066
0.0029810556
0.0029820113
0.0029829352
0.0029838291
0.0029846947
0.0029855337
0.0029863475
0.0029871374
0.0029879048
0.0029886507
0.0029893762
0.0029900823
0.0029907699
0.00299144
0.0029920932
0.0029927304
0.0029933522
0.0029939594
0.0029945525
0.0029951321
0.0029956988
0.0029962531
0.0029967954
0.0029973263
0.0029978461
0.0029983553
0.0029988543
0.0029993434
0.002999823
0.0030002934
0.003000755
0.003001208
0.0030016526
0.0030020893
0.0030025183
0.0030029397
0.0030033538
0.003003761
0.0030041612
0.0030045549
0.0030049421
0.0030053231
0.0030056981
0.0030060672
0.0030064305
0.0030067883
0.0030071407
0.0030074879
0.00300783
0.0030081672
0.0030084996
0.0030088277
0.0030091517
0.0030094722
0.0030097904
0.0030101082
0.0030104291
0.0030107596
0.0030111114
0.0030115032
0.0030119627
0.0030125122
0.0030131609
0.0030136762
)
;
        value           nonuniform List<scalar> 
100
(
422.02949
428.3427
434.19374
438.9727
442.78432
445.83116
448.29669
450.32392
452.01911
453.45994
454.70313
455.79036
456.75258
457.61306
458.38956
459.09578
459.74252
460.33832
460.8901
461.40349
461.88311
462.33286
462.75597
463.15521
463.53295
463.89122
464.23178
464.55619
464.86578
465.16176
465.44519
465.717
465.97805
466.22907
466.47077
466.70375
466.92857
467.14574
467.35573
467.55895
467.7558
467.94662
468.13176
468.31151
468.48615
468.65593
468.82112
468.98191
469.13853
469.29117
469.44
469.58521
469.72694
469.86534
470.00056
470.13273
470.26197
470.38839
470.51212
470.63324
470.75186
470.86807
470.98196
471.09361
471.20311
471.31052
471.41592
471.51937
471.62095
471.72071
471.8187
471.915
472.00964
472.10268
472.19417
472.28416
472.37269
472.4598
472.54553
472.62993
472.71303
472.79487
472.87548
472.9549
473.03317
473.11032
473.1864
473.26147
473.33562
473.40899
473.48182
473.55457
473.62804
473.70372
473.78426
473.874
473.97924
474.1051
474.25371
474.37177
)
;
        Tnbr            T;
        QrNbr           Qr;
        Qr              none;
        thicknessLayers 0();
        kappaLayers     0();
        kappa           solidThermo;
        kappaName       none;
    }
}


// ************************************************************************* //
