/*--------------------------------*- C++ -*----------------------------------*\
| =========                 |                                                 |
| \\      /  F ield         | OpenFOAM: The Open Source CFD Toolbox           |
|  \\    /   O peration     | Version:  4.0                                   |
|   \\  /    A nd           | Web:      www.OpenFOAM.org                      |
|    \\/     M anipulation  |                                                 |
\*---------------------------------------------------------------------------*/
FoamFile
{
    version     2.0;
    format      ascii;
    class       volScalarField;
    location    "4000/cilcen";
    object      T;
}
// * * * * * * * * * * * * * * * * * * * * * * * * * * * * * * * * * * * * * //

dimensions      [0 0 0 1 0 0 0];

internalField   nonuniform List<scalar> 
1000
(
309.84177
309.83849
309.83337
309.82797
309.82294
309.81854
309.81483
309.81177
309.8093
309.80732
310.55609
310.55364
310.54982
310.54579
310.54204
310.53876
310.536
310.53373
310.53188
310.53041
311.17581
311.17337
311.16956
311.16554
311.16179
311.15852
311.15575
311.15348
311.15164
311.15017
311.6963
311.69384
311.69
311.68595
311.68217
311.67887
311.67609
311.6738
311.67194
311.67046
312.13574
312.13326
312.1294
312.12532
312.12153
312.11821
312.11541
312.1131
312.11124
312.10975
312.50794
312.50545
312.50156
312.49747
312.49365
312.49031
312.4875
312.48518
312.48331
312.4818
312.82575
312.82325
312.81934
312.81523
312.8114
312.80805
312.80522
312.8029
312.80101
312.79951
313.09906
313.09655
313.09264
313.08851
313.08467
313.0813
313.07847
313.07613
313.07424
313.07273
313.33641
313.3339
313.32997
313.32583
313.32198
313.31861
313.31576
313.31342
313.31153
313.31001
313.54433
313.54181
313.53787
313.53373
313.52986
313.52648
313.52363
313.52129
313.51939
313.51787
313.72819
313.72567
313.72173
313.71757
313.7137
313.71032
313.70746
313.70511
313.70321
313.70169
313.89215
313.88962
313.88567
313.88151
313.87764
313.87425
313.87139
313.86904
313.86713
313.86561
314.03957
314.03704
314.03309
314.02893
314.02505
314.02165
314.01879
314.01644
314.01453
314.013
314.17311
314.17058
314.16662
314.16245
314.15857
314.15517
314.15231
314.14995
314.14805
314.14652
314.29491
314.29237
314.28841
314.28424
314.28036
314.27696
314.27409
314.27173
314.26982
314.26829
314.40668
314.40414
314.40018
314.39601
314.39212
314.38872
314.38585
314.38349
314.38158
314.38005
314.50983
314.5073
314.50334
314.49916
314.49527
314.49187
314.489
314.48664
314.48473
314.4832
314.60552
314.60298
314.59902
314.59484
314.59095
314.58755
314.58468
314.58231
314.5804
314.57887
314.69468
314.69214
314.68818
314.684
314.68011
314.6767
314.67383
314.67147
314.66956
314.66803
314.77811
314.77557
314.77161
314.76743
314.76353
314.76013
314.75726
314.75489
314.75298
314.75145
314.85647
314.85393
314.84996
314.84578
314.84189
314.83848
314.83561
314.83324
314.83133
314.8298
314.9303
314.92776
314.9238
314.91962
314.91572
314.91231
314.90944
314.90708
314.90516
314.90363
315.0001
314.99756
314.99359
314.98941
314.98551
314.9821
314.97923
314.97687
314.97495
314.97342
315.06625
315.06371
315.05974
315.05556
315.05166
315.04826
315.04538
315.04302
315.0411
315.03957
315.12911
315.12657
315.1226
315.11842
315.11453
315.11112
315.10824
315.10588
315.10396
315.10243
315.18899
315.18645
315.18248
315.17829
315.1744
315.17099
315.16811
315.16575
315.16383
315.1623
315.24613
315.24359
315.23962
315.23544
315.23154
315.22813
315.22526
315.22289
315.22098
315.21944
315.30078
315.29824
315.29427
315.29009
315.28619
315.28278
315.2799
315.27754
315.27562
315.27409
315.35314
315.35059
315.34662
315.34244
315.33854
315.33513
315.33226
315.32989
315.32797
315.32644
315.40338
315.40083
315.39686
315.39268
315.38878
315.38537
315.38249
315.38013
315.37821
315.37668
315.45166
315.44911
315.44514
315.44096
315.43706
315.43365
315.43077
315.42841
315.42649
315.42496
315.49812
315.49558
315.49161
315.48742
315.48352
315.48011
315.47724
315.47487
315.47296
315.47142
315.5429
315.54036
315.53639
315.5322
315.5283
315.52489
315.52202
315.51965
315.51773
315.5162
315.5861
315.58356
315.57959
315.5754
315.57151
315.56809
315.56522
315.56285
315.56094
315.5594
315.62784
315.62529
315.62132
315.61714
315.61324
315.60983
315.60695
315.60458
315.60267
315.60113
315.66819
315.66565
315.66168
315.65749
315.65359
315.65018
315.64731
315.64494
315.64302
315.64149
315.70726
315.70471
315.70074
315.69656
315.69266
315.68925
315.68637
315.684
315.68209
315.68055
315.74511
315.74256
315.73859
315.7344
315.7305
315.72709
315.72422
315.72185
315.71993
315.7184
315.78181
315.77926
315.77529
315.77111
315.76721
315.7638
315.76092
315.75855
315.75664
315.7551
315.81743
315.81489
315.81092
315.80673
315.80283
315.79942
315.79654
315.79417
315.79226
315.79072
315.85203
315.84949
315.84552
315.84133
315.83743
315.83402
315.83114
315.82878
315.82686
315.82532
315.88567
315.88312
315.87915
315.87497
315.87107
315.86766
315.86478
315.86241
315.86049
315.85896
315.91839
315.91584
315.91187
315.90769
315.90379
315.90038
315.8975
315.89513
315.89321
315.89168
315.95024
315.94769
315.94372
315.93954
315.93564
315.93223
315.92935
315.92698
315.92506
315.92353
315.98126
315.97872
315.97475
315.97056
315.96666
315.96325
315.96037
315.95801
315.95609
315.95455
316.0115
316.00896
316.00499
316.0008
315.9969
315.99349
315.99061
315.98824
315.98633
315.98479
316.04099
316.03845
316.03448
316.03029
316.02639
316.02298
316.0201
316.01773
316.01582
316.01428
316.06977
316.06722
316.06325
316.05906
316.05516
316.05175
316.04888
316.04651
316.04459
316.04306
316.09786
316.09532
316.09135
316.08716
316.08326
316.07985
316.07697
316.0746
316.07268
316.07115
316.1253
316.12276
316.11879
316.1146
316.1107
316.10729
316.10441
316.10204
316.10013
316.09859
316.15212
316.14958
316.14561
316.14142
316.13752
316.13411
316.13123
316.12886
316.12694
316.12541
316.17834
316.1758
316.17183
316.16764
316.16374
316.16033
316.15745
316.15508
316.15317
316.15163
316.20399
316.20145
316.19748
316.19329
316.18939
316.18598
316.1831
316.18073
316.17882
316.17728
316.22909
316.22655
316.22258
316.21839
316.21449
316.21108
316.2082
316.20583
316.20392
316.20238
316.25367
316.25112
316.24715
316.24296
316.23906
316.23565
316.23278
316.23041
316.22849
316.22696
316.27774
316.27519
316.27122
316.26703
316.26313
316.25972
316.25684
316.25448
316.25256
316.25102
316.30132
316.29877
316.2948
316.29061
316.28671
316.2833
316.28043
316.27806
316.27614
316.27461
316.32443
316.32189
316.31792
316.31373
316.30983
316.30642
316.30354
316.30117
316.29925
316.29772
316.3471
316.34455
316.34058
316.33639
316.33249
316.32908
316.3262
316.32383
316.32192
316.32038
316.36933
316.36678
316.36281
316.35862
316.35472
316.35131
316.34843
316.34606
316.34415
316.34261
316.39114
316.38859
316.38462
316.38043
316.37653
316.37312
316.37024
316.36787
316.36596
316.36442
316.41254
316.41
316.40603
316.40184
316.39794
316.39453
316.39165
316.38928
316.38736
316.38583
316.43356
316.43102
316.42704
316.42286
316.41896
316.41554
316.41267
316.4103
316.40838
316.40685
316.4542
316.45166
316.44768
316.4435
316.4396
316.43618
316.43331
316.43094
316.42902
316.42749
316.47448
316.47193
316.46796
316.46377
316.45987
316.45646
316.45358
316.45122
316.4493
316.44776
316.4944
316.49186
316.48789
316.4837
316.4798
316.47639
316.47351
316.47114
316.46922
316.46769
316.51399
316.51144
316.50747
316.50328
316.49938
316.49597
316.49309
316.49073
316.48881
316.48727
316.53325
316.5307
316.52673
316.52254
316.51864
316.51523
316.51235
316.50998
316.50807
316.50653
316.55218
316.54964
316.54567
316.54148
316.53758
316.53417
316.53129
316.52892
316.527
316.52547
316.57081
316.56827
316.56429
316.56011
316.55621
316.55279
316.54992
316.54755
316.54563
316.5441
316.58914
316.5866
316.58262
316.57844
316.57454
316.57112
316.56825
316.56588
316.56396
316.56243
316.60718
316.60463
316.60066
316.59648
316.59257
316.58916
316.58629
316.58392
316.582
316.58046
316.62494
316.62239
316.61842
316.61423
316.61033
316.60692
316.60404
316.60167
316.59976
316.59822
316.64242
316.63988
316.6359
316.63172
316.62782
316.6244
316.62153
316.61916
316.61724
316.61571
316.65964
316.6571
316.65312
316.64894
316.64504
316.64162
316.63875
316.63638
316.63446
316.63292
316.6766
316.67406
316.67009
316.6659
316.662
316.65858
316.65571
316.65334
316.65142
316.64989
316.69331
316.69077
316.6868
316.68261
316.67871
316.6753
316.67242
316.67005
316.66813
316.6666
316.70978
316.70724
316.70326
316.69908
316.69518
316.69176
316.68889
316.68652
316.6846
316.68307
316.72601
316.72347
316.7195
316.71531
316.71141
316.708
316.70512
316.70275
316.70083
316.6993
316.74202
316.73947
316.7355
316.73131
316.72741
316.724
316.72112
316.71875
316.71683
316.7153
316.7578
316.75525
316.75128
316.74709
316.74319
316.73978
316.7369
316.73453
316.73261
316.73108
316.77336
316.77081
316.76684
316.76265
316.75875
316.75534
316.75246
316.75009
316.74818
316.74664
316.78871
316.78616
316.78219
316.778
316.7741
316.77069
316.76781
316.76545
316.76353
316.76199
316.80386
316.80131
316.79734
316.79315
316.78925
316.78584
316.78296
316.78059
316.77868
316.77714
316.81881
316.81627
316.81229
316.80811
316.8042
316.80079
316.79791
316.79555
316.79363
316.79209
316.83357
316.83103
316.82706
316.82287
316.81897
316.81556
316.81268
316.81031
316.80839
316.80686
316.84816
316.84561
316.84164
316.83745
316.83355
316.83014
316.82726
316.82489
316.82298
316.82144
316.86258
316.86003
316.85606
316.85187
316.84797
316.84456
316.84168
316.83931
316.83739
316.83586
316.87684
316.8743
316.87033
316.86614
316.86224
316.85882
316.85595
316.85358
316.85166
316.85013
316.89098
316.88844
316.88447
316.88028
316.87638
316.87296
316.87009
316.86772
316.8658
316.86427
316.90503
316.90248
316.89851
316.89432
316.89042
316.88701
316.88413
316.88176
316.87985
316.87831
316.91903
316.91649
316.91252
316.90833
316.90443
316.90101
316.89814
316.89577
316.89385
316.89231
316.93308
316.93053
316.92656
316.92237
316.91847
316.91505
316.91218
316.90981
316.90789
316.90635
316.94728
316.94473
316.94076
316.93657
316.93267
316.92925
316.92638
316.92401
316.92209
316.92055
316.96183
316.95929
316.95531
316.95112
316.94722
316.94381
316.94093
316.93856
316.93664
316.93511
316.97704
316.9745
316.97052
316.96633
316.96243
316.95901
316.95613
316.95377
316.95185
316.95031
316.99333
316.99079
316.98681
316.98262
316.97872
316.9753
316.97242
316.97005
316.96813
316.96659
317.01142
317.00887
317.0049
317.0007
316.9968
316.99339
316.99051
316.98814
316.98622
316.98468
317.03131
317.02876
317.02478
317.02059
317.01668
317.01326
317.01038
317.008
317.00608
317.00455
317.05522
317.0527
317.04876
317.04461
317.04075
317.03737
317.03452
317.03218
317.03028
317.02876
)
;

boundaryField
{
    cilcentop
    {
        type            zeroGradient;
    }
    cilcenbot
    {
        type            zeroGradient;
    }
    leftcenWedge
    {
        type            symmetry;
    }
    rigtcenWedge
    {
        type            symmetry;
    }
    cilcen_to_fluid
    {
        type            compressible::turbulentTemperatureRadCoupledMixed;
        refValue        nonuniform List<scalar> 
100
(
309.38825
310.26947
310.89663
311.41975
311.86174
312.23589
312.55559
312.83052
313.06946
313.27883
313.4641
313.62938
313.77807
313.9128
314.03573
314.14858
314.25276
314.34941
314.4395
314.52381
314.603
314.67764
314.7482
314.81509
314.87865
314.9392
314.99699
315.05226
315.10522
315.15603
315.20487
315.25188
315.29718
315.34088
315.38311
315.42393
315.46346
315.50175
315.53889
315.57493
315.60994
315.64398
315.67709
315.70932
315.74071
315.77131
315.80115
315.83027
315.8587
315.88647
315.91361
315.94015
315.9661
315.99151
316.01638
316.04073
316.0646
316.08799
316.11093
316.13343
316.1555
316.17717
316.19844
316.21933
316.23985
316.26002
316.27984
316.29933
316.31849
316.33735
316.3559
316.37416
316.39213
316.40983
316.42725
316.44442
316.46134
316.478
316.49443
316.51063
316.5266
316.54235
316.55789
316.57322
316.58836
316.6033
316.61806
316.63265
316.64709
316.66139
316.6756
316.68976
316.70395
316.71829
316.73296
316.74828
316.76463
316.78294
316.80262
316.8322
)
;
        refGradient     nonuniform List<scalar> 
100
(
-6.4286631
-6.7420281
-7.0122811
-7.2404173
-7.4339359
-7.5984868
-7.7394703
-7.8610681
-7.9669355
-8.0598795
-8.142234
-8.2158025
-8.2820588
-8.3421597
-8.3970495
-8.4474834
-8.494082
-8.5373512
-8.5777109
-8.6155097
-8.6510407
-8.6845508
-8.7162505
-8.7463195
-8.774913
-8.8021651
-8.828193
-8.8530991
-8.8769739
-8.8998971
-8.9219398
-8.9431655
-8.9636309
-8.9833872
-9.0024804
-9.0209525
-9.0388414
-9.0561817
-9.0730051
-9.0893405
-9.1052147
-9.120652
-9.1356752
-9.1503052
-9.1645613
-9.1784615
-9.1920226
-9.2052602
-9.2181888
-9.230822
-9.2431726
-9.2552524
-9.2670727
-9.2786439
-9.289976
-9.3010783
-9.3119596
-9.3226282
-9.3330919
-9.3433582
-9.3534341
-9.3633262
-9.3730409
-9.3825842
-9.3919618
-9.4011792
-9.4102414
-9.4191535
-9.42792
-9.4365456
-9.4450345
-9.4533908
-9.4616183
-9.4697209
-9.4777021
-9.4855654
-9.493314
-9.5009513
-9.5084801
-9.5159036
-9.5232245
-9.5304459
-9.5375707
-9.5446017
-9.5515422
-9.5583959
-9.5651671
-9.5718612
-9.5784858
-9.5850514
-9.5915735
-9.5980757
-9.6045946
-9.6111872
-9.6179418
-9.6249979
-9.6325525
-9.64094
-9.6501505
-9.6613789
)
;
        valueFraction   nonuniform List<scalar> 
100
(
0.0015122078
0.0015148961
0.001517197
0.0015191268
0.001520755
0.0015221331
0.0015233092
0.0015243202
0.0015251978
0.0015259664
0.0015266458
0.0015272515
0.0015277961
0.0015282892
0.0015287389
0.0015291516
0.0015295323
0.0015298854
0.0015302145
0.0015305223
0.0015308113
0.0015310837
0.0015313411
0.0015315851
0.0015318169
0.0015320377
0.0015322484
0.0015324499
0.0015326429
0.001532828
0.001533006
0.0015331772
0.0015333423
0.0015335015
0.0015336552
0.0015338039
0.0015339479
0.0015340873
0.0015342225
0.0015343537
0.0015344812
0.0015346051
0.0015347256
0.0015348429
0.0015349572
0.0015350685
0.0015351771
0.0015352831
0.0015353865
0.0015354875
0.0015355863
0.0015356828
0.0015357772
0.0015358696
0.0015359601
0.0015360487
0.0015361355
0.0015362206
0.001536304
0.0015363858
0.0015364661
0.0015365449
0.0015366222
0.0015366982
0.0015367728
0.0015368461
0.0015369182
0.001536989
0.0015370587
0.0015371273
0.0015371947
0.0015372611
0.0015373264
0.0015373907
0.0015374541
0.0015375165
0.0015375779
0.0015376385
0.0015376982
0.0015377571
0.0015378151
0.0015378724
0.0015379288
0.0015379845
0.0015380395
0.0015380938
0.0015381475
0.0015382005
0.001538253
0.001538305
0.0015383566
0.0015384081
0.0015384597
0.001538512
0.0015385655
0.0015386214
0.0015386812
0.0015387477
0.0015388208
0.0015389098
)
;
        value           nonuniform List<scalar> 
100
(
309.80643
310.52975
311.14951
311.66979
312.10908
312.48114
312.79883
313.07206
313.30934
313.51719
313.70101
313.86493
314.01232
314.14584
314.26761
314.37937
314.48251
314.57819
314.66734
314.75076
314.82911
314.90294
314.97273
315.03888
315.10174
315.16161
315.21876
315.2734
315.32576
315.37599
315.42427
315.47074
315.51551
315.55872
315.60045
315.6408
315.67987
315.71771
315.75442
315.79004
315.82464
315.85828
315.89099
315.92285
315.95387
315.98411
316.0136
316.04237
316.07047
316.09791
316.12473
316.15095
316.1766
316.2017
316.22627
316.25034
316.27392
316.29703
316.3197
316.34193
316.36374
316.38514
316.40616
316.4268
316.44708
316.467
316.48659
316.50585
316.52478
316.54341
316.56174
316.57978
316.59754
316.61502
316.63224
316.6492
316.66591
316.68238
316.69861
316.71462
316.7304
316.74596
316.76131
316.77646
316.79141
316.80617
316.82076
316.83518
316.84944
316.86358
316.87763
316.89163
316.90567
316.91987
316.93442
316.94963
316.96591
316.984
317.00386
317.02808
)
;
        Tnbr            T;
        QrNbr           Qr;
        Qr              none;
        thicknessLayers 0();
        kappaLayers     0();
        kappaMethod     solidThermo;
        kappa           none;
        alphaAni        Anialpha;
    }
}


// ************************************************************************* //
