/*--------------------------------*- C++ -*----------------------------------*\
| =========                 |                                                 |
| \\      /  F ield         | OpenFOAM: The Open Source CFD Toolbox           |
|  \\    /   O peration     | Version:  4.0                                   |
|   \\  /    A nd           | Web:      www.OpenFOAM.org                      |
|    \\/     M anipulation  |                                                 |
\*---------------------------------------------------------------------------*/
FoamFile
{
    version     2.0;
    format      ascii;
    class       surfaceScalarField;
    location    "522";
    object      phi;
}
// * * * * * * * * * * * * * * * * * * * * * * * * * * * * * * * * * * * * * //

dimensions      [1 0 -1 0 0 0 0];

internalField   nonuniform List<scalar> 
9850
(
9.3445387e-11
2.2782261e-10
3.8806253e-10
7.6305078e-10
9.1305351e-10
1.4545507e-09
1.6934817e-09
2.33326e-09
2.7468959e-09
3.4330037e-09
4.0797384e-09
4.7893135e-09
5.6837724e-09
6.4376802e-09
7.533082e-09
8.4111438e-09
9.5823198e-09
1.0737327e-08
1.176687e-08
1.3435219e-08
1.4005407e-08
1.6512255e-08
1.6204946e-08
1.9962436e-08
1.8267977e-08
2.376636e-08
2.0100719e-08
2.789395e-08
2.1621205e-08
3.2310382e-08
2.2765846e-08
3.6985268e-08
2.3493437e-08
4.1904617e-08
2.378618e-08
4.7084667e-08
2.3647873e-08
5.2586408e-08
2.3099998e-08
5.8529601e-08
2.2176642e-08
6.5105235e-08
2.091898e-08
7.2585489e-08
1.9369891e-08
8.1330439e-08
1.7568609e-08
9.1790949e-08
1.554557e-08
1.0450771e-07
1.3317224e-08
1.2010761e-07
1.0881761e-08
1.3930009e-07
8.2169828e-09
1.628783e-07
5.281589e-09
1.9173e-07
2.0212728e-09
2.2686162e-07
-1.616614e-09
2.6943094e-07
-5.618525e-09
3.2081095e-07
-9.9854728e-09
3.8268729e-07
-1.469064e-08
4.5709814e-07
-1.9678103e-08
5.4652588e-07
-2.4874122e-08
6.539971e-07
-3.0203509e-08
7.8318766e-07
-3.5610651e-08
9.3854627e-07
-4.1082807e-08
1.1254418e-06
-4.6675195e-08
1.3503395e-06
-5.2537931e-08
1.6210096e-06
-5.8945582e-08
1.9467733e-06
-6.6344476e-08
2.3388e-06
-7.5391462e-08
2.8103932e-06
-8.7195349e-08
3.3776021e-06
-1.0306252e-07
4.058648e-06
-1.2680063e-07
4.8783432e-06
-1.5882179e-07
5.8523362e-06
-2.0501511e-07
7.0158949e-06
7.757116e-06
-3.6765916e-11
2.6459073e-10
-1.6488163e-10
8.9116706e-10
-4.1759477e-10
1.7072642e-09
-8.3856259e-10
2.7542286e-09
-1.4844654e-09
4.0789074e-09
-2.4279229e-09
5.732772e-09
-3.7601734e-09
7.7699326e-09
-5.5926754e-09
1.0243648e-08
-8.0562849e-09
1.3200939e-08
-1.1296191e-08
1.6675129e-08
-1.5460625e-08
2.0676695e-08
-2.0681948e-08
2.5183766e-08
-2.7050574e-08
3.0134995e-08
-3.4585373e-08
3.5428759e-08
-4.3207874e-08
4.0932894e-08
-5.2729833e-08
4.6507239e-08
-6.286206e-08
5.2036857e-08
-7.3246032e-08
5.7468653e-08
-8.3501143e-08
6.2841537e-08
-9.3274075e-08
6.8302563e-08
-1.0227653e-07
7.4107731e-08
-1.1030319e-07
8.0612192e-08
-1.1722975e-07
8.8257072e-08
-1.2299742e-07
9.7558694e-08
-1.2759242e-07
1.091028e-07
-1.3102862e-07
1.2354393e-07
-1.3333777e-07
1.4160939e-07
-1.3456741e-07
1.641081e-07
-1.3478336e-07
1.9194613e-07
-1.3407418e-07
2.2615264e-07
-1.3256545e-07
2.6792244e-07
-1.3042538e-07
3.1867108e-07
-1.2782935e-07
3.8009144e-07
-1.249721e-07
4.5424104e-07
-1.2207495e-07
5.4362892e-07
-1.1938463e-07
6.5130695e-07
-1.171727e-07
7.8097583e-07
-1.1573454e-07
9.3710824e-07
-1.1538942e-07
1.1250968e-06
-1.1648468e-07
1.3514347e-06
-1.1941053e-07
1.6239355e-06
-1.2462905e-07
1.951992e-06
-1.3273747e-07
2.3469085e-06
-1.4448551e-07
2.822141e-06
-1.6113323e-07
3.39425e-06
-1.8360922e-07
4.0811229e-06
-2.1524573e-07
4.9099816e-06
-2.5215648e-07
5.8892421e-06
-2.5917157e-07
7.0229184e-06
7.4979392e-06
-3.1842748e-11
2.9643419e-10
-1.4125803e-10
1.0005829e-09
-3.5443192e-10
1.9204391e-09
-7.0472483e-10
3.1045223e-09
-1.234363e-09
4.6085467e-09
-1.996472e-09
6.4948825e-09
-3.0573784e-09
8.8308406e-09
-4.4990235e-09
1.1685295e-08
-6.421113e-09
1.5123031e-08
-8.9422566e-09
1.9196277e-08
-1.2198757e-08
2.3933201e-08
-1.6339053e-08
2.9324069e-08
-2.1511281e-08
3.5307231e-08
-2.7841796e-08
4.1759284e-08
-3.5404634e-08
4.8495742e-08
-4.4186252e-08
5.5288863e-08
-5.4055416e-08
6.1906029e-08
-6.4751301e-08
6.8164539e-08
-7.5899605e-08
7.3989839e-08
-8.7056723e-08
7.9459668e-08
-9.7770112e-08
8.4821105e-08
-1.0763708e-07
9.0479133e-08
-1.1634686e-07
9.6966831e-08
-1.2370003e-07
1.0491185e-07
-1.2960798e-07
1.1501074e-07
-1.3408032e-07
1.2801623e-07
-1.3720793e-07
1.4473698e-07
-1.3914711e-07
1.6604724e-07
-1.401058e-07
1.929048e-07
-1.4033069e-07
2.2637753e-07
-1.4008906e-07
2.6768086e-07
-1.3964515e-07
3.1822722e-07
-1.3924602e-07
3.7969238e-07
-1.39103e-07
4.540981e-07
-1.3938405e-07
5.4391008e-07
-1.4022161e-07
6.5214465e-07
-1.4173262e-07
7.824871e-07
-1.4404866e-07
9.3942452e-07
-1.4735089e-07
1.1283993e-06
-1.5190707e-07
1.3559912e-06
-1.5810893e-07
1.6301377e-06
-1.6650726e-07
1.9603905e-06
-1.7788382e-07
2.3582854e-06
-1.9320718e-07
2.8374644e-06
-2.1417106e-07
3.4152151e-06
-2.4203599e-07
4.1089864e-06
-2.8015568e-07
4.9481055e-06
-3.2475404e-07
5.9338352e-06
-3.2328242e-07
7.0214557e-06
7.1746475e-06
-2.7138596e-11
3.2357262e-10
-1.2059018e-10
1.0940344e-09
-3.0292655e-10
2.1027755e-09
-6.0289417e-10
3.4044901e-09
-1.0570065e-09
5.062659e-09
-1.7114075e-09
7.1492837e-09
-2.6240551e-09
9.7434888e-09
-3.8671679e-09
1.2928407e-08
-5.5297457e-09
1.6785609e-08
-7.7197597e-09
2.1386291e-08
-1.0565192e-08
2.6778636e-08
-1.4212549e-08
3.2971428e-08
-1.8820736e-08
3.9915423e-08
-2.4547763e-08
4.7486315e-08
-3.1528085e-08
5.5476068e-08
-3.9840786e-08
6.3601568e-08
-4.9473349e-08
7.15386e-08
-6.0291483e-08
7.8982677e-08
-7.2028277e-08
8.5726634e-08
-8.4302331e-08
9.1733726e-08
-9.6663862e-08
9.7182646e-08
-1.0865606e-07
1.0247134e-07
-1.1987345e-07
1.0818421e-07
-1.3000256e-07
1.1504096e-07
-1.3883933e-07
1.2384751e-07
-1.4628611e-07
1.35463e-07
-1.5233613e-07
1.50787e-07
-1.5705397e-07
1.7076508e-07
-1.6055763e-07
1.9640845e-07
-1.6300502e-07
2.2882492e-07
-1.6458474e-07
2.6926056e-07
-1.655097e-07
3.1915215e-07
-1.6601185e-07
3.8019448e-07
-1.6633722e-07
4.5442345e-07
-1.667416e-07
5.4431441e-07
-1.6748981e-07
6.5289272e-07
-1.6885894e-07
7.8385615e-07
-1.7114637e-07
9.4171195e-07
-1.7468206e-07
1.1319349e-06
-1.7984629e-07
1.3611554e-06
-1.8709811e-07
1.6373896e-06
-1.970083e-07
1.9703007e-06
-2.103567e-07
2.3716342e-06
-2.280547e-07
2.8551618e-06
-2.5170081e-07
3.438863e-06
-2.8257471e-07
4.1398573e-06
-3.2162064e-07
4.987156e-06
-3.6181833e-07
5.9740268e-06
-3.3330415e-07
6.9929479e-06
6.8413387e-06
-2.1121105e-11
3.4469367e-10
-9.4060589e-11
1.1669736e-09
-2.3685396e-10
2.2455687e-09
-4.7274639e-10
3.6403828e-09
-8.3160365e-10
5.421516e-09
-1.3516576e-09
7.6693372e-09
-2.0816368e-09
1.0473468e-08
-3.0832836e-09
1.3930054e-08
-4.434181e-09
1.8136507e-08
-6.2306509e-09
2.3182761e-08
-8.5901743e-09
2.9138159e-08
-1.1652296e-08
3.6033552e-08
-1.5576297e-08
4.3839425e-08
-2.0533132e-08
5.2443151e-08
-2.668885e-08
6.1631788e-08
-3.4177634e-08
7.1090353e-08
-4.3065833e-08
8.04268e-08
-5.3313928e-08
8.923077e-08
-6.4748912e-08
9.7161616e-08
-7.7060819e-08
1.0404563e-07
-8.98305e-08
1.0995232e-07
-1.0258371e-07
1.1522454e-07
-1.1485576e-07
1.2045626e-07
-1.262487e-07
1.2643389e-07
-1.3646883e-07
1.3406764e-07
-1.453416e-07
1.4433575e-07
-1.5280801e-07
1.5825339e-07
-1.5890964e-07
1.768667e-07
-1.6376869e-07
2.0126748e-07
-1.6756708e-07
2.3262332e-07
-1.7052682e-07
2.7222032e-07
-1.7289275e-07
3.2151812e-07
-1.7491764e-07
3.8221944e-07
-1.7685048e-07
4.5635636e-07
-1.7892969e-07
5.4639371e-07
-1.813845e-07
6.5534759e-07
-1.8444558e-07
7.8691727e-07
-1.8836399e-07
9.4563049e-07
-1.9343581e-07
1.1370068e-06
-2.000283e-07
1.3677479e-06
-2.0860852e-07
1.64597e-06
-2.1976135e-07
1.9814535e-06
-2.3427306e-07
2.3861466e-06
-2.5302078e-07
2.8739084e-06
-2.7727814e-07
3.4631226e-06
-3.0824122e-07
4.1708169e-06
-3.4410911e-07
5.0230283e-06
-3.748709e-07
6.0047836e-06
-3.2657703e-07
6.9446584e-06
6.5147593e-06
-1.8393425e-11
3.6308766e-10
-8.1928594e-11
1.2305088e-09
-2.0632776e-10
2.3699676e-09
-4.1185592e-10
3.8459105e-09
-7.2456961e-10
5.7342295e-09
-1.1778771e-09
8.1226436e-09
-1.8144606e-09
1.111005e-08
-2.6886093e-09
1.4804203e-08
-3.8689419e-09
1.9316839e-08
-5.4413885e-09
2.4755208e-08
-7.5120914e-09
3.1208863e-08
-1.020949e-08
3.8730952e-08
-1.3684244e-08
4.731418e-08
-1.8104896e-08
5.6863805e-08
-2.36465e-08
6.7173394e-08
-3.046951e-08
7.7913368e-08
-3.8688174e-08
8.8645468e-08
-4.8332032e-08
9.887463e-08
-5.9310287e-08
1.0813987e-07
-7.1393019e-08
1.1612836e-07
-8.422101e-08
1.2278031e-07
-9.7346128e-08
1.2834965e-07
-1.1029182e-07
1.3340194e-07
-1.2261586e-07
1.3875791e-07
-1.3395956e-07
1.4541132e-07
-1.4407562e-07
1.544518e-07
-1.5283525e-07
1.6701298e-07
-1.602202e-07
1.8425161e-07
-1.6630659e-07
2.073538e-07
-1.7124543e-07
2.3756212e-07
-1.7524343e-07
2.7621831e-07
-1.785454e-07
3.2482006e-07
-1.8141861e-07
3.8509262e-07
-1.8413964e-07
4.5907742e-07
-1.8698463e-07
5.4923868e-07
-1.9022428e-07
6.5858724e-07
-1.9412642e-07
7.908195e-07
-1.9896675e-07
9.5047089e-07
-2.0504643e-07
1.1430866e-06
-2.1271599e-07
1.3754175e-06
-2.2240653e-07
1.6556609e-06
-2.3464804e-07
1.9936948e-06
-2.5014681e-07
2.4016464e-06
-2.6973432e-07
2.8934946e-06
-2.9431412e-07
3.4877051e-06
-3.2501982e-07
4.2015192e-06
-3.5806039e-07
5.0560728e-06
-3.8010536e-07
6.0268248e-06
-3.1767506e-07
6.882231e-06
6.1970819e-06
-1.6186514e-11
3.7927441e-10
-7.2127616e-11
1.2864501e-09
-1.8172361e-10
2.4795637e-09
-3.6292551e-10
4.0271123e-09
-6.3885988e-10
6.0101633e-09
-1.0392449e-09
8.5230282e-09
-1.6021577e-09
1.1672963e-08
-2.3762021e-09
1.5578248e-08
-3.4230924e-09
2.0363731e-08
-4.8205925e-09
2.6152707e-08
-6.6655778e-09
3.3053847e-08
-9.0766933e-09
4.1142068e-08
-1.2195571e-08
5.0433058e-08
-1.6184832e-08
6.0853067e-08
-2.1220376e-08
7.2208936e-08
-2.747501e-08
8.4168002e-08
-3.5091514e-08
9.6261974e-08
-4.4146415e-08
1.0792953e-07
-5.4611432e-08
1.1860489e-07
-6.6325164e-08
1.2784209e-07
-7.8988747e-08
1.3544387e-07
-9.2192473e-08
1.4155337e-07
-1.0546845e-07
1.4667789e-07
-1.1835373e-07
1.5164318e-07
-1.3044683e-07
1.5750439e-07
-1.4144577e-07
1.6545072e-07
-1.5116539e-07
1.7673256e-07
-1.5953699e-07
1.9262316e-07
-1.6659691e-07
2.1441367e-07
-1.7246916e-07
2.4343432e-07
-1.7734592e-07
2.8109501e-07
-1.8146799e-07
3.2894206e-07
-1.8510634e-07
3.8873094e-07
-1.8854625e-07
4.625173e-07
-1.9207491e-07
5.5276734e-07
-1.9597511e-07
6.624875e-07
-2.005266e-07
7.9537105e-07
-2.0601555e-07
9.5595989e-07
-2.1275142e-07
1.1498226e-06
-2.2108838e-07
1.3837546e-06
-2.3145367e-07
1.6660265e-06
-2.4436301e-07
2.0066037e-06
-2.6046342e-07
2.417748e-06
-2.8057174e-07
2.9136015e-06
-3.0525342e-07
3.5123895e-06
-3.3532428e-07
4.2315871e-06
-3.655993e-07
5.0863511e-06
-3.7929991e-07
6.0405225e-06
-3.059471e-07
6.8088807e-06
5.8911327e-06
-1.4621132e-11
3.9389521e-10
-6.5158939e-11
1.3369876e-09
-1.6418498e-10
2.5785895e-09
-3.279421e-10
4.1908691e-09
-5.7736985e-10
6.2595904e-09
-9.3939987e-10
8.8850574e-09
-1.448582e-09
1.2182145e-08
-2.1490936e-09
1.6278759e-08
-3.0971724e-09
2.131181e-08
-4.3639434e-09
2.7419479e-08
-6.0384948e-09
3.4728399e-08
-8.230811e-09
4.3334381e-08
-1.1073734e-08
5.3275978e-08
-1.4722527e-08
6.4501859e-08
-1.9349775e-08
7.6836184e-08
-2.5132785e-08
8.9951012e-08
-3.2230957e-08
1.0336014e-07
-4.0752857e-08
1.1645143e-07
-5.0717597e-08
1.2856963e-07
-6.2021068e-08
1.3914556e-07
-7.4421038e-08
1.4784383e-07
-8.7551378e-08
1.546837e-07
-1.0096531e-07
1.600918e-07
-1.1419552e-07
1.6487336e-07
-1.26814e-07
1.7012283e-07
-1.3847747e-07
1.7711416e-07
-1.4895268e-07
1.8720772e-07
-1.5812317e-07
2.0179359e-07
-1.6598298e-07
2.222734e-07
-1.7262274e-07
2.50074e-07
-1.782122e-07
2.8668439e-07
-1.8298135e-07
3.3371113e-07
-1.8720144e-07
3.9295101e-07
-1.9116722e-07
4.6648303e-07
-1.9518125e-07
5.5678137e-07
-1.9954382e-07
6.6685009e-07
-2.0454981e-07
8.0037704e-07
-2.104944e-07
9.6190456e-07
-2.1768806e-07
1.1570164e-06
-2.2647678e-07
1.3925433e-06
-2.3726994e-07
1.6768201e-06
-2.5056201e-07
2.0198953e-06
-2.6693259e-07
2.4341199e-06
-2.8716292e-07
2.9338302e-06
-3.1155496e-07
3.5367839e-06
-3.4036985e-07
4.2603996e-06
-3.6751879e-07
5.1135026e-06
-3.7344693e-07
6.0464483e-06
-2.9188767e-07
6.7273237e-06
5.5992431e-06
-1.3370853e-11
4.072666e-10
-5.9596792e-11
1.3832136e-09
-1.5018965e-10
2.6691825e-09
-3.000309e-10
4.3407102e-09
-5.2831614e-10
6.4878752e-09
-8.5975181e-10
9.2164925e-09
-1.3260635e-09
1.2648456e-08
-1.9678719e-09
1.6920568e-08
-2.8369829e-09
2.218092e-08
-3.999089e-09
2.8581585e-08
-5.5367974e-09
3.6266107e-08
-7.5526708e-09
4.5350255e-08
-1.0171655e-08
5.5894965e-08
-1.3541668e-08
6.7871871e-08
-1.7830371e-08
8.1124887e-08
-2.3215491e-08
9.5336133e-08
-2.9865872e-08
1.1001052e-07
-3.7912009e-08
1.2449757e-07
-4.7408782e-08
1.380664e-07
-5.8298947e-08
1.5003571e-07
-7.0390638e-08
1.5993552e-07
-8.336117e-08
1.6765422e-07
-9.6790751e-08
1.7352137e-07
-1.1021783e-07
1.7830042e-07
-1.2319968e-07
1.8310467e-07
-1.3536296e-07
1.892774e-07
-1.464355e-07
1.9828022e-07
-1.5625932e-07
2.1161732e-07
-1.6478893e-07
2.3080293e-07
-1.7208089e-07
2.5736588e-07
-1.7827861e-07
2.9288199e-07
-1.8359477e-07
3.3902717e-07
-1.8829295e-07
3.9764911e-07
-1.9266922e-07
4.7085922e-07
-1.9703502e-07
5.6114716e-07
-2.0170428e-07
6.7151936e-07
-2.0698669e-07
8.0565946e-07
-2.1318975e-07
9.6810767e-07
-2.2063006e-07
1.1644568e-06
-2.2965126e-07
1.4015645e-06
-2.4064719e-07
1.6878165e-06
-2.5409176e-07
2.0333393e-06
-2.7050007e-07
2.4505295e-06
-2.9057837e-07
2.9539072e-06
-3.1444068e-07
3.5606483e-06
-3.4167481e-07
4.2876317e-06
-3.6554805e-07
5.1373781e-06
-3.6459324e-07
6.0454915e-06
-2.7693038e-07
6.639663e-06
5.3223111e-06
-1.2362487e-11
4.196291e-10
-5.5104468e-11
1.425956e-09
-1.3887789e-10
2.7529567e-09
-2.7745634e-10
4.4792898e-09
-4.8861348e-10
6.6990328e-09
-7.9523555e-10
9.5231151e-09
-1.2267311e-09
1.3079952e-08
-1.820789e-09
1.7514626e-08
-2.6255393e-09
2.298567e-08
-3.7021333e-09
2.9658179e-08
-5.1276904e-09
3.7691663e-08
-6.9983738e-09
4.7220939e-08
-9.4320921e-09
5.8328681e-08
-1.2569781e-08
7.1009558e-08
-1.6573576e-08
8.512868e-08
-2.1619381e-08
1.0038194e-07
-2.7881007e-08
1.1627215e-07
-3.5503987e-08
1.3212055e-07
-4.4570356e-08
1.4713276e-07
-5.5061094e-08
1.6052644e-07
-6.682838e-08
1.7170278e-07
-7.9590771e-08
1.8041659e-07
-9.2958029e-08
1.868886e-07
-1.0648058e-07
1.9182294e-07
-1.1970932e-07
1.9633338e-07
-1.3224933e-07
2.0181738e-07
-1.4379714e-07
2.0982797e-07
-1.5415887e-07
2.21979e-07
-1.6325311e-07
2.3989709e-07
-1.7110348e-07
2.6521615e-07
-1.7782574e-07
2.9960417e-07
-1.8361209e-07
3.4481343e-07
-1.8871377e-07
4.0275071e-07
-1.9342287e-07
4.7556821e-07
-1.9805437e-07
5.6577861e-07
-2.0293118e-07
6.763961e-07
-2.0837421e-07
8.1110249e-07
-2.1470115e-07
9.7443468e-07
-2.222345e-07
1.1719903e-06
-2.3131738e-07
1.4106473e-06
-2.4233176e-07
1.6988314e-06
-2.5573382e-07
2.0467409e-06
-2.7198955e-07
2.4667865e-06
-2.9170219e-07
2.9736186e-06
-3.1484395e-07
3.583792e-06
-3.4032029e-07
4.3131064e-06
-3.608447e-07
5.1579046e-06
-3.5383661e-07
6.0384817e-06
-2.6173134e-07
6.54756e-06
5.0605781e-06
-1.1523545e-11
4.3115234e-10
-5.1367404e-11
1.4657996e-09
-1.2946644e-10
2.8310552e-09
-2.5866918e-10
4.6084921e-09
-4.5556016e-10
6.8959233e-09
-7.4150423e-10
9.8090578e-09
-1.1439659e-09
1.3482412e-08
-1.6981686e-09
1.8068828e-08
-2.44914e-09
2.3736641e-08
-3.4541787e-09
3.0663217e-08
-4.7857029e-09
3.9023187e-08
-6.5343207e-09
4.8969556e-08
-8.8116878e-09
6.0606047e-08
-1.1752284e-08
7.3950155e-08
-1.5512619e-08
8.8889016e-08
-2.0265574e-08
1.0513489e-07
-2.6187096e-08
1.2219367e-07
-3.3433007e-08
1.3936645e-07
-4.2106067e-08
1.5580582e-07
-5.2218489e-08
1.7063885e-07
-6.3660653e-08
1.8314493e-07
-7.6189326e-08
1.9294525e-07
-8.9444375e-08
2.0014363e-07
-1.0299208e-07
2.0537062e-07
-1.163828e-07
2.0972407e-07
-1.2920665e-07
2.146412e-07
-1.4113497e-07
2.2175623e-07
-1.519432e-07
2.3278715e-07
-1.615176e-07
2.494714e-07
-1.698508e-07
2.7354927e-07
-1.770311e-07
3.0678436e-07
-1.8322839e-07
3.5101062e-07
-1.8867821e-07
4.0820045e-07
-1.9366445e-07
4.8055436e-07
-1.9850134e-07
5.7061536e-07
-2.0351673e-07
6.8141141e-07
-2.0904013e-07
8.1662587e-07
-2.1539784e-07
9.8079235e-07
-2.2291724e-07
1.1795099e-06
-2.319409e-07
1.4196709e-06
-2.428395e-07
1.7097305e-06
-2.5604838e-07
2.0599492e-06
-2.7199315e-07
2.4827323e-06
-2.9115489e-07
2.9927794e-06
-3.1337305e-07
3.6060117e-06
-3.3693641e-07
4.3366685e-06
-3.5405384e-07
5.1750238e-06
-3.4169387e-07
6.0261201e-06
-2.4654035e-07
6.452409e-06
4.8140361e-06
-1.0812093e-11
4.4196479e-10
-4.8199839e-11
1.5031875e-09
-1.2148892e-10
2.9043443e-09
-2.4274283e-10
4.7297458e-09
-4.2753511e-10
7.0807153e-09
-6.9593406e-10
1.0077456e-08
-1.0737484e-09
1.3860226e-08
-1.594095e-09
1.8589174e-08
-2.2993438e-09
2.4441889e-08
-3.243473e-09
3.1607345e-08
-4.4948291e-09
4.0274542e-08
-6.1391576e-09
5.0613882e-08
-8.2825471e-09
6.2749433e-08
-1.105356e-08
7.6721165e-08
-1.4603214e-08
9.2438667e-08
-1.9100729e-08
1.096324e-07
-2.472238e-08
1.2781532e-07
-3.1630927e-08
1.46275e-07
-3.9945055e-08
1.6411994e-07
-4.9702598e-08
1.8039638e-07
-6.0826973e-08
1.9426929e-07
-7.3109924e-08
2.0522818e-07
-8.6220915e-08
2.1325459e-07
-9.9744298e-08
2.1889398e-07
-1.1323408e-07
2.2321383e-07
-1.2627045e-07
2.2767753e-07
-1.3850454e-07
2.3399028e-07
-1.4968554e-07
2.4396807e-07
-1.5967081e-07
2.594566e-07
-1.6842431e-07
2.8230266e-07
-1.7600767e-07
3.1436763e-07
-1.8256794e-07
3.5757078e-07
-1.8832292e-07
4.1395535e-07
-1.9354513e-07
4.8577641e-07
-1.9854391e-07
5.7561405e-07
-2.0364866e-07
6.8651609e-07
-2.0919436e-07
8.2217154e-07
-2.1551393e-07
9.8711189e-07
-2.2293905e-07
1.1869351e-06
-2.3181133e-07
1.4285431e-06
-2.4249126e-07
1.7204109e-06
-2.5538942e-07
2.072847e-06
-2.7089465e-07
2.4982386e-06
-2.8935929e-07
3.0112432e-06
-3.1047716e-07
3.6271311e-06
-3.3201414e-07
4.3582043e-06
-3.4573269e-07
5.1887442e-06
-3.2863911e-07
6.0090249e-06
-2.3157248e-07
6.3553452e-06
4.5824618e-06
-1.0201108e-11
4.5216583e-10
-4.5475995e-11
1.5384625e-09
-1.1462592e-10
2.9734945e-09
-2.2903704e-10
4.8441575e-09
-4.0341169e-10
7.2550905e-09
-6.5669821e-10
1.0330743e-08
-1.0132732e-09
1.4216801e-08
-1.5044308e-09
1.9080331e-08
-2.1702319e-09
2.510769e-08
-3.0617649e-09
3.2498878e-08
-4.2438105e-09
4.1456587e-08
-5.7978211e-09
5.2167891e-08
-7.8249097e-09
6.4776519e-08
-1.0448227e-08
7.934448e-08
-1.3813543e-08
9.580398e-08
-1.8086131e-08
1.1390499e-07
-2.3441405e-08
1.3317059e-07
-3.0046685e-08
1.5288027e-07
-3.8032924e-08
1.7210617e-07
-4.7459073e-08
1.8982252e-07
-5.827716e-08
2.0508736e-07
-7.0310674e-08
2.1726167e-07
-8.3257616e-08
2.2620151e-07
-9.6721631e-08
2.3235795e-07
-1.1026333e-07
2.3675549e-07
-1.2345689e-07
2.4087103e-07
-1.3593736e-07
2.4647067e-07
-1.474313e-07
2.5546194e-07
-1.5777037e-07
2.6979558e-07
-1.6689204e-07
2.9142423e-07
-1.7483265e-07
3.2230812e-07
-1.8171647e-07
3.6445445e-07
-1.8774251e-07
4.1998121e-07
-1.9316943e-07
4.9120319e-07
-1.9829896e-07
5.807435e-07
-2.0345861e-07
6.9167565e-07
-2.0898592e-07
8.2769882e-07
-2.1521834e-07
9.9334428e-07
-2.2249053e-07
1.1942074e-06
-2.3114263e-07
1.4371952e-06
-2.4152541e-07
1.7307942e-06
-2.5402277e-07
2.0853441e-06
-2.6898568e-07
2.5132025e-06
-2.8664171e-07
3.0288985e-06
-3.0652194e-07
3.6470127e-06
-3.2596144e-07
4.3776427e-06
-3.3635255e-07
5.1991371e-06
-3.1507711e-07
5.9877479e-06
-2.1699826e-07
6.2572693e-06
4.3654619e-06
-9.6684643e-12
4.6183427e-10
-4.3102604e-11
1.5718969e-09
-1.0864607e-10
3.0390383e-09
-2.1709453e-10
4.9526062e-09
-3.8238854e-10
7.4203848e-09
-6.2249863e-10
1.0570854e-08
-9.6054895e-10
1.4554852e-08
-1.4262345e-09
1.9546017e-08
-2.0575924e-09
2.5739048e-08
-2.9031673e-09
3.3344453e-08
-4.0245901e-09
4.2578011e-08
-5.4994941e-09
5.3642795e-08
-7.4245213e-09
6.6701547e-08
-9.917878e-09
8.1837837e-08
-1.3120378e-08
9.9006479e-08
-1.7193244e-08
1.1797785e-07
-2.2310262e-08
1.3828761e-07
-2.8641586e-08
1.5921159e-07
-3.6327651e-08
1.7979223e-07
-4.544487e-08
1.9893973e-07
-5.5970102e-08
2.1561258e-07
-6.7755578e-08
2.2904713e-07
-8.0526451e-08
2.3897235e-07
-9.3906163e-08
2.4573763e-07
-1.0746411e-07
2.5031338e-07
-1.2077148e-07
2.5417832e-07
-1.3345058e-07
2.5914968e-07
-1.4520856e-07
2.6721983e-07
-1.5585408e-07
2.8044097e-07
-1.6530028e-07
3.008703e-07
-1.7355963e-07
3.3056733e-07
-1.807342e-07
3.7162886e-07
-1.8700366e-07
4.262505e-07
-1.9261152e-07
4.9681091e-07
-1.978495e-07
5.8598136e-07
-2.0304046e-07
6.9686648e-07
-2.0852178e-07
8.3318017e-07
-2.1463346e-07
9.9945594e-07
-2.2171189e-07
1.201286e-06
-2.3009456e-07
1.4455778e-06
-2.4012255e-07
1.7408226e-06
-2.5215163e-07
2.097373e-06
-2.6649166e-07
2.5275434e-06
-2.8325241e-07
3.0456586e-06
-3.0179113e-07
3.6655528e-06
-3.1909118e-07
4.3949419e-06
-3.2626485e-07
5.2063126e-06
-3.0130028e-07
5.9627818e-06
-2.029284e-07
6.1589007e-06
4.1625318e-06
-9.2002368e-12
4.7103381e-10
-4.1014209e-11
1.6037103e-09
-1.0338234e-10
3.101406e-09
-2.0657882e-10
5.0558025e-09
-3.6387297e-10
7.577679e-09
-5.9237195e-10
1.0799353e-08
-9.1409325e-10
1.4876574e-08
-1.3573198e-09
1.9989245e-08
-1.9582956e-09
2.6340025e-08
-2.7633074e-09
3.4149467e-08
-3.8311802e-09
4.3645886e-08
-5.2361272e-09
5.5047745e-08
-7.0707573e-09
6.8536178e-08
-9.448744e-09
8.4215825e-08
-1.2506243e-08
1.0206398e-07
-1.6400449e-08
1.2187206e-07
-2.1303017e-08
1.4319017e-07
-2.7385682e-08
1.6529425e-07
-3.4796189e-08
1.8720273e-07
-4.3625478e-08
2.0776902e-07
-5.3871977e-08
2.2585907e-07
-6.5413915e-08
2.4058906e-07
-7.800209e-08
2.515605e-07
-9.1279824e-08
2.5901533e-07
-1.0482677e-07
2.6386027e-07
-1.1821356e-07
2.6756504e-07
-1.3105253e-07
2.7198858e-07
-1.4303418e-07
2.7920137e-07
-1.539465e-07
2.9135315e-07
-1.6368036e-07
3.1060402e-07
-1.7222581e-07
3.391126e-07
-1.7966345e-07
3.7906631e-07
-1.8615365e-07
4.3274053e-07
-1.9192388e-07
5.0258098e-07
-1.9725409e-07
5.9131141e-07
-2.0246018e-07
7.0207245e-07
-2.078773e-07
8.3859722e-07
-2.1384572e-07
1.0054243e-06
-2.207022e-07
1.2081426e-06
-2.2878074e-07
1.4536563e-06
-2.3841197e-07
1.7504543e-06
-2.499235e-07
2.1088843e-06
-2.6357897e-07
2.5411997e-06
-2.7937881e-07
3.061458e-06
-2.9650267e-07
3.6826779e-06
-3.116484e-07
4.4100867e-06
-3.1574123e-07
5.2104073e-06
-2.8753031e-07
5.9345693e-06
-1.8944001e-07
6.0608139e-06
3.9730901e-06
-8.7838416e-12
4.7981674e-10
-3.9157622e-11
1.6340836e-09
-9.8703166e-11
3.1609513e-09
-1.9723174e-10
5.1543307e-09
-3.4741523e-10
7.7278619e-09
-5.6559153e-10
1.1017529e-08
-8.7279322e-10
1.5183775e-08
-1.2960439e-09
2.0412495e-08
-1.8699863e-09
2.6913967e-08
-2.6388879e-09
3.4918368e-08
-3.6590559e-09
4.4666055e-08
-5.0016247e-09
5.6390313e-08
-6.7555374e-09
7.029009e-08
-9.0303104e-09
8.6490598e-08
-1.1957733e-08
1.049914e-07
-1.569106e-08
1.2560539e-07
-2.0399499e-08
1.4789862e-07
-2.6255436e-08
1.7115019e-07
-3.341224e-08
1.9435953e-07
-4.1972968e-08
2.1632974e-07
-5.1954849e-08
2.3584093e-07
-6.3259622e-08
2.5189381e-07
-7.5662157e-08
2.6396301e-07
-8.8825465e-08
2.7217861e-07
-1.0234048e-07
2.7737524e-07
-1.1577923e-07
2.8100373e-07
-1.2874641e-07
2.8495568e-07
-1.409181e-07
2.9137295e-07
-1.5206382e-07
3.0249875e-07
-1.6205398e-07
3.2059403e-07
-1.7085761e-07
3.4791602e-07
-1.7853479e-07
3.867433e-07
-1.852269e-07
4.394324e-07
-1.9114479e-07
5.0849867e-07
-1.9655538e-07
5.9672186e-07
-2.0176601e-07
7.0728291e-07
-2.0710729e-07
8.4393844e-07
-2.129182e-07
1.0112351e-06
-2.1953434e-07
1.2147588e-06
-2.2728532e-07
1.4614073e-06
-2.3649058e-07
1.75966e-06
-2.4744932e-07
2.119843e-06
-2.6037574e-07
2.554127e-06
-2.7516763e-07
3.0762495e-06
-2.908316e-07
3.6983432e-06
-3.0383404e-07
4.4230883e-06
-3.0500173e-07
5.2115768e-06
-2.7394314e-07
5.9035092e-06
-1.765876e-07
5.9634621e-06
3.7965009e-06
-8.4091291e-12
4.8822663e-10
-3.7492187e-11
1.6631671e-09
-9.4509585e-11
3.2179687e-09
-1.8885677e-10
5.2486777e-09
-3.3266943e-10
7.8716744e-09
-5.415971e-10
1.1226456e-08
-8.3578705e-10
1.5477965e-08
-1.2411323e-09
2.081784e-08
-1.7908353e-09
2.7463669e-08
-2.527346e-09
3.5654878e-08
-3.5047e-09
4.5643407e-08
-4.7912376e-09
5.7676851e-08
-6.4725641e-09
7.1971417e-08
-8.654372e-09
8.8672406e-08
-1.1464367e-08
1.078014e-07
-1.5051971e-08
1.2919299e-07
-1.9583767e-08
1.5243041e-07
-2.5232102e-08
1.7679852e-07
-3.2154629e-08
2.0128205e-07
-4.0464538e-08
2.2463964e-07
-5.0195493e-08
2.4557187e-07
-6.1270512e-08
2.6296881e-07
-7.3487023e-08
2.7617949e-07
-8.6527293e-08
2.8521884e-07
-9.9994278e-08
2.9084217e-07
-1.1346291e-07
2.944723e-07
-1.2653217e-07
2.9802484e-07
-1.3886578e-07
3.0370644e-07
-1.5021665e-07
3.1384947e-07
-1.6043633e-07
3.3081354e-07
-1.6947419e-07
3.5695368e-07
-1.7737085e-07
3.9463972e-07
-1.8424903e-07
4.4631035e-07
-1.9030293e-07
5.1455234e-07
-1.9578563e-07
6.0220436e-07
-2.0099434e-07
7.1249143e-07
-2.0625357e-07
8.4919758e-07
-2.1189909e-07
1.0168805e-06
-2.1826441e-07
1.2211242e-06
-2.2567361e-07
1.4688165e-06
-2.3443402e-07
1.7684208e-06
-2.4481684e-07
2.1302257e-06
-2.5698438e-07
2.5662953e-06
-2.7073781e-07
3.0900025e-06
-2.8492052e-07
3.7125271e-06
-2.9581309e-07
4.43398e-06
-2.9422241e-07
5.209988e-06
-2.6067435e-07
5.8699596e-06
-1.644062e-07
5.867198e-06
3.632093e-06
-8.073732e-12
4.9630018e-10
-3.599415e-11
1.6910877e-09
-9.0731778e-11
3.2727067e-09
-1.8130779e-10
5.3392539e-09
-3.1937461e-10
8.0097413e-09
-5.1995874e-10
1.1427041e-08
-8.0240922e-10
1.5760416e-08
-1.1915966e-09
2.1207028e-08
-1.7194208e-09
2.7991494e-08
-2.4266859e-09
3.6362142e-08
-3.3653634e-09
4.6582083e-08
-4.6012519e-09
5.8912738e-08
-6.2169015e-09
7.3587065e-08
-8.3144709e-09
9.0769973e-08
-1.1017842e-08
1.1050477e-07
-1.4472759e-08
1.3264791e-07
-1.8843062e-08
1.5680071e-07
-2.4300555e-08
1.8225601e-07
-3.100611e-08
2.079876e-07
-3.9081414e-08
2.3271494e-07
-4.8574534e-08
2.5506498e-07
-5.9427748e-08
2.7382201e-07
-7.1459594e-08
2.8821131e-07
-8.437105e-08
2.9813026e-07
-9.7777536e-08
3.042486e-07
-1.1125814e-07
3.0795283e-07
-1.2440776e-07
3.1117437e-07
-1.3687953e-07
3.1617808e-07
-1.4841142e-07
3.253812e-07
-1.5883763e-07
3.4123959e-07
-1.6808919e-07
3.6620501e-07
-1.761881e-07
4.027384e-07
-1.8323914e-07
4.5336116e-07
-1.8941985e-07
5.2073284e-07
-1.9496898e-07
6.0775331e-07
-2.0017256e-07
7.1769485e-07
-2.0534762e-07
8.5437251e-07
-2.1082523e-07
1.0223581e-06
-2.1693537e-07
1.2272344e-06
-2.2399595e-07
1.4758771e-06
-2.3230131e-07
1.7767265e-06
-2.4209481e-07
2.1400192e-06
-2.5348612e-07
2.5776874e-06
-2.6618494e-07
3.1027011e-06
-2.7888476e-07
3.7252283e-06
-2.8771892e-07
4.4428134e-06
-2.835417e-07
5.2058126e-06
-2.4782538e-07
5.8342418e-06
-1.5291563e-07
5.7722923e-06
3.4791758e-06
-7.7688885e-12
5.0406866e-10
-3.4634931e-11
1.7179534e-09
-8.730553e-11
3.3253769e-09
-1.7446138e-10
5.4264093e-09
-3.0731574e-10
8.1425953e-09
-5.003306e-10
1.1620056e-08
-7.7212945e-10
1.6032214e-08
-1.1466521e-09
2.158155e-08
-1.6546165e-09
2.8499457e-08
-2.335323e-09
3.7042846e-08
-3.2388625e-09
4.748562e-08
-4.4287083e-09
6.0102582e-08
-5.9846018e-09
7.5142955e-08
-8.0054297e-09
9.2790799e-08
-1.0611494e-08
1.1311083e-07
-1.3945007e-08
1.3598142e-07
-1.8167027e-08
1.6102273e-07
-2.3448431e-08
1.875374e-07
-2.9952468e-08
2.1449163e-07
-3.7807958e-08
2.4057042e-07
-4.707562e-08
2.6433263e-07
-5.7715201e-08
2.8446157e-07
-6.9564949e-08
3.0006103e-07
-8.2343935e-08
3.1090921e-07
-9.568032e-08
3.1758494e-07
-1.0915833e-07
3.2143077e-07
-1.2237019e-07
3.2438612e-07
-1.3495995e-07
3.2876772e-07
-1.4665217e-07
3.3707326e-07
-1.5726509e-07
3.5185232e-07
-1.6671247e-07
3.7565218e-07
-1.7499884e-07
4.1102454e-07
-1.8221163e-07
4.605737e-07
-1.8851193e-07
5.2703293e-07
-1.9412396e-07
6.1336511e-07
-1.9932176e-07
7.2289244e-07
-2.0441358e-07
8.5946418e-07
-2.0972461e-07
1.027669e-06
-2.1558008e-07
1.2330899e-06
-2.2229111e-07
1.4825881e-06
-2.3013813e-07
1.784574e-06
-2.3933713e-07
2.1492182e-06
-2.4994526e-07
2.5882964e-06
-2.6158581e-07
3.1143415e-06
-2.7281725e-07
3.736461e-06
-2.796589e-07
4.4496544e-06
-2.730677e-07
5.1992233e-06
-2.3547094e-07
5.7966436e-06
-1.4212349e-07
5.678949e-06
3.3370509e-06
-7.4905312e-12
5.1155895e-10
-3.3394608e-11
1.7438571e-09
-8.4179365e-11
3.3761613e-09
-1.6821492e-10
5.5104446e-09
-2.9631465e-10
8.2706945e-09
-4.8242473e-10
1.1806165e-08
-7.4450433e-10
1.6294293e-08
-1.1056457e-09
2.1942691e-08
-1.5954818e-09
2.8989293e-08
-2.251942e-09
3.7699306e-08
-3.1233915e-09
4.835707e-08
-4.2711669e-09
6.1250356e-08
-5.7724179e-09
7.6644204e-08
-7.7229993e-09
9.474138e-08
-1.0239854e-08
1.1562768e-07
-1.3461817e-08
1.3920337e-07
-1.7547157e-08
1.6510806e-07
-2.2665539e-08
1.9265578e-07
-2.898191e-08
2.2080799e-07
-3.6631078e-08
2.4821958e-07
-4.5684914e-08
2.7338646e-07
-5.6119017e-08
2.9489565e-07
-6.7790041e-08
3.1173202e-07
-8.0434494e-08
3.2355362e-07
-9.36934e-08
3.3084378e-07
-1.0715689e-07
3.3489418e-07
-1.2041572e-07
3.3764486e-07
-1.3310627e-07
3.4145813e-07
-1.4494097e-07
3.4890779e-07
-1.5572338e-07
3.6263451e-07
-1.6535116e-07
3.8527972e-07
-1.738122e-07
4.1948532e-07
-1.8117736e-07
4.6793854e-07
-1.8759167e-07
5.3344697e-07
-1.9326461e-07
6.190378e-07
-1.9845777e-07
7.2808536e-07
-2.0346965e-07
8.6447594e-07
-2.0861851e-07
1.0328178e-06
-2.142238e-07
1.2386952e-06
-2.2058887e-07
1.4889532e-06
-2.2798014e-07
1.7919656e-06
-2.3658621e-07
2.1578243e-06
-2.4641297e-07
2.598124e-06
-2.5700221e-07
3.1249305e-06
-2.6679253e-07
3.7462526e-06
-2.7171837e-07
4.4545796e-06
-2.6288348e-07
5.1903903e-06
-2.2366312e-07
5.7574219e-06
-1.320268e-07
5.5873173e-06
3.2050227e-06
-7.2351598e-12
5.1879435e-10
-3.2257152e-11
1.7688793e-09
-8.1313067e-11
3.4252176e-09
-1.6248923e-10
5.5916207e-09
-2.8623075e-10
8.394436e-09
-4.6601084e-10
1.1985945e-08
-7.191821e-10
1.6547464e-08
-1.0680562e-09
2.2291565e-08
-1.5412727e-09
2.9462509e-08
-2.175498e-09
3.8333532e-08
-3.0175103e-09
4.9199082e-08
-4.1266748e-09
6.235952e-08
-5.5777434e-09
7.809527e-08
-7.4637469e-09
9.6627381e-08
-9.8984704e-09
1.1806241e-07
-1.3017528e-08
1.4232243e-07
-1.6976428e-08
1.6906696e-07
-2.1943413e-08
1.9762276e-07
-2.8084569e-08
2.2694914e-07
-3.5539743e-08
2.5567475e-07
-4.4390633e-08
2.8223733e-07
-5.4627263e-08
3.0513227e-07
-6.6123464e-08
3.232282e-07
-7.8632519e-08
3.3606263e-07
-9.1808291e-08