/*--------------------------------*- C++ -*----------------------------------*\
| =========                 |                                                 |
| \\      /  F ield         | OpenFOAM: The Open Source CFD Toolbox           |
|  \\    /   O peration     | Version:  4.0                                   |
|   \\  /    A nd           | Web:      www.OpenFOAM.org                      |
|    \\/     M anipulation  |                                                 |
\*---------------------------------------------------------------------------*/
FoamFile
{
    version     2.0;
    format      ascii;
    class       volScalarField;
    location    "522";
    object      rho;
}
// * * * * * * * * * * * * * * * * * * * * * * * * * * * * * * * * * * * * * //

dimensions      [1 -3 0 0 0 0 0];

internalField   nonuniform List<scalar> 
5000
(
0.85311286
0.8672546
0.88284823
0.89991121
0.91841302
0.93826226
0.95929516
0.98126777
1.0038549
1.0266586
1.0492272
1.0710864
1.0917764
1.1108929
1.1281216
1.1432616
1.1562334
1.1670714
1.1759036
1.1829247
1.1883685
1.1924821
1.1955075
1.1976683
1.1991623
1.2001582
1.2007952
1.201184
1.2014091
1.201532
1.2015948
1.2016246
1.2016377
1.2016429
1.2016449
1.2016455
1.2016457
1.2016458
1.2016458
1.2016458
1.2016458
1.2016458
1.2016458
1.2016458
1.2016458
1.2016458
1.2016458
1.2016458
1.2016458
1.2016458
0.81521441
0.8260696
0.83806403
0.85130786
0.86591059
0.88197323
0.89957666
0.9187653
0.93952598
0.96176274
0.98527041
1.0097124
1.0346109
1.0593595
1.0832662
1.1056273
1.1258209
1.1433945
1.1581232
1.1700173
1.179285
1.1862653
1.191357
1.1949586
1.1974304
1.1990753
1.2001348
1.2007932
1.2011863
1.2014104
1.2015317
1.2015935
1.201623
1.2016361
1.2016414
1.2016434
1.201644
1.2016442
1.2016443
1.2016443
1.2016443
1.2016443
1.2016443
1.2016443
1.2016443
1.2016443
1.2016443
1.2016443
1.2016443
1.2016443
0.80179901
0.8115177
0.82223115
0.83404058
0.84705317
0.86137883
0.87712445
0.8943846
0.91322736
0.93367443
0.95567512
0.97907591
1.0035902
1.0287772
1.0540414
1.0786668
1.1018891
1.1229992
1.1414507
1.1569391
1.1694262
1.1791072
1.186338
1.1915518
1.1951873
1.1976413
1.1992449
1.200258
1.2008754
1.2012369
1.201439
1.2015464
1.2016002
1.2016253
1.2016362
1.2016405
1.2016421
1.2016426
1.2016428
1.2016428
1.2016428
1.2016428
1.2016428
1.2016428
1.2016428
1.2016428
1.2016428
1.2016428
1.2016428
1.2016427
0.79441466
0.80351632
0.81353386
0.82456027
0.83669562
0.85004536
0.86471699
0.88081417
0.8984271
0.91761804
0.93840072
0.96071339
0.98438719
1.0091149
1.0344298
1.0597078
1.0842071
1.1071493
1.1278299
1.1457298
1.1605901
1.1724259
1.1814817
1.1881506
1.1928866
1.1961355
1.1982903
1.199672
1.2005274
1.2010374
1.2013292
1.2014885
1.2015709
1.2016111
1.2016293
1.2016369
1.2016398
1.2016409
1.2016412
1.2016413
1.2016413
1.2016413
1.2016413
1.2016413
1.2016413
1.2016413
1.2016413
1.2016413
1.2016413
1.2016412
0.78934357
0.79802506
0.8075691
0.81806233
0.82959863
0.84227812
0.856205
0.87148348
0.8882108
0.90646631
0.92629515
0.94768565
0.97054062
0.99464494
1.0196361
1.0449892
1.0700302
1.0939906
1.1161031
1.1357179
1.1524073
1.1660195
1.1766694
1.1846746
1.1904671
1.1945097
1.1972344
1.199009
1.2001253
1.2008024
1.2011971
1.2014173
1.2015342
1.2015928
1.2016204
1.2016324
1.2016372
1.201639
1.2016396
1.2016398
1.2016398
1.2016398
1.2016398
1.2016398
1.2016398
1.2016398
1.2016398
1.2016398
1.2016398
1.2016397
0.78557165
0.79394259
0.80313711
0.81323708
0.82433149
0.83651586
0.8498907
0.86455853
0.88061848
0.89815766
0.91723788
0.93787658
0.96002145
0.98351971
1.0080864
1.0332803
1.0585009
1.0830207
1.1060613
1.1269022
1.144997
1.1600563
1.1720702
1.1812683
1.1880393
1.192841
1.1961269
1.1982988
1.1996855
1.2005397
1.2010461
1.201334
1.2014902
1.2015705
1.2016094
1.2016269
1.2016342
1.201637
1.2016379
1.2016382
1.2016383
1.2016383
1.2016383
1.2016383
1.2016383
1.2016383
1.2016383
1.2016383
1.2016383
1.2016382
0.78258892
0.79071545
0.79963517
0.80942617
0.82017348
0.83196868
0.84490888
0.8590943
0.87462404
0.89158897
0.9100606
0.93007479
0.95160926
0.97455523
0.99868575
1.0236274
1.0488469
1.0736671
1.0973237
1.1190628
1.1382578
1.1545098
1.1676973
1.1779602
1.185633
1.1911543
1.1949859
1.1975532
1.1992149
1.2002531
1.2008781
1.2012394
1.2014391
1.2015441
1.2015961
1.2016202
1.2016306
1.2016347
1.2016362
1.2016366
1.2016368
1.2016368
1.2016368
1.2016368
1.2016368
1.2016368
1.2016368
1.2016368
1.2016368
1.2016367
0.78014178
0.78806858
0.79676393
0.80630284
0.81676705
0.82824483
0.84083019
0.854621
0.86971548
0.88620621
0.90417066
0.92365694
0.94466384
0.96711472
0.99082698
1.0154819
1.0406049
1.0655692
1.0896375
1.112045
1.1321126
1.1493564
1.1635581
1.174772
1.183273
1.189472
1.1938288
1.1967844
1.1987213
1.1999472
1.2006954
1.2011346
1.2013814
1.2015136
1.2015806
1.2016124
1.2016265
1.2016322
1.2016343
1.201635
1.2016353
1.2016353
1.2016353
1.2016353
1.2016353
1.2016353
1.2016353
1.2016353
1.2016352
1.2016351
0.77807694
0.78583574
0.79434254
0.80366974
0.81389629
0.82510762
0.83739499
0.85085401
0.86558163
0.88167108
0.89920358
0.91823578
0.93878182
0.96078937
0.98411045
1.0084709
1.0334466
1.0584584
1.0828009
1.1057127
1.1264816
1.1445585
1.1596426
1.1717086
1.1809709
1.1878067
1.1926667
1.1960011
1.198211
1.1996261
1.2005004
1.2010207
1.2013176
1.2014793
1.2015628
1.2016034
1.2016218
1.2016295
1.2016324
1.2016334
1.2016337
1.2016338
1.2016338
1.2016338
1.2016338
1.2016338
1.2016338
1.2016338
1.2016337
1.2016336
0.77629794
0.78391241
0.79225732
0.80140286
0.81142559
0.82240843
0.83444021
0.8476144
0.86202657
0.87776997
0.8949282
0.91356404
0.93370319
0.95531215
0.97827059
1.0023411
1.0271428
1.0521403
1.0766619
1.0999576
1.1212964
1.1400794
1.1559362
1.1687688
1.1787321
1.1861661
1.1915073
1.1952096
1.1976887
1.1992928
1.2002952
1.2008988
1.2012481
1.2014412
1.2015427
1.2015931
1.2016164
1.2016264
1.2016303
1.2016317
1.2016322
1.2016323
1.2016323
1.2016323
1.2016323
1.2016323
1.2016323
1.2016323
1.2016322
1.2016321
0.77473987
0.78222823
0.79043179
0.79941881
0.80926374
0.82004732
0.83185618
0.84478182
0.85891837
0.87435874
0.89118806
0.90947359
0.92924993
0.95049852
0.97312154
0.99691219
1.021527
1.0464701
1.0711031
1.0946929
1.116499
1.1358854
1.1524229
1.1659479
1.1765582
1.1845545
1.1903556
1.1944145
1.1971579
1.19895
1.2000813
1.2007701
1.2011735
1.2013998
1.2015206
1.2015815
1.2016104
1.201623
1.2016281
1.20163
1.2016306
1.2016308
1.2016308
1.2016308
1.2016308
1.2016308
1.2016308
1.2016308
1.2016307
1.2016306
0.77335721
0.7807339
0.78881236
0.79765915
0.80734688
0.81795431
0.82956611
0.84227194
0.85616454
0.87133624
0.88787309
0.90584572
0.92529573
0.94621661
0.96852911
0.99205232
1.0164752
1.0413376
1.0660332
1.0898485
1.1120408
1.1319463
1.1490869
1.16324
1.1744488
1.1829745
1.1892148
1.1936191
1.1966213
1.1985999
1.1998603
1.2006354
1.2010945
1.2013551
1.2014963
1.2015688
1.2016037
1.2016193
1.2016258
1.2016282
1.201629
1.2016293
1.2016293
1.2016293
1.2016293
1.2016293
1.2016293
1.2016293
1.2016292
1.2016291
0.77211687
0.77939357
0.78736008
0.79608144
0.80562861
0.81607859
0.82751426
0.84002357
0.85369791
0.86862889
0.88490312
0.90259376
0.92174796
0.94236915
0.9643936
0.98766247
1.0118931
1.0366574
1.0613799
1.0853676
1.1078809
1.1282359
1.1459135
1.1606384
1.1724024
1.181427
1.1880872
1.1928256
1.1960812
1.198244
1.1996333
1.2004955
1.2010113
1.2013076
1.2014701
1.2015548
1.2015963
1.2016152
1.2016233
1.2016263
1.2016274
1.2016277
1.2016278
1.2016279
1.2016279
1.2016278
1.2016278
1.2016278
1.2016277
1.2016275
0.77099411
0.77818047
0.78604586
0.79465398
0.8040743
0.81438222
0.82565898
0.83799098
0.85146826
0.8661817
0.88221812
0.89965263
0.9185369
0.93888257
0.96063908
0.98366662
1.0077074
1.0323625
1.057085
1.0812036
1.1039851
1.1247315
1.1428893
1.1581366
1.1704168
1.1799124
1.1869742
1.1920358
1.1955391
1.1978836
1.1994014
1.2003511
1.2009245
1.2012573
1.2014421
1.2015396
1.2015882
1.2016108
1.2016206
1.2016244
1.2016258
1.2016262
1.2016263
1.2016264
1.2016264
1.2016263
1.2016263
1.2016263
1.2016262
1.201626
0.76996998
0.77707406
0.78484741
0.79335249
0.80265741
0.81283614
0.82396842
0.83613917
0.84943718
0.86395252
0.87977207
0.89697239
0.91560884
0.9357
0.95720656
0.98000525
1.0038603
1.0283991
1.0531016
1.0773181
1.1003243
1.121413
1.1400022
1.1557282
1.1684895
1.1784304
1.1858766
1.191251
1.1949963
1.19752
1.1991653
1.2002028
1.2008344
1.2012045
1.2014123
1.2015233
1.2015795
1.201606
1.2016177
1.2016224
1.2016241
1.2016247
1.2016248
1.2016249
1.2016249
1.2016248
1.2016248
1.2016247
1.2016246
1.2016245
0.76902966
0.7760583
0.78374729
0.79215798
0.80135723
0.81141768
0.82241768
0.83444081
0.84757464
0.86190843
0.87752894
0.89451387
0.91292163
0.93277666
0.95404937
0.97663097
1.0003053
1.0247236
1.0493909
1.0736789
1.096874
1.1182632
1.1372413
1.1534074
1.166618
1.1769804
1.1847949
1.1904721
1.1944537
1.1971538
1.1989258
1.200051
1.2007413
1.2011494
1.2013808
1.201506
1.2015701
1.2016009
1.2016146
1.2016203
1.2016224
1.2016231
1.2016233
1.2016234
1.2016234
1.2016233
1.2016233
1.2016232
1.2016231
1.201623
0.76816136
0.77512043
0.78273166
0.79105536
0.80015726
0.81010878
0.82098698
0.83287417
0.84585678
0.86002323
0.87546009
0.8922459
0.91044161
0.93007668
0.95112999
0.97350551
0.99700465
1.0213002
1.0459209
1.070259
1.0936128
1.1152669
1.1345968
1.1511685
1.1647997
1.1755618
1.1837294
1.1896998
1.1939122
1.196786
1.1986835
1.1998963
1.2006457
1.2010922
1.2013478
1.2014875
1.20156
1.2015953
1.2016114
1.2016181
1.2016206
1.2016215
1.2016218
1.2016218
1.2016219
1.2016218
1.2016218
1.2016217
1.2016216
1.2016215
0.76735555
0.77425015
0.78178933
0.79003245
0.79904421
0.80889489
0.81966036
0.83142172
0.84426433
0.85827578
0.87354236
0.89014325
0.90814152
0.92757097
0.94841788
0.97059754
0.99392715
1.0180993
1.0426645
1.0670353
1.0905227
1.112411
1.13206
1.1490066
1.1630321
1.1741737
1.1826801
1.1889345
1.1933723
1.1964169
1.1984388
1.1997389
1.2005476
1.2010331
1.2013133
1.2014681
1.2015493
1.2015894
1.2016079
1.2016158
1.2016189
1.2016199
1.2016203
1.2016203
1.2016204
1.2016203
1.2016203
1.2016202
1.2016201
1.20162
0.76660444
0.773439
0.78091112
0.78907928
0.7980072
0.8077641
0.81842474
0.83006912
0.84278153
0.85664878
0.87175681
0.88818527
0.90599901
0.9252356
0.94588783
0.96788114
0.99104693
1.0150959
1.0395991
1.0639883
1.0875878
1.1096837
1.1296231
1.1469168
1.1613127
1.1728151
1.181647
1.1881765
1.1928346
1.1960472
1.1981922
1.1995793
1.2004474
1.2009722
1.2012775
1.2014477
1.201538
1.2015831
1.2016043
1.2016134
1.201617
1.2016183
1.2016187
1.2016188
1.2016189
1.2016188
1.2016188
1.2016187
1.2016186
1.2016185
0.76590156
0.77268001
0.78008947
0.78818759
0.79703721
0.80670655
0.81726933
0.82880449
0.84139535
0.85512792
0.87008775
0.88635482
0.90399552
0.92305067
0.94351887
0.96533462
0.98834221
1.012269
1.0367052
1.0611011
1.0847944
1.1070748
1.127279
1.1448948
1.1596393
1.171485
1.1806299
1.1874262
1.1922993
1.1956772
1.1979441
1.1994177
1.2003453
1.2009096
1.2012405
1.2014264
1.201526
1.2015765
1.2016004
1.2016109
1.2016152
1.2016167
1.2016172
1.2016173
1.2016173
1.2016173
1.2016173
1.2016172
1.2016171
1.201617
0.76524151
0.77196732
0.77931801
0.78735048
0.7961267
0.80571398
0.81618508
0.82761791
0.84009488
0.85370121
0.86852204
0.88463758
0.90211549
0.92099949
0.94129333
0.96293966
0.98579454
1.0096007
1.0339661
1.0583589
1.0821305
1.104575
1.1250212
1.1429367
1.1580096
1.1701826
1.1796285
1.1866836
1.1917669
1.1953073
1.1976946
1.1992544
1.2002414
1.2008456
1.2012022
1.2014042
1.2015135
1.2015695
1.2015963
1.2016083
1.2016132
1.201615
1.2016156
1.2016158
1.2016158
1.2016158
1.2016158
1.2016157
1.2016156
1.2016154
0.76461972
0.77129599
0.7785914
0.78656211
0.79526931
0.80477945
0.81516435
0.82650101
0.83887092
0.85235854
0.86704859
0.88302143
0.90034579
0.91906792
0.9391962
0.96068069
0.98338815
1.0070754
1.0313673
1.055749
1.0795854
1.1021762
1.1228442
1.1410388
1.1564217
1.1689069
1.1786425
1.1859489
1.1912376
1.1949378
1.1974442
1.1990895
1.200136
1.2007802
1.2011628
1.2013813
1.2015004
1.2015621
1.2015921
1.2016056
1.2016113
1.2016134
1.2016141
1.2016143
1.2016143
1.2016143
1.2016143
1.2016142
1.2016141
1.2016139
0.7640323
0.77066182
0.77790505
0.7858175
0.79445961
0.80389701
0.81420065
0.82544665
0.83771562
0.8510913
0.86565797
0.88149604
0.89867518
0.91724387
0.93721467
0.95854432
0.98110943
1.00468
1.0288964
1.0532602
1.0771498
1.0998711
1.1207426
1.1391977
1.1548737
1.1676569
1.1776718
1.1852221
1.1907116
1.1945689
1.1971931
1.1989234
1.2000292
1.2007134
1.2011224
1.2013575
1.2014868
1.2015543
1.2015876
1.2016028
1.2016092
1.2016117
1.2016125
1.2016128
1.2016128
1.2016128
1.2016128
1.2016127
1.2016125
1.2016124
0.76347591
0.77006118
0.77725506
0.7851124
0.79369295
0.80306158
0.81328841
0.8244487
0.83662225
0.8498921
0.86434206
0.88005255
0.89709402
0.91551697
0.93533768
0.95651902
0.97894664
1.0024027
1.0265423
1.0508827
1.0748153
1.0976532
1.1187117
1.1374103
1.1533636
1.1664318
1.176716
1.1845032
1.190189
1.1942009
1.1969414
1.1987561
1.1999211
1.2006456
1.201081
1.2013329
1.2014726
1.2015463
1.2015829
1.2015999
1.2016071
1.20161
1.201611
1.2016113
1.2016113
1.2016113
1.2016113
1.2016112
1.201611
1.2016109
0.76294767
0.76949096
0.77663803
0.78444312
0.79296532
0.80226877
0.8124228
0.82350188
0.83558502
0.84875457
0.86309386
0.8786833
0.895594
0.91387822
0.93355564
0.95459474
0.9768895
1.0002333
1.0242954
1.0486076
1.0725745
1.0955165
1.1167472
1.1356738
1.1518898
1.1652307
1.1757747
1.1837922
1.18967
1.1938338
1.1966894
1.1985879
1.1998119
1.2005766
1.2010387
1.2013077
1.201458
1.2015378
1.201578
1.2015968
1.201605
1.2016082
1.2016094
1.2016097
1.2016098
1.2016098
1.2016097
1.2016096
1.2016095
1.2016094
0.76244505
0.76894844
0.77605101
0.78380645
0.79227321
0.80151474
0.81159964
0.8226016
0.83459888
0.84767314
0.86190729
0.87738162
0.89416783
0.91231977
0.93186019
0.95276272
0.97492902
0.99816308
1.022147
1.0464271
1.0704207
1.0934557
1.1148453
1.1339856
1.1504507
1.1640528
1.1748476
1.1830891
1.1891547
1.1934679
1.1964372
1.1984188
1.1997016
1.2005066
1.2009955
1.2012818
1.2014428
1.2015291
1.2015729
1.2015937
1.2016028
1.2016065
1.2016078
1.2016082
1.2016083
1.2016083
1.2016082
1.2016081
1.201608
1.2016079
0.76196586
0.76843124
0.77549142
0.78319959
0.79161357
0.80079616
0.81081526
0.82174383
0.83365939
0.84664298
0.86077701
0.87614169
0.89280918
0.91083476
0.930244
0.95101523
0.97305726
0.99618394
1.0200897
1.0443344
1.0683478
1.091466
1.1130022
1.132343
1.1490448
1.1628973
1.1739344
1.1823937
1.1886431
1.1931034
1.1961849
1.1982491
1.1995905
1.2004358
1.2009515
1.2012553
1.2014272
1.20152
1.2015676
1.2015904
1.2016005
1.2016047
1.2016062
1.2016067
1.2016068
1.2016068
1.2016067
1.2016066
1.2016065
1.2016064
0.76150816
0.76793726
0.77495701
0.78262006
0.7909837
0.80011008
0.81006644
0.82092503
0.83276268
0.8456598
0.85969834
0.87495837
0.89151244
0.90941713
0.92870058
0.94934546
0.97126722
0.99428892
1.0181167
1.0423232
1.0663506
1.089543
1.1112146
1.130744
1.1476708
1.1617633
1.1730347
1.181706
1.1881354
1.1927402
1.1959328
1.1980788
1.1994785
1.2003641
1.2009068
1.2012282
1.2014111
1.2015107
1.201562
1.201587
1.2015982
1.2016028
1.2016046
1.2016051
1.2016053
1.2016053
1.2016052
1.2016051
1.201605
1.2016049
0.76107024
0.76746465
0.77444575
0.78206569
0.79038122
0.79945391
0.80935034
0.82014209
0.83190533
0.84471985
0.85866714
0.87382712
0.89027268
0.90806155
0.9272242
0.94774736
0.96955264
0.99247174
1.0162218
1.0403879
1.064424
1.0876826
1.1094796
1.1291863
1.1463272
1.1606503
1.1721483
1.1810259
1.1876314
1.1923786
1.1956808
1.197908
1.1993658
1.2002916
1.2008615
1.2012005
1.2013946
1.201501
1.2015563
1.2015835
1.2015958
1.201601
1.2016029
1.2016036
1.2016038
1.2016038
1.2016037
1.2016036
1.2016035
1.2016034
0.76065059
0.76701178
0.77395586
0.78153454
0.78980403
0.79882533
0.80866442
0.81939222
0.83108427
0.84381976
0.85767974
0.87274392
0.8890855
0.90676324
0.92580977
0.94621555
0.96790795
0.99072679
1.0143996
1.0385234
1.0625636
1.0858813
1.1077943
1.1276681
1.1450128
1.1595574
1.1712747
1.1803534
1.1871314
1.1920185
1.1954291
1.1977368
1.1992524
1.2002184
1.2008154
1.2011722
1.2013777
1.201491
1.2015504
1.2015798
1.2015934
1.2015991
1.2016013
1.201602
1.2016023
1.2016023
1.2016022
1.2016021
1.201602
1.2016019
0.76024784
0.76657717
0.77348577
0.78102489
0.78925024
0.79822229
0.80800643
0.81867296
0.8302968
0.84295656
0.85673285
0.87170517
0.88794698
0.90551795
0.92445272
0.94474519
0.96632814
0.98904902
1.0126452
1.0367251
1.0607654
1.0841356
1.1061562
1.1261874
1.1437264
1.158484
1.1704138
1.1796882
1.1866352
1.1916601
1.1951778
1.1975654
1.1991384
1.2001446
1.2007688
1.2011435
1.2013604
1.2014808
1.2015444
1.2015761
1.2015908
1.2015972
1.2015996
1.2016005
1.2016007
1.2016008
1.2016007
1.2016006
1.2016005
1.2016004
0.75986079
0.76615952
0.77303404
0.78053517
0.78871816
0.79764295
0.80737435
0.81798209
0.82954048
0.84212758
0.85582354
0.87070767
0.88685361
0.90432189
0.92314897
0.94333197
0.96480873
0.98743388
1.0109542
1.0349889
1.0590257
1.0824424
1.1045627
1.1247426
1.142467
1.1574295
1.169565
1.1790304
1.1861429
1.1913034
1.1949269
1.1973937
1.199024
1.2000702
1.2007216
1.2011143
1.2013427
1.2014702
1.2015381
1.2015722
1.2015882
1.2015952
1.201598
1.2015989
1.2015992
1.2015992
1.2015992
1.2015991
1.201599
1.2015989
0.75948833
0.76575764
0.77259939
0.78006401
0.78820628
0.79708565
0.80676638
0.81731763
0.82881313
0.84133041
0.85494918
0.86974853
0.88580224
0.90317162
0.92189482
0.94197198
0.96334564
0.98587726
1.0093224
1.033311
1.057341
1.0807989
1.1030119
1.123332
1.1412335
1.1563932
1.1687282
1.1783797
1.1856545
1.1909485
1.1946765
1.1972219
1.1989091
1.1999952
1.2006739
1.2010847
1.2013247
1.2014595
1.2015316
1.2015682
1.2015856
1.2015932
1.2015963
1.2015974
1.2015977
1.2015977
1.2015977
1.2015976
1.2015975
1.2015974
0.75912949
0.76537047
0.77218068
0.77961015
0.78771323
0.79654889
0.80618087
0.81667778
0.82811279
0.8405629
0.85410739
0.86882512
0.88479001
0.90206405
0.92068696
0.94066168
0.96193521
0.98437541
1.0077463
1.0316878
1.0557083
1.0792025
1.1015014
1.1219543
1.1400249
1.1553746
1.167903
1.1777361
1.1851699
1.1905954
1.1944268
1.19705
1.1987938
1.1999198
1.2006257
1.2010546
1.2013063
1.2014484
1.201525
1.2015641
1.2015829
1.2015912
1.2015946
1.2015958
1.2015962
1.2015962
1.2015962
1.2015961
1.201596
1.2015959
0.75878338
0.76499705
0.77177685
0.77917245
0.78723778
0.79603133
0.80561635
0.81606092
0.82743767
0.83982308
0.85329602
0.86793512
0.88381436
0.90099639
0.91952238
0.93939788
0.96057409
0.98292493
1.0062225
1.0301163
1.0541247
1.0776508
1.1000295
1.1206079
1.1388403
1.1543731
1.1670892
1.1770994
1.1846892
1.1902441
1.1941776
1.1968781
1.1986782
1.1998439
1.200577
1.2010241
1.2012876
1.2014371
1.2015182
1.2015599
1.2015801
1.2015891
1.2015928
1.2015942
1.2015946
1.2015947
1.2015947
1.2015946
1.2015945
1.2015944
0.75844918
0.7646365
0.77138697
0.77874989
0.7867788
0.79553174
0.80507148
0.81546558
0.82678615
0.83910918
0.85251313
0.86707636
0.88287295
0.8999661
0.91839833
0.93817767
0.95925924
0.98152273
1.0047479
1.0285935
1.0525876
1.0761414
1.0985944
1.1192916
1.1376787
1.1533882
1.1662865
1.1764696
1.1842123
1.1898947
1.1939291
1.1967062
1.1985622
1.1997676
1.200528
1.2009933
1.2012686
1.2014256
1.2015112
1.2015556
1.2015772
1.201587
1.2015911
1.2015926
1.2015931
1.2015932
1.2015932
1.2015931
1.201593
1.2015929
0.75812617
0.76428802
0.77101016
0.77834153
0.78633528
0.79504901
0.80454504
0.81489042
0.82615678
0.8384196
0.85175693
0.86624691
0.88196365
0.89897086
0.91731234
0.93699839
0.95798788
0.98016595
1.0033197
1.0271167
1.0510945
1.0746724
1.0971943
1.1180041
1.1365394
1.1524193
1.1654946
1.1758465
1.1837392
1.1895471
1.1936814
1.1965343
1.198446
1.1996909
1.2004785
1.200962
1.2012494
1.2014139
1.2015041
1.2015512
1.2015743
1.2015849
1.2015893
1.201591
1.2015916
1.2015917
1.2015916
1.2015916
1.2015915
1.2015914
0.75781366
0.7639509
0.77064565
0.77794652
0.78590627
0.79458211
0.80403591
0.81433423
0.82554819
0.83775284
0.85102582
0.86544499
0.88108451
0.89800857
0.9162621
0.93585762
0.95675747
0.978852
1.0019353
1.0256834
1.0496431
1.0732417
1.0958278
1.1167442
1.1354216
1.151466
1.1647131
1.1752299
1.1832699
1.1892015
1.1934343
1.1963626
1.1983296
1.1996138
1.2004286
1.2009305
1.2012298
1.2014019
1.2014968
1.2015467
1.2015713
1.2015827
1.2015876
1.2015894
1.20159
1.2015902
1.2015901
1.20159
1.20159
1.2015899
0.75751105
0.76362446
0.77029271
0.77756406
0.78549093
0.79413013
0.80354307
0.81379587
0.82495918
0.83710757
0.8503183
0.86466898
0.88023377
0.89707728
0.91524555
0.93475312
0.95556567
0.97757848
1.0005923
1.0242914
1.0482314
1.0718476
1.0944933
1.1155109
1.1343244
1.1505278
1.163942
1.1746198
1.1828043
1.1888577
1.1931881
1.196191
1.198213
1.1995364
1.2003784
1.2008986
1.2012099
1.2013897
1.2014894
1.201542
1.2015683
1.2015805
1.2015858
1.2015878
1.2015885
1.2015886
1.2015886
1.2015885
1.2015884
1.2015884
0.75721776
0.7633081
0.76995067
0.77719345
0.78508848
0.7936922
0.8030656
0.81327434
0.82438862
0.83648256
0.84963303
0.86391739
0.87940979
0.89617524
0.91426077
0.93368286
0.95441034
0.97634318
0.99928854
1.0229386
1.0468575
1.0704884
1.0931895
1.1143032
1.1332472
1.1496042
1.1631808
1.1740161
1.1823424
1.1885159
1.1929427
1.1960196
1.1980963
1.1994588
1.2003279
1.2008664
1.2011898
1.2013774
1.2014818
1.2015373
1.2015652
1.2015783
1.2015839
1.2015862
1.2015869
1.2015871
1.2015871
1.201587
1.2015869
1.2015869
0.75693329
0.76300126
0.76961895
0.77683402
0.78469821
0.79326754
0.80260262
0.81276869
0.82383547
0.83587666
0.84896875
0.86318885
0.87861108
0.8953008
0.913306
0.93264495
0.9532895
0.97514408
0.99802195
1.0216229
1.0455194
1.0691624
1.0919151
1.11312
1.1321893
1.1486949
1.1624294
1.1734186
1.1818842
1.1881759
1.192698
1.1958483
1.1979794
1.1993809
1.2002771
1.200834
1.2011695
1.2013648
1.2014741
1.2015325
1.201562
1.201576
1.2015821
1.2015845
1.2015854
1.2015856
1.2015856
1.2015855
1.2015854
1.2015854
0.75665716
0.76270342
0.76929696
0.77648517
0.78431943
0.79285543
0.80215337
0.81227805
0.82329878
0.83528884
0.84832433
0.86248211
0.87783626
0.89445246
0.91237961
0.93163767
0.95220133
0.97397928
0.99679066
1.0203425
1.0442156
1.0678683
1.0906689
1.1119604
1.1311501
1.1477993
1.1616876
1.1728272
1.1814295
1.1878379
1.1924543
1.1956773
1.1978624
1.1993027
1.200226
1.2008012
1.2011489
1.201352
1.2014662
1.2015275
1.2015587
1.2015737
1.2015802
1.2015829
1.2015838
1.2015841
1.2015841
1.201584
1.2015839
1.2015839
0.75638891
0.7624141
0.76898421
0.77614634
0.78395156
0.7924552
0.80171709
0.81180162
0.82277768
0.83471812
0.84769869
0.86179599
0.87708405
0.89362885
0.9114801
0.9306594
0.95114412
0.97284704
0.99559292
1.0190959
1.0429445
1.0666046
1.0894497
1.1108236
1.1301289
1.1469172
1.160955
1.1722419
1.1809784
1.1875018
1.1922114
1.1955066
1.1977454
1.1992243
1.2001746
1.2007682
1.2011281
1.2013391
1.2014582
1.2015225
1.2015554
1.2015713
1.2015784
1.2015812
1.2015823
1.2015826
1.2015826
1.2015825
1.2015824
1.2015824
0.75612816
0.76213287
0.76868021
0.775817
0.78359402
0.79206624
0.80129312
0.81133867
0.82227135
0.83416362
0.84709086
0.86112943
0.87635329
0.89282868
0.91060609
0.92970865
0.95011633
0.97174575
0.99442709
1.0178813
1.0417046
1.0653701
1.0882565
1.1097088
1.1291251
1.146048
1.1602316
1.1716624
1.1805309
1.1871675
1.1919693
1.1953361
1.1976283
1.1991457
1.200123
1.200735
1.201107
1.2013259
1.20145
1.2015174
1.2015521
1.2015689
1.2015764
1.2015796
1.2015807
1.201581
1.2015811
1.201581
1.2015809
1.2015809
0.75587451
0.76185931
0.76838452
0.77549669
0.78324629
0.79168798
0.80088084
0.81088851
0.82177905
0.83362451
0.84649994
0.86048143
0.87564287
0.89205075
0.90975629
0.92878406
0.94911648
0.9706739
0.99329167
1.0166973
1.0404945
1.0641636
1.0870883
1.1086151
1.1281383
1.1451916
1.1595169
1.1710887
1.1800868
1.1868352
1.1917282
1.1951659
1.1975112
1.199067
1.2000711
1.2007015
1.2010858
1.2013127
1.2014417
1.2015121
1.2015486
1.2015664
1.2015745
1.2015779
1.2015791
1.2015795
1.2015796
1.2015795
1.2015794
1.2015794
0.75562762
0.76159305
0.76809672
0.77518494
0.78290788
0.79131987
0.80047967
0.81045051
0.82130007
0.83310003
0.84592508
0.85985107
0.87495179
0.89129397
0.9089295
0.92788435
0.94814323
0.96963009
0.99218523
1.0155425
1.0393129
1.0629838
1.0859441
1.1075418
1.1271678
1.1443474
1.158811
1.1705206
1.1796461
1.1865048
1.1914879
1.194996
1.197394
1.198988
1.2000191
1.2006678
1.2010644
1.2012992
1.2014333
1.2015068
1.2015451
1.201564
1.2015726
1.2015762
1.2015776
1.201578
1.201578
1.201578
1.2015779
1.2015779
0.75538716
0.76133373
0.76781645
0.77488135
0.78257834
0.79096144
0.80008906
0.81002406
0.82083376
0.83258946
0.8453655
0.85923748
0.87427911
0.89055731
0.90812463
0.92700831
0.94719532
0.96861301
0.99110646
1.0144157
1.0381587
1.0618297
1.084823
1.1064882
1.1262131
1.1435152
1.1581135
1.1699581
1.1792089
1.1861762
1.1912485
1.1948264
1.1972769
1.1989089
1.1999668
1.2006339
1.2010427
1.2012856
1.2014248
1.2015014
1.2015416
1.2015614
1.2015706
1.2015745
1.201576
1.2015764
1.2015765
1.2015765
1.2015764
1.2015764
0.75515283
0.76108103
0.76754334
0.77458554
0.78225726
0.79061223
0.79970851
0.80960864
0.82037954
0.83209214
0.84482047
0.85863987
0.87362395
0.88983982
0.90734061
0.92615484
0.94627157
0.96762143
0.99005412
1.0133156
1.0370306
1.0607003
1.0837242
1.1054537
1.1252739
1.1426946
1.1574243
1.1694011
1.1787749
1.1858495
1.1910101
1.1946572
1.1971598
1.1988297
1.1999143
1.2005998
1.2010209
1.2012718
1.2014162
1.2014959
1.201538
1.2015589
1.2015686
1.2015728
1.2015744
1.2015749
1.201575
1.201575
1.2015749
1.2015749
0.75492434
0.76083464
0.76727705
0.77429713
0.78194423
0.79027179
0.79933756
0.80920371
0.81993682
0.83160746
0.84428932
0.85805749
0.8729855
0.8891406
0.90657651
0.9253229
0.94537089
0.96665423
0.98902706
1.012241
1.0359277
1.0595947
1.0826468
1.1044375
1.1243495
1.1418854
1.1567431
1.1688495
1.1783443
1.1855246
1.1907725
1.1944883
1.1970427
1.1987504
1.1998616
1.2005655
1.2009989
1.2012579
1.2014074
1.2014903
1.2015343
1.2015563
1.2015666
1.2015711
1.2015728
1.2015734
1.2015735
1.2015735
1.2015734
1.2015734
0.75470143
0.76059428
0.76701729
0.7740158
0.7816389
0.78993975
0.79897577
0.80880881
0.81950509
0.83113483
0.8437714
0.85748964
0.87236299
0.88845882
0.9058314
0.92451152
0.94449224
0.96571033
0.98802418
1.011191
1.0348488
1.0585119
1.0815901
1.1034392
1.1234396
1.1410872
1.1560698
1.1683031
1.1779169
1.1852016
1.1905359
1.1943198
1.1969257
1.1986709
1.1998088
1.200531
1.2009768
1.2012438
1.2013985
1.2014847
1.2015305
1.2015536
1.2015646
1.2015693
1.2015712
1.2015718
1.201572
1.201572
1.2015719
1.2015719
0.75448386
0.76035967
0.76676376
0.77374123
0.78134092
0.78961572
0.79862273
0.80842348
0.81908385
0.83067371
0.84326613
0.85693568
0.87175571
0.88779371
0.90510445
0.9237198
0.94363467
0.96478872
0.98704448
1.0101645
1.0337932
1.0574511
1.0805533
1.102458
1.1225437
1.1402998
1.1554043
1.1677619
1.1774928
1.1848804
1.1903002
1.1941516
1.1968087
1.1985914
1.1997558
1.2004963
1.2009544
1.2012296
1.2013895
1.2014789
1.2015267
1.201551
1.2015625
1.2015676
1.2015696
1.2015703
1.2015705
1.2015705
1.2015704
1.2015704
0.75427138
0.76013057
0.76651619
0.77347312
0.78104997
0.78929934
0.79827806
0.80804731
0.81867265
0.83022361
0.84277294
0.856395
0.87116298
0.88714453
0.90439487
0.92294688
0.94279727
0.96388847
0.98608699
1.0091606
1.0327598
1.0564115
1.0795359
1.1014936
1.1216614
1.1395228
1.1547463
1.1672257
1.1770718
1.184561
1.1900654
1.1939838
1.1966917
1.1985117
1.1997026
1.2004614
1.2009319
1.2012152
1.2013804
1.2014731
1.2015229
1.2015482
1.2015604
1.2015658
1.201568
1.2015687
1.2015689
1.2015689
1.2015689
1.2015689
0.75406379
0.75990674
0.76627432
0.7732112
0.78076575
0.78899031
0.79794139
0.8076799
0.81827105
0.82978404
0.84229133
0.85586702
0.8705842
0.8865106
0.9037019
0.92219197
0.94197919
0.96300869
0.98515081
1.0081784
1.0317478
1.0553922
1.078537
1.1005453
1.1207924
1.1387561
1.1540956
1.1666945
1.1766539
1.1842434
1.1898315
1.1938164
1.1965749
1.198432
1.1996493
1.2004264
1.2009093
1.2012008
1.2013712
1.2014671
1.2015189
1.2015455
1.2015583
1.201564
1.2015664
1.2015672
1.2015674
1.2015674
1.2015674
1.2015674
0.75386087
0.75968796
0.76603792
0.77295521
0.78048798
0.78868829
0.7976124
0.80732089
0.81787864
0.82935457
0.8418208
0.8553512
0.87001875
0.88589127
0.90302487
0.92145431
0.94117964
0.96214854
0.98423509
1.007217
1.0307564
1.0543927
1.0775562
1.0996126
1.1199362
1.1379993
1.1534522
1.1661683
1.1762391
1.1839276
1.1895985
1.1936493
1.1964581
1.1983522
1.1995958
1.2003912
1.2008865
1.2011862
1.2013618
1.2014611
1.201515
1.2015427
1.2015562
1.2015622
1.2015647
1.2015656
1.2015659
1.2015659
1.2015659
1.2015659
0.75366244
0.75947402
0.76580676
0.77270491
0.78021639
0.78839302
0.79729077
0.80696992
0.81749506
0.82893476
0.84136088
0.85484705
0.8694661
0.88528595
0.9023631
0.92073319
0.94039786
0.96130725
0.98333903
1.0062756
1.0297849
1.0534121
1.0765927
1.0986951
1.1190925
1.1372521
1.1528158
1.1656468
1.1758273
1.1836136
1.1893664
1.1934827
1.1963414
1.1982723
1.1995422
1.2003559
1.2008635
1.2011714
1.2013524
1.2014551
1.2015109
1.2015399
1.201554
1.2015604
1.2015631
1.2015641
1.2015644
1.2015644
1.2015644
1.2015644
0.75346832
0.75926473
0.76558062
0.77246006
0.77995073
0.7881042
0.79697619
0.80662667
0.81711993
0.82852424
0.84091116
0.85435408
0.86892573
0.88469407
0.90171598
0.92002796
0.93963314
0.96048408
0.98246187
1.0053536
1.0288326
1.0524499
1.0756461
1.0977923
1.118261
1.1365145
1.1521864
1.16513
1.1754185
1.1833013
1.1891353
1.1933164
1.1962249
1.1981924
1.1994885
1.2003204
1.2008405
1.2011565
1.2013429
1.2014489
1.2015068
1.201537
1.2015518
1.2015586
1.2015614
1.2015625
1.2015628
1.2015629
1.2015629
1.2015629
0.75327833
0.7590599
0.76535932
0.77222046
0.77969077
0.7878216
0.79666838
0.80629084
0.81675293
0.82812263
0.84047122
0.85387185
0.86839714
0.88411508
0.90108293
0.91933799
0.93888483
0.95967831
0.9816029
1.0044501
1.0278987
1.0515054
1.0747158
1.0969038
1.1174414
1.1357861
1.1515637
1.1646178
1.1750127
1.1829907
1.1889051
1.1931506
1.1961084
1.1981124
1.1994347
1.2002848
1.2008172
1.2011416
1.2013332
1.2014427
1.2015027
1.2015341
1.2015496
1.2015568
1.2015598