/*--------------------------------*- C++ -*----------------------------------*\
| =========                 |                                                 |
| \\      /  F ield         | OpenFOAM: The Open Source CFD Toolbox           |
|  \\    /   O peration     | Version:  4.0                                   |
|   \\  /    A nd           | Web:      www.OpenFOAM.org                      |
|    \\/     M anipulation  |                                                 |
\*---------------------------------------------------------------------------*/
FoamFile
{
    version     2.0;
    format      ascii;
    class       surfaceScalarField;
    location    "522";
    object      snGradRho;
}
// * * * * * * * * * * * * * * * * * * * * * * * * * * * * * * * * * * * * * //

dimensions      [1 -4 0 0 0 0 0];

internalField   nonuniform List<scalar> 
9850
(
143.14513
-2.5265629
143.48135
-2.745667
142.71769
-2.9856136
140.67338
-3.2402231
137.18818
-3.5001615
132.14382
-3.7526018
125.48876
-3.9812332
117.26283
-4.1668313
107.61649
-4.2885967
96.818112
-4.3263889
85.243347
-4.2637875
73.344325
-4.0915963
61.60155
-3.8110334
50.467543
-3.4355634
40.314715
-2.9903628
31.399236
-2.5089492
23.847686
-2.0275036
17.666254
-1.5784572
12.766357
-1.1853564
8.9977433
-0.86049429
6.180759
-0.60556653
4.132246
-0.41444838
2.6828543
-0.2767004
1.6862033
-0.18064772
1.0218119
-0.11546053
0.59412612
-0.072192441
0.32964808
-0.044026208
0.1734999
-0.026052412
0.086081273
-0.014857966
0.040008429
-0.0081076171
0.017259758
-0.0042089702
0.0068647938
-0.0020733016
0.0025146614
-0.00097763288
0.00084337151
-0.00045871205
0.00025743538
-0.00023373165
7.1081117e-05
-0.00014513141
1.7627668e-05
-0.00011366058
3.8863425e-06
-0.0001036363
7.4825732e-07
-0.00010077919
1.2532858e-07
-0.0001000424
2.7891849e-08
-9.9859258e-05
2.4893028e-08
-9.9804366e-05
3.4793928e-08
-9.9776526e-05
4.5969352e-08
-9.975397e-05
5.4718352e-08
-9.9731481e-05
7.1599226e-08
-9.9709408e-05
5.7651312e-08
-9.9689147e-05
-2.4322172e-08
-9.9721966e-05
-9.6639005e-07
-0.00010004454
-0.00010122909
109.878
-0.89436023
110.36411
-0.97012635
110.77373
-1.0555253
111.02782
-1.1511525
111.01704
-1.2571618
110.59741
-1.3729605
109.5891
-1.4968138
107.78052
-1.6253802
104.94122
-1.7532413
100.84646
-1.8725536
95.315678
-1.9730193
88.262865
-2.0424331
79.75039
-2.0680452
70.029279
-2.0388222
59.543353
-1.9483184
48.879833
-1.7973694
38.668763
-1.5954468
29.460556
-1.3596866
21.62664
-1.111499
15.318169
-0.87188291
10.488129
-0.65725295
6.9543742
-0.47721236
4.4717405
-0.33459812
2.7898179
-0.22711779
1.6877058
-0.14953638
0.9881736
-0.095600104
0.55823018
-0.059330311
0.30291588
-0.035680116
0.15702181
-0.020722443
0.077253198
-0.011568761
0.035806537
-0.0061763121
0.015514419
-0.0031409705
0.0062386007
-0.0015240893
0.0023110459
-0.00071815433
0.00078285166
-0.00034638263
0.00024073374
-0.00018932101
6.6751152e-05
-0.00012913815
1.6613944e-05
-0.00010840572
3.7319124e-06
-0.00010203284
7.9950432e-07
-0.00010029158
2.1157801e-07
-9.9863358e-05
1.0958094e-07
-9.9759228e-05
9.7168819e-08
-9.9723297e-05
1.0249991e-07
-9.9698072e-05
1.0515895e-07
-9.9672409e-05
1.1368575e-07
-9.9647087e-05
-4.3202866e-09
-9.9638502e-05
-5.7803258e-07
-9.9725621e-05
-2.8148021e-06
-0.00010023359
-0.00010160717
98.374236
-0.49228988
98.577415
-0.53342577
98.776096
-0.57981945
98.937644
-0.63202036
99.011888
-0.69050324
98.925372
-0.75556465
98.575184
-0.82716405
97.823526
-0.90469548
96.495216
-0.98668442
94.381579
-1.0704264
91.255319
-1.1516269
86.900976
-1.2241683
81.162924
-1.2802029
74.005938
-1.3108172
65.572563
-1.3074431
56.211353
-1.263935
46.450184
-1.1788001
36.90699
-1.0566631
28.161926
-0.90805762
20.639491
-0.74728442
14.545835
-0.58907345
9.8762008
-0.4454202
6.4734551
-0.32375177
4.1032658
-0.22675033
2.5177826
-0.15338243
1.4955904
-0.10038865
0.85900201
-0.063638726
0.47583749
-0.039072597
0.25321937
-0.023204364
0.12876863
-0.013294299
0.062166345
-0.0073207693
0.028278693
-0.0038604245
0.012022244
-0.0019475807
0.0047363229
-0.00094812438
0.001714257
-0.00046000349
0.00056516686
-0.00023979469
0.0001683494
-0.00014909751
4.5003306e-05
-0.00011536855
1.078319e-05
-0.00010415345
2.37585e-06
-0.00010084269
5.600324e-07
-9.9973127e-05
2.18883e-07
-9.9761058e-05
1.6692213e-07
-9.970221e-05
1.6701168e-07
-9.9673432e-05
1.6302191e-07
-9.9651051e-05
1.3151928e-07
-9.9634593e-05
-1.6882915e-07
-9.9664108e-05
-1.449988e-06
-9.9836292e-05
-4.9581785e-06
-0.00010047097
-0.00010162803
92.128472
-0.33807299
92.174195
-0.3660835
92.226836
-0.39765048
92.267768
-0.43319582
92.266803
-0.47313231
92.177786
-0.51781566
91.933286
-0.56746588
91.438756
-0.62204603
90.567205
-0.68108644
89.156399
-0.74344836
87.01201
-0.80703785
83.921416
-0.86851565
79.683136
-0.92310475
74.154195
-0.96466457
67.310365
-0.98624071
59.302479
-0.98123829
50.481398
-0.94513291
41.365638
-0.87724597
32.546851
-0.78178812
24.562017
-0.66745813
17.783453
-0.54551742
12.368898
-0.42708912
8.2800109
-0.32082245
5.3453792
-0.23173108
3.3333545
-0.16129772
2.0097242
-0.10838827
1.1714222
-0.070393561
0.65928585
-0.044195341
0.35736588
-0.026801901
0.18583529
-0.01567109
0.092217004
-0.0088104314
0.043379408
-0.0047487377
0.019194657
-0.0024504144
0.0079206116
-0.0012162862
0.0030201371
-0.00059319195
0.0010540962
-0.00030055908
0.00033363655
-0.00017419698
9.4963374e-05
-0.00012461898
2.4190178e-05
-0.00010714585
5.5768632e-06
-0.00010167017
1.2696894e-06
-0.00010015405
3.9789799e-07
-9.9779383e-05
2.4650219e-07
-9.9689442e-05
2.2327056e-07
-9.9659984e-05
2.0063201e-07
-9.9646648e-05
7.0208205e-08
-9.9647243e-05
-4.9396741e-07
-9.9720485e-05
-2.5394481e-06
-9.9967437e-05
-6.7636875e-06
-0.00010063615
-0.00010159848
87.875565
-0.25146088
87.817347
-0.27216459
87.767226
-0.29546616
87.713077
-0.32168376
87.634364
-0.35114289
87.498708
-0.38415091
87.257559
-0.42095328
86.841069
-0.46166324
86.152666
-0.50615478
85.064475
-0.55391
83.415864
-0.60381777
81.018717
-0.65393785
77.674287
-0.70127784
73.206157
-0.74168148
67.510172
-0.76998215
60.613413
-0.78059348
52.722052
-0.76862
44.229684
-0.73132457
35.665085
-0.66945175
27.585294
-0.58771842
20.452558
-0.49402045
14.546049
-0.39754844
9.9392494
-0.30661457
6.537811
-0.22708445
4.1476285
-0.16185541
2.5412728
-0.11124382
1.5045986
-0.073831913
0.8603667
-0.047345473
0.47434143
-0.029322418
0.25137691
-0.017514209
0.12748996
-0.010065903
0.061523245
-0.0055515482
0.028051149
-0.0029328573
0.011985408
-0.0014877027
0.0047555058
-0.00073504285
0.0017352876
-0.00036871106
0.0005765911
-0.00020393466
0.00017280115
-0.00013625143
4.6364076e-05
-0.00011116764
1.1157988e-05
-0.00010287607
2.5234434e-06
-0.00010045491
6.7149489e-07
-9.9831987e-05
3.2796093e-07
-9.9687196e-05
2.5679419e-07
-9.9651821e-05
1.992731e-07
-9.9647057e-05
-8.1935161e-08
-9.966723e-05
-9.6029161e-07
-9.9780346e-05
-3.6873322e-06
-0.00010009074
-8.2653303e-06
-0.0001007628
-0.0001015848
84.732069
-0.19884891
84.601283
-0.21514268
84.477898
-0.23346221
84.353311
-0.25406019
84.212337
-0.27720105
84.030422
-0.30314528
83.770053
-0.33212173
83.376355
-0.36428199
82.77212
-0.39962915
81.852957
-0.43791299
80.484089
-0.47848549
78.50148
-0.52011943
75.721324
-0.56081226
71.96265
-0.59763216
67.086333
-0.62671079
61.048153
-0.64352516
53.953012
-0.64359383
46.086069
-0.62357672
37.894279
-0.58250698
29.908348
-0.52262519
22.626819
-0.44928144
16.409068
-0.36976726
11.420419
-0.2915288
7.642134
-0.22053891
4.9265384
-0.16042262
3.0646679
-0.11244411
1.8414404
-0.076069183
1.0687264
-0.049710813
0.59843586
-0.031377049
0.32253248
-0.019107311
0.16669395
-0.011202799
0.082196186
-0.006307853
0.038422034
-0.003403825
0.016895434
-0.0017619224
0.0069279231
-0.00088355328
0.0026235624
-0.00044289481
0.00090826944
-0.00023774655
0.0002845423
-0.00015014146
7.994094e-05
-0.00011624278
2.0070733e-05
-0.00010450092
4.6079527e-06
-0.00010090102
1.1119445e-06
-9.993183e-05
4.2578494e-07
-9.9702585e-05
2.6876919e-07
-9.9653897e-05
1.531748e-07
-9.9656081e-05
-3.1690576e-07
-9.9697639e-05
-1.5464197e-06
-9.9846069e-05
-4.8409546e-06
-0.00010020456
-9.5479967e-06
-0.00010085641
-0.00010154773
82.258146
-0.16314233
82.072836
-0.17645844
81.893622
-0.19141622
81.714134
-0.20822207
81.522632
-0.22709514
81.299657
-0.24825695
81.014975
-0.27191274
80.623746
-0.2982198
80.062044
-0.32723725
79.242155
-0.35885031
78.04871
-0.39266292
76.337696
-0.42785701
73.941585
-0.46302847
70.68496
-0.49603382
66.414733
-0.52391788
61.04566
-0.54303246
54.61369
-0.54946851
47.318295
-0.53985728
39.527494
-0.51241414
31.72676
-0.46785342
24.418888
-0.40967994
18.011988
-0.34355859
12.742536
-0.27594136
8.6598986
-0.21254918
5.6649254
-0.15732844
3.5735556
-0.11215307
2.1766535
-0.077140033
1.2806781
-0.051252538
0.72738057
-0.032901016
0.3980463
-0.020389179
0.20920311
-0.012175874
0.10512169
-0.0069893634
0.050204844
-0.0038477979
0.022625532
-0.002031257
0.0095411118
-0.0010352111
0.0037294734
-0.00052164499
0.0013375739
-0.00027511712
0.00043555125
-0.00016617231
0.00012748982
-0.00012238353
3.3322647e-05
-0.00010657363
7.8511927e-06
-0.00010150811
1.8093019e-06
-0.0001000832
5.6042079e-07
-9.973514e-05
2.6327956e-07
-9.9664963e-05
5.8209847e-08
-9.9672657e-05
-6.2523438e-07
-9.9735998e-05
-2.2233731e-06
-9.9914444e-05
-5.9598798e-06
-0.00010030331
-1.0626753e-05
-0.00010092014
-0.00010148934
80.236328
-0.13765639
80.008376
-0.14885595
79.785115
-0.16142621
79.561692
-0.17554025
79.328732
-0.19138358
79.070317
-0.20914694
78.761323
-0.22901295
78.364054
-0.251133
77.824187
-0.27559013
77.066345
-0.30234201
75.990031
-0.33113857
74.467503
-0.36141067
72.346228
-0.39213424
69.459758
-0.42169018
65.651258
-0.44776836
60.811976
-0.46739929
54.930915
-0.47722027
48.141679
-0.47405609
40.742842
-0.45577254
33.169055
-0.42215563
25.909113
-0.37540141
19.397304
-0.3198605
13.923152
-0.26103239
9.5947818
-0.20422743
6.3601722
-0.1534722
4.0633903
-0.11102104
2.5058783
-0.077469181
1.492835
-0.052218835
0.85886954
-0.034020176
0.47651011
-0.021411069
0.25424431
-0.012997614
0.1299224
-0.0075927765
0.063240914
-0.0042578581
0.029123303
-0.0022900432
0.012586657
-0.0011865926
0.005058453
-0.0006032855
0.0018714526
-0.00031538773
0.00063061771
-0.0001841618
0.00019151237
-0.00012957953
5.1969755e-05
-0.00010912003
1.2619427e-05
-0.00010229551
2.8680894e-06
-0.00010029432
7.5447987e-07
-9.9786601e-05
2.4393859e-07
-9.9683961e-05
-8.6531487e-08
-9.9694747e-05
-9.9591378e-07
-9.9778392e-05
-2.9576722e-06
-9.9981961e-05
-7.0187105e-06
-0.00010038679
-1.151495e-05
-0.00010096317
-0.00010142524
78.535871
-0.11859964
78.273439
-0.12822205
78.014331
-0.13901453
77.754787
-0.15112507
77.487158
-0.16471343
77.198128
-0.1799459
76.866361
-0.19698532
76.45949
-0.21597371
75.930447
-0.23700366
75.213313
-0.26007411
74.219263
-0.28502532
72.83382
-0.31144911
70.917602
-0.33857553
68.313904
-0.36514847
64.867159
-0.38932401
60.455391
-0.40865494
55.035351
-0.42025149
48.690245
-0.42120312
41.659709
-0.40926752
34.328233
-0.38366972
27.160879
-0.34567881
20.602552
-0.29860447
14.981088
-0.24709311
10.454064
-0.19598848
7.0134937
-0.14925621
4.532783
-0.10937601
2.827
-0.077294149
1.7032248
-0.052764491
0.99138074
-0.034824357
0.55688599
-0.022217689
0.30118152
-0.013685223
0.15624951
-0.0081211212
0.077362573
-0.0046314827
0.036321735
-0.0025347917
0.016045779
-0.0013350434
0.0066104491
-0.00068628638
0.0025145189
-0.0003578598
0.00087376613
-0.00020387073
0.00027436356
-0.00013778606
7.7092063e-05
-0.0001121516
1.9316088e-05
-0.00010327857
4.4125689e-06
-0.00010057345
1.0383097e-06
-9.986004e-05
2.1682579e-07
-9.9711504e-05
-2.7767065e-07
-9.9722165e-05
-1.4187788e-06
-9.9823386e-05
-3.722114e-06
-0.00010004726
-8.008109e-06
-0.00010045673
-1.223597e-05
-0.00010098981
-0.00010135725
77.074876
-0.10387125
76.783871
-0.11227835
76.49491
-0.12170181
76.205056
-0.13227026
75.907969
-0.14412325
75.592319
-0.15740739
75.23968
-0.17226869
74.821814
-0.18883899
74.297312
-0.20721342
73.607726
-0.22741512
72.673603
-0.24934274
71.391411
-0.27269672
69.633164
-0.29688392
67.251651
-0.32090807
64.095043
-0.3432703
60.034337
-0.36192827
55.003942
-0.3743888
49.048352
-0.37801528
42.357863
-0.37058204
35.270142
-0.35098159
28.221828
-0.31982515
21.657897
-0.27960373
15.932862
-0.23422318
11.245238
-0.18805658
7.6272483
-0.14492785
4.9816104
-0.10743596
3.1389564
-0.076783572
1.9106259
-0.053007225
1.1238663
-0.035387739
0.63839881
-0.022850399
0.34950183
-0.014258035
0.18379804
-0.008580847
0.092409088
-0.0049689014
0.044148371
-0.002763636
0.019893032
-0.0014786449
0.0083809275
-0.00076935864
0.0032691347
-0.00040187046
0.0011681544
-0.00022503964
0.00037817085
-0.00014693743
0.00010975532
-0.00011566897
2.8368372e-05
-0.00010446876
6.5827314e-06
-0.00010092769
1.4490544e-06
-9.9958097e-05
1.9002456e-07
-9.9747909e-05
-5.0896979e-07
-9.9754387e-05
-1.8838337e-06
-9.9869749e-05
-4.4953128e-06
-0.0001001089
-8.923179e-06
-0.00010051416
-1.2809328e-05
-0.00010100181
-0.00010128363
75.798404
-0.092177562
75.483252
-0.099622255
75.168965
-0.10796224
74.853243
-0.11731079
74.530768
-0.12779128
74.191777
-0.13953426
73.820149
-0.15267146
73.390932
-0.1673249
72.867253
-0.18358874
72.196705
-0.20150055
71.307511
-0.22099808
70.10529
-0.24185777
68.471925
-0.26361362
66.269074
-0.28546082
63.349806
-0.30616169
59.581913
-0.32399159
54.884247
-0.33678689
49.271373
-0.34216932
42.892445
-0.33799266
36.042604
-0.32296024
29.128328
-0.29721508
22.587636
-0.26260471
16.792669
-0.22240148
11.975405
-0.18052918
8.2042467
-0.14062591
5.4104393
-0.10533727
3.4413326
-0.076051097
2.11432
-0.053031894
1.2556233
-0.035767862
0.72048385
-0.023344305
0.39880422
-0.014734734
0.21231211
-0.0089799695
0.10823477
-0.0052721854
0.052531095
-0.0029760306
0.024099235
-0.0016161855
0.010361979
-0.00085149705
0.0041356855
-0.00044683067
0.0015160774
-0.00024740911
0.00050479313
-0.00015695522
0.00015098533
-0.00011966479
4.0218051e-05
-0.00010587489
9.5321993e-06
-0.00010136386
2.0302824e-06
-0.00010008353
1.7374182e-07
-9.9793485e-05
-7.7258614e-07
-9.9790576e-05
-2.3806123e-06
-9.9916289e-05
-5.2605699e-06
-0.00010016573
-9.7602561e-06
-0.00010056036
-1.3249096e-05
-0.00010100173
-0.000101206
74.668058
-0.082689356
74.332173
-0.089354938
73.996072
-0.096818295
73.657961
-0.10518025
73.313342
-0.11455101
72.953717
-0.12504785
72.564831
-0.13679031
72.124409
-0.14989135
71.599293
-0.16444243
70.942057
-0.18048969
70.087323
-0.19799776
68.948454
-0.21679782
67.415911
-0.23651782
65.359495
-0.25649754
62.637643
-0.27570106
59.117334
-0.29265639
54.706597
-0.30547374
49.396686
-0.31200916
43.302439
-0.31022528
36.680904
-0.29872722
29.908367
-0.2773242
23.411305
-0.24735698
17.572499
-0.21155975
12.650964
-0.17343967
8.7473373
-0.13642758
5.8201548
-0.10316571
3.7340798
-0.075173233
2.3139048
-0.05289877
1.3861845
-0.036007828
0.80273329
-0.023727404
0.4487803
-0.015131505
0.24158277
-0.0093264075
0.1247127
-0.0055441763
0.061402134
-0.0031722274
0.028633983
-0.0017469744
0.01254345
-0.00093194325
0.0051129411
-0.00049222992
0.0019190237
-0.00027072716
0.00065580147
-0.00016775114
0.0002017485
-0.00012412395
5.5313542e-05
-0.00010750261
1.3426922e-05
-0.00010188821
2.8323359e-06
-0.0001002393
1.8105379e-07
-9.9848877e-05
-1.0598528e-06
-9.983016e-05
-2.8987627e-06
-9.9962245e-05
-6.0057574e-06
-0.00010021729
-1.0517899e-05
-0.00010059678
-1.3567839e-05
-0.00010099212
-0.00010112628
73.656006
-0.074850511
73.302087
-0.080873731
72.94696
-0.087614686
72.589241
-0.095163965
72.225108
-0.10362085
71.847097
-0.1130915
71.442502
-0.12368503
70.991264
-0.13550618
70.463324
-0.14864289
69.81543
-0.16314621
68.987613
-0.17899969
67.89987
-0.19607487
66.450165
-0.21407077
64.515709
-0.23243864
61.960412
-0.25030119
58.651954
-0.26639003
54.49089
-0.27904393
49.450208
-0.28632757
43.616037
-0.28632376
37.211549
-0.27759748
30.58376
-0.25972036
24.144705
-0.23363275
18.282448
-0.20161284
13.277576
-0.1667878
9.259236
-0.13237373
6.2117714
-0.1009753
4.0173557
-0.074201879
2.5091764
-0.052650848
1.5152415
-0.036139793
0.88485211
-0.024021621
0.49919348
-0.01546181
0.27144114
-0.0096273456
0.14173455
-0.0057879199
0.070699865
-0.0033529389
0.033467273
-0.0018707025
0.014913851
-0.0010101525
0.0061984045
-0.00053764065
0.0023777524
-0.00029475799
0.00083247071
-0.00017923169
0.0002629347
-0.00012902479
7.4101272e-05
-0.00010935437
1.8442859e-05
-0.00010250613
3.9119723e-06
-0.00010042833
2.2810513e-07
-9.9914864e-05
-1.3616828e-06
-9.9872726e-05
-3.4285673e-06
-0.00010000707
-6.7223399e-06
-0.00010026346
-1.1196521e-05
-0.00010062459
-1.3777197e-05
-0.00010097471
-0.00010104524
72.741485
-0.068275265
72.371706
-0.073760664
71.999808
-0.079897066
71.624747
-0.086766511
71.243261
-0.094459112
70.848755
-0.10307161
70.429817
-0.11270411
69.968262
-0.12345399
69.436648
-0.13540531
68.795273
-0.14861177
67.9888
-0.16307042
66.942963
-0.17868314
65.56233
-0.19520377
63.730843
-0.21217105
61.317792
-0.22883447
58.19251
-0.24409163
54.250489
-0.25647326
49.450323
-0.26422828
43.854038
-0.26556131
37.654776
-0.25903421
31.171716
-0.24405047
24.800717
-0.221233
18.93103
-0.19247378
13.860204
-0.16055676
9.7424563
-0.12848423
6.5863334
-0.098800247
4.2914314
-0.073172786
2.7000563
-0.052319215
1.6425934
-0.036187971
0.96662617
-0.024244168
0.5498617
-0.015736771
0.30175102
-0.0098891365
0.15920874
-0.0060064343
0.080369331
-0.0035191488
0.038570499
-0.0019873421
0.017461063
-0.0010857642
0.0073886391
-0.00058272002
0.002892389
-0.00031928997
0.0010357846
-0.00019130337
0.00033534514
-0.00013434117
9.7017882e-05
-0.00011142983
2.4763465e-05
-0.00010322208
5.3318491e-06
-0.00010065342
3.340285e-07
-9.9992294e-05
-1.6686676e-06
-9.9917994e-05
-3.9611698e-06
-0.00010005033
-7.4042694e-06
-0.00010030428
-1.1797516e-05
-0.00010064484
-1.3887248e-05
-0.00010095093
-0.00010096356
71.908624
-0.062688001
71.524764
-0.067717156
71.137949
-0.073340928
70.747419
-0.079634123
70.350381
-0.086679064
69.94098
-0.094564424
69.508906
-0.10338251
69.03757
-0.11322405
68.501775
-0.12416921
67.864873
-0.13627285
67.075533
-0.14954174
66.064502
-0.16390101
64.742194
-0.17914745
62.998667
-0.19488961
60.708389
-0.21047963
57.74295
-0.22495205
53.99453
-0.23699985
49.410327
-0.24503419
44.032058
-0.24737793
38.026268
-0.24261329
31.68597
-0.23002618
25.389925
-0.20998709
19.525453
-0.18406051
14.40319
-0.15472211
10.199291
-0.1247666
6.9448633
-0.096662077
4.5566371
-0.072110815
2.8865452
-0.051926621
1.7681128
-0.036170741
1.0478995
-0.024408569
0.60064429
-0.015965463
0.33240255
-0.010117243
0.17705828
-0.0062025243
0.090362173
-0.0036719413
0.043917027
-0.0020970428
0.020172868
-0.0011585552
0.0086795651
-0.00062719794
0.0034625327
-0.00034413644
0.0012664542
-0.00020387514
0.00041968597
-0.00014004366
0.0001244839
-0.00011372615
3.257726e-05
-0.00010403962
7.1600426e-06
-0.00010091727
5.2079821e-07
-0.00010008212
-1.9710586e-06
-9.9965876e-05
-4.4887067e-06
-0.00010009177
-8.0473472e-06
-0.00010033999
-1.2322938e-05
-0.00010065851
-1.390696e-05
-0.00010092209
-0.00010088228
71.145034
-0.057886824
70.748576
-0.062524528
70.348389
-0.067708647
69.943955
-0.073507799
69.532885
-0.079997622
69.109957
-0.087259816
68.665809
-0.095379859
68.185232
-0.10444254
67.64497
-0.1145242
67.011032
-0.12567987
66.235587
-0.13792344
65.253794
-0.15119805
63.981276
-0.16533468
62.313654
-0.17999829
60.130332
-0.19462523
57.305512
-0.20836411
53.729351
-0.22004605
49.340007
-0.22822504
44.162008
-0.23133596
38.33834
-0.22799604
32.137606
-0.21741063
25.921099
-0.19974906
20.071851
-0.17629772
14.910334
-0.14925625
10.631819
-0.12122081
7.288337
-0.09457388
4.81333
-0.071033197
3.0686947
-0.051489687
1.8917234
-0.03610199
1.1285587
-0.024525353
0.65143197
-0.01615519
0.36330682
-0.010316234
0.19521854
-0.0063786795
0.10063613
-0.00381239
0.049482438
-0.0022000528
0.023037303
-0.0012284016
0.010066694
-0.00067086362
0.0040873567
-0.00036913405
0.0015249411
-0.00021685975
0.00051656555
-0.00014610048
0.00015689844
-0.00011623819
4.2075355e-05
-0.00010496132
9.4694524e-06
-0.00010122242
8.1301583e-07
-0.0001001854
-2.2587511e-06
-0.00010001646
-5.0043156e-06
-0.00010013134
-8.6488054e-06
-0.00010037094
-1.2775395e-05
-0.00010066652
-1.3844846e-05
-0.00010088934
-0.00010080236
70.44088
-0.053720668
70.033068
-0.058019176
69.620812
-0.062822476
69.203801
-0.068193842
68.779995
-0.074203114
68.344717
-0.080925926
67.889434
-0.088441744
67.400138
-0.096830023
66.855271
-0.10616341
66.223169
-0.11649654
65.459089
-0.12784845
64.502098
-0.14017645
63.272491
-0.15333906
61.670959
-0.16704742
59.581573
-0.18080766
56.881358
-0.19386436
53.459398
-0.20516697
49.24667
-0.21339546
44.253101
-0.21708937
38.600784
-0.21490973
32.535657
-0.20600866
26.401561
-0.19039485
20.575472
-0.16911802
15.384972
-0.14413117
11.041914
-0.11784251
7.6176728
-0.092543193
5.0618749
-0.069951922
3.2465877
-0.051020688
2.0133842
-0.035992351
1.208521
-0.024602812
0.7021392
-0.016311873
0.39439138
-0.010489951
0.21363504
-0.006537089
0.11115431
-0.0039415125
0.055244515
-0.0022966706
0.026042872
-0.001295248
0.011545305
-0.00071355473
0.0047656952
-0.00039414132
0.0018114823
-0.0002301748
0.00062649409
-0.00015247838
0.0001946348
-0.00011895883
5.344899e-05
-0.00010598879
1.2337094e-05
-0.00010157118
1.2376856e-06
-0.00010030323
-2.5212616e-06
-0.00010006998
-5.5020296e-06
-0.00010016908
-9.2069442e-06
-0.00010039754
-1.3157882e-05
-0.00010066969
-1.3709125e-05
-0.00010085364
-0.00010072459
69.788227
-0.050074358
69.37012
-0.054076384
68.946907
-0.058546939
68.518454
-0.063544638
68.083023
-0.069134263
67.63642
-0.075386118
67.170834
-0.08237435
66.673314
-0.090173603
66.123799
-0.098853046
65.492684
-0.10846647
64.737963
-0.11903672
63.802195
-0.1305323
62.609879
-0.1428342
61.066346
-0.15569173
59.060062
-0.16866947
56.470976
-0.18109336
53.187811
-0.19201491
49.135841
-0.20022543
44.312549
-0.20436147
38.821468
-0.20313276
32.887557
-0.19565845
26.837473
-0.18181881
21.040827
-0.16246182
15.830037
-0.13932009
11.431269
-0.11462527
7.9337261
-0.090574308
5.3026333
-0.068875642
3.4203262
-0.050529055
2.1330788
-0.035850224
1.2877264
-0.024647642
0.75269849
-0.016440387
0.42559677
-0.010641634
0.23226172
-0.006679671
0.12188455
-0.004060259
0.061183142
-0.0023872234
0.029178658
-0.0013590912
0.013110575
-0.00075514901
0.0054961191
-0.00041903661
0.0021261155
-0.00024374345
0.00074988572
-0.00015914348
0.00023803709
-0.00012187926
6.6887237e-05
-0.00010712268
1.5843332e-05
-0.00010196562
1.8240046e-06
-0.00010043675
-2.7476966e-06
-0.00010012679
-5.9766203e-06
-0.00010020514
-9.7208422e-06
-0.00010042023
-1.3473642e-05
-0.00010066877
-1.3507748e-05
-0.00010081583
-0.0001006497
69.180589
-0.046858643
68.753098
-0.050599517
68.319883
-0.054777075
67.880966
-0.059445846
67.434877
-0.064666155
66.977843
-0.070503599
66.502694
-0.077027593
65.997415
-0.08430843
65.443274
-0.092412008
64.812499
-0.10139103
64.065528
-0.11127107
63.148059
-0.12202964
61.988393
-0.13356619
60.496115
-0.14566192
58.563826
-0.15793075
56.07443
-0.16976821
52.916817
-0.18031432
49.011746
-0.18845907
44.346061
-0.1929285
39.006779
-0.19248333
33.199471
-0.18622477
27.234051
-0.17393056
21.471819
-0.15627625
16.248119
-0.13479764
11.801412
-0.1115612
8.2372919
-0.088668871
5.5359563
-0.067810192
3.5900242
-0.050021697
2.2508086
-0.035682045
1.3661324
-0.024665123
0.80305658
-0.016544693
0.45687401
-0.010773987
0.25105944
-0.0068080786
0.1327987
-0.0041694876
0.067280162
-0.0024720372
0.032434383
-0.00141996
0.014757677
-0.00079555461
0.006277
-0.00044371563
0.0024687049
-0.00025749445
0.00088706213
-0.00016606168
0.00028741777
-0.00012498927
8.2574877e-05
-0.00010836275
2.0071074e-05
-0.00010240753
2.6031657e-06
-0.00010058715
-2.9267146e-06
-0.00010018736
-6.4234344e-06
-0.00010023977
-1.019015e-05
-0.00010043946
-1.3726092e-05
-0.00010066441
-1.324851e-05
-0.00010077666
-0.00010057838
68.612603
-0.044003334
68.176515
-0.04751259
67.734127
-0.051430368
67.285598
-0.055807584
66.829695
-0.060700618
66.363017
-0.066170882
65.878966
-0.072283556
65.36636
-0.079104991
64.807658
-0.086698023
64.176727
-0.095114093
63.436205
-0.10438076
62.534619
-0.11448279
61.40373
-0.12533494
59.957033
-0.13674528
58.091014
-0.14836976
55.691516
-0.15966375
52.647994
-0.16984451
48.877649
-0.17788981
44.358202
-0.18260796
39.161948
-0.18281133
33.476555
-0.17759432
27.595746
-0.16665292
21.871837
-0.15051502
16.64151
-0.13054056
12.153724
-0.10864205
8.5291062
-0.086827123
5.7621819
-0.066759779
3.7558011
-0.049504033
2.3665872
-0.035493014
1.443709
-0.024659601
0.8531711
-0.01662809
0.4881824
-0.010889311
0.2699948
-0.0069237538
0.14387213
-0.004269978
0.07351918
-0.002551434
0.03580042
-0.0014779068
0.016481847
-0.00083470446
0.007106562
-0.00046808903
0.0028389638
-0.00027136197
0.0010382572
-0.00017319914
0.00034305593
-0.00012827742
0.00010069048
-0.00010970786
2.5104932e-05
-0.00010289839
3.6081494e-06
-0.00010075559
-3.0464929e-06
-0.00010025222
-6.838236e-06
-0.00010027331
-1.0614929e-05
-0.00010045567
-1.3918778e-05
-0.00010065723
-1.293911e-05
-0.00010073677
-0.00010051119
68.079784
-0.041452515
67.635786
-0.044755075
67.18495
-0.048441094
66.727556
-0.052558275
66.262578
-0.057159482
65.786954
-0.062302387
65.294593
-0.06804836
64.775064
-0.074460173
64.211892
-0.081597796
63.580426
-0.089511329
62.845287
-0.098229714
61.957571
-0.1077436
60.852196
-0.11798059
59.446263
-0.12877151
57.639909
-0.13980835
55.321867
-0.15059837
52.382454
-0.16042655
48.736089
-0.16834895
44.352655
-0.17324945
39.291293
-0.17399155
33.723149
-0.16967116
27.926373
-0.15991929
22.243841
-0.14513719
17.012251
-0.12652748
12.489455
-0.10585953
8.8098497
-0.085048282
5.9816322
-0.065727249
3.9177787
-0.048980181
2.4804374
-0.035287234
1.520436
-0.024634592
0.90300835
-0.016693307
0.51948801
-0.010989546
0.28903913
-0.007027947
0.15508317
-0.0043624286
0.079885401
-0.0026257202
0.039267788
-0.0015329984
0.018278428
-0.00087255082
0.0079829248
-0.0004920807
0.0032364763
-0.00028528563
0.0012036223
-0.00018052264
0.00040519617
-0.00013173136
0.0001214047
-0.00011115609
3.1030374e-05
-0.00010343937
4.8735142e-06
-0.00010094323
-3.0946923e-06
-0.00010032198
-7.2170551e-06
-0.00010030611
-1.0995523e-05
-0.00010046931
-1.4055326e-05
-0.00010064774
-1.258711e-05
-0.00010069672
-0.00010044857
67.578348
-0.039161145
67.127045
-0.042278218
66.668398
-0.045756319
66.202796
-0.049640274
65.7294
-0.0539798
65.245448
-0.058829207
64.745311
-0.064246426
64.219232
-0.070290962
63.651701
-0.077020116
63.019406
-0.084482592
62.288772
-0.092708277
61.413233
-0.10169263
60.330602
-0.11137405
58.961314
-0.12160284
57.208934
-0.13210209
54.96502
-0.14242428
52.12097
-0.15191406
48.589058
-0.15969756
44.332415
-0.16472808
39.398409
-0.165919
33.942934
-0.16237383
28.229223
-0.15367222
22.590429
-0.14010664
17.362158
-0.12273889
12.809739
-0.10320545
9.0801522
-0.083330886
6.1946134
-0.064714518
4.0760791
-0.048453339
2.5923878
-0.035068042
1.5963012
-0.024593032
0.95254151
-0.016742668
0.55076238
-0.011076371
0.30816773
-0.0071217603
0.1664127
-0.0044474757
0.086365449
-0.0026951923
0.042828122
-0.0015853147
0.020142903
-0.00090906354
0.0089041377
-0.00051562672
0.0036607162
-0.00029921057
0.001383232
-0.00018799994
0.00047404821
-0.00013533802
0.00014487875
-0.00011270478
3.793291e-05
-0.0001040313
6.4351721e-06
-0.00010115116
-3.0584257e-06
-0.00010039732
-7.5560601e-06
-0.00010033859
-1.1332453e-05
-0.00010048079
-1.4139405e-05
-0.00010063643
-1.2199887e-05
-0.00010065699
-0.00010039082
67.105075
-0.03709251
66.647
-0.040042285
66.181107
-0.043332907
65.70788
-0.047006618
65.226649
-0.0511103
64.734925
-0.055695228
64.227493
-0.060816218
63.695209
-0.066529783
63.12344
-0.072890734
62.490091
-0.079946373
61.763232
-0.087727183
60.898438
-0.096232573
59.83618
-0.10541009
58.499986
-0.11512677
56.796645
-0.12513275
54.62046
-0.13502011
51.86407
-0.14418632
48.438126
-0.15182045
44.299934
-0.15693951
39.486304
-0.1585051
34.139049
-0.15563287
28.50715
-0.14786212
22.913886
-0.13539173
17.692857
-0.11915732
13.115608
-0.10067211
9.3405965
-0.08167317
6.4014152
-0.063722888
4.230823
-0.047926053
2.7024714
-0.034838206
1.6712977
-0.024537392
1.0017493
-0.016778154
0.58198158
-0.011151246
0.32735924
-0.007206169
0.17784384
-0.0045256956
0.092947234
-0.0027601291
0.046473649
-0.0016349409
0.022070921
-0.00094422465
0.0098682097
-0.00053867363
0.0041110659
-0.00031308703
0.0015770902
-0.00019559999
0.00054978694
-0.00013908382
0.00017126323
-0.00011435058
4.5897294e-05
-0.00010467468
8.3301582e-06
-0.00010138044
-2.9242363e-06
-0.00010047891
-7.8514419e-06
-0.00010037119
-1.1626339e-05
-0.00010049052
-1.4174699e-05
-0.0001006237
-1.1784557e-05
-0.00010061798
-0.00010033815
66.657203
-0.035216453
66.192831
-0.038014642
65.720193
-0.041135434
65.239862
-0.044618738
64.751318
-0.048508873
64.252319
-0.052854362
63.738028
-0.057707184
63.199859
-0.063121114
62.623978
-0.069148632
61.989403
-0.075835648
61.265709
-0.083212982
60.410436
-0.091283291
59.366511
-0.10000192
58.060331
-0.10925042
56.401724
-0.11880248
54.287648
-0.12828507
51.6121
-0.13714267
48.284538
-0.14462099
44.257234
-0.14979562
39.557515
-0.15167441
34.314184
-0.14938838
28.762639
-0.14244554
23.216236
-0.13096416
18.005811
-0.1157667
13.408001
-0.098252086
9.5917221
-0.080073012
6.6023118
-0.062753044
4.382128
-0.047400228
2.8107243
-0.03459992
1.7454237
-0.024469704
1.050615
-0.016801432
0.61312552
-0.011215421
0.34659516
-0.0072820347
0.18936162
-0.0045976173
0.099619814
-0.0028208007
0.050197155
-0.0016819705
0.024058304
-0.00097802891
0.010873134
-0.00056117746
0.0045868322
-0.00032687031
0.0017851366
-0.00020329316
0.00063255302
-0.00014295492
0.00020069705
-0.00011608958
5.5006787e-05
-0.00010536968
1.0596386e-05
-0.00010163202
-2.6780868e-06
-0.00010056747
-8.0993212e-06
-0.00010040436
-1.1877827e-05
-0.00010049888
-1.4164871e-05
-0.00010060994
-1.134791e-05
-0.00010058004
-0.00010029064
66.232347
-0.033507949
65.762102
-0.036168207
65.283169
-0.039134507
64.796198
-0.042444641
64.30081
-0.046140599
63.794985
-0.050268402
63.274232
-0.054877437