/*--------------------------------*- C++ -*----------------------------------*\
| =========                 |                                                 |
| \\      /  F ield         | OpenFOAM: The Open Source CFD Toolbox           |
|  \\    /   O peration     | Version:  4.0                                   |
|   \\  /    A nd           | Web:      www.OpenFOAM.org                      |
|    \\/     M anipulation  |                                                 |
\*---------------------------------------------------------------------------*/
FoamFile
{
    version     2.0;
    format      ascii;
    class       volScalarField;
    location    "522";
    object      T;
}
// * * * * * * * * * * * * * * * * * * * * * * * * * * * * * * * * * * * * * //

dimensions      [0 0 0 1 0 0 0];

internalField   nonuniform List<scalar> 
5000
(
413.68875
406.94301
399.75523
392.17557
384.27504
376.14557
367.89844
359.66044
351.56793
343.75907
336.36489
329.50023
323.25593
317.69325
312.84144
308.69855
305.23525
302.40069
300.12937
298.34797
296.98129
295.95681
295.20785
294.67524
294.30812
294.06389
293.9079
293.81276
293.75771
293.72767
293.71231
293.70502
293.70184
293.70055
293.70008
293.69992
293.69987
293.69986
293.69985
293.69985
293.69985
293.69985
293.69985
293.69985
293.69985
293.69985
293.69985
293.69985
293.69985
293.69986
432.91994
427.23104
421.11648
414.56515
407.57392
400.15112
392.32073
384.12702
375.63897
366.95389
358.19869
349.52782
341.11623
333.14713
325.79488
319.20572
313.48023
308.66211
304.73664
301.63876
299.26827
297.50728
296.23579
295.34294
294.73328
294.32895
294.06911
293.90786
293.8117
293.75689
293.72723
293.71211
293.70491
293.70172
293.70042
293.69994
293.69977
293.69972
293.69971
293.69971
293.69971
293.69971
293.69971
293.69971
293.69971
293.69971
293.69971
293.69971
293.69971
293.69971
440.16263
434.89127
429.22475
423.14723
416.64677
409.71748
402.36247
394.59754
386.45575
377.99253
369.29073
360.46435
351.65942
343.04996
334.82742
327.18349
320.28808
314.26732
309.1872
305.04801
301.79072
299.31288
297.48854
296.18684
295.2859
294.68085
294.28682
294.03841
293.88724
293.79881
293.74937
293.72312
293.70998
293.70384
293.70118
293.70012
293.69974
293.69961
293.69957
293.69956
293.69956
293.69956
293.69956
293.69956
293.69956
293.69956
293.69956
293.69956
293.69956
293.69957
444.25331
439.22113
433.81273
428.01158
421.80375
415.17943
408.13509
400.67628
392.82135
384.60594
376.0881
367.35342
358.51883
349.73356
341.17478
333.03648
325.51099
318.76581
312.92073
308.03191
304.08786
301.01805
298.71079
297.0342
295.8549
295.05131
294.52074
294.18154
293.97193
293.84708
293.77571
293.73676
293.71661
293.7068
293.70235
293.70049
293.69977
293.69952
293.69944
293.69942
293.69941
293.69941
293.69941
293.69941
293.69941
293.69941
293.69941
293.69941
293.69942
293.69943
447.10662
442.24266
437.01614
431.41056
425.41142
419.00736
412.19186
404.96549
397.33893
389.33684
381.00246
372.40274
363.63314
354.82082
346.12419
337.72668
329.82316
322.59942
316.20801
310.74681
306.24652
302.67137
299.93194
297.90521
296.45567
295.45239
294.77998
294.34368
294.06989
293.90409
293.80752
293.75366
293.72508
293.71075
293.70402
293.70108
293.6999
293.69946
293.69932
293.69928
293.69927
293.69927
293.69927
293.69926
293.69926
293.69926
293.69926
293.69927
293.69927
293.69929
449.25261
444.51591
439.42698
433.96953
428.12888
421.89292
415.25353
408.20847
400.76392
392.93782
384.764
376.29697
367.61691
358.8338
350.08915
341.55313
333.41505
325.86644
319.07827
313.17724
308.22798
304.22671
301.10835
298.76372
297.06098
295.86518
295.0524
294.51761
294.17719
293.96789
293.84394
293.77351
293.73533
293.71569
293.7062
293.70191
293.70013
293.69945
293.69922
293.69914
293.69912
293.69912
293.69912
293.69912
293.69912
293.69912
293.69912
293.69912
293.69913
293.69915
450.96409
446.32933
441.35064
436.01197
430.2986
424.19806
417.70125
410.80415
403.50995
395.83206
387.7978
379.45282
370.86598
362.13391
353.38393
344.77339
336.48332
328.70477
321.61841
315.37059
310.05235
305.68775
302.23545
299.60222
297.66337
296.2836
295.33362
294.70048
294.29213
294.03757
293.88454
293.79614
293.7473
293.72164
293.70892
293.70303
293.70049
293.69949
293.69913
293.69901
293.69898
293.69897
293.69897
293.69897
293.69897
293.69897
293.69897
293.69898
293.69899
293.69901
452.37788
447.82763
442.94034
437.70016
432.09246
426.10454
419.7267
412.95367
405.78659
398.23562
390.32331
382.0887
373.59203
364.91936
356.18619
347.53832
339.14781
331.20221
323.88652
317.36026
311.73479
307.05783
303.31006
300.41479
298.25651
296.70212
295.61935
294.88928
294.41278
294.112
293.92873
293.82127
293.7609
293.72858
293.71221
293.70443
293.70099
293.69959
293.69907
293.69889
293.69884
293.69883
293.69882
293.69882
293.69882
293.69882
293.69882
293.69883
293.69885
293.69887
453.5776
449.09928
444.28977
439.13345
433.61577
427.72392
421.44779
414.78122
407.72384
400.28336
392.47872
384.34384
375.93215
367.32116
358.61652
349.95383
341.49637
333.42668
325.9309
319.1772
313.29254
308.34446
304.33364
301.19969
298.83738
297.11758
295.90686
295.08189
294.53765
294.19023
293.97596
293.84862
293.776
293.73646
293.71605
293.70612
293.70163
293.69975
293.69903
293.69878
293.6987
293.69868
293.69868
293.69868
293.69868
293.69868
293.69868
293.69869
293.6987
293.69873
454.61624
450.20036
445.45837
440.37483
434.93532
429.12698
422.93941
416.3658
409.40461
402.06166
394.35303
386.30861
377.97627
369.42653
360.75668
352.09336
343.5916
335.4283
327.78875
320.84659
314.74074
309.55532
305.30892
301.95678
299.40446
297.52802
296.19428
295.27678
294.6656
294.27147
294.02572
293.87792
293.79248
293.74525
293.72043
293.70813
293.70243
293.69998
293.69902
293.69868
293.69857
293.69854
293.69853
293.69853
293.69853
293.69853
293.69853
293.69854
293.69856
293.69859
455.52972
451.16888
446.48639
441.46701
436.09644
430.36179
424.25246
417.76116
410.88542
403.62956
396.00737
388.04539
379.78699
371.29677
362.66491
354.01015
345.47989
337.24521
329.48931
322.38908
316.09257
310.69775
306.23917
302.68679
299.95715
297.93228
296.48035
295.47282
294.79574
294.35508
294.07761
293.9089
293.8102
293.75487
293.72534
293.71044
293.70339
293.70029
293.69905
293.69859
293.69844
293.6984
293.69838
293.69838
293.69838
293.69838
293.69839
293.6984
293.69842
293.69845
456.34335
452.03163
447.40224
442.44013
437.13109
431.46226
425.4229
419.00531
412.2063
405.02897
397.48521
389.59881
381.40932
372.97635
364.3839
355.74376
347.19629
338.90683
331.05574
323.82154
317.35924
311.77841
307.12771
303.3909
300.49536
298.32969
296.76423
295.66922
294.9274
294.44056
294.13126
293.94136
293.82903
293.76527
293.73075
293.71305
293.70451
293.70069
293.69911
293.69852
293.69832
293.69825
293.69824
293.69823
293.69823
293.69824
293.69824
293.69825
293.69828
293.69831
457.07563
452.8082
448.22669
443.3162
438.06265
432.4532
426.47701
420.12607
413.39659
406.29066
398.81858
391.00182
382.87668
374.49847
365.94582
357.3243
348.76787
340.43628
332.50659
325.15786
318.55031
312.80319
307.9777
304.07042
301.01935
298.71994
297.04537
295.86539
295.06007
294.5275
294.1864
293.9751
293.84886
293.77639
293.73664
293.71595
293.70581
293.70117
293.69921
293.69846
293.6982
293.69812
293.69809
293.69809
293.69809
293.69809
293.6981
293.69811
293.69813
293.69817
457.74044
453.51329
448.97531
444.11177
438.90868
433.35326
427.43456
421.14437
414.47838
407.43782
400.03167
392.27939
384.21449
375.88853
367.37542
358.7752
350.21592
341.85199
333.85696
326.40955
319.67387
313.77729
308.7921
304.72675
301.5295
299.10288
297.32339
296.06089
295.19334
294.61558
294.24277
294.00996
293.86959
293.78818
293.74299
293.71914
293.70727
293.70174
293.69936
293.69842
293.69808
293.69798
293.69795
293.69794
293.69794
293.69794
293.69795
293.69797
293.69799
293.69802
458.34848
454.15822
449.66011
444.83956
439.68269
434.17677
428.3108
422.07635
415.46871
408.48839
401.14319
393.45088
385.44251
377.16637
368.69218
360.11498
351.55744
343.16888
335.11921
327.58623
320.73685
314.70527
309.57359
305.36121
302.02631
299.47851
297.59806
296.25542
295.32691
294.70454
294.30018
294.04578
293.89113
293.80058
293.74977
293.72261
293.70889
293.70239
293.69955
293.6984
293.69798
293.69784
293.69781
293.6978
293.69779
293.6978
293.69781
293.69782
293.69785
293.69788
458.90812
454.75186
450.29049
445.50956
440.3953
434.93501
429.11766
422.93468
416.38097
409.45644
402.16788
394.53156
386.5764
378.34775
369.91163
361.35855
352.80623
344.39917
336.30361
328.69599
321.74522
315.59115
310.32461
305.97511
302.51029
299.84692
297.86923
296.44874
295.46055
294.79415
294.35845
294.08245
293.91338
293.81354
293.75695
293.72635
293.71068
293.70314
293.69978
293.6984
293.69788
293.69771
293.69766
293.69765
293.69765
293.69765
293.69766
293.69768
293.69771
293.69774
459.42605
455.3013
450.87398
446.12976
441.05497
435.63697
429.86472
423.72948
417.22588
410.35326
403.11756
395.53372
387.62874
379.44542
371.04638
362.51807
353.97361
345.55299
337.41877
329.74574
322.7041
316.43845
311.04736
306.56965
302.982
300.20823
298.13683
296.64067
295.59404
294.88426
294.41744
294.11987
293.93629
293.82701
293.7645
293.73034
293.71262
293.70398
293.70006
293.69842
293.6978
293.69759
293.69752
293.6975
293.6975
293.69751
293.69752
293.69753
293.69756
293.69759
459.90769
455.81228
451.41665
446.70662
441.66858
436.28996
430.55971
424.46897
418.01212
411.18802
404.00184
396.46733
388.60983
380.46978
372.10678
363.60356
355.069
346.63881
338.47197
330.74137
323.61796
317.2503
311.74382
307.14596
303.44195
300.56262
298.40082
296.8311
295.72726
294.9747
294.47704
294.15793
293.95979
293.84097
293.77241
293.73457
293.71473
293.70492
293.70039
293.69847
293.69772
293.69746
293.69738
293.69736
293.69736
293.69736
293.69737
293.69739
293.69742
293.69745
460.35751
456.28952
451.92352
447.24543
442.24176
436.89996
431.20899
425.1599
418.74684
411.96826
404.82862
397.34064
389.52814
381.42945
373.10143
364.62339
356.1003
347.66381
339.46942
331.68795
324.49068
318.02945
312.4158
307.70507
303.89068
300.91028
298.66119
297.01993
295.86006
295.06537
294.53713
294.19656
293.98381
293.85535
293.78066
293.73905
293.71698
293.70594
293.70077
293.69854
293.69766
293.69734
293.69724
293.69722
293.69721
293.69722
293.69723
293.69725
293.69728
293.69731
460.77918
456.73692
452.39874
447.75063
442.77919
437.47196
431.81786
425.80789
419.43599
412.70023
405.60448
398.16051
390.39075
382.33166
374.03755
365.58462
357.07419
348.63409
340.41644
332.58989
325.32569
318.77837
313.06491
308.24796
304.32868
301.25139
298.91798
297.20709
295.99236
295.15615
294.59764
294.23568
294.00831
293.87014
293.78921
293.74374
293.71939
293.70706
293.70121
293.69864
293.6976
293.69723
293.6971
293.69707
293.69707
293.69707
293.69708
293.6971
293.69713
293.69716
461.17581
457.15779
452.84578
448.2259
443.28481
438.01011
432.39075
426.41764
420.08454
413.38922
406.33497
398.93272
391.20365
383.18249
374.92125
366.49324
357.99638
349.55492
341.31766
333.45104
326.12598
319.49925
313.69263
308.77552
304.75642
301.58615
299.17121
297.39255
296.12407
295.24697
294.65847
294.27525
294.03324
293.88531
293.79806
293.74865
293.72194
293.70826
293.70169
293.69876
293.69756
293.69712
293.69697
293.69693
293.69692
293.69693
293.69694
293.69696
293.69699
293.69702
461.55003
457.5549
453.26761
448.67437
443.76195
438.51798
432.93142
426.99313
420.69674
414.03968
407.02478
399.66217
391.97191
383.98714
375.75776
367.35438
358.87178
350.43081
342.17708
334.27476
326.89424
320.19405
314.30029
309.28857
305.17435
301.91477
299.42094
297.57627
296.25513
295.33776
294.71957
294.31519
294.05855
293.90081
293.80718
293.75376
293.72462
293.70955
293.70222
293.69891
293.69753
293.69701
293.69684
293.69679
293.69678
293.69678
293.69679
293.69682
293.69685
293.69688
461.90409
457.93062
453.66673
449.09873
444.21345
438.99858
433.44308
427.5378
421.27619
414.65545
407.67792
400.35307
392.69989
384.75007
376.55156
368.17248
359.70467
351.26573
342.99823
335.06405
327.63283
320.86455
314.88912
309.78788
305.5829
302.23744
299.66722
297.75823
296.38549
295.42845
294.78088
294.35546
294.08421
293.91662
293.81656
293.75906
293.72744
293.71093
293.70281
293.69908
293.69751
293.69691
293.6967
293.69664
293.69663
293.69664
293.69665
293.69667
293.6967
293.69673
462.23989
458.287
454.04533
449.50128
444.64175
439.4545
433.92851
428.05456
421.82601
415.2398
408.29788
401.00904
393.39135
385.47513
377.30654
368.95139
360.49874
352.06314
343.7842
335.82153
328.34387
321.51233
315.46021
310.27415
305.98246
302.55435
299.91011
297.93842
296.5151
295.51898
294.84235
294.39602
294.11019
293.93273
293.82617
293.76454
293.73039
293.71239
293.70344
293.69929
293.69751
293.69682
293.69658
293.6965
293.69649
293.69649
293.69651
293.69653
293.69656
293.69659
462.55913
458.6258
454.40527
449.884
445.04898
439.88801
434.39008
428.54597
422.34889
415.79559
408.88764
401.63323
394.04955
386.16569
378.02611
369.69448
361.25725
352.82608
344.53774
336.54956
329.02927
322.13884
316.01458
310.74803
306.37341
302.86569
300.14969
298.11685
296.64394
295.60933
294.90393
294.43683
294.13645
293.9491
293.83601
293.7702
293.73347
293.71394
293.70413
293.69952
293.69752
293.69673
293.69645
293.69636
293.69634
293.69635
293.69636
293.69639
293.69642
293.69644
462.86325
458.94858
454.74819
450.24865
445.43699
440.30107
434.8299
429.01423
422.8472
416.32532
409.44983
402.22839
394.67735
386.82467
378.71324
370.40471
361.98307
353.55725
345.26128
337.25024
329.69075
322.7454
316.55316
311.21013
306.75612
303.17163
300.38602
298.29351
296.77198
295.69943
294.96558
294.47785
294.16297
293.96572
293.84606
293.77602
293.73666
293.71556
293.70486
293.69978
293.69755
293.69665
293.69633
293.69622
293.6962
293.6962
293.69622
293.69624
293.69627
293.6963
463.15353
459.25668
455.07554
450.59674
445.80739
440.69539
435.2498
429.46131
423.32298
416.83116
409.98676
402.79692
395.27727
387.45467
379.37055
371.08468
362.67874
354.25905
345.95699
337.92545
330.32985
323.33318
317.07682
311.66102
307.1309
303.47236
300.61916
298.46842
296.89918
295.78927
295.02727
294.51905
294.18972
293.98256
293.8563
293.782
293.73997
293.71726
293.70565
293.70007
293.69759
293.69658
293.69621
293.69609
293.69606
293.69606
293.69607
293.6961
293.69613
293.69615
463.4311
459.5513
455.38857
450.92961
446.16161
441.07251
435.65138
429.8889
423.77807
417.31505
410.50046
403.34098
395.85153
388.05796
380.00037
371.73672
363.34652
354.93362
346.62684
338.57691
330.94797
323.90329
317.58632
312.10121
307.49808
303.76803
300.8492
298.64159
297.02555
295.87882
295.08896
294.5604
294.21667
293.99961
293.86673
293.78812
293.74338
293.71904
293.70648
293.70039
293.69765
293.69651
293.69609
293.69595
293.69591
293.69591
293.69593
293.69595
293.69598
293.69601
463.69694
459.83349
455.6884
451.24847
446.50092
441.43376
436.03608
430.29854
424.21407
417.77869
410.99272
403.86243
396.40208
388.63659
380.60476
372.36289
363.98843
355.58287
347.27257
339.20613
331.5464
324.45672
318.08241
312.53119
307.85796
304.05882
301.07619
298.81303
297.15107
295.96804
295.15064
294.60188
294.24381
294.01684
293.87732
293.79438
293.7469
293.7209
293.70736
293.70074
293.69772
293.69645
293.69597
293.69581
293.69577
293.69577
293.69579
293.69581
293.69584
293.69586
463.95196
460.10419
455.97604
451.55436
446.82645
441.78034
436.40517
430.69158
424.63243
418.22359
411.46516
404.36298
396.9307
389.19237
381.18558
372.96505
364.6063
356.20853
347.89578
339.81453
332.1263
324.99439
318.56576
312.95143
308.21082
304.34486
301.30021
298.98277
297.27572
296.05693
295.21227
294.64346
294.27111
294.03426
293.88807
293.80077
293.75053
293.72282
293.70829
293.70111
293.69781
293.6964
293.69586
293.69568
293.69563
293.69563
293.69564
293.69567
293.69569
293.69571
464.19693
460.36424
456.25237
451.84823
447.13919
442.11333
436.75979
431.06922
425.03442
418.65113
411.91921
404.84412
397.43895
389.72691
381.74447
373.54486
365.20174
356.81216
348.49789
340.40337
332.68874
325.51714
319.03698
313.36234
308.55693
304.62632
301.52133
299.15083
297.3995
296.14545
295.27383
294.68513
294.29856
294.05183
293.89897
293.80728
293.75424
293.72482
293.70927
293.70152
293.69791
293.69636
293.69576
293.69555
293.69549
293.69548
293.6955
293.69552
293.69555
293.69557
464.43257
460.61439
456.51819
452.13094
447.44006
442.43367
437.10095
431.43255
425.42119
419.06251
412.35615
405.30721
397.92824
390.24169
382.28294
374.10382
365.77623
357.39517
349.08022
340.9738
333.23469
326.02576
319.49665
313.76433
308.89652
304.90333
301.73962
299.31722
297.52242
296.2336
295.33531
294.72687
294.32614
294.06955
293.91001
293.81391
293.75805
293.72688
293.71029
293.70195
293.69803
293.69633
293.69565
293.69542
293.69535
293.69534
293.69535
293.69538
293.6954
293.69542
464.65952
460.85532
456.77422
452.40324
447.72985
442.74224
437.42959
431.78254
425.79379
419.45885
412.77715
405.75347
398.39985
390.73801
382.80233
374.64329
366.33111
357.95884
349.64395
341.5269
333.76505
326.52094
319.94532
314.15777
309.22986
305.17602
301.95513
299.48198
297.64446
296.32137
295.39668
294.76865
294.35383
294.0874
293.92118
293.82066
293.76195
293.729
293.71135
293.70241
293.69816
293.6963
293.69555
293.69529
293.69521
293.6952
293.69521
293.69523
293.69526
293.69528
464.87835
461.08764
457.0211
452.66582
448.00932
443.03981
437.74651
432.12008
426.15314
419.84112
413.18325
406.184
398.85494
391.21708
383.30386
375.1645
366.8676
358.50435
350.19018
342.06362
334.28065
327.00338
320.38349
314.543
309.55715
305.44454
302.16795
299.64511
297.76563
296.40873
295.45794
294.81046
294.38163
294.10538
293.93246
293.8275
293.76592
293.73119
293.71246
293.7029
293.69832
293.69628
293.69546
293.69516
293.69507
293.69505
293.69507
293.69509
293.69512
293.69513
465.08959
461.31191
457.25944
452.91931
448.27911
443.32709
438.05249
432.44596
426.5001
420.21023
413.57541
406.59981
399.29454
391.67998
383.78865
375.66856
367.38681
359.03276
350.71989
342.58487
334.78225
327.47367
320.81161
314.92037
309.87862
305.709
302.37812
299.80666
297.88593
296.4957
295.51907
294.85229
294.40951
294.12347
293.94386
293.83444
293.76998
293.73343
293.71361
293.70341
293.69848
293.69627
293.69537
293.69503
293.69493
293.69491
293.69492
293.69494
293.69497
293.69499
465.29371
461.52863
457.48975
453.16428
448.53984
443.60472
438.3482
432.76092
426.83544
420.567
413.95449
407.0018
399.71961
392.1277
384.2577
376.15651
367.88974
359.54505
351.23401
343.09146
335.27057
327.9324
321.23014
315.29018
310.19446
305.96952
302.58572
299.96664
298.00537
296.58225
295.58005
294.89414
294.43748
294.14167
293.95537
293.84148
293.77412
293.73573
293.7148
293.70395
293.69867
293.69627
293.69528
293.69491
293.69479
293.69477
293.69478
293.6948
293.69483
293.69484
465.49115
461.73826
457.71254
453.40124
448.79205
443.87329
438.63426
433.06561
427.15987
420.91218
414.32128
407.3908
400.13103
392.56113
384.71195
376.62927
368.37733
360.04211
351.73337
343.58416
335.74625
328.3801
321.63949
315.65272
310.50487
306.22622
302.79079
300.12508
298.12395
296.66838
295.64089
294.93597
294.46551
294.15996
293.96697
293.8486
293.77832
293.73809
293.71603
293.70452
293.69887
293.69628
293.6952
293.69479
293.69465
293.69463
293.69463
293.69466
293.69468
293.69469
465.68229
461.94121
457.92824
453.63067
449.03625
444.13333
438.91125
433.36064
427.47402
421.24644
414.6765
407.76757
400.52957
392.98111
385.15224
377.08771
368.85043
360.52478
352.21876
344.06367
336.2099
328.81727
322.04002
316.00827
310.81003
306.47922
302.99341
300.28201
298.24167
296.7541
295.70157
294.9778
294.4936
294.17834
293.97866
293.85581
293.7826
293.74051
293.7173
293.70512
293.69909
293.6963
293.69512
293.69467
293.69452
293.69448
293.69449
293.69451
293.69454
293.69455
465.86751
462.13788
458.13726
453.85301
449.2729
444.38534
439.17968
433.64657
427.77848
421.57041
415.02081
408.13282
400.91598
393.38839
385.57935
377.53261
369.30982
360.99382
352.69089
344.53065
336.6621
329.24437
322.43212
316.35708
311.11011
306.7286
303.19363
300.43745
298.35855
296.83938
295.76207
295.0196
294.52174
294.1968
293.99044
293.8631
293.78694
293.74297
293.7186
293.70573
293.69932
293.69633
293.69505
293.69455
293.69438
293.69434
293.69435
293.69437
293.69439
293.6944
466.04714
462.32861
458.33997
454.06864
449.50242
444.62976
439.44003
433.9239
428.0738
421.88467
415.35482
408.48717
401.29093
393.78367
385.994
377.96471
369.75623
361.44993
353.15042
344.9857
337.10336
329.66185
322.81611
316.69942
311.40529
306.97449
303.3915
300.59142
298.47459
296.92424
295.82241
295.06137
294.54993
294.21534
294.0023
293.87046
293.79134
293.74548
293.71995
293.70638
293.69957
293.69637
293.69498
293.69444
293.69425
293.6942
293.6942
293.69422
293.69425
293.69426
466.22147
462.51373
458.53673
454.27794
449.7252
444.86701
439.69275
434.1931
428.36048
422.18975
415.67909
408.83122
401.65503
394.16759
386.39684
378.38467
370.19033
361.89376
353.59799
345.42938
337.53419
330.07011
323.19231
317.0355
311.69571
307.21696
303.58708
300.74395
298.5898
297.00868
295.88256
295.1031
294.57815
294.23394
294.01424
293.87789
293.79581
293.74805
293.72132
293.70705
293.69983
293.69641
293.69492
293.69432
293.69412
293.69406
293.69406
293.69408
293.6941
293.69411
466.3908
462.69353
458.72785
454.48123
449.9416
445.09746
439.93824
434.45461
428.63897
422.48612
415.99413
409.16552
402.00884
394.54074
386.7885
378.79312
370.61274
362.32592
354.03416
345.86222
337.95504
330.46953
323.56103
317.36555
311.98154
307.45613
303.78042
300.89507
298.70419
297.09268
295.94254
295.14479
294.6064
294.2526
294.02624
293.88539
293.80033
293.75065
293.72274
293.70774
293.70011
293.69647
293.69486
293.69421
293.69398
293.69392
293.69392
293.69393
293.69396
293.69397
466.55539
462.86831
458.91361
454.67885
450.15195
445.32148
440.17688
434.70882
428.9097
422.77425
416.30042
409.49056
402.35291
394.90368
387.16953
379.19063
371.02403
362.74698
354.45946
346.28471
338.36634
330.86048
323.92255
317.68979
312.2629
307.69207
303.97157
301.04481
298.81776
297.17625
296.00232
295.18643
294.63467
294.27132
294.03832
293.89295
293.80491
293.75331
293.72418
293.70846
293.70041
293.69654
293.69481
293.6941
293.69385
293.69378
293.69377
293.69379
293.69381
293.69382
466.71547
463.0383
459.09431
454.87107
450.35656
445.53939
440.40901
434.9561
429.17305
423.05454
416.59841
409.80681
402.68772
395.25691
387.54047
379.57774
371.42474
363.15745
354.87439
346.69731
338.7685
331.24329
324.27714
318.00839
312.53994
307.92488
304.16058
301.19317
298.93052
297.2594
296.06191
295.22802
294.66296
294.29009
294.05045
293.90058
293.80954
293.756
293.72566
293.7092
293.70072
293.69661
293.69476
293.694
293.69372
293.69364
293.69363
293.69365
293.69367
293.69367
466.87127
463.20375
459.27018
455.05816
450.55572
445.75149
440.63495
435.19681
429.42941
423.32739
416.8885
410.11471
403.01372
395.60091
387.90179
379.95494
371.81537
363.55782
355.27942
347.10045
339.1619
331.61828
324.62506
318.32157
312.8128
308.15464
304.34751
301.3402
299.04249
297.34212
296.1213
295.26954
294.69127
294.30891
294.06265
293.90826
293.81422
293.75874
293.72718
293.70997
293.70105
293.69669
293.69472
293.6939
293.69359
293.6935
293.69349
293.6935
293.69352
293.69353
467.023
463.36489
459.44145
455.24037
450.74968
445.95806
440.85502
435.43125
429.6791
423.59316
417.17107
410.41465
403.33134
395.93612
388.25396
380.3227
372.19638
363.94856
355.67499
347.49453
339.54689
331.98576
324.96653
318.62949
313.08158
308.38142
304.53238
301.48591
299.15368
297.42441
296.1805
295.31101
294.71959
294.32777
294.07489
293.916
293.81895
293.76152
293.72872
293.71075
293.70139
293.69679
293.69468
293.6938
293.69347
293.69336
293.69335
293.69336
293.69337
293.69338
467.17085
463.5219
459.60836
455.41793
450.9387
446.15937
441.06947
435.65972
429.92245
423.85218
417.44649
410.70701
403.64096
396.26294
388.59739
380.68144
372.5682
364.33009
356.06151
347.87993
339.92382
332.34601
325.30179
318.93233
313.34642
308.60531
304.71526
301.63033
299.26409
297.50627
296.23949
295.3524
294.74791
294.34667
294.0872
293.92379
293.82373
293.76434
293.73029
293.71156
293.70175
293.69689
293.69465
293.6937
293.69334
293.69322
293.6932
293.69321
293.69323
293.69324
467.315
463.675
459.7711
455.59106
451.12301
446.35566
441.27859
435.88251
430.15974
424.10477
417.71507
410.99215
403.94296
396.58176
388.93249
381.03158
372.93125
364.7028
356.43935
348.257
340.29298
332.69929
325.63106
319.23025
313.60743
308.82638
304.89618
301.77347
299.37373
297.58772
296.29829
295.39373
294.77623
294.36561
294.09955
293.93163
293.82856
293.76719
293.7319
293.71239
293.70212
293.69701
293.69463
293.69361
293.69322
293.69309
293.69306
293.69307
293.69308
293.69309
467.45562
463.82434
459.92986
455.75996
451.30281
446.54716
441.4826
436.09986
430.39125
424.35121
417.97713
411.27038
404.23767
396.89294
389.25962
381.37349
373.28591
365.06707
356.80887
348.62608
340.6547
333.04586
325.95454
319.5234
313.86471
309.0447
305.07519
301.91537
299.48261
297.66874
296.35688
295.43498
294.80455
294.38458
294.11194
293.93952
293.83343
293.77008
293.73353
293.71325
293.70251
293.69713
293.69461
293.69352
293.69309
293.69295
293.69292
293.69293
293.69294
293.69295
467.59287
463.97011
460.08482
455.92482
451.47831
446.73409
441.68175
436.31203
430.61723
424.59178
418.23296
411.54201
404.52543
397.19681
389.57913
381.70753
373.63252
365.42326
357.17042
348.98748
341.00923
333.38597
326.27242
319.81193
314.11838
309.26033
305.25233
302.05604
299.59074
297.74935
296.41527
295.47616
294.83286
294.40358
294.12438
293.94745
293.83834
293.77301
293.73519
293.71412
293.70291
293.69726
293.69459
293.69343
293.69297
293.69281
293.69278
293.69278
293.69279
293.6928
467.7269
464.11246
460.23615
456.08581
451.6497
446.91663
441.87622
436.51923
430.83794
424.82673
418.48283
411.80733
404.80652
397.49369
389.89135
382.03403
373.97142
365.77169
357.52431
349.3415
341.35686
333.71983
326.58489
320.09599
314.36852
309.47335
305.42764
302.19551
299.69814
297.82954
296.47345
295.51725
294.86117
294.42261
294.13687
293.95543
293.84329
293.77598
293.73688
293.71502
293.70333
293.6974
293.69459
293.69335
293.69285
293.69268
293.69264
293.69264
293.69265
293.69266
467.85784
464.25153
460.38399
456.24311
451.81716
447.09499
442.06624
436.72168
431.05359
425.05631
418.72699
412.06661
405.08124
397.78387
390.19658
382.35329
374.30293
366.11267
357.87084
349.68842
341.69784
334.04767
326.89213
320.3757
314.61525
309.68382
305.60115
302.33379
299.80481
297.90933
296.53143
295.55827
294.88946
294.44166
294.14939
293.96345
293.84828
293.77897
293.73859
293.71593
293.70376
293.69755
293.69458
293.69326
293.69273
293.69254
293.69249
293.69249
293.6925
293.69251
467.98583
464.38747
460.5285
456.39686
451.98084
447.26933
442.25198
436.91958
431.26439
425.28073
418.96569
412.32009
405.34984
398.06762
390.4951
382.66562
374.62735
366.4465
358.2103
350.0285
342.03239
334.36969
327.1943
320.6512
314.85864
309.8918
305.7729
302.47091
299.91076
297.9887
296.5892
295.5992
294.91774
294.46074
294.16195
293.97151
293.85331
293.782
293.74034
293.71687
293.7042
293.69771
293.69459
293.69319
293.69262
293.69241
293.69235
293.69235
293.69236
293.69236
468.11098
464.52039
460.66982
456.54721
452.14091
447.43982
442.43363
437.11312
431.47055
425.50022
419.19913
412.56802
405.61258
398.34521
390.78719
382.97129
374.94495
366.77346
358.54295
350.36199
342.36075
334.68608
327.49156
320.92261
315.0988
310.09735
305.94293
302.60689
300.016
298.06767
296.64677
295.64005
294.94601
294.47983
294.17454
293.97961
293.85837
293.78506
293.7421
293.71782
293.70466
293.69788
293.6946
293.69311
293.6925
293.69228
293.69221
293.69221
293.69222
293.69222
468.23341
464.65044
460.80807
456.69431
452.29751
447.60662
442.61134
437.30246
431.67225
425.71496
419.42755
412.81061
405.86968
398.61689
391.0731
383.27057
375.256
367.0938
358.86904
350.68914
342.68314
334.99703
327.78406
321.19005
315.33579
310.30052
306.11128
302.74174
300.12054
298.14623
296.70413
295.68082
294.97426
294.49894
294.18717
293.98775
293.86348
293.78816
293.7439
293.71879
293.70514
293.69806
293.69461
293.69304
293.69239
293.69215
293.69207
293.69206
293.69207
293.69207
468.35323
464.7777
460.94338
456.83827
452.45078
447.76987
442.78527
437.48779
431.86967
425.92516
419.65113
413.04809
406.12138
398.88288
391.35307
383.56369
375.56074
367.40777
359.18882
351.01016
342.99976
335.30273
328.07196
321.45363
315.56972
310.50137
306.27798
302.87549
300.22439
298.2244
296.76128
295.7215
295.00249
294.51807
294.19983
293.99592
293.86861
293.79128
293.74571
293.71979
293.70563
293.69825
293.69463
293.69297
293.69228
293.69201
293.69193
293.69192
293.69193
293.69193
468.47054
464.90231
461.07585
456.97922
452.60085
447.92971
442.95557
437.66924
432.06298
426.13097
419.87006
413.28063
406.36788
399.1434
391.62733
383.85089
375.85941
367.71562
359.50251
351.32528
343.31079
335.60333
328.35538
321.71345
315.80064
310.69996
306.44306
303.00815
300.32756
298.30218
296.81823
295.76209
295.0307
294.53722
294.21251
294.00413
293.87378
293.79443
293.74756
293.7208
293.70613
293.69845
293.69466
293.69291
293.69217
293.69188
293.69179
293.69178
293.69178
293.69178
468.58543
465.02435
461.20561
457.11728
452.74783
448.08628
443.12239
437.84699
432.25232
426.33258
420.08452
413.50845
406.60937
399.39866
391.89609
384.13238
376.15224
368.01754
359.81032
351.63468
343.61643
335.89899
328.63447
321.96962
316.02865
310.89634
306.60656
303.13975
300.43005
298.37956
296.87498
295.80259
295.05889
294.55637
294.22523
294.01238
293.87898
293.79761
293.74942
293.72183
293.70664
293.69866
293.6947
293.69285
293.69206
293.69176
293.69166
293.69163
293.69164
293.69164
468.698
465.14393
461.33274
457.25255
452.89186
448.23969
443.28584
438.02115
432.43786
426.53013
420.29468
413.7317
406.84605
399.64886
392.15955
384.40839
376.43944
368.31377
360.11246
351.93857
343.91685
336.18988
328.90934
322.22225
316.25381
311.09055
306.7685
303.27029
300.53189
298.45655
296.93152
295.843
295.08705
294.57554
294.23798
294.02065
293.88422
293.80082
293.75131
293.72288
293.70717
293.69888
293.69474