/*--------------------------------*- C++ -*----------------------------------*\
| =========                 |                                                 |
| \\      /  F ield         | OpenFOAM: The Open Source CFD Toolbox           |
|  \\    /   O peration     | Version:  4.0                                   |
|   \\  /    A nd           | Web:      www.OpenFOAM.org                      |
|    \\/     M anipulation  |                                                 |
\*---------------------------------------------------------------------------*/
FoamFile
{
    version     2.0;
    format      ascii;
    class       volVectorField;
    location    "522";
    object      U;
}
// * * * * * * * * * * * * * * * * * * * * * * * * * * * * * * * * * * * * * //

dimensions      [0 1 -1 0 0 0 0];

internalField   nonuniform List<vector> 
5000
(
(3.684348e-05 2.0942715e-20 0.01002972)
(9.1468218e-05 6.2900198e-20 0.029140601)
(0.00022133817 1.0818054e-19 0.04803067)
(0.00039191506 1.4101689e-19 0.066394965)
(0.00060153655 1.7860001e-19 0.083900894)
(0.00084190307 1.9049996e-19 0.10020018)
(0.0011017646 1.7731293e-19 0.11494514)
(0.0013674706 2.2714499e-19 0.12780847)
(0.0016247936 2.2971918e-19 0.13850535)
(0.001859836 2.0511624e-19 0.14681566)
(0.0020601933 1.8379216e-19 0.15260415)
(0.0022160078 1.2051637e-19 0.15583564)
(0.0023207117 1.5296956e-19 0.15658319)
(0.0023713538 1.7018204e-19 0.15502771)
(0.0023685065 1.9505281e-19 0.1514484)
(0.002315817 2.0951708e-19 0.14620481)
(0.0022193199 2.470757e-19 0.13971211)
(0.00208664 3.0565076e-19 0.13241196)
(0.0019262018 2.4811454e-19 0.12474194)
(0.0017465204 -7.4780505e-20 0.11710662)
(0.0015556213 -6.7420991e-20 0.10985299)
(0.0013606074 5.143973e-20 0.10325225)
(0.0011673715 2.5997579e-20 0.097489228)
(0.00098043293 8.7187429e-21 0.092659764)
(0.00080288081 4.608316e-21 0.08877595)
(0.0006364093 0 0.085778653)
(0.00048145602 1.0753821e-20 0.08355599)
(0.00033748747 4.347484e-21 0.081965447)
(0.00020361724 -2.0624621e-21 0.080856302)
(8.1393769e-05 3.493774e-20 0.080088266)
(8.7201381e-06 1.4123273e-19 0.079542732)
(-6.6610179e-05 1.2228028e-19 0.079137741)
(-0.00017363349 2.7873638e-20 0.078812525)
(-0.00027487627 1.5626745e-21 0.078531291)
(-0.00036613451 3.5836527e-21 0.078273631)
(-0.00044584707 5.834348e-21 0.078029254)
(-0.00051303989 -6.5749218e-20 0.077793072)
(-0.00056739839 -8.3982077e-21 0.077562191)
(-0.00060947121 6.5157742e-21 0.077334319)
(-0.00064074902 5.6509559e-20 0.077107034)
(-0.00066367956 -1.8613412e-20 0.076877467)
(-0.00068138223 -8.1214668e-21 0.076642091)
(-0.00069822026 5.3653641e-22 0.076396778)
(-0.00071730761 3.4583088e-20 0.076135539)
(-0.00074878133 2.3965496e-21 0.075854342)
(-0.0007846654 0 0.075534889)
(-0.00087781041 0 0.075196661)
(-0.00090739546 8.5511029e-23 0.074711191)
(-0.0013093602 -5.991562e-22 0.074141562)
(-0.0008183335 -3.5849974e-21 0.069006143)
(2.0426156e-05 4.0160712e-21 0.012180199)
(-7.4283027e-06 1.2432966e-20 0.035717301)
(-4.3862843e-05 2.2615404e-20 0.059383009)
(-0.00010688065 3.6727654e-20 0.082861016)
(-0.00020386208 4.8036307e-20 0.10577485)
(-0.00034141816 7.748336e-20 0.12768851)
(-0.00052640472 6.3309178e-20 0.14811229)
(-0.00076580163 5.6644577e-20 0.1665161)
(-0.0010661759 9.8780856e-20 0.18235227)
(-0.0014328034 9.7975804e-20 0.19509006)
(-0.0018684556 1.1796376e-19 0.20426209)
(-0.0023719312 1.5438895e-19 0.20952114)
(-0.0029365453 8.2422893e-20 0.21070113)
(-0.0035489389 4.6307799e-20 0.20787139)
(-0.0041886659 6.9228429e-21 0.20136879)
(-0.004828993 5.8216972e-23 0.19179184)
(-0.0054391264 -6.5295079e-20 0.17994765)
(-0.0059876739 -1.1815394e-19 0.16675672)
(-0.0064466729 2.8471431e-19 0.15313676)
(-0.0067951941 6.3596733e-19 0.13989528)
(-0.0070215843 1.8200267e-19 0.12765594)
(-0.0071238576 -2.9056489e-19 0.11682928)
(-0.0071083767 -1.8363734e-19 0.1076225)
(-0.0069874677 -1.3736444e-19 0.10007384)
(-0.0067767972 -1.6884898e-19 0.094096675)
(-0.0064931532 -2.1035882e-19 0.089522491)
(-0.0061528042 -3.2599294e-19 0.086137682)
(-0.0057706694 -1.4717188e-19 0.08371278)
(-0.0053616188 1.1355429e-19 0.082024727)
(-0.0049434582 -5.506307e-20 0.080872956)
(-0.0045130439 1.9898917e-20 0.080090001)
(-0.0040926329 2.9173137e-19 0.079545167)
(-0.0036898694 -3.0058127e-20 0.079145931)
(-0.0033115173 0 0.078829869)
(-0.0029627614 3.6854239e-20 0.078559624)
(-0.0026475178 5.3380995e-20 0.078314363)
(-0.002368338 6.6765541e-21 0.078083367)
(-0.0021264826 -3.2063957e-20 0.077861316)
(-0.0019220779 3.4091483e-20 0.077645317)
(-0.0017542763 1.0980201e-19 0.077433288)
(-0.0016217513 4.1994945e-20 0.077223184)
(-0.0015221425 -1.7206318e-20 0.077012551)
(-0.0014560864 -1.2695538e-20 0.07679891)
(-0.0014150841 7.6606442e-20 0.076576892)
(-0.0014221328 9.4714738e-21 0.07634945)
(-0.0014121024 6.6402423e-22 0.076086586)
(-0.0015661637 1.6892837e-21 0.075850974)
(-0.001430592 7.4388021e-22 0.075382738)
(-0.0019737974 6.8546695e-23 0.074525685)
(-0.0012845498 -7.7319501e-21 0.065979086)
(4.3280995e-06 -3.436037e-20 0.013871804)
(-8.6778356e-06 -1.0280899e-19 0.040817891)
(-3.880993e-05 -1.7671998e-19 0.068080503)
(-9.2792617e-05 -2.3231255e-19 0.095330466)
(-0.00017519133 -2.9876614e-19 0.12216857)
(-0.00029052258 -3.5121813e-19 0.14812245)
(-0.00044342791 -4.1233837e-19 0.17264763)
(-0.00063859539 -5.006913e-19 0.19513522)
(-0.00088059087 -5.7907599e-19 0.21492898)
(-0.0011736054 -5.6178674e-19 0.23135524)
(-0.0015210819 -5.7370636e-19 0.24376828)
(-0.0019251623 -5.9214322e-19 0.25161232)
(-0.0023858818 -3.9733535e-19 0.25449779)
(-0.0029000642 -2.2344915e-19 0.25228307)
(-0.0034599769 -7.3885392e-20 0.24514608)
(-0.0040520112 6.9501104e-20 0.23362321)
(-0.0046559188 2.0662885e-19 0.21859327)
(-0.0052452806 1.8203866e-19 0.20119452)
(-0.0057896782 4.4395968e-19 0.18268363)
(-0.0062584407 9.7310616e-19 0.16426921)
(-0.0066250931 6.6373873e-19 0.14696373)
(-0.0068712184 -1.2106331e-19 0.13149028)
(-0.0069886484 -2.1217467e-19 0.11825752)
(-0.0069795806 -2.4193764e-19 0.10739209)
(-0.0068549731 -3.1598531e-19 0.098804359)
(-0.00663201 -3.7257188e-19 0.092262869)
(-0.0063313652 -4.1180958e-19 0.087460973)
(-0.0059746393 -1.1572787e-19 0.084068048)
(-0.0055826381 4.2319618e-20 0.081764776)
(-0.0051759838 -1.7795021e-19 0.080265323)
(-0.0047694637 -2.3731312e-19 0.079329635)
(-0.004376917 2.3937459e-19 0.078766314)
(-0.004007875 -2.9856933e-20 0.078432564)
(-0.0036683446 2.7992577e-20 0.078228979)
(-0.0033610802 1.1448341e-19 0.078091772)
(-0.0030863521 1.7246335e-19 0.077983277)
(-0.0028428734 3.056294e-19 0.077883184)
(-0.0026287254 -5.1249708e-20 0.077781543)
(-0.0024421426 -1.1637987e-19 0.077673913)
(-0.0022818713 1.328941e-19 0.077558447)
(-0.0021480889 3.3138375e-19 0.077434373)
(-0.0020393534 -4.8841379e-21 0.077301023)
(-0.0019641514 -5.6150837e-20 0.077158858)
(-0.0019017802 -1.8165475e-19 0.07700268)
(-0.0019203262 7.0174961e-21 0.076846458)
(-0.0018552901 2.0901281e-20 0.076639471)
(-0.0021012406 1.8440776e-19 0.076481164)
(-0.0018805404 1.9975595e-20 0.07597045)
(-0.0024835711 1.3140979e-19 0.074455138)
(-0.001692207 -4.468372e-21 0.062945266)
(3.4156153e-06 -8.6752443e-20 0.015287241)
(-7.5151026e-06 -2.6156543e-19 0.045083309)
(-3.3498848e-05 -4.3960572e-19 0.07535237)
(-8.0229834e-05 -6.4810148e-19 0.10575749)
(-0.0001517466 -8.7344927e-19 0.13588583)
(-0.00025212209 -1.0538268e-18 0.16524328)
(-0.00038561334 -1.0804863e-18 0.19325262)
(-0.00055661045 -1.0069421e-18 0.21925743)
(-0.00076951582 -9.2992438e-19 0.24253459)
(-0.0010285634 -8.9191235e-19 0.26231924)
(-0.0013375594 -8.1929189e-19 0.27784581)
(-0.0016995088 -8.9675892e-19 0.28840817)
(-0.0021160767 -1.1059389e-18 0.29343938)
(-0.0025868253 -1.2839713e-18 0.29260593)
(-0.0031081874 -1.0580165e-18 0.2859034)
(-0.0036722336 -9.9000032e-19 0.27373099)
(-0.0042654778 -9.5377977e-19 0.25691609)
(-0.0048682125 -8.9551573e-19 0.23666408)
(-0.0054550078 -7.063561e-19 0.21442663)
(-0.0059968142 1.4828283e-20 0.1917108)
(-0.0064645359 -1.9284405e-19 0.16987741)
(-0.0068332222 -2.3829787e-19 0.14998295)
(-0.007085647 -3.1286479e-19 0.13270076)
(-0.0072142704 -3.5660247e-19 0.11832556)
(-0.0072212396 -5.464192e-19 0.10683882)
(-0.0071167795 -6.7238765e-19 0.098002233)
(-0.0069167172 -7.774116e-19 0.091451224)
(-0.0066398404 -7.4905868e-19 0.086771715)
(-0.0063055993 -4.8238213e-19 0.083554663)
(-0.00593294 -3.2067452e-19 0.08142986)
(-0.0055387363 -2.3157334e-19 0.080083622)
(-0.005137805 6.1443624e-20 0.079264498)
(-0.0047425215 2.9132338e-20 0.078781948)
(-0.0043628415 3.8290741e-20 0.07850018)
(-0.0040063499 1.4300572e-19 0.078328945)
(-0.0036784213 2.2478338e-19 0.078212771)
(-0.0033824891 3.4697991e-19 0.078120414)
(-0.003120394 -2.7175589e-19 0.078035861)
(-0.0028928343 -1.7343379e-20 0.077951628)
(-0.0026994236 2.6782884e-19 0.077864415)
(-0.0025409034 4.6828224e-19 0.077772733)
(-0.0024116727 7.1275811e-20 0.077675235)
(-0.0023288595 1.4355058e-19 0.077573248)
(-0.0022418465 -1.8975452e-19 0.077457707)
(-0.0022841593 1.5996605e-20 0.077352821)
(-0.0021597521 1.3593824e-19 0.077186009)
(-0.0024547137 1.6889707e-19 0.077058401)
(-0.0021779803 3.0552326e-20 0.076467343)
(-0.0026753326 1.1319013e-19 0.074153757)
(-0.0018616415 1.0680119e-20 0.060107011)
(2.8269551e-06 -3.6287301e-20 0.016389828)
(-5.847082e-06 -1.1026576e-19 0.048420191)
(-2.6286427e-05 -1.8773764e-19 0.081064159)
(-6.3185043e-05 -2.967833e-19 0.11398433)
(-0.00011995 -4.1728639e-19 0.14676396)
(-0.00020011346 -5.4989192e-19 0.17890001)
(-0.00030748745 -6.4444299e-19 0.20979911)
(-0.0004461601 -6.2537329e-19 0.23877836)
(-0.00062043828 -5.4990382e-19 0.26507397)
(-0.00083474188 -5.6556394e-19 0.28786126)
(-0.0010934308 -5.024179e-19 0.30629046)
(-0.0014005309 -5.1802827e-19 0.31954228)
(-0.0017593111 -8.4299218e-19 0.32690581)
(-0.0021716504 -1.2092564e-18 0.32787686)
(-0.0026371337 -1.1663408e-18 0.32226741)
(-0.0031518703 -1.058879e-18 0.31030613)
(-0.0037071512 -9.9088282e-19 0.29269977)
(-0.0042882926 -6.8665782e-19 0.27062242)
(-0.0048742346 -3.5989144e-19 0.2456114)
(-0.0054385125 -1.3103252e-19 0.2193773)
(-0.0059518754 -2.9343473e-19 0.19357054)
(-0.006386166 -6.7842066e-19 0.16956803)
(-0.0067184409 -6.0532401e-19 0.14833541)
(-0.0069341393 -6.1846679e-19 0.13038862)
(-0.0070285082 -7.0256524e-19 0.11584152)
(-0.0070061753 -8.1165247e-19 0.10450465)
(-0.0068793376 -9.7179729e-19 0.095997873)
(-0.0066652649 -1.0657147e-18 0.089850446)
(-0.0063837301 -9.303773e-19 0.085576455)
(-0.0060548891 -6.2342499e-19 0.08272396)
(-0.0056975792 -3.0671072e-19 0.080902192)
(-0.0053282883 -1.8294985e-19 0.079792579)
(-0.0049605716 -1.5590858e-19 0.079149199)
(-0.0046048819 5.4203478e-20 0.078792611)
(-0.0042687017 1.4113341e-19 0.07859981)
(-0.0039569263 1.6711957e-19 0.078492225)
(-0.0036724323 1.6098712e-19 0.078423557)
(-0.0034167117 -2.1437066e-19 0.078368911)
(-0.0031905838 1.7178212e-19 0.07831622)
(-0.0029938942 3.498038e-19 0.078260311)
(-0.0028298416 3.6142359e-19 0.07819941)
(-0.002688266 1.2845243e-19 0.078132195)
(-0.0026036553 3.5641132e-19 0.07806231)
(-0.0024864004 1.3630373e-19 0.077977164)
(-0.0025457189 5.3945031e-20 0.077908249)
(-0.0023712137 1.4525323e-19 0.07777107)
(-0.0026621009 -1.730238e-20 0.077620655)
(-0.0023701977 2.6041008e-20 0.076875596)
(-0.0027142495 -2.7644566e-20 0.073649637)
(-0.00188589 9.5375407e-21 0.057247333)
(2.4598255e-06 2.4152656e-21 0.017347977)
(-5.1186432e-06 7.4939286e-21 0.051320143)
(-2.3021696e-05 1.9238737e-21 0.086028598)
(-5.5369065e-05 9.9283521e-21 0.12113616)
(-0.00010517232 1.4659885e-20 0.15622382)
(-0.00017556922 -3.7153652e-20 0.19078278)
(-0.0002699663 -1.7079731e-19 0.22420881)
(-0.000392047 -2.8934212e-19 0.25580094)
(-0.00054573958 -3.6600433e-19 0.28476709)
(-0.00073515023 -4.4385327e-19 0.31024033)
(-0.00096444756 -4.9434335e-19 0.33130998)
(-0.001237673 -5.5503701e-19 0.3470724)
(-0.0015584361 -6.0615133e-19 0.35670507)
(-0.0019294376 -6.8580774e-19 0.35956465)
(-0.0023517566 -7.6915904e-19 0.35530271)
(-0.0028238519 -6.6016466e-19 0.34398289)
(-0.0033403101 -4.7941927e-19 0.32617061)
(-0.0038905457 -1.9580826e-19 0.30295872)
(-0.0044578961 3.4126526e-19 0.27589744)
(-0.0050197324 4.2473993e-19 0.246821)
(-0.0055490864 3.4851936e-19 0.21760224)
(-0.0060177961 -1.4565605e-19 0.18989876)
(-0.0064004816 -3.5048353e-19 0.16496085)
(-0.0066782236 -4.8089032e-19 0.14354423)
(-0.006840919 -6.3767414e-19 0.1259287)
(-0.006887851 -7.0365057e-19 0.11201102)
(-0.0068266512 -7.3666747e-19 0.10142872)
(-0.0066712322 -6.2578806e-19 0.093679736)
(-0.0064393499 -6.3794047e-19 0.088217997)
(-0.0061503214 -6.3176283e-19 0.084519192)
(-0.0058231673 -3.297137e-19 0.082119574)
(-0.0054752953 -3.268249e-19 0.08063406)
(-0.0051216829 -2.0629833e-19 0.079760152)
(-0.0047744777 4.8408357e-20 0.079272893)
(-0.0044429194 1.1984483e-19 0.079014525)
(-0.0041335051 1.3813345e-19 0.07888147)
(-0.0038503563 1.4285673e-19 0.078810627)
(-0.0035957153 8.7294219e-20 0.078766678)
(-0.003370729 1.2596935e-19 0.078731617)
(-0.0031744285 1.4768629e-19 0.078697136)
(-0.0030121806 2.7321989e-19 0.078660035)
(-0.002864863 1.2493016e-19 0.078617635)
(-0.0027876237 1.8850604e-19 0.0785747)
(-0.0026488234 1.5749613e-19 0.078515209)
(-0.0027200776 6.2320866e-20 0.078469204)
(-0.0025250638 3.0294493e-20 0.078351483)
(-0.0027847147 -9.6521197e-21 0.078134708)
(-0.0025095687 2.1318279e-20 0.077159618)
(-0.0027178058 -2.9550087e-20 0.072976413)
(-0.0018559922 8.2444874e-21 0.054424507)
(2.189711e-06 3.4540236e-20 0.018190647)
(-4.5167557e-06 1.0185984e-19 0.053872653)
(-2.0350539e-05 1.6183036e-19 0.09040163)
(-4.8989285e-05 2.2997619e-19 0.12744151)
(-9.3139623e-05 3.1290247e-19 0.16457255)
(-0.00015563889 3.49135e-19 0.20128248)
(-0.00023958857 3.2443578e-19 0.23695972)
(-0.00034837039 1.8638242e-19 0.27089034)
(-0.00048562883 6.9313815e-20 0.30226136)
(-0.00065522668 1.41943e-19 0.33017383)
(-0.00086116236 -4.0562551e-20 0.3536701)
(-0.0011074281 -5.2599274e-20 0.37178009)
(-0.0013977763 -5.5041294e-20 0.38359123)
(-0.0017353438 -7.1052113e-20 0.38834428)
(-0.0021220728 -5.5063487e-19 0.38555143)
(-0.0025578671 -3.03594e-19 0.37512387)
(-0.0030394714 -5.4373582e-20 0.35748249)
(-0.0035591867 9.6795517e-20 0.33361458)
(-0.0041037467 6.3236149e-19 0.30503796)
(-0.0046539011 7.3966618e-19 0.27365246)
(-0.0051852864 5.8816421e-19 0.24149622)
(-0.005670838 5.7823367e-20 0.21046567)
(-0.0060843742 -1.8777244e-19 0.18207691)
(-0.0064043989 -3.1720526e-19 0.15732912)
(-0.0066170316 -3.5877529e-19 0.13668769)
(-0.006717359 -2.8461743e-19 0.12016249)
(-0.0067091166 -9.8352481e-20 0.10743575)
(-0.0066031176 1.2422177e-19 0.097996866)
(-0.0064150405 -1.2132241e-19 0.091256307)
(-0.0061631352 -4.9695343e-19 0.086628023)
(-0.0058662067 -4.0325798e-19 0.083580765)
(-0.0055420555 -7.223521e-20 0.081664511)
(-0.005206409 -3.4159907e-20 0.080519193)
(-0.0048723134 1.5506133e-19 0.079871921)
(-0.0045499129 3.5773138e-19 0.079527253)
(-0.0042465415 1.9216148e-19 0.079353724)
(-0.0039670614 1.9615826e-19 0.079268997)
(-0.0037143349 2.2237591e-19 0.07922556)
(-0.0034902039 -1.4148574e-19 0.079198421)
(-0.0032930422 8.6740633e-20 0.079175698)
(-0.0031322198 1.9216332e-19 0.079152816)
(-0.0029783794 6.6500872e-20 0.0791259)
(-0.0029078265 -1.6346529e-19 0.079100227)
(-0.0027554322 -1.3194755e-19 0.079058898)
(-0.0028272479 3.9785396e-20 0.079022099)
(-0.0026337143 -1.1771064e-19 0.078910362)
(-0.002849152 1.2783404e-19 0.078598248)
(-0.0025928925 3.6770521e-20 0.077331675)
(-0.0026954454 1.8317121e-19 0.072195863)
(-0.0017981772 1.3502508e-20 0.051730164)
(1.9854538e-06 1.1243588e-20 0.018951336)
(-4.0919193e-06 3.4168978e-20 0.056177427)
(-1.8448512e-05 6.2366876e-20 0.094351251)
(-4.443048e-05 1.0736834e-19 0.13313812)
(-8.4510818e-05 1.6502428e-19 0.17211817)
(-0.00014129034 2.2937217e-19 0.21077684)
(-0.00021762211 2.925911e-19 0.24849715)
(-0.00031663074 2.4104054e-19 0.28455527)
(-0.00044170348 1.9788811e-19 0.31812193)
(-0.0005964597 3.4512638e-19 0.34827294)
(-0.00078469009 5.0801701e-19 0.37401307)
(-0.0010102486 7.6070833e-19 0.39431843)
(-0.0012768681 1.0232084e-18 0.40820229)
(-0.0015878595 8.4040769e-19 0.41480782)
(-0.0019456372 3.0492943e-19 0.41352635)
(-0.002351007 -8.1661828e-20 0.40413119)
(-0.0028021797 -1.5097134e-19 0.38690371)
(-0.0032935627 -6.5661022e-19 0.36271557)
(-0.0038145599 -1.0975152e-18 0.33302467)
(-0.0043488364 -1.1030558e-18 0.29975465)
(-0.0048746291 -4.2495075e-19 0.26506239)
(-0.0053665078 -6.3875667e-20 0.2310434)
(-0.0057984737 -1.5705421e-19 0.19945562)
(-0.0061476564 -1.8535325e-19 0.17153611)
(-0.0063975511 -2.9824891e-19 0.14794521)
(-0.0065399405 -3.24221e-19 0.12882386)
(-0.0065751887 -3.3425788e-19 0.1139195)
(-0.0065111552 -5.4784558e-20 0.10273171)
(-0.0063612745 3.2130046e-19 0.094642543)
(-0.0061423658 5.2042766e-20 0.089014917)
(-0.0058725884 5.0099712e-20 0.085256857)
(-0.0055697622 1.9147067e-19 0.082856929)
(-0.0052501338 1.2475208e-19 0.081398575)
(-0.0049275812 1.8620744e-19 0.080560383)
(-0.0046132075 3.8066516e-19 0.080107645)
(-0.0043152712 4.3230824e-19 0.079878963)
(-0.0040394011 5.0216909e-19 0.079770659)
(-0.0037889742 4.3078737e-19 0.079721143)
(-0.0035664773 1.206984e-19 0.079696952)
(-0.0033689452 3.6271581e-19 0.079681565)
(-0.0032102536 1.7794608e-19 0.079668396)
(-0.0030509221 2.1219797e-19 0.079652271)
(-0.0029836621 -5.2018576e-19 0.079637605)
(-0.0028250427 -3.3029686e-19 0.079609028)
(-0.0028862361 1.1796306e-20 0.079571148)
(-0.0027032936 -8.9552049e-20 0.079448604)
(-0.0028728576 6.4735211e-20 0.079017956)
(-0.0026251597 3.853054e-20 0.077408223)
(-0.0026468956 1.2980112e-19 0.071334576)
(-0.0017222219 2.8817693e-20 0.049171791)
(1.8228206e-06 -5.3745186e-20 0.019646795)
(-3.7509656e-06 -1.5524695e-19 0.058285136)
(-1.6923202e-05 -2.4705132e-19 0.097964114)
(-4.0774198e-05 -3.3043372e-19 0.13835061)
(-7.7588677e-05 -4.3572742e-19 0.17902506)
(-0.00012977604 -4.8667524e-19 0.21947144)
(-0.00019998703 -4.6942023e-19 0.25906866)
(-0.00029113509 -5.6984197e-19 0.2970851)
(-0.000406393 -7.0127801e-19 0.33267834)
(-0.00054917135 -8.6607628e-19 0.36490359)
(-0.00072307241 -7.3447556e-19 0.39273463)
(-0.00093180446 -7.9885364e-19 0.41510273)
(-0.0011790332 -9.2640631e-19 0.4309586)
(-0.0014681348 -6.5502043e-19 0.43936183)
(-0.0018017982 -5.9761059e-20 0.43959802)
(-0.0021814168 -6.4530637e-19 0.43131612)
(-0.0026062222 -1.0863103e-18 0.41466583)
(-0.0030721695 -1.4217931e-18 0.39040051)
(-0.0035707369 -2.0542903e-18 0.35990168)
(-0.0040880102 -2.1738325e-18 0.3250872)
(-0.004604593 -1.6933793e-18 0.28819569)
(-0.0050968292 -7.8043595e-19 0.25148659)
(-0.0055394149 -3.5949882e-19 0.21693489)
(-0.0059088714 -1.5496399e-19 0.1860053)
(-0.0061869111 1.4048465e-20 0.15955622)
(-0.0063627616 -3.0700051e-19 0.13787166)
(-0.0064339687 -5.5216704e-19 0.12077998)
(-0.0064057558 -2.3096924e-19 0.10780649)
(-0.0062894036 3.057378e-19 0.098317877)
(-0.0061002025 3.4867566e-19 0.091635953)
(-0.0058554302 4.484065e-19 0.087114776)
(-0.0055726111 2.9783072e-19 0.08418554)
(-0.0052681749 2.2562014e-19 0.082377051)
(-0.0049565305 2.4363052e-19 0.081319597)
(-0.0046495223 1.723054e-19 0.080738313)
(-0.0043562301 3.4433093e-19 0.080440367)
(-0.0040830569 5.3695301e-19 0.080299039)
(-0.0038339504 1.901595e-19 0.080237082)
(-0.0036123317 2.1345253e-19 0.080211308)
(-0.0034137386 2.0112486e-19 0.080199654)
(-0.0032564633 -1.3261158e-19 0.080192869)
(-0.0030932301 8.834348e-20 0.080184492)
(-0.0030254632 -3.2837746e-19 0.080176557)
(-0.0028668171 -2.7239131e-19 0.080156103)
(-0.0029119936 -7.0153723e-21 0.080109743)
(-0.0027413183 2.720544e-20 0.079958415)
(-0.0028708904 -9.4977295e-20 0.079388433)
(-0.0026227675 2.030496e-20 0.07739645)
(-0.002580834 -1.1344443e-19 0.07040574)
(-0.0016370572 2.182451e-20 0.046740192)
(1.6897603e-06 -2.9962398e-20 0.020289658)
(-3.4755204e-06 -8.9963702e-20 0.060233804)
(-1.5687344e-05 -1.5372495e-19 0.10130497)
(-3.780832e-05 -2.1987859e-19 0.1431717)
(-7.1967849e-05 -2.901237e-19 0.185415)
(-0.00012041624 -3.6341346e-19 0.22751789)
(-0.00018563466 -4.2978109e-19 0.26885614)
(-0.00027035763 -4.8922161e-19 0.30869177)
(-0.00037757318 -5.4693662e-19 0.34617153)
(-0.00051050786 -6.0226246e-19 0.38033338)
(-0.00067259119 -6.1135587e-19 0.41012497)
(-0.00086738663 -6.8888136e-19 0.43443943)
(-0.0010984691 -7.9605458e-19 0.45217378)
(-0.0013692176 -9.3569836e-19 0.46231501)
(-0.0016824777 -9.982625e-19 0.46405538)
(-0.0020400368 -1.0136351e-18 0.45693149)
(-0.0024418576 -1.1493803e-18 0.44096992)
(-0.0028850602 -1.2874191e-18 0.41680703)
(-0.0033627577 -1.3869601e-18 0.38573843)
(-0.0038630437 -1.5038909e-18 0.34965515)
(-0.0043686221 -1.4245067e-18 0.31084836)
(-0.0048575932 -9.7246534e-19 0.27171101)
(-0.0053056148 -6.6851223e-19 0.23441121)
(-0.0056890928 -4.4567708e-19 0.2006287)
(-0.0059885566 -2.0832803e-19 0.17141898)
(-0.0061912602 0 0.14721686)
(-0.0062923982 -1.7778957e-19 0.12794364)
(-0.0062948661 -2.9644251e-19 0.11316315)
(-0.006207935 5.8831991e-23 0.10223811)
(-0.0060453704 2.9525973e-19 0.094458173)
(-0.0058234582 3.8410253e-19 0.089129917)
(-0.0055592465 2.9621863e-19 0.085631405)
(-0.0052691373 2.6967769e-19 0.08343918)
(-0.0049678624 2.7425216e-19 0.082136098)
(-0.0046678279 2.5993536e-19 0.081406879)
(-0.0043788008 3.6096082e-19 0.08102624)
(-0.0041078807 5.0588679e-19 0.080843011)
(-0.0038594992 3.8605785e-19 0.08076283)
(-0.0036381323 2.3909689e-19 0.080731525)
(-0.0034379188 1.5009567e-19 0.080720576)
(-0.0032806377 -1.2411795e-19 0.08071732)
(-0.0031148514 -8.3675139e-20 0.080713997)
(-0.0030431032 -2.3463004e-19 0.080709256)
(-0.0028875199 -2.1365402e-19 0.080691899)
(-0.0029155247 -2.150105e-20 0.080630922)
(-0.0027545446 -8.6136271e-21 0.080433869)
(-0.0028509255 -6.6276651e-20 0.079705928)
(-0.0025967528 6.572199e-21 0.077306204)
(-0.0025032016 -9.0333045e-20 0.069428392)
(-0.0015482715 1.7886862e-20 0.044440318)
(1.5784563e-06 -6.4080091e-20 0.020888823)
(-3.2458694e-06 -1.9126481e-19 0.062050293)
(-1.4656235e-05 -3.2762478e-19 0.10441969)
(-3.5332462e-05 -4.7536003e-19 0.14766724)
(-6.7272791e-05 -6.0117093e-19 0.19137473)
(-0.00011259281 -7.3685841e-19 0.2350246)
(-0.00017362937 -8.7950814e-19 0.27799012)
(-0.00025296336 -9.3000191e-19 0.31952811)
(-0.00035342284 -1.0208758e-18 0.35877616)
(-0.0004780729 -9.1679555e-19 0.39475752)
(-0.0006301876 -5.6454011e-19 0.42639742)
(-0.00081319325 -9.8830893e-20 0.452556)
(-0.001030566 4.5829442e-19 0.47208353)
(-0.001285655 9.636133e-20 0.48390316)
(-0.0015813924 -7.4625668e-19 0.48712396)
(-0.001919835 -9.0732808e-19 0.48118066)
(-0.0023014827 -9.310729e-19 0.46598514)
(-0.0027243489 -2.2261331e-19 0.44205998)
(-0.00318285 1.3461976e-20 0.41060981)
(-0.0036667491 5.572215e-19 0.37348389)
(-0.0041605911 -5.3288925e-19 0.33300284)
(-0.0046441404 -7.3426078e-19 0.29166717)
(-0.0050941381 -7.7733735e-19 0.25181581)
(-0.0054871928 -8.3931924e-19 0.21532986)
(-0.0058030851 -9.4746886e-19 0.18345839)
(-0.0060275478 -5.8746506e-19 0.15679153)
(-0.0061538144 9.4781327e-20 0.13535281)
(-0.006182737 1.3354744e-19 0.11875523)
(-0.0061217421 -1.5712856e-19 0.10636738)
(-0.0059831202 2.2944562e-19 0.097454815)
(-0.0057821251 3.9408832e-19 0.091282658)
(-0.0055352168 3.6560416e-19 0.087180011)
(-0.0052586128 3.8024338e-19 0.084573729)
(-0.0049671991 4.7275111e-19 0.083000506)
(-0.0046737923 5.9585093e-19 0.082104861)
(-0.0043887295 4.8096307e-19 0.081628492)
(-0.0041197495 6.8417961e-19 0.081394733)
(-0.0038716996 1.1202449e-18 0.081290864)
(-0.0036501094 5.5205997e-19 0.081250557)
(-0.0034481038 2.1387434e-19 0.081237931)
(-0.0032894744 1.5965932e-19 0.081236106)
(-0.0031221743 -9.6728991e-20 0.081235752)
(-0.0030442289 -4.2029545e-19 0.08123163)
(-0.0028921306 -2.1426974e-19 0.081212502)
(-0.0029038634 -2.8545857e-20 0.08113127)
(-0.0027484892 -1.2253645e-20 0.080873518)
(-0.0028166963 -4.4085888e-20 0.079970847)
(-0.0025532228 2.1553097e-22 0.07714807)
(-0.0024169478 -7.4365871e-20 0.068419781)
(-0.0014586087 1.2125226e-20 0.042275866)
(1.4837736e-06 -2.8320036e-20 0.021451017)
(-3.0506704e-06 -8.2152816e-20 0.063754909)
(-1.3779826e-05 -1.4020268e-19 0.10734294)
(-3.3227543e-05 -2.0778243e-19 0.15188703)
(-6.3279742e-05 -2.6895287e-19 0.19696988)
(-0.00010593596 -3.338296e-19 0.24207362)
(-0.00016340837 -3.9762597e-19 0.28656956)
(-0.00023814456 -4.55978e-19 0.32971012)
(-0.00033283264 -4.9935908e-19 0.37062507)
(-0.00045039455 -5.115029e-19 0.40832492)
(-0.0005939639 -5.1428546e-19 0.44171538)
(-0.0007668394 -4.1649675e-19 0.46962769)
(-0.00097239739 -3.5396714e-19 0.49087089)
(-0.0012139395 -3.4601345e-19 0.50431137)
(-0.0014944399 -4.37365e-19 0.50898355)
(-0.0018161413 -4.6639634e-19 0.50422928)
(-0.0021799452 -4.9291517e-19 0.48985367)
(-0.0025845631 -4.1835845e-19 0.46626974)
(-0.0030254646 -2.8667146e-19 0.43458886)
(-0.0034938109 -1.0066252e-19 0.39660789)
(-0.0039757547 -2.4988805e-19 0.35465871)
(-0.0044526039 -4.9493046e-19 0.31132722)
(-0.0049022245 -5.1648085e-19 0.2691028)
(-0.0053016298 -4.3503081e-19 0.23005404)
(-0.0056301665 -3.3932651e-19 0.1956183)
(-0.0058723988 -4.8642322e-19 0.16654335)
(-0.0060199215 -4.95917e-19 0.14296198)
(-0.0060717937 1.0586789e-19 0.12454526)
(-0.0060337596 4.0263215e-19 0.11067625)
(-0.0059167109 1.9000239e-19 0.10060365)
(-0.0057348686 3.427882e-19 0.093556693)
(-0.0055040425 3.6362929e-19 0.088819503)
(-0.0052401612 3.7867111e-19 0.085771865)
(-0.0049581372 3.9771712e-19 0.083905789)
(-0.0046710627 5.0606895e-19 0.082826129)
(-0.0043897288 6.0908979e-19 0.082241344)
(-0.0041224516 7.1029906e-19 0.081948521)
(-0.0038744408 9.3193425e-19 0.081815563)
(-0.0036521656 5.960412e-19 0.081762927)
(-0.003448314 2.5963716e-19 0.081746501)
(-0.0032872253 1.2308975e-19 0.081744426)
(-0.0031188891 4.0116867e-20 0.081745265)
(-0.003033802 -3.6222287e-19 0.081739751)
(-0.0028842085 -1.9663751e-19 0.081714327)
(-0.0028813357 -2.8454151e-20 0.081607174)
(-0.002727901 -6.1052476e-21 0.081275717)
(-0.0027713887 -2.9368877e-20 0.080183553)
(-0.0024971181 -7.230233e-21 0.076929757)
(-0.0023247288 -6.1467264e-20 0.067391303)
(-0.0013697674 3.8100638e-21 0.040243609)
(1.4018907e-06 -5.5088637e-22 0.021981434)
(-2.8827457e-06 -1.557118e-21 0.065363343)
(-1.3024369e-05 -2.1724683e-21 0.11010152)
(-3.141178e-05 -7.4067173e-22 0.15586962)
(-5.9833372e-05 -3.1965614e-20 0.20225129)
(-0.00010018766 -5.7776431e-20 0.24872859)
(-0.00015457767 -7.7166613e-20 0.29467125)
(-0.00022533401 -2.0482995e-19 0.33932797)
(-0.0003150211 -3.0476402e-19 0.38182172)
(-0.00042643324 -3.5650323e-19 0.42115189)
(-0.00056257735 -6.1034251e-19 0.45620694)
(-0.00072663386 -9.1416374e-19 0.48579253)
(-0.00092188162 -1.284521e-18 0.50868095)
(-0.0011515651 -1.2255392e-18 0.52368775)
(-0.0014186719 -4.4729041e-19 0.52977975)
(-0.0017255737 -3.8783936e-19 0.5262138)
(-0.002073478 -2.0941285e-19 0.51269549)
(-0.0024616492 -5.2278534e-19 0.48953292)
(-0.0028864181 -4.0296167e-19 0.45774373)
(-0.003340125 -5.7875271e-19 0.41906493)
(-0.0038103287 8.7293514e-20 0.37582514)
(-0.0042797524 -1.5394283e-19 0.33067692)
(-0.0047273808 -2.2828166e-19 0.28624155)
(-0.0051307606 -1.6779444e-19 0.24476155)
(-0.0054690356 -6.7053969e-20 0.2078562)
(-0.005725878 -6.6822887e-20 0.17643149)
(-0.0058915115 -5.8361292e-19 0.15073483)
(-0.0059634187 -1.5731306e-19 0.13050277)
(-0.0059458124 4.8952111e-19 0.11514041)
(-0.0058482686 3.8968583e-19 0.10388613)
(-0.0056839978 4.501998e-19 0.095938394)
(-0.0054681307 4.0851364e-19 0.090540095)
(-0.0052162378 3.9906622e-19 0.087026522)
(-0.0049431607 3.9607382e-19 0.084846588)
(-0.0046621611 2.8122213e-19 0.083566222)
(-0.0043843834 4.8207947e-19 0.082860688)
(-0.0041186493 5.7366062e-19 0.082500335)
(-0.0038705055 4.294987e-19 0.082332863)
(-0.0036471616 2.2313385e-19 0.082264566)
(-0.0034414418 1.8604686e-19 0.082242267)
(-0.0032771261 -1.6859854e-19 0.082238417)
(-0.0031077043 -1.3500874e-20 0.082238756)
(-0.0030153399 3.2789767e-20 0.082229958)
(-0.0028667713 -1.7425564e-19 0.082194005)
(-0.0028508909 -2.9784903e-20 0.082055077)
(-0.0026966579 0 0.081638673)
(-0.0027177731 -1.9901176e-20 0.080344655)
(-0.0024324587 -9.0364031e-21 0.07665774)
(-0.0022289962 -5.218555e-20 0.066351796)
(-0.001282977 3.992015e-21 0.038338916)
(1.3303593e-06 -2.7924912e-20 0.022484188)
(-2.7361044e-06 -8.3725259e-20 0.066888027)
(-1.236468e-05 -1.4234787e-19 0.1127167)
(-2.9825931e-05 -1.9676958e-19 0.15964556)
(-5.6822501e-05 -2.6140868e-19 0.20725927)
(-9.5163838e-05 -3.2306195e-19 0.25504001)
(-0.00014685665 -3.8568345e-19 0.30235622)
(-0.00021412758 -4.5086159e-19 0.34845341)
(-0.0002994307 -5.1575561e-19 0.3924486)
(-0.00040544603 -5.6176229e-19 0.43333132)
(-0.00053506556 -5.4673732e-19 0.46997471)
(-0.00069136042 -6.1801997e-19 0.50116151)
(-0.00087751575 -5.6179399e-19 0.52563102)
(-0.0010967143 -7.1547465e-19 0.54215281)
(-0.0013519386 -6.8979043e-19 0.54963222)
(-0.0016456494 -5.6742904e-19 0.54724787)
(-0.0019792893 -5.1806293e-19 0.53461245)
(-0.002352567 -5.3813717e-19 0.51193386)
(-0.0027625254 -5.369507e-19 0.48013674)
(-0.0032025068 -5.7310675e-19 0.44089305)
(-0.0036613022 -2.3118412e-19 0.39651666)
(-0.0041229266 -2.624384e-20 0.34971074)
(-0.0045674513 -7.2978749e-20 0.3032119)
(-0.0049730336 -3.3171997e-20 0.25942342)
(-0.0053187849 5.3006446e-20 0.22013953)
(-0.0055877058 1.4528384e-19 0.18642379)
(-0.0057688697 -6.5613169e-20 0.15864212)
(-0.0058583717 -9.0900566e-20 0.13660284)
(-0.0058590307 2.1712728e-19 0.11973972)
(-0.0057791903 3.7442522e-19 0.10728674)
(-0.0056310832 4.3535724e-19 0.098416328)
(-0.0054291522 4.2943994e-19 0.092333661)
(-0.0051885649 3.9734789e-19 0.088332022)
(-0.0049240228 3.8413667e-19 0.085818833)
(-0.004648875 3.2861497e-19 0.084321972)
(-0.0043745285 3.4701686e-19 0.083483746)
(-0.0041102355 4.8667606e-19 0.083047481)
(-0.0038618788 5.0862727e-19 0.082840032)
(-0.0036371946 2.9439126e-19 0.082752708)
(-0.0034295767 1.4483079e-19 0.082722458)
(-0.0032616161 -1.5780629e-19 0.082715389)
(-0.0030907498 -1.7545482e-19 0.082713605)
(-0.0029913522 1.3454037e-20 0.08269962)
(-0.002842351 -1.355655e-19 0.082649211)
(-0.0028146528 -2.8259347e-20 0.082472617)
(-0.0026577193 3.64384e-21 0.081961587)