/*--------------------------------*- C++ -*----------------------------------*\
| =========                 |                                                 |
| \\      /  F ield         | OpenFOAM: The Open Source CFD Toolbox           |
|  \\    /   O peration     | Version:  4.0                                   |
|   \\  /    A nd           | Web:      www.OpenFOAM.org                      |
|    \\/     M anipulation  |                                                 |
\*---------------------------------------------------------------------------*/
FoamFile
{
    version     2.0;
    format      ascii;
    class       surfaceScalarField;
    location    "2000";
    object      phi;
}
// * * * * * * * * * * * * * * * * * * * * * * * * * * * * * * * * * * * * * //

dimensions      [1 0 -1 0 0 0 0];

internalField   nonuniform List<scalar> 
9850
(
1.1913758e-11
1.9527404e-10
4.4554324e-11
6.5385373e-10
9.8780455e-11
1.2415295e-09
1.7710854e-10
1.98232e-09
2.8156814e-10
2.9043537e-09
4.134346e-10
4.0389733e-09
5.7295196e-10
5.4207475e-09
7.5906677e-10
7.0875078e-09
9.6921359e-10
9.0805093e-09
1.199189e-09
1.1444853e-08
1.4431625e-09
1.423035e-08
1.6938532e-09
1.7493036e-08
1.9428962e-09
2.129754e-08
2.1813876e-09
2.5720517e-08
2.4005921e-09
3.0855242e-08
2.5927464e-09
3.6817462e-08
2.7518612e-09
4.3752431e-08
2.8744732e-09
5.184305e-08
2.9601073e-09
6.1318955e-08
3.0114646e-09
7.2466425e-08
3.0341011e-09
8.5639103e-08
3.035627e-09
1.0126972e-07
3.0244766e-09
1.1988327e-07
3.0084016e-09
1.4211251e-07
2.9930833e-09
1.6871686e-07
2.9809817e-09
2.0060616e-07
2.9709035e-09
2.3887081e-07
2.9581909e-09
2.8481975e-07
2.9353618e-09
3.4002753e-07
2.8930393e-09
4.0639196e-07
2.8208859e-09
4.8620369e-07
2.7083648e-09
5.8222983e-07
2.5454993e-09
6.9781423e-07
2.3234916e-09
8.3699824e-07
2.0355933e-09
1.0046664e-06
1.6781825e-09
1.2067226e-06
1.2522905e-09
1.450304e-06
7.4747058e-10
1.7440634e-06
1.6803899e-10
2.0984172e-06
-4.6513036e-10
2.5259667e-06
-1.1138467e-09
3.0419632e-06
-1.7462969e-09
3.6648635e-06
-2.3175428e-09
4.4169938e-06
-2.7812311e-09
5.3253422e-06
-3.0768476e-09
6.4225785e-06
-3.1495127e-09
7.7481903e-06
-2.9313743e-09
9.3499984e-06
-2.371538e-09
1.1285787e-05
-1.4258619e-09
1.3625583e-05
1.6453733e-05
5.0496887e-11
1.447771e-10
2.1492642e-10
4.894244e-10
5.1665738e-10
9.3979845e-10
9.7789977e-10
1.5210778e-09
1.6190119e-09
2.2632419e-09
2.4562869e-09
3.2016983e-09
3.4992695e-09
4.3777645e-09
4.7477588e-09
5.8390192e-09
6.188781e-09
7.6394875e-09
7.7939791e-09
9.8396548e-09
9.5179647e-09
1.2506365e-08
1.1298255e-08
1.5712745e-08
1.3057391e-08
1.9538405e-08
1.4707607e-08
2.4070299e-08
1.615811e-08
2.9404739e-08
1.7324423e-08
3.565115e-08
1.8138695e-08
4.2938159e-08
1.8559266e-08
5.1422482e-08
1.8577398e-08
6.1300824e-08
1.8219278e-08
7.2824542e-08
1.7542072e-08
8.6316309e-08
1.6624149e-08
1.0218764e-07
1.5551321e-08
1.209561e-07
1.4402185e-08
1.4326166e-07
1.3236218e-08
1.6988282e-07
1.2087588e-08
2.0175478e-07
1.0965627e-08
2.3999278e-07
9.8609736e-09
2.8592441e-07
8.75473e-09
3.4113379e-07
7.6274527e-09
4.0751925e-07
6.465686e-09
4.8736546e-07
5.2650848e-09
5.8343044e-07
4.0304075e-09
6.9904889e-07
2.7736064e-09
8.3825503e-07
1.5107252e-09
1.0059293e-06
2.5783084e-10
1.2079754e-06
-9.6336184e-10
1.4515252e-06
-2.0901814e-09
1.7451902e-06
-3.0953713e-09
2.0994224e-06
-3.969446e-09
2.5268408e-06
-4.7052239e-09
3.0426989e-06
-5.2835692e-09
3.6654418e-06
-5.6802688e-09
4.4173905e-06
-5.8675476e-09
5.3255296e-06
-5.8093296e-09
6.4225203e-06
-5.4611951e-09
7.7478422e-06
-4.7758914e-09
9.3493131e-06
-3.6828482e-09
1.1284694e-05
-2.1598138e-09
1.362406e-05
1.6451573e-05
-1.8721702e-12
1.4664916e-10
-7.5035348e-12
4.9505591e-10
-1.6920901e-11
9.4921544e-10
-2.9690851e-11
1.5338477e-09
-4.4954717e-11
2.2785055e-09
-6.1510906e-11
3.2182542e-09
-7.8090318e-11
4.3943436e-09
-9.3899767e-11
5.8548287e-09
-1.0949456e-10
7.6550825e-09
-1.2798151e-10
9.8581431e-09
-1.564674e-10
1.253485e-08
-2.0749809e-10
1.5763776e-08
-3.0014381e-10
1.9631052e-08
-4.6019227e-10
2.4230345e-08
-7.1891607e-10
2.9663463e-08
-1.1100625e-09
3.6042296e-08
-1.6649201e-09
4.3493016e-08
-2.4059656e-09
5.2163526e-08
-3.3400908e-09
6.2234951e-08
-4.4530008e-09
7.3937451e-08
-5.7065179e-09
8.7569826e-08
-7.0403362e-09
1.0352146e-07
-8.3788108e-09
1.2229458e-07
-9.6419698e-09
1.4452482e-07
-1.0758526e-08
1.7099937e-07
-1.1677436e-08
2.0267369e-07
-1.2374895e-08
2.4069023e-07
-1.2854708e-08
2.8640422e-07
-1.3142493e-08
3.4142158e-07
-1.3276288e-08
4.0765305e-07
-1.3296872e-08
4.8738605e-07
-1.3240803e-08
5.8337437e-07
-1.3137117e-08
6.989452e-07
-1.3006867e-08
8.381248e-07
-1.2863473e-08
1.0057859e-06
-1.2712401e-08
1.2078243e-06
-1.2560208e-08
1.451373e-06
-1.2422782e-08
1.7450527e-06
-1.2288183e-08
2.0992878e-06
-1.2135867e-08
2.5266885e-06
-1.1938934e-08
3.042502e-06
-1.1665579e-08
3.6651684e-06
-1.12723e-08
4.4169972e-06
-1.0710931e-08
5.3249682e-06
-9.9243295e-09
6.4217337e-06
-8.8477188e-09
7.7467656e-06
-7.4202873e-09
9.3478857e-06
-5.5433605e-09
1.1282817e-05
-3.1908005e-09
1.3621707e-05
1.6448383e-05
-5.1344088e-12
1.5178361e-10
-2.2389915e-11
5.1231155e-10
-5.5336284e-11
9.8216134e-10
-1.0830604e-10
1.5868176e-09
-1.8646962e-10
2.3566695e-09
-2.9591878e-10
3.327703e-09
-4.4373491e-10
4.5421601e-09
-6.3805033e-10
6.0491444e-09
-8.8809068e-10
7.9051218e-09
-1.204207e-09
1.017426e-08
-1.5979233e-09
1.2928566e-08
-2.0819488e-09
1.6247802e-08
-2.6701522e-09
2.0219256e-08
-3.3773553e-09
2.4937546e-08
-4.2187347e-09
3.0504844e-08
-5.2085995e-09
3.703216e-08
-6.3581686e-09
4.4642586e-08
-7.6722801e-09
5.3477639e-08
-9.145145e-09
6.3707812e-08
-1.0755857e-08
7.5548163e-08
-1.2464975e-08
8.9278946e-08
-1.4213764e-08
1.0527025e-07
-1.59276e-08
1.2400842e-07
-1.7524241e-08
1.4612146e-07
-1.8925933e-08
1.7240107e-07
-2.0072877e-08
2.0382062e-07
-2.0934019e-08
2.4155137e-07
-2.1511745e-08
2.8698196e-07
-2.183842e-08
3.4174825e-07
-2.1965769e-08
4.077804e-07
-2.1951026e-08
4.8737129e-07
-2.184423e-08
5.8326756e-07
-2.1680528e-08
6.9878151e-07
-2.1478432e-08
8.3792271e-07
-2.1242608e-08
1.00555e-06
-2.0967691e-08
1.2075494e-06
-2.0641828e-08
1.4510471e-06
-2.0246973e-08
1.7446579e-06
-1.9768069e-08
2.0988089e-06
-1.9189713e-08
2.5261101e-06
-1.8496565e-08
3.0418089e-06
-1.7666715e-08
3.6643386e-06
-1.6670348e-08
4.4160009e-06
-1.5467508e-08
5.3237654e-06
-1.4010755e-08
6.4202769e-06
-1.2229125e-08
7.7449839e-06
-1.0064558e-08
9.3457211e-06
-7.3913076e-09
1.1280144e-05
-4.1510703e-09
1.3618467e-05
1.6444231e-05
-7.2318912e-12
1.5901543e-10
-3.1719734e-11
5.3679929e-10
-7.8720603e-11
1.0291625e-09
-1.5465445e-10
1.6627513e-09
-2.67303e-10
2.4693177e-09
-4.2599927e-10
3.4863995e-09
-6.4180369e-10
4.7579642e-09
-9.2763592e-10
6.3349759e-09
-1.2983398e-09
8.2758253e-09
-1.7706377e-09
1.0646558e-08
-2.3629226e-09
1.3520851e-08
-3.0948298e-09
1.697971e-08
-3.986543e-09
2.1110968e-08
-5.0577373e-09
2.6008741e-08
-6.3261373e-09
3.1773244e-08
-7.8055714e-09
3.8511593e-08
-9.5034874e-09
4.6340502e-08
-1.1417914e-08
5.5392066e-08
-1.3533986e-08
6.5823883e-08
-1.5820395e-08
7.7834571e-08
-1.8226552e-08
9.1685105e-08
-2.0681594e-08
1.0772529e-07
-2.3096565e-08
1.2642338e-07
-2.5370899e-08
1.4839579e-07
-2.7403341e-08
1.7443351e-07
-2.9105927e-08
2.0552321e-07
-3.0418006e-08
2.4286345e-07
-3.1316207e-08
2.8788017e-07
-3.1816904e-08
3.4224895e-07
-3.1969577e-08
4.0793308e-07
-3.1843219e-08
4.8724493e-07
-3.151025e-08
5.8293459e-07
-3.1033177e-08
6.9830443e-07
-3.0457242e-08
8.3734678e-07
-2.9809466e-08
1.0049023e-06
-2.9101348e-08
1.2068413e-06
-2.8333242e-08
1.450279e-06
-2.7500885e-08
1.7438255e-06
-2.6590188e-08
2.0978982e-06
-2.5580081e-08
2.5251001e-06
-2.4445061e-08
3.0406738e-06
-2.3153487e-08
3.663047e-06
-2.1667287e-08
4.4145146e-06
-1.9936927e-08
5.322035e-06
-1.7909918e-08
6.41825e-06
-1.5503842e-08
7.7425779e-06
-1.2653759e-08
9.342871e-06
-9.2198443e-09
1.127671e-05
-5.1072043e-09
1.3614355e-05
1.6439124e-05
-6.6100526e-12
1.6562549e-10
-2.9099069e-11
5.5928861e-10
-7.2495791e-11
1.0725589e-09
-1.4305671e-10
1.7333124e-09
-2.4851425e-10
2.5747753e-09
-3.9834434e-10
3.6362294e-09
-6.0405255e-10
4.9636721e-09
-8.7945581e-10
6.6103785e-09
-1.2409252e-09
8.6372955e-09
-1.7075499e-09
1.1113184e-08
-2.301134e-09
1.4114435e-08
-3.0459476e-09
1.7724524e-08
-3.968117e-09
2.2033136e-08
-5.0945007e-09
2.7135125e-08
-6.450971e-09
3.3129715e-08
-8.0599449e-09
4.0120566e-08
-9.9371678e-09
4.8217725e-08
-1.2087834e-08
5.7542731e-08
-1.450226e-08
6.823831e-08
-1.7151653e-08
8.0483963e-08
-1.9984685e-08
9.4518139e-08
-2.2926003e-08
1.106666e-07
-2.5877793e-08
1.2937517e-07
-2.8725619e-08
1.5124361e-07
-3.1348875e-08
1.7705677e-07
-3.3635226e-08
2.0780956e-07
-3.5496591e-08
2.4472482e-07
-3.6882979e-08
2.8926654e-07
-3.7789659e-08
3.4315563e-07
-3.8254814e-08
4.0839823e-07
-3.8347422e-08
4.8733752e-07
-3.8149001e-08
5.8273618e-07
-3.7735715e-08
6.9789113e-07
-3.716565e-08
8.3677672e-07
-3.6474633e-08
1.0042113e-06
-3.5678624e-08
1.2060453e-06
-3.4778168e-08
1.4493786e-06
-3.3766165e-08
1.7428135e-06
-3.2629396e-08
2.0967614e-06
-3.1348525e-08
2.5238192e-06
-2.9898778e-08
3.0392241e-06
-2.8248785e-08
3.6613971e-06
-2.636011e-08
4.412626e-06
-2.4178963e-08
5.3198538e-06
-2.1648866e-08
6.4157199e-06
-1.86781e-08
7.7396072e-06
-1.5189184e-08
9.3393821e-06
-1.1034461e-08
1.1272555e-05
-6.0828502e-09
1.3609403e-05
1.6433041e-05
-6.3788765e-12
1.7200446e-10
-2.8117921e-11
5.8102783e-10
-7.0126231e-11
1.1145672e-09
-1.385341e-10
1.8017203e-09
-2.4095316e-10
2.6771949e-09
-3.8677124e-10
3.7820478e-09
-5.8747409e-10
5.164375e-09
-8.5698797e-10
6.8798921e-09
-1.2120132e-09
8.9923206e-09
-1.6723128e-09
1.1573483e-08
-2.2608828e-09
1.4703004e-08
-3.0039204e-09
1.8467562e-08
-3.9304568e-09
2.2959672e-08
-5.0714883e-09
2.8276159e-08
-6.4584499e-09
3.4516675e-08
-8.1208066e-09
4.1782924e-08
-1.0082722e-08
5.017964e-08
-1.2358729e-08
5.9818737e-08
-1.4948678e-08
7.0828258e-08
-1.7832438e-08
8.3367723e-08
-2.0965196e-08
9.7650898e-08
-2.4274496e-08
1.139759e-07
-2.7660344e-08
1.3276102e-07
-3.0999656e-08
1.5458292e-07
-3.4155758e-08
1.8021287e-07
-3.6992794e-08
2.106466e-07
-3.9393213e-08
2.4712524e-07
-4.1275106e-08
2.9114844e-07
-4.2604712e-08
3.4448525e-07
-4.3399881e-08
4.0919341e-07
-4.3722176e-08
4.8765981e-07
-4.3659319e-08
5.8267334e-07
-4.3303664e-08
6.975355e-07
-4.2733594e-08
8.3620665e-07
-4.2002996e-08
1.0034807e-06
-4.1140206e-08
1.2051825e-06
-4.0151808e-08
1.4483902e-06
-3.9029684e-08
1.7416914e-06
-3.7756534e-08
2.0954883e-06
-3.6307589e-08
2.5223702e-06
-3.4651968e-08
3.0375685e-06
-3.2751563e-08
3.6594967e-06
-3.0562726e-08
4.4104371e-06
-2.8024973e-08
5.3173161e-06
-2.5075815e-08
6.4127708e-06
-2.1616948e-08
7.7361483e-06
-1.7556026e-08
9.3353212e-06
-1.2740887e-08
1.126774e-05
-7.0048522e-09
1.3603667e-05
1.6426037e-05
-5.9358697e-12
1.7794045e-10
-2.6196545e-11
6.0128861e-10
-6.5410242e-11
1.1537813e-09
-1.2938675e-10
1.8656967e-09
-2.2537689e-10
2.773185e-09
-3.6237759e-10
3.9190487e-09
-5.5147692e-10
5.3534742e-09
-8.0623099e-10
7.1346454e-09
-1.143056e-09
9.3291459e-09
-1.581609e-09
1.2012036e-08
-2.14509e-09
1.5266486e-08
-2.8603858e-09
1.9182858e-08
-3.7579354e-09
2.3857221e-08
-4.8711461e-09
2.9389371e-08
-6.235167e-09
3.5880694e-08
-7.8847758e-09
4.3432531e-08
-9.8512207e-09
5.2146086e-08
-1.2157901e-08
6.2125416e-08
-1.4814978e-08
7.3485331e-08
-1.7813357e-08
8.6366102e-08
-2.1118837e-08
1.0095637e-07
-2.466755e-08
1.1752461e-07
-2.8364256e-08
1.3645773e-07
-3.2084871e-08
1.5830353e-07
-3.568434e-08
1.8381234e-07
-3.9010116e-08
2.1397237e-07
-4.1920094e-08
2.5003523e-07
-4.4302166e-08
2.9353051e-07
-4.6091067e-08
3.4627415e-07
-4.7277533e-08
4.1037988e-07
-4.7905916e-08
4.8828819e-07
-4.8059663e-08
5.8282708e-07
-4.783883e-08
6.9731466e-07
-4.7336994e-08
8.3570482e-07
-4.6624812e-08
1.0027685e-06
-4.5743981e-08
1.2043017e-06
-4.470964e-08
1.4473559e-06
-4.3516983e-08
1.7404988e-06
-4.214823e-08
2.0941195e-06
-4.0576023e-08
2.520798e-06
-3.8765393e-08
3.0357579e-06
-3.6672549e-08
3.6574039e-06
-3.4247453e-08
4.408012e-06
-3.1422296e-08
5.314491e-06
-2.8125211e-08
6.4094737e-06
-2.4251188e-08
7.7322743e-06
-1.9690304e-08
9.3307603e-06
-1.4285772e-08
1.1262336e-05
-7.83799e-09
1.3597219e-05
1.6418199e-05
-5.5955314e-12
1.8353621e-10
-2.4711599e-11
6.2040483e-10
-6.1740872e-11
1.1908106e-09
-1.2220831e-10
1.9261645e-09
-2.1303114e-10
2.8640078e-09
-3.4281901e-10
4.0488364e-09
-5.2222373e-10
5.5328794e-09
-7.6433428e-10
7.3767557e-09
-1.0850954e-09
9.6499072e-09
-1.5037402e-09
1.2430681e-08
-2.0431762e-09
1.5805921e-08
-2.7302583e-09
1.9869941e-08
-3.5958394e-09
2.4722804e-08
-4.6744317e-09
3.0467963e-08
-6.0032787e-09
3.7209542e-08
-7.6206001e-09
4.5049852e-08
-9.562756e-09
5.4088242e-08
-1.1860171e-08
6.4422827e-08
-1.4531969e-08
7.6157126e-08
-1.7579638e-08
8.941377e-08
-2.098038e-08
1.0435712e-07
-2.468127e-08
1.212255e-07
-2.8595689e-08
1.4037215e-07
-3.2603827e-08
1.6231167e-07
-3.6558412e-08
1.8776693e-07
-4.0296644e-08
2.177106e-07
-4.3657444e-08
2.5339603e-07
-4.6502236e-08
2.963753e-07
-4.8734991e-08
3.485069e-07
-5.031664e-08
4.1196154e-07
-5.1268748e-08
4.8924028e-07
-5.1663671e-08
5.8322199e-07
-5.1603472e-08
6.9725448e-07
-5.1193967e-08
8.3529533e-07
-5.0522504e-08
1.0020971e-06
-4.9645949e-08
1.2034251e-06
-4.8589691e-08
1.4462996e-06
-4.7353553e-08
1.7392626e-06
-4.5919896e-08
2.0926859e-06
-4.4258624e-08
2.5191368e-06
-4.2330834e-08
3.0338301e-06
-4.0087313e-08
3.6551604e-06
-3.7471883e-08
4.4053966e-06
-3.4410347e-08
5.3114294e-06
-3.0820602e-08
6.405884e-06
-2.6591741e-08
7.7280455e-06
-2.1596008e-08
9.3257646e-06
-1.5671047e-08
1.1256411e-05
-8.5891359e-09
1.3590137e-05
1.6409609e-05
-5.2730561e-12
1.8880938e-10
-2.3300081e-11
6.3843205e-10
-5.8244753e-11
1.2257554e-09
-1.1535534e-10
1.9832752e-09
-2.0121631e-10
2.9498688e-09
-3.2404712e-10
4.171667e-09
-4.9404998e-10
5.7028817e-09
-7.2380609e-10
7.6065122e-09
-1.0287185e-09
9.9548196e-09
-1.427468e-09
1.2829431e-08
-1.9424602e-09
1.6320914e-08
-2.6001924e-09
2.0527672e-08
-3.4314334e-09
2.5554045e-08
-4.4710949e-09
3.1507624e-08
-5.7575605e-09
3.8496006e-08
-7.3312525e-09
4.6623545e-08
-9.2321739e-09
5.5989164e-08
-1.149615e-08
6.6686803e-08
-1.4149706e-08
7.881068e-08
-1.7203688e-08
9.2467752e-08
-2.0646185e-08
1.0779961e-07
-2.4435748e-08
1.2501506e-07
-2.8496359e-08
1.4443276e-07
-3.2715888e-08
1.6653119e-07
-3.6949682e-08
1.9200073e-07
-4.1030383e-08
2.2179131e-07
-4.4783932e-08
2.5714957e-07
-4.8050254e-08
2.9964162e-07
-5.0705388e-08
3.5116203e-07
-5.2680047e-08
4.1393619e-07
-5.3969022e-08
4.9052926e-07
-5.4627259e-08
5.8388022e-07
-5.4752048e-08
6.9737928e-07
-5.4456451e-08
8.3499974e-07
-5.3842563e-08
1.0014832e-06
-5.2983528e-08
1.2025661e-06
-5.191742e-08
1.4452335e-06
-5.0651344e-08
1.7379966e-06
-4.9169685e-08
2.0912043e-06
-4.7440959e-08
2.517408e-06
-4.5422427e-08
3.0318116e-06
-4.3059831e-08
3.6527979e-06
-4.0290353e-08
4.4026272e-06
-3.7033832e-08
5.3081729e-06
-3.3197525e-08
6.4020477e-06
-2.8664882e-08
7.7235129e-06
-2.3291633e-08
9.3203914e-06
-1.6908575e-08
1.1250028e-05
-9.2648685e-09
1.3582494e-05
1.6400345e-05
-4.9969118e-12
1.938062e-10
-2.2088381e-11
6.5552342e-10
-5.523602e-11
1.2589027e-09
-1.0943967e-10
2.0374791e-09
-1.9098387e-10
3.0314133e-09
-3.0772803e-10
4.2884112e-09
-4.6944984e-10
5.8646036e-09
-6.8824314e-10
7.8253052e-09
-9.7896124e-10
1.0245537e-08
-1.3596951e-09
1.3210166e-08
-1.8522604e-09
1.6813478e-08
-2.4826174e-09
2.115803e-08
-3.2811752e-09
2.6352601e-08
-4.2827895e-09
3.2509241e-08
-5.5263448e-09
3.9739562e-08
-7.0535923e-09
4.8150793e-08
-8.9070315e-09
5.7842604e-08
-1.1126537e-08
6.8906309e-08
-1.3744537e-08
8.1428681e-08
-1.6779802e-08
9.5503016e-08
-2.0230197e-08
1.1125001e-07
-2.4065303e-08
1.2885017e-07
-2.822023e-08
1.4858769e-07
-3.2592391e-08
1.7090335e-07
-3.7042957e-08
1.964513e-07
-4.1404526e-08
2.2615287e-07
-4.5495261e-08
2.612403e-07
-4.9138802e-08
3.0328516e-07
-5.2187246e-08
3.5421048e-07
-5.4542684e-08
4.1629163e-07
-5.617166e-08
4.9215825e-07
-5.710726e-08
5.8481582e-07
-5.7435996e-08
6.9770801e-07
-5.727267e-08
8.3483642e-07
-5.6730911e-08
1.0009415e-06
-5.589942e-08
1.2017346e-06
-5.4830476e-08
1.4441646e-06
-5.3540628e-08
1.7367067e-06
-5.2018253e-08
2.0896819e-06
-5.0231812e-08
2.5156216e-06
-4.813594e-08
3.0297157e-06
-4.5672252e-08
3.6503342e-06
-4.2771573e-08
4.3997265e-06
-3.9348321e-08
5.3047497e-06
-3.5299629e-08
6.397999e-06
-3.0503025e-08
7.7187163e-06
-2.4799363e-08
9.3146877e-06
-1.8011218e-08
1.124324e-05
-9.8685607e-09
1.3574351e-05
1.6390476e-05
-4.7495946e-12
1.9855587e-10
-2.1002829e-11
6.7177649e-10
-5.2537525e-11
1.2904375e-09
-1.0412953e-10
2.0890705e-09
-1.8178596e-10
3.10907e-09
-2.9303479e-10
4.39966e-09
-4.4725778e-10
6.0188264e-09
-6.5608495e-10
8.0341321e-09
-9.3383941e-10
1.0523292e-08
-1.2980273e-09
1.3574354e-08
-1.7698418e-09
1.7285293e-08
-2.3746399e-09
2.1762828e-08
-3.1423102e-09
2.7120272e-08
-4.1074197e-09
3.3474349e-08
-5.3089391e-09
4.0941083e-08
-6.7893637e-09
4.9631218e-08
-8.5928904e-09
5.9646129e-08
-1.0762395e-08
7.1075815e-08
-1.3334991e-08
8.4001272e-08
-1.6336027e-08
9.8504053e-08
-1.977192e-08
1.146859e-07
-2.3622399e-08
1.3270065e-07
-2.7833488e-08
1.5279878e-07
-3.2312887e-08
1.7538275e-07
-3.6929596e-08
2.0106801e-07
-4.1519353e-08
2.3074264e-07
-4.5896867e-08
2.6561781e-07
-4.987428e-08
3.0726257e-07
-5.3284092e-08
3.5762028e-07
-5.6002587e-08
4.1901012e-07
-5.7968355e-08
4.9412401e-07
-5.9189864e-08
5.8603733e-07
-5.9738087e-08
6.9825622e-07
-5.9724226e-08
8.3482257e-07
-5.9269443e-08
1.0004867e-06
-5.8476459e-08
1.2009416e-06
-5.7412173e-08
1.4431003e-06
-5.6104129e-08
1.7353987e-06
-5.4546534e-08
2.0881243e-06
-5.2709205e-08
2.5137843e-06
-5.0544918e-08
3.0275514e-06
-4.7992016e-08
3.6477813e-06
-4.4975713e-08
4.3967102e-06
-4.1405691e-08
5.3011797e-06
-3.7169962e-08
6.3937633e-06
-3.2140058e-08
7.7136864e-06
-2.6144038e-08
9.3086918e-06
-1.8995141e-08
1.1236091e-05
-1.040773e-08
1.3565764e-05
1.6380068e-05
-4.5303838e-12
2.0308634e-10
-2.0038872e-11
6.8728486e-10
-5.0138867e-11
1.3205376e-09
-9.9402253e-11
2.1383336e-09
-1.7358702e-10
3.1832548e-09
-2.799165e-10
4.5059892e-09
-4.2740739e-10
6.1663169e-09
-6.2725637e-10
8.2339817e-09
-8.9328712e-10
1.0789323e-08
-1.242439e-09
1.3923504e-08
-1.6952857e-09
1.773814e-08
-2.276552e-09
2.2344094e-08
-3.0155356e-09
2.7859255e-08
-3.9463468e-09
3.440516e-08
-5.1077966e-09
4.2102533e-08
-6.5427112e-09
5.1066133e-08
-8.2963952e-09
6.1399813e-08
-1.0413945e-08
7.3193366e-08
-1.2936144e-08
8.6523472e-08
-1.5893799e-08
1.0146171e-07
-1.930068e-08
1.1809278e-07
-2.3145625e-08
1.3654559e-07
-2.7384959e-08
1.5703811e-07
-3.1936769e-08
1.7993456e-07
-3.6678921e-08
2.0581016e-07
-4.1452514e-08
2.3551624e-07
-4.6072075e-08
2.7023737e-07
-5.0342324e-08
3.1153281e-07
-5.4080356e-08
3.6135833e-07
-5.7140033e-08
4.2206983e-07
-5.9433481e-08
4.9641745e-07
-6.0943512e-08
5.8754735e-07
-6.1721903e-08
6.9903463e-07
-6.1871628e-08
8.3497228e-07
-6.151708e-08
1.0001322e-06
-6.0772641e-08
1.2001972e-06
-5.9719671e-08
1.4420474e-06
-5.8397888e-08
1.7340769e-06
-5.6808986e-08
2.0865354e-06
-5.4925471e-08
2.5119008e-06
-5.2699241e-08
3.0253252e-06
-5.0066183e-08
3.6451483e-06
-4.6946452e-08
4.3935905e-06
-4.3245419e-08
5.2974786e-06
-3.8843087e-08
6.389361e-06
-3.3604845e-08
7.7084482e-06
-2.7348253e-08
9.3024352e-06
-1.9876534e-08
1.1228619e-05
-1.0891296e-08
1.3556779e-05
1.6369177e-05
-4.3343469e-12
2.0742044e-10
-1.9174889e-11
7.0212545e-10
-4.7987392e-11
1.3493498e-09
-9.5158192e-11
2.1855042e-09
-1.6621811e-10
3.2543147e-09
-2.6811212e-10
4.6078832e-09
-4.0952132e-10
6.3077259e-09
-6.012417e-10
8.4257025e-09
-8.56626e-10
1.1044708e-08
-1.1920748e-09
1.4258953e-08
-1.6275654e-09
1.817363e-08
-2.1871845e-09
2.2903713e-08
-2.8996049e-09
2.8571675e-08
-3.7983986e-09
3.5303953e-08
-4.9220456e-09
4.322618e-08
-6.3134251e-09
5.2457514e-08
-8.0185317e-09
6.3104919e-08
-1.0084076e-08
7.5258912e-08
-1.2553734e-08
8.8993132e-08
-1.5462799e-08
1.0437077e-07
-1.8831328e-08
1.2146131e-07
-2.2656274e-08
1.4037053e-07
-2.6903468e-08
1.612853e-07
-3.1501082e-08
1.8453218e-07
-3.6336294e-08
2.1064536e-07
-4.1256981e-08
2.4043693e-07
-4.6079908e-08
2.7506029e-07
-5.0605692e-08
3.1605859e-07
-5.46399e-08
3.6539253e-07
-5.8017438e-08
4.2544736e-07
-6.0626098e-08
4.9902612e-07
-6.2423205e-08
5.8934444e-07
-6.3439102e-08
7.0005054e-07
-6.3764455e-08
8.3529763e-07
-6.3522718e-08
9.9989044e-07
-6.2837033e-08
1.1995115e-06
-6.1802263e-08
1.4410126e-06
-6.0471033e-08
1.7327457e-06
-5.8853859e-08
2.0849182e-06
-5.6927401e-08
2.5099744e-06
-5.4643749e-08
3.0230416e-06
-5.1936948e-08
3.6424415e-06
-4.872283e-08
4.3903764e-06
-4.4902819e-08
5.2936586e-06
-4.0350138e-08
6.3848083e-06
-3.4923925e-08
7.703022e-06
-2.8433033e-08
9.2959443e-06
-2.0670487e-08
1.1220857e-05
-1.1327303e-08
1.3547435e-05
1.635785e-05
-4.1575021e-12
2.1157791e-10
-1.8397022e-11
7.1636481e-10
-4.6048361e-11
1.3770015e-09
-9.1331614e-11
2.230787e-09
-1.5956933e-10
3.3225523e-09
-2.5745247e-10
4.7057659e-09
-3.9335173e-10
6.4436254e-09
-5.7769397e-10
8.6100449e-09
-8.2339302e-10
1.1290407e-08
-1.1463404e-09
1.4581901e-08
-1.565941e-09
1.8593231e-08
-2.1056614e-09
2.3443433e-08
-2.7935369e-09
2.9259551e-08
-3.6625538e-09
3.617297e-08
-4.750757e-09
4.431438e-08
-6.1008869e-09
5.3807644e-08
-7.759312e-09
6.4763345e-08
-9.7739087e-09
7.727351e-08
-1.2190618e-08
9.1409841e-08
-1.5048426e-08
1.0722858e-07
-1.8372775e-08
1.2478567e-07
-2.2167754e-08
1.4416551e-07
-2.6407887e-08
1.6552543e-07
-3.1030923e-08
1.8915521e-07
-3.5933398e-08
2.1554784e-07
-4.0970804e-08
2.4547434e-07
-4.5963883e-08
2.8005338e-07
-5.0711835e-08
3.2080655e-07
-5.5011911e-08
3.6969261e-07
-5.8683459e-08
4.2911891e-07
-6.1592608e-08
5.0193528e-07
-6.3672099e-08
5.9142393e-07
-6.4929696e-08
7.0130814e-07
-6.5440624e-08
8.3580855e-07
-6.5323545e-08
9.9977337e-07
-6.4707079e-08
1.1988951e-06
-6.3698103e-08
1.4400037e-06
-6.2362297e-08
1.7314099e-06
-6.0720166e-08
2.0832761e-06
-5.8753755e-08
2.5080079e-06
-5.6416288e-08
3.0207041e-06
-5.3640592e-08
3.6396658e-06
-5.0339215e-08
4.3870751e-06
-4.6409558e-08
5.2897289e-06
-4.1719369e-08
6.3801182e-06
-3.612151e-08
7.6974242e-06
-2.9417658e-08
9.2892405e-06
-2.1390748e-08
1.121283e-05
-1.1722788e-08
1.3537768e-05
1.6346127e-05
-3.9975135e-12
2.1557546e-10
-1.7692105e-11
7.3005944e-10
-4.4291999e-11
1.4036008e-09
-8.7861912e-11
2.274357e-09
-1.5353649e-10
3.3882266e-09
-2.4777104e-10
4.8000013e-09
-3.7865478e-10
6.5745089e-09
-5.5626983e-10
8.7876592e-09
-7.9311965e-10
1.1527257e-08
-1.1046213e-09
1.4893402e-08
-1.5096323e-09
1.8998242e-08
-2.0310209e-09
2.3964822e-08
-2.6961954e-09
2.9924723e-08
-3.5375282e-09
3.7014303e-08
-4.5925634e-09
4.5369415e-08
-5.9037723e-09
5.5118855e-08
-7.5176724e-09
6.6377247e-08
-9.4829552e-09
7.9238793e-08
-1.1847327e-08
9.3774214e-08
-1.4652831e-08
1.1003408e-07
-1.7929499e-08
1.2806233e-07
-2.1687705e-08
1.4792372e-07
-2.5909843e-08
1.6974757e-07
-3.0542652e-08
1.9378802e-07
-3.5491824e-08
2.2049702e-07
-4.0620883e-08
2.506034e-07
-4.5755784e-08
2.8518828e-07
-5.0696307e-08
3.2574708e-07
-5.5234176e-08
3.7423048e-07
-5.9176224e-08
4.3306097e-07
-6.2369687e-08
5.0512874e-07
-6.4724255e-08
5.9377848e-07
-6.6224788e-08
7.0280868e-07
-6.6928876e-08
8.3651264e-07
-6.6946999e-08
9.9979147e-07
-6.6410012e-08
1.1983581e-06
-6.543482e-08
1.4390285e-06
-6.4099855e-08
1.7300749e-06
-6.243628e-08
2.0816125e-06
-6.0432739e-08
2.5060044e-06
-5.8044681e-08
3.0183161e-06
-5.5204362e-08
3.6368255e-06
-5.1821573e-08
4.3836923e-06
-4.7790067e-08
5.2856975e-06
-4.2972996e-08
6.3753011e-06
-3.7217084e-08
7.6916683e-06
-3.0317939e-08
9.2823414e-06
-2.2048804e-08
1.1204561e-05
-1.2083945e-08
1.3527803e-05
1.6334043e-05
-3.8520324e-12
2.1942752e-10
-1.7050762e-11
7.4325815e-10
-4.2691369e-11
1.4292417e-09
-8.4699846e-11
2.3163655e-09
-1.4803557e-10
3.4515624e-09
-2.3894029e-10
4.8909062e-09
-3.6523864e-10
6.700807e-09
-5.3669387e-10
8.9591148e-09
-7.6543159e-10
1.1755995e-08
-1.0664186e-09
1.5194389e-08
-1.4580004e-09
1.9389824e-08
-1.9624672e-09
2.4469289e-08
-2.6066133e-09
3.0568868e-08
-3.4221962e-09
3.7829888e-08
-4.4462174e-09
4.6393436e-08
-5.72079e-09
5.6393426e-08
-7.2924067e-09
6.7948866e-08
-9.210308e-09
8.1156692e-08
-1.1523577e-08
9.6087483e-08
-1.4276762e-08
1.1278727e-07
-1.7503839e-08
1.3128941e-07
-2.1220711e-08
1.5164059e-07
-2.5416875e-08
1.7394374e-07
-3.0047404e-08
1.9841855e-07
-3.5026833e-08
2.2547645e-07
-4.0226845e-08
2.5580342e-07
-4.5479414e-08
2.9044084e-07
-5.0586468e-08
3.3085414e-07
-5.533643e-08
3.7898045e-07
-5.9526394e-08
4.3725095e-07
-6.2987317e-08
5.0858966e-07
-6.5607708e-08
5.9639889e-07
-6.7349968e-08
7.0455094e-07
-6.8252574e-08
8.3741526e-07
-6.841494e-08
9.9995386e-07
-6.7967137e-08
1.1979102e-06
-6.7033785e-08
1.4380951e-06
-6.5705328e-08
1.7287464e-06
-6.4024086e-08
2.0799313e-06
-6.198631e-08
2.5039667e-06
-5.9550618e-08
3.0158804e-06
-5.6649319e-08
3.6339242e-06
-5.3190126e-08
4.3802331e-06
-4.9063407e-08
5.2815708e-06
-4.4128385e-08
6.3703661e-06
-3.8225887e-08
7.6857658e-06
-3.1146393e-08
9.2752619e-06
-2.2653989e-08
1.1196068e-05
-1.2415846e-08
1.3517565e-05
1.6321627e-05
-3.7191415e-12
2.2314657e-10
-1.646425e-11
7.5600331e-10
-4.1228157e-11
1.4540055e-09
-8.1806964e-11
2.3569445e-09
-1.4300008e-10
3.5127556e-09
-2.3085105e-10
4.978757e-09
-3.5294112e-10
6.8228964e-09
-5.1873852e-10
9.1249117e-09
-7.4001329e-10
1.1977269e-08
-1.031312e-09
1.5485688e-08
-1.4104939e-09
1.9769007e-08
-1.8993022e-09
2.4958097e-08
-2.5239323e-09
3.1193498e-08
-3.3155381e-09
3.8621492e-08
-4.3105488e-09
4.7388446e-08
-5.5506533e-09
5.7633532e-08
-7.0822112e-09
6.9480421e-08
-8.954786e-09
8.3029267e-08
-1.1218531e-08
9.8351228e-08
-1.3920069e-08
1.154888e-07
-1.7096745e-08
1.3446609e-07
-2.0769334e-08
1.5531318e-07
-2.4933733e-08
1.7810814e-07
-2.9552722e-08
2.0303753e-07
-3.4549237e-08
2.3047297e-07
-3.9803111e-08
2.6105728e-07
-4.5152794e-08
2.9579052e-07
-5.0403544e-08
3.3610489e-07
-5.5342349e-08
3.8391926e-07
-5.9758866e-08
4.4166748e-07
-6.3470286e-08
5.1230107e-07
-6.634602e-08
5.9927463e-07
-6.8326811e-08
7.0653173e-07
-6.9431303e-08
8.3851976e-07
-6.9745616e-08
1.0002682e-06
-6.9396022e-08
1.1975606e-06
-6.8512577e-08
1.4372117e-06
-6.7196554e-08
1.7274304e-06
-6.5501702e-08
2.0782365e-06
-6.3432622e-08
2.5018976e-06
-6.0952061e-08
3.0133998e-06
-5.7992974e-08
3.6309651e-06
-5.4461761e-08
4.3767019e-06
-5.0245456e-08
5.2773545e-06
-4.5200111e-08
6.3653208e-06
-3.9160854e-08
7.6797266e-06
-3.19137e-08
9.2680147e-06
-2.3214107e-08
1.1187369e-05
-1.2722833e-08
1.3507073e-05
1.6308904e-05
-3.5968665e-12
2.2674352e-10
-1.5925395e-11
7.6833186e-10
-3.9882835e-11
1.4779632e-09
-7.9146865e-11
2.396209e-09
-1.3836915e-10
3.5719777e-09
-2.2340837e-10
5.0637965e-09
-3.4162027e-10
6.9411084e-09
-5.0219865e-10
9.2854902e-09
-7.1658166e-10
1.2191653e-08
-9.9892414e-10
1.576803e-08
-1.366624e-09
2.0136708e-08
-1.8409027e-09
2.5432376e-08
-2.4473808e-09
3.1799977e-08
-3.2166124e-09
3.9390725e-08
-4.1844571e-09
4.8356291e-08
-5.3921384e-09
5.8841212e-08
-6.8857732e-09
7.0974056e-08
-8.7151038e-09
8.4858599e-08
-1.0931095e-08
1.0056722e-07
-1.3582081e-08
1.1813979e-07
-1.6708286e-08
1.375923e-07
-2.0334786e-08
1.5893968e-07
-2.4463242e-08
1.822366e-07
-2.9063546e-08
2.0763783e-07
-3.4066606e-08
2.3547602e-07
-3.9360171e-08
2.6635085e-07
-4.4789493e-08
3.0121985e-07
-5.0163993e-08
3.414794e-07
-5.527068e-08
3.8902595e-07
-5.9893812e-08
4.4629061e-07
-6.3839074e-08
5.1624633e-07
-6.6958852e-08
6.0239441e-07
-6.9173391e-08
7.0874628e-07
-7.0481355e-08
8.3982771e-07
-7.0953836e-08
1.0007407e-06
-7.0710745e-08
1.1973176e-06
-6.9885173e-08
1.4363861e-06
-6.8587763e-08
1.726133e-06
-6.6883623e-08
2.0765323e-06
-6.4786252e-08
2.4998002e-06
-6.226352e-08
3.0108771e-06
-5.924968e-08
3.6279513e-06
-5.5650208e-08
4.3731024e-06
-5.1349382e-08
5.2730537e-06
-4.6200194e-08
6.3601716e-06
-4.0032704e-08
7.6735591e-06
-3.2628657e-08
9.2606107e-06
-2.3735699e-08
1.1178476e-05
-1.3008491e-08
1.3496346e-05
1.6295896e-05
-3.4843249e-12
2.3022791e-10
-1.5428777e-11
7.8027622e-10
-3.8642833e-11
1.5011774e-09
-7.6694351e-11
2.4342605e-09
-1.3409627e-10
3.6293797e-09
-2.1653856e-10
5.1462384e-09
-3.3116509e-10
7.0557353e-09
-4.8691434e-10
9.4412396e-09
-6.9491561e-10
1.2399653e-08
-9.6895224e-10
1.6042067e-08
-1.3259912e-09
2.0493746e-08
-1.7867523e-09
2.5893139e-08
-2.3763106e-09
3.2389535e-08
-3.1246341e-09
4.0139049e-08
-4.0670067e-09
4.9298663e-08
-5.2441554e-09
6.0018362e-08
-6.7019018e-09
7.2431803e-08
-8.4900328e-09
8.6646732e-08
-1.0660112e-08
1.027373e-07
-1.3261894e-08
1.2074157e-07
-1.6338085e-08
1.4066849e-07
-1.9917543e-08
1.6251913e-07
-2.400714e-08
1.863262e-07
-2.8583288e-08
2.1221398e-07
-3.3584376e-08
2.404771e-07
-3.8905896e-08
2.7167237e-07
-4.439998e-08
3.0671394e-07
-4.9880818e-08
3.4696023e-07
-5.5136582e-08
3.9428172e-07
-5.9947849e-08
4.5110186e-07
-6.4110833e-08
5.204093e-07
-6.7462881e-08
6.0574645e-07
-6.9905188e-08
7.1118859e-07
-7.1416595e-08
8.413391e-07
-7.2052047e-08
1.0013761e-06
-7.1922894e-08
1.1971884e-06
-7.116277e-08
1.435626e-06
-6.9890344e-08
1.7248606e-06
-6.8181373e-08
2.0748234e-06
-6.6058917e-08
2.4976778e-06
-6.349663e-08
3.0083148e-06
-6.043082e-08
3.6248855e-06
-5.6766524e-08
4.3694381e-06
-5.2385617e-08
5.2686728e-06
-4.7138327e-08
6.3549243e-06
-4.0849957e-08
7.6672707e-06
-3.3298431e-08
9.2530592e-06
-2.4224016e-08
1.1169401e-05
-1.3275747e-08
1.3485398e-05
1.628262e-05
-3.380182e-12
2.3360815e-10
-1.4969268e-11
7.9186501e-10
-3.7494705e-11
1.5237031e-09
-7.4422584e-11
2.4711883e-09
-1.3013813e-10
3.6850951e-09
-2.1017174e-10
5.226272e-09
-3.2147282e-10
7.1670364e-09
-4.7273868e-10
9.592506e-09
-6.748089e-10
1.2601723e-08
-9.4112009e-10
1.6308377e-08
-1.2882283e-09
2.0840854e-08
-1.7363855e-09
2.6341296e-08
-2.3101337e-09
3.2963283e-08
-3.0388745e-09
4.0867791e-08
-3.9573252e-09
5.0217114e-08
-5.1057053e-09
6.1166741e-08
-6.5294784e-09
7.3855576e-08
-8.2783836e-09
8.8395635e-08
-1.0404419e-08
1.0486333e-07
-1.2958488e-08
1.2329564e-07
-1.5985456e-08
1.4369546e-07
-1.9517515e-08
1.6605119e-07
-2.3566236e-08
1.9037492e-07
-2.8114034e-08
2.1676178e-07