/*--------------------------------*- C++ -*----------------------------------*\
| =========                 |                                                 |
| \\      /  F ield         | OpenFOAM: The Open Source CFD Toolbox           |
|  \\    /   O peration     | Version:  4.0                                   |
|   \\  /    A nd           | Web:      www.OpenFOAM.org                      |
|    \\/     M anipulation  |                                                 |
\*---------------------------------------------------------------------------*/
FoamFile
{
    version     2.0;
    format      ascii;
    class       volScalarField;
    location    "2000";
    object      rho;
}
// * * * * * * * * * * * * * * * * * * * * * * * * * * * * * * * * * * * * * //

dimensions      [1 -3 0 0 0 0 0];

internalField   nonuniform List<scalar> 
5000
(
1.1559399
1.158523
1.1612669
1.1641549
1.1671637
1.1702621
1.1734122
1.1765696
1.1796851
1.1827073
1.1855852
1.1882715
1.190726
1.1929179
1.1948283
1.1964508
1.1977916
1.1988677
1.1997048
1.2003348
1.2007922
1.2011118
1.2013259
1.201463
1.2015465
1.2015948
1.2016211
1.2016346
1.2016411
1.2016439
1.2016451
1.2016455
1.2016457
1.2016457
1.2016457
1.2016457
1.2016457
1.2016457
1.2016457
1.2016457
1.2016457
1.2016457
1.2016457
1.2016457
1.2016457
1.2016457
1.2016457
1.2016457
1.2016457
1.2016457
1.1449185
1.1472033
1.1496477
1.1522524
1.1550144
1.157927
1.160978
1.1641495
1.1674166
1.1707473
1.1741026
1.177437
1.1807
1.1838384
1.1867995
1.189534
1.192
1.1941662
1.1960147
1.1975425
1.1987614
1.1996968
1.2003848
1.2008677
1.2011898
1.201393
1.2015137
1.2015809
1.2016156
1.2016323
1.2016397
1.2016426
1.2016437
1.2016441
1.2016442
1.2016442
1.2016442
1.2016442
1.2016442
1.2016442
1.2016442
1.2016442
1.2016442
1.2016442
1.2016442
1.2016442
1.2016442
1.2016442
1.2016442
1.2016442
1.1393153
1.1414461
1.1437287
1.1461671
1.1487636
1.1515183
1.1544281
1.157486
1.16068
1.1639921
1.1673974
1.1708632
1.1743489
1.1778062
1.1811807
1.1844142
1.1874481
1.190228
1.1927082
1.1948564
1.1966568
1.1981118
1.1992418
1.2000816
1.2006765
1.2010762
1.2013298
1.2014808
1.2015647
1.2016079
1.2016285
1.2016374
1.2016409
1.2016422
1.2016426
1.2016427
1.2016427
1.2016427
1.2016427
1.2016427
1.2016427
1.2016427
1.2016427
1.2016427
1.2016427
1.2016427
1.2016427
1.2016427
1.2016427
1.2016427
1.1359758
1.1380148
1.1401994
1.1425344
1.1450234
1.1476685
1.1504695
1.1534234
1.1565236
1.1597589
1.1631125
1.1665609
1.1700731
1.1736103
1.1771254
1.1805647
1.1838696
1.18698
1.1898387
1.1923969
1.1946184
1.1964843
1.1979945
1.1991679
1.2000396
1.2006558
1.2010682
1.2013282
1.2014816
1.2015657
1.2016084
1.2016282
1.2016365
1.2016397
1.2016408
1.2016411
1.2016412
1.2016412
1.2016412
1.2016412
1.2016412
1.2016412
1.2016412
1.2016412
1.2016412
1.2016412
1.2016412
1.2016412
1.2016412
1.2016412
1.1337269
1.1357042
1.1378228
1.1400876
1.1425029
1.1450714
1.1477944
1.1506706
1.153696
1.1568627
1.1601582
1.1635643
1.1670562
1.1706015
1.1741601
1.1776842
1.1811193
1.1844069
1.1874873
1.190305
1.1928129
1.1949781
1.1967846
1.1982361
1.1993545
1.2001773
1.2007525
1.2011324
1.201368
1.2015044
1.2015775
1.2016136
1.2016297
1.2016363
1.2016387
1.2016394
1.2016397
1.2016397
1.2016397
1.2016397
1.2016397
1.2016397
1.2016397
1.2016397
1.2016397
1.2016397
1.2016397
1.2016397
1.2016397
1.2016397
1.1320338
1.1339647
1.1360335
1.1382453
1.1406044
1.1431142
1.1457764
1.1485909
1.1515552
1.1546634
1.1579056
1.1612671
1.1647272
1.1682583
1.1718256
1.1753862
1.1788905
1.1822827
1.1855042
1.1884973
1.1912095
1.193599
1.1956389
1.1973204
1.1986536
1.1996659
1.2003987
1.2009017
1.201227
1.2014241
1.201535
1.2015925
1.2016198
1.2016315
1.2016361
1.2016376
1.2016381
1.2016382
1.2016382
1.2016382
1.2016382
1.2016382
1.2016382
1.2016382
1.2016382
1.2016382
1.2016382
1.2016382
1.2016382
1.2016382
1.1306957
1.13259
1.1346194
1.1367892
1.1391038
1.1415667
1.1441803
1.1469449
1.149859
1.152918
1.1561139
1.1594343
1.1628613
1.1663709
1.1699321
1.1735063
1.1770477
1.1805041
1.1838187
1.1869339
1.1897947
1.1923542
1.194578
1.1964478
1.1979639
1.1991446
1.2000238
1.2006466
1.2010639
1.2013266
1.2014808
1.2015645
1.2016062
1.2016251
1.2016327
1.2016355
1.2016364
1.2016367
1.2016367
1.2016367
1.2016367
1.2016367
1.2016367
1.2016367
1.2016367
1.2016367
1.2016367
1.2016367
1.2016367
1.2016367
1.1295919
1.1314559
1.1334529
1.135588
1.1378658
1.1402899
1.1428629
1.1455857
1.1484573
1.1514742
1.1546296
1.1579128
1.1613081
1.1647941
1.1683429
1.1719194
1.175481
1.1789786
1.1823579
1.185562
1.1885351
1.1912273
1.1935988
1.1956246
1.197297
1.1986262
1.1996392
1.2003757
1.2008839
1.2012144
1.2014157
1.2015294
1.2015885
1.2016165
1.2016285
1.2016331
1.2016346
1.2016351
1.2016352
1.2016352
1.2016352
1.2016352
1.2016352
1.2016352
1.2016352
1.2016352
1.2016352
1.2016352
1.2016352
1.2016352
1.1286572
1.1304956
1.1324652
1.134571
1.1368176
1.1392087
1.1417471
1.1444341
1.1472691
1.1502494
1.1533692
1.1566189
1.1599847
1.1634472
1.1669809
1.1705534
1.1741252
1.1776499
1.1810753
1.184346
1.1874061
1.1902039
1.1926961
1.1948525
1.1966589
1.1981189
1.199253
1.2000957
1.2006916
1.2010903
1.2013408
1.2014874
1.2015666
1.2016057
1.2016232
1.2016302
1.2016327
1.2016335
1.2016337
1.2016337
1.2016337
1.2016337
1.2016337
1.2016337
1.2016337
1.2016337
1.2016337
1.2016337
1.2016337
1.2016337
1.1278487
1.129665
1.1316109
1.1336913
1.1359108
1.1382734
1.1407818
1.1434376
1.1462406
1.1491887
1.1522767
1.1554962
1.1588347
1.1622745
1.165792
1.1693572
1.172933
1.1764755
1.1799348
1.1832567
1.1863858
1.1892695
1.191862
1.194129
1.1960515
1.1976271
1.1988705
1.1998116
1.2004912
1.2009569
1.2012575
1.2014389
1.2015404
1.2015924
1.2016167
1.2016268
1.2016306
1.2016318
1.2016321
1.2016322
1.2016322
1.2016322
1.2016322
1.2016322
1.2016322
1.2016322
1.2016322
1.2016322
1.2016322
1.2016322
1.1271381
1.1289351
1.1308601
1.1329182
1.135114
1.1374514
1.1399333
1.1425616
1.1453362
1.1482556
1.1513151
1.1545072
1.1578205
1.1612386
1.1647398
1.1682958
1.1718717
1.1754259
1.1789103
1.1822723
1.1854572
1.1884119
1.191089
1.193451
1.1954746
1.1971528
1.1984952
1.1995271
1.2002858
1.2008164
1.2011672
1.2013847
1.2015101
1.2015766
1.2016087
1.2016227
1.2016282
1.20163
1.2016306
1.2016307
1.2016307
1.2016307
1.2016307
1.2016307
1.2016307
1.2016307
1.2016307
1.2016307
1.2016307
1.2016307
1.1265055
1.1282852
1.1301917
1.13223
1.1344046
1.1367196
1.1391779
1.1417815
1.1445308
1.1474242
1.1504579
1.1536251
1.156915
1.1603127
1.1637976
1.1673434
1.1709169
1.1744784
1.1779817
1.1813757
1.1846065
1.1876209
1.19037
1.1928144
1.194927
1.1966968
1.1981291
1.1992448
1.2000778
1.200671
1.2010712
1.2013254
1.2014759
1.2015582
1.2015994
1.201618
1.2016255
1.2016281
1.201629
1.2016292
1.2016292
1.2016292
1.2016292
1.2016292
1.2016292
1.2016292
1.2016292
1.2016292
1.2016292
1.2016292
1.1259363
1.1277005
1.1295903
1.1316107
1.1337664
1.1360612
1.1384982
1.1410795
1.1438058
1.1466758
1.149686
1.1528302
1.1560985
1.1594768
1.162946
1.166481
1.1700504
1.1736162
1.1771338
1.1805536
1.1838226
1.1868875
1.189699
1.1922154
1.194407
1.1962591
1.1977731
1.1989663
1.1998691
1.2005221
1.2009708
1.2012617
1.2014382
1.2015374
1.2015885
1.2016124
1.2016224
1.2016261
1.2016273
1.2016276
1.2016277
1.2016277
1.2016277
1.2016277
1.2016277
1.2016277
1.2016277
1.2016277
1.2016277
1.2016277
1.1254196
1.1271698
1.1290444
1.1310487
1.133187
1.1354635
1.1378812
1.1404423
1.1431476
1.1459961
1.1489847
1.1521077
1.1553559
1.158716
1.1621699
1.165694
1.1692581
1.1728259
1.1763544
1.1797952
1.1830963
1.1862048
1.1890705
1.1916506
1.1939127
1.1958392
1.1974279
1.1986927
1.1996612
1.2003711
1.2008668
1.2011942
1.2013972
1.2015141
1.2015761
1.201606
1.201619
1.2016239
1.2016256
1.2016261
1.2016262
1.2016262
1.2016262
1.2016262
1.2016262
1.2016262
1.2016262
1.2016262
1.2016262
1.2016262
1.1249471
1.1266844
1.1285452
1.1305347
1.1326572
1.1349169
1.1373169
1.1398595
1.1425455
1.1453743
1.148343
1.1514463
1.1546757
1.1580186
1.1614579
1.1649709
1.1685291
1.1720972
1.1756339
1.1790919
1.1824203
1.1855665
1.18848
1.1911166
1.1934422
1.1954362
1.1970936
1.1984249
1.1994549
1.2002191
1.2007603
1.2011237
1.2013533
1.2014887
1.2015623
1.2015988
1.2016151
1.2016216
1.2016238
1.2016245
1.2016247
1.2016247
1.2016247
1.2016247
1.2016247
1.2016247
1.2016247
1.2016247
1.2016247
1.2016247
1.1245122
1.1262376
1.1280858
1.1300616
1.1321696
1.1344139
1.1367976
1.139323
1.1419913
1.1448018
1.147752
1.1508371
1.1540488
1.1573754
1.1608006
1.1643028
1.1678544
1.1714217
1.1749644
1.1784368
1.1817885
1.1849675
1.1879233
1.1906106
1.1929936
1.1950493
1.1967699
1.1981631
1.199251
1.2000669
1.2006519
1.2010506
1.201307
1.2014611
1.2015469
1.2015906
1.2016107
1.201619
1.201622
1.2016229
1.2016232
1.2016232
1.2016232
1.2016232
1.2016232
1.2016232
1.2016232
1.2016232
1.2016232
1.2016232
1.1241097
1.1258242
1.1276606
1.1296238
1.1317184
1.1339483
1.1363169
1.1388265
1.1414782
1.1442718
1.1472048
1.1502727
1.1534679
1.1567791
1.1601908
1.1636822
1.167227
1.1707925
1.1743397
1.1778238
1.1811957
1.1844037
1.1873972
1.1901302
1.1925653
1.1946776
1.1964567
1.1979076
1.19905
1.199915
1.2005423
1.2009755
1.2012584
1.2014317
1.2015302
1.2015816
1.2016059
1.2016162
1.20162
1.2016213
1.2016216
1.2016217
1.2016217
1.2016217
1.2016217
1.2016217
1.2016217
1.2016217
1.2016217
1.2016217
1.1237353
1.1254396
1.1272651
1.1292166
1.1312987
1.1335154
1.1358699
1.1383647
1.1410011
1.1437787
1.1466957
1.1497476
1.1529271
1.1562237
1.1596224
1.1631033
1.1666411
1.170204
1.1737543
1.1772484
1.1806377
1.1838713
1.1868986
1.1896729
1.1921557
1.1943201
1.1961535
1.1976584
1.1988522
1.199764
1.200432
1.2008988
1.201208
1.2014005
1.2015121
1.2015717
1.2016006
1.2016132
1.201618
1.2016196
1.2016201
1.2016202
1.2016202
1.2016202
1.2016202
1.2016202
1.2016202
1.2016202
1.2016202
1.2016202
1.1233856
1.1250804
1.1268957
1.1288363
1.1309067
1.1331109
1.1354524
1.1379334
1.1405553
1.1433182
1.14622
1.1492567
1.1524216
1.1557042
1.1590905
1.1625612
1.1660917
1.1696516
1.173204
1.1767062
1.1801108
1.1833672
1.1864249
1.1892368
1.1917634
1.1939759
1.1958599
1.1974155
1.1986578
1.1996143
1.2003213
1.2008208
1.2011559
1.2013678
1.2014928
1.2015609
1.2015947
1.2016098
1.2016158
1.2016179
1.2016185
1.2016187
1.2016187
1.2016187
1.2016187
1.2016187
1.2016187
1.2016187
1.2016187
1.2016187
1.1230577
1.1247436
1.1265493
1.1284797
1.1305391
1.1327318
1.1350609
1.1375289
1.1401374
1.1428862
1.1457738
1.1487963
1.1519471
1.1552166
1.1585909
1.1620516
1.1655749
1.1691313
1.1726849
1.176194
1.1796118
1.1828886
1.1859739
1.1888202
1.191387
1.1936443
1.1955754
1.1971787
1.1984671
1.199466
1.2002107
1.2007419
1.2011025
1.2013336
1.2014723
1.2015493
1.2015883
1.2016063
1.2016136
1.2016162
1.201617
1.2016172
1.2016172
1.2016172
1.2016173
1.2016173
1.2016173
1.2016173
1.2016173
1.2016173
1.1227492
1.1244267
1.1262234
1.1281442
1.1301934
1.132375
1.1346925
1.1371484
1.1397441
1.1424798
1.1453539
1.1483629
1.1515005
1.1547573
1.1581201
1.1615711
1.1650873
1.1686398
1.1721939
1.1757087
1.1791382
1.1824333
1.1855436
1.1884215
1.1910255
1.1933244
1.1952998
1.196948
1.1982799
1.1993195
1.2001003
1.2006624
1.201048
1.2012983
1.2014507
1.2015368
1.2015814
1.2016024
1.2016111
1.2016144
1.2016154
1.2016157
1.2016157
1.2016157
1.2016158
1.2016158
1.2016158
1.2016158
1.2016158
1.2016158
1.122458
1.1241277
1.1259159
1.1278275
1.129867
1.1320384
1.1343449
1.1367893
1.139373
1.1420962
1.1449576
1.1479537
1.1510787
1.1543234
1.1576752
1.1611167
1.1646257
1.1681743
1.1717282
1.1752477
1.1786876
1.1819991
1.1851322
1.1880392
1.1906778
1.1930155
1.1950324
1.196723
1.1980964
1.1991748
1.1999905
1.2005825
1.2009925
1.2012618
1.2014281
1.2015236
1.201574
1.2015982
1.2016086
1.2016125
1.2016138
1.2016141
1.2016142
1.2016143
1.2016143
1.2016143
1.2016143
1.2016143
1.2016143
1.2016143
1.1221825
1.1238447
1.1256249
1.1275279
1.1295582
1.1317198
1.134016
1.1364495
1.1390217
1.1417331
1.1445824
1.1475664
1.1506793
1.1539125
1.1572536
1.1606859
1.1641879
1.1677322
1.1712855
1.1748089
1.1782579
1.1815842
1.1847383
1.1876721
1.1903428
1.1927169
1.1947729
1.1965037
1.1979165
1.1990321
1.1998813
1.2005023
1.2009363
1.2012244
1.2014045
1.2015096
1.2015661
1.2015937
1.2016059
1.2016106
1.2016122
1.2016126
1.2016127
1.2016127
1.2016128
1.2016128
1.2016128
1.2016128
1.2016128
1.2016128
1.121921
1.1235761
1.1253487
1.1272436
1.1292652
1.1314175
1.1337039
1.136127
1.1386885
1.1413886
1.1442264
1.1471987
1.1503002
1.1535223
1.1568531
1.1602766
1.1637715
1.1673114
1.1708638
1.1743903
1.1778473
1.1811872
1.1843605
1.1873191
1.1900198
1.192428
1.1945209
1.1962898
1.1977402
1.1988913
1.1997729
1.2004221
1.2008795
1.2011861
1.2013801
1.2014949
1.2015576
1.2015889
1.201603
1.2016086
1.2016105
1.2016111
1.2016112
1.2016112
1.2016113
1.2016113
1.2016113
1.2016113
1.2016113
1.2016113
1.1216724
1.1233208
1.1250861
1.1269733
1.1289866
1.1311301
1.1334071
1.1358204
1.1383715
1.141061
1.1438878
1.146849
1.1499394
1.1531509
1.1564719
1.1598866
1.1633747
1.1669101
1.1704612
1.1739903
1.1774544
1.1808065
1.1839975
1.1869793
1.189708
1.1921482
1.194276
1.196081
1.1975674
1.1987527
1.1996655
1.2003419
1.2008222
1.2011472
1.201355
1.2014796
1.2015487
1.2015838
1.2015999
1.2016065
1.2016088
1.2016095
1.2016097
1.2016097
1.2016098
1.2016098
1.2016098
1.2016098
1.2016098
1.2016098
1.1214354
1.1230774
1.1248359
1.1267156
1.1287211
1.1308561
1.1331243
1.1355282
1.1380695
1.1407488
1.1435651
1.1465157
1.1495955
1.1527968
1.1561082
1.1595146
1.1629958
1.1665267
1.1700762
1.1736073
1.1770777
1.180441
1.1836484
1.1866516
1.1894066
1.1918771
1.1940379
1.1958773
1.197398
1.1986161
1.199559
1.2002619
1.2007646
1.2011076
1.2013292
1.2014636
1.2015393
1.2015784
1.2015967
1.2016043
1.2016071
1.201608
1.2016082
1.2016082
1.2016083
1.2016083
1.2016083
1.2016083
1.2016083
1.2016083
1.1212091
1.122845
1.1245969
1.1264696
1.1284675
1.1305946
1.1328543
1.1352492
1.1377811
1.1404506
1.1432569
1.1461973
1.149267
1.1524584
1.1557607
1.1591588
1.1626334
1.1661597
1.1697073
1.17324
1.1767161
1.1800896
1.183312
1.1863353
1.1891149
1.191614
1.1938061
1.1956784
1.197232
1.1984816
1.1994536
1.2001823
1.2007068
1.2010675
1.2013027
1.2014471
1.2015295
1.2015727
1.2015933
1.2016021
1.2016053
1.2016064
1.2016067
1.2016067
1.2016068
1.2016068
1.2016068
1.2016068
1.2016068
1.2016068
1.1209927
1.1226227
1.1243683
1.1262343
1.128225
1.1303444
1.1325959
1.1349823
1.1375052
1.1401654
1.142962
1.1458927
1.1489527
1.1521346
1.1554279
1.1588181
1.1622861
1.1658078
1.1693534
1.1728872
1.1763683
1.1797511
1.1829876
1.1860296
1.1888325
1.1913585
1.1935805
1.1954841
1.1970691
1.1983492
1.1993492
1.2001029
1.2006488
1.2010269
1.2012757
1.20143
1.2015192
1.2015667
1.2015898
1.2015997
1.2016035
1.2016048
1.2016052
1.2016052
1.2016053
1.2016053
1.2016053
1.2016053
1.2016053
1.2016053
1.1207852
1.1224097
1.1241493
1.1260088
1.1279926
1.1301047
1.1323484
1.1347265
1.1372408
1.1398921
1.1426795
1.1456008
1.1486514
1.1518242
1.1551088
1.1584913
1.1619528
1.1654699
1.1690132
1.1725479
1.1760334
1.1794248
1.1826743
1.1857339
1.1885587
1.1911103
1.1933606
1.1952942
1.1969095
1.1982188
1.1992461
1.200024
1.2005908
1.200986
1.2012482
1.2014124
1.2015085
1.2015604
1.201586
1.2015973
1.2016017
1.2016032
1.2016036
1.2016037
1.2016038
1.2016038
1.2016038
1.2016038
1.2016038
1.2016038
1.1205862
1.1222052
1.1239391
1.1257924
1.1277696
1.1298746
1.1321109
1.1344811
1.1369872
1.1396298
1.1424083
1.1453206
1.1483622
1.1515261
1.1548024
1.1581773
1.1616325
1.165145
1.168686
1.1722211
1.1757106
1.1791098
1.1823715
1.1854476
1.188293
1.1908689
1.1931463
1.1951085
1.1967529
1.1980904
1.199144
1.1999456
1.2005327
1.2009447
1.2012202
1.2013944
1.2014974
1.2015539
1.2015821
1.2015948
1.2015998
1.2016016
1.2016021
1.2016022
1.2016023
1.2016023
1.2016023
1.2016023
1.2016023
1.2016023
1.1203949
1.1220088
1.123737
1.1255844
1.1275553
1.1296535
1.1318826
1.1342453
1.1367434
1.1393777
1.1421477
1.1450513
1.1480841
1.1512396
1.1545078
1.1578753
1.1613243
1.1648321
1.1683707
1.171906
1.175399
1.1788055
1.1820784
1.1851701
1.1880351
1.1906341
1.1929372
1.1949269
1.1965992
1.197964
1.1990432
1.1998678
1.2004747
1.2009033
1.2011919
1.2013759
1.201486
1.201547
1.201578
1.2015922
1.2015979
1.2015999
1.2016006
1.2016007
1.2016008
1.2016008
1.2016008
1.2016008
1.2016008
1.2016008
1.1202107
1.1218197
1.1235426
1.1253843
1.127349
1.1294408
1.131663
1.1340183
1.1365087
1.1391351
1.1418969
1.144792
1.1478165
1.1509637
1.154224
1.1575843
1.1610273
1.1645305
1.1680665
1.1716019
1.1750979
1.178511
1.1817946
1.1849008
1.1877843
1.1904053
1.1927331
1.1947492
1.1964484
1.1978396
1.1989435
1.1997904
1.2004168
1.2008616
1.2011632
1.201357
1.2014741
1.2015399
1.2015737
1.2015894
1.2015959
1.2015983
1.201599
1.2015992
1.2015993
1.2015993
1.2015993
1.2015993
1.2015993
1.2015993
1.1200333
1.1216375
1.1233553
1.1251914
1.1271503
1.1292358
1.1314513
1.1337996
1.1362827
1.1389013
1.1416552
1.1445422
1.1475586
1.1506977
1.1539504
1.1573038
1.1607407
1.1642395
1.1677728
1.1713079
1.1748066
1.1782259
1.1815193
1.1846394
1.1875405
1.1901824
1.1925338
1.1945752
1.1963004
1.197717
1.1988449
1.1997137
1.2003591
1.2008198
1.2011342
1.2013378
1.201462
1.2015325
1.2015692
1.2015866
1.2015939
1.2015966
1.2015975
1.2015977
1.2015978
1.2015978
1.2015978
1.2015978
1.2015978
1.2015978
1.1198621
1.1214617
1.1231746
1.1250054
1.1269586
1.129038
1.1312471
1.1335887
1.1360646
1.1386758
1.141422
1.1443012
1.1473097
1.1504411
1.1536864
1.1570329
1.160464
1.1639582
1.1674888
1.1710235
1.1745247
1.1779496
1.1812523
1.1843854
1.1873032
1.1899651
1.1923391
1.1944048
1.196155
1.1975963
1.1987476
1.1996376
1.2003015
1.2007779
1.2011049
1.2013183
1.2014495
1.2015248
1.2015646
1.2015837
1.2015918
1.2015949
1.2015959
1.2015962
1.2015963
1.2015963
1.2015963
1.2015963
1.2015963
1.2015963
1.1196968
1.1212919
1.123
1.1248257
1.1267734
1.128847
1.1310499
1.1333849
1.135854
1.138458
1.1411968
1.1440684
1.1470693
1.1501932
1.1534312
1.1567711
1.1601965
1.1636862
1.167214
1.1707482
1.1742514
1.1776816
1.1809929
1.1841383
1.187072
1.189753
1.1921488
1.1942379
1.1960123
1.1974775
1.1986514
1.1995621
1.2002442
1.2007359
1.2010754
1.2012984
1.2014367
1.2015169
1.2015598
1.2015806
1.2015897
1.2015932
1.2015943
1.2015947
1.2015948
1.2015948
1.2015948
1.2015948
1.2015948
1.2015948
1.119537
1.1211278
1.1228313
1.124652
1.1265944
1.1286624
1.1308593
1.1331879
1.1356503
1.1382474
1.140979
1.1438434
1.1468368
1.1499534
1.1531844
1.1565179
1.1599376
1.1634228
1.1669478
1.1704813
1.1739863
1.1774213
1.1807409
1.1838979
1.1868467
1.189546
1.1919626
1.1940743
1.1958721
1.1973604
1.1985563
1.1994872
1.2001871
1.2006939
1.2010457
1.2012783
1.2014237
1.2015088
1.2015548
1.2015775
1.2015875
1.2015914
1.2015928
1.2015932
1.2015932
1.2015933
1.2015933
1.2015933
1.2015933
1.2015933
1.1193823
1.1209689
1.1226679
1.1244839
1.1264212
1.1284837
1.1306748
1.1329973
1.1354533
1.1380437
1.1407683
1.1436255
1.1466118
1.1497213
1.1529455
1.1562726
1.1596868
1.1631676
1.1666898
1.1702224
1.173729
1.1771685
1.1804957
1.1836638
1.1866271
1.1893438
1.1917804
1.1939139
1.1957342
1.197245
1.1984624
1.199413
1.2001303
1.2006519
1.2010158
1.2012579
1.2014104
1.2015004
1.2015497
1.2015742
1.2015853
1.2015897
1.2015912
1.2015916
1.2015917
1.2015918
1.2015918
1.2015918
1.2015918
1.2015918
1.1192325
1.1208151
1.1225097
1.1243211
1.1262534
1.1283106
1.1304961
1.1328127
1.1352624
1.1378463
1.1405642
1.1434145
1.1463938
1.1494964
1.152714
1.1560349
1.1594436
1.1629201
1.1664394
1.169971
1.1734791
1.1769226
1.1802571
1.1834357
1.1864127
1.1891462
1.1916021
1.1937565
1.1955988
1.1971314
1.1983697
1.1993394
1.2000738
1.20061
1.2009858
1.2012373
1.2013968
1.2014918
1.2015443
1.2015709
1.201583
1.2015879
1.2015896
1.2015901
1.2015902
1.2015903
1.2015903
1.2015903
1.2015903
1.2015903
1.1190872
1.1206659
1.1223564
1.1241632
1.1260907
1.1281428
1.1303229
1.1326337
1.1350774
1.137655
1.1403663
1.1432099
1.1461824
1.1492783
1.1524894
1.1558043
1.1592077
1.1626799
1.1661963
1.1697268
1.173236
1.1766834
1.1800247
1.1832133
1.1862034
1.188953
1.1914274
1.1936022
1.1954656
1.1970194
1.198278
1.1992665
1.2000176
1.200568
1.2009556
1.2012165
1.2013831
1.2014831
1.2015389
1.2015674
1.2015806
1.201586
1.201588
1.2015886
1.2015887
1.2015888
1.2015888
1.2015888
1.2015888
1.2015888
1.1189462
1.1205211
1.1222076
1.12401
1.1259329
1.12798
1.1301548
1.1324601
1.1348979
1.1374693
1.1401743
1.1430114
1.1459773
1.1490667
1.1522715
1.1555804
1.1589786
1.1624465
1.16596
1.1694894
1.1729996
1.1764505
1.1797982
1.1829963
1.185999
1.188764
1.1912563
1.1934506
1.1953346
1.196909
1.1981874
1.1991942
1.1999617
1.2005262
1.2009254
1.2011955
1.2013691
1.2014741
1.2015333
1.2015639
1.2015782
1.2015842
1.2015864
1.201587
1.2015872
1.2015873
1.2015873
1.2015873
1.2015873
1.2015873
1.1188093
1.1203806
1.122063
1.1238613
1.1257796
1.1278219
1.1299916
1.1322914
1.1347235
1.137289
1.1399878
1.1428186
1.1457781
1.1488611
1.1520598
1.1553629
1.1587559
1.1622197
1.1657302
1.1692583
1.1727694
1.1762236
1.1795773
1.1827844
1.1857991
1.1885791
1.1910885
1.1933018
1.1952057
1.1968001
1.1980979
1.1991226
1.1999061
1.2004844
1.2008951
1.2011743
1.2013549
1.2014649
1.2015275
1.2015602
1.2015757
1.2015823
1.2015847
1.2015855
1.2015857
1.2015858
1.2015858
1.2015858
1.2015858
1.2015858
1.1186763
1.120244
1.1219226
1.1237167
1.1256307
1.1276683
1.129833
1.1321276
1.1345541
1.1371138
1.1398066
1.1426312
1.1455845
1.1486613
1.1518539
1.1551515
1.1585394
1.161999
1.1655066
1.1690334
1.1725451
1.1760023
1.1793618
1.1825775
1.1856038
1.1883979
1.190924
1.1931557
1.1950789
1.1966928
1.1980094
1.1990517
1.1998509
1.2004427
1.2008647
1.201153
1.2013405
1.2014556
1.2015216
1.2015564
1.2015732
1.2015804
1.2015831
1.201584
1.2015842
1.2015843
1.2015843
1.2015843
1.2015843
1.2015843
1.1185469
1.1201111
1.121786
1.1235762
1.1254858
1.1275189
1.1296787
1.1319682
1.1343894
1.1369434
1.1396304
1.142449
1.1453962
1.148467
1.1516537
1.1549457
1.1583287
1.1617842
1.1652889
1.1688143
1.1723265
1.1757865
1.1791514
1.1823753
1.1854126
1.1882205
1.1907627
1.1930121
1.1949541
1.196587
1.1979219
1.1989814
1.199796
1.2004012
1.2008343
1.2011316
1.2013259
1.2014461
1.2015155
1.2015526
1.2015706
1.2015784
1.2015814
1.2015824
1.2015827
1.2015828
1.2015828
1.2015828
1.2015828
1.2015828
1.118421
1.1199818
1.1216531
1.1234394
1.1253449
1.1273735
1.1295286
1.1318131
1.134229
1.1367776
1.1394589
1.1422717
1.145213
1.1482779
1.1514588
1.1547454
1.1581235
1.161575
1.1650767
1.1686006
1.1721132
1.1755759
1.1789458
1.1821776
1.1852255
1.1880467
1.1906043
1.192871
1.1948312
1.1964826
1.1978355
1.1989118
1.1997414
1.2003598
1.2008039
1.20111
1.2013112
1.2014364
1.2015093
1.2015486
1.2015679
1.2015764
1.2015798
1.2015809
1.2015812
1.2015813
1.2015813
1.2015813
1.2015813
1.2015813
1.1182984
1.1198559
1.1215237
1.1233061
1.1252076
1.1272319
1.1293825
1.1316621
1.1340729
1.1366162
1.1392919
1.142099
1.1450345
1.1480936
1.151269
1.1545502
1.1579236
1.161371
1.1648699
1.1683923
1.1719051
1.1753702
1.178745
1.1819842
1.1850423
1.1878762
1.1904489
1.1927323
1.1947102
1.1963796
1.1977501
1.1988427
1.1996873
1.2003185
1.2007735
1.2010883
1.2012964
1.2014265
1.201503
1.2015446
1.2015652
1.2015744
1.2015781
1.2015793
1.2015797
1.2015798
1.2015798
1.2015798
1.2015798
1.2015798
1.1181789
1.1197332
1.1213975
1.1231763
1.1250738
1.1270939
1.12924
1.131515
1.1339208
1.1364589
1.1391292
1.1419307
1.1448606
1.1479141
1.151084
1.15436
1.1577287
1.1611721
1.1646681
1.1681889
1.1717019
1.1751692
1.1785486
1.181795
1.1848629
1.1877091
1.1902962
1.1925958
1.194591
1.196278
1.1976656
1.1987744
1.1996334
1.2002774
1.2007431
1.2010666
1.2012814
1.2014166
1.2014965
1.2015404
1.2015624
1.2015724
1.2015764
1.2015777
1.2015782
1.2015783
1.2015783
1.2015783
1.2015783
1.2015783
1.1180624
1.1196136
1.1212746
1.1230498
1.1249434
1.1269594
1.1291012
1.1313715
1.1337725
1.1363055
1.1389706
1.1417667
1.1446911
1.1477391
1.1509035
1.1541745
1.1575385
1.1609781
1.1644711
1.1679904
1.1715034
1.1749728
1.1783565
1.1816097
1.184687
1.1875451
1.1901463
1.1924616
1.1944736
1.1961777
1.1975821
1.1987066
1.19958
1.2002364
1.2007126
1.2010448
1.2012662
1.2014065
1.2014899
1.2015361
1.2015596
1.2015703
1.2015746
1.2015762
1.2015766
1.2015768
1.2015768
1.2015768
1.2015768
1.2015768
1.1179487
1.1194969
1.1211546
1.1229263
1.1248162
1.1268282
1.1289658
1.1312316
1.1336279
1.1361559
1.1388158
1.1416066
1.1445257
1.1475683
1.1507275
1.1539934
1.1573529
1.1607886
1.1642787
1.1677964
1.1713094
1.1747807
1.1781685
1.1814282
1.1845146
1.1873842
1.189999
1.1923296
1.1943579
1.1960787
1.1974995
1.1986395
1.1995269
1.2001956
1.2006823
1.2010229
1.201251
1.2013962
1.2014833
1.2015318
1.2015567
1.2015682
1.2015729
1.2015746
1.2015751
1.2015752
1.2015753
1.2015753
1.2015753
1.2015753
1.1178378
1.119383
1.1210375
1.1228058
1.1246921
1.1267002
1.1288336
1.131095
1.1334867
1.1360099
1.1386648
1.1414504
1.1443642
1.1474015
1.1505556
1.1538167
1.1571717
1.1606036
1.1640908
1.1676068
1.1711197
1.1745927
1.1779844
1.1812504
1.1843455
1.1872261
1.1898541
1.1921996
1.1942439
1.195981
1.1974178
1.198573
1.1994742
1.200155
1.2006519
1.2010009
1.2012356
1.2013858
1.2014764
1.2015274
1.2015537
1.201566
1.2015711
1.201573
1.2015736
1.2015737
1.2015738
1.2015738
1.2015738
1.2015738
1.1177294
1.1192718
1.1209232
1.1226881
1.1245708
1.1265751
1.1287045
1.1309616
1.1333488
1.1358673
1.1385173
1.1412979
1.1442065
1.1472387
1.1503877
1.153644
1.1569946
1.1604227
1.1639071
1.1674214
1.1709341
1.1744087
1.1778041
1.1810762
1.1841796
1.187071
1.1897118
1.1920717
1.1941315
1.1958845
1.197337
1.1985071
1.1994218
1.2001146
1.2006216
1.2009789
1.2012202
1.2013754
1.2014695
1.2015229
1.2015507
1.2015638
1.2015694
1.2015714
1.2015721
1.2015722
1.2015723
1.2015723
1.2015723
1.2015723
1.1176236
1.1191631
1.1208114
1.1225731
1.1244524
1.126453
1.1285783
1.1308313
1.1332141
1.135728
1.1383732
1.1411489
1.1440524
1.1470796
1.1502237
1.1534752
1.1568215
1.1602459
1.1637274
1.16724
1.1707525
1.1742285
1.1776275
1.1809053
1.1840168
1.1869185
1.1895717
1.1919457
1.1940206
1.1957892
1.1972572
1.1984417
1.1993698
1.2000743
1.2005913
1.2009568
1.2012047
1.2013648
1.2014625
1.2015182
1.2015476
1.2015616
1.2015676
1.2015698
1.2015705
1.2015707
1.2015708
1.2015708
1.2015708
1.2015708
1.1175201
1.1190568
1.1207022
1.1224607
1.1243366
1.1263335
1.1284551
1.130704
1.1330824
1.1355918
1.1382323
1.1410032
1.1439018
1.1469241
1.1500633
1.1533102
1.1566522
1.160073
1.1635516
1.1670625
1.1705746
1.174052
1.1774543
1.1807376
1.1838569
1.1867687
1.189434
1.1918216
1.1939113
1.1956951
1.1971781
1.198377
1.1993182
1.2000342
1.2005611
1.2009348
1.201189
1.2013541
1.2014554
1.2015136
1.2015444
1.2015593
1.2015658
1.2015682
1.201569
1.2015692
1.2015693
1.2015693
1.2015693
1.2015693
1.1174189
1.1189529
1.1205954
1.1223508
1.1242233
1.1262168
1.1283345
1.1305794
1.1329537
1.1354586
1.1380946
1.1408607
1.1437545
1.1467719
1.1499064
1.1531488
1.1564866
1.1599037
1.1633796
1.1668886
1.1704004
1.1738791
1.1772845
1.1805731
1.1837
1.1866215
1.1892984
1.1916994
1.1938035
1.1956022
1.1970999
1.1983129
1.1992669
1.1999944
1.200531
1.2009127
1.2011734
1.2013433
1.2014481
1.2015088
1.2015412
1.201557
1.2015639
1.2015666
1.2015675
1.2015677
1.2015678
1.2015678
1.2015678
1.2015678
1.1173199
1.1188513
1.1204909
1.1222433
1.1241125
1.1261025
1.1282166
1.1304576
1.1328277
1.1353283
1.1379598
1.1407213
1.1436104
1.1466231
1.1497529
1.1529908
1.1563245
1.1597381
1.1632111
1.1667184
1.1702296
1.1737095
1.1771179
1.1804116
1.1835458
1.1864767
1.189165
1.1915789
1.1936971
1.1955104
1.1970225
1.1982493
1.199216
1.1999547
1.2005009
1.2008906
1.2011576
1.2013324
1.2014408
1.2015039
1.201538
1.2015547
1.2015621
1.201565
1.2015659
1.2015662
1.2015663
1.2015663
1.2015663
1.2015663
1.1172229
1.1187518
1.1203886
1.122138
1.1240041
1.1259906
1.1281011
1.1303383
1.1327044
1.1352008
1.1378279
1.1405849
1.1434694
1.1464774
1.1496026
1.1528361
1.1561658
1.1595758
1.163046
1.1665515
1.1700623
1.1735432
1.1769545
1.1802531
1.1833942
1.1863342
1.1890336
1.1914602
1.1935921
1.1954196
1.196946
1.1981863
1.1991654
1.1999152
1.2004709
1.2008684
1.2011418
1.2013214
1.2014334
1.201499
1.2015346
1.2015523
1.2015602
1.2015633
1.2015644
1.2015647
1.2015648
1.2015648
1.2015648
1.2015648
1.117128
1.1186543
1.1202885
1.1220349
1.1238979
1.1258811
1.1279881
1.1302215
1.1325837
1.135076
1.1376987
1.1404513
1.1433313
1.1463347
1.1494554
1.1526846
1.1560103
1.1594168
1.1628843
1.166388
1.1698982
1.17338
1.176794
1.1800973
1.1832453
1.1861941
1.1889043
1.1913432
1.1934885
1.19533
1.1968702
1.1981238
1.1991152
1.1998759
1.200441
1.2008463
1.2011259
1.2013104
1.2014259
1.201494
1.2015313
1.2015499
1.2015583
1.2015617
1.2015628
1.2015632
1.2015633
1.2015633
1.2015633
1.2015633
1.1170351
1.1185589
1.1201904
1.121934
1.1237939
1.1257739
1.1278773
1.1301071
1.1324654
1.1349537
1.1375722
1.1403204
1.1431959
1.1461949
1.1493112
1.1525362
1.1558579
1.159261
1.1627257
1.1662276
1.1697372
1.1732199
1.1766365
1.1799443
1.1830988
1.1860563
1.1887769
1.1912278
1.1933862
1.1952413
1.1967952
1.1980619
1.1990654
1.1998368
1.2004111
1.2008242
1.20111
1.2012992
1.2014184
1.2014889
1.2015278
1.2015475
1.2015564
1.20156
1.2015613
1.2015617
1.2015618
1.2015618
1.2015618
1.2015618
1.1169439
1.1184653
1.1200942
1.121835
1.1236919
1.1256687
1.1277688
1.129995
1.1323495
1.1348338
1.1374482
1.1401921
1.1430633
1.1460579
1.1491699
1.1523907
1.1557086
1.1591083
1.1625702
1.1660703
1.1695792
1.1730627
1.1764818
1.1797939
1.1829547
1.1859206
1.1886513
1.1911139
1.1932852
1.1951537
1.196721
1.1980005
1.1990159
1.1997979
1.2003814
1.200802
1.201094
1.201288
1.2014107
1.2014838
1.2015243
1.201545
1.2015545
1.2015584
1.2015597
1.2015602
1.2015603
1.2015603
1.2015603
1.2015603
1.1168546
1.1183736
1.1199999
1.121738
1.123592
1.1255657
1.1276625
1.1298851
1.132236
1.1347163
1.1373267
1.1400664
1.1429334
1.1459237
1.1490314
1.1522481
1.1555621
1.1589584
1.1624177
1.1659159
1.1694242
1.1729083
1.1763297
1.179646
1.182813
1.1857869
1.1885276
1.1910017
1.1931854
1.1950671
1.1966475
1.1979396
1.1989667
1.1997592
1.2003517
1.2007799
1.201078
1.2012768
1.201403
1.2014786
1.2015208
1.2015425
1.2015525
1.2015567