/*--------------------------------*- C++ -*----------------------------------*\
| =========                 |                                                 |
| \\      /  F ield         | OpenFOAM: The Open Source CFD Toolbox           |
|  \\    /   O peration     | Version:  4.0                                   |
|   \\  /    A nd           | Web:      www.OpenFOAM.org                      |
|    \\/     M anipulation  |                                                 |
\*---------------------------------------------------------------------------*/
FoamFile
{
    version     2.0;
    format      ascii;
    class       surfaceScalarField;
    location    "2000";
    object      snGradRho;
}
// * * * * * * * * * * * * * * * * * * * * * * * * * * * * * * * * * * * * * //

dimensions      [1 -4 0 0 0 0 0];

internalField   nonuniform List<scalar> 
9850
(
26.146928
-0.73475858
25.246752
-0.75464995
24.156246
-0.77460908
22.876075
-0.79350393
21.415043
-0.80994818
19.79115
-0.82234109
18.032003
-0.82894514
16.174348
-0.82800418
14.26256
-0.81789916
12.346069
-0.79733006
10.475916
-0.76550425
8.7008074
-0.72230384
7.0632052
-0.66840151
5.5960397
-0.60529632
4.3205376
-0.53525037
3.2454604
-0.46112189
2.3677767
-0.38610846
1.6745279
-0.31343172
1.1454744
-0.24600823
0.75604003
-0.18615707
0.48011875
-0.13539172
0.29242628
-0.094330446
0.17021703
-0.062737839
0.094319005
-0.039683744
0.049537631
-0.023781502
0.024546341
-0.013452085
0.011417768
-0.0071602189
0.0049591084
-0.0035828619
0.0019998739
-0.0016938818
0.00074438551
-0.00077260593
0.00025415064
-0.00036004605
7.9083035e-05
-0.00019146862
2.2279214e-05
-0.00012902706
5.6443771e-06
-0.00010820433
1.2769022e-06
-0.00010199773
2.5535307e-07
-0.00010035781
4.4039284e-08
-9.9978598e-05
5.102011e-09
-9.9905472e-05
-1.9147016e-09
-9.9896052e-05
-3.7100649e-09
-9.9897233e-05
-3.6058193e-09
-9.9899176e-05
-3.5572984e-09
-9.9900759e-05
-3.0485462e-09
-9.9901886e-05
-2.7751636e-09
-9.9902675e-05
-2.1504128e-09
-9.9903209e-05
-1.834031e-09
-9.9903595e-05
-1.2467746e-09
-9.9903848e-05
-9.432261e-10
-9.9904069e-05
-6.9423826e-10
-9.9904184e-05
-9.9904724e-05
23.126771
-0.37355188
22.492008
-0.38381142
21.785649
-0.39460239
21.000636
-0.40568738
20.130238
-0.41672459
19.168779
-0.42724987
18.112612
-0.43666446
16.961262
-0.44423394
15.718626
-0.44910478
14.39403
-0.45034488
13.002925
-0.44701204
11.566989
-0.43825012
10.113478
-0.42340566
8.6737992
-0.40215037
7.2813797
-0.37458793
5.9690907
-0.34132128
4.7665207
-0.30345877
3.6974518
-0.26254728
2.777854
-0.22043377
2.0146658
-0.17907251
1.4055466
-0.14030741
0.93968364
-0.10566609
0.59957672
-0.07620116
0.36354283
-0.052406459
0.2085069
-0.034221639
0.11256996
-0.02112105
0.056912876
-0.012264555
0.026797096
-0.0066744026
0.011681715
-0.0033982081
0.0046856754
-0.0016260146
0.001718127
-0.00074678703
0.00057202049
-0.00034935642
0.00017170966
-0.00018679772
4.6133525e-05
-0.00012705254
1.100193e-05
-0.00010746034
2.2996213e-06
-0.00010176688
4.0239073e-07
-0.00010030943
4.7061221e-08
-9.9980926e-05
-6.6971697e-09
-9.9915137e-05
-1.0862037e-08
-9.9902761e-05
-8.9033401e-09
-9.990015e-05
-6.9840991e-09
-9.9899364e-05
-5.2301844e-09
-9.9899125e-05
-4.1185572e-09
-9.9899147e-05
-3.0310159e-09
-9.9899319e-05
-2.3612335e-09
-9.9899557e-05
-1.6640247e-09
-9.9899797e-05
-1.1405362e-09
-9.9900038e-05
-1.5357784e-09
-9.9900205e-05
-9.990081e-05
21.56904
-0.22263321
21.002648
-0.22875395
20.394897
-0.23528431
19.74186
-0.24217549
19.039055
-0.24934235
18.28154
-0.2566516
17.464156
-0.26390832
16.581952
-0.2708422
15.63084
-0.27709557
14.608495
-0.28221689
13.515454
-0.2856641
12.356322
-0.28682362
11.140881
-0.28504956
9.8848692
-0.27972607
8.6101175
-0.27035042
7.343824
-0.25662833
6.1168318
-0.23856566
4.9609939
-0.21653549
3.9059404
-0.19129922
2.9757691
-0.16396618
2.1862835
-0.13588853
1.5433499
-0.10850418
1.0427295
-0.083154572
0.67141054
-0.060913319
0.41012437
-0.042460863
0.23647292
-0.028030818
0.12800575
-0.017436975
0.064672296
-0.0101704
0.030305991
-0.0055390273
0.013085161
-0.0028129241
0.0051695323
-0.001340751
0.0018553206
-0.00061644384
0.00060045983
-0.00029413034
0.00017394453
-0.00016536515
4.476525e-05
-0.00011952686
1.0156393e-05
-0.00010509481
2.0122319e-06
-0.00010110562
3.4013136e-07
-0.00010014473
4.3421964e-08
-9.9944588e-05
-1.2498391e-09
-9.9908952e-05
-6.2759049e-09
-9.9903665e-05
-6.2551497e-09
-9.9903086e-05
-5.290317e-09
-9.9903095e-05
-4.552587e-09
-9.9903173e-05
-3.5742681e-09
-9.990326e-05
-2.8594082e-09
-9.9903378e-05
-2.1189829e-09
-9.9903486e-05
-1.4281033e-09
-9.9903625e-05
-2.4801087e-09
-9.9903779e-05
-9.9904208e-05
20.639713
-0.1499238
20.101332
-0.15403998
19.530312
-0.15844466
18.924491
-0.16312137
18.281286
-0.16803727
17.597661
-0.17313736
16.870151
-0.17833737
16.094979
-0.18351544
15.268307
-0.18850301
14.38667
-0.19307605
13.447628
-0.19694825
12.450654
-0.19976911
11.398199
-0.20113062
10.296827
-0.20058658
9.1582055
-0.19768817
7.9996537
-0.19203682
6.8439522
-0.18335122
5.718164
-0.17153938
4.6514215
-0.15676088
3.6718983
-0.1394617
2.8034646
-0.12036541
2.0627031
-0.10041317
1.4569508
-0.080656772
0.98380932
-0.062122627
0.6322021
-0.04567362
0.38468148
-0.031898254
0.22041856
-0.021050968
0.11821434
-0.013055719
0.058955062
-0.0075693934
0.027149206
-0.0040862893
0.011459631
-0.0020544325
0.0043997858
-0.00097338168
0.0015245194
-0.00045283615
0.00047297359
-0.00022778584
0.00013035009
-0.00014112244
3.1661238e-05
-0.00011163113
6.7210389e-06
-0.00010283021
1.2317129e-06
-0.00010054332
1.8773038e-07
-0.00010002893
1.8213724e-08
-9.9928924e-05
-4.340883e-09
-9.9911806e-05
-6.2818527e-09
-9.9908892e-05
-5.5043628e-09
-9.9908136e-05
-4.7729137e-09
-9.9907748e-05
-3.8438308e-09
-9.9907471e-05
-3.0830196e-09
-9.9907275e-05
-2.3816545e-09
-9.9907129e-05
-1.6931569e-09
-9.9907035e-05
-3.148661e-09
-9.9907053e-05
-9.9907289e-05
20.014742
-0.1128698
19.493402
-0.11596564
18.94356
-0.11928518
18.363841
-0.1228234
17.752546
-0.12656577
17.107607
-0.13048459
16.426561
-0.13453436
15.706579
-0.13864615
14.944586
-0.14272115
14.137498
-0.14662373
13.282622
-0.15017489
12.378258
-0.15314753
11.424496
-0.15526564
10.424181
-0.15621028
9.3839319
-0.15563547
8.3150152
-0.15319647
7.2338101
-0.14859142
6.1615669
-0.14161351
5.1232392
-0.13220663
4.1453527
-0.12051268
3.2531429
-0.10689669
2.4674647
-0.091937558
1.8021309
-0.07637874
1.2622898
-0.061043294
0.84420436
-0.04672741
0.53643573
-0.034093454
0.3220983
-0.023584823
0.18164028
-0.015380764
0.095559582
-0.0094007684
0.046560052
-0.0053564975
0.020847797
-0.0028367693
0.0085091699
-0.0014017397
0.0031395512
-0.00066079799
0.001038328
-0.00031689513
0.00030523913
-0.0001746304
7.9105178e-05
-0.00012262021
1.7927816e-05
-0.00010595405
3.5231964e-06
-0.0001013094
5.9268795e-07
-0.00010019143
8.1229954e-08
-9.9960047e-05
5.4098683e-09
-9.9918585e-05
-3.9825189e-09
-9.9911671e-05
-4.4328238e-09
-9.9910149e-05
-4.0765459e-09
-9.9909435e-05
-3.3947175e-09
-9.9908917e-05
-2.7805969e-09
-9.9908505e-05
-2.204043e-09
-9.9908204e-05
-1.7229631e-09
-9.9907955e-05
-3.5175509e-09
-9.9907894e-05
-9.990805e-05
19.544693
-0.089207868
19.035241
-0.0916518
18.499646
-0.094273942
17.93703
-0.097072799
17.346272
-0.10004075
16.725954
-0.10316164
16.074315
-0.10640768
15.389244
-0.10973557
14.668326
-0.11308199
13.908984
-0.11635827
13.108738
-0.11944512
12.265631
-0.12218768
11.378835
-0.12439259
10.449438
-0.12582876
9.4813505
-0.12623412
8.4822182
-0.12533099
7.4641206
-0.12285166
6.4438038
-0.1185743
5.4421797
-0.11236588
4.4829339
-0.10422542
3.5902879
-0.094317425
2.7862278
-0.08298446
2.0877384
-0.070730765
1.5046567
-0.058174709
1.0386404
-0.045976068
0.68345217
-0.034750928
0.42643358
-0.024990634
0.25077339
-0.01700097
0.1380615
-0.010874168
0.070631659
-0.0065000013
0.033310019
-0.0036135563
0.014358445
-0.0018672704
0.0056075065
-0.00090705746
0.0019664013
-0.00043151821
0.00061366948
-0.00022133892
0.00016894891
-0.00013918371
4.06887e-05
-0.00011103278
8.5034244e-06
-0.00010264743
1.5296775e-06
-0.00010049277
2.3385768e-07
-0.00010001816
2.8545624e-08
-9.9928675e-05
6.4708445e-10
-9.9913854e-05
-2.4566353e-09
-9.9911279e-05
-2.7760939e-09
-9.9910448e-05
-2.4517724e-09
-9.9909918e-05
-2.1551494e-09
-9.9909465e-05
-1.7353041e-09
-9.9909143e-05
-1.6180698e-09
-9.9908845e-05
-3.75972e-09
-9.9908781e-05
-9.9908888e-05
19.173625
-0.073591253
18.673335
-0.075605372
18.148495
-0.07776751
17.59854
-0.080077972
17.022721
-0.082532715
16.420045
-0.085121586
15.789224
-0.087826032
15.128647
-0.090616248
14.436401
-0.093447696
13.710348
-0.096257089
12.948312
-0.098958035
12.148387
-0.10143682
11.309416
-0.10354917
10.431627
-0.10511922
9.5174236
-0.10594242
8.5722389
-0.10579436
7.6052978
-0.10444732
6.6300766
-0.10169531
5.6642024
-0.097386492
4.728583
-0.091459082
3.8457072
-0.083973615
3.0372769
-0.075132949
2.3215825
-0.065281862
1.7111789
-0.054881904
1.2113948
-0.044463089
0.81999934
-0.034560007
0.52804228
-0.025643907
0.3216037
-0.01806333
0.18403034
-0.012004358
0.098206605
-0.0074785552
0.048475283
-0.0043419786
0.021938731
-0.0023417961
0.0090201258
-0.0011787985
0.0033375197
-0.00056811762
0.0011008655
-0.00028135341
0.00032070464
-0.00016209554
8.1780739e-05
-0.00011858492
1.8101809e-05
-0.00010478294
3.4515935e-06
-0.00010100809
5.6328315e-07
-0.00010012437
7.8142828e-08
-9.9948104e-05
8.4811293e-09
-9.9917901e-05
-1.6021712e-10
-9.9913079e-05
-1.4424123e-09
-9.9911982e-05
-1.4175974e-09
-9.9911443e-05
-1.4868984e-09
-9.9910979e-05
-1.1721129e-09
-9.9910664e-05
-1.5087552e-09
-9.9910345e-05
-3.9255934e-09
-9.9910287e-05
-9.9910342e-05
18.867816
-0.0623125
18.374919
-0.064016314
17.858618
-0.065845814
17.31858
-0.067802061
16.754326
-0.069882875
16.165176
-0.072081499
15.550194
-0.07438486
14.908152
-0.076771368
14.237527
-0.079208215
13.536545
-0.081648173
12.803315
-0.084026038
12.036066
-0.086254999
11.233526
-0.088223501
10.395456
-0.089793499
9.5233373
-0.090801391
8.6211479
-0.091063199
7.6961299
-0.090385627
6.7593552
-0.088584088
5.8258664
-0.085507527
4.9141702
-0.08106772
4.0449557
-0.075268241
3.2391022
-0.068226224
2.5152714
-0.06017973
1.8875687
-0.051475704
1.3638027
-0.042537871
0.94473617
-0.033819061
0.62444842
-0.025746312
0.39164983
-0.018668444
0.23159275
-0.012815042
0.12817112
-0.0082739527
0.065845462
-0.0049921371
0.031119876
-0.0028011273
0.013402564
-0.0014624646
0.0052082448
-0.00072145939
0.0018080874
-0.00035368215
0.00055526123
-0.00019170455
0.00014941664
-0.00012903751
3.4917715e-05
-0.00010794391
7.0302042e-06
-0.00010182195
1.2121646e-06
-0.00010030223
1.7921242e-07
-9.9981572e-05
2.3150313e-08
-9.9924048e-05
2.8724056e-09
-9.991496e-05
-8.7669255e-11
-9.9913321e-05
-3.5764668e-10
-9.9912744e-05
-8.3199278e-10
-9.9912273e-05
-5.7079428e-10
-9.9911966e-05
-1.4090202e-09
-9.991164e-05
-4.0111518e-09
-9.9911583e-05
-9.9911606e-05
18.609122
-0.053901218
18.122412
-0.055373772
17.613182
-0.056955272
17.081267
-0.058647173
16.526389
-0.060448406
15.948106
-0.062354317
15.345749
-0.064355293
14.718387
-0.066435002
14.064805
-0.068568214
13.383532
-0.070718207
12.672932
-0.0728338
11.931394
-0.074846253
11.157638
-0.076666392
10.35117
-0.07818265
9.5128801
-0.079260984
8.6457496
-0.079747954
7.7555909
-0.079478351
6.851662
-0.078288521
5.9469577
-0.076035683
5.0579568
-0.072621936
4.2036668
-0.068019588
3.4039557
-0.062292441
2.6773753
-0.055606809
2.0388856
-0.048227209
1.4979848
-0.040494917
1.0576745
-0.032791935
0.71446135
-0.025496611
0.45931944
-0.018938762
0.27931581
-0.013361571
0.15952314
-0.0088959871
0.08487284
-0.0055519129
0.041687788
-0.0032289401
0.018720251
-0.0017462504
0.0076074637
-0.00088572486
0.0027686454
-0.00043652241
0.00089308604
-0.00022792857
0.00025278478
-0.00014268584
6.2189271e-05
-0.00011234457
1.3184358e-05
-0.00010302809
2.3925682e-06
-0.00010058169
3.7170958e-07
-0.00010003635
5.0795589e-08
-9.9933524e-05
7.404086e-09
-9.9916908e-05
1.3625946e-09
-9.9914265e-05
7.1786417e-10
-9.9913611e-05
-1.9387643e-10
-9.9913153e-05
4.469638e-11
-9.9912867e-05
-1.3111402e-09
-9.9912555e-05
-4.0470707e-09
-9.9912507e-05
-9.991252e-05
18.385541
-0.047369542
17.904135
-0.0486626
17.400912
-0.050051503
16.875839
-0.05153788
16.328798
-0.053121332
15.759532
-0.054798579
15.167586
-0.056562333
14.552266
-0.058399866
13.912609
-0.060291216
13.247395
-0.062207023
12.555213
-0.064106036
11.83461
-0.065932423
11.084347
-0.067613182
10.303789
-0.069056146
9.4934295
-0.07014936
8.6555385
-0.070762855
7.794862
-0.070754031
6.9192545
-0.069977728
6.0400641
-0.068301534
5.1720628
-0.065625637
4.3327437
-0.061904855
3.5409284
-0.057168629
2.814813
-0.05153365
2.1697927
-0.045204286
1.6165334
-0.038458323
1.1597365
-0.031619313
0.79786092
-0.025020253
0.52379584
-0.018965206
0.32624537
-0.013695138
0.19146994
-0.009362635
0.10504622
-0.0060188149
0.053392703
-0.0036149986
0.024895653
-0.0020205809
0.010537865
-0.0010551555
0.0040056467
-0.00052754192
0.0013526116
-0.00027029318
0.00040147066
-0.00015966698
0.00010369155
-0.00011816583
2.3091104e-05
-0.00010472286
4.4000518e-06
-0.00010099812
7.1580289e-07
-0.00010012248
1.0133937e-07
-9.99488e-05
1.471345e-08
-9.9919651e-05
3.0055e-09
-9.9915208e-05
1.7651638e-09
-9.9914374e-05
3.9992971e-10
-9.9913927e-05
6.3421897e-10
-9.9913664e-05
-1.2279218e-09
-9.9913378e-05
-4.0675825e-09
-9.9913342e-05
-9.9913353e-05
18.189212
-0.042173883
17.71244
-0.043324232
17.214427
-0.044559969
16.695249
-0.045882793
16.154914
-0.047292738
15.593314
-0.048787458
15.01017
-0.050361296
14.40498
-0.052004084
13.776991
-0.053699635
13.125195
-0.055423915
12.448379
-0.05714291
11.745238
-0.058810282
11.0146
-0.060365042
10.255754
-0.061729617
9.4689253
-0.062808939
8.6558589
-0.063491393
7.8204844
-0.063652669
6.9695457
-0.06316353
6.1130465
-0.061902115
5.2643122
-0.059770533
4.4394875
-0.056714041
3.6563757
-0.052739483
2.9326912
-0.047928469
2.2840014
-0.042440743
1.7217854
-0.036504956
1.2520578
-0.030397157
0.8748661
-0.024410644
0.58472168
-0.018822837
0.37177637
-0.013864821
0.22341431
-0.0096976722
0.12592168
-0.0063980384
0.065979642
-0.0039548278
0.03182385
-0.002278708
0.013979787
-0.001224704
0.0055311807
-0.00062422803
0.0019489741
-0.0003180322
0.000604845
-0.00017996016
0.00016357613
-0.00012554102
3.8174536e-05
-0.00010699795
7.6234423e-06
-0.00010158983
1.2969829e-06
-0.00010025168
1.9001187e-07
-9.9972699e-05
2.6997936e-08
-9.9923789e-05
5.1026781e-09
-9.9916323e-05
2.7876687e-09
-9.9915134e-05
9.4450568e-10
-9.991468e-05
1.17502e-09
-9.9914436e-05
-1.16648e-09
-9.9914178e-05
-4.0837056e-09
-9.9914153e-05
-9.9914162e-05
18.014552
-0.037946196
17.541884
-0.038980475
17.048462
-0.040091604
16.534447
-0.041281293
15.999952
-0.042549858
15.444994
-0.043895613
14.869437
-0.045314084
14.272941
-0.04679699
13.654931
-0.048330955
13.01458
-0.049895942
12.350846
-0.0514634
11.662566
-0.052994207
10.948641
-0.054436574
10.20833
-0.05572421
9.4416667
-0.056775258
8.6500032
-0.057492709
7.8366288
-0.057767185
7.0073923
-0.057483009
6.1711832
-0.056528247
5.3400918
-0.05480871
4.5290651
-0.052264705
3.754942
-0.048887927
3.0348946
-0.044734603
2.3844938
-0.039930727
1.8157842
-0.034666436
1.3358095
-0.029179156
0.94592915
-0.023728257
0.64203996
-0.018566119
0.41556962
-0.013910834
0.25493655
-0.0099243725
0.14713924
-0.0066982548
0.079211568
-0.0042478164
0.039387714
-0.0025163483
0.017897031
-0.0013902571
0.0073469803
-0.00072412522
0.0026932913
-0.0003701904
0.00087152332
-0.00020340301
0.00024618019
-0.00013454871
6.0074834e-05
-0.0001099349
1.2549442e-05
-0.00010239661
2.2305369e-06
-0.00010043736
3.3879581e-07
-0.00010000859
4.7641507e-08
-9.9929933e-05
8.0918425e-09
-9.9917645e-05
3.8261396e-09
-9.9915835e-05
1.4513519e-09
-9.9915343e-05
1.6615369e-09
-9.9915111e-05
-1.1231302e-09
-9.9914882e-05
-4.0977266e-09
-9.9914865e-05
-9.9914875e-05
17.857515
-0.034445025
17.388527
-0.035383219
16.899201
-0.036391177
16.389769
-0.037470588
15.860435
-0.038621954
15.311317
-0.039844068
14.7424
-0.04113334
14.153486
-0.042482914
13.544147
-0.043881563
12.913715
-0.04531232
12.261301
-0.046750861
11.58587
-0.048163678
10.886402
-0.049506189
10.162148
-0.050721012
9.4130102
-0.051736833
8.6400374
-0.05246846
7.8460082
-0.052818833
7.0360382
-0.052683838
6.2180819
-0.051960597
5.4031654
-0.050559382
4.60517
-0.048418327
3.8400337
-0.04551885
3.1243621
-0.041898462
2.4736179
-0.037657175
1.9002332
-0.032954518
1.412068
-0.027996292
1.0115787
-0.023013065
0.69585845
-0.018234633
0.45746401
-0.01386531
0.28575648
-0.010063808
0.16841958
-0.0069295281
0.092880435
-0.00449588
0.047468899
-0.0027312325
0.022242586
-0.0015486859
0.0094458812
-0.00082499464
0.0035924069
-0.00042571766
0.0012089404
-0.00022971635
0.0003558277
-0.00014521036
9.0601291e-05
-0.00011360046
1.9761783e-05
-0.00010345797
3.6653672e-06
-0.00010069453
5.7806324e-07
-0.00010006066
8.1620227e-08
-9.9938988e-05
1.2642495e-08
-9.9919332e-05
4.950834e-09
-9.9916503e-05
1.9336598e-09
-9.9915921e-05
2.0936019e-09
-9.9915692e-05
-1.0942134e-09
-9.991549e-05
-4.1136649e-09
-9.991548e-05
-9.9915493e-05
17.715067
-0.031501172
17.24941
-0.032358606
16.763775
-0.033279836
16.258458
-0.034266512
15.733735
-0.035319258
15.189815
-0.036437222
14.626786
-0.037617489
14.044568
-0.038854309
13.442865
-0.040138132
12.821147
-0.041454406
12.178658
-0.042782146
11.514484
-0.04409231
10.827682
-0.045346072
10.117513
-0.04649322
9.3837875
-0.047470993
8.6273158
-0.048203899
7.8504638
-0.048605155
7.0577378
-0.048580545
6.2562986
-0.04803533
5.4562485
-0.046884474
4.6705176
-0.04506563
3.9142069
-0.042553206
3.2033518
-0.039370684
2.5532336
-0.035597749
1.97654
-0.031369263
1.4817836
-0.026864887
1.0723485
-0.022290708
0.746371
-0.0178565
0.49741462
-0.013753163
0.31569906
-0.01013404
0.1895541
-0.0071019752
0.10681123
-0.0047024187
0.055955226
-0.0029226362
0.026963634
-0.0016977983
0.01181367
-0.00092491538
0.0046490086
-0.00048355288
0.0016230579
-0.00025853563
0.00049664076
-0.000157493
0.00013167352
-0.00011804326
2.9934482e-05
-0.00010481122
5.7865464e-06
-0.00010103923
9.4817227e-07
-0.00010013382
1.3597522e-07
-9.995212e-05
1.9754235e-08
-9.9921626e-05
6.2793327e-09
-9.9917209e-05
2.4096641e-09
-9.991646e-05
2.4748768e-09
-9.9916223e-05
-1.0767566e-09
-9.9916044e-05
-4.1334376e-09
-9.9916039e-05
-9.9916053e-05
17.58488
-0.028994221
17.122262
-0.029782906
16.639984
-0.030630296
16.138394
-0.031537995
15.617832
-0.032506708
15.078585
-0.033535851
14.520831
-0.034623033
13.944592
-0.035763377
13.349687
-0.036948668
12.735708
-0.038166287
12.10202
-0.039397937
11.447817
-0.040618182
10.772233
-0.041792876
10.074551
-0.042877666
9.3545138
-0.043816835
8.6127468
-0.044542955
7.851276
-0.044977909
7.074096
-0.045036001
6.287687
-0.044629769
5.5013432
-0.043678826
4.7271419
-0.042121376
3.9794092
-0.039927061
3.273619
-0.037108706
2.6248215
-0.033729864
2.0458622
-0.029905268
1.5457767
-0.025792755
1.1287407
-0.021577493
0.79380857
-0.01745162
0.53544858
-0.013593475
0.34466515
-0.010150114
0.21039256
-0.0072250674
0.12086151
-0.004871579
0.064745048
-0.0030909442
0.032005586
-0.0018362196
0.014431034
-0.0010223286
0.0058620291
-0.00054268869
0.0021182123
-0.00028944329
0.00067237806
-0.00017131592
0.00018525696
-0.00012329211
4.3819871e-05
-0.00010648977
8.8163721e-06
-0.00010148795
1.5008881e-06
-0.0001002336
2.202994e-07
-9.9970708e-05
3.0858499e-08
-9.9924798e-05
7.9889873e-09
-9.9918002e-05
2.9028267e-09
-9.9916975e-05
2.8124616e-09
-9.9916716e-05
-1.0678885e-09
-9.9916556e-05
-4.1557973e-09
-9.9916554e-05
-9.9916569e-05
17.465132
-0.026835579
17.005306
-0.027565086
16.526102
-0.02834891
16.027914
-0.029188603
15.511138
-0.030084924
14.976128
-0.031037493
14.423141
-0.032044334
13.852289
-0.033101272
13.263493
-0.034201169
12.656452
-0.035332981
12.030642
-0.036480607
11.385354
-0.03762157
10.719798
-0.038725584
10.033284
-0.039753149
9.3255111
-0.040654424
8.5969542
-0.041368762
7.8493587
-0.041825419
7.0862843
-0.041946078
6.313623
-0.041649772
5.539957
-0.040860579
4.7765968
-0.039517891
4.0371505
-0.037588148
3.3365466
-0.035075995
2.6895717
-0.032032024
2.1091536
-0.028554351
1.6047485
-0.024782409
1.1812115
-0.020883377
0.83841154
-0.017033855
0.57163544
-0.013400644
0.37260886
-0.010124251
0.23083095
-0.0073072424
0.13491852
-0.0050077132
0.073749347
-0.0032372617
0.037315057
-0.0019632354
0.017275389
-0.0011160325
0.0072272216
-0.00060221259
0.0026970897
-0.00032199735
0.00088631038
-0.00018655919
0.00025329838
-0.00012935569
6.2232504e-05
-0.00010852179
1.3013876e-05
-0.00010205712
2.3005865e-06
-0.00010036605
3.4725272e-07
-9.9996377e-05
4.7941947e-08
-9.9929177e-05
1.033468e-08
-9.9918933e-05
3.44196e-09
-9.9917471e-05
3.1141552e-09
-9.991717e-05
-1.0650933e-09
-9.9917024e-05
-4.1789886e-09
-9.9917025e-05
-9.991704e-05
17.354369
-0.024958879
16.897123
-0.025636951
16.420752
-0.026365525
15.92569
-0.027146095
15.412383
-0.027979455
14.881243
-0.028865384
14.332596
-0.029802239
13.766636
-0.030786413
13.183373
-0.031811657
12.582603
-0.032868221
11.963902
-0.033941824
11.32665
-0.035012449
10.670129
-0.036053031
9.9936831
-0.037028141
9.296979
-0.037892896
8.5803737
-0.03859241
7.8453762
-0.039062271
7.0951744
-0.039230586
6.3351475
-0.039022193
5.5732463
-0.038365394
4.8200888
-0.037201139
4.0886186
-0.03549378
3.3932375
-0.033241625
2.7484484
-0.030484742
2.1672036
-0.027307384
1.6592962
-0.023833322
1.2301679
-0.020214157
0.88041412
-0.016612769
0.60606759
-0.013185446
0.39952047
-0.010066243
0.25080074
-0.0073558023
0.14889514
-0.0051150623
0.082892161
-0.0033631218
0.042841841
-0.0020786381
0.020322439
-0.0012051536
0.0087378028
-0.00066133054
0.0033607978
-0.00035575517
0.0011411356
-0.00020307322
0.00033766572
-0.00013622351
8.6030144e-05
-0.00011092919
1.8672761e-05
-0.00010276253
3.4251351e-06
-0.00010053767
5.3307806e-07
-0.00010003101
7.3693153e-08
-9.993518e-05
1.3677034e-08
-9.9920078e-05
4.0673153e-09
-9.9917961e-05
3.389126e-09
-9.9917591e-05
-1.066618e-09
-9.9917454e-05
-4.2017642e-09
-9.9917457e-05
-9.991747e-05
17.251416
-0.023313424
16.796566
-0.023946413
16.32282
-0.024626554
15.830647
-0.025355288
15.320536
-0.026133429
14.792953
-0.026960879
14.248285
-0.027836265
13.686797
-0.028756451
13.10858
-0.029715922
12.513518
-0.030706012
11.901275
-0.031713963
11.271319
-0.032721827
10.622996
-0.033705257
9.9556865
-0.034632276
9.269039
-0.03546222
8.5633137
-0.03614515
7.8398209
-0.036622127
7.1014269
-0.036826896
6.353061
-0.036689489
5.6021117
-0.036142157
4.8585689
-0.035127618
4.1347599
-0.033608938
3.4445818
-0.031579484
2.8022408
-0.0290707
2.2206693
-0.026155171
1.7099286
-0.022943235
1.2759686
-0.019572899
0.92003648
-0.016194874
0.63884781
-0.012955902
0.42541399
-0.0099838591
0.27026
-0.0073769419
0.16272562
-0.0051975732
0.09211002
-0.0034702731
0.048540075
-0.0021825925
0.023547413
-0.0012891046
0.010385095
-0.0007193772
0.0041090082
-0.00039029222
0.0014389319
-0.00022068837
0.0004400956
-0.00014386771
0.00011609313
-0.00011372707
2.6117899e-05
-0.00010361882
4.9663826e-06
-0.00010075519
7.9808074e-07
-0.00010007673
1.1165614e-07
-9.9943304e-05
1.8513738e-08
-9.9921529e-05
4.8351336e-09
-9.9918466e-05
3.6478842e-09
-9.991799e-05
-1.0704549e-09
-9.9917855e-05
-4.2228997e-09
-9.9917858e-05
-9.991787e-05
17.155308
-0.021859879
16.702694
-0.022453054
16.231391
-0.023090421
15.741901
-0.023773368
15.234753
-0.024502717
14.710456
-0.025278471
14.169455
-0.026099477
13.612079
-0.026962991
13.038492
-0.027864114
12.448657
-0.028795093
11.84232
-0.029744459
11.219026
-0.030696025
10.578187
-0.031627757
9.9192195
-0.032510633
9.2417614
-0.033307618
8.5459953
-0.033973046
7.8330623
-0.034452751
7.1055496
-0.034685442
6.3679889
-0.034605817
5.6272651
-0.034149802
4.8927965
-0.033261995
4.1763385
-0.031904744
3.4913054
-0.030067555
2.8516005
-0.027774743
2.2701008
-0.025088994
1.7570798
-0.02210903
1.3189287
-0.01896093
0.95748136
-0.015784553
0.6700815
-0.012717977
0.45031854
-0.0098832456
0.28918628
-0.0073758614
0.17636158
-0.0052588214
0.10135082
-0.0035605353
0.054368801
-0.0022755234
0.026926005
-0.0013675382
0.012159123
-0.00077581547
0.0049401436
-0.00042521547
0.001781146
-0.0002392239
0.00056215074
-0.00015224559
0.00015330347
-0.00011692348
3.5700595e-05
-0.00010463903
7.0302265e-06
-0.00010102544
1.1670557e-06
-0.00010013588
1.6639167e-07
-9.9954132e-05
2.5514081e-08
-9.9923401e-05
5.8236727e-09
-9.9919005e-05
3.9023656e-09
-9.9918371e-05
-1.0750541e-09
-9.9918231e-05
-4.2412172e-09
-9.9918233e-05
-9.9918242e-05
17.065244
-0.020567236
16.614725
-0.021125012
16.145706
-0.021724347
15.65872
-0.022366577
15.154328
-0.023052528
14.633083
-0.023782279
14.095481
-0.024554861
13.541906
-0.02536786
12.972589
-0.026216899
12.387567
-0.027095002
11.786658
-0.027991804
11.169482
-0.02889262
10.535512
-0.029777411
9.8842006
-0.030619701
9.2151828
-0.0313856
8.5285779
-0.032033164
7.8253822
-0.032512414
7.1079386
-0.03276646
6.3804262
-0.032734199
5.6492766
-0.032354968
4.9233858
-0.031575277
4.2139782
-0.030357185
3.5340068
-0.028687164
2.8970701
-0.026583601
2.3159623
-0.024100727
1.8011219
-0.021327149
1.3593244
-0.018378404
0.99293322
-0.015384644
0.69987217
-0.012476058
0.47427222
-0.0097692287
0.30757128
-0.007356877
0.1897685
-0.0053019765
0.11057247
-0.0036357008
0.060292102
-0.0023580249
0.030435034
-0.0014402996
0.014049133
-0.00083022844
0.0058515862
-0.00046017175
0.0021686095
-0.00025849563
0.00070518834
-0.00016130237
0.00019852478
-0.00012051953
4.7792932e-05
-0.00010583427
9.7362554e-06
-0.0001013552
1.6696405e-06
-0.00010021097
2.4364313e-07
-9.9968337e-05
3.5560255e-08
-9.9925828e-05
7.1392957e-09
-9.99196e-05
4.1670498e-09
-9.991874e-05
-1.0786878e-09
-9.9918585e-05
-4.2555847e-09
-9.9918585e-05
-9.9918592e-05
16.980556
-0.019410762
16.532005
-0.019936876
16.065131
-0.020502192
15.580488
-0.021107998
15.078673
-0.021755116
14.560275
-0.022443687
14.025833
-0.023172897
13.475788
-0.023940608
12.910429
-0.024742893
12.329858
-0.025573441
11.733965
-0.026422836
11.122435
-0.027277696
10.494799
-0.028119707
9.8505476
-0.028924607
9.1893178
-0.02966125
8.5111771
-0.030290957
7.8169972
-0.030767445
7.1089066
-0.031037742
6.3907694
-0.031044537
5.6686074
-0.030730326
4.9508389
-0.030043528
4.2481929
-0.028946216
3.5731835
-0.027422484
2.9391049
-0.025485758
2.3586476
-0.023182992
1.8423751
-0.020593943
1.3973976
-0.017824786
1.0265586
-0.014996929
0.72831868
-0.01223337
0.49731803
-0.0096455961
0.32541665
-0.0073235568
0.20292271
-0.0053298079
0.11974148
-0.0036974702
0.066278944
-0.0024307894
0.034052872
-0.0015073832
0.016044031
-0.00088230756
0.0068398901
-0.00049485212
0.0026015776
-0.00027832232
0.00087033927
-0.00017097412
0.00025258394
-0.0001245098
6.2781469e-05
-0.0001072134
1.3216975e-05
-0.00010175098
2.340579e-06
-0.00010030465
3.5049967e-07
-9.9986676e-05
4.9792144e-08
-9.9928973e-05
8.9262183e-09
-9.992028e-05
4.4599662e-09
-9.9919101e-05
-1.079755e-09
-9.9918919e-05
-4.2655172e-09
-9.9918917e-05
-9.991892e-05
16.900675
-0.018370486
16.453981
-0.018868126
15.989125
-0.019402847
15.506686
-0.019975892
15.007287
-0.020588073
14.491553
-0.021239585
13.960066
-0.021929741
13.413311
-0.022656642
12.851636
-0.023416745
12.275201
-0.024204317
11.68396
-0.025010763
11.077662
-0.025823836
10.455893
-0.026626725
9.8181801
-0.027397107
9.1641661
-0.028106248
8.4938765
-0.028718346
7.8080759
-0.029190397
7.1087027
-0.02947294
6.3993392
-0.029512096
5.6856352
-0.02925329
4.9755698
-0.028646812
4.2794106
-0.027654977
3.6092531
-0.026260015
2.9780906
-0.024471179
2.3984929
-0.022329129
1.8811158
-0.019905828
1.4333609
-0.017299092
1.0585074
-0.01462243
0.75551402
-0.011992255
0.51950107
-0.0095153111
0.34273095
-0.0072788364
0.21580901
-0.0053447179
0.12883158
-0.0037474267
0.072302844
-0.0024945586
0.03775969
-0.0015688963
0.018132721
-0.00093183877
0.0079009838
-0.00052899329
0.0030797832
-0.00029853056
0.0010584975
-0.00018119057
0.00031625517
-0.00012888289
8.1060624e-05
-0.00010878293
1.7616659e-05
-0.00010221894
3.2198776e-06
-0.00010041971
4.9555087e-07
-0.00010000999
6.9655793e-08
-9.9933027e-05
1.137558e-08
-9.9921081e-05
4.8037286e-09
-9.9919463e-05
-1.075791e-09
-9.9919238e-05
-4.2703449e-09
-9.9919231e-05
-9.9919231e-05
16.825117
-0.017430117
16.380179
-0.017902023
15.917229
-0.018409092
15.436867
-0.018952524
14.939743
-0.019533122
14.426512
-0.020151119
13.897794
-0.020805939
13.354119
-0.021495888
12.795884
-0.022217757
12.223306
-0.022966313
11.636399
-0.023733683
11.03497
-0.024508609
10.418656
-0.025275605
9.7870211
-0.026014052
9.1397176
-0.026697346
8.476737
-0.027292242
7.7987504
-0.02775866
7.1075279
-0.028050288
6.4063978
-0.028116372
5.7006716
-0.027905047
4.9979235
-0.027368422
4.30799
-0.026469215
3.6425684
-0.025188207
3.0143554
-0.023531125
2.4357874
-0.021533158
1.9175842
-0.019259371
1.4674014
-0.016800085
1.0889141
-0.014261638
0.78154463
-0.011754399
0.54086668
-0.0093806861
0.35952741
-0.0072251199
0.22841863
-0.0053487652
0.13782255
-0.0037870091
0.078341463
-0.0025500827
0.041537563
-0.0016250261
0.020304376
-0.00097868776
0.0090303552
-0.00056237649
0.0036024992
-0.00031895839
0.0012703186
-0.00019187767
0.00039024684
-0.00013362224
0.00010302602
-0.00011054692
2.308987e-05
-0.0001027647
4.3528523e-06
-0.00010055895
6.8902758e-07
-0.00010003921
9.6954589e-08
-9.993821e-05
1.4736853e-08
-9.9922041e-05
5.2280507e-09
-9.9919831e-05
-1.064331e-09
-9.9919543e-05
-4.269675e-09
-9.991953e-05
-9.9919526e-05
16.753466
-0.016576237
16.310194
-0.01702478
15.849049
-0.017506746
15.370651
-0.018023291
14.875674
-0.018575208
14.364802
-0.019162761
13.838688
-0.019785469
13.297905
-0.020441816
12.742895
-0.021128881
12.173927
-0.021841873
11.59107
-0.022573552
10.994186
-0.023313532
10.382962
-0.024047495
9.7569978
-0.024756336
9.1159563
-0.02541534
8.459802
-0.025993539
7.789125
-0.026453474
7.1055452
-0.026751678
6.4121615
-0.026840239
5.7139762
-0.02666981
5.0181896
-0.026194254
4.3342348
-0.025376811
3.6734299
-0.02419714
3.0481808
-0.022657979
2.4707809
-0.020789737
1.9519898
-0.018651355
1.4996842
-0.0163264
1.1178996
-0.013914679
0.80649038
-0.011520985
0.56145935
-0.0092435123
0.37582223