/*--------------------------------*- C++ -*----------------------------------*\
| =========                 |                                                 |
| \\      /  F ield         | OpenFOAM: The Open Source CFD Toolbox           |
|  \\    /   O peration     | Version:  4.0                                   |
|   \\  /    A nd           | Web:      www.OpenFOAM.org                      |
|    \\/     M anipulation  |                                                 |
\*---------------------------------------------------------------------------*/
FoamFile
{
    version     2.0;
    format      ascii;
    class       volScalarField;
    location    "2000";
    object      T;
}
// * * * * * * * * * * * * * * * * * * * * * * * * * * * * * * * * * * * * * //

dimensions      [0 0 0 1 0 0 0];

internalField   nonuniform List<scalar> 
5000
(
305.31272
304.63198
303.91219
303.15824
302.37676
301.57616
300.76656
299.95945
299.16727
298.4028
297.67846
297.00548
296.39327
295.84867
295.37564
294.97507
294.64488
294.38041
294.17499
294.0206
293.9086
293.83041
293.77804
293.74452
293.72409
293.71228
293.70585
293.70256
293.70099
293.70029
293.7
293.6999
293.69986
293.69985
293.69985
293.69984
293.69984
293.69984
293.69984
293.69984
293.69984
293.69984
293.69984
293.69984
293.69984
293.69984
293.69984
293.69984
293.69984
293.69984
308.25123
307.63732
306.98321
306.28928
305.55683
304.78825
303.98727
303.15913
302.31072
301.45066
300.58919
299.73795
298.90959
298.11716
297.37335
296.68976
296.07597
295.53889
295.08211
294.70566
294.40601
294.17644
294.00784
293.88961
293.8108
293.7611
293.73159
293.71518
293.70669
293.70261
293.70081
293.70009
293.69982
293.69973
293.69971
293.6997
293.6997
293.6997
293.6997
293.6997
293.6997
293.6997
293.6997
293.6997
293.6997
293.6997
293.6997
293.6997
293.6997
293.6997
309.7667
309.18843
308.57137
307.91491
307.21894
306.484
305.71149
304.90385
304.0648
303.19958
302.31515
301.42029
300.52562
299.64347
298.78742
297.97172
297.21041
296.51624
295.89964
295.36766
294.92328
294.5651
294.28755
294.0816
293.9359
293.83808
293.77606
293.73915
293.71863
293.70806
293.70304
293.70085
293.69999
293.69969
293.69959
293.69956
293.69955
293.69955
293.69955
293.69955
293.69955
293.69955
293.69955
293.69955
293.69955
293.69955
293.69955
293.69955
293.69955
293.69955
310.6768
310.12014
309.52595
308.89337
308.22191
307.51155
306.76287
305.97726
305.15704
304.30577
303.42837
302.53142
301.6233
300.71423
299.81623
298.94279
298.10827
297.32711
296.61273
295.97638
295.42598
294.96528
294.59344
294.30517
294.09139
293.94046
293.83952
293.77593
293.73843
293.71786
293.70744
293.7026
293.70056
293.69978
293.69951
293.69943
293.69941
293.69941
293.69941
293.69941
293.69941
293.69941
293.69941
293.69941
293.69941
293.69941
293.69941
293.69941
293.69941
293.69941
311.29252
310.75054
310.17194
309.55577
308.90136
308.20846
307.47728
306.70871
305.90441
305.06705
304.20048
303.31
302.40249
301.48663
300.57289
299.67346
298.8019
297.97252
297.19955
296.49603
295.87263
295.33655
294.89073
294.53353
294.25887
294.05714
293.91628
293.82332
293.76568
293.73233
293.71446
293.70566
293.70171
293.7001
293.69952
293.69933
293.69928
293.69926
293.69926
293.69926
293.69926
293.69926
293.69926
293.69926
293.69926
293.69926
293.69926
293.69926
293.69926
293.69926
311.75754
311.22668
310.65993
310.05627
309.41498
308.73564
308.01829
307.26351
306.47257
305.64759
304.79175
303.90948
303.00665
302.09079
301.17117
300.25882
299.36631
298.50737
297.69619
296.94648
296.27037
295.67726
295.17279
294.75826
294.43043
294.18198
294.00239
293.87926
293.79965
293.75146
293.72435
293.71029
293.70362
293.70075
293.69965
293.69927
293.69915
293.69912
293.69911
293.69911
293.69911
293.69911
293.69911
293.69911
293.69911
293.69911
293.69911
293.69911
293.69911
293.69911
312.12594
311.60392
311.04657
310.45288
309.82205
309.1536
308.44743
307.70394
306.92413
306.10977
305.26357
304.38936
303.49231
302.57911
301.65809
300.73931
299.83447
298.95659
298.11952
297.33709
296.62215
295.98542
295.43443
294.97272
294.59941
294.30934
294.09372
293.94116
293.83904
293.77479
293.73709
293.71662
293.70643
293.70182
293.69995
293.69927
293.69905
293.69899
293.69897
293.69897
293.69897
293.69897
293.69897
293.69897
293.69897
293.69897
293.69897
293.69897
293.69897
293.69897
312.43041
311.9157
311.36615
310.78072
310.15859
309.49923
308.80245
308.0685
307.2982
306.49307
305.65548
304.78881
303.8977
302.98818
302.06786
301.14602
300.23357
299.34288
298.48732
297.68063
296.93599
296.26492
295.67629
295.1753
294.763
294.43612
294.1875
294.007
293.88259
293.80171
293.7525
293.72469
293.71024
293.70339
293.70046
293.69935
293.69897
293.69886
293.69883
293.69882
293.69882
293.69882
293.69882
293.69882
293.69882
293.69882
293.69882
293.69882
293.69882
293.69882
312.6886
312.1801
311.63716
311.05876
310.44404
309.79244
309.10368
308.37795
307.61591
306.81887
305.98896
305.12922
304.24387
303.33842
302.41989
301.49691
300.57973
299.68011
298.81095
297.98576
297.2178
296.51915
295.89956
295.36554
294.91966
294.56027
294.28173
294.07509
293.92912
293.83156
293.7703
293.73445
293.71509
293.70552
293.70125
293.69954
293.69893
293.69874
293.69869
293.69868
293.69868
293.69867
293.69867
293.69867
293.69867
293.69867
293.69867
293.69867
293.69867
293.69867
312.91221
312.40909
311.87189
311.29959
310.69131
310.04645
309.36471
308.64617
307.89139
307.10155
306.27854
305.42516
304.54526
303.64396
302.72778
301.8048
300.88472
299.97872
299.09926
298.25957
297.47289
296.7516
296.10612
295.54395
295.06892
294.68073
294.37509
294.1442
293.97768
293.86369
293.79015
293.74578
293.72098
293.70826
293.70234
293.69986
293.69894
293.69864
293.69855
293.69853
293.69853
293.69853
293.69853
293.69853
293.69853
293.69853
293.69853
293.69853
293.69853
293.69853
313.10893
312.61054
312.0784
311.51146
310.90886
310.26996
309.59442
308.88227
308.13397
307.35057
306.53381
305.68626
304.8115
303.91428
303.00074
302.07848
301.15669
300.24608
299.35867
298.50738
297.70539
296.96521
296.29777
295.71135
295.21079
294.79696
294.46676
294.21345
294.02748
293.89755
293.81172
293.75853
293.72788
293.71162
293.70376
293.70034
293.69901
293.69856
293.69843
293.69839
293.69838
293.69838
293.69838
293.69838
293.69838
293.69838
293.69838
293.69838
293.69838
293.69838
313.28421
312.79005
312.26242
311.70028
311.10274
310.46917
309.79918
309.09275
308.35029
307.57273
306.76166
305.91948
305.04953
304.15628
303.2455
302.3244
301.40173
300.48776
299.59411
298.7334
297.91866
297.16251
296.4762
295.86866
295.34555
294.90877
294.55624
294.2822
294.07792
293.93264
293.83468
293.77252
293.73572
293.71559
293.70553
293.70099
293.69916
293.69851
293.69831
293.69825
293.69824
293.69824
293.69824
293.69824
293.69824
293.69824
293.69824
293.69824
293.69824
293.69824
313.44204
312.95168
312.42812
311.87029
311.27733
310.64857
309.9836
309.28236
308.54519
307.77294
306.9671
306.12989
305.26445
304.37501
303.46704
302.54738
301.62442
300.708
299.80939
298.94092
298.11543
297.34559
296.64291
296.01679
295.47362
295.01616
294.64325
294.35004
294.12855
293.96858
293.85875
293.78759
293.74444
293.72018
293.70768
293.70184
293.69939
293.69849
293.6982
293.69811
293.69809
293.69809
293.69809
293.69809
293.69809
293.69809
293.69809
293.69809
293.69809
293.69809
313.58539
313.0985
312.57862
312.02473
311.43593
310.81154
310.15114
309.45464
308.72231
307.95494
307.15391
306.32132
305.46012
304.57433
303.66915
302.75112
301.82827
300.9101
300.00751
299.13256
298.29792
297.51622
296.79918
296.15658
295.59544
295.11924
294.72768
294.41669
294.17903
294.00503
293.88368
293.80357
293.75394
293.72535
293.71019
293.70289
293.69972
293.69851
293.6981
293.69798
293.69795
293.69795
293.69794
293.69794
293.69794
293.69794
293.69794
293.69794
293.69794
293.69794
313.71656
313.23283
312.71634
312.16605
311.58106
310.96068
310.30448
309.61232
308.88445
308.12159
307.32503
306.49673
305.63953
304.75723
303.85479
302.9385
302.01606
301.09665
300.19086
299.31045
298.46793
297.67588
296.94614
296.28883
295.71147
295.21821
294.80948
294.48198
294.22911
294.04176
293.90924
293.82031
293.76415
293.73106
293.71307
293.70415
293.70016
293.69857
293.69802
293.69785
293.69781
293.6978
293.6978
293.6978
293.6978
293.6978
293.6978
293.6978
293.6978
293.6978
313.83734
313.35654
312.84316
312.29618
311.7147
311.09803
310.4457
309.75756
309.03382
308.27514
307.48273
306.65846
305.80502
304.92605
304.02631
303.11182
302.19001
301.26976
300.36137
299.47634
298.62698
297.82582
297.08476
296.41422
295.82214
295.31327
294.8887
294.54581
294.27863
294.07855
293.93525
293.83768
293.77497
293.73728
293.7163
293.70562
293.70071
293.69869
293.69796
293.69773
293.69767
293.69765
293.69765
293.69765
293.69765
293.69765
293.69765
293.69765
293.69765
293.69765
313.94918
313.47107
312.96059
312.41668
311.83846
311.22521
310.57648
309.89207
309.17217
308.41739
307.62886
306.80837
305.95849
305.0827
304.18558
303.27292
302.35191
301.43114
300.52064
299.63166
298.77632
297.96707
297.21588
296.53337
295.92787
295.40465
294.96539
294.60812
294.32745
294.11526
293.96157
293.85554
293.78633
293.74397
293.71988
293.70732
293.70138
293.69886
293.69792
293.69762
293.69753
293.69751
293.69751
293.69751
293.69751
293.69751
293.69751
293.69751
293.69751
293.69751
314.05323
313.57764
313.06984
312.52879
311.9536
311.34355
310.69817
310.01724
309.30093
308.54979
307.76491
306.94798
306.10147
305.22872
304.33414
303.42333
302.50323
301.58219
300.66998
299.7776
298.91701
298.10055
297.34023
296.64683
296.02903
295.49255
295.03965
294.6689
294.37549
294.15176
293.98808
293.8738
293.79816
293.75108
293.72379
293.70923
293.70217
293.69909
293.69791
293.69751
293.69739
293.69737
293.69736
293.69736
293.69736
293.69736
293.69736
293.69736
293.69736
293.69736
314.15044
313.6772
313.17192
312.63354
312.06118
311.45413
310.81188
310.13422
309.42127
308.67355
307.8921
307.07854
306.23523
305.36539
304.47328
303.56431
302.64521
301.7241
300.8105
299.91519
299.04996
298.22703
297.45842
296.75509
296.12597
295.57721
295.11157
294.72817
294.4227
294.18797
294.01467
293.89237
293.81038
293.75857
293.72801
293.71136
293.70309
293.69939
293.69792
293.69741
293.69726
293.69722
293.69721
293.69721
293.69721
293.69721
293.69721
293.69721
293.69721
293.69721
314.24161
313.77058
313.26765
312.73179
312.16209
311.55784
310.91854
310.24394
309.53416
308.78967
308.01146
307.20108
306.36081
305.49376
304.60404
303.6969
302.77887
301.85784
300.94312
300.04529
299.17592
298.34716
297.57103
296.85857
296.21899
295.65882
295.18126
294.78594
294.46905
294.22381
294.04126
293.91116
293.82293
293.7664
293.73251
293.71369
293.70413
293.69975
293.69797
293.69733
293.69713
293.69708
293.69707
293.69707
293.69707
293.69707
293.69707
293.69707
293.69707
293.69707
314.32741
313.85846
313.35775
312.82425
312.25705
311.65545
311.01892
310.34722
309.64042
308.89898
308.12383
307.31648
306.47911
305.61474
304.72734
303.822
302.90508
301.98427
301.06866
300.16862
299.29557
298.46154
297.67851
296.95765
296.30839
295.73756
295.24882
294.84226
294.51453
294.25925
294.06778
293.93012
293.83576
293.77454
293.73728
293.71622
293.70531
293.70019
293.69805
293.69726
293.69701
293.69694
293.69692
293.69692
293.69692
293.69692
293.69692
293.69692
293.69692
293.69692
314.4084
313.94141
313.44279
312.91152
312.34669
311.74759
311.11368
310.44471
309.74074
309.00219
308.22996
307.42548
306.59088
305.72907
304.84392
303.94036
303.02458
302.1041
301.18778
300.28583
299.40948
298.57065
297.78131
297.05269
296.39441
295.81362
295.31436
294.89717
294.55912
294.29424
294.09419
293.94918
293.84882
293.78295
293.74229
293.71894
293.70661
293.7007
293.69816
293.6972
293.69689
293.6968
293.69678
293.69678
293.69677
293.69677
293.69677
293.69677
293.69677
293.69677
314.48506
314.01992
313.52329
312.99413
312.43154
311.8348
311.20338
310.53701
309.83572
309.09991
308.33045
307.52872
306.69676
305.83742
304.95444
304.05263
303.13802
302.21794
301.30109
300.39746
299.51815
298.67495
297.8798
297.14398
296.47729
295.88716
295.37798
294.95071
294.60284
294.32876
294.12044
293.9683
293.86206
293.79158
293.74753
293.72185
293.70804
293.70128
293.69831
293.69716
293.69678
293.69666
293.69664
293.69663
293.69663
293.69663
293.69663
293.69663
293.69663
293.69663
314.55779
314.09442
313.59968
313.07252
312.51206
311.91757
311.28851
310.6246
309.92586
309.19267
308.42584
307.62673
306.79732
305.94035
305.05947
304.15938
303.24595
302.32635
301.40909
300.50401
299.62202
298.77483
297.97431
297.2318
296.55724
295.95833
295.43978
295.00294
294.64569
294.36279
294.14649
293.98743
293.87545
293.80043
293.75298
293.72492
293.70959
293.70194
293.69851
293.69714
293.69667
293.69653
293.69649
293.69648
293.69648
293.69648
293.69648
293.69648
293.69648
293.69648
314.62697
314.16528
313.67232
313.14708
312.58864
311.99629
311.36947
310.70791
310.01161
309.28091
308.5166
307.72
306.89302
306.03833
305.1595
304.2611
303.34885
302.42978
301.51224
300.60588
299.72148
298.87062
298.06513
297.31639
296.63446
296.02727
295.49985
295.05391
294.6877
294.39632
294.17233
294.00655
293.88895
293.80945
293.75862
293.72816
293.71125
293.70267
293.69874
293.69714
293.69657
293.69639
293.69635
293.69634
293.69634
293.69634
293.69634
293.69634
293.69634
293.69634
314.69291
314.23281
313.74156
313.21814
312.66163
312.07132
311.44665
310.78733
310.09334
309.36502
308.60313
307.80893
306.98429
306.13181
305.25496
304.3582
303.44715
302.52866
301.61094
300.70346
299.81687
298.96264
298.15254
297.39797
296.70911
296.0941
295.55827
295.10366
294.72887
294.42935
294.19793
294.02563
293.90253
293.81862
293.76442
293.73155
293.71304
293.70348
293.69901
293.69715
293.69648
293.69626
293.69621
293.69619
293.69619
293.69619
293.69619
293.69619
293.69619
293.69619
314.75587
314.2973
313.80768
313.28599
312.73133
312.14297
311.52035
310.86317
310.1714
309.44536
308.68578
307.89389
307.0715
306.22115
305.34622
304.45108
303.54122
302.62335
301.70552
300.79708
299.9085
299.05116
298.23677
297.47674
296.78136
296.15896
295.61513
295.15224
294.76924
294.46188
294.22327
294.04463
293.91618
293.82792
293.77038
293.73508
293.71493
293.70436
293.69933
293.69719
293.69639
293.69614
293.69606
293.69605
293.69604
293.69604
293.69604
293.69604
293.69604
293.69604
314.8161
314.35899
313.87094
313.35091
312.79801
312.21151
311.59086
310.93573
310.24609
309.52224
308.76488
307.9752
307.15498
306.30668
305.43362
304.54007
303.63138
302.71417
301.79632
300.88702
299.99665
299.13643
298.31804
297.55288
296.85135
296.22194
295.6705
295.1997
294.80881
294.49391
294.24835
294.06355
293.92986
293.83733
293.77647
293.73875
293.71693
293.70531
293.69969
293.69725
293.69632
293.69601
293.69592
293.6959
293.6959
293.6959
293.6959
293.6959
293.6959
293.6959
314.87381
314.4181
313.93155
313.41311
312.86191
312.2772
311.65842
311.00526
310.31766
309.59591
308.84068
308.05314
307.23501
306.3887
305.51746
304.62545
303.71794
302.8014
301.88359
300.97356
300.08154
299.21867
298.39654
297.62657
296.91922
296.28315
295.72445
295.24608
294.84763
294.52544
294.27315
294.08237
293.94356
293.84683
293.78269
293.74253
293.71903
293.70634
293.70009
293.69733
293.69625
293.69589
293.69578
293.69576
293.69575
293.69575
293.69575
293.69575
293.69575
293.69575
314.9292
314.47483
313.98971
313.47281
312.92323
312.34023
311.72326
311.07199
310.38636
309.66663
308.91345
308.12797
307.31185
306.46747
305.59799
304.7075
303.80115
302.88531
301.9676
301.05694
300.16342
299.29808
298.47244
297.69794
296.98508
296.34269
295.77706
295.29144
294.8857
294.55649
294.29768
294.10108
293.95726
293.85641
293.78901
293.74643
293.72123
293.70743
293.70054
293.69744
293.6962
293.69577
293.69565
293.69561
293.69561
293.69561
293.69561
293.69561
293.69561
293.69561
314.98242
314.52935
314.04561
313.53018
312.98216
312.40082
311.78559
311.13613
310.45239
309.7346
308.98341
308.1999
307.38574
306.54323
305.67546
304.78645
303.88126
302.96613
302.04857
301.13736
300.24247
299.37483
298.54592
297.76713
297.04905
296.40063
295.82839
295.3358
294.92305
294.58705
294.32192
294.11965
293.97095
293.86604
293.79544
293.75043
293.72352
293.7086
293.70103
293.69756
293.69616
293.69566
293.69551
293.69547
293.69546
293.69546
293.69546
293.69546
293.69546
293.69546
315.03364
314.58182
314.09941
313.58539
313.03888
312.45912
311.84556
311.19786
310.51593
309.80002
309.05074
308.26915
307.45687
306.61617
305.75007
304.86251
303.95847
303.04407
302.12669
301.21501
300.31887
299.4491
298.61711
297.83427
297.11123
296.45707
295.87848
295.37922
294.95971
294.61715
294.34588
294.1381
293.98461
293.87572
293.80194
293.75453
293.7259
293.70983
293.70156
293.69772
293.69613
293.69555
293.69537
293.69533
293.69532
293.69531
293.69531
293.69531
293.69531
293.69531
315.083
314.63237
314.15124
313.63859
313.09352
312.5153
311.90336
311.25734
310.57717
309.86307
309.11563
308.3359
307.52545
306.6865
305.82202
304.93589
304.03297
303.11931
302.20216
301.29008
300.3928
299.52104
298.68614
297.89947
297.17172
296.51207
295.92741
295.42172
294.99569
294.64678
294.36956
294.1564
293.99824
293.88544
293.80853
293.75872
293.72836
293.71113
293.70214
293.6979
293.69611
293.69545
293.69524
293.69518
293.69517
293.69517
293.69517
293.69517
293.69517
293.69517
315.13061
314.68114
314.20124
313.68991
313.14624
312.56949
311.95911
311.31472
310.63625
309.9239
309.17824
308.4003
307.59162
306.75438
305.89149
305.00674
304.10494
303.19202
302.27514
301.36272
300.46439
299.59078
298.75315
297.96285
297.23061
296.56571
295.97522
295.46334
295.03102
294.67595
294.39295
294.17455
294.01182
293.89519
293.81518
293.76299
293.73089
293.71249
293.70276
293.6981
293.6961
293.69535
293.69511
293.69504
293.69502
293.69502
293.69502
293.69502
293.69502
293.69502
315.17659
314.72823
314.24953
313.73947
313.19715
312.62183
312.01295
311.37014
310.69331
309.98265
309.23872
308.46251
307.65555
306.81997
305.95862
305.07523
304.17454
303.26237
302.34578
301.43308
300.53379
299.65844
298.81823
298.02449
297.28796
296.61805
296.02197
295.50412
295.06572
294.70469
294.41606
294.19255
294.02535
293.90494
293.82188
293.76733
293.7335
293.7139
293.70343
293.69833
293.69611
293.69526
293.69498
293.6949
293.69488
293.69488
293.69487
293.69487
293.69487
293.69487
315.22103
314.77376
314.29621
313.78738
313.24637
312.67243
312.065
311.42372
310.74847
310.03945
309.29719
308.52267
307.71738
306.8834
306.02356
305.14151
304.2419
303.33048
302.41421
301.50129
300.60112
299.72415
298.88151
298.08449
297.34387
296.66915
296.06769
295.5441
295.0998
294.73299
294.4389
294.2104
294.03882
293.91471
293.82864
293.77174
293.73618
293.71538
293.70413
293.69859
293.69613
293.69518
293.69485
293.69476
293.69473
293.69473
293.69473
293.69473
293.69473
293.69473
315.26404
314.81782
314.34138
313.83374
313.29399
312.7214
312.11538
311.47557
310.80186
310.09442
309.35378
308.5809
307.77723
306.94482
306.08644
305.2057
304.30717
303.3965
302.48057
301.56746
300.66649
299.788
298.94306
298.14292
297.3984
296.71907
296.11243
295.58329
295.1333
294.76087
294.46145
294.22809
294.05223
293.92448
293.83543
293.77621
293.73892
293.71691
293.70488
293.69887
293.69617
293.6951
293.69473
293.69462
293.69459
293.69458
293.69458
293.69458
293.69458
293.69458
315.3057
314.86048
314.38513
313.87864
313.34012
312.76882
312.16417
311.52579
310.85357
310.14767
309.4086
308.63731
307.83521
307.00433
306.14739
305.26793
304.37045
303.46055
302.54497
301.63172
300.73002
299.8501
299.00298
298.19987
297.45162
296.76785
296.15623
295.62173
295.16623
294.78835
294.48374
294.24563
294.06556
293.93424
293.84226
293.78074
293.74172
293.7185
293.70566
293.69917
293.69622
293.69502
293.6946
293.69448
293.69444
293.69444
293.69444
293.69444
293.69444
293.69444
315.34608
314.90185
314.42755
313.92217
313.38484
312.81479
312.21146
311.57448
310.9037
310.19929
309.46176
308.69201
307.89144
307.06205
306.2065
305.3283
304.43187
303.52272
302.60752
301.69417
300.79179
299.91054
299.06134
298.25541
297.50358
296.81556
296.19913
295.65945
295.1986
294.81542
294.50576
294.263
294.07883
293.94399
293.84912
293.78531
293.74458
293.72013
293.70649
293.69951
293.69628
293.69496
293.69448
293.69434
293.6943
293.69429
293.69429
293.69429
293.69429
293.69429
315.38526
314.94198
314.4687
313.96441
313.42822
312.8594
312.25735
311.62171
310.95234
310.24938
309.51333
308.74508
307.94601
307.11807
306.26389
305.38692
304.49152
303.58312
302.66831
301.7549
300.8519
299.96939
299.11824
298.3096
297.55435
296.86223
296.24117
295.69648
295.23043
294.8421
294.52751
294.28022
294.09202
293.95373
293.85601
293.78994
293.74749
293.72181
293.70735
293.69986
293.69636
293.6949
293.69437
293.6942
293.69416
293.69415
293.69414
293.69414
293.69414
293.69414
315.4233
314.98094
314.50865
314.00541
313.47035
312.90271
312.30191
311.66758
310.99957
310.29802
309.56342
308.79663
307.99901
307.17248
306.31964
305.44388
304.54949
303.64185
302.72744
301.81399
300.91043
300.02674
299.17373
298.36251
297.60397
296.90791
296.28237
295.73283
295.26175
294.8684
294.549
294.29728
294.10512
293.96344
293.86291
293.7946
293.75045
293.72354
293.70825
293.70025
293.69645
293.69485
293.69425
293.69406
293.69401
293.694
293.694
293.694
293.694
293.694
315.46026
315.0188
314.54747
314.04526
313.51128
312.94479
312.34521
311.71215
311.04547
310.34529
309.61209
308.84672
308.05052
307.22538
306.37384
305.49926
304.60588
303.69898
302.78499
301.87154
300.96746
300.08266
299.22788
298.4142
297.65249
296.95265
296.32278
295.76854
295.29257
294.89433
294.57024
294.31418
294.11815
293.97313
293.86983
293.7993
293.75345
293.72531
293.70918
293.70065
293.69656
293.6948
293.69414
293.69393
293.69387
293.69385
293.69385
293.69385
293.69385
293.69385
315.4962
315.05562
314.58522
314.084
313.55108
312.98572
312.38731
311.75549
311.0901
310.39126
309.65943
308.89544
308.10062
307.27683
306.42657
305.55315
304.66076
303.75461
302.84104
301.92761
301.02306
300.13722
299.28075
298.46471
297.69997
296.99647
296.36242
295.80362
295.32289
294.9199
294.59123
294.33092
294.13109
293.98279
293.87675
293.80403
293.7565
293.72713
293.71015
293.70109
293.69668
293.69477
293.69404
293.69379
293.69373
293.69371
293.69371
293.69371
293.69371
293.69371
315.53117
315.09144
314.62195
314.1217
313.58981
313.02553
312.42828
311.79766
311.13353
310.43599
309.70549
308.94286
308.14939
307.32691
306.4779
305.60562
304.7142
303.80879
302.89566
301.98228
301.0773
300.19047
299.3324
298.5141
297.74644
297.03941
296.40132
295.83809
295.35275
294.94511
294.61197
294.3475
294.14395
293.99242
293.88369
293.80879
293.75958
293.72898
293.71115
293.70154
293.69682
293.69474
293.69393
293.69366
293.69358
293.69356
293.69356
293.69356
293.69356
293.69356
315.56522
315.12632
314.65771
314.15841
313.62752
313.0643
312.46817
311.83873
311.17581
310.47954
309.75034
308.98903
308.19688
307.37568
306.5279
305.65674
304.76628
303.86161
302.94892
302.0356
301.13023
300.24248
299.38288
298.56242
297.79195
297.08151
296.4395
295.87199
295.38214
294.96999
294.63248
294.36393
294.15672
294.00202
293.89062
293.81358
293.7627
293.73087
293.71219
293.70202
293.69697
293.69472
293.69383
293.69353
293.69344
293.69342
293.69341
293.69341
293.69341
293.69341
315.59839
315.16029
314.69255
314.19417
313.66426
313.10207
312.50703
311.87873
311.21701
310.52198
309.79405
309.03402
308.24315
307.42322
306.57664
305.70658
304.81707
303.91312
303.00089
302.08765
301.18193
300.2933
299.43225
298.6097
297.83653
297.1228
296.477
295.90532
295.4111
294.99453
294.65274
294.38021
294.1694
294.01158
293.89756
293.81839
293.76586
293.7328
293.71325
293.70253
293.69714
293.69471
293.69374
293.6934
293.6933
293.69327
293.69327
293.69327
293.69327
293.69327
315.63072
315.19342
314.72652
314.22903
313.70007
313.13889
312.54491
311.91773
311.25718
310.56335
309.83665
309.07789
308.28827
307.46957
306.62417
305.75519
304.86661
303.96339
303.05161
302.13848
301.23243
300.34298
299.48054
298.656
297.88023
297.16331
296.51383
295.9381
295.43962
295.01874
294.67278
294.39633
294.182
294.0211
293.90449
293.82322
293.76904
293.73476
293.71435
293.70305
293.69733
293.69471
293.69364
293.69327
293.69316
293.69313
293.69312
293.69312
293.69312
293.69312
315.66226
315.22572
314.75964
314.26303
313.735
313.17481
312.58186
311.95577
311.29635
310.6037
309.87822
309.12068
308.33229
307.5148
306.67055
305.80262
304.91496
304.01247
303.10115
302.18814
301.2818
300.39158
299.52781
298.70136
297.92307
297.20307
296.55003
295.97036
295.46772
295.04264
294.69258
294.41231
294.19451
294.03058
293.91141
293.82806
293.77226
293.73675
293.71547
293.7036
293.69752
293.69471
293.69356
293.69314
293.69302
293.69298
293.69298
293.69298
293.69297
293.69297
315.69304
315.25725
314.79197
314.29621
313.76909
313.20985
312.61792
311.99289
311.33458
310.64308
309.91878
309.16244
308.37526
307.55894
306.71582
305.84894
304.96219
304.06042
303.14955
302.23669
301.33009
300.43913
299.57409
298.7458
297.96508
297.24211
296.5856
296.00211
295.49542
295.06623
294.71217
294.42813
294.20692
294.04002
293.91833
293.83292
293.7755
293.73877
293.71662
293.70417
293.69774
293.69473
293.69347
293.69302
293.69288
293.69284
293.69283
293.69283
293.69283
293.69283
315.72308
315.28803
314.82353
314.3286
313.80237
313.24407
312.65313
312.02914
311.37191
310.68154
309.95839
309.20322
308.41722
307.60206
306.76005
305.89419
305.00833
304.10727
303.19687
302.28416
301.37732
300.48567
299.61942
298.78936
298.0063
297.28045
296.62058
296.03336
295.52272
295.08952
294.73154
294.44381
294.21926
294.04941
293.92524
293.83779
293.77877
293.74082
293.7178
293.70477
293.69797
293.69475
293.69339
293.6929
293.69274
293.69269
293.69268
293.69268
293.69268
293.69268
315.75244
315.3181
314.85436
314.36025
313.83488
313.2775
312.68753
312.06455
311.40838
310.7191
309.99709
309.24307
308.45821
307.64419
306.80326
305.93841
305.05344
304.15308
303.24315
302.33061
301.42356
300.53125
299.66384
298.83208
298.04676
297.31811
296.65498
296.06413
295.54964
295.11252
294.75069
294.45934
294.2315
294.05876
293.93214
293.84268
293.78205
293.7429
293.71901
293.70538
293.69821
293.69478
293.69332
293.69277
293.6926
293.69255
293.69254
293.69254
293.69254
293.69254
315.78113
315.34748
314.8845
314.39118
313.86665
313.31017
312.72114
312.09916
311.44403
310.75582
310.03491
309.28201
308.49829
307.68537
306.84551
305.98165
305.09755
304.19789
303.28844
302.37607
301.46883
300.57591
299.70739
298.87399
298.08649
297.35512
296.68882
296.09444
295.57619
295.13523
294.76964
294.47474
294.24365
294.06807
293.93902
293.84756
293.78536
293.745
293.72024
293.70601
293.69846
293.69482
293.69325
293.69265
293.69246
293.69241
293.69239
293.69239
293.69239
293.69239
315.80918
315.37622
314.91396
314.42142
313.89772
313.34212
312.75401
312.13299
311.47888
310.79172
310.07189
309.3201
308.53748
307.72565
306.88684
306.02395
305.14071
304.24175
303.33276
302.42058
301.51318
300.61967
299.7501
298.91511
298.1255
297.3915
296.72212
296.1243
295.60237
295.15766
294.78838
294.48999
294.25572
294.07733
293.94589
293.85246
293.78869
293.74713
293.72149
293.70667
293.69874
293.69487
293.69319
293.69254
293.69232
293.69226
293.69225
293.69224
293.69224
293.69224
315.83661
315.40432
314.94278
314.451
313.92811
313.37336
312.78616
312.1661
311.51297
310.82685
310.10807
309.35736
308.57582
307.76506
306.92728
306.06535
305.18295
304.28468
303.37617
302.46419
301.55664
300.66258
299.79199
298.95548
298.16382
297.42728
296.75489
296.15372
295.62821
295.17981
294.80692
294.5051
294.2677
294.08654
293.95274
293.85736
293.79203
293.74928
293.72277
293.70734
293.69902
293.69493
293.69312
293.69242
293.69219
293.69212
293.6921
293.6921
293.6921
293.6921
315.86346
315.43183
314.97098
314.47995
313.95785
313.40394
312.81763
312.19849
311.54634
310.86122
310.14348
309.39382
308.61334
307.80364
306.96687
306.10588
305.22431
304.32673
303.41869
302.50691
301.59925
300.70467
299.8331
298.99512
298.20148
297.46246
296.78716
296.18271
295.65369
295.2017
294.82526
294.52008
294.27959
294.09571
293.95957
293.86226
293.79539
293.75145
293.72406
293.70803
293.69932
293.695
293.69307
293.69231
293.69205
293.69197
293.69196
293.69195
293.69195
293.69195
315.88975
315.45875
314.99859
314.50829
313.98697
313.43388
312.84843
312.2302
311.579
310.89487
310.17815
309.42953
308.65009
307.84141
307.00563
306.14557
305.26483
304.36792
303.46036
302.5488
301.64103
300.74596
299.87346
299.03406
298.2385
297.49708
296.81893
296.21129
295.67885
295.22333
294.84341
294.53492
294.2914
294.10483
293.96638
293.86716
293.79876
293.75364
293.72538
293.70874
293.69963
293.69507
293.69302
293.6922
293.69192
293.69183
293.69181
293.69181
293.69181
293.69181
315.91549
315.48512
315.02564
314.53605
314.01548
313.4632
312.8786
312.26126
311.61099
310.92783
310.21211
309.4645
308.68608
307.87841
307.04361
306.18447
305.30454
304.4083
303.50122
302.58988
301.68202
300.78648
299.91308
299.07232
298.2749
297.53114
296.85023
296.23947
295.70368
295.24471
294.86137
294.54963
294.30312
294.1139
293.97318
293.87207
293.80214
293.75585
293.72672
293.70947
293.69996
293.69516
293.69297
293.69209
293.69178
293.69169
293.69167
293.69166
293.69166
293.69166
315.94071
315.51096
315.05213
314.56324
314.04342
313.49193
312.90816
312.2917
311.64234
310.96012
310.24538
309.49877
308.72135
307.91468
307.08083
306.22259
305.34346
304.44788
303.54128
302.63017
301.72224
300.82626
299.952
299.10992
298.31071
297.56467
296.88106
296.26726
295.72819
295.26584
294.87915
294.56421
294.31476
294.12292
293.97995
293.87697
293.80554
293.75808
293.72808
293.71021
293.7003
293.69525
293.69293
293.69199
293.69165
293.69155
293.69152
293.69151
293.69151
293.69151
315.96543
315.53628
315.0781
314.58989
314.0708
313.52008
312.93713
312.32152
311.67306
310.99178
310.27799
309.53236
308.75593
307.95022
307.11733
306.25996
305.38163
304.48671
303.58058
302.66971
301.76172
300.86533
299.99025
299.14689
298.34593
297.59768
296.91144
296.29467
295.75239
295.28673
294.89675
294.57866
294.32631
294.13189
293.9867
293.88187
293.80894
293.76032
293.72945
293.71097
293.70065
293.69536
293.6929
293.69188
293.69152
293.6914