/*--------------------------------*- C++ -*----------------------------------*\
| =========                 |                                                 |
| \\      /  F ield         | OpenFOAM: The Open Source CFD Toolbox           |
|  \\    /   O peration     | Version:  4.0                                   |
|   \\  /    A nd           | Web:      www.OpenFOAM.org                      |
|    \\/     M anipulation  |                                                 |
\*---------------------------------------------------------------------------*/
FoamFile
{
    version     2.0;
    format      ascii;
    class       volVectorField;
    location    "2000";
    object      U;
}
// * * * * * * * * * * * * * * * * * * * * * * * * * * * * * * * * * * * * * //

dimensions      [0 1 -1 0 0 0 0];

internalField   nonuniform List<vector> 
5000
(
(2.1061615e-06 -1.855808e-20 0.0064064792)
(8.7123997e-06 -5.6029527e-20 0.018803327)
(1.8584929e-05 -9.6273409e-20 0.03130349)
(3.2057935e-05 -1.4141533e-19 0.043772543)
(4.8959628e-05 -1.83853e-19 0.056060491)
(6.8922071e-05 -2.3044529e-19 0.068006245)
(9.136248e-05 -2.7787188e-19 0.079443845)
(0.00011551569 -3.2192729e-19 0.090210321)
(0.00014044597 -3.8339569e-19 0.10015478)
(0.00016509427 -4.501282e-19 0.10914797)
(0.00018834504 -5.2006613e-19 0.11709147)
(0.00020910754 -5.4222248e-19 0.12392518)
(0.00022640398 -5.6716988e-19 0.12963227)
(0.00023945494 -5.8649071e-19 0.13424058)
(0.00024775159 -6.1951662e-19 0.1378201)
(0.00025110493 -6.7008636e-19 0.14047653)
(0.00024966283 -7.0664523e-19 0.14234172)
(0.00024389262 -7.0315239e-19 0.14356211)
(0.00023452633 -6.9108988e-19 0.14428645)
(0.00022247378 -7.7186947e-19 0.14465462)
(0.00020871547 -8.0784157e-19 0.1447886)
(0.00019418644 -8.2348101e-19 0.14478669)
(0.00017967291 -8.4659106e-19 0.14472125)
(0.00016573844 -8.4913449e-19 0.14463986)
(0.00015269458 -8.3525543e-19 0.14456907)
(0.00014061522 -8.0544664e-19 0.14451969)
(0.00012938761 -7.5464307e-19 0.14449242)
(0.00011878617 -7.1671794e-19 0.14448278)
(0.00010854343 -7.5839159e-19 0.14448471)
(9.8407972e-05 -7.6100428e-19 0.14449276)
(8.818284e-05 -6.8597331e-19 0.1445029)
(7.774282e-05 -8.4599013e-19 0.14451265)
(6.7040408e-05 -8.5535181e-19 0.14452071)
(5.6104625e-05 -8.7956877e-19 0.14452652)
(4.5034803e-05 -8.5711205e-19 0.14452999)
(3.3993251e-05 -7.8534135e-19 0.14453122)
(2.3145645e-05 -6.2479047e-19 0.1445305)
(1.280322e-05 -7.0251703e-19 0.14452944)
(2.6241344e-06 -7.2514208e-19 0.14452686)
(-1.5798989e-06 -9.0133259e-19 0.1445225)
(-6.7943798e-06 -7.5447172e-19 0.14451695)
(-1.4287136e-05 -6.2104745e-19 0.14451061)
(-2.0744e-05 -5.1533971e-19 0.1445043)
(-2.4827976e-05 -2.8407799e-19 0.14449792)
(-2.7462286e-05 -4.1823276e-19 0.14449219)
(-2.7431089e-05 -4.1452504e-19 0.14448674)
(-2.5860004e-05 -3.87759e-19 0.14448238)
(-2.1696427e-05 -3.5741333e-19 0.14447846)
(-1.6210839e-05 -3.3483501e-19 0.144476)
(-8.76345e-06 -3.2087486e-19 0.1444725)
(1.4231648e-05 -9.2322442e-21 0.0047418559)
(3.8621472e-05 -2.7331197e-20 0.014118637)
(9.6903458e-05 -4.6126868e-20 0.023822144)
(0.00017731269 -7.1687914e-20 0.033801809)
(0.00028245439 -9.1238095e-20 0.043991713)
(0.00041126789 -1.1976333e-19 0.054308799)
(0.0005609668 -1.5828266e-19 0.064651826)
(0.00072686542 -1.7643267e-19 0.074901481)
(0.00090265317 -2.2835196e-19 0.084922178)
(0.0010804501 -2.8579518e-19 0.094565988)
(0.0012512002 -3.551437e-19 0.10367895)
(0.0014052999 -4.4151061e-19 0.11210971)
(0.0015334165 -4.6117897e-19 0.1197199)
(0.0016274189 -4.8370233e-19 0.12639549)
(0.0016813061 -5.0545169e-19 0.13205754)
(0.0016919891 -5.3204776e-19 0.13667104)
(0.0016597725 -5.2992483e-19 0.14025032)
(0.0015884135 -5.1537531e-19 0.14285961)
(0.0014846954 -6.2328246e-19 0.1446082)
(0.0013575421 -8.3061107e-19 0.1456401)
(0.001216808 -8.498203e-19 0.14611925)
(0.0010719634 -7.7769681e-19 0.14621217)
(0.00093094259 -7.9062886e-19 0.14607106)
(0.00079938865 -8.0255127e-19 0.14582025)
(0.00068042423 -7.942158e-19 0.14554869)
(0.00057493225 -7.5584042e-19 0.14530932)
(0.00048218944 -7.033177e-19 0.14512452)
(0.00040062261 -6.8677385e-19 0.14499529)
(0.00032847348 -7.4491419e-19 0.14491101)
(0.00026423766 -7.5351215e-19 0.14485752)
(0.00020684875 -6.767179e-19 0.14482214)
(0.00015566452 -6.7088714e-19 0.14479579)
(0.00011034544 -8.5266919e-19 0.14477306)
(7.0708055e-05 -8.7560428e-19 0.14475126)
(3.6612169e-05 -8.5090752e-19 0.14472942)
(8.1012211e-06 -7.7943346e-19 0.14470742)
(-7.8910955e-06 -6.5226887e-19 0.14468487)
(-1.9670471e-05 -7.0290864e-19 0.14466245)
(-3.7439103e-05 -7.4601098e-19 0.14464058)
(-4.8978136e-05 -1.0758029e-18 0.14461908)
(-5.5715974e-05 -7.5601694e-19 0.14459785)
(-5.96816e-05 -6.2166039e-19 0.14457751)
(-6.1177779e-05 -5.0848494e-19 0.14455851)
(-5.961404e-05 -2.1073252e-19 0.14454093)
(-5.6327542e-05 -4.1300878e-19 0.14452521)
(-5.0478929e-05 -4.141223e-19 0.14451122)
(-4.3462929e-05 -3.8705432e-19 0.14449959)
(-3.4078117e-05 -3.5759995e-19 0.14448979)
(-2.4257799e-05 -3.3393219e-19 0.14448319)
(-1.1700019e-05 -3.2112449e-19 0.14447498)
(7.6440352e-06 -2.7836297e-20 0.0048313796)
(7.2387238e-07 -8.2688479e-20 0.014361441)
(-1.2964941e-06 -1.4117569e-19 0.024195606)
(-3.2018757e-06 -1.9833605e-19 0.034279124)
(-5.4658409e-06 -2.5758069e-19 0.044544763)
(-7.9732837e-06 -3.2073275e-19 0.054912153)
(-1.0486173e-05 -3.8934532e-19 0.065287496)
(-1.2776398e-05 -4.6232052e-19 0.075563781)
(-1.4725006e-05 -5.4071808e-19 0.085621691)
(-1.6433723e-05 -5.7836991e-19 0.095331488)
(-1.8341543e-05 -6.1503846e-19 0.10455615)
(-2.1319863e-05 -6.9430701e-19 0.11315611)
(-2.6711277e-05 -6.3985474e-19 0.12099583)
(-3.6275066e-05 -5.9083036e-19 0.12795224)
(-5.2009345e-05 -5.409199e-19 0.13392477)
(-7.5847063e-05 -4.8832756e-19 0.13884607)
(-0.00010925305 -4.2548058e-19 0.14269198)
(-0.00015278699 -5.0107396e-19 0.14548881)
(-0.00020573103 -5.5605773e-19 0.14731585)
(-0.00026588985 -5.1734001e-19 0.14830136)
(-0.00032965515 -4.2281391e-19 0.14861144)
(-0.000392378 -5.926574e-19 0.14843265)
(-0.00044901713 -7.1686801e-19 0.14795108)
(-0.00049494467 -7.9674483e-19 0.1473319)
(-0.00052672796 -8.0928116e-19 0.14670357)
(-0.00054268559 -8.0129776e-19 0.14614996)
(-0.00054306571 -7.969416e-19 0.14571141)
(-0.0005298047 -7.9392042e-19 0.14539317)
(-0.00050595584 -8.0080623e-19 0.14517809)
(-0.00047498312 -8.7221138e-19 0.14503933)
(-0.00044013212 -1.0217611e-18 0.14495017)
(-0.00040403254 -4.8569307e-19 0.14488951)
(-0.00036854021 -8.0337007e-19 0.14484335)
(-0.00033483303 -8.6266501e-19 0.14480381)
(-0.00030316898 -8.3315326e-19 0.14476717)
(-0.00027612253 -7.3665193e-19 0.14473213)
(-0.00025042017 -4.2423541e-19 0.14469812)
(-0.00022424685 -6.9949531e-19 0.14466404)
(-0.00020338202 -8.7814272e-19 0.14463153)
(-0.0001845153 -9.2766102e-19 0.14460113)
(-0.00016672149 -4.4560351e-19 0.14457283)
(-0.00014985192 -6.0241459e-19 0.14454655)
(-0.00013405656 -5.1493047e-19 0.1445225)
(-0.00011806656 -4.8430404e-19 0.14450067)
(-0.00010263956 -4.1751062e-19 0.1444814)
(-8.6290705e-05 -4.0774203e-19 0.14446437)
(-7.0510681e-05 -2.1373485e-19 0.14445041)
(-5.2815003e-05 -3.5074617e-19 0.14443838)
(-3.6953233e-05 -1.7851023e-19 0.14443071)
(-1.6873172e-05 -3.1855326e-19 0.14441952)
(6.038217e-07 -5.1307794e-20 0.0050138298)
(-9.7127876e-07 -1.5355742e-19 0.014904359)
(-4.418855e-06 -2.5961824e-19 0.025109919)
(-1.0560701e-05 -3.7633234e-19 0.035572104)
(-1.9906521e-05 -5.0238754e-19 0.046219088)
(-3.2937132e-05 -6.164861e-19 0.056964998)
(-5.0122731e-05 -6.827608e-19 0.067709728)
(-7.1909302e-05 -7.2793272e-19 0.078339365)
(-9.8697983e-05 -7.8072791e-19 0.088727433)
(-0.00013082278 -8.2600007e-19 0.098737167)
(-0.0001685314 -8.6601588e-19 0.10822503)
(-0.00021196998 -9.330923e-19 0.11704568)
(-0.00026117126 -1.042019e-18 0.12505845)
(-0.0003160429 -1.1526123e-18 0.1321355)
(-0.00037634382 -1.1236764e-18 0.13817112)
(-0.000441637 -1.1291519e-18 0.14309192)
(-0.00051120508 -1.1204344e-18 0.1468667)
(-0.0005839259 -1.1322196e-18 0.1495145)
(-0.0006581275 -1.1749968e-18 0.15110906)
(-0.0007314632 -9.3484246e-19 0.15177761)
(-0.00080087665 -8.4588685e-19 0.15169272)
(-0.00086272803 -7.9402764e-19 0.15105696)
(-0.00091312587 -7.9386616e-19 0.15008194)
(-0.00094845471 -8.2387154e-19 0.14896522)
(-0.00096600473 -8.7934397e-19 0.1478694)
(-0.00096454476 -9.5660397e-19 0.14690811)
(-0.0009446557 -1.0940087e-18 0.14614151)
(-0.00090868861 -1.4343225e-18 0.14558186)
(-0.00086032946 -1.431137e-18 0.14520656)
(-0.00080388367 -1.1981974e-18 0.14497438)
(-0.00074349982 -1.3265125e-18 0.14484021)
(-0.00068257404 -9.1468871e-19 0.14476528)
(-0.00062343125 -8.3520789e-19 0.14472164)
(-0.00056756093 -8.5191143e-19 0.14469203)
(-0.00051473866 -7.9755399e-19 0.14466734)
(-0.0004660595 -6.62241e-19 0.14464362)
(-0.00042163637 -2.5797299e-19 0.14461987)
(-0.00037876237 -8.9007446e-19 0.14459534)
(-0.00033924587 -8.8387696e-19 0.1445704)
(-0.0003024403 -5.5816459e-19 0.14454579)
(-0.00026801654 -1.5854481e-19 0.14452197)
(-0.00023548935 -5.4958273e-19 0.14449904)
(-0.00020535672 -3.0979353e-19 0.1444774)
(-0.00017636718 -4.9049794e-19 0.14445723)
(-0.00014953798 -4.1608142e-19 0.14443912)
(-0.00012272233 -2.6614732e-19 0.1444227)
(-9.8419881e-05 -2.4242443e-19 0.14440938)
(-7.197717e-05 -3.4443237e-19 0.14439723)
(-4.9939186e-05 -1.7147817e-19 0.14439004)
(-2.2514262e-05 -3.1579002e-19 0.14437731)
(6.2228172e-07 -2.9816883e-20 0.0052641215)
(-1.4095699e-06 -8.8963742e-20 0.015650297)
(-6.287764e-06 -1.513593e-19 0.026368664)
(-1.5066701e-05 -2.2547993e-19 0.037356966)
(-2.8498061e-05 -3.0859553e-19 0.048538421)
(-4.7330134e-05 -3.9725378e-19 0.059820944)
(-7.2327194e-05 -4.6812153e-19 0.071096841)
(-0.0001042503 -5.0876038e-19 0.082243178)
(-0.00014382366 -5.370122e-19 0.093123043)
(-0.00019169067 -6.0424364e-19 0.10358796)
(-0.00024835959 -6.7109468e-19 0.11348168)
(-0.0003141398 -7.5492453e-19 0.12264564)
(-0.00038907151 -9.696819e-19 0.13092606)
(-0.00047285152 -1.1846065e-18 0.13818282)
(-0.00056476023 -1.2116406e-18 0.14429961)
(-0.00066359486 -1.2332539e-18 0.14919494)
(-0.00076761214 -1.3293596e-18 0.1528327)
(-0.00087448595 -1.1910583e-18 0.15523095)
(-0.00098128699 -9.497386e-19 0.15646707)
(-0.0010844978 -9.2575618e-19 0.15667734)
(-0.0011800875 -8.9700912e-19 0.15604961)
(-0.0012636819 -9.189848e-19 0.15480843)
(-0.0013308595 -9.1112745e-19 0.15319383)
(-0.0013775854 -9.4470684e-19 0.15143648)
(-0.0014007504 -1.0261085e-18 0.14973359)
(-0.0013987203 -1.1673393e-18 0.14823022)
(-0.0013717523 -1.4389227e-18 0.14701006)
(-0.001322126 -1.8759828e-18 0.14609723)
(-0.0012538942 -1.9927328e-18 0.14546815)
(-0.0011722697 -1.5070096e-18 0.1450695)
(-0.0010827912 -1.3607189e-18 0.14483723)
(-0.0009905179 -1.2734903e-18 0.14471184)
(-0.00089938265 -9.5291243e-19 0.14464709)
(-0.00081231045 -8.5346196e-19 0.14461226)
(-0.00073048415 -7.7736558e-19 0.14458975)
(-0.00065443973 -6.3125531e-19 0.14457091)
(-0.0005850606 -4.0975306e-19 0.14455255)
(-0.00052096973 -1.0237976e-18 0.14453358)
(-0.00046228305 -7.4862027e-19 0.14451387)
(-0.00040838322 -6.279311e-19 0.14449387)
(-0.00035892695 -2.1564249e-19 0.1444741)
(-0.00031287422 -4.9497114e-19 0.14445464)
(-0.0002706371 -1.1120009e-19 0.1444359)
(-0.00023048781 -2.9672234e-19 0.14441799)
(-0.00019393651 -4.0641766e-19 0.14440172)
(-0.00015758579 -2.7072526e-19 0.14438642)
(-0.00012569702 -4.2923709e-19 0.14437423)
(-9.0896028e-05 -3.4604489e-19 0.14436234)
(-6.2713196e-05 -3.2269573e-19 0.14435565)
(-2.8292777e-05 -3.1586944e-19 0.14434164)
(5.8439206e-07 -1.2340506e-20 0.0054911465)
(-1.2835655e-06 -3.6801943e-20 0.016330996)
(-5.7693876e-06 -6.5135187e-20 0.027523852)
(-1.3886753e-05 -9.4143583e-20 0.039005339)
(-2.6389423e-05 -1.2879975e-19 0.050695677)
(-4.4057001e-05 -1.8095483e-19 0.062498729)
(-6.7720486e-05 -2.6235243e-19 0.07430148)
(-9.8253143e-05 -3.4102328e-19 0.085974197)
(-0.00013654772 -4.1428472e-19 0.097371476)
(-0.00018348159 -5.0274064e-19 0.10833449)
(-0.00023986762 -5.7927492e-19 0.11869473)
(-0.00030638803 -6.5262904e-19 0.12827947)
(-0.00038351084 -7.3670758e-19 0.13691926)
(-0.00047138774 -8.6075254e-19 0.14445735)
(-0.00056973749 -8.9858914e-19 0.15076084)
(-0.00067772177 -8.3899845e-19 0.15573293)
(-0.00079382389 -7.5466016e-19 0.15932512)
(-0.00091574935 -5.9789272e-19 0.16154774)
(-0.0010403677 -2.5252964e-19 0.16247669)
(-0.0011637211 -3.1981913e-19 0.16225454)
(-0.001281125 -3.2446421e-19 0.16108389)
(-0.0013873861 -6.3650971e-19 0.15921273)
(-0.0014771519 -8.3169668e-19 0.15691218)
(-0.0015453901 -9.5967867e-19 0.15444959)
(-0.0015879638 -1.1161355e-18 0.15206102)
(-0.0016022266 -1.2728009e-18 0.14992826)
(-0.0015875164 -1.4613451e-18 0.14816476)
(-0.0015454084 -1.643846e-18 0.14681338)
(-0.0014796055 -1.7060649e-18 0.14585594)
(-0.0013954325 -1.5464034e-18 0.1452316)
(-0.0012990133 -1.3629817e-18 0.14485908)
(-0.0011963526 -1.2626477e-18 0.14465684)
(-0.0010924615 -1.0055218e-18 0.144557)
(-0.00099114022 -8.5994524e-19 0.14451115)
(-0.00089469719 -7.5945085e-19 0.14448958)
(-0.00080397586 -6.2919468e-19 0.14447649)
(-0.00071979515 -5.0552797e-19 0.14446498)
(-0.00064167254 -9.1315228e-19 0.14445259)
(-0.00056948333 -7.3310453e-19 0.14443877)
(-0.00050265944 -8.509837e-19 0.14442382)
(-0.00044114818 -2.6978828e-19 0.14440831)
(-0.00038375251 -4.4849896e-19 0.14439245)
(-0.00033120003 -7.5339737e-20 0.14437675)
(-0.00028113451 -3.770585e-19 0.14436125)
(-0.00023608369 -4.0483293e-19 0.1443471)
(-0.00019091766 -4.1941955e-19 0.14433319)
(-0.00015212529 -4.0764476e-19 0.1443224)
(-0.00010952015 -3.4746646e-19 0.14431116)
(-7.5348654e-05 -3.3018321e-19 0.14430506)
(-3.4193429e-05 -3.1631584e-19 0.14429002)
(5.4884322e-07 2.7154487e-21 0.0057096082)
(-1.2423302e-06 7.7884096e-21 0.016986772)
(-5.5821018e-06 1.1107263e-20 0.028638014)
(-1.3450031e-05 2.0965643e-20 0.040597299)
(-2.5588581e-05 2.9114851e-20 0.052782462)
(-4.2774061e-05 1.8315358e-20 0.065094088)
(-6.5843948e-05 -3.2521289e-20 0.077414827)
(-9.5692198e-05 -1.1094195e-19 0.089609339)
(-0.00013325283 -1.8044388e-19 0.10152513)
(-0.00017947294 -1.9535819e-19 0.1129946)
(-0.00023527273 -2.6337327e-19 0.12383857)
(-0.00030148927 -3.137247e-19 0.13387166)
(-0.00037880119 -3.5914433e-19 0.14290982)
(-0.0004676311 -3.9220822e-19 0.15078003)
(-0.00056802576 -5.6594832e-19 0.15733205)
(-0.00067951639 -4.4378911e-19 0.16245169)
(-0.00080096862 -2.6843855e-19 0.16607456)
(-0.00093043836 -3.3682898e-19 0.16819837)
(-0.0010650567 -2.8178444e-19 0.16889194)
(-0.0012009778 -1.9171786e-19 0.16829827)
(-0.0013334263 -1.6129697e-19 0.16662958)
(-0.0014568758 -4.9633958e-19 0.16415329)
(-0.0015653843 -7.3362814e-19 0.16116936)
(-0.0016530838 -9.05554e-19 0.15798145)
(-0.0017147927 -1.0384734e-18 0.15486609)
(-0.0017466799 -1.1202597e-18 0.15204531)
(-0.0017468682 -1.1115361e-18 0.14966774)
(-0.001715839 -9.1482358e-19 0.14780177)
(-0.0016565069 -9.5289519e-19 0.14644194)
(-0.0015738814 -1.3935402e-18 0.14552638)
(-0.0014743313 -1.4440282e-18 0.1449609)
(-0.0013646267 -8.7409568e-19 0.1446434)
(-0.0012509133 -9.3345601e-19 0.14448305)
(-0.0011380664 -7.661045e-19 0.14441089)
(-0.0010294768 -4.078248e-19 0.14438167)
(-0.00092679762 -5.7922283e-19 0.14436978)
(-0.00083096348 -5.2810637e-19 0.14436283)
(-0.00074187039 -6.4702203e-19 0.14435587)
(-0.00065936236 -9.8270419e-19 0.1443474)
(-0.0005826993 -6.332159e-19 0.14433737)
(-0.00051196225 -2.9949286e-19 0.14432626)
(-0.00044561876 -4.2794145e-19 0.14431426)
(-0.00038490828 -3.1208481e-19 0.14430199)
(-0.00032652656 -5.1307658e-19 0.1442893)
(-0.0002744396 -4.14128e-19 0.14427772)
(-0.00022151959 -5.4795507e-19 0.14426568)
(-0.00017662715 -3.1770298e-19 0.14425666)
(-0.0001270136 -3.4186662e-19 0.14424655)
(-8.7242407e-05 -1.1508765e-19 0.14424128)
(-3.9916175e-05 -3.1404367e-19 0.14422563)
(5.1362099e-07 -6.6695508e-23 0.0059124989)
(-1.1558304e-06 -7.5500058e-23 0.017596871)
(-5.2042317e-06 2.7186371e-23 0.029676277)
(-1.2556429e-05 5.8214702e-21 0.042083536)
(-2.3921805e-05 1.2679658e-20 0.054734727)
(-4.0049394e-05 1.9979705e-20 0.067527936)
(-6.1756393e-05 2.521236e-20 0.0803424)
(-8.9927311e-05 -3.1268875e-21 0.093038266)
(-0.00012550275 -3.5311445e-20 0.10545721)
(-0.0001694593 -5.0965276e-21 0.11742423)
(-0.00022277802 2.8093148e-20 0.12875097)
(-0.00028639757 7.8505164e-20 0.13924091)
(-0.00036114842 1.2964849e-19 0.14869676)
(-0.00044766461 7.8640498e-20 0.15693025)
(-0.00054627014 -1.8066433e-19 0.16377425)
(-0.0006568395 -3.9824157e-19 0.16909676)
(-0.00077863734 -5.2830885e-19 0.17281585)
(-0.00091015089 -8.7311663e-19 0.17491376)
(-0.0010489352 -1.2418617e-18 0.17544799)
(-0.0011915051 -1.1108786e-18 0.17455674)
(-0.0013333163 -8.596742e-19 0.17245615)
(-0.001468876 -7.3657514e-19 0.16942765)
(-0.0015920215 -8.0572459e-19 0.16579558)
(-0.0016963759 -8.8449003e-19 0.16189699)
(-0.0017759604 -9.7826078e-19 0.15804805)
(-0.0018258974 -1.034708e-18 0.15451247)
(-0.0018431018 -1.0396788e-18 0.15147767)
(-0.0018268212 -8.9941555e-19 0.14904308)
(-0.0017788851 -7.0611613e-19 0.14722262)
(-0.0017035544 -1.1122438e-18 0.14596013)
(-0.0016069354 -1.1345982e-18 0.14515396)
(-0.0014960634 -6.4712635e-19 0.14468453)
(-0.0013778324 -8.2927904e-19 0.14443849)
(-0.0012580656 -7.2034073e-19 0.14432452)
(-0.0011411052 -4.6707156e-19 0.14427907)
(-0.0010295009 -4.771648e-19 0.14426389)
(-0.00092462181 -2.1828622e-19 0.14425918)
(-0.0008267104 -3.8972861e-19 0.14425631)
(-0.00073580439 -7.9423271e-19 0.14425227)
(-0.00065106005 -2.749701e-19 0.14424647)
(-0.00057279772 -2.9144641e-19 0.14423925)
(-0.00049901079 -2.1350757e-19 0.14423074)
(-0.00043167852 -9.1987142e-19 0.1442217)
(-0.00036625905 -6.8934907e-19 0.14421176)
(-0.00030836136 -4.3332467e-19 0.14420274)
(-0.00024878463 -5.3899924e-19 0.1441927)
(-0.00019859604 -2.9684007e-19 0.14418553)
(-0.00014287587 -3.3769506e-19 0.14417677)
(-9.7986591e-05 -1.5799228e-19 0.14417238)
(-4.5217804e-05 -3.1231523e-19 0.14415634)
(4.8318666e-07 -3.3351447e-20 0.0061035655)
(-1.0903758e-06 -9.8639317e-20 0.018171886)
(-4.9131011e-06 -1.6654663e-19 0.030655606)
(-1.1861949e-05 -2.4152382e-19 0.04348666)
(-2.2614541e-05 -3.1786468e-19 0.056579726)
(-3.789032e-05 -3.8350979e-19 0.069830846)
(-5.847868e-05 -4.2472765e-19 0.083116429)
(-8.5240662e-05 -5.1124551e-19 0.096292831)
(-0.00011910124 -6.096595e-19 0.10919679)
(-0.00016103392 -7.207e-19 0.12164697)
(-0.0002120356 -7.8366458e-19 0.13344709)
(-0.00027308767 -8.4708856e-19 0.14439084)
(-0.00034510003 -9.5304383e-19 0.15426915)
(-0.00042883359 -9.2555298e-19 0.16287991)
(-0.00052479682 -7.3993426e-19 0.17004022)
(-0.00063311461 -1.0648185e-18 0.17560094)
(-0.00075337113 -1.4685272e-18 0.17946247)
(-0.00088443475 -1.7524864e-18 0.18159037)
(-0.0010242827 -2.1868493e-18 0.18202839)
(-0.0011698547 -2.1963917e-18 0.18090624)
(-0.0013169776 -1.8450492e-18 0.17843922)
(-0.0014604078 -1.3168401e-18 0.1749175)
(-0.0015940348 -1.056665e-18 0.17068462)
(-0.0017112746 -9.6993242e-19 0.16610681)
(-0.001805645 -1.0150479e-18 0.16153719)
(-0.0018714704 -1.2346149e-18 0.15728044)
(-0.0019046236 -1.5403952e-18 0.15356437)
(-0.0019031726 -1.2937696e-18 0.15052322)
(-0.0018677887 -5.5767286e-19 0.14819572)
(-0.001801784 -8.6198676e-19 0.14653769)
(-0.0017107076 -7.3525827e-19 0.14544588)
(-0.0016015328 -7.6861967e-19 0.14478756)
(-0.0014815963 -8.099165e-19 0.14442877)
(-0.0013575173 -7.5661173e-19 0.14425539)
(-0.0012345218 -8.2985372e-19 0.14418353)
(-0.0011160219 -4.584361e-19 0.14415977)
(-0.0010039602 -5.4304326e-20 0.14415473)
(-0.00089890523 -5.9577435e-19 0.14415468)
(-0.00080115172 -5.9544372e-19 0.14415434)
(-0.00070972326 -2.9587392e-19 0.14415224)
(-0.00062528584 -5.7613476e-19 0.14414848)
(-0.00054521145 -2.8405474e-19 0.14414309)
(-0.00047241325 -8.5775298e-19 0.14413696)
(-0.00040097191 -6.9123502e-19 0.14412951)
(-0.00033817704 -4.4648464e-19 0.14412283)
(-0.0002728971 -4.099496e-19 0.14411471)
(-0.00021807745 -3.7781406e-19 0.14410923)
(-0.00015710361 -3.4202869e-19 0.14410184)
(-0.00010758293 -4.067824e-19 0.14409823)
(-5.0044377e-05 -3.1390851e-19 0.14408187)
(4.5629831e-07 -2.9327436e-20 0.0062834807)
(-1.0277642e-06 -8.7225135e-20 0.018713756)
(-4.6353253e-06 -1.4939221e-19 0.03157915)
(-1.1198185e-05 -2.1582198e-19 0.044810931)
(-2.1362426e-05 -2.8455486e-19 0.058322655)
(-3.5816996e-05 -3.5670863e-19 0.072008679)
(-5.532166e-05 -4.2870979e-19 0.085743039)
(-8.0709901e-05 -5.0449335e-19 0.099378873)
(-0.00011288417 -5.8348089e-19 0.11274867)
(-0.00015280416 -6.5905007e-19 0.12566561)
(-0.00020146616 -7.3286563e-19 0.13792646)
(-0.00025987104 -8.3151721e-19 0.14931626)
(-0.0003289759 -9.661735e-19 0.15961539)
(-0.00040962584 -1.1162235e-18 0.16860916)
(-0.00050246118 -1.2407775e-18 0.17610012)
(-0.00060779595 -1.3589016e-18 0.18192289)
(-0.00072546846 -1.5536369e-18 0.18596069)
(-0.00085466766 -1.7133464e-18 0.18816207)
(-0.00099374886 -1.7622033e-18 0.18855574)
(-0.0011400649 -1.7546073e-18 0.18726049)
(-0.0012898496 -1.631507e-18 0.1844872)
(-0.0014382018 -1.3967101e-18 0.18053035)
(-0.0015792197 -1.2456482e-18 0.17574791)
(-0.0017063218 -1.1365854e-18 0.17053077)
(-0.0018127633 -1.1051558e-18 0.16526543)
(-0.001892314 -1.1238265e-18 0.16029562)
(-0.0019400153 -1.2662833e-18 0.15588952)
(-0.0019528955 -1.2634286e-18 0.15221824)
(-0.0019305012 -9.2316828e-19 0.14934932)
(-0.0018751049 -8.2755696e-19 0.1472558)
(-0.0017914868 -7.9934423e-19 0.14583845)
(-0.0016862731 -8.1483543e-19 0.14495613)
(-0.0015669419 -8.1526328e-19 0.14445721)
(-0.0014406837 -7.7294124e-19 0.14420552)
(-0.0013135125 -7.4436228e-19 0.1440957)
(-0.00118967 -4.6048602e-19 0.14405706)
(-0.001071773 -1.4306837e-19 0.14404856)
(-0.00096076763 -5.3469396e-19 0.1440498)
(-0.00085729458 -5.9076694e-19 0.14405234)
(-0.00076021724 -3.3291303e-19 0.14405338)
(-0.00067065143 -5.4398801e-19 0.14405266)
(-0.00058522802 -3.3057466e-19 0.14405002)
(-0.00050788164 -7.0856493e-19 0.14404646)
(-0.00043130074 -6.8775253e-19 0.14404126)
(-0.00036433051 -4.6038502e-19 0.14403664)
(-0.0002941868 -4.1145299e-19 0.14403032)
(-0.00023528572 -4.0166619e-19 0.14402634)
(-0.00016980824 -3.4583223e-19 0.14402028)
(-0.00011612837 -3.8853247e-19 0.14401733)
(-5.4404731e-05 -3.1523766e-19 0.14400067)
(4.3273707e-07 -3.9365549e-20 0.0064538827)
(-9.7437596e-07 -1.1649983e-19 0.019227244)
(-4.3969258e-06 -1.9771021e-19 0.03245476)
(-1.0626543e-05 -2.8200088e-19 0.046067176)
(-2.0280575e-05 -3.665109e-19 0.059977123)
(-3.40194e-05 -4.5397222e-19 0.074077534)
(-5.2573715e-05 -5.4279019e-19 0.088240408)
(-7.6748691e-05 -6.0344994e-19 0.10231609)
(-0.0001074209 -6.6296009e-19 0.11613336)
(-0.00014552919 -6.6352401e-19 0.12950058)
(-0.0001920584 -5.6765542e-19 0.14220835)
(-0.00024801187 -4.9983957e-19 0.154034)
(-0.00031437004 -3.960787e-19 0.16474842)
(-0.00039203016 -6.0906322e-19 0.17412548)
(-0.00048172282 -1.0298484e-18 0.18195434)
(-0.00058390162 -1.1615382e-18 0.18805445)
(-0.00069860179 -1.2286353e-18 0.19229253)
(-0.00082527288 -9.2047435e-19 0.19460038)
(-0.00096259371 -7.2528325e-19 0.19499109)
(-0.0011082908 -3.8527427e-19 0.19357104)
(-0.0012589941 -9.8873637e-19 0.19054413)
(-0.0014101761 -1.2385889e-18 0.18620563)
(-0.0015562246 -1.3972829e-18 0.18092379)
(-0.0016906952 -1.5541063e-18 0.17510987)
(-0.0018067607 -1.7153646e-18 0.16917998)
(-0.0018978434 -1.7100646e-18 0.16351421)
(-0.0019583605 -9.8419976e-19 0.15842003)
(-0.0019844738 -8.8978855e-19 0.15410618)
(-0.0019747109 -1.6259117e-18 0.15067163)
(-0.001930312 -1.0438139e-18 0.14811075)
(-0.0018551846 -8.6045515e-19 0.14633329)
(-0.0017554107 -8.2865829e-19 0.14519445)
(-0.0016383606 -7.8910009e-19 0.14452851)
(-0.0015115622 -6.5152181e-19 0.14417887)
(-0.0013816769 -2.677815e-19 0.14401844)
(-0.0012537059 -3.9323732e-19 0.14395771)
(-0.0011309807 -1.6885647e-19 0.14394208)
(-0.0010148679 -2.6819383e-20 0.14394286)
(-0.00090644806 -3.4309783e-19 0.14394737)
(-0.00080440994 -3.8596675e-19 0.14395101)
(-0.00071041019 -2.476118e-19 0.14395289)
(-0.00062029761 -3.6189004e-19 0.14395265)
(-0.00053902302 -9.2572492e-19 0.14395131)
(-0.00045798708 -6.9915038e-19 0.14394812)
(-0.00038735704 -4.7341123e-19 0.14394529)
(-0.00031303794 -4.1409272e-19 0.1439406)
(-0.00025049465 -4.0554189e-19 0.14393792)
(-0.00018113098 -3.4753018e-19 0.1439331)
(-0.00012371861 -3.8123145e-19 0.14393071)
(-5.8316065e-05 -3.1657243e-19 0.14391376)
(4.1190916e-07 -2.3869073e-20 0.0066157981)
(-9.2645506e-07 -7.0376778e-20 0.019715378)
(-4.1829707e-06 -1.1909609e-19 0.033287486)
(-1.0113209e-05 -1.6938675e-19 0.047262463)
(-1.9308088e-05 -2.2321238e-19 0.061552168)
(-3.240122e-05 -2.7859337e-19 0.076048316)
(-5.0095854e-05 -3.3228049e-19 0.090621134)
(-7.3169496e-05 -3.822947e-19 0.10511852)
(-0.00010247232 -4.3274222e-19 0.11936596)
(-0.00013892037 -4.8289794e-19 0.13316754)
(-0.00018348195 -5.0200507e-19 0.14630835)
(-0.00023715433 -5.6021023e-19 0.15855877)
(-0.00030092779 -5.8168386e-19 0.16968109)
(-0.00037573247 -6.6172819e-19 0.17943874)
(-0.00046236293 -8.2073293e-19 0.18760854)
(-0.00056137674 -9.4219023e-19 0.19399572)
(-0.00067296382 -1.0124613e-18 0.1984514)
(-0.00079678563 -1.0363104e-18 0.20089104)
(-0.00093179391 -1.0375825e-18 0.20131204)
(-0.0010760435 -1.0756286e-18 0.19980745)
(-0.00122653 -1.1084698e-18 0.1965724)
(-0.0013790956 -1.2765867e-18 0.19190026)
(-0.0015284513 -1.3825171e-18 0.18616607)
(-0.0016683661 -1.4532473e-18 0.17979766)
(-0.0017920532 -1.5094783e-18 0.17323708)
(-0.0018927457 -1.5389956e-18 0.16689782)
(-0.0019644134 -1.3281137e-18 0.1611249)
(-0.0020025232 -1.1146463e-18 0.15616454)
(-0.0020047158 -1.1694839e-18 0.15214859)
(-0.0019712613 -1.0983285e-18 0.14909586)
(-0.0019051651 -9.1537171e-19 0.14692918)
(-0.0018118401 -8.4533821e-19 0.14550453)
(-0.0016983557 -7.8498904e-19 0.14464586)
(-0.0015723652 -6.4820399e-19 0.14417845)
(-0.0014410174 -3.7722528e-19 0.14395399)
(-0.0013099802 -3.5202904e-19 0.14386324)
(-0.0011833028 -2.519179e-19 0.14383631)
(-0.0010627937 -8.6600304e-20 0.14383467)
(-0.00095005438 -3.2086242e-19 0.14384026)
(-0.00084360497 -4.1025929e-19 0.14384603)
(-0.00074569208 -2.8302395e-19 0.14385018)
(-0.00065140987 -3.6833044e-19 0.14385207)
(-0.0005666436 -9.288683e-19 0.14385271)
(-0.00048169676 -7.0896993e-19 0.1438513)
(-0.00040777684 -4.8565368e-19 0.14385004)
(-0.00032983089 -4.1666082e-19 0.14384684)
(-0.00026399841 -4.0452154e-19 0.14384529)
(-0.00019124409 -3.4910697e-19 0.14384161)
(-0.00013047221 -3.7649872e-19 0.14383968)
(-6.1814791e-05 -3.1761324e-19 0.1438224)
(3.9334962e-07 -1.7234262e-20 0.0067702006)
(-8.8392453e-07 -5.1222231e-20 0.02018103)
(-3.9928765e-06 -8.7158467e-20 0.034082134)
(-9.6564736e-06 -1.2462886e-19 0.04840353)
(-1.8441621e-05 -1.752509e-19 0.063056429)
(-3.0957394e-05 -2.2790867e-19 0.07793149)
(-4.7881268e-05 -2.851332e-19 0.09289738)
(-6.9964304e-05 -3.7273721e-19 0.10779982)
(-9.8030843e-05 -4.5678151e-19 0.12246138)
(-0.00013297334 -5.4493209e-19 0.13668226)
(-0.00017574066 -7.0340038e-19 0.1502426)
(-0.00022731863 -8.6815645e-19 0.16290647)
(-0.00028869859 -1.030961e-18 0.17442833)
(-0.0003608296 -1.0077365e-18 0.18456203)
(-0.00044455075 -8.3519742e-19 0.19307295)
(-0.00054049827 -8.9837001e-19 0.19975308)
(-0.00064898337 -8.4888131e-19 0.20443872)
(-0.00076984047 -1.0945113e-18 0.20702963)
(-0.00090225084 -1.1474653e-18 0.20750765)
(-0.0010445548 -1.2968535e-18 0.20595203)
(-0.0011940782 -9.4280672e-19 0.20254791)
(-0.0013470126 -1.09294e-18 0.19758463)
(-0.0014983979 -1.1529771e-18 0.19144122)
(-0.0016422584 -1.122742e-18 0.18455876)
(-0.0017719274 -1.0235405e-18 0.17740185)
(-0.0018805655 -9.9245855e-19 0.17041442)
(-0.0019618388 -1.7357331e-18 0.16397695)
(-0.0020106707 -1.6163137e-18 0.15837231)
(-0.0020239511 -9.3088483e-19 0.15376595)
(-0.0020010716 -9.6557741e-19 0.15020317)
(-0.0019441565 -8.8672446e-19 0.14762325)
(-0.001857886 -8.3786245e-19 0.14588685)
(-0.0017488902 -7.786646e-19 0.14481134)
(-0.0016247683 -7.1382775e-19 0.14420657)
(-0.0014929959 -8.4133659e-19 0.14390413)
(-0.0013597977 -4.3694004e-19 0.14377465)
(-0.0012299169 -3.0431364e-19 0.14373171)
(-0.0011056126 -3.7648477e-19 0.14372537)
(-0.00098906744 -5.9138004e-19 0.14373103)
(-0.00087866351 -5.2720961e-19 0.14373846)
(-0.00077724395 -6.6836369e-19 0.14374461)
(-0.00067923347 -4.0392416e-19 0.14374844)
(-0.00059131215 -7.0406037e-19 0.14375083)
(-0.00050291358 -7.0686454e-19 0.14375106)
(-0.00042599818 -4.9462969e-19 0.14375117)
(-0.00034487298 -4.1876862e-19 0.14374934)
(-0.0002760524 -4.0393066e-19 0.14374878)
(-0.00020031035 -3.4991765e-19 0.14374613)
(-0.00013651086 -3.7156191e-19 0.14374458)
(-6.4949438e-05 -3.1838825e-19 0.14372694)
(3.7671401e-07 -2.9358451e-20 0.0069178829)
(-8.4592978e-07 -8.7571485e-20 0.020626551)
(-3.8224247e-06 -1.4954054e-19 0.034842648)
(-9.2464477e-06 -2.1507484e-19 0.049495939)
(-1.7662935e-05 -2.8513641e-19 0.064497081)
(-2.9658413e-05 -3.594792e-19 0.079735809)
(-4.5886452e-05 -4.3603136e-19 0.095079408)
(-6.7073325e-05 -5.1692739e-19 0.11037165)
(-9.4018425e-05 -6.0573216e-19 0.12543245)
(-0.00012759054 -6.958186e-19 0.14005853)
(-0.00016871831 -7.81237e-19 0.15402549)
(-0.00021837308 -8.7387767e-19 0.16709166)
(-0.00027754134 -9.7885827e-19 0.17900431)
(-0.00034718222 -1.0498483e-18 0.18950845)
(-0.00042816577 -1.0795584e-18 0.19835886)
(-0.00052118746 -1.0394456e-18 0.20533513)
(-0.00062665506 -9.8651668e-19 0.21025955)
(-0.00074454495 -1.0621641e-18 0.21301679)
(-0.00087423184 -1.126134e-18 0.21357345)
(-0.0010143031 -1.1294986e-18 0.2119948)
(-0.0011623789 -1.093586e-18 0.20845514)
(-0.0013149745 -1.0447913e-18 0.20323819)
(-0.0014674513 -1.0579386e-18 0.19672468)
(-0.001614106 -1.0442876e-18 0.18936607)
(-0.0017484413 -1.0180885e-18 0.18164648)
(-0.0018636292 -1.0418012e-18 0.17403742)
(-0.0019531436 -1.2827187e-18 0.16695263)
(-0.0020114928 -1.3206465e-18 0.16071043)
(-0.0020349436 -1.0624435e-18 0.15550989)
(-0.0020221114 -9.5575454e-19 0.15142423)
(-0.0019742877 -8.7245093e-19 0.14841167)
(-0.0018954006 -8.2790165e-19 0.14634099)
(-0.0017915508 -7.7224779e-19 0.14502643)
(-0.0016701392 -7.3274832e-19 0.14426528)
(-0.0015388175 -7.4681743e-19 0.14387064)
(-0.0014042485 -4.7744617e-19 0.14369315)