/*--------------------------------*- C++ -*----------------------------------*\
| =========                 |                                                 |
| \\      /  F ield         | OpenFOAM: The Open Source CFD Toolbox           |
|  \\    /   O peration     | Version:  4.0                                   |
|   \\  /    A nd           | Web:      www.OpenFOAM.org                      |
|    \\/     M anipulation  |                                                 |
\*---------------------------------------------------------------------------*/
FoamFile
{
    version     2.0;
    format      ascii;
    class       volScalarField;
    location    "3000/fluid";
    object      G;
}
// * * * * * * * * * * * * * * * * * * * * * * * * * * * * * * * * * * * * * //

dimensions      [1 0 -3 0 0 0 0];

internalField   nonuniform List<scalar> 
5000
(
2267.0523
2267.0525
2267.0527
2267.053
2267.0531
2267.0533
2267.0534
2267.0535
2267.0535
2267.0536
2267.0536
2267.0536
2267.0537
2267.0537
2267.0537
2267.0538
2267.0538
2267.0539
2267.0539
2267.0539
2267.054
2267.054
2267.0541
2267.0541
2267.0541
2267.0542
2267.0542
2267.0543
2267.0543
2267.0544
2267.0544
2267.0545
2267.0545
2267.0546
2267.0546
2267.0547
2267.0547
2267.0548
2267.0548
2267.0549
2267.0549
2267.0549
2267.055
2267.0551
2267.0551
2267.0552
2267.0553
2267.0554
2267.0555
2267.0559
2301.7944
2301.7946
2301.7948
2301.795
2301.7952
2301.7953
2301.7954
2301.7954
2301.7955
2301.7955
2301.7956
2301.7956
2301.7956
2301.7957
2301.7957
2301.7957
2301.7958
2301.7958
2301.7958
2301.7959
2301.7959
2301.7959
2301.796
2301.796
2301.796
2301.7961
2301.7961
2301.7962
2301.7962
2301.7962
2301.7963
2301.7963
2301.7964
2301.7964
2301.7965
2301.7965
2301.7965
2301.7966
2301.7966
2301.7967
2301.7967
2301.7967
2301.7968
2301.7968
2301.7969
2301.797
2301.797
2301.7972
2301.7973
2301.7976
2330.9028
2330.903
2330.9032
2330.9033
2330.9035
2330.9036
2330.9037
2330.9037
2330.9038
2330.9038
2330.9038
2330.9039
2330.9039
2330.9039
2330.904
2330.904
2330.904
2330.904
2330.9041
2330.9041
2330.9041
2330.9042
2330.9042
2330.9042
2330.9043
2330.9043
2330.9043
2330.9044
2330.9044
2330.9044
2330.9045
2330.9045
2330.9045
2330.9046
2330.9046
2330.9047
2330.9047
2330.9047
2330.9048
2330.9048
2330.9048
2330.9049
2330.9049
2330.9049
2330.905
2330.9051
2330.9051
2330.9052
2330.9053
2330.9056
2354.9276
2354.9278
2354.928
2354.9281
2354.9283
2354.9284
2354.9284
2354.9285
2354.9285
2354.9285
2354.9286
2354.9286
2354.9286
2354.9286
2354.9287
2354.9287
2354.9287
2354.9287
2354.9288
2354.9288
2354.9288
2354.9288
2354.9289
2354.9289
2354.9289
2354.929
2354.929
2354.929
2354.929
2354.9291
2354.9291
2354.9291
2354.9292
2354.9292
2354.9292
2354.9293
2354.9293
2354.9293
2354.9294
2354.9294
2354.9294
2354.9295
2354.9295
2354.9295
2354.9296
2354.9296
2354.9297
2354.9298
2354.9298
2354.93
2374.9677
2374.9678
2374.9679
2374.9681
2374.9682
2374.9683
2374.9683
2374.9684
2374.9684
2374.9684
2374.9685
2374.9685
2374.9685
2374.9685
2374.9685
2374.9686
2374.9686
2374.9686
2374.9686
2374.9687
2374.9687
2374.9687
2374.9687
2374.9688
2374.9688
2374.9688
2374.9688
2374.9689
2374.9689
2374.9689
2374.9689
2374.969
2374.969
2374.969
2374.9691
2374.9691
2374.9691
2374.9691
2374.9692
2374.9692
2374.9692
2374.9692
2374.9693
2374.9693
2374.9693
2374.9694
2374.9694
2374.9695
2374.9696
2374.9697
2391.7924
2391.7926
2391.7927
2391.7928
2391.7929
2391.793
2391.7931
2391.7931
2391.7931
2391.7931
2391.7932
2391.7932
2391.7932
2391.7932
2391.7932
2391.7933
2391.7933
2391.7933
2391.7933
2391.7933
2391.7934
2391.7934
2391.7934
2391.7934
2391.7935
2391.7935
2391.7935
2391.7935
2391.7935
2391.7936
2391.7936
2391.7936
2391.7936
2391.7937
2391.7937
2391.7937
2391.7937
2391.7938
2391.7938
2391.7938
2391.7938
2391.7938
2391.7939
2391.7939
2391.7939
2391.794
2391.794
2391.7941
2391.7941
2391.7943
2406.0621
2406.0622
2406.0623
2406.0624
2406.0625
2406.0626
2406.0626
2406.0627
2406.0627
2406.0627
2406.0627
2406.0627
2406.0627
2406.0628
2406.0628
2406.0628
2406.0628
2406.0628
2406.0629
2406.0629
2406.0629
2406.0629
2406.0629
2406.0629
2406.063
2406.063
2406.063
2406.063
2406.063
2406.0631
2406.0631
2406.0631
2406.0631
2406.0632
2406.0632
2406.0632
2406.0632
2406.0632
2406.0633
2406.0633
2406.0633
2406.0633
2406.0633
2406.0634
2406.0634
2406.0634
2406.0635
2406.0635
2406.0636
2406.0637
2418.2784
2418.2785
2418.2786
2418.2787
2418.2788
2418.2789
2418.2789
2418.2789
2418.279
2418.279
2418.279
2418.279
2418.279
2418.279
2418.2791
2418.2791
2418.2791
2418.2791
2418.2791
2418.2791
2418.2792
2418.2792
2418.2792
2418.2792
2418.2792
2418.2792
2418.2793
2418.2793
2418.2793
2418.2793
2418.2793
2418.2794
2418.2794
2418.2794
2418.2794
2418.2794
2418.2794
2418.2795
2418.2795
2418.2795
2418.2795
2418.2795
2418.2796
2418.2796
2418.2796
2418.2796
2418.2797
2418.2797
2418.2797
2418.2799
2428.8551
2428.8552
2428.8552
2428.8553
2428.8554
2428.8555
2428.8555
2428.8555
2428.8556
2428.8556
2428.8556
2428.8556
2428.8556
2428.8556
2428.8557
2428.8557
2428.8557
2428.8557
2428.8557
2428.8557
2428.8557
2428.8558
2428.8558
2428.8558
2428.8558
2428.8558
2428.8558
2428.8559
2428.8559
2428.8559
2428.8559
2428.8559
2428.8559
2428.856
2428.856
2428.856
2428.856
2428.856
2428.856
2428.8561
2428.8561
2428.8561
2428.8561
2428.8561
2428.8561
2428.8562
2428.8562
2428.8562
2428.8563
2428.8564
2438.1066
2438.1066
2438.1067
2438.1068
2438.1069
2438.1069
2438.107
2438.107
2438.107
2438.107
2438.1071
2438.1071
2438.1071
2438.1071
2438.1071
2438.1071
2438.1071
2438.1071
2438.1072
2438.1072
2438.1072
2438.1072
2438.1072
2438.1072
2438.1072
2438.1073
2438.1073
2438.1073
2438.1073
2438.1073
2438.1073
2438.1073
2438.1074
2438.1074
2438.1074
2438.1074
2438.1074
2438.1074
2438.1075
2438.1075
2438.1075
2438.1075
2438.1075
2438.1075
2438.1076
2438.1076
2438.1076
2438.1076
2438.1077
2438.1078
2446.2844
2446.2844
2446.2845
2446.2846
2446.2847
2446.2847
2446.2848
2446.2848
2446.2848
2446.2848
2446.2848
2446.2848
2446.2849
2446.2849
2446.2849
2446.2849
2446.2849
2446.2849
2446.2849
2446.2849
2446.285
2446.285
2446.285
2446.285
2446.285
2446.285
2446.285
2446.2851
2446.2851
2446.2851
2446.2851
2446.2851
2446.2851
2446.2851
2446.2852
2446.2852
2446.2852
2446.2852
2446.2852
2446.2852
2446.2852
2446.2853
2446.2853
2446.2853
2446.2853
2446.2853
2446.2854
2446.2854
2446.2854
2446.2855
2453.5811
2453.5812
2453.5813
2453.5814
2453.5814
2453.5815
2453.5815
2453.5815
2453.5816
2453.5816
2453.5816
2453.5816
2453.5816
2453.5816
2453.5816
2453.5816
2453.5817
2453.5817
2453.5817
2453.5817
2453.5817
2453.5817
2453.5817
2453.5817
2453.5818
2453.5818
2453.5818
2453.5818
2453.5818
2453.5818
2453.5818
2453.5819
2453.5819
2453.5819
2453.5819
2453.5819
2453.5819
2453.5819
2453.582
2453.582
2453.582
2453.582
2453.582
2453.582
2453.5821
2453.5821
2453.5821
2453.5821
2453.5822
2453.5823
2460.15
2460.1501
2460.1501
2460.1502
2460.1503
2460.1503
2460.1504
2460.1504
2460.1504
2460.1504
2460.1504
2460.1505
2460.1505
2460.1505
2460.1505
2460.1505
2460.1505
2460.1505
2460.1505
2460.1506
2460.1506
2460.1506
2460.1506
2460.1506
2460.1506
2460.1506
2460.1506
2460.1507
2460.1507
2460.1507
2460.1507
2460.1507
2460.1507
2460.1508
2460.1508
2460.1508
2460.1508
2460.1508
2460.1508
2460.1508
2460.1509
2460.1509
2460.1509
2460.1509
2460.1509
2460.151
2460.151
2460.151
2460.1511
2460.1512
2466.1102
2466.1103
2466.1104
2466.1105
2466.1105
2466.1106
2466.1106
2466.1106
2466.1107
2466.1107
2466.1107
2466.1107
2466.1107
2466.1107
2466.1107
2466.1107
2466.1108
2466.1108
2466.1108
2466.1108
2466.1108
2466.1108
2466.1108
2466.1108
2466.1109
2466.1109
2466.1109
2466.1109
2466.1109
2466.1109
2466.111
2466.111
2466.111
2466.111
2466.111
2466.111
2466.1111
2466.1111
2466.1111
2466.1111
2466.1111
2466.1111
2466.1112
2466.1112
2466.1112
2466.1112
2466.1113
2466.1113
2466.1114
2466.1115
2471.5573
2471.5574
2471.5575
2471.5575
2471.5576
2471.5577
2471.5577
2471.5577
2471.5577
2471.5577
2471.5578
2471.5578
2471.5578
2471.5578
2471.5578
2471.5578
2471.5578
2471.5578
2471.5579
2471.5579
2471.5579
2471.5579
2471.5579
2471.5579
2471.558
2471.558
2471.558
2471.558
2471.558
2471.558
2471.5581
2471.5581
2471.5581
2471.5581
2471.5581
2471.5581
2471.5582
2471.5582
2471.5582
2471.5582
2471.5582
2471.5583
2471.5583
2471.5583
2471.5583
2471.5584
2471.5584
2471.5585
2471.5585
2471.5587
2476.5671
2476.5671
2476.5672
2476.5673
2476.5674
2476.5674
2476.5675
2476.5675
2476.5675
2476.5675
2476.5676
2476.5676
2476.5676
2476.5676
2476.5676
2476.5676
2476.5676
2476.5677
2476.5677
2476.5677
2476.5677
2476.5677
2476.5677
2476.5678
2476.5678
2476.5678
2476.5678
2476.5678
2476.5678
2476.5679
2476.5679
2476.5679
2476.5679
2476.5679
2476.568
2476.568
2476.568
2476.568
2476.568
2476.5681
2476.5681
2476.5681
2476.5681
2476.5682
2476.5682
2476.5682
2476.5683
2476.5683
2476.5684
2476.5686
2481.2011
2481.2012
2481.2012
2481.2013
2481.2014
2481.2015
2481.2015
2481.2015
2481.2016
2481.2016
2481.2016
2481.2016
2481.2016
2481.2016
2481.2017
2481.2017
2481.2017
2481.2017
2481.2017
2481.2017
2481.2018
2481.2018
2481.2018
2481.2018
2481.2018
2481.2019
2481.2019
2481.2019
2481.2019
2481.2019
2481.202
2481.202
2481.202
2481.202
2481.2021
2481.2021
2481.2021
2481.2021
2481.2022
2481.2022
2481.2022
2481.2022
2481.2023
2481.2023
2481.2023
2481.2024
2481.2024
2481.2025
2481.2026
2481.2029
2485.5093
2485.5093
2485.5094
2485.5095
2485.5096
2485.5097
2485.5097
2485.5098
2485.5098
2485.5098
2485.5098
2485.5099
2485.5099
2485.5099
2485.5099
2485.5099
2485.5099
2485.51
2485.51
2485.51
2485.51
2485.51
2485.5101
2485.5101
2485.5101
2485.5101
2485.5102
2485.5102
2485.5102
2485.5102
2485.5103
2485.5103
2485.5103
2485.5103
2485.5104
2485.5104
2485.5104
2485.5104
2485.5105
2485.5105
2485.5105
2485.5106
2485.5106
2485.5106
2485.5107
2485.5107
2485.5108
2485.5109
2485.511
2485.5113
2489.5327
2489.5328
2489.5329
2489.533
2489.5331
2489.5332
2489.5333
2489.5333
2489.5333
2489.5334
2489.5334
2489.5334
2489.5334
2489.5334
2489.5335
2489.5335
2489.5335
2489.5335
2489.5335
2489.5336
2489.5336
2489.5336
2489.5336
2489.5337
2489.5337
2489.5337
2489.5337
2489.5338
2489.5338
2489.5338
2489.5339
2489.5339
2489.5339
2489.5339
2489.534
2489.534
2489.534
2489.5341
2489.5341
2489.5342
2489.5342
2489.5342
2489.5343
2489.5343
2489.5343
2489.5344
2489.5345
2489.5346
2489.5347
2489.5351
2493.3055
2493.3056
2493.3058
2493.3059
2493.306
2493.3061
2493.3061
2493.3062
2493.3062
2493.3062
2493.3063
2493.3063
2493.3063
2493.3063
2493.3063
2493.3064
2493.3064
2493.3064
2493.3064
2493.3065
2493.3065
2493.3065
2493.3066
2493.3066
2493.3066
2493.3067
2493.3067
2493.3067
2493.3067
2493.3068
2493.3068
2493.3069
2493.3069
2493.3069
2493.307
2493.307
2493.307
2493.3071
2493.3071
2493.3072
2493.3072
2493.3072
2493.3073
2493.3073
2493.3074
2493.3075
2493.3076
2493.3077
2493.3078
2493.3083
2496.8562
2496.8563
2496.8564
2496.8566
2496.8567
2496.8568
2496.8568
2496.8569
2496.8569
2496.8569
2496.857
2496.857
2496.857
2496.857
2496.8571
2496.8571
2496.8571
2496.8572
2496.8572
2496.8572
2496.8572
2496.8573
2496.8573
2496.8574
2496.8574
2496.8574
2496.8575
2496.8575
2496.8575
2496.8576
2496.8576
2496.8577
2496.8577
2496.8577
2496.8578
2496.8578
2496.8579
2496.8579
2496.858
2496.858
2496.8581
2496.8581
2496.8582
2496.8582
2496.8583
2496.8584
2496.8585
2496.8587
2496.8588
2496.8594
2500.2086
2500.2087
2500.2089
2500.209
2500.2092
2500.2093
2500.2093
2500.2094
2500.2094
2500.2095
2500.2095
2500.2095
2500.2096
2500.2096
2500.2096
2500.2096
2500.2097
2500.2097
2500.2097
2500.2098
2500.2098
2500.2099
2500.2099
2500.2099
2500.21
2500.21
2500.2101
2500.2101
2500.2101
2500.2102
2500.2102
2500.2103
2500.2103
2500.2104
2500.2104
2500.2105
2500.2105
2500.2106
2500.2106
2500.2107
2500.2108
2500.2108
2500.2109
2500.2109
2500.211
2500.2111
2500.2112
2500.2115
2500.2116
2500.2123
2503.3832
2503.3833
2503.3835
2503.3837
2503.3838
2503.384
2503.384
2503.3841
2503.3842
2503.3842
2503.3842
2503.3843
2503.3843
2503.3843
2503.3844
2503.3844
2503.3844
2503.3845
2503.3845
2503.3845
2503.3846
2503.3846
2503.3847
2503.3847
2503.3848
2503.3848
2503.3849
2503.3849
2503.385
2503.385
2503.3851
2503.3851
2503.3852
2503.3852
2503.3853
2503.3854
2503.3854
2503.3855
2503.3856
2503.3856
2503.3857
2503.3857
2503.3858
2503.3859
2503.386
2503.3861
2503.3862
2503.3865
2503.3867
2503.3875
2506.3974
2506.3976
2506.3978
2506.398
2506.3982
2506.3983
2506.3984
2506.3985
2506.3985
2506.3986
2506.3986
2506.3986
2506.3987
2506.3987
2506.3987
2506.3988
2506.3988
2506.3989
2506.3989
2506.399
2506.399
2506.3991
2506.3991
2506.3992
2506.3992
2506.3993
2506.3993
2506.3994
2506.3994
2506.3995
2506.3996
2506.3996
2506.3997
2506.3998
2506.3998
2506.3999
2506.4
2506.4
2506.4001
2506.4002
2506.4003
2506.4003
2506.4004
2506.4005
2506.4006
2506.4007
2506.4009
2506.4012
2506.4014
2506.4024
2509.2663
2509.2665
2509.2667
2509.2669
2509.2671
2509.2673
2509.2674
2509.2675
2509.2675
2509.2676
2509.2676
2509.2677
2509.2677
2509.2677
2509.2678
2509.2678
2509.2679
2509.2679
2509.268
2509.268
2509.2681
2509.2681
2509.2682
2509.2683
2509.2683
2509.2684
2509.2685
2509.2685
2509.2686
2509.2687
2509.2687
2509.2688
2509.2689
2509.2689
2509.269
2509.2691
2509.2692
2509.2693
2509.2693
2509.2694
2509.2695
2509.2696
2509.2697
2509.2698
2509.2699
2509.2701
2509.2703
2509.2706
2509.2708
2509.2719
2512.0028
2512.003
2512.0033
2512.0035
2512.0038
2512.0039
2512.0041
2512.0041
2512.0042
2512.0043
2512.0043
2512.0044
2512.0044
2512.0045
2512.0045
2512.0046
2512.0046
2512.0047
2512.0047
2512.0048
2512.0049
2512.0049
2512.005
2512.0051
2512.0051
2512.0052
2512.0053
2512.0053
2512.0054
2512.0055
2512.0056
2512.0057
2512.0057
2512.0058
2512.0059
2512.006
2512.0061
2512.0062
2512.0063
2512.0064
2512.0065
2512.0066
2512.0067
2512.0068
2512.0069
2512.0071
2512.0073
2512.0077
2512.008
2512.0092
2514.6184
2514.6186
2514.6189
2514.6192
2514.6195
2514.6197
2514.6198
2514.6199
2514.62
2514.62
2514.6201
2514.6201
2514.6202
2514.6202
2514.6203
2514.6204
2514.6204
2514.6205
2514.6206
2514.6206
2514.6207
2514.6208
2514.6208
2514.6209
2514.621
2514.6211
2514.6212
2514.6212
2514.6213
2514.6214
2514.6215
2514.6216
2514.6217
2514.6218
2514.6219
2514.622
2514.6221
2514.6222
2514.6223
2514.6224
2514.6225
2514.6226
2514.6227
2514.6229
2514.623
2514.6232
2514.6235
2514.6239
2514.6242
2514.6256
2517.123
2517.1232
2517.1235
2517.1239
2517.1242
2517.1244
2517.1245
2517.1246
2517.1247
2517.1248
2517.1249
2517.1249
2517.125
2517.125
2517.1251
2517.1252
2517.1252
2517.1253
2517.1254
2517.1255
2517.1255
2517.1256
2517.1257
2517.1258
2517.1259
2517.126
2517.1261
2517.1262
2517.1263
2517.1264
2517.1265
2517.1266
2517.1267
2517.1268
2517.1269
2517.127
2517.1271
2517.1272
2517.1274
2517.1275
2517.1276
2517.1277
2517.1278
2517.128
2517.1282
2517.1284
2517.1287
2517.1292
2517.1295
2517.131
2519.5253
2519.5256
2519.526
2519.5263
2519.5267
2519.5269
2519.5271
2519.5272
2519.5273
2519.5274
2519.5274
2519.5275
2519.5276
2519.5277
2519.5277
2519.5278
2519.5279
2519.528
2519.528
2519.5281
2519.5282
2519.5283
2519.5284
2519.5285
2519.5286
2519.5287
2519.5288
2519.5289
2519.529
2519.5291
2519.5292
2519.5293
2519.5295
2519.5296
2519.5297
2519.5298
2519.53
2519.5301
2519.5302
2519.5304
2519.5305
2519.5306
2519.5308
2519.5309
2519.5311
2519.5314
2519.5317
2519.5322
2519.5326
2519.5343
2521.8333
2521.8336
2521.834
2521.8344
2521.8348
2521.835
2521.8352
2521.8354
2521.8355
2521.8356
2521.8356
2521.8357
2521.8358
2521.8359
2521.8359
2521.836
2521.8361
2521.8362
2521.8363
2521.8364
2521.8365
2521.8366
2521.8367
2521.8368
2521.8369
2521.837
2521.8371
2521.8372
2521.8374
2521.8375
2521.8376
2521.8377
2521.8379
2521.838
2521.8381
2521.8383
2521.8384
2521.8386
2521.8387
2521.8389
2521.839
2521.8392
2521.8393
2521.8395
2521.8397
2521.84
2521.8404
2521.841
2521.8414
2521.8433
2524.0537
2524.0541
2524.0545
2524.055
2524.0554
2524.0557
2524.0559
2524.056
2524.0562
2524.0563
2524.0563
2524.0564
2524.0565
2524.0566
2524.0567
2524.0568
2524.0569
2524.057
2524.0571
2524.0572
2524.0573
2524.0574
2524.0575
2524.0576
2524.0578
2524.0579
2524.058
2524.0581
2524.0583
2524.0584
2524.0585
2524.0587
2524.0588
2524.059
2524.0591
2524.0593
2524.0594
2524.0596
2524.0598
2524.0599
2524.0601
2524.0603
2524.0605
2524.0606
2524.0609
2524.0612
2524.0616
2524.0622
2524.0627
2524.0648
2526.1929
2526.1933
2526.1938
2526.1943
2526.1947
2526.1951
2526.1953
2526.1955
2526.1956
2526.1957
2526.1958
2526.1959
2526.196
2526.1961
2526.1962
2526.1963
2526.1964
2526.1965
2526.1966
2526.1967
2526.1968
2526.197
2526.1971
2526.1972
2526.1974
2526.1975
2526.1976
2526.1978
2526.1979
2526.1981
2526.1982
2526.1984
2526.1985
2526.1987
2526.1989
2526.199
2526.1992
2526.1994
2526.1996
2526.1998
2526.1999
2526.2001
2526.2003
2526.2005
2526.2008
2526.2011
2526.2016
2526.2023
2526.2028
2526.2051
2528.2564
2528.2568
2528.2573
2528.2579
2528.2584
2528.2587
2528.259
2528.2592
2528.2593
2528.2594
2528.2596
2528.2597
2528.2598
2528.2599
2528.26
2528.2601
2528.2602
2528.2603
2528.2604
2528.2606
2528.2607
2528.2608
2528.261
2528.2611
2528.2613
2528.2614
2528.2616
2528.2617
2528.2619
2528.262
2528.2622
2528.2624
2528.2626
2528.2627
2528.2629
2528.2631
2528.2633
2528.2635
2528.2637
2528.2639
2528.2641
2528.2643
2528.2645
2528.2648
2528.265
2528.2654
2528.2659
2528.2667
2528.2673
2528.2698
2530.2491
2530.2496
2530.2502
2530.2508
2530.2513
2530.2517
2530.252
2530.2522
2530.2524
2530.2525
2530.2526
2530.2527
2530.2528
2530.253
2530.2531
2530.2532
2530.2533
2530.2535
2530.2536
2530.2537
2530.2539
2530.254
2530.2542
2530.2543
2530.2545
2530.2547
2530.2548
2530.255
2530.2552
2530.2553
2530.2555
2530.2557
2530.2559
2530.2561
2530.2563
2530.2565
2530.2567
2530.2569
2530.2572
2530.2574
2530.2576
2530.2578
2530.2581
2530.2583
2530.2586
2530.259
2530.2595
2530.2604
2530.2611
2530.2638
2532.1757
2532.1763
2532.1769
2532.1776
2532.1781
2532.1786
2532.1789
2532.1791
2532.1793
2532.1794
2532.1795
2532.1797
2532.1798
2532.1799
2532.18
2532.1802
2532.1803
2532.1805
2532.1806
2532.1808
2532.1809
2532.1811
2532.1812
2532.1814
2532.1816
2532.1818
2532.1819
2532.1821
2532.1823
2532.1825
2532.1827
2532.1829
2532.1831
2532.1833
2532.1836
2532.1838
2532.184
2532.1843
2532.1845
2532.1847
2532.185
2532.1852
2532.1855
2532.1857
2532.1861
2532.1865
2532.1871
2532.188
2532.1887
2532.1917
2534.0403
2534.0409
2534.0416
2534.0423
2534.0429
2534.0434
2534.0437
2534.044
2534.0441
2534.0443
2534.0444
2534.0446
2534.0447
2534.0448
2534.045
2534.0451
2534.0453
2534.0454
2534.0456
2534.0457
2534.0459
2534.0461
2534.0463
2534.0465
2534.0467
2534.0468
2534.047
2534.0472
2534.0475
2534.0477
2534.0479
2534.0481
2534.0483
2534.0486
2534.0488
2534.049
2534.0493
2534.0496
2534.0498
2534.0501
2534.0503
2534.0506
2534.0509
2534.0512
2534.0515
2534.052
2534.0526
2534.0536
2534.0544
2534.0576
2535.8465
2535.8472
2535.8479
2535.8487
2535.8494
2535.8499
2535.8503
2535.8505
2535.8507
2535.8509
2535.851
2535.8512
2535.8513
2535.8515
2535.8516
2535.8518
2535.8519
2535.8521
2535.8523
2535.8525
2535.8526
2535.8528
2535.853
2535.8532
2535.8534
2535.8536
2535.8539
2535.8541
2535.8543
2535.8545
2535.8548
2535.855
2535.8553
2535.8555
2535.8558
2535.856
2535.8563
2535.8566
2535.8569
2535.8571
2535.8574
2535.8577
2535.858
2535.8583
2535.8587
2535.8592
2535.8599
2535.861
2535.8618
2535.8652
2537.5979
2537.5986
2537.5994
2537.6002
2537.601
2537.6015
2537.6019
2537.6022
2537.6024
2537.6026
2537.6028
2537.6029
2537.6031
2537.6032
2537.6034
2537.6036
2537.6037
2537.6039
2537.6041
2537.6043
2537.6045
2537.6047
2537.6049
2537.6051
2537.6054
2537.6056
2537.6058
2537.6061
2537.6063
2537.6065
2537.6068
2537.6071
2537.6073
2537.6076
2537.6079
2537.6082
2537.6085
2537.6087
2537.609
2537.6094
2537.6097
2537.61
2537.6103
2537.6106
2537.6111
2537.6116
2537.6123
2537.6135
2537.6144
2537.6181
2539.2975
2539.2982
2539.2991
2539.3
2539.3008
2539.3014
2539.3018
2539.3021
2539.3024
2539.3026
2539.3027
2539.3029
2539.3031
2539.3032
2539.3034
2539.3036
2539.3038
2539.304
2539.3042
2539.3044
2539.3046
2539.3048
2539.3051
2539.3053
2539.3055
2539.3058
2539.306
2539.3063
2539.3066
2539.3068
2539.3071
2539.3074
2539.3077
2539.308
2539.3083
2539.3086
2539.3089
2539.3092
2539.3095
2539.3098
2539.3102
2539.3105
2539.3108
2539.3112
2539.3117
2539.3123
2539.313
2539.3143
2539.3153
2539.3192
2540.9482
2540.949
2540.9499
2540.9509
2540.9518
2540.9524
2540.9529
2540.9532
2540.9535
2540.9537
2540.9539
2540.954
2540.9542
2540.9544
2540.9546
2540.9548
2540.955
2540.9552
2540.9554
2540.9556
2540.9559
2540.9561
2540.9563
2540.9566
2540.9569
2540.9571
2540.9574
2540.9577
2540.9579
2540.9582
2540.9585
2540.9588
2540.9591
2540.9594
2540.9598
2540.9601
2540.9604
2540.9608
2540.9611
2540.9615
2540.9618
2540.9622
2540.9625
2540.9629
2540.9634
2540.9641
2540.9649
2540.9662
2540.9673
2540.9715
2542.5526
2542.5535
2542.5545
2542.5556
2542.5565
2542.5572
2542.5577
2542.558
2542.5583
2542.5585
2542.5587
2542.5589
2542.5591
2542.5593
2542.5595
2542.5597
2542.5599
2542.5601
2542.5604
2542.5606
2542.5609
2542.5611
2542.5614
2542.5617
2542.5619
2542.5622
2542.5625
2542.5628
2542.5631
2542.5634
2542.5637
2542.564
2542.5644
2542.5647
2542.565
2542.5654
2542.5658
2542.5661
2542.5665
2542.5669
2542.5672
2542.5676
2542.568
2542.5685
2542.569
2542.5697
2542.5705
2542.572
2542.5731
2542.5776
2544.1133
2544.1142
2544.1152
2544.1164
2544.1174
2544.1181
2544.1186
2544.119
2544.1193
2544.1196
2544.1198
2544.12
2544.1202
2544.1204
2544.1206
2544.1208
2544.1211
2544.1213
2544.1215
2544.1218
2544.1221
2544.1223
2544.1226
2544.1229
2544.1232
2544.1235
2544.1238
2544.1241
2544.1245
2544.1248
2544.1251
2544.1255
2544.1258
2544.1262
2544.1265
2544.1269
2544.1273
2544.1277
2544.1281
2544.1285
2544.1289
2544.1293
2544.1297
2544.1302
2544.1307
2544.1315
2544.1324
2544.1339
2544.1351
2544.1399
2545.6323
2545.6333
2545.6344
2545.6356
2545.6367
2545.6375
2545.638
2545.6385
2545.6388
2545.639
2545.6393
2545.6395
2545.6397
2545.6399
2545.6401
2545.6404
2545.6406
2545.6409
2545.6412
2545.6414
2545.6417
2545.642
2545.6423
2545.6426
2545.6429
2545.6432
2545.6436
2545.6439
2545.6443
2545.6446
2545.645
2545.6453
2545.6457
2545.6461
2545.6465
2545.6469
2545.6473
2545.6477
2545.6481
2545.6486
2545.649
2545.6494
2545.6499
2545.6504
2545.6509
2545.6517
2545.6527
2545.6544
2545.6556
2545.6606
2547.1119
2547.1129
2547.1141
2547.1154
2547.1165
2547.1174
2547.118
2547.1184
2547.1187
2547.119
2547.1193
2547.1195
2547.1197
2547.12
2547.1202
2547.1205
2547.1207
2547.121
2547.1213
2547.1216
2547.1219
2547.1222
2547.1225
2547.1228
2547.1232
2547.1235
2547.1239
2547.1242
2547.1246
2547.125
2547.1253
2547.1257
2547.1261
2547.1265
2547.1269
2547.1274
2547.1278
2547.1283
2547.1287
2547.1292
2547.1296
2547.1301
2547.1305
2547.1311
2547.1317
2547.1325
2547.1336
2547.1353
2547.1366
2547.142
2548.5538
2548.5549
2548.5562
2548.5576
2548.5588
2548.5597
2548.5603
2548.5608
2548.5612
2548.5615
2548.5617
2548.562
2548.5622
2548.5625
2548.5627
2548.563
2548.5633
2548.5636
2548.5639
2548.5642
2548.5645
2548.5648
2548.5652
2548.5655
2548.5659
2548.5662
2548.5666
2548.567
2548.5674
2548.5678
2548.5682
2548.5686
2548.569
2548.5694
2548.5699
2548.5703
2548.5708
2548.5713
2548.5717
2548.5722
2548.5727
2548.5732
2548.5737
2548.5742
2548.5749
2548.5758
2548.5769
2548.5787
2548.5801
2548.5858
2549.96
2549.9612
2549.9626
2549.964
2549.9653
2549.9663
2549.9669
2549.9674
2549.9678
2549.9681
2549.9684
2549.9687
2549.9689
2549.9692
2549.9695
2549.9698
2549.97
2549.9704
2549.9707
2549.971
2549.9713
2549.9717
2549.9721
2549.9724
2549.9728
2549.9732
2549.9736
2549.974
2549.9744
2549.9748
2549.9752
2549.9757
2549.9761
2549.9766
2549.9771
2549.9775
2549.978
2549.9785
2549.979
2549.9795
2549.98
2549.9806
2549.9811
2549.9817
2549.9824
2549.9833
2549.9845
2549.9864
2549.9879
2549.9939
2551.3321
2551.3333
2551.3348
2551.3364
2551.3377
2551.3387
2551.3394
2551.34
2551.3404
2551.3407
2551.341
2551.3413
2551.3415
2551.3418
2551.3421
2551.3424
2551.3427
2551.3431
2551.3434
2551.3437
2551.3441
2551.3445
2551.3449
2551.3452
2551.3456
2551.3461
2551.3465
2551.3469
2551.3473
2551.3478
2551.3482
2551.3487
2551.3492
2551.3496
2551.3501
2551.3506
2551.3512
2551.3517
2551.3522
2551.3528
2551.3533
2551.3538
2551.3544
2551.355
2551.3558
2551.3568
2551.358
2551.36
2551.3616
2551.3679
2552.6716
2552.6729
2552.6745
2552.6761
2552.6776
2552.6786
2552.6794
2552.6799
2552.6804
2552.6807
2552.681
2552.6813
2552.6816
2552.6819
2552.6822
2552.6825
2552.6829
2552.6832
2552.6836
2552.684
2552.6843
2552.6847
2552.6851
2552.6855
2552.686
2552.6864
2552.6868
2552.6873
2552.6877
2552.6882
2552.6887
2552.6892
2552.6897
2552.6902
2552.6907
2552.6912
2552.6918
2552.6923
2552.6929
2552.6935
2552.694
2552.6946
2552.6952
2552.6959
2552.6966
2552.6977
2552.699
2552.7011
2552.7028
2552.7094
2553.98
2553.9814
2553.9831
2553.9848
2553.9863
2553.9875
2553.9883
2553.9888
2553.9893
2553.9897
2553.99
2553.9903
2553.9906
2553.9909
2553.9912
2553.9916
2553.9919
2553.9923
2553.9927
2553.9931
2553.9935
2553.9939
2553.9943
2553.9947
2553.9952
2553.9956
2553.9961
2553.9966
2553.9971
2553.9975
2553.9981
2553.9986
2553.9991
2553.9996
2554.0002
2554.0007
2554.0013
2554.0019
2554.0025
2554.0031
2554.0037
2554.0043
2554.0049
2554.0056
2554.0064
2554.0075
2554.0089
2554.0112
2554.0129
2554.0198
2555.2587
2555.2602
2555.2619
2555.2638
2555.2654
2555.2665
2555.2674
2555.268
2555.2685
2555.2689
2555.2692
2555.2695
2555.2699
2555.2702
2555.2705
2555.2709
2555.2713
2555.2716
2555.272
2555.2724
2555.2729
2555.2733
2555.2738
2555.2742
2555.2747
2555.2752
2555.2756
2555.2761
2555.2766
2555.2772
2555.2777
2555.2782
2555.2788
2555.2794
2555.2799
2555.2805
2555.2811
2555.2818
2555.2824
2555.283
2555.2836
2555.2843
2555.2849
2555.2857
2555.2865
2555.2877
2555.2891
2555.2915
2555.2933
2555.3006
2556.5089
2556.5105
2556.5123
2556.5142
2556.5159
2556.5172
2556.518
2556.5187
2556.5192
2556.5196
2556.52
2556.5203
2556.5206
2556.521
2556.5214
2556.5217
2556.5221
2556.5225
2556.5229
2556.5234
2556.5238
2556.5243
2556.5247
2556.5252
2556.5257
2556.5262
2556.5267
2556.5273
2556.5278
2556.5283
2556.5289
2556.5295
2556.5301
2556.5306
2556.5313
2556.5319
2556.5325
2556.5332
2556.5338
2556.5345
2556.5351
2556.5358
2556.5365
2556.5373
2556.5382
2556.5394
2556.5409
2556.5434
2556.5453
2556.5529
2557.7318
2557.7335
2557.7354
2557.7374
2557.7392
2557.7405
2557.7414
2557.7421
2557.7426
2557.7431
2557.7434
2557.7438
2557.7442
2557.7445
2557.7449
2557.7453
2557.7457
2557.7461
2557.7466
2557.747
2557.7475
2557.748
2557.7485
2557.749
2557.7495
2557.75
2557.7506
2557.7511
2557.7517
2557.7522
2557.7528
2557.7534
2557.754
2557.7547
2557.7553
2557.756
2557.7566
2557.7573
2557.758
2557.7587
2557.7594
2557.7601
2557.7608
2557.7616
2557.7626
2557.7638
2557.7654
2557.768
2557.77
2557.778
2558.9286
2558.9303
2558.9323
2558.9345
2558.9363
2558.9377
2558.9387
2558.9394
2558.9399
2558.9404
2558.9408
2558.9412
2558.9415
2558.9419
2558.9423
2558.9427
2558.9432
2558.9436
2558.9441
2558.9445
2558.945
2558.9455
2558.9461
2558.9466
2558.9471
2558.9477
2558.9482
2558.9488
2558.9494
2558.95
2558.9506
2558.9513
2558.9519
2558.9526
2558.9532
2558.9539
2558.9546
2558.9553
2558.956
2558.9568
2558.9575
2558.9582
2558.959
2558.9598
2558.9608
2558.9621
2558.9638
2558.9665
2558.9686
2558.9769
2560.1002
2560.102
2560.1041
2560.1064
2560.1083
2560.1098
2560.1108
2560.1116
2560.1121
2560.1126
2560.113
2560.1134
2560.1138
2560.1142
2560.1146
2560.1151
2560.1155
2560.116
2560.1165
2560.117
2560.1175
2560.118
2560.1186
2560.1191
2560.1197
2560.1202
2560.1208
2560.1214
2560.1221
2560.1227
2560.1233
2560.124
2560.1247
2560.1253
2560.126
2560.1268
2560.1275
2560.1282
2560.129
2560.1297
2560.1305
2560.1313
2560.1321
2560.1329
2560.134
2560.1354
2560.1371
2560.1399
2560.1421
2560.1508
2561.2477
2561.2496
2561.2519
2561.2542
2561.2562
2561.2578
2561.2588
2561.2596
2561.2602
2561.2607
2561.2612
2561.2616
2561.262
2561.2624
2561.2628
2561.2633
2561.2638
2561.2643
2561.2648
2561.2653
2561.2658
2561.2664
2561.2669
2561.2675
2561.2681
2561.2687
2561.2693
2561.27
2561.2706
2561.2713
2561.2719
2561.2726
2561.2733
2561.274
2561.2748
2561.2755
2561.2763
2561.2771
2561.2778
2561.2786
2561.2794
2561.2802
2561.2811
2561.282
2561.2831
2561.2845
2561.2863
2561.2893
2561.2916
2561.3006
2562.3721
2562.3741
2562.3764
2562.3789
2562.381
2562.3826
2562.3837
2562.3845
2562.3852
2562.3857
2562.3861
2562.3866
2562.387
2562.3874
2562.3879
2562.3884
2562.3889
2562.3894
2562.3899
2562.3904
2562.391
2562.3916
2562.3922
2562.3928
2562.3934
2562.394
2562.3947
2562.3953
2562.396
2562.3967
2562.3974
2562.3981
2562.3988
2562.3996
2562.4004
2562.4011
2562.4019
2562.4027
2562.4036
2562.4044
2562.4052
2562.406
2562.4069
2562.4079
2562.409
2562.4105
2562.4124
2562.4155
2562.4178
2562.4273
2563.4741
2563.4762
2563.4786
2563.4812
2563.4834
2563.4851
2563.4863
2563.4871
2563.4878
2563.4883
2563.4888
2563.4893
2563.4897
2563.4902
2563.4906
2563.4911
2563.4917
2563.4922
2563.4927
2563.4933
2563.4939
2563.4945
2563.4951
2563.4957
2563.4964
2563.497
2563.4977
2563.4984
2563.4991
2563.4998
2563.5006
2563.5013
2563.5021
2563.5029
2563.5036
2563.5045
2563.5053
2563.5061
2563.507
2563.5078
2563.5087
2563.5096
2563.5105
2563.5115
2563.5127
2563.5142
2563.5162
2563.5194
2563.5219
2563.5317
2564.5547
2564.5569
2564.5594
2564.5621
2564.5644
2564.5662
2564.5674
2564.5683
2564.569
2564.5695
2564.57
2564.5705
2564.571
2564.5714
2564.5719
2564.5725
2564.573
2564.5736
2564.5741
2564.5747
2564.5753
2564.576
2564.5766
2564.5773
2564.5779
2564.5786
2564.5793
2564.58
2564.5808
2564.5815
2564.5823
2564.5831
2564.5839
2564.5847
2564.5855
2564.5863
2564.5872
2564.5881
2564.589
2564.5899
2564.5908
2564.5917
2564.5926
2564.5937
2564.5949
2564.5965
2564.5986
2564.6019
2564.6045
2564.6146
2565.6146
2565.6169
2565.6195
2565.6223
2565.6247
2565.6266
2565.6278
2565.6288
2565.6295
2565.6301
2565.6306
2565.6311
2565.6316
2565.6321
2565.6326
2565.6331
2565.6337
2565.6343
2565.6349
2565.6355
2565.6361
2565.6368
2565.6374
2565.6381
2565.6388
2565.6395
2565.6403
2565.641
2565.6418
2565.6426
2565.6433
2565.6442
2565.645
2565.6458
2565.6467
2565.6476
2565.6485
2565.6494
2565.6503
2565.6512
2565.6522
2565.6531
2565.6541
2565.6552
2565.6565
2565.6581