/*--------------------------------*- C++ -*----------------------------------*\
| =========                 |                                                 |
| \\      /  F ield         | OpenFOAM: The Open Source CFD Toolbox           |
|  \\    /   O peration     | Version:  4.0                                   |
|   \\  /    A nd           | Web:      www.OpenFOAM.org                      |
|    \\/     M anipulation  |                                                 |
\*---------------------------------------------------------------------------*/
FoamFile
{
    version     2.0;
    format      ascii;
    class       volScalarField;
    location    "3000/fluid";
    object      ILambda_0_0;
}
// * * * * * * * * * * * * * * * * * * * * * * * * * * * * * * * * * * * * * //

dimensions      [1 0 -3 0 0 0 0];

internalField   nonuniform List<scalar> 
5000
(
226.5114
226.51143
226.51147
226.51151
226.51154
226.51156
226.51158
226.51159
226.5116
226.5116
226.51161
226.51162
226.51162
226.51163
226.51163
226.51164
226.51164
226.51165
226.51166
226.51166
226.51167
226.51168
226.51168
226.51169
226.5117
226.5117
226.51171
226.51172
226.51173
226.51173
226.51174
226.51175
226.51176
226.51176
226.51177
226.51178
226.51179
226.51179
226.5118
226.51181
226.51182
226.51182
226.51183
226.51184
226.51185
226.51186
226.51188
226.5119
226.51192
226.51197
232.04104
232.04107
232.04111
232.04114
232.04117
232.04119
232.0412
232.04121
232.04122
232.04122
232.04123
232.04124
232.04124
232.04124
232.04125
232.04126
232.04126
232.04127
232.04127
232.04128
232.04128
232.04129
232.0413
232.0413
232.04131
232.04131
232.04132
232.04133
232.04133
232.04134
232.04135
232.04135
232.04136
232.04137
232.04137
232.04138
232.04139
232.04139
232.0414
232.04141
232.04141
232.04142
232.04143
232.04143
232.04144
232.04145
232.04147
232.04148
232.0415
232.04155
236.67406
236.67408
236.67411
236.67414
236.67417
236.67419
236.6742
236.67421
236.67421
236.67422
236.67422
236.67423
236.67423
236.67424
236.67424
236.67425
236.67425
236.67425
236.67426
236.67426
236.67427
236.67427
236.67428
236.67429
236.67429
236.6743
236.6743
236.67431
236.67431
236.67432
236.67432
236.67433
236.67434
236.67434
236.67435
236.67435
236.67436
236.67436
236.67437
236.67438
236.67438
236.67439
236.67439
236.6744
236.67441
236.67442
236.67443
236.67444
236.67446
236.6745
240.498
240.49802
240.49805
240.49807
240.49809
240.49811
240.49812
240.49813
240.49813
240.49814
240.49814
240.49815
240.49815
240.49815
240.49816
240.49816
240.49817
240.49817
240.49818
240.49818
240.49818
240.49819
240.49819
240.4982
240.4982
240.49821
240.49821
240.49822
240.49822
240.49823
240.49823
240.49824
240.49824
240.49825
240.49825
240.49826
240.49826
240.49827
240.49827
240.49828
240.49828
240.49829
240.49829
240.4983
240.4983
240.49831
240.49832
240.49833
240.49834
240.49838
243.68773
243.68775
243.68778
243.6878
243.68782
243.68783
243.68784
243.68785
243.68785
243.68786
243.68786
243.68786
243.68787
243.68787
243.68787
243.68788
243.68788
243.68788
243.68789
243.68789
243.6879
243.6879
243.6879
243.68791
243.68791
243.68792
243.68792
243.68792
243.68793
243.68793
243.68794
243.68794
243.68795
243.68795
243.68795
243.68796
243.68796
243.68797
243.68797
243.68798
243.68798
243.68798
243.68799
243.68799
243.688
243.68801
243.68801
243.68802
243.68803
243.68806
246.36575
246.36577
246.36579
246.36581
246.36582
246.36584
246.36585
246.36585
246.36586
246.36586
246.36586
246.36587
246.36587
246.36587
246.36587
246.36588
246.36588
246.36588
246.36589
246.36589
246.36589
246.3659
246.3659
246.3659
246.36591
246.36591
246.36591
246.36592
246.36592
246.36593
246.36593
246.36593
246.36594
246.36594
246.36594
246.36595
246.36595
246.36596
246.36596
246.36596
246.36597
246.36597
246.36597
246.36598
246.36598
246.36599
246.366
246.36601
246.36601
246.36604
248.6371
248.63711
248.63713
248.63715
248.63717
248.63718
248.63718
248.63719
248.63719
248.6372
248.6372
248.6372
248.6372
248.63721
248.63721
248.63721
248.63722
248.63722
248.63722
248.63722
248.63723
248.63723
248.63723
248.63724
248.63724
248.63724
248.63725
248.63725
248.63725
248.63726
248.63726
248.63726
248.63727
248.63727
248.63727
248.63728
248.63728
248.63728
248.63729
248.63729
248.63729
248.6373
248.6373
248.6373
248.63731
248.63731
248.63732
248.63733
248.63733
248.63735
250.58166
250.58167
250.58169
250.5817
250.58172
250.58173
250.58174
250.58174
250.58174
250.58175
250.58175
250.58175
250.58175
250.58176
250.58176
250.58176
250.58176
250.58177
250.58177
250.58177
250.58177
250.58178
250.58178
250.58178
250.58179
250.58179
250.58179
250.58179
250.5818
250.5818
250.5818
250.58181
250.58181
250.58181
250.58181
250.58182
250.58182
250.58182
250.58183
250.58183
250.58183
250.58183
250.58184
250.58184
250.58184
250.58185
250.58185
250.58186
250.58187
250.58188
252.26525
252.26526
252.26528
252.26529
252.26531
252.26532
252.26532
252.26533
252.26533
252.26533
252.26533
252.26534
252.26534
252.26534
252.26534
252.26535
252.26535
252.26535
252.26535
252.26536
252.26536
252.26536
252.26536
252.26537
252.26537
252.26537
252.26537
252.26538
252.26538
252.26538
252.26538
252.26539
252.26539
252.26539
252.26539
252.2654
252.2654
252.2654
252.2654
252.26541
252.26541
252.26541
252.26542
252.26542
252.26542
252.26543
252.26543
252.26544
252.26544
252.26546
253.73794
253.73795
253.73796
253.73798
253.73799
253.738
253.73801
253.73801
253.73801
253.73801
253.73802
253.73802
253.73802
253.73802
253.73802
253.73803
253.73803
253.73803
253.73803
253.73804
253.73804
253.73804
253.73804
253.73804
253.73805
253.73805
253.73805
253.73805
253.73806
253.73806
253.73806
253.73806
253.73807
253.73807
253.73807
253.73807
253.73808
253.73808
253.73808
253.73808
253.73809
253.73809
253.73809
253.73809
253.7381
253.7381
253.73811
253.73811
253.73812
253.73813
255.03974
255.03976
255.03977
255.03978
255.03979
255.0398
255.03981
255.03981
255.03981
255.03982
255.03982
255.03982
255.03982
255.03982
255.03983
255.03983
255.03983
255.03983
255.03983
255.03984
255.03984
255.03984
255.03984
255.03984
255.03985
255.03985
255.03985
255.03985
255.03986
255.03986
255.03986
255.03986
255.03987
255.03987
255.03987
255.03987
255.03988
255.03988
255.03988
255.03988
255.03988
255.03989
255.03989
255.03989
255.03989
255.0399
255.0399
255.03991
255.03991
255.03993
256.20133
256.20134
256.20135
256.20137
256.20138
256.20138
256.20139
256.20139
256.2014
256.2014
256.2014
256.2014
256.2014
256.20141
256.20141
256.20141
256.20141
256.20141
256.20142
256.20142
256.20142
256.20142
256.20142
256.20143
256.20143
256.20143
256.20143
256.20144
256.20144
256.20144
256.20144
256.20144
256.20145
256.20145
256.20145
256.20145
256.20146
256.20146
256.20146
256.20146
256.20147
256.20147
256.20147
256.20147
256.20148
256.20148
256.20148
256.20149
256.2015
256.20151
257.24706
257.24708
257.24709
257.2471
257.24711
257.24712
257.24712
257.24713
257.24713
257.24713
257.24713
257.24714
257.24714
257.24714
257.24714
257.24714
257.24715
257.24715
257.24715
257.24715
257.24715
257.24716
257.24716
257.24716
257.24716
257.24717
257.24717
257.24717
257.24717
257.24717
257.24718
257.24718
257.24718
257.24718
257.24719
257.24719
257.24719
257.24719
257.2472
257.2472
257.2472
257.2472
257.24721
257.24721
257.24721
257.24722
257.24722
257.24723
257.24723
257.24725
258.19593
258.19594
258.19596
258.19597
258.19598
258.19599
258.19599
258.196
258.196
258.196
258.196
258.19601
258.19601
258.19601
258.19601
258.19601
258.19602
258.19602
258.19602
258.19602
258.19602
258.19603
258.19603
258.19603
258.19603
258.19604
258.19604
258.19604
258.19604
258.19604
258.19605
258.19605
258.19605
258.19606
258.19606
258.19606
258.19606
258.19607
258.19607
258.19607
258.19607
258.19608
258.19608
258.19608
258.19609
258.19609
258.1961
258.1961
258.19611
258.19613
259.06313
259.06314
259.06315
259.06316
259.06318
259.06318
259.06319
259.06319
259.0632
259.0632
259.0632
259.0632
259.0632
259.06321
259.06321
259.06321
259.06321
259.06322
259.06322
259.06322
259.06322
259.06322
259.06323
259.06323
259.06323
259.06323
259.06324
259.06324
259.06324
259.06325
259.06325
259.06325
259.06325
259.06326
259.06326
259.06326
259.06327
259.06327
259.06327
259.06327
259.06328
259.06328
259.06328
259.06329
259.06329
259.0633
259.0633
259.06331
259.06332
259.06335
259.86072
259.86074
259.86075
259.86076
259.86078
259.86078
259.86079
259.86079
259.8608
259.8608
259.8608
259.8608
259.86081
259.86081
259.86081
259.86081
259.86082
259.86082
259.86082
259.86082
259.86083
259.86083
259.86083
259.86083
259.86084
259.86084
259.86084
259.86085
259.86085
259.86085
259.86085
259.86086
259.86086
259.86086
259.86087
259.86087
259.86087
259.86088
259.86088
259.86088
259.86089
259.86089
259.86089
259.8609
259.8609
259.86091
259.86092
259.86093
259.86094
259.86097
260.59852
260.59853
260.59855
260.59856
260.59857
260.59858
260.59859
260.59859
260.5986
260.5986
260.5986
260.5986
260.59861
260.59861
260.59861
260.59861
260.59862
260.59862
260.59862
260.59862
260.59863
260.59863
260.59863
260.59864
260.59864
260.59864
260.59865
260.59865
260.59865
260.59866
260.59866
260.59866
260.59867
260.59867
260.59867
260.59868
260.59868
260.59869
260.59869
260.59869
260.5987
260.5987
260.59871
260.59871
260.59872
260.59872
260.59873
260.59875
260.59876
260.5988
261.28445
261.28447
261.28448
261.2845
261.28451
261.28452
261.28453
261.28454
261.28454
261.28454
261.28455
261.28455
261.28455
261.28455
261.28456
261.28456
261.28456
261.28456
261.28457
261.28457
261.28457
261.28458
261.28458
261.28458
261.28459
261.28459
261.2846
261.2846
261.2846
261.28461
261.28461
261.28462
261.28462
261.28462
261.28463
261.28463
261.28464
261.28464
261.28465
261.28465
261.28466
261.28466
261.28467
261.28467
261.28468
261.28469
261.2847
261.28471
261.28473
261.28478
261.92508
261.92509
261.92511
261.92513
261.92514
261.92515
261.92516
261.92517
261.92517
261.92518
261.92518
261.92518
261.92519
261.92519
261.92519
261.92519
261.9252
261.9252
261.92521
261.92521
261.92521
261.92522
261.92522
261.92522
261.92523
261.92523
261.92524
261.92524
261.92525
261.92525
261.92526
261.92526
261.92527
261.92527
261.92528
261.92528
261.92529
261.92529
261.9253
261.9253
261.92531
261.92531
261.92532
261.92533
261.92533
261.92534
261.92536
261.92538
261.92539
261.92546
262.52581
262.52582
262.52584
262.52586
262.52588
262.52589
262.5259
262.52591
262.52591
262.52592
262.52592
262.52592
262.52593
262.52593
262.52593
262.52594
262.52594
262.52595
262.52595
262.52595
262.52596
262.52596
262.52597
262.52597
262.52598
262.52598
262.52599
262.52599
262.526
262.526
262.52601
262.52601
262.52602
262.52603
262.52603
262.52604
262.52604
262.52605
262.52606
262.52606
262.52607
262.52608
262.52608
262.52609
262.5261
262.52611
262.52613
262.52615
262.52617
262.52625
263.09117
263.09119
263.09121
263.09123
263.09125
263.09127
263.09128
263.09129
263.09129
263.0913
263.0913
263.0913
263.09131
263.09131
263.09132
263.09132
263.09133
263.09133
263.09134
263.09134
263.09135
263.09135
263.09136
263.09136
263.09137
263.09137
263.09138
263.09138
263.09139
263.0914
263.0914
263.09141
263.09142
263.09142
263.09143
263.09144
263.09144
263.09145
263.09146
263.09147
263.09147
263.09148
263.09149
263.0915
263.09151
263.09152
263.09154
263.09157
263.09159
263.09169
263.62499
263.62501
263.62504
263.62506
263.62509
263.6251
263.62511
263.62512
263.62513
263.62513
263.62514
263.62514
263.62515
263.62515
263.62516
263.62516
263.62517
263.62517
263.62518
263.62518
263.62519
263.6252
263.6252
263.62521
263.62522
263.62522
263.62523
263.62524
263.62524
263.62525
263.62526
263.62527
263.62527
263.62528
263.62529
263.6253
263.62531
263.62531
263.62532
263.62533
263.62534
263.62535
263.62536
263.62537
263.62538
263.6254
263.62542
263.62545
263.62548
263.62559
264.13051
264.13054
264.13057
264.13059
264.13062
264.13064
264.13065
264.13066
264.13067
264.13068
264.13068
264.13069
264.13069
264.1307
264.1307
264.13071
264.13071
264.13072
264.13073
264.13073
264.13074
264.13075
264.13075
264.13076
264.13077
264.13078
264.13078
264.13079
264.1308
264.13081
264.13082
264.13082
264.13083
264.13084
264.13085
264.13086
264.13087
264.13088
264.13089
264.1309
264.13091
264.13092
264.13093
264.13095
264.13096
264.13098
264.131
264.13104
264.13107
264.1312
264.61051
264.61054
264.61057
264.6106
264.61063
264.61065
264.61067
264.61068
264.61069
264.61069
264.6107
264.61071
264.61071
264.61072
264.61072
264.61073
264.61074
264.61074
264.61075
264.61076
264.61077
264.61077
264.61078
264.61079
264.6108
264.61081
264.61082
264.61083
264.61083
264.61084
264.61085
264.61086
264.61087
264.61088
264.6109
264.61091
264.61092
264.61093
264.61094
264.61095
264.61096
264.61098
264.61099
264.611
264.61102
264.61104
264.61107
264.61111
264.61115
264.6113
265.06737
265.0674
265.06744
265.06747
265.06751
265.06753
265.06755
265.06756
265.06757
265.06758
265.06759
265.06759
265.0676
265.06761
265.06761
265.06762
265.06763
265.06764
265.06764
265.06765
265.06766
265.06767
265.06768
265.06769
265.0677
265.06771
265.06772
265.06773
265.06774
265.06775
265.06776
265.06777
265.06779
265.0678
265.06781
265.06782
265.06784
265.06785
265.06786
265.06788
265.06789
265.0679
265.06792
265.06793
265.06795
265.06798
265.06801
265.06806
265.0681
265.06827
265.50317
265.50321
265.50325
265.50329
265.50333
265.50335
265.50337
265.50339
265.5034
265.50341
265.50341
265.50342
265.50343
265.50344
265.50345
265.50345
265.50346
265.50347
265.50348
265.50349
265.5035
265.50351
265.50352
265.50353
265.50354
265.50355
265.50357
265.50358
265.50359
265.5036
265.50361
265.50363
265.50364
265.50365
265.50367
265.50368
265.5037
265.50371
265.50373
265.50374
265.50376
265.50377
265.50379
265.50381
265.50383
265.50386
265.50389
265.50395
265.504
265.50419
265.91972
265.91976
265.9198
265.91985
265.91989
265.91992
265.91995
265.91996
265.91997
265.91998
265.91999
265.92
265.92001
265.92002
265.92003
265.92004
265.92005
265.92006
265.92007
265.92008
265.92009
265.9201
265.92011
265.92013
265.92014
265.92015
265.92016
265.92018
265.92019
265.9202
265.92022
265.92023
265.92025
265.92026
265.92028
265.9203
265.92031
265.92033
265.92035
265.92036
265.92038
265.9204
265.92042
265.92044
265.92046
265.92049
265.92053
265.9206
265.92065
265.92087
266.3186
266.31865
266.3187
266.31875
266.3188
266.31883
266.31886
266.31887
266.31889
266.3189
266.31891
266.31892
266.31893
266.31894
266.31895
266.31896
266.31897
266.31898
266.31899
266.319
266.31902
266.31903
266.31904
266.31906
266.31907
266.31909
266.3191
266.31912
266.31913
266.31915
266.31916
266.31918
266.3192
266.31921
266.31923
266.31925
266.31927
266.31929
266.3193
266.31932
266.31934
266.31936
266.31938
266.31941
266.31943
266.31947
266.31951
266.31959
266.31965
266.31989
266.70122
266.70127
266.70132
266.70138
266.70143
266.70147
266.7015
266.70152
266.70154
266.70155
266.70156
266.70157
266.70158
266.70159
266.7016
266.70162
266.70163
266.70164
266.70165
266.70167
266.70168
266.7017
266.70171
266.70173
266.70174
266.70176
266.70177
266.70179
266.70181
266.70182
266.70184
266.70186
266.70188
266.7019
266.70192
266.70194
266.70196
266.70198
266.702
266.70202
266.70205
266.70207
266.70209
266.70212
266.70215
266.70219
266.70224
266.70232
266.70239
266.70266
267.06881
267.06886
267.06892
267.06899
267.06905
267.06909
267.06912
267.06914
267.06916
267.06917
267.06919
267.0692
267.06921
267.06922
267.06923
267.06925
267.06926
267.06928
267.06929
267.06931
267.06932
267.06934
267.06935
267.06937
267.06939
267.06941
267.06942
267.06944
267.06946
267.06948
267.0695
267.06952
267.06954
267.06956
267.06959
267.06961
267.06963
267.06965
267.06968
267.0697
267.06973
267.06975
267.06978
267.0698
267.06984
267.06988
267.06994
267.07003
267.0701
267.0704
267.42247
267.42253
267.4226
267.42267
267.42274
267.42278
267.42282
267.42284
267.42286
267.42288
267.42289
267.4229
267.42292
267.42293
267.42295
267.42296
267.42297
267.42299
267.42301
267.42302
267.42304
267.42306
267.42308
267.4231
267.42312
267.42313
267.42316
267.42318
267.4232
267.42322
267.42324
267.42326
267.42329
267.42331
267.42333
267.42336
267.42338
267.42341
267.42344
267.42346
267.42349
267.42352
267.42354
267.42358
267.42361
267.42366
267.42372
267.42383
267.42391
267.42424
267.7632
267.76327
267.76334
267.76342
267.76349
267.76355
267.76358
267.76361
267.76363
267.76365
267.76366
267.76368
267.76369
267.76371
267.76372
267.76374
267.76376
267.76377
267.76379
267.76381
267.76383
267.76385
267.76387
267.76389
267.76391
267.76393
267.76395
267.76398
267.764
267.76402
267.76405
267.76407
267.7641
267.76412
267.76415
267.76418
267.76421
267.76424
267.76426
267.76429
267.76432
267.76435
267.76438
267.76442
267.76446
267.76451
267.76458
267.7647
267.76478
267.76515
268.09188
268.09195
268.09203
268.09212
268.0922
268.09226
268.0923
268.09233
268.09235
268.09237
268.09239
268.0924
268.09242
268.09244
268.09245
268.09247
268.09249
268.09251
268.09253
268.09255
268.09257
268.09259
268.09261
268.09264
268.09266
268.09268
268.09271
268.09273
268.09276
268.09278
268.09281
268.09284
268.09287
268.09289
268.09292
268.09295
268.09298
268.09302
268.09305
268.09308
268.09311
268.09314
268.09318
268.09322
268.09326
268.09332
268.0934
268.09352
268.09362
268.09401
268.40931
268.40938
268.40948
268.40957
268.40966
268.40972
268.40976
268.4098
268.40982
268.40984
268.40986
268.40988
268.4099
268.40992
268.40993
268.40995
268.40997
268.40999
268.41002
268.41004
268.41006
268.41008
268.41011
268.41013
268.41016
268.41018
268.41021
268.41024
268.41027
268.4103
268.41032
268.41035
268.41039
268.41042
268.41045
268.41048
268.41051
268.41055
268.41058
268.41062
268.41065
268.41069
268.41073
268.41077
268.41082
268.41088
268.41096
268.4111
268.4112
268.41163
268.7162
268.71629
268.71639
268.71649
268.71658
268.71665
268.7167
268.71674
268.71677
268.71679
268.71681
268.71683
268.71685
268.71687
268.71689
268.71691
268.71693
268.71695
268.71698
268.717
268.71703
268.71705
268.71708
268.7171
268.71713
268.71716
268.71719
268.71722
268.71725
268.71728
268.71731
268.71735
268.71738
268.71741
268.71745
268.71748
268.71752
268.71756
268.7176
268.71763
268.71767
268.71771
268.71775
268.7178
268.71785
268.71792
268.71801
268.71816
268.71827
268.71874
269.01322
269.01331
269.01342
269.01354
269.01364
269.01371
269.01377
269.01381
269.01384
269.01386
269.01388
269.0139
269.01392
269.01395
269.01397
269.01399
269.01401
269.01404
269.01406
269.01409
269.01412
269.01415
269.01418
269.0142
269.01423
269.01427
269.0143
269.01433
269.01436
269.0144
269.01443
269.01447
269.0145
269.01454
269.01458
269.01462
269.01466
269.0147
269.01474
269.01478
269.01482
269.01486
269.01491
269.01495
269.01501
269.01509
269.01519
269.01535
269.01547
269.01597
269.30096
269.30106
269.30118
269.30131
269.30142
269.3015
269.30155
269.3016
269.30163
269.30166
269.30168
269.3017
269.30172
269.30175
269.30177
269.3018
269.30182
269.30185
269.30188
269.30191
269.30194
269.30197
269.302
269.30203
269.30206
269.30209
269.30213
269.30216
269.3022
269.30224
269.30227
269.30231
269.30235
269.30239
269.30243
269.30247
269.30252
269.30256
269.30261
269.30265
269.3027
269.30274
269.30279
269.30284
269.3029
269.30299
269.30309
269.30326
269.3034
269.30394
269.57997
269.58008
269.5802
269.58034
269.58046
269.58055
269.58061
269.58065
269.58069
269.58072
269.58074
269.58077
269.58079
269.58082
269.58084
269.58087
269.5809
269.58093
269.58096
269.58099
269.58102
269.58105
269.58109
269.58112
269.58116
269.58119
269.58123
269.58127
269.58131
269.58134
269.58139
269.58143
269.58147
269.58151
269.58156
269.5816
269.58165
269.5817
269.58174
269.58179
269.58184
269.58189
269.58194
269.582
269.58206
269.58215
269.58227
269.58245
269.58259
269.58318
269.85074
269.85085
269.85099
269.85114
269.85126
269.85136
269.85143
269.85147
269.85151
269.85154
269.85157
269.8516
269.85162
269.85165
269.85168
269.85171
269.85174
269.85177
269.8518
269.85183
269.85187
269.8519
269.85194
269.85198
269.85202
269.85205
269.85209
269.85214
269.85218
269.85222
269.85226
269.85231
269.85235
269.8524
269.85245
269.8525
269.85255
269.8526
269.85265
269.8527
269.85275
269.8528
269.85286
269.85292
269.85299
269.85309
269.85321
269.85341
269.85356
269.85419
270.11372
270.11384
270.11399
270.11415
270.11429
270.11439
270.11446
270.11452
270.11456
270.11459
270.11462
270.11465
270.11468
270.11471
270.11474
270.11477
270.1148
270.11483
270.11487
270.1149
270.11494
270.11498
270.11502
270.11506
270.1151
270.11514
270.11518
270.11523
270.11527
270.11532
270.11536
270.11541
270.11546
270.11551
270.11556
270.11561
270.11567
270.11572
270.11578
270.11583
270.11589
270.11594
270.116
270.11607
270.11615
270.11625
270.11638
270.11659
270.11676
270.11742
270.36934
270.36948
270.36964
270.36981
270.36995
270.37006
270.37014
270.3702
270.37024
270.37028
270.37031
270.37034
270.37037
270.3704
270.37043
270.37047
270.3705
270.37054
270.37057
270.37061
270.37065
270.37069
270.37073
270.37078
270.37082
270.37087
270.37091
270.37096
270.37101
270.37106
270.37111
270.37116
270.37121
270.37126
270.37132
270.37137
270.37143
270.37149
270.37155
270.37161
270.37167
270.37173
270.37179
270.37186
270.37194
270.37205
270.37219
270.37242
270.37259
270.37331
270.61799
270.61813
270.61831
270.61849
270.61864
270.61876
270.61885
270.61891
270.61895
270.61899
270.61903
270.61906
270.61909
270.61912
270.61916
270.61919
270.61923
270.61927
270.61931
270.61935
270.61939
270.61944
270.61948
270.61953
270.61957
270.61962
270.61967
270.61972
270.61977
270.61982
270.61988
270.61993
270.61999
270.62005
270.6201
270.62016
270.62022
270.62029
270.62035
270.62041
270.62048
270.62054
270.62061
270.62068
270.62077
270.62089
270.62104
270.62128
270.62147
270.62222
270.86002
270.86018
270.86036
270.86055
270.86072
270.86085
270.86094
270.861
270.86105
270.86109
270.86113
270.86116
270.8612
270.86123
270.86127
270.86131
270.86135
270.86139
270.86143
270.86147
270.86152
270.86156
270.86161
270.86166
270.86171
270.86176
270.86181
270.86187
270.86192
270.86198
270.86204
270.86209
270.86215
270.86221
270.86228
270.86234
270.86241
270.86247
270.86254
270.86261
270.86268
270.86274
270.86281
270.86289
270.86299
270.86311
270.86327
270.86353
270.86373
270.86453
271.09577
271.09593
271.09613
271.09633
271.09651
271.09665
271.09674
271.09681
271.09686
271.09691
271.09695
271.09698
271.09702
271.09706
271.0971
271.09714
271.09718
271.09722
271.09727
271.09731
271.09736
271.09741
271.09746
271.09751
271.09757
271.09762
271.09768
271.09773
271.09779
271.09785
271.09791
271.09797
271.09804
271.0981
271.09817
271.09824
271.0983
271.09838
271.09845
271.09852
271.09859
271.09866
271.09874
271.09882
271.09892
271.09906
271.09922
271.0995
271.09971
271.10056
271.32553
271.3257
271.32591
271.32613
271.32632
271.32647
271.32657
271.32664
271.3267
271.32674
271.32679
271.32682
271.32686
271.3269
271.32695
271.32699
271.32703
271.32708
271.32713
271.32718
271.32723
271.32728
271.32733
271.32739
271.32745
271.3275
271.32756
271.32762
271.32768
271.32775
271.32781
271.32788
271.32795
271.32801
271.32808
271.32816
271.32823
271.3283
271.32838
271.32846
271.32853
271.32861
271.32869
271.32878
271.32889
271.32903
271.3292
271.32949
271.32972
271.33062
271.5496
271.54979
271.55001
271.55024
271.55044
271.55059
271.5507
271.55078
271.55084
271.55089
271.55093
271.55097
271.55102
271.55106
271.5511
271.55115
271.5512
271.55125
271.5513
271.55135
271.5514
271.55146
271.55152
271.55157
271.55163
271.5517
271.55176
271.55182
271.55189
271.55195
271.55202
271.55209
271.55216
271.55224
271.55231
271.55239
271.55246
271.55254
271.55262
271.5527
271.55279
271.55287
271.55295
271.55305
271.55316
271.55331
271.5535
271.5538
271.55404
271.55499
271.76824
271.76844
271.76867
271.76892
271.76913
271.7693
271.76941
271.76949
271.76956
271.76961
271.76965
271.7697
271.76974
271.76979
271.76983
271.76988
271.76993
271.76998
271.77004
271.77009
271.77015
271.77021
271.77027
271.77033
271.7704
271.77046
271.77053
271.77059
271.77066
271.77073
271.77081
271.77088
271.77096
271.77103
271.77111
271.77119
271.77127
271.77136
271.77144
271.77153
271.77161
271.7717
271.77179
271.77189
271.77201
271.77216
271.77236
271.77269
271.77293
271.77394
271.9817
271.98191
271.98216
271.98242
271.98265
271.98282
271.98294
271.98302
271.98309
271.98315
271.9832
271.98324
271.98329
271.98334
271.98339
271.98344
271.98349
271.98354
271.9836
271.98366
271.98372
271.98378
271.98385
271.98391
271.98398
271.98405
271.98412
271.98419
271.98426
271.98434
271.98441
271.98449
271.98457
271.98465
271.98474
271.98482
271.98491
271.985
271.98508
271.98518
271.98527
271.98536
271.98545
271.98556
271.98568
271.98585
271.98606
271.9864
271.98666
271.98771
272.19021
272.19043
272.19069
272.19097
272.19121
272.19139
272.19151
272.19161
272.19168
272.19174
272.19179
272.19184
272.19189
272.19194
272.19199
272.19204
272.1921
272.19216
272.19222
272.19228
272.19234
272.19241
272.19248
272.19255
272.19262
272.19269
272.19276
272.19284
272.19291
272.19299
272.19307
272.19316
272.19324
272.19333
272.19341
272.1935
272.19359
272.19369
272.19378
272.19388
272.19397
272.19407
272.19417
272.19428
272.19441
272.19458
272.1948
272.19516
272.19544
272.19654
272.39398
272.39421
272.39449
272.39478
272.39504
272.39523
272.39536
272.39546
272.39553
272.3956
272.39565
272.3957
272.39575
272.39581
272.39586
272.39592
272.39598
272.39604
272.3961
272.39617
272.39623
272.3963
272.39637
272.39645
272.39652
272.3966
272.39667
272.39675
272.39683
272.39692
272.397
272.39709
272.39718
272.39727
272.39736
272.39745
272.39755
272.39765
272.39775
272.39785
272.39795
272.39805
272.39815
272.39827
272.39841
272.39859
272.39882
272.3992
272.39948
272.40064
272.59322
272.59347
272.59376
272.59407
272.59434
272.59454
272.59468
272.59478
272.59486
272.59492
272.59498
272.59503
272.59509
272.59515
272.5952
272.59526
272.59532
272.59539
272.59546
272.59552
272.59559
272.59567
272.59574
272.59582
272.5959
272.59598
272.59606
272.59614
272.59623
272.59631
272.5964
272.59649
272.59659
272.59668
272.59678
272.59688
272.59698
272.59708
272.59718
272.59729
272.5974
272.5975
272.59761
272.59773
272.59788
272.59807
272.59831
272.59871
272.59901
272.60022
272.78812
272.78838
272.78869
272.78901
272.78929
272.7895
272.78965
272.78976
272.78984
272.78991
272.78997
272.79003
272.79009
272.79014
272.7902
272.79027
272.79033
272.7904
272.79047
272.79054
272.79062
272.79069
272.79077
272.79085
272.79093
272.79102
272.7911
272.79119
272.79128
272.79137
272.79146
272.79156
272.79166
272.79176
272.79186
272.79196
272.79207
272.79218
272.79228
272.79239
272.79251
272.79262
272.79273
272.79286
272.79301
272.79321
272.79347
272.79388
272.7942
272.79546
272.97886
272.97913
272.97945
272.97979
272.98009
272.98031
272.98046
272.98058
272.98066
272.98074
272.9808
272.98086
272.98092
272.98098
272.98104
272.98111
272.98118
272.98125
272.98132
272.9814
272.98148
272.98156
272.98164
272.98172
272.98181
272.9819
272.98199
272.98208
272.98217
272.98227
272.98237
272.98247
272.98257
272.98267
272.98278
272.98289
272.983
272.98311
272.98322
272.98334
272.98346
272.98357
272.98369
272.98383
272.98399
272.9842
272.98446
272.98489
272.98522
272.98655
273.1656
273.16588
273.16622
273.16658
273.16689
273.16712
273.16728
273.1674
273.16749
273.16757
273.16763
273.1677
273.16776
273.16782
273.16789
273.16796
273.16803
273.1681
273.16818
273.16826
273.16834
273.16843
273.16851
273.1686
273.16869
273.16878
273.16888
273.16897
273.16907
273.16917
273.16927
273.16938
273.16948
273.16959
273.16971
273.16982
273.16993
273.17005
273.17017
273.17029
273.17041
273.17054
273.17066
273.1708
273.17097
273.17119
273.17147
273.17192
273.17226
273.17364
273.3485
273.3488
273.34915
273.34952
273.34985
273.35009
273.35026
273.35039
273.35048
273.35056
273.35063
273.3507
273.35076
273.35083
273.3509
273.35097
273.35105
273.35112
273.3512
273.35129
273.35137
273.35146
273.35155
273.35164
273.35174
273.35183
273.35193
273.35203
273.35213
273.35224
273.35235
273.35246
273.35257
273.35268
273.3528
273.35292
273.35304
273.35316
273.35329
273.35341
273.35354
273.35367
273.3538
273.35394
273.35412
273.35435
273.35464
273.35511
273.35547
273.35691
273.52771
273.52802
273.52839
273.52878
273.52912
273.52938
273.52955
273.52968
273.52978
273.52987
273.52994
273.53001
273.53008
273.53015
273.53022
273.5303
273.53037
273.53046
273.53054
273.53063
273.53072
273.53081
273.5309
273.531
273.5311
273.5312
273.5313
273.5314
273.53151
273.53162
273.53173
273.53185
273.53196
273.53208
273.5322
273.53233
273.53245
273.53258
273.53271
273.53284
273.53298
273.53311
273.53325
273.5334
273.53358
273.53382
273.53412
273.53461
273.53499
273.53649
273.70337
273.70369
273.70408
273.70449
273.70485
273.70511
273.7053
273.70543
273.70554
273.70563
273.7057
273.70577
273.70584
273.70592
273.70599
273.70607
273.70616
273.70624
273.70633
273.70642
273.70651
273.70661
273.70671
273.70681
273.70691
273.70701
273.70712
273.70723
273.70734
273.70746
273.70757
273.70769
273.70781
273.70794
273.70806
273.70819
273.70832
273.70846
273.70859
273.70873
273.70887
273.70901
273.70915
273.70931
273.7095
273.70975
273.71006
273.71057
273.71096
273.71252
273.87561
273.87595
273.87636
273.87679
273.87716
273.87743
273.87763
273.87777
273.87788
273.87797
273.87805
273.87812
273.8782
273.87827
273.87835
273.87844
273.87852
273.87861
273.8787
273.8788
273.87889
273.87899
273.87909
273.8792
273.87931
273.87942
273.87953
273.87964
273.87976
273.87988
273.88
273.88012
273.88025
273.88038
273.88051
273.88064
273.88078
273.88092
273.88106
273.88121
273.88135
273.88149
273.88164
273.88181
273.882
273.88226
273.88259
273.88312
273.88353
273.88514
274.04456
274.04492
274.04534
274.04579
274.04618
274.04646
274.04667
274.04681
274.04693
274.04702
274.04711
274.04718
274.04726
274.04734
274.04742
274.04751
274.0476
274.04769
274.04779
274.04788
274.04798
274.04809
274.0482
274.0483
274.04842
274.04853
274.04865
274.04876
274.04889
274.04901
274.04914
274.04927
274.0494
274.04953
274.04967
274.04981
274.04995
274.0501
274.05024
274.05039
274.05054
274.05069
274.05085
274.05102
274.05122
274.05149
274.05183