/*--------------------------------*- C++ -*----------------------------------*\
| =========                 |                                                 |
| \\      /  F ield         | OpenFOAM: The Open Source CFD Toolbox           |
|  \\    /   O peration     | Version:  4.0                                   |
|   \\  /    A nd           | Web:      www.OpenFOAM.org                      |
|    \\/     M anipulation  |                                                 |
\*---------------------------------------------------------------------------*/
FoamFile
{
    version     2.0;
    format      ascii;
    class       surfaceScalarField;
    location    "3000/fluid";
    object      phi;
}
// * * * * * * * * * * * * * * * * * * * * * * * * * * * * * * * * * * * * * //

dimensions      [1 0 -1 0 0 0 0];

internalField   nonuniform List<scalar> 
9850
(
2.6396005e-11
1.4486803e-10
1.0665138e-10
4.8310984e-10
2.4420728e-10
9.1667501e-10
4.3950043e-10
1.4635311e-09
6.8870535e-10
2.1431566e-09
9.8253827e-10
2.9759149e-09
1.3052433e-09
3.9821296e-09
1.6340038e-09
5.1808948e-09
1.9390656e-09
6.5886253e-09
2.184856e-09
8.2175618e-09
2.3322822e-09
1.0074543e-08
2.3422411e-09
1.2160425e-08
2.1800799e-09
1.4470669e-08
1.8204558e-09
1.6997674e-08
1.2517402e-09
1.9735082e-08
4.7900877e-10
2.2684227e-08
-4.7523192e-10
2.5862373e-08
-1.5729968e-09
2.9311859e-08
-2.7654358e-09
3.3109169e-08
-3.9991231e-09
3.7372553e-08
-5.2228659e-09
4.2267488e-08
-6.3939259e-09
4.8009524e-08
-7.4827432e-09
5.4864919e-08
-8.4759546e-09
6.3149422e-08
-9.3776104e-09
7.3228136e-08
-1.0209345e-08
8.5515093e-08
-1.1009048e-08
1.004798e-07
-1.1830006e-08
1.1865643e-07
-1.2737602e-08
1.4066303e-07
-1.381052e-08
1.6722631e-07
-1.5134657e-08
1.9921764e-07
-1.6813801e-08
2.3768461e-07
-1.8953412e-08
2.8391141e-07
-2.1697367e-08
3.3943562e-07
-2.5172814e-08
4.0616465e-07
-2.9595306e-08
4.8632682e-07
-3.509807e-08
5.8276253e-07
-4.2016154e-08
6.9862746e-07
-5.0426303e-08
8.3821486e-07
-6.0856419e-08
1.0058503e-06
-7.3187823e-08
1.2081998e-06
-8.8241091e-08
1.4508424e-06
-1.0545983e-07
1.7444975e-06
-1.2598515e-07
2.0954082e-06
-1.4848129e-07
2.5216286e-06
-1.7378073e-07
3.0269117e-06
-1.9972934e-07
3.6443211e-06
-2.2931031e-07
4.3728854e-06
-2.7792284e-07
5.3349521e-06
5.4976309e-06
-3.825107e-11
1.8311913e-10
-1.6644383e-10
6.1130253e-10
-4.0987636e-10
1.1601076e-09
-7.99395e-10
1.8530497e-09
-1.372348e-09
2.7161096e-09
-2.1735682e-09
3.7771353e-09
-3.256178e-09
5.0647393e-09
-4.6819167e-09
6.606633e-09
-6.5205225e-09
8.427231e-09
-8.8475548e-09
1.0544594e-08
-1.1739961e-08
1.2966949e-08
-1.5268813e-08
1.5689276e-08
-1.9489036e-08
1.8690893e-08
-2.4426823e-08
2.193546e-08
-3.0066423e-08
2.537468e-08
-3.6339175e-08
2.8956979e-08
-4.3118184e-08
3.2641382e-08
-5.022145e-08
3.6415122e-08
-5.7424667e-08
4.0312385e-08
-6.4482435e-08
4.4430323e-08
-7.1154137e-08
4.893919e-08
-7.7229571e-08
5.4084959e-08
-8.2549865e-08
6.018521e-08
-8.7020744e-08
6.7620296e-08
-9.0617238e-08
7.6824629e-08
-9.3380617e-08
8.827847e-08
-9.5408461e-08
1.0250764e-07
-9.6840972e-08
1.2008895e-07
-9.7842703e-08
1.4166477e-07
-9.8588411e-08
1.6797202e-07
-9.9243904e-08
1.9987313e-07
-9.996893e-08
2.3840964e-07
-1.0089718e-07
2.8483965e-07
-1.0218138e-07
3.4071981e-07
-1.0393778e-07
4.0792104e-07
-1.0638279e-07
4.8877181e-07
-1.0963976e-07
5.8601949e-07
-1.1410191e-07
7.0308961e-07
-1.1988628e-07
8.4399919e-07
-1.2771495e-07
1.0136789e-06
-1.3764381e-07
1.2181286e-06
-1.5089627e-07
1.4640947e-06
-1.6746375e-07
1.7610649e-06
-1.8917251e-07
2.1171168e-06
-2.1624406e-07
2.5487e-06
-2.5112111e-07
3.0617885e-06
-2.9719841e-07
3.6903982e-06
-3.8732899e-07
4.4630156e-06
-5.2683039e-07
5.4744531e-06
4.9707997e-06
-2.4626391e-11
2.0774532e-10
-1.0901278e-10
6.956888e-10
-2.7302151e-10
1.3241162e-09
-5.4159488e-10
2.1216229e-09
-9.4575164e-10
3.1202665e-09
-1.5236735e-09
4.3550572e-09
-2.3218044e-09
5.8628701e-09
-3.3958516e-09
7.68068e-09
-4.8114749e-09
9.8428544e-09
-6.6443211e-09
1.237744e-08
-8.9788742e-09
1.5301502e-08
-1.1905375e-08
1.8615777e-08
-1.5513898e-08
2.2299416e-08
-1.9884742e-08
2.6306304e-08
-2.5074776e-08
3.0564714e-08
-3.1100525e-08
3.4982729e-08
-3.7920519e-08
3.9461377e-08
-4.5421188e-08
4.391579e-08
-5.3411444e-08
4.830264e-08
-6.1630171e-08
5.264905e-08
-6.9767732e-08
5.7076748e-08
-7.7498574e-08
6.1815799e-08
-8.4518808e-08
6.7205441e-08
-9.0581303e-08
7.368279e-08
-9.5522495e-08
8.1765817e-08
-9.9277085e-08
9.2033062e-08
-1.018806e-07
1.0511116e-07
-1.0346e-07
1.2166835e-07
-1.0421648e-07
1.4242125e-07
-1.0440084e-07
1.6815639e-07
-1.0429127e-07
1.9976356e-07
-1.0416827e-07
2.3828665e-07
-1.0430887e-07
2.8498026e-07
-1.0497237e-07
3.4138331e-07
-1.0642557e-07
4.0937423e-07
-1.0892867e-07
4.9127492e-07
-1.1278691e-07
5.8987772e-07
-1.1831959e-07
7.0862233e-07
-1.2591839e-07
8.5159805e-07
-1.3603888e-07
1.0237994e-06
-1.491919e-07
1.2312816e-06
-1.6614902e-07
1.4810519e-06
-1.8756979e-07
1.7824858e-06
-2.1510879e-07
2.1446559e-06
-2.4927855e-07
2.5828699e-06
-2.9497958e-07
3.1074897e-06
-3.5755873e-07
3.7529776e-06
-4.8176514e-07
4.5872222e-06
-5.5764151e-07
5.5503298e-06
4.4131586e-06
-1.9621142e-11
2.2736651e-10
-8.6844568e-11
7.629123e-10
-2.1740962e-10
1.4546813e-09
-4.3121856e-10
2.3354321e-09
-7.5334413e-10
3.4423922e-09
-1.2151904e-09
4.8169033e-09
-1.8558052e-09
6.5034851e-09
-2.723295e-09
8.54817e-09
-3.8762001e-09
1.099576e-08
-5.3846069e-09
1.3885847e-08
-7.3306094e-09
1.7247505e-08
-9.8075433e-09
2.1092711e-08
-1.2917199e-08
2.5409071e-08
-1.6764073e-08
3.0153179e-08
-2.1445735e-08
3.5246376e-08
-2.7038839e-08
4.0575832e-08
-3.3581432e-08
4.6003971e-08
-4.1053937e-08
5.1388296e-08
-4.9363166e-08
5.6611868e-08
-5.8334891e-08
6.1620775e-08
-6.7719789e-08
6.6461646e-08
-7.7214442e-08
7.1310451e-08
-8.6494658e-08
7.6485654e-08
-9.5254445e-08
8.2442576e-08
-1.0324279e-07
8.9754154e-08
-1.1029109e-07
9.9081364e-08
-1.1632804e-07
1.1114811e-07
-1.2138054e-07
1.2672084e-07
-1.255628e-07
1.4660351e-07
-1.2905558e-07
1.7164918e-07
-1.3208112e-07
2.027891e-07
-1.3487503e-07
2.4108056e-07
-1.3766842e-07
2.8777366e-07
-1.4067047e-07
3.4438536e-07
-1.440833e-07
4.1278705e-07
-1.4809526e-07
4.9528689e-07
-1.5294303e-07
5.947255e-07
-1.5888396e-07
7.1456324e-07
-1.6630512e-07
8.590192e-07
-1.7567222e-07
1.0331665e-06
-1.8759998e-07
1.2432093e-06
-2.0303319e-07
1.496485e-06
-2.2269921e-07
1.8021518e-06
-2.4874262e-07
2.1706992e-06
-2.8126976e-07
2.615397e-06
-3.2686433e-07
3.1530843e-06
-3.943138e-07
3.8204271e-06
-5.0828782e-07
4.7011961e-06
-4.9113287e-07
5.5331748e-06
3.9220257e-06
-1.5063349e-11
2.4243003e-10
-6.6813492e-11
8.1466247e-10
-1.6767089e-10
1.5555385e-09
-3.3349794e-10
2.501259e-09
-5.8444476e-10
3.6933387e-09
-9.459811e-10
5.1784394e-09
-1.4501129e-09
7.007617e-09
-2.1367734e-09
9.2348305e-09
-3.0553254e-09
1.1914312e-08
-4.2660482e-09
1.509657e-08
-5.8413547e-09
1.8822812e-08
-7.8663153e-09
2.3117672e-08
-1.0437837e-08
2.7980593e-08
-1.3661617e-08
3.3376958e-08
-1.7645819e-08
3.9230577e-08
-2.2490494e-08
4.5420507e-08
-2.8272369e-08
5.1785846e-08
-3.5025804e-08
5.814173e-08
-4.27227e-08
6.4308763e-08
-5.1256087e-08
7.0154162e-08
-6.0433193e-08
7.5638753e-08
-6.9982755e-08
8.0860015e-08
-7.9578026e-08
8.6080926e-08
-8.8872301e-08
9.173685e-08
-9.7540398e-08
9.8422249e-08
-1.0531787e-07
1.0685884e-07
-1.1203175e-07
1.1786199e-07
-1.1761856e-07
1.3230765e-07
-1.2212851e-07
1.5111346e-07
-1.2571658e-07
1.7523726e-07
-1.2862235e-07
2.0569487e-07
-1.3114276e-07
2.4360097e-07
-1.3360273e-07
2.9023364e-07
-1.3633182e-07
3.4711445e-07
-1.3964951e-07
4.1610475e-07
-1.4386873e-07
4.9950611e-07
-1.4930067e-07
6.0015747e-07
-1.5629052e-07
7.2155307e-07
-1.6519996e-07
8.6792863e-07
-1.7652559e-07
1.0444922e-06
-1.9071509e-07
1.2573988e-06
-2.0867517e-07
1.5144451e-06
-2.3087546e-07
1.8243521e-06
-2.5917448e-07
2.1989982e-06
-2.9403672e-07
2.6502592e-06
-3.4177257e-07
3.2008202e-06
-4.146028e-07
3.8932572e-06
-5.0692134e-07
4.7935146e-06
-4.2924021e-07
5.4554936e-06
3.4927854e-06
-1.399097e-11
2.5642137e-10
-6.199993e-11
8.626715e-10
-1.5538577e-10
1.6489246e-09
-3.085604e-10
2.6544336e-09
-5.3973715e-10
3.9245155e-09
-8.7182594e-10
5.5105284e-09
-1.3334906e-09
7.4692817e-09
-1.9603685e-09
9.8617081e-09
-2.7964236e-09
1.2750367e-08
-3.8953566e-09
1.6195503e-08
-5.3219129e-09
2.0249369e-08
-7.1528048e-09
2.4948564e-08
-9.47678e-09
3.0304567e-08
-1.2393161e-08
3.6293339e-08
-1.6007953e-08
4.2845367e-08
-2.0426504e-08
4.9839057e-08
-2.5741953e-08
5.7101293e-08
-3.2019379e-08
6.4419154e-08
-3.927706e-08
7.1566443e-08
-4.746812e-08
7.8345223e-08
-5.6467578e-08
8.463821e-08
-6.6070165e-08
9.0462599e-08
-7.6002568e-08
9.6013322e-08
-8.5949823e-08
1.016841e-07
-9.5591681e-08
1.0806411e-07
-1.0464143e-07
1.1590859e-07
-1.1288022e-07
1.2610078e-07
-1.2018119e-07
1.3960862e-07
-1.2652098e-07
1.5745325e-07
-1.3197829e-07
1.8069456e-07
-1.3672027e-07
2.1043687e-07
-1.4098025e-07
2.4786095e-07
-1.4502876e-07
2.9428215e-07
-1.4914847e-07
3.5123416e-07
-1.5361163e-07
4.205679e-07
-1.5868314e-07
5.0457762e-07
-1.6461765e-07
6.0609198e-07
-1.7171239e-07
7.286478e-07
-1.8028937e-07
8.7650561e-07
-1.9081906e-07
1.0550218e-06
-2.0380239e-07
1.2703821e-06
-2.2004929e-07
1.530692e-06
-2.4031648e-07
1.8446193e-06
-2.6587044e-07
2.2245522e-06
-2.9840724e-07
2.682796e-06
-3.4344289e-07
3.2458558e-06
-4.1206483e-07
3.9618791e-06
-4.7427413e-07
4.8557239e-06
-3.5590089e-07
5.3371203e-06
3.1368846e-06
-1.2137457e-11
2.6855913e-10
-5.3833911e-11
9.0436809e-10
-1.350716e-10
1.7301625e-09
-2.6858503e-10
2.787947e-09
-4.7054202e-10
4.1264724e-09
-7.6137734e-10
5.8013636e-09
-1.1667828e-09
7.8746874e-09
-1.7188638e-09
1.0413789e-08
-2.4574362e-09
1.348894e-08
-3.4314062e-09
1.7169473e-08
-4.7001155e-09
2.1518078e-08
-6.3344197e-09
2.6582867e-08
-8.417129e-09
3.2387275e-08
-1.1042261e-08
3.891847e-08
-1.4312334e-08
4.6115441e-08
-1.8332793e-08
5.3859515e-08
-2.3202677e-08
6.1971176e-08
-2.900111e-08
7.0217585e-08
-3.5770185e-08
7.8335518e-08
-4.3496458e-08
8.6071495e-08
-5.2095023e-08
9.3236773e-08
-6.1401297e-08
9.976887e-08
-7.1175069e-08
1.0578709e-07
-8.1118698e-08
1.1162773e-07
-9.090766e-08
1.1785307e-07
-1.0022781e-07
1.2522874e-07
-1.0881292e-07
1.3468589e-07
-1.164761e-07
1.472718e-07
-1.2313121e-07
1.6410836e-07
-1.2880246e-07
1.8636581e-07
-1.3362147e-07
2.1525588e-07
-1.3781273e-07
2.5205222e-07
-1.4166914e-07
2.9813856e-07
-1.4552282e-07
3.5508783e-07
-1.497162e-07
4.247613e-07
-1.5458472e-07
5.0944615e-07
-1.6044902e-07
6.1195627e-07
-1.6762807e-07
7.3582685e-07
-1.7645619e-07
8.8533372e-07
-1.873045e-07
1.0658701e-06
-2.00634e-07
1.2837116e-06
-2.1694218e-07
1.5470002e-06
-2.369746e-07
1.8646517e-06
-2.6144323e-07
2.2490208e-06
-2.925595e-07
2.7139123e-06
-3.3552628e-07
3.2888226e-06
-3.9607902e-07
4.0224318e-06
-4.3041514e-07
4.8900599e-06
-2.9048768e-07
5.1971929e-06
2.8463969e-06
-1.1353429e-11
2.7991269e-10
-5.0342473e-11
9.4335715e-10
-1.2625006e-10
1.80607e-09
-2.5088653e-10
2.9125834e-09
-4.3922102e-10
4.3148069e-09
-7.101454e-10
6.0722876e-09
-1.0873855e-09
8.2519278e-09
-1.6005771e-09
1.0926981e-08
-2.2864832e-09
1.4174846e-08
-3.1903203e-09
1.807331e-08
-4.3670976e-09
2.2694856e-08
-5.8827859e-09
2.8098556e-08
-7.8150049e-09
3.4319494e-08
-1.0252773e-08
4.1356239e-08
-1.3294651e-08
4.9157318e-08
-1.7044441e-08
5.7609305e-08
-2.1603619e-08
6.6530354e-08
-2.7059873e-08
7.5673838e-08
-3.3471924e-08
8.4747569e-08
-4.0852109e-08
9.345168e-08
-4.9149849e-08
1.0153451e-07
-5.8240515e-08
1.0885953e-07
-6.7924374e-08
1.1547095e-07
-7.7938483e-08
1.2164184e-07
-8.7981291e-08
1.2789588e-07
-9.7745714e-08
1.3499316e-07
-1.0695493e-07
1.4389511e-07
-1.1539426e-07
1.5571113e-07
-1.2293489e-07
1.7164898e-07
-1.2954705e-07
1.9297797e-07
-1.3530208e-07
2.2101091e-07
-1.4036337e-07
2.5711352e-07
-1.4496804e-07
3.0274323e-07
-1.4940065e-07
3.5952046e-07
-1.5396745e-07
4.2932812e-07
-1.5897171e-07
5.144504e-07
-1.6471126e-07
6.1769581e-07
-1.7147201e-07
7.425876e-07
-1.7957518e-07
8.934369e-07
-1.8935197e-07
1.0756469e-06
-2.012668e-07
1.2956264e-06
-2.1575867e-07
1.561492e-06
-2.3355055e-07
1.8824436e-06
-2.5538413e-07
2.2708544e-06
-2.8358485e-07
2.742113e-06
-3.2304629e-07
3.3282839e-06
-3.7305541e-07
4.0724409e-06
-3.8312959e-07
4.9001341e-06
-2.3505673e-07
5.04912e-06
2.6113402e-06
-1.0273402e-11
2.9018611e-10
-4.5578551e-11
9.786625e-10
-1.1437909e-10
1.8748707e-09
-2.2747568e-10
3.0256803e-09
-3.9859552e-10
4.4859267e-09
-6.4511179e-10
6.3188036e-09
-9.8891006e-10
8.595726e-09
-1.4574137e-09
1.1395485e-08
-2.0847622e-09
1.4802194e-08
-2.9131037e-09
1.8901651e-08
-3.9939407e-09
2.3775693e-08
-5.3893591e-09
2.9493974e-08
-7.1728851e-09
3.6103021e-08
-9.429562e-09
4.3612916e-08
-1.2254644e-08
5.19824e-08
-1.5750151e-08
6.1104813e-08
-2.0018461e-08
7.0798663e-08
-2.5152234e-08
8.080761e-08
-3.1220605e-08
9.081594e-08
-3.8252614e-08
1.0048369e-07
-4.6220383e-08
1.0950228e-07
-5.5026015e-08
1.1766516e-07
-6.4496761e-08
1.249417e-07
-7.4391888e-08
1.3153696e-07
-8.4422238e-08
1.3792622e-07
-9.4279603e-08
1.4485052e-07
-1.0367114e-07
1.5328665e-07
-1.1235255e-07
1.6439254e-07
-1.2015546e-07
1.7945189e-07
-1.2700603e-07
1.9982855e-07
-1.3293347e-07
2.2693835e-07
-1.3806772e-07
2.6224778e-07
-1.4262713e-07
3.0730264e-07
-1.4689554e-07
3.6378888e-07
-1.5119568e-07
4.3362826e-07
-1.5585829e-07
5.19113e-07
-1.6120778e-07
6.2304529e-07
-1.675454e-07
7.4892522e-07
-1.7517697e-07
9.010685e-07
-1.8439797e-07
1.0848679e-06
-1.9556964e-07
1.3067981e-06
-2.0905197e-07
1.5749743e-06
-2.2536646e-07
1.8987581e-06
-2.45332e-07
2.2908199e-06
-2.7113039e-07
2.7679114e-06
-3.0671624e-07
3.3638698e-06
-3.4583818e-07
4.1115628e-06
-3.3643501e-07
4.8907309e-06
-1.8894525e-07
4.9016302e-06
2.4223951e-06
-9.6624963e-12
2.9984867e-10
-4.2864629e-11
1.0118646e-09
-1.0754662e-10
1.9395525e-09
-2.1383039e-10
3.131964e-09
-3.7457196e-10
4.6466682e-09
-6.0603532e-10
6.5502673e-09
-9.2870792e-10
8.9183988e-09
-1.3682675e-09
1.1835045e-08
-1.9567053e-09
1.5390632e-08
-2.7335797e-09
1.9678526e-08
-3.7473411e-09
2.4789455e-08
-5.0566035e-09
3.0803237e-08
-6.7311256e-09
3.7777543e-08
-8.852153e-09
4.5733944e-08
-1.151158e-08
5.4641827e-08
-1.480922e-08
6.4402453e-08
-1.8847392e-08
7.4836835e-08
-2.3722084e-08
8.5682301e-08
-2.9510423e-08
9.6604277e-08
-3.6255103e-08
1.0722836e-07
-4.3947785e-08
1.1719496e-07
-5.2514969e-08
1.2623235e-07
-6.1810659e-08
1.3423739e-07
-7.1619559e-08
1.4134585e-07
-8.16725e-08
1.4797917e-07
-9.1672226e-08
1.5485025e-07
-1.0132546e-07
1.6293987e-07
-1.1037518e-07
1.7344226e-07
-1.1862847e-07
1.8770518e-07
-1.2597651e-07
2.0717658e-07
-1.3240543e-07
2.3336728e-07
-1.379976e-07
2.6783996e-07
-1.429235e-07
3.1222855e-07
-1.4742424e-07
3.6828962e-07
-1.5178763e-07
4.3799165e-07
-1.5632086e-07
5.2364623e-07
-1.6132948e-07
6.2805391e-07
-1.6710524e-07
7.5470098e-07
-1.7393172e-07
9.0789501e-07
-1.8209818e-07
1.0930344e-06
-1.9191492e-07
1.3166148e-06
-2.0374457e-07
1.586804e-06
-2.1803461e-07
1.9130481e-06
-2.3572446e-07
2.3085098e-06
-2.5886217e-07
2.7910491e-06
-2.8999743e-07
3.3950051e-06
-3.1871068e-07
4.1402761e-06
-2.9451529e-07
4.8665354e-06
-1.521699e-07
4.7592848e-06
2.2702251e-06
-8.9621904e-12
3.0881101e-10
-3.9771401e-11
1.0426738e-09
-9.9823282e-11
1.9996044e-09
-1.9856113e-10
3.2307019e-09
-3.4799708e-10
4.7961044e-09
-5.6335276e-10
6.7656234e-09
-8.6383567e-10
9.2188819e-09
-1.2735659e-09
1.2244776e-08
-1.8226585e-09
1.5939725e-08
-2.5484435e-09
2.0404311e-08
-3.4967761e-09
2.5737788e-08
-4.7233289e-09
3.202979e-08
-6.2946614e-09
3.9348877e-08
-8.2887585e-09
4.7728041e-08
-1.079453e-08
5.7147599e-08
-1.3909642e-08
6.7517565e-08
-1.7735871e-08
7.8663062e-08
-2.2371241e-08
9.031767e-08
-2.7898545e-08
1.0213158e-07
-3.4370593e-08
1.1370041e-07
-4.1793866e-08
1.2461823e-07
-5.0113607e-08
1.3455208e-07
-5.9204477e-08
1.4332825e-07
-6.8870652e-08
1.5101203e-07
-7.8857661e-08
1.5796617e-07
-8.887492e-08
1.6486751e-07
-9.8625731e-08
1.7269069e-07
-1.0783909e-07
1.8265562e-07
-1.1629854e-07
1.9616462e-07
-1.2386453e-07
2.1474258e-07
-1.3048861e-07
2.3999136e-07
-1.3621868e-07
2.7357002e-07
-1.4119508e-07
3.1720495e-07
-1.4563758e-07
3.7273212e-07
-1.4982317e-07
4.4217725e-07
-1.5405986e-07
5.278829e-07
-1.5865813e-07
6.3265217e-07
-1.6391623e-07
7.5995909e-07
-1.7010729e-07
9.1408608e-07
-1.7750143e-07
1.1004285e-06
-1.8635422e-07
1.3254676e-06
-1.9698246e-07
1.5974323e-06
-2.0978482e-07
1.9258504e-06
-2.2571534e-07
2.3244402e-06
-2.4662061e-07
2.8119543e-06
-2.7344119e-07
3.4218257e-06
-2.9292601e-07
4.1597609e-06
-2.5798572e-07
4.831595e-06
-1.2315374e-07
4.6244528e-06
2.1470713e-06
-8.4816066e-12
3.1729271e-10
-3.7638096e-11
1.0718303e-09
-9.4462039e-11
2.0564287e-09
-1.878796e-10
3.3241198e-09
-3.2924322e-10
4.9374681e-09
-5.3293836e-10
6.9693189e-09
-8.1712236e-10
9.5030661e-09
-1.204608e-09
1.2632262e-08
-1.7239027e-09
1.645902e-08
-2.4103922e-09
2.10908e-08
-3.3076257e-09
2.6635021e-08
-4.4686174e-09
3.3190782e-08
-5.9569849e-09
4.0837245e-08
-7.847639e-09
4.9618695e-08
-1.0226579e-08
5.952654e-08
-1.3189187e-08
7.0480172e-08
-1.6836263e-08
8.2310137e-08
-2.1267036e-08
9.4748443e-08
-2.6568652e-08
1.0743319e-07
-3.2802288e-08
1.1993404e-07
-3.9987209e-08
1.3180315e-07
-4.8085476e-08
1.4265035e-07
-5.6991161e-08
1.5223393e-07
-6.6527983e-08
1.6054885e-07
-7.6458146e-08
1.6789634e-07
-8.6501993e-08
1.7491136e-07
-9.6365819e-08
1.8255451e-07
-1.057726e-07
1.920624e-07
-1.1449078e-07
2.048828e-07
-1.2235738e-07
2.2260917e-07
-1.292934e-07
2.4692737e-07
-1.3531115e-07
2.7958778e-07
-1.4051319e-07
3.22407e-07
-1.4508296e-07
3.7730189e-07
-1.4926647e-07
4.4636076e-07
-1.5334896e-07
5.319654e-07
-1.5762675e-07
6.3692999e-07
-1.623897e-07
7.6472204e-07
-1.67904e-07
9.1960037e-07
-1.7442704e-07
1.1069515e-06
-1.8220137e-07
1.3332419e-06
-1.915222e-07
1.6067531e-06
-2.0281462e-07
1.9371428e-06
-2.1701642e-07
2.338642e-06
-2.3572549e-07
2.8306634e-06
-2.5830847e-07
3.4444086e-06
-2.6976368e-07
4.1712161e-06
-2.2724235e-07
4.7890737e-06
-1.0078576e-07
4.4979963e-06
2.0462857e-06
-7.9896766e-12
3.2528229e-10
-3.5461432e-11
1.099302e-09
-8.9018078e-11
2.1099852e-09
-1.7709412e-10
3.4121957e-09
-3.1042661e-10
5.0708007e-09
-5.0263472e-10
7.1615273e-09
-7.709259e-10
9.7713576e-09
-1.1369462e-09
1.2998282e-08
-1.6277822e-09
1.6949856e-08
-2.2771116e-09
2.174013e-08
-3.1264677e-09
2.7484378e-08
-4.2265389e-09
3.4290854e-08
-5.6383554e-09
4.2249062e-08
-7.434094e-09
5.1414434e-08
-9.6971046e-09
6.178955e-08
-1.2520578e-08
7.3303646e-08
-1.6004149e-08
8.5793708e-08
-2.0247641e-08
9.8991935e-08
-2.5341398e-08
1.1252695e-07
-3.1353178e-08
1.2594582e-07
-3.831264e-08
1.3876261e-07
-4.6195812e-08
1.5053352e-07
-5.4913131e-08
1.6095125e-07
-6.430501e-08
1.6994072e-07
-7.4147978e-08
1.777393e-07
-8.4171647e-08
1.8493503e-07
-9.4084506e-08
1.9246737e-07
-1.0360365e-07
2.0158155e-07
-1.1248369e-07
2.1376284e-07
-1.2054089e-07
2.3066637e-07
-1.2767032e-07
2.5405681e-07
-1.3385542e-07
2.8577289e-07
-1.391697e-07
3.2772129e-07
-1.4377041e-07
3.819026e-07
-1.478835e-07
4.5047385e-07
-1.5178167e-07
5.3586358e-07
-1.5575707e-07
6.409054e-07
-1.6009759e-07
7.6906256e-07
-1.6506917e-07
9.2457197e-07
-1.7091516e-07
1.1127975e-06
-1.7786844e-07
1.3401952e-06
-1.8619496e-07
1.6150796e-06
-1.9634583e-07
1.9472936e-06
-2.0919296e-07
2.3514891e-06
-2.2600666e-07
2.8474771e-06
-2.4474483e-07
3.4631468e-06
-2.494544e-07
4.1759256e-06
-2.0178369e-07
4.741403e-06
-8.3668181e-08
4.3798808e-06
1.9626176e-06
-7.6065587e-12
3.3288894e-10
-3.3761979e-11
1.1254579e-09
-8.4752399e-11
2.1609756e-09
-1.6860681e-10
3.49605e-09
-2.9554677e-10
5.1977407e-09
-4.785407e-10
7.3445213e-09
-7.3397914e-10
1.0026796e-08
-1.0824918e-09
1.3346795e-08
-1.549915e-09
1.7417279e-08
-2.1684055e-09
2.2358621e-08
-2.9776839e-09
2.8293656e-08
-4.0263288e-09
3.53395e-08
-5.3729923e-09
4.3595726e-08
-7.0873048e-09
5.3128746e-08
-9.2500871e-09
6.3952333e-08
-1.195235e-08
7.6005909e-08
-1.5292377e-08
8.9133734e-08
-1.9370131e-08
1.0306969e-07
-2.4278364e-08
1.1743518e-07
-3.009027e-08
1.3175773e-07
-3.6844464e-08
1.455168e-07
-4.4529394e-08
1.5821845e-07
-5.307054e-08
1.694924e-07
-6.2324262e-08
1.7919444e-07
-7.2081636e-08
1.8749667e-07
-8.2082993e-08
1.9493638e-07
-9.2041764e-08
2.0242614e-07
-1.0167306e-07
2.1121285e-07
-1.1072231e-07
2.2281209e-07
-1.189898e-07
2.3893386e-07
-1.2634872e-07
2.6141572e-07
-1.3275596e-07
2.9218014e-07
-1.3825569e-07
3.3322102e-07
-1.4297532e-07
3.8662223e-07
-1.4711397e-07
4.546125e-07
-1.509228e-07
5.3967242e-07
-1.5468089e-07
6.4466348e-07
-1.5866819e-07
7.7304987e-07
-1.6315011e-07
9.2905388e-07
-1.6836356e-07
1.1180109e-06
-1.7454632e-07
1.3463779e-06
-1.8195805e-07
1.6224913e-06
-1.910841e-07
1.9564197e-06
-2.0271959e-07
2.3631246e-06
-2.1775529e-07
2.8625127e-06
-2.329655e-07
3.478357e-06
-2.320053e-07
4.1749654e-06
-1.8093151e-07
4.6903292e-06
-7.0698932e-08
4.2696481e-06
1.8919187e-06
-7.2379632e-12
3.4012709e-10
-3.213033e-11
1.1503505e-09
-8.0666046e-11
2.2095115e-09
-1.6049932e-10
3.5758834e-09
-2.8137943e-10
5.318621e-09
-4.556822e-10
7.5188246e-09
-6.9906099e-10
1.0270175e-08
-1.0312323e-09
1.3678967e-08
-1.4769128e-09
1.786296e-08
-2.0669043e-09
2.2948612e-08
-2.8393085e-09
2.9066061e-08
-3.8408161e-09
3.6341008e-08
-5.1279427e-09
4.4882852e-08
-6.7680043e-09
5.4768808e-08
-8.8394898e-09
6.6023819e-08
-1.1431329e-08
7.8597747e-08
-1.4640387e-08
9.2342792e-08
-1.8566456e-08
1.0699576e-07
-2.3304045e-08
1.2217277e-07
-2.8930736e-08
1.3738442e-07
-3.5492681e-08
1.5207874e-07
-4.2989041e-08
1.657148e-07
-5.135853e-08
1.7786188e-07
-6.0471803e-08
1.8830771e-07
-7.0133243e-08
1.971581e-07
-8.0093264e-08
2.0489639e-07
-9.007027e-08
2.1240314e-07
-9.9778099e-08
2.2092067e-07
-1.089544e-07
2.3198838e-07
-1.1738566e-07
2.4736512e-07
-1.2492625e-07
2.6895632e-07
-1.3151054e-07
2.9876442e-07
-1.3715819e-07
3.3886866e-07
-1.419722e-07
3.9143624e-07
-1.4613007e-07
4.5877038e-07
-1.4986621e-07
5.4340856e-07
-1.5345003e-07
6.4824729e-07
-1.5715693e-07
7.7675675e-07
-1.6125303e-07
9.3314998e-07
-1.6597303e-07
1.122731e-06
-1.7155888e-07
1.3519638e-06
-1.7826993e-07
1.6292024e-06
-1.8660637e-07
1.9647561e-06
-1.9726668e-07
2.3737849e-06
-2.107213e-07
2.8759673e-06
-2.2278665e-07
3.4904223e-06
-2.1711674e-07
4.1692955e-06
-1.6390974e-07
4.6371222e-06
-6.0904939e-08
4.1666433e-06
1.8310137e-06
-6.9284055e-12
3.4705553e-10
-3.0757094e-11
1.1741792e-09
-7.7219503e-11
2.2559743e-09
-1.5364523e-10
3.6523092e-09
-2.6937063e-10
5.4343465e-09
-4.362508e-10
7.6857048e-09
-6.6928475e-10
1.0503209e-08
-9.8737605e-10
1.3997058e-08
-1.4142374e-09
1.8289822e-08
-1.9794464e-09
2.3513822e-08
-2.7196382e-09
2.9806253e-08
-3.679778e-09
3.7301149e-08
-4.9144154e-09
4.611749e-08
-6.4887177e-09
5.6343109e-08
-8.4789713e-09
6.8014073e-08
-1.0972082e-08
8.1090857e-08
-1.4063441e-08
9.5434149e-08
-1.7852413e-08
1.1078473e-07
-2.2434782e-08
1.2675514e-07
-2.7891751e-08
1.4284139e-07
-3.427597e-08
1.5846296e-07
-4.1596123e-08
1.7303496e-07
-4.9802984e-08
1.8606874e-07
-5.878061e-08
1.9728533e-07
-6.8346321e-08
2.0672381e-07
-7.8260987e-08
2.1481105e-07
-8.8249173e-08
2.2239132e-07
-9.8025424e-08
2.3069692e-07
-1.0732225e-07
2.4128521e-07
-1.1591538e-07
2.5595824e-07
-1.2364339e-07
2.7668433e-07
-1.3042079e-07
3.0554182e-07
-1.3624448e-07
3.4469234e-07
-1.4119339e-07
3.9638515e-07
-1.4542204e-07
4.6299904e-07
-1.4914531e-07
5.4713183e-07
-1.5261914e-07
6.5172112e-07
-1.5611197e-07
7.8024957e-07
-1.5988947e-07
9.369275e-07
-1.6418925e-07
1.1270307e-06
-1.6926181e-07
1.3570363e-06
-1.753784e-07
1.635319e-06
-1.8304304e-07
1.9724208e-06
-1.9284873e-07
2.3835906e-06
-2.0483414e-07
2.8879526e-06
-2.1406227e-07
3.4996504e-06
-2.0445125e-07
4.1596844e-06
-1.499913e-07
4.5826623e-06
-5.3497884e-08
4.0701497e-06
1.7775158e-06
-6.6388807e-12
3.5369441e-10
-2.9474148e-11
1.1970143e-09
-7.4004288e-11
2.3005043e-09
-1.4725962e-10
3.7255647e-09
-2.5819991e-10
5.5452869e-09
-4.1820565e-10
7.8457109e-09
-6.4168316e-10
1.0726687e-08
-9.4679845e-10
1.4302173e-08
-1.3563557e-09
1.8699379e-08
-1.8988258e-09
2.4056292e-08
-2.6095135e-09
3.0516941e-08
-3.5318184e-09
3.8223453e-08
-4.7184935e-09
4.7304166e-08
-6.2327306e-09
5.7857346e-08
-8.1487649e-09
6.9930107e-08
-1.0551573e-08
8.3493666e-08
-1.3535062e-08
9.8417638e-08
-1.7198009e-08
1.1444768e-07
-2.1637069e-08
1.311942e-07
-2.6936408e-08
1.4814072e-07
-3.3154243e-08
1.646808e-07
-4.0307624e-08
1.8018833e-07
-4.8358145e-08
1.9411925e-07
-5.7202131e-08
2.0612931e-07
-6.6669014e-08
2.1619069e-07
-7.6529738e-08
2.2467177e-07
-8.6515205e-08
2.3237678e-07
-9.6341382e-08
2.405231e-07
-1.0573686e-07
2.506807e-07
-1.144683e-07
2.6468968e-07
-1.2236073e-07
2.8457676e-07
-1.2931147e-07
3.1249255e-07
-1.3529771e-07
3.5067857e-07
-1.4037762e-07
4.0146506e-07
-1.4468566e-07
4.6730708e-07
-1.4841962e-07
5.508658e-07
-1.5182336e-07
6.5512487e-07
-1.5515948e-07
7.8358571e-07
-1.5869345e-07
9.4046146e-07
-1.6266798e-07
1.1310053e-06
-1.6734171e-07
1.3617101e-06
-1.7299916e-07
1.6409765e-06
-1.801313e-07
1.979553e-06
-1.8921121e-07
2.3926705e-06
-1.9984973e-07
2.8985911e-06
-2.0653113e-07
3.5063318e-06
-1.9362035e-07
4.1467735e-06
-1.3853295e-07
4.5275748e-06
-4.7865343e-08
3.9794821e-06
1.7296504e-06
-6.3842454e-12
3.600786e-10
-2.8344708e-11
1.2189745e-09
-7.1170498e-11
2.3433302e-09
-1.4162574e-10
3.79602e-09
-2.4833187e-10
5.651993e-09
-4.0224224e-10
7.9996217e-09
-6.1722758e-10
1.0941673e-08
-9.1078611e-10
1.4595732e-08
-1.3048963e-09
1.9093489e-08
-1.8270204e-09
2.4578416e-08
-2.5112451e-09
3.1201165e-08
-3.3995301e-09
3.9111739e-08
-4.5429707e-09
4.8447607e-08
-6.0029163e-09
5.9317293e-08
-7.8516726e-09
7.1778863e-08
-1.0172366e-08
8.5814359e-08
-1.305741e-08
1.0130268e-07
-1.6604859e-08
1.1799513e-07
-2.0911934e-08
1.3550127e-07
-2.6065239e-08
1.5329403e-07
-3.212781e-08
1.7074337e-07
-3.9124148e-08
1.8718467e-07
-4.7025703e-08
2.0202081e-07
-5.5740224e-08
2.1484383e-07
-6.5108709e-08
2.2555917e-07
-7.491212e-08
2.3447518e-07
-8.4888171e-08
2.4235284e-07
-9.4755315e-08
2.5039025e-07
-1.0423975e-07
2.6016513e-07
-1.1310098e-07
2.735509e-07
-1.2115259e-07
2.9262838e-07
-1.2827689e-07
3.1961686e-07
-1.3443331e-07
3.5683499e-07
-1.3966062e-07
4.0669238e-07
-1.4407378e-07
4.7172026e-07
-1.4785322e-07
5.5464524e-07
-1.5122942e-07
6.5850107e-07
-1.5445798e-07
7.8681429e-07
-1.5780333e-07
9.4380683e-07
-1.6151503e-07
1.134717e-06
-1.6586123e-07
1.3660563e-06
-1.7114098e-07
1.6462562e-06
-1.7782115e-07
1.9862331e-06
-1.8624496e-07
2.4010943e-06
-1.9561594e-07
2.9079621e-06
-1.9998519e-07
3.5107011e-06
-1.8428733e-07
4.1310756e-06
-1.290047e-07
4.4722922e-06
-4.3531745e-08
3.8940091e-06
1.6861187e-06
-6.1483384e-12
3.6622701e-10
-2.7298937e-11
1.2401253e-09
-6.8549224e-11
2.3845803e-09
-1.3641768e-10
3.8638885e-09
-2.39216e-10
5.7547913e-09
-3.8750719e-10
8.1479129e-09
-5.9467155e-10
1.1148837e-08
-8.7759646e-10
1.4878657e-08
-1.2575063e-09
1.9473399e-08
-1.7609384e-09
2.5081848e-08
-2.4208657e-09
3.1861092e-08
-3.2779247e-09
3.9968798e-08
-4.3816809e-09
4.9551363e-08
-5.7917734e-09
6.0727386e-08
-7.578698e-09
7.3565787e-08
-9.8238175e-09
8.8059477e-08
-1.2618074e-08
1.0409694e-07
-1.6058707e-08
1.2143576e-07
-2.0243254e-08
1.3968582e-07
-2.5260313e-08
1.5831109e-07
-3.1177089e-08
1.7666014e-07
-3.80247e-08
1.9403228e-07
-4.5783533e-08
2.0977964e-07
-5.437188e-08
2.2343217e-07
-6.3641655e-08
2.3482894e-07
-7.338349e-08
2.4421702e-07
-8.3342023e-08
2.5231137e-07
-9.3238702e-08
2.6028692e-07
-1.0279825e-07
2.6972468e-07
-1.117743e-07
2.8252695e-07
-1.1997062e-07
3.0082469e-07
-1.2725633e-07
3.2690257e-07
-1.3357519e-07
3.6315386e-07
-1.3894878e-07
4.1206597e-07
-1.4347455e-07
4.7624603e-07
-1.4731698e-07
5.5848768e-07
-1.5069403e-07
6.6187811e-07
-1.5385454e-07
7.8997479e-07
-1.5706179e-07
9.4701406e-07
-1.6057228e-07
1.1382275e-06
-1.6466292e-07
1.3701469e-06
-1.6964361e-07
1.6512368e-06
-1.7594569e-07
1.9925352e-06
-1.8377239e-07
2.408921e-06
-1.9194825e-07
2.916138e-06
-1.9421139e-07
3.5129642e-06
-1.7614871e-07
4.1130129e-06
-1.2097655e-07
4.41712e-06
-4.0141101e-08
3.8131735e-06
1.6459777e-06
-5.9353067e-12
3.7216246e-10
-2.6354435e-11
1.2605445e-09
-6.6179451e-11
2.4244054e-09
-1.3170717e-10
3.929416e-09
-2.3096576e-10
5.8540498e-09
-3.7416144e-10
8.2911087e-09
-5.7422626e-10
1.1348902e-08
-8.4748799e-10
1.5151919e-08
-1.2144787e-09
1.984039e-08
-1.7008858e-09
2.5568255e-08
-2.3386526e-09
3.2498859e-08
-3.1671927e-09
4.0797338e-08
-4.2346496e-09
5.0618819e-08
-5.5990656e-09
6.2091802e-08
-7.3292283e-09
7.529595e-08
-9.504813e-09
9.0235062e-08
-1.2215315e-08
1.0680744e-07
-1.555709e-08
1.2477753e-07
-1.962779e-08
1.4375652e-07
-2.4517646e-08
1.6320094e-07
-3.0297477e-08
1.8243997e-07
-3.7004327e-08
2.0073913e-07
-4.4626731e-08
2.1740204e-07
-5.309279e-08
2.3189822e-07
-6.2264761e-08
2.4400091e-07
-7.1942731e-08
2.5389498e-07
-8.1878391e-08
2.6224702e-07
-9.1796748e-08
2.7020527e-07
-1.01422e-07
2.7934993e-07
-1.1050313e-07
2.9160808e-07
-1.1883553e-07
3.0915707e-07
-1.2627675e-07
3.3434379e-07
-1.3275648e-07
3.696336e-07
-1.382805e-07
4.1759002e-07
-1.4292986e-07
4.808954e-07
-1.4685364e-07
5.6241146e-07
-1.5025707e-07
6.6528155e-07
-1.533817e-07
7.9309943e-07
-1.5648914e-07
9.5012151e-07
-1.5984248e-07
1.1415808e-06
-1.6372682e-07
1.3740312e-06
-1.6845897e-07
1.6559689e-06
-1.7442614e-07
1.9985024e-06
-1.8168563e-07
2.4161805e-06
-1.8871711e-07
2.9231694e-06
-1.8904543e-07
3.5132926e-06
-1.6896268e-07
4.0929301e-06
-1.1411532e-07
4.3622725e-06
-3.7431275e-08
3.7364894e-06
1.6085465e-06
-5.7383385e-12
3.7790087e-10
-2.5480844e-11
1.280287e-09
-6.3988278e-11
2.4629128e-09
-1.2735162e-10
3.9927791e-09
-2.233388e-10
5.9500368e-09
-3.6182728e-10
8.429597e-09
-5.5533616e-10
1.1542411e-08
-8.1967736e-10
1.541626e-08
-1.1747432e-09
2.0195456e-08
-1.6454368e-09
2.6038949e-08
-2.2627506e-09
3.3116172e-08
-3.0649627e-09
4.159955e-08
-4.0988946e-09
5.1652751e-08
-5.4210981e-09
6.3414005e-08
-7.0987522e-09
7.6973603e-08
-9.2099221e-09
9.2346231e-08
-1.1842685e-08
1.094402e-07
-1.5092465e-08
1.2802731e-07
-1.9056877e-08
1.4772093e-07
-2.3827466e-08
1.6797153e-07
-2.94782e-08
1.880907e-07
-3.6051416e-08
2.0731234e-07
-4.3543086e-08
2.248937e-07
-5.1890407e-08
2.4024554e-07