/*--------------------------------*- C++ -*----------------------------------*\
| =========                 |                                                 |
| \\      /  F ield         | OpenFOAM: The Open Source CFD Toolbox           |
|  \\    /   O peration     | Version:  4.0                                   |
|   \\  /    A nd           | Web:      www.OpenFOAM.org                      |
|    \\/     M anipulation  |                                                 |
\*---------------------------------------------------------------------------*/
FoamFile
{
    version     2.0;
    format      ascii;
    class       volScalarField;
    location    "3000/fluid";
    object      Qin;
}
// * * * * * * * * * * * * * * * * * * * * * * * * * * * * * * * * * * * * * //

dimensions      [1 0 -3 0 0 0 0];

internalField   uniform 0;

boundaryField
{
    Outterwall
    {
        type            calculated;
        value           nonuniform List<scalar> 
100
(
711.60838
728.98005
743.53488
755.54796
765.56864
773.98175
781.11729
787.22622
792.51532
797.14186
801.23158
804.8808
808.16609
811.14709
813.87153
816.37735
818.69531
820.85039
822.86314
824.75059
826.52697
828.20428
829.79272
831.30099
832.73663
834.10613
835.41517
836.66875
837.87126
839.02659
840.13821
841.20922
842.2424
843.24026
844.20508
845.13889
846.04359
846.92086
847.77229
848.59929
849.4032
850.18522
850.94648
851.68801
852.41078
853.11569
853.80356
854.47518
855.13127
855.77251
856.39954
857.01294
857.61328
858.20109
858.77686
859.34106
859.89412
860.43647
860.9685
861.49057
862.00305
862.50627
863.00055
863.48618
863.96346
864.43265
864.89403
865.34783
865.79429
866.23365
866.66611
867.09188
867.51115
867.92413
868.33098
868.73189
869.12701
869.51651
869.90055
870.27926
870.65281
871.02132
871.38493
871.74379
872.09805
872.44786
872.79342
873.13495
873.47278
873.80738
874.13946
874.47019
874.80146
875.13643
875.48037
875.84224
876.23595
876.68763
877.20732
877.90226
)
;
    }
    leftWedge
    {
        type            symmetry;
    }
    rigtWedge
    {
        type            symmetry;
    }
    Outlet
    {
        type            calculated;
        value           nonuniform List<scalar> 
50
(
9.7457949e-30
9.7458247e-30
9.7458586e-30
9.7458908e-30
9.7459159e-30
9.7459332e-30
9.7459452e-30
9.7459544e-30
9.7459618e-30
9.7459681e-30
9.7459739e-30
9.7459795e-30
9.7459853e-30
9.7459913e-30
9.7459975e-30
9.7460038e-30
9.7460105e-30
9.7460173e-30
9.7460244e-30
9.7460317e-30
9.7460391e-30
9.7460468e-30
9.7460547e-30
9.7460627e-30
9.7460709e-30
9.7460792e-30
9.7460877e-30
9.7460963e-30
9.7461052e-30
9.7461142e-30
9.7461233e-30
9.7461327e-30
9.7461422e-30
9.7461519e-30
9.7461618e-30
9.7461718e-30
9.7461821e-30
9.7461925e-30
9.746203e-30
9.7462135e-30
9.7462241e-30
9.7462347e-30
9.7462459e-30
9.7462584e-30
9.7462736e-30
9.7462938e-30
9.7463194e-30
9.7463596e-30
9.7463916e-30
9.746509e-30
)
;
    }
    Inlet
    {
        type            calculated;
        value           uniform 0;
    }
    fluid_to_cilcen
    {
        type            calculated;
        value           nonuniform List<scalar> 
100
(
421.91959
421.91876
421.91792
421.91708
421.91624
421.9154
421.91456
421.91372
421.91288
421.91204
421.91119
421.91035
421.90951
421.90867
421.90783
421.90699
421.90615
421.90531
421.90447
421.90363
421.90279
421.90195
421.90111
421.90027
421.89943
421.89859
421.89774
421.8969
421.89606
421.89522
421.89438
421.89354
421.8927
421.89186
421.89102
421.89018
421.88934
421.8885
421.88766
421.88682
421.88598
421.88514
421.8843
421.88346
421.88262
421.88178
421.88094
421.8801
421.87927
421.87843
421.87759
421.87675
421.87592
421.87508
421.87425
421.87341
421.87258
421.87175
421.87092
421.87009
421.86926
421.86843
421.86761
421.86678
421.86596
421.86514
421.86433
421.86351
421.8627
421.86189
421.86109
421.86028
421.85949
421.85869
421.8579
421.85711
421.85633
421.85555
421.85478
421.85402
421.85326
421.8525
421.85175
421.85101
421.85028
421.84956
421.84884
421.84813
421.84743
421.84674
421.84606
421.84539
421.84474
421.84409
421.84345
421.84283
421.84223
421.84163
421.84105
421.84037
)
;
    }
}


// ************************************************************************* //
