/*--------------------------------*- C++ -*----------------------------------*\
| =========                 |                                                 |
| \\      /  F ield         | OpenFOAM: The Open Source CFD Toolbox           |
|  \\    /   O peration     | Version:  4.0                                   |
|   \\  /    A nd           | Web:      www.OpenFOAM.org                      |
|    \\/     M anipulation  |                                                 |
\*---------------------------------------------------------------------------*/
FoamFile
{
    version     2.0;
    format      ascii;
    class       volScalarField;
    location    "3000/fluid";
    object      Qr;
}
// * * * * * * * * * * * * * * * * * * * * * * * * * * * * * * * * * * * * * //

dimensions      [1 0 -3 0 0 0 0];

internalField   uniform 0;

boundaryField
{
    Outterwall
    {
        type            calculated;
        value           nonuniform List<scalar> 
100
(
289.68879
307.06129
321.61696
333.63088
343.6524
352.06635
359.20273
365.3125
370.60244
375.22982
379.32038
382.97045
386.25658
389.23842
391.9637
394.47036
396.78916
398.94508
400.95867
402.84696
404.62418
406.30233
407.89161
409.40073
410.8372
412.20754
413.51743
414.77185
415.9752
417.13137
418.24382
419.31567
420.3497
421.3484
422.31405
423.24871
424.15425
425.03236
425.88463
426.71247
427.51722
428.30008
429.06218
429.80455
430.52816
431.23391
431.92262
432.59508
433.25201
433.89409
434.52195
435.13619
435.73736
436.32601
436.90261
437.46764
438.02154
438.56472
439.09758
439.62048
440.13379
440.63784
441.13294
441.61939
442.09749
442.56751
443.0297
443.48431
443.93159
444.37175
444.80501
445.23158
445.65166
446.06543
446.47307
446.87476
447.27067
447.66095
448.04575
448.42523
448.79954
449.1688
449.53316
449.89276
450.24775
450.59829
450.94456
451.28679
451.62532
451.9606
452.29337
452.62476
452.95668
453.2923
453.63687
453.99937
454.39368
454.84596
455.36622
456.06184
)
;
    }
    leftWedge
    {
        type            symmetry;
    }
    rigtWedge
    {
        type            symmetry;
    }
    Outlet
    {
        type            calculated;
        value           nonuniform List<scalar> 
50
(
9.7457949e-30
9.7458247e-30
9.7458586e-30
9.7458908e-30
9.7459159e-30
9.7459332e-30
9.7459452e-30
9.7459544e-30
9.7459618e-30
9.7459681e-30
9.7459739e-30
9.7459795e-30
9.7459853e-30
9.7459913e-30
9.7459975e-30
9.7460038e-30
9.7460105e-30
9.7460173e-30
9.7460244e-30
9.7460317e-30
9.7460391e-30
9.7460468e-30
9.7460547e-30
9.7460627e-30
9.7460709e-30
9.7460792e-30
9.7460877e-30
9.7460963e-30
9.7461052e-30
9.7461142e-30
9.7461233e-30
9.7461327e-30
9.7461422e-30
9.7461519e-30
9.7461618e-30
9.7461718e-30
9.7461821e-30
9.7461925e-30
9.746203e-30
9.7462135e-30
9.7462241e-30
9.7462347e-30
9.7462459e-30
9.7462584e-30
9.7462736e-30
9.7462938e-30
9.7463194e-30
9.7463596e-30
9.7463916e-30
9.746509e-30
)
;
    }
    Inlet
    {
        type            calculated;
        value           nonuniform List<scalar> 
50
(
-6.3277868e-30
-6.3277868e-30
-6.3277868e-30
-6.3277868e-30
-6.3277868e-30
-6.3277867e-30
-6.3277867e-30
-6.3277866e-30
-6.3277866e-30
-6.3277866e-30
-6.3277865e-30
-6.3277865e-30
-6.3277865e-30
-6.3277865e-30
-6.3277865e-30
-6.3277865e-30
-6.3277866e-30
-6.3277866e-30
-6.3277866e-30
-6.3277866e-30
-6.3277866e-30
-6.3277866e-30
-6.3277867e-30
-6.3277867e-30
-6.3277867e-30
-6.3277867e-30
-6.3277867e-30
-6.3277867e-30
-6.3277867e-30
-6.3277867e-30
-6.3277867e-30
-6.3277867e-30
-6.3277867e-30
-6.3277867e-30
-6.3277867e-30
-6.3277867e-30
-6.3277867e-30
-6.3277867e-30
-6.3277867e-30
-6.3277867e-30
-6.3277867e-30
-6.3277867e-30
-6.3277867e-30
-6.3277867e-30
-6.3277867e-30
-6.3277867e-30
-6.3277867e-30
-6.3277867e-30
-6.3277867e-30
-6.3277867e-30
)
;
    }
    fluid_to_cilcen
    {
        type            calculated;
        value           nonuniform List<scalar> 
100
(
-289.68698
-307.0597
-321.61558
-333.62968
-343.65136
-352.06544
-359.20193
-365.31178
-370.60179
-375.22921
-379.3198
-382.96987
-386.25598
-389.23778
-391.96299
-394.46956
-396.78825
-398.94402
-400.95744
-402.84552
-404.62251
-406.30041
-407.88939
-409.39818
-410.8343
-412.20425
-413.51372
-414.76769
-415.97056
-417.12622
-418.23813
-419.30941
-420.34283
-421.34089
-422.30588
-423.23984
-424.14465
-425.02202
-425.8735
-426.70054
-427.50445
-428.28644
-429.04765
-429.78911
-430.51178
-431.21656
-431.90429
-432.57573
-433.23163
-433.87265
-434.49943
-435.11257
-435.71262
-436.30012
-436.87556
-437.43941
-437.99211
-438.53407
-439.06569
-439.58734
-440.09937
-440.60213
-441.09592
-441.58106
-442.05782
-442.52648
-442.98731
-443.44054
-443.88642
-444.32517
-444.75701
-445.18215
-445.60078
-446.01309
-446.41926
-446.81947
-447.21388
-447.60265
-447.98594
-448.36389
-448.73666
-449.10437
-449.46718
-449.82522
-450.17863
-450.52758
-450.87226
-451.21289
-451.5498
-451.88346
-452.21457
-452.5443
-452.87453
-453.20841
-453.55118
-453.91179
-454.30409
-454.75416
-455.27206
-455.96495
)
;
    }
}


// ************************************************************************* //
