/*--------------------------------*- C++ -*----------------------------------*\
| =========                 |                                                 |
| \\      /  F ield         | OpenFOAM: The Open Source CFD Toolbox           |
|  \\    /   O peration     | Version:  4.0                                   |
|   \\  /    A nd           | Web:      www.OpenFOAM.org                      |
|    \\/     M anipulation  |                                                 |
\*---------------------------------------------------------------------------*/
FoamFile
{
    version     2.0;
    format      ascii;
    class       volScalarField;
    location    "3000/fluid";
    object      rho;
}
// * * * * * * * * * * * * * * * * * * * * * * * * * * * * * * * * * * * * * //

dimensions      [1 -3 0 0 0 0 0];

internalField   nonuniform List<scalar> 
5000
(
1.0537854
1.0615228
1.0698519
1.0787396
1.0881273
1.0979287
1.1080277
1.1182794
1.1285136
1.1385424
1.1481713
1.1572123
1.1654995
1.1729028
1.1793388
1.1847763
1.1892355
1.1927811
1.1955112
1.1975441
1.1990052
1.200016
1.2006868
1.2011117
1.2013668
1.2015108
1.2015863
1.2016225
1.2016381
1.2016438
1.2016454
1.2016457
1.2016456
1.2016456
1.2016455
1.2016455
1.2016455
1.2016455
1.2016455
1.2016455
1.2016455
1.2016455
1.2016455
1.2016455
1.2016455
1.2016455
1.2016455
1.2016455
1.2016455
1.2016455
1.0458855
1.0506727
1.0558643
1.0615002
1.0676213
1.0742654
1.0814627
1.0892286
1.097556
1.1064061
1.1156997
1.1253116
1.1350688
1.1447569
1.1541338
1.1629521
1.1709863
1.1780598
1.1840656
1.188975
1.1928337
1.1957463
1.1978548
1.1993158
1.2002823
1.2008905
1.2012524
1.2014549
1.2015602
1.2016106
1.2016323
1.2016406
1.2016433
1.201644
1.2016441
1.201644
1.201644
1.201644
1.201644
1.201644
1.201644
1.201644
1.201644
1.201644
1.201644
1.201644
1.201644
1.201644
1.201644
1.201644
1.0405326
1.0451356
1.0501046
1.0554605
1.0612241
1.0674153
1.074052
1.0811483
1.0887111
1.096736
1.1052005
1.1140568
1.123223
1.1325773
1.1419551
1.1511542
1.1599484
1.1681108
1.1754414
1.1817938
1.187094
1.1913452
1.1946192
1.1970377
1.1987489
1.1999066
1.2006531
1.20111
1.201374
1.2015169
1.2015886
1.2016216
1.2016353
1.2016404
1.201642
1.2016424
1.2016425
1.2016425
1.2016425
1.2016425
1.2016425
1.2016425
1.2016425
1.2016425
1.2016425
1.2016425
1.2016425
1.2016425
1.2016425
1.2016425
1.036238
1.0407476
1.0456146
1.0508584
1.0564977
1.062549
1.0690258
1.0759371
1.0832854
1.0910638
1.0992528
1.1078158
1.1166936
1.1257992
1.1350128
1.1441803
1.1531171
1.1616193
1.1694831
1.1765288
1.1826254
1.1877077
1.191782
1.1949187
1.197235
1.1988736
1.1999816
1.2006958
1.2011327
1.201385
1.2015213
1.2015897
1.2016211
1.2016341
1.201639
1.2016405
1.2016409
1.201641
1.201641
1.201641
1.201641
1.201641
1.201641
1.201641
1.201641
1.201641
1.201641
1.201641
1.201641
1.201641
1.0327164
1.0371386
1.0419105
1.0470513
1.0525794
1.0585114
1.064861
1.0716376
1.0788445
1.0864765
1.0945168
1.1029332
1.1116745
1.1206659
1.129805
1.13896
1.1479708
1.1566548
1.1648198
1.1722828
1.1788918
1.1845459
1.1892083
1.1929074
1.1957277
1.1977915
1.199239
1.20021
1.200831
1.2012081
1.201424
1.2015397
1.2015972
1.2016233
1.201634
1.2016379
1.2016391
1.2016394
1.2016395
1.2016395
1.2016395
1.2016395
1.2016395
1.2016395
1.2016395
1.2016395
1.2016395
1.2016395
1.2016395
1.2016395
1.0298042
1.0341536
1.0388462
1.0439013
1.0493371
1.0551702
1.0614149
1.0680816
1.0751751
1.0826926
1.0906205
1.0989317
1.107581
1.1165019
1.1256027
1.1347638
1.1438389
1.1526582
1.1610386
1.1687986
1.1757774
1.1818547
1.186966
1.1911097
1.1943427
1.1967674
1.1985132
1.1997181
1.2005132
1.2010132
1.2013112
1.2014784
1.201566
1.2016084
1.201627
1.2016344
1.201637
1.2016378
1.201638
1.201638
1.201638
1.201638
1.201638
1.201638
1.201638
1.201638
1.201638
1.201638
1.201638
1.201638
1.0273635
1.0316475
1.0362692
1.0412474
1.0466003
1.0523448
1.0584955
1.0650635
1.0720552
1.0794698
1.0872969
1.0955137
1.1040806
1.1129384
1.1220037
1.1311668
1.1402913
1.1492168
1.1577666
1.1657607
1.1730331
1.1794506
1.1849292
1.1894445
1.1930309
1.195773
1.1977888
1.1992119
1.2001747
1.2007974
1.2011808
1.2014041
1.2015263
1.2015884
1.2016175
1.2016298
1.2016344
1.201636
1.2016364
1.2016365
1.2016365
1.2016365
1.2016365
1.2016365
1.2016365
1.2016365
1.2016365
1.2016365
1.2016365
1.2016365
1.0252954
1.0295225
1.0340824
1.0389937
1.0442746
1.0499418
1.0560104
1.0624921
1.0693944
1.0767182
1.0844558
1.0925875
1.1010789
1.1098765
1.1189042
1.1280606
1.1372179
1.1462234
1.1549063
1.1630885
1.1706004
1.1772993
1.1830863
1.1879185
1.1918117
1.1948342
1.1970929
1.1987159
1.1998356
1.2005756
1.2010425
1.2013224
1.2014808
1.2015646
1.2016056
1.2016239
1.2016313
1.2016339
1.2016348
1.201635
1.201635
1.201635
1.201635
1.201635
1.201635
1.201635
1.201635
1.201635
1.201635
1.201635
1.0235197
1.0276952
1.0321989
1.0370494
1.0422647
1.0478616
1.0538554
1.0602584
1.0670788
1.0743191
1.0819737
1.0900259
1.0984452
1.1071832
1.1161702
1.125312
1.134488
1.143553
1.1523414
1.1606774
1.1683895
1.1753275
1.1813806
1.1864902
1.190656
1.1939316
1.1964132
1.1982229
1.1994917
1.2003455
1.2008954
1.2012329
1.2014292
1.2015365
1.2015912
1.2016167
1.2016276
1.2016317
1.201633
1.2016334
1.2016335
1.2016335
1.2016335
1.2016335
1.2016335
1.2016335
1.2016335
1.2016335
1.2016335
1.2016335
1.0219778
1.0261069
1.0305601
1.035356
1.0405123
1.0460459
1.0519722
1.0583039
1.0650501
1.0722144
1.0797927
1.087771
1.0961222
1.1048022
1.1137467
1.1228676
1.1320514
1.1411592
1.1500307
1.1584928
1.1663731
1.1735159
1.1798005
1.1851553
1.1895653
1.1930707
1.1957574
1.1977412
1.1991509
1.2001136
1.2007441
1.2011387
1.2013734
1.2015053
1.2015745
1.2016082
1.2016231
1.2016291
1.2016312
1.2016318
1.201632
1.201632
1.201632
1.201632
1.201632
1.201632
1.201632
1.201632
1.201632
1.201632
1.0206232
1.0247097
1.0291167
1.0338623
1.0389645
1.0444399
1.0503042
1.0565703
1.0632479
1.0703415
1.0778486
1.0857575
1.0940437
1.102667
1.1115678
1.1206636
1.1298469
1.1389847
1.147922
1.1564887
1.164512
1.1718324
1.178321
1.1838948
1.1885259
1.1922422
1.1951195
1.197267
1.198811
1.199879
1.2005885
1.2010398
1.2013135
1.2014708
1.2015557
1.2015983
1.201618
1.2016262
1.2016292
1.2016302
1.2016305
1.2016305
1.2016305
1.2016305
1.2016305
1.2016305
1.2016305
1.2016305
1.2016305
1.2016305
1.0194212
1.0234687
1.0278334
1.0325332
1.0375858
1.043008
1.0488153
1.0550212
1.0616356
1.0686639
1.076105
1.0839487
1.0921732
1.1007417
1.1095985
1.1186662
1.1278426
1.1370005
1.1459895
1.154643
1.1627885
1.1702638
1.1769331
1.1827036
1.1875359
1.1914465
1.1945013
1.1968031
1.1984749
1.1996442
1.2004306
1.2009379
1.2012506
1.2014338
1.201535
1.2015872
1.2016121
1.2016229
1.2016271
1.2016285
1.2016289
1.201629
1.201629
1.201629
1.201629
1.201629
1.201629
1.201629
1.201629
1.201629
1.0183443
1.0223559
1.0266814
1.0313389
1.0363457
1.0417186
1.0474733
1.0536232
1.0601789
1.0671464
1.0745256
1.0823079
1.0904738
1.0989892
1.1078023
1.1168399
1.1260049
1.1351751
1.1442049
1.1529309
1.1611818
1.168793
1.1756236
1.1815721
1.1865887
1.1906791
1.1939002
1.196348
1.198142
1.1994091
1.2002706
1.2008331
1.2011848
1.2013943
1.2015124
1.2015748
1.2016054
1.2016192
1.2016247
1.2016267
1.2016273
1.2016275
1.2016275
1.2016275
1.2016275
1.2016275
1.2016275
1.2016275
1.2016275
1.2016275
1.0173714
1.0213498
1.0256392
1.0302575
1.035222
1.0405494
1.0462553
1.0523534
1.0588546
1.0657654
1.0730867
1.0808113
1.0889215
1.0973859
1.1061558
1.115162
1.1243121
1.1334886
1.1425503
1.151337
1.159679
1.1674103
1.1743854
1.1804956
1.1856816
1.1899392
1.1933163
1.1959025
1.1978135
1.199175
1.2001096
1.2007264
1.2011169
1.2013529
1.2014883
1.2015614
1.2015981
1.2016151
1.2016222
1.2016249
1.2016257
1.201626
1.201626
1.201626
1.201626
1.201626
1.201626
1.201626
1.201626
1.201626
1.0164858
1.0204333
1.0246892
1.029271
1.0341961
1.0394812
1.0451417
1.0511915
1.0576417
1.0644995
1.0717664
1.0794366
1.0874939
1.0959092
1.1046368
1.1136111
1.1227438
1.1319218
1.1410081
1.149846
1.1582673
1.1661052
1.1732107
1.1794684
1.1848107
1.1892241
1.1927483
1.195466
1.1974891
1.1989419
1.1999478
1.2006181
1.2010471
1.2013097
1.2014627
1.2015468
1.2015901
1.2016106
1.2016195
1.2016229
1.2016241
1.2016244
1.2016245
1.2016245
1.2016245
1.2016245
1.2016245
1.2016245
1.2016245
1.2016245
1.0156742
1.0195929
1.0238176
1.0283655
1.033254
1.0384995
1.0441177
1.0501224
1.056525
1.063333
1.0705489
1.0781676
1.0861747
1.0945429
1.1032293
1.1121715
1.121285
1.1304607
1.1395658
1.1484468
1.1569373
1.1648703
1.1720937
1.1784865
1.1839735
1.1885328
1.1921957
1.1950386
1.1971693
1.1987105
1.1997858
1.2005087
1.2009758
1.2012651
1.2014359
1.2015313
1.2015814
1.2016057
1.2016165
1.2016209
1.2016224
1.2016229
1.201623
1.201623
1.201623
1.201623
1.201623
1.201623
1.201623
1.201623
1.014926
1.0188178
1.0230132
1.0275295
1.0323836
1.0375921
1.0431707
1.0491331
1.055491
1.0622524
1.0694201
1.0769901
1.0849494
1.0932725
1.1019188
1.110829
1.119922
1.1290925
1.1382116
1.147129
1.1556803
1.1636984
1.1710289
1.1775461
1.1831675
1.1878635
1.1916576
1.19462
1.1968541
1.1984808
1.199624
1.2003984
1.2009033
1.2012191
1.2014079
1.2015149
1.2015721
1.2016004
1.2016134
1.2016187
1.2016207
1.2016213
1.2016215
1.2016215
1.2016215
1.2016215
1.2016215
1.2016215
1.2016215
1.2016215
1.0142325
1.0180991
1.0222671
1.0267536
1.0315756
1.0367495
1.0422908
1.0482136
1.0545294
1.0612468
1.068369
1.075893
1.0838068
1.0920866
1.1006941
1.1095726
1.1186441
1.1278072
1.1369364
1.1458845
1.1544892
1.1625839
1.1700121
1.1766438
1.1823906
1.187215
1.1911335
1.1942099
1.1965435
1.1982532
1.1994625
1.2002875
1.2008298
1.2011721
1.2013789
1.2014977
1.2015622
1.2015948
1.20161
1.2016165
1.2016189
1.2016197
1.20162
1.20162
1.20162
1.20162
1.20162
1.20162
1.20162
1.20162
1.0135866
1.0174295
1.0215718
1.0260304
1.0308221
1.0359633
1.0414696
1.047355
1.0536313
1.0603071
1.0673863
1.0748666
1.082737
1.0909754
1.0995452
1.1083924
1.117442
1.1265959
1.1357318
1.1447058
1.1533577
1.1615215
1.1690391
1.1757769
1.1816405
1.186586
1.1906226
1.1938082
1.1962377
1.1980277
1.1993015
1.2001763
1.2007555
1.2011242
1.2013491
1.2014798
1.2015517
1.2015888
1.2016064
1.2016141
1.2016171
1.2016181
1.2016184
1.2016185
1.2016185
1.2016185
1.2016185
1.2016185
1.2016185
1.2016185
1.0129827
1.0168032
1.0209212
1.0253534
1.0301166
1.0352271
1.0407003
1.0465504
1.0527892
1.0594257
1.0664642
1.0739029
1.081732
1.0899306
1.0984641
1.1072805
1.1163078
1.125451
1.134591
1.1435868
1.1522806
1.1605068
1.1681065
1.1749426
1.1809158
1.1859754
1.1901243
1.1934144
1.1959364
1.1978045
1.1991413
1.2000649
1.2006805
1.2010754
1.2013185
1.2014612
1.2015408
1.2015824
1.2016026
1.2016116
1.2016152
1.2016165
1.2016169
1.201617
1.201617
1.201617
1.201617
1.201617
1.201617
1.201617
1.0124157
1.0162151
1.0203101
1.0247174
1.0294536
1.034535
1.039977
1.0457937
1.0519971
1.0585962
1.065596
1.0729952
1.0807848
1.0889453
1.0974435
1.1062299
1.1152348
1.124366
1.1335079
1.1425221
1.1512529
1.1595359
1.1672111
1.1741387
1.1802145
1.1853822
1.1896381
1.1930285
1.1956398
1.1975836
1.1989819
1.1999535
1.2006051
1.201026
1.2012872
1.2014421
1.2015294
1.2015757
1.2015986
1.201609
1.2016133
1.2016149
1.2016154
1.2016155
1.2016155
1.2016155
1.2016155
1.2016155
1.2016155
1.2016155
1.0118816
1.015661
1.0197342
1.0241179
1.0288286
1.0338824
1.0392948
1.0450798
1.0512495
1.0578133
1.0647762
1.0721377
1.0798896
1.0880134
1.0964776
1.1052345
1.1142169
1.1233355
1.1324773
1.1415069
1.1502707
1.1586053
1.1663502
1.173363
1.1795354
1.1848054
1.1891634
1.1926501
1.1953476
1.197365
1.1988235
1.1998422
1.2005293
1.200976
1.2012552
1.2014224
1.2015176
1.2015687
1.2015944
1.2016063
1.2016113
1.2016132
1.2016138
1.201614
1.201614
1.201614
1.201614
1.201614
1.201614
1.201614
1.0113769
1.0151373
1.0191899
1.0235512
1.0282376
1.0332652
1.0386495
1.0444043
1.0505421
1.0570722
1.064
1.0713255
1.0790412
1.0871298
1.0955611
1.1042892
1.1132493
1.1223544
1.1314946
1.1405371
1.1493303
1.1577119
1.1655212
1.1726137
1.1788771
1.1842442
1.1886996
1.1922789
1.1950598
1.1971489
1.1986661
1.1997311
1.2004532
1.2009255
1.2012228
1.2014022
1.2015053
1.2015614
1.20159
1.2016035
1.2016093
1.2016115
1.2016123
1.2016125
1.2016125
1.2016125
1.2016125
1.2016125
1.2016125
1.2016125
1.0108987
1.0146411
1.018674
1.0230139
1.0276773
1.03268
1.0380375
1.0437637
1.049871
1.0563689
1.0632632
1.0705543
1.0782354
1.08629
1.0946895
1.1033895
1.1123274
1.1214186
1.1305559
1.1396089
1.1484283
1.156853
1.164722
1.171889
1.1782383
1.1836976
1.1882463
1.1919147
1.1947763
1.196935
1.1985097
1.1996202
1.2003769
1.2008746
1.2011899
1.2013815
1.2014927
1.2015539
1.2015854
1.2016006
1.2016072
1.2016098
1.2016107
1.201611
1.201611
1.201611
1.201611
1.201611
1.201611
1.201611
1.0104445
1.0141696
1.0181838
1.0225034
1.0271448
1.0321238
1.0374557
1.0431545
1.0492327
1.0557
1.0625622
1.0698204
1.0774682
1.0854901
1.0938588
1.1025315
1.1114473
1.1205243
1.1296575
1.1387191
1.1475619
1.1560261
1.1639506
1.1711875
1.1776179
1.183165
1.187803
1.1915572
1.194497
1.1967235
1.1983544
1.1995096
1.2003005
1.2008234
1.2011566
1.2013605
1.2014798
1.201546
1.2015807
1.2015975
1.201605
1.201608
1.2016091
1.2016094
1.2016095
1.2016095
1.2016095
1.2016095
1.2016095
1.2016095
1.0100121
1.0137207
1.017717
1.0220172
1.0266376
1.0315939
1.0369013
1.0425741
1.0486245
1.0550624
1.0618939
1.0691205
1.0767363
1.0847268
1.0930656
1.1017116
1.1106057
1.1196681
1.1287963
1.1378648
1.1467285
1.155229
1.1632051
1.1705077
1.1770148
1.1826457
1.1873693
1.1912062
1.1942218
1.1965144
1.1982003
1.1993994
1.200224
1.2007719
1.2011229
1.2013391
1.2014665
1.201538
1.2015757
1.2015944
1.2016028
1.2016063
1.2016075
1.2016079
1.201608
1.201608
1.2016081
1.201608
1.201608
1.201608
1.0095995
1.0132923
1.0172715
1.0215532
1.0261534
1.031088
1.0363722
1.0420199
1.0480437
1.0544534
1.0612556
1.0684517
1.0760368
1.083997
1.0923069
1.1009269
1.1097995
1.1188471
1.1279695
1.1370434
1.1459259
1.1544596
1.1624839
1.1698483
1.1764282
1.1821389
1.1869447
1.1908614
1.1939505
1.1963075
1.1980473
1.1992896
1.2001475
1.2007201
1.2010888
1.2013173
1.201453
1.2015297
1.2015706
1.2015911
1.2016005
1.2016044
1.2016059
1.2016064
1.2016065
1.2016065
1.2016066
1.2016066
1.2016066
1.2016066
1.009205
1.0128828
1.0168456
1.0211095
1.0256905
1.0306043
1.0358661
1.0414898
1.047488
1.0538708
1.0606447
1.0678117
1.0753672
1.083298
1.0915799
1.1001745
1.109026
1.1180587
1.1271746
1.1362527
1.1451518
1.1537162
1.1617854
1.1692081
1.1758572
1.1816441
1.1865288
1.1905226
1.1936831
1.1961029
1.1978955
1.1991802
1.200071
1.2006681
1.2010545
1.2012953
1.2014392
1.2015212
1.2015654
1.2015877
1.2015982
1.2016026
1.2016043
1.2016048
1.201605
1.201605
1.2016051
1.2016051
1.2016051
1.2016051
1.0088273
1.0124906
1.0164377
1.0206845
1.025247
1.0301409
1.0353812
1.0409819
1.0469556
1.0533124
1.0600592
1.0671981
1.074725
1.0826275
1.0908823
1.0994521
1.1082828
1.1173006
1.1264093
1.1354904
1.1444044
1.1529971
1.1611084
1.1685861
1.1753008
1.1811607
1.1861214
1.1901897
1.1934195
1.1959005
1.1977448
1.1990714
1.1999946
1.200616
1.2010199
1.2012729
1.2014251
1.2015124
1.20156
1.2015843
1.2015958
1.2016007
1.2016026
1.2016033
1.2016035
1.2016035
1.2016036
1.2016036
1.2016036
1.2016036
1.008465
1.0121144
1.0160463
1.0202768
1.0248215
1.0296962
1.0349159
1.0404945
1.0464446
1.0527765
1.0594971
1.0666089
1.0741083
1.0819834
1.0902118
1.0987575
1.1075678
1.1165705
1.1256717
1.1347547
1.1436821
1.1523009
1.1604516
1.1679813
1.1747585
1.1806882
1.1857219
1.1898624
1.1931595
1.1957004
1.1975953
1.1989629
1.1999182
1.2005637
1.2009851
1.2012503
1.2014108
1.2015035
1.2015544
1.2015807
1.2015933
1.2015988
1.201601
1.2016018
1.201602
1.201602
1.2016021
1.2016021
1.2016021
1.2016021
1.0081169
1.0117529
1.0156703
1.019885
1.0244127
1.0292689
1.0344687
1.0400261
1.0459535
1.0522614
1.0589567
1.0660424
1.0735152
1.0813638
1.0895666
1.0980887
1.1068789
1.1158666
1.1249598
1.1340439
1.1429832
1.1516262
1.1598138
1.1673927
1.1742295
1.1802261
1.1853302
1.1895405
1.192903
1.1955023
1.1974469
1.198855
1.199842
1.2005113
1.20095
1.2012275
1.2013962
1.2014944
1.2015487
1.201577
1.2015908
1.2015969
1.2015993
1.2016002
1.2016005
1.2016005
1.2016006
1.2016006
1.2016006
1.2016006
1.007782
1.0114052
1.0153086
1.019508
1.0240193
1.0288578
1.0340384
1.0395753
1.0454809
1.0517655
1.0584366
1.065497
1.0729441
1.080767
1.088945
1.0974441
1.1062145
1.1151872
1.1242721
1.1333564
1.1423064
1.1509717
1.159194
1.1668195
1.1737132
1.179774
1.184946
1.1892238
1.1926501
1.1953064
1.1972997
1.1987477
1.1997658
1.2004588
1.2009148
1.2012044
1.2013815
1.2014852
1.2015429
1.2015733
1.2015882
1.2015949
1.2015976
1.2015986
1.201599
1.201599
1.2015991
1.2015991
1.2015991
1.2015991
1.0074594
1.0110701
1.0149601
1.0191449
1.0236402
1.0284616
1.0336238
1.0391409
1.0450254
1.0512877
1.0579352
1.0649713
1.0723934
1.0801915
1.0883453
1.096822
1.1055729
1.1145308
1.1236071
1.1326909
1.1416503
1.1503363
1.1585913
1.166261
1.1732089
1.1793313
1.1845688
1.1889121
1.1924004
1.1951125
1.1971537
1.1986408
1.1996899
1.2004062
1.2008794
1.2011812
1.2013666
1.2014757
1.201537
1.2015695
1.2015855
1.2015929
1.2015959
1.2015971
1.2015974
1.2015975
1.2015976
1.2015976
1.2015976
1.2015976
1.0071483
1.010747
1.0146239
1.0187946
1.0232746
1.0280795
1.0332239
1.0387218
1.0445859
1.0508266
1.0574515
1.0644639
1.0718619
1.0796358
1.0877661
1.0962209
1.1049528
1.1138958
1.1229633
1.132046
1.1410137
1.1497189
1.1580047
1.1657164
1.1727162
1.1788978
1.1841985
1.1886054
1.1921541
1.1949207
1.1970087
1.1985345
1.1996141
1.2003536
1.2008439
1.2011578
1.2013515
1.2014662
1.2015309
1.2015655
1.2015828
1.2015909
1.2015942
1.2015955
1.2015959
1.201596
1.2015961
1.2015961
1.2015961
1.2015961
1.0068479
1.010435
1.0142993
1.0184563
1.0229215
1.0277104
1.0328376
1.0383171
1.0441615
1.0503813
1.0569841
1.0639738
1.0713484
1.0790988
1.0872062
1.0956396
1.1043528
1.1132811
1.1223395
1.1314205
1.1403957
1.1491187
1.1574334
1.165185
1.1722344
1.178473
1.1838349
1.1883034
1.191911
1.1947309
1.196865
1.1984287
1.1995384
1.200301
1.2008082
1.2011342
1.2013362
1.2014564
1.2015247
1.2015615
1.2015801
1.2015888
1.2015925
1.2015939
1.2015944
1.2015945
1.2015946
1.2015946
1.2015946
1.2015946
1.0065575
1.0101334
1.0139855
1.0181293
1.0225802
1.0273536
1.0324641
1.0379258
1.0437511
1.0499506
1.0565322
1.0634997
1.0708516
1.0785792
1.0866644
1.095077
1.1037717
1.1126854
1.1217346
1.1308135
1.1397951
1.1485346
1.1568767
1.1646663
1.1717632
1.1780567
1.1834776
1.188006
1.1916709
1.194543
1.1967223
1.1983235
1.199463
1.2002484
1.2007724
1.2011104
1.2013208
1.2014466
1.2015185
1.2015574
1.2015773
1.2015867
1.2015907
1.2015923
1.2015928
1.201593
1.2015931
1.2015931
1.2015931
1.2015931
1.0062765
1.0098415
1.0136818
1.0178128
1.0222499
1.0270083
1.0321027
1.0375471
1.0433539
1.0495339
1.0560948
1.0630409
1.0703707
1.0780762
1.0861396
1.0945318
1.1032084
1.1121077
1.1211475
1.1302237
1.1392111
1.147966
1.1563338
1.1641596
1.1713021
1.1776483
1.1831264
1.187713
1.1914339
1.1943571
1.1965807
1.1982189
1.1993878
1.2001958
1.2007365
1.2010865
1.2013052
1.2014366
1.2015121
1.2015533
1.2015744
1.2015845
1.201589
1.2015907
1.2015913
1.2015915
1.2015916
1.2015916
1.2015916
1.2015916
1.0060043
1.0095588
1.0133877
1.0175063
1.0219299
1.0266738
1.0317527
1.0371802
1.0429692
1.0491301
1.0556711
1.0625962
1.0699047
1.0775886
1.0856309
1.0940031
1.102662
1.1115469
1.1205772
1.1296505
1.1386428
1.1474119
1.1558041
1.1636644
1.1708506
1.1772478
1.1827812
1.1874243
1.1911998
1.194173
1.1964403
1.1981148
1.1993128
1.2001432
1.2007005
1.2010625
1.2012895
1.2014264
1.2015056
1.201549
1.2015715
1.2015824
1.2015872
1.2015891
1.2015898
1.20159
1.20159
1.2015901
1.2015901
1.2015901
1.0057404
1.0092848
1.0131025
1.0172091
1.0216198
1.0263496
1.0314133
1.0368246
1.0425961
1.0487386
1.0552601
1.0621651
1.0694527
1.0771156
1.0851373
1.09349
1.1021314
1.1110022
1.1200229
1.1290928
1.1380894
1.1468718
1.155287
1.1631803
1.1704084
1.1768547
1.1824417
1.1871398
1.1909686
1.1939907
1.1963009
1.1980113
1.199238
1.2000906
1.2006645
1.2010384
1.2012736
1.2014162
1.201499
1.2015447
1.2015686
1.2015802
1.2015854
1.2015875
1.2015882
1.2015885
1.2015885
1.2015886
1.2015886
1.2015886
1.0054844
1.0090189
1.0128259
1.0169208
1.0213188
1.026035
1.0310839
1.0364795
1.0422341
1.0483587
1.0548614
1.0617466
1.069014
1.0766564
1.084658
1.0929916
1.1016159
1.1104726
1.1194838
1.1285499
1.1375502
1.1463449
1.154782
1.1627067
1.1699751
1.1764687
1.1821077
1.1868593
1.1907401
1.1938103
1.1961626
1.1979083
1.1991635
1.2000381
1.2006284
1.2010141
1.2012577
1.2014058
1.2014923
1.2015403
1.2015656
1.2015779
1.2015835
1.2015858
1.2015867
1.201587
1.201587
1.2015871
1.2015871
1.2015871
1.0052359
1.0087607
1.0125572
1.0166408
1.0210265
1.0257295
1.0307641
1.0361443
1.0418826
1.0479898
1.0544741
1.0613402
1.0685879
1.0762104
1.0841923
1.0925072
1.1011147
1.1099575
1.118959
1.1280211
1.1370245
1.1458307
1.1542884
1.1622431
1.1695503
1.1760897
1.181779
1.1865828
1.1905144
1.1936316
1.1960254
1.1978059
1.1990892
1.1999856
1.2005922
1.2009898
1.2012416
1.2013954
1.2014855
1.2015359
1.2015625
1.2015757
1.2015817
1.2015842
1.2015851
1.2015854
1.2015855
1.2015856
1.2015856
1.2015856
1.0049943
1.0085097
1.0122962
1.0163687
1.0207425
1.0254325
1.0304533
1.0358186
1.041541
1.0476312
1.0540977
1.0609451
1.0681736
1.0757767
1.0837394
1.092036
1.1006269
1.109456
1.1184478
1.1275057
1.1365116
1.1453285
1.1538058
1.1617893
1.1691337
1.1757174
1.1814556
1.1863101
1.1902914
1.1934547
1.1958892
1.1977041
1.1990152
1.1999331
1.200556
1.2009653
1.2012254
1.2013848
1.2014786
1.2015314
1.2015594
1.2015734
1.2015798
1.2015826
1.2015836
1.2015839
1.201584
1.2015841
1.2015841
1.2015841
1.0047594
1.0082657
1.0120423
1.0161041
1.0204663
1.0251438
1.0301511
1.0355019
1.0412087
1.0472825
1.0537315
1.0605608
1.0677706
1.0753547
1.0832987
1.0915774
1.1001521
1.1089676
1.1179497
1.127003
1.1360111
1.1448379
1.1533338
1.1613447
1.168725
1.1753514
1.1811371
1.186041
1.1900709
1.1932795
1.195754
1.1976028
1.1989414
1.1998808
1.2005197
1.2009408
1.2012091
1.2013742
1.2014717
1.2015268
1.2015562
1.2015711
1.201578
1.2015809
1.201582
1.2015824
1.2015825
1.2015826
1.2015826
1.2015826
1.0045308
1.0080283
1.0117952
1.0158466
1.0201975
1.0248628
1.0298569
1.0351936
1.0408854
1.0469431
1.0533752
1.0601868
1.0673783
1.074944
1.0828696
1.0911308
1.0996895
1.1084916
1.1174639
1.1265126
1.1355223
1.1443582
1.1528718
1.1609091
1.1683239
1.1749917
1.1808236
1.1857756
1.189853
1.1931059
1.1956199
1.1975021
1.1988679
1.1998285
1.2004835
1.2009162
1.2011927
1.2013634
1.2014647
1.2015221
1.201553
1.2015687
1.2015761
1.2015792
1.2015805
1.2015809
1.201581
1.2015811
1.2015811
1.2015811
1.0043082
1.0077971
1.0115546
1.0155958
1.0199357
1.0245892
1.0295705
1.0348934
1.0405705
1.0466126
1.0530282
1.0598226
1.0669963
1.0745438
1.0824516
1.0906956
1.0992385
1.1080273
1.11699
1.1260338
1.1350447
1.1438892
1.1524195
1.160482
1.1679302
1.1746381
1.1805147
1.1855137
1.1896375
1.192934
1.1954867
1.197402
1.1987946
1.1997763
1.2004472
1.2008915
1.2011763
1.2013526
1.2014576
1.2015174
1.2015498
1.2015663
1.2015741
1.2015775
1.2015789
1.2015794
1.2015795
1.2015796
1.2015796
1.2015796
1.0040913
1.0075718
1.0113202
1.0153515
1.0196807
1.0243225
1.0292914
1.0346009
1.0402636
1.0462905
1.05269
1.0594676
1.0666239
1.0741538
1.082044
1.0902712
1.0987987
1.1075744
1.1165273
1.125566
1.1345778
1.1434303
1.1519765
1.1600632
1.1675435
1.1742902
1.1802103
1.1852552
1.1894245
1.1927636
1.1953546
1.1973024
1.1987216
1.1997241
1.2004108
1.2008667
1.2011597
1.2013416
1.2014504
1.2015126
1.2015465
1.2015639
1.2015722
1.2015759
1.2015773
1.2015778
1.201578
1.2015781
1.2015781
1.2015781
1.0038798
1.0073521
1.0110916
1.0151133
1.019432
1.0240626
1.0290193
1.0343157
1.0399645
1.0459765
1.0523603
1.0591214
1.0662608
1.0737734
1.0816465
1.0898571
1.0983695
1.1071322
1.1160754
1.1251089
1.1341212
1.1429811
1.1515424
1.1596524
1.1671636
1.1739479
1.1799104
1.185
1.1892138
1.1925949
1.1952234
1.1972033
1.1986488
1.1996721
1.2003745
1.2008419
1.2011431
1.2013306
1.2014431
1.2015078
1.2015432
1.2015614
1.2015702
1.2015741
1.2015757
1.2015763
1.2015765
1.2015766
1.2015766
1.2015766
1.0036735
1.0071378
1.0108686
1.0148809
1.0191895
1.023809
1.0287538
1.0340375
1.0396726
1.0456701
1.0520386
1.0587837
1.0659065
1.0734022
1.0812585
1.0894529
1.0979504
1.1067003
1.1156339
1.124662
1.1336745
1.1425412
1.1511169
1.1592492
1.1667903
1.1736111
1.1796148
1.184748
1.1890054
1.1924277
1.1950931
1.1971048
1.1985764
1.1996201
1.2003381
1.200817
1.2011263
1.2013195
1.2014358
1.2015029
1.2015398
1.201559
1.2015683
1.2015724
1.2015741
1.2015748
1.201575
1.2015751
1.2015751
1.2015751
1.0034722
1.0069286
1.010651
1.0146541
1.0189527
1.0235615
1.0284947
1.033766
1.0393878
1.0453711
1.0517247
1.0584541
1.0655606
1.0730398
1.0808797
1.0890582
1.097541
1.1062782
1.1152022
1.1242249
1.1332373
1.1421103
1.1506997
1.1588533
1.1664233
1.1732795
1.1793233
1.1844992
1.1887992
1.1922619
1.1949639
1.1970068
1.1985041
1.1995683
1.2003018
1.200792
1.2011095
1.2013083
1.2014284
1.2014979
1.2015364
1.2015564
1.2015663
1.2015707
1.2015725
1.2015732
1.2015735
1.2015735
1.2015736
1.2015736
1.0032756
1.0067244
1.0104385
1.0144326
1.0187215
1.0233198
1.0282417
1.0335008
1.0391096
1.0450791
1.051418
1.0581321
1.0652228
1.0726859
1.0805096
1.0886725
1.0971408
1.1058656
1.11478
1.1237971
1.1328091
1.141688
1.1502904
1.1584646
1.1660625
1.172953
1.1790359
1.1842534
1.1885952
1.1920977
1.1948355
1.1969094
1.1984322
1.1995165
1.2002654
1.200767
1.2010926
1.2012971
1.2014209
1.2014929
1.2015329
1.2015539
1.2015642
1.201569
1.2015709
1.2015717
1.201572
1.201572
1.2015721
1.2015721
1.0030834
1.0065248
1.0102308
1.0142162
1.0184956
1.0230836
1.0279945
1.0332417
1.0388378
1.0447938
1.0511184
1.0578175
1.0648927
1.0723399
1.0801479
1.0882955
1.0967496
1.105462
1.1143668
1.1233783
1.1323896
1.141274
1.1498888
1.1580828
1.1657077
1.1726315
1.1787525
1.1840106
1.1883934
1.1919349
1.1947081
1.1968125
1.1983605
1.1994649
1.2002291
1.200742
1.2010757
1.2012858
1.2014134
1.2014878
1.2015294
1.2015513
1.2015622
1.2015672
1.2015693
1.2015702
1.2015704
1.2015705
1.2015706
1.2015706
1.0028956
1.0063298
1.0100279
1.0140046
1.0182747
1.0228528
1.0277528
1.0329884
1.0385721
1.0445149
1.0508255
1.05751
1.06457
1.0720017
1.0797942
1.0879268
1.0963668
1.1050671
1.1139624
1.1229681
1.1319786
1.140868
1.1494946
1.1577076
1.1653586
1.1723147
1.1784728
1.1837707
1.1881937
1.1917736
1.1945816
1.1967161
1.1982891
1.1994133
1.2001927
1.2007169
1.2010587
1.2012744
1.2014058
1.2014827
1.2015258
1.2015487
1.2015601
1.2015654
1.2015677
1.2015686
1.2015689
1.201569
1.2015691
1.2015691
1.002712
1.006139
1.0098294
1.0137977
1.0180588
1.022627
1.0275165
1.0327408
1.0383123
1.0442421
1.0505391
1.0572092
1.0642543
1.0716709
1.0794482
1.087566
1.0959923
1.1046805
1.1135664
1.1225663
1.1315756
1.1404697
1.1491075
1.1573388
1.1650151
1.1720026
1.1781969
1.1835337
1.187996
1.1916136
1.1944559
1.1966203
1.198218
1.1993618
1.2001564
1.2006918
1.2010416
1.2012629
1.2013981
1.2014775
1.2015222
1.2015461
1.201558
1.2015637
1.2015661
1.2015671
1.2015674
1.2015675
1.2015676
1.2015676
1.0025323
1.0059523
1.0096351
1.0135953
1.0178475
1.0224061
1.0272853
1.0324985
1.0380581
1.0439753
1.0502589
1.0569149
1.0639455
1.0713472
1.0791095
1.0872128
1.0956256
1.1043019
1.1131784
1.1221724
1.1311804
1.1400788
1.1487273
1.1569762
1.1646769
1.1716951
1.1779246
1.1832994
1.1878003
1.191455
1.1943312
1.1965249
1.1981471
1.1993105
1.20012
1.2006666
1.2010245
1.2012514
1.2013904
1.2014723
1.2015186
1.2015434
1.2015559
1.2015619
1.2015645
1.2015655
1.2015659
1.201566
1.2015661
1.2015661
1.0023564
1.0057696
1.009445
1.0133972
1.0176407
1.0221899
1.027059
1.0322613
1.0378093
1.0437141
1.0499846
1.0566269
1.0636432
1.0710303
1.078778
1.086867
1.0952665
1.1039309
1.1127981
1.1217862
1.1307927
1.139695
1.1483537
1.1566196
1.164344
1.1713919
1.1776558
1.1830678
1.1876066
1.1912978
1.1942073
1.1964301
1.1980765
1.1992592
1.2000837
1.2006414
1.2010073
1.2012398
1.2013826
1.201467
1.2015149
1.2015407
1.2015538
1.2015601
1.2015628
1.2015639
1.2015644
1.2015645
1.2015646
1.2015646
1.0021842
1.0055907
1.0092589
1.0132032
1.0174382
1.0219782
1.0268374
1.0320291
1.0375657
1.0434583
1.049716
1.0563448
1.0633471
1.0707199
1.0784533
1.0865283
1.0949146
1.1035674
1.1124254
1.1214075
1.1304123
1.1393182
1.1479866
1.1562689
1.1640162
1.171093
1.1773904
1.1828389
1.1874149
1.1911419
1.1940843
1.1963358
1.1980061
1.1992081
1.2000474
1.2006161
1.20099
1.2012281
1.2013747
1.2014617
1.2015112
1.201538
1.2015517
1.2015582
1.2015612
1.2015624
1.2015628
1.201563
1.201563
1.2015631
1.0020155
1.0054155
1.0090766
1.0130132
1.0172398
1.0217709
1.0266203
1.0318016
1.0373271
1.0432078
1.0494529
1.0560685
1.0630571
1.0704158
1.0781351
1.0861963
1.0945697
1.1032111
1.1120598
1.1210358
1.1300388
1.138948
1.1476257
1.1559237
1.1636933
1.1707982
1.1771284
1.1826125
1.1872249
1.1909873
1.1939621
1.1962419
1.197936
1.1991571
1.2000111
1.2005909
1.2009727
1.2012164
1.2013668
1.2014563
1.2015074
1.2015352
1.2015495
1.2015564
1.2015595
1.2015608
1.2015613
1.2015615
1.2015615
1.2015616
1.0018502
1.0052438
1.0088979
1.0128269
1.0170454
1.0215677
1.0264076
1.0315787
1.0370932
1.0429623
1.0491951
1.0557977
1.0627728
1.0701178
1.0778232
1.0858709
1.0942315
1.1028615
1.1117011
1.1206711
1.129672
1.1385842
1.1472708
1.155584
1.1633752
1.1705074
1.1768696
1.1823886
1.1870369
1.1908339
1.1938407
1.1961486
1.1978662
1.1991062
1.1999749
1.2005656
1.2009553
1.2012046
1.2013588
1.2014508
1.2015036
1.2015324
1.2015473
1.2015546
1.2015579
1.2015592
1.2015598
1.20156
1.20156
1.2015601
1.0016881
1.0050754
1.0087227
1.0126444
1.0168549
1.0213685
1.0261991
1.0313601
1.036864
1.0427217
1.0489423
1.0555323
1.0624942
1.0698256
1.0775174
1.0855518
1.0938998
1.1025187
1.1113491
1.120313
1.1293118
1.1382267
1.1469218
1.1552496
1.1630617
1.1702206
1.176614
1.1821672
1.1868506
1.1906819
1.1937202
1.1960558
1.1977966
1.1990554
1.1999386
1.2005402
1.2009379
1.2011927
1.2013508
1.2014454
1.2014997
1.2015296
1.2015451
1.2015527
1.2015562
1.2015577
1.2015582
1.2015585
1.2015585
1.2015585
1.0015292
1.0049103
1.0085509
1.0124654
1.016668
1.0211731