/*--------------------------------*- C++ -*----------------------------------*\
| =========                 |                                                 |
| \\      /  F ield         | OpenFOAM: The Open Source CFD Toolbox           |
|  \\    /   O peration     | Version:  4.0                                   |
|   \\  /    A nd           | Web:      www.OpenFOAM.org                      |
|    \\/     M anipulation  |                                                 |
\*---------------------------------------------------------------------------*/
FoamFile
{
    version     2.0;
    format      ascii;
    class       surfaceScalarField;
    location    "3000/fluid";
    object      snGradRho;
}
// * * * * * * * * * * * * * * * * * * * * * * * * * * * * * * * * * * * * * //

dimensions      [1 -4 0 0 0 0 0];

internalField   nonuniform List<scalar> 
9850
(
78.31894
-0.52666054
76.639109
-0.72333485
74.337554
-0.93251042
71.376916
-1.1492882
67.742497
-1.3670644
63.449387
-1.5775508
58.548694
-1.7710032
53.131471
-1.9367183
47.328858
-2.0638344
41.307133
-2.1424208
35.256934
-2.1647697
29.377324
-2.1267138
23.856568
-2.0287091
18.852906
-1.8763883
14.479077
-1.680331
10.793774
-1.454949
7.8016193
-1.2166162
5.4608545
-0.98141891
3.6963764
-0.76304128
2.4149302
-0.57127402
1.5188043
-0.41143012
0.91619112
-0.28464541
0.52748455
-0.18880394
0.28794809
-0.11972578
0.14775023
-0.07229773
0.070442723
-0.041355879
0.030712844
-0.022258424
0.011959217
-0.011179435
0.0039951205
-0.0051922099
0.0010498387
-0.002214098
0.00015822194
-0.00087253239
-2.8257275e-05
-0.00033767438
-3.2089436e-05
-0.00015573672
-1.3485054e-05
-0.00010659381
-3.4631874e-06
-9.8108145e-05
-4.2149207e-07
-9.8464954e-05
1.002784e-07
-9.9414185e-05
5.7205031e-08
-9.9826601e-05
2.9130009e-08
-9.993394e-05
-4.3106264e-09
-9.9947738e-05
1.344202e-08
-9.9942904e-05
-5.3388297e-09
-9.9936308e-05
1.7465754e-08
-9.9931981e-05
-2.1374032e-09
-9.9927705e-05
2.3635768e-08
-9.992765e-05
-1.5085769e-09
-9.9927308e-05
4.3873172e-09
-9.9938387e-05
1.1805569e-09
-9.99341e-05
4.5247906e-07
-9.9869528e-05
-0.00010017645
48.457385
-0.35686068
47.768857
-0.36914002
47.140055
-0.3839778
46.539894
-0.40264747
45.920826
-0.42647929
45.218281
-0.45667429
44.352349
-0.49404385
43.232489
-0.53868962
41.765808
-0.58966301
39.868998
-0.64467371
37.483014
-0.69994423
34.588586
-0.75031966
31.219197
-0.78972257
27.467499
-0.81197727
23.481294
-0.81191394
19.447295
-0.78652654
15.564463
-0.73585494
12.012893
-0.66326434
8.9266332
-0.57494811
6.3779408
-0.47874837
4.376244
-0.38264977
2.8797542
-0.29341175
1.8139973
-0.21570441
1.0909016
-0.1518737
0.62394387
-0.102225
0.33761746
-0.065591435
0.17161007
-0.039957087
0.081175895
-0.022987666
0.035292598
-0.012410405
0.013866157
-0.0062453159
0.004803088
-0.0029155634
0.0014080278
-0.0012679157
0.00032057551
-0.00053122454
4.1871719e-05
-0.00023860552
-5.5791347e-06
-0.00013755284
-5.538596e-06
-0.00010809197
-1.920744e-06
-0.00010116561
-4.2095939e-07
-9.9968516e-05
-2.674432e-08
-9.985888e-05
1.3481872e-08
-9.9873322e-05
3.5514535e-08
-9.9884085e-05
7.8245887e-09
-9.9889951e-05
2.9290097e-08
-9.9895112e-05
-1.9989409e-09
-9.9898467e-05
2.4418105e-08
-9.9904796e-05
-2.4522615e-08
-9.9909509e-05
1.2482645e-08
-9.9917421e-05
1.1202199e-07
-9.9892307e-05
-2.6455754e-08
-9.9920035e-05
-0.00010020589
46.592981
-0.28630419
45.720959
-0.29253391
44.79771
-0.29933707
43.821914
-0.30680753
42.790433
-0.31509569
41.696544
-0.32442293
40.527673
-0.33508217
39.26301
-0.34741022
37.871654
-0.36171561
36.312391
-0.37814901
34.536303
-0.39651708
32.493391
-0.4160653
30.143486
-0.43528981
27.470281
-0.4518698
24.495318
-0.46282024
21.287108
-0.46492605
17.960364
-0.45542368
14.662667
-0.43276732
11.550383
-0.3972175
8.760514
-0.35099708
6.3874664
-0.29790435
4.4717923
-0.2424981
3.0027815
-0.1891473
1.9314506
-0.14126588
1.1877328
-0.10092693
0.69624378
-0.068868581
0.38741895
-0.044767384
0.20345672
-0.027617092
0.10008256
-0.016086651
0.045676131
-0.0087942055
0.01911175
-0.0044852263
0.0072237481
-0.002128439
0.0024205013
-0.00094898431
0.00070109555
-0.00041636943
0.00016912948
-0.00020289733
3.1799945e-05
-0.00012845679
3.9455711e-06
-0.00010643193
6.7434638e-08
-0.00010109005
-8.5226615e-08
-0.00010008438
-2.6139381e-08
-9.9952521e-05
1.588523e-08
-9.994336e-05
-7.875698e-09
-9.9942205e-05
2.001224e-08
-9.9940499e-05
-1.7906669e-08
-9.9938807e-05
1.3648553e-08
-9.9938256e-05
-4.0958447e-08
-9.9938345e-05
5.9904861e-08
-9.9928274e-05
6.4425451e-08
-9.99105e-05
-4.7251761e-07
-9.9980107e-05
-0.0001000086
45.647107
-0.23477756
44.781991
-0.24060472
43.860447
-0.24694098
42.876663
-0.25380752
41.823454
-0.26121685
40.692008
-0.26916996
39.471563
-0.2776533
38.148999
-0.28663473
36.708349
-0.29605568
35.130423
-0.30581451
33.392829
-0.31573365
31.471155
-0.32550391
29.342071
-0.33460587
26.989128
-0.34222372
24.411208
-0.34718994
21.632126
-0.34801905
18.708153
-0.34308712
15.729278
-0.33097195
12.810998
-0.31088805
10.076842
-0.28306702
7.6361976
-0.24890666
5.5648229
-0.2107851
3.8945258
-0.17158219
2.6143862
-0.13408472
1.6811093
-0.10048818
1.0334212
-0.072134746
0.60552807
-0.049504878
0.336757
-0.032385807
0.1767201
-0.020111444
0.086840908
-0.011791001
0.039578792
-0.0064861191
0.016534812
-0.0033296231
0.0062427127
-0.0015945865
0.002093695
-0.00072438336
0.00061057609
-0.00033181026
0.00015053131
-0.00017508699
3.0123199e-05
-0.00012073512
4.5474007e-06
-0.00010470928
4.4875588e-07
-0.00010079662
7.5839343e-09
-0.00010003414
1.9750271e-08
-9.9924092e-05
-2.6840271e-09
-9.9916374e-05
2.4689033e-08
-9.9919012e-05
-1.6520185e-08
-9.9923191e-05
1.3444004e-08
-9.9925863e-05
-2.0036951e-08
-9.9928406e-05
9.3466308e-08
-9.9918389e-05
-5.505842e-08
-9.9929564e-05
-5.1698623e-07
-0.00010001401
-0.00010002699
44.762354
-0.19414136
43.907466
-0.19900066
42.998953
-0.20428134
42.031641
-0.20999835
40.998935
-0.21615686
39.892531
-0.2227471
38.70215
-0.22973738
37.415356
-0.23706536
36.017531
-0.24462727
34.492136
-0.25226503
32.821317
-0.25975117
30.987171
-0.26677116
28.973852
-0.27290286
26.770917
-0.27759515
24.378092
-0.28015285
21.811197
-0.27974462
19.108022
-0.27545956
16.33186
-0.26643786
13.569789
-0.25207818
10.92378
-0.2322793
8.4953711
-0.20762573
6.3679972
-0.17941585
4.592879
-0.14948198
3.1831734
-0.11984611
2.1174673
-0.092333145
1.3500147
-0.068275538
0.82324014
-0.048385938
0.47865757
-0.032794244
0.26416103
-0.021189564
0.1375198
-0.012994864
0.066990742
-0.0075223167
0.03023185
-0.0040867726
0.012487563
-0.0020770273
0.0046546715
-0.00099382242
0.0015399751
-0.00046314477
0.00044353075
-0.00023043748
0.00010865705
-0.00014065164
2.1977178e-05
-0.00011074135
3.5364386e-06
-0.00010231711
4.1269481e-07
-0.00010035859
4.557439e-08
-9.9992437e-05
-1.0707875e-08
-9.9939542e-05
1.3133097e-08
-9.9932557e-05
-2.3236037e-08
-9.9933158e-05
7.6327953e-09
-9.9931698e-05
7.7150823e-10
-9.9929846e-05
7.2363774e-08
-9.9922228e-05
-2.000072e-07
-9.9950455e-05
-5.372496e-07
-0.00010000681
-9.9944086e-05
44.024554
-0.16271653
43.178631
-0.16707207
42.281683
-0.17180525
41.329272
-0.17692986
40.315708
-0.18245108
39.233762
-0.18836079
38.074382
-0.19463142
36.826483
-0.20120769
35.476862
-0.20799641
34.010409
-0.21485404
32.410683
-0.22157281
30.661127
-0.22786634
28.747044
-0.23335723
26.658533
-0.23756975
24.394398
-0.23993306
21.966781
-0.23980196
19.405789
-0.23650467
16.762697
-0.22942721
14.109783
-0.21813666
11.535016
-0.20252817
9.1311579
-0.18295402
6.9812708
-0.16027526
5.1448178
-0.13578721
3.648966
-0.11101708
2.4877127
-0.087452144
1.6282716
-0.066290533
1.0215278
-0.048291094
0.61281611
-0.033748154
0.3502805
-0.022566004
0.18980044
-0.014382234
0.096826028
-0.0086932395
0.046097543
-0.0049546583
0.020260981
-0.0026497226
0.0081165822
-0.0013303119
0.0029199739
-0.00063801304
0.00092754725
-0.00030995999
0.00025523094
-0.000171871
5.9504728e-05
-0.00012115245
1.1467519e-05
-0.00010520789
1.7605763e-06
-0.00010100665
2.2257953e-07
-0.00010010021
1.0541038e-08
-9.9946294e-05
1.1472512e-08
-9.9927024e-05
-1.9566096e-08
-9.9927972e-05
1.1864852e-08
-9.9927534e-05
1.6596344e-08
-9.9925648e-05
1.906179e-08
-9.9925924e-05
-2.9673687e-07
-9.9958939e-05
-4.3937994e-07
-9.9988499e-05
-9.9923558e-05
43.363241
-0.13787187
42.525361
-0.14166298
41.638736
-0.14578247
40.699587
-0.15024305
39.703033
-0.1550506
38.642813
-0.16020054
37.511012
-0.16567275
36.297822
-0.17142491
34.991417
-0.17738391
33.578063
-0.18343523
32.042543
-0.18941059
30.369157
-0.1950748
28.543426
-0.20011383
26.554691
-0.20412748
24.399634
-0.20663188
22.086501
-0.20707821
19.639386
-0.20489465
17.10145
-0.19955629
14.535489
-0.19068223
12.020318
-0.17814736
9.6422856
-0.16218191
7.4829725
-0.1434198
5.606137
-0.12285977
4.0479188
-0.10172942
2.8133889
-0.08128232
1.880085
-0.062590786
1.2064778
-0.046398282
0.7420899
-0.033066291
0.43628511
-0.022610189
0.24414885
-0.014790114
0.12929298
-0.0092169034
0.064293582
-0.005443867
0.029729486
-0.0030319506
0.012632839
-0.001589179
0.0048653913
-0.00079113161
0.0016719558
-0.00038876501
0.00050377468
-0.00020683415
0.0001305332
-0.00013435938
2.8480512e-05
-0.00010939604
5.0973585e-06
-0.00010210663
7.3762705e-07
-0.00010033836
6.915856e-08
-9.999008e-05
8.8532855e-09
-9.9935235e-05
-1.8465765e-08
-9.9928921e-05
1.6175555e-08
-9.9926227e-05
1.6021726e-08
-9.9923914e-05
-4.3280575e-08
-9.9930639e-05
-3.4747774e-07
-9.9961662e-05
-3.3804562e-07
-9.9972146e-05
-9.9913584e-05
42.787629
-0.11837933
41.956791
-0.12182328
41.079101
-0.12556597
40.151293
-0.12961974
39.169126
-0.13399118
38.127108
-0.13867798
37.01824
-0.14366459
35.833773
-0.14891657
34.56305
-0.15437336
33.193554
-0.15993924
31.711214
-0.16547284
30.101213
-0.17077576
28.349421
-0.17558182
26.44465
-0.1795497
24.381807
-0.18226336
22.165783
-0.18324579
19.815582
-0.18199262
17.3677
-0.17803001
14.877365
-0.17099636
12.41615
-0.16073775
10.065141
-0.1473952
7.9041986
-0.13145287
5.999669
-0.11371762
4.3940867
-0.095218462
3.1010507
-0.077044664
2.1066193
-0.060168879
1.3760276
-0.045308777
0.86297005
-0.032862473
0.51846759
-0.02292137
0.29739116
-0.015337174
0.16205915
-0.0098100246
0.083334167
-0.0059702672
0.040083267
-0.003439584
0.017838954
-0.0018695554
0.0072515022
-0.00096258106
0.0026527067
-0.00048131433
0.00085893373
-0.00025043071
0.00024173769
-0.00015202806
5.7999156e-05
-0.00011545785
1.1606658e-05
-0.00010383479
1.9031081e-06
-0.00010073789
2.3599495e-07
-0.00010006082
2.6315069e-08
-9.994214e-05
-1.1694282e-08
-9.9926076e-05
2.1462049e-08
-9.9922692e-05
2.0515539e-09
-9.9922507e-05
-1.0186213e-07
-9.9933336e-05
-3.6547491e-07
-9.9958597e-05
-2.4666373e-07
-9.995343e-05
-9.9899612e-05
42.264724
-0.10279274
41.440229
-0.10588805
40.570505
-0.10925205
39.652737
-0.11289662
38.683233
-0.11682903
37.657166
-0.12104931
36.568317
-0.12554662
35.408833
-0.13029451
34.169047
-0.13524468
32.837472
-0.14031927
31.40102
-0.14540156
29.845658
-0.15032588
28.157628
-0.15486758
26.325414
-0.15873553
24.342566
-0.16157065
22.211284
-0.1629553
19.94637
-0.16243939
17.578733
-0.1595877
15.157158
-0.15404907
12.746952
-0.14564018
10.424445
-0.13442618
8.2675516
-0.12077173
6.3441975
-0.10533572
4.7017679
-0.088996366
3.3607683
-0.072717858
2.3145131
-0.057394888
1.5343137
-0.043721135
0.97789644
-0.03211673
0.59817117
-0.022724361
0.35019343
-0.015458763
0.19540474
-0.010082129
0.10331234
-0.0062794305
0.051350284
-0.003717638
0.023755661
-0.0020841931
0.010105506
-0.0011078119
0.0038973515
-0.000567566
0.0013411511
-0.00029506401
0.00040464749
-0.0001719183
0.00010506701
-0.00012298387
2.3006886e-05
-0.00010621564
4.16885e-06
-0.00010135773
5.9700441e-07
-0.0001001914
7.0737252e-08
-9.9963397e-05
-3.1867923e-09
-9.9927347e-05
2.1882849e-08
-9.9920982e-05
-2.0443092e-08
-9.9922483e-05
-1.4956216e-07
-9.9934533e-05
-3.5660467e-07
-9.9953219e-05
-1.626852e-07
-9.9940034e-05
-9.9901471e-05
41.794754
-0.090306371
40.975932
-0.0931457
40.113247
-0.096231783
39.204252
-0.099576183
38.245707
-0.10318656
37.233336
-0.1070644
36.161579
-0.11120191
35.023345
-0.11557787
33.809822
-0.12015229
32.510431
-0.12485966
31.112971
-0.1296009
29.60416
-0.13423436
27.970665
-0.13856671
26.200842
-0.1423457
24.287261
-0.1452575
22.230016
-0.14693304
20.040492
-0.1469682
17.74491
-0.14496252
15.386502
-0.14057786
13.02498
-0.13361204
10.732185
-0.12407348
8.5837986
-0.11223404
6.6485018
-0.098635449
4.9773619
-0.084034363
3.5965881
-0.069291518
2.5058099
-0.055233761
1.6818929
-0.042529451
1.0864791
-0.031611533
0.67452656
-0.022661724
0.40155778
-0.015646201
0.2284285
-0.010379747
0.12353611
-0.0065942184
0.063072397
-0.003994954
0.030125149
-0.0022989054
0.013309268
-0.0012559584
0.0053663522
-0.00065851786
0.0019446206
-0.00034430024
0.00062263637
-0.0001951127
0.0001729703
-0.00013234564
4.0889732e-05
-0.00010939836
8.0717945e-06
-0.00010225211
1.290592e-06
-0.00010039398
1.7042648e-07
-9.999775e-05
1.2813368e-08
-9.9929556e-05
1.8453629e-08
-9.9919111e-05
-4.5474829e-08
-9.9922255e-05
-1.8484751e-07
-9.9934258e-05
-3.3397101e-07
-9.9946999e-05
-1.0251153e-07
-9.9929763e-05
-9.9900237e-05
41.363652
-0.080134516
40.549994
-0.082729803
39.69365
-0.0855508
38.792494
-0.088608651
37.843681
-0.091911294
36.843414
-0.095461526
35.786703
-0.099254341
34.667119
-0.10327334
33.476592
-0.10748608
32.205336
-0.11183809
30.841937
-0.11624576
29.373793
-0.12058815
27.788003
-0.12469858
26.0729
-0.12835746
24.220336
-0.13128889
22.228739
-0.13316445
20.106691
-0.13361898
17.876464
-0.13228238
15.576487
-0.12882963
13.26147
-0.12304586
10.999019
-0.11489527
8.8624013
-0.10457467
6.9204327
-0.092528934
5.2269572
-0.079412319
3.8129363
-0.065996613
2.6835441
-0.053048469
1.8207417
-0.041211441
1.1899454
-0.030925967
0.74825386
-0.022403705
0.45186956
-0.015651444
0.26130316
-0.010525623
0.14405569
-0.0067951648
0.075243773
-0.0041958965
0.036928882
-0.0024688494
0.016852204
-0.0013822996
0.0070602331
-0.00074172052
0.0026757068
-0.00039260636
0.00090224564
-0.00021956828
0.00026589579
-0.00014298883
6.71964e-05
-0.0001133168
1.4289729e-05
-0.00010345187
2.4959189e-06
-0.00010069379
3.5899983e-07
-0.00010005684
3.9070756e-08
-9.9937472e-05
1.1270014e-08
-9.9919121e-05
-7.0408198e-08
-9.9922418e-05
-2.0890752e-07
-9.9933195e-05
-3.0438495e-07
-9.9940812e-05
-5.6437675e-08
-9.9922301e-05
-9.9902203e-05
40.969603
-0.071794492
40.160642
-0.074191679
39.310004
-0.076797489
38.415834
-0.079622655
37.475619
-0.082675193
36.485976
-0.085958709
35.442406
-0.089470068
34.339058
-0.093196261
33.168517
-0.09711029
31.921707
-0.10116594
30.587929
-0.10529137
29.155227
-0.10938182
27.611146
-0.11329183
25.944096
-0.11682839
24.145422
-0.11974691
22.212235
-0.12175341
20.150806
-0.12251659
17.980058
-0.12169412
15.734234
-0.11897554
13.463547
-0.1141398
11.231622
-0.10711875
9.1091897
-0.098050221
7.1647167
-0.087299878
5.4540841
-0.075435487
4.0122076
-0.063151057
2.8491449
-0.051157854
1.9515474
-0.040073377
1.2884689
-0.030340087
0.81921451
-0.022192339
0.50083783
-0.015670575
0.29369957
-0.010667264
0.1645753
-0.0069841419
0.087637605
-0.0043841371
0.044017062
-0.0026293554
0.02065096
-0.0015037829
0.0089422338
-0.0008239443
0.0035236713
-0.00044212572
0.0012433851
-0.00024580567
0.00038605331
-0.00015503813
0.00010351101
-0.00011803275
2.3519246e-05
-0.00010499676
4.4334837e-06
-0.00010110892
6.8909098e-07
-0.00010014554
8.5201195e-08
-9.9951124e-05
3.7365335e-09
-9.9920098e-05
-9.2796205e-08
-9.9922329e-05
-2.2329137e-07
-9.9931553e-05
-2.7260848e-07
-9.9935298e-05
-2.5077095e-08
-9.9917366e-05
-9.9904539e-05
40.605632
-0.064858129
39.80099
-0.067072684
38.955552
-0.06948004
38.067697
-0.07209049
37.135209
-0.074912047
36.155063
-0.077948974
35.123194
-0.081199751
34.034259
-0.084654313
32.881422
-0.088290411
31.656239
-0.09206894
30.348658
-0.095928204
28.947317
-0.099777226
27.440202
-0.10348858
25.815858
-0.10689174
24.065279
-0.1097688
22.184526
-0.11185518
20.177952
-0.11284898
18.061624
-0.11243278
15.866124
-0.11031058
13.63762
-0.10625883
11.436006
-0.10018499
9.3294386
-0.09217928
7.3856793
-0.082541251
5.6620587
-0.071764386
4.1967824
-0.060473908
3.0042176
-0.049330176
2.0753307
-0.038924635
1.3826628
-0.029698393
0.88775282
-0.021903232
0.54863573
-0.015607359
0.3256849
-0.01073361
0.18510073
-0.0071115362
0.10023047
-0.0045270477
0.051359809
-0.0027601835
0.024682534
-0.0016085317
0.011000537
-0.000898625
0.0044857281
-0.000489518
0.0016477285
-0.00027233503
0.0005359074
-0.00016795996
0.00015149887
-0.00012342106
3.652931e-05
-0.00010688683
7.3640678e-06
-0.00010165622
1.2267084e-06
-0.00010027342
1.6319398e-07
-9.9974174e-05
-1.3610735e-09
-9.9923197e-05
-1.1195762e-07
-9.9922483e-05
-2.3036391e-07
-9.9929805e-05
-2.4182687e-07
-9.9930603e-05
-5.0618755e-09
-9.9914016e-05
-9.9906287e-05
40.269391
-0.05904164
39.468729
-0.061100177
38.628038
-0.063337978
37.745903
-0.065764894
36.820362
-0.068388828
35.848707
-0.071214436
34.827251
-0.074241322
33.751103
-0.077461593
32.613944
-0.080856621
31.407899
-0.084392865
30.12351
-0.088016706
28.749972
-0.091648361
27.275705
-0.095175262
25.689442
-0.098445723
23.981944
-0.10126445
22.148442
-0.10339223
20.191689
-0.1045531
18.125297
-0.10445243
15.976631
-0.10280884
13.788209
-0.099399625
11.616437
-0.094114566
9.5268988
-0.087006054
7.5863878
-0.078318696
5.8532057
-0.06848226
4.3682839
-0.058061006
3.1497918
-0.047668215
2.1926656
-0.037869077
1.4727805
-0.029100153
0.95391721
-0.021625981
0.59519589
-0.015537767
0.35714007
-0.010784698
0.20550366
-0.0072211051
0.11291004
-0.0046536354
0.058872686
-0.0028784778
0.028892416
-0.0017053026
0.013205947
-0.00096942236
0.0055500225
-0.00053589492
0.0021126896
-0.00029931214
0.00071626859
-0.00018170763
0.00021236442
-0.00012945868
5.4032744e-05
-0.00010913103
1.1570533e-05
-0.0001023488
2.054193e-06
-0.00010044709
2.9133926e-07
-0.00010000843
2.7088193e-10
-9.9928435e-05
-1.2716765e-07
-9.9922743e-05
-2.3187107e-07
-9.9928003e-05
-2.1335433e-07
-9.9926686e-05
6.9985357e-09
-9.9911884e-05
-9.9908015e-05
39.956838
-0.054105965
39.159869
-0.05602296
38.32355
-0.058106903
37.446647
-0.060367208
36.527424
-0.062811627
35.563451
-0.065445102
34.55138
-0.068268163
33.48672
-0.071274753
32.363616
-0.07444932
31.174708
-0.077763063
29.911076
-0.081169239
28.562434
-0.084597602
27.117623
-0.087948249
25.56559
-0.09108559
23.896956
-0.093833764
22.106293
-0.095975579
20.195012
-0.097257883
18.17461
-0.097406676
16.069614
-0.096154737
13.919242
-0.093282198
11.776647
-0.088665969
9.7048821
-0.082327902
7.7695817
-0.074466428
6.0296368
-0.065456128
4.5282285
-0.055806916
3.2868824
-0.046088591
2.3041845
-0.03684051
1.5591874
-0.028492621
1.0178993
-0.02131876
0.64060318
-0.015429282
0.38808737
-0.010796142
0.22577224
-0.0072954279
0.12564913
-0.0047520956
0.066525971
-0.0029766056
0.033256327
-0.0017893221
0.015543001
-0.0010334214
0.0067093847
-0.00057954385
0.0026365839
-0.00032581452
0.0009278518
-0.00019586007
0.00028719422
-0.00013600163
7.6728468e-05
-0.00011170372
1.735549e-05
-0.00010319301
3.2671994e-06
-0.00010067373
4.9243162e-07
-0.00010005709
1.327812e-08
-9.9936771e-05
-1.3809401e-07
-9.9923459e-05
-2.2938397e-07
-9.9926365e-05
-1.8794553e-07
-9.9923512e-05
1.3035602e-08
-9.9910549e-05
-9.9909115e-05
39.665776
-0.049882543
38.872245
-0.051675302
38.039967
-0.053624182
37.167865
-0.055738173
36.254405
-0.058024826
35.297403
-0.060489232
34.293814
-0.063132586
33.239505
-0.065950236
32.12904
-0.068929069
30.955524
-0.072044116
29.710534
-0.075254292
28.384268
-0.078497294
26.965976
-0.081683894
25.444837
-0.084692224
23.811408
-0.087363175
22.059734
-0.089498777
20.1901
-0.090866144
18.212172
-0.091210097
16.14796
-0.090277175
14.033692
-0.087851916
11.919492
-0.083802288
9.8659449
-0.078125693
7.9373897
-0.070981809
6.1929973
-0.062697409
4.6777931
-0.053733931
3.4162637
-0.044621004
2.4103489
-0.035872672
1.6421225
-0.027910537
1.0797928
-0.021014716
0.68486474
-0.015311402
0.41848861
-0.010792381
0.24585028
-0.0073532142
0.1383906
-0.0048355031
0.074271294
-0.0030627452
0.037738963
-0.0018650168
0.017989759
-0.0010925616
0.0079527728
-0.00062103616
0.0032154938
-0.00035184885
0.0011702498
-0.00021030436
0.00037663927
-0.00014297907
0.00010520828
-0.00011458635
2.5019069e-05
-0.00010419221
4.9723958e-06
-0.00010095865
7.9487299e-07
-0.00010012257
4.3696895e-08
-9.9948808e-05
-1.4413075e-07
-9.9924732e-05
-2.2399707e-07
-9.9924906e-05
-1.656935e-07
-9.992093e-05
1.5273541e-08
-9.9909717e-05
-9.9909834e-05
39.393576
-0.046233105
38.603262
-0.047913676
37.77474
-0.049740574
36.907076
-0.051722382
35.998914
-0.053866436
35.048291
-0.05617791
34.052434
-0.058658529
33.007533
-0.061304809
31.908529
-0.064105694
30.748952
-0.067039469
29.520834
-0.070069868
28.214825
-0.073141386
26.820564
-0.076173962
25.327478
-0.079057559
23.726108
-0.081647617
22.010087
-0.083763002
20.178748
-0.085188834
18.240163
-0.08568702
16.214106
-0.085017206
14.134094
-0.082969282
12.04743
-0.079405165
10.012306
-0.074302562
8.0916784
-0.067788398
6.3447483
-0.060147796
4.8180406
-0.051798793
3.5386535
-0.043233923
2.5116075
-0.0349427
1.7218432
-0.027337229
1.1397299
-0.020701595
0.7280361
-0.015175133
0.44835535
-0.010766937
0.26572604
-0.0073899594
0.15111247
-0.0049008421
0.082084754
-0.00313491
0.04231977
-0.0019310418
0.020531654
-0.0011458794
0.0092719119
-0.00065966645
0.003846034
-0.00037693094
0.001442885
-0.00022475617
0.00048115809
-0.00015026076
0.00013999071
-0.00011773906
3.4855472e-05
-0.00010534301
7.2843767e-06
-0.00010130595
1.2316767e-06
-0.00010020763
9.871353e-08
-9.9965529e-05
-1.4449295e-07
-9.9926852e-05
-2.1648944e-07
-9.992371e-05
-1.4644539e-07
-9.9918851e-05
1.509039e-08
-9.9909208e-05
-9.9910193e-05
39.138411
-0.043055187
38.351115
-0.044635701
37.526097
-0.046353797
36.66255
-0.04821767
35.759278
-0.050234424
34.814516
-0.052409247
33.825734
-0.054744251
32.789418
-0.057236871
31.70085
-0.059877727
30.553948
-0.062647804
29.341166
-0.065514889
28.053572
-0.068429249
26.681181
-0.071318679
25.213673
-0.074083369
23.641615
-0.076591442
21.958317
-0.078676602
20.162305
-0.080140043
18.260259
-0.080759255
16.269961
-0.080306343
14.22246
-0.078577214
12.162431
-0.07543003
10.145766
-0.070826716
8.2339771
-0.064866509
6.4860964
-0.057798199
4.9498536
-0.050000938
3.6546483
-0.04193302
2.6083302
-0.034060299
1.7985559
-0.026784527
1.1978084
-0.020391799
0.77014872
-0.015032251
0.47768203
-0.010730109
0.28537608
-0.007413975
0.16378535
-0.0049542521
0.089938268
-0.0031971812
0.046975934
-0.0019897608
0.023152725
-0.0011944898
0.010657443
-0.00069578579
0.004523929
-0.00040105138
0.0017445557
-0.00023910987
0.00060087643
-0.00015776625
0.00018147223
-0.00012112842
4.7136082e-05
-0.00010663984
1.0321563e-05
-0.0001017182
1.8402491e-06
-0.00010031451
1.8709353e-07
-9.9987818e-05
-1.3796597e-07
-9.9930055e-05
-2.0731338e-07
-9.9922809e-05
-1.2989264e-07
-9.9917171e-05
1.3553526e-08
-9.9908877e-05
-9.9910256e-05
38.898438
-0.040265569
38.113985
-0.041755589
37.292251
-0.043375273
36.432543
-0.045132449
35.533808
-0.047033989
34.594463
-0.049085058
33.612199
-0.051288066
32.583765
-0.053641211
31.504759
-0.056136525
30.369454
-0.058757295
29.17069
-0.061474785
27.89993
-0.064244237
26.547547
-0.067000252
25.103471
-0.069651929
23.558329
-0.072078508
21.905182
-0.074126808
20.141868
-0.075612397
18.273848
-0.076326952
16.317121
-0.076054317
14.300488
-0.074596774
12.266179
-0.071810445
10.267876
-0.0676446
8.3656174
-0.062174967
6.6181035
-0.055618523
5.0740184
-0.048319486
3.7647882
-0.040704551
2.7008599
-0.033216878
1.8724605
-0.026247325
1.2541328
-0.020082457
0.81124817
-0.014881271
0.50648033
-0.010681251
0.30479407
-0.0074250954
0.17639464
-0.0049958007
0.097814954
-0.0032496753
0.051692043
-0.0020412175
0.025841133
-0.0012383163
0.012101775
-0.00072922149
0.005245332
-0.00042400838
0.0020739584
-0.00025319941
0.00073574698
-0.00016539518
0.00022995611
-0.00012471193
6.2107567e-05
-0.00010807267
1.4203159e-05
-0.00010219641
2.6614669e-06
-0.0001004453
3.1909039e-07
-0.00010001668
-1.2291599e-07
-9.9934656e-05
-1.9666572e-07
-9.9922266e-05
-1.1565578e-07
-9.9915822e-05
1.1401237e-08
-9.9908646e-05
-9.9910127e-05
38.672204
-0.037800129
37.890437
-0.039208564
37.071791
-0.040739518
36.215675
-0.042400476
35.321169
-0.044198073
34.38685
-0.04613742
33.410611
-0.048221143
32.389446
-0.050448053
31.319237
-0.052811357
30.194586
-0.055296288
29.008691
-0.057877084
27.753383
-0.060513277
26.419374
-0.063145375
24.996849
-0.065690267
23.476516
-0.068036981
21.851242
-0.070043982
20.118283
-0.071539746
18.282028
-0.072328897
16.356874
-0.072206322
14.369569
-0.070980858
12.360068
-0.068507933
10.379936
-0.064726721
8.4877247
-0.059692965
6.7416756
-0.053595736
5.1912119
-0.046747836
3.8695413
-0.039546791
2.7894954
-0.032414075
1.9437309
-0.025729313
1.3087929
-0.019778271
0.85137203
-0.014727126
0.53475775
-0.010624981
0.32397184
-0.0074272723
0.18892538
-0.0050285851
0.10569841
-0.0032945916
0.0564534
-0.0020867892
0.028585556
-0.0012780774
0.013597456
-0.00076024109
0.0060062371
-0.00044582203
0.0024295235
-0.00026695554
0.00088550951
-0.00017308001
0.00028563689
-0.00012845328
7.9982996e-05
-0.00010963046
1.9045458e-05
-0.00010274035
3.7389013e-06
-0.00010060166
5.0653311e-07
-0.00010005308
-9.717978e-08
-9.9940979e-05
-1.844967e-07
-9.9922144e-05
-1.0333829e-07
-9.9914752e-05
9.090513e-09
-9.9908463e-05
-9.9909857e-05
38.458358
-0.035606735
37.679136
-0.036941053
36.863403
-0.038391398
36.010662
-0.039964928
35.120111
-0.04166805
34.190478
-0.043505801
33.219838
-0.045480967
32.205408
-0.047592867
31.143331
-0.049835705
30.028514
-0.052196384
28.854487
-0.054651716
27.613425
-0.057164965
26.296363
-0.05968181
24.893736
-0.062125985
23.396352
-0.064395178
21.796933
-0.066358229
20.092237
-0.067855228
18.285706
-0.068702621
16.390298
-0.068705638
14.43088
-0.067679707
12.445288
-0.065480566
10.483066
-0.062039364
8.6012796
-0.05739481
6.8576101
-0.051711424
5.3020357
-0.045273695
3.9693285
-0.038452219
2.8745089
-0.031647813
2.0125292
-0.025228709
1.3618763
-0.019478864
0.89056086
-0.014570223
0.56252761
-0.010562077
0.34290799
-0.0074213942
0.20136906
-0.0050534388
0.11357759
-0.0033326039
0.061249216
-0.0021269356
0.031377102
-0.0013140135
0.015138252
-0.00078890626
0.006803036
-0.00046644569
0.0028096744
-0.00028029588
0.0010497887
-0.00018075212
0.0003486246
-0.00013231476
0.00010094252
-0.00011130017
2.4959548e-05
-0.00010334861
5.1178901e-06
-0.0001007849
7.6270126e-07
-0.00010009798
-5.8054657e-08
-9.9949392e-05
-1.705383e-07
-9.9922528e-05
-9.2542957e-08
-9.991393e-05
6.9148483e-09
-9.9908301e-05
-9.9909507e-05
38.255765
-0.033643983
37.47896
-0.034910927
36.665984
-0.036287992
35.816424
-0.037782032
34.929587
-0.039399231
34.004337
-0.041144535
33.038918
-0.043020845
32.03075
-0.045027893
30.976221
-0.047160726
29.870516
-0.049407682
28.707474
-0.051747802
27.479595
-0.054147608
26.178221
-0.056557318
24.79403
-0.058906708
23.317944
-0.061101161
21.742579
-0.063018797
20.064268
-0.064510191
18.285615
-0.065402605
16.418279
-0.065510952
14.485404
-0.064657188
12.522845
-0.062698132
10.578221
-0.059558604
8.7071271
-0.055262775
6.9666004
-0.04995352
5.4070179
-0.043889775
4.0645226
-0.037417266
2.956144
-0.030917172
2.0790016
-0.024746307
1.413462
-0.019185998
0.9288517
-0.014412745
0.58980223
-0.010494769
0.36160153
-0.0074094933
0.21371832
-0.0050720503
0.12144284
-0.0033649899
0.066070001
-0.0021625208
0.034207844
-0.0013466244
0.016718454
-0.0008154394
0.0076322802
-0.00048592692
0.0032127789
-0.00029318739
0.0012280956
-0.00018836379
0.00041894675
-0.00013626438
0.00012513094
-0.00011306878
3.2048923e-05
-0.00010401892
6.8446599e-06
-0.00010099597
1.1022318e-06
-0.00010015227
-2.2514572e-09
-9.996028e-05
-1.5430331e-07
-9.9923519e-05
-8.2879695e-08
-9.9913344e-05
5.0321703e-09
-9.990815e-05
-9.9909118e-05
38.063402
-0.031877953
37.288899
-0.033083354
36.478538
-0.03439348
35.631985
-0.035814901
34.748647
-0.037353584
33.827512
-0.039014379
32.86698
-0.040800263
31.864659
-0.042711313
30.817161
-0.044743295
29.719931
-0.046885793
28.567098
-0.049119792
27.351462
-0.05141468
26.06466
-0.053724677
24.697607
-0.055984926
23.24135
-0.058107665
21.688429
-0.059979348
20.034813
-0.061460036
18.282365
-0.062386899
16.441565
-0.062583899
14.533975
-0.061879387
12.593603
-0.06013184
10.666233
-0.057261133
8.8060068
-0.053279006
7.0692592
-0.048309204
5.5066295
-0.04258756
4.1554594
-0.036436814
3.0346221
-0.030219516
2.1432829
-0.024281132
1.4636249
-0.018899718
0.96628112
-0.014255292
0.61659568
-0.010423902
0.3800542
-0.0073924623
0.22596872
-0.0050852387
0.12928723
-0.0033924213
0.070908422
-0.002194032
0.03707135
-0.0013762094
0.018333213
-0.00083997831
0.0084908796
-0.00050429113
0.0036372643
-0.00030559894
0.001419883
-0.00019587251
0.00049656735
-0.00014027226
0.00015266035
-0.00011492297
4.040825e-05
-0.0001047483
8.965514e-06
-0.00010123544
1.5409451e-06
-0.00010021681
7.4110115e-08
-9.9974053e-05
-1.3508929e-07
-9.9925238e-05
-7.3964661e-08
-9.9912996e-05
3.5220087e-09
-9.9908012e-05
-9.990872e-05
37.880383
-0.030281064
37.108076
-0.031430133
36.300202
-0.032678988
35.456501
-0.034033929
34.576468
-0.03550072
33.659209
-0.037084104
32.703265
-0.038787109
31.706421
-0.040610095
30.665496
-0.042549445
29.576176
-0.044595823
28.432858
-0.046731921
27.228631
-0.048929649
25.955408
-0.051146781
24.604336
-0.053323235
23.166591
-0.05537739
21.634667
-0.057203204
20.004222
-0.058669351
18.276454
-0.059622092
16.460779
-0.059893843
14.577302
-0.059319178
12.658302
-0.057758652
10.747817
-0.055128334
8.8985644
-0.051429322
7.1661262
-0.046768426
5.6012892
-0.041360552
4.2424398
-0.03550719
3.1101435
-0.029553231
2.2054959
-0.02383295
1.512434
-0.018620615
1.0028834
-0.014098876
0.64292161
-0.010350632
0.3982683
-0.007371426
0.2381169
-0.005093989
0.137105
-0.0034156856
0.075758267
-0.0022220377
0.039962059
-0.0014031273
0.019978232
-0.00086270681
0.0093759963
-0.0005215987
0.0040816038
-0.00031752307
0.0016245578
-0.0002032487
0.00058139493
-0.00014431338
0.00018361142
-0.00011685017
5.0122299e-05
-0.00010553334