/*--------------------------------*- C++ -*----------------------------------*\
| =========                 |                                                 |
| \\      /  F ield         | OpenFOAM: The Open Source CFD Toolbox           |
|  \\    /   O peration     | Version:  4.0                                   |
|   \\  /    A nd           | Web:      www.OpenFOAM.org                      |
|    \\/     M anipulation  |                                                 |
\*---------------------------------------------------------------------------*/
FoamFile
{
    version     2.0;
    format      ascii;
    class       volScalarField;
    location    "3000/fluid";
    object      T;
}
// * * * * * * * * * * * * * * * * * * * * * * * * * * * * * * * * * * * * * //

dimensions      [0 0 0 1 0 0 0];

internalField   nonuniform List<scalar> 
5000
(
334.90993
332.4688
329.88041
327.16256
324.34
321.44455
318.51477
315.59484
312.73279
309.97809
307.37854
304.97706
302.80855
300.89724
299.25514
297.88171
296.76477
295.88263
295.20693
294.7058
294.34668
294.09874
293.93443
293.83047
293.76807
293.73286
293.7144
293.70554
293.70175
293.70036
293.69995
293.69989
293.6999
293.69992
293.69992
293.69993
293.69993
293.69993
293.69993
293.69993
293.69993
293.69993
293.69993
293.69993
293.69993
293.69993
293.69993
293.69993
293.69993
293.69992
337.43903
335.90153
334.24995
332.47527
330.56907
328.52456
326.3382
324.01149
321.55313
318.98105
316.32399
313.62211
310.92615
308.29477
305.79
303.4713
301.38917
299.57951
298.05999
296.82926
295.86905
295.14837
294.62886
294.26994
294.03298
293.88408
293.79552
293.74602
293.72027
293.70796
293.70264
293.70061
293.69996
293.69979
293.69977
293.69977
293.69978
293.69978
293.69978
293.69978
293.69978
293.69978
293.69978
293.69978
293.69978
293.69978
293.69978
293.69978
293.69978
293.69978
339.17436
337.68054
336.08267
334.37723
332.5612
330.63229
328.58927
326.43254
324.16494
321.793
319.32844
316.78993
314.20472
311.60961
309.05065
306.58097
304.2566
302.13055
300.24634
298.63244
297.29909
296.23822
295.42633
294.82946
294.40858
294.12454
293.94167
293.82984
293.76527
293.73035
293.71282
293.70475
293.70139
293.70016
293.69976
293.69966
293.69964
293.69963
293.69963
293.69963
293.69963
293.69963
293.69963
293.69963
293.69963
293.69963
293.69963
293.69963
293.69963
293.69963
340.57943
339.10368
337.52528
335.84101
334.04839
332.14596
330.13362
328.01299
325.78798
323.46538
321.05568
318.57404
316.04134
313.48516
310.94041
308.44907
306.05856
303.81842
301.7755
299.9683
298.42192
297.14495
296.12912
295.35177
294.78034
294.37746
294.10564
293.9307
293.82378
293.76209
293.72875
293.71204
293.70436
293.70117
293.69999
293.69962
293.69951
293.69949
293.69949
293.69949
293.69949
293.69949
293.69949
293.69949
293.69949
293.69949
293.69949
293.69949
293.69949
293.69949
341.74024
340.28311
338.72463
337.06155
335.29131
333.41231
331.42423
329.32844
327.12845
324.83052
322.44433
319.98377
317.46768
314.92057
312.37315
309.86227
307.43007
305.12194
302.98312
301.05425
299.36651
297.93757
296.7695
295.84923
295.15142
294.64287
294.28724
294.04916
293.89708
293.80483
293.75202
293.72373
293.70969
293.70331
293.7007
293.69974
293.69944
293.69936
293.69934
293.69934
293.69934
293.69934
293.69934
293.69934
293.69934
293.69934
293.69934
293.69934
293.69934
293.69934
342.70603
341.26472
339.72316
338.07805
336.32674
334.46748
332.49968
330.4243
328.24431
325.96522
323.59571
321.14838
318.64046
316.0945
313.53881
311.00755
308.54006
306.17934
303.96932
301.95117
300.15895
298.61549
297.32959
296.29522
295.49317
294.8945
294.46494
294.16921
293.97438
293.852
293.7791
293.73821
293.7168
293.70644
293.70188
293.70008
293.69945
293.69925
293.69921
293.6992
293.69919
293.69919
293.69919
293.69919
293.69919
293.69919
293.69919
293.69919
293.69919
293.6992
343.51961
342.09312
340.56741
338.93915
337.20562
335.3649
333.41617
331.36006
329.19901
326.93783
324.58429
322.1498
319.65011
317.10605
314.54398
311.99598
309.49942
307.09568
304.82786
302.73751
300.86064
299.22365
297.84016
296.70953
295.81756
295.1392
294.6425
294.29287
294.05677
293.90428
293.81048
293.75587
293.726
293.71081
293.70371
293.7007
293.69956
293.69919
293.69908
293.69905
293.69905
293.69905
293.69905
293.69905
293.69905
293.69905
293.69905
293.69905
293.69905
293.69905
344.21191
342.79861
341.287
339.67374
337.95603
336.13186
334.20021
332.16142
330.01752
327.77274
325.4341
323.012
320.52097
317.98033
315.41475
312.85454
310.33533
307.89712
305.58226
303.43253
301.48536
299.76991
298.30358
297.09015
296.11967
295.3706
294.81329
294.41413
294.13938
293.95807
293.84379
293.77532
293.7366
293.71612
293.7061
293.70161
293.69981
293.69917
293.69897
293.69891
293.6989
293.6989
293.6989
293.6989
293.6989
293.6989
293.6989
293.6989
293.6989
293.6989
344.80847
343.40754
341.90916
340.30998
338.60715
336.79855
334.88302
332.86063
330.73309
328.50413
326.18009
323.77054
321.28892
318.75326
316.18678
313.61817
311.08154
308.61558
306.26191
304.06232
302.05533
300.27229
298.73377
297.44726
296.40657
295.59336
294.98025
294.53473
294.22318
294.0139
293.87928
293.79671
293.74871
293.72247
293.70911
293.70287
293.70021
293.69921
293.69888
293.69878
293.69876
293.69876
293.69875
293.69875
293.69875
293.69875
293.69875
293.69875
293.69876
293.69876
345.32809
343.9385
342.45226
340.866
339.17684
337.38258
335.48192
333.47476
331.36248
329.14842
326.83836
324.44113
321.96926
319.43967
316.87426
314.30032
311.75055
309.26243
306.87674
304.63516
302.57699
300.7353
299.13333
297.78178
296.67784
295.80615
295.14151
294.65269
294.3063
294.0702
293.91578
293.81924
293.76183
293.7296
293.71266
293.70443
293.70078
293.69933
293.69882
293.69866
293.69862
293.69861
293.69861
293.69861
293.69861
293.69861
293.69861
293.69861
293.69861
293.69861
345.78582
344.40686
342.932
341.35786
339.68153
337.90076
336.01413
334.02136
331.92358
329.72379
327.42727
325.04223
322.58039
320.05767
317.49483
314.9179
312.35829
309.8523
307.43992
305.16256
303.06003
301.16683
299.50841
298.09831
296.93677
296.01119
295.29854
294.76887
294.38924
294.1272
293.95338
293.84292
293.77597
293.73751
293.71675
293.70634
293.70153
293.69953
293.69879
293.69855
293.69848
293.69847
293.69846
293.69846
293.69846
293.69846
293.69846
293.69846
293.69846
293.69846
346.19294
344.82385
343.35956
341.79668
340.13228
338.36406
336.49052
334.51122
332.42709
330.24081
327.95725
325.58407
323.13228
320.61694
318.05777
315.47966
312.91283
310.3925
307.9578
305.64983
303.50869
301.56998
299.86109
298.39803
297.18378
296.20837
295.45085
294.88261
294.47127
294.18425
293.99153
293.86735
293.79085
293.74605
293.72131
293.70854
293.70246
293.69982
293.6988
293.69845
293.69835
293.69832
293.69832
293.69832
293.69832
293.69832
293.69832
293.69832
293.69832
293.69832
346.55844
345.1986
343.74422
342.1919
340.5387
338.78228
336.92105
334.95447
332.88326
330.70983
328.43872
326.07707
323.63528
321.12763
318.57292
315.995
313.42299
310.89108
308.43759
306.10318
303.92813
301.94894
300.19457
298.68327
297.42051
296.39875
295.59908
294.99427
294.55257
294.24139
294.03021
293.89247
293.80642
293.75518
293.72631
293.71105
293.70357
293.70021
293.69886
293.69837
293.69822
293.69818
293.69817
293.69817
293.69817
293.69817
293.69817
293.69817
293.69817
293.69817
346.88923
345.53804
344.09291
342.55047
340.90775
339.16237
337.31269
335.35805
333.29903
331.13779
328.87856
326.52804
324.09608
321.59626
319.04656
316.46988
313.89432
311.35311
308.88374
306.52641
304.32145
302.30604
300.51053
298.95511
297.64753
296.58255
295.7432
295.10364
294.63285
294.29832
294.06915
293.91807
293.82252
293.7648
293.7317
293.71383
293.70485
293.7007
293.69896
293.69831
293.6981
293.69804
293.69803
293.69802
293.69802
293.69802
293.69802
293.69802
293.69802
293.69802
347.19086
345.84778
344.41134
342.87817
341.2453
339.51031
337.67152
335.72815
333.68065
331.531
329.28311
326.94332
324.52098
322.02904
319.48472
316.91006
314.33223
311.78353
309.30067
306.92334
304.69183
302.64385
300.81092
299.21496
297.8658
296.76035
295.88353
295.21088
294.71215
294.35502
294.10828
293.94407
293.83908
293.77484
293.73744
293.71687
293.7063
293.70128
293.69911
293.69827
293.69799
293.6979
293.69788
293.69788
293.69788
293.69788
293.69788
293.69788
293.69788
293.69788
347.46768
346.13222
344.70395
343.17949
341.55587
339.83065
338.0021
336.06936
334.03277
331.8941
329.65703
327.32755
324.91456
322.43045
319.89176
317.31973
314.74065
312.18596
309.6916
307.29675
305.04157
302.96416
301.09706
299.46372
298.07588
296.93245
296.02016
295.31594
294.79035
294.41133
294.14746
293.97035
293.85601
293.78525
293.74349
293.72015
293.70792
293.70197
293.69932
293.69826
293.69788
293.69777
293.69774
293.69773
293.69773
293.69773
293.69773
293.69773
293.69773
293.69773
347.72324
346.39496
344.97438
343.45813
341.84323
340.12723
338.30835
336.38567
334.3594
332.23117
330.00442
327.68484
325.28092
322.80455
320.27163
317.70266
315.12316
312.5637
310.05951
307.64922
305.37283
303.26873
301.3703
299.70237
298.27842
297.09924
296.15331
295.41892
294.86748
294.46724
294.18664
293.99685
293.87324
293.79597
293.74982
293.72364
293.70968
293.70274
293.69958
293.69827
293.69779
293.69764
293.6976
293.69759
293.69758
293.69758
293.69758
293.69759
293.69759
293.69759
347.96039
346.63888
345.22556
343.71705
342.11039
340.40309
338.59335
336.68018
334.6637
332.5454
330.3285
328.01842
325.62329
323.15451
320.62743
318.06187
315.48257
312.91937
310.40675
307.98282
305.68734
303.55894
301.63169
299.93165
298.47391
297.26101
296.28311
295.51984
294.94349
294.52266
294.22574
294.02349
293.89072
293.80696
293.75639
293.72733
293.71159
293.70361
293.69989
293.69831
293.69771
293.69751
293.69745
293.69744
293.69744
293.69744
293.69744
293.69744
293.69744
293.69744
348.18149
346.86639
345.45992
343.95874
342.35987
340.66081
338.85973
336.95558
334.9484
332.83954
330.63205
328.33109
325.94444
323.48311
320.96188
318.39996
315.8214
313.25529
310.73544
308.2994
305.98669
303.83606
301.88221
300.15228
298.66283
297.41807
296.40973
295.61878
295.01839
294.57758
294.26471
294.05022
293.9084
293.81818
293.76317
293.7312
293.71362
293.70457
293.70025
293.69837
293.69764
293.69739
293.69732
293.6973
293.69729
293.69729
293.69729
293.69729
293.69729
293.69729
348.38849
347.07945
345.67948
344.18524
342.59375
340.9025
339.10963
337.21405
335.21572
333.11586
330.91735
328.62514
326.2467
323.79263
321.27723
318.71914
316.14173
313.57341
311.04733
308.60052
306.27219
304.10118
302.12271
300.36488
298.84562
297.57066
296.53331
295.71579
295.09219
294.63197
294.30352
294.077
293.92623
293.82959
293.77015
293.73523
293.71579
293.70561
293.70067
293.69847
293.69759
293.69727
293.69718
293.69715
293.69715
293.69715
293.69715
293.69715
293.69715
293.69715
348.58299
347.27971
345.88591
344.39826
342.81378
341.12996
339.34489
337.45747
335.46755
333.37628
331.18638
328.90257
326.53205
324.08505
321.57544
319.02129
316.44538
313.87544
311.344
308.88757
306.54504
304.35528
302.35395
300.57002
299.02265
297.71906
296.65398
295.81094
295.16489
294.6858
294.34212
294.10379
293.94418
293.84117
293.77729
293.7394
293.71806
293.70673
293.70113
293.69859
293.69755
293.69716
293.69704
293.69701
293.697
293.697
293.697
293.697
293.697
293.697
348.76637
347.46857
346.08064
344.59926
343.02144
341.34468
339.56705
337.6874
335.70552
333.62245
331.44078
329.16504
326.80217
324.36207
321.85817
319.30804
316.73389
314.16284
311.62679
309.16174
306.80626
304.59921
302.5766
300.76819
299.19429
297.86347
296.77189
295.90428
295.23653
294.73907
294.38051
294.13056
293.96223
293.85289
293.78458
293.74371
293.72044
293.70793
293.70165
293.69874
293.69752
293.69706
293.69691
293.69687
293.69686
293.69685
293.69685
293.69685
293.69685
293.69685
348.93979
347.64721
346.26487
344.78946
343.218
341.54797
339.77743
337.90519
335.93099
333.85577
331.682
329.41402
327.05854
324.62513
322.12686
319.58081
317.00865
314.4369
311.89688
309.42409
307.05678
304.83373
302.79127
300.95986
299.36085
298.00412
296.88715
295.99589
295.30711
294.79179
294.41866
294.1573
293.98034
293.86472
293.792
293.74814
293.72292
293.7092
293.70221
293.69892
293.6975
293.69696
293.69678
293.69672
293.69671
293.69671
293.69671
293.69671
293.69671
293.69671
349.10424
347.81663
346.43963
344.96992
343.40453
341.74093
339.97716
338.11201
336.14515
334.07745
331.91126
329.65075
327.30241
324.87552
322.38278
319.84084
317.27083
314.69874
312.15532
309.67557
307.2974
305.05952
302.9985
301.14543
299.52264
298.1412
296.99989
296.08582
295.37666
294.84393
294.45655
294.18397
293.99851
293.87666
293.79953
293.75267
293.72549
293.71054
293.70282
293.69912
293.69751
293.69687
293.69665
293.69658
293.69656
293.69656
293.69656
293.69656
293.69656
293.69656
349.26056
347.97771
346.60581
345.14155
343.58196
341.92451
340.16723
338.30886
336.34904
334.28856
332.12964
329.87633
327.53489
325.11434
322.62703
320.0892
317.52149
314.94936
312.40303
309.91701
307.52887
305.2772
303.19879
301.32529
299.67991
298.27489
297.11022
296.17414
295.44521
294.89552
294.49419
294.21058
294.01672
293.88869
293.80717
293.75731
293.72814
293.71194
293.70347
293.69936
293.69752
293.69679
293.69652
293.69644
293.69642
293.69642
293.69641
293.69642
293.69642
293.69642
349.40949
348.1312
346.76418
345.30514
343.75111
342.09955
340.34848
338.49662
336.54355
334.49
332.33809
330.09171
327.75695
325.34256
322.86058
320.32684
317.76155
315.18965
312.64083
310.14915
307.75182
305.48732
303.39259
301.49977
299.83293
298.40536
297.21823
296.26089
295.51279
294.94656
294.53156
294.2371
294.03494
293.90079
293.81491
293.76203
293.73087
293.7134
293.70416
293.69962
293.69755
293.69671
293.6964
293.6963
293.69628
293.69627
293.69627
293.69627
293.69627
293.69627
349.55168
348.27776
346.91543
345.46139
343.91269
342.26678
340.52167
338.67605
336.72947
334.68258
332.53742
330.29773
327.96943
325.56104
323.08427
320.55462
317.99183
315.42037
312.86945
310.37265
307.96685
305.69038
303.58029
301.66919
299.98191
298.53276
297.32404
296.34615
295.57941
294.99705
294.56865
294.26352
294.05317
293.91295
293.82272
293.76684
293.73367
293.71491
293.7049
293.6999
293.6976
293.69664
293.69628
293.69616
293.69613
293.69612
293.69612
293.69612
293.69612
293.69612
349.68769
348.41797
347.06013
345.6109
344.06731
342.42684
340.68746
338.84783
336.90749
334.86702
332.72836
330.49514
328.1731
325.77053
323.29888
320.77327
318.21306
315.64224
313.08955
310.58812
308.17449
305.88681
303.76226
301.83383
300.12708
298.65725
297.42772
296.42995
295.64511
295.04699
294.60548
294.28984
294.0714
293.92516
293.83061
293.77172
293.73653
293.71648
293.70567
293.70021
293.69766
293.69658
293.69616
293.69603
293.69599
293.69598
293.69598
293.69598
293.69598
293.69598
349.81801
348.55232
347.19881
345.7542
344.21554
342.58028
340.84641
339.01257
337.07823
335.04394
332.91156
330.68459
328.36861
325.97172
323.50507
320.98348
318.4259
315.85588
313.30171
310.79608
308.3752
306.07705
303.93884
301.99397
300.26861
298.77895
297.52938
296.51236
295.70991
295.09641
294.64203
294.31606
294.08962
293.93741
293.83856
293.77667
293.73946
293.7181
293.70648
293.70055
293.69774
293.69652
293.69605
293.69589
293.69584
293.69583
293.69583
293.69583
293.69583
293.69583
349.94308
348.68128
347.33193
345.89177
344.35785
342.72762
340.99906
339.17078
337.24224
335.21392
333.0876
330.86667
328.55658
326.1652
323.70346
321.18584
318.63092
316.06185
313.50646
310.99704
308.56943
306.26144
304.11034
302.14983
300.40671
298.898
297.62908
296.59341
295.77382
295.1453
294.6783
294.34216
294.10782
293.9497
293.84657
293.78168
293.74245
293.71977
293.70732
293.7009
293.69783
293.69648
293.69594
293.69576
293.6957
293.69569
293.69568
293.69568
293.69568
293.69568
350.0633
348.80524
347.45991
346.02404
344.49469
342.86931
341.14586
339.32295
337.4
335.37744
333.25698
331.04191
328.73752
326.35152
323.89458
321.38088
318.82867
316.26067
313.70429
311.19142
308.75757
306.44035
304.27704
302.30164
300.54152
299.0145
297.72692
296.67316
295.83689
295.19367
294.71429
294.36813
294.126
293.96202
293.85463
293.78675
293.74549
293.72148
293.7082
293.70129
293.69793
293.69644
293.69584
293.69563
293.69556
293.69554
293.69554
293.69554
293.69554
293.69554
350.17901
348.92457
347.5831
346.15137
344.62643
343.00573
341.28722
339.4695
337.55196
335.53497
333.42017
331.21078
328.91193
326.53117
324.07892
321.5691
319.01961
316.45278
313.89563
311.37963
308.93998
306.61407
304.4392
302.44961
300.67321
299.12858
297.82295
296.75164
295.89912
295.24154
294.75001
294.39399
294.14415
293.97436
293.86274
293.79187
293.74858
293.72323
293.70911
293.70169
293.69805
293.69641
293.69574
293.69549
293.69542
293.6954
293.69539
293.69539
293.69539
293.69539
350.29052
349.03957
347.70185
346.27412
344.75343
343.13725
341.42352
339.61082
337.69849
335.68689
333.5776
331.37371
329.08024
326.70458
324.25693
321.75094
319.20417
316.63862
314.08088
311.56205
309.11699
306.78289
304.59705
302.59393
300.80192
299.24033
297.91725
296.8289
295.96055
295.28892
294.78546
294.41972
294.16227
293.98672
293.87088
293.79705
293.75171
293.72502
293.71005
293.70211
293.69818
293.69639
293.69564
293.69537
293.69528
293.69525
293.69525
293.69525
293.69525
293.69525
350.39812
349.15055
347.81644
346.39258
344.87601
343.2642
341.55509
339.74724
337.83997
335.83359
333.72962
331.53107
329.24284
326.87215
324.42901
321.92679
319.38276
316.81856
314.26039
311.73899
309.28889
306.94708
304.75082
302.73477
300.92778
299.34984
298.00989
296.90499
296.02119
295.3358
294.82063
294.44532
294.18034
293.99909
293.87907
293.80226
293.75489
293.72685
293.71102
293.70256
293.69833
293.69637
293.69555
293.69524
293.69514
293.69511
293.6951
293.6951
293.6951
293.6951
350.50207
349.25776
347.92715
346.50703
344.99445
343.38687
341.68224
339.87908
337.97671
335.9754
333.87659
331.68323
329.40009
327.03425
324.59551
322.09702
319.55573
316.99294
314.43451
311.91078
309.45598
307.10688
304.9007
302.87229
301.05092
299.45722
298.10092
296.97993
296.08106
295.38221
294.85553
294.47079
294.19837
294.01146
293.88729
293.80752
293.75812
293.72872
293.71202
293.70303
293.69849
293.69636
293.69546
293.69511
293.695
293.69496
293.69495
293.69495
293.69495
293.69495
350.60258
349.36143
348.03422
346.61772
345.10901
343.50553
341.80523
340.00662
338.10901
336.1126
334.01881
331.83049
329.55232
327.1912
324.75679
322.26196
319.72341
317.16209
314.60352
312.07768
309.61849
307.26251
305.0469
303.00666
301.17146
299.56254
298.1904
297.05376
296.14018
295.42815
294.89017
294.49613
294.21636
294.02384
293.89553
293.81282
293.76138
293.73062
293.71304
293.70351
293.69866
293.69637
293.69538
293.69499
293.69486
293.69482
293.69481
293.69481
293.69481
293.69481
350.69988
349.4618
348.13787
346.72489
345.21992
343.62042
341.92432
340.13013
338.23713
336.24549
334.15657
331.97315
329.69981
327.34332
324.91313
322.42191
319.88609
317.32631
314.76772
312.23997
309.77668
307.41418
305.18958
303.13801
301.2895
299.66588
298.27838
297.12652
296.19858
295.47364
294.92454
294.52134
294.2343
294.03622
293.9038
293.81815
293.76467
293.73255
293.71409
293.70402
293.69885
293.69638
293.6953
293.69487
293.69472
293.69468
293.69466
293.69466
293.69466
293.69466
350.79414
349.55904
348.23831
346.82873
345.3274
343.73176
342.03974
340.24984
338.36131
336.37431
334.29012
332.11148
329.84284
327.49086
325.06482
322.57717
320.04406
317.48585
314.92735
312.39788
309.93075
307.56209
305.32891
303.26647
301.40515
299.76732
298.36492
297.19824
296.25627
295.51867
294.95865
294.54641
294.25218
294.04859
293.91209
293.82352
293.768
293.73451
293.71517
293.70454
293.69904
293.69639
293.69522
293.69475
293.69458
293.69453
293.69452
293.69451
293.69451
293.69451
350.88556
349.65335
348.33571
346.92945
345.43165
343.83976
342.15169
340.36596
338.48178
336.49928
334.41971
332.24571
329.98167
327.63409
325.21211
322.72797
320.19757
317.64096
315.08265
312.55164
310.08092
307.7064
305.46503
303.39217
301.5185
299.86693
298.45007
297.26895
296.31328
295.56326
294.9925
294.57135
294.27001
294.06096
293.92041
293.82891
293.77136
293.7365
293.71627
293.70509
293.69925
293.69642
293.69515
293.69463
293.69445
293.69439
293.69437
293.69437
293.69437
293.69437
350.97428
349.74488
348.43026
347.02721
345.53284
343.94459
342.26038
340.4787
338.59875
336.62064
334.54555
332.37608
330.11651
327.77325
325.35525
322.87456
320.34685
317.79188
315.23385
312.70144
310.22736
307.84729
305.5981
303.51523
301.62965
299.96478
298.53387
297.33868
296.3696
295.60741
295.02609
294.59615
294.28779
294.07332
293.92873
293.83433
293.77475
293.73852
293.71739
293.70564
293.69948
293.69645
293.69508
293.69452
293.69431
293.69425
293.69423
293.69422
293.69422
293.69422
351.06046
349.83379
348.52209
347.12218
345.63114
344.04644
342.36597
340.58824
338.71241
336.73855
334.66784
332.50278
330.24759
327.90854
325.49444
323.01715
320.49211
317.93881
315.38115
312.84748
310.37025
307.98492
305.72824
303.63575
301.73868
300.06092
298.61636
297.40745
296.42527
295.65114
295.05943
294.62082
294.30551
294.08567
293.93707
293.83978
293.77817
293.74057
293.71854
293.70622
293.69971
293.69649
293.69502
293.69441
293.69418
293.6941
293.69408
293.69408
293.69408
293.69408
351.14422
349.92021
348.61137
347.2145
345.72671
344.14545
342.46864
340.69474
338.82292
336.85322
334.78677
332.62602
330.37509
328.04016
325.62989
323.15596
320.63357
318.08196
315.52473
312.98995
310.50976
308.11942
305.85558
303.75383
301.84567
300.15543
298.6976
297.47531
296.4803
295.69446
295.09252
294.64535
294.32317
294.09801
293.94543
293.84525
293.78162
293.74264
293.7197
293.70681
293.69996
293.69654
293.69496
293.6943
293.69405
293.69396
293.69394
293.69393
293.69393
293.69393
351.22571
350.00429
348.69821
347.30431
345.81968
344.24179
342.56852
340.79836
338.93045
336.9648
334.9025
332.74596
330.4992
328.1683
325.76179
323.29115
320.7714
318.2215
315.66478
313.12899
310.64603
308.25093
305.98023
303.86957
301.9507
300.24835
298.77761
297.54226
296.53471
295.73737
295.12536
294.66975
294.34077
294.11033
293.95379
293.85074
293.78509
293.74473
293.72089
293.70742
293.70022
293.6966
293.69491
293.69419
293.69392
293.69382
293.69379
293.69379
293.69378
293.69378
351.30502
350.08612
348.78275
347.39174
345.91019
344.33557
342.66577
340.89925
339.03514
337.07345
335.01521
332.86276
330.62008
328.29313
325.8903
323.42292
320.90578
318.3576
315.80144
313.26478
310.77921
308.37958
306.10231
303.98307
302.05383
300.33974
298.85643
297.60834
296.5885
295.77987
295.15796
294.69402
294.35831
294.12264
293.96216
293.85625
293.78858
293.74685
293.72209
293.70805
293.70049
293.69666
293.69486
293.69409
293.69379
293.69368
293.69365
293.69364
293.69364
293.69364
351.38227
350.16584
348.8651
347.47691
345.99836
344.42693
342.7605
340.99753
339.13715
337.17931
335.12502
332.97659
330.7379
328.41481
326.0156
323.55142
321.03687
318.49043
315.93489
313.39744
310.90944
308.50549
306.22191
304.09441
302.15514
300.42965
298.93411
297.67358
296.6417
295.82199
295.19032
294.71816
294.37579
294.13492
293.97054
293.86178
293.7921
293.74899
293.72332
293.70869
293.70077
293.69673
293.69482
293.69399
293.69366
293.69354
293.6935
293.69349
293.69349
293.69349
351.45756
350.24352
348.94536
347.55992
346.0843
344.51598
342.85285
341.09335
339.23659
337.28251
335.23209
333.08757
330.85278
328.53348
326.13782
323.6768
321.16482
318.62013
316.06525
313.52713
311.03683
308.62877
306.33914
304.20366
302.25469
300.51813
299.01067
297.73798
296.69432
295.86372
295.22244
294.74216
294.3932
294.14719
293.97892
293.86732
293.79564
293.75115
293.72456
293.70934
293.70106
293.69681
293.69478
293.69389
293.69353
293.6934
293.69336
293.69335
293.69335
293.69334
351.53099
350.31929
349.02364
347.64087
346.16812
344.60283
342.94291
341.1868
339.33358
337.38318
335.33654
333.19585
330.96488
328.64929
326.25712
323.79921
321.28977
318.74683
316.19267
313.65395
311.1615
308.74952
306.45408
304.31091
302.35254
300.60522
299.08615
297.80158
296.74637
295.90507
295.25432
294.76603
294.41055
294.15944
293.98731
293.87289
293.7992
293.75333
293.72582
293.71001
293.70136
293.6969
293.69475
293.69379
293.69341
293.69326
293.69322
293.6932
293.6932
293.6932
351.60262
350.39321
349.10001
347.71987
346.2499
344.68759
343.03081
341.278
339.42824
337.48143
335.43849
333.30155
331.07431
328.76236
326.37361
323.91877
321.41184
318.87067
316.31727
313.77804
311.28357
308.86785
306.56682
304.41622
302.44874
300.69097
299.16058
297.8644
296.79786
295.94605
295.28598
294.78977
294.42784
294.17166
293.9957
293.87846
293.80278
293.75553
293.7271
293.7107
293.70168
293.69699
293.69472
293.6937
293.69328
293.69313
293.69307
293.69306
293.69305
293.69305
351.67256
350.46538
349.17457
347.79699
346.32976
344.77034
343.11663
341.36705
339.52067
337.57738
335.53804
333.40477
331.1812
328.87282
326.48743
324.03561
321.53118
318.99176
316.43916
313.8995
311.40314
308.98384
306.67744
304.51967
302.54336
300.77543
299.23399
297.92645
296.84882
295.98666
295.31741
294.81339
294.44507
294.18387
294.00409
293.88406
293.80638
293.75775
293.7284
293.7114
293.702
293.6971
293.6947
293.69361
293.69316
293.69299
293.69293
293.69291
293.69291
293.69291
351.74087
350.53588
349.24741
347.87232
346.40776
344.85117
343.20046
341.45404
339.61097
337.67111
335.63531
333.50563
331.28565
328.98077
326.59869
324.14984
321.64788
319.11023
316.55845
314.01844
311.5203
309.09759
306.78602
304.62131
302.63644
300.85862
299.30641
297.98776
296.89924
296.02693
295.34862
294.83687
294.46223
294.19605
294.01249
293.88966
293.80999
293.75999
293.72972
293.71211
293.70234
293.69721
293.69468
293.69352
293.69304
293.69285
293.69279
293.69277
293.69276
293.69276
351.80762
350.60477
349.31858
347.94595
346.48399
344.93017
343.28239
341.53906
339.69923
337.76273
335.73039
333.60423
331.38776
329.08632
326.70749
324.26157
321.76206
319.22618
316.67526
314.13496
311.63514
309.20918
306.89264
304.72122
302.72804
300.94059
299.37787
298.04834
296.94914
296.06684
295.3796
294.86023
294.47933
294.20821
294.02088
293.89528
293.81362
293.76225
293.73105
293.71284
293.70269
293.69732
293.69466
293.69344
293.69292
293.69272
293.69265
293.69262
293.69262
293.69262
351.87289
350.67212
349.38817
348.01793
346.55852
345.00742
343.36251
341.6222
339.78553
337.85233
335.82338
333.70067
331.48764
329.18957
326.81394
324.37091
321.87382
319.33971
316.78967
314.24915
311.74776
309.31868
306.99735
304.81945
302.8182
301.02137
299.44839
298.10822
296.99854
296.1064
295.41037
294.88346
294.49637
294.22034
294.02927
293.90091
293.81727
293.76452
293.73239
293.71358
293.70304
293.69745
293.69465
293.69336
293.6928
293.69258
293.69251
293.69248
293.69247
293.69247
351.93672
350.738
349.45624
348.08834
346.63143
345.08298
343.44088
341.70353
339.86996
337.93998
335.91435
333.79502
331.58538
329.29062
326.91813
324.47795
321.98326
319.45091
316.90179
314.3611
311.85824
309.42618
307.10023
304.91605
302.90696
301.101
299.518
298.16741
297.04744
296.14563
295.44093
294.90657
294.51334
294.23245
294.03766
293.90654
293.82094
293.76681
293.73376
293.71433
293.70341
293.69758
293.69465
293.69328
293.69268
293.69245
293.69236
293.69234
293.69233
293.69232
351.99919
350.80246
349.52285
348.15725
346.70278
345.15693
343.51758
341.78313
339.9526
338.02578
336.0034
333.88738
331.68105
329.38954
327.02015
324.58277
322.09046
319.55987
317.01169
314.47089
311.96664
309.53173
307.20134
305.01107
302.99437
301.17952
299.58672
298.22592
297.09585
296.18453
295.47127
294.92955
294.53025
294.24453
294.04605
293.91219
293.82462
293.76912
293.73513
293.7151
293.70379
293.69772
293.69465
293.6932
293.69257
293.69232
293.69222
293.69219
293.69218
293.69218
352.06034
350.86557
349.58807
348.2247
346.77263
345.22932
343.59267
341.86106
340.0335
338.10978
336.09059
333.97782
331.77475
329.48644
327.12008
324.68548
322.19552
319.66668
317.11945
314.5786
312.07305
309.63542
307.30073
305.10457
303.08047
301.25694
299.65457
298.28378
297.14379
296.22311
295.50141
294.95241
294.54709
294.25659
294.05443
293.91785
293.82832
293.77145
293.73653
293.71588
293.70418
293.69787
293.69466
293.69313
293.69246
293.69219
293.69208
293.69205
293.69204
293.69203
352.12022
350.92738
349.65193
348.29077
346.84104
345.30023
343.66622
341.93739
340.11275
338.19206
336.176
334.06641
331.86654
329.58137
327.21801
324.78613
322.2985
319.77142
317.22517
314.6843
312.17754
309.7373
307.39847
305.1966
303.1653
301.33331
299.72159
298.341
297.19127
296.26136
295.53134
294.97515
294.56387
294.26863
294.06282
293.92352
293.83203
293.77379
293.73794
293.71667
293.70458
293.69803
293.69467
293.69306
293.69235
293.69205
293.69194
293.6919
293.69189
293.69189
352.17889
350.98793
349.7145
348.3555
346.90807
345.36971
343.73828
342.01218
340.1904
338.27268
336.2597
334.15324
331.95651
329.67442
327.314
324.88483
322.3995
319.87416
317.32891
314.78807
312.28017
309.83743
307.4946
305.28719
303.24889
301.40866
299.78778
298.39759
297.23829
296.29931
295.56107
294.99777
294.58059
294.28063
294.0712
293.9292
293.83575
293.77614
293.73936
293.71748
293.70499
293.69819
293.69469
293.693
293.69224
293.69193
293.6918
293.69176
293.69175
293.69174
352.2364
351.04728
349.77583
348.41894
346.97377
345.4378
343.80891
342.08549
340.26652
338.35172
336.34174
334.23836
332.04471
329.76566
327.40814
324.98162
322.49857
319.97497
317.43073
314.88997
312.38101
309.93587
307.58918
305.3764
303.33129
301.483
299.85317
298.45356
297.28486
296.33695
295.5906
295.02028
294.59725
294.29262
294.07957
293.93488
293.83949
293.77851
293.7408
293.71829
293.7054
293.69836
293.69471
293.69294
293.69214
293.6918
293.69167
293.69162
293.6916
293.6916
352.29277
351.10547
349.83596
348.48115
347.03819
345.50457
343.87817
342.15738
340.34115
338.42922
336.4222
334.32183
332.13121
329.85515
327.50048
325.07659
322.5958
320.07393
317.53071
314.99007
312.48011
310.03267
307.68226
305.46427
303.41252
301.55637
299.91779
298.50894
297.331
296.37428
295.61994
295.04266
294.61385
294.30457
294.08794
293.94057
293.84324
293.7809
293.74225
293.71912
293.70583
293.69854
293.69474
293.69288
293.69203
293.69167