/*--------------------------------*- C++ -*----------------------------------*\
| =========                 |                                                 |
| \\      /  F ield         | OpenFOAM: The Open Source CFD Toolbox           |
|  \\    /   O peration     | Version:  4.0                                   |
|   \\  /    A nd           | Web:      www.OpenFOAM.org                      |
|    \\/     M anipulation  |                                                 |
\*---------------------------------------------------------------------------*/
FoamFile
{
    version     2.0;
    format      ascii;
    class       volVectorField;
    location    "3000/fluid";
    object      U;
}
// * * * * * * * * * * * * * * * * * * * * * * * * * * * * * * * * * * * * * //

dimensions      [0 1 -1 0 0 0 0];

internalField   nonuniform List<vector> 
5000
(
(2.7771064e-06 2.6856437e-23 0.0053461576)
(1.2730332e-05 5.6171831e-23 0.015519779)
(3.6706469e-05 7.3063673e-23 0.025573811)
(6.7513018e-05 1.0604316e-22 0.035359455)
(0.00010709124 7.205513e-22 0.04471517)
(0.00015110206 9.0323177e-22 0.053472042)
(0.00019694312 1.7170504e-21 0.061461152)
(0.00024016677 3.5088984e-21 0.06852269)
(0.00027660833 5.4972324e-22 0.074516447)
(0.00030181177 -3.0646299e-21 0.079332851)
(0.00031197154 -6.6314244e-21 0.082903507)
(0.00030413032 -8.5432695e-21 0.085209852)
(0.00027675677 1.5764854e-21 0.086288527)
(0.00022996613 -1.2966088e-21 0.086232208)
(0.00016569137 3.6019993e-22 0.085185153)
(8.7423665e-05 5.8068251e-21 0.083333404)
(1.1143901e-06 3.5893175e-21 0.080890511)
(-8.8538334e-05 4.6110654e-21 0.078080484)
(-0.00017723391 4.6848486e-21 0.075119712)
(-0.00025856854 -1.3234294e-20 0.072200554)
(-0.00032888865 -5.5769823e-22 0.069478463)
(-0.0003856284 1.3784486e-21 0.067063842)
(-0.0004281622 -8.2153825e-21 0.06501942)
(-0.00045669755 -8.0048973e-21 0.063362891)
(-0.00047350927 -1.5839441e-21 0.062074357)
(-0.0004801833 3.8903739e-21 0.061106673)
(-0.00048099576 1.016486e-21 0.060397878)
(-0.00047684254 2.9136918e-22 0.059881946)
(-0.00047371406 -3.8259386e-21 0.05949923)
(-0.00046944428 -4.6914561e-22 0.059200075)
(-0.00047293415 3.0242145e-21 0.058950519)
(-0.00047601008 2.5446882e-21 0.058725447)
(-0.00049383778 2.197056e-20 0.058515569)
(-0.00050796305 1.3491649e-20 0.05830879)
(-0.00054570976 -1.0875957e-20 0.058111604)
(-0.00057174818 -3.6954008e-21 0.057910031)
(-0.00063390917 -3.9339816e-21 0.057724395)
(-0.00067069092 -1.6365595e-20 0.05752642)
(-0.00076061287 -1.1112977e-20 0.057357631)
(-0.00080507587 -7.5759742e-22 0.057161945)
(-0.00092374854 8.3663149e-21 0.057015988)
(-0.00097072949 -2.9489377e-20 0.05681779)
(-0.0011150389 -7.0405088e-21 0.056698171)
(-0.0011563335 -3.6117046e-20 0.056484167)
(-0.0013163611 -9.2501443e-21 0.056388061)
(-0.0013363458 4.8566786e-20 0.056122849)
(-0.0014871078 5.4472578e-22 0.056033978)
(-0.0014444108 -3.9623254e-20 0.055691192)
(-0.0014997731 -1.0806381e-20 0.056175569)
(-0.0010237351 -4.7316077e-20 0.050026177)
(-3.833946e-06 4.7350094e-23 0.0061583964)
(-2.2592092e-05 -1.0454363e-23 0.018017008)
(-6.0337871e-05 -4.3428544e-23 0.02990217)
(-0.00012156704 -2.9955076e-23 0.041662082)
(-0.00020929173 -4.3148411e-22 0.053120467)
(-0.00032679202 -7.5956424e-22 0.064078244)
(-0.00047729413 -2.467453e-21 0.074317357)
(-0.000663767 -9.8049523e-21 0.083607682)
(-0.00088863952 7.8164232e-21 0.091717463)
(-0.0011534067 2.0779637e-20 0.09842764)
(-0.0014581142 2.1002758e-20 0.10354982)
(-0.0018007525 -1.4508109e-20 0.10694683)
(-0.0021766286 -3.5902732e-20 0.10855356)
(-0.0025778473 -1.4643374e-20 0.10839492)
(-0.0029930619 -2.93176e-20 0.10659661)
(-0.0034076795 2.7111019e-20 0.10338466)
(-0.0038046365 6.0682936e-20 0.099071047)
(-0.0041657411 2.6855973e-20 0.094025426)
(-0.0044735188 7.3380496e-20 0.088636884)
(-0.0047130903 2.8689013e-20 0.083272323)
(-0.0048739983 -2.6264952e-20 0.078239912)
(-0.0049512307 -2.3848982e-20 0.073764212)
(-0.0049457868 -1.0756202e-19 0.069976336)
(-0.0048638975 -5.2870069e-20 0.06691866)
(-0.004716479 -2.9394962e-20 0.064560313)
(-0.0045167465 6.2238654e-21 0.062818878)
(-0.0042800794 2.0463174e-21 0.061583092)
(-0.0040202096 2.6429685e-20 0.060733718)
(-0.0037517258 2.4020865e-20 0.060159006)
(-0.0034834938 7.7985881e-21 0.059765726)
(-0.003227154 2.5217329e-20 0.059482513)
(-0.0029836685 1.0846167e-20 0.059261379)
(-0.0027638298 6.403183e-20 0.059071514)
(-0.0025591575 3.3562193e-20 0.058897742)
(-0.0023854697 -1.7075552e-20 0.058730822)
(-0.0022221592 -3.2831562e-21 0.058568997)
(-0.0020983921 -1.5699616e-21 0.058409849)
(-0.0019750293 -1.2701121e-20 0.058252794)
(-0.0019050078 -1.4104056e-20 0.05809981)
(-0.0018196573 0 0.057942631)
(-0.0018092314 1.2560213e-20 0.057795934)
(-0.001759486 -2.578492e-20 0.057628409)
(-0.0018173838 -1.1366671e-20 0.057487972)
(-0.0017982016 -4.2231194e-20 0.05728818)
(-0.0019403198 -8.5258237e-21 0.057151438)
(-0.0019397172 4.3177388e-20 0.056867443)
(-0.0022089876 -4.2393364e-21 0.056733499)
(-0.0022159514 -4.2015262e-20 0.05658352)
(-0.0027435017 -3.3119839e-20 0.057434954)
(-0.0018970821 -6.1390314e-20 0.04541712)
(-2.1242163e-06 -1.6711461e-23 0.0070763459)
(-1.4975477e-05 -1.0412855e-22 0.020785431)
(-4.0326025e-05 -1.9462097e-22 0.034622847)
(-8.2482012e-05 -2.5351662e-22 0.048428981)
(-0.00014433198 -8.2905049e-22 0.062014748)
(-0.00022918502 -1.5763807e-21 0.075161472)
(-0.00034051747 -4.2632144e-21 0.087622631)
(-0.00048184148 -1.3306992e-20 0.099128288)
(-0.00065653066 -1.5805232e-20 0.1093931)
(-0.00086757508 7.0667483e-21 0.11812875)
(-0.0011172485 1.0992584e-20 0.12506159)
(-0.0014066704 -5.6983299e-20 0.12995537)
(-0.001735259 -4.2297254e-20 0.13263833)
(-0.0021000908 -1.1174809e-20 0.13303181)
(-0.0024952396 -1.0065296e-20 0.13117621)
(-0.0029112182 8.4902762e-20 0.12724796)
(-0.0033347384 6.0209114e-20 0.12156121)
(-0.0037489988 2.2217643e-20 0.1145494)
(-0.0041346943 6.1817986e-20 0.10672573)
(-0.0044717454 4.1645975e-20 0.0986279)
(-0.0047415834 3.914332e-20 0.090757354)
(-0.0049294572 3.017518e-20 0.083525979)
(-0.0050264724 -6.40021e-20 0.077220994)
(-0.0050305275 1.8979402e-20 0.071993337)
(-0.0049466422 4.8013259e-20 0.06786801)
(-0.0047855652 4.3324719e-20 0.06477022)
(-0.004562904 7.7385551e-20 0.06255883)
(-0.0042958742 7.4293393e-20 0.061060092)
(-0.0040033792 2.5697424e-20 0.060095999)
(-0.003700976 -1.9431355e-21 0.059505485)
(-0.0034049435 -3.4315421e-20 0.05915612)
(-0.0031232715 3.7497721e-21 0.05894972)
(-0.0028684892 7.9869936e-20 0.05881883)
(-0.0026382307 1.3573873e-19 0.058723746)
(-0.0024457348 -2.3851469e-20 0.058640854)
(-0.0022761282 -5.7334099e-21 0.05856174)
(-0.0021522546 -1.6441967e-20 0.058479512)
(-0.0020406541 -1.0856872e-19 0.058395639)
(-0.001986996 -1.4029459e-20 0.058307473)
(-0.0019250965 1.9687969e-21 0.058214839)
(-0.0019447549 1.1567112e-20 0.058123208)
(-0.001920646 -2.5252634e-20 0.058015829)
(-0.0020235994 -1.330332e-20 0.057926459)
(-0.0020234304 -4.2635486e-20 0.057790323)
(-0.0022340175 -8.4783546e-21 0.057707008)
(-0.0022496828 6.2761805e-20 0.057512766)
(-0.0026199281 -5.4156411e-21 0.05751306)
(-0.0027042244 -3.2978557e-20 0.057980153)
(-0.003178577 8.7571575e-20 0.058537203)
(-0.0020303518 2.9901338e-20 0.041090909)
(-1.6548284e-06 5.5183976e-22 0.0078894803)
(-1.1986209e-05 1.9151013e-21 0.02322945)
(-3.225865e-05 4.1025251e-21 0.038780204)
(-6.5977308e-05 2.2294516e-21 0.054376819)
(-0.00011549263 9.8592244e-22 0.0698219)
(-0.00018358213 1.5114881e-21 0.084884563)
(-0.0002732868 7.1261832e-22 0.099300992)
(-0.00038786037 3.9374542e-21 0.11277739)
(-0.00053068803 1.2531162e-20 0.12499622)
(-0.00070514856 2.1098093e-20 0.13562659)
(-0.00091439838 4.4821407e-20 0.14434006)
(-0.0011610557 4.2963449e-20 0.15083223)
(-0.001446767 -3.6551832e-20 0.15485035)
(-0.0017716511 -4.3896943e-20 0.15622543)
(-0.0021336427 -1.3904286e-19 0.15490583)
(-0.0025278009 -8.2259522e-20 0.15098651)
(-0.0029457152 4.8781429e-20 0.14472667)
(-0.0033751921 2.4313384e-20 0.13654776)
(-0.0038004647 6.1452668e-20 0.12700614)
(-0.0042030782 2.8317833e-20 0.1167405)
(-0.0045635492 -6.4840927e-20 0.10640119)
(-0.0048635098 1.7139374e-20 0.096575719)
(-0.0050881045 -8.4801863e-20 0.087726508)
(-0.0052278111 -7.1322217e-20 0.080153839)
(-0.0052797693 -6.0095955e-20 0.073988842)
(-0.0052475118 -5.1130709e-20 0.069213137)
(-0.0051406646 -1.5732725e-19 0.065695801)
(-0.0049723797 8.1487572e-20 0.063236983)
(-0.0047590609 8.606605e-20 0.061609117)
(-0.0045157835 4.0301166e-20 0.060590171)
(-0.0042590882 2.2429489e-20 0.059986176)
(-0.0039987793 -2.9509795e-20 0.059643342)
(-0.0037486602 3.5899725e-20 0.059450386)
(-0.0035087163 1.3353932e-19 0.059334653)
(-0.003293328 2.5117108e-20 0.059253111)
(-0.0030892732 2.4283795e-20 0.059183779)
(-0.0029213635 2.3078305e-20 0.059116311)
(-0.002755935 -4.5318717e-20 0.059047033)
(-0.0026447716 -1.1443808e-19 0.058975334)
(-0.0025165883 -1.290792e-20 0.058899132)
(-0.0024760117 1.2233262e-20 0.058823617)
(-0.0023831169 -2.7525466e-20 0.058738508)
(-0.0024333278 -1.6289548e-20 0.058663111)
(-0.0023760366 -5.5742796e-20 0.058565558)
(-0.0025395283 -1.0333163e-19 0.058486998)
(-0.0025337643 -3.1850122e-20 0.058383852)
(-0.00284002 -2.24753e-20 0.058523289)
(-0.0029659658 -2.8321076e-20 0.059495304)
(-0.0031712924 9.9532257e-20 0.058754064)
(-0.00173154 4.0201977e-20 0.036599416)
(-1.2180812e-06 -6.0702927e-23 0.00852345)
(-9.2682979e-06 -2.6054841e-22 0.025142309)
(-2.4963963e-05 -4.2993354e-23 0.042045644)
(-5.1181708e-05 3.8537194e-22 0.059066811)
(-8.985447e-05 7.3399899e-22 0.076004777)
(-0.00014329977 9.1504708e-22 0.092622438)
(-0.00021410102 1.6681932e-21 0.10864634)
(-0.00030508787 4.8409613e-21 0.12376852)
(-0.00041929961 3.311079e-20 0.13765139)
(-0.00055991217 2.6956273e-20 0.14993651)
(-0.00073011059 4.7652225e-20 0.16025857)
(-0.00093288466 1.6575793e-19 0.16826533)
(-0.0011707233 3.5873675e-20 0.17364404)
(-0.001445186 1.5490018e-20 0.17615396)
(-0.0017563448 -3.5456531e-20 0.17566272)
(-0.0021021181 -6.1991594e-20 0.17218221)
(-0.0024775742 -2.759013e-20 0.16589706)
(-0.0028743332 1.3191929e-20 0.15717712)
(-0.0032802881 2.4049714e-20 0.14656543)
(-0.0036798369 3.6897433e-20 0.13473711)
(-0.0040548626 -2.3693537e-20 0.12243157)
(-0.0043863633 -8.1108982e-20 0.11036924)
(-0.0046567164 -9.5134265e-20 0.099170051)
(-0.0048518228 -3.3483618e-20 0.089291911)
(-0.0049631924 -1.4680658e-19 0.081000786)
(-0.0049886105 -3.0619917e-20 0.074374857)
(-0.0049328045 -2.6194152e-20 0.069335649)
(-0.0048055138 -1.1119461e-19 0.065694418)
(-0.0046216748 -3.9100217e-21 0.063201843)
(-0.004396678 2.1106446e-20 0.061592078)
(-0.0041491469 7.3320502e-20 0.060616288)
(-0.0038917413 9.1700124e-21 0.060063961)
(-0.0036420723 -2.6829266e-20 0.059772706)
(-0.0034029493 2.6031036e-20 0.059628291)
(-0.0031922209 1.3402408e-20 0.059558042)
(-0.0029972119 2.7368653e-20 0.05952042)
(-0.0028450936 2.4605093e-20 0.059494493)
(-0.0026998036 6.8588025e-20 0.059471092)
(-0.0026144093 -1.2517925e-19 0.059446357)
(-0.002514176 -1.9338177e-20 0.05942006)
(-0.0025012055 1.4347904e-20 0.059389995)
(-0.0024392727 -2.7503616e-20 0.059360124)
(-0.0025053625 -1.5015549e-20 0.059323404)
(-0.0024811543 -6.2496561e-20 0.059290808)
(-0.0026337806 -1.240327e-19 0.05923915)
(-0.0026676315 -4.0139821e-20 0.059252898)
(-0.0029387806 -2.6463665e-20 0.059611377)
(-0.0030724486 -2.8873296e-20 0.06078996)
(-0.0030656815 -3.4164516e-20 0.058220461)
(-0.0014473698 -8.4837118e-20 0.032490867)
(-1.171551e-06 -4.8608145e-22 0.009092927)
(-8.6157733e-06 -1.8405547e-21 0.02685801)
(-2.3203549e-05 -3.8607656e-21 0.044970614)
(-4.7512792e-05 -1.4639873e-21 0.063262038)
(-8.3280867e-05 -3.3424281e-22 0.081527631)
(-0.00013257398 -6.0623671e-23 0.0995247)
(-0.00019767862 -1.5358381e-21 0.11697167)
(-0.00028108305 -5.6105113e-21 0.13354921)
(-0.00038544846 -4.6406445e-21 0.14890425)
(-0.00051355559 4.3066132e-21 0.16265763)
(-0.00066821437 3.52841e-21 0.17441683)
(-0.00085212114 6.1264874e-20 0.18379447)
(-0.0010676447 3.4640714e-20 0.19043367)
(-0.0013165198 2.259713e-20 0.19403988)
(-0.0015994333 1.6552543e-21 0.19441815)
(-0.0019155009 7.054419e-20 0.19151205)
(-0.0022616697 4.39763e-20 0.18543865)
(-0.0026321199 1.0964289e-20 0.17651083)
(-0.0030178289 -2.2848e-20 0.16523794)
(-0.0034064563 -6.4891591e-21 0.15229715)
(-0.0037828145 3.2155392e-20 0.13847388)
(-0.0041299242 -1.6986114e-20 0.12457841)
(-0.0044308008 -3.9994808e-20 0.11135414)
(-0.0046703662 2.7038188e-20 0.099397634)
(-0.0048376292 -1.6488138e-20 0.089107255)
(-0.0049267364 -4.2683328e-20 0.080668932)
(-0.0049381796 3.8117635e-20 0.074076172)
(-0.0048774543 -2.7675652e-20 0.069173817)
(-0.0047556823 3.9084198e-21 0.065711993)
(-0.0045852935 7.6370189e-21 0.06339854)
(-0.0043828084 2.2439054e-20 0.061942169)
(-0.0041599768 7.3045655e-21 0.061083108)
(-0.0039339825 -3.5469465e-21 0.060610272)
(-0.0037084901 -6.8854816e-21 0.060367304)
(-0.0035013696 -2.9946012e-20 0.060248291)
(-0.0033021309 2.236215e-20 0.060189604)
(-0.003136593 2.7454797e-20 0.060155582)
(-0.0029734599 3.0378007e-20 0.060131748)
(-0.0028604901 -6.4117566e-20 0.060108489)
(-0.0027346716 -2.5511474e-20 0.060089528)
(-0.002683177 1.1867683e-20 0.060065467)
(-0.0025960912 -2.9463114e-20 0.060052203)
(-0.0026161067 -1.4893885e-20 0.060026325)
(-0.0025732343 -6.8273586e-20 0.060020963)
(-0.002676607 -9.5685027e-20 0.059994435)
(-0.0026960671 6.8584297e-20 0.060110975)
(-0.0029225376 -2.3049941e-20 0.060702645)
(-0.0029837809 -2.969717e-20 0.06176748)
(-0.0027881923 -5.4229923e-20 0.057199694)
(-0.0011496341 -8.9992389e-20 0.029126765)
(-1.0044492e-06 -4.1892348e-22 0.0095855286)
(-7.5041711e-06 -1.5931611e-21 0.028344877)
(-2.0219698e-05 -3.9926613e-21 0.047509798)
(-4.1451725e-05 -1.6825198e-21 0.066910641)
(-7.2762902e-05 -5.9203433e-22 0.086340538)
(-0.00011602489 -1.1217368e-21 0.10555292)
(-0.00017332667 -4.9166153e-21 0.12426017)
(-0.00024696323 -1.5360686e-20 0.14213416)
(-0.00033941518 -3.2140967e-20 0.15880942)
(-0.00045330627 -8.1648756e-21 0.17388994)
(-0.00059132903 -3.2481552e-20 0.18696077)
(-0.00075612546 -7.5529116e-20 0.19760548)
(-0.00095010746 5.4871112e-21 0.20543043)
(-0.001175199 2.7469468e-20 0.21009608)
(-0.0014324877 6.5432705e-20 0.21135449)
(-0.0017217772 5.4912282e-20 0.20909023)
(-0.0020410616 3.6144427e-20 0.20335943)
(-0.0023859645 1.2011833e-20 0.19441925)
(-0.0027492672 -1.8419718e-20 0.18273825)
(-0.0031206435 -9.0381551e-20 0.16897877)
(-0.0034868498 1.4088856e-19 0.15394666)
(-0.0038324069 8.464794e-20 0.13851192)
(-0.0041409997 -2.935987e-20 0.12351289)
(-0.0043971304 7.0493332e-20 0.10966386)
(-0.0045882368 4.3057043e-20 0.097486153)
(-0.0047059824 4.0717149e-21 0.08727589)
(-0.004747828 1.1405943e-19 0.079110539)
(-0.0047163023 8.2851298e-20 0.072886109)
(-0.0046199368 2.9120403e-20 0.068371313)
(-0.0044696168 -1.7161969e-20 0.065265114)
(-0.0042810343 -3.7366173e-20 0.063247392)
(-0.004066713 2.555183e-20 0.062017838)
(-0.0038445498 2.665782e-20 0.061320462)
(-0.0036209863 -3.4404388e-21 0.060956214)
(-0.0034143222 -2.9936352e-20 0.060782615)
(-0.0032181471 -2.3949814e-20 0.060708911)
(-0.0030556022 -1.0212189e-19 0.060680459)
(-0.0029013413 -9.1090336e-20 0.060672764)
(-0.0027943652 5.5812723e-20 0.060669531)
(-0.0026822677 -1.0181096e-20 0.060673343)
(-0.0026348283 1.1827781e-20 0.060672287)
(-0.002560606 -3.2601234e-20 0.060682788)
(-0.0025761836 -1.2852331e-20 0.060680387)
(-0.0025370326 -4.3822794e-20 0.060697047)
(-0.0026248143 5.7574816e-20 0.06071054)
(-0.0026343407 8.7225665e-20 0.060931863)
(-0.0028274816 -2.470989e-20 0.061696035)
(-0.0028114776 -3.2820009e-20 0.062377028)
(-0.0024656328 -4.9425218e-20 0.055825986)
(-0.0008983265 -1.1783861e-20 0.026273496)
(-9.5597491e-07 9.8231072e-22 0.010040524)
(-7.0284449e-06 1.5306369e-21 0.029717355)
(-1.8939095e-05 2.8356249e-21 0.049852314)
(-3.8809156e-05 5.8642724e-21 0.070274719)
(-6.8084801e-05 1.3342848e-20 0.090775566)
(-0.0001084937 6.4486914e-21 0.11110474)
(-0.0001619608 2.6794344e-21 0.13096929)
(-0.00023059919 4.3520224e-21 0.15003344)
(-0.00031669444 1.4776601e-20 0.16792116)
(-0.00042267075 -3.0661692e-21 0.1842222)
(-0.00055103119 -3.6176591e-20 0.19850279)
(-0.00070426046 -1.3081772e-19 0.21032213)
(-0.00088467654 -3.3884404e-20 0.21925576)
(-0.0010942153 -7.1351422e-21 0.22492622)
(-0.001334136 2.1373594e-20 0.22704055)
(-0.0016046359 -4.5415576e-20 0.22543239)
(-0.0019043883 4.2552352e-20 0.22010402)
(-0.002230032 1.5231819e-20 0.21126116)
(-0.0025757062 3.3445805e-20 0.19933104)
(-0.002932726 -2.6797369e-20 0.18495403)
(-0.0032896131 -1.9124335e-20 0.16894236)
(-0.0036325361 1.1163743e-19 0.15220622)
(-0.0039463998 -2.0882945e-20 0.13565738)
(-0.0042162402 2.8880687e-20 0.12010872)
(-0.0044291471 1.4703972e-19 0.10619129)
(-0.0045755975 -2.8243603e-20 0.094305979)
(-0.0046510969 -7.3746739e-20 0.084616063)
(-0.0046558546 7.2714299e-20 0.077075945)
(-0.0045957782 7.7398728e-20 0.071483095)
(-0.0044795095 3.4211811e-20 0.067538539)
(-0.0043204589 2.2285398e-20 0.064903539)
(-0.004130064 3.0896118e-20 0.063245579)
(-0.0039247363 3.191792e-20 0.062269781)
(-0.0037116731 5.1579826e-21 0.061737434)
(-0.0035080083 -6.6341369e-21 0.061470454)
(-0.0033101627 3.0247006e-20 0.06134929)
(-0.0031389795 -2.5833942e-20 0.061299162)
(-0.002974269 -6.7682997e-20 0.061282348)
(-0.0028500587 7.8628618e-20 0.061276756)
(-0.0027221085 -7.6197273e-21 0.061280325)
(-0.0026519046 3.5681417e-21 0.061282985)
(-0.0025590751 -3.0309464e-20 0.061296182)
(-0.0025491236 -1.4759873e-20 0.061301696)
(-0.0024901673 -2.8515297e-20 0.061325784)
(-0.0025512342 7.727038e-20 0.061376783)
(-0.0025413943 4.3389953e-21 0.061700186)
(-0.002690262 -2.3846201e-20 0.06254606)
(-0.0025993593 -3.9169355e-20 0.062658266)
(-0.002141694 -4.065966e-20 0.054305722)
(-0.00069651279 6.2325202e-21 0.023969032)
(-8.6095659e-07 4.6518019e-22 0.010451671)
(-6.3768913e-06 1.5800063e-21 0.030959009)
(-1.7189268e-05 3.7352861e-21 0.051973799)
(-3.5248323e-05 6.0323846e-22 0.073324872)
(-6.1891229e-05 5.4658403e-22 0.094801789)
(-9.872202e-05 1.0907952e-21 0.11615177)
(-0.00014753726 -1.0816001e-21 0.13707759)
(-0.00021032077 -2.593646e-21 0.15723715)
(-0.00028923291 3.298518e-21 0.1762455)
(-0.00038658351 1.6951648e-20 0.1936801)
(-0.00050478152 3.2865951e-20 0.2090908)
(-0.00064625125 7.3805322e-20 0.22201544)
(-0.00081330261 4.9064587e-21 0.23200231)
(-0.001007941 -2.1863321e-20 0.23864028)
(-0.0012316041 -9.5627434e-20 0.24159611)
(-0.0014848147 -7.9635509e-20 0.2406574)
(-0.0017667576 -1.737892e-20 0.23577696)
(-0.0020747998 1.0840488e-20 0.22711184)
(-0.0024040322 1.3971033e-20 0.21504783)
(-0.0027469099 7.7852305e-20 0.20019913)
(-0.0030931822 -8.4634766e-20 0.18337534)
(-0.0034301711 -2.3051824e-20 0.16551362)
(-0.0037436415 -2.2870858e-20 0.1475836)
(-0.0040189966 -5.5553845e-20 0.13048181)
(-0.0042430342 -7.9367012e-20 0.11493769)
(-0.0044052923 2.0338229e-21 0.10145104)
(-0.0044997468 -1.1124464e-19 0.090271162)
(-0.00452481 -6.8583687e-20 0.081416024)
(-0.0044844484 1.3500937e-20 0.074720292)
(-0.0043857525 2.4656216e-20 0.069896795)
(-0.0042407734 2.4169155e-20 0.066597635)
(-0.0040605759 -3.6425026e-21 0.064466027)
(-0.0038611972 7.6077837e-20 0.063173982)
(-0.0036509528 2.5737516e-20 0.062446208)
(-0.0034470898 -2.8150105e-20 0.062069737)
(-0.0032482819 -7.1525886e-20 0.061894654)
(-0.0030746782 1.9415474e-19 0.061823637)
(-0.0029088765 1.4815172e-19 0.061802569)
(-0.0027821144 2.9779672e-20 0.061801327)
(-0.0026535102 1.1387513e-20 0.061811219)
(-0.0025791266 4.691125e-21 0.061822556)
(-0.0024836721 -3.2348151e-20 0.061842056)
(-0.002464078 -1.1784919e-20 0.061855767)
(-0.0023983957 -4.9717441e-20 0.061890899)
(-0.0024415104 -1.4916872e-19 0.061982764)
(-0.0024201426 7.8137664e-21 0.062399061)
(-0.0025230711 -2.7534022e-20 0.063232339)
(-0.002369168 -5.3661416e-20 0.062662535)
(-0.0018370095 -3.1003008e-20 0.052746832)
(-0.00053625658 -6.4116218e-20 0.022112093)
(-8.1737951e-07 -1.2935845e-26 0.010835812)
(-6.0049968e-06 2.1053694e-22 0.032118867)
(-1.6188142e-05 5.4007404e-22 0.053955191)
(-3.3189963e-05 1.574767e-21 0.076173148)
(-5.8264201e-05 5.7979172e-21 0.098560996)
(-9.2913468e-05 2.5182659e-21 0.12086357)
(-0.00013882075 1.0775805e-21 0.14277989)
(-0.0001978457 1.5537409e-21 0.16396232)
(-0.00027201657 -4.8660006e-21 0.18401807)
(-0.0003635091 2.1393802e-21 0.20251396)
(-0.00047460482 -8.3361557e-21 0.21898556)
(-0.00060762051 -1.5162976e-20 0.23295202)
(-0.00076479714 8.9743934e-21 0.24393777)
(-0.00094813419 1.0891873e-20 0.25150192)
(-0.0011591578 -1.9072768e-20 0.25527536)
(-0.001398609 -2.5015077e-20 0.2550042)
(-0.0016660579 9.7652768e-21 0.25059591)
(-0.0019594543 1.1890303e-20 0.24216188)
(-0.0022746821 0 0.23004729)
(-0.0026051794 -1.0644742e-20 0.21483795)
(-0.0029417984 -1.0533773e-20 0.19733489)
(-0.0032729642 -2.7123036e-20 0.17849281)
(-0.0035853746 -5.3782044e-20 0.15932741)
(-0.0038650236 1.4285967e-20 0.14080676)
(-0.0040988042 2.6295776e-20 0.12374853)
(-0.0042758079 -4.403437e-20 0.10874494)
(-0.0043890242 -2.1764969e-20 0.096129066)
(-0.0044355123 -2.1477166e-20 0.085984129)
(-0.0044176009 -2.0276267e-24 0.078186421)
(-0.0043407874 -2.0801088e-20 0.072466517)
(-0.004215504 -2.2250577e-20 0.068473727)
(-0.0040516948 1.6312011e-20 0.06583304)
(-0.0038642883 2.1170174e-20 0.064188465)
(-0.0036614926 8.5660056e-21 0.063231975)
(-0.0034600526 1.0771142e-23 0.06271782)
(-0.0032597691 -3.0134291e-20 0.062466439)
(-0.0030803261 1.8151612e-20 0.062356998)
(-0.002906615 8.180127e-20 0.062318089)
(-0.0027682509 4.0522703e-20 0.062309418)
(-0.0026282063 7.5800119e-21 0.062315943)
(-0.0025381784 1.5240316e-20 0.062325889)
(-0.0024300704 -2.8006725e-20 0.062344107)
(-0.0023911823 -1.2738017e-20 0.062357916)
(-0.0023139523 -4.2958819e-20 0.062402649)
(-0.0023338593 -1.2034569e-19 0.062533575)
(-0.0023004535 -2.5671667e-20 0.063020685)
(-0.0023548557 -2.1985607e-20 0.063754865)
(-0.002150205 -4.030612e-20 0.062447493)
(-0.0015719985 -1.4052894e-20 0.051212345)
(-0.00041336171 -6.1398896e-20 0.020609503)
(-7.5735427e-07 4.8391008e-22 0.011191521)
(-5.5801774e-06 -8.0366751e-23 0.033193616)
(-1.5046472e-05 -6.9211958e-22 0.055792345)
(-3.0861823e-05 -2.297137e-21 0.078815881)
(-5.4203854e-05 1.4892075e-20 0.10205154)
(-8.6487223e-05 -9.5974897e-22 0.12524227)
(-0.00012930125 -2.2586843e-20 0.14808392)
(-0.00018440825 -1.1119553e-20 0.1702241)
(-0.00025373829 -3.08142e-21 0.19126322)
(-0.00033937219 2.8008047e-21 0.21075866)
(-0.00044350609 -9.6681795e-21 0.22823327)
(-0.00056838983 -6.8103076e-20 0.2431895)
(-0.00071622872 -2.0082381e-20 0.2551303)
(-0.00088903553 2.3916915e-20 0.26358783)
(-0.0010884209 1.4567549e-19 0.26816031)
(-0.0013153087 -9.9783621e-20 0.26855569)
(-0.001569579 8.5348543e-20 0.26463928)
(-0.0018496437 6.9844572e-20 0.25647907)
(-0.0021520122 1.7067459e-20 0.24438042)
(-0.0024708985 -9.5461801e-21 0.22889914)
(-0.0027980298 -1.0490427e-21 0.21082328)
(-0.0031227108 6.2521312e-21 0.1911178)
(-0.003432389 -8.2363941e-20 0.1708352)
(-0.0037135352 -1.2434507e-19 0.15100523)
(-0.0039531158 3.2227864e-20 0.13252514)
(-0.0041398434 6.5840406e-20 0.11607375)
(-0.0042658778 1.3993604e-19 0.1020656)
(-0.0043271434 3.5022236e-20 0.090650263)
(-0.0043246225 9.7782895e-20 0.081749396)
(-0.0042625445 0 0.075116601)
(-0.0041501282 -3.3301237e-20 0.070404195)
(-0.0039965955 -2.1721043e-20 0.067224505)
(-0.0038162089 6.1696515e-20 0.065198214)
(-0.0036174227 2.5652121e-20 0.063988098)
(-0.0034167719 2.1449583e-20 0.06331754)
(-0.0032154037 7.9227925e-20 0.062977994)
(-0.0030324335 -1.2853791e-19 0.062824033)
(-0.0028552372 -1.319038e-19 0.062765798)
(-0.0027109335 1.3399455e-21 0.062750323)
(-0.0025668952 -1.1348666e-20 0.06275563)
(-0.0024683477 -1.4724079e-19 0.062765465)
(-0.0023560265 -3.7596471e-20 0.062784248)
(-0.0023042862 -1.2718606e-20 0.06279938)
(-0.0022230575 -5.7451577e-20 0.062857774)
(-0.0022242459 -1.7092774e-19 0.063028457)
(-0.0021828724 7.7435087e-21 0.063560306)
(-0.0021924767 -2.1670258e-20 0.06412662)
(-0.0019488457 -5.5275073e-20 0.062070408)
(-0.0013474519 -1.1701452e-19 0.049746137)
(-0.00031969518 -4.678775e-20 0.019401047)
(-7.2060367e-07 3.2266292e-22 0.0115268)
(-5.2866591e-06 3.348413e-22 0.034206627)
(-1.4256147e-05 6.8082396e-22 0.057523965)
(-2.9239816e-05 8.8497914e-22 0.081306839)
(-5.1352558e-05 4.0375722e-21 0.10534175)
(-8.1933421e-05 4.3120701e-21 0.12936996)
(-0.00012248754 8.2597911e-22 0.15308452)
(-0.00017468563 -2.3243942e-21 0.17612883)
(-0.00024036062 7.4747784e-21 0.19809723)
(-0.00032149421 2.531254e-21 0.21853871)
(-0.00042018703 -2.9480331e-21 0.23696481)
(-0.00053860528 -3.7726888e-21 0.25286302)
(-0.00067889477 -4.6086667e-21 0.26571699)
(-0.00084304921 -1.1945479e-20 0.27503457)
(-0.0010327216 1.3014598e-20 0.28038422)
(-0.0012489646 -4.3270234e-21 0.28143892)
(-0.0014919006 -1.4516561e-20 0.27802471)
(-0.001760322 4.2846287e-20 0.27016861)
(-0.0020512708 4.3582511e-20 0.25813719)
(-0.0023596398 9.4569763e-21 0.24245548)
(-0.0026779427 1.1500895e-20 0.22389534)
(-0.0029963049 6.624719e-20 0.20342633)
(-0.0033029151 1.8427618e-20 0.18213018)
(-0.0035847833 -8.1187494e-20 0.16108997)
(-0.003829089 -1.811125e-20 0.14127498)
(-0.0040243802 -3.5712171e-20 0.12344498)
(-0.0041622425 1.962774e-21 0.10809317)
(-0.0042377314 2.7133707e-20 0.095435454)
(-0.0042506902 2.4834772e-20 0.085440994)
(-0.0042042177 5.6405113e-20 0.077889984)
(-0.0041062823 0 0.072441913)
(-0.0039652587 2.7090215e-20 0.068700668)
(-0.0037943679 3.1672379e-20 0.066267453)
(-0.0036020075 1.7088296e-20 0.064779105)
(-0.003403886 -1.6536843e-21 0.063930438)
(-0.0032023738 2.5315998e-20 0.063485258)
(-0.0030153778 -5.5873967e-20 0.06327365)
(-0.0028332976 -8.0193173e-20 0.063186778)
(-0.0026801526 -1.4835538e-20 0.063157777)
(-0.0025291293 -5.0367766e-21 0.063156891)
(-0.0024182103 -8.3991481e-20 0.063162575)
(-0.0022989361 -7.5099946e-20 0.063178927)
(-0.0022317601 -1.2699919e-20 0.063194413)
(-0.0021454236 -4.059858e-20 0.063267129)
(-0.002127579 -1.2133641e-19 0.063474421)
(-0.0020773722 4.1444551e-22 0.064020773)
(-0.0020459366 -1.5354307e-20 0.064365669)
(-0.0017719252 -5.3274757e-20 0.06157589)
(-0.0011630008 -1.271062e-19 0.048362423)
(-0.00024989108 -4.3207918e-20 0.018415934)
(-6.791959e-07 -1.0617371e-22 0.011842106)
(-4.986735e-06 1.2145142e-21 0.035159674)
(-1.3449484e-05 3.3834955e-21 0.059153686)
(-2.7591918e-05 8.6583871e-21 0.083652162)
(-4.847213e-05 4.4971355e-21 0.10844099)
(-7.7362801e-05 1.1581277e-20 0.13326001)
(-0.0001156971 2.4150091e-20 0.15779988)
(-0.00016506938 7.8680347e-21 0.18170026)
(-0.0002272335 6.6836755e-21 0.20455009)
(-0.00030409199 1.8304543e-20 0.22589081)
(-0.00039767059 3.7193341e-20 0.24522372)
(-0.00051007106 8.6456193e-20 0.26202274)
(-0.0006433944 1.1355526e-20 0.27575391)
(-0.00079962188 -2.1127549e-20 0.28590281)
(-0.00098044298 -7.5750774e-20 0.29201054)
(-0.0011870167 3.5070696e-20 0.29371759)
(-0.0014196639 -1.0846934e-19 0.2908133)
(-0.0016774902 -5.4411806e-20 0.28328567)
(-0.0019579789 -3.708078e-20 0.27136363)
(-0.0022565909 -1.5443562e-19 0.25554093)
(-0.0025665055 -1.8732401e-20 0.2365708)
(-0.0028785526 2.4750595e-20 0.21542287)
(-0.0031815673 6.1180125e-20 0.19320176)
(-0.0034630457 6.2553576e-20 0.17103684)
(-0.0037103752 -9.7962364e-20 0.14996264)
(-0.0039119899 1.9800904e-20 0.1308148)
(-0.0040589898 -1.1141296e-19 0.11416239)
(-0.0041456965 -2.7028018e-20 0.10028732)
(-0.0041709563 -8.95115e-20 0.089208021)
(-0.004136924 -1.874433e-20 0.080734394)
(-0.004050478 -2.944519e-20 0.074536873)
(-0.0039193801 -2.1624873e-20 0.070214753)
(-0.0037559412 8.7804399e-20 0.067353287)
(-0.0035687505 1.5509427e-19 0.065566307)
(-0.0033726836 1.6452955e-20 0.064522218)
(-0.0031715575 2.8456105e-20 0.063958352)
(-0.002981833 9.6556099e-20 0.063680584)
(-0.0027971392 5.7211734e-20 0.063560388)
(-0.0026379488 -1.6167191e-20 0.063516081)
(-0.002483405 1.6353534e-20 0.06350866)
(-0.0023638436 1.3289668e-19 0.063510994)
(-0.0022413816 -5.1427832e-20 0.063525929)
(-0.0021629106 -1.1220909e-20 0.063544696)
(-0.0020744514 -3.5252453e-20 0.06363387)
(-0.0020413916 4.0502801e-20 0.063873918)
(-0.0019832104 1.6725291e-20 0.064405813)
(-0.0019166405 -1.5902553e-20 0.06449071)
(-0.0016195026 -5.1816687e-20 0.060999699)
(-0.0010135411 1.4413766e-20 0.047066624)
(-0.00019821056 -2.8776002e-20 0.017604732)
(-6.4875864e-07 -1.6845021e-22 0.012141525)
(-4.7521799e-06 -3.7525697e-23 0.036064758)
(-1.2817955e-05 -7.0803621e-23 0.060701494)
(-2.6297204e-05 -3.5864209e-22 0.085879788)
(-4.6199029e-05 1.1637274e-21 0.111385)
(-7.3737478e-05 2.1828073e-21 0.13695575)
(-0.00011028065 1.2944831e-21 0.16228051)
(-0.00015735205 9.0193344e-22 0.1869956)
(-0.00021663041 -4.6442129e-21 0.21068509)
(-0.0002899409 9.3592788e-22 0.23288358)
(-0.00037923337 -1.0422321e-20 0.2530831)
(-0.00048654135 -1.4521978e-20 0.27074521)
(-0.00061391307 7.8275339e-21 0.28531988)
(-0.00076330421 -2.790108e-22 0.29627229)
(-0.00093642087 -6.4793507e-21 0.30311828)
(-0.0011344997 2.6914435e-21 0.30546823)
(-0.0013580213 6.978918e-21 0.30307702)
(-0.0016063535 9.6080488e-21 0.29589568)
(-0.0018773586 1.2672532e-20 0.28411663)
(-0.002166997 -1.4678024e-20 0.2682023)
(-0.0024690444 -3.7321173e-20 0.24888547)
(-0.0027749788 1.2334123e-20 0.22713221)
(-0.0030742507 -2.0346681e-20 0.20406478)
(-0.003354852 3.6125576e-20 0.1808526)
(-0.0036044325 6.5608636e-20 0.1585895)
(-0.0038114166 -1.9648732e-20 0.13818215)
(-0.0039665537 -2.5301349e-20 0.12027262)
(-0.0040635903 -1.3460376e-20 0.10520807)
(-0.0041005171 -2.2777256e-20 0.093057245)
(-0.0040786685 -2.2419851e-20 0.083662064)
(-0.0040038832 -1.8351091e-20 0.076706837)
(-0.0038833165 -1.0780221e-20 0.071789342)
(-0.0037282664 -2.1015939e-20 0.068481831)
(-0.0035473873 2.8931412e-20 0.066377688)
(-0.0033545046 2.6301564e-20 0.065121021)
(-0.0031547 -2.8415792e-20 0.064424046)
(-0.0029628375 3.4653901e-20 0.064069183)
(-0.0027756366 4.2860267e-20 0.063907959)
(-0.0026102293 2.6829984e-21 0.063843532)
(-0.0024514893 1.1313747e-20 0.063826426)
(-0.002322987 9.4924154e-20 0.063824026)
(-0.002196513 -4.1756903e-20 0.063836912)