/*--------------------------------*- C++ -*----------------------------------*\
| =========                 |                                                 |
| \\      /  F ield         | OpenFOAM: The Open Source CFD Toolbox           |
|  \\    /   O peration     | Version:  3.0.1                                 |
|   \\  /    A nd           | Web:      www.OpenFOAM.org                      |
|    \\/     M anipulation  |                                                 |
\*---------------------------------------------------------------------------*/
FoamFile
{
    version     2.0;
    format      ascii;
    class       volScalarField;
    location    "10000/solid";
    object      T;
}
// * * * * * * * * * * * * * * * * * * * * * * * * * * * * * * * * * * * * * //

dimensions      [0 0 0 1 0 0 0];

internalField   nonuniform List<scalar> 
400
(
377.49286
377.46376
377.39974
377.30243
381.35216
381.32802
381.27492
381.19425
385.15429
385.1308
385.07912
385.00058
388.3977
388.37424
388.32261
388.24414
391.07513
391.05157
390.99973
390.92095
393.27455
393.25089
393.19882
393.11969
395.09196
395.06821
395.01595
394.93652
396.60945
396.58564
396.53323
396.45358
397.89213
397.86826
397.81575
397.73594
398.99008
398.96618
398.9136
398.83368
399.94148
399.91757
399.86493
399.78494
400.77539
400.75147
400.6988
400.61875
401.51403
401.49009
401.43741
401.35733
402.1745
402.15056
402.09786
402.01777
402.77009
402.74615
402.69345
402.61335
403.31124
403.2873
403.23461
403.15451
403.80623
403.78229
403.7296
403.64951
404.26168
404.23774
404.18506
404.10498
404.68296
404.65904
404.60636
404.52629
405.07448
405.05055
404.99789
404.91784
405.43985
405.41593
405.36328
405.28324
405.7821
405.75819
405.70554
405.62552
406.10378
406.07987
406.02724
405.94723
406.40703
406.38313
406.33051
406.25052
406.69371
406.66981
406.6172
406.53723
406.96539
406.9415
406.8889
406.80895
407.22345
407.19957
407.14698
407.06704
407.46909
407.44521
407.39264
407.31272
407.70336
407.67949
407.62692
407.54702
407.92718
407.90331
407.85076
407.77087
408.14136
408.1175
408.06496
407.98509
408.34665
408.32279
408.27026
408.1904
408.54368
408.51982
408.4673
408.38746
408.73304
408.70919
408.65668
408.57686
408.91526
408.89141
408.83891
408.7591
409.09081
409.06697
409.01448
408.93468
409.26011
409.23628
409.1838
409.10402
409.42357
409.39974
409.34727
409.26751
409.58154
409.55771
409.50525
409.4255
409.73434
409.71052
409.65807
409.57833
409.88226
409.85845
409.80601
409.72628
410.02559
410.00178
409.94935
409.86964
410.16458
410.14077
410.08835
410.00865
410.29945
410.27565
410.22323
410.14355
410.43043
410.40663
410.35422
410.27455
410.5577
410.53391
410.48151
410.40185
410.68147
410.65767
410.60528
410.52563
410.80188
410.77809
410.72571
410.64607
410.91911
410.89533
410.84296
410.76333
411.03331
411.00953
410.95716
410.87755
411.14461
411.12083
411.06847
410.98887
411.25314
411.22937
411.17702
411.09742
411.35903
411.33526
411.28291
411.20333
411.46238
411.43861
411.38628
411.3067
411.56331
411.53954
411.48721
411.40765
411.66191
411.63815
411.58583
411.50628
411.75828
411.73452
411.68221
411.60267
411.85251
411.82876
411.77645
411.69692
411.94468
411.92093
411.86863
411.78911
412.03488
412.01113
411.95884
411.87933
412.12317
412.09943
412.04714
411.96764
412.20963
412.18589
412.13361
412.05412
412.29432
412.27058
412.21831
412.13883
412.37731
412.35358
412.30131
412.22184
412.45866
412.43493
412.38267
412.30321
412.53843
412.5147
412.46244
412.38299
412.61666
412.59294
412.54069
412.46125
412.69342
412.6697
412.61746
412.53802
412.76875
412.74503
412.69279
412.61337
412.8427
412.81898
412.76675
412.68733
412.91531
412.89159
412.83937
412.75996
412.98662
412.96291
412.91069
412.83129
413.05668
413.03297
412.98076
412.90137
413.12553
413.10182
413.04961
412.97023
413.19319
413.16949
413.11729
413.03791
413.25972
413.23602
413.18382
413.10445
413.32514
413.30144
413.24924
413.16989
413.38948
413.36578
413.31359
413.23424
413.45277
413.42908
413.3769
413.29756
413.51505
413.49136
413.43919
413.35985
413.57635
413.55266
413.50049
413.42117
413.63669
413.613
413.56084
413.48152
413.6961
413.67242
413.62026
413.54095
413.75461
413.73093
413.67878
413.59947
413.81225
413.78858
413.73643
413.65713
413.86906
413.84538
413.79324
413.71395
413.92507
413.9014
413.84926
413.76997
413.98034
413.95667
413.90453
413.82526
414.03496
414.01129
413.95916
413.87989
414.08905
414.06538
414.01325
413.93399
414.14283
414.11917
414.06705
413.98779
414.19669
414.17303
414.12091
414.04166
414.25128
414.22762
414.1755
414.09625
414.30774
414.28408
414.23196
414.15271
414.36801
414.34434
414.29222
414.21296
414.43514
414.41147
414.35934
414.28007
414.51338
414.48971
414.43757
414.3583
414.60593
414.58227
414.53014
414.45087
414.71221
414.68859
414.63657
414.55746
414.79501
414.77147
414.71961
414.64075
)
;

boundaryField
{
    CHTLeftWedge
    {
        type            wedge;
    }
    CHTRightWedge
    {
        type            wedge;
    }
    defaultFaces
    {
        type            empty;
    }
    solid_to_fluid
    {
        type            compressible::turbulentTemperatureRadCoupledMixed;
        refValue        nonuniform List<scalar> 
100
(
359.71543
368.36427
373.23656
376.96334
379.94841
382.38098
384.39211
386.07799
387.51039
388.74319
389.81699
390.76265
391.60378
392.35865
393.04153
393.66368
394.23409
394.76
395.24731
395.70086
396.12468
396.52215
396.8961
397.24897
397.58282
397.89944
398.2004
398.48706
398.76059
399.02207
399.27242
399.51247
399.74298
399.96461
400.17797
400.38359
400.58197
400.77357
400.95879
401.13801
401.31157
401.47978
401.64295
401.80133
401.95517
402.10471
402.25015
402.3917
402.52955
402.66385
402.79478
402.92248
403.04709
403.16875
403.28759
403.40371
403.51722
403.62824
403.73685
403.84316
403.94724
404.04918
404.14906
404.24695
404.34292
404.43704
404.52937
404.61997
404.70891
404.79622
404.88198
404.96621
405.04899
405.13033
405.2103
405.28894
405.36627
405.44235
405.51721
405.59087
405.66338
405.73477
405.80508
405.87432
405.94254
406.00977
406.07606
406.14145
406.20602
406.26989
406.33323
406.39637
406.45987
406.52474
406.5929
406.66783
406.75669
406.86544
407.0263
407.18099
)
;
        refGradient     nonuniform List<scalar> 
100
(
-46.493192
-49.582074
-52.688683
-55.408816
-57.7054
-59.627404
-61.240104
-62.603894
-63.768994
-64.775366
-65.654219
-66.429765
-67.120799
-67.741973
-68.304789
-68.818352
-69.289934
-69.725401
-70.129528
-70.50624
-70.858792
-71.18991
-71.501892
-71.796696
-72.075996
-72.341241
-72.593685
-72.834428
-73.064434
-73.284554
-73.495546
-73.698084
-73.89277
-74.080147
-74.260704
-74.434884
-74.603087
-74.76568
-74.922996
-75.075342
-75.222996
-75.366216
-75.505241
-75.640289
-75.771563
-75.899252
-76.023531
-76.144561
-76.262494
-76.377472
-76.489627
-76.599083
-76.705955
-76.810352
-76.912377
-77.012125
-77.109688
-77.205151
-77.298594
-77.390093
-77.479721
-77.567546
-77.653633
-77.738042
-77.820833
-77.902059
-77.981775
-78.060031
-78.136873
-78.212347
-78.286497
-78.359364
-78.430987
-78.501405
-78.570653
-78.638766
-78.705778
-78.771719
-78.836621
-78.900513
-78.963423
-79.02538
-79.086411
-79.146543
-79.205807
-79.264237
-79.321873
-79.378773
-79.435019
-79.490747
-79.54618
-79.601708
-79.658004
-79.716241
-79.778412
-79.847676
-79.928461
-80.024116
-80.13443
-80.220775
)
;
        valueFraction   nonuniform List<scalar> 
100
(
0.0025639214
0.0025830942
0.0026017027
0.0026174792
0.0026304461
0.0026410622
0.0026498111
0.0026571003
0.0026632506
0.0026685072
0.0026730563
0.0026770392
0.0026805636
0.0026837123
0.0026865495
0.0026891255
0.0026914802
0.0026936455
0.0026956474
0.0026975068
0.0026992412
0.0027008651
0.0027023908
0.0027038285
0.0027051872
0.0027064743
0.0027076965
0.0027088595
0.0027099683
0.0027110273
0.0027120405
0.0027130113
0.0027139429
0.002714838
0.0027156991
0.0027165285
0.0027173282
0.0027181002
0.002718846
0.0027195673
0.0027202655
0.0027209419
0.0027215976
0.0027222339
0.0027228516
0.0027234518
0.0027240353
0.002724603
0.0027251556
0.0027256938
0.0027262182
0.0027267296
0.0027272284
0.0027277152
0.0027281906
0.0027286549
0.0027291087
0.0027295523
0.0027299862
0.0027304107
0.0027308262
0.0027312331
0.0027316316
0.0027320221
0.0027324048
0.00273278
0.0027331479
0.0027335089
0.0027338632
0.0027342109
0.0027345522
0.0027348875
0.0027352168
0.0027355404
0.0027358585
0.0027361711
0.0027364785
0.0027367809
0.0027370782
0.0027373708
0.0027376588
0.0027379422
0.0027382213
0.0027384961
0.0027387668
0.0027390336
0.0027392966
0.0027395561
0.0027398125
0.0027400664
0.0027403189
0.0027405717
0.0027408279
0.0027410927
0.0027413754
0.0027416902
0.0027420571
0.0027424913
0.0027429916
0.0027433829
)
;
        value           nonuniform List<scalar> 
100
(
377.23969
381.14229
384.94997
388.19358
390.87019
393.06869
394.88534
396.40225
397.6845
398.78216
399.73337
400.56715
401.30571
401.96614
402.56171
403.10287
403.59787
404.05334
404.47466
404.86621
405.23162
405.57391
405.89563
406.19893
406.48565
406.75738
407.01548
407.26117
407.49548
407.71933
407.93356
408.13889
408.33596
408.52536
408.70761
408.8832
409.05255
409.21604
409.37404
409.52688
409.67484
409.8182
409.95722
410.09213
410.22314
410.35044
410.47423
410.59468
410.71194
410.82617
410.9375
411.04606
411.15197
411.25535
411.35631
411.45494
411.55134
411.64559
411.73779
411.82801
411.91633
412.00281
412.08753
412.17055
412.25192
412.33171
412.40997
412.48675
412.5621
412.63607
412.7087
412.78004
412.85012
412.91899
412.98668
413.05322
413.11866
413.18302
413.24634
413.30864
413.36996
413.43032
413.48975
413.54828
413.60594
413.66276
413.71879
413.77408
413.82871
413.88282
413.93662
413.99049
414.04509
414.10155
414.16179
414.22889
414.30712
414.39969
414.50639
414.58984
)
;
        Tnbr            T;
        QrNbr           Qr;
        Qr              none;
        thicknessLayers 0();
        kappaLayers     0();
        kappa           solidThermo;
        kappaName       none;
    }
}


// ************************************************************************* //
