/*--------------------------------*- C++ -*----------------------------------*\
| =========                 |                                                 |
| \\      /  F ield         | OpenFOAM: The Open Source CFD Toolbox           |
|  \\    /   O peration     | Version:  3.0.1                                 |
|   \\  /    A nd           | Web:      www.OpenFOAM.org                      |
|    \\/     M anipulation  |                                                 |
\*---------------------------------------------------------------------------*/
FoamFile
{
    version     2.0;
    format      ascii;
    class       volScalarField;
    location    "9000/solid";
    object      T;
}
// * * * * * * * * * * * * * * * * * * * * * * * * * * * * * * * * * * * * * //

dimensions      [0 0 0 1 0 0 0];

internalField   nonuniform List<scalar> 
400
(
309.09321
309.08941
309.08103
309.06829
309.6455
309.64234
309.63538
309.62481
310.24079
310.23775
310.23105
310.22087
310.7872
310.78419
310.77754
310.76745
311.26646
311.26344
311.2568
311.2467
311.68048
311.67745
311.6708
311.66068
312.037
312.03397
312.0273
312.01715
312.34475
312.34171
312.33502
312.32485
312.61178
312.60873
312.60203
312.59184
312.84502
312.84197
312.83526
312.82506
313.05024
313.04719
313.04047
313.03026
313.23215
313.2291
313.22237
313.21215
313.39458
313.39153
313.3848
313.37458
313.54065
313.53759
313.53087
313.52064
313.67287
313.66982
313.66309
313.65286
313.79331
313.79026
313.78353
313.77331
313.90365
313.9006
313.89387
313.88365
314.00527
314.00222
313.9955
313.98527
314.09932
314.09627
314.08955
314.07933
314.18674
314.18369
314.17697
314.16676
314.26834
314.26529
314.25857
314.24836
314.34478
314.34173
314.33502
314.32481
314.41663
314.41358
314.40687
314.39666
314.48437
314.48132
314.47461
314.46441
314.54841
314.54537
314.53866
314.52846
314.60911
314.60607
314.59937
314.58918
314.66679
314.66375
314.65705
314.64686
314.7217
314.71866
314.71196
314.70178
314.77409
314.77105
314.76435
314.75417
314.82415
314.82112
314.81442
314.80425
314.87209
314.86905
314.86236
314.85218
314.91804
314.91501
314.90832
314.89815
314.96217
314.95914
314.95245
314.94229
315.00461
315.00157
314.99489
314.98473
315.04546
315.04242
315.03574
315.02558
315.08483
315.0818
315.07512
315.06497
315.12283
315.1198
315.11312
315.10297
315.15953
315.1565
315.14982
315.13967
315.19501
315.19198
315.18531
315.17516
315.22935
315.22632
315.21965
315.20951
315.26262
315.25959
315.25292
315.24278
315.29486
315.29184
315.28517
315.27503
315.32615
315.32312
315.31646
315.30632
315.35652
315.3535
315.34684
315.3367
315.38603
315.38301
315.37635
315.36622
315.41473
315.4117
315.40505
315.39492
315.44264
315.43962
315.43296
315.42284
315.46981
315.46679
315.46014
315.45002
315.49628
315.49326
315.48661
315.47649
315.52208
315.51906
315.51241
315.50229
315.54723
315.54421
315.53756
315.52745
315.57177
315.56875
315.5621
315.55199
315.59572
315.59271
315.58606
315.57595
315.61911
315.6161
315.60945
315.59935
315.64197
315.63895
315.63231
315.6222
315.6643
315.66129
315.65465
315.64454
315.68614
315.68313
315.67649
315.66639
315.70751
315.7045
315.69786
315.68776
315.72842
315.72541
315.71877
315.70867
315.74889
315.74587
315.73924
315.72915
315.76893
315.76592
315.75929
315.7492
315.78857
315.78556
315.77893
315.76884
315.80782
315.80481
315.79818
315.78809
315.82668
315.82368
315.81705
315.80696
315.84519
315.84218
315.83555
315.82547
315.86334
315.86033
315.8537
315.84362
315.88114
315.87814
315.87151
315.86143
315.89863
315.89562
315.889
315.87892
315.91579
315.91278
315.90616
315.89608
315.93264
315.92964
315.92302
315.91294
315.9492
315.94619
315.93957
315.9295
315.96547
315.96246
315.95584
315.94577
315.98145
315.97845
315.97183
315.96177
315.99717
315.99417
315.98755
315.97749
316.01263
316.00963
316.00301
315.99295
316.02783
316.02483
316.01821
316.00815
316.04278
316.03978
316.03317
316.02311
316.0575
316.0545
316.04788
316.03783
316.07198
316.06898
316.06237
316.05231
316.08624
316.08324
316.07663
316.06657
316.10027
316.09728
316.09067
316.08061
316.1141
316.1111
316.1045
316.09444
316.12772
316.12473
316.11812
316.10807
316.14115
316.13815
316.13155
316.1215
316.15439
316.15139
316.14479
316.13474
316.16745
316.16446
316.15786
316.14781
316.18036
316.17736
316.17076
316.16072
316.19312
316.19013
316.18352
316.17348
316.20577
316.20277
316.19617
316.18613
316.21835
316.21535
316.20875
316.19871
316.23091
316.22792
316.22132
316.21128
316.24357
316.24058
316.23398
316.22394
316.25646
316.25347
316.24687
316.23683
316.2698
316.26681
316.26021
316.25018
316.28393
316.28093
316.27434
316.2643
316.29927
316.29628
316.28968
316.27964
316.31632
316.31333
316.30673
316.2967
316.33516
316.33217
316.32558
316.31554
316.35502
316.35203
316.34546
316.33546
316.36939
316.36642
316.35987
316.3499
)
;

boundaryField
{
    CHTLeftWedge
    {
        type            wedge;
    }
    CHTRightWedge
    {
        type            wedge;
    }
    defaultFaces
    {
        type            empty;
    }
    solid_to_fluid
    {
        type            compressible::turbulentTemperatureRadCoupledMixed;
        refValue        nonuniform List<scalar> 
100
(
306.4176
307.64866
308.40352
309.01709
309.53382
309.97325
310.34954
310.67405
310.95602
311.20294
311.42085
311.61462
311.7882
311.94474
312.08685
312.21662
312.33577
312.44573
312.54768
312.64261
312.73133
312.81455
312.89286
312.96676
313.0367
313.10304
313.16611
313.22621
313.28357
313.33842
313.39096
313.44136
313.48978
313.53635
313.58121
313.62446
313.6662
313.70654
313.74555
313.78332
313.81991
313.8554
313.88983
313.92327
313.95577
313.98737
314.01812
314.04806
314.07723
314.10567
314.1334
314.16047
314.18688
314.21269
314.2379
314.26256
314.28666
314.31025
314.33334
314.35594
314.37808
314.39978
314.42104
314.44189
314.46234
314.4824
314.50209
314.52141
314.54039
314.55903
314.57735
314.59534
314.61303
314.63043
314.64753
314.66436
314.68091
314.6972
314.71323
314.72902
314.74457
314.75988
314.77497
314.78984
314.8045
314.81897
314.83325
314.84736
314.86133
314.8752
314.88901
314.90286
314.91686
314.93122
314.94628
314.96258
314.98124
315.00279
315.03238
315.05861
)
;
        refGradient     nonuniform List<scalar> 
100
(
-6.1076968
-6.3474831
-6.6052043
-6.8427689
-7.052092
-7.2336837
-7.3906368
-7.5265554
-7.6448263
-7.7483903
-7.8397117
-7.9208194
-7.9933705
-8.0587149
-8.1179525
-8.171982
-8.2215403
-8.2672346
-8.3095676
-8.348958
-8.3857567
-8.420259
-8.4527155
-8.4833396
-8.5123145
-8.539798
-8.5659271
-8.5908211
-8.6145846
-8.6373097
-8.6590779
-8.6799616
-8.7000254
-8.7193273
-8.7379192
-8.7558482
-8.7731568
-8.7898836
-8.8060639
-8.8217298
-8.8369107
-8.8516336
-8.8659235
-8.8798033
-8.8932941
-8.9064155
-8.9191859
-8.9316221
-8.9437398
-8.9555537
-8.9670776
-8.9783243
-8.9893057
-9.0000332
-9.0105172
-9.0207679
-9.0307944
-9.0406057
-9.05021
-9.0596152
-9.0688288
-9.0778577
-9.0867086
-9.0953878
-9.1039014
-9.1122549
-9.1204539
-9.1285033
-9.1364083
-9.1441733
-9.1518029
-9.1593012
-9.1666725
-9.1739204
-9.1810488
-9.1880611
-9.1949609
-9.2017514
-9.2084358
-9.2150173
-9.221499
-9.2278841
-9.2341757
-9.2403777
-9.2464941
-9.2525299
-9.2584917
-9.2643886
-9.2702335
-9.2760453
-9.2818527
-9.2876998
-9.2936533
-9.2998147
-9.3063337
-9.3134115
-9.3212781
-9.3299676
-9.3391535
-9.3458255
)
;
        valueFraction   nonuniform List<scalar> 
100
(
0.002210969
0.0022140081
0.0022172534
0.0022202255
0.0022228292
0.0022250766
0.0022270106
0.0022286791
0.0022301262
0.0022313897
0.0022325011
0.002233486
0.0022343652
0.0022351556
0.002235871
0.0022365225
0.0022371193
0.0022376689
0.0022381774
0.0022386501
0.0022390912
0.0022395044
0.0022398927
0.0022402588
0.0022406048
0.0022409328
0.0022412444
0.0022415411
0.0022418241
0.0022420945
0.0022423534
0.0022426016
0.0022428399
0.002243069
0.0022432896
0.0022435022
0.0022437073
0.0022439055
0.002244097
0.0022442824
0.0022444619
0.002244636
0.0022448049
0.0022449688
0.0022451281
0.0022452829
0.0022454335
0.0022455802
0.002245723
0.0022458622
0.0022459979
0.0022461303
0.0022462595
0.0022463857
0.002246509
0.0022466295
0.0022467473
0.0022468626
0.0022469753
0.0022470857
0.0022471939
0.0022472998
0.0022474036
0.0022475053
0.0022476051
0.002247703
0.0022477991
0.0022478933
0.0022479859
0.0022480767
0.002248166
0.0022482537
0.00224834
0.0022484247
0.002248508
0.00224859
0.0022486706
0.0022487499
0.002248828
0.0022489049
0.0022489806
0.0022490551
0.0022491285
0.0022492009
0.0022492723
0.0022493427
0.0022494123
0.0022494811
0.0022495492
0.002249617
0.0022496848
0.002249753
0.0022498224
0.0022498943
0.0022499704
0.0022500531
0.002250145
0.0022502465
0.0022503539
0.0022504318
)
;
        value           nonuniform List<scalar> 
100
(
309.06011
309.61802
310.21433
310.76096
311.24022
311.65418
312.01063
312.31831
312.58529
312.8185
313.02369
313.20558
313.368
313.51406
313.64628
313.76672
313.87706
313.97869
314.07274
314.16018
314.24178
314.31823
314.39009
314.45783
314.52189
314.5826
314.64029
314.69521
314.7476
314.79768
314.84562
314.89159
314.93573
314.97817
315.01903
315.05841
315.09641
315.13312
315.16861
315.20296
315.23623
315.26848
315.29978
315.33016
315.35968
315.38838
315.4163
315.44348
315.46995
315.49575
315.52091
315.54546
315.56942
315.59281
315.61567
315.63801
315.65986
315.68123
315.70215
315.72262
315.74267
315.76232
315.78157
315.80044
315.81895
315.8371
315.85492
315.8724
315.88957
315.90643
315.92299
315.93926
315.95525
315.97098
315.98644
316.00164
316.0166
316.03132
316.0458
316.06006
316.07411
316.08794
316.10157
316.115
316.12824
316.14131
316.15422
316.16698
316.17963
316.19221
316.20478
316.21744
316.23033
316.24368
316.2578
316.27314
316.2902
316.30905
316.32898
316.34344
)
;
        Tnbr            T;
        QrNbr           Qr;
        Qr              none;
        thicknessLayers 0();
        kappaLayers     0();
        kappa           solidThermo;
        kappaName       none;
    }
}


// ************************************************************************* //
