/*--------------------------------*- C++ -*----------------------------------*\
| =========                 |                                                 |
| \\      /  F ield         | OpenFOAM: The Open Source CFD Toolbox           |
|  \\    /   O peration     | Version:  3.0.1                                 |
|   \\  /    A nd           | Web:      www.OpenFOAM.org                      |
|    \\/     M anipulation  |                                                 |
\*---------------------------------------------------------------------------*/
FoamFile
{
    version     2.0;
    format      ascii;
    class       surfaceScalarField;
    location    "2576";
    object      phi;
}
// * * * * * * * * * * * * * * * * * * * * * * * * * * * * * * * * * * * * * //

dimensions      [1 0 -1 0 0 0 0];

internalField   nonuniform List<scalar> 
229200
(
4.2895492e-09
-2.5528648e-10
4.1030226e-08
1.2076992e-08
-1.0285313e-09
1.2242571e-07
1.9654332e-08
-2.1510707e-09
2.1288906e-07
2.5163542e-08
-2.9813217e-09
3.0908379e-07
2.7975803e-08
-2.9048954e-09
4.0996058e-07
2.9533647e-08
-3.2556573e-09
5.1664469e-07
2.9820063e-08
-2.6844591e-09
6.3150956e-07
2.9592874e-08
-2.3393764e-09
7.5736879e-07
2.9526531e-08
-2.4115531e-09
8.9701905e-07
2.7603757e-08
-6.5681319e-10
1.052879e-06
2.5904952e-08
-8.6446628e-10
1.2277918e-06
2.4949459e-08
-1.5118057e-09
1.4240729e-06
2.2269002e-08
-2.7541738e-10
1.6433478e-06
2.0967465e-08
-1.3379682e-09
1.8892773e-06
1.9251167e-08
-1.2755147e-09
2.1623224e-06
1.8021521e-08
-1.4112657e-09
2.4655173e-06
1.4491629e-08
-2.2982705e-10
2.7980279e-06
1.2903035e-08
-1.1636691e-09
3.1663103e-06
8.186438e-09
-4.575127e-11
3.5645408e-06
2.0285842e-09
1.0011054e-09
4.0036202e-06
-1.9564744e-09
1.1736707e-10
4.48633e-06
-1.1275765e-08
2.025065e-09
5.0010775e-06
-2.3376758e-08
3.0143385e-09
5.5706048e-06
-3.5156195e-08
3.7045742e-09
6.2099987e-06
-4.5918846e-08
1.7431872e-09
6.912197e-06
-6.2436668e-08
5.8558521e-09
7.6856262e-06
-7.3552879e-08
3.2597751e-09
8.5502221e-06
-9.0394752e-08
6.9106369e-09
9.4731035e-06
-1.0457711e-07
5.7861807e-09
1.0474564e-05
-1.1814729e-07
5.9710314e-09
1.1526407e-05
-1.3882035e-07
8.7266676e-09
1.2594574e-05
-1.5072062e-07
7.776912e-09
1.3725604e-05
-1.5538458e-07
6.6333083e-09
1.4752119e-05
-1.7356045e-07
9.9649648e-09
1.5471413e-05
-1.7697181e-07
8.2059808e-09
1.5964585e-05
-1.9432711e-07
7.827154e-09
1.5809639e-05
-1.7451418e-07
8.6973234e-09
1.5069958e-05
-1.8454229e-07
2.393542e-09
1.2646505e-05
-3.5228785e-07
2.2248471e-08
8.627373e-06
1.2902576e-09
4.7594115e-06
5.0211771e-09
-1.2350126e-09
4.0999085e-08
1.4247495e-08
-3.4983366e-09
1.2227785e-07
2.3731711e-08
-6.2111923e-09
2.1254413e-07
3.094447e-08
-7.6486267e-09
3.0845042e-07
3.5829061e-08
-7.8047747e-09
4.0890561e-07
3.8207513e-08
-7.1914439e-09
5.1490707e-07
3.9299884e-08
-5.9416141e-09
6.2867054e-07
3.9444412e-08
-4.6784284e-09
7.5279317e-07
3.8490107e-08
-3.4446228e-09
8.8976353e-07
3.8217361e-08
-2.1374384e-09
1.041802e-06
3.7289649e-08
-1.4945028e-09
1.2108633e-06
3.50446e-08
-7.3694318e-10
1.3986066e-06
3.3101227e-08
1.8215265e-10
1.6065489e-06
2.9715823e-08
5.0516155e-10
1.836117e-06
2.5377272e-08
1.3508355e-09
2.0885506e-06
2.011593e-08
1.9134696e-09
2.3652621e-06
1.4890009e-08
2.7757287e-09
2.6677434e-06
8.215971e-09
3.0411029e-09
2.9977304e-06
1.2759631e-09
4.0070182e-09
3.3570351e-06
-5.4252879e-09
4.4890824e-09
3.748594e-06
-1.3641646e-08
4.7855886e-09
4.1753727e-06
-2.1303953e-08
5.7655182e-09
4.6414163e-06
-2.8232725e-08
5.896611e-09
5.151673e-06
-3.4918329e-08
6.4400489e-09
5.709986e-06
-4.3466927e-08
6.1278044e-09
6.3181395e-06
-4.9709676e-08
7.8386989e-09
6.981617e-06
-5.6879201e-08
6.4944117e-09
7.7002909e-06
-6.2708126e-08
8.5240627e-09
8.4721912e-06
-6.7269318e-08
7.2040776e-09
9.2920924e-06
-7.300398e-08
8.1524776e-09
1.0139976e-05
-7.53291e-08
8.2839093e-09
1.1000767e-05
-7.6578132e-08
7.7134164e-09
1.1830939e-05
-7.9155934e-08
7.5481553e-09
1.2559029e-05
-7.8130982e-08
8.2715356e-09
1.3116742e-05
-7.4801405e-08
6.4723264e-09
1.3384055e-05
-7.2451117e-08
6.9001834e-09
1.3186724e-05
-6.4941006e-08
5.709462e-09
1.2343418e-05
-6.6066221e-08
4.1271913e-09
1.0567004e-05
-3.8330824e-08
6.9125939e-09
7.6622103e-06
-5.7464329e-09
3.0991967e-06
5.4561661e-09
-2.6602199e-09
4.096218e-08
1.4529227e-08
-5.8116753e-09
1.2210233e-07
2.2302988e-08
-8.5006272e-09
2.1211792e-07
2.6214116e-08
-8.8794351e-09
3.0755722e-07
2.5921589e-08
-7.3321383e-09
4.0709649e-07
2.2200089e-08
-4.7873487e-09
5.1139467e-07
1.6445983e-08
-2.0721068e-09
6.2227152e-07
9.6799136e-09
2.1324741e-10
7.4189616e-07
2.6899236e-09
1.9191154e-09
8.7230097e-07
-3.8110611e-09
3.0013388e-09
1.0152201e-06
-1.0015996e-08
3.5405066e-09
1.1721317e-06
-1.5681212e-08
3.8572133e-09
1.3443307e-06
-2.0470192e-08
3.9139736e-09
1.5329875e-06
-2.4893642e-08
3.8292745e-09
1.7392369e-06
-2.8523319e-08
3.7917821e-09
1.9642923e-06
-3.1584452e-08
3.6761721e-09
2.2094631e-06
-3.3808243e-08
3.5753653e-09
2.4762507e-06
-3.578316e-08
3.4648341e-09
2.7663153e-06
-3.6938589e-08
3.4790151e-09
3.0816879e-06
-3.7601032e-08
3.3480041e-09
3.4245306e-06
-3.8131221e-08
3.3946726e-09
3.7972981e-06
-3.7825863e-08
3.4289871e-09
4.2027592e-06
-3.7450822e-08
3.4166954e-09
4.6434031e-06
-3.6706484e-08
3.4794885e-09
5.1216316e-06
-3.657613e-08
3.71008e-09
5.6393359e-06
-3.4978738e-08
3.8640499e-09
6.1979855e-06
-3.4731843e-08
3.8789036e-09
6.79597e-06
-3.2917003e-08
4.2852874e-09
7.4306988e-06
-3.2049672e-08
4.0199913e-09
8.0932564e-06
-3.0793962e-08
4.5607618e-09
8.7706646e-06
-2.8875112e-08
4.3040347e-09
9.441093e-06
-2.745787e-08
4.3419729e-09
1.0069378e-05
-2.6025476e-08
4.4416519e-09
1.0608348e-05
-2.3118187e-08
4.1534656e-09
1.0991466e-05
-2.1108776e-08
3.6985171e-09
1.112387e-05
-1.8003434e-08
3.6229696e-09
1.0887301e-05
-1.4357018e-08
2.5271599e-09
1.0125004e-05
-1.0603641e-08
2.3454428e-09
8.6410505e-06
2.331215e-11
3.2154936e-10
6.1863942e-06
-1.6368302e-09
2.423759e-06
4.0516236e-09
-2.6437988e-09
4.092525e-08
9.856315e-09
-4.6615018e-09
1.2198408e-07
1.2849822e-08
-5.6415388e-09
2.1183577e-07
1.1880819e-08
-4.7643783e-09
3.0681857e-07
7.9058571e-09
-2.7223375e-09
4.0528156e-07
2.7123437e-09
-5.4609591e-10
5.0754958e-07
-2.0756191e-09
1.0742282e-09
6.1517921e-07
-5.5204606e-09
1.9079375e-09
7.3017653e-07
-7.2555904e-09
2.076794e-09
8.5452861e-07
-7.4087555e-09
1.8185122e-09
9.8994269e-07
-6.3866795e-09
1.3803464e-09
1.1378373e-06
-4.5111578e-09
9.559015e-10
1.2994231e-06
-2.2078596e-09
6.1038862e-10
1.4757887e-06
1.7379835e-10
3.9745927e-10
1.6679855e-06
2.4666761e-09
3.3234181e-10
1.8771072e-06
4.485094e-09
3.5401775e-10
2.1044187e-06
6.1335098e-09
4.6870259e-10
2.3512344e-06
7.3369638e-09
6.3819832e-10
2.618993e-06
8.1729686e-09
8.5040037e-10
2.9092732e-06
8.4942404e-09
1.0672287e-09
3.2237725e-06
8.4262767e-09
1.3217985e-09
3.5642972e-06
7.9691868e-09
1.567507e-09
3.9326313e-06
7.0936374e-09
1.8011408e-09
4.3304311e-06
5.8373911e-09
2.0858897e-09
4.7590558e-06
4.4609e-09
2.3098972e-09
5.2192457e-06
2.934283e-09
2.5058521e-09
5.7107155e-06
1.2064651e-09
2.646189e-09
6.2314096e-06
-3.432813e-10
2.8049336e-09
6.7768189e-06
-2.1998709e-09
2.8378914e-09
7.3388066e-06
-3.619798e-09
2.9666825e-09
7.9047376e-06
-5.0456618e-09
2.8456644e-09
8.454604e-06
-6.2927144e-09
2.8659191e-09
8.9595477e-06
-7.004607e-09
2.6986487e-09
9.3790994e-06
-7.3930006e-09
2.4325264e-09
9.6572255e-06
-7.5164056e-09
2.1681428e-09
9.7189457e-06
-6.7996063e-09
1.7618123e-09
9.4655607e-06
-5.8594766e-09
1.2407938e-09
8.7678542e-06
-3.6699134e-09
5.8809973e-10
7.4589078e-06
-1.6200544e-09
-1.9140357e-10
5.3232283e-06
-5.6780505e-10
2.0867193e-06
1.4853342e-09
-2.2413731e-15
4.0900596e-08
4.0414561e-09
-3.8716674e-15
1.2195158e-07
4.6669072e-09
-1.2133467e-15
2.117403e-07
3.4821263e-09
1.3277137e-16
3.0641469e-07
1.7265164e-09
-4.0918233e-16
4.0413039e-07
4.0543895e-10
-2.0357772e-15
5.0509072e-07
-1.214748e-10
-3.023483e-15
6.1080687e-07
-3.7460093e-12
8.3380739e-16
7.2326936e-07
4.2016657e-10
-7.9888557e-16
8.4441306e-07
8.2563108e-10
-6.240087e-16
9.7589954e-07
1.0107275e-09
-3.3596461e-15
1.1190982e-06
9.1652331e-10
-5.0082944e-15
1.2751571e-06
5.4197689e-10
-4.4810635e-15
1.4450945e-06
-4.9800018e-11
-1.2247672e-15
1.6298823e-06
-7.67025e-10
1.347239e-15
1.8305162e-06
-1.553455e-09
1.4303629e-15
2.0480926e-06
-2.3363923e-09
-3.799958e-16
2.2837855e-06
-3.0733547e-09
-2.3043849e-15
2.5388715e-06
-3.72804e-09
-4.1629522e-15
2.8147279e-06
-4.2985074e-09
-3.0150851e-15
3.1128086e-06
-4.7480998e-09
-4.4756912e-15
3.4346001e-06
-5.0842343e-09
-4.5805627e-15
3.7815383e-06
-5.3155408e-09
-4.08665e-15
4.1548855e-06
-5.3871658e-09
-4.5326623e-15
4.5555485e-06
-5.3477386e-09
-2.0364505e-15
4.9837998e-06
-5.2089349e-09
-2.3334688e-15
5.4388951e-06
-5.0064771e-09
-1.2386205e-14
5.9185363e-06
-4.7002683e-09
-3.7778503e-15
6.4181832e-06
-4.3819149e-09
-7.7125016e-15
6.9301129e-06
-3.9314824e-09
-1.1764719e-15
7.4422331e-06
-3.5383354e-09
-8.2327297e-15
7.9364824e-06
-3.0330312e-09
9.3532284e-15
8.3868356e-06
-2.5320922e-09
1.0840765e-14
8.7568168e-06
-2.0653312e-09
1.830242e-14
8.9962588e-06
-1.5749855e-09
9.3102735e-16
9.0373837e-06
-1.1153149e-09
2.9925257e-14
8.7899505e-06
-7.2319745e-10
2.4956027e-14
8.1350477e-06
-4.6438888e-10
1.9144841e-14
6.9176549e-06
-3.7008263e-10
1.820981e-14
4.9375743e-06
-4.3098017e-14
1.9380328e-06
1.4853344e-09
2.6437993e-09
4.0900595e-08
4.0414598e-09
4.6615012e-09
1.2195157e-07
4.6669093e-09
5.6415426e-09
2.1174029e-07
3.482123e-09
4.7643804e-09
3.0641468e-07
1.7265098e-09
2.7223409e-09
4.0413039e-07
4.054321e-10
5.4610374e-10
5.0509071e-07
-1.2145539e-10
-1.0742167e-09
6.1080686e-07
-3.7696114e-12
-1.9079299e-09
7.2326935e-07
4.2017641e-10
-2.0767837e-09
8.4441306e-07
8.2562821e-10
-1.8185043e-09
9.7589953e-07
1.0107113e-09
-1.3803387e-09
1.1190982e-06
9.1653001e-10
-9.5589623e-10
1.2751571e-06
5.4200364e-10
-6.1038818e-10
1.4450945e-06
-4.9817349e-11
-3.9746107e-10
1.6298823e-06
-7.6700853e-10
-3.3234087e-10
1.8305162e-06
-1.5534405e-09
-3.54024e-10
2.0480926e-06
-2.3364223e-09
-4.6870662e-10
2.2837855e-06
-3.0733643e-09
-6.3820504e-10
2.5388715e-06
-3.7280429e-09
-8.5040607e-10
2.814728e-06
-4.2984693e-09
-1.0672333e-09
3.1128087e-06
-4.7481349e-09
-1.3218066e-09
3.4346001e-06
-5.0842741e-09
-1.567507e-09
3.7815383e-06
-5.3155022e-09
-1.8011365e-09
4.1548855e-06
-5.3870951e-09
-2.0858914e-09
4.5555485e-06
-5.3477343e-09
-2.3099058e-09
4.9837999e-06
-5.2090476e-09
-2.5058654e-09
5.4388951e-06
-5.0064052e-09
-2.6461968e-09
5.9185363e-06
-4.7003223e-09
-2.8049451e-09
6.4181832e-06
-4.3819381e-09
-2.8379065e-09
6.9301129e-06
-3.9315598e-09
-2.9666912e-09
7.442233e-06
-3.5382637e-09
-2.8456718e-09
7.9364823e-06
-3.0329774e-09
-2.8659074e-09
8.3868355e-06
-2.5321048e-09
-2.6986493e-09
8.7568167e-06
-2.0653482e-09
-2.4325243e-09
8.9962586e-06
-1.5749402e-09
-2.1681276e-09
9.0373835e-06
-1.1151724e-09
-1.7617885e-09
8.7899503e-06
-7.2359666e-10
-1.2407946e-09
8.1350475e-06
-4.6434662e-10
-5.880435e-10
6.9176548e-06
-3.7017646e-10
1.9138106e-10
4.9375744e-06
5.6780955e-10
1.9380327e-06
4.0516195e-09
2.660214e-09
4.0925248e-08
9.8563325e-09
5.8116676e-09
1.2198408e-07
1.2849815e-08
8.5006165e-09
2.1183576e-07
1.1880804e-08
8.8794252e-09
3.0681856e-07
7.9058639e-09
7.3321329e-09
4.0528155e-07
2.7123596e-09
4.7873468e-09
5.0754957e-07
-2.0756339e-09
2.0721063e-09
6.1517919e-07
-5.5204508e-09
-2.1324402e-10
7.3017652e-07
-7.2555936e-09
-1.9191104e-09
8.5452859e-07
-7.4087455e-09
-3.0013315e-09
9.8994268e-07
-6.3866906e-09
-3.5404974e-09
1.1378373e-06
-4.5111641e-09
-3.8572043e-09
1.2994231e-06
-2.207874e-09
-3.9139684e-09
1.4757887e-06
1.7377342e-10
-3.8292714e-09
1.6679856e-06
2.4665808e-09
-3.7917829e-09
1.8771072e-06
4.4850929e-09
-3.6761681e-09
2.1044187e-06
6.1334498e-09
-3.5753605e-09
2.3512345e-06
7.3369236e-09
-3.4648365e-09
2.6189931e-06
8.172919e-09
-3.4790189e-09
2.9092733e-06
8.4942459e-09
-3.3480095e-09
3.2237726e-06
8.4262871e-09
-3.3946731e-09
3.5642972e-06
7.9691821e-09
-3.428989e-09
3.9326314e-06
7.0936084e-09
-3.4166988e-09
4.3304312e-06
5.8373637e-09
-3.4794899e-09
4.7590558e-06
4.4609226e-09
-3.7100794e-09
5.2192457e-06
2.9342622e-09
-3.8640616e-09
5.7107155e-06
1.2064255e-09
-3.8789138e-09
6.2314096e-06
-3.4339798e-10
-4.2852975e-09
6.7768189e-06
-2.1998249e-09
-4.0199929e-09
7.3388065e-06
-3.619947e-09
-4.5607922e-09
7.9047374e-06
-5.0455995e-09
-4.3040468e-09
8.4546038e-06
-6.2928092e-09
-4.3419796e-09
8.9595475e-06
-7.0046404e-09
-4.4416571e-09
9.3790992e-06
-7.3929908e-09
-4.1534876e-09
9.6572253e-06
-7.5164056e-09
-3.6985134e-09
9.7189455e-06
-6.7993723e-09
-3.6229784e-09
9.4655605e-06
-5.8594125e-09
-2.5271689e-09
8.7678538e-06
-3.6707729e-09
-2.34545e-09
7.4589072e-06
-1.6191969e-09
-3.2157864e-10
5.323228e-06
1.6368213e-09
2.0867189e-06
5.4561561e-09
1.2350143e-09
4.0962178e-08
1.4529224e-08
3.4983391e-09
1.2210232e-07
2.2302988e-08
6.2111914e-09
2.121179e-07
2.6214125e-08
7.6486266e-09
3.075572e-07
2.5921594e-08
7.8047724e-09
4.0709646e-07
2.2200102e-08
7.1914355e-09
5.1139464e-07
1.6445983e-08
5.9416044e-09
6.222715e-07
9.679918e-09
4.6784208e-09
7.4189614e-07
2.6899318e-09
3.4446166e-09
8.7230095e-07
-3.8110436e-09
2.1374334e-09
1.0152201e-06
-1.0015971e-08
1.4945017e-09
1.1721317e-06
-1.568118e-08
7.3694348e-10
1.3443307e-06
-2.0470137e-08
-1.8215135e-10
1.5329875e-06
-2.4893566e-08
-5.0515894e-10
1.7392369e-06
-2.852329e-08
-1.3508335e-09
1.9642923e-06
-3.1584364e-08
-1.9134649e-09
2.2094631e-06
-3.3808283e-08
-2.775733e-09
2.4762507e-06
-3.578316e-08
-3.0410996e-09
2.7663154e-06
-3.6938557e-08
-4.0070113e-09
3.081688e-06
-3.7601008e-08
-4.4890807e-09
3.4245306e-06
-3.8131183e-08
-4.7855834e-09
3.7972982e-06
-3.782581e-08
-5.7655165e-09
4.2027592e-06
-3.74509e-08
-5.896623e-09
4.6434031e-06
-3.670653e-08
-6.440054e-09
5.1216316e-06
-3.6576131e-08
-6.1278011e-09
5.6393358e-06
-3.4978721e-08
-7.8387083e-09
6.1979854e-06
-3.4731906e-08
-6.4944295e-09
6.7959699e-06
-3.2917067e-08
-8.5240785e-09
7.4306986e-06
-3.2049842e-08
-7.2040803e-09
8.0932561e-06
-3.0793912e-08
-8.1524813e-09
8.7706642e-06
-2.8875129e-08
-8.2839171e-09
9.4410924e-06
-2.7457809e-08
-7.713422e-09
1.0069377e-05
-2.6025555e-08
-7.5481628e-09
1.0608347e-05
-2.3118373e-08
-8.2715426e-09
1.0991465e-05
-2.1108707e-08
-6.4723491e-09
1.112387e-05
-1.8003597e-08
-6.900217e-09
1.08873e-05
-1.4356889e-08
-5.7094437e-09
1.0125003e-05
-1.0603664e-08
-4.1272195e-09
8.6410497e-06
2.3172625e-11
-6.9126239e-09
6.1863936e-06
5.7464147e-09
2.4237589e-06
5.0211776e-09
2.5528442e-10
4.0999082e-08
1.4247481e-08
1.0285263e-09
1.2227784e-07
2.3731693e-08
2.1510665e-09
2.1254411e-07
3.0944438e-08
2.9813134e-09
3.084504e-07
3.5828995e-08
2.9048865e-09
4.0890559e-07
3.8207476e-08
3.2556545e-09
5.1490705e-07
3.9299834e-08
2.6844533e-09
6.2867051e-07
3.9444358e-08
2.3393704e-09
7.5279315e-07
3.8490038e-08
2.4115469e-09
8.8976351e-07
3.8217301e-08
6.5680597e-10
1.041802e-06
3.7289593e-08
8.6446155e-10
1.2108632e-06
3.5044518e-08
1.5117987e-09
1.3986066e-06
3.3101189e-08
2.7541266e-10
1.6065489e-06
2.9715763e-08
1.3379616e-09
1.836117e-06
2.5377221e-08
1.275509e-09
2.0885506e-06
2.0115888e-08
1.4112653e-09
2.3652621e-06
1.4889985e-08
2.2982408e-10
2.6677434e-06
8.2159248e-09
1.163661e-09
2.9977304e-06
1.2759433e-09
4.5746489e-11
3.3570351e-06
-5.4252628e-09
-1.0011122e-09
3.748594e-06
-1.3641658e-08
-1.1737593e-10
4.1753726e-06
-2.1303978e-08
-2.0250657e-09
4.6414162e-06
-2.8232732e-08
-3.0143397e-09
5.1516728e-06
-3.491833e-08
-3.7045778e-09
5.7099858e-06
-4.3466982e-08
-1.7431955e-09
6.3181392e-06
-4.9709704e-08
-5.8558528e-09
6.9816166e-06
-5.6879188e-08
-3.2597751e-09
7.7002903e-06
-6.2708106e-08
-6.9106406e-09
8.4721904e-06
-6.7269363e-08
-5.786185e-09
9.2920915e-06
-7.3003984e-08
-5.9710351e-09
1.0139975e-05
-7.5329178e-08
-8.7266745e-09
1.1000766e-05
-7.6578129e-08
-7.7769163e-09
1.1830937e-05
-7.915591e-08
-6.6333117e-09
1.2559027e-05
-7.8131271e-08
-9.964965e-09
1.311674e-05
-7.4801212e-08
-8.2059787e-09
1.3384053e-05
-7.2451131e-08
-7.8271765e-09
1.3186723e-05
-6.49413e-08
-8.6973246e-09
1.2343417e-05
-6.606628e-08
-2.3935552e-09
1.0567003e-05
-3.8330666e-08
-2.2248471e-08
7.6622093e-06
-1.290243e-09
3.0991968e-06
4.2895386e-09
4.1030223e-08
1.2076992e-08
1.2242571e-07
1.9654332e-08
2.1288904e-07
2.5163545e-08
3.0908377e-07
2.7975828e-08
4.0996056e-07
2.9533665e-08
5.1664466e-07
2.9820079e-08
6.3150954e-07
2.9592892e-08
7.5736876e-07
2.9526511e-08
8.9701902e-07
2.7603777e-08
1.052879e-06
2.5904931e-08
1.2277918e-06
2.4949451e-08
1.4240729e-06
2.2268997e-08
1.6433478e-06
2.0967438e-08
1.8892773e-06
1.9251177e-08
2.1623224e-06
1.8021486e-08
2.4655173e-06
1.4491567e-08
2.7980278e-06
1.2902968e-08
3.1663102e-06
8.1863428e-09
3.5645407e-06
2.0285255e-09
4.0036201e-06
-1.9564428e-09
4.4863299e-06
-1.1275776e-08
5.0010773e-06
-2.3376765e-08
5.5706045e-06
-3.515633e-08
6.2099983e-06
-4.5918902e-08
6.9121965e-06
-6.2436687e-08
7.6856255e-06
-7.3552892e-08
8.5502211e-06
-9.0394779e-08
9.4731023e-06
-1.045771e-07
1.0474562e-05
-1.1814727e-07
1.1526405e-05
-1.3882034e-07
1.2594572e-05
-1.5072056e-07
1.3725601e-05
-1.5538474e-07
1.4752116e-05
-1.7356047e-07
1.547141e-05
-1.7697189e-07
1.5964582e-05
-1.9432714e-07
1.5809636e-05
-1.7451447e-07
1.5069955e-05
-1.8454213e-07
1.2646503e-05
-3.522882e-07
8.6273716e-06
4.7594107e-06
-3.2003139e-09
5.8588037e-10
4.3644667e-08
-1.2382596e-08
2.008376e-09
1.2959962e-07
-2.7269463e-08
3.8915991e-09
2.2388433e-07
-4.6312497e-08
5.8489623e-09
3.2227787e-07
-6.7825957e-08
8.2350988e-09
4.2323895e-07
-8.8672942e-08
9.4159319e-09
5.2807574e-07
-1.0802677e-07
1.094651e-08
6.3991691e-07
-1.2466098e-07
1.1579201e-08
7.6242376e-07
-1.3784752e-07
1.121535e-08
8.9899026e-07
-1.5018255e-07
1.2745509e-08
1.0524685e-06
-1.5940769e-07
1.1545267e-08
1.2254717e-06
-1.6517302e-07
9.6027193e-09
1.4202355e-06
-1.7053769e-07
1.0011945e-08
1.6387006e-06
-1.720618e-07
7.3585106e-09
1.8834429e-06
-1.7173432e-07
6.1298821e-09
2.1558651e-06
-1.6910739e-07
4.7863183e-09
2.458104e-06
-1.6726496e-07
5.2610407e-09
2.7909244e-06
-1.6178199e-07
2.8293092e-09
3.1579979e-06
-1.5853402e-07
3.4588462e-09
3.557834e-06
-1.5609972e-07
3.9858277e-09
3.9972001e-06
-1.502914e-07
1.8158321e-09
4.4787059e-06
-1.5041257e-07
3.804251e-09
4.9973945e-06
-1.5406388e-07
4.7257106e-09
5.5695303e-06
-1.5714525e-07
4.7269395e-09
6.2083531e-06
-1.5818568e-07
1.2900045e-09
6.9119475e-06
-1.6683138e-07
6.6849842e-09
7.687587e-06
-1.6849148e-07
2.4466866e-09
8.5494357e-06
-1.7749985e-07
7.3267427e-09
9.474785e-06
-1.8319184e-07
5.2472182e-09
1.0475009e-05
-1.8793399e-07
4.8109503e-09
1.1526338e-05
-2.023648e-07
9.0341314e-09
1.2599971e-05
-2.049492e-07
6.6484412e-09
1.372154e-05
-1.9787241e-07
4.5957347e-09
1.4740447e-05
-2.0824253e-07
9.4461525e-09
1.5472337e-05
-2.0086394e-07
5.9424855e-09
1.5951264e-05
-2.0868504e-07
5.051343e-09
1.5812408e-05
-1.7366097e-07
4.1017143e-09
1.5030832e-05
-1.8191662e-07
-3.7126098e-09
1.2658474e-05
-3.5670363e-07
2.1071868e-08
8.7810886e-06
-1.3057357e-08
4.4157649e-06
-3.231649e-09
1.1872927e-09
4.3629315e-08
-1.2125088e-08
3.6699914e-09
1.2950967e-07
-2.6102498e-08
6.774019e-09
2.2363911e-07
-4.3630546e-08
1.0057542e-08
3.2176986e-07
-6.1791463e-08
1.2997371e-08
4.2230428e-07
-7.8923052e-08
1.5000938e-08
5.2645364e-07
-9.2647481e-08
1.6160894e-08
6.3718059e-07
-1.0240224e-07
1.6200503e-08
7.5792662e-07
-1.0867557e-07
1.5449427e-08
8.918028e-07
-1.0981003e-07
1.4336886e-08
1.0413451e-06
-1.0831563e-07
1.2369717e-08
1.2085444e-06
-1.0568308e-07
1.0560511e-08
1.3950163e-06
-1.004331e-07
9.1242289e-09
1.6021866e-06
-9.5596336e-08
7.3268664e-09
1.8313119e-06
-9.0896095e-08
6.3509542e-09
2.0836293e-06
-8.6766567e-08
5.4644786e-09
2.3604544e-06
-8.2134239e-08
5.1117765e-09
2.6632603e-06
-7.9606014e-08
4.4084581e-09
2.993623e-06
-7.7357462e-08
4.663595e-09
3.3535818e-06
-7.5212379e-08
4.6078276e-09
3.7458269e-06
-7.5758067e-08
4.4630783e-09
4.1732711e-06
-7.5844965e-08
5.228407e-09
4.6400791e-06
-7.5495236e-08
5.2099378e-09
5.150839e-06
-7.5675287e-08
5.5056459e-09
5.7093874e-06
-7.9395007e-08
5.157337e-09
6.3179919e-06
-7.9977268e-08
6.9391713e-09
6.9819452e-06
-8.3367638e-08
5.5818195e-09
7.700546e-06
-8.4447158e-08
7.6768466e-09
8.4729205e-06
-8.5532495e-08
6.3750176e-09
9.29205e-06
-8.8295549e-08
7.2473005e-09
1.0140303e-05
-8.6692914e-08
7.5888629e-09
1.100061e-05
-8.5085178e-08
6.7162174e-09
1.1829263e-05
-8.5460853e-08
6.5138367e-09
1.2557486e-05
-8.1019773e-08
7.2594654e-09
1.3114487e-05
-7.5408253e-08
5.0899606e-09
1.3379296e-05
-7.072361e-08
5.2607078e-09
1.318183e-05
-6.2680484e-08
3.7492498e-09
1.2335728e-05
-6.3821494e-08
1.8579926e-09
1.0562575e-05
-3.2227172e-08
4.2657014e-09
7.647422e-06
-1.0268186e-08
3.0641801e-06
-3.3214168e-09
1.8803921e-09
4.3590499e-08
-1.1489781e-08
4.6346076e-09
1.2930608e-07
-2.358544e-08
7.8498403e-09
2.2313776e-07
-3.7807476e-08
1.1056977e-08
3.2077981e-07
-5.1897005e-08
1.3715859e-08
4.2046752e-07
-6.3983798e-08
1.5390867e-08
5.2309152e-07
-7.2676286e-08
1.5931686e-08
6.3119325e-07
-7.7681871e-08
1.5351396e-08
7.4775084e-07
-7.9304335e-08
1.3968951e-08
8.7540393e-07
-7.803838e-08
1.2087146e-08
1.0162038e-06
-7.5212416e-08
9.9960311e-09
1.1716795e-06
-7.1474294e-08
8.1170033e-09
1.3430361e-06
-6.7137232e-08
6.4654017e-09
1.5313093e-06
-6.3160881e-08
5.1035779e-09
1.7374838e-06
-5.9356507e-08
4.17215e-09
1.9626667e-06
-5.5986624e-08
3.4806537e-09
2.208077e-06
-5.2812972e-08
3.0297551e-09
2.475159e-06
-5.0368181e-08
2.7450622e-09
2.765534e-06
-4.793656e-08
2.6971614e-09
3.0812227e-06
-4.5764952e-08
2.6026115e-09
3.4243642e-06
-4.4126087e-08
2.7079832e-09
3.7974143e-06
-4.2139996e-08
2.8557295e-09
4.2031457e-06
-4.0490293e-08
2.9429305e-09
4.6440205e-06
-3.8947065e-08
3.111225e-09
5.1224827e-06
-3.8295698e-08
3.4418609e-09
5.6404e-06
-3.6342152e-08
3.7033492e-09
6.1992677e-06
-3.5945276e-08
3.7911038e-09
6.797364e-06
-3.4030935e-08
4.2246856e-09
7.4322367e-06
-3.3193742e-08
4.0239027e-09
8.0947701e-06
-3.2005401e-08
4.5203477e-09
8.7722033e-06
-3.0026858e-08
4.2884338e-09
9.442415e-06
-2.8655289e-08
4.2370703e-09
1.0070485e-05
-2.7171571e-08
4.2793119e-09
1.0609099e-05
-2.4012019e-08
3.9020401e-09
1.0991664e-05
-2.1761813e-08
3.3142129e-09
1.1123396e-05
-1.8313051e-08
3.0656716e-09
1.0886047e-05
-1.4233457e-08
1.8637374e-09
1.012281e-05
-9.8513143e-09
1.3854356e-09
8.6371405e-06
2.2513223e-09
-8.8357246e-10
6.1794405e-06
-3.1549912e-09
2.4188978e-06
-2.2842072e-09
1.6435004e-09
4.344636e-08
-7.8446096e-09
3.3637986e-09
1.2881528e-07
-1.5669097e-08
5.2558055e-09
2.2225431e-07
-2.436976e-08
7.1517129e-09
3.1942449e-07
-3.2350515e-08
8.6642093e-09
4.1831395e-07
-3.8238332e-08
9.4255464e-09
5.1940274e-07
-4.1224308e-08
9.2799301e-09
6.2481693e-07
-4.1254841e-08
8.3203638e-09
7.3723808e-07
-3.8762115e-08
6.8440983e-09
8.5916077e-07
-3.4498453e-08
5.1793489e-09
9.9258684e-07
-2.9309336e-08
3.6097845e-09
1.1390344e-06
-2.3781485e-08
2.3286067e-09
1.2996837e-06
-1.8432982e-08
1.3756309e-09
1.47553e-06
-1.3619778e-08
7.5461019e-10
1.6675213e-06
-9.4423779e-09
4.3444012e-10
1.8766674e-06
-5.9779293e-09
3.1522677e-10
2.1041198e-06
-3.2220253e-09
3.5737729e-10
2.3511509e-06
-1.1548341e-09
5.0036446e-10
2.6191706e-06
3.6787827e-10
7.1151276e-10
2.9097361e-06
1.249808e-09
9.4184411e-10
3.2245514e-06
1.6318029e-09
1.2119464e-09
3.5654112e-06
1.5588515e-09
1.4790874e-09
3.9340808e-06
1.0065095e-09
1.7331347e-09
4.3321933e-06
3.0151623e-11
2.0268334e-09
4.7611165e-06
-1.1204606e-09
2.2683038e-09
5.2215698e-06
-2.437428e-09
2.4744891e-09
5.7132615e-06
-3.9765365e-09
2.6196339e-09
6.2341199e-06
-5.367573e-09
2.7741536e-09
6.7796607e-06
-7.05344e-09
2.8107754e-09
7.3417054e-06
-8.3085339e-09
2.9190662e-09
7.907594e-06
-9.5077889e-09
2.804071e-09
8.4572877e-06
-1.0486217e-08
2.78969e-09
8.9619736e-06
-1.0852577e-08
2.6067115e-09
9.3811386e-06
-1.0802334e-08
2.3111464e-09
9.6587662e-06
-1.0392422e-08
1.9938603e-09
9.719856e-06
-9.0518917e-09
1.5353345e-09
9.4657505e-06
-7.3362558e-09
9.33514e-10
8.7670693e-06
-4.2871414e-09
1.6762427e-10
7.4570755e-06
-1.3930305e-09
-7.3982116e-10
5.320191e-06
-1.1562636e-09
2.0833265e-06
-7.3254087e-10
-4.8285769e-15
4.3276635e-08
-3.721999e-09
-6.4688563e-15
1.2830485e-07
-8.1985396e-09
-7.5111689e-15
2.2147262e-07
-1.3027033e-08
-4.0247694e-15
3.1839492e-07
-1.7095936e-08
-2.4090172e-15
4.1686351e-07
-1.9664552e-08
-3.172026e-15
5.1708488e-07
-2.0537808e-08
-3.7458157e-15
6.2096007e-07
-1.999984e-08
7.354926e-16
7.3105174e-07
-1.8558975e-08
3.3565892e-15
8.4981631e-07
-1.6739555e-08
5.7279754e-17
9.7925946e-07
-1.493559e-08
1.1327531e-16
1.120904e-06
-1.3358412e-08
-2.7907986e-15
1.2759085e-06
-1.2108823e-08
1.4054226e-15
1.4452206e-06
-1.1186147e-08
-1.1955686e-15
1.6297142e-06
-1.0527949e-08
2.5442245e-15
1.8302924e-06
-1.0079218e-08
1.758455e-15
2.0479591e-06
-9.7681105e-09
-4.2066307e-15
2.2838316e-06
-9.5442429e-09
2.2615668e-15
2.5391481e-06
-9.3654521e-09
5.2955445e-15
2.8152608e-06
-9.2226571e-09
-3.7449583e-15
3.1136075e-06
-9.0759128e-09
-9.0629474e-16
3.4356654e-06
-8.9210497e-09
5.506686e-15
3.7828625e-06
-8.7579972e-09
1.8165661e-16
4.1564556e-06
-8.5298363e-09
-5.8719109e-15
4.5573471e-06
-8.2621989e-09
-3.791207e-15
4.9858005e-06
-7.9566671e-09
-2.8716893e-15
5.4410642e-06
-7.6357665e-09
-6.5771152e-15
5.9208349e-06
-7.2471119e-09
4.0639083e-15
6.4205688e-06
-6.8565327e-09
3.7696847e-15
6.932533e-06
-6.3425179e-09
5.429648e-15
7.4446382e-06
-5.8538214e-09
1.1315815e-14
7.9387979e-06
-5.2347684e-09
9.6074243e-15
8.3890061e-06
-4.5686406e-09
1.4988095e-14
8.7587577e-06
-3.8840056e-09
1.1065446e-14
8.9978849e-06
-3.1256018e-09
1.3991484e-14
9.0386194e-06
-2.3364849e-09
3.2907589e-15
8.7906964e-06
-1.5611164e-09
1.7777876e-14
8.135206e-06
-8.7621659e-10
2.5454174e-14
6.9171381e-06
-3.5984021e-10
4.8496401e-14
4.9363166e-06
-1.9030757e-14
1.9365175e-06
-7.3253976e-10
-1.6435047e-09
4.3276634e-08
-3.7220121e-09
-3.3638081e-09
1.2830485e-07
-8.1985283e-09
-5.2558106e-09
2.2147262e-07
-1.3027033e-08
-7.1517248e-09
3.1839491e-07
-1.7095938e-08
-8.6642191e-09
4.168635e-07
-1.9664566e-08
-9.4255506e-09
5.1708487e-07
-2.0537795e-08
-9.2799303e-09
6.2096007e-07
-1.9999828e-08
-8.3203654e-09
7.3105173e-07
-1.8559003e-08
-6.8440989e-09
8.4981631e-07
-1.6739538e-08
-5.1793471e-09
9.7925945e-07
-1.4935616e-08
-3.609785e-09
1.120904e-06
-1.3358372e-08
-2.3286048e-09
1.2759085e-06
-1.2108873e-08
-1.3756307e-09
1.4452206e-06
-1.1186129e-08
-7.5461235e-10
1.6297142e-06
-1.0527946e-08
-4.3443715e-10
1.8302924e-06
-1.0079267e-08
-3.1522187e-10
2.0479591e-06
-9.7680059e-09
-3.5737355e-10
2.2838316e-06
-9.5441899e-09
-5.0036686e-10
2.5391481e-06
-9.3655853e-09
-7.1152353e-10
2.8152608e-06
-9.2226486e-09
-9.4184337e-10
3.1136075e-06
-9.0758321e-09
-1.2119468e-09
3.4356654e-06
-8.9211792e-09
-1.479091e-09
3.7828625e-06
-8.7580974e-09
-1.7331304e-09
4.1564556e-06
-8.5297817e-09
-2.0268269e-09
4.5573471e-06
-8.2621327e-09
-2.268303e-09
4.9858005e-06
-7.9566637e-09
-2.4744957e-09
5.4410642e-06
-7.6357071e-09
-2.6196516e-09
5.9208349e-06
-7.2471756e-09
-2.7741654e-09
6.4205688e-06
-6.8566198e-09
-2.8107925e-09
6.932533e-06
-6.3423206e-09
-2.9190703e-09
7.4446381e-06
-5.8541041e-09
-2.8040897e-09
7.9387978e-06
-5.2347278e-09
-2.7896785e-09
8.389006e-06
-4.5688227e-09
-2.6067017e-09
8.7587576e-06
-3.8837056e-09
-2.311125e-09
8.9978847e-06
-3.1260397e-09
-1.9938578e-09
9.0386192e-06
-2.3360047e-09
-1.5353175e-09
8.7906963e-06
-1.5610857e-09
-9.3351452e-10
8.1352058e-06
-8.7605552e-10
-1.6762065e-10
6.9171379e-06
-3.6059256e-10
7.3979708e-10
4.9363164e-06
1.1562496e-09
1.9365175e-06
-2.284214e-09
-1.8803962e-09
4.3446358e-08
-7.8446092e-09
-4.6346145e-09
1.2881527e-07
-1.5669119e-08
-7.849847e-09
2.222543e-07
-2.4369768e-08
-1.1056985e-08
3.1942448e-07
-3.2350505e-08
-1.3715864e-08
4.1831394e-07
-3.8238346e-08
-1.5390873e-08
5.1940272e-07
-4.1224317e-08
-1.5931686e-08
6.2481691e-07
-4.1254811e-08
-1.5351399e-08
7.3723806e-07
-3.8762117e-08
-1.3968954e-08
8.5916075e-07
-3.4498463e-08
-1.2087146e-08
9.9258683e-07
-2.9309342e-08
-9.996029e-09
1.1390344e-06
-2.3781463e-08
-8.1169952e-09
1.2996837e-06
-1.8433056e-08
-6.4654001e-09
1.47553e-06
-1.3619749e-08
-5.1035725e-09
1.6675213e-06
-9.4423669e-09
-4.172152e-09
1.8766675e-06
-5.9779899e-09
-3.4806592e-09
2.1041198e-06
-3.2220418e-09
-3.0297637e-09
2.3511509e-06
-1.1549631e-09
-2.7450731e-09
2.6191706e-06
3.6787638e-10
-2.6971681e-09
2.9097362e-06
1.2497541e-09
-2.6026245e-09
3.2245514e-06
1.6316906e-09
-2.7079884e-09
3.5654113e-06
1.5587918e-09
-2.855728e-09
3.9340809e-06
1.0065286e-09
-2.9429282e-09
4.3321933e-06
3.0078737e-11
-3.111226e-09
4.7611166e-06
-1.1204384e-09
-3.4418645e-09
5.2215699e-06
-2.4376684e-09
-3.7033564e-09
5.7132616e-06
-3.976345e-09
-3.7910854e-09
6.2341199e-06
-5.36768e-09
-4.2247025e-09
6.7796607e-06
-7.053387e-09
-4.0239176e-09
7.3417053e-06
-8.3085889e-09
-4.5203673e-09
7.9075938e-06
-9.5077714e-09
-4.2884432e-09
8.4572875e-06
-1.0486258e-08
-4.2370779e-09
8.9619733e-06
-1.0852708e-08
-4.279308e-09
9.3811384e-06
-1.0802598e-08
-3.9020448e-09
9.6587659e-06
-1.0392599e-08
-3.3141893e-09
9.7198558e-06
-9.0516988e-09
-3.0656603e-09
9.4657502e-06
-7.3368209e-09
-1.8637348e-09
8.7670689e-06
-4.2865383e-09
-1.3853762e-09
7.4570752e-06
-1.3930054e-09
8.8359028e-10
5.3201906e-06
3.1550923e-09
2.0833263e-06
-3.3214325e-09
-1.187296e-09
4.3590498e-08
-1.1489792e-08
-3.6699934e-09
1.2930607e-07
-2.3585465e-08
-6.7740256e-09
2.2313774e-07
-3.780749e-08
-1.0057549e-08
3.207798e-07
-5.1897027e-08
-1.2997376e-08
4.204675e-07
-6.3983813e-08
-1.5000943e-08
5.2309149e-07
-7.2676318e-08
-1.6160902e-08
6.3119322e-07
-7.7681881e-08
-1.6200512e-08
7.4775082e-07
-7.9304345e-08
-1.5449435e-08
8.7540391e-07
-7.803837e-08
-1.4336891e-08
1.0162038e-06
-7.5212375e-08
-1.2369722e-08
1.1716794e-06
-7.1474252e-08
-1.0560515e-08
1.3430361e-06
-6.7137174e-08
-9.1242328e-09
1.5313093e-06
-6.3160892e-08
-7.326873e-09
1.7374839e-06
-5.9356414e-08
-6.3509559e-09
1.9626667e-06
-5.5986635e-08
-5.4644866e-09
2.2080771e-06
-5.2812949e-08
-5.1117842e-09
2.4751591e-06
-5.0368167e-08
-4.4084636e-09
2.765534e-06
-4.7936571e-08
-4.6636012e-09