/*--------------------------------*- C++ -*----------------------------------*\
| =========                 |                                                 |
| \\      /  F ield         | OpenFOAM: The Open Source CFD Toolbox           |
|  \\    /   O peration     | Version:  3.0.1                                 |
|   \\  /    A nd           | Web:      www.OpenFOAM.org                      |
|    \\/     M anipulation  |                                                 |
\*---------------------------------------------------------------------------*/
FoamFile
{
    version     2.0;
    format      ascii;
    class       volScalarField;
    location    "2576";
    object      rho;
}
// * * * * * * * * * * * * * * * * * * * * * * * * * * * * * * * * * * * * * //

dimensions      [1 -3 0 0 0 0 0];

internalField   nonuniform List<scalar> 
80000
(
1.0603201
1.1096162
1.1466025
1.1710447
1.1856967
1.193829
1.1980623
1.2001465
1.201121
1.2015545
1.2017381
1.201812
1.2018402
1.2018504
1.2018539
1.201855
1.2018554
1.2018555
1.2018555
1.2018555
1.2018555
1.2018555
1.2018555
1.2018555
1.2018555
1.2018555
1.2018555
1.2018555
1.2018555
1.2018555
1.2018555
1.2018555
1.2018555
1.2018555
1.2018555
1.2018555
1.2018555
1.2018555
1.2018555
1.2018555
1.0605337
1.1097086
1.1465904
1.1709764
1.1856184
1.1937634
1.1980176
1.2001193
1.2011059
1.2015467
1.2017341
1.20181
1.2018393
1.20185
1.2018538
1.201855
1.2018554
1.2018555
1.2018555
1.2018555
1.2018555
1.2018555
1.2018555
1.2018555
1.2018555
1.2018555
1.2018555
1.2018555
1.2018555
1.2018555
1.2018555
1.2018555
1.2018555
1.2018555
1.2018555
1.2018555
1.2018555
1.2018555
1.2018555
1.2018555
1.0610381
1.110047
1.1468165
1.1711431
1.1857479
1.1938608
1.198084
1.2001599
1.201128
1.2015575
1.2017388
1.2018118
1.2018398
1.2018501
1.2018538
1.201855
1.2018554
1.2018555
1.2018555
1.2018555
1.2018555
1.2018555
1.2018555
1.2018555
1.2018555
1.2018555
1.2018555
1.2018555
1.2018555
1.2018555
1.2018555
1.2018555
1.2018555
1.2018555
1.2018555
1.2018555
1.2018555
1.2018555
1.2018555
1.2018555
1.0617892
1.110667
1.1473621
1.171602
1.1860888
1.1940798
1.1982062
1.2002176
1.2011502
1.2015638
1.2017396
1.2018113
1.2018393
1.2018498
1.2018536
1.2018549
1.2018553
1.2018555
1.2018555
1.2018555
1.2018555
1.2018555
1.2018555
1.2018555
1.2018555
1.2018555
1.2018555
1.2018555
1.2018555
1.2018555
1.2018555
1.2018555
1.2018555
1.2018555
1.2018555
1.2018555
1.2018555
1.2018555
1.2018555
1.2018555
1.0624066
1.1112232
1.1478666
1.1719971
1.1863431
1.194213
1.1982612
1.200235
1.2011537
1.2015632
1.2017385
1.2018105
1.2018389
1.2018496
1.2018535
1.2018549
1.2018553
1.2018555
1.2018555
1.2018555
1.2018555
1.2018555
1.2018555
1.2018555
1.2018555
1.2018555
1.2018555
1.2018555
1.2018555
1.2018555
1.2018555
1.2018555
1.2018555
1.2018555
1.2018555
1.2018555
1.2018555
1.2018555
1.2018555
1.2018555
1.0624066
1.1112232
1.1478666
1.1719971
1.1863431
1.194213
1.1982612
1.200235
1.2011537
1.2015632
1.2017385
1.2018105
1.2018389
1.2018496
1.2018535
1.2018549
1.2018553
1.2018555
1.2018555
1.2018555
1.2018555
1.2018555
1.2018555
1.2018555
1.2018555
1.2018555
1.2018555
1.2018555
1.2018555
1.2018555
1.2018555
1.2018555
1.2018555
1.2018555
1.2018555
1.2018555
1.2018555
1.2018555
1.2018555
1.2018555
1.0617892
1.110667
1.1473621
1.171602
1.1860888
1.1940798
1.1982062
1.2002176
1.2011502
1.2015638
1.2017396
1.2018113
1.2018393
1.2018498
1.2018536
1.2018549
1.2018553
1.2018555
1.2018555
1.2018555
1.2018555
1.2018555
1.2018555
1.2018555
1.2018555
1.2018555
1.2018555
1.2018555
1.2018555
1.2018555
1.2018555
1.2018555
1.2018555
1.2018555
1.2018555
1.2018555
1.2018555
1.2018555
1.2018555
1.2018555
1.0610382
1.110047
1.1468166
1.1711431
1.1857479
1.1938608
1.198084
1.2001599
1.201128
1.2015575
1.2017388
1.2018118
1.2018398
1.2018501
1.2018538
1.201855
1.2018554
1.2018555
1.2018555
1.2018555
1.2018555
1.2018555
1.2018555
1.2018555
1.2018555
1.2018555
1.2018555
1.2018555
1.2018555
1.2018555
1.2018555
1.2018555
1.2018555
1.2018555
1.2018555
1.2018555
1.2018555
1.2018555
1.2018555
1.2018555
1.0605337
1.1097086
1.1465904
1.1709764
1.1856184
1.1937634
1.1980176
1.2001193
1.2011059
1.2015467
1.2017341
1.20181
1.2018393
1.20185
1.2018538
1.201855
1.2018554
1.2018555
1.2018555
1.2018555
1.2018555
1.2018555
1.2018555
1.2018555
1.2018555
1.2018555
1.2018555
1.2018555
1.2018555
1.2018555
1.2018555
1.2018555
1.2018555
1.2018555
1.2018555
1.2018555
1.2018555
1.2018555
1.2018555
1.2018555
1.0603201
1.1096162
1.1466025
1.1710447
1.1856967
1.193829
1.1980623
1.2001465
1.201121
1.2015545
1.2017381
1.201812
1.2018402
1.2018504
1.2018539
1.201855
1.2018554
1.2018555
1.2018555
1.2018555
1.2018555
1.2018555
1.2018555
1.2018555
1.2018555
1.2018555
1.2018555
1.2018555
1.2018555
1.2018555
1.2018555
1.2018555
1.2018555
1.2018555
1.2018555
1.2018555
1.2018555
1.2018555
1.2018555
1.2018555
1.0171212
1.0655474
1.108538
1.1426886
1.1669801
1.1826193
1.1918648
1.196946
1.199566
1.200841
1.201428
1.2016839
1.2017896
1.2018309
1.2018462
1.2018515
1.2018533
1.2018538
1.201854
1.201854
1.201854
1.201854
1.201854
1.201854
1.201854
1.201854
1.201854
1.201854
1.201854
1.201854
1.201854
1.201854
1.201854
1.201854
1.201854
1.201854
1.201854
1.201854
1.201854
1.201854
1.0172661
1.065589
1.1084745
1.1425456
1.1667978
1.1824434
1.1917205
1.1968418
1.1994982
1.2008002
1.2014052
1.2016721
1.2017839
1.2018284
1.2018451
1.2018511
1.2018531
1.2018538
1.201854
1.201854
1.201854
1.201854
1.201854
1.201854
1.201854
1.201854
1.201854
1.201854
1.201854
1.201854
1.201854
1.201854
1.201854
1.201854
1.201854
1.201854
1.201854
1.201854
1.201854
1.201854
1.0175397
1.06568
1.1084014
1.1423628
1.1665777
1.1822408
1.1915628
1.1967326
1.1994291
1.2007597
1.201383
1.2016607
1.2017783
1.2018258
1.201844
1.2018506
1.2018529
1.2018537
1.2018539
1.201854
1.201854
1.201854
1.201854
1.201854
1.201854
1.201854
1.201854
1.201854
1.201854
1.201854
1.201854
1.201854
1.201854
1.201854
1.201854
1.201854
1.201854
1.201854
1.201854
1.201854
1.0177946
1.0656801
1.1082055
1.1420648
1.1662677
1.1819749
1.1913621
1.1965946
1.199341
1.2007072
1.2013538
1.2016454
1.2017708
1.2018223
1.2018425
1.20185
1.2018527
1.2018536
1.2018539
1.201854
1.201854
1.201854
1.201854
1.201854
1.201854
1.201854
1.201854
1.201854
1.201854
1.201854
1.201854
1.201854
1.201854
1.201854
1.201854
1.201854
1.201854
1.201854
1.201854
1.201854
1.0179384
1.065624
1.1080152
1.1418153
1.1660204
1.1817671
1.1912077
1.1964911
1.1992777
1.2006714
1.2013348
1.201636
1.2017664
1.2018204
1.2018417
1.2018497
1.2018526
1.2018536
1.2018539
1.201854
1.201854
1.201854
1.201854
1.201854
1.201854
1.201854
1.201854
1.201854
1.201854
1.201854
1.201854
1.201854
1.201854
1.201854
1.201854
1.201854
1.201854
1.201854
1.201854
1.201854
1.0179384
1.065624
1.1080152
1.1418153
1.1660204
1.1817671
1.1912077
1.1964911
1.1992777
1.2006714
1.2013348
1.201636
1.2017664
1.2018204
1.2018417
1.2018497
1.2018526
1.2018536
1.2018539
1.201854
1.201854
1.201854
1.201854
1.201854
1.201854
1.201854
1.201854
1.201854
1.201854
1.201854
1.201854
1.201854
1.201854
1.201854
1.201854
1.201854
1.201854
1.201854
1.201854
1.201854
1.0177946
1.0656801
1.1082055
1.1420648
1.1662677
1.1819749
1.1913621
1.1965946
1.199341
1.2007072
1.2013538
1.2016454
1.2017708
1.2018223
1.2018425
1.20185
1.2018527
1.2018536
1.2018539
1.201854
1.201854
1.201854
1.201854
1.201854
1.201854
1.201854
1.201854
1.201854
1.201854
1.201854
1.201854
1.201854
1.201854
1.201854
1.201854
1.201854
1.201854
1.201854
1.201854
1.201854
1.0175398
1.06568
1.1084014
1.1423628
1.1665778
1.1822408
1.1915628
1.1967326
1.1994291
1.2007597
1.201383
1.2016607
1.2017783
1.2018258
1.201844
1.2018506
1.2018529
1.2018537
1.2018539
1.201854
1.201854
1.201854
1.201854
1.201854
1.201854
1.201854
1.201854
1.201854
1.201854
1.201854
1.201854
1.201854
1.201854
1.201854
1.201854
1.201854
1.201854
1.201854
1.201854
1.201854
1.0172662
1.0655891
1.1084745
1.1425456
1.1667978
1.1824434
1.1917205
1.1968418
1.1994982
1.2008002
1.2014052
1.2016721
1.2017839
1.2018284
1.2018451
1.2018511
1.2018531
1.2018538
1.201854
1.201854
1.201854
1.201854
1.201854
1.201854
1.201854
1.201854
1.201854
1.201854
1.201854
1.201854
1.201854
1.201854
1.201854
1.201854
1.201854
1.201854
1.201854
1.201854
1.201854
1.201854
1.0171213
1.0655474
1.108538
1.1426886
1.1669801
1.1826193
1.1918648
1.196946
1.199566
1.200841
1.201428
1.2016839
1.2017896
1.2018309
1.2018462
1.2018515
1.2018533
1.2018538
1.201854
1.201854
1.201854
1.201854
1.201854
1.201854
1.201854
1.201854
1.201854
1.201854
1.201854
1.201854
1.201854
1.201854
1.201854
1.201854
1.201854
1.201854
1.201854
1.201854
1.201854
1.201854
0.9948677
1.0412154
1.0844689
1.1216519
1.1507221
1.1713687
1.1847871
1.192844
1.1973539
1.199724
1.2008975
1.2014461
1.2016887
1.20179
1.2018299
1.2018448
1.20185
1.2018518
1.2018523
1.2018525
1.2018525
1.2018525
1.2018525
1.2018525
1.2018525
1.2018525
1.2018525
1.2018525
1.2018525
1.2018525
1.2018525
1.2018525
1.2018525
1.2018525
1.2018525
1.2018525
1.2018525
1.2018525
1.2018525
1.2018525
0.99494523
1.0412159
1.0843915
1.1214976
1.1505035
1.1711246
1.1845541
1.1926496
1.1972098
1.1996263
1.2008371
1.201412
1.2016709
1.2017814
1.2018261
1.2018432
1.2018494
1.2018516
1.2018522
1.2018525
1.2018525
1.2018525
1.2018525
1.2018525
1.2018525
1.2018525
1.2018525
1.2018525
1.2018525
1.2018525
1.2018525
1.2018525
1.2018525
1.2018525
1.2018525
1.2018525
1.2018525
1.2018525
1.2018525
1.2018525
0.99493384
1.0409976
1.0839594
1.120887
1.1498067
1.1704499
1.1839854
1.1922226
1.1969192
1.1994454
1.2007329
1.2013561
1.2016428
1.2017682
1.2018203
1.2018408
1.2018485
1.2018512
1.2018521
1.2018524
1.2018525
1.2018525
1.2018525
1.2018525
1.2018525
1.2018525
1.2018525
1.2018525
1.2018525
1.2018525
1.2018525
1.2018525
1.2018525
1.2018525
1.2018525
1.2018525
1.2018525
1.2018525
1.2018525
1.2018525
0.99457467
1.0402317
1.082809
1.1195029
1.1484123
1.1692378
1.1830542
1.1915776
1.1965099
1.1992049
1.200601
1.2012881
1.2016098
1.201753
1.2018137
1.2018381
1.2018474
1.2018508
1.201852
1.2018524
1.2018525
1.2018525
1.2018525
1.2018525
1.2018525
1.2018525
1.2018525
1.2018525
1.2018525
1.2018525
1.2018525
1.2018525
1.2018525
1.2018525
1.2018525
1.2018525
1.2018525
1.2018525
1.2018525
1.2018525
0.99413557
1.0394239
1.081713
1.1182859
1.1472685
1.1683045
1.1823787
1.1911357
1.1962447
1.199057
1.2005235
1.2012498
1.2015917
1.2017449
1.2018102
1.2018366
1.2018469
1.2018506
1.2018519
1.2018523
1.2018525
1.2018525
1.2018525
1.2018525
1.2018525
1.2018525
1.2018525
1.2018525
1.2018525
1.2018525
1.2018525
1.2018525
1.2018525
1.2018525
1.2018525
1.2018525
1.2018525
1.2018525
1.2018525
1.2018525
0.99413558
1.0394239
1.081713
1.1182859
1.1472685
1.1683045
1.1823787
1.1911357
1.1962447
1.199057
1.2005235
1.2012498
1.2015917
1.2017449
1.2018102
1.2018366
1.2018469
1.2018506
1.2018519
1.2018523
1.2018525
1.2018525
1.2018525
1.2018525
1.2018525
1.2018525
1.2018525
1.2018525
1.2018525
1.2018525
1.2018525
1.2018525
1.2018525
1.2018525
1.2018525
1.2018525
1.2018525
1.2018525
1.2018525
1.2018525
0.99457469
1.0402318
1.082809
1.1195029
1.1484123
1.1692378
1.1830542
1.1915776
1.1965099
1.1992049
1.200601
1.2012881
1.2016098
1.201753
1.2018137
1.2018381
1.2018474
1.2018508
1.201852
1.2018524
1.2018525
1.2018525
1.2018525
1.2018525
1.2018525
1.2018525
1.2018525
1.2018525
1.2018525
1.2018525
1.2018525
1.2018525
1.2018525
1.2018525
1.2018525
1.2018525
1.2018525
1.2018525
1.2018525
1.2018525
0.99493392
1.0409977
1.0839594
1.120887
1.1498067
1.1704499
1.1839854
1.1922226
1.1969192
1.1994454
1.2007329
1.2013561
1.2016428
1.2017682
1.2018203
1.2018408
1.2018485
1.2018512
1.2018521
1.2018524
1.2018525
1.2018525
1.2018525
1.2018525
1.2018525
1.2018525
1.2018525
1.2018525
1.2018525
1.2018525
1.2018525
1.2018525
1.2018525
1.2018525
1.2018525
1.2018525
1.2018525
1.2018525
1.2018525
1.2018525
0.99494525
1.041216
1.0843915
1.1214976
1.1505035
1.1711246
1.1845541
1.1926496
1.1972098
1.1996263
1.2008371
1.201412
1.2016709
1.2017814
1.2018261
1.2018432
1.2018494
1.2018516
1.2018522
1.2018525
1.2018525
1.2018525
1.2018525
1.2018525
1.2018525
1.2018525
1.2018525
1.2018525
1.2018525
1.2018525
1.2018525
1.2018525
1.2018525
1.2018525
1.2018525
1.2018525
1.2018525
1.2018525
1.2018525
1.2018525
0.99486772
1.0412155
1.0844689
1.1216519
1.1507221
1.1713687
1.1847871
1.192844
1.1973539
1.199724
1.2008975
1.2014461
1.2016887
1.20179
1.2018299
1.2018448
1.20185
1.2018518
1.2018523
1.2018525
1.2018525
1.2018525
1.2018525
1.2018525
1.2018525
1.2018525
1.2018525
1.2018525
1.2018525
1.2018525
1.2018525
1.2018525
1.2018525
1.2018525
1.2018525
1.2018525
1.2018525
1.2018525
1.2018525
1.2018525
0.98024979
1.0250464
1.067746
1.1059212
1.1374233
1.1612499
1.1777978
1.1884149
1.1947548
1.1983021
1.2001687
1.2010949
1.2015291
1.2017213
1.2018016
1.2018332
1.201845
1.2018491
1.2018504
1.2018509
1.201851
1.201851
1.201851
1.201851
1.201851
1.201851
1.201851
1.201851
1.201851
1.201851
1.201851
1.201851
1.201851
1.201851
1.201851
1.201851
1.201851
1.201851
1.201851
1.201851
0.98025394
1.0249904
1.0676412
1.1057631
1.1372029
1.1609851
1.1775174
1.1881543
1.1945402
1.1981416
1.2000601
1.2010282
1.2014914
1.2017017
1.2017921
1.201829
1.2018432
1.2018484
1.2018502
1.2018508
1.201851
1.201851
1.201851
1.201851
1.201851
1.201851
1.201851
1.201851
1.201851
1.201851
1.201851
1.201851
1.201851
1.201851
1.201851
1.201851
1.201851
1.201851
1.201851
1.201851
0.98001194
1.0245216
1.0669254
1.1048133
1.1361025
1.1598652
1.1765093
1.1873415
1.1939459
1.1977444
1.1998152
1.2008881
1.2014168
1.2016645
1.2017748
1.2018215
1.2018401
1.2018472
1.2018498
1.2018506
1.2018509
1.201851
1.201851
1.201851
1.201851
1.201851
1.201851
1.201851
1.201851
1.201851
1.201851
1.201851
1.201851
1.201851
1.201851
1.201851
1.201851
1.201851
1.201851
1.201851
0.97922146
1.0232094
1.0650557
1.1025236
1.1336785
1.1576202
1.1746638
1.1859746
1.193022
1.1971689
1.1994822
1.200708
1.2013254
1.2016209
1.2017551
1.2018131
1.2018368
1.2018459
1.2018493
1.2018505
1.2018509
1.201851
1.201851
1.201851
1.201851
1.201851
1.201851
1.201851
1.201851
1.201851
1.201851
1.201851
1.201851
1.201851
1.201851
1.201851
1.201851
1.201851
1.201851
1.201851
0.97839724
1.0218733
1.0632628
1.1004547
1.1316136
1.1558168
1.1732662
1.1849995
1.1924014
1.1968044
1.1992826
1.2006053
1.2012753
1.2015976
1.2017448
1.2018087
1.201835
1.2018452
1.201849
1.2018504
1.2018508
1.201851
1.201851
1.201851
1.201851
1.201851
1.201851
1.201851
1.201851
1.201851
1.201851
1.201851
1.201851
1.201851
1.201851
1.201851
1.201851
1.201851
1.201851
1.201851
0.97839725
1.0218733
1.0632628
1.1004547
1.1316136
1.1558168
1.1732662
1.1849995
1.1924014
1.1968044
1.1992826
1.2006053
1.2012753
1.2015976
1.2017448
1.2018087
1.201835
1.2018452
1.201849
1.2018504
1.2018508
1.201851
1.201851
1.201851
1.201851
1.201851
1.201851
1.201851
1.201851
1.201851
1.201851
1.201851
1.201851
1.201851
1.201851
1.201851
1.201851
1.201851
1.201851
1.201851
0.97922149
1.0232095
1.0650557
1.1025236
1.1336785
1.1576202
1.1746638
1.1859746
1.193022
1.1971689
1.1994822
1.200708
1.2013254
1.2016209
1.2017551
1.2018131
1.2018368
1.2018459
1.2018493
1.2018505
1.2018509
1.201851
1.201851
1.201851
1.201851
1.201851
1.201851
1.201851
1.201851
1.201851
1.201851
1.201851
1.201851
1.201851
1.201851
1.201851
1.201851
1.201851
1.201851
1.201851
0.98001201
1.0245217
1.0669255
1.1048133
1.1361025
1.1598652
1.1765093
1.1873415
1.1939459
1.1977444
1.1998152
1.2008881
1.2014168
1.2016645
1.2017748
1.2018215
1.2018401
1.2018472
1.2018498
1.2018506
1.2018509
1.201851
1.201851
1.201851
1.201851
1.201851
1.201851
1.201851
1.201851
1.201851
1.201851
1.201851
1.201851
1.201851
1.201851
1.201851
1.201851
1.201851
1.201851
1.201851
0.98025397
1.0249905
1.0676413
1.1057631
1.1372029
1.1609851
1.1775174
1.1881543
1.1945402
1.1981416
1.2000601
1.2010282
1.2014914
1.2017017
1.2017921
1.201829
1.2018432
1.2018484
1.2018502
1.2018508
1.201851
1.201851
1.201851
1.201851
1.201851
1.201851
1.201851
1.201851
1.201851
1.201851
1.201851
1.201851
1.201851
1.201851
1.201851
1.201851
1.201851
1.201851
1.201851
1.201851
0.98024982
1.0250464
1.067746
1.1059212
1.1374233
1.1612499
1.1777978
1.1884149
1.1947548
1.1983021
1.2001687
1.2010949
1.2015291
1.2017213
1.2018016
1.2018332
1.201845
1.2018491
1.2018504
1.2018509
1.201851
1.201851
1.201851
1.201851
1.201851
1.201851
1.201851
1.201851
1.201851
1.201851
1.201851
1.201851
1.201851
1.201851
1.201851
1.201851
1.201851
1.201851
1.201851
1.201851
0.96942707
1.0130375
1.0550924
1.0935683
1.1264196
1.1523454
1.1712285
1.183964
1.1919638
1.1966722
1.1992781
1.2006381
1.2013086
1.2016208
1.201758
1.2018149
1.2018372
1.2018454
1.2018482
1.2018491
1.2018494
1.2018495
1.2018495
1.2018495
1.2018495
1.2018495
1.2018495
1.2018495
1.2018495
1.2018495
1.2018495
1.2018495
1.2018495
1.2018495
1.2018495
1.2018495
1.2018495
1.2018495
1.2018495
1.2018495
0.96936367
1.012921
1.0549465
1.0933936
1.1261988
1.1520792
1.1709304
1.183665
1.1916968
1.1964559
1.1991201
1.2005336
1.2012453
1.2015855
1.2017399
1.2018064
1.2018334
1.2018438
1.2018476
1.2018489
1.2018494
1.2018495
1.2018495
1.2018495
1.2018495
1.2018495
1.2018495
1.2018495
1.2018495
1.2018495
1.2018495
1.2018495
1.2018495
1.2018495
1.2018495
1.2018495
1.2018495
1.2018495
1.2018495
1.2018495
0.9689517
1.0122664
1.0540223
1.0921972
1.124797
1.1506033
1.1695373
1.1824785
1.1907771
1.195803
1.1986923
1.2002736
1.2010982
1.2015079
1.2017016
1.2017887
1.2018258
1.2018407
1.2018465
1.2018485
1.2018492
1.2018494
1.2018495
1.2018495
1.2018495
1.2018495
1.2018495
1.2018495
1.2018495
1.2018495
1.2018495
1.2018495
1.2018495
1.2018495
1.2018495
1.2018495
1.2018495
1.2018495
1.2018495
1.2018495
0.96788744
1.0106072
1.0516775
1.0892629
1.1215632
1.1474506
1.1667929
1.1803205
1.1892276
1.194778
1.1980634
1.1999137
1.2009055
1.2014111
1.2016558
1.2017683
1.2018172
1.2018373
1.2018452
1.2018481
1.2018491
1.2018494
1.2018495
1.2018495
1.2018495
1.2018495
1.2018495
1.2018495
1.2018495
1.2018495
1.2018495
1.2018495
1.2018495
1.2018495
1.2018495
1.2018495
1.2018495
1.2018495
1.2018495
1.2018495
0.96683439
1.0089569
1.0494193
1.0865652
1.1187302
1.1448238
1.1646222
1.1787045
1.1881319
1.1940948
1.197668
1.1996997
1.2007964
1.2013584
1.2016316
1.2017576
1.2018127
1.2018355
1.2018445
1.2018478
1.201849
1.2018494
1.2018495
1.2018495
1.2018495
1.2018495
1.2018495
1.2018495
1.2018495
1.2018495
1.2018495
1.2018495
1.2018495
1.2018495
1.2018495
1.2018495
1.2018495
1.2018495
1.2018495
1.2018495
0.9668344
1.0089569
1.0494193
1.0865652
1.1187302
1.1448238
1.1646222
1.1787045
1.1881319
1.1940948
1.197668
1.1996997
1.2007964
1.2013584
1.2016316
1.2017576
1.2018127
1.2018355
1.2018445
1.2018478
1.201849
1.2018494
1.2018495
1.2018495
1.2018495
1.2018495
1.2018495
1.2018495
1.2018495
1.2018495
1.2018495
1.2018495
1.2018495
1.2018495
1.2018495
1.2018495
1.2018495
1.2018495
1.2018495
1.2018495
0.96788747
1.0106073
1.0516775
1.089263
1.1215632
1.1474506
1.1667929
1.1803205
1.1892276
1.194778
1.1980634
1.1999137
1.2009055
1.2014111
1.2016558
1.2017683
1.2018172
1.2018373
1.2018452
1.2018481
1.2018491
1.2018494
1.2018495
1.2018495
1.2018495
1.2018495
1.2018495
1.2018495
1.2018495
1.2018495
1.2018495
1.2018495
1.2018495
1.2018495
1.2018495
1.2018495
1.2018495
1.2018495
1.2018495
1.2018495
0.96895177
1.0122664
1.0540224
1.0921972
1.1247971
1.1506033
1.1695373
1.1824785
1.1907771
1.195803
1.1986923
1.2002736
1.2010982
1.2015079
1.2017016
1.2017887
1.2018258
1.2018407
1.2018465
1.2018485
1.2018492
1.2018494
1.2018495
1.2018495
1.2018495
1.2018495
1.2018495
1.2018495
1.2018495
1.2018495
1.2018495
1.2018495
1.2018495
1.2018495
1.2018495
1.2018495
1.2018495
1.2018495
1.2018495
1.2018495
0.9693637
1.0129211
1.0549465
1.0933936
1.1261988
1.1520792
1.1709305
1.183665
1.1916968
1.1964559
1.1991201
1.2005336
1.2012453
1.2015855
1.2017399
1.2018064
1.2018334
1.2018438
1.2018476
1.2018489
1.2018494
1.2018495
1.2018495
1.2018495
1.2018495
1.2018495
1.2018495
1.2018495
1.2018495
1.2018495
1.2018495
1.2018495
1.2018495
1.2018495
1.2018495
1.2018495
1.2018495
1.2018495
1.2018495
1.2018495
0.9694271
1.0130376
1.0550924
1.0935683
1.1264196
1.1523454
1.1712285
1.183964
1.1919638
1.1966722
1.1992781
1.2006381
1.2013086
1.2016208
1.201758
1.2018149
1.2018372
1.2018454
1.2018482
1.2018491
1.2018494
1.2018495
1.2018495
1.2018495
1.2018495
1.2018495
1.2018495
1.2018495
1.2018495
1.2018495
1.2018495
1.2018495
1.2018495
1.2018495
1.2018495
1.2018495
1.2018495
1.2018495
1.2018495
1.2018495
0.96087259
1.0035349
1.0449806
1.0834814
1.117133
1.1445109
1.1651696
1.1796472
1.1891127
1.1949171
1.1982666
1.2000909
1.2010301
1.2014871
1.2016972
1.2017884
1.2018258
1.2018402
1.2018454
1.2018472
1.2018478
1.201848
1.201848
1.201848
1.201848
1.201848
1.201848
1.201848
1.201848
1.201848
1.201848
1.201848
1.201848
1.201848
1.201848
1.201848
1.201848
1.201848
1.201848
1.201848
0.96075065
1.0033606
1.0447866
1.0832765
1.1169007
1.1442426
1.1648647
1.1793274
1.18881
1.1946559
1.1980635
1.1999479
1.200938
1.2014327
1.2016677
1.2017736
1.2018189
1.2018372
1.2018442
1.2018468
1.2018476
1.2018479
1.201848
1.201848
1.201848
1.201848
1.201848
1.201848
1.201848
1.201848
1.201848
1.201848
1.201848
1.201848
1.201848
1.201848
1.201848
1.201848
1.201848
1.201848
0.96021351
1.0025675
1.0437066
1.081897
1.1152737
1.1424907
1.1631544
1.1778098
1.1875788
1.1937381
1.1974307
1.1995424
1.200696
1.2012978
1.2015974
1.2017394
1.2018033
1.2018306
1.2018416
1.2018458
1.2018473
1.2018478
1.201848
1.201848
1.201848
1.201848
1.201848
1.201848
1.201848
1.201848
1.201848
1.201848
1.201848
1.201848
1.201848
1.201848
1.201848
1.201848
1.201848
1.201848
0.95897593
1.0006907
1.0410563
1.0785233
1.1114417
1.1386055
1.1596164
1.1748888
1.1853716
1.1921993
1.1964347
1.1989413
1.2003567
1.2011183
1.2015082
1.2016977
1.2017849
1.201823
1.2018386
1.2018447
1.2018469
1.2018477
1.2018479
1.201848
1.201848
1.201848
1.201848
1.201848
1.201848
1.201848
1.201848
1.201848
1.201848
1.201848
1.201848
1.201848
1.201848
1.201848
1.201848
1.201848
0.95778822
0.99885798
1.0385056
1.0753921
1.1080217
1.1352797
1.1567189
1.172608
1.1837347
1.1911194
1.1957747
1.1985652
1.2001556
1.2010168
1.2014596
1.2016755
1.2017752
1.2018189
1.201837
1.201844
1.2018467
1.2018476
1.2018479
1.201848
1.201848
1.201848
1.201848
1.201848
1.201848
1.201848
1.201848
1.201848
1.201848
1.201848
1.201848
1.201848
1.201848
1.201848
1.201848
1.201848
0.95778822
0.99885799
1.0385056
1.0753921
1.1080217
1.1352797
1.1567189
1.172608
1.1837347
1.1911194
1.1957747
1.1985652
1.2001556
1.2010168
1.2014596
1.2016755
1.2017752
1.2018189
1.201837
1.201844
1.2018467
1.2018476
1.2018479
1.201848
1.201848
1.201848
1.201848
1.201848
1.201848
1.201848
1.201848
1.201848
1.201848
1.201848
1.201848
1.201848
1.201848
1.201848
1.201848
1.201848
0.95897596
1.0006907
1.0410563
1.0785234
1.1114417
1.1386055
1.1596164
1.1748888
1.1853716
1.1921993
1.1964347
1.1989413
1.2003567
1.2011183
1.2015082
1.2016977
1.2017849
1.201823
1.2018386
1.2018447
1.2018469
1.2018477
1.2018479
1.201848
1.201848
1.201848
1.201848
1.201848
1.201848
1.201848
1.201848
1.201848
1.201848
1.201848
1.201848
1.201848
1.201848
1.201848
1.201848
1.201848
0.96021358
1.0025676
1.0437066
1.081897
1.1152738
1.1424907
1.1631544
1.1778098
1.1875788
1.1937381
1.1974307
1.1995424
1.200696
1.2012978
1.2015974
1.2017394
1.2018033
1.2018306
1.2018416
1.2018458
1.2018473
1.2018478
1.201848
1.201848
1.201848
1.201848
1.201848
1.201848
1.201848
1.201848
1.201848
1.201848
1.201848
1.201848
1.201848
1.201848
1.201848
1.201848
1.201848
1.201848
0.96075068
1.0033607
1.0447866
1.0832765
1.1169007
1.1442426
1.1648647
1.1793274
1.18881
1.1946559
1.1980635
1.1999479
1.200938
1.2014327
1.2016677
1.2017736
1.2018189
1.2018372
1.2018442
1.2018468
1.2018476
1.2018479
1.201848
1.201848
1.201848
1.201848
1.201848
1.201848
1.201848
1.201848
1.201848
1.201848
1.201848
1.201848
1.201848
1.201848
1.201848
1.201848
1.201848
1.201848
0.96087262
1.0035349
1.0449807
1.0834814
1.117133
1.1445109
1.1651696
1.1796472
1.1891127
1.1949171
1.1982666
1.2000909
1.2010301
1.2014871
1.2016972
1.2017884
1.2018258
1.2018402
1.2018454
1.2018472
1.2018478
1.201848
1.201848
1.201848
1.201848
1.201848
1.201848
1.201848
1.201848
1.201848
1.201848
1.201848
1.201848
1.201848
1.201848
1.201848
1.201848
1.201848
1.201848
1.201848
0.9538164
0.99569347
1.0365858
1.0749886
1.1091363
1.1375618
1.1596049
1.1755278
1.1862789
1.1930968
1.1971703
1.1994703
1.2006994
1.2013209
1.2016182
1.2017527
1.2018101
1.2018332
1.2018419
1.201845
1.2018461
1.2018464
1.2018465
1.2018465
1.2018465
1.2018465
1.2018465
1.2018465
1.2018465
1.2018465
1.2018465
1.2018465
1.2018465
1.2018465
1.2018465
1.2018465
1.2018465
1.2018465
1.2018465
1.2018465
0.95364513
0.99546723
1.0363427
1.0747453
1.1088814
1.1372837
1.1592936
1.1751948
1.1859514
1.1928005
1.1969282
1.1992909
1.2005777
1.2012452
1.2015749
1.2017297
1.2017988
1.201828
1.2018398
1.2018442
1.2018458
1.2018463
1.2018465
1.2018465
1.2018465
1.2018465
1.2018465
1.2018465
1.2018465
1.2018465
1.2018465
1.2018465
1.2018465
1.2018465
1.2018465
1.2018465
1.2018465
1.2018465
1.2018465
1.2018465
0.95301517
0.9945701
1.0351442
1.0732266
1.1070825
1.1353167
1.1573258
1.1733938
1.1844374
1.1916268
1.196084
1.1987254
1.2002241
1.2010384
1.2014618
1.2016718
1.2017711
1.2018156
1.2018345
1.2018421
1.201845
1.201846
1.2018464
1.2018465
1.2018465
1.2018465
1.2018465
1.2018465
1.2018465
1.2018465
1.2018465
1.2018465
1.2018465
1.2018465
1.2018465
1.2018465
1.2018465
1.2018465
1.2018465
1.2018465
0.95166807
0.99255797
1.0323005
1.0695588
1.1028196
1.1308616
1.1531219
1.1697842
1.1815928
1.189554
1.1946792
1.1978362
1.1996973
1.2007459
1.2013092
1.2015971
1.2017367
1.2018007
1.2018284
1.2018398
1.2018442
1.2018457
1.2018463
1.2018465
1.2018465
1.2018465
1.2018465
1.2018465
1.2018465
1.2018465
1.2018465
1.2018465
1.2018465
1.2018465
1.2018465
1.2018465
1.2018465
1.2018465
1.2018465
1.2018465
0.95040307
0.99062249
1.0295746
1.0661405
1.0989702
1.1269746
1.1495875
1.16687
1.1793973
1.1880315
1.1937011
1.1972509
1.1993692
1.2005728
1.2012229
1.2015561
1.2017181
1.2017926
1.2018251
1.2018385
1.2018437
1.2018456
1.2018462
1.2018464
1.2018465
1.2018465
1.2018465
1.2018465
1.2018465
1.2018465
1.2018465
1.2018465
1.2018465
1.2018465
1.2018465
1.2018465
1.2018465
1.2018465
1.2018465
1.2018465
0.95040308
0.99062249
1.0295747
1.0661405
1.0989702
1.1269746
1.1495875
1.16687
1.1793973
1.1880315
1.1937011
1.1972509
1.1993692
1.2005728
1.2012229
1.2015561
1.2017181
1.2017926
1.2018251
1.2018385
1.2018437
1.2018456
1.2018462
1.2018464
1.2018465
1.2018465
1.2018465
1.2018465
1.2018465
1.2018465
1.2018465
1.2018465
1.2018465
1.2018465
1.2018465
1.2018465
1.2018465
1.2018465
1.2018465
1.2018465
0.9516681
0.992558
1.0323006
1.0695588
1.1028196
1.1308616
1.1531219
1.1697842
1.1815928
1.189554
1.1946792
1.1978362
1.1996973
1.2007459
1.2013092
1.2015971
1.2017367
1.2018007
1.2018284
1.2018398
1.2018442
1.2018457
1.2018463
1.2018465
1.2018465
1.2018465
1.2018465
1.2018465
1.2018465
1.2018465
1.2018465
1.2018465
1.2018465
1.2018465
1.2018465
1.2018465
1.2018465
1.2018465
1.2018465
1.2018465
0.95301524
0.99457016
1.0351442
1.0732266
1.1070825
1.1353167
1.1573258
1.1733938
1.1844374
1.1916268
1.196084
1.1987254
1.2002241
1.2010384
1.2014618
1.2016718
1.2017711
1.2018156
1.2018345
1.2018421
1.201845
1.201846
1.2018464
1.2018465
1.2018465
1.2018465
1.2018465
1.2018465
1.2018465
1.2018465
1.2018465
1.2018465
1.2018465
1.2018465
1.2018465
1.2018465
1.2018465
1.2018465
1.2018465
1.2018465
0.95364516
0.99546726
1.0363427
1.0747453
1.1088814
1.1372838
1.1592936
1.1751948
1.1859514
1.1928005
1.1969282
1.1992909
1.2005777
1.2012452
1.2015749
1.2017297
1.2017988
1.201828
1.2018398
1.2018442
1.2018458
1.2018463
1.2018465
1.2018465
1.2018465
1.2018465
1.2018465
1.2018465
1.2018465
1.2018465
1.2018465
1.2018465
1.2018465
1.2018465
1.2018465
1.2018465
1.2018465
1.2018465
1.2018465
1.2018465
0.95381643
0.9956935
1.0365859
1.0749886
1.1091364
1.1375618
1.1596049
1.1755278
1.1862789
1.1930968
1.1971703
1.1994703
1.2006994
1.2013209
1.2016182
1.2017527
1.2018101
1.2018332
1.2018419
1.201845
1.2018461
1.2018464
1.2018465
1.2018465
1.2018465
1.2018465
1.2018465
1.2018465
1.2018465
1.2018465
1.2018465
1.2018465
1.2018465
1.2018465
1.2018465
1.2018465
1.2018465
1.2018465
1.2018465
1.2018465
0.94782292
0.98903227
1.029425
1.0676716
1.102133
1.1313395
1.1544876
1.1716244
1.1835051
1.1912523
1.1960182
1.1987926
1.2003237
1.2011243
1.2015209
1.2017069
1.2017894
1.2018238
1.2018374
1.2018425
1.2018442
1.2018448
1.201845
1.201845
1.201845
1.201845
1.201845
1.201845
1.201845
1.201845
1.201845
1.201845
1.201845
1.201845
1.201845
1.201845
1.201845
1.201845
1.201845
1.201845
0.94761059
0.98876067
1.029135
1.0673866
1.1018476
1.1310437
1.1541659
1.1712798
1.1831587
1.1909281
1.1957427
1.19858
1.200173
1.2010262
1.2014621
1.2016743
1.2017726
1.2018158
1.2018339
1.201841
1.2018437
1.2018446
1.2018449
1.201845
1.201845
1.201845
1.201845
1.201845
1.201845
1.201845
1.201845
1.201845
1.201845
1.201845
1.201845
1.201845
1.201845
1.201845
1.201845
1.201845
0.94691111
0.98778467
1.0278453
1.0657594
1.0999141
1.1289056
1.1519874
1.169238
1.1813934
1.1895157
1.1946912
1.1978487
1.1996971
1.2007361
1.2012963
1.2015855
1.201728
1.2017949
1.2018247
1.2018372
1.2018422
1.2018441
1.2018447
1.2018449
1.201845
1.201845
1.201845
1.201845
1.201845
1.201845
1.201845
1.201845
1.201845
1.201845
1.201845
1.201845
1.201845
1.201845
1.201845
1.201845
0.94549542
0.98568992
1.0248814
1.0618972
1.095344
1.1240135
1.1472377
1.1650277
1.1779589
1.1869191
1.1928611
1.1966417
1.1989506
1.2003027
1.20106
1.2014645
1.2016698
1.2017685
1.2018134
1.2018327
1.2018405
1.2018435
1.2018445
1.2018449
1.201845
1.201845
1.201845
1.201845
1.201845
1.201845
1.201845
1.201845
1.201845
1.201845
1.201845
1.201845
1.201845
1.201845
1.201845
1.201845
0.94418874
0.98370111
1.0220565
1.0582948
1.0911885
1.1196894
1.1431668
1.1615401
1.1752213
1.1849373
1.1915304
1.1958089
1.1984629
1.2000342
1.2009205
1.2013958
1.2016376
1.2017541
1.2018073
1.2018302
1.2018395
1.2018431
1.2018444
1.2018448
1.201845
1.201845
1.201845
1.201845
1.201845
1.201845
1.201845