/*--------------------------------*- C++ -*----------------------------------*\
| =========                 |                                                 |
| \\      /  F ield         | OpenFOAM: The Open Source CFD Toolbox           |
|  \\    /   O peration     | Version:  3.0.1                                 |
|   \\  /    A nd           | Web:      www.OpenFOAM.org                      |
|    \\/     M anipulation  |                                                 |
\*---------------------------------------------------------------------------*/
FoamFile
{
    version     2.0;
    format      ascii;
    class       volScalarField;
    location    "2576";
    object      T;
}
// * * * * * * * * * * * * * * * * * * * * * * * * * * * * * * * * * * * * * //

dimensions      [0 0 0 1 0 0 0];

internalField   nonuniform List<scalar> 
80000
(
332.90399
318.11431
307.85281
301.42725
297.70244
295.6745
294.62975
294.11808
293.87945
293.77344
293.72856
293.71051
293.70361
293.70111
293.70025
293.69997
293.69989
293.69986
293.69986
293.69986
293.69985
293.69985
293.69985
293.69985
293.69985
293.69985
293.69985
293.69986
293.69986
293.69986
293.69986
293.69986
293.69986
293.69986
293.69986
293.69986
293.69986
293.69986
293.69986
293.69986
332.83695
318.08784
307.85606
301.44485
297.7221
295.69074
294.64075
294.12475
293.88317
293.77536
293.72953
293.71097
293.70382
293.7012
293.70029
293.69999
293.69989
293.69987
293.69986
293.69986
293.69985
293.69985
293.69985
293.69985
293.69985
293.69986
293.69986
293.69986
293.69986
293.69986
293.69986
293.69986
293.69986
293.69986
293.69986
293.69986
293.69986
293.69986
293.69986
293.69987
332.67872
317.99086
307.79535
301.40194
297.68959
295.66662
294.62441
294.11481
293.87776
293.7727
293.72839
293.71055
293.70369
293.70117
293.70029
293.69999
293.6999
293.69987
293.69986
293.69986
293.69986
293.69986
293.69986
293.69986
293.69986
293.69986
293.69986
293.69986
293.69986
293.69986
293.69986
293.69986
293.69986
293.69986
293.69986
293.69986
293.69986
293.69986
293.69986
293.69987
332.44339
317.81334
307.649
301.28388
297.60402
295.6124
294.59437
294.10066
293.87233
293.77116
293.72818
293.71066
293.70381
293.70125
293.70032
293.70001
293.6999
293.69987
293.69986
293.69986
293.69986
293.69986
293.69986
293.69986
293.69986
293.69986
293.69986
293.69986
293.69986
293.69986
293.69986
293.69986
293.69986
293.69986
293.69986
293.69986
293.69986
293.69986
293.69986
293.69987
332.25019
317.65428
307.51378
301.18232
297.54023
295.57943
294.58084
294.0964
293.87148
293.77131
293.72847
293.71087
293.70393
293.7013
293.70035
293.70002
293.69991
293.69987
293.69986
293.69986
293.69986
293.69986
293.69986
293.69986
293.69986
293.69986
293.69986
293.69986
293.69986
293.69986
293.69986
293.69986
293.69986
293.69986
293.69986
293.69986
293.69986
293.69986
293.69986
293.69987
332.25019
317.65428
307.51378
301.18232
297.54023
295.57943
294.58084
294.0964
293.87148
293.77131
293.72847
293.71087
293.70393
293.7013
293.70035
293.70002
293.69991
293.69987
293.69986
293.69986
293.69986
293.69986
293.69986
293.69986
293.69986
293.69986
293.69986
293.69986
293.69986
293.69986
293.69986
293.69986
293.69986
293.69986
293.69986
293.69986
293.69986
293.69986
293.69986
293.69987
332.44339
317.81334
307.64899
301.28388
297.60402
295.61239
294.59437
294.10066
293.87233
293.77116
293.72818
293.71066
293.70381
293.70125
293.70032
293.70001
293.6999
293.69987
293.69986
293.69986
293.69986
293.69986
293.69986
293.69986
293.69986
293.69986
293.69986
293.69986
293.69986
293.69986
293.69986
293.69986
293.69986
293.69986
293.69986
293.69986
293.69986
293.69986
293.69986
293.69987
332.6787
317.99085
307.79534
301.40194
297.68958
295.66662
294.62441
294.11481
293.87776
293.7727
293.72839
293.71055
293.70369
293.70117
293.70029
293.69999
293.6999
293.69987
293.69986
293.69986
293.69986
293.69986
293.69986
293.69986
293.69986
293.69986
293.69986
293.69986
293.69986
293.69986
293.69986
293.69986
293.69986
293.69986
293.69986
293.69986
293.69986
293.69986
293.69986
293.69987
332.83695
318.08784
307.85606
301.44485
297.7221
295.69074
294.64075
294.12475
293.88317
293.77536
293.72953
293.71097
293.70382
293.7012
293.70029
293.69999
293.69989
293.69987
293.69986
293.69986
293.69985
293.69985
293.69985
293.69985
293.69985
293.69986
293.69986
293.69986
293.69986
293.69986
293.69986
293.69986
293.69986
293.69986
293.69986
293.69986
293.69986
293.69986
293.69986
293.69987
332.90399
318.11431
307.8528
301.42725
297.70244
295.6745
294.62975
294.11808
293.87945
293.77344
293.72856
293.71051
293.70361
293.70111
293.70025
293.69997
293.69989
293.69986
293.69986
293.69986
293.69985
293.69985
293.69985
293.69985
293.69985
293.69985
293.69985
293.69986
293.69986
293.69986
293.69986
293.69986
293.69986
293.69986
293.69986
293.69986
293.69986
293.69986
293.69986
293.69986
347.04238
331.27027
318.42316
308.90671
302.47661
298.47658
296.16126
294.90401
294.2599
293.94747
293.80386
293.74129
293.71545
293.70536
293.70163
293.70032
293.69989
293.69976
293.69972
293.69971
293.69971
293.69971
293.69971
293.69971
293.69971
293.69971
293.69971
293.69971
293.69971
293.69971
293.69971
293.69971
293.69971
293.69971
293.69971
293.69971
293.69971
293.69971
293.69971
293.69972
346.99294
331.25733
318.44142
308.94537
302.52385
298.52099
296.19711
294.9297
294.27653
293.95747
293.80943
293.74416
293.71684
293.70598
293.70189
293.70043
293.69993
293.69977
293.69973
293.69971
293.69971
293.69971
293.69971
293.69971
293.69971
293.69971
293.69971
293.69971
293.69971
293.69971
293.69971
293.69971
293.69971
293.69971
293.69971
293.69971
293.69971
293.69971
293.69972
293.69972
346.89966
331.22906
318.46241
308.99481
302.58093
298.57215
296.23632
294.9566
294.29349
293.96737
293.81485
293.74697
293.71821
293.70662
293.70217
293.70054
293.69998
293.69979
293.69973
293.69972
293.69971
293.69971
293.69971
293.69971
293.69971
293.69971
293.69971
293.69971
293.69971
293.69971
293.69971
293.69971
293.69971
293.69971
293.69971
293.69971
293.69971
293.69971
293.69972
293.69972
346.81279
331.22902
318.51871
309.07544
302.66137
298.63932
296.28621
294.99063
294.31512
293.98023
293.82201
293.7507
293.72004
293.70745
293.70253
293.70069
293.70003
293.69981
293.69974
293.69972
293.69971
293.69971
293.69971
293.69971
293.69971
293.69971
293.69971
293.69971
293.69971
293.69971
293.69971
293.69971
293.69971
293.69971
293.69971
293.69971
293.69971
293.69971
293.69972
293.69972
346.7638
331.24646
318.5734
309.14298
302.72556
298.69183
296.32463
295.01614
294.33065
293.98899
293.82664
293.75301
293.72112
293.70794
293.70273
293.70077
293.70007
293.69982
293.69974
293.69972
293.69971
293.69971
293.69971
293.69971
293.69971
293.69971
293.69971
293.69971
293.69971
293.69971
293.69971
293.69971
293.69971
293.69971
293.69971
293.69971
293.69971
293.69971
293.69972
293.69972
346.7638
331.24646
318.5734
309.14298
302.72556
298.69183
296.32463
295.01614
294.33065
293.98899
293.82664
293.75301
293.72112
293.70794
293.70273
293.70077
293.70007
293.69982
293.69974
293.69972
293.69971
293.69971
293.69971
293.69971
293.69971
293.69971
293.69971
293.69971
293.69971
293.69971
293.69971
293.69971
293.69971
293.69971
293.69971
293.69971
293.69971
293.69971
293.69972
293.69972
346.81278
331.22901
318.51871
309.07544
302.66137
298.63932
296.28621
294.99063
294.31512
293.98023
293.82201
293.7507
293.72004
293.70745
293.70253
293.70069
293.70003
293.69981
293.69974
293.69972
293.69971
293.69971
293.69971
293.69971
293.69971
293.69971
293.69971
293.69971
293.69971
293.69971
293.69971
293.69971
293.69971
293.69971
293.69971
293.69971
293.69971
293.69971
293.69972
293.69972
346.89964
331.22905
318.4624
308.99481
302.58093
298.57215
296.23632
294.9566
294.29349
293.96737
293.81485
293.74697
293.71821
293.70662
293.70217
293.70054
293.69998
293.69979
293.69973
293.69972
293.69971
293.69971
293.69971
293.69971
293.69971
293.69971
293.69971
293.69971
293.69971
293.69971
293.69971
293.69971
293.69971
293.69971
293.69971
293.69971
293.69971
293.69971
293.69972
293.69972
346.99294
331.25732
318.44141
308.94537
302.52385
298.52098
296.19711
294.92969
294.27653
293.95747
293.80943
293.74416
293.71684
293.70598
293.70189
293.70043
293.69993
293.69977
293.69973
293.69971
293.69971
293.69971
293.69971
293.69971
293.69971
293.69971
293.69971
293.69971
293.69971
293.69971
293.69971
293.69971
293.69971
293.69971
293.69971
293.69971
293.69971
293.69971
293.69972
293.69972
347.04237
331.27027
318.42316
308.90671
302.4766
298.47658
296.16126
294.90401
294.2599
293.94747
293.80386
293.74129
293.71545
293.70536
293.70163
293.70032
293.69989
293.69976
293.69972
293.69971
293.69971
293.69971
293.69971
293.69971
293.69971
293.69971
293.69971
293.69971
293.69971
293.69971
293.69971
293.69971
293.69971
293.69971
293.69971
293.69971
293.69971
293.69971
293.69971
293.69972
354.80452
339.01107
325.48979
314.69975
306.74961
301.34283
297.92994
295.91763
294.80304
294.22064
293.93314
293.7989
293.73961
293.71485
293.70508
293.70144
293.70017
293.69975
293.69961
293.69958
293.69957
293.69956
293.69956
293.69956
293.69956
293.69956
293.69956
293.69956
293.69956
293.69956
293.69956
293.69956
293.69956
293.69956
293.69956
293.69956
293.69956
293.69957
293.69957
293.69958
354.77688
339.01091
325.51304
314.74303
306.80789
301.40565
297.98855
295.96585
294.83852
294.2446
293.94791
293.80725
293.74396
293.71695
293.70602
293.70184
293.70032
293.6998
293.69963
293.69958
293.69957
293.69956
293.69956
293.69956
293.69956
293.69956
293.69956
293.69956
293.69956
293.69956
293.69956
293.69956
293.69956
293.69956
293.69956
293.69956
293.69956
293.69957
293.69957
293.69957
354.78094
339.08201
325.64279
314.9145
306.99384
301.57939
298.13169
296.07185
294.91011
294.28899
293.97342
293.82092
293.75081
293.72017
293.70745
293.70243
293.70055
293.69989
293.69966
293.69959
293.69957
293.69956
293.69956
293.69956
293.69956
293.69956
293.69956
293.69956
293.69956
293.69956
293.69956
293.69956
293.69956
293.69956
293.69956
293.69956
293.69957
293.69957
293.69957
293.69957
354.90906
339.33166
325.98875
315.30385
307.36659
301.89201
298.36634
296.23213
295.01099
294.34801
294.00573
293.83755
293.75889
293.72388
293.70906
293.70309
293.70081
293.69998
293.6997
293.6996
293.69957
293.69957
293.69956
293.69956
293.69956
293.69956
293.69956
293.69956
293.69956
293.69956
293.69956
293.69956
293.69956
293.69956
293.69956
293.69957
293.69957
293.69957
293.69957
293.69957
355.06582
339.59538
326.31904
315.64698
307.67303
302.13317
298.53681
296.34203
295.07639
294.38431
294.02469
293.84693
293.7633
293.72587
293.70991
293.70345
293.70095
293.70004
293.69972
293.69961
293.69958
293.69957
293.69956
293.69956
293.69956
293.69956
293.69956
293.69956
293.69956
293.69956
293.69956
293.69956
293.69956
293.69956
293.69956
293.69957
293.69957
293.69957
293.69957
293.69957
355.06582
339.59538
326.31904
315.64698
307.67303
302.13317
298.53681
296.34203
295.07639
294.38431
294.02469
293.84693
293.7633
293.72587
293.70991
293.70345
293.70095
293.70004
293.69972
293.69961
293.69958
293.69957
293.69956
293.69956
293.69956
293.69956
293.69956
293.69956
293.69956
293.69956
293.69956
293.69956
293.69956
293.69956
293.69956
293.69957
293.69957
293.69957
293.69957
293.69957
354.90905
339.33165
325.98874
315.30384
307.36659
301.89201
298.36634
296.23213
295.01099
294.34801
294.00573
293.83755
293.75889
293.72388
293.70906
293.70309
293.70081
293.69998
293.6997
293.6996
293.69957
293.69957
293.69956
293.69956
293.69956
293.69956
293.69956
293.69956
293.69956
293.69956
293.69956
293.69956
293.69956
293.69956
293.69956
293.69957
293.69957
293.69957
293.69957
293.69957
354.78091
339.08199
325.64278
314.91449
306.99384
301.57939
298.13169
296.07185
294.91011
294.28899
293.97342
293.82092
293.75081
293.72017
293.70745
293.70243
293.70055
293.69989
293.69966
293.69959
293.69957
293.69956
293.69956
293.69956
293.69956
293.69956
293.69956
293.69956
293.69956
293.69956
293.69956
293.69956
293.69956
293.69956
293.69956
293.69956
293.69957
293.69957
293.69957
293.69957
354.77687
339.0109
325.51303
314.74303
306.80789
301.40565
297.98855
295.96585
294.83852
294.2446
293.94791
293.80725
293.74396
293.71695
293.70602
293.70184
293.70032
293.6998
293.69963
293.69958
293.69957
293.69956
293.69956
293.69956
293.69956
293.69956
293.69956
293.69956
293.69956
293.69956
293.69956
293.69956
293.69956
293.69956
293.69956
293.69956
293.69956
293.69957
293.69957
293.69957
354.80452
339.01107
325.48979
314.69975
306.7496
301.34283
297.92994
295.91763
294.80304
294.22064
293.93314
293.7989
293.73961
293.71485
293.70508
293.70144
293.70017
293.69975
293.69961
293.69958
293.69957
293.69956
293.69956
293.69956
293.69956
293.69956
293.69956
293.69956
293.69956
293.69956
293.69956
293.69956
293.69956
293.69956
293.69956
293.69956
293.69956
293.69957
293.69957
293.69958
360.0949
344.35801
330.587
319.1755
310.3356
303.96812
299.69741
297.01997
295.44383
294.56924
294.11112
293.8843
293.77811
293.73113
293.71151
293.70377
293.7009
293.69989
293.69956
293.69946
293.69943
293.69942
293.69942
293.69942
293.69942
293.69942
293.69942
293.69942
293.69942
293.69942
293.69942
293.69942
293.69942
293.69942
293.69942
293.69942
293.69942
293.69942
293.69942
293.69943
360.09337
344.37682
330.61944
319.22112
310.39575
304.03746
299.76877
297.08511
295.49693
294.60871
294.13773
293.90063
293.78732
293.73592
293.71381
293.70479
293.70132
293.70005
293.69962
293.69948
293.69943
293.69942
293.69942
293.69942
293.69942
293.69942
293.69942
293.69942
293.69942
293.69942
293.69942
293.69942
293.69942
293.69942
293.69942
293.69942
293.69942
293.69942
293.69942
293.69943
360.18229
344.5344
330.84125
319.49556
310.69639
304.33101
300.02562
297.28849
295.64401
294.70641
294.19775
293.93492
293.80557
293.745
293.71804
293.70664
293.70208
293.70034
293.69972
293.69951
293.69944
293.69942
293.69942
293.69942
293.69942
293.69942
293.69942
293.69942
293.69942
293.69942
293.69942
293.69942
293.69942
293.69942
293.69942
293.69942
293.69942
293.69942
293.69942
293.69943
360.47305
344.97624
331.42205
320.15909
311.36071
304.9212
300.497
297.63112
295.87295
294.84808
294.27945
293.97901
293.82793
293.75568
293.72285
293.7087
293.70291
293.70066
293.69984
293.69955
293.69946
293.69943
293.69942
293.69942
293.69942
293.69942
293.69942
293.69942
293.69942
293.69942
293.69942
293.69942
293.69942
293.69942
293.69942
293.69942
293.69942
293.69942
293.69942
293.69943
360.77672
345.42732
331.98091
320.76101
311.92885
305.39696
300.85496
297.87603
296.02694
294.93787
294.32841
294.00416
293.84017
293.76136
293.72537
293.70977
293.70334
293.70083
293.6999
293.69957
293.69947
293.69943
293.69942
293.69942
293.69942
293.69942
293.69942
293.69942
293.69942
293.69942
293.69942
293.69942
293.69942
293.69942
293.69942
293.69942
293.69942
293.69942
293.69943
293.69943
360.77671
345.42732
331.98091
320.76101
311.92885
305.39696
300.85496
297.87603
296.02693
294.93787
294.32841
294.00416
293.84017
293.76136
293.72537
293.70977
293.70334
293.70083
293.6999
293.69957
293.69947
293.69943
293.69942
293.69942
293.69942
293.69942
293.69942
293.69942
293.69942
293.69942
293.69942
293.69942
293.69942
293.69942
293.69942
293.69942
293.69942
293.69942
293.69943
293.69943
360.47304
344.97623
331.42205
320.15909
311.3607
304.9212
300.497
297.63112
295.87295
294.84808
294.27945
293.97901
293.82793
293.75568
293.72285
293.7087
293.70291
293.70066
293.69984
293.69955
293.69946
293.69943
293.69942
293.69942
293.69942
293.69942
293.69942
293.69942
293.69942
293.69942
293.69942
293.69942
293.69942
293.69942
293.69942
293.69942
293.69942
293.69942
293.69942
293.69943
360.18226
344.53438
330.84124
319.49556
310.69638
304.33101
300.02562
297.28848
295.64401
294.70641
294.19775
293.93492
293.80557
293.745
293.71804
293.70664
293.70208
293.70034
293.69972
293.69951
293.69944
293.69942
293.69942
293.69942
293.69942
293.69942
293.69942
293.69942
293.69942
293.69942
293.69942
293.69942
293.69942
293.69942
293.69942
293.69942
293.69942
293.69942
293.69942
293.69943
360.09336
344.37681
330.61943
319.22112
310.39575
304.03746
299.76877
297.08511
295.49693
294.60871
294.13773
293.90063
293.78732
293.73592
293.71381
293.70479
293.70132
293.70005
293.69962
293.69948
293.69943
293.69942
293.69942
293.69942
293.69942
293.69942
293.69942
293.69942
293.69942
293.69942
293.69942
293.69942
293.69942
293.69942
293.69942
293.69942
293.69942
293.69942
293.69942
293.69943
360.09489
344.358
330.587
319.17549
310.33559
303.96812
299.69741
297.01997
295.44383
294.56924
294.11112
293.8843
293.77811
293.73113
293.71151
293.70377
293.7009
293.69989
293.69956
293.69946
293.69943
293.69942
293.69942
293.69942
293.69942
293.69942
293.69942
293.69942
293.69942
293.69942
293.69942
293.69942
293.69942
293.69942
293.69942
293.69942
293.69942
293.69942
293.69942
293.69943
364.11437
348.43954
334.55111
322.78033
313.36666
306.31644
301.37784
298.13604
296.13512
294.96993
294.32901
293.99561
293.83152
293.75519
293.72164
293.70773
293.70229
293.70029
293.69959
293.69937
293.6993
293.69928
293.69927
293.69927
293.69927
293.69927
293.69927
293.69927
293.69927
293.69927
293.69927
293.69927
293.69927
293.69927
293.69927
293.69927
293.69927
293.69927
293.69928
293.69928
364.13819
348.47961
334.59737
322.83189
313.42808
306.3872
301.45457
298.21133
296.20146
295.02327
294.36779
294.0212
293.84701
293.76379
293.72605
293.70982
293.70321
293.70066
293.69973
293.69942
293.69931
293.69928
293.69927
293.69927
293.69927
293.69927
293.69927
293.69927
293.69927
293.69927
293.69927
293.69927
293.69927
293.69927
293.69927
293.69927
293.69927
293.69927
293.69928
293.69928
364.29301
348.70498
334.89075
323.18553
313.81868
306.78021
301.81367
298.51057
296.43024
295.18435
294.47284
294.0849
293.883
293.78278
293.73542
293.71414
293.70508
293.70142
293.70002
293.69952
293.69935
293.69929
293.69928
293.69927
293.69927
293.69927
293.69927
293.69927
293.69927
293.69927
293.69927
293.69927
293.69927
293.69927
293.69927
293.69927
293.69927
293.69928
293.69928
293.69928
364.69357
349.27746
335.63743
324.05613
314.72354
307.6231
302.52356
299.05634
296.81647
295.43758
294.62743
294.1731
293.93015
293.80646
293.74661
293.71913
293.70718
293.70225
293.70034
293.69963
293.69939
293.6993
293.69928
293.69927
293.69927
293.69927
293.69927
293.69927
293.69927
293.69927
293.69927
293.69927
293.69927
293.69927
293.69927
293.69927
293.69927
293.69928
293.69928
293.69928
365.09079
349.84876
336.35968
324.86071
315.52051
308.32896
303.08741
299.46634
297.09019
295.60663
294.72469
294.22557
293.95685
293.81935
293.75254
293.72174
293.70828
293.7027
293.70051
293.6997
293.69941
293.69931
293.69928
293.69927
293.69927
293.69927
293.69927
293.69927
293.69927
293.69927
293.69927
293.69927
293.69927
293.69927
293.69927
293.69927
293.69927
293.69928
293.69928
293.69928
365.09078
349.84875
336.35968
324.86071
315.52051
308.32896
303.08741
299.46634
297.09019
295.60663
294.72469
294.22557
293.95685
293.81935
293.75254
293.72174
293.70828
293.7027
293.70051
293.6997
293.69941
293.69931
293.69928
293.69927
293.69927
293.69927
293.69927
293.69927
293.69927
293.69927
293.69927
293.69927
293.69927
293.69927
293.69927
293.69927
293.69927
293.69928
293.69928
293.69928
364.69356
349.27745
335.63742
324.05612
314.72354
307.6231
302.52356
299.05634
296.81647
295.43758
294.62743
294.1731
293.93015
293.80646
293.74661
293.71913
293.70718
293.70225
293.70034
293.69963
293.69939
293.6993
293.69928
293.69927
293.69927
293.69927
293.69927
293.69927
293.69927
293.69927
293.69927
293.69927
293.69927
293.69927
293.69927
293.69927
293.69927
293.69928
293.69928
293.69928
364.29298
348.70496
334.89074
323.18552
313.81868
306.7802
301.81366
298.51057
296.43024
295.18435
294.47284
294.0849
293.883
293.78278
293.73542
293.71414
293.70508
293.70142
293.70002
293.69952
293.69935
293.69929
293.69928
293.69927
293.69927
293.69927
293.69927
293.69927
293.69927
293.69927
293.69927
293.69927
293.69927
293.69927
293.69927
293.69927
293.69927
293.69928
293.69928
293.69928
364.13818
348.4796
334.59736
322.83189
313.42808
306.3872
301.45456
298.21133
296.20146
295.02327
294.36779
294.0212
293.84701
293.76379
293.72605
293.70982
293.70321
293.70066
293.69973
293.69942
293.69931
293.69928
293.69927
293.69927
293.69927
293.69927
293.69927
293.69927
293.69927
293.69927
293.69927
293.69927
293.69927
293.69927
293.69927
293.69927
293.69927
293.69927
293.69928
293.69928
364.11436
348.43953
334.5511
322.78032
313.36665
306.31644
301.37784
298.13604
296.13512
294.96993
294.32901
293.99561
293.83152
293.75519
293.72164
293.70773
293.70229
293.70029
293.69959
293.69937
293.6993
293.69928
293.69927
293.69927
293.69927
293.69927
293.69927
293.69927
293.69927
293.69927
293.69927
293.69927
293.69927
293.69927
293.69927
293.69927
293.69927
293.69927
293.69928
293.69928
367.35538
351.73835
337.7878
325.78476
315.97108
308.41272
302.9445
299.2265
296.84462
295.40267
294.57694
294.12916
293.89914
293.78736
293.73598
293.71369
293.70456
293.70104
293.69976
293.69932
293.69918
293.69914
293.69913
293.69913
293.69912
293.69912
293.69912
293.69912
293.69912
293.69912
293.69912
293.69912
293.69912
293.69912
293.69913
293.69913
293.69913
293.69913
293.69913
293.69914
367.402
351.79944
337.85053
325.84638
316.0368
308.48504
303.02378
299.30765
296.92021
295.46727
294.62688
294.16419
293.92167
293.80064
293.7432
293.71731
293.70625
293.70176
293.70005
293.69943
293.69922
293.69915
293.69913
293.69913
293.69912
293.69912
293.69912
293.69912
293.69912
293.69912
293.69912
293.69912
293.69912
293.69912
293.69913
293.69913
293.69913
293.69913
293.69913
293.69913
367.60753
352.07775
338.20015
326.26185
316.49783
308.95806
303.46935
299.6933
297.22803
295.69443
294.78259
294.26364
293.98093
293.83364
293.76038
293.72568
293.71006
293.70339
293.7007
293.69967
293.6993
293.69918
293.69914
293.69913
293.69912
293.69912
293.69912
293.69912
293.69912
293.69912
293.69912
293.69912
293.69912
293.69912
293.69913
293.69913
293.69913
293.69913
293.69913
293.69913
368.08193
352.73808
339.06113
327.28241
317.58905
310.0123
304.39524
300.43839
297.78149
296.07608
295.02798
294.41117
294.06403
293.87755
293.78219
293.73587
293.71454
293.70525
293.70143
293.69994
293.6994
293.69921
293.69915
293.69913
293.69913
293.69912
293.69912
293.69912
293.69912
293.69912
293.69912
293.69912
293.69912
293.69913
293.69913
293.69913
293.69913
293.69913
293.69913
293.69913
368.53838
353.38528
339.89391
328.23536
318.56931
310.92049
305.15773
301.02278
298.19327
296.34454
295.19082
294.50356
294.1133
293.90239
293.79408
293.7413
293.71692
293.70625
293.70183
293.7001
293.69946
293.69923
293.69916
293.69913
293.69913
293.69912
293.69912
293.69912
293.69912
293.69912
293.69912
293.69912
293.69913
293.69913
293.69913
293.69913
293.69913
293.69913
293.69913
293.69913
368.53837
353.38528
339.8939
328.23536
318.56931
310.92049
305.15773
301.02278
298.19327
296.34454
295.19081
294.50356
294.1133
293.90239
293.79408
293.7413
293.71692
293.70625
293.70183
293.7001
293.69946
293.69923
293.69916
293.69913
293.69913
293.69912
293.69912
293.69912
293.69912
293.69912
293.69912
293.69912
293.69913
293.69913
293.69913
293.69913
293.69913
293.69913
293.69913
293.69913
368.08192
352.73807
339.06112
327.2824
317.58905
310.01229
304.39524
300.43839
297.78149
296.07608
295.02798
294.41117
294.06403
293.87755
293.78219
293.73587
293.71454
293.70525
293.70143
293.69994
293.6994
293.69921
293.69915
293.69913
293.69913
293.69912
293.69912
293.69912
293.69912
293.69912
293.69912
293.69912
293.69912
293.69913
293.69913
293.69913
293.69913
293.69913
293.69913
293.69913
367.6075
352.07773
338.20014
326.26184
316.49782
308.95805
303.46935
299.6933
297.22803
295.69443
294.78259
294.26364
293.98093
293.83364
293.76038
293.72568
293.71006
293.70339
293.7007
293.69967
293.6993
293.69918
293.69914
293.69913
293.69912
293.69912
293.69912
293.69912
293.69912
293.69912
293.69912
293.69912
293.69912
293.69912
293.69913
293.69913
293.69913
293.69913
293.69913
293.69913
367.40199
351.79943
337.85052
325.84637
316.03679
308.48504
303.02378
299.30765
296.92021
295.46727
294.62688
294.16419
293.92167
293.80064
293.7432
293.71731
293.70625
293.70176
293.70005
293.69943
293.69922
293.69915
293.69913
293.69913
293.69912
293.69912
293.69912
293.69912
293.69912
293.69912
293.69912
293.69912
293.69912
293.69912
293.69913
293.69913
293.69913
293.69913
293.69913
293.69913
367.35537
351.73834
337.78779
325.78475
315.97107
308.41272
302.9445
299.2265
296.84462
295.40267
294.57694
294.12916
293.89914
293.78736
293.73598
293.71369
293.70456
293.70104
293.69976
293.69932
293.69918
293.69914
293.69913
293.69913
293.69912
293.69912
293.69912
293.69912
293.69912
293.69912
293.69912
293.69912
293.69912
293.69912
293.69913
293.69913
293.69913
293.69913
293.69913
293.69914
370.07237
354.5078
340.52279
328.358
318.24861
310.29621
304.39772
300.27456
297.55321
295.85287
294.84618
294.28083
293.97958
293.82748
293.75478
293.72192
293.70789
293.70225
293.70011
293.69935
293.69909
293.69901
293.69899
293.69898
293.69898
293.69898
293.69898
293.69898
293.69898
293.69898
293.69898
293.69898
293.69898
293.69898
293.69898
293.69898
293.69898
293.69898
293.69899
293.69899
370.13884
354.58837
340.60269
328.43232
318.32178
310.37206
304.47946
300.35966
297.63538
295.92636
294.90584
294.32483
294.00937
293.84599
293.76537
293.72752
293.71064
293.7035
293.70063
293.69955
293.69917
293.69904
293.69899
293.69898
293.69898
293.69898
293.69898
293.69898
293.69898
293.69898
293.69898
293.69898
293.69898
293.69898
293.69898
293.69898
293.69898
293.69898
293.69898
293.69899
370.38351
354.90821
340.99703
328.8971
318.83902
310.90981
304.99718
300.82066
298.01584
296.21784
295.11397
294.4637
294.096
293.89659
293.79304
293.74168
293.71742
293.70654
293.70191
293.70005
293.69935
293.6991
293.69901
293.69899
293.69898
293.69898
293.69898
293.69898
293.69898
293.69898
293.69898
293.69898
293.69898
293.69898
293.69898
293.69898
293.69898
293.69898
293.69898
293.69899
370.90779
355.62769
341.93637
330.02496
320.07148
312.13466
306.10909
301.74891
298.73328
296.73398
295.46098
294.68227
294.22514
293.9682
293.83034
293.75994
293.72583
293.71018
293.7034
293.70063
293.69956
293.69917
293.69904
293.699
293.69898
293.69898
293.69898
293.69898
293.69898
293.69898
293.69898
293.69898
293.69898
293.69898
293.69898
293.69898
293.69898
293.69898
293.69898
293.69899
371.40147
356.32252
342.84167
331.08311
321.1926
313.21123
307.05022
302.5025
299.2894
297.11427
295.70308
294.82635
294.30561
294.01057
293.85146
293.76996
293.73036
293.71215
293.70422
293.70095
293.69968
293.69922
293.69905
293.699
293.69898
293.69898
293.69898
293.69898
293.69898
293.69898
293.69898
293.69898
293.69898
293.69898
293.69898
293.69898
293.69898
293.69898
293.69899
293.69899
371.40147
356.32251
342.84167
331.08311
321.1926
313.21123
307.05022
302.5025
299.2894
297.11427
295.70308
294.82635
294.30561
294.01057
293.85146
293.76996
293.73036
293.71215
293.70422
293.70095
293.69968
293.69922
293.69905
293.699
293.69898
293.69898
293.69898
293.69898
293.69898
293.69898
293.69898
293.69898
293.69898
293.69898
293.69898
293.69898
293.69898
293.69898
293.69899
293.69899
370.90778
355.62768
341.93636
330.02495
320.07147
312.13466
306.10909
301.74891
298.73328
296.73398
295.46098
294.68227
294.22514
293.9682
293.83034
293.75994
293.72583
293.71018
293.7034
293.70063
293.69956
293.69917
293.69904
293.699
293.69898
293.69898
293.69898
293.69898
293.69898
293.69898
293.69898
293.69898
293.69898
293.69898
293.69898
293.69898
293.69898
293.69898
293.69898
293.69899
370.38348
354.90819
340.99702
328.89709
318.83902
310.90981
304.99718
300.82066
298.01584
296.21784
295.11397
294.46369
294.096
293.89659
293.79304
293.74168
293.71742
293.70654
293.70191
293.70005
293.69935
293.6991
293.69901
293.69899
293.69898
293.69898
293.69898
293.69898
293.69898
293.69898
293.69898
293.69898
293.69898
293.69898
293.69898
293.69898
293.69898
293.69898
293.69898
293.69899
370.13883
354.58836
340.60268
328.43231
318.32178
310.37206
304.47946
300.35965
297.63538
295.92635
294.90583
294.32483
294.00937
293.84599
293.76537
293.72752
293.71064
293.7035
293.70063
293.69955
293.69917
293.69904
293.69899
293.69898
293.69898
293.69898
293.69898
293.69898
293.69898
293.69898
293.69898
293.69898
293.69898
293.69898
293.69898
293.69898
293.69898
293.69898
293.69898
293.69899
370.07236
354.50779
340.52278
328.35799
318.24861
310.29621
304.39772
300.27455
297.55321
295.85287
294.84618
294.28083
293.97958
293.82748
293.75478
293.72192
293.70789
293.70225
293.70011
293.69935
293.69909
293.69901
293.69899
293.69898
293.69898
293.69898
293.69898
293.69898
293.69898
293.69898
293.69898
293.69898
293.69898
293.69898
293.69898
293.69898
293.69898
293.69898
293.69899
293.69899
372.41185
356.89481
342.89092
330.60772
320.27031
312.00227
305.74644
301.27443
298.25008
296.31044
295.12968
294.44665
294.07108
293.87507
293.77805
293.73258
293.71244
293.70401
293.70069
293.69946
293.69903
293.69889
293.69885
293.69884
293.69883
293.69883
293.69883
293.69883
293.69883
293.69883
293.69883
293.69883
293.69883
293.69883
293.69883
293.69883
293.69883
293.69884
293.69884
293.69884
372.49529
356.99284
342.98754
330.69601
320.35326
312.08386
305.83168
301.36309
298.33739
296.39109
295.19768
294.4989
294.10801
293.89906
293.79243
293.74055
293.71653
293.70597
293.70156
293.69982
293.69917
293.69894
293.69886
293.69884
293.69883
293.69883
293.69883
293.69883
293.69883
293.69883
293.69883
293.69883
293.69883
293.69883
293.69883
293.69883
293.69883
293.69884
293.69884
293.69884
372.77045
357.34558
343.41791
331.20091
320.91641
312.67494
306.41002
301.88934
298.78319
296.74302
295.45751
294.67869
294.22467
293.97008
293.83299
293.76227
293.72743
293.71108
293.70381
293.70074
293.69952
293.69907
293.69891
293.69885
293.69884
293.69883
293.69883
293.69883
293.69883
293.69883
293.69883
293.69883
293.69883
293.69883
293.69883
293.69883
293.69883
293.69884
293.69884
293.69884
373.3286
358.10499
344.41106
332.40552
322.25537
314.03579
307.67858
302.98034
299.65432
297.39221