/*--------------------------------*- C++ -*----------------------------------*\
| =========                 |                                                 |
| \\      /  F ield         | OpenFOAM: The Open Source CFD Toolbox           |
|  \\    /   O peration     | Version:  4.0                                   |
|   \\  /    A nd           | Web:      www.OpenFOAM.org                      |
|    \\/     M anipulation  |                                                 |
\*---------------------------------------------------------------------------*/
FoamFile
{
    version     2.0;
    format      ascii;
    class       volScalarField;
    location    "2000";
    object      T;
}
// * * * * * * * * * * * * * * * * * * * * * * * * * * * * * * * * * * * * * //

dimensions      [0 0 0 1 0 0 0];

internalField   nonuniform List<scalar> 
100000
(
362.11052
357.60915
352.83863
347.84655
342.69573
337.46308
332.23697
327.11279
322.1873
317.55191
313.28627
309.45232
306.09023
303.21666
300.82567
298.89106
297.37121
296.21402
295.36208
294.7572
294.34449
294.07492
293.9071
293.80805
293.75293
293.72415
293.71016
293.70387
293.70127
293.7003
293.69997
293.69986
293.69984
293.69983
293.69983
293.69983
293.69983
293.69983
293.69983
293.69983
293.69983
293.69983
293.69983
293.69983
293.69983
293.69983
293.69983
293.69983
293.69983
293.69983
361.97238
357.47066
352.70093
347.71114
342.56431
337.33751
332.11898
327.00387
322.08845
317.46361
313.20817
309.38333
306.02886
303.16144
300.77516
298.84468
297.32891
296.17619
295.32928
294.73004
294.32314
294.05912
293.8962
293.80105
293.74877
293.72189
293.70905
293.70337
293.70107
293.70023
293.69994
293.69986
293.69983
293.69983
293.69983
293.69983
293.69983
293.69983
293.69983
293.69983
293.69983
293.69983
293.69983
293.69983
293.69983
293.69983
293.69983
293.69983
293.69983
293.69983
361.5837
357.05002
352.25662
347.25203
342.09949
336.87567
331.66794
326.57014
321.67694
317.07759
312.84966
309.05357
305.72877
302.89193
300.53738
298.63952
297.15686
296.03682
295.22094
294.64971
294.26666
294.02166
293.87287
293.78751
293.74152
293.71832
293.70742
293.7027
293.70082
293.70014
293.69992
293.69985
293.69983
293.69983
293.69983
293.69983
293.69983
293.69983
293.69983
293.69983
293.69983
293.69983
293.69983
293.69983
293.69983
293.69983
293.69983
293.69983
293.69983
293.69983
359.71592
355.19631
350.4454
345.50888
340.44607
335.32892
330.23982
325.26781
320.50343
316.03276
311.93093
308.25668
305.0486
302.32263
300.07215
298.27002
296.87303
295.82701
295.07241
294.54994
294.20316
293.98335
293.85111
293.77593
293.73569
293.71558
293.70624
293.70223
293.70066
293.70009
293.6999
293.69985
293.69983
293.69983
293.69983
293.69983
293.69983
293.69983
293.69983
293.69983
293.69983
293.69983
293.69983
293.69983
293.69983
293.69983
293.69983
293.69983
293.69983
293.69983
352.71795
349.0131
345.03198
340.81447
336.41481
331.90076
327.35077
322.85574
318.51036
314.40787
310.62336
307.21545
304.23151
301.69414
299.60229
297.92762
296.63238
295.66408
294.96623
294.48254
294.16207
293.95974
293.83829
293.76936
293.73257
293.71421
293.70568
293.70202
293.70058
293.70006
293.69989
293.69985
293.69983
293.69983
293.69983
293.69983
293.69983
293.69983
293.69983
293.69983
293.69983
293.69983
293.69983
293.69983
293.69983
293.69983
293.69983
293.69983
293.69983
293.69983
352.71695
349.01206
345.03052
340.81125
336.409
331.89381
327.34771
322.85887
318.51769
314.40994
310.62004
307.21708
304.24013
301.70679
299.61184
297.93611
296.63731
295.6661
294.96679
294.48318
294.16271
293.96005
293.83846
293.76944
293.73261
293.71422
293.70569
293.70203
293.70058
293.70006
293.69989
293.69985
293.69983
293.69983
293.69983
293.69983
293.69983
293.69983
293.69983
293.69983
293.69983
293.69983
293.69983
293.69983
293.69983
293.69983
293.69983
293.69983
293.69983
293.69983
359.71185
355.19255
350.44187
345.50553
340.44291
335.32613
330.23771
325.26665
320.50328
316.03341
311.93245
308.25952
305.05289
302.32795
300.07772
298.2753
296.87753
295.83053
295.07494
294.55113
294.20352
293.98355
293.85107
293.77586
293.73564
293.71556
293.70623
293.70223
293.70065
293.70009
293.6999
293.69985
293.69983
293.69983
293.69983
293.69983
293.69983
293.69983
293.69983
293.69983
293.69983
293.69983
293.69983
293.69983
293.69983
293.69983
293.69983
293.69983
293.69983
293.69983
361.58168
357.0483
352.25516
347.25079
342.09841
336.87471
331.66706
326.56931
321.67616
317.07687
312.84903
309.05305
305.72836
302.89159
300.53708
298.63926
297.15662
296.03659
295.22069
294.6494
294.26634
294.0214
293.8729
293.78757
293.74157
293.71832
293.70743
293.7027
293.70082
293.70014
293.69992
293.69985
293.69983
293.69983
293.69983
293.69983
293.69983
293.69983
293.69983
293.69983
293.69983
293.69983
293.69983
293.69983
293.69983
293.69983
293.69983
293.69983
293.69983
293.69983
361.98367
357.48086
352.71006
347.71922
342.57139
337.34362
332.12416
327.0082
322.09198
317.46642
313.21033
309.38493
306.02997
303.16215
300.77556
298.84486
297.32895
296.17615
295.32921
294.72996
294.32307
294.05908
293.89619
293.80106
293.74878
293.7219
293.70905
293.70338
293.70108
293.70023
293.69994
293.69986
293.69983
293.69983
293.69983
293.69983
293.69983
293.69983
293.69983
293.69983
293.69983
293.69983
293.69983
293.69983
293.69983
293.69983
293.69983
293.69983
293.69983
293.69983
362.12478
357.62229
352.8506
347.85732
342.70528
337.47141
332.2441
327.11876
322.19218
317.55578
313.28923
309.45448
306.09173
303.21764
300.82625
298.89136
297.37133
296.21405
295.36206
294.75717
294.34447
294.07491
293.90709
293.80805
293.75293
293.72415
293.71016
293.70387
293.70127
293.7003
293.69997
293.69986
293.69984
293.69983
293.69983
293.69983
293.69983
293.69983
293.69983
293.69983
293.69983
293.69983
293.69983
293.69983
293.69983
293.69983
293.69983
293.69983
293.69983
293.69983
377.73311
373.85775
369.70858
365.287
360.60213
355.67304
350.53104
345.22149
339.80494
334.35678
328.96546
323.72832
318.74582
314.11429
309.91855
306.22387
303.07087
300.47153
298.40864
296.83819
295.69574
294.90831
294.39404
294.07651
293.89189
293.79132
293.74028
293.71629
293.70591
293.70181
293.70034
293.69986
293.69973
293.69969
293.69968
293.69968
293.69968
293.69968
293.69968
293.69968
293.69968
293.69968
293.69968
293.69968
293.69968
293.69968
293.69968
293.69968
293.69968
293.69968
377.46842
373.59154
369.44165
365.02075
360.33852
355.41456
350.28048
344.98185
339.57905
334.14709
328.77345
323.55427
318.58886
313.9728
309.79019
306.10713
302.96499
300.37676
298.32565
296.76751
295.64148
294.87
294.36843
294.0603
293.88231
293.78608
293.73765
293.71508
293.70541
293.70162
293.70028
293.69984
293.69972
293.69969
293.69968
293.69968
293.69968
293.69968
293.69968
293.69968
293.69968
293.69968
293.69968
293.69968
293.69968
293.69968
293.69968
293.69968
293.69968
293.69968
376.88248
372.951
368.75565
364.29944
359.59276
354.65549
349.51911
344.22845
338.84276
333.4356
328.09305
322.91022
317.98584
313.41544
309.28368
305.65679
302.57582
300.05354
298.06675
296.57746
295.51077
294.78424
294.31522
294.02934
293.8655
293.77761
293.73371
293.7134
293.70476
293.70139
293.7002
293.69982
293.69972
293.69969
293.69968
293.69968
293.69968
293.69968
293.69968
293.69968
293.69968
293.69968
293.69968
293.69968
293.69968
293.69968
293.69968
293.69968
293.69968
293.69968
374.48945
370.56629
366.40339
362.00202
357.37018
352.52487
347.49454
342.32114
337.0614
331.78676
326.5821
321.54241
316.76676
312.35028
308.37575
304.9055
301.97416
299.59429
297.73836
296.35308
295.36586
294.6961
294.26493
294.0025
293.85211
293.77139
293.73104
293.71234
293.70436
293.70126
293.70016
293.69981
293.69971
293.69969
293.69968
293.69968
293.69968
293.69968
293.69968
293.69968
293.69968
293.69968
293.69968
293.69968
293.69968
293.69968
293.69968
293.69968
293.69968
293.69968
367.23066
364.06009
360.60264
356.85593
352.82626
348.53061
344.00061
339.28102
334.43151
329.52593
324.64982
319.90806
315.40876
311.24397
307.49301
304.22255
301.46998
299.23944
297.50155
296.20297
295.2758
294.64502
294.23743
293.98849
293.84531
293.76825
293.72963
293.71174
293.70413
293.70118
293.70013
293.69981
293.69971
293.69969
293.69968
293.69968
293.69968
293.69968
293.69968
293.69968
293.69968
293.69968
293.69968
293.69968
293.69968
293.69968
293.69968
293.69968
293.69968
293.69968
367.23141
364.06091
360.60402
356.85906
352.83247
348.54062
344.01192
339.28771
334.4303
329.51873
324.64801
319.91267
315.40963
311.24086
307.49243
304.22351
301.47237
299.24053
297.50135
296.20293
295.27592
294.64514
294.23768
293.98866
293.84547
293.76828
293.72963
293.71174
293.70413
293.70118
293.70013
293.69981
293.69971
293.69969
293.69968
293.69968
293.69968
293.69968
293.69968
293.69968
293.69968
293.69968
293.69968
293.69968
293.69968
293.69968
293.69968
293.69968
293.69968
293.69968
374.49218
370.56902
366.40624
362.00514
357.37371
352.52884
347.49877
342.3252
337.0649
331.78966
326.58473
321.54489
316.76877
312.35176
308.37716
304.90758
301.97889
299.59669
297.73963
296.35364
295.36598
294.69598
294.26469
294.00224
293.85192
293.77133
293.73102
293.71233
293.70436
293.70125
293.70016
293.69981
293.69971
293.69969
293.69968
293.69968
293.69968
293.69968
293.69968
293.69968
293.69968
293.69968
293.69968
293.69968
293.69968
293.69968
293.69968
293.69968
293.69968
293.69968
376.88878
372.95725
368.76179
364.3054
359.59848
354.66092
349.5242
344.23318
338.84716
333.43969
328.09686
322.91374
317.98908
313.41845
309.28654
305.65946
302.57812
300.05378
298.06743
296.57805
295.51115
294.78445
294.31536
294.02944
293.86557
293.77766
293.73373
293.71341
293.70476
293.7014
293.7002
293.69982
293.69972
293.69969
293.69968
293.69968
293.69968
293.69968
293.69968
293.69968
293.69968
293.69968
293.69968
293.69968
293.69968
293.69968
293.69968
293.69968
293.69968
293.69968
377.48565
373.60766
369.45667
365.03465
360.35129
355.42621
350.29102
344.99132
339.58749
334.15457
328.78001
323.55999
318.59379
313.97697
309.79365
306.1099
302.96711
300.37832
298.32686
296.76847
295.6421
294.87032
294.36861
294.06041
293.88238
293.78612
293.73767
293.71509
293.70541
293.70162
293.70028
293.69984
293.69972
293.69969
293.69968
293.69968
293.69968
293.69968
293.69968
293.69968
293.69968
293.69968
293.69968
293.69968
293.69968
293.69968
293.69968
293.69968
293.69968
293.69968
377.75297
373.87648
369.72613
365.30331
360.61716
355.68674
350.54339
345.23248
339.81458
334.36511
328.97251
323.73417
318.75056
314.11802
309.92139
306.22595
303.07233
300.47251
298.40927
296.83856
295.69594
294.9085
294.39418
294.07659
293.89193
293.79134
293.74029
293.71629
293.70591
293.70181
293.70034
293.69986
293.69973
293.69969
293.69968
293.69968
293.69968
293.69968
293.69968
293.69968
293.69968
293.69968
293.69968
293.69968
293.69968
293.69968
293.69968
293.69968
293.69968
293.69968
384.55479
380.96623
377.11965
373.00849
368.62998
363.98673
359.08868
353.95557
348.61941
343.12728
337.54316
331.94863
326.44143
321.13153
316.13313
311.55535
307.49032
304.0025
301.12056
298.83526
297.10198
295.84932
294.98993
294.43218
294.09107
293.89545
293.7908
293.73887
293.71512
293.70517
293.70138
293.70008
293.69968
293.69957
293.69954
293.69954
293.69953
293.69953
293.69953
293.69953
293.69953
293.69953
293.69954
293.69954
293.69954
293.69954
293.69954
293.69954
293.69954
293.69954
384.25253
380.66152
376.81231
372.69879
368.31869
363.67506
358.77841
353.64891
348.3191
342.83626
337.26445
331.68524
326.19632
320.90701
315.93161
311.37855
307.33926
303.87721
301.02048
298.75851
297.0462
295.81141
294.96565
294.41757
294.08292
293.89125
293.7888
293.73799
293.71476
293.70504
293.70134
293.70006
293.69967
293.69957
293.69954
293.69954
293.69954
293.69954
293.69954
293.69954
293.69954
293.69954
293.69954
293.69954
293.69954
293.69954
293.69954
293.69954
293.69954
293.69954
383.69082
380.04544
376.15035
372.00051
367.59452
362.93618
358.03638
352.91549
347.60589
342.1545
336.62465
331.09677
325.66693
320.4426
315.53537
311.051
307.07813
303.67769
300.87526
298.65931
296.98323
295.77438
294.94574
294.4079
294.07873
293.88965
293.78827
293.73784
293.71473
293.70504
293.70134
293.70007
293.69968
293.69957
293.69954
293.69954
293.69954
293.69954
293.69954
293.69954
293.69954
293.69954
293.69954
293.69954
293.69954
293.69954
293.69954
293.69954
293.69954
293.69954
381.46971
377.83606
373.97789
369.88893
365.56608
361.01106
356.2324
351.24786
346.087
340.79371
335.4281
330.06702
324.8026
319.73793
314.98002
310.63029
306.77381
303.46953
300.74258
298.58184
296.94294
295.7567
294.94013
294.40763
294.08009
293.89103
293.7892
293.73833
293.71493
293.70509
293.70134
293.70006
293.69967
293.69957
293.69954
293.69954
293.69954
293.69954
293.69954
293.69954
293.69954
293.69954
293.69954
293.69954
293.69954
293.69954
293.69954
293.69954
293.69954
293.69954
374.48384
371.59764
368.44251
365.00967
361.29463
357.29851
353.03003
348.5078
343.76238
338.83855
333.80079
328.72986
323.72271
318.88262
314.31766
310.13097
306.40871
303.2121
300.569
298.47216
296.87794
295.7203
294.92022
294.39682
294.07416
293.88773
293.78737
293.73738
293.71448
293.70491
293.70128
293.70004
293.69967
293.69957
293.69954
293.69954
293.69954
293.69954
293.69954
293.69954
293.69954
293.69954
293.69954
293.69954
293.69954
293.69954
293.69954
293.69954
293.69954
293.69954
374.48616
371.59998
368.44486
365.0119
361.29628
357.29913
353.02941
348.50641
343.76267
338.84338
333.81038
328.74196
323.73089
318.88552
314.31686
310.12892
306.40925
303.21664
300.57592
298.47601
296.8783
295.71868
294.91883
294.39597
294.07373
293.88754
293.78732
293.73738
293.7145
293.70492
293.70128
293.70004
293.69967
293.69957
293.69954
293.69954
293.69954
293.69954
293.69954
293.69954
293.69954
293.69954
293.69954
293.69954
293.69954
293.69954
293.69954
293.69954
293.69954
293.69954
381.47651
377.84296
373.9849
369.89607
365.57337
361.01852
356.24007
351.25581
346.09536
340.80256
335.4374
330.07657
324.81201
319.74692
314.98851
310.63839
306.78163
303.47666
300.74851
298.58604
296.94543
295.75792
294.94064
294.40781
294.08016
293.89109
293.78923
293.73834
293.71494
293.70509
293.70134
293.70006
293.69967
293.69957
293.69954
293.69954
293.69954
293.69954
293.69954
293.69954
293.69954
293.69954
293.69954
293.69954
293.69954
293.69954
293.69954
293.69954
293.69954
293.69954
383.70029
380.05496
376.15989
372.01003
367.604
362.94558
358.0457
352.92472
347.61503
342.16354
336.63358
331.10555
325.67551
320.45088
315.54327
311.0584
307.08488
303.68357
300.88022
298.66323
296.9861
295.77632
294.94697
294.40864
294.07915
293.88988
293.78839
293.7379
293.71475
293.70505
293.70135
293.70007
293.69968
293.69957
293.69954
293.69954
293.69954
293.69954
293.69954
293.69954
293.69954
293.69954
293.69954
293.69954
293.69954
293.69954
293.69954
293.69954
293.69954
293.69954
384.27008
380.67818
376.82807
372.71363
368.3326
363.68803
358.79042
353.65994
348.32916
342.84535
337.27259
331.69245
326.20265
320.91251
315.93634
311.38258
307.34266
303.88004
301.02279
298.76035
297.04759
295.81239
294.96631
294.41798
294.08316
293.89138
293.78886
293.73802
293.71477
293.70504
293.70134
293.70006
293.69967
293.69957
293.69954
293.69954
293.69954
293.69954
293.69954
293.69954
293.69954
293.69954
293.69954
293.69954
293.69954
293.69954
293.69954
293.69954
293.69954
293.69954
384.57418
380.9847
377.13716
373.02498
368.6454
364.00102
359.1018
353.96747
348.63006
343.13665
337.55124
331.95545
326.44702
321.13598
316.13655
311.55787
307.49211
304.00371
301.12134
298.83574
297.10226
295.84949
294.99004
294.43224
294.0911
293.89547
293.7908
293.73887
293.71512
293.70517
293.70138
293.70008
293.69968
293.69957
293.69954
293.69954
293.69953
293.69953
293.69953
293.69953
293.69953
293.69953
293.69954
293.69954
293.69954
293.69954
293.69954
293.69954
293.69954
293.69954
388.35567
384.92988
381.25762
377.33077
373.14367
368.69428
363.98555
359.02744
353.83905
348.4515
342.91056
337.279
331.63785
326.08598
320.73555
315.70544
311.1099
307.04567
303.57917
300.73826
298.50881
296.83909
295.65016
294.84802
294.33724
294.03173
293.86095
293.77222
293.72964
293.71088
293.70336
293.70062
293.69973
293.69947
293.69941
293.69939
293.69939
293.69939
293.69939
293.69939
293.69939
293.69939
293.69939
293.69939
293.69939
293.69939
293.69939
293.69939
293.69939
293.69939
388.04325
384.61457
380.93865
377.00765
372.81627
368.36274
363.65044
358.68962
353.4999
348.1127
342.57419
336.94773
331.31523
325.77608
320.44397
315.43828
310.87324
306.8445
303.41682
300.61482
298.42146
296.78266
295.61719
294.83111
294.33016
294.02975
293.86104
293.77283
293.73015
293.71118
293.70349
293.70068
293.69975
293.69948
293.69941
293.69939
293.69939
293.69939
293.69939
293.69939
293.69939
293.69939
293.69939
293.69939
293.69939
293.69939
293.69939
293.69939
293.69939
293.69939
387.51682
384.03663
380.31683
376.35057
372.13332
367.66399
362.94642
357.99124
352.8183
347.4593
341.96062
336.38565
330.81587
325.34968
320.09812
315.17686
310.695
306.74241
303.37828
300.62361
298.45992
296.83422
295.66915
294.87536
294.3632
294.05169
293.87408
293.77975
293.73344
293.71262
293.70405
293.70086
293.69981
293.69949
293.69941
293.69939
293.69939
293.69939
293.69939
293.69939
293.69939
293.69939
293.69939
293.69939
293.69939
293.69939
293.69939
293.69939
293.69939
293.69939
385.50008
382.03485
378.3566
374.4575
370.33164
365.97625
361.39318
356.59091
351.58675
346.40951
341.10206
335.72327
330.34866
325.06884
319.98622
315.20731
310.83358
306.9508
303.61859
300.86318
298.67472
297.01004
295.80121
294.96636
294.42053
294.08465
293.89131
293.7879
293.73684
293.7138
293.70439
293.70095
293.69982
293.6995
293.69941
293.69939
293.69939
293.69939
293.69939
293.69939
293.69939
293.69939
293.69939
293.69939
293.69939
293.69939
293.69939
293.69939
293.69939
293.69939
378.78086
376.06718
373.09885
369.86584
366.36109
362.5816
358.5296
354.21403
349.65189
344.86908
339.91002
334.83725
329.72947
324.66636
319.7588
315.10927
310.81965
306.98443
303.67051
300.91487
298.72091
297.04684
295.82741
294.98274
294.42788
294.08657
293.89086
293.78693
293.73624
293.7135
293.70428
293.70091
293.69981
293.69949
293.69941
293.69939
293.69939
293.69939
293.69939
293.69939
293.69939
293.69939
293.69939
293.69939
293.69939
293.69939
293.69939
293.69939
293.69939
293.69939
378.78522
376.07152
373.1031
369.86985
366.36449
362.58385
358.53028
354.21366
349.65408
344.87917
339.93064
334.86775
329.7615
324.69614
319.77857
315.11944
310.83013
306.99914
303.69289
300.94203
298.73858
297.05219
295.82324
294.97429
294.42238
294.08449
293.89038
293.78711
293.73626
293.71353
293.70429
293.70091
293.69981
293.69949
293.69941
293.69939
293.69939
293.69939
293.69939
293.69939
293.69939
293.69939
293.69939
293.69939
293.69939
293.69939
293.69939
293.69939
293.69939
293.69939
385.51149
382.04661
378.36879
374.47021
370.34499
365.99038
361.40828
356.60725
351.60473
346.42952
341.12428
335.74752
330.37426
325.09509
320.01217
315.23238
310.85761
306.97343
303.63905
300.88011
298.68672
297.01712
295.80466
294.96792
294.42143
294.0849
293.8915
293.78792
293.73691
293.71382
293.7044
293.70095
293.69982
293.6995
293.69941
293.69939
293.69939
293.69939
293.69939
293.69939
293.69939
293.69939
293.69939
293.69939
293.69939
293.69939
293.69939
293.69939
293.69939
293.69939
387.52929
384.04938
380.32986
376.36387
372.1469
367.67788
362.96065
358.00587
352.83338
347.47488
341.97673
336.40226
330.83285
325.36683
320.11516
315.19342
310.71066
306.75673
303.39079
300.63388
298.46767
296.8395
295.67237
294.87712
294.36407
294.05207
293.87424
293.77982
293.73347
293.71263
293.70406
293.70087
293.69981
293.69949
293.69941
293.69939
293.69939
293.69939
293.69939
293.69939
293.69939
293.69939
293.69939
293.69939
293.69939
293.69939
293.69939
293.69939
293.69939
293.69939
388.06122
384.63186
380.95525
377.02355
372.83145
368.37719
363.66412
358.70253
353.51201
348.12401
342.58468
336.95739
331.32408
325.78413
320.45126
315.44482
310.87906
306.8496
303.4212
300.61845
298.42432
296.78475
295.61861
294.83199
294.33066
294.03001
293.86117
293.77288
293.73017
293.71119
293.7035
293.70068
293.69975
293.69948
293.69941
293.69939
293.69939
293.69939
293.69939
293.69939
293.69939
293.69939
293.69939
293.69939
293.69939
293.69939
293.69939
293.69939
293.69939
293.69939
388.37427
384.94777
381.27475
377.34709
373.15913
368.70881
363.99911
359.03996
353.85048
348.46179
342.91965
337.28687
331.6445
326.09144
320.73987
315.70873
311.11229
307.04733
303.58026
300.73895
298.50922
296.83932
295.65028
294.84808
294.33727
294.03173
293.86095
293.77222
293.72964
293.71088
293.70336
293.70062
293.69973
293.69947
293.69941
293.69939
293.69939
293.69939
293.69939
293.69939
293.69939
293.69939
293.69939
293.69939
293.69939
293.69939
293.69939
293.69939
293.69939
293.69939
390.87742
387.56069
384.00556
380.20343
376.14758
371.83406
367.26283
362.43931
357.37625
352.09624
346.63427
341.04047
335.3823
329.74588
324.234
318.96238
314.05072
309.61079
305.73236
302.47155
299.84237
297.8164
296.33004
295.29525
294.6142
294.1924
293.94779
293.81568
293.74962
293.71923
293.70646
293.7016
293.69993
293.69942
293.69928
293.69925
293.69924
293.69924
293.69924
293.69924
293.69924
293.69924
293.69924
293.69924
293.69924
293.69924
293.69924
293.69924
293.69924
293.69924
390.56797
387.24817
383.68887
379.88165
375.82001
371.50017
366.92233
362.09208
357.02251
351.73642
346.26917
340.67159
335.01236
329.37876
323.8761
318.62184
313.73705
309.33347
305.49972
302.28806
299.70818
297.72729
296.27732
295.26877
294.60439
294.19136
293.95011
293.8184
293.75163
293.72039
293.70702
293.70183
293.70001
293.69945
293.69929
293.69925
293.69924
293.69924
293.69924
293.69924
293.69924
293.69924
293.69924
293.69924
293.69924
293.69924
293.69924
293.69924
293.69924
293.69924
390.07864
386.71045
383.10991
379.2695
375.18342
370.84848
366.26525
361.4397
356.38515
351.12487
345.6948
340.1464
334.54876
328.98921
323.57138
318.40956
313.61932
309.3052
305.54771
302.39266
299.84594
297.87478
296.41538
295.38454
294.69212
294.25161
293.98757
293.83948
293.76232
293.72537
293.70908
293.70257
293.70025
293.69951
293.69931
293.69926
293.69925
293.69924
293.69924
293.69924
293.69924
293.69924
293.69924
293.69924
293.69924
293.69924
293.69924
293.69924
293.69924
293.69924
388.21288
384.86195
381.30635
377.53774
373.54916
369.33593
364.89698
360.23638
355.36533
350.30454
345.08674
339.75898
334.38398
329.03986
323.81873
318.82253
314.15494
309.91222
306.17224
302.98561
300.36961
298.30665
296.74772
295.62239
294.84951
294.34709
294.0397
293.86552
293.77383
293.72971
293.71048
293.70296
293.70034
293.69953
293.69931
293.69926
293.69925
293.69924
293.69924
293.69924
293.69924
293.69924
293.69924
293.69924
293.69924
293.69924
293.69924
293.69924
293.69924
293.69924
381.67054
379.07409
376.23308
373.13723
369.77871
366.15282
362.25946
358.10333
353.69514
349.05188
344.20687
339.21113
334.13088
329.02877
323.98721
319.11503
314.51046
310.28193
306.51253
303.26613
300.57916
298.45712
296.84878
295.68468
294.88326
294.35986
294.04333
293.86574
293.77361
293.72944
293.71036
293.70292
293.70032
293.69952
293.69931
293.69926
293.69925
293.69924
293.69924
293.69924
293.69924
293.69924
293.69924
293.69924
293.69924
293.69924
293.69924
293.69924
293.69924
293.69924
381.6777
379.0813
376.24033
373.14456
369.78601
366.15987
362.26523
358.10826
353.70318
349.06857
344.23765
339.25419
334.1727
329.05566
324.00958
319.12786
314.52723
310.30314
306.54692
303.31912
300.64267
298.50057
296.86661
295.68303
294.87358
294.3557
294.04272
293.86573
293.77326
293.72939
293.71033
293.70291
293.70032
293.69952
293.69931
293.69926
293.69925
293.69924
293.69924
293.69924
293.69924
293.69924
293.69924
293.69924
293.69924
293.69924
293.69924
293.69924
293.69924
293.69924
388.22939
384.87911
381.32431
377.55667
373.56927
369.35747
364.92024
360.26176
355.39337
350.33573
345.12135
339.79672
334.42385
329.08093
323.86064
318.86468
314.19717
309.95402
306.21275
303.02279
300.40006
298.32706
296.75807
295.62554
294.8493
294.34641
294.03997
293.86531
293.77384
293.72975
293.71051
293.70297
293.70034
293.69953
293.69931
293.69926
293.69925
293.69924
293.69924
293.69924
293.69924
293.69924
293.69924
293.69924
293.69924
293.69924
293.69924
293.69924
293.69924
293.69924
390.09481
386.72716
383.12719
379.28738
375.20197
370.86776
366.28538
361.46077
356.4073
351.1482
345.71939
340.17224
334.57574
329.0171
323.59982
318.43803
313.64718
309.33172
305.57207
302.41397
299.8633
297.88764
296.42386
295.3895
294.69472
294.2529
293.98824
293.8398
293.76247
293.72534
293.70906
293.70257
293.70025
293.69951
293.69931
293.69926
293.69925
293.69924
293.69924
293.69924
293.69924
293.69924
293.69924
293.69924
293.69924
293.69924
293.69924
293.69924
293.69924
293.69924
390.58751
387.26725
383.70749
379.89979
375.83765
371.5173
366.93892
362.10811
357.03794
351.75122
346.28331
340.68504
335.02508
329.39074
323.88732
318.63229
313.74668
309.34224
305.50756
302.29486
299.71383
297.7317
296.28048
295.27083
294.6056
294.19199
293.95041
293.81853
293.75167
293.72041
293.70703
293.70183
293.70001
293.69945
293.69929
293.69925
293.69924
293.69924
293.69924
293.69924
293.69924
293.69924
293.69924
293.69924
293.69924
293.69924
293.69924
293.69924
293.69924
293.69924
390.89618
387.57894
384.02326
380.22052
376.16401
371.84977
367.27775
362.45337
357.38937
352.10834
346.64527
341.05031
335.39092
329.75325
324.24014
318.96734
314.05459
309.61372
305.73451
302.47309
299.84346
297.81716
296.33056
295.29557
294.61439
294.1925
293.94783
293.8157
293.74962
293.71923
293.70646
293.7016
293.69993
293.69942
293.69928
293.69925
293.69924
293.69924
293.69924
293.69924
293.69924
293.69924
293.69924
293.69924
293.69924
293.69924
293.69924
293.69924
293.69924
293.69924
392.76173
389.52695
386.05994
382.35195
378.39576
374.18649
369.72245
365.00651
360.04767
354.86325
349.48133
343.94334
338.30664
332.64668
327.05651
321.6451
316.53076
311.83106
307.64928
304.06139
301.10439
298.77187
297.01758
295.76371
294.91515
294.37384
294.04989
293.86899
293.77525
293.73048
293.7109
293.70312
293.70033
293.69943
293.69918
293.69911
293.6991
293.6991
293.6991
293.6991
293.6991
293.6991
293.6991
293.6991
293.6991
293.6991
293.6991
293.6991
293.6991
293.6991
392.46038
389.22251
385.75113
382.0376
378.07487
373.85812
369.38579
364.66078
359.69228
354.49767
349.10524
343.55702
337.9116
332.24581
326.65569
321.25282
316.15806
311.4903
307.35285
303.81833
300.91907
298.643
296.93735
295.72095
294.89787
294.37105
294.05337
293.87374
293.77907
293.73285
293.71213
293.70366
293.70053
293.6995
293.69919
293.69912
293.6991
293.6991
293.6991
293.6991
293.6991
293.6991
293.6991
293.6991
293.6991
293.6991
293.6991
293.6991
293.6991
293.6991
392.00214
388.71834
385.20801
381.46336
377.47799
373.24759
368.77091
364.05114
359.09763
353.92817
348.57166
343.07092
337.48537
331.89255
326.38772
321.08025
316.08614
311.51698
307.46676
303.99963
301.14156
298.87834
297.16038
295.91296
295.04875
294.47935
294.12424
293.91597
293.80186
293.744
293.71705
293.70557
293.70118
293.69969
293.69925
293.69913
293.6991
293.6991
293.6991
293.6991
293.6991
293.6991
293.6991
293.6991
293.6991
293.6991
293.6991
293.6991
293.6991
293.6991
390.23466
386.96961
383.50641
379.83656
375.95259
371.84888
367.52272
362.97568
358.2153
353.25716
348.1271
342.86366
337.52014
332.16503
326.88187
321.76572
316.91816
312.43814
308.41302
304.90858
301.96142
299.57423
297.71545
296.32743
295.3366
294.66336
294.23004
293.97184
293.828
293.75485
293.72087
293.70672
293.70148
293.69975
293.69926
293.69913
293.6991
293.6991
293.6991
293.6991
293.6991
293.6991
293.6991
293.6991
293.6991
293.6991
293.6991
293.6991
293.6991
293.6991
383.79868
381.28896
378.54203
375.5476
372.2975
368.78612
365.01196
360.97917
356.69556
352.17776
347.44864
342.53748
337.50386
332.40858
327.3273
322.34661
317.5705
313.09488
309.01792
305.41738
302.3536
299.8647
297.91779
296.45806
295.41226
294.69584
294.24236
293.97545
293.82945
293.75502
293.72082
293.70669
293.70146
293.69975
293.69925
293.69913
293.6991
293.6991
293.6991
293.6991
293.6991
293.6991
293.6991
293.6991
293.6991
293.6991
293.6991
293.6991
293.6991
293.6991
383.80668
381.29706
378.55037
375.55644
372.30714
368.79715
365.02452
360.99142
356.7045
352.18156
347.4542
342.55286
337.52694
332.42984
327.35009
322.37124
317.59267
313.1284
309.07136
305.49995
302.45678
299.94088
297.95287
296.45751
295.39431
294.69033
294.2431
293.97591
293.82843
293.75468
293.72073
293.70668
293.70146
293.69975
293.69925
293.69913
293.6991
293.6991
293.6991
293.6991
293.6991
293.6991
293.6991
293.6991
293.6991
293.6991
293.6991
293.6991
293.6991
293.6991
390.2522
386.9879
383.52561
379.85688
375.97429
371.87221
367.54795
363.00304
358.24505
353.2897
348.16302
342.90339
337.56361
332.21212
326.93215
321.81899
316.97375
312.49573
308.47159
304.96543
302.01124
299.61067
297.73645
296.33581
295.33752
294.66009
294.22941
293.97087
293.82789
293.75476
293.72086
293.70672
293.70148
293.69975
293.69926
293.69913
293.6991
293.6991
293.6991
293.6991
293.6991
293.6991
293.6991
293.6991
293.6991
293.6991
293.6991
293.6991
293.6991
293.6991
392.01946
388.73629
385.22663
381.4827
377.49813
373.26862
368.79293
364.07428
359.12202
353.95396
348.59898
343.09988
337.51596
331.92465
326.42106
321.11437
316.12039
311.55051
307.49856
304.02844
301.16592
298.89701
297.17297
295.92022
295.0522
294.48063
294.12465
293.91602
293.80183
293.74393
293.71701
293.70556
293.70117
293.69969
293.69925
293.69913
293.6991
293.6991
293.6991
293.6991
293.6991
293.6991
293.6991
293.6991
293.6991
293.6991
293.6991
293.6991
293.6991
293.6991
392.47983
389.24164
385.76995
382.05611
378.09307
373.876
369.40333
364.67796
359.70906
354.51402
349.12111
343.57236
337.92638
332.25998
326.6692
321.26563
316.17011
311.50152
307.36312
303.8275
300.92694
298.64936
296.94208
295.72413
294.89977
294.37206
294.05384
293.87393
293.77913
293.73287
293.71213
293.70366
293.70053
293.6995
293.69919
293.69912
293.6991
293.6991
293.6991
293.6991
293.6991
293.6991
293.6991
293.6991
293.6991
293.6991