/*--------------------------------*- C++ -*----------------------------------*\
| =========                 |                                                 |
| \\      /  F ield         | OpenFOAM: The Open Source CFD Toolbox           |
|  \\    /   O peration     | Version:  3.0.1                                 |
|   \\  /    A nd           | Web:      www.OpenFOAM.org                      |
|    \\/     M anipulation  |                                                 |
\*---------------------------------------------------------------------------*/
FoamFile
{
    version     2.0;
    format      ascii;
    class       volVectorField;
    location    "2576";
    object      U;
}
// * * * * * * * * * * * * * * * * * * * * * * * * * * * * * * * * * * * * * //

dimensions      [0 1 -1 0 0 0 0];

internalField   nonuniform List<vector> 
80000
(
(0.00014962235 2.5507297e-05 0.056778147)
(0.00035060016 3.4027001e-05 0.1292568)
(0.00064555854 5.361446e-05 0.17616773)
(0.00077204584 5.144367e-05 0.20523757)
(0.00076994823 7.9790463e-05 0.22245795)
(0.0007344544 5.9494556e-05 0.23213026)
(0.00066150399 8.4172033e-05 0.23708708)
(0.00058004076 8.7753226e-05 0.23912716)
(0.00053787283 7.2109262e-05 0.23936079)
(0.00044164353 0.00013941322 0.23834827)
(0.00037132262 0.00011114554 0.23663364)
(0.00034535384 6.9159223e-05 0.23438593)
(0.00026280933 9.753292e-05 0.23153505)
(0.00024221679 4.5838968e-05 0.22849218)
(0.0001958123 2.926612e-05 0.22490233)
(0.0001853945 1.6797904e-05 0.2210097)
(0.00012557091 3.4813116e-05 0.2164429)
(0.00011511828 -6.7341637e-07 0.21181673)
(8.4570452e-05 1.61604e-05 0.20635764)
(1.5475455e-05 2.4942892e-05 0.20091599)
(1.4241995e-05 -3.3412043e-06 0.19545085)
(-4.5692003e-05 2.062598e-05 0.18918994)
(-8.9950861e-05 3.0776026e-05 0.18322954)
(-0.00017643767 1.9348129e-05 0.17783378)
(-0.00015524832 -1.5550566e-05 0.172428)
(-0.00027401648 2.3129909e-05 0.16712438)
(-0.00025036994 -1.2263177e-05 0.162257)
(-0.00032681473 1.6698452e-05 0.15691006)
(-0.00034286667 -8.3999457e-07 0.15157044)
(-0.00035756282 -9.1814879e-06 0.14577795)
(-0.00039580579 1.5126132e-05 0.13924062)
(-0.00042912192 -4.9039731e-06 0.13281202)
(-0.0003872423 -1.3923092e-05 0.12496651)
(-0.00041400293 9.3144313e-06 0.11467849)
(-0.00041881729 -6.7269198e-06 0.10370849)
(-0.00036045721 -6.5172977e-06 0.089912841)
(-0.00046687208 -1.6683936e-05 0.075264895)
(-0.00015679014 -1.5654056e-05 0.055252133)
(-0.00061518128 5.0949411e-05 0.032630359)
(-0.00049375893 -5.3157272e-05 0.016957044)
(0.00016876073 1.155402e-05 0.056730706)
(0.00046543096 1.7907516e-05 0.12908228)
(0.00084211147 4.1404286e-05 0.17586741)
(0.0010243617 4.860006e-05 0.20481597)
(0.0010552686 6.9135943e-05 0.22191123)
(0.0010317771 6.494782e-05 0.23139421)
(0.00093150939 7.973717e-05 0.23608671)
(0.00084027049 8.2921323e-05 0.2377719)
(0.0007567185 7.4881393e-05 0.23752667)
(0.00062777656 0.00010568041 0.23598536)
(0.00058339196 8.7754576e-05 0.23351981)
(0.00052237151 6.1546245e-05 0.23031932)
(0.00041406441 7.0974063e-05 0.22650274)
(0.0003875356 4.0952665e-05 0.22215584)
(0.00029395385 2.804174e-05 0.21731625)
(0.0002386642 2.0052477e-05 0.21205446)
(0.00014025172 2.6775358e-05 0.20643384)
(0.00011367603 6.8592254e-06 0.20053396)
(2.3857818e-05 1.4474237e-05 0.19440545)
(-3.2825011e-05 1.8059545e-05 0.1881698)
(-5.4533954e-05 1.9543435e-06 0.18189399)
(-0.00013705402 1.4056108e-05 0.175662)
(-0.00015087672 1.9538326e-05 0.16956013)
(-0.00020266872 1.079467e-05 0.16359115)
(-0.00016574838 -7.8332857e-06 0.15768803)
(-0.00027786988 1.234547e-05 0.15190826)
(-0.00019258901 -6.8359974e-06 0.14617346)
(-0.00029293312 8.7453515e-06 0.14039115)
(-0.00023217827 -1.4982702e-06 0.13450768)
(-0.00025522794 -6.4034456e-06 0.12827353)
(-0.00026302296 7.8840276e-06 0.12168724)
(-0.00023580413 -4.7434762e-06 0.11449378)
(-0.00021228427 -9.7449554e-06 0.10636272)
(-0.00023909828 4.0662169e-06 0.097260687)
(-0.00017704184 -5.8378518e-06 0.086930388)
(-0.00017904174 -6.1250387e-06 0.075037526)
(-0.00015731998 -1.2487828e-05 0.061569781)
(-8.7759166e-05 -1.1478492e-05 0.046196418)
(-0.00021217498 2.5440746e-05 0.029410456)
(9.4418896e-05 -3.2437054e-05 0.010506436)
(0.00026959893 -1.4464665e-05 0.056672116)
(0.0006464651 -1.180973e-06 0.12891236)
(0.001018063 4.739388e-05 0.17557386)
(0.0011106176 7.1150762e-05 0.20431565)
(0.0010026723 8.3022905e-05 0.22103036)
(0.00078501408 8.4333623e-05 0.22990891)
(0.00052963891 7.9808076e-05 0.23376487)
(0.00029344585 7.0603037e-05 0.23440012)
(8.8890405e-05 5.9732934e-05 0.23292514)
(-7.0213316e-05 4.8217287e-05 0.23001327)
(-0.00018236486 3.5148907e-05 0.22608494)
(-0.00027458916 2.5225683e-05 0.22140608)
(-0.00033430875 1.7738392e-05 0.216151)
(-0.00037039872 1.1035084e-05 0.21044782)
(-0.00039744917 7.6001202e-06 0.20440181)
(-0.00040683061 5.5659436e-06 0.19810442)
(-0.00040523164 3.7914439e-06 0.19163905)
(-0.00039354866 2.5285161e-06 0.18507796)
(-0.00038361568 2.4566819e-06 0.17849314)
(-0.00035717822 1.3506519e-06 0.17193912)
(-0.00033764565 8.0600118e-07 0.16546198)
(-0.00031371928 9.4742535e-07 0.15910076)
(-0.00028636312 -4.0512421e-07 0.15286731)
(-0.00025748517 -1.7882256e-06 0.14676146)
(-0.00023986215 -1.5218325e-06 0.14077155)
(-0.00021725316 -1.5555366e-06 0.13487948)
(-0.00019133121 -2.1799132e-06 0.12902101)
(-0.00018191119 -1.8507336e-06 0.12314734)
(-0.00014940608 -2.9621629e-06 0.1171566)
(-0.00014625349 -2.2880964e-06 0.11095664)
(-0.00012256478 -2.6455454e-06 0.10443549)
(-0.00010637983 -3.5882803e-06 0.097437844)
(-9.8087736e-05 -2.6954228e-06 0.089838591)
(-8.2609741e-05 -3.0096301e-06 0.081496371)
(-6.3999945e-05 -3.6390157e-06 0.0722379)
(-6.0792468e-05 -3.4438785e-06 0.061945408)
(-3.5009841e-05 -3.7111036e-06 0.05049011)
(-3.8055148e-05 -2.9267877e-06 0.037780848)
(-5.6282141e-06 -6.0223365e-06 0.023727308)
(2.6652913e-05 -8.1329352e-06 0.0081603094)
(0.00036619741 -1.5954972e-05 0.056676797)
(0.00067066589 2.9965681e-05 0.12899374)
(0.00083027487 0.00010052966 0.17564433)
(0.00071407086 0.00011662274 0.20413128)
(0.00044021364 0.00010191794 0.22028163)
(0.00014251955 7.5172599e-05 0.22832481)
(-9.3650926e-05 4.8496695e-05 0.23116501)
(-0.00023523691 2.7110159e-05 0.23070676)
(-0.00028870693 1.2386543e-05 0.22816336)
(-0.0002762007 3.6820425e-06 0.22426582)
(-0.00022431602 -9.1657146e-07 0.21945331)
(-0.00015605315 -2.4895153e-06 0.21399779)
(-8.4039658e-05 -2.3100402e-06 0.20807722)
(-1.8941673e-05 -1.6013211e-06 0.20181804)
(3.3250214e-05 -5.2737928e-07 0.19531928)
(7.4164979e-05 3.3940139e-07 0.18867472)
(0.00010158161 9.4387336e-07 0.18195189)
(0.00011781893 1.1876864e-06 0.17520847)
(0.00012435992 1.2851292e-06 0.16849326)
(0.0001239222 1.0929117e-06 0.16184537)
(0.00011624788 7.3771592e-07 0.15529426)
(0.00010464198 3.4414814e-07 0.14885907)
(9.0762752e-05 -1.9575758e-07 0.14254719)
(7.1780089e-05 -5.5589522e-07 0.13635567)
(5.4190079e-05 -8.9324655e-07 0.13026968)
(3.6642565e-05 -1.0970484e-06 0.12426153)
(2.1143634e-05 -1.5289812e-06 0.11828915)
(5.7107905e-06 -1.6601412e-06 0.11229829)
(-5.6203214e-06 -1.925025e-06 0.10622299)
(-1.8669689e-05 -2.0458828e-06 0.099991394)
(-2.3857251e-05 -2.1589772e-06 0.09351284)
(-3.2042361e-05 -2.2213639e-06 0.08668976)
(-3.4920006e-05 -2.1736142e-06 0.079420993)
(-3.4515497e-05 -2.1800004e-06 0.071596659)
(-3.4055771e-05 -2.1833624e-06 0.063108564)
(-2.9860112e-05 -2.048907e-06 0.05385104)
(-2.4551805e-05 -2.0123067e-06 0.043718947)
(-1.5506357e-05 -2.2360179e-06 0.032607376)
(-4.2314866e-06 -2.3212933e-06 0.020410244)
(3.2082062e-06 -1.8245118e-06 0.0070233548)
(0.00018786107 1.5218328e-05 0.056726894)
(0.00027547444 8.842285e-05 0.12922525)
(0.00025617856 0.00013395505 0.17589925)
(0.00014944142 0.00011674122 0.20414526)
(3.2902477e-05 7.3065186e-05 0.21982985)
(-3.4627145e-05 3.4206931e-05 0.22728935)
(-4.1269248e-05 1.0864758e-05 0.2295268)
(-7.8048558e-06 1.1432252e-06 0.22850177)
(3.5766045e-05 -5.9927261e-07 0.22543377)
(6.7181346e-05 8.3911527e-07 0.22105976)
(7.5984362e-05 2.6926423e-06 0.21582184)
(6.163784e-05 4.0137486e-06 0.20999164)
(3.0475237e-05 4.5965577e-06 0.20374588)
(-1.0127819e-05 4.5234398e-06 0.1972091)
(-5.3104849e-05 4.1073605e-06 0.19047721)
(-9.2853219e-05 3.4860126e-06 0.18363282)
(-0.00012633416 2.7450249e-06 0.1767416)
(-0.00015186496 1.9967391e-06 0.16985826)
(-0.0001693768 1.2850023e-06 0.16302752)
(-0.00017899199 5.7636263e-07 0.15628418)
(-0.0001821493 -7.410097e-08 0.14965316)
(-0.00017949898 -6.233556e-07 0.14314946)
(-0.00017257491 -1.1330313e-06 0.13677794)
(-0.00016188193 -1.5075972e-06 0.13053345)
(-0.00014851436 -1.7326046e-06 0.12440061)
(-0.00013331662 -1.9234886e-06 0.11835346)
(-0.00011742042 -2.094361e-06 0.1123555)
(-0.00010184866 -2.1836024e-06 0.10636024)
(-8.5971988e-05 -2.2715377e-06 0.10031155)
(-7.1461954e-05 -2.2573687e-06 0.094144126)
(-5.7402656e-05 -2.2219125e-06 0.087784274)
(-4.4973552e-05 -2.1814045e-06 0.081149691)
(-3.3274242e-05 -2.0328618e-06 0.074152032)
(-2.3299345e-05 -1.938102e-06 0.066696156)
(-1.4531599e-05 -1.8305298e-06 0.058681962)
(-7.3503741e-06 -1.7039588e-06 0.050006026)
(-5.2850775e-07 -1.6420323e-06 0.040561225)
(3.7459562e-06 -1.5901206e-06 0.030238407)
(6.291415e-06 -1.523255e-06 0.018927817)
(4.7555877e-06 -9.7589015e-07 0.0065186594)
(-0.00018786081 1.5218387e-05 0.056726893)
(-0.00027547395 8.8422945e-05 0.12922524)
(-0.00025617867 0.00013395509 0.17589925)
(-0.00014944156 0.00011674111 0.20414526)
(-3.2902521e-05 7.3064994e-05 0.21982985)
(3.4627223e-05 3.4206819e-05 0.22728934)
(4.1269241e-05 1.0864837e-05 0.2295268)
(7.8046936e-06 1.1432539e-06 0.22850177)
(-3.5766226e-05 -5.9936217e-07 0.22543377)
(-6.718147e-05 8.3910887e-07 0.22105976)
(-7.5984232e-05 2.6925282e-06 0.21582184)
(-6.1637657e-05 4.0137649e-06 0.20999164)
(-3.0475102e-05 4.5966848e-06 0.20374588)
(1.0127867e-05 4.5234308e-06 0.1972091)
(5.3104585e-05 4.1073893e-06 0.19047721)
(9.2853062e-05 3.4861233e-06 0.18363282)
(0.00012633417 2.7449983e-06 0.1767416)
(0.00015186499 1.9966725e-06 0.16985827)
(0.00016937694 1.2849697e-06 0.16302753)
(0.00017899206 5.7645119e-07 0.15628418)
(0.00018214957 -7.4077643e-08 0.14965316)
(0.00017949919 -6.2352388e-07 0.14314946)
(0.00017257499 -1.133023e-06 0.13677794)
(0.00016188206 -1.5073932e-06 0.13053345)
(0.00014851457 -1.7324757e-06 0.12440061)
(0.0001333169 -1.9236662e-06 0.11835346)
(0.00011742083 -2.0944608e-06 0.1123555)
(0.00010184884 -2.1835513e-06 0.10636024)
(8.5972282e-05 -2.2716116e-06 0.10031155)
(7.146203e-05 -2.2574831e-06 0.094144125)
(5.7402863e-05 -2.2219363e-06 0.087784273)
(4.4973303e-05 -2.1813288e-06 0.08114969)
(3.3274046e-05 -2.0328095e-06 0.074152031)
(2.3298983e-05 -1.9380987e-06 0.066696154)
(1.4531617e-05 -1.8305336e-06 0.058681961)
(7.3498426e-06 -1.7037888e-06 0.050006025)
(5.2822722e-07 -1.6422265e-06 0.040561225)
(-3.7463658e-06 -1.5905424e-06 0.030238406)
(-6.2918392e-06 -1.5233133e-06 0.018927817)
(-4.7554016e-06 -9.7600864e-07 0.0065186586)
(-0.00036619718 -1.5954939e-05 0.056676793)
(-0.00067066583 2.996623e-05 0.12899374)
(-0.00083027466 0.00010052996 0.17564432)
(-0.00071407 0.00011662256 0.20413127)
(-0.0004402134 0.00010191788 0.22028162)
(-0.00014251994 7.5172735e-05 0.22832481)
(9.3650452e-05 4.8496572e-05 0.231165)
(0.00023523658 2.7109964e-05 0.23070676)
(0.00028870662 1.2386458e-05 0.22816336)
(0.00027620048 3.6819968e-06 0.22426582)
(0.00022431575 -9.1664456e-07 0.21945331)
(0.00015605307 -2.489622e-06 0.21399779)
(8.4040005e-05 -2.3100866e-06 0.20807722)
(1.894209e-05 -1.6013081e-06 0.20181804)
(-3.324949e-05 -5.2758438e-07 0.19531928)
(-7.416418e-05 3.3925279e-07 0.18867472)
(-0.00010158118 9.4386755e-07 0.18195189)
(-0.00011781827 1.1875769e-06 0.17520847)
(-0.00012435941 1.2850336e-06 0.16849326)
(-0.00012392178 1.0928434e-06 0.16184537)
(-0.00011624765 7.3777309e-07 0.15529426)
(-0.00010464201 3.4417584e-07 0.14885907)
(-9.0762722e-05 -1.9581201e-07 0.14254719)
(-7.1780028e-05 -5.5596116e-07 0.13635567)
(-5.4190012e-05 -8.9325927e-07 0.13026968)
(-3.6642383e-05 -1.0969469e-06 0.12426153)
(-2.1143523e-05 -1.5289712e-06 0.11828915)
(-5.7104493e-06 -1.6602796e-06 0.11229829)
(5.6205686e-06 -1.9250753e-06 0.10622299)
(1.8670112e-05 -2.0459198e-06 0.099991392)
(2.3857345e-05 -2.1589734e-06 0.093512838)
(3.2042348e-05 -2.2213112e-06 0.086689758)
(3.4920166e-05 -2.1737039e-06 0.079420991)
(3.4515787e-05 -2.1800207e-06 0.071596657)
(3.4055439e-05 -2.18344e-06 0.063108563)
(2.9859907e-05 -2.048824e-06 0.053851039)
(2.4551838e-05 -2.0120532e-06 0.043718946)
(1.5506292e-05 -2.2362834e-06 0.032607375)
(4.2322042e-06 -2.3214238e-06 0.020410243)
(-3.2081619e-06 -1.8239304e-06 0.0070233542)
(-0.00026959831 -1.4464759e-05 0.056672109)
(-0.0006464644 -1.1809643e-06 0.12891235)
(-0.0010180625 4.7394065e-05 0.17557385)
(-0.0011106176 7.1150935e-05 0.20431564)
(-0.0010026723 8.3023093e-05 0.22103035)
(-0.00078501396 8.4333799e-05 0.2299089)
(-0.00052963878 7.9808279e-05 0.23376486)
(-0.0002934458 7.0603087e-05 0.23440011)
(-8.8890646e-05 5.9732937e-05 0.23292514)
(7.0212909e-05 4.821724e-05 0.23001327)
(0.00018236416 3.5148807e-05 0.22608493)
(0.00027458836 2.5225563e-05 0.22140608)
(0.00033430779 1.7738344e-05 0.21615101)
(0.00037039774 1.1035188e-05 0.21044783)
(0.00039744854 7.6001764e-06 0.20440181)
(0.00040682982 5.5659562e-06 0.19810442)
(0.00040523113 3.7913319e-06 0.19163905)
(0.00039354848 2.5282719e-06 0.18507797)
(0.00038361542 2.4566001e-06 0.17849314)
(0.00035717822 1.3506281e-06 0.17193912)
(0.00033764527 8.0603931e-07 0.16546198)
(0.00031371916 9.4759102e-07 0.15910076)
(0.00028636335 -4.0506486e-07 0.15286731)
(0.00025748536 -1.788342e-06 0.14676146)
(0.00023986211 -1.5218897e-06 0.14077155)
(0.00021725337 -1.5554384e-06 0.13487948)
(0.00019133153 -2.1798642e-06 0.12902101)
(0.00018191142 -1.8507699e-06 0.12314733)
(0.00014940603 -2.9622907e-06 0.11715659)
(0.00014625374 -2.2880992e-06 0.11095663)
(0.00012256489 -2.645447e-06 0.10443548)
(0.00010637979 -3.5881664e-06 0.097437838)
(9.8087769e-05 -2.6953832e-06 0.089838584)
(8.2610143e-05 -3.0096908e-06 0.081496365)
(6.4000116e-05 -3.638968e-06 0.072237894)
(6.0792928e-05 -3.4438907e-06 0.061945403)
(3.5009791e-05 -3.7111534e-06 0.050490106)
(3.8055269e-05 -2.9266672e-06 0.037780845)
(5.6287234e-06 -6.0223043e-06 0.023727306)
(-2.6652771e-05 -8.1328583e-06 0.0081603091)
(-0.00016876078 1.1553975e-05 0.056730701)
(-0.00046543078 1.7907403e-05 0.12908227)
(-0.00084211073 4.1404384e-05 0.1758674)
(-0.0010243607 4.8600113e-05 0.20481596)
(-0.0010552672 6.9135884e-05 0.22191122)
(-0.0010317756 6.4947816e-05 0.2313942)
(-0.00093150801 7.9737348e-05 0.2360867)
(-0.00084026935 8.2921449e-05 0.23777189)
(-0.00075671723 7.4881428e-05 0.23752667)
(-0.00062777543 0.00010568045 0.23598535)
(-0.00058339111 8.7754593e-05 0.2335198)
(-0.00052237043 6.1546207e-05 0.23031932)
(-0.00041406351 7.0974025e-05 0.22650274)
(-0.00038753476 4.0952667e-05 0.22215584)
(-0.00029395345 2.8041746e-05 0.21731625)
(-0.00023866397 2.0052439e-05 0.21205446)
(-0.00014025113 2.6775381e-05 0.20643384)
(-0.00011367569 6.8592584e-06 0.20053396)
(-2.3857846e-05 1.4474217e-05 0.19440545)
(3.2824942e-05 1.8059591e-05 0.1881698)
(5.4534003e-05 1.954383e-06 0.18189399)
(0.00013705389 1.4056065e-05 0.17566199)
(0.00015087684 1.9538345e-05 0.16956013)
(0.00020266879 1.0794707e-05 0.16359114)
(0.00016574826 -7.8332897e-06 0.15768802)
(0.00027786995 1.2345431e-05 0.15190825)
(0.00019258901 -6.8359194e-06 0.14617345)
(0.0002929332 8.7454462e-06 0.14039113)
(0.0002321784 -1.4982186e-06 0.13450766)
(0.00025522803 -6.4034325e-06 0.12827352)
(0.00026302308 7.8840626e-06 0.12168722)
(0.00023580427 -4.743452e-06 0.11449376)
(0.00021228441 -9.7449448e-06 0.10636271)
(0.00023909831 4.0661561e-06 0.097260673)
(0.00017704203 -5.8378262e-06 0.086930375)
(0.0001790421 -6.1248704e-06 0.075037515)
(0.0001573198 -1.2487896e-05 0.061569772)
(8.7759787e-05 -1.1478562e-05 0.04619641)
(0.0002121747 2.544077e-05 0.029410451)
(-9.4419957e-05 -3.2437013e-05 0.010506436)
(-0.00014962185 2.550753e-05 0.056778143)
(-0.00035059966 3.4027152e-05 0.12925679)
(-0.00064555863 5.3614736e-05 0.17616772)
(-0.00077204591 5.144419e-05 0.20523755)
(-0.00076994846 7.9790919e-05 0.22245794)
(-0.00073445504 5.9494689e-05 0.23213024)
(-0.0006615044 8.4172198e-05 0.23708707)
(-0.00058004107 8.7753419e-05 0.23912716)
(-0.00053787285 7.2109425e-05 0.23936078)
(-0.00044164355 0.00013941339 0.23834826)
(-0.00037132254 0.00011114565 0.23663364)
(-0.00034535363 6.9159323e-05 0.23438593)
(-0.00026280914 9.7532938e-05 0.23153505)
(-0.0002422166 4.5838998e-05 0.22849218)
(-0.00019581217 2.9266199e-05 0.22490233)
(-0.00018539437 1.6797908e-05 0.22100969)
(-0.00012557068 3.4813068e-05 0.21644289)
(-0.00011511777 -6.7337022e-07 0.21181673)
(-8.4569891e-05 1.6160409e-05 0.20635763)
(-1.547492e-05 2.4942948e-05 0.20091599)
(-1.4241893e-05 -3.3410029e-06 0.19545084)
(4.5691919e-05 2.0626046e-05 0.18918993)
(8.9950831e-05 3.0776044e-05 0.18322953)
(0.00017643798 1.9348094e-05 0.17783376)
(0.00015524889 -1.55505e-05 0.17242798)
(0.00027401653 2.3129904e-05 0.16712437)
(0.00025036991 -1.2263195e-05 0.16225698)
(0.000326815 1.6698452e-05 0.15691004)
(0.00034286662 -8.3993758e-07 0.15157042)
(0.00035756271 -9.1814454e-06 0.14577793)
(0.00039580584 1.5126188e-05 0.13924059)
(0.00042912185 -4.9038925e-06 0.13281199)
(0.00038724252 -1.3923085e-05 0.12496649)
(0.00041400301 9.3144194e-06 0.11467847)
(0.0004188174 -6.7269765e-06 0.10370847)
(0.00036045745 -6.5172204e-06 0.089912824)
(0.00046687236 -1.6683959e-05 0.075264881)
(0.00015679018 -1.5654079e-05 0.055252124)
(0.00061518137 5.094941e-05 0.032630354)
(0.0004937597 -5.3157364e-05 0.016957041)
(-3.7167749e-05 4.7922248e-05 0.06250498)
(-0.00036126162 7.9547671e-05 0.1410298)
(-0.00080042999 8.6132518e-05 0.18959452)
(-0.0012660372 6.5917342e-05 0.21724911)
(-0.0017088048 7.1444201e-05 0.23167675)
(-0.0020283334 1.4328231e-05 0.23844947)
(-0.0022531324 8.07884e-06 0.24107262)
(-0.0023746509 -2.2677903e-05 0.24150014)
(-0.0023744429 -7.4453245e-05 0.24072086)
(-0.0023760009 -1.5648008e-05 0.23918514)
(-0.0023060797 -7.3483912e-05 0.23715091)
(-0.0021662021 -0.00014436558 0.23470064)
(-0.002069491 -0.00011406026 0.2318264)
(-0.001901763 -0.00018911976 0.22865029)
(-0.0017519797 -0.00020961571 0.22504953)
(-0.0015735803 -0.00022147204 0.22107383)
(-0.0014515062 -0.00018400989 0.21659459)
(-0.0012815837 -0.00022447329 0.21184953)
(-0.0011515182 -0.00018354042 0.20653973)
(-0.0010687016 -0.00015365797 0.20109905)
(-0.00092805977 -0.00018189754 0.19552999)
(-0.00086264434 -0.00012636281 0.18944708)
(-0.00080566224 -9.4354336e-05 0.1835446)
(-0.00079370559 -9.7075581e-05 0.17806845)
(-0.00068311001 -0.0001407764 0.17266626)
(-0.00073191418 -6.1183164e-05 0.16738344)
(-0.00063690926 -0.00010900829 0.16240529)
(-0.00065925216 -4.6735805e-05 0.15708637)
(-0.00062327054 -6.7289543e-05 0.15169159)
(-0.00058605407 -7.1832593e-05 0.14586765)
(-0.00059527303 -2.1408972e-05 0.13938745)
(-0.00058956751 -4.9854772e-05 0.13282618)
(-0.00050498495 -5.9491169e-05 0.12490005)
(-0.00050778092 -1.3880922e-05 0.11472985)
(-0.00047700895 -3.9195105e-05 0.10363194)
(-0.00040328822 -3.8824022e-05 0.089961712)
(-0.00046543109 -5.5049199e-05 0.075037859)
(-0.00014179193 -6.0586797e-05 0.0552998)
(-0.00063714719 3.7703772e-05 0.033391442)
(-0.00042608394 -0.00014416059 0.015293414)
(-9.166213e-05 4.9807429e-05 0.062449257)
(-0.00042119749 8.050317e-05 0.14086946)
(-0.00088010958 6.6203351e-05 0.1893227)
(-0.0013397331 2.8543314e-05 0.21685343)
(-0.0017390792 -2.9150098e-06 0.23112159)
(-0.0019834261 -6.4130268e-05 0.23767335)
(-0.0021301023 -9.86234e-05 0.23999161)
(-0.0021305217 -0.00013796861 0.24001825)
(-0.0020308731 -0.00018135479 0.23873285)
(-0.0019203507 -0.00016414361 0.23659411)
(-0.0016878591 -0.00019778663 0.23380225)
(-0.0014677757 -0.00023479821 0.23044159)
(-0.0013086335 -0.00021586844 0.226559)
(-0.0010789058 -0.00024517515 0.22218476)
(-0.00094204713 -0.00024638363 0.21735004)
(-0.00079917195 -0.00023868435 0.21210339)
(-0.0007223689 -0.00020638127 0.20650433)
(-0.00059320106 -0.00021328552 0.20061606)
(-0.00055875655 -0.00017940088 0.19451196)
(-0.00050799196 -0.00015139587 0.18828925)
(-0.00043432524 -0.0001555563 0.18201976)
(-0.00044764767 -0.00011692643 0.17579364)
(-0.00040353791 -9.0366283e-05 0.16968203)
(-0.0003952585 -8.6735559e-05 0.16369383)
(-0.0003154071 -0.00010347558 0.15778387)
(-0.00040266228 -5.6702243e-05 0.15199556)
(-0.00028330712 -7.6953582e-05 0.14623973)
(-0.00036870401 -4.0717375e-05 0.14045437)
(-0.00028644396 -4.898414e-05 0.13454022)
(-0.0002907676 -4.9924048e-05 0.12830635)
(-0.00029829901 -1.9652162e-05 0.12170312)
(-0.00024911115 -3.5323044e-05 0.1144855)
(-0.00021742755 -4.060952e-05 0.10635683)
(-0.00024522228 -1.3949521e-05 0.097244928)
(-0.00016843033 -2.8791153e-05 0.086894391)
(-0.00016644798 -2.9782202e-05 0.075006269)
(-0.00013729456 -4.0569142e-05 0.061521657)
(-6.5352065e-05 -4.4494214e-05 0.046177524)
(-0.00020503918 1.0052402e-05 0.029336358)
(0.00015670693 -8.6950775e-05 0.010352027)
(-0.00018932689 5.1847233e-05 0.062355538)
(-0.00053816298 6.5564793e-05 0.14059734)
(-0.00098113711 -3.7734233e-06 0.18886097)
(-0.0013834413 -8.9713676e-05 0.21614494)
(-0.0016815459 -0.00017578749 0.23003491)
(-0.0018431654 -0.00025021223 0.23600962)
(-0.001875126 -0.00030461794 0.23752589)
(-0.0017930763 -0.00033893905 0.23653594)
(-0.0016413767 -0.00035391279 0.23405196)
(-0.0014496294 -0.00035288813 0.23057394)
(-0.0012427206 -0.00034222683 0.22635395)
(-0.0010605608 -0.00032126129 0.22153827)
(-0.00089749348 -0.00029360807 0.21622798)
(-0.00075769475 -0.00026425662 0.21050686)
(-0.00065186288 -0.00023219186 0.2044603)
(-0.00056414205 -0.00020055429 0.19816742)
(-0.00049311101 -0.00017144134 0.19170736)
(-0.00043416328 -0.00014529433 0.18514982)
(-0.00039264139 -0.00012105917 0.17856718)
(-0.00034757996 -0.00010116035 0.17201282)
(-0.00031628401 -8.3919962e-05 0.16553395)
(-0.0002881051 -6.8485472e-05 0.15916984)
(-0.00025840197 -5.7267854e-05 0.15293134)
(-0.00023073747 -4.8470263e-05 0.14682159)
(-0.0002154376 -3.973597e-05 0.14082643)
(-0.00019687474 -3.2466275e-05 0.13492974)
(-0.00017439671 -2.7564703e-05 0.1290641)
(-0.00016744066 -2.2675521e-05 0.12318532)
(-0.00013885999 -2.036919e-05 0.1171866)
(-0.00013687959 -1.7013273e-05 0.11098174)
(-0.0001159394 -1.5249914e-05 0.10445205)
(-9.9830457e-05 -1.4926937e-05 0.097449181)
(-9.2558388e-05 -1.2951904e-05 0.089843831)
(-7.7014921e-05 -1.2426946e-05 0.081495047)
(-5.7707027e-05 -1.2879622e-05 0.072231597)
(-5.2647547e-05 -1.2580832e-05 0.061934651)
(-2.7161044e-05 -1.2854404e-05 0.050476045)
(-2.6856022e-05 -1.2553875e-05 0.03775989)
(8.0856031e-06 -1.7233727e-05 0.023698267)
(4.7318547e-05 -1.7377864e-05 0.0081388009)
(-0.00024092145 2.7622493e-05 0.062181005)
(-0.00050790375 -6.1089883e-06 0.14017285)
(-0.00079068103 -0.00012041858 0.18825324)
(-0.0010271413 -0.00023512579 0.21530984)
(-0.0011795786 -0.00032646201 0.22880059)
(-0.0012271869 -0.00038383119 0.23414268)
(-0.0011724562 -0.00040629002 0.23481664)
(-0.0010362214 -0.00039974822 0.23285268)
(-0.00085225145 -0.00037254882 0.2293565)
(-0.0006524348 -0.00033299671 0.22490223)
(-0.00046260204 -0.00028849615 0.21978825)
(-0.00029962176 -0.00024364732 0.21418278)
(-0.00016735825 -0.00020168612 0.2081957)
(-6.6843035e-05 -0.0001647591 0.20191339)
(3.8799903e-06 -0.00013313997 0.19541375)
(5.2503922e-05 -0.00010695729 0.18877233)
(8.2079061e-05 -8.5694264e-05 0.1820535)
(9.7666641e-05 -6.875158e-05 0.17531308)
(0.00010259028 -5.5199493e-05 0.16859897)
(0.00010056408 -4.4640544e-05 0.16195008)
(9.1937957e-05 -3.650995e-05 0.15539768)
(7.9863109e-05 -3.020097e-05 0.14895962)
(6.6069112e-05 -2.5495866e-05 0.14264348)
(4.8203061e-05 -2.1816894e-05 0.13644634)
(3.1601472e-05 -1.9002979e-05 0.13035295)
(1.5532041e-05 -1.6758236e-05 0.1243371)
(1.7993711e-06 -1.5327318e-05 0.11835646)
(-1.1677504e-05 -1.4021014e-05 0.11235783)
(-2.1237178e-05 -1.3180107e-05 0.1062743)
(-3.1918093e-05 -1.2412488e-05 0.10003449)
(-3.554313e-05 -1.1712467e-05 0.093547186)
(-4.1214376e-05 -1.1054463e-05 0.086716233)
(-4.2159195e-05 -1.0264198e-05 0.079439713)
(-3.9758738e-05 -9.4701954e-06 0.071608361)
(-3.6965817e-05 -8.6782315e-06 0.063113841)
(-3.0878619e-05 -7.6957139e-06 0.053851058)
(-2.3312915e-05 -6.8089434e-06 0.043713362)
(-1.2030372e-05 -6.1755365e-06 0.032597993)
(1.1568615e-06 -5.5705316e-06 0.020397028)
(9.8677637e-06 -3.5182448e-06 0.0070089106)
(-0.00011711083 -5.3429269e-06 0.062010317)
(-0.00020821681 -7.4349941e-05 0.13980424)
(-0.00028941096 -0.00019105123 0.1877892)
(-0.00035897477 -0.00030143596 0.21473438)
(-0.00039453862 -0.00037615751 0.22799907)
(-0.00038108961 -0.0004077262 0.23297631)
(-0.00032251066 -0.00040154387 0.23318323)
(-0.00023830243 -0.00036931959 0.23070599)
(-0.00015319926 -0.00032349032 0.22669477)
(-8.5937531e-05 -0.00027393781 0.22175404)
(-4.5583273e-05 -0.00022696244 0.21619883)
(-3.2349419e-05 -0.00018552478 0.2102033)
(-3.9982901e-05 -0.00015056264 0.20387828)
(-6.0893083e-05 -0.00012191047 0.19730801)
(-8.7817227e-05 -9.8731299e-05 0.1905657)
(-0.00011481939 -8.0134769e-05 0.1837194)
(-0.00013837521 -6.5290569e-05 0.17682912)
(-0.00015645351 -5.3442629e-05 0.1699469)
(-0.00016851328 -4.400068e-05 0.16311632)
(-0.00017437059 -3.6556106e-05 0.15637183)
(-0.00017504836 -3.07007e-05 0.1497385)
(-0.00017102995 -2.6086765e-05 0.14323139)
(-0.00016343963 -2.2516383e-05 0.1368556)
(-0.00015272784 -1.9696693e-05 0.1306062)
(-0.00013973654 -1.7422107e-05 0.12446776)
(-0.00012517501 -1.5636387e-05 0.1184145)
(-0.00011002954 -1.4236741e-05 0.11241011)
(-9.5197084e-05 -1.3056422e-05 0.10640831)
(-8.0172382e-05 -1.20645e-05 0.10035295)
(-6.639706e-05 -1.1093922e-05 0.094179131)
(-5.3099566e-05 -1.0153241e-05 0.087812778)
(-4.1260525e-05 -9.2219849e-06 0.081172262)
(-3.0166951e-05 -8.1806126e-06 0.074168851)
(-2.0588508e-05 -7.1663329e-06 0.066707632)
(-1.2132502e-05 -6.133966e-06 0.058688769)
(-5.0606355e-06 -5.083368e-06 0.050008666)
(1.6736943e-06 -4.1111247e-06 0.040560386)
(6.1991665e-06 -3.2060732e-06 0.030234882)
(9.0709922e-06 -2.4346742e-06 0.018922346)
(7.2003493e-06 -1.1580841e-06 0.006512714)
(0.00011711172 -5.3429276e-06 0.062010316)
(0.00020821822 -7.4350014e-05 0.13980424)
(0.00028941192 -0.00019105101 0.18778919)
(0.00035897548 -0.00030143568 0.21473437)
(0.00039453914 -0.00037615755 0.22799906)
(0.00038109012 -0.0004077263 0.23297631)
(0.00032251105 -0.00040154381 0.23318323)
(0.00023830243 -0.00036931931 0.23070599)
(0.00015319908 -0.00032349037 0.22669477)
(8.5937414e-05 -0.0002739379 0.22175404)
(4.5583349e-05 -0.00022696249 0.21619883)
(3.2349539e-05 -0.00018552475 0.2102033)
(3.9982898e-05 -0.00015056277 0.20387828)
(6.0893075e-05 -0.00012191059 0.19730801)
(8.7816914e-05 -9.8731224e-05 0.1905657)
(0.00011481915 -8.0134957e-05 0.1837194)
(0.00013837513 -6.5290461e-05 0.17682913)
(0.00015645339 -5.3442372e-05 0.1699469)
(0.00016851339 -4.4000969e-05 0.16311632)
(0.00017437077 -3.6556284e-05 0.15637183)
(0.00017504843 -3.0700454e-05 0.1497385)
(0.00017102998 -2.6086884e-05 0.1432314)
(0.00016343965 -2.2516768e-05 0.1368556)
(0.00015272791 -1.969681e-05 0.1306062)
(0.00013973657 -1.742189e-05 0.12446776)
(0.00012517512 -1.5636236e-05 0.1184145)
(0.00011002992 -1.4236631e-05 0.11241011)
(9.5197139e-05 -1.30563e-05 0.10640831)
(8.0172464e-05 -1.2064502e-05 0.10035295)
(6.6396897e-05 -1.1093802e-05 0.09417913)
(5.3099596e-05 -1.0153402e-05 0.087812777)
(4.1260299e-05 -9.2221695e-06 0.08117226)
(3.016668e-05 -8.1807477e-06 0.074168849)
(2.0588177e-05 -7.1662996e-06 0.066707631)
(1.2132378e-05 -6.1341288e-06 0.058688767)
(5.0604552e-06 -5.0834813e-06 0.050008665)
(-1.6740625e-06 -4.1108411e-06 0.040560385)
(-6.1994331e-06 -3.2061295e-06 0.030234881)
(-9.0715543e-06 -2.4349541e-06 0.018922346)
(-7.2002984e-06 -1.1585869e-06 0.0065127139)
(0.00024092191 2.7622342e-05 0.062181001)
(0.00050790434 -6.1088421e-06 0.14017284)
(0.00079068158 -0.00012041847 0.18825323)
(0.0010271424 -0.00023512599 0.21530983)
(0.0011795793 -0.00032646184 0.22880058)
(0.0012271871 -0.00038383109 0.23414267)
(0.001172456 -0.00040629018 0.23481664)
(0.0010362214 -0.00039974811 0.23285267)
(0.00085225161 -0.00037254862 0.2293565)
(0.00065243501 -0.00033299672 0.22490223)
(0.00046260225 -0.00028849622 0.21978825)
(0.00029962182 -0.00024364722 0.21418278)
(0.00016735857 -0.00020168621 0.2081957)
(6.6843575e-05 -0.00016475921 0.20191339)
(-3.8795741e-06 -0.00013313964 0.19541376)
(-5.2503377e-05 -0.00010695725 0.18877233)
(-8.2078369e-05 -8.5694417e-05 0.1820535)
(-9.7665803e-05 -6.8751841e-05 0.17531308)
(-0.00010258964 -5.5199675e-05 0.16859897)
(-0.00010056368 -4.464062e-05 0.16195008)
(-9.1937592e-05 -3.6510121e-05 0.15539769)
(-7.9863018e-05 -3.0201072e-05 0.14895962)
(-6.6069056e-05 -2.5495951e-05 0.14264349)
(-4.8202921e-05 -2.181702e-05 0.13644634)
(-3.160129e-05 -1.9003016e-05 0.13035295)
(-1.5531661e-05 -1.675845e-05 0.1243371)
(-1.7993975e-06 -1.5327332e-05 0.11835646)
(1.1677625e-05 -1.4020905e-05 0.11235783)
(2.1237483e-05 -1.3180135e-05 0.1062743)
(3.1918307e-05 -1.24123e-05 0.10003449)
(3.5543176e-05 -1.1712311e-05 0.093547184)
(4.1214342e-05 -1.10544e-05 0.086716231)
(4.2159324e-05 -1.0264317e-05 0.079439711)
(3.9758904e-05 -9.4704845e-06 0.071608359)
(3.696573e-05 -8.6785997e-06 0.06311384)
(3.0878335e-05 -7.6956775e-06 0.053851056)
(2.3313014e-05 -6.8090485e-06 0.043713361)
(1.2029924e-05 -6.1756151e-06 0.032597992)
(-1.156761e-06 -5.5701666e-06 0.020397027)
(-9.8674502e-06 -3.5185249e-06 0.00700891)
(0.00018932784 5.1847356e-05 0.062355531)
(0.00053816402 6.556479e-05 0.14059732)
(0.00098113807 -3.7731856e-06 0.18886095)
(0.0013834422 -8.9713565e-05 0.21614493)
(0.0016815467 -0.00017578748 0.2300349)
(0.0018431659 -0.00025021207 0.23600961)
(0.0018751267 -0.00030461788 0.23752588)
(0.0017930772 -0.00033893912 0.23653593)
(0.0016413771 -0.00035391274 0.23405195)
(0.0014496294 -0.00035288811 0.23057394)
(0.0012427202 -0.00034222678 0.22635395)
(0.0010605599 -0.00032126118 0.22153827)