/*--------------------------------*- C++ -*----------------------------------*\
| =========                 |                                                 |
| \\      /  F ield         | OpenFOAM: The Open Source CFD Toolbox           |
|  \\    /   O peration     | Version:  4.0                                   |
|   \\  /    A nd           | Web:      www.OpenFOAM.org                      |
|    \\/     M anipulation  |                                                 |
\*---------------------------------------------------------------------------*/
FoamFile
{
    version     2.0;
    format      ascii;
    class       volScalarField;
    location    "974";
    object      G;
}
// * * * * * * * * * * * * * * * * * * * * * * * * * * * * * * * * * * * * * //

dimensions      [1 0 -3 0 0 0 0];

internalField   nonuniform List<scalar> 
5000
(
1836.1642
1835.385
1834.526
1833.5943
1832.5861
1831.4974
1830.3243
1829.063
1827.7102
1826.2632
1824.7202
1823.0804
1821.3443
1819.5141
1817.5938
1815.5899
1813.5112
1811.3697
1809.1805
1806.9623
1804.7375
1802.532
1800.3753
1798.2997
1796.34
1794.5318
1792.9105
1791.5089
1790.3555
1789.472
1788.8712
1788.5555
1788.5157
1788.7321
1789.1764
1789.8155
1790.6163
1791.551
1792.6005
1793.7553
1795.0126
1796.369
1797.8129
1799.3185
1800.8448
1802.347
1803.7699
1805.1368
1806.2207
1808.0095
1886.189
1886.372
1886.5467
1886.7192
1886.8861
1887.043
1887.1844
1887.3034
1887.3916
1887.4389
1887.4333
1887.361
1887.2055
1886.948
1886.5675
1886.0399
1885.339
1884.4366
1883.3026
1881.9062
1880.2171
1878.2067
1875.8505
1873.13
1870.0359
1866.5706
1862.7517
1858.6139
1854.2112
1849.6169
1844.9215
1840.2285
1835.6467
1831.2803
1827.2173
1823.5193
1820.2136
1817.2938
1814.7279
1812.4756
1810.5107
1808.8385
1807.5026
1806.5705
1806.104
1806.1274
1806.5895
1807.4355
1808.3225
1810.0497
1901.4418
1901.4771
1901.5097
1901.5482
1901.594
1901.6482
1901.712
1901.7863
1901.8718
1901.9691
1902.0781
1902.1982
1902.3278
1902.4636
1902.6008
1902.7318
1902.846
1902.9284
1902.9595
1902.9133
1902.7572
1902.4506
1901.9449
1901.1831
1900.1007
1898.6282
1896.6943
1894.2315
1891.1838
1887.5153
1883.2211
1878.337
1872.9467
1867.1838
1861.2249
1855.2721
1849.5247
1844.1429
1839.2153
1834.7387
1830.6271
1826.7536
1823.018
1819.414
1816.0619
1813.1866
1811.0183
1809.774
1809.2473
1810.1892
1909.6439
1909.6558
1909.6608
1909.6653
1909.67
1909.6751
1909.681
1909.6881
1909.6969
1909.7082
1909.7229
1909.7423
1909.7679
1909.8015
1909.8454
1909.9018
1909.9733
1910.0619
1910.1692
1910.2954
1910.4381
1910.591
1910.7423
1910.8716
1910.9478
1910.9254
1910.7421
1910.3159
1909.5451
1908.3105
1906.4828
1903.9348
1900.5611
1896.3028
1891.1747
1885.2884
1878.8608
1872.1978
1865.6464
1859.5158
1853.9875
1849.0477
1844.4851
1839.977
1835.2452
1830.2216
1825.1147
1820.3794
1816.5426
1813.3439
1915.4761
1915.4845
1915.4863
1915.4875
1915.4883
1915.4887
1915.4889
1915.4885
1915.4876
1915.486
1915.4837
1915.4805
1915.4765
1915.4717
1915.4664
1915.4611
1915.4567
1915.4547
1915.457
1915.4666
1915.4872
1915.5233
1915.5801
1915.6626
1915.7745
1915.9155
1916.0784
1916.2438
1916.3739
1916.4044
1916.2379
1915.7375
1914.727
1913.001
1910.3485
1906.5949
1901.6574
1895.6051
1888.7015
1881.399
1874.2614
1867.8084
1862.3242
1857.7143
1853.5088
1849.0533
1843.8556
1837.7076
1831.6869
1822.8005
1920.035
1920.0426
1920.044
1920.0449
1920.0454
1920.0458
1920.0459
1920.0458
1920.0454
1920.0445
1920.0432
1920.0411
1920.0381
1920.034
1920.0284
1920.021
1920.0114
1919.9992
1919.984
1919.9656
1919.9441
1919.9203
1919.8958
1919.8737
1919.8586
1919.8575
1919.8795
1919.9345
1920.0316
1920.1739
1920.3508
1920.5263
1920.6234
1920.5074
1919.9731
1918.7448
1916.5005
1912.9327
1907.8468
1901.2802
1893.5984
1885.4984
1877.8614
1871.4514
1866.5688
1862.8289
1859.3654
1854.8365
1850.0171
1838.4162
1923.783
1923.7903
1923.7916
1923.7923
1923.7928
1923.7931
1923.7932
1923.7932
1923.7929
1923.7924
1923.7916
1923.7904
1923.7887
1923.7864
1923.7833
1923.7792
1923.7738
1923.7667
1923.7575
1923.7455
1923.7299
1923.7098
1923.6841
1923.652
1923.6129
1923.5669
1923.516
1923.4644
1923.4203
1923.3962
1923.4088
1923.4761
1923.6097
1923.8006
1923.9948
1924.0634
1923.7701
1922.7565
1920.5665
1916.7404
1910.9852
1903.3877
1894.5715
1885.6554
1877.9253
1872.2435
1868.6866
1865.8508
1863.9276
1854.748
1926.9495
1926.9569
1926.9582
1926.959
1926.9595
1926.9599
1926.9601
1926.9602
1926.9602
1926.9599
1926.9594
1926.9586
1926.9575
1926.9559
1926.9538
1926.9511
1926.9475
1926.943
1926.9372
1926.9299
1926.9205
1926.9084
1926.893
1926.8731
1926.8474
1926.8141
1926.7713
1926.7171
1926.6505
1926.5723
1926.4874
1926.407
1926.3507
1926.3462
1926.423
1926.5949
1926.8264
1926.9807
1926.7623
1925.683
1923.1032
1918.4015
1911.2803
1902.1042
1892.0625
1882.8577
1876.1162
1871.9728
1870.8719
1866.3026
1929.6874
1929.695
1929.6964
1929.6972
1929.6977
1929.6981
1929.6984
1929.6987
1929.6987
1929.6986
1929.6984
1929.6979
1929.6971
1929.696
1929.6945
1929.6925
1929.6899
1929.6865
1929.6822
1929.6768
1929.67
1929.6614
1929.6507
1929.6373
1929.6204
1929.5992
1929.5721
1929.5372
1929.4919
1929.4329
1929.357
1929.2618
1929.1486
1929.0264
1928.9164
1928.8552
1928.8896
1929.0538
1929.3163
1929.4953
1929.1637
1927.6089
1923.95
1917.4866
1908.2296
1897.2747
1886.7616
1878.6371
1874.6138
1872.0029
1932.094
1932.102
1932.1034
1932.1043
1932.1049
1932.1054
1932.1058
1932.1061
1932.1063
1932.1063
1932.1063
1932.106
1932.1055
1932.1048
1932.1038
1932.1023
1932.1004
1932.098
1932.0947
1932.0906
1932.0853
1932.0787
1932.0703
1932.0599
1932.0471
1932.0311
1932.0114
1931.9869
1931.9562
1931.9173
1931.8672
1931.8017
1931.7155
1931.6035
1931.4639
1931.3039
1931.149
1931.049
1931.0726
1931.2684
1931.5733
1931.6691
1930.8521
1928.0584
1922.2237
1912.9636
1901.2988
1889.5391
1880.6419
1875.0498
1934.2387
1934.2472
1934.2487
1934.2496
1934.2503
1934.2509
1934.2513
1934.2517
1934.252
1934.2522
1934.2523
1934.2523
1934.252
1934.2516
1934.2509
1934.2499
1934.2486
1934.2468
1934.2444
1934.2413
1934.2372
1934.2321
1934.2255
1934.2173
1934.207
1934.1942
1934.1783
1934.1588
1934.1347
1934.1051
1934.0685
1934.0228
1933.9644
1933.8883
1933.7871
1933.6527
1933.4807
1933.2798
1933.0867
1932.9764
1933.0457
1933.3304
1933.6313
1933.2929
1931.1223
1925.7235
1916.3786
1903.9747
1891.5529
1879.5827
1936.1708
1936.1798
1936.1815
1936.1825
1936.1833
1936.1839
1936.1845
1936.185
1936.1854
1936.1857
1936.1859
1936.186
1936.186
1936.1858
1936.1854
1936.1848
1936.1839
1936.1826
1936.1809
1936.1785
1936.1755
1936.1715
1936.1664
1936.1599
1936.1517
1936.1414
1936.1286
1936.1126
1936.0928
1936.0684
1936.0385
1936.0018
1935.9568
1935.901
1935.8302
1935.7378
1935.6136
1935.4461
1935.2299
1934.983
1934.771
1934.7131
1934.9198
1935.2983
1935.2449
1933.4437
1928.2116
1918.4264
1906.0025
1887.8323
1937.9272
1937.9369
1937.9388
1937.9398
1937.9407
1937.9414
1937.942
1937.9426
1937.9431
1937.9435
1937.9439
1937.9441
1937.9443
1937.9443
1937.9441
1937.9438
1937.9433
1937.9425
1937.9412
1937.9396
1937.9373
1937.9342
1937.9303
1937.9252
1937.9187
1937.9104
1937.9
1937.887
1937.8708
1937.8506
1937.8257
1937.7949
1937.7572
1937.711
1937.6545
1937.5847
1937.4961
1937.3792
1937.2195
1937.0017
1936.7266
1936.4435
1936.2797
1936.4006
1936.8002
1936.8919
1935.2538
1929.5893
1920.5196
1899.4065
1939.536
1939.5464
1939.5484
1939.5496
1939.5505
1939.5513
1939.552
1939.5527
1939.5533
1939.5538
1939.5543
1939.5546
1939.5549
1939.5551
1939.5552
1939.5552
1939.5549
1939.5545
1939.5537
1939.5526
1939.5509
1939.5487
1939.5457
1939.5417
1939.5365
1939.5299
1939.5215
1939.5109
1939.4976
1939.481
1939.4603
1939.4346
1939.4028
1939.3635
1939.3154
1939.2565
1939.1846
1939.0955
1938.9811
1938.8265
1938.6103
1938.319
1937.9856
1937.7396
1937.7942
1938.1887
1938.4045
1936.2506
1931.9575
1912.2
1941.019
1941.0302
1941.0324
1941.0337
1941.0347
1941.0356
1941.0364
1941.0371
1941.0378
1941.0385
1941.039
1941.0395
1941.04
1941.0403
1941.0406
1941.0408
1941.0408
1941.0407
1941.0403
1941.0397
1941.0386
1941.037
1941.0347
1941.0317
1941.0276
1941.0224
1941.0156
1941.007
1940.9961
1940.9824
1940.9652
1940.9437
1940.917
1940.8839
1940.8428
1940.7922
1940.7301
1940.6543
1940.5616
1940.4453
1940.2913
1940.0744
1939.77
1939.3959
1939.093
1939.0885
1939.6059
1939.277
1938.9876
1923.8152
1942.3937
1942.4059
1942.4082
1942.4096
1942.4107
1942.4117
1942.4126
1942.4134
1942.4142
1942.4149
1942.4156
1942.4163
1942.4168
1942.4173
1942.4178
1942.4182
1942.4185
1942.4186
1942.4186
1942.4183
1942.4177
1942.4167
1942.4151
1942.4129
1942.4098
1942.4057
1942.4003
1942.3933
1942.3844
1942.373
1942.3587
1942.3408
1942.3183
1942.2903
1942.2555
1942.2122
1942.1586
1942.0926
1942.0118
1941.9134
1941.7918
1941.6338
1941.4119
1941.0901
1940.6848
1940.3118
1940.4344
1940.4383
1942.1846
1932.6708
1943.6744
1943.6874
1943.69
1943.6915
1943.6927
1943.6937
1943.6947
1943.6956
1943.6965
1943.6974
1943.6981
1943.6989
1943.6996
1943.7003
1943.7009
1943.7015
1943.702
1943.7024
1943.7027
1943.7028
1943.7026
1943.7021
1943.7011
1943.6995
1943.6973
1943.6941
1943.6899
1943.6843
1943.6771
1943.6677
1943.6558
1943.6408
1943.6218
1943.5981
1943.5684
1943.5315
1943.4856
1943.4285
1943.3578
1943.271
1943.1651
1943.0356
1942.87
1942.6358
1942.2979
1941.8229
1941.5579
1941.2172
1943.1383
1938.4105
1944.8724
1944.8865
1944.8892
1944.8908
1944.8921
1944.8933
1944.8943
1944.8954
1944.8963
1944.8973
1944.8982
1944.899
1944.8998
1944.9006
1944.9014
1944.9022
1944.9029
1944.9036
1944.9042
1944.9046
1944.9048
1944.9047
1944.9042
1944.9033
1944.9017
1944.8994
1944.8962
1944.8918
1944.886
1944.8784
1944.8685
1944.8559
1944.8399
1944.8197
1944.7944
1944.7628
1944.7233
1944.6741
1944.6129
1944.5368
1944.4428
1944.328
1944.1886
1944.0097
1943.7656
1943.3648
1942.9638
1942.2939
1943.4011
1941.6482
1945.9975
1946.0125
1946.0155
1946.0173
1946.0186
1946.0199
1946.021
1946.0221
1946.0232
1946.0243
1946.0252
1946.0262
1946.0272
1946.0281
1946.029
1946.03
1946.0309
1946.0318
1946.0326
1946.0333
1946.0339
1946.0342
1946.0341
1946.0338
1946.0329
1946.0313
1946.029
1946.0256
1946.0211
1946.0149
1946.0068
1945.9963
1945.9828
1945.9657
1945.9441
1945.9168
1945.8827
1945.8402
1945.7871
1945.7209
1945.6384
1945.536
1945.4111
1945.2577
1945.0704
1944.7755
1944.4179
1943.6916
1943.8822
1943.3871
1947.0576
1947.0737
1947.0769
1947.0787
1947.0802
1947.0815
1947.0828
1947.084
1947.0852
1947.0863
1947.0874
1947.0885
1947.0895
1947.0906
1947.0917
1947.0928
1947.0939
1947.095
1947.0961
1947.097
1947.0979
1947.0986
1947.099
1947.0991
1947.0987
1947.0979
1947.0963
1947.0939
1947.0904
1947.0855
1947.079
1947.0703
1947.059
1947.0445
1947.026
1947.0026
1946.9731
1946.9361
1946.8898
1946.8321
1946.76
1946.6698
1946.5581
1946.4195
1946.257
1946.0319
1945.759
1945.1754
1944.8129
1944.5048
1948.0595
1948.0767
1948.0801
1948.0821
1948.0837
1948.0851
1948.0865
1948.0878
1948.089
1948.0903
1948.0915
1948.0926
1948.0938
1948.095
1948.0962
1948.0974
1948.0987
1948.1
1948.1013
1948.1026
1948.1037
1948.1047
1948.1055
1948.106
1948.1062
1948.106
1948.1051
1948.1035
1948.101
1948.0972
1948.092
1948.0849
1948.0756
1948.0633
1948.0476
1948.0274
1948.0019
1947.9697
1947.9293
1947.8787
1947.8154
1947.7363
1947.6375
1947.5132
1947.3641
1947.1734
1946.9552
1946.5519
1946.0389
1945.5166
1949.0091
1949.0274
1949.031
1949.0331
1949.0348
1949.0363
1949.0378
1949.0392
1949.0405
1949.0419
1949.0431
1949.0444
1949.0457
1949.047
1949.0484
1949.0498
1949.0512
1949.0527
1949.0542
1949.0557
1949.0571
1949.0584
1949.0596
1949.0605
1949.0612
1949.0614
1949.0612
1949.0603
1949.0587
1949.0559
1949.0519
1949.0463
1949.0386
1949.0283
1949.015
1948.9977
1948.9756
1948.9476
1948.9122
1948.8677
1948.812
1948.7422
1948.6551
1948.545
1948.4092
1948.2381
1948.0423
1947.7603
1947.3277
1946.6005
1949.9113
1949.9307
1949.9345
1949.9368
1949.9386
1949.9402
1949.9418
1949.9432
1949.9447
1949.9461
1949.9475
1949.9489
1949.9503
1949.9517
1949.9531
1949.9547
1949.9563
1949.958
1949.9597
1949.9614
1949.9631
1949.9647
1949.9661
1949.9675
1949.9685
1949.9693
1949.9697
1949.9695
1949.9686
1949.9667
1949.9638
1949.9594
1949.9532
1949.9447
1949.9335
1949.9187
1949.8997
1949.8753
1949.8443
1949.8052
1949.756
1949.6942
1949.6169
1949.5197
1949.398
1949.2439
1949.0596
1948.83
1948.5325
1947.7426
1950.7705
1950.791
1950.795
1950.7974
1950.7993
1950.801
1950.8027
1950.8043
1950.8058
1950.8073
1950.8088
1950.8103
1950.8118
1950.8133
1950.8149
1950.8166
1950.8183
1950.8202
1950.8221
1950.824
1950.8259
1950.8278
1950.8296
1950.8312
1950.8327
1950.8339
1950.8348
1950.8352
1950.835
1950.834
1950.8321
1950.8288
1950.8239
1950.817
1950.8077
1950.7952
1950.7788
1950.7576
1950.7305
1950.6961
1950.6526
1950.5977
1950.529
1950.4426
1950.3342
1950.1967
1950.0263
1949.8117
1949.6125
1948.8746
1951.5903
1951.612
1951.6162
1951.6188
1951.6208
1951.6226
1951.6243
1951.626
1951.6276
1951.6292
1951.6308
1951.6324
1951.634
1951.6356
1951.6373
1951.6391
1951.6411
1951.6431
1951.6452
1951.6473
1951.6494
1951.6516
1951.6536
1951.6556
1951.6575
1951.6591
1951.6605
1951.6615
1951.6619
1951.6617
1951.6606
1951.6583
1951.6547
1951.6492
1951.6415
1951.631
1951.617
1951.5987
1951.5751
1951.5447
1951.5062
1951.4575
1951.3962
1951.319
1951.2223
1951.0997
1950.9469
1950.7398
1950.5874
1949.9464
1952.3742
1952.397
1952.4015
1952.4041
1952.4063
1952.4082
1952.41
1952.4117
1952.4135
1952.4152
1952.4168
1952.4185
1952.4202
1952.4219
1952.4238
1952.4257
1952.4278
1952.43
1952.4322
1952.4346
1952.4369
1952.4393
1952.4417
1952.444
1952.4461
1952.4482
1952.45
1952.4515
1952.4525
1952.453
1952.4527
1952.4514
1952.4488
1952.4446
1952.4384
1952.4297
1952.4179
1952.4021
1952.3815
1952.3549
1952.3208
1952.2775
1952.2228
1952.1537
1952.0669
1951.9569
1951.8219
1951.6273
1951.4903
1950.9422
1953.1249
1953.1489
1953.1536
1953.1564
1953.1587
1953.1606
1953.1626
1953.1644
1953.1662
1953.168
1953.1698
1953.1715
1953.1733
1953.1752
1953.1771
1953.1792
1953.1814
1953.1837
1953.1862
1953.1887
1953.1913
1953.1939
1953.1965
1953.1991
1953.2016
1953.204
1953.2063
1953.2082
1953.2098
1953.2109
1953.2113
1953.2109
1953.2093
1953.2063
1953.2015
1953.1944
1953.1845
1953.171
1953.1532
1953.1298
1953.0997
1953.0612
1953.0123
1952.9504
1952.8725
1952.7731
1952.6532
1952.4762
1952.3445
1951.8678
1953.8451
1953.8703
1953.8752
1953.8782
1953.8805
1953.8826
1953.8846
1953.8866
1953.8885
1953.8903
1953.8922
1953.894
1953.8959
1953.8979
1953.9
1953.9022
1953.9045
1953.907
1953.9096
1953.9123
1953.9151
1953.9179
1953.9208
1953.9237
1953.9265
1953.9293
1953.9319
1953.9343
1953.9364
1953.9381
1953.9392
1953.9395
1953.9389
1953.9369
1953.9334
1953.9277
1953.9196
1953.9082
1953.8928
1953.8724
1953.8459
1953.8117
1953.768
1953.7124
1953.6423
1953.5525
1953.4447
1953.2862
1953.1605
1952.736
1954.5371
1954.5635
1954.5686
1954.5717
1954.5742
1954.5764
1954.5785
1954.5805
1954.5825
1954.5844
1954.5864
1954.5883
1954.5903
1954.5924
1954.5946
1954.5969
1954.5994
1954.602
1954.6048
1954.6077
1954.6106
1954.6137
1954.6168
1954.6199
1954.6231
1954.6262
1954.6292
1954.632
1954.6346
1954.6368
1954.6385
1954.6396
1954.6398
1954.6388
1954.6364
1954.6321
1954.6255
1954.616
1954.6029
1954.5852
1954.5618
1954.5315
1954.4925
1954.4426
1954.3796
1954.2983
1954.2006
1954.0587
1953.9419
1953.5577
1955.203
1955.2305
1955.2359
1955.2391
1955.2416
1955.2439
1955.2461
1955.2482
1955.2503
1955.2524
1955.2544
1955.2564
1955.2585
1955.2607
1955.263
1955.2654
1955.268
1955.2708
1955.2737
1955.2768
1955.28
1955.2832
1955.2866
1955.29
1955.2934
1955.2968
1955.3001
1955.3034
1955.3064
1955.3092
1955.3115
1955.3132
1955.3142
1955.3141
1955.3127
1955.3097
1955.3046
1955.2968
1955.2857
1955.2704
1955.25
1955.2231
1955.1884
1955.1436
1955.0868
1955.0134
1954.9244
1954.7965
1954.6901
1954.3399
1955.8444
1955.8731
1955.8787
1955.8821
1955.8847
1955.8871
1955.8894
1955.8916
1955.8938
1955.8959
1955.8981
1955.9002
1955.9024
1955.9046
1955.907
1955.9096
1955.9123
1955.9152
1955.9183
1955.9216
1955.9249
1955.9284
1955.9319
1955.9356
1955.9393
1955.943
1955.9467
1955.9503
1955.9538
1955.957
1955.9598
1955.9622
1955.9639
1955.9647
1955.9643
1955.9624
1955.9586
1955.9524
1955.9431
1955.93
1955.9123
1955.8886
1955.8576
1955.8175
1955.7663
1955.7
1955.6191
1955.503
1955.4065
1955.0869
1956.4631
1956.493
1956.4989
1956.5024
1956.5051
1956.5076
1956.51
1956.5123
1956.5146
1956.5168
1956.519
1956.5212
1956.5235
1956.5259
1956.5284
1956.531
1956.5339
1956.5369
1956.5402
1956.5436
1956.5471
1956.5508
1956.5546
1956.5584
1956.5624
1956.5664
1956.5704
1956.5744
1956.5783
1956.5819
1956.5853
1956.5883
1956.5906
1956.5922
1956.5927
1956.5919
1956.5893
1956.5845
1956.577
1956.5659
1956.5506
1956.5298
1956.5023
1956.4664
1956.4203
1956.3603
1956.2868
1956.181
1956.0933
1955.8016
1957.0607
1957.0917
1957.0978
1957.1014
1957.1043
1957.1069
1957.1094
1957.1118
1957.1141
1957.1164
1957.1187
1957.121
1957.1234
1957.1258
1957.1285
1957.1312
1957.1342
1957.1374
1957.1408
1957.1444
1957.1481
1957.1519
1957.1559
1957.16
1957.1642
1957.1685
1957.1728
1957.1772
1957.1814
1957.1855
1957.1894
1957.1929
1957.1959
1957.1982
1957.1996
1957.1997
1957.1983
1957.1948
1957.1888
1957.1797
1957.1665
1957.1484
1957.1241
1957.092
1957.0505
1956.9963
1956.9295
1956.833
1956.7531
1956.4866
1957.6383
1957.6706
1957.6769
1957.6806
1957.6836
1957.6863
1957.6889
1957.6913
1957.6938
1957.6962
1957.6986
1957.701
1957.7034
1957.706
1957.7087
1957.7116
1957.7147
1957.718
1957.7216
1957.7253
1957.7292
1957.7332
1957.7374
1957.7417
1957.7461
1957.7507
1957.7553
1957.76
1957.7646
1957.7691
1957.7735
1957.7775
1957.7811
1957.7841
1957.7862
1957.7873
1957.7869
1957.7847
1957.7802
1957.7727
1957.7616
1957.7459
1957.7245
1957.696
1957.6587
1957.6096
1957.549
1957.461
1957.3879
1957.1441
1958.1973
1958.2308
1958.2373
1958.2412
1958.2443
1958.247
1958.2497
1958.2523
1958.2548
1958.2573
1958.2597
1958.2622
1958.2648
1958.2674
1958.2702
1958.2733
1958.2765
1958.28
1958.2836
1958.2875
1958.2916
1958.2958
1958.3002
1958.3047
1958.3094
1958.3142
1958.3191
1958.3241
1958.329
1958.334
1958.3387
1958.3433
1958.3474
1958.3511
1958.354
1958.3559
1958.3565
1958.3554
1958.3523
1958.3464
1958.3372
1958.3237
1958.305
1958.2797
1958.2463
1958.2019
1958.1469
1958.0666
1957.9997
1957.7763
1958.7388
1958.7734
1958.7802
1958.7842
1958.7874
1958.7903
1958.793
1958.7957
1958.7983
1958.8009
1958.8034
1958.806
1958.8086
1958.8114
1958.8143
1958.8174
1958.8208
1958.8243
1958.8282
1958.8322
1958.8364
1958.8408
1958.8454
1958.8501
1958.855
1958.8601
1958.8653
1958.8706
1958.8759
1958.8812
1958.8864
1958.8914
1958.8961
1958.9003
1958.9039
1958.9066
1958.9082
1958.9082
1958.9063
1958.9019
1958.8944
1958.883
1958.8668
1958.8444
1958.8146
1958.7746
1958.7247
1958.6514
1958.5902
1958.3852
1959.2637
1959.2996
1959.3066
1959.3107
1959.314
1959.317
1959.3198
1959.3226
1959.3253
1959.3279
1959.3306
1959.3332
1959.3359
1959.3388
1959.3418
1959.345
1959.3485
1959.3522
1959.3562
1959.3604
1959.3647
1959.3693
1959.3741
1959.379
1959.3841
1959.3894
1959.3949
1959.4005
1959.4061
1959.4118
1959.4174
1959.4228
1959.428
1959.4328
1959.4371
1959.4406
1959.443
1959.444
1959.4433
1959.4403
1959.4344
1959.4249
1959.411
1959.3914
1959.3648
1959.3288
1959.2836
1959.2168
1959.1608
1958.9726
1959.7731
1959.8102
1959.8174
1959.8217
1959.8251
1959.8281
1959.8311
1959.8339
1959.8367
1959.8394
1959.8421
1959.8449
1959.8477
1959.8506
1959.8537
1959.8571
1959.8607
1959.8645
1959.8686
1959.8729
1959.8775
1959.8822
1959.8872
1959.8923
1959.8976
1959.9032
1959.9089
1959.9147
1959.9207
1959.9267
1959.9327
1959.9386
1959.9443
1959.9496
1959.9545
1959.9587
1959.9619
1959.9639
1959.9643
1959.9625
1959.9582
1959.9505
1959.9387
1959.9216
1959.8981
1959.8658
1959.8249
1959.764
1959.7129
1959.5398
1960.2678
1960.306
1960.3135
1960.3179
1960.3214
1960.3246
1960.3276
1960.3305
1960.3334
1960.3362
1960.339
1960.3418
1960.3447
1960.3477
1960.351
1960.3544
1960.3581
1960.3621
1960.3663
1960.3708
1960.3755
1960.3804
1960.3855
1960.3908
1960.3964
1960.4022
1960.4081
1960.4142
1960.4205
1960.4268
1960.4332
1960.4395
1960.4457
1960.4515
1960.457
1960.4619
1960.4659
1960.4688
1960.4701
1960.4696
1960.4667
1960.4607
1960.4508
1960.4361
1960.4154
1960.3866
1960.3497
1960.2942
1960.2475
1960.0884
1960.7485
1960.788
1960.7956
1960.8002
1960.8038
1960.8071
1960.8102
1960.8132
1960.8161
1960.819
1960.8219
1960.8248
1960.8278
1960.8309
1960.8342
1960.8378
1960.8416
1960.8457
1960.8501
1960.8547
1960.8595
1960.8646
1960.8699
1960.8754
1960.8812
1960.8872
1960.8934
1960.8998
1960.9063
1960.913
1960.9197
1960.9264
1960.933
1960.9394
1960.9454
1960.9509
1960.9557
1960.9594
1960.9617
1960.9624
1960.9607
1960.9563
1960.9483
1960.9358
1960.9176
1960.892
1960.8588
1960.8084
1960.7658
1960.6194
1961.2161
1961.2567
1961.2646
1961.2693
1961.2731
1961.2764
1961.2796
1961.2827
1961.2857
1961.2887
1961.2917
1961.2946
1961.2977
1961.3009
1961.3043
1961.308
1961.3119
1961.3161
1961.3206
1961.3254
1961.3304
1961.3356
1961.3411
1961.3468
1961.3528
1961.359
1961.3654
1961.3721
1961.3789
1961.3859
1961.3929
1961.4
1961.407
1961.4139
1961.4205
1961.4266
1961.432
1961.4365
1961.4398
1961.4415
1961.4411
1961.4381
1961.4319
1961.4214
1961.4057
1961.383
1961.3533
1961.3075
1961.2687
1961.1341
1961.6711
1961.713
1961.7211
1961.7259
1961.7297
1961.7332
1961.7364
1961.7396
1961.7427
1961.7458
1961.7489
1961.7519
1961.7551
1961.7584
1961.7619
1961.7656
1961.7697
1961.774
1961.7786
1961.7835
1961.7887
1961.7941
1961.7997
1961.8056
1961.8118
1961.8182
1961.8249
1961.8318
1961.8389
1961.8462
1961.8535
1961.861
1961.8684
1961.8758
1961.8828
1961.8895
1961.8956
1961.9009
1961.9051
1961.9077
1961.9085
1961.9069
1961.9023
1961.8937
1961.8803
1961.8604
1961.8339
1961.7924
1961.7572
1961.6334
1962.1143
1962.1573
1962.1656
1962.1706
1962.1745
1962.1781
1962.1814
1962.1847
1962.1879
1962.191
1962.1942
1962.1973
1962.2006
1962.204
1962.2075
1962.2114
1962.2155
1962.22
1962.2248
1962.2298
1962.2351
1962.2406
1962.2464
1962.2525
1962.2589
1962.2655
1962.2724
1962.2795
1962.2869
1962.2945
1962.3022
1962.31
1962.3178
1962.3256
1962.3332
1962.3404
1962.3472
1962.3531
1962.3581
1962.3618
1962.3637
1962.3634
1962.3602
1962.3535
1962.3422
1962.3249
1962.3013
1962.2639
1962.2319
1962.1183
1962.5461
1962.5903
1962.5989
1962.604
1962.608
1962.6116
1962.6151
1962.6185
1962.6217
1962.625
1962.6282
1962.6314
1962.6347
1962.6382
1962.6419
1962.6458
1962.6501
1962.6547
1962.6595
1962.6647
1962.6702
1962.6759
1962.6818
1962.6881
1962.6946
1962.7015
1962.7086
1962.716
1962.7236
1962.7315
1962.7395
1962.7476
1962.7558
1962.764
1962.7721
1962.7799
1962.7872
1962.7939
1962.7996
1962.8042
1962.8071
1962.808
1962.8063
1962.8013
1962.792
1962.7771
1962.7563
1962.7226
1962.6938
1962.5895
1962.9672
1963.0126
1963.0214
1963.0266
1963.0308
1963.0344
1963.038
1963.0414
1963.0448
1963.0481
1963.0514
1963.0547
1963.0581
1963.0617
1963.0654
1963.0695
1963.0739
1963.0785
1963.0836
1963.0889
1963.0944
1963.1003
1963.1064
1963.1129
1963.1196
1963.1266
1963.1339
1963.1416
1963.1495
1963.1576
1963.1659
1963.1744
1963.183
1963.1916
1963.2001
1963.2084
1963.2163
1963.2236
1963.2301
1963.2355
1963.2395
1963.2415
1963.2412
1963.2377
1963.2304
1963.2177
1963.1996
1963.1694
1963.1434
1963.0478
1963.3779
1963.4246
1963.4336
1963.4389
1963.4432
1963.447
1963.4506
1963.4541
1963.4576
1963.461
1963.4643
1963.4677
1963.4712
1963.4749
1963.4787
1963.4829
1963.4873
1963.4921
1963.4973
1963.5027
1963.5084
1963.5144
1963.5207
1963.5273
1963.5342
1963.5415
1963.549
1963.5569
1963.565
1963.5734
1963.582
1963.5908
1963.5998
1963.6088
1963.6177
1963.6265
1963.6349
1963.6429
1963.6501
1963.6563
1963.6612
1963.6644
1963.6653
1963.6634
1963.6578
1963.6472
1963.6316
1963.6047
1963.5814
1963.4939
1963.7789
1963.8267
1963.836
1963.8415
1963.8458
1963.8497
1963.8534
1963.857
1963.8606
1963.864
1963.8675
1963.871
1963.8745
1963.8782
1963.8822
1963.8864
1963.891
1963.8959
1963.9012
1963.9067
1963.9126
1963.9188
1963.9252
1963.932
1963.9391
1963.9465
1963.9542
1963.9623
1963.9707
1963.9794
1963.9883
1963.9974
1964.0067
1964.016
1964.0254
1964.0347
1964.0437
1964.0522
1964.0601
1964.0671
1964.0729
1964.0771
1964.0792
1964.0787
1964.0748
1964.0663
1964.0529
1964.0291
1964.0084
1963.9284
1964.1706
1964.2196
1964.229
1964.2346
1964.2391
1964.2431
1964.2469
1964.2506
1964.2542
1964.2577
1964.2612
1964.2648
1964.2685
1964.2723
1964.2763
1964.2806
1964.2853
1964.2904
1964.2957
1964.3014
1964.3074
1964.3137
1964.3203
1964.3272
1964.3345
1964.3421
1964.3501
1964.3584
1964.367
1964.3759
1964.3851
1964.3945
1964.4041
1964.4139
1964.4237
1964.4334
1964.4429
1964.452
1964.4606
1964.4683
1964.4749
1964.4801
1964.4834
1964.4842
1964.4819
1964.4753
1964.4641
1964.4432
1964.4249
1964.352
1964.5532
1964.6034
1964.6131
1964.6189
1964.6234
1964.6275
1964.6314
1964.6352
1964.6388
1964.6425
1964.6461
1964.6497
1964.6534
1964.6573
1964.6614
1964.6659
1964.6707
1964.6758
1964.6813
1964.6871
1964.6932
1964.6997
1964.7064
1964.7135
1964.721
1964.7288
1964.7369
1964.7454
1964.7543
1964.7635
1964.7729
1964.7826
1964.7926
1964.8027
1964.8129
1964.823
1964.833
1964.8427
1964.8519
1964.8603
1964.8678
1964.8739
1964.8783
1964.8804
1964.8796
1964.8747
1964.8656
1964.8474
1964.8314
1964.7651
1964.9273
1964.9787
1964.9886
1964.9945
1964.9992
1965.0033
1965.0073
1965.0112
1965.0149
1965.0186
1965.0223
1965.026
1965.0298
1965.0338
1965.038
1965.0425
1965.0474
1965.0527
1965.0583
1965.0642
1965.0705
1965.0771
1965.084
1965.0912
1965.0988
1965.1068
1965.1152
1965.1239
1965.133
1965.1424
1965.1521
1965.1621
1965.1724
1965.1828
1965.1934
1965.204
1965.2144
1965.2246
1965.2344
1965.2436
1965.2518
1965.2588
1965.2643
1965.2676
1965.2682
1965.265
1965.2579
1965.2422
1965.2283
1965.1683
1965.2932
1965.3458
1965.3559
1965.3619
1965.3667
1965.3709
1965.375
1965.379
1965.3828
1965.3866
1965.3903
1965.3941
1965.398
1965.402
1965.4064
1965.411
1965.416
1965.4213
1965.427
1965.4331
1965.4395
1965.4462
1965.4533
1965.4607
1965.4685
1965.4766
1965.4852
1965.4941
1965.5034
1965.5131
1965.5231
1965.5334
1965.5439
1965.5547
1965.5656
1965.5766
1965.5875
1965.5983
1965.6086
1965.6184
1965.6274
1965.6353
1965.6417
1965.6462
1965.6482
1965.6466
1965.6413
1965.6281
1965.6162
1965.5621
1965.6513
1965.705
1965.7153
1965.7215
1965.7264
1965.7307
1965.7348
1965.7389
1965.7428
1965.7466
1965.7505
1965.7543
1965.7583
1965.7624
1965.7668
1965.7715
1965.7766
1965.7821
1965.7879
1965.7941
1965.8006
1965.8075
1965.8147
1965.8223
1965.8302
1965.8386
1965.8473
1965.8564
1965.866
1965.8758
1965.8861
1965.8967
1965.9075
1965.9186
1965.9299
1965.9413
1965.9527
1965.9639
1965.9748
1965.9852
1965.9949
1966.0036
1966.011
1966.0166
1966.0198
1966.0199
1966.0163
1966.0054
1965.9954
1965.9468
1966.0017
1966.0566
1966.0672
1966.0735
1966.0785
1966.0829
1966.0871
1966.0912
1966.0952
1966.0992
1966.1031
1966.107
1966.111
1966.1153
1966.1197
1966.1245
1966.1297
1966.1353
1966.1412
1966.1476
1966.1542
1966.1612
1966.1686
1966.1763
1966.1844
1966.1929
1966.2018
1966.2112
1966.2209
1966.231
1966.2415
1966.2524
1966.2635
1966.2749
1966.2866
1966.2983
1966.3101
1966.3218
1966.3333
1966.3443
1966.3547
1966.3642
1966.3725
1966.3791
1966.3836
1966.3851
1966.3832
1966.3745
1966.3663
1966.3229
1966.345
1966.401
1966.4118
1966.4182
1966.4233
1966.4278
1966.4321
1966.4363
1966.4404
1966.4444
1966.4484
1966.4524
1966.4565
1966.4608
1966.4654
1966.4703
1966.4756
1966.4812
1966.4873
1966.4937
1966.5005
1966.5076
1966.5151
1966.523
1966.5313
1966.54
1966.5491
1966.5586
1966.5686
1966.5789
1966.5896
1966.6007
1966.6122
1966.6239
1966.6359
1966.648
1966.6603
1966.6724
1966.6844
1966.696
1966.707
1966.7173
1966.7265
1966.7341
1966.7398
1966.7426
1966.7423
1966.7357
1966.7292
1966.6908
1966.6812
1966.7385
1966.7494
1966.756
1966.7612
1966.7658
1966.7702
1966.7745
1966.7786
1966.7827
1966.7868
1966.7908
1966.795
1966.7994
1966.804
1966.809
1966.8144
1966.8202
1966.8264
1966.8329
1966.8398
1966.8471
1966.8547
1966.8627
1966.8712
1966.88
1966.8893
1966.8991
1966.9092
1966.9198
1966.9308
1966.9421
1966.9538
1966.9659
1966.9782
1966.9907
1967.0033
1967.0159
1967.0284
1967.0406
1967.0522
1967.0632
1967.0732
1967.0818
1967.0886
1967.0928
1967.094
1967.0893
1967.0845
1967.0508
1967.0108
1967.0692
1967.0804
1967.0871
1967.0924
1967.097
1967.1015
1967.1059
1967.1101
1967.1143
1967.1184
1967.1226
1967.1268
1967.1313
1967.136
1967.1411
1967.1466
1967.1524
1967.1587
1967.1654
1967.1724
1967.1798
1967.1876
1967.1958
1967.2044
1967.2134
1967.2228
1967.2328
1967.2431
1967.2539
1967.2651
1967.2767
1967.2887
1967.3011
1967.3137
1967.3266
1967.3396
1967.3526
1967.3656
1967.3783
1967.3906
1967.4023
1967.4131
1967.4226
1967.4305
1967.4359
1967.4386
1967.4357
1967.4325
1967.4032
1967.3339
1967.3934
1967.4049
1967.4117
1967.4171
1967.4219
1967.4264
1967.4309
1967.4352
1967.4394
1967.4436
1967.4478
1967.4522
1967.4567
1967.4615
1967.4667
1967.4722
1967.4782
1967.4846
1967.4914
1967.4986
1967.5061
1967.514
1967.5223
1967.5311
1967.5402
1967.5499
1967.56
1967.5706
1967.5816
1967.593
1967.6049
1967.6171
1967.6298
1967.6427
1967.6559
1967.6693
1967.6828
1967.6962
1967.7094
1967.7223
1967.7347
1967.7462
1967.7567
1967.7655
1967.7722
1967.7763
1967.7752
1967.7735
1967.7484
1967.6508
1967.7115
1967.7231
1967.7301
1967.7356
1967.7404
1967.7451
1967.7496
1967.754
1967.7583
1967.7626
1967.7669
1967.7713
1967.7759
1967.7808
1967.786
1967.7917
1967.7978
1967.8043
1967.8112
1967.8185
1967.8261
1967.8342
1967.8426
1967.8515
1967.8609
1967.8707
1967.881
1967.8918
1967.903
1967.9146
1967.9267
1967.9393
1967.9522
1967.9655
1967.979
1967.9928
1968.0066
1968.0205
1968.0342
1968.0477
1968.0607
1968.073
1968.0843
1968.0942
1968.102
1968.1073
1968.108
1968.1077
1968.0866
1967.9617
1968.0236
1968.0354
1968.0425
1968.0481
1968.053
1968.0578
1968.0624
1968.0669
1968.0712
1968.0756
1968.08
1968.0844
1968.0891
1968.0941
1968.0994
1968.1052
1968.1114
1968.118
1968.125
1968.1324
1968.1402
1968.1483
1968.1569
1968.166
1968.1755
1968.1855
1968.196
1968.2069
1968.2184
1968.2303
1968.2426
1968.2554
1968.2686
1968.2821
1968.296
1968.3101
1968.3244
1968.3387
1968.3529
1968.367
1968.3806
1968.3936
1968.4057
1968.4165
1968.4254
1968.4321
1968.4344
1968.4354