/*--------------------------------*- C++ -*----------------------------------*\
| =========                 |                                                 |
| \\      /  F ield         | OpenFOAM: The Open Source CFD Toolbox           |
|  \\    /   O peration     | Version:  4.0                                   |
|   \\  /    A nd           | Web:      www.OpenFOAM.org                      |
|    \\/     M anipulation  |                                                 |
\*---------------------------------------------------------------------------*/
FoamFile
{
    version     2.0;
    format      ascii;
    class       volScalarField;
    location    "974";
    object      ILambda_10_0;
}
// * * * * * * * * * * * * * * * * * * * * * * * * * * * * * * * * * * * * * //

dimensions      [1 0 -3 0 0 0 0];

internalField   nonuniform List<scalar> 
5000
(
158.00743
158.03344
158.06092
158.09104
158.12409
158.16037
158.20021
158.24398
158.29206
158.34489
158.40293
158.46671
158.53678
158.61375
158.6983
158.79115
158.89308
159.00492
159.12761
159.26211
159.40948
159.57084
159.74739
159.94037
160.15108
160.38086
160.63105
160.90298
161.19792
161.51705
161.86137
162.23163
162.62827
163.05126
163.50003
163.97334
164.46912
164.98443
165.51534
166.05698
166.60359
167.14874
167.68567
168.20785
168.70929
169.18654
169.63336
170.06686
170.4153
171.00999
165.89173
165.91179
165.93285
165.95587
165.98103
166.00855
166.03864
166.07155
166.10753
166.14684
166.18979
166.23667
166.28782
166.34358
166.40431
166.47039
166.5422
166.62013
166.70458
166.79595
166.89461
167.00095
167.1153
167.23796
167.36917
167.50907
167.65774
167.81509
167.98093
168.15486
168.33631
168.52447
168.71831
168.91659
169.11784
169.32041
169.52257
169.72258
169.91885
170.1101
170.29559
170.47531
170.65015
170.82203
170.99367
171.16937
171.35017
171.55214
171.7255
172.09445
168.32611
168.33483
168.34363
168.3532
168.36364
168.37503
168.38747
168.40105
168.41588
168.43207
168.44975
168.46903
168.49007
168.51299
168.53796
168.56513
168.59467
168.62673
168.6615
168.69914
168.73985
168.78381
168.83119
168.88219
168.93698
168.99574
169.05865
169.12586
169.19754
169.27384
169.35495
169.44102
169.53227
169.62894
169.73131
169.83976
169.95474
170.07681
170.20665
170.34503
170.49281
170.65084
170.81989
171.00055
171.19286
171.39721
171.60995
171.84149
172.03907
172.42105
169.63176
169.63754
169.64321
169.64939
169.65612
169.66347
169.6715
169.6803
169.68992
169.70046
169.712
169.72463
169.73847
169.75362
169.77021
169.78836
169.8082
169.82989
169.85359
169.87945
169.90765
169.9384
169.9719
170.00835
170.04801
170.09109
170.13788
170.18862
170.2436
170.30311
170.36746
170.43695
170.51191
170.59266
170.67951
170.77279
170.87277
170.97972
171.09387
171.21538
171.34431
171.48066
171.62432
171.77511
171.93262
172.09708
172.26586
172.44876
172.60323
172.91096
170.55975
170.56423
170.56854
170.57322
170.57832
170.58389
170.58998
170.59664
170.60394
170.61193
170.62069
170.63029
170.64082
170.65236
170.66501
170.67888
170.69407
170.71071
170.72891
170.74882
170.77058
170.79436
170.82032
170.84865
170.87953
170.91319
170.94982
170.98966
171.03295
171.07993
171.13086
171.186
171.24562
171.30998
171.37937
171.45403
171.53425
171.62026
171.7123
171.81061
171.91539
172.02685
172.14515
172.2705
172.40293
172.54311
172.689
172.84984
172.98678
173.26538
171.28515
171.28887
171.29237
171.29617
171.3003
171.30481
171.30974
171.31513
171.32103
171.3275
171.33459
171.34236
171.35089
171.36025
171.37051
171.38177
171.39411
171.40764
171.42245
171.43867
171.45642
171.47584
171.49706
171.52025
171.54557
171.57321
171.60334
171.63618
171.67193
171.71081
171.75306
171.79891
171.84863
171.90247
171.96069
172.02356
172.09136
172.16435
172.24281
172.32698
172.41714
172.51351
172.61632
172.72578
172.84197
172.96549
173.09447
173.23723
173.35883
173.6078
171.88161
171.88482
171.88776
171.89096
171.89442
171.8982
171.90233
171.90685
171.91179
171.9172
171.92314
171.92965
171.93679
171.94462
171.95323
171.96267
171.97302
171.98438
171.99682
172.01046
172.02539
172.04173
172.05961
172.07917
172.10054
172.1239
172.1494
172.17722
172.20754
172.24058
172.27654
172.31564
172.35811
172.40419
172.45414
172.5082
172.56663
172.62971
172.69769
172.77084
172.84943
172.93369
173.02388
173.12024
173.22289
173.33244
173.44725
173.57503
173.68397
173.90937
172.38559
172.38845
172.391
172.39376
172.39674
172.4
172.40355
172.40743
172.41167
172.41632
172.42141
172.427
172.43313
172.43986
172.44725
172.45536
172.46427
172.47404
172.48475
172.49648
172.50934
172.52343
172.53885
172.55572
172.57419
172.59437
172.61643
172.64053
172.66682
172.69549
172.72674
172.76077
172.79778
172.838
172.88167
172.92903
172.98032
173.03579
173.09572
173.16036
173.22997
173.30481
173.38515
173.47124
173.56323
173.66173
173.7653
173.88104
173.97981
174.1857
172.8214
172.82401
172.82626
172.82869
172.83131
172.83417
172.83728
172.84068
172.84439
172.84846
172.85291
172.8578
172.86316
172.86905
172.87551
172.88261
172.89041
172.89897
172.90835
172.91864
172.92991
172.94227
172.9558
172.97062
172.98684
173.00459
173.024
173.04521
173.06838
173.09367
173.12126
173.15133
173.18409
173.21972
173.25847
173.30054
173.34618
173.39564
173.44915
173.50698
173.56939
173.63664
173.70898
173.7867
173.86995
173.95933
174.05354
174.15922
174.24944
174.43877
173.20451
173.20694
173.20896
173.21114
173.21348
173.21603
173.2188
173.22182
173.22512
173.22873
173.23268
173.23702
173.24178
173.24701
173.25275
173.25906
173.26598
173.27359
173.28193
173.29108
173.30111
173.3121
173.32415
173.33734
173.35179
173.36761
173.38492
173.40385
173.42454
173.44715
173.47182
173.49874
173.52808
173.56005
173.59484
173.63266
173.67374
173.71831
173.76661
173.81889
173.87541
173.93641
174.00217
174.07295
174.14893
174.2307
174.31706
174.41424
174.49724
174.67242
173.54596
173.54826
173.5501
173.55208
173.5542
173.5565
173.559
173.56172
173.56469
173.56794
173.57149
173.57539
173.57966
173.58436
173.58952
173.59519
173.60141
173.60825
173.61575
173.62398
173.63301
173.6429
173.65375
173.66563
173.67865
173.69291
173.70851
173.72559
173.74427
173.76468
173.78698
173.81132
173.83788
173.86683
173.89837
173.9327
173.97002
174.01055
174.05454
174.10221
174.15381
174.2096
174.26982
174.33476
174.4046
174.47991
174.5596
174.6495
174.72632
174.88926
173.85359
173.85581
173.85751
173.85933
173.86127
173.86337
173.86565
173.86813
173.87083
173.87377
173.877
173.88053
173.88441
173.88867
173.89335
173.8985
173.90415
173.91036
173.91717
173.92465
173.93285
173.94183
173.95169
173.96249
173.97433
173.9873
174.0015
174.01704
174.03405
174.05265
174.07298
174.09518
174.11942
174.14586
174.17469
174.20609
174.24026
174.27741
174.31776
174.36154
174.40898
174.46035
174.51587
174.57584
174.64042
174.71019
174.78413
174.86774
174.9392
175.09146
174.13329
174.13545
174.13704
174.13873
174.14053
174.14246
174.14456
174.14683
174.14931
174.152
174.15495
174.15819
174.16173
174.16563
174.16991
174.17462
174.17979
174.18548
174.19172
174.19856
174.20607
174.2143
174.22332
174.23322
174.24407
174.25595
174.26897
174.28323
174.29883
174.3159
174.33457
174.35497
174.37725
174.40157
174.4281
174.45702
174.48851
174.52278
174.56003
174.60048
174.64438
174.69194
174.74343
174.7991
174.85914
174.9241
174.99304
175.07116
175.13795
175.28081
174.38951
174.39165
174.39315
174.39472
174.3964
174.3982
174.40014
174.40225
174.40453
174.40702
174.40974
174.41271
174.41598
174.41957
174.42351
174.42785
174.43262
174.43786
174.44361
174.44992
174.45684
174.46443
174.47275
174.48188
174.49188
174.50285
174.51486
174.52802
174.54243
174.5582
174.57545
174.59431
174.61491
174.63742
174.66198
174.68877
174.71796
174.74974
174.78432
174.82191
174.86272
174.907
174.95497
175.0069
175.06298
175.12373
175.18829
175.26158
175.32425
175.45877
174.62574
174.62788
174.6293
174.63079
174.63236
174.63405
174.63586
174.63782
174.63994
174.64225
174.64477
174.64753
174.65056
174.65388
174.65754
174.66156
174.66598
174.67084
174.67617
174.68202
174.68844
174.69548
174.70319
174.71166
174.72094
174.73112
174.74227
174.75448
174.76786
174.78251
174.79853
174.81606
174.83522
174.85615
174.87901
174.90394
174.93114
174.96076
174.99302
175.0281
175.06623
175.10762
175.15252
175.20117
175.25377
175.31081
175.37149
175.4405
175.49951
175.62661
174.84476
174.8469
174.84827
174.84968
174.85117
174.85276
174.85446
174.8563
174.85828
174.86044
174.86279
174.86536
174.86818
174.87127
174.87468
174.87842
174.88254
174.88707
174.89204
174.8975
174.90348
174.91004
174.91723
174.92512
174.93378
174.94326
174.95367
174.96506
174.97754
174.99121
175.00617
175.02253
175.04043
175.05999
175.08135
175.10468
175.13012
175.15786
175.18807
175.22095
175.25671
175.29557
175.33775
175.3835
175.433
175.48675
175.54399
175.60918
175.66493
175.78535
175.0488
175.05097
175.05228
175.05364
175.05506
175.05657
175.05817
175.0599
175.06176
175.06379
175.06599
175.06839
175.07103
175.07392
175.07711
175.08062
175.08448
175.08872
175.09337
175.09848
175.10408
175.11022
175.11696
175.12434
175.13245
175.14133
175.15108
175.16175
175.17345
175.18626
175.20028
175.21563
175.23241
175.25076
175.27081
175.29271
175.31661
175.34267
175.37108
175.40201
175.43568
175.47228
175.51204
175.55521
175.60196
175.65277
175.70692
175.76868
175.8215
175.93592
175.2397
175.24192
175.24319
175.2445
175.24585
175.24729
175.24881
175.25045
175.25221
175.25411
175.25618
175.25844
175.26092
175.26364
175.26663
175.26993
175.27356
175.27754
175.28192
175.28672
175.29198
175.29776
175.30409
175.31103
175.31865
175.32701
175.33617
175.34621
175.35721
175.36926
175.38246
175.3969
175.4127
175.42998
175.44887
175.4695
175.49202
175.5166
175.5434
175.5726
175.60439
175.63898
175.67658
175.71743
175.76171
175.80987
175.86125
175.91992
175.97011
176.07907
175.419
175.42126
175.4225
175.42376
175.42507
175.42644
175.42789
175.42945
175.43111
175.43291
175.43487
175.437
175.43933
175.4419
175.44472
175.44783
175.45126
175.45502
175.45915
175.46368
175.46865
175.47409
175.48007
175.48662
175.49381
175.50169
175.51033
175.51981
175.53019
175.54157
175.55402
175.56766
175.58258
175.59891
175.61675
175.63626
175.65755
175.6808
175.70616
175.7338
175.76391
175.79669
175.83235
175.87111
175.91316
175.95894
176.00781
176.06368
176.11147
176.21548
175.58795
175.59027
175.59148
175.59271
175.59398
175.59529
175.59668
175.59817
175.59975
175.60146
175.60331
175.60533
175.60754
175.60996
175.61264
175.61558
175.61882
175.62238
175.62629
175.63058
175.63528
175.64044
175.64609
175.65229
175.6591
175.66656
175.67474
175.68371
175.69354
175.70431
175.71611
175.72902
175.74316
175.75862
175.77554
175.79402
175.81422
175.83627
175.86033
175.88656
175.91516
175.94631
175.98021
176.01709
176.05712
176.10073
176.14732
176.20064
176.24626
176.34574
175.74765
175.75003
175.75123
175.75243
175.75365
175.75492
175.75626
175.75768
175.75919
175.76082
175.76258
175.76449
175.76659
175.76889
175.77143
175.77422
175.7773
175.78068
175.7844
175.78847
175.79293
175.79782
175.80319
175.80908
175.81553
175.82262
175.83038
175.8389
175.84823
175.85846
175.86966
175.88192
175.89535
175.91004
175.92611
175.94368
175.96288
175.98385
176.00673
176.0317
176.05892
176.08859
176.12089
176.15606
176.19425
176.23589
176.2804
176.3314
176.37502
176.47035
175.89902
175.90147
175.90265
175.90383
175.90502
175.90625
175.90754
175.9089
175.91035
175.9119
175.91358
175.9154
175.9174
175.91959
175.922
175.92466
175.92759
175.93081
175.93435
175.93823
175.94248
175.94713
175.95224
175.95784
175.96398
175.97072
175.97812
175.98622
175.9951
176.00484
176.0155
176.02717
176.03996
176.05395
176.06926
176.086
176.10429
176.12427
176.14609
176.1699
176.19588
176.22419
176.25504
176.28864
176.32515
176.36499
176.4076
176.45647
176.49827
176.58977
176.04285
176.04538
176.04654
176.0477
176.04887
176.05006
176.05131
176.05262
176.05401
176.0555
176.0571
176.05884
176.06074
176.06283
176.06513
176.06767
176.07047
176.07355
176.07692
176.08062
176.08468
176.08912
176.09399
176.09933
176.10519
176.11162
176.11868
176.12641
176.13488
176.14417
176.15434
176.16548
176.17768
176.19104
176.20565
176.22163
176.23909
176.25818
176.27903
176.30178
176.32662
176.3537
176.38322
176.41538
176.45036
176.48854
176.5294
176.5763
176.61642
176.7044
176.17982
176.18243
176.18359
176.18474
176.18588
176.18704
176.18825
176.18952
176.19086
176.19229
176.19382
176.19548
176.1973
176.1993
176.2015
176.20393
176.20661
176.20955
176.21278
176.21632
176.2202
176.22444
176.2291
176.23421
176.23981
176.24596
176.2527
176.26009
176.26819
176.27707
176.2868
176.29745
176.30912
176.32189
176.33587
176.35115
176.36787
176.38613
176.40609
176.42788
176.45166
176.47761
176.50591
176.53675
176.57031
176.60697
176.64622
176.69131
176.72989
176.8146
176.31055
176.31324
176.3144
176.31553
176.31665
176.31779
176.31897
176.32019
176.32148
176.32286
176.32433
176.32592
176.32766
176.32958
176.33169
176.33402
176.33658
176.33941
176.3425
176.3459
176.34961
176.35368
176.35814
176.36304
176.3684
176.37429
176.38075
176.38783
176.39559
176.4041
176.41341
176.42362
176.4348
176.44704
176.46043
176.47508
176.4911
176.50861
176.52775
176.54865
176.57147
176.59637
176.62354
176.65318
176.68543
176.72068
176.75844
176.80186
176.839
176.92069
176.43555
176.43832
176.43948
176.4406
176.44171
176.44282
176.44397
176.44516
176.44641
176.44773
176.44915
176.45068
176.45235
176.45419
176.45621
176.45845
176.46092
176.46363
176.4666
176.46986
176.47343
176.47734
176.48162
176.48632
176.49147
176.49712
176.50332
176.51011
176.51756
176.52572
176.53466
176.54446
176.55519
176.56693
176.57979
176.59385
176.60924
176.62606
176.64443
176.66451
176.68644
176.71039
176.73651
176.76502
176.79607
176.83002
176.8664
176.90826
176.94407
177.02294
176.55528
176.55814
176.5593
176.56042
176.56151
176.56261
176.56373
176.56488
176.56609
176.56737
176.56874
176.57021
176.57182
176.57358
176.57553
176.57768
176.58006
176.58267
176.58553
176.58867
176.5921
176.59586
176.59997
176.60449
176.60944
176.61487
176.62083
176.62737
176.63453
176.64237
176.65097
176.66038
176.6707
176.68199
176.69435
176.70788
176.72267
176.73884
176.75652
176.77584
176.79695
176.82
176.84516
176.87263
176.90256
176.93529
176.9704
177.01081
177.04538
177.12163
176.67015
176.67311
176.67427
176.67538
176.67646
176.67754
176.67864
176.67977
176.68094
176.68218
176.6835
176.68492
176.68647
176.68817
176.69004
176.69212
176.69441
176.69692
176.69968
176.70271
176.70601
176.70963
176.7136
176.71795
176.72272
176.72795
176.73368
176.73997
176.74687
176.75442
176.7627
176.77176
176.78169
176.79257
176.80447
176.81749
176.83174
176.84732
176.86435
176.88297
176.90331
176.92553
176.9498
176.9763
177.00518
177.03679
177.0707
177.10976
177.14318
177.21697
176.78053
176.78359
176.78475
176.78586
176.78693
176.788
176.78907
176.79018
176.79132
176.79252
176.79379
176.79516
176.79666
176.7983
176.80011
176.80211
176.80432
176.80675
176.80942
176.81234
176.81553
176.81902
176.82284
176.82704
176.83164
176.83668
176.84221
176.84828
176.85493
176.86221
176.87019
176.87893
176.8885
176.89899
176.91046
176.92302
176.93676
176.95179
176.96822
176.98618
177.00581
177.02726
177.05069
177.07629
177.1042
177.13476
177.16755
177.20535
177.23769
177.30919
176.88675
176.8899
176.89107
176.89218
176.89324
176.89429
176.89535
176.89643
176.89754
176.89871
176.89994
176.90127
176.90271
176.9043
176.90605
176.90798
176.91012
176.91247
176.91505
176.91787
176.92095
176.92433
176.92802
176.93207
176.93651
176.94139
176.94673
176.95258
176.959
176.96603
176.97374
176.98218
176.99142
177.00154
177.01262
177.02475
177.03802
177.05253
177.0684
177.08575
177.10471
177.12544
177.1481
177.17285
177.19985
177.22943
177.26118
177.2978
177.32912
177.39847
176.98909
176.99233
176.99351
176.99463
176.99568
176.99672
176.99776
176.99882
176.99991
177.00104
177.00224
177.00352
177.00492
177.00645
177.00814
177.01002
177.01209
177.01437
177.01686
177.01959
177.02258
177.02584
177.02942
177.03333
177.03763
177.04234
177.0475
177.05317
177.05937
177.06617
177.07361
177.08177
177.09071
177.10049
177.1112
177.12293
177.13575
177.14978
177.16513
177.18191
177.20025
177.22031
177.24223
177.2662
177.29234
177.321
177.35178
177.38729
177.41767
177.48499
177.08781
177.09116
177.09235
177.09346
177.09452
177.09555
177.09657
177.09761
177.09867
177.09977
177.10094
177.10218
177.10353
177.10502
177.10666
177.10848
177.11049
177.11269
177.11511
177.11776
177.12065
177.12382
177.12728
177.13107
177.13523
177.13979
177.14479
177.15027
177.15628
177.16285
177.17006
177.17796
177.1866
177.19607
177.20644
177.21779
177.2302
177.24378
177.25863
177.27488
177.29264
177.31207
177.33331
177.35653
177.38188
177.40968
177.43953
177.474
177.50349
177.5689
177.18316
177.1866
177.1878
177.18892
177.18998
177.191
177.19201
177.19303
177.19407
177.19515
177.19628
177.19748
177.1988
177.20024
177.20183
177.20359
177.20554
177.20769
177.21004
177.21261
177.21541
177.21848
177.22183
177.22551
177.22954
177.23396
177.23881
177.24412
177.24994
177.25632
177.2633
177.27095
177.27932
177.2885
177.29854
177.30954
177.32156
177.33472
177.34912
177.36486
177.38208
177.40091
177.42151
177.44404
177.46864
177.49562
177.52461
177.5581
177.58675
177.65037
177.27534
177.27889
177.2801
177.28123
177.28228
177.28329
177.2843
177.2853
177.28632
177.28737
177.28847
177.28964
177.29092
177.29232
177.29386
177.29558
177.29747
177.29956
177.30184
177.30434
177.30706
177.31004
177.3133
177.31686
177.32078
177.32507
177.32977
177.33492
177.34057
177.34675
177.35352
177.36094
177.36907
177.37796
177.3877
177.39837
177.41003
177.42279
177.43675
177.45203
177.46873
177.48701
177.507
177.52888
177.55277
177.57899
177.60717
177.63973
177.66759
177.72951
177.36456
177.36821
177.36943
177.37057
177.37162
177.37263
177.37362
177.37461
177.37561
177.37664
177.37771
177.37885
177.38009
177.38145
177.38295
177.38462
177.38646
177.38849
177.39072
177.39314
177.39579
177.39869
177.40185
177.40532
177.40912
177.41329
177.41785
177.42286
177.42834
177.43434
177.44092
177.44812
177.45601
177.46465
177.4741
177.48445
177.49578
177.50816
177.52172
177.53655
177.55277
177.57052
177.58995
177.6112
177.63443
177.65992
177.68734
177.71903
177.74614
177.80645
177.45099
177.45474
177.45598
177.45712
177.45817
177.45918
177.46016
177.46114
177.46212
177.46312
177.46417
177.46528
177.46649
177.46781
177.46927
177.4709
177.47269
177.47467
177.47684
177.4792
177.48178
177.4846
177.48767
177.49105
177.49474
177.49879
177.50323
177.5081
177.51343
177.51926
177.52565
177.53265
177.54031
177.5487
177.55789
177.56795
177.57895
177.59099
177.60416
177.61857
177.63434
177.65159
177.67048
177.69116
177.71375
177.73857
177.76525
177.79612
177.82253
177.88132
177.53479
177.53864
177.5399
177.54105
177.5421
177.5431
177.54408
177.54504
177.54601
177.54699
177.54802
177.5491
177.55027
177.55156
177.55299
177.55457
177.55632
177.55825
177.56036
177.56267
177.56518
177.56792
177.57092
177.5742
177.5778
177.58174
177.58606
177.59079
177.59598
177.60165
177.60787
177.61468
177.62213
177.63029
177.63923
177.649
177.6597
177.67141
177.68422
177.69823
177.71357
177.73036
177.74874
177.76887
177.79087
177.81503
177.84103
177.87112
177.89686
177.95421
177.61611
177.62007
177.62134
177.6225
177.62355
177.62456
177.62552
177.62648
177.62743
177.6284
177.6294
177.63045
177.6316
177.63285
177.63424
177.63579
177.6375
177.63938
177.64144
177.64369
177.64614
177.64881
177.65173
177.65493
177.65843
177.66227
177.66648
177.67109
177.67614
177.68167
177.68772
177.69434
177.7016
177.70954
177.71823
177.72775
177.73816
177.74956
177.76202
177.77566
177.79059
177.80694
177.82484
177.84445
177.86588
177.88944
177.91479
177.94413
177.96924
178.02522
177.69509
177.69916
177.70044
177.70161
177.70267
177.70367
177.70463
177.70558
177.70652
177.70746
177.70844
177.70948
177.71059
177.71182
177.71317
177.71468
177.71635
177.71819
177.72021
177.7224
177.72479
177.7274
177.73025
177.73336
177.73678
177.74052
177.74463
177.74912
177.75404
177.75942
177.76532
177.77177
177.77884
177.78658
177.79505
177.80431
177.81446
177.82555
177.83769
177.85098
177.86553
177.88145
177.8989
177.91801
177.93891
177.96188
177.98662
178.01526
178.03976
178.09444
177.77186
177.77603
177.77733
177.77851
177.77957
177.78057
177.78153
177.78247
177.78339
177.78432
177.78528
177.78629
177.78738
177.78858
177.78991
177.79138
177.79301
177.79481
177.79678
177.79892
177.80126
177.8038
177.80659
177.80963
177.81296
177.81661
177.82062
177.825
177.82979
177.83504
177.84079
177.84708
177.85397
177.86152
177.86977
177.87881
177.88869
177.89951
177.91134
177.92429
177.93847
177.954
177.97101
177.98965
178.01005
178.03247
178.05662
178.08459
178.10852
178.16196
177.84653
177.8508
177.85212
177.85331
177.85438
177.85538
177.85633
177.85726
177.85817
177.85909
177.86003
177.86102
177.86208
177.86325
177.86455
177.86599
177.86759
177.86935
177.87128
177.87337
177.87566
177.87814
177.88086
177.88383
177.88709
177.89065
177.89456
177.89884
177.90352
177.90864
177.91425
177.92039
177.92711
177.93447
177.94252
177.95133
177.96097
177.97152
177.98306
177.9957
178.00953
178.02468
178.04128
178.05948
178.07939
178.10129
178.12488
178.15222
178.1756
178.22786
177.9192
177.92358
177.92492
177.92612
177.92719
177.92819
177.92914
177.93006
177.93097
177.93187
177.93279
177.93376
177.9348
177.93595
177.93722
177.93863
177.94019
177.94192
177.9438
177.94585
177.94809
177.95052
177.95318
177.95608
177.95926
177.96275
177.96656
177.97074
177.97531
177.98032
177.98579
177.99178
177.99835
178.00553
178.01339
178.02199
178.0314
178.04169
178.05296
178.06529
178.07879
178.09358
178.10979
178.12756
178.14702
178.16842
178.19147
178.21821
178.24107
178.29221
177.98998
177.99447
177.99582
177.99703
177.99812
177.99912
178.00007
178.00098
178.00188
178.00276
178.00367
178.00462
178.00564
178.00676
178.008
178.00938
178.01092
178.01261
178.01445
178.01647
178.01865
178.02103
178.02363
178.02647
178.02958
178.03299
178.03672
178.0408
178.04527
178.05016
178.05551
178.06137
178.06778
178.07479
178.08247
178.09087
178.10006
178.11011
178.12111
178.13315
178.14634
178.16079
178.17663
178.19399
178.21301
178.23394
178.25649
178.28264
178.30501
178.35508
178.05896
178.06356
178.06493
178.06615
178.06724
178.06825
178.06919
178.0701
178.07099
178.07186
178.07275
178.07368
178.07468
178.07578
178.077
178.07835
178.07986
178.08151
178.08333
178.0853
178.08744
178.08977
178.09231
178.09509
178.09814
178.10147
178.10512
178.10911
178.11349
178.11827
178.1235
178.12922
178.13548
178.14234
178.14984
178.15805
178.16703
178.17686
178.18761
178.19937
178.21226
178.22638
178.24187
178.25885
178.27745
178.29792
178.31999
178.34559
178.36749
178.41653
178.12623
178.13093
178.13232
178.13356
178.13465
178.13566
178.13661
178.13751
178.13839
178.13925
178.14013
178.14104
178.14202
178.14309
178.14429
178.14562
178.14709
178.14872
178.1505
178.15243
178.15453
178.15682
178.15931
178.16203
178.16501
178.16827
178.17185
178.17576
178.18003
178.18471
178.18983
178.19543
178.20155
178.20826
178.2156
178.22362
178.2324
178.24201
178.25252
178.26402
178.27662
178.29044
178.30558
178.32219
178.3404
178.36044
178.38204
178.40712
178.42857
178.47662
178.19186
178.19667
178.19808
178.19933
178.20043
178.20144
178.20239
178.20329
178.20416
178.20501
178.20587
178.20677
178.20773
178.20878
178.20995
178.21126
178.21271
178.21431
178.21605
178.21795
178.22001
178.22225
178.22469
178.22736
178.23028
178.23348
178.23698
178.24081
178.24499
178.24957
178.25458
178.26006
178.26606
178.27262
178.2798
178.28765
178.29624
178.30563
178.31592
178.32717
178.3395
178.35301
178.36784
178.3841
178.40192
178.42155
178.44271
178.46729
178.4883
178.53542
178.25594
178.26085
178.26228
178.26354
178.26465
178.26567
178.26661
178.26751
178.26837
178.26921
178.27006
178.27094
178.27188
178.27292
178.27407
178.27535
178.27678
178.27835
178.28006
178.28193
178.28395
178.28615
178.28854
178.29116
178.29402
178.29715
178.30058
178.30433
178.30844
178.31292
178.31783
178.32319
178.32906
178.33549
178.34252
178.3502
178.35861
178.36781
178.37787
178.38889
178.40095
178.41418
178.4287
178.44462
178.46208
178.48131
178.50206
178.52615
178.54675
178.59297
178.31852
178.32353
178.32498
178.32626
178.32738
178.3284
178.32935
178.33024
178.33109
178.33193
178.33277
178.33363
178.33456
178.33557
178.3367
178.33796
178.33936
178.34091
178.34259
178.34443
178.34641
178.34857
178.35092
178.35348
178.35629
178.35937
178.36273
178.36641
178.37043
178.37483
178.37963
178.38489
178.39064
178.39693
178.40382
178.41135
178.41958
178.42858
178.43844
178.44923
178.46105
178.474
178.48822
178.50383
178.52094
178.53979
178.56013
178.58376
178.60397
178.64933
178.37968
178.3848
178.38627
178.38756
178.38869
178.38971
178.39066
178.39155
178.3924
178.39322
178.39405
178.3949
178.39581
178.39681
178.39792
178.39916
178.40053
178.40205
178.40371
178.40551
178.40747
178.40958
178.41189
178.41441
178.41717
178.42018
178.42348
178.42709
178.43103
178.43535
178.44006
178.44521
178.45085
178.45702
178.46376
178.47114
178.47921
178.48803
178.49768
178.50825
178.51983
178.53253
178.54646
178.56176
178.57854
178.59703
178.61698
178.64017
178.66
178.70453
178.43947
178.4447
178.44619
178.44749
178.44863
178.44966
178.45061
178.45149
178.45234
178.45316
178.45397
178.45481
178.4557
178.45668
178.45777
178.45899
178.46035
178.46185
178.46348
178.46525
178.46717
178.46925
178.47152
178.47399
178.4767
178.47966
178.4829
178.48644
178.49031
178.49454
178.49916
178.50422
178.50975
178.51579
178.52241
178.52964
178.53755
178.5462
178.55566
178.56602
178.57737
178.58982
178.60348
178.61848
178.63494
178.65308
178.67266
178.69543
178.71489
178.75863
178.49795
178.50329
178.5048
178.50612
178.50727
178.5083
178.50925
178.51014
178.51098
178.51179
178.51259
178.51341
178.51429
178.51526
178.51633
178.51753
178.51887
178.52034
178.52195
178.52369
178.52558
178.52763
178.52986
178.53229
178.53495
178.53786
178.54104
178.54451
178.54831
178.55247
178.557
178.56196
178.56739
178.57332
178.57981
178.5869
178.59465
178.60313
178.61241
178.62257
178.6337
178.64591
178.65931
178.67404
178.69019
178.70799
178.72722
178.74957
178.76869
178.81167
178.55519
178.56063
178.56216
178.56349
178.56465
178.56569
178.56664
178.56753
178.56836
178.56916
178.56996
178.57077
178.57163
178.57258
178.57364
178.57482
178.57614
178.57759
178.57918
178.5809
178.58275
178.58477
178.58696
178.58935
178.59196
178.59482
178.59795
178.60136
178.60509
178.60917
178.61363
178.61849
178.62382
178.62964
178.63601
178.64297
178.65058
178.6589
178.668
178.67796
178.68889
178.70087
178.71402
178.72847
178.74432
178.76181
178.78069
178.80266
178.82144
178.86369
178.61122
178.61676
178.61832
178.61967
178.62083
178.62188
178.62283
178.62372
178.62455
178.62534
178.62613
178.62693
178.62778
178.62871
178.62975
178.63092
178.63222
178.63365
178.63521
178.63691
178.63874
178.64072
178.64287
178.64522
178.64779
178.6506
178.65368
178.65703
178.6607
178.66471
178.66908
178.67386
178.67909
178.68481
178.69106
178.69789
178.70536
178.71353
178.72246
178.73224
178.74296
178.75472
178.76763
178.78182
178.79739
178.81457
178.83312
178.85471
178.87317
178.91472
178.66609
178.67175
178.67332
178.67468
178.67586
178.67691
178.67787
178.67875
178.67958
178.68037
178.68114
178.68193
178.68277
178.68369
178.68472
178.68587
178.68715
178.68856
178.6901
178.69177
178.69357
178.69552
178.69765
178.69996
178.70249
178.70525
178.70827
178.71158
178.71518
178.71912
178.72342
178.72812
178.73325
178.73887
178.74501
178.75171
178.75905
178.76707
178.77584
178.78544
178.79597
178.80751
178.82019
178.83413
178.84943
178.86632
178.88455
178.90578
178.92393
178.9648
178.71986
178.72562
178.72721
178.72859
178.72978
178.73084
178.7318
178.73268
178.7335
178.73429
178.73505
178.73583
178.73666
178.73756
178.73858
178.73971
178.74098
178.74237
178.74389
178.74553
178.74731
178.74923
178.75132
178.7536
178.75609
178.75881
178.76178
178.76503
178.76858
178.77245
178.77667
178.78129
178.78634
178.79186
178.79789
178.80448
178.81169
178.81956
178.82818
178.83761
178.84795
178.85929
178.87175
178.88544
178.90048
178.91708
178.93502
178.9559
178.97375
179.01396
178.77256
178.77842
178.78004
178.78143
178.78263
178.78369
178.78466
178.78554
178.78636
178.78714
178.7879
178.78867
178.78948
178.79037
178.79137
178.79249
178.79374
178.79512
178.79662
178.79824
178.79999
178.80189
178.80395
178.80619
178.80864
178.81132
178.81424
178.81744
178.82093
178.82474
178.82889
178.83344
178.8384
178.84382
178.84975
178.85623
178.86331
178.87105
178.87951
178.88878
178.89894
178.91009
178.92233
178.93579
178.95058
178.96691
178.98455
179.00509
179.02266
179.06224
178.82423
178.8302
178.83183
178.83325
178.83445
178.83552
178.83649
178.83737
178.83819
178.83896
178.83972
178.84048
178.84128
178.84216
178.84314
178.84425
178.84548
178.84684
178.84832
178.84993
178.85166
178.85352
178.85555
178.85776
178.86017
178.86281
178.8657
178.86884
178.87228
178.87602
178.88011
178.88458
178.88946
178.8948
178.90063
178.907
178.91396
178.92156
178.92988
178.93899
178.94898
178.95994
178.97198
178.98522
178.99976
179.01582
179.03318
179.0534
179.07069
179.10967
178.87491
178.88098
178.88264
178.88407
178.88529
178.88637
178.88733
178.88822
178.88904
178.8898
178.89055
178.8913
178.89209
178.89296
178.89393
178.89502
178.89624
178.89759
178.89905
178.90063
178.90234
178.90418
178.90618
178.90836
178.91074
178.91334
178.91617
178.91927
178.92266
178.92634
178.93037
178.93477
178.93957
178.94482
178.95055
178.95682
178.96366
178.97114
178.97932
178.98828
178.9981
179.00887
179.02071
179.03374
179.04805
179.06386
179.08095
179.10085
179.11787
179.15627
178.92463
178.93082
178.93249
178.93394
178.93517
178.93625
178.93723
178.93811
178.93893
178.93969
178.94043
178.94117
178.94195
178.94281
178.94377
178.94485
178.94605
178.94738
178.94883
178.95039
178.95207
178.95389
178.95586
178.95801
178.96036
178.96292
178.96572
178.96877
178.9721
178.97573
178.9797
178.98403
178.98875
178.99392
178.99956
179.00573
179.01246
179.01982
179.02786
179.03667
179.04633
179.05693
179.06858
179.0814