/*--------------------------------*- C++ -*----------------------------------*\
| =========                 |                                                 |
| \\      /  F ield         | OpenFOAM: The Open Source CFD Toolbox           |
|  \\    /   O peration     | Version:  4.0                                   |
|   \\  /    A nd           | Web:      www.OpenFOAM.org                      |
|    \\/     M anipulation  |                                                 |
\*---------------------------------------------------------------------------*/
FoamFile
{
    version     2.0;
    format      ascii;
    class       volScalarField;
    location    "974";
    object      ILambda_11_0;
}
// * * * * * * * * * * * * * * * * * * * * * * * * * * * * * * * * * * * * * //

dimensions      [1 0 -3 0 0 0 0];

internalField   nonuniform List<scalar> 
5000
(
158.02369
158.08539
158.15124
158.2234
158.30264
158.38972
158.48536
158.59038
158.70566
158.83215
158.97088
159.12295
159.28954
159.47188
159.67129
159.88912
160.12677
160.38565
160.66715
160.97262
161.30326
161.66013
162.04401
162.4553
162.89397
163.35934
163.85005
164.36383
164.89749
165.44678
166.00645
166.57031
167.13152
167.68293
168.21765
168.72972
169.2148
169.67078
170.09813
170.49981
170.88072
171.24663
171.60297
171.95386
172.30132
172.64683
172.98641
173.33568
173.6256
174.15739
165.90421
165.95152
166.00158
166.05603
166.11535
166.17996
166.25026
166.32664
166.40952
166.49933
166.59648
166.70139
166.81444
166.93599
167.06634
167.20574
167.35434
167.51218
167.67917
167.85506
168.03942
168.23159
168.43067
168.63553
168.84479
169.05682
169.26983
169.48192
169.69118
169.8959
170.0947
170.28681
170.47225
170.65203
170.82825
171.00403
171.18328
171.37019
171.56863
171.78138
172.00958
172.25253
172.5079
172.77253
173.04315
173.31829
173.59351
173.88271
174.12494
174.58411
168.33112
168.35132
168.37206
168.39454
168.41899
168.44561
168.47456
168.50601
168.54012
168.57709
168.61709
168.66032
168.70695
168.75718
168.81117
168.86912
168.93118
168.99753
169.0683
169.14366
169.22374
169.30869
169.39866
169.49384
169.59444
169.70075
169.81312
169.93201
170.05799
170.19176
170.33413
170.48599
170.64824
170.82169
171.0069
171.20406
171.41284
171.63228
171.86087
172.09667
172.33763
172.58203
172.82875
173.07754
173.32858
173.58329
173.83909
174.10971
174.33701
174.77115
169.6349
169.64814
169.66152
169.67603
169.69189
169.70925
169.72824
169.74899
169.77166
169.79641
169.82341
169.85284
169.88492
169.91984
169.95782
169.99911
170.04394
170.09258
170.1453
170.20238
170.26413
170.33083
170.40282
170.4804
170.56391
170.65367
170.74999
170.85317
170.96347
171.08109
171.2062
171.33886
171.47905
171.62662
171.78134
171.94292
172.11101
172.28533
172.4657
172.65213
172.84478
173.04399
173.25007
173.46324
173.68326
173.91048
174.14139
174.38812
174.59592
174.9981
170.56209
170.57226
170.58239
170.59338
170.6054
170.61858
170.63302
170.64883
170.66613
170.68506
170.70576
170.72838
170.75309
170.78007
170.80949
170.84156
170.87649
170.91449
170.95581
171.00069
171.04936
171.10211
171.15918
171.22086
171.28742
171.35912
171.43624
171.51903
171.60776
171.70265
171.80393
171.9118
172.02646
172.14809
172.27685
172.41291
172.55642
172.70749
172.86625
173.03271
173.20684
173.38848
173.57738
173.77325
173.9756
174.1848
174.39782
174.62652
174.81941
175.19655
171.28702
171.29537
171.30357
171.31246
171.32219
171.33286
171.34456
171.35738
171.37142
171.3868
171.40364
171.42206
171.44221
171.46423
171.48828
171.51454
171.54319
171.57442
171.60844
171.64546
171.68571
171.72944
171.77688
171.82829
171.88393
171.94409
172.00901
172.079
172.1543
172.23521
172.32197
172.41485
172.51408
172.61988
172.73247
172.852
172.97862
173.11243
173.25349
173.40183
173.55745
173.72031
173.89036
174.06759
174.25179
174.44351
174.63993
174.85229
175.03182
175.38621
171.88315
171.89027
171.89714
171.90459
171.91273
171.92166
171.93147
171.94221
171.95399
171.9669
171.98105
171.99653
172.01348
172.03202
172.0523
172.07445
172.09865
172.12507
172.15388
172.18529
172.21948
172.25669
172.29714
172.34106
172.38871
172.44032
172.49617
172.55653
172.62165
172.69181
172.76728
172.84832
172.93519
173.02813
173.12737
173.23314
173.34562
173.46498
173.59138
173.72494
173.86576
174.01389
174.16936
174.33222
174.50226
174.68001
174.86282
175.06139
175.22944
175.56387
172.3869
172.39314
172.39906
172.40545
172.41244
172.42012
172.42854
172.43778
172.44791
172.45902
172.47119
172.48453
172.49914
172.51513
172.53263
172.55176
172.57269
172.59554
172.6205
172.64773
172.67743
172.70977
172.74499
172.78329
172.8249
172.87006
172.91902
172.97204
173.02937
173.09129
173.15805
173.22993
173.3072
173.39011
173.47892
173.57387
173.67519
173.78308
173.89774
174.01934
174.148
174.28384
174.42693
174.57735
174.735
174.90042
175.07115
175.25746
175.41532
175.7319
172.82253
172.82813
172.83333
172.83892
172.84503
172.85175
172.85913
172.86722
172.8761
172.88583
172.89651
172.9082
172.92102
172.93506
172.95043
172.96726
172.98566
173.00578
173.02777
173.05179
173.078
173.10658
173.13773
173.17165
173.20856
173.24867
173.29222
173.33946
173.39063
173.44599
173.50581
173.57036
173.6399
173.71469
173.79501
173.8811
173.97322
174.07159
174.17644
174.28797
174.40635
174.53174
174.66426
174.80403
174.951
175.10576
175.26598
175.44153
175.5904
175.89099
173.20549
173.21061
173.21525
173.22022
173.22566
173.23163
173.23818
173.24538
173.25327
173.26193
173.27143
173.28185
173.29326
173.30577
173.31947
173.33447
173.35089
173.36886
173.3885
173.40997
173.43342
173.45901
173.48693
173.51736
173.55051
173.58657
173.62578
173.66836
173.71455
173.76461
173.81878
173.87734
173.94054
174.00866
174.08195
174.16069
174.24514
174.33554
174.43213
174.53514
174.64477
174.76121
174.88462
175.01516
175.15281
175.2982
175.44912
175.61507
175.75593
176.0421
173.54683
173.55158
173.55577
173.56025
173.56514
173.57051
173.57641
173.58289
173.58999
173.59779
173.60634
173.61573
173.62601
173.63729
173.64964
173.66318
173.678
173.69422
173.71196
173.73137
173.75258
173.77575
173.80103
173.82862
173.85869
173.89144
173.92709
173.96584
174.00793
174.0536
174.1031
174.15668
174.21459
174.27712
174.34452
174.41706
174.49501
174.57862
174.66816
174.76386
174.86595
174.97463
175.09011
175.21257
175.34202
175.47912
175.62177
175.77916
175.91282
176.18594
173.85437
173.85885
173.86268
173.86675
173.87119
173.87607
173.88144
173.88733
173.89379
173.90088
173.90866
173.9172
173.92656
173.93682
173.94807
173.9604
173.9739
173.98869
174.00487
174.02258
174.04194
174.06309
174.08621
174.11143
174.13895
174.16895
174.20162
174.23718
174.27584
174.31783
174.36339
174.41277
174.46622
174.524
174.58639
174.65363
174.72602
174.8038
174.88725
174.97662
175.07214
175.17405
175.28256
175.39789
175.52008
175.6498
175.78506
175.93474
176.06192
176.32317
174.13398
174.13826
174.14179
174.14553
174.1496
174.15407
174.15899
174.16439
174.17032
174.17682
174.18396
174.19179
174.20038
174.2098
174.22013
174.23145
174.24385
174.25744
174.27231
174.28859
174.3064
174.32587
174.34716
174.3704
174.39577
174.42344
174.4536
174.48645
174.5222
174.56106
174.60327
174.64907
174.69869
174.75241
174.81048
174.87316
174.94073
175.01345
175.09159
175.17542
175.26518
175.36112
175.46347
175.57246
175.68819
175.81129
175.93991
176.08262
176.20394
176.45435
174.39013
174.39426
174.39755
174.401
174.40476
174.40889
174.41344
174.41842
174.4239
174.4299
174.4365
174.44374
174.45167
174.46038
174.46993
174.4804
174.49187
174.50444
174.51821
174.53328
174.54977
174.56781
174.58753
174.60908
174.63262
174.6583
174.68632
174.71685
174.7501
174.78628
174.8256
174.8683
174.91462
174.96482
175.01913
175.07784
175.1412
175.20949
175.28297
175.36192
175.44659
175.53723
175.6341
175.73744
175.84735
175.9645
176.08712
176.22351
176.33951
176.57998
174.6263
174.63032
174.63341
174.63662
174.64011
174.64395
174.64817
174.65281
174.6579
174.66348
174.66962
174.67634
174.68373
174.69183
174.70071
174.71045
174.72112
174.73282
174.74564
174.75967
174.77503
174.79184
174.81022
174.83032
174.85227
174.87625
174.90241
174.93094
174.96202
174.99586
175.03268
175.07269
175.11613
175.16324
175.21427
175.26949
175.32915
175.39353
175.46289
175.5375
175.61764
175.70356
175.79551
175.89377
175.99846
176.11023
176.2274
176.35803
176.46916
176.70049
174.84526
174.84921
174.85212
174.85513
174.85839
174.86198
174.86593
174.87026
174.87502
174.88024
174.88597
174.89227
174.89917
174.90674
174.91505
174.92416
174.93414
174.94509
174.95708
174.97022
174.9846
175.00034
175.01756
175.03639
175.05698
175.07946
175.104
175.13078
175.15997
175.19178
175.22639
175.26404
175.30495
175.34934
175.39748
175.44961
175.50599
175.56689
175.63258
175.70333
175.77941
175.86109
175.94863
176.0423
176.14225
176.24913
176.36134
176.4867
176.59337
176.81629
175.04925
175.05316
175.05593
175.05875
175.06182
175.06519
175.0689
175.07297
175.07744
175.08235
175.08773
175.09364
175.10013
175.10724
175.11505
175.12361
175.133
175.14329
175.15456
175.16691
175.18044
175.19525
175.21145
175.22918
175.24855
175.26973
175.29285
175.31809
175.34562
175.37563
175.4083
175.44386
175.48252
175.52452
175.57008
175.61946
175.67292
175.73071
175.79312
175.8604
175.93283
176.01069
176.09423
176.18374
176.27938
176.38181
176.48949
176.61
176.71258
176.9277
175.24011
175.24401
175.24664
175.24932
175.2522
175.25539
175.25889
175.26273
175.26695
175.27158
175.27666
175.28224
175.28836
175.29507
175.30244
175.31052
175.31938
175.32909
175.33974
175.3514
175.36417
175.37816
175.39347
175.41021
175.42853
175.44855
175.47042
175.4943
175.52035
175.54876
175.57971
175.61342
175.65008
175.68993
175.73319
175.78011
175.83095
175.88596
175.9454
176.00955
176.07869
176.15308
176.233
176.31873
176.41044
176.50878
176.61229
176.72835
176.82716
177.03505
175.41936
175.42326
175.42579
175.42833
175.43106
175.43408
175.4374
175.44104
175.44503
175.44941
175.45423
175.45951
175.46531
175.47167
175.47865
175.48631
175.4947
175.50391
175.51399
175.52505
175.53715
175.55041
175.56493
175.58081
175.59818
175.61717
175.63792
175.66059
175.68533
175.71231
175.74173
175.77377
175.80865
175.84657
175.88776
175.93248
175.98095
176.03344
176.09021
176.15153
176.21768
176.28892
176.36552
176.4478
176.5359
176.6305
176.73018
176.84213
176.93744
177.13861
175.58827
175.5922
175.59463
175.59705
175.59965
175.60252
175.60567
175.60914
175.61293
175.6171
175.62168
175.6267
175.63222
175.63827
175.6449
175.65218
175.66016
175.66891
175.6785
175.68901
175.70053
175.71314
175.72694
175.74205
175.75858
175.77665
175.79641
175.81799
175.84155
175.86726
175.89529
175.92584
175.9591
175.99529
176.03462
176.07734
176.12367
176.17388
176.22823
176.28697
176.35039
176.41875
176.49233
176.57143
176.65623
176.74738
176.84352
176.95165
177.04372
177.23863
175.74793
175.7519
175.75425
175.75657
175.75904
175.76178
175.76479
175.76809
175.77172
175.77569
175.78006
175.78485
175.79011
175.79588
175.80221
175.80915
175.81676
175.82511
175.83426
175.84428
175.85526
175.86729
175.88046
175.89488
175.91065
175.9279
175.94676
175.96736
175.98986
176.01442
176.04121
176.07041
176.10221
176.13683
176.17448
176.21538
176.25977
176.30791
176.36004
176.41643
176.47735
176.54308
176.61388
176.69006
176.77181
176.85977
176.95263
177.05722
177.14629
177.33534
175.89926
175.90329
175.90557
175.90779
175.91015
175.91277
175.91566
175.91882
175.92228
175.92609
175.93027
175.93485
175.93988
175.9454
175.95145
175.95809
175.96537
175.97336
175.98211
175.99169
176.0022
176.01371
176.0263
176.0401
176.05519
176.07169
176.08974
176.10946
176.131
176.15452
176.18018
176.20816
176.23864
176.27183
176.30794
176.34719
176.38981
176.43605
176.48616
176.54039
176.59903
176.66233
176.73058
176.80407
176.88299
176.96799
177.05781
177.15911
177.24537
177.42895
176.04306
176.04714
176.04937
176.0515
176.05377
176.05628
176.05905
176.06209
176.06541
176.06906
176.07307
176.07747
176.08229
176.08759
176.09339
176.09976
176.10674
176.1144
176.12279
176.13198
176.14206
176.15309
176.16517
176.1784
176.19287
176.2087
176.22602
176.24494
176.26561
176.28818
176.31281
176.33968
176.36896
176.40085
176.43556
176.4733
176.5143
176.5588
176.60705
176.6593
176.71582
176.77689
176.84278
176.91378
176.99009
177.07235
177.15933
177.25755
177.3412
177.51964
176.18
176.18416
176.18633
176.18839
176.19057
176.19299
176.19566
176.19857
176.20177
176.20528
176.20914
176.21337
176.21801
176.2231
176.22868
176.2348
176.24152
176.24887
176.25694
176.26578
176.27546
176.28607
176.29768
176.3104
176.32431
176.33953
176.35617
176.37437
176.39424
176.41595
176.43965
176.4655
176.49368
176.52438
176.5578
176.59415
176.63367
176.67657
176.72311
176.77353
176.82811
176.88711
176.95081
177.0195
177.09338
177.17308
177.25743
177.35277
177.43398
177.60758
176.31069
176.31493
176.31706
176.31905
176.32116
176.32349
176.32606
176.32887
176.33196
176.33534
176.33906
176.34314
176.34761
176.35251
176.35789
176.36379
176.37026
176.37735
176.38512
176.39364
176.40296
176.41318
176.42437
176.43661
176.45002
176.46468
176.48071
176.49824
176.51739
176.53831
176.56115
176.58607
176.61324
176.64284
176.67509
176.71017
176.74831
176.78974
176.83469
176.88343
176.93621
176.9933
177.05496
177.1215
177.19312
177.27044
177.35231
177.44497
177.52388
177.69294
176.43566
176.43999
176.44208
176.444
176.44604
176.44829
176.45078
176.4535
176.45648
176.45975
176.46334
176.46728
176.4716
176.47634
176.48153
176.48723
176.49348
176.50032
176.50782
176.51604
176.52505
176.53491
176.5457
176.55752
176.57046
176.58461
176.60008
176.617
176.63549
176.65569
176.67774
176.7018
176.72804
176.75664
176.78779
176.8217
176.85857
176.89864
176.94213
176.98931
177.04042
177.09572
177.15549
177.22003
177.28954
177.36463
177.44419
177.53432
177.61107
177.77585
176.55536
176.55979
176.56184
176.56371
176.56568
176.56787
176.57028
176.57291
176.5758
176.57896
176.58244
176.58625
176.59043
176.59502
176.60005
176.60556
176.6116
176.61822
176.62548
176.63343
176.64213
176.65167
176.66211
176.67354
176.68604
176.69972
176.71469
176.73105
176.74892
176.76845
176.78978
176.81305
176.83843
176.8661
176.89625
176.92907
176.96477
177.00357
177.04571
177.09143
177.14099
177.19464
177.25265
177.31531
177.38284
177.45584
177.53324
177.62099
177.69572
177.85645
176.6702
176.67473
176.67676
176.67858
176.68049
176.68261
176.68495
176.68751
176.69031
176.69338
176.69675
176.70045
176.7045
176.70895
176.71382
176.71916
176.72502
176.73144
176.73847
176.74617
176.7546
176.76384
176.77395
176.78502
176.79713
176.81038
176.82488
176.84072
176.85803
176.87695
176.8976
176.92014
176.94473
176.97154
177.00076
177.03257
177.06718
177.10481
177.14569
177.19006
177.23816
177.29026
177.34663
177.40754
177.47322
177.54426
177.61962
177.70513
177.77795
177.93487
176.78055
176.78519
176.78719
176.78897
176.79083
176.79289
176.79516
176.79765
176.80037
176.80336
176.80663
176.81022
176.81416
176.81848
176.82321
176.8284
176.83409
176.84031
176.84714
176.85461
176.8628
176.87176
176.88157
176.89231
176.90406
176.91691
176.93096
176.94633
176.96312
176.98147
177.0015
177.02337
177.04723
177.07324
177.10159
177.13246
177.16606
177.2026
177.2423
177.28541
177.33216
177.38281
177.43763
177.49691
177.56085
177.63005
177.70348
177.78689
177.85791
178.0112
176.88674
176.89149
176.89347
176.89521
176.89701
176.89902
176.90124
176.90366
176.90631
176.90921
176.9124
176.9159
176.91973
176.92393
176.92853
176.93358
176.93911
176.94516
176.95179
176.95906
176.96701
176.97572
176.98525
176.99569
177.0071
177.01958
177.03324
177.04816
177.06447
177.08229
177.10175
177.12299
177.14616
177.17143
177.19898
177.22898
177.26164
177.29716
177.33576
177.37768
177.42317
177.47247
177.52584
177.58358
177.64588
177.71334
177.78497
177.86639
177.9357
178.08556
176.98905
176.99391
176.99588
176.99758
176.99934
177.0013
177.00346
177.00582
177.0084
177.01124
177.01435
177.01775
177.02149
177.02558
177.03006
177.03498
177.04036
177.04626
177.05271
177.05979
177.06753
177.076
177.08528
177.09543
177.10653
177.11867
177.13195
177.14647
177.16233
177.17966
177.19858
177.21924
177.24178
177.26636
177.29315
177.32234
177.35411
177.38868
177.42626
177.46708
177.51137
177.5594
177.61141
177.6677
177.72846
177.79429
177.86421
177.94374
178.01144
178.15804
177.08774
177.09273
177.09468
177.09634
177.09806
177.09998
177.10209
177.1044
177.10692
177.10969
177.11272
177.11605
177.11969
177.12368
177.12806
177.13285
177.1381
177.14385
177.15015
177.15704
177.16458
177.17284
177.18188
177.19176
177.20258
177.2144
177.22734
177.24147
177.25692
177.27379
177.29221
177.31233
177.33427
177.35821
177.3843
177.41273
177.44368
177.47735
177.51397
177.55375
177.59693
177.64376
177.69449
177.74942
177.80873
177.87301
177.94132
178.01906
178.08524
178.22874
177.18306
177.18817
177.19011
177.19174
177.19342
177.1953
177.19737
177.19962
177.20209
177.20479
177.20776
177.21101
177.21457
177.21847
177.22275
177.22743
177.23255
177.23817
177.24431
177.25104
177.2584
177.26646
177.27527
177.28491
177.29546
177.30699
177.3196
177.33338
177.34844
177.36489
177.38285
177.40246
177.42385
177.44718
177.47262
177.50033
177.53051
177.56335
177.59906
177.63786
177.68
177.7257
177.77523
177.82886
177.8868
177.94962
178.0164
178.09245
178.15718
178.29774
177.27522
177.28045
177.28238
177.28399
177.28564
177.28747
177.2895
177.29171
177.29412
177.29677
177.29968
177.30286
177.30634
177.31016
177.31434
177.31891
177.32393
177.32941
177.33542
177.34199
177.34918
177.35705
177.36566
177.37508
177.38538
177.39663
177.40894
177.42239
177.43709
177.45314
177.47066
177.4898
177.51067
177.53344
177.55826
177.5853
177.61476
177.64681
177.68167
177.71956
177.7607
177.80534
177.85373
177.90615
177.96279
178.02423
178.08956
178.164
178.22735
178.36511
177.36441
177.36977
177.37169
177.37328
177.37489
177.37669
177.37868
177.38085
177.38321
177.38581
177.38866
177.39177
177.39519
177.39892
177.40302
177.4075
177.4124
177.41777
177.42365
177.43008
177.43711
177.44481
177.45323
177.46243
177.4725
177.4835
177.49553
177.50867
177.52302
177.5387
177.55582
177.57451
177.5949
177.61714
177.64138
177.6678
177.69657
177.72788
177.76194
177.79897
177.83918
177.88282
177.93013
177.98139
178.03681
178.09693
178.16088
178.2338
178.29585
178.43093
177.45081
177.4563
177.45822
177.45978
177.46136
177.46313
177.46508
177.46721
177.46954
177.47208
177.47488
177.47793
177.48128
177.48495
177.48896
177.49335
177.49816
177.50342
177.50917
177.51547
177.52236
177.52989
177.53813
177.54714
177.55699
177.56775
177.57952
177.59237
177.60641
177.62174
177.63848
177.65675
177.67668
177.69842
177.72212
177.74795
177.77608
177.80669
177.84
177.87621
177.91554
177.95823
178.00453
178.0547
178.10895
178.16783
178.23047
178.30193
178.36273
178.49526
177.53459
177.5402
177.54212
177.54366
177.54522
177.54695
177.54888
177.55097
177.55325
177.55576
177.5585
177.5615
177.56479
177.56839
177.57232
177.57663
177.58135
177.58651
177.59215
177.59832
177.60508
177.61246
177.62053
177.62935
177.639
177.64954
177.66106
177.67364
177.68738
177.70239
177.71877
177.73665
177.75615
177.77742
177.80061
177.82588
177.8534
177.88336
177.91596
177.95139
177.98989
178.03169
178.07702
178.12615
178.1793
178.23699
178.29839
178.36847
178.42808
178.55818
177.61588
177.62163
177.62355
177.62507
177.6266
177.62831
177.6302
177.63226
177.63451
177.63697
177.63967
177.64262
177.64585
177.64938
177.65325
177.65749
177.66212
177.66718
177.67272
177.67878
177.6854
177.69264
177.70056
177.70921
177.71867
177.729
177.74028
177.75261
177.76608
177.78077
177.79682
177.81433
177.83343
177.85426
177.87697
177.90171
177.92866
177.958
177.98992
178.02463
178.06234
178.10328
178.1477
178.19585
178.24794
178.30451
178.36473
178.43348
178.49197
178.61974
177.69484
177.70072
177.70264
177.70415
177.70565
177.70734
177.7092
177.71123
177.71344
177.71586
177.71852
177.72142
177.7246
177.72808
177.73188
177.73604
177.74059
177.74557
177.75101
177.75696
177.76347
177.77058
177.77835
177.78684
177.79611
177.80625
177.81732
177.82941
177.84261
177.85702
177.87275
177.88991
177.90863
177.92904
177.9513
177.97555
178.00196
178.03071
178.06199
178.096
178.13297
178.1731
178.21665
178.26387
178.31497
178.37046
178.42955
178.49704
178.55445
178.67999
177.77158
177.7776
177.77952
177.78101
177.78249
177.78415
177.78599
177.78799
177.79017
177.79256
177.79518
177.79804
177.80116
177.80459
177.80833
177.81243
177.8169
177.8218
177.82715
177.833
177.83939
177.84638
177.85401
177.86235
177.87146
177.88141
177.89228
177.90414
177.9171
177.93123
177.94666
177.9635
177.98186
178.00188
178.02371
178.04748
178.07338
178.10158
178.13226
178.16562
178.20187
178.24124
178.28396
178.33029
178.38043
178.43491
178.49292
178.55921
178.61559
178.73899
177.84622
177.85238
177.8543
177.85578
177.85724
177.85888
177.8607
177.86267
177.86482
177.86717
177.86975
177.87257
177.87566
177.87903
177.88272
177.88675
177.89116
177.89597
177.90124
177.907
177.91328
177.92015
177.92766
177.93586
177.94481
177.95459
177.96526
177.97692
177.98964
178.00352
178.01867
178.03519
178.05322
178.07287
178.09428
178.11762
178.14303
178.1707
178.20081
178.23354
178.26912
178.30776
178.3497
178.39519
178.44442
178.49792
178.5549
178.62004
178.67543
178.79678
177.91886
177.92516
177.9271
177.92856
177.93
177.93162
177.93342
177.93536
177.93749
177.93981
177.94235
177.94514
177.94818
177.9515
177.95514
177.95911
177.96346
177.9682
177.97339
177.97906
177.98525
177.99201
177.99939
178.00746
178.01626
178.02588
178.03637
178.04783
178.06033
178.07397
178.08885
178.10509
178.12279
178.14209
178.16312
178.18604
178.21099
178.23816
178.26772
178.29986
178.3348
178.37275
178.41394
178.45862
178.50698
178.55955
178.61555
178.67959
178.73404
178.85343
177.98962
177.99606
177.998
177.99945
178.00087
178.00248
178.00425
178.00618
178.00827
178.01057
178.01308
178.01583
178.01883
178.02211
178.0257
178.02962
178.0339
178.03858
178.0437
178.04928
178.05538
178.06204
178.06931
178.07725
178.08591
178.09537
178.1057
178.11697
178.12926
178.14268
178.15731
178.17326
178.19066
178.20963
178.2303
178.25281
178.27733
178.30402
178.33307
178.36465
178.39898
178.43627
178.47674
178.52065
178.56819
178.61987
178.67493
178.73791
178.79145
178.90896
178.05858
178.06516
178.0671
178.06854
178.06995
178.07154
178.07329
178.0752
178.07727
178.07954
178.08202
178.08474
178.0877
178.09095
178.09449
178.09836
178.10258
178.1072
178.11224
178.11775
178.12376
178.13032
178.13749
178.14531
178.15385
178.16316
178.17333
178.18442
178.19652
178.20972
178.22411
178.2398
178.25692
178.27557
178.29589
178.31802
178.34213
178.36837
178.39692
178.42797
178.46171
178.49837
178.53817
178.58134
178.62809
178.67892
178.73308
178.79505
178.84772
178.96342
178.12582
178.13254
178.1345
178.13592
178.13732
178.13889
178.14063
178.14251
178.14456
178.14681
178.14927
178.15195
178.15488
178.15809
178.16159
178.16541
178.16958
178.17414
178.17912
178.18455
178.19048
178.19695
178.20402
178.21173
178.22014
178.22932
178.23933
178.25026
178.26217
178.27517
178.28933
178.30478
178.32162
178.33997
178.35996
178.38174
178.40545
178.43126
178.45934
178.48988
178.52308
178.55913
178.59827
178.64075
178.68674
178.73676
178.79005
178.85106
178.9029
179.01686
178.19142
178.19829
178.20025
178.20167
178.20305
178.20461
178.20633
178.2082
178.21023
178.21246
178.21489
178.21754
178.22044
178.22361
178.22707
178.23085
178.23497
178.23948
178.24439
178.24976
178.25561
178.262
178.26897
178.27658
178.28487
178.29392
178.30379
178.31456
178.3263
178.3391
178.35305
178.36827
178.38485
178.40291
178.42259
178.44403
178.46737
178.49277
178.5204
178.55045
178.58312
178.6186
178.65712
178.69892
178.74419
178.79343
178.84589
178.90597
178.95701
179.0693
178.25547
178.26248
178.26445
178.26586
178.26723
178.26878
178.27049
178.27234
178.27435
178.27655
178.27896
178.28159
178.28446
178.2876
178.29102
178.29476
178.29883
178.30329
178.30814
178.31344
178.31923
178.32554
178.33242
178.33992
178.34811
178.35704
178.36678
178.37739
178.38896
178.40158
178.41534
178.43032
178.44666
178.46445
178.48384
178.50495
178.52793
178.55294
178.58015
178.60973
178.64189
178.67683
178.71475
178.75591
178.80049
178.84897
178.90065
178.95983
179.01011
179.12079
178.31803
178.32518
178.32717
178.32857
178.32993
178.33146
178.33315
178.33499
178.33698
178.33917
178.34155
178.34416
178.347
178.35011
178.3535
178.35719
178.36123
178.36563
178.37044
178.37568
178.38139
178.38763
178.39442
178.40184
178.40992
178.41873
178.42834
178.43882
178.45023
178.46268
178.47624
178.49101
178.50711
178.52465
178.54375
178.56455
178.58719
178.61183
178.63863
178.66778
178.69945
178.73386
178.77122
178.81176
178.85568
178.90344
178.95436
179.01268
179.06222
179.17135
178.37916
178.38646
178.38845
178.38985
178.3912
178.39272
178.3944
178.39622
178.3982
178.40037
178.40273
178.40531
178.40813
178.41121
178.41457
178.41823
178.42222
178.42658
178.43134
178.43652
178.44217
178.44833
178.45505
178.46238
178.47036
178.47907
178.48855
178.49889
178.51016
178.52244
178.53582
178.5504
178.56627
178.58357
178.6024
178.6229
178.64522
178.6695
178.69591
178.72463
178.75585
178.78975
178.82657
178.86652
178.9098
178.95687
179.00706
179.06455
179.11338
179.22102
178.43893
178.44637
178.44838
178.44977
178.45111
178.45261
178.45429
178.4561
178.45806
178.46021
178.46256
178.46512
178.46791
178.47096
178.47429
178.47792
178.48188
178.48619
178.4909
178.49603
178.50162
178.50772
178.51436
178.5216
178.5295
178.5381
178.54747
178.55768
178.56881
178.58093
178.59414
178.60852
178.62419
178.64125
178.65982
178.68004
178.70205
178.72599
178.75203
178.78035
178.81112
178.84455
178.88083
178.92022
178.96289
179.0093
179.05878
179.11549
179.16363
179.26983
178.49739
178.50497
178.507
178.50838
178.50971
178.51121
178.51287
178.51467
178.51662
178.51875
178.52108
178.52363
178.5264
178.52942
178.53272
178.53632
178.54024
178.54452
178.54918
178.55426
178.5598
178.56583
178.5724
178.57957
178.58737
178.59588
178.60514
178.61523
178.62622
178.6382
178.65124
178.66544
178.6809
178.69774
178.71607
178.73602
178.75773
178.78135
178.80704
178.83496
178.86531
178.89828
178.93407
178.97291
179.01499
179.06077
179.10957
179.16551
179.213
179.31781
178.55459
178.56233
178.56436
178.56575
178.56707
178.56856
178.57021
178.572
178.57393
178.57605
178.57837
178.58089
178.58364
178.58664
178.58992
178.59349
178.59737
178.60161
178.60623
178.61126
178.61675
178.62272
178.62923
178.63632
178.64404
178.65245
178.66161
178.67159
178.68246
178.69429
178.70717
178.7212
178.73647
178.7531
178.77119
178.79089
178.81232
178.83562
178.86097
178.88853
178.91847
178.95099
178.9863
179.02462
179.06613
179.1113
179.15945
179.21466
179.26151
179.36498
178.6106
178.61848
178.62053
178.62191
178.62322
178.6247
178.62635
178.62812
178.63005
178.63216
178.63446
178.63696
178.6397
178.64268
178.64592
178.64946
178.65332
178.65753
178.66211
178.66709
178.67253
178.67845
178.68489
178.69191
178.69956
178.70788
178.71694
178.72681
178.73755
178.74925
178.76198
178.77585
178.79094
178.80736
178.82523
178.84468
178.86584
178.88885
178.91387
178.94107
178.97062
179.00272
179.03757
179.07539
179.11636
179.16093
179.20846
179.26295
179.3092
179.41138
178.66545
178.67347
178.67554
178.67692
178.67822
178.6797
178.68133
178.6831
178.68502
178.68711
178.6894
178.69189
178.6946
178.69756
178.70079
178.7043
178.70813
178.7123
178.71685
178.72179
178.72718
178.73305
178.73943
178.74639
178.75395
178.7622
178.77117
178.78093
178.79156
178.80313
178.81572
178.82942
178.84434
178.86057
178.87823
178.89744
178.91834
178.94107
178.96578
178.99263
179.02181
179.0535
179.0879
179.12524
179.16569
179.2097
179.25662
179.31043
179.35609
179.45702
178.71919
178.72736
178.72944
178.73082
178.73211
178.73358
178.73521
178.73697
178.73888
178.74096
178.74323
178.74571
178.74841
178.75135
178.75456
178.75805
178.76185
178.76599
178.7705
178.77541
178.78075
178.78656
178.79289
178.79978
178.80728
178.81545
178.82433
178.83399
178.84451
178.85596
178.86841
178.88197
178.89672
178.91276
178.93022
178.94921
178.96986
178.99231
179.01672
179.04325
179.07207
179.10337
179.13735
179.17422
179.21416
179.25763
179.30397
179.35712
179.40221
179.50193
178.77186
178.78018
178.78227
178.78365
178.78494
178.7864
178.78803
178.78978
178.79168
178.79375
178.79601
178.79847
178.80116
178.80408
178.80727
178.81074
178.81451
178.81862
178.8231
178.82797
178.83327
178.83904
178.84532
178.85215
178.85958
178.86767
178.87647
178.88604
178.89645
178.90778
178.92011
178.93352
178.94811
178.96398
178.98124
179.00001
179.02043
179.04262
179.06674
179.09296
179.12143
179.15236
179.18592
179.22235
179.26181
179.30475
179.35053
179.40304
179.44758
179.54613
178.82351
178.83197
178.83408
178.83545
178.83674
178.8382
178.83982
178.84156
178.84345
178.84552
178.84777
178.85022
178.85289
178.8558
178.85896
178.86241
178.86616
178.87025
178.87469
178.87953
178.88479
178.89052
178.89674
178.90352
178.91089
178.9189
178.92762
178.93711
178.94742
178.95864
178.97084
178.98412
178.99855
179.01425
179.03133
179.04989
179.07008
179.09202
179.11587
179.14178
179.16993
179.20049
179.23366
179.26966
179.30865
179.35108
179.39632
179.44821
179.49223
179.58965
178.87416
178.88277
178.8849
178.88627
178.88755
178.88901
178.89062
178.89236
178.89424
178.8963
178.89854
178.90098
178.90364
178.90653
178.90968
178.91311
178.91684
178.9209
178.92531
178.93012
178.93534
178.94103
178.94721
178.95393
178.96124
178.96919
178.97783
178.98723
178.99745
179.00856
179.02065
179.03379
179.04808
179.06362
179.08052
179.09888
179.11885
179.14055
179.16414
179.18976
179.21758
179.2478
179.28059
179.31617
179.35471
179.39665
179.44137
179.49267
179.53617
179.6325
178.92387
178.93262
178.93476
178.93614
178.93742
178.93886
178.94047
178.94221
178.94408
178.94613
178.94836
178.95079
178.95344
178.95632
178.95945
178.96286
178.96657
178.97061
178.975
178.97977
178.98496
178.9906
178.99674
179.00341
179.01066
179.01855
179.02712
179.03644
179.04657
179.05758
179.06955
179.08257
179.09672
179.11211
179.12883
179.14701
179.16677
179.18824
179.21157
179.23691
179.26443
179.29431
179.32673
179.36192
179.40002
179.44149