/*--------------------------------*- C++ -*----------------------------------*\
| =========                 |                                                 |
| \\      /  F ield         | OpenFOAM: The Open Source CFD Toolbox           |
|  \\    /   O peration     | Version:  4.0                                   |
|   \\  /    A nd           | Web:      www.OpenFOAM.org                      |
|    \\/     M anipulation  |                                                 |
\*---------------------------------------------------------------------------*/
FoamFile
{
    version     2.0;
    format      ascii;
    class       volScalarField;
    location    "974";
    object      ILambda_3_0;
}
// * * * * * * * * * * * * * * * * * * * * * * * * * * * * * * * * * * * * * //

dimensions      [1 0 -3 0 0 0 0];

internalField   nonuniform List<scalar> 
5000
(
157.79389
157.38214
156.93155
156.44342
155.91581
155.34666
154.734
154.07602
153.37117
152.61828
151.81662
150.96608
150.06727
149.12168
148.13186
147.10158
146.03603
144.94195
143.82777
142.70375
141.58197
140.47629
139.40215
138.37625
137.41602
136.53886
135.7612
135.09729
134.55795
134.14911
133.87063
133.71532
133.66866
133.70931
133.81074
133.94395
134.08104
134.19916
134.28378
134.33047
134.34429
134.33666
134.32069
134.30659
134.29905
134.29762
134.29919
134.30091
134.30164
134.30152
165.89911
165.93248
165.95794
165.97596
165.98418
165.97961
165.95868
165.91707
165.84972
165.75067
165.613
165.42876
165.1889
164.88324
164.50048
164.02833
163.45362
162.76265
161.94162
160.97722
159.85751
158.57294
157.11769
155.49113
153.69957
151.75791
149.69123
147.53598
145.34037
143.16357
141.07344
139.14217
137.44001
136.02719
134.94497
134.20747
133.79618
133.65984
133.72104
133.88985
134.0819
134.23575
134.32339
134.34915
134.33748
134.31579
134.30113
134.29696
134.29861
134.30117
168.31791
168.31358
168.3079
168.30346
168.30075
168.30013
168.30189
168.30625
168.31329
168.32287
168.33453
168.34736
168.35979
168.36938
168.3725
168.364
168.33679
168.28137
168.1853
168.0327
167.80377
167.47439
167.01608
166.3962
165.57888
164.52666
163.20321
161.57724
159.62764
157.3498
154.76241
151.91387
148.88671
145.79803
142.79374
140.03507
137.67687
135.84047
134.5864
133.8959
133.67003
133.75195
133.96889
134.17989
134.30921
134.34975
134.33714
134.31279
134.29886
134.29791
169.62402
169.61587
169.60453
169.59185
169.57794
169.5628
169.54649
169.52913
169.51086
169.49197
169.47285
169.45403
169.4362
169.42019
169.40697
169.39758
169.39305
169.39414
169.4011
169.41313
169.42778
169.43996
169.44082
169.41616
169.34478
169.19661
168.93099
168.49559
167.82658
166.85085
165.49128
163.6761
161.35246
158.50387
155.16918
151.45853
147.55982
143.72825
140.25325
137.40365
135.36175
134.1683
133.70482
133.7309
133.96929
134.20167
134.32622
134.34904
134.32614
134.30141
170.55345
170.54679
170.53731
170.52663
170.51478
170.50162
170.48702
170.47082
170.45283
170.43286
170.41071
170.38621
170.3592
170.3296
170.29741
170.2628
170.22617
170.18822
170.15005
170.11325
170.07991
170.05262
170.0342
170.02731
170.03348
170.05166
170.07593
170.09233
170.07465
169.97972
169.74255
169.27313
168.4569
167.1618
165.25516
162.63204
159.25395
155.19075
150.65195
145.98787
141.6428
138.05615
135.53401
134.14266
133.68459
133.78695
134.06605
134.2746
134.34878
134.32761
171.28
171.27481
171.2671
171.25841
171.24878
171.23813
171.22637
171.21336
171.19897
171.18303
171.16534
171.14568
171.1238
171.0994
171.07215
171.04167
171.00757
170.96942
170.92686
170.87962
170.82765
170.7713
170.7115
170.65008
170.59001
170.53558
170.49236
170.46664
170.46377
170.48517
170.52312
170.55306
170.52357
170.3455
169.88363
168.95672
167.35382
164.87429
161.39338
156.94312
151.7802
146.3978
141.44152
137.52583
135.01195
133.86387
133.68645
133.94229
134.21611
134.3414
171.87727
171.87318
171.86674
171.85945
171.85138
171.84246
171.83261
171.82175
171.80976
171.79651
171.78188
171.76569
171.74779
171.72795
171.70595
171.68152
171.65432
171.62396
171.58997
171.55181
171.50881
171.46023
171.40528
171.34324
171.27362
171.19649
171.11297
171.02588
170.94043
170.86477
170.80974
170.78704
170.80422
170.85523
170.90517
170.87005
170.59623
169.8498
168.33231
165.74047
161.87663
156.78909
150.88065
144.89691
139.73208
136.09197
134.18602
133.66169
133.84596
134.22338
172.38189
172.37867
172.3732
172.36698
172.36008
172.35246
172.34405
172.33477
172.32453
172.31323
172.30074
172.28694
172.2717
172.25484
172.23619
172.21555
172.19269
172.16734
172.13921
172.10793
172.07306
172.03408
171.99033
171.94095
171.88493
171.82103
171.74786
171.66414
171.5691
171.46331
171.34995
171.23633
171.13525
171.06488
171.04473
171.08442
171.16191
171.1903
170.9803
170.21743
168.487
165.3809
160.69197
154.63455
147.95232
141.76312
137.12108
134.52008
133.65138
133.90888
172.81817
172.81567
172.81094
172.80552
172.79952
172.79287
172.78555
172.77747
172.76856
172.75873
172.74787
172.73587
172.72262
172.70797
172.69177
172.67385
172.65402
172.63206
172.60772
172.58074
172.5508
172.51755
172.48056
172.43934
172.39326
172.34152
172.28306
172.21648
172.14
172.05142
171.94854
171.82987
171.6963
171.55364
171.41574
171.30646
171.25656
171.28896
171.38525
171.43131
171.15609
170.10467
167.71005
163.51374
157.49686
150.33889
143.33727
137.88811
134.718
133.67667
173.20166
173.19976
173.19562
173.19085
173.18555
173.17969
173.17322
173.1661
173.15823
173.14955
173.13997
173.1294
173.11771
173.1048
173.09054
173.07475
173.05729
173.03796
173.01655
172.99282
172.96649
172.93728
172.90483
172.86875
172.82862
172.7839
172.734
172.67812
172.61523
172.54389
172.46206
172.36699
172.25525
172.12354
171.97072
171.80163
171.63264
171.49612
171.4367
171.48685
171.60854
171.60209
171.02204
169.19235
165.42899
159.47756
151.93975
144.29269
138.27765
134.28815
173.54342
173.54205
173.5384
173.53415
173.52942
173.52418
173.51841
173.51204
173.50502
173.49727
173.48873
173.47929
173.46887
173.45736
173.44463
173.43057
173.41502
173.3978
173.37875
173.35763
173.33422
173.30825
173.27941
173.24736
173.2117
173.172
173.12777
173.07842
173.02331
172.96163
172.89231
172.81386
172.72401
172.61937
172.4953
172.34664
172.17061
171.97299
171.7774
171.6322
171.59991
171.70515
171.82385
171.54284
170.10676
166.63058
160.65038
152.70542
144.7398
136.69179
173.85131
173.85044
173.84719
173.84337
173.83911
173.83439
173.82918
173.82345
173.81713
173.81015
173.80245
173.79395
173.78456
173.7742
173.76275
173.75009
173.7361
173.72062
173.70349
173.68452
173.6635
173.64018
173.61431
173.58558
173.55362
173.51806
173.47844
173.43423
173.38487
173.32969
173.26794
173.19873
173.12093
173.03287
172.9319
172.8137
172.67188
172.49915
172.29222
172.06291
171.85321
171.73974
171.7939
171.95876
171.85371
170.64599
167.27446
161.01194
153.13032
141.40333
174.13122
174.13081
174.12791
174.12445
174.12059
174.1163
174.11157
174.10637
174.10063
174.09429
174.0873
174.07959
174.07107
174.06167
174.05128
174.0398
174.02711
174.01308
173.99755
173.98036
173.96132
173.94022
173.91681
173.89083
173.86195
173.82984
173.79409
173.75422
173.70972
173.65997
173.60427
173.54184
173.47179
173.3931
173.30448
173.20394
173.08806
172.95081
172.78301
172.57517
172.32806
172.07344
171.89284
171.89228
172.06966
172.05342
170.94652
167.28598
161.50159
148.04019
174.38763
174.38765
174.38506
174.38191
174.37838
174.37446
174.37014
174.36539
174.36015
174.35436
174.34798
174.34093
174.33315
174.32456
174.31508
174.3046
174.29302
174.28021
174.26604
174.25036
174.23299
174.21375
174.19242
174.16874
174.14246
174.11324
174.08073
174.04451
174.00412
173.959
173.90852
173.85193
173.7884
173.71697
173.63659
173.54603
173.44374
173.3271
173.19102
173.02607
172.81897
172.56141
172.27481
172.04214
171.99993
172.17388
172.23669
170.79641
168.00853
155.40877
174.62403
174.62446
174.62214
174.61926
174.61602
174.61242
174.60846
174.6041
174.59928
174.59397
174.5881
174.58164
174.57449
174.56661
174.5579
174.54828
174.53765
174.52589
174.51289
174.4985
174.48256
174.46492
174.44535
174.42366
174.39957
174.37281
174.34306
174.30993
174.27302
174.23182
174.18577
174.13421
174.07638
174.01135
173.93811
173.85546
173.76215
173.65672
173.5371
173.39915
173.23395
173.02586
172.75951
172.44679
172.17797
172.09851
172.35149
172.06824
171.8139
162.08989
174.84319
174.84403
174.84194
174.8393
174.83632
174.833
174.82935
174.82532
174.82088
174.81598
174.81057
174.80461
174.79802
174.79075
174.78271
174.77384
174.76403
174.75319
174.7412
174.72793
174.71324
174.69697
174.67894
174.65895
174.63677
174.61213
174.58474
174.55427
174.52033
174.48248
174.44021
174.39294
174.33997
174.2805
174.21357
174.13805
174.05264
173.95592
173.84637
173.7222
173.58002
173.41148
173.19948
172.92137
172.58837
172.27482
172.2766
172.20346
173.24575
167.09374
175.04736
175.04859
175.04672
175.04429
175.04154
175.03847
175.03508
175.03136
175.02725
175.02271
175.01771
175.01218
175.00608
174.99935
174.99191
174.98369
174.97461
174.96457
174.95346
174.94118
174.92758
174.91252
174.89583
174.87733
174.8568
174.83401
174.80868
174.78052
174.74916
174.71421
174.6752
174.63161
174.58281
174.52809
174.46659
174.39731
174.31903
174.23032
174.12956
174.01507
173.88511
173.73676
173.56243
173.34163
173.05261
172.67463
172.42985
172.13574
173.29169
170.17363
175.23837
175.24
175.23833
175.23609
175.23354
175.23069
175.22754
175.22408
175.22027
175.21605
175.21141
175.20627
175.20061
175.19435
175.18744
175.1798
175.17136
175.16203
175.15171
175.14029
175.12765
175.11366
175.09815
175.08096
175.06189
175.04073
175.01721
174.99107
174.96197
174.92955
174.89339
174.85301
174.80784
174.75722
174.70041
174.63649
174.56439
174.48282
174.39021
174.28471
174.16444
174.0275
173.8717
173.68778
173.45968
173.12964
172.79859
172.29389
172.93201
171.70254
175.41777
175.41978
175.41829
175.41622
175.41385
175.41119
175.40827
175.40505
175.40149
175.39757
175.39324
175.38846
175.38318
175.37735
175.37091
175.36379
175.35593
175.34723
175.33761
175.32696
175.31518
175.30213
175.28768
175.27165
175.25388
175.23415
175.21224
175.18788
175.16078
175.1306
175.09695
175.05939
175.0174
174.97038
174.91765
174.85838
174.79162
174.71622
174.63079
174.5336
174.42261
174.29554
174.15081
173.98472
173.79424
173.5326
173.22978
172.68871
172.74283
172.31057
175.58681
175.5892
175.58788
175.58597
175.58376
175.58128
175.57855
175.57555
175.57223
175.56857
175.56453
175.56006
175.55513
175.54969
175.54367
175.53702
175.52967
175.52154
175.51255
175.5026
175.49158
175.47938
175.46587
175.45089
175.43427
175.41583
175.39534
175.37258
175.34726
175.31907
175.28764
175.25258
175.2134
175.16956
175.12043
175.06525
175.00316
174.93312
174.8539
174.76397
174.66148
174.54404
174.40943
174.25445
174.08117
173.86511
173.61699
173.16686
172.86882
172.55245
175.74659
175.74936
175.7482
175.74642
175.74437
175.74205
175.7395
175.73669
175.73359
175.73016
175.72638
175.7222
175.71759
175.71249
175.70686
175.70063
175.69374
175.68613
175.6777
175.66838
175.65806
175.64662
175.63395
175.61991
175.60433
175.58705
175.56785
175.54651
175.52279
175.49637
175.46694
175.43411
175.39744
175.35643
175.31048
175.25893
175.20097
175.13565
175.06185
174.97823
174.88315
174.77448
174.64982
174.5055
174.34226
174.14934
173.93698
173.60196
173.20843
172.75336
175.89803
175.90118
175.90016
175.89852
175.8966
175.89442
175.89203
175.8894
175.8865
175.88329
175.87974
175.87583
175.8715
175.86672
175.86144
175.85559
175.84913
175.84198
175.83407
175.82532
175.81562
175.80488
175.79298
175.77979
175.76515
175.74891
175.73087
175.71082
175.68853
175.66372
175.63608
175.60525
175.57083
175.53235
175.48927
175.44095
175.38666
175.32554
175.25655
175.17847
175.08983
174.98879
174.87318
174.7395
174.58614
174.40693
174.20992
173.95269
173.61088
173.02383
176.04193
176.04544
176.04456
176.04304
176.04125
176.03921
176.03696
176.0345
176.03178
176.02876
176.02544
176.02176
176.0177
176.01321
176.00824
176.00275
175.99667
175.98995
175.98251
175.97428
175.96515
175.95505
175.94384
175.93142
175.91764
175.90235
175.88536
175.86649
175.84549
175.82213
175.79611
175.76709
175.7347
175.6985
175.65799
175.61257
175.56158
175.50421
175.43951
175.36636
175.28342
175.18904
175.08129
174.9573
174.81435
174.64725
174.45861
174.2355
173.98032
173.35253
176.17896
176.18285
176.1821
176.18069
176.17901
176.1771
176.17499
176.17268
176.17012
176.16729
176.16416
176.16071
176.15688
176.15266
176.14799
176.14282
176.1371
176.13077
176.12376
176.116
176.1074
176.09787
176.08731
176.07559
176.0626
176.04817
176.03214
176.01433
175.99452
175.97248
175.94793
175.92055
175.89
175.85587
175.81768
175.77489
175.72687
175.67287
175.61202
175.54329
175.46544
175.37697
175.27611
175.16049
175.0274
174.87215
174.69349
174.48078
174.28889
173.69382
176.30974
176.31399
176.31337
176.31206
176.31049
176.30869
176.30671
176.30454
176.30213
176.29947
176.29653
176.29328
176.28968
176.2857
176.2813
176.27643
176.27104
176.26507
176.25846
176.25113
176.24302
176.23402
176.22404
176.21298
176.2007
176.18706
176.17192
176.15508
176.13636
176.11552
176.09231
176.06644
176.03756
176.00531
175.96923
175.92882
175.88348
175.83254
175.77517
175.71042
175.63714
175.55397
175.45925
175.35091
175.22654
175.08206
174.9158
174.70868
174.54745
174.01411
176.43479
176.4394
176.4389
176.43768
176.43621
176.43452
176.43266
176.43062
176.42835
176.42585
176.42308
176.42002
176.41663
176.41288
176.40873
176.40413
176.39904
176.3934
176.38716
176.38024
176.37257
176.36407
176.35463
176.34417
176.33255
176.31964
176.30531
176.28937
176.27164
176.25191
176.22993
176.20543
176.17809
176.14755
176.1134
176.07516
176.03227
175.9841
175.92988
175.86873
175.79959
175.72119
175.632
175.53013
175.41345
175.27821
175.12439
174.92617
174.77557
174.30167
176.55457
176.55954
176.55914
176.55802
176.55665
176.55506
176.5533
176.55138
176.54925
176.54689
176.54428
176.5414
176.5382
176.53466
176.53074
176.5264
176.5216
176.51627
176.51037
176.50382
176.49657
176.48852
176.47958
176.46967
176.45866
176.44644
176.43285
176.41774
176.40093
176.38222
176.36137
176.33813
176.3122
176.28324
176.25086
176.2146
176.17395
176.12831
176.07697
176.01909
175.9537
175.87962
175.79543
175.69938
175.58958
175.46235
175.31928
175.13322
174.9868
174.55897
176.66948
176.67482
176.67453
176.67349
176.67221
176.67071
176.66906
176.66725
176.66524
176.66302
176.66056
176.65784
176.65482
176.65148
176.64778
176.64368
176.63913
176.6341
176.62851
176.62231
176.61544
176.60782
176.59935
176.58995
176.57951
176.56791
176.55501
176.54067
176.52471
176.50694
176.48715
176.46507
176.44044
176.41293
176.38217
176.34774
176.30915
176.26583
176.21711
176.16223
176.10026
176.0301
175.95045
175.85967
175.75608
175.63606
175.50181
175.32854
175.18683
174.7929
176.7799
176.78559
176.78541
176.78445
176.78325
176.78184
176.78028
176.77858
176.77669
176.7746
176.77228
176.76971
176.76686
176.76371
176.76021
176.75633
176.75203
176.74727
176.74198
176.73611
176.72959
176.72236
176.71433
176.70541
176.6955
176.68448
176.67223
176.6586
176.64343
176.62653
176.60771
176.58672
176.56329
176.53712
176.50786
176.47512
176.43842
176.39723
176.35093
176.29879
176.23994
176.17337
176.09786
176.01188
175.9139
175.8005
175.67372
175.51203
175.37686
175.00939
176.88615
176.8922
176.89211
176.89123
176.89011
176.88878
176.88732
176.88571
176.88394
176.88196
176.87977
176.87735
176.87466
176.87168
176.86837
176.8647
176.86064
176.85612
176.85111
176.84554
176.83937
176.8325
176.82488
176.81641
176.80699
176.79651
176.78486
176.7719
176.75746
176.74138
176.72346
176.70347
176.68116
176.65624
176.62837
176.59718
176.56223
176.52302
176.47894
176.42932
176.37335
176.31007
176.23835
176.15674
176.06386
175.95654
175.83643
175.68462
175.55686
175.21202
176.98852
176.99492
176.99493
176.99412
176.99307
176.99182
176.99044
176.98894
176.98726
176.9854
176.98334
176.98105
176.97851
176.97569
176.97257
176.9691
176.96524
176.96097
176.95621
176.95094
176.94507
176.93856
176.93131
176.92326
176.9143
176.90434
176.89325
176.88091
176.86716
176.85184
176.83476
176.8157
176.79443
176.77067
176.7441
176.71436
176.68103
176.64364
176.60162
176.55434
176.50102
176.44076
176.37251
176.29492
176.20668
176.10492
175.99096
175.84764
175.72706
175.4027
177.08727
177.09402
177.09413
177.09339
177.09241
177.09123
177.08994
177.08852
177.08694
177.08519
177.08324
177.08108
177.07868
177.07602
177.07306
177.06978
177.06613
177.06208
177.05757
177.05256
177.047
177.04081
177.03392
177.02626
177.01774
177.00825
176.99769
176.98593
176.97282
176.95821
176.94192
176.92374
176.90344
176.88076
176.85539
176.827
176.79518
176.75948
176.71938
176.67426
176.62339
176.56593
176.50088
176.42698
176.34301
176.24631
176.13806
176.00226
175.88815
175.58259
177.18264
177.18975
177.18994
177.18927
177.18836
177.18725
177.18603
177.1847
177.18321
177.18156
177.17972
177.17769
177.17542
177.17291
177.17011
177.167
177.16355
177.1597
177.15543
177.15068
177.14539
177.13951
177.13296
177.12567
177.11755
177.10852
177.09845
177.08724
177.07473
177.06079
177.04524
177.02788
177.00849
176.98681
176.96258
176.93544
176.90503
176.87091
176.83259
176.78947
176.74088
176.68601
176.62392
176.55344
176.47338
176.38132
176.27834
176.1494
176.04101
175.75261
177.27485
177.2823
177.28258
177.28198
177.28113
177.28009
177.27894
177.27769
177.27629
177.27474
177.27301
177.27108
177.26895
177.26657
177.26392
177.26098
177.25771
177.25407
177.25001
177.2455
177.24048
177.23488
177.22865
177.22172
177.21399
177.20537
177.19577
177.18507
177.17314
177.15982
177.14496
177.12837
177.10984
177.08911
177.06593
177.03997
177.01088
176.97824
176.94157
176.90033
176.85385
176.80139
176.74205
176.67472
176.5983
176.5105
176.41236
176.28973
176.1865
175.91367
177.36409
177.37189
177.37226
177.37171
177.37092
177.36994
177.36887
177.36769
177.36638
177.36491
177.36328
177.36147
177.35945
177.35721
177.35471
177.35193
177.34883
177.34537
177.34153
177.33724
177.33247
177.32715
177.32122
177.31462
177.30725
177.29904
177.28988
177.27966
177.26826
177.25554
177.24134
177.22547
177.20773
177.1879
177.16571
177.14085
177.113
177.08174
177.04663
177.00713
176.96263
176.91241
176.85563
176.79123
176.71817
176.63431
176.54064
176.42383
176.32532
176.06662
177.45053
177.45868
177.45913
177.45865
177.45791
177.45699
177.45598
177.45488
177.45365
177.45227
177.45074
177.44903
177.44713
177.44501
177.44265
177.44001
177.43708
177.43381
177.43016
177.42609
177.42155
177.4165
177.41085
177.40456
177.39754
177.38971
177.38096
177.37121
177.36031
177.34815
177.33456
177.31938
177.3024
177.28341
177.26215
177.23833
177.21163
177.18167
177.14802
177.11016
177.06751
177.01938
176.96499
176.90331
176.83339
176.75318
176.66364
176.55219
176.45806
176.21221
177.53435
177.54284
177.54337
177.54294
177.54227
177.54141
177.54046
177.53943
177.53827
177.53698
177.53554
177.53393
177.53214
177.53014
177.5279
177.52542
177.52264
177.51954
177.51608
177.51221
177.5079
177.50309
177.49772
177.49173
177.48503
177.47756
177.46921
177.45989
177.44948
177.43784
177.42484
177.4103
177.39403
177.37583
177.35545
177.33262
177.30701
177.27827
177.24598
177.20966
177.16875
177.12258
177.07041
177.01129
176.94428
176.86747
176.78176
176.67527
176.5852
176.35112
177.61569
177.62452
177.62513
177.62476
177.62414
177.62333
177.62244
177.62148
177.6204
177.61918
177.61783
177.61632
177.61463
177.61274
177.61064
177.60828
177.60565
177.60272
177.59944
177.59577
177.59168
177.5871
177.58199
177.57628
177.56989
177.56276
177.55479
177.54588
177.53592
177.52479
177.51233
177.49841
177.48282
177.46537
177.44582
177.42391
177.39933
177.37174
177.34074
177.30586
177.26658
177.22226
177.17218
177.11544
177.05115
176.97751
176.89536
176.79347
176.70718
176.48392
177.69468
177.70386
177.70455
177.70422
177.70365
177.7029
177.70207
177.70117
177.70016
177.69902
177.69775
177.69633
177.69474
177.69297
177.69098
177.68876
177.68627
177.68349
177.68038
177.6769
177.67301
177.66866
177.6638
177.65835
177.65227
177.64546
177.63785
177.62933
177.6198
177.60914
177.59722
177.58387
177.56892
177.55218
177.53342
177.51238
177.48878
177.46227
177.43249
177.39898
177.36123
177.31864
177.27052
177.21601
177.15428
177.0836
177.00478
176.90716
176.82439
176.61111
177.77146
177.78098
177.78174
177.78147
177.78095
177.78024
177.77947
177.77863
177.77769
177.77663
177.77543
177.7741
177.77261
177.77094
177.76907
177.76697
177.76462
177.76199
177.75905
177.75575
177.75205
177.74792
177.74328
177.7381
177.73229
177.7258
177.71852
177.71038
177.70126
177.69106
177.67963
177.66683
177.65249
177.63642
177.61841
177.5982
177.57552
177.55004
177.52141
177.48918
177.45288
177.41192
177.36565
177.31325
177.25391
177.186
177.11029
177.01665
176.93718
176.73314
177.84613
177.85599
177.85683
177.85661
177.85613
177.85548
177.85476
177.85398
177.8531
177.85211
177.851
177.84975
177.84835
177.84678
177.84502
177.84304
177.84082
177.83833
177.83555
177.83242
177.82891
177.82498
177.82057
177.81563
177.8101
177.8039
177.79695
177.78916
177.78044
177.77066
177.75971
177.74743
177.73367
177.71824
177.70094
177.68152
177.65971
177.63521
177.60766
177.57665
177.54172
177.5023
177.45777
177.40735
177.35026
177.28495
177.21217
177.12224
177.04585
176.85039
177.91882
177.92901
177.92992
177.92975
177.92932
177.92871
177.92805
177.92733
177.92651
177.92558
177.92454
177.92338
177.92207
177.92059
177.91894
177.91707
177.91498
177.91263
177.91
177.90703
177.90371
177.89997
177.89578
177.89107
177.8858
177.87988
177.87324
177.86579
177.85744
177.84808
177.83758
177.8258
177.81259
177.79777
177.78114
177.76247
177.74149
177.71791
177.69139
177.66154
177.6279
177.58994
177.54706
177.4985
177.44354
177.38068
177.31064
177.22419
177.15069
176.96322
177.98961
178.00014
178.00112
178.00099
178.00061
178.00005
177.99943
177.99876
177.99801
177.99715
177.99618
177.99509
177.99386
177.99248
177.99093
177.98918
177.98721
177.98499
177.9825
177.97969
177.97654
177.97299
177.96901
177.96453
177.9595
177.95385
177.94751
177.94039
177.93239
177.92342
177.91336
177.90206
177.88937
177.87513
177.85914
177.84118
177.82099
177.79829
177.77275
177.744
177.71158
177.675
177.63368
177.58689
177.53392
177.47337
177.40591
177.32273
177.25195
177.07193
178.05859
178.06946
178.07051
178.07043
178.07009
178.06957
178.069
178.06839
178.06769
178.06689
178.066
178.06498
178.06384
178.06255
178.06109
178.05945
178.05759
178.0555
178.05315
178.0505
178.04751
178.04414
178.04035
178.03609
178.0313
178.02591
178.01985
178.01304
178.00539
177.9968
177.98714
177.9763
177.96412
177.95043
177.93505
177.91777
177.89833
177.87647
177.85187
177.82415
177.7929
177.75763
177.71778
177.67266
177.62159
177.56322
177.49819
177.41808
177.34986
177.17681
178.12586
178.13707
178.13818
178.13814
178.13785
178.13737
178.13685
178.13629
178.13565
178.13491
178.13408
178.13314
178.13208
178.13087
178.12951
178.12797
178.12623
178.12426
178.12204
178.11953
178.1167
178.11351
178.10991
178.10586
178.10129
178.09615
178.09037
178.08386
178.07653
178.0683
178.05904
178.04863
178.03693
178.02377
178.00898
177.99234
177.97363
177.95256
177.92884
177.90212
177.87198
177.83795
177.7995
177.75596
177.70669
177.65038
177.58765
177.51044
177.44463
177.27811
178.1915
178.20304
178.20422
178.20422
178.20397
178.20353
178.20306
178.20254
178.20196
178.20128
178.20051
178.19964
178.19866
178.19753
178.19626
178.19482
178.19319
178.19134
178.18925
178.18688
178.18421
178.18118
178.17777
178.17391
178.16957
178.16467
178.15914
178.15292
178.14591
178.13802
178.12914
178.11915
178.10791
178.09526
178.08102
178.065
178.04697
178.02667
178.0038
177.97802
177.94893
177.91609
177.87897
177.83694
177.78937
177.735
177.67446
177.59997
177.53645
177.37606
178.25557
178.26744
178.26869
178.26874
178.26852
178.26813
178.26769
178.26723
178.26669
178.26608
178.26537
178.26457
178.26366
178.26262
178.26143
178.26009
178.25856
178.25683
178.25486
178.25263
178.2501
178.24724
178.244
178.24034
178.2362
178.23153
178.22626
178.22031
178.2136
178.20605
178.19753
178.18794
178.17713
178.16497
178.15127
178.13584
178.11847
178.09889
178.07683
178.05195
178.02387
177.99216
177.95631
177.9157
177.86975
177.81724
177.75875
177.68685
177.62548
177.47088
178.31816
178.33036
178.33167
178.33176
178.33158
178.33122
178.33083
178.33042
178.32993
178.32937
178.32872
178.32799
178.32715
178.32618
178.32509
178.32383
178.32241
178.32078
178.31894
178.31684
178.31445
178.31174
178.30868
178.3052
178.30127
178.29682
178.29179
178.2861
178.27969
178.27245
178.26428
178.25508
178.2447
178.233
178.21981
178.20495
178.1882
178.16932
178.14803
178.12401
178.0969
178.06626
178.03162
177.99237
177.94795
177.8972
177.84068
177.77122
177.7119
177.56273
178.37931
178.39184
178.39322
178.39335
178.3932
178.39289
178.39254
178.39217
178.39173
178.39122
178.39064
178.38997
178.38919
178.38831
178.38729
178.38613
178.3848
178.38328
178.38155
178.37958
178.37733
178.37478
178.37187
178.36857
178.36484
178.3606
178.3558
178.35038
178.34424
178.33731
178.32948
178.32064
178.31066
178.29941
178.28672
178.2724
178.25626
178.23804
178.21749
178.1943
178.1681
178.13849
178.105
178.06706
178.0241
177.97502
177.92036
177.85322
177.79584
177.65182
178.43911
178.45196
178.45341
178.45357
178.45346
178.45318
178.45287
178.45255
178.45216
178.4517
178.45117
178.45056
178.44986
178.44905
178.44811
178.44704
178.4458
178.44439
178.44277
178.44092
178.4388
178.43639
178.43365
178.43052
178.42697
178.42294
178.41837
178.41319
178.40733
178.40069
178.39318
178.3847
178.37511
178.36429
178.35207
178.33828
178.32271
178.30513
178.28529
178.26289
178.23757
178.20894
178.17655
178.13985
178.09829
178.0508
177.99791
177.93297
177.87743
177.73828
178.49759
178.51077
178.51228
178.51248
178.51241
178.51216
178.51189
178.51161
178.51127
178.51086
178.51039
178.50984
178.5092
178.50846
178.5076
178.50661
178.50547
178.50416
178.50265
178.50091
178.49893
178.49666
178.49407
178.49111
178.48774
178.48391
178.47956
178.47461
178.46901
178.46265
178.45546
178.44732
178.43811
178.4277
178.41593
178.40264
178.38763
178.37067
178.35151
178.32986
178.30538
178.27769
178.24636
178.21083
178.17061
178.12464
178.07343
178.01059
177.95681
177.82226
178.55482
178.56833
178.5699
178.57013
178.5701
178.56989
178.56966
178.56941
178.56912
178.56876
178.56834
178.56785
178.56728
178.5666
178.56582
178.56491
178.56386
178.56264
178.56124
178.55962
178.55776
178.55563
178.55318
178.55039
178.5472
178.54356
178.53941
178.5347
178.52935
178.52327
178.51637
178.50856
178.49971
178.4897
178.47837
178.46557
178.45108
178.43471
178.4162
178.39528
178.37161
178.34482
178.31449
178.28011
178.24115
178.19664
178.14704
178.08619
178.03409
177.90391
178.61085
178.62468
178.62631
178.62658
178.62658
178.6264
178.62621
178.62601
178.62576
178.62545
178.62508
178.62465
178.62413
178.62353
178.62282
178.62199
178.62103
178.6199
178.6186
178.61709
178.61536
178.61335
178.61105
178.60841
178.60539
178.60194
178.598
178.59351
178.58839
178.58258
178.57598
178.56848
178.55999
178.55036
178.53945
178.52711
178.51314
178.49733
178.47945
178.45922
178.43633
178.41041
178.38105
178.34774
178.31001
178.26688
178.21882
178.15987
178.10936
177.98334
178.66572
178.67988
178.68156
178.68187
178.6819
178.68176
178.6816
178.68144
178.68123
178.68097
178.68065
178.68027
178.67982
178.67928
178.67865
178.67789
178.67701
178.67598
178.67478
178.67338
178.67176
178.66988
178.66772
178.66524
178.66238
178.65911
178.65536
178.65109
178.64621
178.64065
178.63433
178.62714
178.61898
178.60972
178.59922
178.58732
178.57385
178.55859
178.54131
178.52175
178.4996
178.47451
178.44608
178.41381
178.37725
178.33544
178.28886
178.23172
178.18274
178.06066
178.71948
178.73396
178.7357
178.73605
178.73611
178.736
178.73588
178.73575
178.73559
178.73537
178.73511
178.73478
178.73439
178.73391
178.73334
178.73267
178.73187
178.73093
178.72982
178.72853
178.72702
178.72527
178.72324
178.7209
178.71821
178.71511
178.71156
178.70749
178.70283
178.69752
178.69147
178.68458
178.67675
178.66784
178.65774
178.64627
178.63327
178.61854
178.60184
178.58293
178.56149
178.5372
178.50966
178.47839
178.44294
178.40241
178.35723
178.30183
178.2543
178.13599
178.77217
178.78697
178.78878
178.78915
178.78925
178.78917
178.78908
178.78899
178.78887
178.7887
178.78848
178.78821
178.78787
178.78746
178.78696
178.78636
178.78564
178.78478
178.78377
178.78258
178.78118
178.77955
178.77766
178.77546
178.77292
178.76999
178.76662
178.76275
178.75832
178.75325
178.74746
178.74086
178.73334
178.72478
178.71505
178.704
178.69146
178.67723
178.6611
178.6428
178.62206
178.59853
178.57184
178.54154
178.50716
178.46785
178.42402
178.37027
178.32414
178.20942
178.82383
178.83896
178.84082
178.84123
178.84135
178.8413
178.84125
178.8412
178.84112
178.84099
178.84082
178.8406
178.84032
178.83997
178.83953
178.839
178.83836
178.83758
178.83666
178.83557
178.83428
178.83277
178.83101
178.82895
178.82656
178.82379
178.8206
178.81693
178.81271
178.80787
178.80234
178.79601
178.78879
178.78057
178.77121
178.76056
178.74846
178.73473
178.71913
178.70143
178.68135
178.65856
178.6327
178.60331
178.56997
178.53183
178.48929
178.43713
178.39233
178.28104
178.87451
178.88995
178.89187
178.89231
178.89247
178.89245
178.89242
178.89241
178.89237
178.89228
178.89216
178.89199
178.89176
178.89147
178.8911
178.89064
178.89007
178.88938
178.88855
178.88755
178.88637
178.88497
178.88333
178.88141
178.87916
178.87656
178.87354
178.87006
178.86604
178.86143
178.85614
178.85008
178.84316
178.83526
178.82625
178.816
178.80433
178.79106
178.77599
178.75887
178.73943
178.71735
178.69228
178.66378
178.63143
178.59441
178.5531
178.50247
178.45895
178.35093
178.92423
178.93999
178.94196
178.94244
178.94262
178.94263
178.94264
178.94267
178.94266
178.94262
178.94254
178.94241
178.94224
178.94201
178.9417
178.9413
178.94081
178.9402
178.93946
178.93856
178.93748
178.93619
178.93467
178.93287
178.93077
178.92832
178.92547
178.92217
178.91836
178.91397
178.90892
178.90312
178.89648
178.88889
178.88023
178.87035
178.85909
178.84628
178.83171
178.81515
178.79633
178.77493
178.75062
178.72298
178.69158
178.65564