/*--------------------------------*- C++ -*----------------------------------*\
| =========                 |                                                 |
| \\      /  F ield         | OpenFOAM: The Open Source CFD Toolbox           |
|  \\    /   O peration     | Version:  4.0                                   |
|   \\  /    A nd           | Web:      www.OpenFOAM.org                      |
|    \\/     M anipulation  |                                                 |
\*---------------------------------------------------------------------------*/
FoamFile
{
    version     2.0;
    format      ascii;
    class       volScalarField;
    location    "974";
    object      ILambda_2_0;
}
// * * * * * * * * * * * * * * * * * * * * * * * * * * * * * * * * * * * * * //

dimensions      [1 0 -3 0 0 0 0];

internalField   nonuniform List<scalar> 
5000
(
157.91288
157.74091
157.55131
157.34396
157.11743
156.87016
156.6005
156.30671
155.98696
155.63934
155.26191
154.85266
154.40958
153.9307
153.41409
152.85792
152.26054
151.62055
150.93683
150.20873
149.4361
148.61946
147.76013
146.86038
145.9236
144.95444
143.95898
142.94482
141.92123
140.89914
139.89113
138.91122
137.97463
137.09727
136.29509
135.58325
134.97498
134.48048
134.10558
133.8506
133.70948
133.66938
133.71107
133.81035
133.94044
134.07514
134.1927
134.27812
134.32877
134.34099
165.89051
165.90627
165.92092
165.93519
165.94873
165.96108
165.97165
165.97971
165.98432
165.98434
165.97839
165.96475
165.9414
165.90587
165.85523
165.78603
165.69415
165.57482
165.42244
165.23059
164.99193
164.69812
164.33989
163.90697
163.38825
162.77189
162.04563
161.19719
160.21481
159.08803
157.80867
156.37194
154.77788
153.0328
151.15092
149.1557
147.08101
144.97149
142.88191
140.87512
139.01825
137.37703
136.00846
134.9526
134.22477
133.81023
133.66281
133.71408
133.86132
134.13005
168.3211
168.31897
168.31586
168.31273
168.3097
168.30686
168.30431
168.3022
168.30066
168.29983
168.29989
168.30101
168.30336
168.30709
168.31232
168.3191
168.32736
168.33687
168.34713
168.35729
168.36603
168.37132
168.3703
168.35895
168.33177
168.28144
168.19842
168.07042
167.88203
167.61429
167.24438
166.74559
166.0876
165.23729
164.16035
162.82368
161.19903
159.26768
157.02615
154.49241
151.71184
148.76141
145.75034
142.81531
140.10838
137.7781
135.94157
134.67143
133.92509
133.70952
169.6277
169.62445
169.61989
169.61477
169.60907
169.60275
169.59578
169.58809
169.57966
169.57043
169.56036
169.54944
169.53765
169.52501
169.51157
169.49743
169.48274
169.46772
169.45267
169.438
169.42421
169.41191
169.40183
169.39474
169.3914
169.39247
169.39822
169.40831
169.42127
169.4339
169.44039
169.43124
169.39187
169.3011
169.1295
168.83789
168.37643
167.68483
166.69444
165.33315
163.53382
161.24677
158.45576
155.19556
151.56714
147.74476
143.96921
140.50213
137.72016
134.99861
170.55657
170.55393
170.55013
170.54585
170.54109
170.5358
170.52994
170.52345
170.51626
170.5083
170.49949
170.48973
170.47891
170.46693
170.45365
170.43894
170.42267
170.40466
170.38478
170.36288
170.33883
170.31256
170.28408
170.25347
170.22103
170.18725
170.1529
170.11914
170.08751
170.05999
170.0389
170.02664
170.02523
170.03543
170.05527
170.07795
170.08889
170.06189
169.95478
169.7051
169.22717
168.41243
167.13589
165.27114
162.71698
159.42867
155.48162
150.96958
146.73266
140.44083
171.28262
171.28059
171.2775
171.27402
171.27014
171.26584
171.26106
171.25578
171.24995
171.2435
171.23638
171.22851
171.21981
171.21019
171.19956
171.18781
171.1748
171.1604
171.14443
171.12669
171.10697
171.08501
171.06052
171.03319
171.00267
170.96862
170.93068
170.88858
170.84216
170.79153
170.73717
170.68017
170.62243
170.56693
170.51781
170.48025
170.45988
170.46119
170.48466
170.52189
170.5485
170.51492
170.33638
169.88452
168.98961
167.44151
165.08852
161.5944
157.95134
149.83735
171.87953
171.87797
171.8754
171.8725
171.86926
171.86565
171.86165
171.85722
171.85233
171.84693
171.84096
171.83437
171.82709
171.81905
171.81019
171.80041
171.78961
171.7777
171.76454
171.75
171.73392
171.71612
171.69639
171.67449
171.65014
171.62301
171.59271
171.55877
171.52065
171.47771
171.42927
171.37462
171.31314
171.24451
171.16898
171.08783
171.00397
170.92256
170.85139
170.80066
170.78113
170.79944
170.84961
170.89788
170.86888
170.60449
169.94842
168.34109
166.65552
159.87434
172.38386
172.38269
172.38053
172.37807
172.37531
172.37223
172.36882
172.36505
172.36087
172.35625
172.35115
172.34551
172.33928
172.33241
172.32483
172.31647
172.30724
172.29706
172.28583
172.27344
172.25974
172.24461
172.22789
172.20939
172.18891
172.16624
172.1411
172.11319
172.08215
172.04754
172.00881
171.96531
171.9162
171.86047
171.79696
171.72437
171.64156
171.54794
171.44425
171.33371
171.22345
171.12561
171.05756
171.03678
171.07658
171.14192
171.21789
170.87909
170.79029
167.10146
172.81994
172.81909
172.81723
172.81511
172.81272
172.81006
172.80709
172.80381
172.80017
172.79615
172.7917
172.78678
172.78135
172.77536
172.76875
172.76146
172.75342
172.74455
172.73477
172.72398
172.71206
172.69889
172.68434
172.66826
172.65047
172.63079
172.60901
172.58488
172.55815
172.52849
172.49557
172.45895
172.41814
172.37251
172.32126
172.26333
172.19736
172.12161
172.03401
171.93249
171.81576
171.68471
171.54512
171.40924
171.30268
171.24246
171.29676
171.29248
171.66217
170.55146
173.20326
173.20269
173.20109
173.19924
173.19715
173.19481
173.1922
173.1893
173.18609
173.18254
173.17861
173.17427
173.16947
173.16417
173.15832
173.15187
173.14476
173.13692
173.12828
173.11874
173.10822
173.09659
173.08375
173.06956
173.05387
173.03651
173.01731
172.99605
172.97249
172.94638
172.91742
172.88527
172.84956
172.80985
172.76564
172.71631
172.6611
172.59896
172.52849
172.4477
172.35394
172.24392
172.11467
171.96453
171.79977
171.62889
171.50336
171.40087
171.52789
171.49604
173.5449
173.54458
173.54319
173.54156
173.53971
173.53763
173.53531
173.53273
173.52986
173.52669
173.52318
173.51929
173.515
173.51025
173.50501
173.49924
173.49288
173.48587
173.47814
173.46961
173.4602
173.44981
173.43833
173.42565
173.41164
173.39615
173.37902
173.36005
173.33906
173.31579
173.29
173.26137
173.22958
173.19424
173.15494
173.11117
173.06239
173.00795
172.94707
172.87871
172.80139
172.71291
172.61009
172.48829
172.34325
172.17005
171.97872
171.77988
171.62705
171.61852
173.85269
173.85261
173.8514
173.84996
173.84831
173.84645
173.84437
173.84205
173.83947
173.83661
173.83344
173.82993
173.82605
173.82176
173.81703
173.81181
173.80606
173.79973
173.79274
173.78504
173.77654
173.76716
173.7568
173.74536
173.73272
173.71875
173.70331
173.68622
173.66731
173.64637
173.62317
173.59743
173.56887
173.53713
173.50184
173.46256
173.41878
173.36994
173.3154
173.25443
173.18619
173.10955
173.02293
172.92375
172.80801
172.66957
172.50102
172.30081
172.07451
171.82046
174.13253
174.13268
174.13162
174.13034
174.12886
174.12719
174.12531
174.12321
174.12087
174.11828
174.1154
174.1122
174.10867
174.10476
174.10045
174.09569
174.09045
174.08468
174.07832
174.07131
174.06357
174.05503
174.0456
174.03519
174.02369
174.01098
173.99693
173.9814
173.96422
173.9452
173.92414
173.9008
173.8749
173.84616
173.81422
173.77869
173.73911
173.69499
173.64571
173.59061
173.52894
173.45984
173.38233
173.29516
173.19644
173.08298
172.94951
172.78303
172.60543
172.23254
174.38888
174.38925
174.38832
174.38719
174.38586
174.38434
174.38264
174.38073
174.3786
174.37622
174.37359
174.37067
174.36742
174.36384
174.35988
174.35552
174.35071
174.34542
174.33959
174.33316
174.32606
174.31824
174.30959
174.30005
174.28951
174.27786
174.265
174.25078
174.23505
174.21765
174.19838
174.17704
174.15338
174.12713
174.09799
174.0656
174.02956
173.98941
173.94461
173.89456
173.83854
173.77575
173.70527
173.62607
173.53706
173.43632
173.32373
173.18313
173.05924
172.70601
174.62523
174.62581
174.62501
174.624
174.62281
174.62143
174.61987
174.61813
174.61617
174.614
174.61157
174.60888
174.60589
174.60259
174.59893
174.59491
174.59047
174.58559
174.58021
174.57428
174.56774
174.56052
174.55255
174.54374
174.53403
174.52329
174.51143
174.49833
174.48384
174.46781
174.45008
174.43044
174.40868
174.38455
174.35777
174.32803
174.29497
174.25817
174.21716
174.17139
174.12022
174.06293
173.99864
173.92632
173.84503
173.75278
173.65138
173.52561
173.42553
173.1321
174.84435
174.84515
174.84446
174.84356
174.84249
174.84123
174.83981
174.83821
174.83641
174.83441
174.83217
174.82968
174.82691
174.82384
174.82045
174.81672
174.81261
174.80808
174.80309
174.79759
174.79153
174.78484
174.77745
174.76929
174.76028
174.75033
174.73934
174.7272
174.71378
174.69894
174.68252
174.66435
174.64422
174.62191
174.59716
174.56969
174.53917
174.50523
174.46743
174.42529
174.37825
174.32564
174.2667
174.20047
174.12606
174.04147
173.9483
173.83341
173.74037
173.4924
175.0485
175.0495
175.04892
175.04812
175.04715
175.04601
175.04471
175.04323
175.04157
175.03972
175.03764
175.03533
175.03275
175.0299
175.02674
175.02326
175.01943
175.01521
175.01057
175.00545
174.9998
174.99357
174.98669
174.97909
174.97071
174.96144
174.95121
174.93991
174.92742
174.91362
174.89834
174.88144
174.86273
174.84199
174.819
174.7935
174.76518
174.7337
174.69868
174.65966
174.61614
174.56753
174.51315
174.45215
174.38371
174.30607
174.22031
174.11521
174.02688
173.80558
175.2395
175.24071
175.24022
175.23952
175.23865
175.23761
175.23641
175.23505
175.23352
175.23179
175.22986
175.2277
175.2253
175.22263
175.21968
175.21643
175.21284
175.2089
175.20456
175.19977
175.1945
175.18867
175.18224
175.17513
175.16729
175.15863
175.14907
175.13851
175.12684
175.11393
175.09967
175.08388
175.06641
175.04705
175.0256
175.00182
174.97541
174.94608
174.91347
174.87717
174.83671
174.79156
174.7411
174.68458
174.62127
174.54962
174.47048
174.37404
174.29178
174.08843
175.41888
175.4203
175.4199
175.41929
175.4185
175.41756
175.41645
175.4152
175.41377
175.41217
175.41037
175.40835
175.4061
175.4036
175.40083
175.39777
175.39441
175.39071
175.38664
175.38215
175.3772
175.37174
175.3657
175.35904
175.35168
175.34355
175.33458
175.32467
175.31373
175.30163
175.28825
175.27345
175.25707
175.23893
175.21884
175.19656
175.17185
175.14441
175.11391
175.07999
175.04221
175.00008
174.95305
174.90042
174.84154
174.77504
174.70167
174.61257
174.53662
174.34855
175.58793
175.58955
175.58924
175.5887
175.588
175.58714
175.58612
175.58496
175.58364
175.58214
175.58045
175.57856
175.57645
175.57409
175.57149
175.56861
175.56545
175.56197
175.55814
175.55392
175.54926
175.54412
175.53843
175.53216
175.52524
175.51759
175.50914
175.49982
175.48952
175.47813
175.46554
175.45162
175.43621
175.41916
175.40027
175.37934
175.35612
175.33035
175.30173
175.2699
175.23449
175.19502
175.151
175.1018
175.0468
174.98476
174.91642
174.83359
174.76319
174.58902
175.74772
175.74954
175.74931
175.74885
175.74822
175.74743
175.7465
175.74542
175.74419
175.74279
175.74121
175.73944
175.73744
175.73522
175.73276
175.73005
175.72707
175.72378
175.72017
175.71619
175.71179
175.70694
175.70158
175.69566
175.68912
175.6819
175.67393
175.66513
175.6554
175.64466
175.63278
175.61964
175.60511
175.58902
175.57121
175.55147
175.52959
175.50531
175.47836
175.4484
175.41508
175.37798
175.33663
175.29045
175.23888
175.18078
175.11685
175.03951
174.9738
174.812
175.89917
175.90119
175.90103
175.90065
175.90009
175.89938
175.89852
175.89752
175.89637
175.89506
175.89358
175.8919
175.89002
175.88793
175.8856
175.88303
175.88021
175.8771
175.87368
175.86992
175.86576
175.86117
175.8561
175.8505
175.84431
175.83748
175.82993
175.8216
175.8124
175.80223
175.79099
175.77856
175.76481
175.7496
175.73275
175.71409
175.69341
175.67047
175.645
175.61672
175.58528
175.55029
175.51132
175.46783
175.41931
175.36471
175.30468
175.2322
175.17056
175.01959
176.04308
176.0453
176.04522
176.0449
176.04441
176.04376
176.04297
176.04204
176.04097
176.03975
176.03835
176.03677
176.03499
176.03301
176.0308
176.02837
176.02569
176.02274
176.0195
176.01593
176.012
176.00764
176.00283
175.99752
175.99165
175.98517
175.97801
175.97011
175.96138
175.95173
175.94107
175.92928
175.91624
175.90181
175.88584
175.86815
175.84855
175.82682
175.8027
175.77592
175.74616
175.71307
175.67623
175.63516
175.58937
175.53789
175.48134
175.41318
175.35518
175.21371
176.18014
176.18255
176.18254
176.18229
176.18186
176.18127
176.18055
176.17969
176.17869
176.17754
176.17623
176.17473
176.17305
176.17116
176.16907
176.16675
176.16421
176.16141
176.15834
176.15495
176.1512
176.14707
176.1425
176.13745
176.13187
176.12571
176.1189
176.11139
176.10309
176.09392
176.08378
176.07258
176.06018
176.04647
176.03129
176.01448
175.99586
175.97522
175.95232
175.9269
175.89867
175.86729
175.83238
175.79347
175.75014
175.70146
175.64804
175.58374
175.529
175.39597
176.31094
176.31355
176.31361
176.31342
176.31305
176.31252
176.31185
176.31106
176.31013
176.30905
176.30781
176.30639
176.30479
176.303
176.30101
176.29881
176.29638
176.29372
176.2908
176.28757
176.28401
176.28007
176.27572
176.27091
176.2656
176.25973
176.25325
176.24609
176.23819
176.22945
176.21979
176.20912
176.19731
176.18425
176.16979
176.15379
176.13606
176.11641
176.09462
176.07044
176.04359
176.01376
175.9806
175.94366
175.90255
175.8564
175.80579
175.74497
175.69316
175.56768
176.43601
176.43882
176.43894
176.43881
176.43849
176.43802
176.43741
176.43668
176.43581
176.4348
176.43362
176.43228
176.43076
176.42906
176.42716
176.42506
176.42275
176.42021
176.41742
176.41435
176.41095
176.4072
176.40305
176.39846
176.39339
176.38779
176.38161
176.37478
176.36723
176.3589
176.34968
176.33949
176.32822
176.31576
176.30197
176.2867
176.26978
176.25104
176.23026
176.20721
176.18163
176.15321
176.12163
176.08649
176.04739
176.00354
175.95548
175.89779
175.84865
175.72995
176.55582
176.55882
176.559
176.55893
176.55867
176.55825
176.55769
176.55701
176.5562
176.55525
176.55414
176.55287
176.55142
176.5498
176.54798
176.54598
176.54377
176.54135
176.53869
176.53576
176.53252
176.52893
176.52497
176.52058
176.51574
176.51039
176.50447
176.49795
176.49073
176.48276
176.47395
176.46421
176.45344
176.44152
176.42834
176.41374
176.39758
176.37967
176.35982
176.3378
176.31337
176.28625
176.25613
176.22261
176.18536
176.1436
176.09786
176.04302
175.99629
175.88372
176.67077
176.67396
176.67421
176.67418
176.67397
176.6736
176.6731
176.67247
176.67172
176.67082
176.66978
176.66857
176.66719
176.66563
176.6639
176.66198
176.65987
176.65756
176.65502
176.65221
176.64911
176.64569
176.6419
176.6377
176.63306
176.62794
176.62228
176.61603
176.60913
176.60149
176.59306
176.58373
176.57341
176.562
176.54938
176.53541
176.51993
176.50279
176.48379
176.46273
176.43936
176.41343
176.38463
176.35262
176.31705
176.2772
176.23358
176.18135
176.13682
176.02982
176.78122
176.7846
176.78491
176.78494
176.78478
176.78446
176.784
176.78342
176.78272
176.78188
176.78089
176.77974
176.77843
176.77694
176.77528
176.77344
176.77143
176.76921
176.76678
176.76409
176.76113
176.75785
176.75421
176.7502
176.74575
176.74084
176.73542
176.72942
176.7228
176.71548
176.70739
176.69845
176.68856
176.67762
176.66551
176.65211
176.63728
176.62084
176.60263
176.58244
176.56005
176.53521
176.50765
176.47701
176.44298
176.4049
176.36322
176.31337
176.27086
176.16894
176.88751
176.89108
176.89144
176.89153
176.89141
176.89114
176.89073
176.89019
176.88954
176.88875
176.88781
176.88672
176.88546
176.88404
176.88245
176.88069
176.87876
176.87663
176.8743
176.87173
176.86889
176.86574
176.86226
176.8584
176.85414
176.84943
176.84422
176.83847
176.83211
176.82509
176.81732
176.80873
176.79923
176.78872
176.7771
176.76423
176.74999
176.73421
176.71672
176.69735
176.67586
176.65204
176.6256
176.59623
176.56364
176.52717
176.48729
176.43962
176.39897
176.3017
176.98992
176.99368
176.9941
176.99423
176.99416
176.99393
176.99356
176.99307
176.99246
176.99172
176.99084
176.9898
176.9886
176.98723
176.98571
176.98402
176.98216
176.98013
176.97789
176.97542
176.9727
176.96968
176.96634
176.96263
176.95854
176.95401
176.949
176.94347
176.93736
176.93061
176.92314
176.91488
176.90575
176.89565
176.88447
176.8721
176.8584
176.84323
176.82643
176.8078
176.78716
176.76427
176.73888
176.71069
176.67942
176.64445
176.60622
176.56057
176.52163
176.42863
177.08871
177.09266
177.09314
177.09332
177.09329
177.0931
177.09277
177.09233
177.09176
177.09106
177.09023
177.08924
177.08809
177.08678
177.08532
177.08369
177.08191
177.07996
177.07781
177.07544
177.07283
177.06993
177.06671
177.06315
177.05921
177.05485
177.05004
177.04472
177.03884
177.03234
177.02515
177.0172
177.00841
176.99869
176.98793
176.97602
176.96283
176.94823
176.93205
176.91413
176.89426
176.87225
176.84783
176.82074
176.79069
176.75711
176.72041
176.67662
176.63927
176.55021
177.18413
177.18826
177.18879
177.18902
177.18903
177.18889
177.1886
177.1882
177.18767
177.18702
177.18622
177.18528
177.18418
177.18293
177.18152
177.17996
177.17825
177.17637
177.1743
177.17203
177.16951
177.16673
177.16363
177.16021
177.15641
177.15222
177.14758
177.14246
177.13679
177.13053
177.12361
177.11595
177.10747
177.0981
177.08773
177.07625
177.06354
177.04947
177.03388
177.01661
176.99748
176.97627
176.95276
176.92668
176.89777
176.86548
176.83021
176.78816
176.75227
176.66686
177.27638
177.2807
177.28128
177.28156
177.28161
177.2815
177.28126
177.28089
177.2804
177.27979
177.27904
177.27814
177.27709
177.27588
177.27453
177.27303
177.27138
177.26957
177.26759
177.2654
177.26298
177.2603
177.25732
177.25402
177.25036
177.24632
177.24185
177.23691
177.23145
177.22541
177.21873
177.21134
177.20317
177.19413
177.18412
177.17305
177.16079
177.14721
177.13217
177.11551
177.09705
177.07661
177.05395
177.02882
177.00097
176.96988
176.93593
176.89549
176.86098
176.77894
177.36567
177.37017
177.37081
177.37112
177.37122
177.37115
177.37094
177.37061
177.37016
177.36959
177.36887
177.36802
177.36701
177.36585
177.36455
177.3631
177.36152
177.35978
177.35787
177.35576
177.35343
177.35085
177.34798
177.34479
177.34127
177.33737
177.33306
177.32829
177.32302
177.31719
177.31074
177.30361
177.29571
177.28698
177.27732
177.26662
177.25478
177.24167
177.22714
177.21106
177.19324
177.1735
177.15164
177.12739
177.10054
177.07057
177.03786
176.99892
176.96568
176.8868
177.45216
177.45685
177.45753
177.45789
177.45803
177.45799
177.45782
177.45753
177.45711
177.45658
177.45591
177.45509
177.45412
177.45301
177.45175
177.45036
177.44883
177.44715
177.44532
177.44329
177.44104
177.43855
177.43579
177.43271
177.42931
177.42555
177.42138
177.41678
177.41169
177.40605
177.39982
177.39293
177.3853
177.37686
177.36752
177.35718
177.34573
177.33306
177.31902
177.30347
177.28624
177.26717
177.24605
177.22264
177.19672
177.1678
177.13625
177.09871
177.06667
176.99071
177.53603
177.54089
177.54163
177.54203
177.54221
177.54221
177.54207
177.54181
177.54143
177.54093
177.5403
177.53952
177.53859
177.53752
177.53631
177.53497
177.53349
177.53188
177.5301
177.52815
177.52599
177.52358
177.52091
177.51795
177.51466
177.51102
177.507
177.50255
177.49763
177.49218
177.48615
177.47948
177.4721
177.46394
177.4549
177.4449
177.43382
177.42156
177.40797
177.39293
177.37627
177.35782
177.3374
177.31477
177.28972
177.26179
177.23133
177.1951
177.16418
177.09097
177.61742
177.62246
177.62325
177.6237
177.62391
177.62394
177.62383
177.62361
177.62326
177.6228
177.6222
177.62145
177.62057
177.61953
177.61837
177.61707
177.61565
177.61409
177.61238
177.6105
177.60841
177.60609
177.60351
177.60064
177.59747
177.59395
177.59006
177.58575
177.58099
177.57572
177.56989
177.56343
177.55629
177.54838
177.53963
177.52995
177.51922
177.50734
177.49419
177.47962
177.46349
177.44563
177.42587
177.40397
177.37975
177.35274
177.3233
177.28831
177.25844
177.18779
177.69646
177.70169
177.70253
177.70301
177.70326
177.70332
177.70325
177.70306
177.70275
177.70231
177.70175
177.70104
177.70018
177.69919
177.69806
177.69681
177.69544
177.69394
177.69229
177.69047
177.68845
177.68621
177.68372
177.68095
177.67788
177.67447
177.67071
177.66654
177.66193
177.65683
177.65118
177.64493
177.638
177.63034
177.62187
177.61248
177.60208
177.59057
177.57782
177.5637
177.54807
177.53077
177.51163
177.49043
177.46697
177.44084
177.41236
177.37853
177.34964
177.28141
177.77329
177.7787
177.77959
177.78011
177.78039
177.78049
177.78045
177.78028
177.78
177.7796
177.77907
177.77839
177.77757
177.77662
177.77553
177.77432
177.77299
177.77154
177.76995
177.76819
177.76625
177.76408
177.76167
177.75899
177.75602
177.75272
177.74908
177.74504
177.74057
177.73563
177.73015
177.72409
177.71738
177.70996
177.70173
177.69263
177.68255
177.67138
177.65902
177.64532
177.63016
177.61339
177.59483
177.57428
177.55156
177.52626
177.49868
177.46594
177.43799
177.37202
177.84803
177.85361
177.85454
177.8551
177.85542
177.85555
177.85554
177.8554
177.85516
177.85478
177.85428
177.85364
177.85285
177.85193
177.85088
177.84971
177.84843
177.84702
177.84549
177.84379
177.84191
177.83982
177.83749
177.83489
177.83201
177.82882
177.82529
177.82137
177.81704
177.81225
177.80694
177.80106
177.79455
177.78734
177.77937
177.77053
177.76075
177.74991
177.7379
177.72461
177.7099
177.69362
177.67562
177.65569
177.63366
177.60913
177.58242
177.55071
177.52363
177.45981
177.92076
177.92652
177.9275
177.9281
177.92845
177.92861
177.92863
177.92853
177.92831
177.92797
177.92749
177.92688
177.92612
177.92523
177.92422
177.92309
177.92185
177.92049
177.91901
177.91737
177.91555
177.91353
177.91127
177.90876
177.90597
177.90287
177.89945
177.89565
177.89145
177.8868
177.88165
177.87594
177.86962
177.86263
177.85488
177.8463
177.8368
177.82627
177.81461
177.8017
177.78741
177.77161
177.75413
177.73479
177.71341
177.68962
177.66371
177.63298
177.60674
177.54493
177.99161
177.99754
177.99857
177.99921
177.99959
177.99978
177.99983
177.99975
177.99956
177.99925
177.9988
177.99822
177.99749
177.99664
177.99565
177.99456
177.99336
177.99205
177.99062
177.98903
177.98728
177.98532
177.98313
177.9807
177.97799
177.97499
177.97167
177.96798
177.96391
177.95939
177.95439
177.94885
177.94271
177.93591
177.92838
177.92005
177.91081
177.90058
177.88925
177.8767
177.86282
177.84746
177.83048
177.81169
177.79094
177.76784
177.7427
177.7129
177.68744
177.62754
178.06065
178.06676
178.06784
178.06851
178.06892
178.06915
178.06922
178.06917
178.06901
178.06872
178.0683
178.06775
178.06705
178.06622
178.06528
178.06422
178.06306
178.06179
178.0604
178.05887
178.05717
178.05527
178.05316
178.0508
178.04817
178.04526
178.04203
178.03846
178.0345
178.03012
178.02526
178.01987
178.01391
178.0073
177.99998
177.99187
177.98289
177.97294
177.96192
177.94972
177.93622
177.92128
177.90478
177.88652
177.86635
177.84392
177.81951
177.79058
177.76587
177.70778
178.12798
178.13427
178.13538
178.1361
178.13654
178.13679
178.13689
178.13687
178.13673
178.13647
178.13608
178.13555
178.13489
178.13409
178.13317
178.13215
178.13102
178.1298
178.12845
178.12697
178.12533
178.12349
178.12144
178.11915
178.1166
178.11378
178.11064
178.10717
178.10333
178.09907
178.09434
178.08911
178.0833
178.07688
178.06976
178.06187
178.05314
178.04345
178.03273
178.02086
178.00772
177.99319
177.97713
177.95938
177.93977
177.91797
177.89425
177.86616
177.84216
177.78577
178.19368
178.20013
178.2013
178.20204
178.20252
178.2028
178.20293
178.20293
178.20282
178.20259
178.20222
178.20172
178.20108
178.20031
178.19942
178.19843
178.19734
178.19615
178.19485
178.19342
178.19183
178.19005
178.18806
178.18584
178.18336
178.18062
178.17758
178.1742
178.17047
178.16632
178.16173
178.15664
178.15099
178.14474
178.13781
178.13013
178.12163
178.1122
178.10176
178.0902
178.07741
178.06326
178.04763
178.03036
178.01129
177.99009
177.96703
177.93972
177.9164
177.86164
178.25781
178.26444
178.26565
178.26643
178.26694
178.26724
178.2674
178.26743
178.26734
178.26713
178.26679
178.26631
178.2657
178.26495
178.26409
178.26313
178.26208
178.26093
178.25967
178.25829
178.25675
178.25502
178.25309
178.25093
178.24853
178.24587
178.24291
178.23963
178.236
178.23197
178.2275
178.22254
178.21705
178.21096
178.20421
178.19674
178.18845
178.17927
178.1691
178.15784
178.14538
178.1316
178.11638
178.09956
178.081
178.06037
178.03794
178.01139
177.9887
177.93549
178.32046
178.32725
178.3285
178.32932
178.32986
178.33019
178.33037
178.33043
178.33036
178.33018
178.32987
178.32941
178.32882
178.3281
178.32727
178.32634
178.32532
178.32421
178.32299
178.32165
178.32015
178.31848
178.31661
178.31451
178.31218
178.30959
178.30671
178.30353
178.29999
178.29607
178.29172
178.28689
178.28154
178.27561
178.26904
178.26176
178.25368
178.24474
178.23482
178.22385
178.2117
178.19828
178.18345
178.16706
178.14898
178.1289
178.10707
178.08124
178.05917
178.00743
178.38167
178.38864
178.38994
178.39079
178.39136
178.39172
178.39192
178.392
178.39196
178.3918
178.39151
178.39108
178.39051
178.38982
178.38901
178.38811
178.38712
178.38604
178.38486
178.38356
178.38212
178.3805
178.37868
178.37664
178.37438
178.37186
178.36906
178.36596
178.36252
178.3587
178.35446
178.34976
178.34455
178.33877
178.33237
178.32527
178.3174
178.30867
178.29901
178.2883
178.27646
178.26337
178.24891
178.23294
178.21533
178.19577
178.17451
178.14936
178.12788
178.07754
178.44153
178.44867
178.45
178.45089
178.45148
178.45187
178.4521
178.4522
178.45219
178.45205
178.45178
178.45137
178.45083
178.45016
178.44938
178.4485
178.44754
178.4465
178.44536
178.4441
178.4427
178.44113
178.43936
178.43739
178.43518
178.43273
178.43001
178.42699
178.42364
178.41992
178.4158
178.41122
178.40614
178.4005
178.39426
178.38733
178.37966
178.37115
178.36171
178.35127
178.33972
178.32695
178.31285
178.29728
178.28011
178.26105
178.24033
178.21584
178.19491
178.14592
178.50007
178.50738
178.50876
178.50968
178.5103
178.51072
178.51097
178.51109
178.5111
178.51099
178.51074
178.51035
178.50983
178.50918
178.50843
178.50758
178.50665
178.50564
178.50453
178.50332
178.50196
178.50043
178.49872
178.4968
178.49465
178.49227
178.48962
178.48668
178.48342
178.4798
178.47578
178.47131
178.46636
178.46086
178.45477
178.44802
178.44053
178.43222
178.42302
178.41282
178.40155
178.38909
178.37533
178.36014
178.34339
178.32481
178.30462
178.28075
178.26036
178.21265
178.55737
178.56484
178.56626
178.56721
178.56787
178.5683
178.56858
178.56873
178.56876
178.56866
178.56844
178.56808
178.56758
178.56695
178.56622
178.56539
178.56449
178.56351
178.56244
178.56126
178.55995
178.55847
178.5568
178.55493
178.55285
178.55053
178.54795
178.54509
178.54191
178.53838
178.53446
178.5301
178.52527
178.51991
178.51397
178.50738
178.50006
178.49195
178.48297
178.47301
178.462
178.44984
178.43641
178.42158
178.40524
178.38712
178.36743
178.34416
178.32428
178.27779
178.61346
178.6211
178.62256
178.62355
178.62423
178.62469
178.62499
178.62516
178.62521
178.62514
178.62493
178.62459
178.62411
178.62351
178.6228
178.622
178.62112
178.62017
178.61914
178.61799
178.61672
178.61528
178.61366
178.61185
178.60982
178.60756
178.60505
178.60226
178.59916
178.59572
178.5919
178.58765
178.58294
178.57771
178.5719
178.56547
178.55832
178.5504
178.54162
178.5319
178.52115
178.50926
178.49615
178.48167
178.46573
178.44804
178.42883
178.40614
178.38674
178.34143
178.66839
178.6762
178.6777
178.67872
178.67943
178.67992
178.68024
178.68043
178.6805
178.68045
178.68027
178.67994
178.67948
178.6789
178.67821
178.67744
178.67659
178.67567
178.67467
178.67356
178.67232
178.67092
178.66935
178.66759
178.66561
178.66341
178.66097
178.65825
178.65523
178.65187
178.64814
178.644
178.6394
178.63429
178.62863
178.62234
178.61536
178.60762
178.59904
178.58954
178.57903
178.56742
178.55461
178.54047
178.52489
178.50762
178.48888
178.46674
178.44782
178.40363
178.72222
178.73019
178.73173
178.73278
178.73352
178.73403
178.73437
178.73459
178.73468
178.73465
178.73448
178.73418
178.73374
178.73318
178.73251
178.73176
178.73094
178.73005
178.72907
178.728
178.7268
178.72544
178.72392
178.7222
178.72028
178.71813
178.71575
178.7131
178.71016
178.70688
178.70324
178.6992
178.69471
178.68972
178.68418
178.67804
178.67122
178.66366
178.65527
178.64598
178.63571
178.62436
178.61183
178.59802
178.5828
178.56594
178.54763
178.52602
178.50755
178.46444
178.77497
178.78311
178.78469
178.78578
178.78654
178.78707
178.78744
178.78767
178.78779
178.78777
178.78763
178.78735
178.78692
178.78638
178.78574
178.78501
178.78421
178.78334
178.7824
178.78136
178.7802
178.77888
178.7774
178.77573
178.77385
178.77177
178.76944
178.76686
178.76399
178.76079
178.75724
178.75329
178.7489
178.74403
178.73862
178.73262
178.72595
178.71855
178.71035
178.70127
178.69122
178.68012
178.66788
178.65437
178.63951
178.62303
178.60515
178.58405
178.56601
178.52394
178.8267
178.835
178.83663
178.83774
178.83853
178.83909
178.83947
178.83973
178.83986
178.83987
178.83974
178.83948
178.83908
178.83855
178.83793
178.83722
178.83644
178.83561
178.83469
178.83368
178.83255
178.83128
178.82983
178.82821
178.82639
178.82435
178.82209
178.81957
178.81677
178.81365
178.81018
178.80632
178.80203
178.79727
178.79198
178.78611
178.77959
178.77236
178.76434
178.75545
178.74562
178.73476
178.72279
178.70958
178.69505
178.67894
178.66147
178.64086
178.62324
178.58216
178.87744
178.8859
178.88757
178.88871
178.88953
178.89011
178.89052
178.89079
178.89094
178.89097
178.89086
178.89062
178.89023
178.88973
178.88912
178.88843
178.88768
178.88687
178.88598
178.88501
178.88391
178.88267
178.88127
178.87969
178.87791
178.87593
178.87372
178.87126
178.86853
178.86548
178.8621
178.85833
178.85414
178.84948
178.84431
178.83857
178.83219
178.82511
178.81726
178.80857
178.79895
178.78832
178.77661
178.76369
178.74947
178.73373
178.71665
178.69651
178.6793
178.63917
178.92723
178.93585
178.93755
178.93873
178.93957
178.94018
178.9406
178.9409
178.94107
178.94112
178.94103
178.9408
178.94043
178.93994
178.93935
178.93869
178.93796
178.93717
178.93631
178.93537
178.9343
178.9331
178.93173
178.93019
178.92846
178.92653
178.92438
178.92198
178.91931
178.91634
178.91303
178.90935
178.90525
178.9007
178.89564
178.89002
178.88378
178.87686
178.86917
178.86066
178.85124
178.84084
178.82937
178.81673
178.80283
178.78743