/*--------------------------------*- C++ -*----------------------------------*\
| =========                 |                                                 |
| \\      /  F ield         | OpenFOAM: The Open Source CFD Toolbox           |
|  \\    /   O peration     | Version:  4.0                                   |
|   \\  /    A nd           | Web:      www.OpenFOAM.org                      |
|    \\/     M anipulation  |                                                 |
\*---------------------------------------------------------------------------*/
FoamFile
{
    version     2.0;
    format      ascii;
    class       surfaceScalarField;
    location    "974";
    object      phi;
}
// * * * * * * * * * * * * * * * * * * * * * * * * * * * * * * * * * * * * * //

dimensions      [1 0 -1 0 0 0 0];

internalField   nonuniform List<scalar> 
9850
(
4.0302079e-12
8.9379307e-11
1.5653416e-11
2.9831367e-10
3.4609535e-11
5.6593045e-10
5.9982614e-11
9.0374232e-10
8.9778215e-11
1.324785e-09
1.2059127e-10
1.8435037e-09
1.4728081e-10
2.4756124e-09
1.6267867e-10
3.2378605e-09
1.5741185e-10
4.1477189e-09
1.1990859e-10
5.2230217e-09
3.6682904e-11
6.4816379e-09
-1.0702528e-10
7.9412935e-09
-3.2618977e-10
9.6197161e-09
-6.3453703e-10
1.1535318e-08
-1.0427602e-09
1.3708656e-08
-1.556609e-09
1.6164886e-08
-2.1751474e-09
1.8937362e-08
-2.8895515e-09
2.2072397e-08
-3.6827388e-09
2.5635005e-08
-4.5301713e-09
2.971526e-08
-5.4018389e-09
3.4434745e-08
-6.2653207e-09
3.995254e-08
-7.0895618e-09
4.6470306e-08
-7.8488799e-09
5.4236361e-08
-8.5265706e-09
6.3549103e-08
-9.1175299e-09
7.4760678e-08
-9.6293266e-09
8.8282277e-08
-1.0081485e-08
1.0459274e-07
-1.0502836e-08
1.2425208e-07
-1.0927616e-08
1.47921e-07
-1.1391146e-08
1.7638702e-07
-1.1926257e-08
2.1059663e-07
-1.2561647e-08
2.5169305e-07
-1.3322154e-08
3.0105918e-07
-1.4230974e-08
3.6036634e-07
-1.5313525e-08
4.3163045e-07
-1.6602397e-08
5.1727812e-07
-1.8143616e-08
6.2022462e-07
-2.0005171e-08
7.4396611e-07
-2.2289824e-08
8.9268653e-07
-2.5147649e-08
1.0713743e-06
-2.8820037e-08
1.2859762e-06
-3.364804e-08
1.5434662e-06
-4.0178334e-08
1.8521348e-06
-4.9525382e-08
2.2215207e-06
-6.2243277e-08
2.6616695e-06
-8.4480311e-08
3.188378e-06
-1.1770876e-07
3.8057116e-06
-2.1056245e-07
4.6089745e-06
4.7038247e-06
-1.3685275e-11
1.030653e-10
-6.044203e-11
3.4507095e-10
-1.5113716e-10
6.5662577e-10
-2.9964481e-10
1.0522503e-09
-5.2338175e-10
1.5485225e-09
-8.4395916e-10
2.1640817e-09
-1.2877963e-09
2.9194502e-09
-1.8865827e-09
3.8366464e-09
-2.6774093e-09
4.9385454e-09
-3.7023495e-09
6.2479613e-09
-5.0071886e-09
7.7864753e-09
-6.6390153e-09
9.5731189e-09
-8.642438e-09
1.1623138e-08
-1.1054338e-08
1.3947215e-08
-1.3897365e-08
1.6551677e-08
-1.7172794e-08
1.9440304e-08
-2.0853789e-08
2.2618346e-08
-2.4880509e-08
2.6099105e-08
-2.9158546e-08
2.9913027e-08
-3.3561982e-08
3.4118675e-08
-3.7941579e-08
3.8814331e-08
-4.2137743e-08
4.4148693e-08
-4.5996586e-08
5.0329141e-08
-4.9386871e-08
5.7626635e-08
-5.2214974e-08
6.63772e-08
-5.4435343e-08
7.6981058e-08
-5.6054488e-08
8.9901442e-08
-5.7127637e-08
1.0566591e-07
-5.7748741e-08
1.2487321e-07
-5.8036191e-08
1.4820847e-07
-5.8117526e-08
1.7646838e-07
-5.8117465e-08
2.105966e-07
-5.8152104e-08
2.5172772e-07
-5.8330646e-08
3.0123774e-07
-5.8763377e-08
3.6079907e-07
-5.9573415e-08
4.3244051e-07
-6.0909916e-08
5.1861462e-07
-6.296172e-08
6.2227641e-07
-6.5971916e-08
7.4697626e-07
-7.0262177e-08
8.9697667e-07
-7.6257054e-08
1.077369e-06
-8.4536259e-08
1.2942553e-06
-9.5997063e-08
1.5549267e-06
-1.1156977e-07
1.8677071e-06
-1.3399916e-07
2.2439498e-06
-1.6394819e-07
2.6916177e-06
-2.1149011e-07
3.2359197e-06
-3.0159727e-07
3.8958167e-06
-4.4110225e-07
4.7484804e-06
4.2627192e-06
-1.795598e-11
1.210216e-10
-7.8630584e-11
4.0574599e-10
-1.9490766e-10
7.7290305e-10
-3.8249732e-10
1.2398402e-09
-6.6043604e-10
1.8264611e-09
-1.0515733e-09
2.5552192e-09
-1.5830503e-09
3.4509277e-09
-2.286714e-09
4.5403109e-09
-3.1993868e-09
5.8512194e-09
-4.362868e-09
7.4114448e-09
-5.8234912e-09
9.2471006e-09
-7.6309845e-09
1.1380614e-08
-9.8363446e-09
1.3828498e-08
-1.2488396e-08
1.6599266e-08
-1.5628781e-08
1.9692057e-08
-1.9285306e-08
2.3096826e-08
-2.3464008e-08
2.6797037e-08
-2.8140735e-08
3.077582e-08
-3.3253865e-08
3.5026136e-08
-3.8699999e-08
3.9564784e-08
-4.4334797e-08
4.4449099e-08
-4.9980356e-08
4.9794213e-08
-5.5439472e-08
5.578822e-08
-6.0515636e-08
6.2702757e-08
-6.5035969e-08
7.0897498e-08
-6.8873536e-08
8.0818613e-08
-7.1965031e-08
9.2992945e-08
-7.4320318e-08
1.0802122e-07
-7.6021704e-08
1.2657463e-07
-7.7212751e-08
1.4939955e-07
-7.8078971e-08
1.7733462e-07
-7.8825066e-08
2.1134275e-07
-7.9655094e-08
2.5255786e-07
-8.0760921e-08
3.0234365e-07
-8.2321758e-08
3.6235992e-07
-8.4514362e-08
4.3463319e-07
-8.7531349e-08
5.2163173e-07
-9.1604436e-08
6.2634962e-07
-9.7030043e-08
7.52402e-07
-1.0420187e-07
9.0414859e-07
-1.1366991e-07
1.0868371e-06
-1.2612386e-07
1.3067094e-06
-1.4276921e-07
1.5715722e-06
-1.6472286e-07
1.8896607e-06
-1.9473587e-07
2.2739634e-06
-2.3576413e-07
2.7326458e-06
-2.9687094e-07
3.2970278e-06
-4.15141e-07
4.0140863e-06
-4.8978894e-07
4.8231296e-06
3.77293e-06
-1.2396596e-11
1.334181e-10
-5.4766743e-11
4.4811674e-10
-1.368858e-10
8.5502249e-10
-2.7106048e-10
1.3740154e-09
-4.7269881e-10
2.0280998e-09
-7.6096322e-10
2.8434838e-09
-1.1595002e-09
3.8494644e-09
-1.6972151e-09
5.0780254e-09
-2.4090368e-09
6.5630398e-09
-3.3365626e-09
8.33897e-09
-4.5284348e-09
1.0438972e-08
-6.0402005e-09
1.289238e-08
-7.9333542e-09
1.5721652e-08
-1.0273156e-08
1.8939068e-08
-1.3124829e-08
2.2543731e-08
-1.6547776e-08
2.6519772e-08
-2.0587704e-08
3.083696e-08
-2.5266994e-08
3.5455101e-08
-3.0574335e-08
4.0333463e-08
-3.6455362e-08
4.5445789e-08
-4.2806649e-08
5.0800363e-08
-4.9475549e-08
5.6463078e-08
-5.6267599e-08
6.2580227e-08
-6.2962043e-08
6.9397152e-08
-6.9334088e-08
7.7269499e-08
-7.5180989e-08
8.6665458e-08
-8.0347768e-08
9.8159681e-08
-8.4748422e-08
1.1242185e-07
-8.8378495e-08
1.3020471e-07
-9.1316512e-08
1.5233757e-07
-9.371353e-08
1.7973167e-07
-9.5773481e-08
2.1340275e-07
-9.7729415e-08
2.5451385e-07
-9.9822992e-08
3.0443729e-07
-1.0229404e-07
3.6483098e-07
-1.0538338e-07
4.3772253e-07
-1.0934792e-07
5.2559626e-07
-1.1448417e-07
6.3148587e-07
-1.2115799e-07
7.5907583e-07
-1.2982636e-07
9.1281696e-07
-1.4111832e-07
1.098129e-06
-1.5577746e-07
1.3213684e-06
-1.749737e-07
1.5907685e-06
-2.0011656e-07
1.9148032e-06
-2.3286794e-07
2.3067151e-06
-2.7850781e-07
2.7782853e-06
-3.4588679e-07
3.3644071e-06
-4.5469992e-07
4.122899e-06
-4.3617629e-07
4.804606e-06
3.3367534e-06
-9.9187946e-12
1.4333742e-10
-4.3864985e-11
4.8206386e-10
-1.0975027e-10
9.2090881e-10
-2.1758761e-10
1.4818529e-09
-3.799824e-10
2.1904955e-09
-6.1273018e-10
3.0762322e-09
-9.3550809e-10
4.1722423e-09
-1.3726644e-09
5.5151819e-09
-1.9540845e-09
7.1444596e-09
-2.7160701e-09
9.1009547e-09
-3.7021388e-09
1.1425041e-08
-4.9635769e-09
1.4153817e-08
-6.5594759e-09
1.7317552e-08
-8.5559142e-09
2.0935507e-08
-1.1023806e-08
2.5011622e-08
-1.4034933e-08
2.9530897e-08
-1.7655729e-08
3.445775e-08
-2.1938654e-08
3.9738019e-08
-2.6911547e-08
4.5306343e-08
-3.2566085e-08
5.1100312e-08
-3.8847408e-08
5.7081665e-08
-4.5647573e-08
6.3263204e-08
-5.2805543e-08
6.9738157e-08
-6.0115815e-08
7.6707374e-08
-6.7345867e-08
8.4499496e-08
-7.426102e-08
9.3580543e-08
-8.0653232e-08
1.0455185e-07
-8.6369625e-08
1.181382e-07
-9.1335563e-08
1.3517064e-07
-9.5568332e-08
1.5657037e-07
-9.9178064e-08
1.8334142e-07
-1.0235503e-07
2.1657976e-07
-1.0534636e-07
2.5750526e-07
-1.0842847e-07
3.0751947e-07
-1.118838e-07
3.682864e-07
-1.159905e-07
4.4182932e-07
-1.2102836e-07
5.3063419e-07
-1.2729842e-07
6.3775596e-07
-1.3515758e-07
7.6693506e-07
-1.4504139e-07
9.227008e-07
-1.5753284e-07
1.1106205e-06
-1.7338333e-07
1.3372188e-06
-1.9349876e-07
1.6108841e-06
-2.1947449e-07
1.9407786e-06
-2.5232159e-07
2.3395625e-06
-2.9821032e-07
2.8241737e-06
-3.6632497e-07
3.4325219e-06
-4.4863757e-07
4.2052115e-06
-3.7245805e-07
4.7284264e-06
2.9642944e-06
-8.747981e-12
1.5208628e-10
-3.8692432e-11
5.1200911e-10
-9.680805e-11
9.7902502e-10
-1.919149e-10
1.5769603e-09
-3.3511956e-10
2.3337004e-09
-5.4034287e-10
3.2814555e-09
-8.2494446e-10
4.4568438e-09
-1.2104478e-09
5.9006846e-09
-1.7233522e-09
7.657364e-09
-2.3960122e-09
9.773615e-09
-3.2675136e-09
1.2296542e-08
-4.3844369e-09
1.5270741e-08
-5.8013298e-09
1.8734445e-08
-7.5806076e-09
2.2714784e-08
-9.7914901e-09
2.7222505e-08
-1.2507515e-08
3.2246921e-08
-1.5802093e-08
3.7752324e-08
-1.9741703e-08
4.3677622e-08
-2.4376659e-08
4.9941288e-08
-2.9729959e-08
5.6453595e-08
-3.5785617e-08
6.3137292e-08
-4.2478694e-08
6.9956247e-08
-4.9689956e-08
7.6949374e-08
-5.724771e-08
8.4265073e-08
-6.4938564e-08
9.2190283e-08
-7.2526942e-08
1.0116885e-07
-7.9781366e-08
1.118062e-07
-8.6503833e-08
1.2486061e-07
-9.2557902e-08
1.4122467e-07
-9.7890841e-08
1.6190327e-07
-1.0254558e-07
1.8799617e-07
-1.0665985e-07
2.2069409e-07
-1.1045182e-07
2.6129729e-07
-1.141954e-07
3.1126312e-07
-1.1819289e-07
3.7228398e-07
-1.2275413e-07
4.4639064e-07
-1.2819025e-07
5.3607039e-07
-1.3482263e-07
6.4438842e-07
-1.4300953e-07
7.7512203e-07
-1.5317539e-07
9.3286671e-07
-1.6583215e-07
1.1232775e-06
-1.8170182e-07
1.3530886e-06
-2.0146811e-07
1.6306508e-06
-2.2656375e-07
1.9658744e-06
-2.582154e-07
2.3712147e-06
-3.0212564e-07
2.8680843e-06
-3.6554178e-07
3.4959388e-06
-4.1806347e-07
4.2577336e-06
-3.0631825e-07
4.616682e-06
2.6579765e-06
-7.7467756e-12
1.5983418e-10
-3.4281194e-11
5.3854505e-10
-8.5813283e-11
1.0305591e-09
-1.702129e-10
1.6613619e-09
-2.9741e-10
2.4608988e-09
-4.7987773e-10
3.4639243e-09
-7.3321123e-10
4.7101784e-09
-1.0768036e-09
6.2442781e-09
-1.5346183e-09
8.1151792e-09
-2.136038e-09
1.0375035e-08
-2.9167494e-09
1.3077254e-08
-3.9195824e-09
1.6273575e-08
-5.1951613e-09
2.0010026e-08
-6.8021512e-09
2.4321774e-08
-8.8067794e-09
2.9227132e-08
-1.1281228e-08
3.4721365e-08
-1.4300381e-08
4.0771471e-08
-1.7936487e-08
4.7313718e-08
-2.2251401e-08
5.4256188e-08
-2.7286565e-08
6.1488739e-08
-3.3051553e-08
6.890225e-08
-3.9512897e-08
7.6417553e-08
-4.6585742e-08
8.4022161e-08
-5.4131063e-08
9.1810332e-08
-6.1960941e-08
1.0002009e-07
-6.9852752e-08
1.0906059e-07
-7.7571504e-08
1.1952486e-07
-8.4897613e-08
1.3218662e-07
-9.1656381e-08
1.4798336e-07
-9.7744628e-08
1.6799145e-07
-1.0314995e-07
1.9340146e-07
-1.0795885e-07
2.2550302e-07
-1.1235119e-07
2.656897e-07
-1.1658118e-07
3.1549324e-07
-1.2094998e-07
3.7665284e-07
-1.2577765e-07
4.5121841e-07
-1.3138634e-07
5.4167918e-07
-1.3809914e-07
6.511012e-07
-1.4625444e-07
7.8327734e-07
-1.5624467e-07
9.4285683e-07
-1.6850764e-07
1.1355405e-06
-1.8366741e-07
1.3682483e-06
-2.0231747e-07
1.6493011e-06
-2.2556382e-07
1.9891207e-06
-2.5512087e-07
2.400772e-06
-2.9575113e-07
2.9087146e-06
-3.4994484e-07
3.5501331e-06
-3.7506366e-07
4.2828527e-06
-2.453683e-07
4.4869875e-06
2.4126089e-06
-7.06765e-12
1.6690248e-10
-3.1279857e-11
5.6275859e-10
-7.8309733e-11
1.0775901e-09
-1.5534671e-10
1.7384001e-09
-2.7146775e-10
2.5770209e-09
-4.3808468e-10
3.630542e-09
-6.6947984e-10
4.9415746e-09
-9.8344018e-10
6.5582394e-09
-1.4019858e-09
8.5337265e-09
-1.9521887e-09
1.0925239e-08
-2.6670432e-09
1.379211e-08
-3.5863305e-09
1.7192864e-08
-4.7573636e-09
2.1181061e-08
-6.2354353e-09
2.5799844e-08
-8.0836898e-09
3.1075381e-08
-1.0372077e-08
3.7009741e-08
-1.3174917e-08
4.35743e-08
-1.6566628e-08
5.0705417e-08
-2.0615199e-08
5.8304737e-08
-2.5373313e-08
6.6246828e-08
-3.0867666e-08
7.4396567e-08
-3.7087619e-08
8.2637467e-08
-4.3975409e-08
9.0909899e-08
-5.1420449e-08
9.9255309e-08
-5.9260404e-08
1.0785997e-07
-6.7290593e-08
1.170907e-07
-7.5282034e-08
1.275162e-07
-8.3006033e-08
1.3991053e-07
-9.0262672e-08
1.5523993e-07
-9.6908924e-08
1.7463764e-07
-1.0288219e-07
1.993747e-07
-1.0821543e-07
2.3083626e-07
-1.1304009e-07
2.705144e-07
-1.175753e-07
3.2002856e-07
-1.22105e-07
3.8118269e-07
-1.2694884e-07
4.5606233e-07
-1.3243648e-07
5.4716689e-07
-1.3889644e-07
6.5756122e-07
-1.4665712e-07
7.9103802e-07
-1.560788e-07
9.5227845e-07
-1.6754913e-07
1.1470109e-06
-1.8156637e-07
1.3822655e-06
-1.9868806e-07
1.6664227e-06
-2.1978997e-07
2.0102222e-06
-2.4683139e-07
2.4278134e-06
-2.8356751e-07
2.9454503e-06
-3.2688392e-07
3.5934495e-06
-3.297e-07
4.2856683e-06
-1.9509384e-07
4.3523817e-06
2.2175148e-06
-6.4739964e-12
1.733772e-10
-2.8661442e-11
5.8494748e-10
-7.1775618e-11
1.1207054e-09
-1.4243031e-10
1.8090557e-09
-2.4898581e-10
2.6835766e-09
-4.0196532e-10
3.7835218e-09
-6.1456042e-10
5.1541709e-09
-9.0323187e-10
6.8469113e-09
-1.2883991e-09
8.9188948e-09
-1.7952323e-09
1.1432075e-08
-2.4545088e-09
1.4451388e-08
-3.3034867e-09
1.8041842e-08
-4.3867016e-09
2.2264275e-08
-5.7565439e-09
2.7169685e-08
-7.4733725e-09
3.2792209e-08
-9.6048574e-09
3.9141221e-08
-1.2224113e-08
4.6193547e-08
-1.5406195e-08
5.3887488e-08
-1.9222515e-08
6.212104e-08
-2.3732964e-08
7.0757254e-08
-2.8975994e-08
7.9639562e-08
-3.4957545e-08
8.8618975e-08
-4.1640592e-08
9.759289e-08
-4.8937655e-08
1.065523e-07
-5.6708904e-08
1.1563112e-07
-6.4767871e-08
1.2514958e-07
-7.2895589e-08
1.3564382e-07
-8.086208e-08
1.4787692e-07
-8.8452829e-08
1.628306e-07
-9.5496882e-08
1.8168162e-07
-1.0189234e-07
2.0577011e-07
-1.076258e-07
2.365697e-07
-1.1278155e-07
2.7567016e-07
-1.1753791e-07
3.2478501e-07
-1.2215021e-07
3.8579516e-07
-1.2692371e-07
4.6083604e-07
-1.3218429e-07
5.5242762e-07
-1.3825847e-07
6.636355e-07
-1.4546578e-07
7.9824535e-07
-1.5413515e-07
9.6094785e-07
-1.646179e-07
1.1574937e-06
-1.7731451e-07
1.394962e-06
-1.9274274e-07
1.6818509e-06
-2.1171671e-07
2.0291959e-06
-2.3613908e-07
2.4522356e-06
-2.6856741e-07
2.9778781e-06
-3.0109423e-07
3.6259762e-06
-2.8670497e-07
4.2712784e-06
-1.5457224e-07
4.220249e-06
2.0629421e-06
-6.0097756e-12
1.7938751e-10
-2.6610439e-11
6.0554896e-10
-6.6647406e-11
1.1607432e-09
-1.3227204e-10
1.8746809e-09
-2.3126319e-10
2.7825684e-09
-3.7342118e-10
3.9256808e-09
-5.7104404e-10
5.3517943e-09
-8.3949243e-10
7.1153592e-09
-1.1978512e-09
9.2772539e-09
-1.6696942e-09
1.1903916e-08
-2.2839117e-09
1.5065604e-08
-3.0755881e-09
1.8833517e-08
-4.0868381e-09
2.3275524e-08
-5.3674641e-09
2.8450309e-08
-6.9752485e-09
3.4399989e-08
-8.9755737e-09
4.1141542e-08
-1.1440011e-08
4.8657978e-08
-1.4443411e-08
5.6890876e-08
-1.8059066e-08
6.573668e-08
-2.2351677e-08
7.5049844e-08
-2.7368167e-08
8.4656022e-08
-3.3127016e-08
9.4377786e-08
-3.9607569e-08
1.0407338e-07
-4.6741367e-08
1.1368603e-07
-5.4408188e-08
1.2329786e-07
-6.243875e-08
1.3318006e-07
-7.0625599e-08
1.4383057e-07
-7.8741456e-08
1.5599269e-07
-8.656355e-08
1.706526e-07
-9.3900559e-08
1.8901858e-07
-1.0061911e-07
2.1248861e-07
-1.0666555e-07
2.426161e-07
-1.120799e-07
2.8108453e-07
-1.1699843e-07
3.2970363e-07
-1.2164274e-07
3.9043963e-07
-1.2629677e-07
4.6549027e-07
-1.3127692e-07
5.5740792e-07
-1.3690552e-07
6.6926424e-07
-1.4349618e-07
8.0483616e-07
-1.5135511e-07
9.6880687e-07
-1.6080058e-07
1.1669392e-06
-1.7217482e-07
1.4063362e-06
-1.8594599e-07
1.6956222e-06
-2.0294185e-07
2.0461917e-06
-2.2483607e-07
2.47413e-06
-2.5278118e-07
3.0058229e-06
-2.754684e-07
3.6486636e-06
-2.4855205e-07
4.2443616e-06
-1.2279834e-07
4.0944956e-06
1.9401438e-06
-5.6119492e-12
1.8500048e-10
-2.4854056e-11
6.2479265e-10
-6.225965e-11
1.1981502e-09
-1.2358565e-10
1.9360085e-09
-2.1611879e-10
2.8751026e-09
-3.4904526e-10
4.0586082e-09
-5.3390214e-10
5.5366522e-09
-7.8511646e-10
7.3665747e-09
-1.1206404e-09
9.6127784e-09
-1.5626805e-09
1.2345956e-08
-2.1385129e-09
1.5641436e-08
-2.8813481e-09
1.9576354e-08
-3.8311876e-09
2.4225364e-08
-5.0355444e-09
2.9654663e-08
-6.5498554e-09
3.5914295e-08
-8.4373298e-09
4.302901e-08
-1.0767875e-08
5.0988518e-08
-1.3615684e-08
5.9738672e-08
-1.7055005e-08
6.9175984e-08
-2.1153827e-08
7.9148639e-08
-2.5965356e-08
8.9467514e-08
-3.1517813e-08
9.9930198e-08
-3.7803694e-08
1.1035922e-07
-4.4770434e-08
1.2065271e-07
-5.2314809e-08
1.3084214e-07
-6.0283347e-08
1.4114851e-07
-6.8480452e-08
1.5202757e-07
-7.6683992e-08
1.6419613e-07
-8.4667343e-08
1.7863585e-07
-9.2225057e-08
1.9657621e-07
-9.9199181e-08
2.1946265e-07
-1.055025e-07
2.4891935e-07
-1.1113556e-07
2.8671759e-07
-1.1619411e-07
3.3476222e-07
-1.2086379e-07
3.9510942e-07
-1.2540199e-07
4.7002866e-07
-1.3010995e-07
5.6211609e-07
-1.3530286e-07
6.7445736e-07
-1.4128909e-07
8.1082259e-07
-1.4836181e-07
9.7587969e-07
-1.5681285e-07
1.1753904e-06
-1.6695768e-07
1.416481e-06
-1.7923083e-07
1.7078954e-06
-1.944679e-07
2.0614288e-06
-2.1403818e-07
2.4937005e-06
-2.3764027e-07
3.0294251e-06
-2.518448e-07
3.6628684e-06
-2.1624925e-07
4.2087659e-06
-9.8519252e-08
3.9767661e-06
1.8416247e-06
-5.2788115e-12
1.9028044e-10
-2.338191e-11
6.4289743e-10
-5.8578039e-11
1.2333482e-09
-1.1629149e-10
1.9937237e-09
-2.0338908e-10
2.9622025e-09
-3.2853534e-10
4.1837564e-09
-5.0261862e-10
5.7107369e-09
-7.3926567e-10
7.6032231e-09
-1.0554523e-09
9.9289651e-09
-1.4722046e-09
1.2762708e-08
-2.0153939e-09
1.6184625e-08
-2.7165916e-09
2.0277552e-08
-3.6139308e-09
2.5122701e-08
-4.7528671e-09
3.0793598e-08
-6.1866951e-09
3.7348121e-08
-7.9765685e-09
4.481888e-08
-1.0190698e-08
5.3202642e-08
-1.2902336e-08
6.2450295e-08
-1.6186074e-08
7.2459701e-08
-2.0112137e-08
8.3074673e-08
-2.4738495e-08
9.4093829e-08
-3.0101096e-08
1.0529275e-07
-3.6203277e-08
1.1646134e-07
-4.3005916e-08
1.2745529e-07
-5.0420695e-08
1.3825685e-07
-5.8308693e-08
1.4903642e-07
-6.6486041e-08
1.6020482e-07
-7.4737198e-08
1.7244717e-07
-8.2834732e-08
1.8673326e-07
-9.0563579e-08
2.0430493e-07
-9.7746664e-08
2.2664564e-07
-1.0426907e-07
2.5544166e-07
-1.1009693e-07
2.9254544e-07
-1.1528861e-07
3.3995395e-07
-1.1999433e-07
3.9981522e-07
-1.2444284e-07
4.7447728e-07
-1.2891669e-07
5.6659015e-07
-1.3372186e-07
6.7926274e-07
-1.3916157e-07
8.1626251e-07
-1.4552267e-07
9.8224088e-07
-1.5308039e-07
1.1829482e-06
-1.6213915e-07
1.4255398e-06
-1.7312255e-07
1.7188789e-06
-1.8683629e-07
2.0751425e-06
-2.043023e-07
2.5111668e-06
-2.2386617e-07
3.048989e-06
-2.3096016e-07
3.6699627e-06
-1.895674e-07
4.167373e-06
-8.021731e-08
3.8674164e-06
1.7614076e-06
-4.9910289e-12
1.9527247e-10
-2.210935e-11
6.6001729e-10
-5.5394824e-11
1.2666358e-09
-1.0998395e-10
2.0483146e-09
-1.9238115e-10
3.0446016e-09
-3.1079736e-10
4.3021744e-09
-4.7555803e-10
5.8754989e-09
-6.9959511e-10
7.8272617e-09
-9.9903221e-10
1.0228405e-08
-1.3938687e-09
1.3157546e-08
-1.9087447e-09
1.6699502e-08
-2.5737869e-09
2.0942595e-08
-3.4254723e-09
2.5974383e-08
-4.5074104e-09
3.1875534e-08
-5.8709503e-09
3.8711655e-08
-7.5753142e-09
4.6523238e-08
-9.6870477e-09
5.5314362e-08
-1.2278301e-08
6.5041534e-08
-1.5423619e-08
7.5604993e-08
-1.9194727e-08
8.6845752e-08
-2.365324e-08
9.8552301e-08
-2.884136e-08
1.1048082e-07
-3.4771452e-08
1.2239137e-07
-4.1415949e-08
1.3409972e-07
-4.8699711e-08
1.4554054e-07
-5.6497156e-08
1.5683378e-07
-6.4635902e-08
1.6834345e-07
-7.2907798e-08
1.8071896e-07
-8.1086839e-08
1.949122e-07
-8.8951847e-08
2.1216979e-07
-9.6311243e-08
2.3400493e-07
-1.030274e-07
2.6215773e-07
-1.09037e-07
2.9855502e-07
-1.1436476e-07
3.4528171e-07
-1.1912701e-07
4.0457756e-07
-1.2352339e-07
4.7887379e-07
-1.2781569e-07
5.7088263e-07
-1.3229867e-07
6.8374589e-07
-1.3727058e-07
8.2123465e-07
-1.4301601e-07
9.8798643e-07
-1.4980431e-07
1.1897366e-06
-1.5793729e-07
1.4336728e-06
-1.6784221e-07
1.7287838e-06
-1.8025596e-07
2.0875561e-06
-1.9582574e-07
2.5267368e-06
-2.1173072e-07
3.0648939e-06
-2.1295987e-07
3.671192e-06
-1.6787028e-07
4.1222834e-06
-6.6581764e-08
3.7661282e-06
1.6948258e-06
-4.7405951e-12
2.0001445e-10
-2.1002925e-11
6.7628146e-10
-5.2628348e-11
1.298263e-09
-1.0450095e-10
2.1001888e-09
-1.8280912e-10
3.1229113e-09
-2.9536725e-10
4.414734e-09
-4.5200773e-10
6.032141e-09
-6.6505445e-10
8.0403091e-09
-9.4988391e-10
1.0513235e-08
-1.3255851e-09
1.3533248e-08
-1.8157101e-09
1.7189629e-08
-2.4491042e-09
2.1575988e-08
-3.260757e-09
2.6786034e-08
-4.2926223e-09
3.2907397e-08
-5.5942627e-09
4.0013289e-08
-7.223109e-09
4.8152075e-08
-9.2440787e-09
5.7335319e-08
-1.172816e-08
6.7525598e-08
-1.4749565e-08
7.862637e-08
-1.8381003e-08
9.0477158e-08
-2.2686903e-08
1.0285816e-07
-2.7714569e-08
1.1550842e-07
-3.3483984e-08
1.2816071e-07
-3.9977613e-08
1.4059325e-07
-4.7132067e-08
1.526949e-07
-5.4834002e-08
1.6453561e-07
-6.2922109e-08
1.7643144e-07
-7.1196236e-08
1.8899295e-07
-7.9433343e-08
2.0314919e-07
-8.740879e-08
2.201451e-07
-9.492021e-08
2.4151623e-07
-1.0181164e-07
2.690491e-07
-1.0799479e-07
3.0473812e-07
-1.1346452e-07
3.5075145e-07
-1.1830595e-07
4.0941907e-07
-1.2269006e-07
4.8325804e-07
-1.2685678e-07
5.7504951e-07
-1.3108803e-07
6.879773e-07
-1.3567722e-07
8.2582401e-07
-1.409088e-07
9.9321813e-07
-1.4705458e-07
1.1958826e-06
-1.5441926e-07
1.4410375e-06
-1.6343693e-07
1.7378016e-06
-1.7474768e-07
2.0988668e-06
-1.8860866e-07
2.5405979e-06
-2.0124952e-07
3.0775347e-06
-1.9767493e-07
3.6676177e-06
-1.5036399e-07
4.0749724e-06
-5.6480181e-08
3.6722445e-06
1.6383455e-06
-4.5203139e-12
2.0453614e-10
-2.0028535e-11
6.9179163e-10
-5.0190715e-11
1.3284269e-09
-9.9668078e-11
2.1496683e-09
-1.743702e-10
3.1976155e-09
-2.817623e-10
4.5221274e-09
-4.3124036e-10
6.18162e-09
-6.3458764e-10
8.2436572e-09
-9.0651841e-10
1.0785166e-08
-1.2653152e-09
1.3892045e-08
-1.7335603e-09
1.7657874e-08
-2.3389482e-09
2.2181374e-08
-3.1151346e-09
2.7562219e-08
-4.1025737e-09
3.389483e-08
-5.3491903e-09
4.1259899e-08
-6.9107485e-09
4.9713624e-08
-8.8506133e-09
5.9275168e-08
-1.1238576e-08
6.9913538e-08
-1.4148332e-08
8.1536095e-08
-1.7653197e-08
9.3981984e-08
-2.1819766e-08
1.0702468e-07
-2.6699548e-08
1.2038814e-07
-3.2319024e-08
1.3378011e-07
-3.8669419e-08
1.4694355e-07
-4.5697866e-08
1.5972325e-07
-5.3302322e-08
1.7213996e-07
-6.133209e-08
1.844611e-07
-6.9595245e-08
1.9725599e-07
-7.7872921e-08
2.1142673e-07
-8.5939086e-08
2.2821111e-07
-9.3583578e-08
2.4916056e-07
-1.0063573e-07
2.7610114e-07
-1.0698622e-07
3.1108849e-07
-1.1260377e-07
3.56369e-07
-1.1754504e-07
4.1436045e-07
-1.2195373e-07
4.8766689e-07
-1.2604753e-07
5.7914355e-07
-1.3009442e-07
6.9202438e-07
-1.3438256e-07
8.3011235e-07
-1.3919755e-07
9.980333e-07
-1.448188e-07
1.2015041e-06
-1.5155722e-07
1.4477759e-06
-1.5984846e-07
1.7460929e-06
-1.7021653e-07
2.1092348e-06
-1.8252571e-07
2.5529071e-06
-1.9226633e-07
3.0872753e-06
-1.8475364e-07
3.6601053e-06
-1.3623147e-07
4.0264501e-06
-4.8993526e-08
3.5850065e-06
1.5893518e-06
-4.3242605e-12
2.088621e-10
-1.916168e-11
7.0663178e-10
-4.802234e-11
1.3572903e-09
-9.5370491e-11
2.197019e-09
-1.668664e-10
3.2691138e-09
-2.6966288e-10
4.624926e-09
-4.1276809e-10
6.3247262e-09
-6.0748332e-10
8.4383726e-09
-8.6792834e-10
1.1045611e-08
-1.2116632e-09
1.423578e-08
-1.6603983e-09
1.8106611e-08
-2.240794e-09
2.276177e-08
-2.9853002e-09
2.8306724e-08
-3.9329983e-09
3.4842527e-08
-5.1303223e-09
4.2457215e-08
-6.6314753e-09
5.1214768e-08
-8.4983466e-09
6.1142023e-08
-1.0799524e-08
7.2214692e-08
-1.360807e-08
8.4344613e-08
-1.6997625e-08
9.7371493e-08
-2.103647e-08
1.1106347e-07
-2.577958e-08
1.2513119e-07
-3.1259021e-08
1.3925948e-07
-3.7473716e-08
1.5315815e-07
-4.4380275e-08
1.666297e-07
-5.1887069e-08
1.7964664e-07
-5.9853532e-08
1.9242743e-07
-6.809605e-08
2.0549837e-07
-7.6400693e-08
2.1973123e-07
-8.4541636e-08
2.3635192e-07
-9.2303273e-08
2.5692205e-07
-9.9503353e-08
2.8330109e-07
-1.0601489e-07
3.1759991e-07
-1.1178407e-07
3.6213812e-07
-1.1684181e-07
4.1941822e-07
-1.2130613e-07
4.9213133e-07
-1.2537283e-07
5.8321047e-07
-1.29295e-07
6.9594678e-07
-1.3335499e-07
8.3417257e-07
-1.3784026e-07
1.0025188e-06
-1.4303983e-07
1.2067038e-06
-1.4927242e-07
1.4540086e-06
-1.5696518e-07
1.7537856e-06
-1.665141e-07
2.1187837e-06
-1.7739953e-07
2.5637926e-06
-1.8455857e-07
3.0944343e-06
-1.738048e-07
3.6493517e-06
-1.2475774e-07
3.9774029e-06
-4.3414209e-08
3.5036628e-06
1.5459376e-06
-4.1490064e-12
2.130126e-10
-1.8385954e-11
7.2087118e-10
-4.6080698e-11
1.3849873e-09
-9.1520002e-11
2.2424606e-09
-1.601409e-10
3.3377365e-09
-2.5881499e-10
4.723602e-09
-3.9620073e-10
6.4621134e-09
-5.8316603e-10
8.6253387e-09
-8.3329661e-10
1.1295743e-08
-1.1635003e-09
1.4565985e-08
-1.5947019e-09
1.8537812e-08
-2.152619e-09
2.3319687e-08
-2.8686084e-09
2.9022711e-08
-3.780497e-09
3.5754411e-08
-4.933337e-09
4.3610046e-08
-6.3798886e-09
5.2661306e-08
-8.1806312e-09
6.2942744e-08
-1.0402971e-08
7.4437001e-08
-1.3119267e-08
8.7060863e-08
-1.6403236e-08
1.0065541e-07
-2.0324479e-08
1.1498465e-07
-2.4940875e-08
1.2974751e-07
-3.0289302e-08
1.4460782e-07
-3.6375473e-08
1.5924423e-07
-4.3164561e-08
1.7341868e-07
-5.0574563e-08
1.8705652e-07
-5.8474496e-08
2.0032725e-07
-6.6689027e-08
2.1371278e-07
-7.5009688e-08
2.2805178e-07
-8.3212145e-08
2.4455423e-07
-9.1077172e-08
2.6478693e-07
-9.8413407e-08
2.9063719e-07
-1.0507916e-07
3.2426556e-07
-1.1100107e-07
3.6805996e-07
-1.161871e-07
4.2460425e-07
-1.2073142e-07
4.9667575e-07
-1.2480861e-07
5.8728787e-07
-1.286564e-07
6.9979487e-07
-1.3255061e-07
8.3806703e-07
-1.3678045e-07
1.0067488e-06
-1.4164465e-07
1.2115682e-06
-1.4746927e-07
1.4598333e-06
-1.5466138e-07
1.7609778e-06
-1.6348146e-07
2.1276036e-06
-1.7304624e-07
2.5733573e-06
-1.7789518e-07
3.0992832e-06
-1.6445733e-07
3.6359139e-06
-1.1534545e-07
3.9282911e-06
-3.920086e-08
3.4275182e-06
1.5067366e-06
-3.990057e-12
2.1700464e-10
-1.7683823e-11
7.3456796e-10
-4.4324615e-11
1.4116309e-09
-8.8038705e-11
2.2861772e-09
-1.5406062e-10
3.4037608e-09
-2.4900825e-10
4.8185525e-09
-3.8122375e-10
6.5943311e-09
-5.6118162e-10
8.8052985e-09
-8.0198635e-10
1.1536548e-08
-1.1199498e-09
1.4883949e-08
-1.5352807e-09
1.8953142e-08
-2.0728428e-09
2.3857246e-08
-2.7629831e-09
2.9712848e-08
-3.6423832e-09
3.6633806e-08
-4.754817e-09
4.4722471e-08
-6.1516917e-09
5.4058167e-08
-7.8921606e-09
6.4683188e-08
-1.0042469e-08
7.6587272e-08
-1.2674206e-08
8.9692554e-08
-1.5861038e-08
1.0384219e-07
-1.9673552e-08
1.187971e-07
-2.4172082e-08
1.3424596e-07
-2.9397661e-08
1.4983331e-07
-3.536205e-08
1.6520852e-07
-4.2038153e-08
1.8009467e-07
-4.9352832e-08
1.9437109e-07
-5.718424e-08
2.0815854e-07
-6.5365125e-08
2.2189354e-07
-7.3692876e-08
2.3637941e-07
-8.194544e-08
2.5280667e-07
-8.9901522e-08
2.7274288e-07
-9.736267e-08
2.9809821e-07
-1.0417499e-07
3.3107778e-07
-1.1024817e-07
3.7413309e-07
-1.1556976e-07
4.2992584e-07
-1.2021201e-07
5.013181e-07
-1.2432922e-07
5.9140521e-07
-1.2814362e-07
7.0360953e-07
-1.3192354e-07
8.418472e-07
-1.3595939e-07
1.0107849e-06
-1.4055829e-07
1.2161673e-06
-1.4605121e-07
1.4653263e-06
-1.5281442e-07
1.767741e-06
-1.6096831e-07
2.1357575e-06
-1.6929433e-07
2.5816834e-06
-1.720616e-07
3.1020504e-06
-1.5638543e-07
3.6202379e-06
-1.0751633e-07
3.879422e-06
-3.595672e-08
3.3559586e-06
1.4707798e-06
-3.8459036e-12
2.2085261e-10
-1.7045992e-11
7.4777138e-10
-4.2727905e-11
1.4373165e-09
-8.487295e-11
2.3283254e-09
-1.4853126e-10
3.4674218e-09
-2.4009054e-10
4.9101141e-09
-3.6760341e-10
6.7218459e-09
-5.4118653e-10
8.9788828e-09
-7.7350028e-10
1.1768862e-08
-1.0803188e-09
1.5190767e-08
-1.4811922e-09
1.9354014e-08
-2.0002005e-09
2.4376251e-08
-2.6667714e-09
3.0379414e-08
-3.5165244e-09
3.7483548e-08
-4.5920442e-09
4.5797977e-08
-5.9434797e-09
5.5409582e-08
-7.6287104e-09
6.6368392e-08
-9.7128599e-09
7.8671383e-08
-1.2266728e-08
9.2246372e-08
-1.5363802e-08
1.069392e-07
-1.9075426e-08
1.2250864e-07
-2.3463954e-08
1.386344e-07
-2.8574072e-08
1.5494332e-07
-3.4422909e-08
1.7105724e-07
-4.09904e-08
1.8666204e-07
-4.8211616e-08
2.0159218e-07
-5.5973299e-08
2.1592009e-07
-6.4116106e-08
2.3003623e-07
-7.2443407e-08
2.4470659e-07
-8.0736161e-08
2.6109929e-07
-8.8772121e-08
2.807787e-07
-9.6347379e-08
3.0567336e-07
-1.0329794e-07
3.3802821e-07
-1.0951884e-07
3.803539e-07
-1.1497942e-07
4.3538638e-07
-1.1973186e-07
5.0607062e-07
-1.2391113e-07
5.9558465e-07
-1.2772429e-07
7.0742291e-07
-1.3143127e-07
8.4555445e-07
-1.3532275e-07
1.0146766e-06
-1.3971186e-07
1.2205566e-06
-1.4493075e-07
1.4705453e-06
-1.5131535e-07
1.7741257e-06
-1.5884449e-07
2.1432866e-06
-1.659976e-07
2.5888365e-06
-1.6687621e-07
3.102929e-06
-1.4932254e-07
3.6026842e-06
-1.0090178e-07
3.8310011e-06
-3.3396535e-08
3.2884532e-06
1.4373832e-06
-3.7139438e-12
2.2456886e-10
-1.6463581e-11
7.6052368e-10
-4.1270142e-11
1.462126e-09
-8.1980777e-11
2.3690389e-09
-1.4347799e-10
3.5289213e-09
-2.3193774e-10
4.9985757e-09
-3.5514787e-10
6.8450579e-09
-5.2289704e-10
9.1466331e-09
-7.474385e-10
1.1993405e-08
-1.0440492e-09
1.548738e-08
-1.4316799e-09
1.9741644e-08
-1.9336863e-09
2.4878256e-08
-2.5786441e-09
3.1024367e-08
-3.4011859e-09
3.8306083e-08
-4.4428024e-09
4.6839579e-08
-5.7524495e-09
5.6719207e-08
-7.3868135e-09
6.8002725e-08
-9.4099214e-09
8.0694447e-08
-1.1891768e-08
9.4728161e-08
-1.4905564e-08
1.0995292e-07
-1.8523201e-08
1.2612619e-07
-2.2808752e-08
1.4291985e-07
-2.7810077e-08
1.5994454e-07
-3.3549139e-08
1.7679618e-07
-4.0012242e-08
1.9312501e-07
-4.7142038e-08
2.0872186e-07
-5.4833402e-08
2.2361132e-07
-6.293463e-08
2.3813731e-07
-7.1255152e-08
2.5302698e-07
-7.9579363e-08
2.6942338e-07
-8.7685019e-08
2.8888421e-07
-9.5364085e-08
3.133523e-07
-1.024441e-07
3.4510808e-07
-1.088075e-07
3.8671716e-07
-1.1440739e-07
4.409862e-07
-1.1927766e-07
5.1094091e-07
-1.2353504e-07
5.9984219e-07
-1.2737156e-07
7.1125968e-07
-1.3103831e-07
8.4922144e-07
-1.3482461e-07
1.0184632e-06
-1.3904698e-07
1.2247792e-06
-1.4403405e-07
1.4755326e-06
-1.5007382e-07
1.7801657e-06
-1.5700405e-07
2.1502168e-06
-1.6303819e-07
2.5948707e-06
-1.6219374e-07
3.1020846e-06
-1.4305757e-07
3.583548e-06
-9.5221722e-08
3.7831652e-06
-3.1316949e-08
3.2245484e-06
1.4060663e-06
-3.5928867e-12
2.2816407e-10
-1.5927142e-11
7.728614e-10
-3.992819e-11
1.4861305e-09
-7.9319765e-11
2.408434e-09
-1.3882949e-10
3.5884339e-09
-2.2443947e-10
5.0841873e-09
-3.4369311e-10
6.9643136e-09
-5.0607772e-10
9.3090183e-09
-7.2347347e-10
1.2210801e-08
-1.0106979e-09
1.5774604e-08
-1.3861433e-09
2.0117088e-08
-1.8724987e-09
2.5364607e-08
-2.4975489e-09
3.164941e-08
-3.2950117e-09
3.9103536e-08
-4.3053449e-09
4.7849897e-08
-5.5763941e-09
5.7990234e-08
-7.1637076e-09
6.9590005e-08
-9.1302533e-09
8.2660947e-08
-1.1545218e-08
9.7143059e-08
-1.4481457e-08
1.1288907e-07
-1.801126e-08
1.2965588e-07
-2.2200146e-08
1.4710861e-07
-2.7098758e-08