/*--------------------------------*- C++ -*----------------------------------*\
| =========                 |                                                 |
| \\      /  F ield         | OpenFOAM: The Open Source CFD Toolbox           |
|  \\    /   O peration     | Version:  4.0                                   |
|   \\  /    A nd           | Web:      www.OpenFOAM.org                      |
|    \\/     M anipulation  |                                                 |
\*---------------------------------------------------------------------------*/
FoamFile
{
    version     2.0;
    format      ascii;
    class       volScalarField;
    location    "974";
    object      Qin;
}
// * * * * * * * * * * * * * * * * * * * * * * * * * * * * * * * * * * * * * //

dimensions      [1 0 -3 0 0 0 0];

internalField   uniform 0;

boundaryField
{
    LeftWedge
    {
        type            wedge;
    }
    RightWedge
    {
        type            wedge;
    }
    Inlet
    {
        type            calculated;
        value           nonuniform List<scalar> 
50
(
459.16656
459.23545
459.30875
459.38909
459.47729
459.57418
459.68059
459.79745
459.92576
460.0666
460.22116
460.39069
460.57657
460.78025
461.00328
461.2473
461.51401
461.8052
462.12267
462.46823
462.84369
463.25073
463.69091
464.16553
464.67558
465.22159
465.80352
466.42066
467.07148
467.75359
468.46363
469.19735
469.9497
470.71506
471.48758
472.26157
473.03204
473.79499
474.54772
475.28873
476.01734
476.73304
477.43478
478.12067
478.78759
479.434
480.05187
480.66691
481.16853
482.05353
)
;
    }
    Outlet
    {
        type            calculated;
        value           nonuniform List<scalar> 
50
(
499.10487
499.13001
499.11
499.08321
499.05248
499.01776
498.97926
498.93676
498.88986
498.83822
498.78149
498.71932
498.65132
498.57708
498.4962
498.40829
498.31298
498.20989
498.09866
497.97894
497.85049
497.71317
497.56698
497.4121
497.24893
497.07811
496.90057
496.71753
496.53053
496.34143
496.15237
495.96568
495.78381
495.60915
495.44382
495.28951
495.14732
495.01763
494.90018
494.79418
494.69866
494.61282
494.53626
494.46905
494.41151
494.3636
494.32502
494.29254
494.26973
494.22779
)
;
    }
    Outterwall
    {
        type            calculated;
        value           nonuniform List<scalar> 
100
(
481.07408
482.24047
482.2207
484.3027
490.84451
501.75535
513.26605
521.53289
525.61232
527.27187
528.82078
531.50047
535.28229
539.45377
543.24271
546.17465
548.15799
549.38395
550.15178
550.72085
551.24386
551.77458
552.31047
552.83279
553.32796
553.79222
554.22809
554.63997
555.03164
555.4057
555.76387
556.1074
556.43741
556.75491
557.06082
557.35598
557.64114
557.91698
558.18409
558.44302
558.69425
558.93824
559.17539
559.40608
559.63065
559.84942
560.06268
560.2707
560.47373
560.67201
560.86574
561.05514
561.2404
561.42168
561.59915
561.77298
561.9433
562.11026
562.27398
562.43458
562.59218
562.74689
562.89882
563.04806
563.1947
563.33883
563.48054
563.61988
563.75693
563.89174
564.02447
564.1554
564.28487
564.41291
564.53849
564.65877
564.76981
564.87071
564.97216
565.10529
565.31912
565.64996
566.05577
566.33779
566.10846
564.87484
562.26265
558.32146
553.76549
549.91887
548.06749
548.13779
547.52322
541.91777
529.04723
512.30563
499.01145
493.56004
493.52643
494.25989
)
;
    }
    fluid_to_cencil
    {
        type            calculated;
        value           nonuniform List<scalar> 
100
(
421.91694
421.91626
421.91591
421.91548
421.91503
421.91448
421.91384
421.91313
421.91241
421.91168
421.91096
421.91022
421.90946
421.90867
421.90785
421.90701
421.90617
421.90532
421.90448
421.90363
421.90279
421.90196
421.90112
421.90028
421.89944
421.8986
421.89776
421.89692
421.89608
421.89524
421.8944
421.89357
421.89273
421.89189
421.89105
421.89022
421.88938
421.88855
421.88771
421.88688
421.88604
421.88521
421.88437
421.88354
421.88271
421.88188
421.88105
421.88023
421.8794
421.87858
421.87776
421.87694
421.87612
421.87531
421.8745
421.87369
421.87289
421.87209
421.87129
421.8705
421.86971
421.86893
421.86816
421.86739
421.86662
421.86586
421.86511
421.86436
421.86362
421.86289
421.86217
421.86146
421.86075
421.86006
421.85937
421.8587
421.85804
421.85739
421.85675
421.85613
421.85551
421.85491
421.85433
421.85376
421.85321
421.85266
421.85213
421.85162
421.85117
421.85088
421.85087
421.85114
421.85113
421.84855
421.83501
421.77957
421.62061
421.64957
425.41013
451.42497
)
;
    }
}


// ************************************************************************* //
