/*--------------------------------*- C++ -*----------------------------------*\
| =========                 |                                                 |
| \\      /  F ield         | OpenFOAM: The Open Source CFD Toolbox           |
|  \\    /   O peration     | Version:  4.0                                   |
|   \\  /    A nd           | Web:      www.OpenFOAM.org                      |
|    \\/     M anipulation  |                                                 |
\*---------------------------------------------------------------------------*/
FoamFile
{
    version     2.0;
    format      ascii;
    class       volScalarField;
    location    "974";
    object      Qr;
}
// * * * * * * * * * * * * * * * * * * * * * * * * * * * * * * * * * * * * * //

dimensions      [1 0 -3 0 0 0 0];

internalField   uniform 0;

boundaryField
{
    LeftWedge
    {
        type            wedge;
    }
    RightWedge
    {
        type            wedge;
    }
    Inlet
    {
        type            calculated;
        value           nonuniform List<scalar> 
50
(
37.246539
37.315426
37.388727
37.469068
37.557269
37.654154
37.760571
37.877433
38.005742
38.146586
38.301142
38.470677
38.656555
38.860235
39.083266
39.327284
39.594
39.885185
40.202652
40.548218
40.923672
41.330714
41.770892
42.245517
42.755566
43.301572
43.883504
44.500642
45.151468
45.833574
46.543614
47.277336
48.029687
48.795048
49.56756
50.341557
51.112019
51.874971
52.627704
53.368717
54.097325
54.813021
55.514761
56.200653
56.86757
57.513981
58.131857
58.746888
59.248517
60.133506
)
;
    }
    Outlet
    {
        type            calculated;
        value           nonuniform List<scalar> 
50
(
-80.661564
-77.17989
-73.532239
-69.681107
-65.626971
-61.37572
-56.935464
-52.316987
-47.533067
-42.597692
-37.525335
-32.330233
-27.025733
-21.623911
-16.135653
-10.571341
-4.9421886
0.73794662
6.4506312
12.171207
17.867779
23.501012
29.024754
34.387344
39.533468
44.406544
48.951633
53.118864
56.867155
60.167818
63.007438
65.389452
67.333963
68.875771
70.060755
70.941297
71.571624
72.003713
72.284284
72.453108
72.542554
72.578058
72.579099
72.560247
72.532041
72.501399
72.472577
72.445216
72.424658
72.383265
)
;
    }
    Outterwall
    {
        type            calculated;
        value           nonuniform List<scalar> 
100
(
59.154487
60.321715
60.302783
62.385622
68.928266
79.839948
91.351487
99.619168
103.69945
105.35983
106.90959
109.59011
113.37278
117.5451
121.33488
124.26766
126.25184
127.47864
128.24731
128.81722
129.34107
129.87263
130.40937
130.93252
131.42854
131.89364
132.33035
132.74307
133.13558
133.51048
133.86948
134.21386
134.54471
134.86305
135.16979
135.46579
135.7518
136.02847
136.29642
136.55619
136.80826
137.05309
137.29108
137.52261
137.74801
137.96762
138.18171
138.39057
138.59443
138.79354
138.98811
139.17834
139.36442
139.54653
139.72483
139.89947
140.07062
140.23839
140.40292
140.56433
140.72274
140.87826
141.03099
141.18102
141.32845
141.47337
141.61586
141.75598
141.8938
142.02937
142.16286
142.29455
142.42476
142.55353
142.67984
142.80084
142.9126
143.0142
143.11633
143.25015
143.46465
143.79615
144.20261
144.48526
144.25655
143.02354
140.41195
136.47134
131.91593
128.06986
126.21901
126.28982
125.67575
120.07078
107.20069
90.459531
77.165764
71.714747
71.681503
72.415373
)
;
    }
    fluid_to_cencil
    {
        type            calculated;
        value           nonuniform List<scalar> 
100
(
-74.428703
-99.209587
-106.87641
-110.98416
-113.90255
-116.18356
-118.05903
-119.64375
-121.01404
-122.21859
-123.29213
-124.25934
-125.13871
-125.94428
-126.68702
-127.37563
-128.01715
-128.61736
-129.18103
-129.7122
-130.21426
-130.69012
-131.14227
-131.57288
-131.98382
-132.37676
-132.75313
-133.11424
-133.46122
-133.7951
-134.11679
-134.42711
-134.72682
-135.01659
-135.29703
-135.5687
-135.83211
-136.08772
-136.33598
-136.57728
-136.81197
-137.0404
-137.26288
-137.47971
-137.69114
-137.89744
-138.09883
-138.29553
-138.48776
-138.67569
-138.85952
-139.03941
-139.21551
-139.38799
-139.55697
-139.72259
-139.88499
-140.04426
-140.20054
-140.35393
-140.50452
-140.65241
-140.7977
-140.94047
-141.0808
-141.21877
-141.35446
-141.48794
-141.61927
-141.74853
-141.87576
-142.00104
-142.12442
-142.24595
-142.36569
-142.48368
-142.59998
-142.71462
-142.82766
-142.93914
-143.04909
-143.15756
-143.26459
-143.3702
-143.47443
-143.57734
-143.67893
-143.77925
-143.87828
-143.976
-144.07235
-144.16738
-144.26156
-144.35678
-144.45877
-144.59409
-144.7901
-144.90091
-141.78069
-124.8462
)
;
    }
}


// ************************************************************************* //
