/*--------------------------------*- C++ -*----------------------------------*\
| =========                 |                                                 |
| \\      /  F ield         | OpenFOAM: The Open Source CFD Toolbox           |
|  \\    /   O peration     | Version:  4.0                                   |
|   \\  /    A nd           | Web:      www.OpenFOAM.org                      |
|    \\/     M anipulation  |                                                 |
\*---------------------------------------------------------------------------*/
FoamFile
{
    version     2.0;
    format      ascii;
    class       volScalarField;
    location    "974";
    object      rho;
}
// * * * * * * * * * * * * * * * * * * * * * * * * * * * * * * * * * * * * * //

dimensions      [1 -3 0 0 0 0 0];

internalField   nonuniform List<scalar> 
5000
(
1.1532583
1.1557682
1.1584391
1.1612598
1.1642132
1.1672759
1.1704173
1.1736003
1.1767819
1.1799147
1.1829487
1.1858343
1.1885249
1.1909807
1.1931708
1.1950758
1.196689
1.1980162
1.1990747
1.1998907
1.200497
1.2009292
1.2012235
1.2014135
1.2015287
1.2015934
1.2016264
1.201641
1.2016462
1.2016472
1.2016468
1.2016463
1.2016459
1.2016456
1.2016456
1.2016455
1.2016455
1.2016455
1.2016455
1.2016455
1.2016455
1.2016455
1.2016455
1.2016455
1.2016455
1.2016455
1.2016455
1.2016455
1.2016455
1.2016455
1.138636
1.1407488
1.1430148
1.1454413
1.1480342
1.1507975
1.153732
1.1568339
1.1600934
1.1634932
1.1670064
1.170596
1.1742143
1.177804
1.1813003
1.1846348
1.1877411
1.1905601
1.1930464
1.195172
1.1969293
1.1983308
1.199406
1.2001971
1.2007532
1.2011251
1.2013603
1.2014999
1.201577
1.2016161
1.2016339
1.2016411
1.2016435
1.2016441
1.2016441
1.2016441
1.201644
1.201644
1.201644
1.201644
1.201644
1.201644
1.201644
1.201644
1.201644
1.201644
1.201644
1.201644
1.201644
1.201644
1.1342922
1.1362849
1.1384203
1.1407039
1.1431406
1.1457343
1.1484872
1.1513996
1.1544686
1.1576873
1.1610436
1.1645182
1.1680837
1.1717031
1.175329
1.1789046
1.1823658
1.1856452
1.1886773
1.1914055
1.1937878
1.1958013
1.1974447
1.1987364
1.1997116
1.2004167
1.2009028
1.201221
1.2014175
1.2015311
1.201592
1.2016218
1.2016351
1.2016402
1.201642
1.2016424
1.2016425
1.2016425
1.2016425
1.2016425
1.2016425
1.2016425
1.2016425
1.2016425
1.2016425
1.2016425
1.2016425
1.2016425
1.2016425
1.2016425
1.1319974
1.1339271
1.1359946
1.138205
1.1405631
1.1430725
1.1457353
1.148552
1.1515206
1.1546363
1.1578898
1.1612673
1.1647484
1.1683056
1.1719031
1.175496
1.1790312
1.1824489
1.1856861
1.1886811
1.19138
1.1937421
1.1957444
1.1973844
1.198679
1.1996613
1.2003755
1.2008713
1.2011983
1.2014021
1.2015211
1.2015857
1.2016179
1.2016324
1.2016382
1.2016403
1.2016409
1.201641
1.201641
1.201641
1.201641
1.201641
1.201641
1.201641
1.201641
1.201641
1.201641
1.201641
1.201641
1.201641
1.1303804
1.1322658
1.1342856
1.1364451
1.1387488
1.1412003
1.1438022
1.1465553
1.1494584
1.1525074
1.1556951
1.1590096
1.1624341
1.1659452
1.1695125
1.1730979
1.1766551
1.1801312
1.1834678
1.1866052
1.1894869
1.1920649
1.1943051
1.196191
1.1977253
1.1989287
1.1998362
1.2004923
1.2009452
1.2012423
1.2014264
1.2015333
1.2015909
1.2016193
1.201632
1.2016371
1.2016389
1.2016394
1.2016395
1.2016395
1.2016395
1.2016395
1.2016395
1.2016395
1.2016395
1.2016395
1.2016395
1.2016395
1.2016395
1.2016395
1.1291242
1.1309752
1.1329581
1.135078
1.1373396
1.1397466
1.1423017
1.1450062
1.1478593
1.150858
1.153996
1.1572634
1.1606454
1.1641214
1.1676645
1.1712406
1.174808
1.1783179
1.1817161
1.184945
1.1879483
1.1906749
1.1930846
1.1951524
1.1968709
1.1982509
1.1993191
1.200114
1.2006809
1.2010668
1.2013163
1.2014684
1.2015551
1.2016009
1.201623
1.2016326
1.2016363
1.2016376
1.2016379
1.201638
1.201638
1.201638
1.201638
1.201638
1.201638
1.201638
1.201638
1.201638
1.201638
1.201638
1.1280962
1.129919
1.1318717
1.1339594
1.1361866
1.1385572
1.141074
1.1437385
1.1465507
1.1495079
1.152605
1.1558333
1.1591796
1.1626257
1.1661471
1.1697128
1.1732842
1.1768162
1.1802573
1.1835522
1.1866449
1.1894832
1.192023
1.1942335
1.1961
1.1976256
1.1988299
1.1997458
1.2004153
1.2008838
1.2011965
1.2013943
1.2015121
1.2015776
1.201611
1.2016266
1.2016331
1.2016355
1.2016363
1.2016365
1.2016365
1.2016365
1.2016365
1.2016365
1.2016365
1.2016365
1.2016365
1.2016365
1.2016365
1.2016365
1.1272309
1.1290301
1.1309574
1.1330179
1.1352162
1.1375561
1.1400406
1.1426715
1.1454489
1.148371
1.1514332
1.1546278
1.157943
1.1613623
1.1648634
1.1684174
1.1719888
1.1755349
1.1790069
1.1823514
1.1855132
1.1884393
1.1910833
1.1934101
1.1953994
1.1970481
1.1983698
1.1993923
1.200154
1.2006988
1.2010715
1.2013142
1.2014636
1.2015499
1.2015962
1.201619
1.2016291
1.2016331
1.2016345
1.2016349
1.201635
1.201635
1.201635
1.201635
1.201635
1.201635
1.201635
1.201635
1.201635
1.201635
1.1264851
1.128264
1.1301695
1.1322065
1.1343798
1.1366933
1.1391499
1.1417517
1.1444991
1.1473905
1.1504221
1.153587
1.1568746
1.1602695
1.1637512
1.167293
1.1708614
1.1744163
1.177911
1.1812938
1.1845106
1.187508
1.1902379
1.1926622
1.194756
1.1965111
1.1979358
1.1990535
1.199899
1.2005144
1.2009438
1.2012298
1.2014108
1.2015188
1.2015789
1.2016098
1.2016242
1.2016303
1.2016326
1.2016333
1.2016335
1.2016335
1.2016335
1.2016335
1.2016335
1.2016335
1.2016335
1.2016335
1.2016335
1.2016335
1.1258314
1.1275924
1.1294787
1.1314953
1.1336467
1.135937
1.1383692
1.1409454
1.1436662
1.1465306
1.1495351
1.1526735
1.1559359
1.1593084
1.1627718
1.1663011
1.1698647
1.1734246
1.1769359
1.1803488
1.1836101
1.1866665
1.1894688
1.1919762
1.1941605
1.1960089
1.1975253
1.1987288
1.1996511
1.200332
1.2008149
1.2011428
1.2013549
1.2014847
1.2015592
1.201599
1.2016185
1.2016271
1.2016304
1.2016316
1.2016319
1.201632
1.201632
1.201632
1.201632
1.201632
1.201632
1.201632
1.201632
1.201632
1.1252501
1.1269953
1.1288646
1.130863
1.1329949
1.1352646
1.137675
1.1402284
1.1429256
1.1457657
1.1487458
1.1518602
1.1550999
1.1584517
1.1618977
1.1654144
1.168972
1.1725341
1.1760578
1.1794946
1.1827925
1.1858984
1.1887625
1.1913419
1.1936056
1.1955369
1.1971356
1.1984172
1.1994102
1.2001523
1.2006859
1.201054
1.2012965
1.2014482
1.2015376
1.2015868
1.2016118
1.2016233
1.2016281
1.2016298
1.2016304
1.2016305
1.2016305
1.2016305
1.2016305
1.2016305
1.2016305
1.2016305
1.2016305
1.2016305
1.1247276
1.1264585
1.1283125
1.1302945
1.132409
1.1346601
1.1370509
1.1395837
1.1422596
1.1450778
1.1480358
1.1511284
1.154347
1.1576796
1.1611092
1.1646136
1.1681644
1.1717267
1.1752594
1.1787155
1.1820438
1.1851919
1.1881093
1.1907518
1.1930857
1.1950913
1.1967647
1.1981179
1.1991763
1.1999757
1.2005575
1.2009642
1.2012363
1.2014098
1.2015143
1.2015733
1.2016043
1.2016191
1.2016255
1.2016279
1.2016287
1.201629
1.201629
1.201629
1.201629
1.201629
1.201629
1.201629
1.201629
1.201629
1.1242533
1.1259714
1.1278115
1.1297786
1.1318773
1.1341115
1.1364846
1.1389987
1.1416552
1.1444534
1.1473912
1.1504637
1.153663
1.1569777
1.1603917
1.163884
1.1674274
1.1709886
1.1745278
1.1779995
1.1813535
1.1845378
1.1875018
1.1902
1.1925967
1.1946693
1.1964108
1.1978299
1.1989493
1.1998026
1.20043
1.2008739
1.2011749
1.2013698
1.2014895
1.2015587
1.2015959
1.2016144
1.2016226
1.2016259
1.2016271
1.2016274
1.2016275
1.2016275
1.2016275
1.2016275
1.2016275
1.2016275
1.2016275
1.2016275
1.1238197
1.1255259
1.1273534
1.1293069
1.1313911
1.1336099
1.1359667
1.1384638
1.1411024
1.1438823
1.1468015
1.1498554
1.1530367
1.1563346
1.1597339
1.1632144
1.1667502
1.1703092
1.1738531
1.1773374
1.1807132
1.183929
1.1869338
1.1896816
1.1921348
1.1942684
1.1960723
1.1975524
1.1987288
1.199633
1.2003039
1.2007834
1.2011125
1.2013286
1.2014635
1.201543
1.2015868
1.2016091
1.2016195
1.2016238
1.2016254
1.2016259
1.201626
1.201626
1.201626
1.201626
1.201626
1.201626
1.201626
1.201626
1.1234205
1.1251159
1.1269316
1.1288727
1.1309436
1.1331482
1.13549
1.1379713
1.1405935
1.1433564
1.1462584
1.149295
1.1524596
1.1557418
1.159127
1.1625961
1.1661241
1.1696802
1.1732272
1.1767219
1.1801163
1.1833595
1.1864007
1.1891929
1.1916973
1.1938865
1.1957481
1.1972849
1.1985147
1.199467
1.2001794
1.2006932
1.2010496
1.2012864
1.2014364
1.2015263
1.201577
1.2016034
1.2016161
1.2016215
1.2016236
1.2016243
1.2016245
1.2016245
1.2016245
1.2016245
1.2016245
1.2016245
1.2016245
1.2016245
1.1230508
1.1247362
1.1265412
1.1284707
1.1305292
1.1327207
1.1350486
1.1375153
1.1401223
1.1428695
1.1457554
1.148776
1.1519249
1.1551922
1.1585641
1.1620221
1.1655423
1.169095
1.1726439
1.1761471
1.1795575
1.1828248
1.1858984
1.1887307
1.1912816
1.1935219
1.1954368
1.1970266
1.1983066
1.1993045
1.2000566
1.2006035
1.2009863
1.2012435
1.2014085
1.2015089
1.2015665
1.2015973
1.2016124
1.2016191
1.2016218
1.2016227
1.201623
1.201623
1.201623
1.201623
1.201623
1.201623
1.201623
1.201623
1.1227069
1.124383
1.1261779
1.1280967
1.1301437
1.132323
1.134638
1.1370911
1.1396838
1.1424164
1.1452873
1.1482929
1.151427
1.1546802
1.1580394
1.1614867
1.1649992
1.1685479
1.1720978
1.175608
1.1790322
1.1823209
1.1854235
1.1882922
1.1908857
1.1931732
1.1951376
1.196777
1.1981044
1.1991456
1.1999356
1.2005144
1.2009229
1.2012
1.2013798
1.2014908
1.2015555
1.2015907
1.2016084
1.2016165
1.2016199
1.2016211
1.2016214
1.2016215
1.2016215
1.2016215
1.2016215
1.2016215
1.2016215
1.2016215
1.1223856
1.1240529
1.1258385
1.1277472
1.1297835
1.1319514
1.1342542
1.1366946
1.1392741
1.1419929
1.1448497
1.1478412
1.1509613
1.1542013
1.1575484
1.1609854
1.1644901
1.1680346
1.1715847
1.1751006
1.1785369
1.1818446
1.1849734
1.1878751
1.1905077
1.1928389
1.1948495
1.1965355
1.1979077
1.1989901
1.1998165
1.200426
1.2008596
1.2011562
1.2013506
1.2014721
1.2015439
1.2015837
1.2016042
1.2016138
1.2016179
1.2016194
1.2016199
1.20162
1.20162
1.20162
1.20162
1.20162
1.20162
1.20162
1.1220841
1.1237432
1.12552
1.1274193
1.1294455
1.1316027
1.1338943
1.1363227
1.1388897
1.1415956
1.1444392
1.1474173
1.1505243
1.1537516
1.1570871
1.1605141
1.1640112
1.1675512
1.171101
1.1746215
1.1780683
1.1813929
1.1845455
1.1874775
1.1901462
1.1925179
1.1945717
1.1963016
1.1977163
1.1988381
1.1996993
1.2003385
1.2007964
1.2011121
1.2013209
1.2014528
1.2015319
1.2015764
1.2015997
1.2016109
1.2016158
1.2016177
1.2016183
1.2016185
1.2016185
1.2016185
1.2016185
1.2016185
1.2016185
1.2016185
1.1218002
1.1234516
1.1252202
1.1271106
1.1291274
1.1312745
1.1335554
1.1359726
1.1385278
1.1412215
1.1440526
1.1470181
1.1501126
1.1533279
1.1566522
1.1600696
1.1635592
1.1670946
1.1706435
1.1741678
1.1776238
1.1809636
1.1841378
1.1870976
1.1897997
1.1922092
1.1943036
1.1960748
1.1975299
1.1986892
1.199584
1.2002519
1.2007334
1.2010678
1.2012909
1.2014332
1.2015194
1.2015687
1.201595
1.2016079
1.2016137
1.2016159
1.2016167
1.201617
1.201617
1.201617
1.201617
1.201617
1.201617
1.201617
1.1215322
1.1231763
1.1249371
1.1268191
1.128827
1.1309646
1.1332354
1.135642
1.1381861
1.1408683
1.1436875
1.146641
1.1497236
1.1529275
1.1562412
1.1596492
1.1631314
1.1666621
1.1702098
1.173737
1.177201
1.1805546
1.1837484
1.186734
1.189467
1.1919118
1.1940444
1.1958548
1.1973482
1.1985435
1.1994706
1.2001663
1.2006707
1.2010234
1.2012605
1.2014131
1.2015066
1.2015607
1.2015901
1.2016047
1.2016114
1.2016142
1.2016151
1.2016155
1.2016155
1.2016155
1.2016155
1.2016155
1.2016155
1.2016155
1.1212783
1.1229156
1.1246689
1.1265431
1.1285425
1.1306711
1.1329324
1.1353289
1.1378625
1.1405337
1.1433417
1.1462838
1.1493551
1.152548
1.1558515
1.1592505
1.1627255
1.1662513
1.1697974
1.173327
1.1767981
1.180164
1.1833759
1.1863851
1.1891471
1.191625
1.1937935
1.1956411
1.1971711
1.1984009
1.199359
1.2000816
1.2006085
1.2009791
1.2012299
1.2013927
1.2014935
1.2015525
1.2015849
1.2016014
1.2016091
1.2016124
1.2016135
1.2016139
1.201614
1.201614
1.2016141
1.201614
1.201614
1.201614
1.1210373
1.122668
1.1244144
1.126281
1.1282724
1.1303925
1.1326447
1.1350317
1.1375552
1.140216
1.1430133
1.1459446
1.1490051
1.1521875
1.1554812
1.1588715
1.1623393
1.1658603
1.1694045
1.1729359
1.1764132
1.1797904
1.1830189
1.18605
1.188839
1.191348
1.1935504
1.1954333
1.1969983
1.1982612
1.1992493
1.199998
1.2005466
1.2009347
1.2011992
1.2013721
1.20148
1.201544
1.2015796
1.201598
1.2016067
1.2016105
1.2016119
1.2016124
1.2016125
1.2016125
1.2016126
1.2016126
1.2016126
1.2016126
1.1208079
1.1224325
1.1241721
1.1260316
1.1280154
1.1301273
1.1323709
1.1347488
1.1372628
1.1399137
1.1427008
1.1456217
1.1486719
1.1518442
1.1551284
1.1585103
1.1619711
1.1654873
1.1690294
1.1725621
1.1760449
1.1794323
1.182676
1.1857276
1.1885417
1.19108
1.1933146
1.1952311
1.1968295
1.1981242
1.1991413
1.1999153
1.2004852
1.2008905
1.2011683
1.2013512
1.2014663
1.2015352
1.201574
1.2015944
1.2016043
1.2016086
1.2016103
1.2016108
1.201611
1.201611
1.2016111
1.2016111
1.2016111
1.2016111
1.1205892
1.1222078
1.1239411
1.1257938
1.1277703
1.1298745
1.1321098
1.134479
1.136984
1.1396254
1.1424027
1.1453137
1.148354
1.1515167
1.1547918
1.1581654
1.1616195
1.1651307
1.1686705
1.1722042
1.1756918
1.1790884
1.1823463
1.1854169
1.1882547
1.1908206
1.1930858
1.1950342
1.1966647
1.19799
1.1990351
1.1998337
1.2004243
1.2008464
1.2011373
1.2013301
1.2014524
1.2015262
1.2015683
1.2015907
1.2016017
1.2016066
1.2016086
1.2016093
1.2016095
1.2016095
1.2016096
1.2016096
1.2016096
1.2016096
1.1203801
1.1219931
1.1237203
1.1255665
1.127536
1.1296328
1.1318603
1.1342213
1.1367175
1.1393499
1.1421179
1.1450194
1.1480502
1.1512036
1.1544698
1.1578355
1.1612829
1.1647893
1.1683266
1.1718609
1.1753527
1.1787578
1.1820287
1.1851171
1.1879772
1.1905692
1.1928633
1.1948423
1.1965035
1.1978583
1.1989305
1.199753
1.2003638
1.2008024
1.2011063
1.2013088
1.2014383
1.2015171
1.2015624
1.2015869
1.2015991
1.2016047
1.2016069
1.2016077
1.201608
1.201608
1.2016081
1.2016081
1.2016081
1.2016081
1.12018
1.1217876
1.123509
1.125349
1.1273118
1.1294015
1.1316215
1.1339745
1.1364624
1.1390861
1.1418452
1.1447376
1.1477592
1.1509037
1.1541614
1.1575194
1.1609602
1.1644618
1.1679965
1.1715311
1.1750267
1.1784395
1.1817225
1.1848275
1.1877085
1.1903253
1.192647
1.1946552
1.1963459
1.1977291
1.1988275
1.1996733
1.2003039
1.2007586
1.2010752
1.2012875
1.201424
1.2015077
1.2015564
1.201583
1.2015964
1.2016026
1.2016052
1.2016062
1.2016065
1.2016065
1.2016066
1.2016066
1.2016066
1.2016066
1.1199881
1.1215905
1.1233064
1.1251404
1.1270968
1.1291798
1.1313925
1.1337379
1.1362178
1.1388332
1.1415837
1.1444673
1.1474802
1.150616
1.1538655
1.157216
1.1606504
1.1641472
1.1676792
1.1712138
1.1747126
1.1781325
1.1814268
1.1845474
1.1874482
1.1900884
1.1924364
1.1944726
1.1961916
1.1976023
1.1987262
1.1995945
1.2002444
1.200715
1.2010441
1.201266
1.2014095
1.2014982
1.2015502
1.2015789
1.2015936
1.2016006
1.2016035
1.2016046
1.2016049
1.201605
1.2016051
1.2016051
1.2016051
1.2016051
1.1198038
1.1214012
1.1231117
1.12494
1.1268904
1.1289668
1.1311726
1.1335107
1.1359829
1.1385903
1.1413325
1.1442077
1.1472121
1.1503396
1.1535811
1.1569243
1.1603525
1.1638446
1.1673738
1.1709081
1.1744098
1.1778362
1.1811409
1.1842762
1.1871957
1.1898582
1.1922312
1.1942942
1.1960405
1.1974778
1.1986263
1.1995167
1.2001854
1.2006716
1.2010131
1.2012444
1.2013949
1.2014885
1.2015439
1.2015748
1.2015908
1.2015984
1.2016017
1.201603
1.2016034
1.2016035
1.2016036
1.2016036
1.2016036
1.2016036
1.1196266
1.1212192
1.1229246
1.1247473
1.1266918
1.1287619
1.1309611
1.1332922
1.135757
1.1383567
1.141091
1.143958
1.1469543
1.1500737
1.1533075
1.1566436
1.1600657
1.163553
1.1670794
1.1706133
1.1741175
1.1775498
1.1808643
1.1840133
1.1869505
1.1896342
1.1920312
1.1941199
1.1958925
1.1973554
1.198528
1.1994398
1.200127
1.2006284
1.2009821
1.2012227
1.2013801
1.2014787
1.2015375
1.2015705
1.2015879
1.2015963
1.2015999
1.2016014
1.2016019
1.201602
1.2016021
1.2016021
1.2016021
1.2016021
1.1194559
1.1210439
1.1227443
1.1245618
1.1265006
1.1285647
1.1307574
1.1330817
1.1355395
1.1381317
1.1408583
1.1437175
1.1467059
1.1498175
1.1530439
1.156373
1.1597892
1.1632718
1.1667953
1.1703285
1.1738349
1.1772727
1.1805963
1.1837583
1.1867122
1.1894161
1.191836
1.1939495
1.1957475
1.1972352
1.198431
1.1993638
1.200069
1.2005854
1.2009511
1.2012009
1.2013653
1.2014688
1.2015309
1.2015662
1.2015849
1.2015941
1.2015981
1.2015998
1.2016003
1.2016005
1.2016006
1.2016006
1.2016006
1.2016006
1.1192912
1.1208748
1.1225705
1.1243828
1.1263162
1.1283744
1.1305611
1.1328788
1.1353297
1.1379148
1.140634
1.1434856
1.1464663
1.1495704
1.1527895
1.156112
1.1595222
1.1630002
1.1665207
1.1700532
1.1735615
1.1770043
1.1803364
1.1835106
1.1864805
1.1892037
1.1916456
1.1937828
1.1956052
1.197117
1.1983355
1.1992886
1.2000116
1.2005427
1.2009201
1.2011792
1.2013503
1.2014588
1.2015243
1.2015618
1.2015819
1.2015918
1.2015963
1.2015981
1.2015988
1.201599
1.201599
1.2015991
1.2015991
1.2015991
1.1191323
1.1207116
1.1224027
1.1242101
1.1261382
1.1281908
1.1303715
1.1326829
1.1351272
1.1377054
1.1404174
1.1432617
1.146235
1.1493318
1.1525438
1.1558597
1.1592643
1.1627377
1.1662552
1.1697868
1.1732967
1.1767441
1.1800842
1.18327
1.186255
1.1889965
1.1914595
1.1936196
1.1954657
1.1970008
1.1982413
1.1992144
1.1999546
1.2005002
1.2008893
1.2011573
1.2013353
1.2014486
1.2015175
1.2015573
1.2015787
1.2015895
1.2015945
1.2015965
1.2015972
1.2015975
1.2015975
1.2015976
1.2015976
1.2015976
1.1189787
1.1205539
1.1222405
1.1240431
1.1259661
1.1280134
1.1301882
1.1324936
1.1349315
1.137503
1.1402081
1.1430453
1.1460114
1.1491011
1.1523063
1.1556158
1.1590147
1.1624836
1.1659982
1.1695287
1.1730399
1.1764916
1.1798392
1.1830359
1.1860353
1.1887944
1.1912776
1.1934597
1.1953287
1.1968865
1.1981484
1.1991409
1.1998981
1.2004579
1.2008585
1.2011355
1.2013201
1.2014383
1.2015107
1.2015527
1.2015756
1.2015872
1.2015926
1.2015949
1.2015957
1.201596
1.201596
1.2015961
1.2015961
1.2015961
1.1188301
1.1204012
1.1220836
1.1238816
1.1257997
1.1278417
1.130011
1.1323104
1.1347421
1.1373072
1.1400056
1.1428359
1.1457951
1.1488779
1.1520764
1.1553797
1.1587731
1.1622375
1.165749
1.1692784
1.1727908
1.1762464
1.179601
1.1828081
1.1858212
1.1885972
1.1910998
1.1933031
1.1951942
1.196774
1.1980568
1.1990683
1.1998421
1.2004159
1.2008278
1.2011136
1.2013049
1.201428
1.2015037
1.201548
1.2015723
1.2015848
1.2015907
1.2015932
1.2015941
1.2015944
1.2015945
1.2015946
1.2015946
1.2015946
1.1186862
1.1202534
1.1219316
1.1237252
1.1256385
1.1276754
1.1298393
1.1321331
1.1345588
1.1371175
1.1398094
1.1426331
1.1455856
1.1486617
1.1518537
1.1551509
1.1585389
1.1619989
1.1655074
1.1690355
1.1725489
1.1760081
1.1793693
1.1825862
1.1856124
1.1884044
1.1909257
1.1931496
1.1950621
1.1966632
1.1979664
1.1989965
1.1997866
1.2003741
1.2007972
1.2010918
1.2012897
1.2014176
1.2014967
1.2015432
1.2015691
1.2015824
1.2015888
1.2015915
1.2015926
1.2015929
1.201593
1.2015931
1.2015931
1.2015931
1.1185467
1.1201102
1.1217843
1.1235736
1.1254823
1.1275143
1.129673
1.1319612
1.134381
1.1369337
1.1396193
1.1424366
1.1453825
1.1484521
1.1516378
1.1549291
1.1583118
1.1617674
1.1652729
1.1687996
1.1723138
1.1757763
1.1791437
1.1823699
1.1854086
1.1882161
1.1907554
1.192999
1.1949323
1.1965542
1.1978772
1.1989255
1.1997316
1.2003326
1.2007667
1.2010699
1.2012744
1.2014071
1.2014896
1.2015384
1.2015657
1.20158
1.2015868
1.2015898
1.201591
1.2015914
1.2015915
1.2015916
1.2015916
1.2015916
1.1184113
1.1199712
1.1216414
1.1234265
1.1253307
1.1273579
1.1295116
1.1317944
1.1342086
1.1367554
1.1394349
1.1422459
1.1451854
1.1482487
1.1514282
1.1547137
1.1580912
1.1615426
1.165045
1.1685703
1.1720851
1.1755506
1.1789239
1.182159
1.1852096
1.1880319
1.1905885
1.1928513
1.1948047
1.1964468
1.1977892
1.1988553
1.199677
1.2002913
1.2007363
1.201048
1.201259
1.2013965
1.2014824
1.2015335
1.2015623
1.2015775
1.2015848
1.2015881
1.2015894
1.2015899
1.20159
1.2015901
1.2015901
1.2015901
1.1182799
1.1198363
1.1215027
1.1232837
1.1251836
1.1272061
1.1293548
1.1316325
1.1340413
1.1365823
1.1392559
1.1420607
1.1449941
1.1480512
1.1512247
1.1545045
1.1578769
1.1613241
1.1648234
1.1683472
1.1718625
1.1753309
1.1787096
1.1819532
1.1850151
1.1878518
1.190425
1.1927064
1.1946793
1.196341
1.1977023
1.1987858
1.1996229
1.2002503
1.2007059
1.2010262
1.2012436
1.2013859
1.2014751
1.2015286
1.2015589
1.2015749
1.2015828
1.2015864
1.2015878
1.2015883
1.2015885
1.2015886
1.2015886
1.2015886
1.1181522
1.1197051
1.1213679
1.1231449
1.1250406
1.1270587
1.1292026
1.1314752
1.1338786
1.1364141
1.1390819
1.1418808
1.1448081
1.1478592
1.1510269
1.1543012
1.1576686
1.1611115
1.1646078
1.1681301
1.1716457
1.1751167
1.1785006
1.1817522
1.1848251
1.1876754
1.1902648
1.192564
1.1945559
1.1962367
1.1976165
1.198717
1.1995693
1.2002096
1.2006757
1.2010044
1.2012282
1.2013752
1.2014678
1.2015236
1.2015553
1.2015724
1.2015808
1.2015847
1.2015862
1.2015868
1.201587
1.2015871
1.2015871
1.2015871
1.118028
1.1195776
1.1212368
1.12301
1.1249015
1.1269152
1.1290545
1.1313222
1.1337205
1.1362505
1.1389127
1.1417058
1.1446273
1.1476725
1.1508344
1.1541033
1.1574658
1.1609047
1.1643979
1.1679186
1.1714344
1.1749078
1.1782966
1.1815558
1.1846392
1.1875026
1.1901076
1.1924242
1.1944345
1.196134
1.1975317
1.198649
1.1995161
1.200169
1.2006456
1.2009825
1.2012127
1.2013644
1.2014604
1.2015185
1.2015518
1.2015698
1.2015788
1.2015829
1.2015846
1.2015853
1.2015855
1.2015855
1.2015856
1.2015856
1.1179072
1.1194535
1.1211092
1.1228787
1.1247662
1.1267757
1.1289104
1.1311733
1.1335666
1.1360914
1.138748
1.1415355
1.1444513
1.1474908
1.1506472
1.1539107
1.1572684
1.1607032
1.1641934
1.1677125
1.1712284
1.1747039
1.1780974
1.1813638
1.1844572
1.1873334
1.1899534
1.1922868
1.194315
1.1960327
1.197448
1.1985817
1.1994633
1.2001288
1.2006157
1.2009608
1.2011973
1.2013536
1.201453
1.2015133
1.2015482
1.2015671
1.2015767
1.2015811
1.201583
1.2015837
1.201584
1.201584
1.2015841
1.2015841
1.1177895
1.1193327
1.120985
1.1227508
1.1246345
1.1266398
1.1287702
1.1310284
1.1334167
1.1359364
1.1385877
1.1413697
1.1442799
1.1473138
1.1504647
1.1537231
1.1570761
1.1605069
1.1639941
1.1675114
1.1710273
1.1745049
1.1779027
1.1811761
1.1842791
1.1871675
1.189802
1.1921518
1.1941974
1.1959327
1.1973654
1.198515
1.199411
1.2000887
1.2005858
1.200939
1.2011817
1.2013427
1.2014454
1.2015081
1.2015445
1.2015644
1.2015746
1.2015794
1.2015814
1.2015822
1.2015825
1.2015825
1.2015826
1.2015826
1.1176749
1.119215
1.1208639
1.1226263
1.1245061
1.1265074
1.1286335
1.1308872
1.1332707
1.1357854
1.1384315
1.1412082
1.1441129
1.1471414
1.1502869
1.1535402
1.1568886
1.1603154
1.1637996
1.1673152
1.170831
1.1743104
1.1777124
1.1809924
1.1841047
1.1870049
1.1896534
1.192019
1.1940815
1.1958342
1.1972836
1.198449
1.1993591
1.2000489
1.2005561
1.2009173
1.2011662
1.2013318
1.2014379
1.2015029
1.2015408
1.2015617
1.2015725
1.2015776
1.2015798
1.2015806
1.2015809
1.201581
1.2015811
1.2015811
1.1175631
1.1191002
1.1207459
1.1225048
1.124381
1.1263783
1.1285002
1.1307495
1.1331284
1.1356382
1.1382792
1.1410507
1.1439501
1.1469732
1.1501136
1.1533619
1.1567057
1.1601286
1.1636098
1.1671237
1.1706393
1.1741204
1.1775262
1.1808126
1.1839338
1.1868453
1.1895075
1.1918884
1.1939674
1.195737
1.1972029
1.1983837
1.1993076
1.2000094
1.2005264
1.2008956
1.2011507
1.2013209
1.2014303
1.2014976
1.2015371
1.201559
1.2015703
1.2015758
1.2015781
1.2015791
1.2015794
1.2015795
1.2015796
1.2015796
1.117454
1.1189882
1.1206308
1.1223863
1.1242589
1.1262524
1.1283702
1.1306152
1.1329895
1.1354945
1.1381307
1.140897
1.1437913
1.1468092
1.1499444
1.1531879
1.1565272
1.1599462
1.1634245
1.1669366
1.1704519
1.1739345
1.1773441
1.1806365
1.1837662
1.1866888
1.1893641
1.1917599
1.193855
1.195641
1.1971231
1.198319
1.1992565
1.1999701
1.2004969
1.2008739
1.2011351
1.2013099
1.2014226
1.2014923
1.2015333
1.2015562
1.2015681
1.2015739
1.2015765
1.2015775
1.2015779
1.201578
1.2015781
1.2015781
1.1173475
1.1188789
1.1205184
1.1222706
1.1241397
1.1261295
1.1282433
1.1304841
1.132854
1.1353544
1.1379857
1.140747
1.1436362
1.146649
1.1497793
1.1530179
1.1563528
1.1597681
1.1632434
1.1667537
1.1702686
1.1737527
1.1771658
1.180464
1.1836019
1.1865351
1.1892231
1.1916335
1.1937442
1.1955463
1.1970442
1.1982549
1.1992059
1.199931
1.2004675
1.2008523
1.2011195
1.2012989
1.2014149
1.2014869
1.2015295
1.2015534
1.2015659
1.2015721
1.2015748
1.201576
1.2015764
1.2015765
1.2015766
1.2015766
1.1172436
1.1187721
1.1204087
1.1221577
1.1240233
1.1260094
1.1281194
1.1303561
1.1327216
1.1352175
1.1378441
1.1406006
1.1434848
1.1464926
1.149618
1.1528519
1.1561825
1.159594
1.1630664
1.1665749
1.1700894
1.1735747
1.1769911
1.1802949
1.1834407
1.1863841
1.1890846
1.191509
1.193635
1.1954528
1.1969661
1.1981915
1.1991556
1.1998922
1.2004382
1.2008307
1.201104
1.2012878
1.2014071
1.2014814
1.2015256
1.2015505
1.2015637
1.2015702
1.2015732
1.2015744
1.2015748
1.201575
1.201575
1.2015751
1.117142
1.1186678
1.1203014
1.1220473
1.1239096
1.1258922
1.1279983
1.130231
1.1325923
1.1350837
1.1377057
1.1404575
1.1433368
1.1463398
1.1494603
1.1526897
1.156016
1.1594238
1.1628933
1.1663999
1.1699139
1.1734005
1.17682
1.1801291
1.1832825
1.1862359
1.1889483
1.1913865
1.1935273
1.1953605
1.196889
1.1981286
1.1991057
1.1998536
1.2004091
1.2008092
1.2010884
1.2012767
1.2013993
1.2014759
1.2015217
1.2015476
1.2015615
1.2015683
1.2015715
1.2015728
1.2015733
1.2015735
1.2015735
1.2015736
1.1170426
1.1185658
1.1201966
1.1219394
1.1237985
1.1257775
1.12788
1.1301087
1.1324659
1.134953
1.1375704
1.1403175
1.1431921
1.1461904
1.1493062
1.152531
1.1558532
1.1592573
1.1627239
1.1662287
1.1697422
1.1732298
1.1766522
1.1799664
1.1831273
1.1860902
1.1888143
1.1912658
1.1934211
1.1952693
1.1968126
1.1980664
1.1990562
1.1998152
1.20038
1.2007877
1.2010728
1.2012656
1.2013915
1.2014704
1.2015177
1.2015447
1.2015592
1.2015664
1.2015698
1.2015712
1.2015718
1.201572
1.201572
1.2015721
1.1169455
1.1184661
1.1200941
1.1218339
1.1236897
1.1256654
1.1277642
1.1299891
1.1323423
1.1348251
1.1374382
1.1401807
1.1430507
1.1460442
1.1491554
1.1523758
1.1556939
1.1590944
1.1625582
1.166061
1.1695739
1.1730625
1.1764878
1.1798068
1.1829747
1.1859469
1.1886824
1.1911469
1.1933164
1.1951792
1.1967371
1.1980047
1.1990071
1.199777
1.2003511
1.2007663
1.2010572
1.2012545
1.2013836
1.2014648
1.2015137
1.2015418
1.2015569
1.2015645
1.2015681
1.2015696
1.2015702
1.2015705
1.2015705
1.2015705
1.1168504
1.1183685
1.1199937
1.1217306
1.1235834
1.1255557
1.127651
1.1298721
1.1322213
1.1347
1.1373087
1.1400468
1.1429122
1.1459012
1.1490079
1.1522239
1.1555379
1.1589349
1.1623958
1.1658968
1.169409
1.1728985
1.1763264
1.1796502
1.1828249
1.1858061
1.1885525
1.1910297
1.193213
1.1950902
1.1966624
1.1979435
1.1989583
1.1997391
1.2003223
1.2007448
1.2010416
1.2012433
1.2013756
1.2014592
1.2015097
1.2015388
1.2015546
1.2015626
1.2015664
1.201568
1.2015687
1.2015689
1.201569
1.201569
1.1167574
1.1182729
1.1198955
1.1216296
1.1234792
1.1254483
1.1275401
1.1297576
1.1321029
1.1345776
1.1371821
1.1399158
1.1427767
1.1457612
1.1488634
1.1520752
1.1553852
1.1587787
1.1622368
1.1657359
1.1692474
1.1727376
1.1761681
1.1794964
1.1826777
1.1856676
1.1884247
1.1909142
1.193111
1.1950023
1.1965885
1.197883
1.1989099
1.1997014
1.2002936
1.2007235
1.201026
1.2012321
1.2013676
1.2014535
1.2015056
1.2015357
1.2015522
1.2015606
1.2015647
1.2015664
1.2015672
1.2015674
1.2015675
1.2015675
1.1166663
1.1181794
1.1197993
1.1215306
1.1233772
1.1253431
1.1274315
1.1296454
1.1319869
1.1344576
1.137058
1.1397874
1.142644
1.1456241
1.1487219
1.1519295
1.1552356
1.1586257
1.1620809
1.1655781
1.1690889
1.1725798
1.1760127
1.1793453
1.182533
1.1855313
1.1882988
1.1908003
1.1930103
1.1949154
1.1965153
1.1978229
1.1988618
1.1996639
1.200265
1.2007022
1.2010104
1.2012208
1.2013596
1.2014478
1.2015015
1.2015327
1.2015498
1.2015587
1.2015629
1.2015648
1.2015656
1.2015659
1.201566
1.201566
1.116577
1.1180877
1.1197051
1.1214336
1.1232773
1.1252401
1.1273252
1.1295355
1.1318734
1.1343401
1.1369364
1.1396617
1.142514
1.1454897
1.1485833
1.1517867
1.155089
1.1584756
1.1619281
1.1654234
1.1689334
1.172425
1.1758601
1.1791968
1.1823907
1.1853972
1.1881748
1.190688
1.1929109
1.1948295
1.1964429
1.1977634
1.1988141
1.1996266
1.2002365
1.2006809
1.2009948
1.2012096
1.2013516
1.201442
1.2014973
1.2015296
1.2015474
1.2015567
1.2015612
1.2015632
1.201564
1.2015644
1.2015645
1.2015645
1.1164895
1.1179978
1.1196127
1.1213386
1.1231794
1.1251391
1.1272209
1.1294278
1.131762
1.134225
1.1368173
1.1395385
1.1423866
1.1453581
1.1484475
1.1516468
1.1549453
1.1583285
1.1617783
1.1652716
1.1687808
1.1722729
1.1757102
1.1790509
1.1822507
1.1852652
1.1880527
1.1905773
1.1928128
1.1947445
1.1963712
1.1977044
1.1987668
1.1995895
1.2002081
1.2006597
1.2009792
1.2011983
1.2013435
1.2014363
1.2014932
1.2015265
1.201545
1.2015547
1.2015594
1.2015616
1.2015625
1.2015628
1.201563
1.201563
1.1164037
1.1179097
1.1195222
1.1212454
1.1230834
1.1250401
1.1271187
1.1293223
1.1316529
1.1341121
1.1367005
1.1394177
1.1422616
1.145229
1.1483142
1.1515096
1.1548043
1.1581842
1.1616312
1.1651227
1.168631
1.1721236
1.1755629
1.1789075
1.1821131
1.1851353
1.1879322
1.190468
1.1927158
1.1946605
1.1963002
1.1976459
1.1987198
1.1995526
1.2001799
1.2006385
1.2009636
1.201187
1.2013354
1.2014304
1.2014889
1.2015233
1.2015426
1.2015527
1.2015577
1.20156
1.2015609
1.2015613
1.2015615
1.2015615
1.1163195
1.1178233
1.1194334
1.121154
1.1229893
1.124943
1.1270185
1.1292187
1.1315458
1.1340014
1.136586
1.1392992
1.1421391
1.1451023
1.1481835
1.151375
1.154666
1.1580426
1.1614869
1.1649765
1.1684839
1.1719769
1.1754182
1.1787664
1.1819776
1.1850073
1.1878136
1.1903602
1.1926201
1.1945775
1.1962299
1.1975878
1.1986731
1.1995159
1.2001517
1.2006173
1.200948
1.2011757
1.2013272
1.2014246
1.2014847
1.2015202
1.2015401
1.2015506
1.2015559
1.2015583
1.2015594
1.2015598
1.2015599
1.20156
1.1162369
1.1177386
1.1193462
1.1210643
1.1228969
1.1248477
1.1269202
1.1291171
1.1314408
1.1338928
1.1364736
1.1391829
1.1420189
1.1449781
1.1480553
1.1512429
1.1545303
1.1579037
1.1613453
1.1648329
1.1683394
1.1718328
1.1752759
1.1786276
1.1818442
1.1848812
1.1876966
1.1902539
1.1925255
1.1944953
1.1961603
1.1975303
1.1986267
1.1994795
1.2001237
1.2005962
1.2009325
1.2011643
1.201319
1.2014187
1.2014804
1.2015169
1.2015376
1.2015486
1.2015541
1.2015567
1.2015578
1.2015582
1.2015584
1.2015585
1.1161559
1.1176554
1.1192607
1.1209763