/*--------------------------------*- C++ -*----------------------------------*\
| =========                 |                                                 |
| \\      /  F ield         | OpenFOAM: The Open Source CFD Toolbox           |
|  \\    /   O peration     | Version:  4.0                                   |
|   \\  /    A nd           | Web:      www.OpenFOAM.org                      |
|    \\/     M anipulation  |                                                 |
\*---------------------------------------------------------------------------*/
FoamFile
{
    version     2.0;
    format      ascii;
    class       surfaceScalarField;
    location    "974";
    object      snGradRho;
}
// * * * * * * * * * * * * * * * * * * * * * * * * * * * * * * * * * * * * * //

dimensions      [1 -4 0 0 0 0 0];

internalField   nonuniform List<scalar> 
9850
(
25.406206
-0.97481722
24.575185
-1.0012983
23.592702
-1.0282854
22.455978
-1.0545642
21.16757
-1.0786008
19.736411
-1.0985585
18.178587
-1.112354
16.51767
-1.1177612
14.784418
-1.1125652
13.015716
-1.0947666
11.252707
-1.0628199
9.5381856
-1.015883
7.9135058
-0.95403871
6.415331
-0.87844475
5.0727062
-0.79136724
3.9049097
-0.69606659
2.9204172
-0.5965295
2.1171255
-0.4970741
1.4837419
-0.40188825
1.0020302
-0.31458265
0.64947772
-0.2378409
0.40193419
-0.17322612
0.23586589
-0.12116551
0.13001478
-0.081092475
0.066406069
-0.051696499
0.030760569
-0.031218817
0.012431617
-0.017738093
0.0040069725
-0.009406262
0.00071386554
-0.0046134256
-0.00024784712
-0.0020768071
-0.00034026765
-0.00086098705
-0.00021545856
-0.00034524196
-9.995789e-05
-0.00015881769
-3.6376777e-05
-0.00010569649
-1.0274398e-05
-9.6457441e-05
-2.0635676e-06
-9.7392221e-05
-1.8508653e-07
-9.8934825e-05
6.0497308e-08
-9.9647737e-05
4.3951218e-08
-9.986169e-05
2.5450978e-08
-9.9906795e-05
2.0143587e-08
-9.9913745e-05
1.9436355e-08
-9.9915454e-05
1.9403505e-08
-9.9917113e-05
1.9773808e-08
-9.9918979e-05
2.1947694e-08
-9.9921706e-05
1.5839258e-08
-9.9924353e-05
5.6925129e-09
-9.9934282e-05
-4.078716e-09
-9.9929658e-05
4.7540147e-07
-9.9845352e-05
-0.00010009038
21.385512
-0.28958875
20.850457
-0.29758926
20.295685
-0.30630194
19.714644
-0.31582955
19.098511
-0.32624358
18.436307
-0.33755074
17.715371
-0.34965012
16.922296
-0.36228399
16.044365
-0.37498871
15.071456
-0.38705636
13.998284
-0.39752118
12.826669
-0.40518677
11.56744
-0.40870757
10.241443
-0.40673031
8.8792079
-0.39808717
7.5189587
-0.38201401
6.2030089
-0.35834983
4.9730105
-0.32766497
3.8649132
-0.29127204
2.9046891
-0.2510986
2.1057482
-0.20943813
1.4685323
-0.16863201
0.98218645
-0.13075594
0.62768657
-0.09737914
0.38155666
-0.06943773
0.21935679
-0.047228281
0.11839185
-0.030498149
0.059415659
-0.018594694
0.02737161
-0.010635259
0.011367192
-0.0056674349
0.0041386157
-0.0027986426
0.0012562454
-0.0012827768
0.00028125659
-0.00056002391
2.3894769e-05
-0.00025461626
-1.5817825e-05
-0.00014301357
-1.0379415e-05
-0.00010904137
-3.678678e-06
-0.00010100866
-8.9260173e-07
-9.9796701e-05
-1.3870476e-07
-9.9809398e-05
-1.3410595e-10
-9.9882913e-05
1.4426695e-08
-9.9908152e-05
1.4390042e-08
-9.991363e-05
1.424381e-08
-9.9915189e-05
1.2917038e-08
-9.9915446e-05
1.5899869e-08
-9.9917579e-05
-4.7854422e-09
-9.9918307e-05
1.4424435e-08
-9.9919433e-05
1.4063643e-07
-9.9885615e-05
9.3059827e-08
-9.9892696e-05
-0.00010017497
20.170775
-0.15298419
19.64794
-0.15718655
19.100327
-0.16171388
18.526942
-0.16658797
17.926269
-0.17182931
17.296051
-0.17745348
16.633063
-0.18346444
15.932934
-0.18984332
15.190108
-0.19653125
14.398055
-0.20340564
13.549885
-0.21025113
12.639456
-0.2167293
11.663013
-0.22235547
10.621215
-0.22649469
9.5212027
-0.22839086
8.3781711
-0.22723997
7.2157831
-0.22230864
6.0649169
-0.213083
4.9606027
-0.1994155
3.9375774
-0.1816259
3.0254257
-0.16051676
2.2445229
-0.13728576
1.6037962
-0.11335024
1.1007327
-0.090129242
0.72335907
-0.068840352
0.45341244
-0.050357912
0.26977427
-0.035153637
0.15143254
-0.023313681
0.079579295
-0.014609642
0.038773497
-0.0085972309
0.017302844
-0.0047208276
0.0069619313
-0.0024084025
0.002472958
-0.001145807
0.0007519422
-0.00052300797
0.00018564384
-0.00024979398
3.2923222e-05
-0.00014523285
2.2604498e-06
-0.00011117892
-9.4916251e-07
-0.00010206776
-4.3640565e-07
-0.00010018147
-9.3042884e-08
-9.9919505e-05
-3.9054126e-09
-9.990973e-05
9.6467819e-09
-9.9915559e-05
1.3535604e-08
-9.9918187e-05
7.5528403e-09
-9.9918373e-05
1.4238113e-08
-9.9921007e-05
-7.1241976e-09
-9.992154e-05
7.8283345e-08
-9.9914948e-05
1.2848124e-07
-9.9896622e-05
-3.4740387e-07
-9.998278e-05
-0.00010003332
19.532719
-0.1077987
19.023082
-0.11075366
18.488811
-0.113929
17.929175
-0.11733034
17.343197
-0.12095903
16.729573
-0.12481002
16.086602
-0.12886906
15.412122
-0.13310878
14.703477
-0.13748329
13.957554
-0.14192093
13.170944
-0.14631453
12.340292
-0.15050935
11.462939
-0.15428961
10.537899
-0.1573665
9.5671714
-0.15937329
8.5572208
-0.15987528
7.5202816
-0.15840323
6.4749863
-0.15451536
5.4457959
-0.14788416
4.4609364
-0.13839174
3.5489997
-0.12620621
2.7349049
-0.11180894
2.0362643
-0.09595383
1.4611521
-0.079562131
1.007803
-0.063580014
0.66612126
-0.048838606
0.42034915
-0.035951634
0.25205758
-0.025268198
0.14276472
-0.016878143
0.075805768
-0.010654762
0.037384629
-0.0063168745
0.01692934
-0.0034963222
0.0069423599
-0.0018017537
0.0025342716
-0.00087188845
0.00080571128
-0.00041214402
0.00021650077
-0.00021051969
4.690925e-05
-0.00013349739
7.4537196e-06
-0.00010841542
6.2443359e-07
-0.00010163947
-5.7059712e-08
-0.00010017769
-2.3412364e-08
-9.9942203e-05
1.6518891e-09
-9.9918302e-05
1.3020445e-08
-9.9919257e-05
9.3221145e-10
-9.992043e-05
1.3021039e-08
-9.9922879e-05
6.5696895e-09
-9.9921807e-05
1.1288785e-07
-9.991296e-05
-1.9413687e-08
-9.992306e-05
-4.2627423e-07
-0.00010000221
-9.9991232e-05
19.084059
-0.083750329
18.584825
-0.08604283
18.06207
-0.088504606
17.51533
-0.091138416
16.943954
-0.09394318
16.347045
-0.096912299
15.723398
-0.10003144
15.071463
-0.10327567
14.389341
-0.10660593
13.67483
-0.10996462
12.925567
-0.11327053
12.139282
-0.11641305
11.314213
-0.1192463
10.449722
-0.12158397
9.547121
-0.12319681
8.6106688
-0.12381562
7.6486033
-0.12314387
6.673944
-0.12088437
5.704692
-0.11678189
4.7630522
-0.1106792
3.8734815
-0.1025753
3.0597384
-0.092668462
2.3415435
-0.081364543
1.7317282
-0.069239629
1.2346726
-0.056961198
0.84641085
-0.045188136
0.55621596
-0.034477416
0.34905274
-0.025220615
0.20816726
-0.017620033
0.11724672
-0.011700102
0.061879141
-0.0073416837
0.030306908
-0.0043264171
0.013615365
-0.0023824576
0.0055334445
-0.0012269402
0.0020013819
-0.00060170947
0.00063171175
-0.00029824347
0.0001698222
-0.00016827195
3.7638646e-05
-0.00012004468
6.5439493e-06
-0.00010485891
8.0980928e-07
-0.00010089874
5.6568445e-08
-0.00010006969
-1.2508498e-09
-9.9936528e-05
9.7743497e-09
-9.9922294e-05
-5.2227954e-09
-9.9922512e-05
1.5470815e-08
-9.9923303e-05
2.4947299e-08
-9.9920752e-05
9.3816189e-08
-9.9915288e-05
-1.5528104e-07
-9.9944922e-05
-4.0914278e-07
-9.9995944e-05
-9.9948841e-05
18.735983
-0.068534305
18.245052
-0.0704084
17.731625
-0.072420941
17.195451
-0.074574401
16.636138
-0.076868225
16.053095
-0.0792975
15.445473
-0.081851195
14.812124
-0.084509908
14.151582
-0.087243052
13.462098
-0.090005472
12.741746
-0.092733544
11.988628
-0.095341002
11.201218
-0.097714915
10.378855
-0.099712599
9.5224048
-0.10116063
8.6350587
-0.10185766
7.7231798
-0.10158313
6.7970315
-0.10011414
5.8711369
-0.097251964
4.9639722
-0.092857586
4.0967592
-0.086891603
3.2913288
-0.079449169
2.567358
-0.070777421
1.9396011
-0.061264322
1.4158595
-0.05139553
0.99625452
-0.04168729
0.67393951
-0.032612838
0.43692102
-0.024541985
0.27038079
-0.017707232
0.1588838
-0.012199104
0.08806461
-0.0079841318
0.045653262
-0.0049350601
0.021907722
-0.0028644871
0.0096121779
-0.0015571367
0.0038009931
-0.00079883876
0.0013323608
-0.00040046681
0.00040615758
-0.00021389919
0.0001052869
-0.00013735217
2.2580738e-05
-0.00011035153
3.8617201e-06
-0.00010233043
5.0216235e-07
-0.00010036961
4.2048376e-08
-9.9986131e-05
9.1733513e-09
-9.9928748e-05
-7.2118381e-09
-9.9923512e-05
2.1300155e-08
-9.9922201e-05
3.6297234e-08
-9.9919676e-05
3.7858951e-08
-9.9920972e-05
-2.428641e-07
-9.9954493e-05
-3.356422e-07
-9.9976605e-05
-9.990752e-05
18.451435
-0.057684693
17.967283
-0.059260649
17.461447
-0.06095303
16.933844
-0.062764131
16.384289
-0.064693882
15.812433
-0.066738803
15.217709
-0.068890635
14.599284
-0.071134567
13.956033
-0.073447004
13.286549
-0.07579286
12.589222
-0.078122404
11.862399
-0.080367817
11.104658
-0.082439825
10.31523
-0.084224998
9.494564
-0.08558468
8.6450265
-0.086356862
7.7716649
-0.086362593
6.8829061
-0.085418512
5.990989
-0.083356541
5.1118868
-0.08005035
4.2644948
-0.075445713
3.4689923
-0.06958882
2.7445301
-0.062643971
2.1066791
-0.054892002
1.5652689
-0.046704683
1.1232067
-0.038497812
0.77658074
-0.030673726
0.51593576
-0.023568237
0.32826662
-0.01741491
0.1991505
-0.012332534
0.11454365
-0.0083334081
0.061999151
-0.0053448024
0.031289681
-0.003235317
0.014558984
-0.0018405928
0.0061634147
-0.00098631313
0.0023381074
-0.00050809475
0.0007812725
-0.00026721623
0.00022556706
-0.00015989974
5.5062342e-05
-0.00011838007
1.1079846e-05
-0.00010469895
1.7854226e-06
-0.00010093784
2.1660713e-07
-0.00010009454
2.365151e-08
-9.9944296e-05
-3.9170593e-09
-9.9924159e-05
2.7070941e-08
-9.992024e-05
3.3603935e-08
-9.991872e-05
-2.5438389e-08
-9.9926318e-05
-2.8082153e-07
-9.9954995e-05
-2.2783999e-07
-9.995746e-05
-9.9901652e-05
18.212153
-0.049718107
17.733702
-0.051075318
17.234222
-0.052532924
16.713759
-0.054093171
16.172286
-0.055756405
15.609642
-0.057520239
15.025478
-0.059378433
14.419207
-0.06131946
13.789972
-0.063324693
13.136645
-0.065366181
12.457877
-0.067404051
11.752223
-0.069383621
11.018369
-0.071232505
10.255487
-0.07285815
9.4637215
-0.074146568
8.6448184
-0.074963317
7.8028249
-0.07515804
6.9447719
-0.074573934
6.081162
-0.073063108
5.2260496
-0.070507706
4.3964958
-0.066844841
3.6112757
-0.062090914
2.8889028
-0.056358822
2.2452898
-0.049860963
1.6915723
-0.042893244
1.2326662
-0.03580058
0.86694494
-0.028930783
0.58707271
-0.022588324
0.38167814
-0.016999471
0.23735518
-0.012295752
0.14049759
-0.0085159761
0.07865223
-0.0056216297
0.041298661
-0.0035183989
0.020131933
-0.0020779744
0.0089993408
-0.001157317
0.0036366327
-0.00061505045
0.0013071717
-0.00032512918
0.00041052534
-0.00018679461
0.00011046434
-0.00012895552
2.4925176e-05
-0.00010816712
4.6073853e-06
-0.00010187043
6.7365049e-07
-0.000100296
7.9335679e-08
-9.9977814e-05
5.9328568e-09
-9.9926897e-05
3.0546098e-08
-9.9918752e-05
1.781895e-08
-9.9918659e-05
-7.9588513e-08
-9.9929734e-05
-2.8505248e-07
-9.9951251e-05
-1.4075604e-07
-9.9941373e-05
-9.989806e-05
18.006085
-0.043583666
17.532524
-0.044772499
17.038469
-0.046049324
16.52407
-0.047416277
15.989425
-0.048873951
15.434525
-0.050420701
14.859196
-0.052051734
14.263052
-0.053757923
13.645457
-0.055524305
13.00551
-0.057328232
12.342082
-0.059137176
11.653911
-0.060906274
10.939791
-0.062575782
10.198875
-0.064068816
9.4310988
-0.065289962
8.6377483
-0.066125603
7.8221037
-0.066447081
6.9901016
-0.066117875
6.150858
-0.065005748
5.3168631
-0.063000027
4.5036386
-0.060032654
3.7287126
-0.056099721
3.009919
-0.051278191
2.3632528
-0.04573176
1.800728
-0.039701159
1.3287751
-0.033478097
0.94760529
-0.027367446
0.65168393
-0.021646625
0.43111031
-0.016532319
0.27346434
-0.01216178
0.16563296
-0.0085905381
0.095255932
-0.0058032293
0.051635601
-0.0037314775
0.026137902
-0.0022730581
0.012215085
-0.0013089162
0.005199537
-0.00071721138
0.0019850735
-0.000384899
0.00066818196
-0.0002169222
0.00019464742
-0.00014188185
4.8104436e-05
-0.00011281947
9.8759685e-06
-0.00010325233
1.6415693e-06
-0.00010062836
2.2013456e-07
-0.00010004041
2.6406568e-08
-9.9934433e-05
3.07589e-08
-9.9918182e-05
-5.1859561e-09
-9.9919111e-05
-1.2021981e-07
-9.993082e-05
-2.6809657e-07
-9.9945108e-05
-7.3169271e-08
-9.9928544e-05
-9.9896528e-05
17.825581
-0.03875007
17.356298
-0.039806302
16.866968
-0.040940764
16.357825
-0.042155497
15.82907
-0.043451255
15.280815
-0.044826925
14.713031
-0.046278759
14.125498
-0.04779938
13.517759
-0.049376512
12.889106
-0.050991419
12.238598
-0.052617026
11.565137
-0.054215799
10.867624
-0.055737512
10.145218
-0.057117175
9.3977216
-0.058273609
8.6260759
-0.059109353
7.8329694
-0.059512843
7.023469
-0.059363899
6.205562
-0.058543448
5.3904332
-0.056947797
4.592278
-0.054506629
3.8274943
-0.051202193
3.1132158
-0.047085396
2.4653504
-0.042283509
1.8965007
-0.03699494
1.4142635
-0.031469476
1.02036
-0.025976907
0.71080903
-0.020771153
0.47704103
-0.016058789
0.30758133
-0.011979162
0.18983877
-0.0085989908
0.11161113
-0.0059195625
0.062101678
-0.0038916006
0.032427545
-0.0024323735
0.015724007
-0.0014412509
0.0069909629
-0.00081231673
0.0028082356
-0.00044439886
0.0010024652
-0.00024914288
0.00031233613
-0.00015681414
8.3322842e-05
-0.00011865753
1.8656714e-05
-0.00010514728
3.4300931e-06
-0.00010112986
5.1318167e-07
-0.00010014577
6.725724e-08
-9.995045e-05
2.8635413e-08
-9.9919225e-05
-2.95083e-08
-9.9919719e-05
-1.4719993e-07
-9.9930356e-05
-2.3966402e-07
-9.9938632e-05
-2.3210772e-08
-9.9920275e-05
-9.9900819e-05
17.665211
-0.034838201
17.199721
-0.035787173
16.714564
-0.036806457
16.210046
-0.037897992
15.68645
-0.039062627
15.143993
-0.040299627
14.582764
-0.041606019
14.002681
-0.042975748
13.403441
-0.044398587
12.7845
-0.045858794
12.145078
-0.047333491
11.484222
-0.048790805
10.800936
-0.050187891
10.094406
-0.051469033
9.3643403
-0.052564226
8.6114258
-0.053388819
7.8378854
-0.053844986
7.0480852
-0.053825972
6.2490818
-0.053223957
5.4509571
-0.051941976
4.6667525
-0.04990941
3.9118377
-0.047099137
3.2026462
-0.043542822
2.5548855
-0.039339745
1.9815373
-0.034654836
1.4911049
-0.029703774
1.0865642
-0.024726852
0.7652874
-0.019957219
0.5199145
-0.015591294
0.33987297
-0.011768341
0.21310772
-0.008562752
0.12762063
-0.0059882985
0.072573551
-0.0040104058
0.038893198
-0.0025614889
0.019453706
-0.0015554099
0.0089743305
-0.00089919869
0.0037650779
-0.00050205221
0.0014137634
-0.00028239966
0.00046685208
-0.000173319
0.00013305658
-0.0001256067
3.2100395e-05
-0.00010759022
6.4236791e-06
-0.00010183448
1.0532926e-06
-0.00010030881
1.457479e-07
-9.9979334e-05
2.7506051e-08
-9.9922791e-05
-5.1602402e-08
-9.9920414e-05
-1.6282821e-07
-9.9929049e-05
-2.0815379e-07
-9.9932752e-05
7.149349e-09
-9.9914973e-05
-9.9903941e-05
17.521126
-0.031613929
17.05904
-0.032474541
16.577617
-0.033398938
16.077221
-0.034388964
15.558207
-0.035445522
15.020877
-0.036568153
14.465423
-0.037754473
13.891879
-0.038999436
13.300074
-0.040294399
12.689605
-0.041625942
12.059832
-0.042974461
11.409934
-0.044312524
10.73901
-0.045603102
10.046284
-0.046797832
9.3314044
-0.047835639
8.594863
-0.048642203
7.838513
-0.049130927
7.0661476
-0.049206252
6.2840465
-0.048770078
5.5013505
-0.047731824
4.7300896
-0.046021843
3.9846982
-0.043606783
3.2809243
-0.040503986
2.6342007
-0.036790923
2.0577339
-0.03260559
1.5607324
-0.028135429
1.1472221
-0.023595518
0.81576068
-0.019200446
0.56009055
-0.015136648
0.37049677
-0.011541872
0.23546504
-0.0084957533
0.14323486
-0.0060216423
0.082971435
-0.0040966139
0.045456421
-0.0026652023
0.023345163
-0.0016529294
0.011115263
-0.00097742286
0.0048414745
-0.00055676415
0.0018996865
-0.00031578268
0.00066006399
-0.00019093134
0.00019937856
-0.00013353321
5.1361125e-05
-0.00011058535
1.106471e-05
-0.00010276836
1.964394e-06
-0.00010054431
2.8788366e-07
-0.00010002598
3.2937795e-08
-9.9929873e-05
-6.95394e-08
-9.9921267e-05
-1.69822e-07
-9.9927303e-05
-1.7763425e-07
-9.9927687e-05
2.4363848e-08
-9.9911627e-05
-9.9906388e-05
17.390457
-0.028911074
16.931455
-0.029697647
16.453406
-0.030542532
15.956722
-0.031447476
15.441821
-0.032413413
14.909077
-0.033440088
14.358771
-0.034525571
13.791036
-0.035665609
13.205816
-0.036852806
12.602829
-0.038075591
11.981562
-0.039316968
11.341309
-0.04055306
10.681261
-0.041751513
10.000683
-0.042869901
9.2991886
-0.043854407
8.5771181
-0.044639168
7.8360268
-0.045146895
7.0792342
-0.045291458
6.3123639
-0.0449832
5.543746
-0.044137484
4.7845196
-0.042686396
4.0482671
-0.040592535
3.3500765
-0.037862493
2.7050581
-0.03455654
2.1265295
-0.030790741
1.624246
-0.026728879
1.2031166
-0.022564263
0.86274115
-0.018494803
0.59786865
-0.014697259
0.39959712
-0.011306911
0.25695095
-0.0084068823
0.15843177
-0.0060279727
0.093243696
-0.0041566812
0.052060049
-0.0027474695
0.027351046
-0.0017354422
0.013382946
-0.0010470092
0.0060223924
-0.00060782719
0.0024558636
-0.00034855289
0.0008924989
-0.00020919721
0.00028385385
-0.00014226392
7.7519519e-05
-0.00011410802
1.7830196e-05
-0.00010394757
3.3977199e-06
-0.00010086569
5.2947724e-07
-0.00010009574
5.2603085e-08
-9.9941807e-05
-8.2076302e-08
-9.9922625e-05
-1.7054673e-07
-9.9925529e-05
-1.5006623e-07
-9.992361e-05
3.2538835e-08
-9.9909839e-05
-9.9908769e-05
17.27103
-0.026614644
16.814845
-0.027338333
16.339869
-0.02811568
15.846559
-0.028948347
15.335383
-0.029837276
14.806781
-0.030782371
14.261107
-0.031782053
13.698585
-0.032832702
13.119256
-0.033927923
12.522947
-0.035057635
11.909257
-0.036206953
11.277583
-0.037354888
10.627202
-0.038472898
9.9574251
-0.039523423
9.2678437
-0.040458622
8.5586833
-0.041219658
7.8312554
-0.041737041
7.088483
-0.041932671
6.3354299
-0.04172426
5.5797228
-0.041032655
4.8317105
-0.039792111
4.1041992
-0.037962701
3.4116465
-0.035542897
2.7688128
-0.032579275
2.1890414
-0.029169861
1.6825093
-0.025458444
1.25487
-0.021619402
0.90664353
-0.017835623
0.63349838
-0.014274588
0.42730184
-0.011068474
0.27761011
-0.0083025965
0.17320446
-0.0060135944
0.10335664
-0.0041957036
0.058662076
-0.0028116641
0.031433585
-0.001804598
0.015750483
-0.0011082852
0.0072929534
-0.00065484818
0.0030766533
-0.00038014787
0.0011635466
-0.0002277058
0.00038750087
-0.000151607
0.00011151995
-0.00011811003
2.7205196e-05
-0.00010537721
5.5268374e-06
-0.00010128387
9.1643244e-07
-0.00010019401
9.643515e-08
-9.9960176e-05
-8.8107688e-08
-9.9924919e-05
-1.6692222e-07
-9.9923963e-05
-1.2642815e-07
-9.9920414e-05
3.4208726e-08
-9.9908913e-05
-9.9910129e-05
17.16115
-0.024640552
16.707556
-0.025310195
16.235401
-0.026029495
15.745178
-0.026800029
15.237403
-0.027622745
14.71257
-0.028497659
14.171101
-0.029423479
13.613296
-0.030397092
13.039285
-0.031412921
12.44899
-0.032462103
11.842109
-0.033531488
11.218135
-0.034602467
10.576424
-0.035649652
9.9163333
-0.036639523
9.2374463
-0.037529228
8.5398979
-0.038265827
7.8247985
-0.038786442
7.094736
-0.039019865
6.3542927
-0.038890271
5.6104797
-0.038323533
4.8729412
-0.037256295
4.1537752
-0.035647172
3.4668411
-0.033488474
2.8265339
-0.030815776
2.2461599
-0.027712139
1.7362177
-0.024304325
1.3029903
-0.020750162
0.94781169
-0.01721897
0.66719197
-0.013869413
0.45372497
-0.010830165
0.29748848
-0.0081877621
0.18755558
-0.0059834318
0.11328895
-0.0042178365
0.065231738
-0.0028607224
0.035562852
-0.0018620251
0.018194866
-0.0011617908
0.0086391088
-0.00069768609
0.0037557391
-0.00041017463
0.0014717103
-0.00024611001
0.00051080938
-0.0001613705
0.00015412844
-0.00012252689
3.9657021e-05
-0.00010705203
8.5405937e-06
-0.00010180658
1.5042374e-06
-0.00010032589
1.7700054e-07
-9.9986749e-05
-8.6121692e-08
-9.9928641e-05
-1.6022053e-07
-9.9922746e-05
-1.0668555e-07
-9.9917939e-05
3.2310733e-08
-9.990847e-05
-9.9910854e-05
17.059476
-0.022926549
16.608279
-0.023549275
16.138727
-0.02421818
15.651348
-0.024934769
15.146698
-0.025699979
14.62532
-0.026513921
14.087694
-0.027375526
13.53419
-0.028282104
12.965014
-0.029228747
12.380176
-0.030207603
11.779462
-0.031206967
11.162452
-0.032210214
10.528577
-0.033194596
9.8772404
-0.034129989
9.2080251
-0.034977749
8.5209951
-0.035689944
7.8170942
-0.036209349
7.0986242
-0.036470722
6.3697499
-0.036403933
5.6369397
-0.035939454
4.9092072
-0.035016397
4.1980018
-0.033592671
3.5166174
-0.031655892
2.8790783
-0.029232726
2.298606
-0.026393724
1.7859407
-0.023251047
1.3478983
-0.019947983
0.98653501
-0.016641586
0.69913193
-0.013482179
0.47896852
-0.010594696
0.31663154
-0.0080661645
0.20149386
-0.0059414232
0.12302802
-0.0042265205
0.071746805
-0.0028972042
0.039715375
-0.0019092811
0.020696757
-0.0012081913
0.010048045
-0.00073638794
0.0044866
-0.00043838809
0.0018148647
-0.00026413394
0.00065379981
-0.00017137569
0.00020591276
-0.00012728517
5.5613517e-05
-0.00010895808
1.2635113e-05
-0.00010243812
2.3567622e-06
-0.00010049594
3.097844e-07
-0.00010002344
-7.3877866e-08
-9.9934379e-05
-1.5114361e-07
-9.9922031e-05
-9.0431014e-08
-9.9916076e-05
2.8591159e-08
-9.9908324e-05
-9.9911193e-05
16.964926
-0.021425323
16.515957
-0.022006961
16.048822
-0.022631733
15.564077
-0.023301074
15.062315
-0.024015908
14.544121
-0.024776415
14.01003
-0.025581715
13.460471
-0.02642946
12.895722
-0.027315308
12.315868
-0.028232251
11.720777
-0.0291698
11.110109
-0.030113004
10.483364
-0.03104135
9.8399905
-0.031927593
9.1795786
-0.032736679
8.5021362
-0.033424963
7.8084674
-0.033940102
7.1006281
-0.03422205
6.3824181
-0.034205721
5.6598251
-0.033825782
4.9412948
-0.033023818
4.2376818
-0.031757561
3.5617465
-0.03001105
2.9271424
-0.027803683
2.3469717
-0.025195476
1.8321508
-0.022286
1.3899475
-0.019205707
1.0230601
-0.016100527
0.72947696
-0.013112935
0.50312423
-0.010364009
0.33508342
-0.007940708
0.21503195
-0.0058907057
0.13256762
-0.0042245972
0.078191586
-0.0029233247
0.043872972
-0.0019478166
0.023240149
-0.0012482126
0.011508378
-0.0007711333
0.0052628524
-0.0004646653
0.0021904912
-0.00028157227
0.00081610511
-0.00018146585
0.00026724162
-0.00013230904
7.5447069e-05
-0.00011107492
1.8005786e-05
-0.0001031794
3.5445015e-06
-0.00010070791
5.1330299e-07
-0.0001000722
-4.82268e-08
-9.994278e-05
-1.399005e-07
-9.9921954e-05
-7.7122963e-08
-9.991471e-05
2.4113964e-08
-9.9908297e-05
-9.9911143e-05
16.876615
-0.020100318
16.429727
-0.020645699
15.964845
-0.021231523
15.482552
-0.021859164
14.983471
-0.02252953
14.468229
-0.023242854
13.937406
-0.023998409
13.391487
-0.024794138
12.830812
-0.025626171
12.255537
-0.02648822
11.665604
-0.027370825
11.060746
-0.028260464
10.440526
-0.02913853
9.80444
-0.02998025
9.1520871
-0.030753651
8.4834323
-0.031418797
7.7991616
-0.031927584
7.101118
-0.032224528
6.3927806
-0.03224903
5.6797082
-0.031939586
4.9698333
-0.031240202
4.2734636
-0.030108807
3.6028565
-0.028526717
2.9712992
-0.026507365
2.3917484
-0.024101837
1.8752443
-0.021398779
1.4294376
-0.018517266
1.0575988
-0.015593132
0.75836588
-0.012761477
0.52627464
-0.01013948
0.35288625
-0.0078136213
0.22818484
-0.0058337785
0.14190596
-0.0042144067
0.084555377
-0.0029409826
0.048021757
-0.0019789497
0.025811983
-0.0012825902
0.01301021
-0.00080218695
0.0060784795
-0.00048897835
0.0025958742
-0.00029828402
0.00099706032
-0.00019151056
0.00033829843
-0.00013752543
9.9465011e-05
-0.0001133779
2.4840142e-05
-0.00010402838
5.1425178e-06
-0.00010096469
8.0905254e-07
-0.00010013494
-4.965635e-09
-9.9954544e-05
-1.2622322e-07
-9.9922672e-05
-6.6114737e-08
-9.9913765e-05
1.9673888e-08
-9.9908312e-05
-9.9910876e-05
16.793808
-0.018922822
16.348872
-0.019435988
15.8861
-0.019987209
15.406098
-0.020577796
14.909519
-0.02120864
14.397025
-0.021880018
13.869238
-0.02259133
13.326694
-0.023340764
12.769789
-0.024124852
12.198742
-0.024937919
11.613565
-0.025771391
11.014056
-0.026612971
10.39984
-0.027445697
9.7704574
-0.028246927
9.1255198
-0.028987364
8.464959
-0.029630297
7.7893607
-0.030131336
7.1003829
-0.030439022
6.4012204
-0.030496766
5.697048
-0.030246563
4.9953324
-0.029634757
4.3058769
-0.028619734
3.6404649
-0.027180746
3.0120246
-0.025326303
2.4333483
-0.023099875
1.9155569
-0.020580584
1.4666254
-0.017877381
1.0903348
-0.015116909
0.78592088
-0.01242735
0.54849416
-0.0099220104
0.37007979
-0.0076865671
0.24096878
-0.0057725957
0.15104445
-0.0041978438
0.090831261
-0.0029517739
0.052151301
-0.0020038455
0.028401735
-0.0013120298
0.014545073
-0.00082985822
0.0069279682
-0.00051136695
0.0030282556
-0.00031418183
0.0011957895
-0.00020140609
0.00041910452
-0.00014286739
0.00012790599
-0.00011584034
3.3312111e-05
-0.00010498059
7.228292e-06
-0.00010126821
1.2212858e-06
-0.00010021347
6.1239459e-08
-9.9970428e-05
-1.0940312e-07
-9.9924382e-05
-5.6754565e-08
-9.9913208e-05
1.5673061e-08
-9.9908339e-05
-9.9910497e-05
16.715893
-0.017869971
16.272793
-0.01835434
15.812003
-0.018874626
15.334151
-0.019432086
14.839916
-0.020027592
14.32999
-0.020661454
13.805037
-0.021333178
13.265634
-0.02204116
12.712233
-0.022782279
12.145109
-0.023551388
11.564336
-0.024340677
10.969777
-0.025138912
10.361112
-0.025930557
9.7379232
-0.026694828
9.0998397
-0.027404763
8.446767
-0.02802648
7.7792053
-0.028518862
7.0986504
-0.028834021
6.4080444
-0.028918967
5.7122165
-0.028718896
5.0182088
-0.02818239
4.3353583
-0.02726847
3.6750021
-0.025954841
3.0497178
-0.02424593
2.4721201
-0.022178677
1.9533749
-0.019823856
1.5017317
-0.017281371
1.1214281
-0.014669488
0.81224991
-0.012109907
0.56984992
-0.0097121136
0.38670129
-0.0075607471
0.25340047
-0.0057086645
0.15998664
-0.0041764276
0.097015135
-0.002957024
0.0562539
-0.0020235132
0.03100102
-0.0013371825
0.016105824
-0.00085447185
0.0078063716
-0.00053191615
0.0034849432
-0.00032922131
0.0014112812
-0.00021107381
0.00050954651
-0.00014827609
0.00016094104
-0.00011843519
4.3577881e-05
-0.00010602974
9.8796582e-06
-0.00010161954
1.7766546e-06
-0.00010030942
1.5688926e-07
-9.9991223e-05
-8.8302909e-08
-9.9927309e-05
-4.839746e-08
-9.9913035e-05
1.2305607e-08
-9.9908368e-05
-9.9910058e-05
16.64235
-0.016923365
16.200983
-0.017381849
15.742063
-0.017874327
15.266234
-0.018402008
14.774201
-0.018965742
14.266687
-0.019565866
13.744386
-0.020201975
13.20792
-0.020872645
12.657788
-0.021575053
12.094319
-0.02230451
11.517644
-0.023053872
10.927682
-0.023812831
10.32417
-0.0245671
9.7067293
-0.025297521
9.0750071
-0.025979186
8.4288893
-0.026580706
7.7688033
-0.027063863
7.0961017
-0.027383961
6.4135011
-0.027491252
5.7255181
-0.027333865
5.0388064
-0.026862515
4.3622715
-0.026036983
3.7068289
-0.024833822
3.0847163
-0.023254057
2.5083607
-0.021329003
1.9889444
-0.019122088
1.5349484
-0.016725105
1.1510187
-0.014248659
0.83744872
-0.011808382
0.59040248
-0.0095100234
0.40278532
-0.0074370056
0.26549653
-0.0056431257
0.16873746
-0.0041513562
0.10310495
-0.0029578152
0.060323972
-0.0020388095
0.033603212
-0.0013586305
0.017686492
-0.00087634586
0.0087093191
-0.0005507375
0.003963384
-0.0003433903
0.0016424511
-0.00022045696
0.0006094046
-0.00015370155
0.00019867808
-0.00012113641
5.5773328e-05
-0.00010716833
1.3172964e-05
-0.00010201893
2.5037726e-06
-0.00010042427
2.896563e-07
-0.00010001775
-6.1349288e-08
-9.9931719e-05
-4.0386873e-08
-9.9913277e-05
9.6694651e-09
-9.9908416e-05
-9.9909621e-05
16.572737
-0.01606799
16.133012
-0.016503088
15.675859
-0.016970444
15.201941
-0.017471218
14.711985
-0.018006242
14.206739
-0.018575872
13.686931
-0.01917978
13.153221
-0.019816695
12.606151
-0.020484056
12.046098
-0.021177573
11.473248
-0.021890684
10.887575
-0.022613897
10.288864
-0.023334022
9.6767775
-0.024033337
9.0509812
-0.024688748
8.4113465
-0.025271079
7.7582383
-0.025744699
7.0928826
-0.026067768
6.4177937
-0.026193471
5.7372043
-0.026072633
5.0574121
-0.025657989
4.3869214
-0.024910162
3.7362504
-0.023804872
3.1173073
-0.022340304
2.542325
-0.020542898
2.0224783
-0.018469585
1.5664426
-0.016204867
1.1792301
-0.013852332
0.86160255
-0.011521921
0.61020655
-0.0093157559
0.41836391
-0.0073159078
0.27727312
-0.0055768314
0.17730269
-0.0041235668
0.10910015
-0.0029550235
0.064357563
-0.0020504522
0.036203106
-0.0013768842
0.01928212
-0.00089577935
0.0096329916
-0.00056795503
0.0044612051
-0.00035669935
0.00188819
-0.00022951694
0.00071837896
-0.00015910249
0.00024116859
-0.00012391972
7.001286e-05
-0.00010838814
1.7181533e-05
-0.00010246596
3.4327327e-06
-0.00010055928
4.6835585e-07
-0.00010005082
-2.6526085e-08
-9.9937914e-05
-3.2042549e-08
-9.9913996e-05
7.7900209e-09
-9.9908515e-05
-9.9909229e-05
16.506675
-0.01529152
16.068508
-0.015705392
15.61303
-0.016149947
15.140923
-0.0166263
14.65293
-0.017135262
14.149826
-0.017677204
13.632369
-0.018251865
13.101252
-0.018858107
12.557057
-0.019493597
12.00021
-0.020154397
11.430944
-0.02083446
10.849283
-0.021525009
10.255062
-0.022213829
9.6479793
-0.02288447
9.0277217
-0.023515453
8.3941501
-0.024079575
7.7475752
-0.024543519
7.0891111
-0.024868019
6.4210894
-0.025008924
5.7474845
-0.024919538
5.0742664
-0.02455451
4.4095661
-0.023875352
3.7635266
-0.022857203
3.1477373
-0.021495864
2.5742332
-0.019813541
2.0541619
-0.017861405
1.5963611
-0.015717369
1.2061713
-0.013478578
0.8847875
-0.011249649
0.62931161
-0.0091291857
0.43346656
-0.0071978133
0.28874575
-0.0055104097
0.18568852
-0.0040937873
0.11500118
-0.0029493529
0.06835195
-0.0020590367
0.038796641
-0.0013923831
0.020888607
-0.00091304489
0.010574075
-0.00058369594
0.0049762329
-0.00036917448
0.0021473986
-0.00023822983
0.00083611281
-0.0001644458
0.00028841522
-0.00012676322
8.6389361e-05
-0.00010968071
2.197446e-05
-0.00010295964
4.5946154e-06
-0.00010071548
7.0288827e-07
-0.00010009126
1.8638082e-08
-9.9946229e-05
-2.2633615e-08
-9.9915279e-05
6.6760058e-09
-9.9908706e-05
-9.9908914e-05
16.443836
-0.014583708
16.007151
-0.014978236
15.553266
-0.01540201
15.082876
-0.015856102
14.596746
-0.016341308
14.09567
-0.016858006
13.580434
-0.017405994
13.051764
-0.017984249
12.51028
-0.018590639
11.956449
-0.019221538
11.39055
-0.019871352
10.812656
-0.020531945
10.222645
-0.021191965
9.6202545
-0.021836096
9.0051895
-0.022444302
8.3773049
-0.02299115
7.7368649
-0.023445405
7.0848835
-0.023770127
6.4235273
-0.023923593
5.7565347
-0.023861393
5.0895731
-0.023539983
4.4304256
-0.022921796
3.7888802
-0.021981586
3.1762189
-0.020713153
2.6042765
-0.019135009
2.0841571
-0.017293188
1.6248329
-0.015259645
1.2319394
-0.013125604
0.9070718
-0.010990679
0.6477625
-0.008950081
0.44812047
-0.0070829239
0.2999291
-0.0054443135
0.19390135
-0.00406258
0.12080921
-0.0029413677
0.072305333
-0.0020650556
0.041380652
-0.001405504
0.022502566
-0.00092838768