/*--------------------------------*- C++ -*----------------------------------*\
| =========                 |                                                 |
| \\      /  F ield         | OpenFOAM: The Open Source CFD Toolbox           |
|  \\    /   O peration     | Version:  4.0                                   |
|   \\  /    A nd           | Web:      www.OpenFOAM.org                      |
|    \\/     M anipulation  |                                                 |
\*---------------------------------------------------------------------------*/
FoamFile
{
    version     2.0;
    format      ascii;
    class       volScalarField;
    location    "974";
    object      T;
}
// * * * * * * * * * * * * * * * * * * * * * * * * * * * * * * * * * * * * * //

dimensions      [0 0 0 1 0 0 0];

internalField   nonuniform List<scalar> 
5000
(
306.02269
305.35811
304.65409
303.91409
303.14309
302.34772
301.53622
300.7184
299.90536
299.10908
298.34193
297.61596
296.94219
296.32991
295.78599
295.31449
294.91639
294.58966
294.32962
294.12945
293.98092
293.87511
293.80311
293.75666
293.72849
293.71267
293.70461
293.70103
293.69976
293.69951
293.6996
293.69975
293.69985
293.6999
293.69992
293.69992
293.69993
293.69993
293.69993
293.69993
293.69993
293.69993
293.69993
293.69993
293.69993
293.69993
293.69993
293.69993
293.69993
293.69993
309.95207
309.37801
308.76467
308.11058
307.41469
306.67652
305.89651
305.07629
304.2191
303.33017
302.41701
301.48965
300.56061
299.64457
298.75773
297.91678
297.13765
296.43407
295.81632
295.29021
294.85666
294.51181
294.24781
294.05386
293.91767
293.82667
293.76915
293.735
293.71616
293.70661
293.70225
293.7005
293.69992
293.69977
293.69976
293.69977
293.69978
293.69978
293.69978
293.69978
293.69978
293.69978
293.69978
293.69978
293.69978
293.69978
293.69978
293.69978
293.69978
293.69978
311.1385
310.59285
310.01027
309.38965
308.73016
308.03126
307.2929
306.51563
305.70079
304.85085
303.96961
303.06265
302.13756
301.20427
300.27506
299.36432
298.48797
297.66239
296.9031
296.22322
295.63209
295.13428
294.72925
294.41166
294.17233
293.99956
293.88054
293.8027
293.75465
293.72688
293.71199
293.70469
293.70146
293.70019
293.69977
293.69966
293.69963
293.69963
293.69963
293.69963
293.69963
293.69963
293.69963
293.69963
293.69963
293.69963
293.69963
293.69963
293.69963
293.69963
311.76869
311.23813
310.67169
310.06835
309.42728
308.74802
308.03046
307.27505
306.48287
305.65587
304.79701
303.91053
303.00222
302.07964
301.15234
300.23187
299.33165
298.46647
297.6516
296.90163
296.22904
295.64289
295.14782
294.74356
294.42523
294.18416
294.00913
293.88774
293.80773
293.75789
293.72879
293.71301
293.70514
293.7016
293.70017
293.69968
293.69953
293.69949
293.69949
293.69949
293.69949
293.69949
293.69949
293.69949
293.69949
293.69949
293.69949
293.69949
293.69949
293.69949
312.21412
311.69424
311.13921
310.54799
309.91976
309.25398
308.55049
307.8096
307.0322
306.21992
305.3753
304.50199
303.60495
302.69069
301.7674
300.8451
299.93558
299.05212
298.20899
297.42051
296.69997
296.05832
295.503
295.03711
294.65916
294.3634
294.14076
293.98002
293.86915
293.79646
293.75145
293.72531
293.71124
293.70428
293.70117
293.69993
293.69951
293.69938
293.69935
293.69934
293.69934
293.69934
293.69934
293.69934
293.69934
293.69934
293.69934
293.69934
293.69934
293.69934
312.56094
312.0494
311.50325
310.92147
310.3032
309.64788
308.95525
308.22551
307.45939
306.65827
305.82438
304.96092
304.07231
303.16436
302.24445
301.32162
300.40664
299.5118
298.65052
297.8367
297.08374
296.40343
295.80477
295.29298
294.86899
294.5294
294.26708
294.07217
293.93333
293.83888
293.77786
293.74067
293.71946
293.70827
293.70287
293.70052
293.69961
293.69931
293.69922
293.6992
293.69919
293.69919
293.69919
293.69919
293.69919
293.69919
293.69919
293.69919
293.69919
293.6992
312.84523
312.34052
311.80168
311.22764
310.61756
309.97083
309.28714
308.56659
307.80978
307.0179
306.19292
305.33772
304.45627
303.55385
302.6372
301.71468
300.79626
299.89348
299.01913
298.18669
297.40953
296.69988
296.0677
295.51969
295.05853
294.68267
294.38664
294.16189
293.99785
293.88314
293.80664
293.75825
293.72945
293.71346
293.70528
293.70147
293.69988
293.6993
293.69911
293.69906
293.69905
293.69905
293.69905
293.69905
293.69905
293.69905
293.69905
293.69905
293.69905
293.69905
313.08482
312.58589
312.0532
311.48571
310.88254
310.24307
309.56694
308.85419
308.1053
307.32132
306.50401
305.65598
304.78087
303.88354
302.9702
302.04864
301.12821
300.21982
299.33572
298.489
297.69291
296.95996
296.30076
295.72307
295.23094
294.82431
294.49916
294.24808
294.06133
293.92791
293.8367
293.77735
293.7408
293.7197
293.70839
293.70282
293.70035
293.69937
293.69903
293.69893
293.69891
293.6989
293.6989
293.6989
293.6989
293.6989
293.6989
293.6989
293.6989
293.6989
313.29155
312.7976
312.27023
311.70839
311.1112
310.47802
309.80845
309.10246
308.36047
307.5834
306.77284
305.9312
305.06183
304.16924
303.25922
302.33908
301.41763
300.50525
299.6137
298.75571
297.94439
297.19234
296.51069
295.908
295.38941
294.95612
294.60533
294.33072
294.12331
293.97255
293.86744
293.79746
293.75319
293.72681
293.71212
293.70456
293.70103
293.69954
293.69899
293.69882
293.69877
293.69876
293.69876
293.69876
293.69876
293.69876
293.69876
293.69876
293.69876
293.69876
313.47293
312.98335
312.46065
311.90378
311.31185
310.68419
310.0204
309.32038
308.58449
307.81356
307.00904
306.17315
305.30902
304.42085
303.51412
302.59567
301.6739
300.75871
299.86141
298.99438
298.17054
297.40257
296.70191
296.07778
295.5362
295.07945
294.70581
294.40993
294.18359
294.01671
293.89847
293.81823
293.76637
293.73463
293.7164
293.70668
293.70193
293.69983
293.699
293.69872
293.69863
293.69861
293.69861
293.69861
293.69861
293.69861
293.69861
293.69861
293.69861
293.69861
313.63431
313.14863
312.63009
312.07764
311.49039
310.86766
310.20902
309.51435
308.78392
308.0185
307.21943
306.38878
305.52947
304.64546
303.74192
302.82536
301.90375
300.98659
300.08479
299.21039
298.37613
297.59466
296.87768
296.23489
295.67309
295.19544
294.80121
294.48596
294.24216
294.06022
293.92953
293.83944
293.78013
293.74304
293.72117
293.70915
293.70304
293.70023
293.69906
293.69864
293.69851
293.69847
293.69846
293.69846
293.69846
293.69846
293.69846
293.69846
293.69846
293.69846
313.77948
313.29731
312.78252
312.23405
311.65102
311.03274
310.37874
309.68889
308.96342
308.203
307.4089
306.58304
305.72819
304.84809
303.94765
303.03306
302.11196
301.19346
300.28811
299.40765
298.56459
297.77154
297.04036
296.38117
295.80139
295.30498
294.89206
294.55902
294.29903
294.10297
293.96046
293.86091
293.79433
293.75192
293.72637
293.71193
293.70437
293.70075
293.69919
293.69859
293.69839
293.69833
293.69832
293.69832
293.69832
293.69832
293.69832
293.69832
293.69832
293.69832
313.91128
313.4323
312.92091
312.37607
311.79687
311.18263
310.53286
309.84741
309.12645
308.37061
307.58106
306.75963
305.90893
305.03252
304.13507
303.2225
302.30215
301.38279
300.47462
299.5891
298.73853
297.93545
297.19182
296.51808
295.92218
295.40878
294.97879
294.62933
294.35425
294.14489
293.99115
293.8825
293.80885
293.76118
293.73191
293.715
293.7059
293.70139
293.69937
293.69856
293.69828
293.6982
293.69818
293.69817
293.69817
293.69817
293.69817
293.69817
293.69817
293.69817
314.03187
313.55581
313.04753
312.506
311.93032
311.31978
310.67389
309.99247
309.27566
308.52404
307.7387
306.92138
306.07455
305.20162
304.30705
303.39652
302.47708
301.55721
300.64681
299.75705
298.90001
298.08815
297.3335
296.64676
296.03631
295.50744
295.06174
294.69707
294.40787
294.18596
294.02153
293.90411
293.82359
293.77075
293.73777
293.71833
293.70762
293.70216
293.69963
293.69857
293.69819
293.69807
293.69803
293.69803
293.69802
293.69802
293.69802
293.69802
293.69802
293.69802
314.14292
313.66954
313.16414
312.62566
312.05322
311.44609
310.80379
310.12609
309.41312
308.6654
307.88398
307.07048
306.22728
305.35764
304.46584
303.55734
302.63895
301.71885
300.80667
299.91332
299.05067
298.23107
297.4666
296.76814
296.14449
295.60145
295.14125
294.76241
294.45995
294.22617
294.05152
293.92568
293.83847
293.78055
293.74387
293.72188
293.7095
293.70304
293.69995
293.69862
293.69811
293.69794
293.69789
293.69788
293.69788
293.69788
293.69788
293.69788
293.69788
293.69788
314.24576
313.77487
313.27213
312.73648
312.16704
311.56308
310.9241
310.24986
309.54045
308.79637
308.01859
307.20868
306.3689
305.50238
304.61325
303.70676
302.78948
301.86937
300.95579
300.05938
299.19183
298.36537
297.59208
296.88302
296.24731
295.69122
295.21758
294.82549
294.51056
294.26551
294.0811
293.94714
293.85344
293.79053
293.75019
293.72563
293.71155
293.70403
293.70034
293.6987
293.69804
293.69782
293.69775
293.69774
293.69773
293.69773
293.69773
293.69773
293.69773
293.69773
314.34146
313.8729
313.37264
312.83963
312.27298
311.67197
311.03608
310.36506
309.65899
308.91831
308.14395
307.3374
306.50085
305.6373
304.75072
303.84621
302.93012
302.01017
301.09547
300.19645
299.32459
298.49201
297.71076
296.99206
296.34528
295.77714
295.29098
294.88647
294.55976
294.304
294.11024
293.96845
293.86844
293.80065
293.75668
293.72955
293.71374
293.70513
293.70079
293.69881
293.698
293.69771
293.69761
293.69759
293.69759
293.69759
293.69759
293.69759
293.69759
293.69759
314.43092
313.96453
313.46658
312.93604
312.372
311.77375
311.14076
310.47277
309.76982
309.03233
308.26118
307.45781
306.62431
305.76359
304.87947
303.9769
303.06203
302.14237
301.22681
300.32555
299.44988
298.6118
297.82334
297.09581
296.43884
295.85951
295.36166
294.94548
294.60761
294.34164
294.13893
293.98957
293.88343
293.81086
293.76331
293.73361
293.71605
293.70632
293.70131
293.69896
293.69797
293.6976
293.69748
293.69745
293.69744
293.69744
293.69744
293.69744
293.69744
293.69744
314.51486
314.05051
313.55473
313.0265
312.46492
311.86926
311.239
310.57384
309.87383
309.13934
308.37123
307.57086
306.74026
305.88223
305.00049
304.09981
303.18619
302.26693
301.35071
300.44752
299.56847
298.72544
297.93041
297.19477
296.52837
295.93863
295.42982
295.00263
294.65418
294.37847
294.16715
294.01049
293.89839
293.82114
293.77006
293.7378
293.71848
293.7076
293.7019
293.69915
293.69796
293.6975
293.69735
293.69731
293.69729
293.69729
293.69729
293.69729
293.69729
293.69729
314.59389
314.13146
313.63773
313.11168
312.55241
311.9592
311.33149
310.66902
309.97178
309.24013
308.47489
307.67737
306.84952
305.99407
305.11461
304.21579
303.30343
302.38465
301.46794
300.56308
299.68103
298.8335
298.03247
297.28936
296.61421
296.01474
295.49564
295.05804
294.69953
294.41451
294.19491
294.03119
293.91329
293.83146
293.77689
293.7421
293.72101
293.70896
293.70253
293.69938
293.69797
293.69742
293.69722
293.69716
293.69715
293.69715
293.69715
293.69715
293.69715
293.69715
314.66853
314.20791
313.71612
313.19213
312.63505
312.04414
311.41886
310.75892
310.0643
309.33535
308.57283
307.77801
306.9528
306.09981
305.22255
304.32554
303.41445
302.49623
301.57916
300.67287
299.78812
298.93652
298.12997
297.37995
296.69665
296.08808
295.55927
295.11182
294.74373
294.44978
294.22221
294.05166
293.92811
293.84179
293.7838
293.74649
293.72363
293.7104
293.70323
293.69964
293.69801
293.69734
293.6971
293.69702
293.697
293.697
293.697
293.697
293.697
293.697
314.73922
314.28031
313.79036
313.26832
312.71331
312.12459
311.50162
310.84408
310.15195
309.42555
308.66562
307.87338
307.05068
306.20006
305.32492
304.42968
303.51986
302.60224
301.68495
300.77741
299.89025
299.03493
298.22329
297.46686
296.77596
296.15883
295.62087
295.16406
294.78682
294.48431
294.24906
294.07188
293.94284
293.85214
293.79077
293.75096
293.72633
293.7119
293.70398
293.69994
293.69806
293.69727
293.69698
293.69689
293.69686
293.69685
293.69685
293.69685
293.69685
293.69685
314.80634
314.34906
313.86085
313.34067
312.78762
312.20098
311.5802
310.92494
310.23518
309.51122
308.75375
307.96398
307.14368
306.29533
305.42225
304.52873
303.62017
302.7032
301.78578
300.87718
299.98783
299.12911
298.31279
297.55039
296.85236
296.22718
295.68056
295.21485
294.82887
294.51814
294.27548
294.09187
293.95747
293.86247
293.79778
293.7555
293.7291
293.71347
293.70477
293.70027
293.69813
293.69721
293.69686
293.69675
293.69672
293.69671
293.69671
293.69671
293.69671
293.69671
314.87022
314.41449
313.92793
313.40952
312.85835
312.27369
311.65498
311.00191
310.31441
309.59276
308.83765
308.05024
307.23224
306.38607
305.51498
304.62314
303.71583
302.79955
301.8821
300.97257
300.08126
299.21942
298.39875
297.63078
296.92607
296.2933
295.73846
295.26427
294.86992
294.55129
294.30146
294.11162
293.972
293.87278
293.80482
293.76009
293.73194
293.7151
293.70561
293.70063
293.69822
293.69716
293.69675
293.69661
293.69657
293.69656
293.69656
293.69656
293.69656
293.69656
314.93113
314.47689
313.99191
313.47518
312.9258
312.34303
311.72631
311.07532
310.38997
309.67055
308.9177
308.13253
307.31674
306.47269
305.60351
304.71332
303.80725
302.89169
301.97427
301.06394
300.17086
299.30615
298.48144
297.70827
296.99728
296.35732
295.79468
295.3124
294.91003
294.58378
294.32702
294.13112
293.98641
293.88307
293.81189
293.76474
293.73483
293.71678
293.7065
293.70102
293.69833
293.69713
293.69665
293.69648
293.69643
293.69642
293.69642
293.69642
293.69642
293.69642
314.98934
314.53652
314.05305
313.53793
312.99026
312.4093
311.79448
311.14547
310.46219
309.74489
308.9942
308.2112
307.39754
306.55552
305.6882
304.7996
303.89477
302.97994
302.06262
301.15161
300.25693
299.38957
298.56111
297.78306
297.06614
296.41939
295.84932
295.35931
294.94924
294.61565
294.35218
294.15039
294.0007
293.89332
293.81896
293.76942
293.73777
293.71851
293.70742
293.70144
293.69846
293.6971
293.69655
293.69635
293.69629
293.69627
293.69627
293.69627
293.69627
293.69627
315.04507
314.5936
314.11158
313.598
313.05197
312.47273
311.85974
311.21263
310.53133
309.81607
309.06746
308.28654
307.47493
306.63486
305.76935
304.88231
303.9787
303.06462
302.14746
301.23587
300.33973
299.46993
298.63796
297.85533
297.13282
296.47962
295.90247
295.40506
294.98759
294.64692
294.37694
294.16942
294.01487
293.90352
293.82605
293.77414
293.74076
293.72028
293.70838
293.70189
293.6986
293.69708
293.69645
293.69622
293.69615
293.69613
293.69612
293.69612
293.69612
293.69612
315.09849
314.64833
314.1677
313.6556
313.11113
312.53356
311.92231
311.27703
310.59764
309.88434
309.13772
308.35881
307.54917
306.71099
305.84723
304.96172
304.05931
303.146
302.22904
301.31695
300.41949
299.54743
298.71218
297.92524
297.19745
296.53811
295.95422
295.44971
295.02512
294.6776
294.40132
294.18822
294.02893
293.91369
293.83314
293.77888
293.74379
293.7221
293.70938
293.70236
293.69877
293.69708
293.69636
293.69609
293.69601
293.69598
293.69598
293.69598
293.69598
293.69598
315.1498
314.70088
314.22159
313.71091
313.16796
312.59198
311.98241
311.33889
310.66132
309.9499
309.2052
308.42823
307.62049
306.78415
305.92209
305.03807
304.13684
303.2243
302.30759
301.39509
300.49643
299.62227
298.78395
297.99295
297.26015
296.59498
296.00463
295.49332
295.06187
294.70773
294.42533
294.20679
294.04286
293.9238
293.84022
293.78365
293.74685
293.72395
293.71041
293.70286
293.69895
293.69708
293.69628
293.69597
293.69587
293.69584
293.69583
293.69583
293.69583
293.69583
315.19915
314.75143
314.27342
313.76411
313.2226
312.64816
312.04021
311.39838
310.72257
310.01297
309.27012
308.49501
307.68912
306.85455
305.99414
305.11157
304.21151
303.29976
302.38332
301.47048
300.57072
299.69462
298.85343
298.05859
297.32103
296.6503
296.05378
295.53593
295.09787
294.73733
294.44898
294.22515
294.05667
293.93386
293.8473
293.78844
293.74994
293.72583
293.71147
293.70339
293.69915
293.6971
293.6962
293.69585
293.69573
293.69569
293.69569
293.69568
293.69568
293.69568
315.24666
314.8001
314.32333
313.81534
313.27523
312.70226
312.09587
311.45567
310.78156
310.07371
309.33265
308.55934
307.75523
306.92238
306.06357
305.18242
304.28352
303.37255
302.45643
301.5433
300.64256
299.76464
298.92075
298.12229
297.3802
296.70417
296.10174
295.5776
295.13316
294.76641
294.47229
294.24328
294.07036
293.94387
293.85437
293.79324
293.75306
293.72775
293.71255
293.70394
293.69937
293.69713
293.69613
293.69573
293.69559
293.69555
293.69554
293.69554
293.69554
293.69554
315.29248
314.84703
314.37145
313.86473
313.32597
312.75443
312.14954
311.51091
310.83844
310.13228
309.39295
308.62138
307.81899
306.98782
306.13057
305.25081
304.35304
303.44286
302.52708
301.61372
300.71207
299.83248
298.98604
298.18414
297.43776
296.75666
296.14855
295.61836
295.16776
294.795
294.49525
294.2612
294.08392
293.95382
293.86143
293.79806
293.75621
293.72969
293.71367
293.70451
293.6996
293.69716
293.69606
293.69562
293.69546
293.69541
293.6954
293.69539
293.69539
293.69539
315.3367
314.89234
314.41791
313.91241
313.37495
312.80479
312.20135
311.56424
310.89335
310.18883
309.45117
308.68128
307.88057
307.05101
306.19529
305.31688
304.42023
303.51085
302.59542
301.68189
300.77942
299.89825
299.04942
298.24427
297.49379
296.80784
296.19429
295.65827
295.2017
294.82311
294.51789
294.27891
294.09737
293.96372
293.86847
293.80288
293.75937
293.73166
293.71481
293.7051
293.69985
293.69721
293.696
293.6955
293.69532
293.69527
293.69525
293.69525
293.69525
293.69525
315.37944
314.93611
314.4628
313.95848
313.42229
312.85346
312.25141
311.61578
310.94642
310.24348
309.50744
308.73919
307.9401
307.11211
306.25787
305.38079
304.48524
303.57665
302.66161
301.74795
300.84473
299.96209
299.111
298.30275
297.54837
296.85778
296.23899
295.69735
295.23501
294.85075
294.5402
294.29641
294.1107
293.97355
293.87549
293.80772
293.76256
293.73365
293.71597
293.70571
293.70011
293.69727
293.69595
293.6954
293.69519
293.69512
293.6951
293.6951
293.6951
293.6951
315.42078
314.97846
314.50622
314.00305
313.46808
312.90053
312.29985
311.66564
310.99776
310.29635
309.56188
308.79521
307.9977
307.17125
306.31844
305.44266
304.5482
303.64039
302.72575
301.81201
300.9081
300.0241
299.17087
298.35969
297.60158
296.90653
296.28271
295.73564
295.26772
294.87796
294.56221
294.31372
294.12391
293.98333
293.88249
293.81255
293.76576
293.73567
293.71716
293.70634
293.70039
293.69733
293.6959
293.69529
293.69506
293.69498
293.69496
293.69495
293.69495
293.69495
315.46081
315.01947
314.54827
314.04621
313.51241
312.94612
312.34675
311.71392
311.04748
310.34755
309.6146
308.84947
308.05349
307.22853
306.37713
305.50262
304.60923
303.70221
302.78799
301.87419
300.96966
300.08437
299.22913
298.41515
297.65347
296.95416
296.32548
295.77317
295.29984
294.90473
294.58392
294.33083
294.137
293.99304
293.88947
293.81739
293.76898
293.73771
293.71837
293.70699
293.70068
293.69741
293.69586
293.69519
293.69493
293.69484
293.69482
293.69481
293.69481
293.69481
315.4996
315.05921
314.58902
314.08804
313.55538
312.9903
312.39221
311.76071
311.09567
310.39718
309.66571
308.90207
308.10758
307.28407
306.43405
305.56078
304.66843
303.7622
302.84841
301.93459
301.0295
300.14301
299.28585
298.46922
297.70413
297.00071
296.36736
295.80998
295.3314
294.93109
294.60534
294.34775
294.14998
294.0027
293.89642
293.82222
293.77221
293.73976
293.71959
293.70765
293.70098
293.6975
293.69582
293.69509
293.6948
293.6947
293.69467
293.69466
293.69466
293.69466
315.53723
315.09775
314.62855
314.12861
313.59707
313.03316
312.4363
311.80611
311.14241
310.44533
309.71529
308.95311
308.16006
307.33797
306.48928
305.61723
304.72592
303.82047
302.90712
301.99331
301.08771
300.2001
299.34113
298.52195
297.75359
297.04623
296.40838
295.8461
295.36242
294.95705
294.62648
294.36448
294.16284
294.01229
293.90335
293.82706
293.77545
293.74183
293.72084
293.70834
293.7013
293.69759
293.69579
293.69499
293.69467
293.69456
293.69453
293.69452
293.69451
293.69451
315.57376
315.13517
314.66692
314.168
313.63753
313.07476
312.47911
311.85018
311.18779
310.49207
309.76342
309.00266
308.21102
307.39031
306.54293
305.67208
304.78179
303.87711
302.96421
302.05044
301.14437
300.2557
299.39502
298.57342
297.80193
297.09077
296.44857
295.88154
295.39292
294.98262
294.64734
294.38103
294.1756
294.02183
293.91026
293.83189
293.7787
293.74392
293.7221
293.70903
293.70163
293.6977
293.69577
293.6949
293.69455
293.69442
293.69438
293.69437
293.69437
293.69437
315.60925
315.17153
314.7042
314.20627
313.67685
313.11519
312.5207
311.89299
311.23189
310.53749
309.8102
309.05081
308.26055
307.44118
306.59508
305.7254
304.83611
303.9322
303.01976
302.10606
301.19957
300.30991
299.4476
298.62368
297.84918
297.13437
296.48797
295.91634
295.42291
295.00781
294.66794
294.3974
294.18824
294.0313
293.91714
293.83672
293.78196
293.74603
293.72338
293.70975
293.70198
293.69782
293.69575
293.69481
293.69443
293.69429
293.69424
293.69423
293.69422
293.69422
315.64375
315.20688
314.74045
314.24347
313.71507
313.15449
312.56114
311.93462
311.27476
310.58165
309.85568
309.09763
308.30871
307.49065
306.64581
305.77727
304.88897
303.98583
303.07385
302.16024
301.25337
300.36278
299.49892
298.67279
297.89541
297.17708
296.52661
295.95052
295.45242
295.03264
294.68827
294.4136
294.20077
294.04072
293.92399
293.84154
293.78523
293.74814
293.72467
293.71048
293.70233
293.69794
293.69574
293.69473
293.69431
293.69415
293.6941
293.69408
293.69408
293.69408
315.67732
315.24127
314.77571
314.27967
313.75226
313.19273
312.60048
311.97513
311.31648
310.62462
309.89994
309.1432
308.35558
307.53881
306.69519
305.82777
304.94045
304.03806
303.12656
302.21305
301.30585
300.41438
299.54905
298.7208
297.94064
297.21891
296.56452
295.98411
295.48147
295.05712
294.70836
294.42963
294.2132
294.05007
293.93082
293.84636
293.78851
293.75027
293.72598
293.71122
293.7027
293.69807
293.69573
293.69465
293.69419
293.69401
293.69395
293.69394
293.69393
293.69393
315.71
315.27475
314.81005
314.31491
313.78847
313.22995
312.63879
312.01456
311.35709
310.66646
309.94303
309.18756
308.40123
307.58571
306.74329
305.87697
304.9906
304.08897
303.17795
302.26456
301.35705
300.46477
299.59803
298.76776
297.98493
297.25992
296.60172
296.01712
295.51006
295.08125
294.7282
294.44549
294.22552
294.05937
293.93762
293.85117
293.79179
293.75241
293.7273
293.71198
293.70308
293.69822
293.69573
293.69457
293.69407
293.69388
293.69381
293.69379
293.69379
293.69378
315.74184
315.30736
314.84349
314.34925
313.82374
313.26622
312.67611
312.05298
311.39666
310.70722
309.98502
309.23079
308.4457
307.63141
306.79016
305.92493
305.0395
304.13861
303.22807
302.31484
301.40705
300.514
299.64593
298.8137
298.0283
297.30014
296.63825
296.04957
295.53821
295.10506
294.7478
294.46118
294.23774
294.06861
293.94439
293.85597
293.79507
293.75457
293.72864
293.71275
293.70347
293.69837
293.69574
293.6945
293.69396
293.69375
293.69367
293.69365
293.69364
293.69364
315.77288
315.33916
314.8761
314.38271
313.85812
313.30158
312.71249
312.09044
311.43524
310.74695
310.02595
309.27294
308.48907
307.67597
306.83587
305.9717
305.0872
304.18706
303.277
302.36392
301.45589
300.56211
299.69277
298.85868
298.07081
297.33958
296.67413
296.08149
295.56593
295.12854
294.76716
294.47672
294.24986
294.07778
293.95113
293.86077
293.79836
293.75673
293.72999
293.71353
293.70387
293.69853
293.69575
293.69443
293.69384
293.69361
293.69353
293.6935
293.6935
293.69349
315.80314
315.37017
314.9079
314.41536
313.89166
313.33606
312.74797
312.12697
311.47286
310.78571
310.06588
309.31405
308.53137
307.71944
306.88047
306.01735
305.13376
304.23435
303.32479
302.41188
301.50363
300.60917
299.73862
298.90274
298.11248
297.3783
296.70938
296.1129
295.59325
295.15171
294.7863
294.49211
294.26188
294.0869
293.95785
293.86556
293.80165
293.7589
293.73135
293.71432
293.70429
293.69869
293.69577
293.69436
293.69373
293.69348
293.69339
293.69336
293.69335
293.69335
315.83268
315.40043
314.93893
314.44721
313.92439
313.36971
312.78259
312.16262
311.50958
310.82354
310.10484
309.35418
308.57266
307.76188
306.92402
306.06191
305.17923
304.28055
303.37147
302.45876
301.55031
300.65521
299.7835
298.9459
298.15334
297.4163
296.74403
296.1438
295.62017
295.17458
294.80522
294.50734
294.2738
294.09597
293.96453
293.87033
293.80495
293.76109
293.73273
293.71513
293.70471
293.69887
293.6958
293.6943
293.69363
293.69335
293.69325
293.69322
293.6932
293.6932
315.86152
315.42997
314.96923
314.47831
313.95634
313.40257
312.8164
312.19743
311.54544
310.86048
310.1429
309.39337
308.61299
307.80333
306.96655
306.10545
305.22366
304.32569
303.41711
302.50459
301.59598
300.70028
299.82746
298.98821
298.19343
297.45362
296.77809
296.17421
295.6467
295.19715
294.82393
294.52242
294.28563
294.10497
293.97119
293.8751
293.80825
293.76328
293.73411
293.71595
293.70515
293.69906
293.69583
293.69424
293.69352
293.69322
293.69311
293.69307
293.69306
293.69306
315.8897
315.45884
314.99883
314.5087
313.98756
313.43467
312.84943
312.23143
311.58046
310.89657
310.18007
309.43166
308.65239
307.84384
307.00811
306.148
305.26709
304.36984
303.46175
302.54944
301.64068
300.74441
299.87054
299.0297
298.23277
297.49028
296.81159
296.20416
295.67286
295.21943
294.84242
294.53735
294.29736
294.11392
293.97782
293.87986
293.81155
293.76548
293.73551
293.71678
293.70559
293.69925
293.69587
293.69419
293.69342
293.6931
293.69297
293.69293
293.69292
293.69291
315.91723
315.48705
315.02776
314.53839
314.01807
313.46604
312.88172
312.26467
311.6147
310.93184
310.21641
309.46908
308.69091
307.88343
307.04875
306.18961
305.30956
304.41301
303.50542
302.59333
301.68445
300.78764
299.91276
299.07039
298.2714
297.5263
296.84454
296.23366
295.69865
295.24144
294.86071
294.55215
294.30899
294.12282
293.98442
293.8846
293.81485
293.76768
293.73692
293.71762
293.70605
293.69945
293.69591
293.69414
293.69332
293.69297
293.69284
293.69279
293.69277
293.69277
315.94416
315.51463
315.05605
314.56743
314.0479
313.49672
312.91328
312.29717
311.64818
310.96633
310.25195
309.50568
308.72858
307.92216
307.08849
306.23031
305.35111
304.45527
303.54817
302.63631
301.72733
300.83001
299.95417
299.11032
298.30933
297.56171
296.87696
296.26272
295.7241
295.26317
294.8788
294.5668
294.32054
294.13166
293.99099
293.88934
293.81815
293.7699
293.73833
293.71847
293.70651
293.69966
293.69596
293.69409
293.69322
293.69285
293.6927
293.69264
293.69263
293.69262
315.9705
315.54161
315.08372
314.59584
314.07709
313.52673
312.94417
312.32897
311.68093
311.00007
310.28671
309.54149
308.76543
307.96005
307.12739
306.27015
305.39179
304.49664
303.59004
302.67841
301.76934
300.87155
299.99478
299.14952
298.34659
297.59653
296.90887
296.29135
295.7492
295.28464
294.89669
294.58132
294.332
294.14045
293.99754
293.89407
293.82145
293.77212
293.73976
293.71934
293.70699
293.69988
293.69602
293.69405
293.69313
293.69272
293.69256
293.6925
293.69248
293.69248
315.99628
315.56802
315.1108
314.62364
314.10565
313.5561
312.97439
312.36009
311.71299
311.0331
310.32074
309.57653
308.80151
307.99714
307.16547
306.30915
305.43162
304.53716
303.63105
302.71967
301.81053
300.91229
300.03464
299.18802
298.38321
297.63078
296.94029
296.31957
295.77397
295.30586
294.9144
294.59571
294.34337
294.14918
294.00405
293.89879
293.82475
293.77435
293.7412
293.72021
293.70747
293.70011
293.69608
293.69402
293.69304
293.6926
293.69243
293.69236
293.69234
293.69233
316.02151
315.59388
315.13732
314.65085
314.13362
313.58486
313.00398
312.39056
311.74437
311.06544
310.35406
309.61085
308.83683
308.03347
307.20276
306.34736
305.47064
304.57686
303.67124
302.76011
301.85092
300.95227
300.07377
299.22582
298.41921
297.66447
296.97123
296.34738
295.79841
295.32682
294.93192
294.60996
294.35465
294.15786
294.01054
293.90349
293.82806
293.77658
293.74265
293.72109
293.70796
293.70034
293.69615
293.69399
293.69295
293.69248
293.69229
293.69222
293.6922
293.69219
316.04623
315.6192
315.16329
314.67751
314.16101
313.61303
313.03297
312.4204
311.77511
311.09711
310.38669
309.64447
308.87144
308.06906
307.2393
306.38479
305.50888
304.61577
303.71065
302.79978
301.89055
300.9915
300.11218
299.26297
298.4546
297.69762
297.0017
296.37481
295.82254
295.34754
294.94926
294.62409
294.36585
294.1665
294.01701
293.90819
293.83136
293.77883
293.7441
293.72198
293.70847
293.70058
293.69622
293.69396
293.69286
293.69237
293.69216
293.69208
293.69205
293.69205
316.07045
315.64402
315.18874
314.70364
314.18785
313.64063
313.06137
312.44964
311.80524
311.12815
310.41867
309.67741
308.90536
308.10394
307.27512
306.42149
305.54637
304.65392
303.7493
302.83869
301.92943
301.03001
300.14992
299.29948
298.48941
297.73026
297.03172
296.40186
295.84637
295.36802
294.96642
294.63809
294.37696
294.17508
294.02344
293.91287
293.83466
293.78107
293.74557
293.72289
293.70898
293.70083
293.6963
293.69394
293.69278
293.69225
293.69203
293.69194
293.69191
293.6919
316.09419
315.66834
315.21368
314.72924
314.21416
313.66768
313.08921
312.47831
311.83476
311.15858
310.45002
309.70971
308.9386
308.13813
307.31023
306.45747
305.58313
304.69135
303.78721
302.87687
301.96761
301.06783
300.187
299.33538
298.52366
297.76239
297.06131
296.42855
295.8699
295.38827
294.9834
294.65197
294.388
294.18361
294.02985
293.91754
293.83796
293.78332
293.74704
293.7238
293.7095
293.70109
293.69639
293.69392
293.6927
293.69214
293.6919
293.6918
293.69177
293.69176
316.11747
315.69219
315.23814
314.75435
314.23995
313.69421
313.1165
312.50642
311.86372
311.18841
310.48077
309.74138
308.97121
308.17167
307.34467
306.49276
305.6192
304.72807
303.82442
302.91436
302.00509
301.10499
300.22345
299.37068
298.55736
297.79403
297.09047
296.45487
295.89313
295.40829
295.00022
294.66573
294.39895
294.19209
294.03623
293.92221
293.84127
293.78558
293.74852
293.72472
293.71003
293.70135
293.69648
293.6939
293.69262
293.69203
293.69177
293.69167
293.69163
293.69162
316.1403
315.71558
315.26213
314.77898
314.26526
313.72023
313.14328
312.53399
311.89212
311.21768
310.51092
309.77245
309.0032
308.20457
307.37846
306.5274
305.65459
304.76411
303.86095
302.95116
302.04191
301.1415
300.25927
299.4054
298.59053
297.8252
297.11922
296.48085
295.91609
295.42809
295.01688
294.67937
294.40983
294.20052
294.04259
293.92686
293.84457
293.78784
293.75001
293.72565
293.71057
293.70163
293.69658
293.69389
293.69255
293.69192
293.69164
293.69153