/*--------------------------------*- C++ -*----------------------------------*\
| =========                 |                                                 |
| \\      /  F ield         | OpenFOAM: The Open Source CFD Toolbox           |
|  \\    /   O peration     | Version:  4.0                                   |
|   \\  /    A nd           | Web:      www.OpenFOAM.org                      |
|    \\/     M anipulation  |                                                 |
\*---------------------------------------------------------------------------*/
FoamFile
{
    version     2.0;
    format      ascii;
    class       volVectorField;
    location    "974";
    object      U;
}
// * * * * * * * * * * * * * * * * * * * * * * * * * * * * * * * * * * * * * //

dimensions      [0 1 -1 0 0 0 0];

internalField   nonuniform List<vector> 
5000
(
(4.9558076e-07 1.11976e-23 0.0029131341)
(1.5987956e-06 9.8477535e-23 0.0085329731)
(4.8561069e-06 2.5866291e-22 0.014181741)
(8.7255234e-06 -1.1452669e-21 0.019796857)
(1.3293816e-05 -1.8100327e-21 0.025308268)
(1.7938384e-05 -3.9034338e-21 0.030639966)
(2.1883236e-05 -6.4785013e-21 0.03571227)
(2.4212006e-05 -8.0763485e-21 0.0404449)
(2.3866446e-05 -1.3987048e-20 0.044760792)
(1.97194e-05 -1.3098321e-20 0.04859049)
(1.0665726e-05 -6.3997386e-21 0.051876847)
(-4.2393408e-06 -1.5037815e-20 0.054579621)
(-2.5640936e-05 -2.0588826e-20 0.056679473)
(-5.384078e-05 -2.1058625e-20 0.058180797)
(-8.8658493e-05 -2.2680873e-20 0.059112855)
(-0.00012927484 -1.8928621e-20 0.059528827)
(-0.00017426014 -1.466673e-20 0.05950259)
(-0.00022164359 -6.8740749e-21 0.059123358)
(-0.0002690644 1.3178426e-20 0.058488656)
(-0.0003139965 4.5670861e-20 0.057696394)
(-0.00035401864 3.3149936e-20 0.056837006)
(-0.00038708659 2.7649307e-21 0.055986676)
(-0.00041176406 4.6480746e-21 0.055202559)
(-0.00042737471 3.7384373e-21 0.054520597)
(-0.00043405095 7.6447107e-22 0.053956136)
(-0.00043267311 -6.5319017e-21 0.05350707)
(-0.00042471076 -2.129672e-20 0.05315877)
(-0.00041199484 -1.2067585e-20 0.052889785)
(-0.0003964575 8.9700924e-21 0.052677161)
(-0.0003798862 1.1761119e-24 0.052500464)
(-0.00036373708 5.0830314e-21 0.052344009)
(-0.00034903687 -4.0745384e-21 0.052197321)
(-0.00033638509 -1.5526537e-20 0.052054315)
(-0.00032603444 -5.1388223e-21 0.051911877)
(-0.00031801105 -2.0637213e-21 0.05176846)
(-0.0003122442 9.573923e-21 0.05162305)
(-0.00030867799 9.1072271e-20 0.051474561)
(-0.00030734462 2.6770735e-21 0.051321531)
(-0.00030847997 5.3182482e-21 0.051161989)
(-0.00031245213 7.3123667e-20 0.050993281)
(-0.00032006924 -3.8789528e-20 0.050811865)
(-0.00033253303 -5.1022611e-21 0.050613344)
(-0.00035067661 -4.1393208e-21 0.050390503)
(-0.00037994782 -6.1306623e-21 0.050136935)
(-0.00041706813 3.6950652e-23 0.049836718)
(-0.0004805905 0 0.049473195)
(-0.00057167958 2.9369578e-21 0.049037941)
(-0.00067494232 6.5200044e-22 0.048415828)
(-0.0010295698 3.6503102e-21 0.04821545)
(-0.00067020657 -3.0687075e-21 0.042583342)
(-1.0878931e-06 -1.6578894e-21 0.0031981087)
(-7.6099162e-06 -5.1062318e-21 0.0094162038)
(-2.0530784e-05 -8.549589e-21 0.015723979)
(-4.2057836e-05 -1.2321535e-20 0.02206111)
(-7.3826589e-05 -1.3590892e-20 0.028356818)
(-0.00011770133 -1.4145185e-20 0.034530095)
(-0.00017571304 -1.8164838e-20 0.040490608)
(-0.00024997336 -2.9106813e-20 0.046140482)
(-0.00034255696 -2.4541815e-20 0.051377173)
(-0.00045532936 -1.4628917e-20 0.0560976)
(-0.00058971106 2.0004156e-21 0.06020361)
(-0.00074638026 -2.0856376e-21 0.063608669)
(-0.00092493184 -4.3254497e-20 0.066245448)
(-0.0011235285 -6.2721545e-20 0.068073623)
(-0.0013385997 -7.8624515e-20 0.069086915)
(-0.0015646605 -8.2479017e-20 0.06931808)
(-0.0017943311 -9.7590971e-20 0.06884053)
(-0.0020186208 -8.97118e-20 0.0677655)
(-0.0022275054 7.7799197e-20 0.066234268)
(-0.0024107705 2.0249961e-19 0.064405923)
(-0.0025590274 6.2354395e-20 0.062442208)
(-0.0026647537 -1.1547367e-19 0.060491807)
(-0.0027231799 -9.8495269e-20 0.058676743)
(-0.0027328572 -8.8130211e-20 0.05708319)
(-0.0026957978 -9.1904505e-20 0.055758009)
(-0.0026171597 -1.1219761e-19 0.05471107)
(-0.0025045317 -1.5301604e-19 0.053922311)
(-0.0023669492 -6.2159514e-20 0.05335165)
(-0.0022138134 6.0761791e-20 0.052949622)
(-0.0020539058 -2.9692678e-20 0.052666774)
(-0.0018946534 -6.7297666e-20 0.052460411)
(-0.0017417463 -1.2366619e-20 0.052298059)
(-0.0015991202 -5.6215755e-20 0.05215789)
(-0.0014692269 -1.96632e-20 0.052026965)
(-0.0013534588 -7.9303722e-21 0.051898512)
(-0.0012525768 -4.9306934e-20 0.051769262)
(-0.0011670872 -1.2975588e-19 0.051637491)
(-0.0010974118 -4.7900571e-20 0.051501836)
(-0.0010440759 5.3780274e-20 0.051360717)
(-0.0010080772 1.0669781e-19 0.051212237)
(-0.00098952675 -2.0116749e-19 0.051053434)
(-0.00099252825 -4.0612681e-20 0.050881608)
(-0.0010152622 -5.8164653e-21 0.050691701)
(-0.0010649748 5.1358923e-21 0.050475622)
(-0.0011588432 4.8913313e-21 0.05023996)
(-0.0012438507 1.4987161e-21 0.049922766)
(-0.001533558 -1.3420925e-20 0.049651795)
(-0.0015721957 -5.1704435e-21 0.049314235)
(-0.0022929465 -2.3678483e-20 0.049799864)
(-0.0015522522 -6.8639761e-21 0.039141236)
(-1.4995126e-06 -1.212943e-20 0.0037548797)
(-9.910433e-06 -3.6542268e-20 0.011076755)
(-2.6595123e-05 -6.2861895e-20 0.01852813)
(-5.4029501e-05 -8.5178317e-20 0.026040803)
(-9.3879053e-05 -1.0931601e-19 0.03353364)
(-0.00014794726 -1.2721233e-19 0.040912398)
(-0.00021809157 -1.4717361e-19 0.048070196)
(-0.00030613744 -1.7782525e-19 0.054888884)
(-0.00041378993 -1.9086737e-19 0.061241567)
(-0.00054252174 -1.7831246e-19 0.066996563)
(-0.00069342969 -1.6059764e-19 0.072023005)
(-0.00086705547 -1.6254633e-19 0.07619822)
(-0.0010631686 -1.0159541e-19 0.079416759)
(-0.0012805161 -3.2582843e-20 0.081600651)
(-0.0015165541 2.7512271e-20 0.082709988)
(-0.0017671931 1.0365183e-19 0.082752448)
(-0.0020266095 1.7687858e-19 0.081789947)
(-0.0022871951 1.5425727e-19 0.079940448)
(-0.002539723 3.4373288e-19 0.077373286)
(-0.0027737968 5.9517752e-19 0.074297311)
(-0.0029786028 4.4400293e-19 0.070942607)
(-0.0031439194 5.5035064e-20 0.067538184)
(-0.0032612528 -2.7610641e-20 0.064289302)
(-0.0033249132 -8.9802978e-20 0.061358451)
(-0.0033328199 -1.2412913e-19 0.058853284)
(-0.0032868637 -1.5766001e-19 0.056823184)
(-0.0031927358 -1.8342102e-19 0.055264235)
(-0.0030592364 -6.0435156e-20 0.054130703)
(-0.0028971786 7.2470219e-20 0.053350191)
(-0.0027180828 -9.6574926e-20 0.052839346)
(-0.0025328966 -1.2507558e-19 0.052517418)
(-0.002350966 1.9304613e-19 0.052315777)
(-0.0021794302 -3.4650038e-20 0.052182605)
(-0.002023099 -2.7416668e-21 0.052083124)
(-0.0018847593 3.3542019e-20 0.0519967)
(-0.0017657023 9.6118858e-21 0.051912551)
(-0.0016663734 -2.4427148e-20 0.051825647)
(-0.0015870094 -7.7230194e-20 0.051733717)
(-0.0015274194 -1.2888651e-19 0.051635336)
(-0.0014892791 4.1291142e-20 0.051529479)
(-0.0014719789 8.2302288e-20 0.051414529)
(-0.0014782427 -5.4526311e-20 0.051287895)
(-0.001519011 -7.7083855e-20 0.051152329)
(-0.0015628345 -1.9481047e-19 0.050987478)
(-0.0017222538 6.0586703e-21 0.050835857)
(-0.0017652973 -1.5285583e-20 0.050589333)
(-0.0021748822 7.3013354e-20 0.050496616)
(-0.002224546 8.5936214e-21 0.050684189)
(-0.0028209205 7.8041901e-20 0.050816567)
(-0.0017521338 -1.2831621e-20 0.035120125)
(-9.621047e-07 -3.4055235e-20 0.004218958)
(-6.9378106e-06 -1.027906e-19 0.012469679)
(-1.8708387e-05 -1.7322008e-19 0.020894557)
(-3.8300403e-05 -2.5125593e-19 0.029421864)
(-6.7155971e-05 -3.3761379e-19 0.037965222)
(-0.00010692634 -4.0443903e-19 0.046423001)
(-0.00015943661 -4.4461336e-19 0.054678294)
(-0.00022664642 -4.659876e-19 0.062599728)
(-0.00031060481 -4.7664616e-19 0.070043398)
(-0.00041337927 -4.8644396e-19 0.076856253)
(-0.00053694829 -4.7875916e-19 0.082881284)
(-0.00068304841 -5.3115429e-19 0.087964759)
(-0.00085296838 -6.1442486e-19 0.09196564)
(-0.001047287 -6.7505519e-19 0.094767007)
(-0.0012655596 -5.9865336e-19 0.096288873)
(-0.0015059741 -5.7912479e-19 0.096501176)
(-0.0017650146 -5.3837544e-19 0.095435104)
(-0.002037195 -4.7063146e-19 0.093190368)
(-0.0023149483 -4.0514533e-19 0.089935888)
(-0.0025887613 -8.4034151e-20 0.085901929)
(-0.0028476285 -1.0851576e-19 0.081363053)
(-0.0030798515 -8.8661656e-20 0.076613283)
(-0.0032741289 -1.1625131e-19 0.071937024)
(-0.0034207951 -1.7768773e-19 0.06758074)
(-0.0035130029 -3.0642188e-19 0.063730583)
(-0.0035476249 -4.5304963e-19 0.060499794)
(-0.0035256911 -6.1547207e-19 0.057927413)
(-0.0034522691 -6.1341028e-19 0.055987285)
(-0.003335805 -3.235775e-19 0.054604468)
(-0.0031870347 -2.147926e-19 0.053675211)
(-0.0030176587 -1.3488622e-19 0.053086683)
(-0.0028390199 8.2736727e-20 0.052733304)
(-0.0026610244 3.3945712e-20 0.052527629)
(-0.0024914776 3.7579381e-20 0.052405083)
(-0.0023359478 1.1636313e-19 0.052323266)
(-0.002198051 1.976514e-19 0.052257609)
(-0.002079868 3.2852002e-19 0.052195644)
(-0.0019831378 -7.194076e-20 0.052131905)
(-0.0019082694 -1.0098344e-19 0.052064089)
(-0.0018568642 2.7487798e-20 0.051991088)
(-0.001833026 4.0856746e-19 0.051913322)
(-0.0018248175 2.2935278e-20 0.051825698)
(-0.001878331 5.3270954e-20 0.051740362)
(-0.0018934704 -2.2338419e-19 0.051626113)
(-0.0020838951 1.0088564e-20 0.051538896)
(-0.002102837 1.3937769e-19 0.051394842)
(-0.0024919251 1.0393477e-19 0.051480221)
(-0.0025824505 3.5337171e-20 0.05212642)
(-0.0028710591 1.3067733e-19 0.051021147)
(-0.001516742 7.7178252e-21 0.031193809)
(-7.580102e-07 -2.0495848e-20 0.0045900858)
(-5.5677445e-06 -6.2632062e-20 0.013587289)
(-1.5022023e-05 -1.0792797e-19 0.022799134)
(-3.0785645e-05 -1.6748321e-19 0.032152425)
(-5.4050408e-05 -2.2637587e-19 0.041558257)
(-8.6195599e-05 -2.9382608e-19 0.050911128)
(-0.00012876937 -3.5850416e-19 0.060088548)
(-0.00018347007 -3.9283382e-19 0.068951401)
(-0.00025212804 -3.8996115e-19 0.077345346)
(-0.00033667158 -4.1603186e-19 0.085103609)
(-0.00043906747 -4.2853737e-19 0.092051521)
(-0.00056122738 -4.3206475e-19 0.098013191)
(-0.00070486893 -5.4408619e-19 0.10282055)
(-0.00087132125 -6.9490815e-19 0.10632486)
(-0.001061269 -7.1424205e-19 0.1084103)
(-0.0012744359 -6.7127191e-19 0.10900883)
(-0.0015092265 -6.487338e-19 0.1081147)
(-0.0017623674 -4.7568976e-19 0.10579614)
(-0.0020286138 -3.0447492e-19 0.1022016)
(-0.0023006143 -2.24388e-19 0.097557354)
(-0.0025690329 -2.6339544e-19 0.09215482)
(-0.0028230099 -4.1418197e-19 0.086327308)
(-0.0030509831 -4.0142255e-19 0.080418762)
(-0.0032418098 -4.2809628e-19 0.074749346)
(-0.0033860354 -5.142151e-19 0.069584066)
(-0.0034770868 -6.2452124e-19 0.0651102)
(-0.0035121614 -7.8373e-19 0.061427201)
(-0.0034926375 -9.0299916e-19 0.058549723)
(-0.0034239167 -8.407368e-19 0.056421666)
(-0.0033147188 -5.4479917e-19 0.054937281)
(-0.0031759554 -2.4304628e-19 0.053964848)
(-0.0030193647 -1.2292052e-19 0.053368767)
(-0.0028561654 -6.1556119e-20 0.053026892)
(-0.0026959605 1.0087992e-19 0.05284122)
(-0.0025461005 1.8972938e-19 0.052741529)
(-0.002411702 2.3492143e-19 0.052683138)
(-0.0022956212 2.0615724e-19 0.052641009)
(-0.0021999168 -1.0404266e-19 0.052603)
(-0.0021259956 1.3168537e-19 0.052564187)
(-0.0020713509 1.6741287e-19 0.052522042)
(-0.0020503246 3.6574063e-19 0.052478753)
(-0.0020291366 9.7331198e-20 0.052427516)
(-0.0020882239 1.549616e-19 0.05238307)
(-0.0020847508 -1.9776195e-20 0.052319347)
(-0.0022605166 4.2580303e-20 0.052273409)
(-0.0022838403 1.6136598e-19 0.052247201)
(-0.0026060728 3.7809048e-20 0.05252676)
(-0.00268364 3.9700691e-20 0.053324632)
(-0.0027286452 2.7874865e-20 0.050514535)
(-0.00123287 6.4042435e-21 0.027638775)
(-6.7721823e-07 -6.296889e-21 0.0049089426)
(-4.9156761e-06 -1.9202608e-20 0.014548139)
(-1.3265628e-05 -3.6043091e-20 0.024437639)
(-2.7186376e-05 -5.0820186e-20 0.034503304)
(-4.7729413e-05 -6.8193732e-20 0.044654508)
(-7.6112329e-05 -1.0151885e-19 0.054783038)
(-0.00011370367 -1.6025406e-19 0.064762457)
(-0.00016200982 -2.1080018e-19 0.074448154)
(-0.00022266361 -2.364128e-19 0.083678361)
(-0.0002974026 -2.7860576e-19 0.092276487)
(-0.00038802984 -3.0755836e-19 0.10005514)
(-0.00049634961 -3.2447777e-19 0.10682227)
(-0.00062407004 -3.4966217e-19 0.11238968)
(-0.0007726629 -3.8230221e-19 0.11658424)
(-0.0009431704 -4.2135671e-19 0.11926161)
(-0.0011359545 -3.9224801e-19 0.12032175)
(-0.0013503926 -3.2490422e-19 0.11972525)
(-0.0015845385 -2.2397826e-19 0.11750796)
(-0.0018347926 3.9549556e-20 0.11379137)
(-0.0020956518 6.3371826e-20 0.10878538)
(-0.0023596293 -6.676211e-21 0.10278054)
(-0.0026174404 -2.8020839e-19 0.096128563)
(-0.0028585227 -3.9902968e-19 0.08921205)
(-0.0030718966 -4.793907e-19 0.082407448)
(-0.0032472813 -5.8469015e-19 0.07604754)
(-0.003376298 -6.6013948e-19 0.07039036)
(-0.0034535459 -7.3185627e-19 0.065600104)
(-0.0034773394 -7.2734734e-19 0.061742644)
(-0.0034499643 -7.832776e-19 0.05879485)
(-0.0033774035 -6.7091771e-19 0.056664249)
(-0.0032685754 -3.3142625e-19 0.055214252)
(-0.0031342072 -1.9153104e-19 0.054290099)
(-0.0029855473 -1.1650017e-19 0.05374149)
(-0.0028331249 8.9447476e-20 0.053439057)
(-0.0026857232 1.4337638e-19 0.053283203)
(-0.0025501104 1.6583482e-19 0.053205515)
(-0.0024306527 9.3558245e-20 0.053164408)
(-0.0023296839 -1.185058e-19 0.053137742)
(-0.0022514287 1.7067246e-19 0.053115888)
(-0.0021880952 2.5862327e-19 0.053093979)
(-0.0021634689 2.7051243e-19 0.053073911)
(-0.002130283 1.5424923e-19 0.053050464)
(-0.0021789277 2.3632645e-19 0.053032207)
(-0.0021681855 7.5025992e-20 0.05300909)
(-0.0023101546 6.6257617e-20 0.052995343)
(-0.0023341859 1.6542653e-20 0.053079845)
(-0.0026009765 1.1636271e-21 0.053541641)
(-0.0026137094 1.9752017e-20 0.054169743)
(-0.0024647271 -5.2342327e-20 0.04951837)
(-0.00096660767 1.2436458e-21 0.024682709)
(-6.0028478e-07 1.138895e-20 0.0051878091)
(-4.3598948e-06 3.4291371e-20 0.015389247)
(-1.1770038e-05 5.6804819e-20 0.025873167)
(-2.4133297e-05 8.7454839e-20 0.036564887)
(-4.2394473e-05 1.1657124e-19 0.047372609)
(-6.7651011e-05 1.2651945e-19 0.058186164)
(-0.00010114143 1.0794919e-19 0.068876167)
(-0.00014423605 6.2150347e-20 0.079293815)
(-0.00019843016 2.7124323e-20 0.089271603)
(-0.0002653287 4.7107377e-20 0.098625285)
(-0.00034661664 2.0999388e-20 0.10715748)
(-0.00044400974 1.0242702e-20 0.11466333)
(-0.0005591783 1.0622652e-20 0.12093861)
(-0.0006936355 8.0797521e-21 0.12579053)
(-0.0008485816 -1.4060894e-19 0.12905131)
(-0.0010246976 -4.8105341e-20 0.13059409)
(-0.0012218867 8.0929945e-20 0.13035009)
(-0.0014389741 5.6603146e-20 0.12832529)
(-0.0016733912 1.6084042e-19 0.12461378)
(-0.0019208953 3.0868272e-19 0.11940456)
(-0.0021753986 2.8762347e-19 0.11297842)
(-0.0024289949 -1.6746073e-20 0.10569259)
(-0.0026722669 -2.3196566e-19 0.097953044)
(-0.0028949158 -3.4890793e-19 0.090177266)
(-0.0030866857 -3.9395302e-19 0.082753185)
(-0.0032384711 -3.5769459e-19 0.076001687)
(-0.0033434224 -2.4233388e-19 0.070149568)
(-0.0033978463 -9.6773313e-20 0.065317323)
(-0.0034017259 -3.4799371e-19 0.06152258)
(-0.0033587645 -6.5435527e-19 0.058696574)
(-0.00327594 -4.6707467e-19 0.056709025)
(-0.0031626363 -1.1538702e-19 0.055396152)
(-0.003029493 -7.1671087e-20 0.054587168)
(-0.002887192 2.0392914e-19 0.054125646)
(-0.0027452271 4.2260679e-19 0.053883496)
(-0.0026113051 1.6014397e-19 0.05376678)
(-0.0024911245 1.1822724e-19 0.053714215)
(-0.0023867407 8.8704445e-20 0.053690479)
(-0.0023048239 -3.486532e-20 0.053678554)
(-0.0022344425 2.4872939e-19 0.053670414)
(-0.0022021731 1.6819759e-19 0.053665339)
(-0.0021607442 7.8253499e-20 0.053661449)
(-0.0021912019 9.9522092e-20 0.053659352)
(-0.0021733065 2.1460965e-20 0.053662805)
(-0.0022838095 4.9674819e-20 0.053682791)
(-0.0022948658 -1.3444202e-19 0.053865536)
(-0.0025117538 8.5191507e-20 0.054446365)
(-0.0024466271 1.8714645e-20 0.054661336)
(-0.0021477923 8.0371174e-20 0.048245094)
(-0.00073762607 -2.9550492e-22 0.022276457)
(-5.5062308e-07 1.5041472e-20 0.0054394599)
(-3.9811375e-06 4.5059486e-20 0.016148482)
(-1.0749341e-05 7.8068574e-20 0.027169317)
(-2.2043355e-05 1.1570989e-19 0.038426894)
(-3.8728458e-05 1.5887546e-19 0.049828501)
(-6.1810962e-05 2.0995544e-19 0.061262393)
(-9.2428476e-05 2.6660388e-19 0.072596784)
(-0.00013184278 2.8193804e-19 0.08367944)
(-0.00018143556 2.8919029e-19 0.094338135)
(-0.00024269741 3.7110034e-19 0.10438232)
(-0.00031720515 4.6532628e-19 0.11360636)
(-0.00040658225 5.418273e-19 0.1217948)
(-0.00051243685 6.1394502e-19 0.1287301)
(-0.00063626983 5.5721792e-19 0.13420302)
(-0.00077934425 3.3946135e-19 0.13802605)
(-0.00094250991 1.2077709e-19 0.14004936)
(-0.0011259799 -3.9582187e-20 0.14017861)
(-0.0013290639 -2.384904e-19 0.13839291)
(-0.0015498762 -4.9687648e-19 0.13476041)
(-0.0017850545 -4.6904425e-19 0.12944831)
(-0.0020295502 -1.8958168e-19 0.1227236)
(-0.0022765672 -6.3383841e-20 0.11494175)
(-0.0025177291 -1.1693801e-19 0.10652204)
(-0.0027435345 -1.5996076e-19 0.097911514)
(-0.002944105 -2.2544063e-19 0.089542162)
(-0.0031101575 -2.3019224e-19 0.081788947)
(-0.0032340607 -2.0810767e-19 0.074936148)
(-0.0033107872 -5.7663104e-20 0.069157998)
(-0.0033385835 1.0056194e-19 0.06451592)
(-0.0033192367 -1.3492871e-19 0.060970908)
(-0.0032578867 -1.3094081e-19 0.058406811)
(-0.0031624152 4.0119155e-20 0.056659089)
(-0.0030424904 5.4870646e-20 0.055543868)
(-0.0029084759 1.7684813e-19 0.054883132)
(-0.0027702022 4.0573843e-19 0.054523197)
(-0.0026360085 4.1875168e-19 0.054344913)
(-0.0025128788 5.1644661e-19 0.054265705)
(-0.002403124 4.870571e-19 0.054234745)
(-0.0023146249 1.7523932e-19 0.054225104)
(-0.0022367263 3.9034593e-19 0.054224267)
(-0.0021935787 2.2243851e-19 0.054227708)
(-0.002144005 2.1891834e-19 0.05423526)
(-0.0021565283 -4.5517539e-19 0.054243337)
(-0.0021280604 -1.4195302e-19 0.054262871)
(-0.0022135363 9.6274695e-21 0.054318588)
(-0.0022083113 -1.3818142e-19 0.05458602)
(-0.0023746321 8.5593135e-20 0.055195345)
(-0.0022420257 3.8052734e-20 0.054837982)
(-0.0018376073 9.969203e-20 0.046849076)
(-0.00055906996 2.3629624e-20 0.020337413)
(-5.0490413e-07 -1.7623931e-20 0.0056686915)
(-3.6505955e-06 -5.1706426e-20 0.016840399)
(-9.8591132e-06 -8.4973336e-20 0.028351054)
(-2.0223758e-05 -1.1920877e-19 0.040125352)
(-3.5543878e-05 -1.5981983e-19 0.052069894)
(-5.6750749e-05 -1.7977438e-19 0.064071679)
(-8.489966e-05 -1.8226415e-19 0.075996956)
(-0.00012116499 -2.2088186e-19 0.087690629)
(-0.00016683775 -2.5631158e-19 0.098976507)
(-0.00022331759 -2.9440799e-19 0.10965869)
(-0.00029209523 -2.9751217e-19 0.11952453)
(-0.00037472018 -3.3223856e-19 0.12834952)
(-0.00047274845 -3.9879023e-19 0.13590462)
(-0.00058766413 -3.5448355e-19 0.14196643)
(-0.00072076713 -1.9869507e-19 0.14633024)
(-0.00087302034 -4.3393029e-19 0.14882609)
(-0.0010448514 -6.9274516e-19 0.14933688)
(-0.0012359109 -8.3826747e-19 0.14781733)
(-0.0014448017 -1.0874664e-18 0.14431131)
(-0.0016688045 -1.2034601e-18 0.13896441)
(-0.0019036521 -1.088629e-18 0.13202798)
(-0.0021434151 -6.2064411e-19 0.12385149)
(-0.0023805792 -3.5516382e-19 0.11486102)
(-0.0026063752 -2.1843936e-19 0.10552494)
(-0.0028113869 -1.3825914e-19 0.096310674)
(-0.0029864013 -3.330218e-19 0.087639532)
(-0.0031233906 -4.4549546e-19 0.079847791)
(-0.003216466 -1.7177364e-19 0.073160919)
(-0.0032626268 2.809369e-19 0.067684751)
(-0.0032621729 2.4994768e-19 0.06341335)
(-0.0032187044 3.4913708e-19 0.06024991)
(-0.0031387147 1.7115361e-19 0.058035306)
(-0.0030308188 1.2553709e-19 0.056578724)
(-0.0029047837 1.2944813e-19 0.055685755)
(-0.002770413 7.3014941e-20 0.055180597)
(-0.0026363464 4.2606944e-19 0.054920311)
(-0.0025103533 6.8148788e-19 0.054800517)
(-0.0023954749 3.6277969e-19 0.05475325)
(-0.0022996981 2.6947844e-19 0.054739655)
(-0.0022142063 2.5387529e-19 0.054740837)
(-0.0021599342 -1.9255408e-20 0.054748216)
(-0.0021010346 1.404281e-19 0.054760812)
(-0.0020979024 -3.8741819e-19 0.054774754)
(-0.0020578698 -1.927234e-19 0.054805603)
(-0.0021213416 -1.5044273e-20 0.0548965)
(-0.0021020019 6.7352387e-21 0.055230093)
(-0.0022164063 -1.2527862e-20 0.055778602)
(-0.0020305338 2.9725388e-20 0.054763611)
(-0.0015568428 -7.8555706e-20 0.045440522)
(-0.00042248715 1.559664e-20 0.018802648)
(-4.6971963e-07 -2.3087001e-20 0.0058803612)
(-3.391383e-06 -6.911488e-20 0.017479468)
(-9.1602346e-06 -1.1769649e-19 0.029442794)
(-1.8792709e-05 -1.6841658e-19 0.041694886)
(-3.3033977e-05 -2.2016449e-19 0.054141802)
(-5.2753077e-05 -2.747806e-19 0.0666695)
(-7.8936482e-05 -3.286553e-19 0.079142561)
(-0.00011268407 -3.8454229e-19 0.091403448)
(-0.00015520802 -4.4915675e-19 0.10327255)
(-0.00020782773 -5.1860757e-19 0.11454937)
(-0.00027195559 -5.6889259e-19 0.12501514)
(-0.00034906979 -5.9762517e-19 0.13443748)
(-0.00044067098 -6.8661526e-19 0.14257734)
(-0.00054821458 -8.2304041e-19 0.14919884)
(-0.0006730126 -8.6684579e-19 0.15408212)
(-0.00081609842 -8.7503681e-19 0.15703926)
(-0.00097804928 -9.1106134e-19 0.15793269)
(-0.0011587665 -1.0259128e-18 0.15669485)
(-0.001357222 -1.0653891e-18 0.15334686)
(-0.0015711937 -1.11293e-18 0.14801329)
(-0.0017970316 -1.1028067e-18 0.14092905)
(-0.0020295115 -8.2497318e-19 0.13243496)
(-0.0022618475 -5.9038359e-19 0.12295945)
(-0.0024859283 -4.0434784e-19 0.11298625)
(-0.0026928148 -1.9933751e-19 0.10301144)
(-0.0028734821 -6.4810942e-20 0.093496198)
(-0.0030197237 -1.9865077e-19 0.084823617)
(-0.0031250796 -2.6525377e-19 0.077267308)
(-0.0031856247 6.8200573e-20 0.070976833)
(-0.0032004762 3.6949022e-19 0.065980904)
(-0.0031719345 3.2945689e-19 0.062205436)
(-0.0031052399 2.0994478e-19 0.059501238)
(-0.0030079647 1.4127448e-19 0.057675508)
(-0.0028891699 1.0827778e-19 0.056522079)
(-0.0027584127 1.2608878e-19 0.05584666)
(-0.0026244937 3.6129416e-19 0.055484634)
(-0.0024956166 5.4578066e-19 0.055310262)
(-0.002375726 4.0337889e-19 0.055237519)
(-0.0022727521 2.5647998e-19 0.055214186)
(-0.0021795352 1.5886585e-19 0.055213052)
(-0.0021150528 -9.0481445e-20 0.05522104)
(-0.0020466909 -1.0868427e-19 0.055234853)
(-0.0020296428 -2.8060274e-19 0.05525187)
(-0.0019797772 -1.9020777e-19 0.055293359)
(-0.0020224349 -2.5899885e-20 0.055417154)
(-0.0019920042 1.6765402e-20 0.05579243)
(-0.0020555528 -2.6723448e-20 0.056204168)
(-0.0018304509 1.3894128e-20 0.054500541)
(-0.0013163904 -8.3799067e-20 0.044077547)
(-0.00031998383 7.474026e-21 0.017584339)
(-4.3911692e-07 -3.3839615e-20 0.0060773135)
(-3.1692941e-06 -1.0163449e-19 0.018074258)
(-8.5616821e-06 -1.7387597e-19 0.030459141)
(-1.7567791e-05 -2.5106722e-19 0.043156433)
(-3.0886852e-05 -3.2233216e-19 0.056071765)
(-4.9335315e-05 -4.0009122e-19 0.069090221)
(-7.3841116e-05 -4.8277506e-19 0.082074957)
(-0.00010544077 -5.3664383e-19 0.094866314)
(-0.00014527974 -5.7976766e-19 0.1072817)
(-0.00019460866 -5.8416667e-19 0.11911656)
(-0.00025477183 -4.9794128e-19 0.13014676)
(-0.0003271849 -3.2804311e-19 0.14013294)
(-0.0004132972 -1.2375588e-19 0.14882718)
(-0.00051453308 -2.4840589e-19 0.15598247)
(-0.00063220484 -5.3903996e-19 0.16136539)
(-0.00076739184 -5.8637283e-19 0.16477184)
(-0.00092078017 -5.3512466e-19 0.16604562)
(-0.0010924614 -2.2016053e-19 0.16509863)
(-0.0012816951 -8.5620064e-20 0.16193071)
(-0.0014866546 1.1084076e-19 0.15664611)
(-0.0017041901 -4.6832945e-19 0.14946293)
(-0.0019296604 -6.299627e-19 0.14071172)
(-0.0021568991 -6.8498499e-19 0.13082003)
(-0.0023783792 -7.4110196e-19 0.12028247)
(-0.0025856218 -8.7597341e-19 0.10961843)
(-0.0027698435 -5.4031956e-19 0.099323583)
(-0.0029227882 -6.3594753e-21 0.08982322)
(-0.0030376198 -4.3877915e-20 0.081435963)
(-0.003109724 -3.2622738e-19 0.074353833)
(-0.0031372803 1.3238385e-19 0.068640783)
(-0.0031215069 2.8651214e-19 0.064247618)
(-0.0030665432 2.7092752e-19 0.061038373)
(-0.0029789818 2.7576859e-19 0.05882214)
(-0.0028671444 3.7485115e-19 0.057384905)
(-0.0027401876 5.4111015e-19 0.056517265)
(-0.0026069198 3.9162314e-19 0.056035265)
(-0.0024757745 5.6071956e-19 0.055792832)
(-0.0023514167 8.6318397e-19 0.055685574)
(-0.0022419648 5.0805145e-19 0.055646906)
(-0.0021414039 2.230218e-19 0.055639798)
(-0.002067669 1.3119088e-19 0.055645752)
(-0.0019908572 -1.6618942e-19 0.055658785)
(-0.0019610472 -3.8073592e-19 0.05567758)
(-0.0019040401 -1.9694148e-19 0.055730546)
(-0.0019270454 -2.9069084e-20 0.055883431)
(-0.0018881416 1.3367919e-20 0.056272539)
(-0.0019048251 -2.3316751e-20 0.056488761)
(-0.0016519013 5.6494875e-21 0.054101682)
(-0.0011187862 -7.5893569e-20 0.042788577)
(-0.00024474863 1.8688588e-21 0.016609804)
(-4.1356152e-07 -1.5084037e-20 0.0062619874)
(-2.9830192e-06 -4.5450129e-20 0.018632073)
(-8.059293e-06 -7.7751375e-20 0.031412475)
(-1.6538853e-05 -1.1090327e-19 0.044527642)
(-2.9081668e-05 -1.4730174e-19 0.057882856)
(-4.6459005e-05 -1.8486725e-19 0.071362459)
(-6.9548565e-05 -2.2160682e-19 0.08482836)
(-9.9332025e-05 -2.5622542e-19 0.098119035)
(-0.00013689637 -2.8386594e-19 0.11104925)
(-0.00018343143 -3.1709151e-19 0.12341084)
(-0.00024022058 -3.5357107e-19 0.13497487)
(-0.00030862201 -3.5112493e-19 0.14549576)
(-0.00039003611 -3.292156e-19 0.1547176)
(-0.00048585329 -3.2148281e-19 0.1623834)
(-0.00059737678 -3.3375135e-19 0.16824745)
(-0.00072571424 -3.0824224e-19 0.17209094)
(-0.00087163146 -2.332345e-19 0.17374063)
(-0.0010353665 -2.353808e-19 0.17308941)
(-0.0012164075 -1.5451696e-19 0.17011709)
(-0.0014132486 -1.0218656e-19 0.16490837)
(-0.0016231544 -1.9225557e-19 0.15766458)
(-0.0018419768 -3.980239e-19 0.14870481)
(-0.0020640859 -4.9831539e-19 0.13845344)
(-0.0022824783 -5.1881145e-19 0.12741245)
(-0.0024891104 -4.7989716e-19 0.11612026)
(-0.0026754684 -4.7237193e-19 0.10510248)
(-0.0028333295 -3.407513e-19 0.09482254)
(-0.0029556137 -1.244044e-20 0.085641066)
(-0.0030371878 8.5536713e-20 0.077790993)
(-0.003075479 2.9916681e-20 0.071371509)
(-0.0030707963 2.0918107e-19 0.066359684)
(-0.0030263174 2.7501455e-19 0.062635188)
(-0.0029477348 3.1751662e-19 0.060012056)
(-0.0028426422 3.9889433e-19 0.058271695)
(-0.0027197277 5.3919114e-19 0.057192622)
(-0.0025876753 5.4746421e-19 0.056573902)
(-0.0024550554 6.2540398e-19 0.05625048)
(-0.0023270255 8.5144081e-19 0.056099802)
(-0.0022120142 5.9235312e-19 0.056040262)
(-0.0021050198 2.7007916e-19 0.056023961)
(-0.0020229368 1.472225e-19 0.05602587)
(-0.0019392448 -8.1719831e-20 0.056037291)
(-0.0018977455 -3.6303593e-19 0.056057941)
(-0.0018359747 -1.9642208e-19 0.05612334)
(-0.0018408348 -2.1059184e-20 0.056300043)
(-0.0017947747 1.8667651e-20 0.056674758)
(-0.0017702048 -1.8915396e-20 0.056653423)
(-0.0014973863 -2.0646937e-21 0.053610242)
(-0.00095986005 -5.8494704e-20 0.041586087)
(-0.00019017792 -4.8820051e-21 0.01582367)
(-3.913855e-07 -5.4183999e-21 0.0064361479)
(-2.8219407e-06 -1.6248701e-20 0.019158219)
(-7.6247039e-06 -2.7689299e-20 0.03231183)
(-1.5648617e-05 -4.015252e-20 0.045821441)
(-2.7519726e-05 -5.8471775e-20 0.059592055)
(-4.397004e-05 -7.8203415e-20 0.073507373)
(-6.5833415e-05 -9.7795237e-20 0.087428206)
(-9.404377e-05 -1.6062418e-19 0.10119137)
(-0.00012963677 -2.2843276e-19 0.11460925)
(-0.00017374881 -2.5657851e-19 0.12747044)
(-0.00022760942 -3.5701644e-19 0.13954169)
(-0.0002925249 -5.0137569e-19 0.15057177)
(-0.00036985014 -6.5092188e-19 0.16029756)
(-0.00046094178 -5.7958574e-19 0.16845297)
(-0.00056708941 -2.8834627e-19 0.17478109)
(-0.00068941706 -3.1679324e-19 0.17904966)
(-0.00082874915 -3.0133968e-19 0.1810697)
(-0.00098543844 -4.4556537e-19 0.18071644)
(-0.0011591574 -3.6888161e-19 0.1779508)
(-0.0013486649 -4.9116474e-19 0.17283878)
(-0.0015515734 -1.102066e-19 0.16556501)
(-0.0017641565 -2.2060147e-19 0.15643646)
(-0.0019812533 -2.4276592e-19 0.14587257)
(-0.0021963304 -1.7711129e-19 0.13437995)
(-0.0024017536 -1.2788798e-20 0.12251251)
(-0.0025892891 -6.6525218e-20 0.11082195)
(-0.0027508015 -4.5077813e-19 0.09980624)
(-0.0028790623 -1.6663629e-19 0.089865206)
(-0.0029685457 3.0925e-19 0.081271042)
(-0.0030160727 2.2546939e-19 0.074157814)
(-0.0030211891 2.944222e-19 0.068529683)
(-0.0029862336 3.0135737e-19 0.064283729)
(-0.0029160815 3.3198729e-19 0.061241334)
(-0.0028176277 3.4627049e-19 0.059182028)
(-0.0026990634 2.2066299e-19 0.057874905)
(-0.0025688441 4.5184781e-19 0.057104287)
(-0.0024355961 4.3784704e-19 0.056687636)
(-0.0023048396 4.7751645e-19 0.056484815)
(-0.0021852117 3.2110183e-19 0.056398873)
(-0.0020729166 1.7450473e-19 0.056370327)
(-0.0019833907 -1.9993476e-19 0.056366672)
(-0.0018943678 -8.7518975e-20 0.056376299)
(-0.001842419 -4.079532e-20 0.056399749)
(-0.0017774873 -1.777892e-19 0.056477968)
(-0.0017661462 -2.0310239e-20 0.056671794)
(-0.001713166 1.9297384e-20 0.05700546)
(-0.0016535096 -1.3701848e-20 0.056718146)
(-0.0013662691 -4.0449808e-21 0.053057913)
(-0.00083381613 -5.1671873e-20 0.040470195)
(-0.00015109081 -8.2246488e-21 0.015177914)
(-3.7206988e-07 -1.5790605e-20 0.0066012291)
(-2.6817899e-06 -4.733103e-20 0.019657005)
(-7.246767e-06 -8.1364618e-20 0.033164529)
(-1.4874425e-05 -1.1757711e-19 0.047048302)
(-2.6161003e-05 -1.5507064e-19 0.061213102)
(-4.1804116e-05 -1.9564442e-19 0.075542069)
(-6.2599063e-05 -2.3755661e-19 0.089895036)
(-8.9437709e-05 -2.8333113e-19 0.10410731)
(-0.00012331053 -3.4185421e-19 0.11798916)
(-0.00016530608 -4.0668444e-19 0.1313262)
(-0.00021660514 -4.5886176e-19 0.14388128)
(-0.00027846702 -4.866668e-19 0.155398)
(-0.00035220406 -4.6752778e-19 0.16560663)
(-0.00043913988 -5.305539e-19 0.17423279)
(-0.00054054745 -5.2802605e-19 0.18100928)
(-0.0006575588 -4.87228e-19 0.18569142)
(-0.00079104171 -5.279862e-19 0.18807565)
(-0.00094143983 -5.2331339e-19 0.18802069)
(-0.0011085768 -5.6260366e-19 0.18546967)
(-0.0012914327 -6.6296902e-19 0.18047061)
(-0.0014879152 -3.3568503e-19 0.17319175)
(-0.0016946627 -1.1612924e-19 0.16392747)
(-0.0019069271 -5.4692706e-20 0.15309098)
(-0.0021185995 2.239303e-20 0.14119128)
(-0.0023224297 9.2046913e-20 0.12879486)
(-0.0025104653 6.2859285e-20 0.11647623)
(-0.0026746932 -1.5527743e-19 0.10476468)
(-0.0028078076 -1.5306944e-19 0.094096648)
(-0.0029039888 1.2635875e-19 0.084781902)
(-0.0029595644 2.6506586e-19 0.076988807)
(-0.0029734355 3.3834635e-19 0.070749071)
(-0.0029472108 3.1064196e-19 0.06597849)
(-0.0028850296 3.1432178e-19 0.062507702)
(-0.0027931252 2.788516e-19 0.060116596)
(-0.0026791896 2.3899193e-19 0.058567144)
(-0.0025513924 3.5679204e-19 0.057630987)