/*--------------------------------*- C++ -*----------------------------------*\
| =========                 |                                                 |
| \\      /  F ield         | OpenFOAM: The Open Source CFD Toolbox           |
|  \\    /   O peration     | Version:  4.0                                   |
|   \\  /    A nd           | Web:      www.OpenFOAM.org                      |
|    \\/     M anipulation  |                                                 |
\*---------------------------------------------------------------------------*/
FoamFile
{
    version     2.0;
    format      ascii;
    class       surfaceScalarField;
    location    "2000";
    object      phi;
}
// * * * * * * * * * * * * * * * * * * * * * * * * * * * * * * * * * * * * * //

dimensions      [1 0 -1 0 0 0 0];

internalField   nonuniform List<scalar> 
287000
(
3.2704276e-10
-1.1558724e-11
1.2270621e-09
1.3571529e-09
-7.6227344e-11
4.1150065e-09
3.1302462e-09
-1.1990151e-10
7.8342809e-09
5.7963301e-09
-2.5912382e-10
1.2538004e-08
9.3709591e-09
-3.8937827e-10
1.8399819e-08
1.3990219e-08
-6.7003944e-10
2.5605176e-08
1.9589763e-08
-9.4708091e-10
3.4347566e-08
2.6201436e-08
-1.365695e-09
4.4824426e-08
3.3618987e-08
-1.7392036e-09
5.72344e-08
4.1789957e-08
-2.2596589e-09
7.1779053e-08
5.055585e-08
-2.8508004e-09
8.8668069e-08
5.9736902e-08
-3.501668e-09
1.0813308e-07
6.8938152e-08
-3.9860087e-09
1.3045109e-07
7.8310151e-08
-4.8198616e-09
1.5597532e-07
8.7195152e-08
-5.1480362e-09
1.8517304e-07
9.5593016e-08
-5.5835981e-09
2.1867206e-07
1.0327612e-07
-5.8262431e-09
2.5731129e-07
1.1028798e-07
-6.114216e-09
3.0218135e-07
1.1608101e-07
-5.8050114e-09
3.5468044e-07
1.2102573e-07
-5.7932777e-09
4.1655547e-07
1.2495489e-07
-5.540682e-09
4.8993704e-07
1.2700082e-07
-4.3983819e-09
5.7740478e-07
1.2839818e-07
-4.4548935e-09
6.8203062e-07
1.2860583e-07
-3.9535521e-09
8.0738799e-07
1.2621947e-07
-2.4442921e-09
9.5764391e-07
1.2203192e-07
-1.47686e-09
1.1382632e-06
1.1603441e-07
-8.0774883e-10
1.3550986e-06
1.0840286e-07
-6.8670644e-10
1.6151996e-06
1.0074494e-07
-2.1688283e-09
1.9276764e-06
9.0490537e-08
-1.2044793e-09
2.3030149e-06
7.6327698e-08
8.2296384e-10
2.7541751e-06
6.427005e-08
-2.3864536e-09
3.2974545e-06
4.8072237e-08
-8.7002593e-10
3.9483643e-06
3.1616157e-08
-1.9596512e-09
4.7342046e-06
1.6235205e-08
-4.4243962e-09
5.680697e-06
-1.2147476e-09
-4.4299536e-09
6.8182267e-06
-1.611322e-08
-7.9622239e-09
8.1916815e-06
-2.5314738e-08
-1.4363201e-08
9.8473882e-06
-4.1740865e-08
-8.4321209e-09
1.1841323e-05
-5.0631669e-08
-1.6943381e-08
1.4246756e-05
-5.8050847e-08
-1.9751923e-08
1.7149852e-05
-5.9813823e-08
-2.6062313e-08
2.0656662e-05
-6.4548854e-08
-2.49404e-08
2.4882679e-05
-6.3157021e-08
-3.2265956e-08
2.9988932e-05
-6.1786051e-08
-3.4313013e-08
3.6150351e-05
-5.5890198e-08
-4.0465084e-08
4.3592347e-05
-4.9305901e-08
-4.3546173e-08
5.2581752e-05
-3.8542246e-08
-4.8376944e-08
6.3433619e-05
-2.6352603e-08
-5.4553057e-08
7.6565618e-05
-5.9120008e-08
9.2424988e-05
3.4779338e-10
-4.4842063e-11
1.2256494e-09
1.3857018e-09
-1.6383353e-10
4.1101715e-09
3.2596414e-09
-3.4681727e-10
7.8249015e-09
6.0322127e-09
-6.3440769e-10
1.2522581e-08
9.8612224e-09
-1.0467052e-09
1.8376528e-08
1.4721544e-08
-1.5987467e-09
2.5571978e-08
2.0697756e-08
-2.2921733e-09
3.4302302e-08
2.7673254e-08
-3.1207964e-09
4.4765027e-08
3.5642546e-08
-4.0574988e-09
5.7159495e-08
4.4329893e-08
-5.0650456e-09
7.1687568e-08
5.3448053e-08
-6.0832622e-09
8.8560111e-08
6.2640865e-08
-7.0418782e-09
1.0801044e-07
7.1713948e-08
-7.86624e-09
1.3031643e-07
7.9924555e-08
-8.4946574e-09
1.5583139e-07
8.734749e-08
-8.8449093e-09
1.8502329e-07
9.3480696e-08
-8.8973916e-09
2.1851899e-07
9.8153169e-08
-8.6252425e-09
2.5715342e-07
1.0100402e-07
-8.0243543e-09
3.0201813e-07
1.0248392e-07
-7.2232301e-09
3.5450951e-07
1.021988e-07
-6.2433625e-09
4.1637317e-07
1.003382e-07
-5.1409531e-09
4.8976033e-07
9.7756186e-08
-3.9418396e-09
5.7722851e-07
9.3490898e-08
-2.9513211e-09
6.8183073e-07
8.802033e-08
-1.9059677e-09
8.0717114e-07
8.2507429e-08
-1.0932955e-09
9.5751698e-07
7.6686684e-08
-6.636561e-10
1.1379411e-06
7.0305026e-08
-3.9666947e-10
1.3544765e-06
6.2859502e-08
-2.7745942e-10
1.6143688e-06
5.3118929e-08
-6.0235081e-10
1.9263709e-06
4.3572058e-08
-1.0470986e-09
2.3010848e-06
3.5534027e-08
-1.7982205e-09
2.7513123e-06
2.4435192e-08
-3.0898045e-09
3.2925128e-06
1.4984978e-08
-4.3257047e-09
3.9433518e-06
5.2129143e-09
-6.0364468e-09
4.7265297e-06
-5.8083373e-09
-7.9998532e-09
5.6692472e-06
-1.4943978e-08
-1.0333962e-08
6.8044831e-06
-2.5219532e-08
-1.2919754e-08
8.1721016e-06
-3.9106073e-08
-1.5531092e-08
9.8199222e-06
-4.4080461e-08
-1.8343552e-08
1.1806493e-05
-5.3802381e-08
-2.1444802e-08
1.4201621e-05
-6.2210727e-08
-2.465915e-08
1.7090027e-05
-7.225346e-08
-2.7892278e-08
2.057355e-05
-7.6424829e-08
-3.123884e-08
2.4776516e-05
-8.2252266e-08
-3.4690468e-08
2.9847324e-05
-8.4106839e-08
-3.8205446e-08
3.5966966e-05
-8.4696472e-08
-4.1734584e-08
4.3352231e-05
-8.0505089e-08
-4.5298028e-08
5.2268602e-05
-6.8232687e-08
-4.8889579e-08
6.3028949e-05
-5.3206121e-08
-5.2282307e-08
7.6037898e-05
-5.8048425e-08
9.1698771e-05
3.7156669e-10
-1.0406551e-10
1.2232162e-09
1.5148732e-09
-3.6426201e-10
4.1025593e-09
3.5227795e-09
-7.2204356e-10
7.8112459e-09
6.480615e-09
-1.2179786e-09
1.2501907e-08
1.0438013e-08
-1.8657334e-09
1.8347805e-08
1.5384339e-08
-2.658449e-09
2.5534298e-08
2.1236336e-08
-3.5707696e-09
3.4255049e-08
2.7823049e-08
-4.5580824e-09
4.4708183e-08
3.4886245e-08
-5.5536988e-09
5.7093743e-08
4.2088604e-08
-6.4816414e-09
7.1614228e-08
4.9025995e-08
-7.2418588e-09
8.8480365e-08
5.5269457e-08
-7.7490157e-09
1.079242e-07
6.0425928e-08
-7.9532865e-09
1.3022105e-07
6.4163559e-08
-7.8225528e-09
1.5572094e-07
6.6281777e-08
-7.3597027e-09
1.8488849e-07
6.6639088e-08
-6.5471959e-09
2.1834955e-07
6.5249663e-08
-5.4546572e-09
2.5694137e-07
6.2350198e-08
-4.2422569e-09
3.0176277e-07
5.8256846e-08
-3.0885987e-09
3.5423152e-07
5.3319829e-08
-2.0228816e-09
4.1609737e-07
4.7849067e-08
-1.0569334e-09
4.8949204e-07
4.1980883e-08
-6.5228811e-11
5.7697344e-07
4.1105854e-08
-4.6355232e-09
6.8156061e-07
3.4482058e-08
1.6445404e-09
8.0680609e-07
2.7746034e-08
2.0187511e-09
9.5694892e-07
2.5138177e-08
-2.312747e-09
1.1370183e-06
2.1848212e-08
-2.0147961e-09
1.3529991e-06
1.4882566e-08
1.1502964e-09
1.612109e-06
1.0367747e-08
-2.2766775e-09
1.9231013e-06
3.3630071e-09
-8.4970859e-10
2.2965735e-06
-3.6456938e-09
-2.1872849e-09
2.745302e-06
-1.1028906e-08
-3.5848022e-09
3.2847074e-06
-1.8548879e-08
-5.0469697e-09
3.9334034e-06
-2.6448319e-08
-6.586003e-09
4.7138698e-06
-3.4695535e-08
-8.2130961e-09
5.6532293e-06
-4.3328412e-08
-9.9329612e-09
6.7842223e-06
-5.2252854e-08
-1.1727624e-08
8.1463807e-06
-6.1122222e-08
-1.3602116e-08
9.7874476e-06
-6.9762418e-08
-1.5528199e-08
1.1765014e-05
-7.8080851e-08
-1.7488163e-08
1.4148656e-05
-8.5794564e-08
-1.9449416e-08
1.7022313e-05
-9.2518272e-08
-2.1389442e-08
2.048742e-05
-9.791987e-08
-2.3264043e-08
2.4666424e-05
-1.0158373e-07
-2.5033618e-08
2.9707298e-05
-1.029008e-07
-2.6639582e-08
3.5788813e-05
-1.0092368e-07
-2.8032972e-08
4.3127173e-05
-9.4292425e-08
-2.91699e-08
5.1984158e-05
-7.9876406e-08
-2.9965813e-08
6.2675425e-05
-5.5780462e-08
-3.0670803e-08
7.5592157e-05
-3.1139115e-08
9.1164952e-05
3.5510761e-10
-1.5426783e-10
1.2243557e-09
1.3928427e-09
-4.838208e-10
4.1075915e-09
3.1274497e-09
-8.6981828e-10
7.8222146e-09
5.5362132e-09
-1.3230566e-09
1.2520989e-08
8.5612403e-09
-1.8507686e-09
1.8377438e-08
1.2126073e-08
-2.4649945e-09
2.5577158e-08
1.6039455e-08
-3.0698937e-09
3.4313767e-08
2.0009288e-08
-3.5679388e-09
4.4784737e-08
2.3743215e-08
-3.9388375e-09
5.7188414e-08
2.7116987e-08
-4.3141444e-09
7.1724121e-08
3.0040786e-08
-4.6540826e-09
8.8598022e-08
3.2260436e-08
-4.7158384e-09
1.0803674e-07
3.3434955e-08
-4.3493847e-09
1.3031036e-07
3.3446e-08
-3.712745e-09
1.5576607e-07
3.2517797e-08
-3.1021376e-09
1.8487009e-07
3.0621512e-08
-2.1887651e-09
2.1825559e-07
2.8153379e-08
-1.4092747e-09
2.5677307e-07
2.5235541e-08
-6.0256616e-10
3.0153653e-07
2.1883932e-08
2.0930379e-10
3.5394941e-07
1.8196003e-08
9.3516989e-10
4.1575834e-07
1.7712618e-08
-1.8805791e-09
4.8907756e-07
1.6954783e-08
-1.0810724e-09
5.764254e-07
9.0133827e-09
1.166272e-09
6.8079485e-07
7.810996e-09
3.5226342e-10
8.0575034e-07
6.3762845e-09
6.4620003e-10
9.5548466e-07
5.2238634e-10
4.6684623e-10
1.1350117e-06
-4.4226223e-09
-4.4890587e-10
1.3503825e-06
-6.2736466e-09
-7.6349961e-10
1.6088965e-06
-1.1532073e-08
-1.1855969e-09
1.9192895e-06
-1.5395952e-08
-1.5722967e-09
2.2920592e-06
-2.043466e-08
-2.0881235e-09
2.7398965e-06
-2.6509247e-08
-2.7004168e-09
3.278162e-06
-3.3477462e-08
-3.3825702e-09
3.9254052e-06
-4.1167859e-08
-4.1449099e-09
4.7040179e-06
-4.9427705e-08
-4.9467816e-09
5.6410246e-06
-5.8060408e-08
-5.8105104e-09
6.7690432e-06
-6.6838528e-08
-6.7252158e-09
8.1274437e-06
-7.5560843e-08
-7.6437774e-09
9.7637451e-06
-8.3984223e-08
-8.5565766e-09
1.1735311e-05
-9.1795137e-08
-9.4957233e-09
1.4111402e-05
-9.8705134e-08
-1.037533e-08
1.6975656e-05
-1.0438976e-07
-1.1170376e-08
2.0429102e-05
-1.08386e-07
-1.1922033e-08
2.4593819e-05
-1.1016072e-07
-1.2579013e-08
2.9617411e-05
-1.0896419e-07
-1.3136095e-08
3.5678435e-05
-1.0385838e-07
-1.3459979e-08
4.2993124e-05
-9.3462498e-08
-1.3531455e-08
5.1823672e-05
-7.5631292e-08
-1.3312526e-08
6.2488535e-05
-4.728441e-08
-1.2745251e-08
7.5375544e-05
-1.1773251e-08
9.0951448e-05
2.7544602e-10
-1.4972252e-10
1.2429476e-09
1.1200612e-09
-4.8534322e-10
4.1627506e-09
8.7441286e-10
8.3587986e-10
7.9140576e-09
4.0444754e-10
1.2727805e-09
1.2648611e-08
-4.2133276e-10
1.7882204e-09
1.8538962e-08
2.9018006e-09
-2.3020669e-09
2.5769431e-08
6.717671e-09
-2.7833408e-09
3.4533879e-08
1.1054098e-08
-3.2872569e-09
4.5026287e-08
8.0322176e-09
4.0691794e-09
5.7440653e-08
4.4463921e-09
4.4404217e-09
7.1969526e-08
9.1191587e-09
-4.1915471e-09
8.8820441e-08
1.3302498e-08
-4.0165842e-09
1.0822167e-07
1.7089866e-08
-3.7077381e-09
1.3043742e-07
1.2811325e-08
4.3766586e-09
1.5581475e-07
1.5810684e-08
-3.0374264e-09
1.8482812e-07
1.2949376e-08
2.9278472e-09
2.1811906e-07
1.084316e-08
2.1339165e-09
2.5653967e-07
9.5382233e-09
1.3602021e-09
3.0120151e-07
1.0107608e-08
-4.0423911e-10
3.5351333e-07
1.0173395e-08
2.3160666e-10
4.1521148e-07
7.4231536e-09
-2.3583621e-10
4.8840198e-07
4.1347439e-09
7.3295091e-10
5.7561762e-07
3.7894339e-09
-2.7039516e-10
6.7986223e-07
2.2836125e-09
-1.8795066e-10
8.0468995e-07
3.9094051e-10
2.4156649e-10
9.5431574e-07
-1.8866788e-09
1.668275e-10
1.1337776e-06
-5.3218792e-09
9.9321692e-11
1.3490828e-06
-9.4145971e-09
1.2189788e-10
1.6074289e-06
-1.424214e-08
1.2236116e-10
1.9175212e-06
-1.9736749e-08
1.1866059e-10
2.2898822e-06
-2.5756486e-08
-9.7688827e-11
2.7372159e-06
-3.2485063e-08
-1.2510304e-10
3.2748553e-06
-4.0209721e-08
2.0544349e-10
3.9213164e-06
-4.8136592e-08
-1.8491036e-10
4.6989519e-06
-5.6908687e-08
2.3812353e-10
5.63473e-06
-6.5970682e-08
2.580802e-10
6.7612041e-06
-7.4682138e-08
-2.2941101e-10
8.1176941e-06
-8.3254251e-08
-2.5084887e-10
9.7516083e-06
-9.1942718e-08
3.5506466e-10
1.1720141e-05
-9.9226983e-08
-3.3832897e-10
1.4092468e-05
-1.0530036e-07
-4.2072748e-10
1.6952095e-05
-1.1060014e-07
4.8973786e-10
2.0399904e-05
-1.1376719e-07
5.6060488e-10
2.455779e-05
-1.1472908e-07
6.8357183e-10
2.9573706e-05
-1.1140248e-07
-1.0903885e-09
3.562621e-05
-1.0398762e-07
-1.3423296e-09
4.2931537e-05
-9.1008517e-08
-1.6945798e-09
5.1752814e-05
-7.0141286e-08
-2.169112e-09
6.2409764e-05
-4.0912827e-08
2.3472112e-09
7.5291295e-05
3.1515035e-09
9.0878421e-05
-3.6372354e-11
1.6657733e-10
1.2430057e-09
-1.7254116e-10
4.9367465e-10
4.1627938e-09
1.2553045e-09
8.6754442e-10
7.9141546e-09
3.3626043e-09
1.2905868e-09
1.2649195e-08
6.2418635e-09
1.7224528e-09
1.8540273e-08
5.2152265e-09
2.2136493e-09
2.5770827e-08
3.7953007e-09
2.7463758e-09
3.4532186e-08
1.8702338e-09
3.2647164e-09
4.502029e-08
7.1635652e-09
3.7701484e-09
5.7431383e-08
1.2721843e-08
4.0588074e-09
7.1964102e-08
9.6533598e-09
4.0304646e-09
8.881603e-08
6.6041026e-09
3.9471489e-09
1.0820709e-07
3.6572592e-09
3.7068408e-09
1.304137e-07
8.3984059e-09
3.4779369e-09
1.5578949e-07
5.4726599e-09
2.9852856e-09
1.8480546e-07
8.2685063e-09
2.4076028e-09
2.1810058e-07
1.0082684e-08
1.763403e-09
2.565284e-07
1.1177047e-08
9.230341e-10
3.0119567e-07
1.0702104e-08
3.2341826e-11
3.5350474e-07
7.2551704e-09
3.0590104e-09
4.1519557e-07
6.923176e-09
-1.0031356e-09
4.8838664e-07
5.2250467e-09
9.5709409e-10
5.7560175e-07
3.8428001e-09
-6.6691416e-10
6.7984857e-07
2.112636e-09
-4.9903533e-10
8.0467954e-07
6.4809911e-10
-6.0385812e-10
9.5432819e-07
-1.9746315e-09
1.8845741e-10
1.1338135e-06
-5.3915895e-09
6.0615149e-10
1.3491186e-06
-9.3727755e-09
8.7363967e-10
1.6074584e-06
-1.4070307e-08
1.2753881e-09
1.9175486e-06
-1.9414654e-08
1.6386491e-09
2.2899037e-06
-2.5674418e-08
2.1278651e-09
2.7372253e-06
-3.2686961e-08
2.7373141e-09
3.2748583e-06
-4.0063903e-08
3.4380319e-09
3.9213204e-06
-4.8408932e-08
4.1926486e-09
4.6989569e-06
-5.6807171e-08
5.0193105e-09
5.6347446e-06
-6.5467932e-08
5.8725278e-09
6.7612349e-06
-7.4621805e-08
6.7440615e-09
8.1176862e-06
-8.3586582e-08
7.6592207e-09
9.7515395e-06
-9.1566207e-08
8.5949096e-09
1.1720104e-05
-9.9473605e-08
9.4912464e-09
1.4092467e-05
-1.0641215e-07
1.0390622e-08
1.6952115e-05
-1.111297e-07
1.1277251e-08
2.0399938e-05
-1.1400664e-07
1.2057188e-08
2.4557964e-05
-1.139023e-07
1.2710401e-08
2.9573322e-05
-1.1136559e-07
1.3165781e-08
3.5624764e-05
-1.0423016e-07
1.3474293e-08
4.2929243e-05
-9.1429523e-08
1.3557685e-08
5.1749663e-05
-7.2016772e-08
1.3382426e-08
6.2406399e-05
-4.2282046e-08
1.3009e-08
7.529147e-05
1.2164006e-08
9.0877333e-05
3.7510686e-10
9.6783206e-11
1.2242815e-09
1.4456877e-09
3.4207851e-10
4.1074688e-09
3.2145647e-09
6.8665175e-10
7.822092e-09
5.6395213e-09
1.1709768e-09
1.2520844e-08
8.5908283e-09
1.8135974e-09
1.8377187e-08
1.1958894e-08
2.6076107e-09
2.5576636e-08
1.5599077e-08
3.525978e-09
3.4312717e-08
1.9321587e-08
4.5096712e-09
4.4782851e-08
2.2956299e-08
5.4937943e-09
5.7185375e-08
2.6162957e-08
6.4062208e-09
7.1719612e-08
2.8545764e-08
7.1766105e-09
8.859152e-08
3.0033051e-08
7.7350174e-09
1.0802761e-07
3.0553452e-08
7.9913011e-09
1.3029856e-07
3.028789e-08
7.8948128e-09
1.5575245e-07
2.920142e-08
7.4340925e-09
1.8485627e-07
2.7452952e-08
6.650889e-09
2.1824372e-07
2.5236397e-08
5.5877267e-09
2.5676459e-07
2.2526131e-08
4.3853547e-09
3.0153121e-07
1.9366158e-08
3.1591967e-09
3.5395214e-07
1.9638367e-08
2.0648028e-09
4.1576714e-07
1.6435e-08
9.1263961e-10
4.89084e-07
1.587983e-08
-2.4359186e-10
5.7643263e-07
8.1623635e-09
4.9315707e-09
6.8079618e-07
7.3366632e-09
-2.1331088e-09
8.0573925e-07
1.0158464e-09
2.9756326e-09
9.5544968e-07
4.6905713e-10
-2.3195613e-09
1.1349722e-06
-4.4479187e-09
2.1590304e-09
1.3503504e-06
-6.1957605e-09
-1.131641e-09
1.6088735e-06
-1.1491106e-08
2.4144202e-09
1.9192739e-06
-1.5321088e-08
8.9123186e-10
2.2920506e-06
-2.0360368e-08
2.2343621e-09
2.739894e-06
-2.6444347e-08
3.63558e-09
3.278165e-06
-3.3408851e-08
5.0992069e-09
3.9254136e-06
-4.1106002e-08
6.6390242e-09
4.7040314e-06
-4.9349593e-08
8.2654867e-09
5.6410426e-06
-5.7976768e-08
9.986202e-09
6.7690638e-06
-6.6791217e-08
1.1784526e-08
8.1274626e-06
-7.5554216e-08
1.3662222e-08
9.7637598e-06
-8.400445e-08
1.5590496e-08
1.1735321e-05
-9.1902588e-08
1.7558551e-08
1.41114e-05
-9.8902533e-08
1.95278e-08
1.6975627e-05
-1.0460552e-07
2.1470886e-08
2.0429021e-05
-1.086016e-07
2.335099e-08
2.4593649e-05
-1.1034508e-07
2.5127116e-08
2.961708e-05
-1.0916087e-07
2.6747662e-08
3.5677882e-05
-1.0404155e-07
2.8149517e-08
4.2992309e-05
-9.3611696e-08
2.9289396e-08
5.1822565e-05
-7.5778622e-08
3.0082779e-08
6.2487151e-05
-4.7408988e-08
3.0769026e-08
7.5373903e-05
3.1217776e-08
9.0949438e-05
3.6954462e-10
3.9927134e-11
1.2231013e-09
1.4988348e-09
1.5638283e-10
4.1023627e-09
3.4791773e-09
3.3998732e-10
7.8110347e-09
6.3969204e-09
6.2895722e-10
1.2501677e-08
1.0306886e-08
1.0440134e-09
1.8347537e-08
1.5203684e-08
1.6000591e-09
2.5533965e-08
2.1007957e-08
2.2982908e-09
3.4254609e-08
2.7538901e-08
3.1323139e-09
4.4707578e-08
3.4528895e-08
4.076305e-09
5.7092876e-08
4.1632832e-08
5.0946056e-09
7.1612957e-08
4.8468371e-08
6.127141e-09
8.8478512e-08
5.4646129e-08
7.1016864e-09
1.079216e-07
5.9777179e-08
7.9392887e-09
1.302176e-07
6.351582e-08
8.5753659e-09
1.5571652e-07
6.5636766e-08
8.9255011e-09
1.8488293e-07
6.60329e-08
8.9704796e-09
2.1834262e-07
6.4731637e-08
8.6784768e-09
2.569327e-07
6.1956912e-08
8.0456e-09
3.0175547e-07
5.7981747e-08
7.1767032e-09
3.542233e-07
5.3220195e-08
6.1116939e-09
4.1608715e-07
4.7773688e-08
4.9801097e-09
4.8947809e-07
4.16567e-08
3.9038535e-09
5.7695226e-07
4.0946116e-08
3.1053594e-09
6.8154207e-07
3.3669842e-08
2.0824344e-09
8.0679162e-07
3.1710544e-08
1.2951481e-09
9.5694323e-07
2.4583833e-08
5.9343562e-10
1.1369894e-06
2.1543434e-08
3.33473e-10
1.3529673e-06
1.4652163e-08
2.6405263e-10
1.6120771e-06
1.0301707e-08
6.1264195e-10
1.9230751e-06
3.3468684e-09
1.069697e-09
2.2965553e-06
-3.6195877e-09
1.8273194e-09
2.7452932e-06
-1.0966027e-08
3.123669e-09
3.2847075e-06
-1.8457278e-08
4.3648304e-09
3.9334125e-06
-2.6337527e-08
6.0811801e-09
4.7138884e-06
-3.457609e-08
8.049869e-09
5.6532574e-06
-4.3210586e-08
1.0391197e-08
6.7842595e-06
-5.2144908e-08
1.2984259e-08
8.146426e-06
-6.1032143e-08
1.5602864e-08
9.7874986e-06
-6.9699433e-08
1.8422993e-08
1.1765066e-05
-7.8045846e-08
2.1532678e-08
1.4148702e-05
-8.5786583e-08
2.4755229e-08
1.7022342e-05
-9.2537602e-08
2.7996097e-08
2.0487418e-05
-9.7965131e-08
3.1350291e-08
2.4666372e-05
-1.0165165e-07
3.4809167e-08
2.9707175e-05
-1.0298001e-07
3.8330653e-08
3.5788594e-05
-1.0100487e-07
4.1863972e-08
4.3126828e-05
-9.4367768e-08
4.5429305e-08
5.1983657e-05
-7.9937341e-08
4.9019846e-08
6.2674729e-05
-5.5825934e-08
5.2409937e-08
7.5591225e-05
5.817259e-08
9.1163721e-05
3.4747708e-10
7.2888917e-12
1.2255607e-09
1.3847964e-09
7.0184657e-11
4.1100326e-09
3.2581456e-09
1.1491971e-10
7.8247841e-09
6.0305027e-09
2.5560008e-10
1.2522511e-08
9.8605173e-09
3.8782199e-10
1.8376535e-08
1.4723882e-08
6.7095332e-10
2.5572098e-08
2.0705627e-08
9.5092836e-10
3.4302589e-08
2.7689411e-08
1.37289e-09
4.4765552e-08
3.5671139e-08
1.7501212e-09
5.7160355e-08
4.4378146e-08
2.2745822e-09
7.1688891e-08
5.3526712e-08
2.8697186e-09
8.8562057e-08
6.2762639e-08
3.5239605e-09
1.080132e-07
7.1889836e-08
4.0102804e-09
1.3032022e-07
8.016193e-08
4.8440301e-09
1.558364e-07
8.7648416e-08
5.1694996e-09
1.8502971e-07
9.3842277e-08
5.5993864e-09
2.1852695e-07
9.8562939e-08
5.8331403e-09
2.5716301e-07
1.0144065e-07
6.1092174e-09
3.0202929e-07
1.0289353e-07
5.786352e-09
3.5452186e-07
1.0250743e-07
5.7637101e-09
4.16386e-07
1.0051816e-07
5.5108779e-09
4.8977315e-07
9.7910449e-08
4.3896612e-09
5.7724088e-07
9.3778955e-08
4.4773316e-09
6.8184446e-07
8.8440956e-08
3.997e-09
8.0718672e-07
8.3080301e-08
2.4912261e-09
9.5753404e-07
7.7152243e-08
1.5142944e-09
1.1379573e-06
7.0676307e-08
8.4280057e-10
1.3544918e-06
6.3186289e-08
7.2389174e-10
1.6143843e-06
5.3436465e-08
2.1951516e-09
1.9263885e-06
4.3877509e-08
1.2452196e-09
2.3011058e-06
3.5831623e-08
-7.8170254e-10
2.7513388e-06
2.4726614e-08
2.4279966e-09
3.2925472e-06
1.5270605e-08
9.1290719e-10
3.9433965e-06
5.4915818e-09
2.0044342e-09
4.726587e-06
-5.5410754e-09
4.472403e-09
5.6693203e-06
-1.4688968e-08
4.4806744e-09
6.8045732e-06
-2.497899e-08
8.0176599e-09
8.172211e-06
-3.8883224e-08
1.4424244e-08
9.820053e-06
-4.3877728e-08
8.4998281e-09
1.1806647e-05
-5.3622544e-08
1.7018456e-08
1.4201799e-05
-6.205692e-08
1.9835205e-08
1.7090228e-05
-7.2128705e-08
2.6154501e-08
2.0573775e-05
-7.6331417e-08
2.50425e-08
2.4776761e-05
-8.2190544e-08
3.237853e-08
2.9847586e-05
-8.407751e-08
3.4436708e-08
3.5967237e-05
-8.4696684e-08
4.0600074e-08
4.3352499e-05
-8.053221e-08
4.3692429e-08
5.2268852e-05
-6.8275179e-08
4.8535121e-08
6.3029144e-05
-5.3266434e-08
5.4720441e-08
7.603804e-05
5.9303231e-08
9.1698692e-05
3.2311683e-10
1.2269961e-09
1.3478368e-09
4.1149038e-09
3.1168319e-09
7.8342044e-09
5.7806386e-09
1.2537991e-08
9.3554024e-09
1.8399914e-08
1.3977701e-08
2.5605439e-08
1.9583547e-08
3.4348077e-08
2.6205135e-08
4.4825283e-08
3.3636551e-08
5.7235728e-08
4.1825426e-08
7.1781e-08
5.0612961e-08
8.8670803e-08
5.9818629e-08
1.0813678e-07
6.9045937e-08
1.3045595e-07
7.8442809e-08
1.559815e-07
8.734824e-08
1.8518071e-07
9.5759288e-08
2.1868133e-07
1.0344558e-07
2.5732226e-07
1.1044745e-07
3.0219409e-07
1.1621498e-07
3.5469505e-07
1.2112175e-07
4.1657219e-07
1.25011e-07
4.8995642e-07
1.2703694e-07
5.774273e-07
1.284456e-07
6.8205546e-07
1.2868614e-07
8.0741542e-07
1.2633701e-07
9.5767435e-07
1.221769e-07
1.1382971e-06
1.1620486e-07
1.3551365e-06
1.0860052e-07
1.6152423e-06
1.0095748e-07
1.927725e-06
9.0729559e-08
2.303071e-06
7.659022e-08
2.7542406e-06
6.4551888e-08
3.2975318e-06
4.8369434e-08
3.9484566e-06
3.1925592e-08
4.7343148e-06
1.6553322e-08
5.6808297e-06
-8.9267631e-10
6.8183876e-06
-1.5790232e-08
8.1918755e-06
-2.499304e-08
9.8476223e-06
-4.1424138e-08
1.1841605e-05
-5.0323495e-08
1.4247098e-05
-5.7754597e-08
1.7150266e-05
-5.9532733e-08
2.0657163e-05
-6.428655e-08
2.4883286e-05
-6.2918513e-08
2.9989668e-05
-6.1577115e-08
3.6151241e-05
-5.571542e-08
4.3593421e-05
-4.91717e-08
5.2583049e-05
-3.8448797e-08
6.3435165e-05
-2.6322995e-08
7.6567478e-05
9.2427137e-05
2.2850732e-10
-1.1775292e-11
1.0103299e-09
9.8660114e-10
-5.7922311e-11
3.4148513e-09
2.3489248e-09
-9.0474505e-11
6.5624402e-09
4.468558e-09
-2.0797363e-10
1.0626322e-08
7.3735276e-09
-3.1425736e-10
1.5809035e-08
1.1191558e-08
-5.5639147e-10
2.2343441e-08
1.5840899e-08
-7.9317708e-10
3.0491304e-08
2.1280984e-08
-1.1551055e-09
4.0539392e-08
2.7189174e-08
-1.4661682e-09
5.2792322e-08
3.3297018e-08
-1.8920318e-09
6.7563088e-08
3.9150415e-08
-2.3476721e-09
8.5161922e-08
4.4197616e-08
-2.8024074e-09
1.0588759e-07
4.7643258e-08
-3.02053e-09
1.3002527e-07
4.9225658e-08
-3.4650017e-09
1.5785735e-07
4.801747e-08
-3.3128199e-09
1.8969337e-07
4.3915576e-08
-3.1535481e-09
2.2592623e-07
3.6847776e-08
-2.735254e-09
2.6711273e-07
2.7316849e-08
-2.3630537e-09
3.1407378e-07
1.5502153e-08
-1.5093594e-09
3.6800313e-07
2.8744526e-09
-1.3771615e-09
4.3055827e-07
-1.0438206e-08
-6.7290394e-10
5.0392048e-07
-2.3604306e-08
-2.8205126e-10
5.9085093e-07
-3.5574852e-08
-6.7071629e-10
6.9466976e-07
-4.8216042e-08
8.1123247e-10
8.1921616e-07
-5.9912749e-08
4.2520874e-10
9.689135e-07
-7.1507644e-08
7.5218509e-10
1.1491038e-06
-8.2823006e-08
6.2200514e-10
1.3657897e-06
-9.351415e-08
-2.310367e-10
1.6261192e-06
-1.0611398e-07
1.303745e-09
1.9389698e-06
-1.1640041e-07
-1.5899933e-09
2.3148889e-06
-1.2818574e-07
-7.9814979e-10
2.7667561e-06
-1.3592916e-07
-5.2526621e-09
3.3104483e-06
-1.4555511e-07
-4.6814212e-09
3.9626697e-06
-1.5374399e-07
-6.709707e-09
4.7491015e-06
-1.5927937e-07
-9.9577489e-09
5.6961885e-06
-1.6546415e-07
-1.0668665e-08
6.8350788e-06
-1.6889605e-07
-1.4516131e-08
8.2096282e-06
-1.6668289e-07
-2.1259773e-08
9.8664329e-06
-1.7249704e-07
-1.4803204e-08
1.1861937e-05
-1.706437e-07
-2.3918743e-08
1.4268819e-05
-1.6745928e-07
-2.6935759e-08
1.71736e-05
-1.5867402e-07
-3.3683479e-08
2.0681557e-05
-1.5327232e-07
-3.2315186e-08
2.4909589e-05
-1.4126802e-07
-4.0282561e-08
3.0017207e-05
-1.2917878e-07
-4.249601e-08
3.6180753e-05
-1.1137222e-07
-4.9494042e-08
4.3624028e-05
-9.3293436e-08
-5.2909077e-08
5.2616574e-05
-6.7340389e-08
-5.9913586e-08
6.3467566e-05
-4.3311875e-08
-6.5371123e-08
7.6606943e-05
-7.8826542e-08
9.2460487e-05
2.5002524e-10
-4.4666586e-11
1.0085191e-09
1.0231589e-09
-1.2953015e-10
3.4087055e-09
2.4866208e-09
-2.7948063e-10
6.5505853e-09
4.7178411e-09
-5.2338461e-10
1.0606976e-08
7.8810783e-09
-8.8064953e-10
1.5779968e-08
1.196297e-08
-1.3677969e-09
2.2301858e-08
1.7025213e-08
-1.9866193e-09
3.0433947e-08
2.2899699e-08
-2.7265433e-09
4.0462502e-08
2.9451494e-08
-3.5498506e-09
5.2691995e-08
3.621099e-08
-4.3986292e-09
6.7435464e-08
4.2600502e-08
-5.1801738e-09
8.5004185e-08
4.7890502e-08
-5.7792191e-09
1.0569862e-07
5.1452021e-08
-6.0697586e-09
1.2980569e-07
5.2157756e-08
-5.9463006e-09
1.5760857e-07
4.9771303e-08
-5.3180555e-09
1.8941687e-07
4.3781699e-08
-4.2621806e-09
2.2561956e-07
3.4444531e-08
-3.0100266e-09
2.6676778e-07
2.2349037e-08
-1.9240805e-09
3.1367689e-07
8.1874009e-09
-3.7113098e-10
3.6753499e-07
-5.5922527e-09
-1.2151279e-09
4.29993e-07
-2.3115316e-08
3.3745121e-09
5.0323818e-07
-3.7361384e-08
1.1397835e-09
5.9005476e-07
-5.2315331e-08
2.3943347e-09
6.9372127e-07
-6.5770678e-08
3.3764729e-09
8.1806281e-07
-7.9249322e-08
3.9162867e-09
9.6750639e-07
-9.1627675e-08
3.8598229e-09
1.1472143e-06
-1.029538e-07
3.1817615e-09
1.3632458e-06
-1.1365376e-07
2.0194223e-09
1.6228224e-06
-1.2100144e-07
3.8351949e-10
1.9346434e-06
-1.2621826e-07
-4.5001189e-09
2.3092171e-06
-1.273542e-07
-7.6199339e-09
2.7592764e-06
-1.2998249e-07
-1.0338094e-08
3.3002328e-06
-1.292382e-07
-1.2659348e-08
3.9505917e-06
-1.2790561e-07
-1.4936061e-08
4.7334283e-06
-1.2744315e-07
-1.7050153e-08
5.6758804e-06
-1.2533581e-07
-1.9217186e-08
6.8109266e-06
-1.2463303e-07
-2.1517502e-08
8.1784024e-06
-1.2848673e-07
-2.3501468e-08
9.8260196e-06
-1.2299598e-07
-2.6172669e-08
1.1812374e-05
-1.2352356e-07
-2.8859477e-08
1.420709e-05
-1.2352837e-07
-3.1808065e-08
1.7094902e-05
-1.2638636e-07
-3.4626885e-08
2.057735e-05
-1.2314216e-07
-3.8044858e-08
2.4779003e-05
-1.2231686e-07
-4.1459307e-08
2.984768e-05
-1.1723435e-07
-4.5333284e-08
3.5964727e-05
-1.1067682e-07
-4.9270424e-08
4.3345455e-05
-9.9028655e-08
-5.3792767e-08
5.2257838e-05
-7.7214341e-08
-5.8812205e-08
6.3006033e-05
-5.4917935e-08
-6.2893053e-08
7.6013127e-05
-7.8116854e-08
9.164315e-05
2.728471e-10
-9.9901912e-11
1.0056116e-09
1.1525828e-09
-3.0628769e-10
3.399525e-09
2.7544497e-09
-6.0428627e-10
6.5340692e-09
5.1830224e-09
-1.0321382e-09
1.0581927e-08
8.514024e-09
-1.6090994e-09
1.5745039e-08
1.2764158e-08
-2.3395655e-09
2.2255641e-08
1.7844661e-08
-3.1874874e-09
3.0375022e-08
2.3543195e-08
-4.107029e-09
4.0389613e-08
2.9478097e-08
-4.995547e-09
5.2604016e-08
3.5096272e-08
-5.7344594e-09
6.7331208e-08
3.9705739e-08
-6.1914664e-09
8.4881256e-08
4.2542756e-08
-6.2449296e-09
1.0555144e-07
4.2867816e-08
-5.7980905e-09
1.2962273e-07
4.0055601e-08
-4.7840241e-09
1.573694e-07
3.3769747e-08
-3.2349723e-09
1.8908931e-07
2.4077091e-08
-1.3833386e-09
2.2516104e-07
1.1329083e-08
5.4854491e-10
2.6612863e-07
-3.7687569e-10
-1.2672804e-09
3.1280976e-07
-1.3462249e-08
5.5570886e-10
3.6638748e-07
-2.9769595e-08
2.6261884e-09
4.2856051e-07
-4.3089314e-08
4.6496533e-09
5.0153361e-07
-5.9202018e-08
6.1979526e-09
5.88025e-07
-7.3715572e-08
7.1811205e-09
6.9128399e-07
-8.5966601e-08
7.3357613e-09
8.1509382e-07
-9.5664237e-08
6.725854e-09
9.6383263e-07
-1.029787e-07
5.5783678e-09
1.1426096e-06
-1.0834359e-07
4.0827263e-09
1.3574584e-06
-1.126392e-07
2.827592e-09
1.6155921e-06
-1.0568938e-07
-9.1773504e-09
1.9257083e-06
-1.0207733e-07
-9.7780571e-09
2.2982352e-06
-9.9985864e-08
-1.0507234e-08
2.746094e-06
-9.9033574e-08
-1.1390318e-08
3.2848042e-06
-9.8969726e-08
-1.2447123e-08
3.9331249e-06
-9.9635409e-08
-1.3612803e-08
4.7132107e-06
-1.0074967e-07
-1.4868724e-08
5.6521619e-06
-1.0224922e-07
-1.6194459e-08
6.782699e-06
-1.0412955e-07
-1.7577841e-08
8.1443216e-06
-1.0584855e-07
-1.9076258e-08
9.7847416e-06
-1.0783736e-07
-2.0659362e-08
1.176149e-05
-1.0980332e-07
-2.2307678e-08
1.4144071e-05
-1.116161e-07
-2.4018635e-08
1.7016338e-05
-1.1264475e-07
-2.5817583e-08
2.0479642e-05
-1.1287917e-07
-2.7651046e-08
2.4656268e-05
-1.1154121e-07
-2.9528856e-08
2.9694035e-05
-1.0810061e-07
-3.1396233e-08
3.5771443e-05
-1.0128174e-07
-3.3238724e-08
4.3104328e-05
-9.0020453e-08
-3.5112319e-08
5.195422e-05
-7.1004862e-08
-3.6722165e-08
6.2634325e-05
-4.4278156e-08
-3.9124811e-08
7.5541672e-05
-4.2150768e-08
9.1084719e-05
2.850503e-10
-1.6587969e-10
1.0053391e-09
1.1771178e-09
-4.9033891e-10
3.3996858e-09
2.7246904e-09
-8.6553045e-10
6.5359799e-09
4.9022689e-09
-1.2759202e-09
1.0587271e-08
7.6246464e-09
-1.7098169e-09
1.5755875e-08
1.0749608e-08
-2.1615282e-09
2.2274332e-08
1.4088683e-08
-2.616341e-09
3.0403828e-08
1.7470278e-08
-3.1332254e-09
4.042974e-08
2.0556743e-08
-3.5470382e-09
5.2653889e-08
2.2982815e-08
-3.8198704e-09
6.7383939e-08
2.4225182e-08
-3.7562588e-09
8.4921114e-08
2.3706567e-08
-3.2384247e-09
1.0554988e-07
2.1196447e-08
-2.5124092e-09
1.2953586e-07
1.6658793e-08
-1.6182288e-09
1.5713888e-07
1.0206954e-08
-5.5984696e-10
1.8864807e-07
4.1736953e-09
-1.5367287e-09
2.244437e-07
-4.001582e-09
4.1563758e-10
2.6508243e-07
-1.6972032e-08
1.8428789e-09
3.1139783e-07
-3.0417274e-08
3.3210448e-09
3.6463065e-07
-4.3225605e-08
4.7113859e-09
4.2648302e-07
-5.4209413e-08
5.564639e-09
4.9914808e-07
-6.2656192e-08
5.7463655e-09
5.8532553e-07
-6.820276e-08
5.2953802e-09
6.8822892e-07
-7.1205059e-08
4.4784011e-09
8.1161207e-07
-7.2207625e-08
3.3605486e-09
9.5985497e-07
-7.2021043e-08
2.318259e-09
1.1380881e-06
-6.5822315e-08
-4.1161996e-09
1.352386e-06
-6.0437304e-08
-3.6356017e-09
1.6099785e-06
-6.5647559e-08
-4.2421068e-09
1.9195691e-06
-7.0235828e-08
-4.8977112e-09
2.2917721e-06
-7.4409492e-08
-5.5385188e-09
2.7391061e-06
-7.8344774e-08
-6.1700601e-09
3.2768806e-06
-8.2216978e-08
-6.79282e-09
3.9236254e-06
-8.6077099e-08
-7.4470458e-09
4.7017134e-06
-8.9983894e-08
-8.094665e-09
5.638158e-06
-9.3886581e-08
-8.8082354e-09
6.7655602e-06
-9.7770688e-08
-9.5102329e-09
8.1232611e-06
-1.0164729e-07
-1.0197728e-08
9.7587433e-06
-1.0533857e-07
-1.0985607e-08
1.1729327e-05
-1.0859715e-07
-1.1867197e-08
1.4104218e-05
-1.1128815e-07
-1.2649327e-08
1.6966977e-05
-1.132084e-07
-1.3329157e-08
2.0418535e-05
-1.1376879e-07
-1.4121141e-08
2.4580854e-05
-1.126268e-07
-1.4638364e-08
2.9601384e-05
-1.0891177e-07
-1.5177965e-08
3.5658506e-05
-1.0159809e-07
-1.5625962e-08
4.2968199e-05
-8.9400664e-08
-1.5921251e-08
5.1792284e-05
-7.0148234e-08
-1.6130967e-08
6.2448697e-05
-4.1931084e-08
-1.633338e-08
7.5324543e-05
-1.4801291e-08
9.0882175e-05
-1.0679511e-10
1.6623415e-10
1.0175892e-09
-3.6005692e-10
4.8928314e-10
3.4362482e-09
8.3545298e-10
-7.4478001e-10
6.59767e-09
2.6573379e-09