/*--------------------------------*- C++ -*----------------------------------*\
| =========                 |                                                 |
| \\      /  F ield         | OpenFOAM: The Open Source CFD Toolbox           |
|  \\    /   O peration     | Version:  4.0                                   |
|   \\  /    A nd           | Web:      www.OpenFOAM.org                      |
|    \\/     M anipulation  |                                                 |
\*---------------------------------------------------------------------------*/
FoamFile
{
    version     2.0;
    format      ascii;
    class       volScalarField;
    location    "2000";
    object      rho;
}
// * * * * * * * * * * * * * * * * * * * * * * * * * * * * * * * * * * * * * //

dimensions      [1 -3 0 0 0 0 0];

internalField   nonuniform List<scalar> 
100000
(
0.97462814
0.98689617
1.0002394
1.0145942
1.0298439
1.0458125
1.0622632
1.0789034
1.0953973
1.1113871
1.1265195
1.1404765
1.1530035
1.1639304
1.1731815
1.180775
1.1868099
1.1914463
1.1948829
1.197335
1.1990138
1.2001129
1.2007982
1.201203
1.2014284
1.2015461
1.2016033
1.201629
1.2016397
1.2016436
1.201645
1.2016454
1.2016455
1.2016456
1.2016456
1.2016456
1.2016456
1.2016456
1.2016456
1.2016456
1.2016456
1.2016456
1.2016456
1.2016456
1.2016456
1.2016456
1.2016456
1.2016456
1.2016456
1.2016456
0.97500009
0.98727851
1.0006299
1.0149893
1.030239
1.0462018
1.0626406
1.0792628
1.0957335
1.1116962
1.1268004
1.1407308
1.1532347
1.1641424
1.1733785
1.1809583
1.1869788
1.1915985
1.1950156
1.1974453
1.1991007
1.2001774
1.2008427
1.2012316
1.2014454
1.2015553
1.2016079
1.2016311
1.2016405
1.2016439
1.2016451
1.2016454
1.2016455
1.2016456
1.2016456
1.2016456
1.2016456
1.2016456
1.2016456
1.2016456
1.2016456
1.2016456
1.2016456
1.2016456
1.2016456
1.2016456
1.2016456
1.2016456
1.2016456
1.2016456
0.97604814
0.98844162
1.001892
1.0163313
1.0316388
1.0476361
1.0640857
1.0806962
1.0971352
1.1130496
1.1280917
1.141948
1.1543667
1.1651783
1.1743068
1.1817696
1.187666
1.1921595
1.1954541
1.1977718
1.1993309
1.2003303
1.200938
1.2012869
1.201475
1.2015699
1.2016145
1.2016338
1.2016415
1.2016443
1.2016452
1.2016455
1.2016455
1.2016456
1.2016456
1.2016456
1.2016456
1.2016456
1.2016456
1.2016456
1.2016456
1.2016456
1.2016456
1.2016456
1.2016456
1.2016456
1.2016456
1.2016456
1.2016456
1.2016456
0.98111616
0.99360011
1.0070702
1.0214588
1.0366491
1.0524684
1.0686873
1.0850231
1.1011523
1.1167295
1.1314143
1.1449001
1.1569405
1.1673724
1.1761275
1.1832335
1.1888015
1.193005
1.1960559
1.1981774
1.1995897
1.2004867
1.2010269
1.2013343
1.2014989
1.2015811
1.2016193
1.2016357
1.2016422
1.2016445
1.2016453
1.2016455
1.2016455
1.2016456
1.2016456
1.2016456
1.2016456
1.2016456
1.2016456
1.2016456
1.2016456
1.2016456
1.2016456
1.2016456
1.2016456
1.2016456
1.2016456
1.2016456
1.2016456
1.2016456
1.0005816
1.011203
1.0228707
1.0355285
1.0490712
1.0633392
1.078119
1.0931294
1.1080428
1.1225008
1.1361769
1.1487804
1.1600478
1.1698043
1.177972
1.1845934
1.1897659
1.1936624
1.1964865
1.1984517
1.1997573
1.2005831
1.2010793
1.2013611
1.2015116
1.2015867
1.2016216
1.2016366
1.2016425
1.2016446
1.2016453
1.2016455
1.2016456
1.2016456
1.2016456
1.2016456
1.2016456
1.2016456
1.2016456
1.2016456
1.2016456
1.2016456
1.2016456
1.2016456
1.2016456
1.2016456
1.2016456
1.2016456
1.2016456
1.2016456
1.0005845
1.011206
1.022875
1.0355383
1.0490894
1.0633615
1.0781291
1.0931188
1.1080172
1.1224934
1.1361891
1.1487743
1.1600149
1.1697552
1.1779344
1.1845597
1.1897462
1.1936543
1.1964842
1.1984491
1.1997547
1.2005818
1.2010786
1.2013608
1.2015115
1.2015867
1.2016216
1.2016366
1.2016425
1.2016446
1.2016453
1.2016455
1.2016456
1.2016456
1.2016456
1.2016456
1.2016456
1.2016456
1.2016456
1.2016456
1.2016456
1.2016456
1.2016456
1.2016456
1.2016456
1.2016456
1.2016456
1.2016456
1.2016456
1.2016456
0.98112726
0.99361065
1.0070803
1.0214688
1.0366587
1.0524772
1.0686941
1.085027
1.1011529
1.1167272
1.1314087
1.1448895
1.1569243
1.1673519
1.1761056
1.1832126
1.1887835
1.1929908
1.1960457
1.1981726
1.1995883
1.2004859
1.2010271
1.2013346
1.2014991
1.2015812
1.2016194
1.2016357
1.2016422
1.2016445
1.2016453
1.2016455
1.2016455
1.2016456
1.2016456
1.2016456
1.2016456
1.2016456
1.2016456
1.2016456
1.2016456
1.2016456
1.2016456
1.2016456
1.2016456
1.2016456
1.2016456
1.2016456
1.2016456
1.2016456
0.9760536
0.98844637
1.0018962
1.0163349
1.031642
1.0476391
1.0640885
1.0806989
1.0971379
1.1130522
1.128094
1.1419499
1.1543682
1.1651796
1.174308
1.1817706
1.1876669
1.1921604
1.1954552
1.197773
1.1993322
1.2003313
1.2009379
1.2012867
1.2014748
1.2015699
1.2016145
1.2016338
1.2016415
1.2016443
1.2016452
1.2016455
1.2016455
1.2016456
1.2016456
1.2016456
1.2016456
1.2016456
1.2016456
1.2016456
1.2016456
1.2016456
1.2016456
1.2016456
1.2016456
1.2016456
1.2016456
1.2016456
1.2016456
1.2016456
0.97496968
0.98725034
1.000604
1.0149657
1.0302177
1.0461828
1.062624
1.0792485
1.0957215
1.1116864
1.1267926
1.1407249
1.1532305
1.1641397
1.1733769
1.1809576
1.1869786
1.1915986
1.1950159
1.1974456
1.199101
1.2001775
1.2008427
1.2012315
1.2014453
1.2015553
1.2016078
1.2016311
1.2016405
1.2016439
1.2016451
1.2016454
1.2016455
1.2016456
1.2016456
1.2016456
1.2016456
1.2016456
1.2016456
1.2016456
1.2016456
1.2016456
1.2016456
1.2016456
1.2016456
1.2016456
1.2016456
1.2016456
1.2016456
1.2016456
0.97458976
0.98685991
1.0002055
1.0145628
1.0298152
1.0457867
1.0622404
1.0788837
1.0953807
1.1113736
1.1265089
1.1404685
1.1529978
1.1639267
1.1731792
1.1807739
1.1868094
1.1914462
1.194883
1.1973351
1.1990139
1.2001129
1.2007982
1.201203
1.2014284
1.2015461
1.2016033
1.201629
1.2016396
1.2016436
1.201645
1.2016454
1.2016455
1.2016456
1.2016456
1.2016456
1.2016456
1.2016456
1.2016456
1.2016456
1.2016456
1.2016456
1.2016456
1.2016456
1.2016456
1.2016456
1.2016456
1.2016456
1.2016456
1.2016456
0.93431703
0.94400204
0.95459639
0.96615121
0.97870324
0.99226659
1.0068223
1.0223074
1.0386032
1.0555266
1.0728253
1.0901811
1.1072223
1.123548
1.1387588
1.1524983
1.1644883
1.1745621
1.1826818
1.1889389
1.1935325
1.1967193
1.1988099
1.2001043
1.2008582
1.2012692
1.201478
1.2015761
1.2016186
1.2016354
1.2016414
1.2016433
1.2016439
1.201644
1.2016441
1.2016441
1.2016441
1.2016441
1.2016441
1.2016441
1.2016441
1.2016441
1.2016441
1.2016441
1.2016441
1.2016441
1.2016441
1.2016441
1.2016441
1.2016441
0.93497218
0.94467471
0.95528611
0.96685592
0.97941922
0.99298823
1.0075425
1.0230175
1.039294
1.056189
1.0734519
1.0907675
1.1077678
1.1240543
1.1392306
1.1529378
1.1648952
1.1749327
1.1830108
1.1892221
1.1937516
1.1968748
1.1989141
1.2001704
1.2008973
1.2012907
1.2014888
1.2015811
1.2016206
1.2016361
1.2016416
1.2016434
1.2016439
1.201644
1.2016441
1.2016441
1.2016441
1.2016441
1.2016441
1.2016441
1.2016441
1.2016441
1.2016441
1.2016441
1.2016441
1.2016441
1.2016441
1.2016441
1.2016441
1.2016441
0.9364258
0.94629717
0.95706323
0.9687703
0.98145045
0.99511352
1.0097373
1.0252566
1.0415524
1.0584427
1.075678
1.092943
1.1098685
1.1260533
1.1410963
1.1546365
1.1663935
1.1761983
1.1840384
1.1899841
1.1942796
1.197223
1.1991309
1.2002968
1.200966
1.2013253
1.2015049
1.2015879
1.2016233
1.2016371
1.2016419
1.2016435
1.2016439
1.201644
1.2016441
1.2016441
1.2016441
1.2016441
1.2016441
1.2016441
1.2016441
1.2016441
1.2016441
1.2016441
1.2016441
1.2016441
1.2016441
1.2016441
1.2016441
1.2016441
0.94240965
0.9523869
0.96320746
0.97491853
0.98755436
1.0011279
1.0156202
1.030969
1.0470569
1.0637027
1.0806547
1.0975923
1.1141399
1.1298933
1.144456
1.1574815
1.1687175
1.1780014
1.1853443
1.1908851
1.1948655
1.1975811
1.1993358
1.2004064
1.2010207
1.2013508
1.2015158
1.2015923
1.2016249
1.2016376
1.2016421
1.2016435
1.2016439
1.201644
1.2016441
1.2016441
1.2016441
1.2016441
1.2016441
1.2016441
1.2016441
1.2016441
1.2016441
1.2016441
1.2016441
1.2016441
1.2016441
1.2016441
1.2016441
1.2016441
0.96103761
0.9694072
0.97870185
0.98897748
1.0002727
1.0126011
1.0259356
1.040207
1.0552908
1.0710006
1.0870866
1.1031997
1.1189368
1.1339094
1.1477414
1.1600799
1.170672
1.1793983
1.1862878
1.1914886
1.1952299
1.1977887
1.1994479
1.2004636
1.2010485
1.2013636
1.2015215
1.2015947
1.2016259
1.201638
1.2016422
1.2016436
1.2016439
1.201644
1.2016441
1.2016441
1.2016441
1.2016441
1.2016441
1.2016441
1.2016441
1.2016441
1.2016441
1.2016441
1.2016441
1.2016441
1.2016441
1.2016441
1.2016441
1.2016441
0.96103566
0.96940503
0.97869813
0.98896882
1.0002551
1.012572
1.0259019
1.0401864
1.0552946
1.071024
1.0870927
1.1031838
1.1189337
1.1339208
1.1477436
1.1600763
1.1706628
1.179394
1.1862887
1.1914888
1.1952294
1.1977882
1.1994469
1.2004629
1.2010479
1.2013634
1.2015215
1.2015947
1.2016259
1.201638
1.2016422
1.2016436
1.2016439
1.201644
1.2016441
1.2016441
1.2016441
1.2016441
1.2016441
1.2016441
1.2016441
1.2016441
1.2016441
1.2016441
1.2016441
1.2016441
1.2016441
1.2016441
1.2016441
1.2016441
0.9424028
0.95237986
0.96319995
0.97491011
0.98754461
1.0011166
1.0156078
1.0309568
1.0470461
1.0636934
1.080646
1.0975838
1.1141328
1.1298879
1.1444508
1.1574736
1.1686991
1.1779919
1.1853393
1.1908829
1.194865
1.1975816
1.1993368
1.2004074
1.2010215
1.201351
1.2015159
1.2015923
1.2016249
1.2016376
1.2016421
1.2016435
1.2016439
1.201644
1.2016441
1.2016441
1.2016441
1.2016441
1.2016441
1.2016441
1.2016441
1.2016441
1.2016441
1.2016441
1.2016441
1.2016441
1.2016441
1.2016441
1.2016441
1.2016441
0.93641014
0.9462813
0.9570473
0.96875444
0.98143483
0.9950983
1.0097226
1.0252425
1.0415388
1.0584297
1.0756655
1.0929311
1.1098572
1.1260424
1.1410858
1.1546264
1.1663846
1.1761974
1.1840357
1.1899818
1.194278
1.1972222
1.1991303
1.2002964
1.2009657
1.2013251
1.2015048
1.2015879
1.2016233
1.201637
1.2016419
1.2016435
1.2016439
1.201644
1.2016441
1.2016441
1.2016441
1.2016441
1.2016441
1.2016441
1.2016441
1.2016441
1.2016441
1.2016441
1.2016441
1.2016441
1.2016441
1.2016441
1.2016441
1.2016441
0.93492953
0.94463393
0.95524728
0.96681912
0.97938452
0.9929557
1.0075122
1.0229894
1.0392682
1.0561653
1.0734304
1.0907482
1.1077507
1.1240394
1.1392179
1.1529273
1.1648871
1.1749266
1.183006
1.1892182
1.193749
1.1968735
1.1989134
1.20017
1.200897
1.2012905
1.2014887
1.201581
1.2016206
1.2016361
1.2016416
1.2016434
1.2016439
1.201644
1.2016441
1.2016441
1.2016441
1.2016441
1.2016441
1.2016441
1.2016441
1.2016441
1.2016441
1.2016441
1.2016441
1.2016441
1.2016441
1.2016441
1.2016441
1.2016441
0.93426792
0.94395474
0.95455108
0.96610808
0.97866247
0.99222837
1.0067869
1.0222748
1.0385737
1.0555003
1.0728023
1.0901613
1.1072058
1.1235346
1.1387484
1.1524904
1.1644827
1.1745583
1.1826793
1.1889374
1.1935317
1.1967185
1.1988093
1.2001039
1.200858
1.2012692
1.2014779
1.2015761
1.2016186
1.2016354
1.2016414
1.2016433
1.2016439
1.201644
1.2016441
1.2016441
1.2016441
1.2016441
1.2016441
1.2016441
1.2016441
1.2016441
1.2016441
1.2016441
1.2016441
1.2016441
1.2016441
1.2016441
1.2016441
1.2016441
0.91774141
0.92638619
0.93583524
0.94614966
0.95738784
0.9696009
0.98282646
0.99707955
1.0123414
1.028545
1.0455607
1.0631821
1.0811185
1.0989947
1.116371
1.1327742
1.1477495
1.1609176
1.1720284
1.1809914
1.1878812
1.1929109
1.1963861
1.1986525
1.2000428
1.2008415
1.2012693
1.2014817
1.2015788
1.2016195
1.201635
1.2016403
1.201642
1.2016424
1.2016425
1.2016426
1.2016426
1.2016426
1.2016426
1.2016426
1.2016426
1.2016426
1.2016426
1.2016426
1.2016426
1.2016426
1.2016426
1.2016426
1.2016426
1.2016426
0.91846332
0.92712775
0.93659853
0.94693587
0.95819699
0.97043183
0.9836764
0.99794415
1.0132142
1.0294181
1.0464247
1.0640264
1.0819308
1.0997636
1.1170831
1.1334174
1.1483136
1.1613963
1.1724181
1.1812948
1.1881043
1.1930637
1.1964846
1.1987119
1.200076
1.2008587
1.2012775
1.2014853
1.2015803
1.2016201
1.2016352
1.2016404
1.201642
1.2016424
1.2016425
1.2016426
1.2016426
1.2016426
1.2016426
1.2016426
1.2016426
1.2016426
1.2016426
1.2016426
1.2016426
1.2016426
1.2016426
1.2016426
1.2016426
1.2016426
0.91980793
0.92863068
0.93824679
0.94871337
0.96008465
0.9724075
0.98571509
1.0000181
1.0152931
1.0314693
1.0484136
1.0659175
1.0836896
1.1013575
1.1184859
1.1346109
1.1492901
1.1621593
1.172984
1.1816871
1.1883562
1.1932131
1.1965654
1.1987513
1.2000931
1.2008652
1.2012796
1.2014858
1.2015804
1.20162
1.2016352
1.2016404
1.201642
1.2016424
1.2016425
1.2016426
1.2016426
1.2016426
1.2016426
1.2016426
1.2016426
1.2016426
1.2016426
1.2016426
1.2016426
1.2016426
1.2016426
1.2016426
1.2016426
1.2016426
0.92516352
0.93406081
0.94369711
0.95412928
0.96541194
0.97759293
0.9907068
1.0047659
1.0197489
1.0355879
1.0521535
1.069243
1.0865734
1.1037848
1.1204579
1.1361476
1.1504302
1.1629565
1.1735015
1.1819937
1.1885174
1.1932844
1.1965881
1.1987524
1.2000876
1.2008596
1.2012758
1.2014839
1.2015796
1.2016199
1.2016352
1.2016404
1.201642
1.2016424
1.2016425
1.2016426
1.2016426
1.2016426
1.2016426
1.2016426
1.2016426
1.2016426
1.2016426
1.2016426
1.2016426
1.2016426
1.2016426
1.2016426
1.2016426
1.2016426
0.94242213
0.94974193
0.95787496
0.96688359
0.97682564
0.9877507
0.99969358
1.0126656
1.0266448
1.0415635
1.0572829
1.0735923
1.090198
1.1067453
1.1228191
1.1379768
1.151801
1.1639439
1.1741792
1.1824281
1.1887777
1.1934313
1.1966689
1.1987965
1.2001118
1.2008731
1.2012833
1.2014878
1.2015814
1.2016206
1.2016354
1.2016405
1.201642
1.2016424
1.2016425
1.2016426
1.2016426
1.2016426
1.2016426
1.2016426
1.2016426
1.2016426
1.2016426
1.2016426
1.2016426
1.2016426
1.2016426
1.2016426
1.2016426
1.2016426
0.94241629
0.94973595
0.95786886
0.96687767
0.97682117
0.98774899
0.99969536
1.0126696
1.0266439
1.0415486
1.0572525
1.0735528
1.0901705
1.1067353
1.1228219
1.1379843
1.151799
1.1639264
1.1741521
1.1824128
1.1887762
1.1934378
1.1966746
1.1987999
1.2001135
1.2008739
1.2012835
1.2014877
1.2015814
1.2016206
1.2016354
1.2016405
1.201642
1.2016424
1.2016425
1.2016426
1.2016426
1.2016426
1.2016426
1.2016426
1.2016426
1.2016426
1.2016426
1.2016426
1.2016426
1.2016426
1.2016426
1.2016426
1.2016426
1.2016426
0.92514703
0.93404376
0.94367942
0.95411086
0.96539268
0.97757272
0.99068546
1.0047431
1.0197243
1.035561
1.0521243
1.0692121
1.0865419
1.1037537
1.1204277
1.136118
1.1504009
1.1629292
1.1734783
1.1819771
1.1885075
1.1932795
1.1965861
1.1987517
1.2000873
1.2008594
1.2012757
1.2014838
1.2015796
1.2016198
1.2016352
1.2016404
1.201642
1.2016424
1.2016425
1.2016426
1.2016426
1.2016426
1.2016426
1.2016426
1.2016426
1.2016426
1.2016426
1.2016426
1.2016426
1.2016426
1.2016426
1.2016426
1.2016426
1.2016426
0.91978523
0.92860742
0.938223
0.9486891
0.96005991
0.9723823
0.98568943
0.9999919
1.0152664
1.031442
1.0483858
1.0658893
1.083661
1.101329
1.1184579
1.1345839
1.1492649
1.1621368
1.1729646
1.1816716
1.1883447
1.1932052
1.1965604
1.1987483
1.2000914
1.2008643
1.2012791
1.2014856
1.2015803
1.20162
1.2016352
1.2016404
1.201642
1.2016424
1.2016425
1.2016426
1.2016426
1.2016426
1.2016426
1.2016426
1.2016426
1.2016426
1.2016426
1.2016426
1.2016426
1.2016426
1.2016426
1.2016426
1.2016426
1.2016426
0.91842139
0.92708719
0.93655937
0.94689817
0.9581608
0.97039724
0.98364348
0.99791301
1.0131849
1.0293908
1.0463995
1.0640033
1.0819098
1.0997448
1.1170664
1.1334027
1.1483009
1.1613854
1.1724091
1.1812875
1.1880987
1.1930598
1.1964819
1.1987103
1.200075
1.2008582
1.2012772
1.2014851
1.2015802
1.20162
1.2016352
1.2016404
1.201642
1.2016424
1.2016425
1.2016426
1.2016426
1.2016426
1.2016426
1.2016426
1.2016426
1.2016426
1.2016426
1.2016426
1.2016426
1.2016426
1.2016426
1.2016426
1.2016426
1.2016426
0.91769515
0.92634128
0.9357918
0.94610783
0.9573478
0.96956283
0.98279055
0.99704603
1.0123105
1.028517
1.0455357
1.0631603
1.0811
1.0989795
1.1163589
1.132765
1.1477428
1.160913
1.1720254
1.1809895
1.1878801
1.1929102
1.1963857
1.1986522
1.2000426
1.2008415
1.2012692
1.2014816
1.2015788
1.2016195
1.201635
1.2016403
1.201642
1.2016424
1.2016425
1.2016426
1.2016426
1.2016426
1.2016426
1.2016426
1.2016426
1.2016426
1.2016426
1.2016426
1.2016426
1.2016426
1.2016426
1.2016426
1.2016426
1.2016426
0.90875779
0.91684555
0.92567657
0.93531
0.94580524
0.95721921
0.96960234
0.98299241
0.99740615
1.0128274
1.0291933
1.0463778
1.0641766
1.0822951
1.1003496
1.1178814
1.1343941
1.1494096
1.1625345
1.1735163
1.1822808
1.1889312
1.1937123
1.1969599
1.199037
1.2002829
1.2009804
1.2013431
1.2015173
1.201594
1.2016248
1.201636
1.2016397
1.2016407
1.201641
1.2016411
1.2016411
1.2016411
1.2016411
1.2016411
1.2016411
1.2016411
1.2016411
1.2016411
1.2016411
1.2016411
1.2016411
1.2016411
1.2016411
1.2016411
0.90948944
0.91759717
0.92645166
0.93611162
0.94663585
0.95808073
0.97049586
0.98391819
0.99836307
1.0138132
1.0302038
1.0474065
1.0652129
1.0833246
1.1013509
1.1188282
1.1352577
1.1501632
1.1631565
1.1739982
1.1826269
1.1891572
1.1938455
1.1970285
1.1990658
1.2002909
1.20098
1.2013407
1.2015152
1.2015928
1.2016243
1.2016358
1.2016396
1.2016407
1.201641
1.2016411
1.2016411
1.2016411
1.2016411
1.2016411
1.2016411
1.2016411
1.2016411
1.2016411
1.2016411
1.2016411
1.2016411
1.2016411
1.2016411
1.2016411
0.91072498
0.91897809
0.92796641
0.93774601
0.94837314
0.95990157
0.97237837
0.98583765
1.0002918
1.0157197
1.0320523
1.0491566
1.0668208
1.0847444
1.1025408
1.1197562
1.135909
1.150546
1.1633043
1.1739638
1.1824745
1.1889507
1.1936357
1.1968489
1.1989313
1.2002014
1.2009268
1.2013124
1.2015018
1.2015869
1.201622
1.201635
1.2016394
1.2016406
1.201641
1.2016411
1.2016411
1.2016411
1.2016411
1.2016411
1.2016411
1.2016411
1.2016411
1.2016411
1.2016411
1.2016411
1.2016411
1.2016411
1.2016411
1.2016411
0.9154894
0.92379331
0.9327741
0.94248677
0.952987
0.96432827
0.97655755
0.98970903
1.0037956
1.0187978
1.03465
1.0512266
1.0683296
1.0856816
1.1029264
1.119648
1.1354026
1.1497649
1.1623835
1.173029
1.1816241
1.1882469
1.1931028
1.1964796
1.1986978
1.2000669
1.2008564
1.201279
1.2014879
1.2015821
1.2016206
1.2016347
1.2016393
1.2016406
1.201641
1.2016411
1.2016411
1.2016411
1.2016411
1.2016411
1.2016411
1.2016411
1.2016411
1.2016411
1.2016411
1.2016411
1.2016411
1.2016411
1.2016411
1.2016411
0.93172934
0.93845266
0.94591887
0.95418719
0.96331529
0.97335674
0.98435733
0.99635026
1.0093503
1.0233484
1.0382784
1.0540083
1.0703358
1.0870275
1.1037108
1.1199964
1.1354535
1.1496389
1.1621848
1.1728275
1.1814414
1.1880997
1.1929971
1.1964132
1.1986679
1.200059
1.2008582
1.201283
1.2014903
1.2015833
1.2016211
1.2016349
1.2016393
1.2016406
1.201641
1.2016411
1.2016411
1.2016411
1.2016411
1.2016411
1.2016411
1.2016411
1.2016411
1.2016411
1.2016411
1.2016411
1.2016411
1.2016411
1.2016411
1.2016411
0.93171863
0.93844182
0.94590811
0.95417683
0.96330637
0.97335071
0.98435547
0.99635131
1.009344
1.0233185
1.0382154
1.0539123
1.0702318
1.0869278
1.1036426
1.1199602
1.1354152
1.1495838
1.1620991
1.1727217
1.1813715
1.1880782
1.1930139
1.1964475
1.1986903
1.2000675
1.2008601
1.2012823
1.2014902
1.2015832
1.201621
1.2016348
1.2016393
1.2016406
1.201641
1.2016411
1.2016411
1.2016411
1.2016411
1.2016411
1.2016411
1.2016411
1.2016411
1.2016411
1.2016411
1.2016411
1.2016411
1.2016411
1.2016411
1.2016411
0.91546233
0.92376489
0.93274406
0.94245478
0.95295265
0.96429104
0.97651675
0.98966366
1.0037443
1.0187389
1.0345826
1.0511507
1.0682468
1.0855939
1.102837
1.119559
1.1353148
1.1496801
1.1623052
1.172963
1.1815766
1.1882185
1.1930889
1.1964733
1.1986941
1.2000659
1.2008556
1.2012789
1.2014876
1.201582
1.2016206
1.2016347
1.2016393
1.2016406
1.201641
1.2016411
1.2016411
1.2016411
1.2016411
1.2016411
1.2016411
1.2016411
1.2016411
1.2016411
1.2016411
1.2016411
1.2016411
1.2016411
1.2016411
1.2016411
0.91069566
0.91894756
0.92793462
0.93771286
0.94833853
0.95986531
0.97234024
0.98579737
1.000249
1.0156741
1.0320037
1.0491049
1.066766
1.0846872
1.1024821
1.1196974
1.1358518
1.1504923
1.1632563
1.1739237
1.1824438
1.1889295
1.1936227
1.1968417
1.1989277
1.2001998
1.2009261
1.2013121
1.2015016
1.2015869
1.201622
1.201635
1.2016394
1.2016406
1.201641
1.2016411
1.2016411
1.2016411
1.2016411
1.2016411
1.2016411
1.2016411
1.2016411
1.2016411
1.2016411
1.2016411
1.2016411
1.2016411
1.2016411
1.2016411
0.90944733
0.91755593
0.92641129
0.93607214
0.9465973
0.95804316
0.97045934
0.98388278
0.99832886
1.0137803
1.0301723
1.0473765
1.0651844
1.0832978
1.1013258
1.118805
1.1352365
1.1501441
1.1631397
1.173984
1.1826156
1.1891488
1.1938397
1.1970249
1.1990638
1.2002899
1.2009795
1.2013404
1.2015151
1.2015928
1.2016243
1.2016358
1.2016396
1.2016407
1.201641
1.2016411
1.2016411
1.2016411
1.2016411
1.2016411
1.2016411
1.2016411
1.2016411
1.2016411
1.2016411
1.2016411
1.2016411
1.2016411
1.2016411
1.2016411
0.90871427
0.91680294
0.92563498
0.93526955
0.94576607
0.95718147
0.96956622
0.98295812
0.99737393
1.0127976
1.029166
1.0463533
1.0641553
1.0822769
1.1003348
1.1178698
1.1343854
1.1494034
1.1625303
1.1735136
1.1822792
1.1889303
1.1937119
1.1969596
1.1990369
1.2002828
1.2009804
1.2013431
1.2015173
1.201594
1.2016248
1.201636
1.2016397
1.2016407
1.201641
1.2016411
1.2016411
1.2016411
1.2016411
1.2016411
1.2016411
1.2016411
1.2016411
1.2016411
1.2016411
1.2016411
1.2016411
1.2016411
1.2016411
1.2016411
0.90289336
0.91062029
0.91905082
0.92824156
0.93825044
0.94913475
0.9609484
0.97373717
0.98753241
1.0023414
1.0181354
1.034835
1.0522935
1.0702806
1.0884751
1.1064647
1.1237695
1.1398848
1.154345
1.1667895
1.1770206
1.1850275
1.1909715
1.195145
1.1979077
1.1996252
1.2006235
1.2011634
1.2014335
1.2015578
1.20161
1.2016299
1.2016367
1.2016388
1.2016394
1.2016395
1.2016396
1.2016396
1.2016396
1.2016396
1.2016396
1.2016396
1.2016396
1.2016396
1.2016396
1.2016396
1.2016396
1.2016396
1.2016396
1.2016396
0.90360873
0.91135518
0.9198094
0.92902784
0.93906823
0.9499878
0.96184016
0.97467094
0.98851085
1.0033668
1.0192089
1.0359556
1.0534556
1.0714736
1.0896779
1.1076473
1.124893
1.1409067
1.1552241
1.1674978
1.1775475
1.1853822
1.1911834
1.1952521
1.1979476
1.1996295
1.2006141
1.2011522
1.2014253
1.201553
1.2016077
1.201629
1.2016364
1.2016387
1.2016394
1.2016395
1.2016396
1.2016396
1.2016396
1.2016396
1.2016396
1.2016396
1.2016396
1.2016396
1.2016396
1.2016396
1.2016396
1.2016396
1.2016396
1.2016396
0.90474226
0.91262242
0.92119941
0.93052731
0.94066158
0.95165721
0.96356568
0.97643018
0.9902787
1.0051143
1.0209023
1.0375551
1.0549154
1.0727422
1.0907041
1.1083858
1.1253153
1.141011
1.1550426
1.1670939
1.1770065
1.1847952
1.1906286
1.1947837
1.197591
1.1993839
1.200461
1.2010661
1.2013815
1.2015327
1.2015993
1.2016259
1.2016355
1.2016385
1.2016393
1.2016395
1.2016396
1.2016396
1.2016396
1.2016396
1.2016396
1.2016396
1.2016396
1.2016396
1.2016396
1.2016396
1.2016396
1.2016396
1.2016396
1.2016396
0.90909046
0.91700577
0.92555666
0.93479562
0.94477693
0.95555454
0.9671788
0.9796918
0.99312059
1.007468
1.0227012
1.0387382
1.0554352
1.0725771
1.089871
1.1069501
1.1233967
1.1387761
1.1526866
1.1648099
1.1749545
1.18308
1.1892952
1.1938224
1.1969517
1.1989948
1.2002483
1.2009597
1.2013345
1.2015149
1.2015936
1.2016244
1.2016351
1.2016384
1.2016393
1.2016395
1.2016396
1.2016396
1.2016396
1.2016396
1.2016396
1.2016396
1.2016396
1.2016396
1.2016396
1.2016396
1.2016396
1.2016396
1.2016396
1.2016396
0.92467347
0.93100698
0.9380372
0.94581992
0.95441034
0.96386155
0.97422058
0.98552736
0.99781021
1.0110836
1.0253155
1.0404158
1.0562347
1.0726133
1.0893042
1.1059355
1.1221268
1.1374192
1.1514069
1.1637324
1.1741354
1.1824835
1.1888903
1.1935709
1.1968148
1.1989428
1.2002334
1.2009587
1.2013354
1.201516
1.2015941
1.2016245
1.2016352
1.2016384
1.2016393
1.2016395
1.2016396
1.2016396
1.2016396
1.2016396
1.2016396
1.2016396
1.2016396
1.2016396
1.2016396
1.2016396
1.2016396
1.2016396
1.2016396
1.2016396
0.92465613
0.93098929
0.93801913
0.94580134
0.9543915
0.96384299
0.97420507
0.9855138
0.99778754
1.0110353
1.0252238
1.0402838
1.0561025
1.0725256
1.089229
1.105891
1.122067
1.1373415
1.1512777
1.1635291
1.1738874
1.1823114
1.1888189
1.1935776
1.196854
1.1989597
1.2002359
1.2009588
1.2013368
1.2015163
1.2015942
1.2016246
1.2016352
1.2016384
1.2016393
1.2016395
1.2016396
1.2016396
1.2016396
1.2016396
1.2016396
1.2016396
1.2016396
1.2016396
1.2016396
1.2016396
1.2016396
1.2016396
1.2016396
1.2016396
0.9090518
0.91696488
0.92551306
0.93474875
0.94472607
0.95549882
0.96711716
0.97962277
0.99304224
1.0073783
1.0225986
1.0386228
1.0553094
1.0724433
1.0897299
1.1068038
1.1232457
1.1386225
1.1525341
1.1646669
1.1748354
1.1829991
1.1892537
1.1938097
1.1969526
1.1989976
1.2002471
1.2009605
1.2013344
1.2015148
1.2015935
1.2016243
1.2016351
1.2016384
1.2016393
1.2016395
1.2016396
1.2016396
1.2016396
1.2016396
1.2016396
1.2016396
1.2016396
1.2016396
1.2016396
1.2016396
1.2016396
1.2016396
1.2016396
1.2016396
0.90470476
0.91258299
0.92115788
0.93048344
0.94061508
0.95160772
0.96351274
0.97637326
0.99021717
1.0050475
1.0208297
1.0374763
1.0548303
1.0726513
1.0906082
1.1082867
1.1252154
1.1409131
1.1549505
1.1670116
1.1769384
1.1847441
1.1905945
1.1947636
1.1975804
1.1993786
1.2004583
1.2010647
1.2013809
1.2015328
1.2015994
1.201626
1.2016355
1.2016385
1.2016393
1.2016395
1.2016396
1.2016396
1.2016396
1.2016396
1.2016396
1.2016396
1.2016396
1.2016396
1.2016396
1.2016396
1.2016396
1.2016396
1.2016396
1.2016396
0.90356353
0.91131028
0.91976478
0.92898349
0.93902415
0.949944
0.96179667
0.9746278
0.98846813
1.0033245
1.0191673
1.0359147
1.0534155
1.0714346
1.0896401
1.107611
1.1248585
1.1408743
1.1551944
1.1674715
1.1775253
1.1853646
1.1911707
1.1952438
1.1979427
1.1996269
1.2006128
1.2011517
1.2014251
1.201553
1.2016077
1.201629
1.2016364
1.2016387
1.2016394
1.2016395
1.2016396
1.2016396
1.2016396
1.2016396
1.2016396
1.2016396
1.2016396
1.2016396
1.2016396
1.2016396
1.2016396
1.2016396
1.2016396
1.2016396
0.90285003
0.91057741
0.91900848
0.92819984
0.93820946
0.94909466
0.96090937
0.97369941
0.98749616
1.0023069
1.0181031
1.0348052
1.0522665
1.0702567
1.0884545
1.1064476
1.1237557
1.139874
1.1543369
1.1667835
1.1770163
1.1850245
1.1909694
1.1951436
1.197907
1.1996248
1.2006233
1.2011633
1.2014335
1.2015578
1.20161
1.2016299
1.2016367
1.2016388
1.2016394
1.2016395
1.2016396
1.2016396
1.2016396
1.2016396
1.2016396
1.2016396
1.2016396
1.2016396
1.2016396
1.2016396
1.2016396
1.2016396
1.2016396
1.2016396
0.89856008
0.90602206
0.91415859
0.92302397
0.93267433
0.9431661
0.95455391
0.96688689
0.98020359
0.99452398
1.0098394
1.0260993
1.0431956
1.0609455
1.0790796
1.0972342
1.1149628
1.1317667
1.1471505
1.1606867
1.1720852
1.1812358
1.1882125
1.1932499
1.1966832
1.1988838
1.2002045
1.2009434
1.2013266
1.2015097
1.2015898
1.2016216
1.201633
1.2016367
1.2016377
1.201638
1.2016381
1.2016381
1.2016381
1.2016381
1.2016381
1.2016381
1.2016381
1.2016381
1.2016381
1.2016381
1.2016381
1.2016381
1.2016381
1.2016381
0.89925005
0.90673074
0.91489043
0.92378346
0.93346594
0.94399451
0.95542391
0.96780358
0.98117205
0.9955496
1.0109273
1.0272531
1.0444152
1.0622256
1.0804037
1.0985741
1.1162771
1.1330048
1.1482568
1.1616153
1.1728071
1.1817455
1.1885336
1.1934224
1.1967534
1.1988951
1.2001903
1.200924
1.201311
1.2015
1.2015847
1.2016194
1.2016322
1.2016364
1.2016377
1.201638
1.2016381
1.2016381
1.2016381
1.2016381
1.2016381
1.2016381
1.2016381
1.2016381
1.2016381
1.2016381
1.2016381
1.2016381
1.2016381
1.2016381
0.90030125
0.90790677
0.91618036
0.92517409
0.93494198
0.94553864
0.95701695
0.96942428
0.98279684
0.99715152
1.0124748
1.0287086
1.0457342
1.0633562
1.0812907
1.0991645
1.1165311
1.1329078
1.1478314
1.1609225
1.1719406
1.1808149
1.1876416
1.192648
1.1961414
1.1984542
1.1999011
1.2007514
1.2012178
1.2014544
1.2015646
1.2016116
1.2016296
1.2016357
1.2016375
1.2016379
1.201638
1.2016381
1.2016381
1.2016381
1.2016381
1.2016381
1.2016381
1.2016381
1.2016381
1.2016381
1.2016381
1.2016381
1.2016381
1.2016381
0.90437896
0.91200963
0.92024541
0.92913651
0.93873542
0.94909526
0.9602672
0.97229658
0.98521758
0.99904559
1.0137677
1.0293305
1.0456265
1.062484
1.0796561
1.0968229
1.1135998
1.1295676
1.1443097
1.1574617
1.1687586
1.178072
1.1854273
1.1909799
1.1949756
1.1977058
1.1994697
1.2005232
1.2011109
1.20141
1.201549
1.2016069
1.2016283
1.2016354
1.2016374
1.2016379
1.201638
1.2016381
1.2016381
1.2016381
1.2016381
1.2016381
1.2016381
1.2016381
1.2016381
1.2016381
1.2016381
1.2016381
1.2016381
1.2016381
0.91954461
0.92559724
0.93231395
0.93974775
0.9479516
0.95697748
0.96687246
0.97767418
0.98941521
1.0021076
1.0157473
1.0303107
1.045677
1.0617055
1.0781869
1.0948463
1.1113123
1.1271983
1.1420697
1.1555335
1.1672426
1.1769309
1.1846222
1.1904551
1.1946695
1.1975738
1.1994195
1.2005085
1.201105
1.2014093
1.2015492
1.201607
1.2016284
1.2016354
1.2016374
1.2016379
1.2016381
1.2016381
1.2016381
1.2016381
1.2016381
1.2016381
1.2016381
1.2016381
1.2016381
1.2016381
1.2016381
1.2016381
1.2016381
1.2016381
0.91952546
0.92557757
0.9322934
0.93972562
0.94792706
0.95694885
0.96683919
0.97764099
0.98939041
1.0020968
1.015731
1.0302644
1.0456055
1.0616376
1.0781119
1.0947627
1.1112348
1.1270776
1.1418723
1.1552212
1.1668444
1.1766319
1.1844827
1.1904573
1.1947421
1.1975962
1.1994165
1.2005066
1.2011091
1.2014107
1.2015496
1.2016071
1.2016284
1.2016354
1.2016374
1.2016379
1.2016381
1.2016381
1.2016381
1.2016381
1.2016381
1.2016381
1.2016381
1.2016381
1.2016381
1.2016381
1.2016381
1.2016381
1.2016381
1.2016381
0.9043383
0.91196654
0.92019934
0.92908679
0.93868125
0.94903571
0.96020129
0.9722233
0.98513576
0.99895359
1.0136631
1.0292112
1.0454919
1.0623333
1.0794901
1.0966413
1.1134046
1.1293595
1.1440924
1.157246
1.1685658
1.1779287
1.1853437
1.1909462
1.1949718
1.1977191
1.1994723
1.2005272
1.2011113
1.2014104
1.2015491
1.2016069
1.2016283
1.2016354
1.2016374
1.2016379
1.201638
1.2016381
1.2016381
1.2016381
1.2016381
1.2016381
1.2016381
1.2016381
1.2016381
1.2016381
1.2016381
1.2016381
1.2016381
1.2016381
0.90026148
0.90786486
0.91613609
0.92512718
0.93489209
0.94548536
0.9569598
0.96936267
0.98273009
0.99707886
1.0123954
1.0286218
1.0456395
1.0632534
1.0811803
1.0990477
1.1164101
1.1327858
1.1477127
1.1608125
1.1718458
1.1807412
1.1875912
1.1926188
1.1961274
1.198449
1.1998995
1.2007512
1.2012179
1.2014547
1.2015648
1.2016116
1.2016296
1.2016357
1.2016375
1.2016379
1.201638
1.2016381
1.2016381
1.2016381
1.2016381
1.2016381
1.2016381
1.2016381
1.2016381
1.2016381
1.2016381
1.2016381
1.2016381