/*--------------------------------*- C++ -*----------------------------------*\
| =========                 |                                                 |
| \\      /  F ield         | OpenFOAM: The Open Source CFD Toolbox           |
|  \\    /   O peration     | Version:  4.0                                   |
|   \\  /    A nd           | Web:      www.OpenFOAM.org                      |
|    \\/     M anipulation  |                                                 |
\*---------------------------------------------------------------------------*/
FoamFile
{
    version     2.0;
    format      ascii;
    class       surfaceScalarField;
    location    "2000";
    object      snGradRho;
}
// * * * * * * * * * * * * * * * * * * * * * * * * * * * * * * * * * * * * * //

dimensions      [1 -4 0 0 0 0 0];

internalField   nonuniform List<scalar> 
287000
(
125.83654
0.37067019
-2.6874074
124.41348
0.36979154
-2.8596085
121.66885
0.36582102
-3.0428661
117.49414
0.35778048
-3.229533
111.84028
0.34505362
-3.4093746
104.73474
0.32721913
-3.5697251
96.303299
0.30464313
-3.6960566
86.772233
0.27794567
-3.7730676
76.467304
0.24858256
-3.7862773
65.783628
0.21803333
-3.7240334
55.154176
0.18856148
-3.5796115
44.999659
0.16207602
-3.3530307
35.681221
0.13961462
-3.0520796
27.460533
0.12101871
-2.6921633
20.490096
0.10607819
-2.294844
14.802831
0.092871807
-1.8851184
10.337933
0.080373569
-1.4881087
6.9657502
0.067901951
-1.1256119
4.5179843
0.055388246
-0.813405
2.8118848
0.043001543
-0.55973563
1.6734361
0.031600232
-0.36541881
0.94849721
0.02180908
-0.22623421
0.50931565
0.013984028
-0.13255324
0.2578042
0.0083357316
-0.073246194
0.12237984
0.004590791
-0.038013857
0.054086325
0.0023037735
-0.018455498
0.022104295
0.0010497655
-0.0083547495
0.0082954293
0.00043258719
-0.0035270695
0.0028375186
0.00016024266
-0.0014051855
0.00087721502
5.2923896e-05
-0.00055290507
0.00024362886
1.5488591e-05
-0.00024214834
5.9723134e-05
3.9505896e-06
-0.00014010115
1.3087548e-05
8.732975e-07
-0.00011012971
2.4463508e-06
1.2992458e-07
-0.00010229803
2.7526769e-07
3.3562371e-09
-0.00010048261
2.2919058e-08
-7.2409426e-09
-0.00010010397
1.3859218e-10
1.6402385e-08
-0.00010001893
-3.7413737e-08
6.3338981e-08
-9.9988776e-05
5.3641205e-09
9.6464975e-09
-9.9973635e-05
1.6811134e-08
6.4604129e-08
-9.9961103e-05
4.4097006e-08
7.1039346e-08
-9.9952294e-05
1.8500291e-08
9.0025525e-08
-9.994379e-05
3.7970848e-08
7.3132414e-08
-9.9938824e-05
2.7523029e-08
9.1933552e-08
-9.9934018e-05
2.9986913e-08
8.6884385e-08
-9.9930824e-05
2.5644676e-08
9.5091499e-08
-9.9927989e-05
1.8701555e-08
9.0809797e-08
-9.9925406e-05
2.0478899e-08
9.0421082e-08
-9.992349e-05
1.7756424e-08
9.3546191e-08
-9.9921711e-05
8.1930763e-08
-9.9916428e-05
125.94318
1.0444523
-2.6685272
124.48966
1.1249218
-2.8402535
121.70803
1.1823298
-3.0229196
117.49382
1.2150463
-3.2088954
111.79962
1.222518
-3.3879825
104.65907
1.205619
-3.547568
96.198847
1.1664904
-3.6732041
86.650291
1.1086892
-3.7496825
76.337946
1.0365116
-3.7626305
65.660975
0.95459629
-3.7004827
55.04896
0.86675723
-3.5565692
44.916751
0.7758043
-3.3308886
35.61852
0.68354596
-3.0311267
27.416031
0.59128238
-2.6725415
20.452969
0.49986777
-2.2765217
14.767487
0.41115035
-1.8680353
10.300758
0.32714194
-1.4722345
6.9262374
0.25033049
-1.1110514
4.4767673
0.18307894
-0.80031793
2.772785
0.12727573
-0.54821141
1.6392338
0.083631758
-0.35661222
0.9208408
0.051700575
-0.22017022
0.48929954
0.029945194
-0.12856895
0.24453999
0.016134922
-0.070743259
0.11428911
0.0079983871
-0.036537729
0.049666046
0.0036483059
-0.017642407
0.019939439
0.0015323587
-0.0079400159
0.0073455565
0.00058761336
-0.0033338956
0.0024650643
0.00020330072
-0.001323109
0.00074836947
6.3359001e-05
-0.0005214317
0.00020378579
1.7615759e-05
-0.00023142788
4.9382583e-05
4.303891e-06
-0.00013683433
1.0519177e-05
9.0576212e-07
-0.00010924356
1.9287701e-06
1.6942041e-07
-0.00010208631
2.7337983e-07
4.4831046e-08
-0.00010043685
1.5814409e-08
4.1697825e-08
-0.00010008973
-8.1985123e-10
5.5908677e-08
-0.00010001285
1.316597e-08
6.9060871e-08
-9.9985091e-05
2.5379283e-08
7.9510368e-08
-9.9970205e-05
3.7074844e-08
8.8057119e-08
-9.9956881e-05
4.6263805e-08
9.4315495e-08
-9.9946638e-05
5.3245937e-08
9.8435267e-08
-9.993775e-05
5.5541042e-08
1.005242e-07
-9.9932011e-05
5.7145305e-08
1.0143108e-07
-9.9926659e-05
5.5787257e-08
1.0087573e-07
-9.9922992e-05
5.3780356e-08
9.9275651e-08
-9.991979e-05
4.7927764e-08
9.6367956e-08
-9.9917152e-05
4.2191586e-08
9.2668905e-08
-9.9914821e-05
3.2886838e-08
8.7634319e-08
-9.9912628e-05
8.1101579e-08
-9.9902124e-05
127.12338
5.0506326
-2.6414891
125.41302
4.9891392
-2.8096302
122.38419
4.8506918
-2.9885869
117.93989
4.6428185
-3.1707305
112.0413
4.3757305
-3.3458872
104.72765
4.0618414
-3.5015035
96.131311
3.7144819
-3.6232255
86.483649
3.3467278
-3.695974
76.106833
2.9704333
-3.7055247
65.390767
2.5954864
-3.6404618
54.756236
2.2302728
-3.4942456
44.610647
1.8815905
-3.2669973
35.304585
1.5542508
-2.9665424
27.097058
1.252482
-2.6083331
20.136999
0.98028832
-2.2140345
14.463239
0.74193378
-1.808873
10.019284
0.54050672
-1.4181656
6.6780315
0.37729311
-1.0640754
4.2702929
0.25121619
-0.76105051
2.611432
0.15814777
-0.51917459
1.5216134
0.094060417
-0.33675559
0.84115637
0.052887835
-0.20714971
0.43903121
0.027931186
-0.12047327
0.2151023
0.013790663
-0.066009515
0.098670305
0.006433344
-0.033934343
0.042132787
0.0028004895
-0.016308491
0.016602439
0.0011143748
-0.0073088856
0.005997894
0.00040373837
-0.0030585273
0.0019779376
0.00013285672
-0.0012143029
0.00059023539
3.914721e-05
-0.00048229778
0.00015805512
1.0226878e-05
-0.00021859036
3.7775169e-05
2.3780862e-06
-0.00013303141
8.0205056e-06
5.0724497e-07
-0.00010822214
1.5148877e-06
1.2109184e-07
-0.00010183071
2.7575229e-07
5.8953289e-08
-0.00010036697
8.135502e-08
5.7281986e-08
-0.00010006032
6.4952019e-08
6.3781166e-08
-9.9992182e-05
7.2911836e-08
6.9760471e-08
-9.9968658e-05
8.1286418e-08
7.4042602e-08
-9.9954214e-05
8.7238821e-08
7.6682981e-08
-9.9943051e-05
9.0593265e-08
7.7832495e-08
-9.9934144e-05
9.1528333e-08
7.7649135e-08
-9.9927146e-05
9.0229595e-08
7.627469e-08
-9.9921735e-05
8.6903865e-08
7.3832338e-08
-9.9917585e-05
8.1671875e-08
7.043482e-08
-9.9914417e-05
7.4554111e-08
6.6168555e-08
-9.9911938e-05
6.5025188e-08
6.1093331e-08
-9.9909849e-05
5.3459679e-08
5.5371993e-08
-9.990773e-05
3.735336e-08
4.8898194e-08
-9.9905218e-05
4.2174261e-08
-9.9895973e-05
128.05139
19.398671
-2.5804338
125.59594
17.024991
-2.7475476
121.95596
14.801441
-2.9241792
117.03622
12.739477
-3.102688
110.7949
10.848864
-3.2729805
103.2588
9.1375134
-3.4227017
94.541748
7.6134044
-3.5378051
84.853544
6.2698296
-3.6036108
74.493962
5.0950804
-3.6063594
63.837589
4.0706706
-3.535119
53.292195
3.1969557
-3.3839703
43.252052
2.473258
-3.15385
34.064588
1.8763427
-2.8533789
25.988319
1.3881691
-2.4986105
19.17462
0.99313118
-2.1114317
13.65744
0.68916918
-1.7168034
9.3728151
0.45910487
-1.338934
6.1839334
0.29334591
-1.0002431
3.9090023
0.17973745
-0.71410456
2.3655055
0.10691186
-0.48615566
1.3656417
0.060893704
-0.31495046
0.74773779
0.032607035
-0.19370599
0.38670662
0.016458246
-0.11273835
0.18823378
0.0078238455
-0.06185856
0.085549615
0.0034409918
-0.031875181
0.036096446
0.0013986754
-0.015359183
0.014080379
0.00052603307
-0.0069027096
0.0050447319
0.000181829
-0.0028962768
0.0016507156
5.7658152e-05
-0.0011508691
0.00048997315
1.6632544e-05
-0.00045883761
0.00013104202
4.3358391e-06
-0.00021061651
3.1387386e-05
1.0234821e-06
-0.00013058867
6.7202378e-06
2.3087932e-07
-0.00010754406
1.3199143e-06
6.6104988e-08
-0.00010164842
2.8798065e-07
3.9053787e-08
-0.00010030845
1.2328464e-07
3.7599522e-08
-0.00010003115
1.0685632e-07
3.9456292e-08
-9.9971428e-05
1.1036676e-07
4.1151669e-08
-9.9951915e-05
1.1403851e-07
4.2285412e-08
-9.99404e-05
1.1538413e-07
4.2573148e-08
-9.9931676e-05
1.1428499e-07
4.2181549e-08
-9.99248e-05
1.1089744e-07
4.1165571e-08
-9.9919439e-05
1.0537404e-07
3.960758e-08
-9.9915332e-05
9.7914408e-08
3.7310767e-08
-9.9912207e-05
8.8574211e-08
3.4530558e-08
-9.990989e-05
7.7301649e-08
3.1458988e-08
-9.9908178e-05
6.3950082e-08
2.8036129e-08
-9.9906873e-05
4.7991728e-08
2.4389177e-08
-9.9905651e-05
2.9028834e-08
2.0829373e-08
-9.9904193e-05
1.7021342e-08
-9.9900752e-05
108.94667
0.0028382584
-2.6362674
108.79047
0.0028951886
-2.7863879
107.28524
0.0040524551
-2.944589
104.3429
0.0088562499
-3.1034009
99.929666
0.015826721
-3.2532355
94.096782
0.018714123
-3.3825427
86.870487
0.0081349086
-3.4788944
78.457287
-0.008176536
-3.528161
69.142314
-0.01886243
-3.5167999
59.452754
-0.0052131442
-3.4333472
49.805512
0.0081603659
-3.2726892
40.474914
-0.0038910493
-3.0387172
31.859031
-0.01985723
-2.740732
24.244793
-0.02798457
-2.3929896
17.866941
-0.020221542
-2.0153682
12.687569
-0.017108633
-1.6342323
8.6881587
-0.0094118358
-1.2729264
5.724109
-0.0036331331
-0.95094229
3.6210262
-0.00094580317
-0.67990761
2.1868376
-0.0010218983
-0.46420393
1.2573185
-0.00095263337
-0.30182583
0.68678371
-0.00043500706
-0.18629393
0.35456974
-0.00021571767
-0.10875933
0.17210538
-9.4290607e-05
-0.059835724
0.078118457
-4.0539094e-05
-0.030872223
0.032956496
-1.6173829e-05
-0.014877974
0.012854499
-5.0690849e-06
-0.0066711981
0.0046067924
-1.4175165e-06
-0.0027901209
0.0015073009
-3.4900578e-07
-0.0011076285
0.00044733849
-7.4581016e-08
-0.00044305668
0.00011964814
-1.5449673e-08
-0.00020545351
2.868613e-05
-3.1585955e-09
-0.00012907412
6.1699201e-06
-8.0413192e-10
-0.00010714151
1.2392243e-06
-2.1662435e-10
-0.00010154549
2.9479033e-07
-3.9373465e-10
-0.00010027767
1.4190724e-07
-3.6020811e-10
-0.00010001714
1.2542444e-07
5.9477712e-11
-9.9961731e-05
1.2737981e-07
2.5091541e-10
-9.9943787e-05
1.2831299e-07
3.3175153e-11
-9.9933693e-05
1.2728896e-07
1.2999894e-11
-9.9926569e-05
1.2382726e-07
-7.1826345e-13
-9.9920801e-05
1.1819429e-07
1.0492768e-11
-9.9916055e-05
1.0956609e-07
-8.7360859e-12
-9.9912766e-05
9.9695042e-08
4.389584e-10
-9.9908958e-05
8.8481387e-08
8.9687243e-10
-9.9906293e-05
7.5035191e-08
1.045385e-09
-9.9904317e-05
5.9852444e-08
1.1037171e-09
-9.9903721e-05
4.308944e-08
9.6099564e-10
-9.9903731e-05
2.2166909e-08
3.4683295e-10
-9.9905762e-05
5.4796635e-10
-9.9902476e-05
108.94816
-19.390441
-2.6365873
108.8029
-17.017694
-2.7867324
107.33148
-14.795985
-2.945126
104.40717
-12.739363
-3.1046307
99.958676
-10.856286
-3.2556179
94.019197
-9.1488561
-3.3859658
86.750982
-7.6160334
-3.4818162
78.378703
-6.2586798
-3.5288242
69.228958
-5.075835
-3.5148463
59.537734
-4.0670801
-3.4312943
49.733346
-3.2088164
-3.2730954
40.378717
-2.4760795
-3.03937
31.806326
-1.8662922
-2.7387466
24.278835
-1.3719139
-2.3889641
17.877189
-0.98467796
-2.0127185
12.721876
-0.6826615
-1.6322257
8.7140902
-0.45826467
-1.2722269
5.7360201
-0.2960523
-0.95068732
3.6203706
-0.18307072
-0.67970159
2.1868372
-0.10777464
-0.46401812
1.2593513
-0.060465782
-0.30168422
0.68761385
-0.0324457
-0.18624047
0.35502661
-0.01619548
-0.10878027
0.1723037
-0.0076453769
-0.059859932
0.078207272
-0.0033460877
-0.030904783
0.032996962
-0.001366795
-0.014882183
0.012867664
-0.00051424019
-0.006670754
0.004610607
-0.00017798696
-0.0027898464
0.0015082717
-5.6549684e-05
-0.0011075009
0.0004475452
-1.6347309e-05
-0.0004430121
0.00011969062
-4.2689186e-06
-0.00020544343
2.8694117e-05
-1.0094436e-06
-0.0001290736
6.1718882e-06
-2.2829623e-07
-0.00010714183
1.2384928e-06
-6.5861353e-08
-0.00010154592
2.9479184e-07
-3.8884234e-08
-0.00010027788
1.4334486e-07
-3.7437798e-08
-0.00010001658
1.2614579e-07
-3.9642256e-08
-9.9961498e-05
1.266636e-07
-4.1466905e-08
-9.9944652e-05
1.2825012e-07
-4.2335889e-08
-9.9934772e-05
1.2724346e-07
-4.2548872e-08
-9.9926964e-05
1.2386737e-07
-4.207248e-08
-9.9921153e-05
1.1812867e-07
-4.0981013e-08
-9.991706e-05
1.1116169e-07
-3.930756e-08
-9.9913757e-05
1.0146176e-07
-3.7350643e-08
-9.9912761e-05
8.9288837e-08
-3.493873e-08
-9.9911986e-05
7.556862e-08
-3.195836e-08
-9.9911514e-05
5.9694131e-08
-2.8568875e-08
-9.9910341e-05
4.1227839e-08
-2.4790194e-08
-9.9908983e-05
2.2982066e-08
-2.0650069e-08
-9.9905845e-05
-1.7091411e-08
-9.9908437e-05
128.04556
-5.0562568
-2.5816306
125.59232
-4.9947403
-2.7487192
121.95391
-4.8563143
-2.9253564
117.03403
-4.6484774
-3.1039096
110.78892
-4.3812789
-3.274272
103.2464
-4.0667006
-3.4240388
94.52452
-3.7177182
-3.5390847
84.836046
-3.3475931
-3.6046822
74.480483
-2.9688461
-3.6071194
63.823626
-2.5920718
-3.5355844
53.272361
-2.2250464
-3.3841836
43.231545
-1.8736677
-3.1537134
34.050521
-1.5435019
-2.8527667
25.984434
-1.239997
-2.4975967
19.177153
-0.96789153
-2.1103247
13.66458
-0.73081437
-1.7159355
9.3812872
-0.53148981
-1.3389542
6.1919542
-0.37053851
-0.99992536
3.9189807
-0.24650723
-0.71375942
2.3711845
-0.1557771
-0.48598272
1.366608
-0.09305764
-0.31488504
0.74906534
-0.052256255
-0.19361889
0.38688168
-0.028014788
-0.11268282
0.18813376
-0.013956449
-0.061807959
0.085405583
-0.0065412073
-0.03183653
0.036064534
-0.0028215085
-0.015347853
0.014065115
-0.0011263599
-0.0069001472
0.0050388551
-0.00040856747
-0.0028956331
0.0016487934
-0.00013448572
-0.001150698
0.00048941978
-3.9628765e-05
-0.00045878762
0.00013090188
-1.0354673e-05
-0.00021060139
3.1356096e-05
-2.4062828e-06
-0.00013058442
6.7141751e-06
-5.1290148e-07
-0.00010754313
1.3189814e-06
-1.2220349e-07
-0.00010164848
2.8800609e-07
-5.9250457e-08
-0.00010030882
1.234885e-07
-5.745507e-08
-0.00010003165
1.0704494e-07
-6.3943268e-08
-9.9972085e-05
1.1051825e-07
-6.9909458e-08
-9.9952748e-05
1.1423125e-07
-7.4162523e-08
-9.9941369e-05
1.1565261e-07
-7.6781224e-08
-9.993277e-05
1.146308e-07
-7.7926786e-08
-9.9926084e-05
1.1130328e-07
-7.7759044e-08
-9.9920978e-05
1.0585004e-07
-7.6415919e-08
-9.9917172e-05
9.8358152e-08
-7.4026523e-08
-9.9914421e-05
8.8930427e-08
-7.0674963e-08
-9.9912416e-05
7.7560776e-08
-6.6434373e-08
-9.9910904e-05
6.4089927e-08
-6.1365367e-08
-9.9909643e-05
4.8047785e-08
-5.5625569e-08
-9.9908365e-05
2.9023965e-08
-4.9120284e-08
-9.9906831e-05
-4.2368452e-08
-9.990351e-05
127.11604
-1.0801979
-2.6428971
125.40743
-1.156759
-2.811004
122.38003
-1.2104781
-2.9899257
117.93691
-1.2397265
-3.1720317
112.03932
-1.2439549
-3.3471468
104.72653
-1.2240482
-3.5027174
96.130811
-1.1821579
-3.6243924
86.483328
-1.1218435
-3.6970956
76.106242
-1.0473681
-3.7066037
65.389606
-0.96332754
-3.6414971
54.754755
-0.87350479
-3.4952292
44.60943
-0.78075941
-3.2679184
35.303813
-0.68700789
-2.9674012
27.096593
-0.59359184
-2.6091445
20.13661
-0.50133882
-2.2148149
14.463024
-0.41203255
-1.8096147
10.019273
-0.32766299
-1.4188195
6.6782334
-0.25067393
-1.0641994
4.2706925
-0.18337981
-0.76129854
2.6115475
-0.12762858
-0.51941436
1.5212219
-0.084005013
-0.33694383
0.83953025
-0.051999026
-0.2072769
0.43882521
-0.029898334
-0.12050469
0.21519591
-0.016063792
-0.066018949
0.098854296
-0.0079570384
-0.033940395
0.042131335
-0.0036503795
-0.016318891
0.016612333
-0.001531305
-0.0073142879
0.0060032589
-0.00058724823
-0.003061313
0.0019800215
-0.00020326618
-0.0012155347
0.0005909076
-6.3382993e-05
-0.00048276702
0.00015825838
-1.7630393e-05
-0.00021874565
3.7820982e-05
-4.3114523e-06
-0.00013307738
8.0298447e-06
-9.0824124e-07
-0.00010823439
1.5166592e-06
-1.7015813e-07
-0.00010183407
2.7614628e-07
-4.5125786e-08
-0.00010036835
8.1545295e-08
-4.1898581e-08
-0.00010006137
6.5138071e-08
-5.6101054e-08
-9.999326e-05
7.3122796e-08
-6.9260622e-08
-9.9969819e-05
8.1520347e-08
-7.9722437e-08
-9.9955471e-05
8.7490844e-08
-8.8285713e-08
-9.9944415e-05
9.0853387e-08
-9.4563983e-08
-9.9935613e-05
9.1787564e-08
-9.8705191e-08
-9.9928716e-05
9.047234e-08
-1.0081416e-07
-9.9923397e-05
8.7123324e-08
-1.0173598e-07
-9.9919322e-05
8.1861877e-08
-1.0118887e-07
-9.9916214e-05
7.4708072e-08
-9.9589027e-08
-9.9913771e-05
6.5145063e-08
-9.6671815e-08
-9.9911699e-05
5.3547252e-08
-9.2956082e-08
-9.9909575e-05
3.7377025e-08
-8.7897951e-08
-9.9907037e-05
-8.1336323e-08
-9.9897738e-05
125.9661
-0.37862117
-2.6693437
124.51083
-0.37760691
-2.8410936
121.72753
-0.37333799
-3.023781
117.51173
-0.36484576
-3.2097753
111.816
-0.35153146
-3.3888775
104.67395
-0.33299952
-3.5484746
96.212251
-0.309649
-3.674119
86.662203
-0.28213749
-3.7506027
76.348368
-0.2519608
-3.7635524
65.669928
-0.22064042
-3.7014021
55.056481
-0.19048073
-3.55748
44.922867
-0.16342308
-3.3317821
35.623258
-0.14051982
-3.0319903
27.419466
-0.12160595
-2.6733571
20.455255
-0.10645152
-2.2772656
14.768857
-0.09310983
-1.8686821
10.301471
-0.080532359
-1.4727679
6.9265386
-0.068018322
-1.1114687
4.476827
-0.055485221
-0.80065897
2.7726961
-0.043087371
-0.54849247
1.6390624
-0.031668492
-0.3567987
0.92064284
-0.021848649
-0.22026767
0.48921301
-0.013987759
-0.12862013
0.24452963
-0.008325702
-0.070770596
0.11430515
-0.0045813149
-0.036552753
0.049676765
-0.0022989348
-0.017650845
0.019946882
-0.001047299
-0.0079444113
0.0073497183
-0.00043150929
-0.0033359997
0.0024669286
-0.00015985417
-0.0013240377
0.00074907059
-5.2805482e-05
-0.00052180095
0.0002040117
-1.5458173e-05
-0.00023155916
4.9445404e-05
-3.9440557e-06
-0.00013687582
1.053432e-05
-8.721679e-07
-0.00010925552
1.9319708e-06
-1.2981205e-07
-0.00010208988
2.7403117e-07
-3.4134876e-09
-0.00010043843
1.5972823e-08
7.1432528e-09
-0.00010009095
-7.2105449e-10
-1.6522919e-08
-0.00010001407
1.3269479e-08
-6.3486783e-08
-9.9986369e-05
2.5486863e-08
-9.8220219e-09
-9.9971549e-05
3.7183461e-08
-6.4807816e-08
-9.9958287e-05
4.6369069e-08
-7.1269568e-08
-9.9948097e-05
5.3348927e-08
-9.0280051e-08
-9.993925e-05
5.5639724e-08
-7.3408789e-08
-9.9933539e-05
5.7240064e-08
-9.2228963e-08
-9.9928203e-05
5.5878436e-08
-8.7194613e-08
-9.992454e-05
5.3869941e-08
-9.5412854e-08
-9.9921334e-05
4.8011438e-08
-9.1137364e-08
-9.9918682e-05
4.2272207e-08
-9.0749183e-08
-9.9916328e-05
3.2929509e-08
-9.3868985e-08
-9.991411e-05
-8.2243239e-08
-9.9903578e-05
125.85841
-2.6881228
124.43517
-2.8603451
121.69023
-3.0436252
117.51503
-3.2303154
111.86044
-3.41018
104.75393
-3.5705519
96.321228
-3.6969012
86.788621
-3.7739238
76.481897
-3.7871361
65.79622
-3.7248826
55.164644
-3.5804357
45.007982
-3.3538122
35.687494
-3.0527994
27.464964
-2.6928032
20.492986
-2.2953896
14.804535
-1.8855619
10.338808
-1.4884507
6.9661091
-1.1258613
4.5180664
-0.81357624
2.81185
-0.55984376
1.6733725
-0.36547834
0.94844478
-0.22629148
0.50928738
-0.13259169
0.25779463
-0.073267558
0.12237953
-0.03802441
0.054088833
-0.018460339
0.0221069
-0.0083568664
0.008297181
-0.0035279859
0.0028384416
-0.0014055645
0.00087761085
-0.00055305671
0.00024377235
-0.00024220514
5.9767399e-05
-0.00014012078
1.3099201e-05
-0.00011013618
2.4489504e-06
-0.00010230046
2.7575078e-07
-0.000100484
2.2962394e-08
-0.00010010518
9.9596551e-11
-0.00010002015
-3.7457659e-08
-9.9990043e-05
5.3146397e-09
-9.9974951e-05
1.6760055e-08
-9.9962462e-05
4.4042938e-08
-9.9953688e-05
1.8445269e-08
-9.9945208e-05
3.7915096e-08
-9.9940256e-05
2.7472659e-08
-9.9935454e-05
2.9941523e-08
-9.9932255e-05
2.5611788e-08
-9.9929405e-05
1.8680798e-08
-9.9926804e-05
2.0475614e-08
-9.9924869e-05
1.7734306e-08
-9.9923074e-05
-9.9917788e-05
99.34182
0.65290084
-1.1050414
98.782796
0.650585
-1.1743899
97.93653
0.64610036
-1.2507436
96.709738
0.6380788
-1.3334372
94.994426
0.62529435
-1.421027
92.670247
0.60658259
-1.5110459
89.617926
0.5813445
-1.599724
85.729816
0.54925621
-1.681856
80.932302
0.51086553
-1.7507846
75.201087
0.4671964
-1.7987711
68.584933
0.42056865
-1.8176433
61.215912
0.37376953
-1.7999274
53.310465
0.32940228
-1.7402538
45.151426
0.28902839
-1.6368841
37.073807
0.25405794
-1.4925208
29.410088
0.22273613
-1.3149375
22.462078
0.19372084
-1.11592
16.458001
0.16535933
-0.90963306
11.528904
0.13733902
-0.71022664
7.6938872
0.11038893
-0.52983737
4.8522107
0.079601037
-0.37675204
2.8934153
0.052564763
-0.25389958
1.6285933
0.032756871
-0.16158304
0.86224664
0.019274431
-0.096785828
0.42739969
0.010565772
-0.054360078
0.19728259
0.0053477692
-0.028513951
0.084319888
0.0024839258
-0.013912744
0.033153376
0.0010488516
-0.0062981684
0.011913823
0.00040152621
-0.0026503934
0.0038855781
0.00013809176
-0.0010560166
0.0011416654
4.216545e-05
-0.00042397641
0.00029948713
1.1419047e-05
-0.00019854688
7.004032e-05
2.7329086e-06
-0.00012668739
1.4447454e-05
5.3743969e-07
-0.00010637082
2.5506061e-06
8.4069483e-08
-0.00010130428
4.8746351e-07
1.5764867e-08
-0.00010019712
1.4990043e-07
2.5392559e-08
-9.9985635e-05
3.0934094e-08
6.8322998e-08
-9.9947177e-05
5.6790382e-08
1.3889084e-08
-9.9939234e-05
4.966983e-08
6.9375922e-08
-9.9934333e-05
7.2936437e-08
7.6879151e-08
-9.9931006e-05
3.380875e-08
9.5718325e-08
-9.9926685e-05
5.1438302e-08
7.899344e-08
-9.9923659e-05
3.5657301e-08
9.7709159e-08
-9.9920326e-05
3.6552988e-08
9.2491588e-08
-9.99178e-05
3.1081329e-08
1.0044309e-07
-9.9915404e-05
2.2367685e-08
9.5720918e-08
-9.9913592e-05
2.3572728e-08
9.5121872e-08
-9.9911274e-05
2.6110952e-08
9.8034114e-08
-9.9911599e-05
8.8368668e-08
-9.9908524e-05
99.521518
1.4486325
-1.1005907
98.941718
1.5691901
-1.1697972
98.063577
1.6647566
-1.2458384
96.796601
1.7333966
-1.3280028
95.034137
1.7739744
-1.4148151
92.660976
1.7864139
-1.5037603
89.559708
1.7716398
-1.5910739
85.628531
1.7318082
-1.6715582
80.796049
1.6699097
-1.7386548
75.045283
1.5896087
-1.7847233
68.42636
1.4942776
-1.8018114
61.068923
1.386646
-1.7827368
53.182561
1.2685389
-1.7224643
45.049065
1.1410624
-1.6193778
36.986525
1.0045451
-1.476504
29.330263
0.8608962
-1.301359
22.380965
0.71321198
-1.1054413
16.37369
0.56475312
-0.90242896
11.444493
0.42897007
-0.7061807
7.5865099
0.29706724
-0.52848972
4.7553716
0.19186138
-0.37648658
2.8225819
0.11773861
-0.25407204
1.5806203
0.068089792
-0.16197006
0.83136664
0.036823037
-0.097231328
0.40896866
0.018536214
-0.054753048
0.18721487
0.0086421291
-0.02879796
0.079299734
0.0037148243
-0.01408578
0.030901992
0.0014660943
-0.0063866199
0.011002474
0.0005231623
-0.0026898886
0.0035558286
0.00016925654
-0.0010707475
0.0010362288
4.9560717e-05
-0.00042872174
0.00027010181
1.299794e-05
-0.0001997647
6.2567435e-05
3.0492347e-06
-0.00012700593
1.2832708e-05
6.6137448e-07
-0.00010641862
2.3593321e-06
1.681013e-07
-0.00010129518
4.3578317e-07
8.9222884e-08
-0.00010018244
1.3704894e-07
8.6479695e-08
-9.9971289e-05
8.0366896e-08
9.1291215e-08
-9.9933755e-05
8.0054508e-08
9.9288453e-08
-9.9927026e-05
7.5285558e-08
1.0368815e-07
-9.9923132e-05
7.6401592e-08
1.0721419e-07
-9.9920257e-05
7.0938137e-08
1.0843031e-07
-9.9916663e-05
7.0537405e-08
1.0936421e-07
-9.9914246e-05
6.6487318e-08
1.085534e-07
-9.9911283e-05
6.3200951e-08
1.0701403e-07
-9.9909059e-05
5.9333078e-08
1.0440108e-07
-9.9906697e-05
5.2388227e-08
1.0071331e-07
-9.9905033e-05
4.6006711e-08
9.6513907e-08
-9.9902227e-05
4.9496378e-08
9.1295256e-08
-9.9903426e-05
8.3869799e-08
-9.9897261e-05
101.25332
5.9633193
-1.107858
100.38388
5.8898054
-1.1777656
99.22695
5.755718
-1.2544299
97.696909
5.5669625
-1.3371285
95.692808
5.3308232
-1.4243871
93.103364
5.0553988
-1.5137347
89.815961
4.7487649
-1.6014792
85.729975
4.4183135
-1.6825676
80.774052
4.0703419
-1.7506189
74.925232
3.709998
-1.7982286
68.22656
3.3406059
-1.8176274
60.800163
2.9633512
-1.8016991
52.850215
2.579265
-1.7452635
44.653451
2.1919726
-1.6463845
36.535979
1.8089598
-1.5073623
28.838614
1.4418377
-1.335038
21.862259
1.1062467
-1.1402262
15.891116
0.80454032
-0.93593481
10.955265
0.54519009
-0.73696138
7.1945144
0.35122449
-0.55313548
4.481624
0.21291048
-0.3948921
2.6406529
0.1210724
-0.2673286
1.4669034
0.064375956
-0.17103533
0.76538073
0.031931787
-0.10303167
0.373552
0.014768296
-0.058190891
0.16971837
0.0063544441
-0.030671299
0.071377934
0.0025189427
-0.015017431
0.027603048
0.00092135045
-0.0068067044
0.0097733783
0.00031933555
-0.0028592959
0.0031431252
0.00010263115
-0.001135256
0.00091099171
3.0069044e-05
-0.00045090283
0.00023624312
7.9625542e-06
-0.00020649088
5.44996e-05
1.9302087e-06
-0.00012857221
1.119113e-05
4.7196255e-07
-0.00010670146
2.1185432e-06
1.6218718e-07
-0.00010132184
4.5356494e-07
1.0440716e-07
-0.00010016822
1.8176814e-07
9.44723e-08
-9.9952939e-05
1.3811762e-07
9.2410823e-08
-9.9917346e-05
1.270928e-07
9.112819e-08
-9.9911106e-05
1.2046716e-07
8.9539458e-08
-9.9908926e-05
1.1432063e-07
8.7478956e-08
-9.9907137e-05
1.0820893e-07
8.4914289e-08
-9.9905431e-05
1.0185938e-07
8.1783645e-08
-9.9903711e-05
9.497279e-08
7.8053508e-08
-9.9902098e-05
8.741291e-08
7.3676121e-08
-9.990059e-05
7.8950763e-08
6.8623025e-08
-9.9899164e-05
6.9079545e-08
6.2864151e-08
-9.9897909e-05
5.7829754e-08
5.6499687e-08
-9.989623e-05
5.1971904e-08
4.9404621e-08
-9.9896288e-05
4.0023503e-08
-9.9889731e-05
102.33941
18.56404
-1.149742
100.89199
16.461514
-1.2217396
99.260836
14.514651
-1.3006905
97.355402
12.729796
-1.3859502
95.065734
11.107527
-1.4761613
92.266576
9.6438502
-1.5689968
88.829109
8.3267045
-1.6608943
84.636643
7.1451882
-1.7468749
79.604319
6.0884453
-1.8205335
73.693689
5.1474009
-1.8743181
66.932759
4.3174158
-1.9000773
59.442443
3.574002
-1.8899529
51.441674
2.896677
-1.8377661
43.227704
2.2925404
-1.7405663
35.147262
1.7689879
-1.5998726
27.560464
1.3168668
-1.42226
20.700745
0.93042184
-1.2191493
14.883609
0.62332922
-1.0029915
10.209059
0.3938775
-0.78952597
6.6668533
0.23527366
-0.59276014
4.13469
0.13243023
-0.42320419
2.4287133
0.070199863
-0.28644384
1.3469402
0.035206299
-0.18318043
0.70262563
0.016664347
-0.11026425
0.34312273
0.0075007072
-0.062211684
0.15598215
0.0032001949
-0.032744984
0.065712341
0.0013266064
-0.015998181
0.025492245
0.00052048807
-0.0072279762
0.0090204598
0.00018477406
-0.0030227098
0.0028929435
5.9336193e-05
-0.0011845988
0.00083530369
1.7183472e-05
-0.00046225792
0.00021573852
4.4859775e-06
-0.00020816875
4.9593937e-05
1.0756281e-06
-0.0001286305
1.0177934e-05
2.6421105e-07
-0.00010662427
1.9543778e-06
9.3362456e-08
-0.00010127916
4.4953148e-07
6.0239825e-08
-0.00010014712
2.037582e-07
5.3796528e-08
-9.9939654e-05
1.6234871e-07
5.214673e-08
-9.9907116e-05
1.4983575e-07
5.0579695e-08
-9.9902732e-05
1.4103598e-07
4.8345905e-08
-9.99019e-05
1.3246357e-07
4.6309119e-08
-9.9901235e-05
1.2355829e-07
4.4354787e-08
-9.9900468e-05
1.1412984e-07
4.181446e-08
-9.9899634e-05
1.0381736e-07
3.9860502e-08
-9.9898705e-05
9.2538074e-08
3.7105539e-08
-9.9897711e-05
8.0047691e-08
3.3978815e-08
-9.9896784e-05
6.6289029e-08
2.9911809e-08
-9.9895838e-05
5.0527343e-08
2.5430082e-08
-9.9894941e-05
3.4470314e-08
2.0054217e-08
-9.9894261e-05
1.624556e-08
-9.9892909e-05
85.849253
-0.0019434365
-1.2410317
86.664233
-0.0021031289
-1.311018
87.094346
-0.0034925774
-1.3884594
87.026411
-0.0078467829
-1.4729264
86.34512
-0.01538342
-1.5631375
84.89532
-0.024445879
-1.6566932
82.593615
-0.027242819
-1.7494695
79.353829
-0.015870424
-1.8360922
75.128701
0.0028059576
-1.9097308
69.928936
0.016506
-1.9624771
63.674394
0.0040704797
-1.9869166
56.53135
-0.010132936
-1.9738243
48.89198
-0.0018731838
-1.9159217
41.058627
0.0064828807
-1.8109387
33.293476
0.001178594
-1.6614917
25.981171
-0.0018544177
-1.473539
19.457306
-0.0044172093
-1.2580699
13.964572
-0.001926572
-1.0302947
9.5826494
0.00034429054
-0.80724377
6.2664139
6.4633718e-05
-0.60403724
3.8958998
-0.0001808287
-0.43015176
2.2964858
-0.00016387216
-0.29049445
1.2778849
-0.0003144148
-0.18526578
0.66900031
-0.00020008713
-0.11114297
0.3275547
-0.00017233628
-0.062450677
0.14930229
-3.1933997e-05
-0.032699126
0.062870971
-3.5333062e-06
-0.015881767
0.02431725
-5.417023e-07
-0.0071306213
0.0085846158
2.6264443e-08
-0.0029630454
0.0027475191
4.606764e-08
-0.001158353
0.00079180272
9.6493601e-09
-0.00045245924
0.00020414149
-1.9700696e-09
-0.00020496121
4.6864761e-05
-1.4668589e-09
-0.00012770805
9.6203556e-06
-1.0500711e-09
-0.00010638892
1.8603907e-06
-7.694512e-10
-0.00010122446
4.4457722e-07
5.4197436e-10
-0.00010013262
2.1453329e-07
4.0461043e-10
-9.9933332e-05
1.7294439e-07
-9.1955591e-10
-9.9903446e-05
1.5755031e-07
-1.3009713e-09
-9.9901363e-05
1.4880232e-07
-4.3398232e-10
-9.9901091e-05
1.3992145e-07
-3.6342602e-10
-9.9900419e-05
1.2833305e-07
-9.3647956e-10
-9.9899592e-05
1.2023638e-07
-8.611412e-10
-9.9900427e-05
1.0648556e-07
-2.5454243e-09
-9.9900661e-05
9.3055225e-08
-3.1787559e-09
-9.9898177e-05
7.6290816e-08
-3.6520692e-09
-9.9898515e-05
5.9832502e-08
-2.8355174e-09
-9.9895824e-05
3.9556965e-08
-1.8870333e-09
-9.9894435e-05
2.7363667e-08
3.0573695e-10
-9.9893512e-05
-2.135088e-09
-9.9899332e-05
85.846951
-18.56892
-1.2412912
86.649745
-16.466215
-1.3112716
87.052495
-14.518193
-1.3886174
86.957467
-12.729569
-1.4727431
86.264796
-11.100658
-1.5622616
84.865612
-9.6288914
-1.6548681
82.670185
-8.3094497
-1.747101
79.481739
-7.138774
-1.8344538
75.222468
-6.0992976
-1.910042
69.853564
-5.1704539
-1.9650272
63.587607
-4.3273338
-1.9893446
56.577315
-3.5692755
-1.9753987
48.939195
-2.8990661
-1.9175498
41.031413
-2.3020721
-1.8123659
33.277696
-1.7729942
-1.6614485
25.967385
-1.3190154
-1.4727948
19.46837
-0.93472043
-1.2575845
13.974995
-0.62561573
-1.0311682
9.5814354
-0.39633962
-0.80910194
6.2653027
-0.23621167
-0.60506481
3.8959195
-0.13241755
-0.43021556
2.2957712
-0.069867945
-0.29002688
1.2782803
-0.034583196
-0.18482394
0.66905533
-0.016158936
-0.11086601
0.32808566
-0.0071175529
-0.062291502
0.14940873
-0.0031101389
-0.032639139
0.06288195
-0.0013074882
-0.01586784
0.024319343
-0.0005154682
-0.0071324844
0.008584702
-0.00018353787
-0.0029667625
0.0027473918
-5.9036344e-05
-0.0011599893
0.00079176101
-1.7104011e-05
-0.00045303172
0.00020414279
-4.4633962e-06
-0.00020511169
4.6865876e-05
-1.0704283e-06
-0.00012773842
9.6210786e-06
-2.6326235e-07
-0.00010639584
1.8650278e-06
-9.3471217e-08
-0.00010122648
4.4423936e-07
-6.1791009e-08
-0.00010013616
2.0979906e-07
-5.5297985e-08
-9.9937136e-05
1.7126459e-07
-5.2419152e-08
-9.990512e-05
1.6029107e-07
-5.0495274e-08
-9.9899285e-05
1.4892148e-07
-4.9110974e-08
-9.9898635e-05
1.3774616e-07
-4.7163516e-08
-9.9898859e-05
1.2831001e-07
-4.4674035e-08
-9.9899061e-05
1.1395384e-07
-4.2245216e-08
-9.9897467e-05
1.0343561e-07
-3.8653982e-08
-9.9896425e-05
9.0381617e-08
-3.5246674e-08
-9.989811e-05
7.8036901e-08
-3.1560348e-08
-9.9897001e-05
6.2292343e-08
-2.815325e-08
-9.9898938e-05
4.6686597e-08