/*--------------------------------*- C++ -*----------------------------------*\
| =========                 |                                                 |
| \\      /  F ield         | OpenFOAM: The Open Source CFD Toolbox           |
|  \\    /   O peration     | Version:  4.0                                   |
|   \\  /    A nd           | Web:      www.OpenFOAM.org                      |
|    \\/     M anipulation  |                                                 |
\*---------------------------------------------------------------------------*/
FoamFile
{
    version     2.0;
    format      ascii;
    class       volVectorField;
    location    "2000";
    object      U;
}
// * * * * * * * * * * * * * * * * * * * * * * * * * * * * * * * * * * * * * //

dimensions      [0 1 -1 0 0 0 0];

internalField   nonuniform List<vector> 
100000
(
(2.4454594e-05 5.8758969e-07 0.01348434)
(9.204476e-05 -1.7295107e-05 0.03924378)
(0.00018878759 -2.4075892e-06 0.064789074)
(0.00033713477 -1.5723429e-05 0.089746816)
(0.00051786423 3.2183189e-06 0.11371266)
(0.0007347081 -1.8221079e-05 0.13627862)
(0.00097194735 -7.1036274e-06 0.15705653)
(0.0012253116 -2.0246964e-05 0.17570703)
(0.001477072 6.6182502e-06 0.19195732)
(0.0017241083 8.479648e-06 0.20564413)
(0.0019579821 8.3196413e-06 0.21670805)
(0.0021674086 4.6824572e-06 0.22521099)
(0.0023396573 3.8786839e-05 0.23133051)
(0.0024872526 4.3739311e-06 0.23533897)
(0.0025860935 5.1915872e-05 0.2375789)
(0.0026440566 6.6702592e-05 0.23842599)
(0.0026653449 9.3986062e-05 0.23827966)
(0.002652426 9.8505873e-05 0.23748996)
(0.00259763 0.00015293899 0.23637598)
(0.0025184861 0.00015474666 0.23518397)
(0.0024110166 0.0001758196 0.2340804)
(0.0022838213 0.00024758655 0.2331598)
(0.0021338134 0.00021174642 0.23247154)
(0.0019814704 0.0002144926 0.23199025)
(0.0017951296 0.00026941202 0.23160669)
(0.0015995046 0.00028130538 0.23145523)
(0.0014067312 0.00027198957 0.23136088)
(0.0012157706 0.00023427585 0.23125636)
(0.0010313924 0.00024189458 0.23120223)
(0.00087270955 0.00014086303 0.23115026)
(0.00068263577 0.00016992638 0.23109802)
(0.00053809794 3.5152902e-05 0.23113075)
(0.00038060088 4.9624852e-05 0.23094367)
(0.00023983504 -3.5255462e-06 0.2309292)
(0.00013471838 -7.656e-05 0.23091246)
(5.5425808e-05 -8.4859056e-05 0.23078392)
(-1.1250712e-05 -0.00016150432 0.23075493)
(-3.7470924e-05 -0.00026985875 0.23071973)
(-0.00011886347 -0.00016937556 0.23061819)
(-0.00014166941 -0.00028573222 0.23052745)
(-0.00016249837 -0.00030585479 0.23044684)
(-0.00014747102 -0.00035660666 0.23040667)
(-0.00015295237 -0.00031804896 0.23028866)
(-0.00013205954 -0.00036118467 0.23021134)
(-0.00011764627 -0.00034723977 0.23010152)
(-9.0627298e-05 -0.00036251998 0.23000167)
(-6.83241e-05 -0.00034930139 0.22990419)
(-3.8837788e-05 -0.0003423014 0.22978421)
(-2.0593756e-05 -0.00034591228 0.22972628)
(3.7714498e-05 -0.00031215689 0.22966147)
(3.0241422e-05 -2.7485282e-06 0.013463556)
(0.00011065322 -1.6033053e-05 0.039180973)
(0.0002216708 -1.0828148e-05 0.064685491)
(0.00039542193 -1.6104592e-05 0.089599996)
(0.00060565142 -6.7928963e-06 0.11352321)
(0.00086320045 -1.5711044e-05 0.13604923)
(0.0011391547 -9.442557e-06 0.15679231)
(0.0014375518 -1.2609824e-05 0.17541343)
(0.0017300524 4.3430351e-06 0.19164753)
(0.0020207231 1.2146024e-05 0.2053262)
(0.0022842486 1.952573e-05 0.21639373)
(0.0025061348 2.6879206e-05 0.22491218)
(0.0026709751 5.4785651e-05 0.23105555)
(0.0027943353 5.1947908e-05 0.23509306)
(0.0028317384 8.7601577e-05 0.23736382)
(0.0028231178 0.00011155684 0.2382464)
(0.0027542261 0.00013986369 0.2381262)
(0.0026371844 0.00015589985 0.23736483)
(0.0024663731 0.00019518923 0.23627496)
(0.0022788053 0.00020970407 0.23510366)
(0.0020800075 0.00022231055 0.2340247)
(0.0018436846 0.00025825779 0.2331292)
(0.0016443676 0.0002422092 0.23245036)
(0.001421152 0.00024186113 0.23197236)
(0.001203207 0.00026231839 0.23165596)
(0.0010245811 0.00025660732 0.23145619)
(0.00086356029 0.00023727294 0.23132578)
(0.00071827744 0.00020005939 0.23122922)
(0.00056423269 0.00017216925 0.23114485)
(0.00045078153 9.210883e-05 0.23106041)
(0.00032236032 8.0971816e-05 0.23097019)
(0.00026136765 -1.0022763e-05 0.23087658)
(0.00015773227 -3.259744e-05 0.23077195)
(0.00010616164 -8.2143099e-05 0.23066575)
(7.5426647e-05 -0.000140202 0.23055231)
(3.1763736e-05 -0.00016839789 0.23043392)
(5.0583742e-06 -0.00022738508 0.23031017)
(-5.6963575e-06 -0.00029857224 0.23017524)
(-7.1677275e-05 -0.00026712245 0.23003636)
(-5.0476444e-05 -0.00033133611 0.22989048)
(-6.2871986e-05 -0.00035153231 0.22973547)
(-5.6947965e-05 -0.00038282425 0.22956802)
(-7.5072844e-05 -0.00036874857 0.22939445)
(-5.5120422e-05 -0.00038899745 0.22921059)
(-5.2611306e-05 -0.00038078217 0.2290203)
(-3.2115882e-05 -0.00038274798 0.2288206)
(-2.0150626e-05 -0.00036954249 0.22862068)
(1.2738237e-05 -0.00035274987 0.22840732)
(2.2759727e-05 -0.00034611569 0.22823199)
(0.00013491509 -0.00029034063 0.22796476)
(4.5303214e-05 -4.4574069e-06 0.013422615)
(0.00015642218 -1.6301969e-05 0.039062744)
(0.0003155775 -2.0257079e-05 0.06449169)
(0.00053838079 -1.8099281e-05 0.089334459)
(0.00081312779 -1.3859718e-05 0.11319259)
(0.0011263618 -7.7216234e-06 0.13566359)
(0.0014590382 1.4045927e-06 0.15636487)
(0.0017916895 1.4073687e-05 0.17496008)
(0.0021010718 3.0542854e-05 0.19118512)
(0.0023675741 5.0394892e-05 0.20487046)
(0.0025715729 7.3259141e-05 0.21595659)
(0.0026989477 9.8953328e-05 0.22450018)
(0.0027417201 0.00012668155 0.2306696)
(0.0027009161 0.00015434897 0.23473008)
(0.0025797469 0.00018190508 0.23701956)
(0.002393826 0.00020734427 0.23791867)
(0.0021555139 0.00022889008 0.23781755)
(0.0018815488 0.00024793988 0.23708403)
(0.0016076535 0.00026043959 0.2360377)
(0.0013331701 0.00026306964 0.23491929)
(0.0010753148 0.00026038059 0.23389019)
(0.00083753295 0.0002580435 0.23303703)
(0.00067097268 0.00027725042 0.23238242)
(0.00054696868 0.00027105377 0.23191133)
(0.00040128308 0.00021860639 0.23157985)
(0.00029981884 0.00018384925 0.23134258)
(0.00024279921 0.00015739067 0.23116273)
(0.00018179051 0.00010478189 0.23101169)
(0.00013096778 4.6707204e-05 0.23087053)
(9.2480642e-05 -9.1486257e-06 0.230736)
(6.1188708e-05 -6.4751683e-05 0.23060152)
(4.730793e-05 -0.00011843097 0.23046587)
(2.3864065e-05 -0.00017079634 0.23032537)
(9.275352e-06 -0.00022072837 0.2301789)
(-1.4620427e-06 -0.00026577886 0.23002496)
(-8.734563e-06 -0.00030684158 0.22986242)
(-1.3344228e-05 -0.00034205408 0.22969041)
(-1.8426423e-05 -0.00037022783 0.22950862)
(-2.0064617e-05 -0.00039190789 0.22931596)
(-1.9107971e-05 -0.0004079136 0.2291125)
(-1.6318715e-05 -0.00041728547 0.22889755)
(-1.2410754e-05 -0.00042000576 0.2286717)
(-6.1176975e-06 -0.00041671514 0.22843533)
(2.2011e-06 -0.0004078034 0.2281898)
(1.2648358e-05 -0.00039334789 0.22793673)
(2.5446924e-05 -0.00037320497 0.22767894)
(4.0865662e-05 -0.00034776394 0.22742099)
(6.3725556e-05 -0.00031366588 0.22716541)
(7.9696315e-05 -0.00028169522 0.22693686)
(0.00017475424 -0.00019621959 0.22667338)
(9.1321577e-05 -9.3977817e-06 0.013367197)
(0.00027742577 -3.6906984e-05 0.038910017)
(0.0004964579 -4.6120087e-05 0.064252803)
(0.00076055452 -4.2469535e-05 0.089024401)
(0.0010597696 -3.1093583e-05 0.11283018)
(0.0013749778 -1.5132975e-05 0.1352701)
(0.0016695278 1.0564175e-05 0.15596129)
(0.0019161285 4.3151862e-05 0.17456386)
(0.0020879922 8.0378639e-05 0.19080709)
(0.0021951199 0.0001116778 0.2045128)
(0.0022318597 0.000140789 0.21561338)
(0.0021749216 0.00018098746 0.22416037)
(0.0020351316 0.0002236135 0.2303215)
(0.001823516 0.00026094419 0.23436664)
(0.0015832682 0.00028247914 0.23664246)
(0.0013056462 0.00030066667 0.23753969)
(0.0010305224 0.00030976285 0.23745634)
(0.00078527085 0.00030900246 0.23676113)
(0.00058231895 0.00029159874 0.23576008)
(0.00040899748 0.00026032079 0.23468528)
(0.00027450696 0.00025109876 0.23368655)
(0.00018605287 0.00026318574 0.23284495)
(8.0368524e-05 0.00020973794 0.2321846)
(-9.944253e-07 0.00014471896 0.23168665)
(-2.3651561e-05 0.00013149987 0.23132208)
(-4.4446436e-05 8.1050263e-05 0.23105346)
(-6.1928409e-05 6.2337293e-06 0.23084566)
(-5.054248e-05 -4.1252406e-05 0.23067803)
(-3.8928235e-05 -8.2778959e-05 0.23053402)
(-2.6632733e-05 -0.00013108539 0.2303938)
(-9.4473531e-06 -0.00017078236 0.23025047)
(-1.2367591e-09 -0.00021174097 0.23010068)
(5.0533066e-06 -0.00025175961 0.22994275)
(7.4379463e-06 -0.00028935003 0.22977568)
(8.1236077e-06 -0.00032309229 0.22959862)
(8.3124812e-06 -0.0003521626 0.22941092)
(8.4718577e-06 -0.00037569733 0.22921204)
(8.9421791e-06 -0.00039313905 0.22900162)
(9.8603754e-06 -0.00040421262 0.22877953)
(1.1724178e-05 -0.00040891765 0.22854595)
(1.4242901e-05 -0.00040707851 0.22830151)
(1.7463581e-05 -0.00039891088 0.2280473)
(2.1647387e-05 -0.00038470613 0.22778507)
(2.6801504e-05 -0.00036452301 0.22751742)
(3.3096733e-05 -0.00033843889 0.22724801)
(4.0508666e-05 -0.00030621444 0.22698196)
(4.9613019e-05 -0.00026761702 0.22672621)
(6.1192185e-05 -0.00022174382 0.22649029)
(7.595912e-05 -0.00017009062 0.2262876)
(0.00011157057 -8.6551675e-05 0.22612283)
(0.00010905041 -9.0099655e-06 0.013308805)
(0.00031352538 -2.0786181e-05 0.038750342)
(0.00051707582 -2.101e-05 0.064008339)
(0.00070097386 -6.1495627e-05 0.088715969)
(0.00085510772 -0.00013179748 0.11247954)
(0.00099625411 -9.9191636e-05 0.13489641)
(0.0011248741 6.8423121e-05 0.1555894)
(0.0012089833 0.00024754592 0.17420519)
(0.0012440307 0.00026453167 0.19046294)
(0.0011961965 8.7975311e-05 0.20416606)
(0.0011043151 8.4632074e-05 0.21525365)
(0.0010096819 0.00026158205 0.22378875)
(0.00086867985 0.00040694098 0.22993418)
(0.00071842514 0.00040273424 0.2339666)
(0.00055624044 0.00036325526 0.23623577)
(0.00041312458 0.00036896261 0.23714316)
(0.00028166409 0.00029107541 0.2370794)
(0.0001565691 0.00024211929 0.23640697)
(4.7283689e-05 0.00023132518 0.23542932)
(-2.512885e-05 0.00023770485 0.23437459)
(-6.1801793e-05 0.00020371568 0.23339445)
(-7.6151619e-05 0.00013293853 0.23256867)
(-5.379164e-05 8.5715129e-05 0.23192139)
(-3.3623511e-05 6.1500406e-05 0.23144272)
(-1.7685145e-05 2.5674185e-05 0.23109868)
(-3.9748801e-06 -8.9179946e-06 0.23085152)
(2.9654356e-06 -4.356148e-05 0.23066467)
(5.6854121e-06 -8.2578488e-05 0.23050694)
(7.253248e-06 -0.00012285968 0.23036004)
(5.8820469e-06 -0.0001629287 0.23021394)
(5.9211236e-06 -0.00020156743 0.23006313)
(6.7415158e-06 -0.00023822468 0.22990473)
(7.4116175e-06 -0.00027409323 0.22973725)
(7.726603e-06 -0.00030678153 0.22955943)
(8.0429278e-06 -0.00033549264 0.22937098)
(7.9622079e-06 -0.00036059146 0.22917089)
(7.9307911e-06 -0.00037894489 0.22895903)
(8.2942078e-06 -0.00039034026 0.22873551)
(8.7661651e-06 -0.00039687229 0.2285001)
(9.3448068e-06 -0.00039670668 0.22825302)
(1.0478831e-05 -0.00038862079 0.22799622)
(1.1924319e-05 -0.00037543243 0.22773162)
(1.3442229e-05 -0.00035694717 0.22746055)
(1.5157019e-05 -0.00033253136 0.22718799)
(1.7122285e-05 -0.00030112769 0.2269176)
(1.9702715e-05 -0.0002626698 0.22665651)
(2.2770316e-05 -0.00021816714 0.22641364)
(2.6656511e-05 -0.00016623319 0.22620039)
(3.1663572e-05 -0.00010788257 0.22603183)
(3.8308314e-05 -3.9322777e-05 0.2259279)
(-0.00011371893 -1.1301223e-05 0.013309071)
(-0.00030816573 -4.7890692e-05 0.038749993)
(-0.00049447609 -3.7528193e-05 0.064007188)
(-0.00068248957 3.9829874e-05 0.088717689)
(-0.00085036166 0.00012249496 0.1124873)
(-0.0010161461 0.00014109863 0.13490994)
(-0.0011385411 6.9641665e-05 0.15559649)
(-0.0011897845 -4.503348e-05 0.17420192)
(-0.0012002294 3.376466e-06 0.19044875)
(-0.0012048971 0.00023847084 0.20416312)
(-0.0011535111 0.00029160062 0.2152636)
(-0.0010387004 0.00015403149 0.22379164)
(-0.00087471308 4.1894407e-05 0.2299304)
(-0.00071843108 7.3531343e-05 0.23395795)
(-0.00058071399 0.00012688442 0.23623205)
(-0.000411998 0.00012766123 0.23713786)
(-0.00029154333 0.00020538625 0.23707489)
(-0.00017680309 0.00024822184 0.23640365)
(-8.2987444e-05 0.00025661632 0.23542627)
(-6.9306017e-06 0.00020980979 0.23437143)
(3.0560254e-05 0.00015909899 0.23338916)
(3.6050647e-05 0.00013110946 0.23256285)
(2.0470404e-05 9.0598359e-05 0.23191776)
(1.2786209e-05 5.593012e-05 0.23144078)
(3.1303231e-06 2.3724026e-05 0.23110061)
(-3.7764071e-06 -7.5211663e-06 0.23085674)
(-1.0699989e-05 -4.5383695e-05 0.23066913)
(-9.7569221e-06 -8.3276565e-05 0.23050985)
(-9.9377731e-06 -0.00012216519 0.23036205)
(-7.9852804e-06 -0.00016091345 0.23021524)
(-7.8377883e-06 -0.00020001216 0.23006391)
(-8.2623524e-06 -0.00023887952 0.22990518)
(-8.6483757e-06 -0.0002745369 0.22973735)
(-8.964325e-06 -0.0003073592 0.22955968)
(-8.9099176e-06 -0.00033621588 0.22937095)
(-9.0272831e-06 -0.00035903064 0.22917103)
(-9.1517293e-06 -0.00037757663 0.22895931)
(-9.1638691e-06 -0.00039109381 0.22873538)
(-9.4007898e-06 -0.0003968837 0.22849978)
(-1.0043587e-05 -0.00039650531 0.2282534)
(-1.0616181e-05 -0.00039117345 0.22799643)
(-1.1459604e-05 -0.00037824254 0.22773036)
(-1.2842901e-05 -0.00035814011 0.22745894)
(-1.4595334e-05 -0.00033168586 0.22718439)
(-1.6745398e-05 -0.00029996815 0.22691293)
(-1.9113756e-05 -0.00026285061 0.22665079)
(-2.2031364e-05 -0.00021881363 0.22640694)
(-2.5648946e-05 -0.00016841201 0.22619356)
(-3.0237512e-05 -0.00011073122 0.22602648)
(-3.6927823e-05 -4.0326632e-05 0.22591956)
(-9.3074537e-05 -1.1083128e-05 0.013367961)
(-0.00027764984 -3.4810691e-05 0.038911623)
(-0.00049850209 -4.186744e-05 0.064255246)
(-0.00076465613 -3.59724e-05 0.089027863)
(-0.0010607404 -2.3221016e-05 0.1128346)
(-0.0013620348 -8.3230437e-06 0.13527518)
(-0.001648729 6.8702235e-06 0.15596657)
(-0.0018978717 2.1891018e-05 0.17456895)
(-0.0020946194 3.8026073e-05 0.19081182)
(-0.0022031146 6.4552481e-05 0.20451729)
(-0.0022133683 9.5038164e-05 0.21561755)
(-0.0021506811 0.00011397447 0.22416394)
(-0.002017087 0.00012579754 0.23032467)
(-0.0018278245 0.00013636385 0.23436999)
(-0.0015813704 0.00015768827 0.23664676)
(-0.0013227071 0.00017516518 0.2375455)
(-0.0010531619 0.00019512092 0.23746372)
(-0.00080000308 0.00021087979 0.23676949)
(-0.00057242351 0.00021459213 0.2357691)
(-0.00040308878 0.00023850803 0.23469239)
(-0.00027520746 0.00025180765 0.23369393)
(-0.0001575387 0.000245721 0.23285114)
(-4.7864105e-05 0.00020583304 0.23218818)
(2.3441217e-05 0.00014733207 0.23168816)
(5.6155218e-05 0.0001032502 0.23132127)
(7.0234905e-05 4.6334461e-05 0.23104718)
(6.475623e-05 6.458882e-06 0.23084128)
(5.2285739e-05 -4.0982045e-05 0.23067546)
(3.8663605e-05 -8.2664136e-05 0.23053271)
(2.5734825e-05 -0.00013121598 0.23039333)
(8.2648073e-06 -0.00017077038 0.23025054)
(-1.299912e-06 -0.00021180649 0.23010108)
(-6.5675764e-06 -0.00025196384 0.22994335)
(-8.780735e-06 -0.00028949993 0.22977636)
(-9.5918363e-06 -0.00032331855 0.22959933)
(-9.6608817e-06 -0.00035231588 0.22941159)
(-9.4206289e-06 -0.00037577649 0.22921261)
(-9.7103533e-06 -0.00039335661 0.22900203)
(-1.0642739e-05 -0.00040463678 0.22877972)
(-1.2160224e-05 -0.00040941088 0.22854586)
(-1.4562638e-05 -0.00040782488 0.22830097)
(-1.8001534e-05 -0.00039992566 0.22804618)
(-2.2219583e-05 -0.00038571578 0.22778328)
(-2.7333229e-05 -0.00036543518 0.22751488)
(-3.331244e-05 -0.00033910777 0.22724472)
(-4.0641809e-05 -0.0003067881 0.22697798)
(-4.975254e-05 -0.00026808964 0.22672166)
(-6.1379795e-05 -0.00022213688 0.22648537)
(-7.645112e-05 -0.00017058042 0.22628247)
(-0.00011224404 -8.7043319e-05 0.22611761)
(-4.5442084e-05 -3.3489516e-06 0.013423306)
(-0.00015665222 -1.6100965e-05 0.039064272)
(-0.00031603052 -2.1699092e-05 0.064493995)
(-0.00053816217 -2.1739572e-05 0.089337627)
(-0.00081177501 -1.9911429e-05 0.11319658)
(-0.0011234933 -1.6260397e-05 0.13566832)
(-0.0014546119 -9.541371e-06 0.15637018)
(-0.0017858712 6.8009896e-07 0.17496577)
(-0.0020939311 1.4440214e-05 0.1911909)
(-0.0023583241 3.1413638e-05 0.20487595)
(-0.0025590155 5.1602559e-05 0.21596136)
(-0.0026833387 7.5172486e-05 0.22450388)
(-0.0027243291 0.0001017006 0.23067199)
(-0.0026830114 0.00012926721 0.234731)
(-0.0025613154 0.00015805437 0.23701893)
(-0.0023750834 0.00018605228 0.2379165)
(-0.0021364907 0.0002120023 0.2378139)
(-0.0018634335 0.00023681258 0.23708007)
(-0.0015883745 0.00025600438 0.23603312)
(-0.0013159574 0.00026590814 0.23491438)
(-0.0010625693 0.00027177891 0.23388548)
(-0.00084184386 0.0002602278 0.23303309)
(-0.00068425725 0.00026717757 0.23238017)
(-0.00054520664 0.00025545896 0.23190916)
(-0.00041335824 0.00023029127 0.23157672)
(-0.00032081517 0.00019762698 0.23134117)
(-0.00023897094 0.00015069223 0.231161)
(-0.00018261597 0.00010060101 0.23101031)
(-0.00013183194 4.3238858e-05 0.23086978)
(-9.3870849e-05 -1.1433424e-05 0.23073592)
(-6.2590278e-05 -6.6220609e-05 0.23060194)
(-4.8893611e-05 -0.00011928482 0.23046668)
(-2.5442434e-05 -0.00017139826 0.23032644)
(-1.0837736e-05 -0.00022117814 0.23018014)
(-4.5851918e-08 -0.00026615555 0.23002629)
(7.3080994e-06 -0.00030720784 0.22986376)
(1.2029224e-05 -0.00034244082 0.22969168)
(1.7231421e-05 -0.00037066864 0.22950976)
(1.8994853e-05 -0.00039242742 0.2293169)
(1.8157189e-05 -0.00040851262 0.22911316)
(1.5458425e-05 -0.00041796509 0.22889787)
(1.1620741e-05 -0.00042076234 0.22867164)
(5.3960233e-06 -0.00041752516 0.22843485)
(-2.8563287e-06 -0.00040863928 0.22818888)
(-1.3246151e-05 -0.00039417412 0.22793537)
(-2.6002937e-05 -0.00037399645 0.22767717)
(-4.138641e-05 -0.00034850103 0.22741884)
(-6.4214215e-05 -0.00031432895 0.22716294)
(-8.0139462e-05 -0.00028229589 0.22693413)
(-0.00017522311 -0.00019670835 0.22667043)
(-3.0264233e-05 7.0907709e-07 0.01346455)
(-0.00011048094 -1.2162865e-05 0.039183463)
(-0.00022223186 -8.1356029e-06 0.064689359)
(-0.00039603531 -1.475792e-05 0.089605222)
(-0.00060635755 -6.6921428e-06 0.11352969)
(-0.00086395958 -1.6777529e-05 0.13605684)
(-0.001139898 -1.1539855e-05 0.1568009)
(-0.0014381758 -1.5520048e-05 0.17542285)
(-0.0017304377 8.8670888e-07 0.19165761)
(-0.0020208278 8.411833e-06 0.20533676)
(-0.0022841609 1.5744256e-05 0.21640457)
(-0.0025060595 2.3316575e-05 0.22492311)
(-0.0026711881 5.1816653e-05 0.23106638)
(-0.0027951168 4.9982753e-05 0.2351036)
(-0.0028333504 8.6946522e-05 0.23737392)
(-0.0028257521 0.00011231082 0.23825595)
(-0.002757944 0.00014199098 0.23813514)
(-0.0026418011 0.0001593227 0.23737311)
(-0.0024713697 0.00019958911 0.23628253)
(-0.0022830735 0.00021465341 0.23511047)
(-0.0020826448 0.00022750599 0.23403076)
(-0.0018462737 0.00026270406 0.23313447)
(-0.0016482208 0.00024430916 0.23245503)
(-0.0014269349 0.00024163596 0.23197645)
(-0.0012113632 0.00026004873 0.2316595)
(-0.0010300691 0.00026053368 0.23145931)
(-0.0008685077 0.00023926957 0.23132856)
(-0.00072218057 0.00020101614 0.23123176)
(-0.00056763982 0.00017242227 0.23114725)
(-0.00045387148 9.2106239e-05 0.23106276)
(-0.00032517078 8.0817355e-05 0.23097257)
(-0.00026395954 -1.0203819e-05 0.23087904)
(-0.00016012185 -3.2815451e-05 0.23077452)
(-0.00010836248 -8.2402781e-05 0.23066841)
(-7.7522584e-05 -0.00014048794 0.23055504)
(-3.3750157e-05 -0.00016872652 0.2304367)
(-6.8560494e-06 -0.00022780113 0.23031296)
(4.0764089e-06 -0.00029907196 0.23017801)
(7.0225339e-05 -0.00026770445 0.23003906)
(4.9180653e-05 -0.00033199711 0.22989307)
(6.1723628e-05 -0.00035226703 0.22973792)
(5.5939835e-05 -0.00038362326 0.2295703)
(7.4196488e-05 -0.00036960325 0.22939654)
(5.4364761e-05 -0.00038989454 0.22921245)
(5.1965913e-05 -0.00038170921 0.22902192)
(3.1567489e-05 -0.00038368595 0.22882195)
(1.9696174e-05 -0.00037047678 0.22862175)
(-1.3142464e-05 -0.0003536549 0.22840805)
(-2.3046364e-05 -0.00034700099 0.22823245)
(-0.00013534651 -0.00029112035 0.22796472)
(-2.45713e-05 4.5150266e-06 0.013485258)
(-9.1912971e-05 -1.1697765e-05 0.039246188)
(-0.0001888318 2.7415666e-06 0.064792925)
(-0.00033691218 -1.1351118e-05 0.089752123)
(-0.00051738426 6.7210073e-06 0.11371935)
(-0.00073393462 -1.5587579e-05 0.13628657)
(-0.00097083501 -5.2417504e-06 0.15706558)
(-0.0012238251 -1.8978769e-05 0.17571699)
(-0.0014751993 7.5123877e-06 0.19196796)
(-0.0017218811 9.2250708e-06 0.20565522)
(-0.0019554859 9.1229989e-06 0.21671934)
(-0.0021647878 5.7362764e-06 0.22522226)
(-0.0023371049 4.0286625e-05 0.23134153)
(-0.0024849912 6.4959778e-06 0.23534958)
(-0.0025843237 5.4798331e-05 0.23758898)
(-0.0026429397 7.0406466e-05 0.23843548)
(-0.0026649618 9.8512641e-05 0.23828856)
(-0.0026527371 0.00010378407 0.23749832)
(-0.0025984422 0.00015883942 0.23638387)
(-0.0025195277 0.0001609098 0.2351915)
(-0.0024120678 0.00018153462 0.23408767)
(-0.0022848671 0.00025197014 0.23316688)
(-0.00213514 0.00021402416 0.23247832)
(-0.0019832036 0.00021494683 0.23199675)
(-0.0017972875 0.00026888637 0.23161292)
(-0.0016017516 0.00028106189 0.23146118)
(-0.0014090598 0.00027191506 0.23136658)
(-0.0012181351 0.00023408758 0.23126182)
(-0.0010337101 0.00024151616 0.23120746)
(-0.00087497901 0.0001404154 0.2311553)
(-0.0006849289 0.00016945942 0.23110291)
(-0.00054036498 3.4709207e-05 0.23113553)
(-0.00038282244 4.9186988e-05 0.2309484)
(-0.00024197611 -3.9632669e-06 0.23093388)
(-0.00013675987 -7.70134e-05 0.23091713)
(-5.7407606e-05 -8.5300414e-05 0.2307886)
(9.3433592e-06 -0.00016198354 0.23075964)
(3.5707075e-05 -0.00027039529 0.23072448)
(0.00011724487 -0.00016997593 0.23062299)
(0.00014019722 -0.00028639535 0.23053231)
(0.00016117202 -0.00030657996 0.23045177)
(0.00014628664 -0.00035738897 0.23041166)
(0.00015190551 -0.00031888688 0.23029372)
(0.00013114792 -0.00036207041 0.23021647)
(0.00011686923 -0.00034816864 0.23010672)
(8.9976757e-05 -0.00036347979 0.23000692)
(6.7804571e-05 -0.00035028277 0.22990947)
(3.8419519e-05 -0.00034328823 0.22978945)
(2.032477e-05 -0.00034689734 0.22973151)
(-3.795486e-05 -0.00031310862 0.22966653)
(2.5047309e-05 2.999571e-07 0.011463176)
(5.8551045e-05 -1.6898031e-05 0.033837114)
(0.00015052599 6.4672055e-07 0.056622526)
(0.0002740471 -1.3764227e-05 0.079600058)
(0.00042882088 3.394201e-06 0.10250251)
(0.00061924112 -1.8222622e-05 0.12501492)
(0.0008288787 -8.6256562e-06 0.1467785)
(0.0010499054 -2.2770344e-05 0.16740182)
(0.001259579 1.0289262e-06 0.18647813)
(0.0014469649 -3.2558573e-07 0.20361146)
(0.0015946261 -5.3950829e-06 0.21844737)
(0.001682657 -1.6433828e-05 0.23070873)
(0.0016919766 5.8466258e-06 0.24022974)
(0.001632574 -4.3456639e-05 0.24698323)
(0.0014838975 -1.7865289e-05 0.25109528)
(0.0012639591 -3.1109584e-05 0.25284523)
(0.00099285293 -3.9611617e-05 0.25264469)
(0.00069320198 -7.8972177e-05 0.25099683)
(0.00037970002 -7.4541465e-05 0.24844221)
(0.00010123739 -0.0001381065 0.24549289)
(-6.3390518e-05 -0.000129327 0.24257234)
(-0.00021185003 -9.2565993e-05 0.2399956)
(-0.00040046944 -0.00018133179 0.23791941)
(-0.00056376916 -0.000226684 0.2363621)
(-0.00071215597 -0.00020461067 0.2352515)
(-0.00082040735 -0.00022351242 0.23451983)
(-0.00090106869 -0.00026041618 0.23402732)
(-0.00094566194 -0.00031818935 0.2336631)
(-0.0010032403 -0.00033570441 0.23338536)
(-0.0010072026 -0.00043791105 0.2331446)
(-0.0010484558 -0.00039292312 0.23292657)
(-0.0010156811 -0.00050234067 0.2327427)
(-0.0010030793 -0.00044755679 0.2324557)
(-0.00098556564 -0.0004610735 0.23226309)
(-0.00094173076 -0.00049094254 0.23208342)
(-0.00089609859 -0.00046128778 0.23184425)
(-0.00086293192 -0.00049593476 0.23168078)
(-0.00074035164 -0.00055640332 0.23152093)
(-0.00072670549 -0.00041275133 0.23132567)
(-0.00064966687 -0.00049467402 0.23114541)
(-0.00059858052 -0.00048877942 0.23099127)
(-0.00049981467 -0.00051595797 0.23087509)
(-0.00045108939 -0.00045650584 0.23070583)
(-0.00037059999 -0.00048337185 0.23057435)
(-0.00031300177 -0.00045578121 0.23042479)
(-0.00023762272 -0.0004598191 0.23028389)
(-0.00018476817 -0.00043796638 0.23015839)
(-0.00010420515 -0.00042334327 0.22999746)
(-8.514671e-05 -0.0004233324 0.22993201)
(4.8900122e-05 -0.0003938801 0.22980539)
(3.1463198e-05 -4.3507974e-06 0.011434727)
(7.7810626e-05 -1.8480741e-05 0.033752389)
(0.00017979944 -9.8959628e-06 0.056479674)
(0.00032833697 -1.7296282e-05 0.0793975)
(0.00051178172 -1.031477e-05 0.10223955)
(0.00074258094 -2.0733982e-05 0.12469191)
(0.00099187157 -1.6777627e-05 0.14639803)
(0.0012598219 -2.2484455e-05 0.16696869)
(0.0015128065 -9.6943448e-06 0.18600038)
(0.0017459339 -7.2572873e-06 0.20309974)
(0.001924187 -7.7335213e-06 0.21791577)
(0.0020233008 -1.1884894e-05 0.23017326)
(0.0020206311 -8.4225483e-07 0.23970569)
(0.0019290125 -2.603065e-05 0.24648198)
(0.0017087379 -2.0605347e-05 0.25062336)
(0.0014137773 -3.4811284e-05 0.25240194)
(0.0010534078 -5.3759673e-05 0.25222389)
(0.00067423146 -9.6172357e-05 0.25059071)
(0.00028389806 -0.00010603628 0.24804312)
(6.8505336e-05 -0.00010861796 0.24509313)
(-0.00012939764 -0.00011500167 0.24218232)
(-0.00043595719 -0.00014300621 0.23962101)
(-0.00065157835 -0.00021214524 0.23755188)
(-0.00082978664 -0.00026591628 0.23599327)
(-0.00097933987 -0.00029481242 0.23488122)
(-0.0010781631 -0.00035050127 0.234112)
(-0.0011271584 -0.00041498324 0.23357493)
(-0.0011380131 -0.0004876463 0.23317753)
(-0.0011252553 -0.0005341564 0.23285512)
(-0.0010510964 -0.00059609457 0.23256812)
(-0.0010024349 -0.00058021554 0.23229756)
(-0.00087954407 -0.00062743719 0.23203137)
(-0.00081513883 -0.00059545037 0.23176461)
(-0.00072331387 -0.00059195889 0.23151568)
(-0.00062197226 -0.00059393708 0.23127578)
(-0.00055393666 -0.00056645683 0.23104352)
(-0.00048029614 -0.00057053204 0.23081892)
(-0.00038261918 -0.00058393388 0.23059219)
(-0.00040072196 -0.0005061098 0.23037804)
(-0.00030114748 -0.00053386523 0.23016228)
(-0.00026767648 -0.00052329712 0.22994719)
(-0.00020905961 -0.00052556351 0.22972423)
(-0.00020672463 -0.00048920013 0.22950706)
(-0.00014838785 -0.00049191965 0.22928111)
(-0.00012813371 -0.00047004989 0.22905669)
(-7.7425912e-05 -0.00046007028 0.22882017)
(-5.8936945e-05 -0.0004413695 0.2285953)
(2.1168269e-05 -0.0004139764 0.22833158)
(-1.306227e-05 -0.0004179927 0.22815374)
(0.00022403442 -0.00035719712 0.22777444)
(4.7732946e-05 -9.0787714e-06 0.011383879)
(0.0001256662 -2.364141e-05 0.033603432)
(0.00026707288 -2.3685033e-05 0.056232179)
(0.00046442718 -2.4838957e-05 0.079052806)
(0.00071295246 -2.4890965e-05 0.10180121)
(0.0010021314 -2.3139473e-05 0.12416651)
(0.0013129194 -1.8789841e-05 0.14579531)
(0.001622076 -1.1670083e-05 0.16630173)
(0.0018988221 -2.0082562e-06 0.18528436)
(0.0021121036 8.7369996e-06 0.20235039)
(0.0022294471 1.8962162e-05 0.2171459)
(0.0022263444 2.715739e-05 0.22938988)
(0.0020900534 3.1177851e-05 0.23890837)
(0.0018241589 2.7976314e-05 0.24566353)
(0.0014448902 1.6000033e-05 0.24977235)
(0.0010010717 -1.1951678e-05 0.25150906)
(0.00054523014 -6.6755257e-05 0.25128652)
(0.0002203294 -5.208165e-05 0.24961784)
(-3.7555254e-05 -2.3327799e-05 0.24704955)
(-0.00039579356 -9.6527177e-05 0.24412529)
(-0.00069597521 -0.00018924681 0.24126394)
(-0.00093676193 -0.00028320453 0.23874417)
(-0.001123152 -0.00040541188 0.23669969)
(-0.001215097 -0.00052517767 0.23514234)
(-0.0012213498 -0.00063398114 0.2340093)
(-0.0011667857 -0.00072266783 0.23320122)
(-0.001073565 -0.0007879969 0.23261557)
(-0.00097906123 -0.00083252701 0.23217043)
(-0.00084056969 -0.00083015667 0.23180848)
(-0.00066256059 -0.00079976175 0.23149387)
(-0.00052126396 -0.00077814462 0.23121761)
(-0.00041538434 -0.00075309682 0.23097125)
(-0.00033974761 -0.00072694201 0.2307476)
(-0.00027826398 -0.00070210264 0.23052647)
(-0.00023028578 -0.00067698953 0.23030406)
(-0.00018989135 -0.0006528755 0.23007879)
(-0.00015427957 -0.00062903314 0.22984976)
(-0.00012854839 -0.00060368314 0.22961696)
(-0.00010008991 -0.00058216742 0.22937899)
(-7.6190265e-05 -0.00056043002 0.22913548)
(-5.3551341e-05 -0.0005387723 0.22888536)
(-3.4763414e-05 -0.00051549848 0.22862904)
(-1.3673925e-05 -0.00049295289 0.22836595)
(5.9878609e-06 -0.0004684287 0.22809676)
(2.7549243e-05 -0.00044293718 0.22782193)
(5.0263952e-05 -0.00041419975 0.22754304)
(7.3755125e-05 -0.00038569733 0.22726426)
(0.00011431678 -0.00034473855 0.22697921)
(0.00010695167 -0.00033213861 0.22673514)
(0.00029644949 -0.00022865836 0.2263827)
(9.2910443e-05 -1.406821e-05 0.011307832)
(0.00024828079 -4.008939e-05 0.03338887)
(0.00044880696 -4.2959275e-05 0.055888203)
(0.00069739046 -3.5580105e-05 0.078592004)
(0.00098168462 -2.0973352e-05 0.10123948)
(0.0012815504 -5.1070945e-06 0.12352203)
(0.0015574354 1.271383e-05 0.14508618)
(0.0017930341 3.0201887e-05 0.16554278)
(0.0019591263 4.5942754e-05 0.1844837)
(0.0020335507 5.9487808e-05 0.20150697)
(0.0019751737 7.9058869e-05 0.21624823)
(0.0017795983 9.5326981e-05 0.2284176)
(0.0014805067 9.0820031e-05 0.23783804)
(0.0010992493 6.7778656e-05 0.24447781)
(0.00066277148 3.3818011e-05 0.24846905)
(0.00024760838 8.5632338e-06 0.25010658)
(-6.2368551e-05 1.9511461e-05 0.24982274)
(-0.00033442216 -4.3261502e-05 0.2481461)
(-0.00059886967 -0.00022631535 0.24563401)
(-0.00080048299 -0.00040399589 0.24279864)
(-0.00090629448 -0.00056572833 0.24003713)
(-0.00090721343 -0.00070109246 0.23760663)
(-0.00082953731 -0.00079747343 0.23562978)
(-0.00070729121 -0.00085105662 0.23412242)
(-0.00056566219 -0.00086867754 0.23302596)
(-0.00043521587 -0.00086030125 0.23225208)
(-0.00029339918 -0.00081398811 0.23171124)
(-0.00013869374 -0.00073528941 0.23132524)
(-7.413564e-05 -0.00069189975 0.23103319)
(-7.1584327e-05 -0.00068938307 0.23079748)
(-6.5739211e-05 -0.0006796289 0.23057949)
(-5.6455313e-05 -0.0006656321 0.23036487)
(-4.4976697e-05 -0.00064920615 0.2301485)
(-3.3294849e-05 -0.00063116676 0.22992797)
(-2.2505695e-05 -0.00061177355 0.22970226)
(-1.2338707e-05 -0.00059152326 0.22947075)
(-3.4197214e-06 -0.00057028367 0.22923288)
(5.0735198e-06 -0.00054847921 0.22898818)
(1.358293e-05 -0.00052620476 0.22873634)
(2.2214642e-05 -0.00050298143 0.22847728)
(3.0379981e-05 -0.00047821961 0.2282112)
(3.8455396e-05 -0.00045191429 0.22793866)
(4.7342519e-05 -0.00042405913 0.22766087)
(5.612777e-05 -0.0003934887 0.2273798)
(6.5947409e-05 -0.00036030894 0.22709836)
(7.7261231e-05 -0.00032371061 0.2268208)
(9.0857994e-05 -0.00028300418 0.22655303)
(0.00010680815 -0.00023664586 0.22630336)
(0.00012585938 -0.00019247318 0.22608349)
(0.00018553391 -9.4440921e-05 0.22588327)