/*--------------------------------*- C++ -*----------------------------------*\
| =========                 |                                                 |
| \\      /  F ield         | OpenFOAM: The Open Source CFD Toolbox           |
|  \\    /   O peration     | Version:  4.0                                   |
|   \\  /    A nd           | Web:      www.OpenFOAM.org                      |
|    \\/     M anipulation  |                                                 |
\*---------------------------------------------------------------------------*/
FoamFile
{
    version     2.0;
    format      ascii;
    class       volScalarField;
    location    "4000/fluid";
    object      G;
}
// * * * * * * * * * * * * * * * * * * * * * * * * * * * * * * * * * * * * * //

dimensions      [1 0 -3 0 0 0 0];

internalField   nonuniform List<scalar> 
5000
(
1880.5382
1880.5383
1880.5384
1880.5386
1880.5387
1880.5388
1880.5389
1880.5391
1880.5392
1880.5394
1880.5396
1880.5397
1880.5399
1880.5401
1880.5403
1880.5405
1880.5408
1880.541
1880.5413
1880.5415
1880.5418
1880.5421
1880.5424
1880.5427
1880.543
1880.5433
1880.5436
1880.5438
1880.544
1880.5442
1880.5443
1880.5444
1880.5445
1880.5445
1880.5446
1880.5446
1880.5446
1880.5447
1880.5447
1880.5448
1880.5448
1880.5448
1880.5449
1880.5449
1880.545
1880.545
1880.545
1880.5451
1880.5451
1880.5452
1889.9359
1889.936
1889.936
1889.9361
1889.9363
1889.9364
1889.9365
1889.9366
1889.9368
1889.9369
1889.9371
1889.9372
1889.9374
1889.9376
1889.9378
1889.938
1889.9382
1889.9384
1889.9386
1889.9389
1889.9391
1889.9394
1889.9396
1889.9399
1889.9402
1889.9405
1889.9407
1889.9409
1889.9411
1889.9413
1889.9414
1889.9414
1889.9415
1889.9415
1889.9416
1889.9416
1889.9417
1889.9417
1889.9417
1889.9418
1889.9418
1889.9418
1889.9419
1889.9419
1889.9419
1889.942
1889.942
1889.9421
1889.9421
1889.9421
1898.0401
1898.0402
1898.0403
1898.0404
1898.0405
1898.0406
1898.0407
1898.0408
1898.0409
1898.041
1898.0412
1898.0413
1898.0415
1898.0416
1898.0418
1898.042
1898.0422
1898.0424
1898.0426
1898.0428
1898.043
1898.0433
1898.0435
1898.0438
1898.044
1898.0443
1898.0445
1898.0447
1898.0448
1898.045
1898.0451
1898.0451
1898.0452
1898.0452
1898.0453
1898.0453
1898.0453
1898.0454
1898.0454
1898.0454
1898.0454
1898.0455
1898.0455
1898.0455
1898.0456
1898.0456
1898.0456
1898.0457
1898.0457
1898.0457
1904.8808
1904.8809
1904.881
1904.8811
1904.8812
1904.8813
1904.8813
1904.8815
1904.8816
1904.8817
1904.8818
1904.8819
1904.8821
1904.8822
1904.8824
1904.8825
1904.8827
1904.8829
1904.8831
1904.8833
1904.8835
1904.8837
1904.8839
1904.8841
1904.8844
1904.8846
1904.8848
1904.885
1904.8851
1904.8852
1904.8853
1904.8854
1904.8854
1904.8854
1904.8855
1904.8855
1904.8855
1904.8856
1904.8856
1904.8856
1904.8856
1904.8857
1904.8857
1904.8857
1904.8858
1904.8858
1904.8858
1904.8858
1904.8859
1904.8859
1910.683
1910.6831
1910.6832
1910.6832
1910.6833
1910.6834
1910.6835
1910.6836
1910.6837
1910.6838
1910.6839
1910.684
1910.6842
1910.6843
1910.6844
1910.6846
1910.6848
1910.6849
1910.6851
1910.6853
1910.6854
1910.6856
1910.6858
1910.686
1910.6862
1910.6864
1910.6866
1910.6868
1910.6869
1910.687
1910.6871
1910.6871
1910.6872
1910.6872
1910.6872
1910.6873
1910.6873
1910.6873
1910.6873
1910.6874
1910.6874
1910.6874
1910.6874
1910.6875
1910.6875
1910.6875
1910.6875
1910.6876
1910.6876
1910.6876
1915.6162
1915.6163
1915.6163
1915.6164
1915.6165
1915.6165
1915.6166
1915.6167
1915.6168
1915.6169
1915.617
1915.6171
1915.6172
1915.6174
1915.6175
1915.6176
1915.6178
1915.6179
1915.6181
1915.6182
1915.6184
1915.6186
1915.6188
1915.619
1915.6191
1915.6193
1915.6195
1915.6196
1915.6197
1915.6198
1915.6199
1915.6199
1915.62
1915.62
1915.62
1915.6201
1915.6201
1915.6201
1915.6201
1915.6201
1915.6202
1915.6202
1915.6202
1915.6202
1915.6203
1915.6203
1915.6203
1915.6203
1915.6203
1915.6204
1919.8423
1919.8424
1919.8425
1919.8425
1919.8426
1919.8427
1919.8427
1919.8428
1919.8429
1919.843
1919.8431
1919.8432
1919.8433
1919.8434
1919.8435
1919.8437
1919.8438
1919.8439
1919.8441
1919.8442
1919.8444
1919.8445
1919.8447
1919.8449
1919.845
1919.8452
1919.8454
1919.8455
1919.8456
1919.8457
1919.8457
1919.8458
1919.8458
1919.8458
1919.8459
1919.8459
1919.8459
1919.8459
1919.846
1919.846
1919.846
1919.846
1919.846
1919.8461
1919.8461
1919.8461
1919.8461
1919.8461
1919.8462
1919.8462
1923.4869
1923.487
1923.487
1923.4871
1923.4871
1923.4872
1923.4873
1923.4874
1923.4874
1923.4875
1923.4876
1923.4877
1923.4878
1923.4879
1923.488
1923.4881
1923.4883
1923.4884
1923.4885
1923.4887
1923.4888
1923.489
1923.4891
1923.4893
1923.4894
1923.4896
1923.4897
1923.4898
1923.4899
1923.49
1923.4901
1923.4901
1923.4901
1923.4902
1923.4902
1923.4902
1923.4902
1923.4902
1923.4903
1923.4903
1923.4903
1923.4903
1923.4903
1923.4904
1923.4904
1923.4904
1923.4904
1923.4904
1923.4905
1923.4905
1926.6596
1926.6596
1926.6597
1926.6597
1926.6598
1926.6598
1926.6599
1926.66
1926.6601
1926.6601
1926.6602
1926.6603
1926.6604
1926.6605
1926.6606
1926.6607
1926.6608
1926.661
1926.6611
1926.6612
1926.6613
1926.6615
1926.6616
1926.6618
1926.6619
1926.6621
1926.6622
1926.6623
1926.6624
1926.6625
1926.6625
1926.6626
1926.6626
1926.6626
1926.6626
1926.6627
1926.6627
1926.6627
1926.6627
1926.6627
1926.6628
1926.6628
1926.6628
1926.6628
1926.6628
1926.6628
1926.6629
1926.6629
1926.6629
1926.6629
1929.4445
1929.4446
1929.4446
1929.4447
1929.4447
1929.4448
1929.4449
1929.4449
1929.445
1929.4451
1929.4451
1929.4452
1929.4453
1929.4454
1929.4455
1929.4456
1929.4457
1929.4458
1929.446
1929.4461
1929.4462
1929.4463
1929.4465
1929.4466
1929.4468
1929.4469
1929.447
1929.4471
1929.4472
1929.4473
1929.4473
1929.4474
1929.4474
1929.4474
1929.4474
1929.4475
1929.4475
1929.4475
1929.4475
1929.4475
1929.4475
1929.4476
1929.4476
1929.4476
1929.4476
1929.4476
1929.4477
1929.4477
1929.4477
1929.4477
1931.9118
1931.9118
1931.9119
1931.9119
1931.912
1931.912
1931.9121
1931.9122
1931.9122
1931.9123
1931.9124
1931.9125
1931.9126
1931.9126
1931.9127
1931.9128
1931.9129
1931.913
1931.9132
1931.9133
1931.9134
1931.9135
1931.9137
1931.9138
1931.9139
1931.9141
1931.9142
1931.9143
1931.9144
1931.9144
1931.9145
1931.9145
1931.9145
1931.9146
1931.9146
1931.9146
1931.9146
1931.9146
1931.9147
1931.9147
1931.9147
1931.9147
1931.9147
1931.9148
1931.9148
1931.9148
1931.9148
1931.9148
1931.9148
1931.9149
1934.1155
1934.1155
1934.1156
1934.1156
1934.1157
1934.1157
1934.1158
1934.1158
1934.1159
1934.116
1934.1161
1934.1161
1934.1162
1934.1163
1934.1164
1934.1165
1934.1166
1934.1167
1934.1168
1934.1169
1934.117
1934.1171
1934.1173
1934.1174
1934.1175
1934.1177
1934.1178
1934.1179
1934.118
1934.118
1934.1181
1934.1181
1934.1182
1934.1182
1934.1182
1934.1182
1934.1182
1934.1183
1934.1183
1934.1183
1934.1183
1934.1183
1934.1183
1934.1184
1934.1184
1934.1184
1934.1184
1934.1184
1934.1185
1934.1185
1936.0998
1936.0999
1936.0999
1936.0999
1936.1
1936.1
1936.1001
1936.1002
1936.1002
1936.1003
1936.1004
1936.1004
1936.1005
1936.1006
1936.1007
1936.1008
1936.1009
1936.101
1936.1011
1936.1012
1936.1013
1936.1014
1936.1015
1936.1017
1936.1018
1936.1019
1936.102
1936.1022
1936.1022
1936.1023
1936.1024
1936.1024
1936.1024
1936.1025
1936.1025
1936.1025
1936.1025
1936.1025
1936.1025
1936.1026
1936.1026
1936.1026
1936.1026
1936.1026
1936.1027
1936.1027
1936.1027
1936.1027
1936.1027
1936.1028
1937.8995
1937.8995
1937.8996
1937.8996
1937.8997
1937.8997
1937.8998
1937.8998
1937.8999
1937.8999
1937.9
1937.9001
1937.9002
1937.9002
1937.9003
1937.9004
1937.9005
1937.9006
1937.9007
1937.9008
1937.9009
1937.901
1937.9012
1937.9013
1937.9014
1937.9016
1937.9017
1937.9018
1937.9019
1937.9019
1937.902
1937.902
1937.9021
1937.9021
1937.9021
1937.9021
1937.9022
1937.9022
1937.9022
1937.9022
1937.9022
1937.9023
1937.9023
1937.9023
1937.9023
1937.9023
1937.9024
1937.9024
1937.9024
1937.9024
1939.5428
1939.5428
1939.5429
1939.5429
1939.543
1939.543
1939.5431
1939.5431
1939.5432
1939.5433
1939.5433
1939.5434
1939.5435
1939.5435
1939.5436
1939.5437
1939.5438
1939.5439
1939.544
1939.5441
1939.5442
1939.5443
1939.5445
1939.5446
1939.5447
1939.5449
1939.545
1939.5451
1939.5452
1939.5453
1939.5453
1939.5454
1939.5454
1939.5454
1939.5455
1939.5455
1939.5455
1939.5455
1939.5456
1939.5456
1939.5456
1939.5456
1939.5456
1939.5457
1939.5457
1939.5457
1939.5457
1939.5458
1939.5458
1939.5458
1941.0525
1941.0525
1941.0525
1941.0526
1941.0526
1941.0527
1941.0527
1941.0528
1941.0528
1941.0529
1941.053
1941.053
1941.0531
1941.0532
1941.0533
1941.0534
1941.0534
1941.0535
1941.0536
1941.0538
1941.0539
1941.054
1941.0541
1941.0543
1941.0544
1941.0545
1941.0547
1941.0548
1941.0549
1941.055
1941.055
1941.0551
1941.0551
1941.0551
1941.0552
1941.0552
1941.0552
1941.0552
1941.0553
1941.0553
1941.0553
1941.0553
1941.0554
1941.0554
1941.0554
1941.0554
1941.0555
1941.0555
1941.0555
1941.0555
1942.4471
1942.4471
1942.4471
1942.4472
1942.4472
1942.4473
1942.4473
1942.4474
1942.4474
1942.4475
1942.4476
1942.4476
1942.4477
1942.4478
1942.4479
1942.4479
1942.448
1942.4481
1942.4482
1942.4483
1942.4485
1942.4486
1942.4487
1942.4489
1942.449
1942.4492
1942.4493
1942.4494
1942.4495
1942.4496
1942.4497
1942.4497
1942.4498
1942.4498
1942.4498
1942.4499
1942.4499
1942.4499
1942.4499
1942.45
1942.45
1942.45
1942.45
1942.4501
1942.4501
1942.4501
1942.4502
1942.4502
1942.4502
1942.4503
1943.7418
1943.7418
1943.7418
1943.7419
1943.7419
1943.742
1943.742
1943.7421
1943.7421
1943.7422
1943.7423
1943.7423
1943.7424
1943.7425
1943.7426
1943.7426
1943.7427
1943.7428
1943.7429
1943.7431
1943.7432
1943.7433
1943.7435
1943.7436
1943.7438
1943.7439
1943.7441
1943.7442
1943.7443
1943.7444
1943.7445
1943.7446
1943.7446
1943.7446
1943.7447
1943.7447
1943.7447
1943.7447
1943.7448
1943.7448
1943.7448
1943.7449
1943.7449
1943.7449
1943.7449
1943.745
1943.745
1943.745
1943.7451
1943.7451
1944.9492
1944.9492
1944.9493
1944.9493
1944.9494
1944.9494
1944.9495
1944.9495
1944.9496
1944.9496
1944.9497
1944.9498
1944.9498
1944.9499
1944.95
1944.9501
1944.9502
1944.9503
1944.9504
1944.9505
1944.9506
1944.9508
1944.9509
1944.9511
1944.9513
1944.9514
1944.9516
1944.9518
1944.9519
1944.952
1944.9521
1944.9521
1944.9522
1944.9522
1944.9522
1944.9523
1944.9523
1944.9523
1944.9524
1944.9524
1944.9524
1944.9524
1944.9525
1944.9525
1944.9525
1944.9526
1944.9526
1944.9527
1944.9527
1944.9527
1946.0798
1946.0798
1946.0799
1946.0799
1946.08
1946.08
1946.0801
1946.0801
1946.0802
1946.0802
1946.0803
1946.0804
1946.0804
1946.0805
1946.0806
1946.0807
1946.0808
1946.0809
1946.081
1946.0811
1946.0813
1946.0814
1946.0816
1946.0818
1946.0819
1946.0821
1946.0823
1946.0825
1946.0826
1946.0827
1946.0828
1946.0829
1946.0829
1946.083
1946.083
1946.083
1946.0831
1946.0831
1946.0831
1946.0832
1946.0832
1946.0832
1946.0833
1946.0833
1946.0834
1946.0834
1946.0834
1946.0835
1946.0835
1946.0836
1947.1424
1947.1424
1947.1424
1947.1425
1947.1425
1947.1426
1947.1426
1947.1427
1947.1427
1947.1428
1947.1429
1947.1429
1947.143
1947.1431
1947.1432
1947.1433
1947.1434
1947.1435
1947.1436
1947.1437
1947.1439
1947.144
1947.1442
1947.1444
1947.1446
1947.1448
1947.145
1947.1452
1947.1453
1947.1455
1947.1456
1947.1456
1947.1457
1947.1457
1947.1458
1947.1458
1947.1458
1947.1459
1947.1459
1947.146
1947.146
1947.146
1947.1461
1947.1461
1947.1462
1947.1462
1947.1462
1947.1463
1947.1463
1947.1464
1948.1443
1948.1444
1948.1444
1948.1444
1948.1445
1948.1445
1948.1446
1948.1446
1948.1447
1948.1447
1948.1448
1948.1449
1948.145
1948.1451
1948.1451
1948.1452
1948.1454
1948.1455
1948.1456
1948.1457
1948.1459
1948.1461
1948.1462
1948.1465
1948.1467
1948.1469
1948.1471
1948.1473
1948.1475
1948.1476
1948.1477
1948.1478
1948.1478
1948.1479
1948.1479
1948.148
1948.148
1948.1481
1948.1481
1948.1482
1948.1482
1948.1482
1948.1483
1948.1483
1948.1484
1948.1484
1948.1485
1948.1485
1948.1486
1948.1486
1949.0919
1949.092
1949.092
1949.0921
1949.0921
1949.0922
1949.0922
1949.0923
1949.0923
1949.0924
1949.0925
1949.0925
1949.0926
1949.0927
1949.0928
1949.0929
1949.093
1949.0931
1949.0933
1949.0934
1949.0936
1949.0938
1949.094
1949.0942
1949.0944
1949.0947
1949.0949
1949.0951
1949.0953
1949.0955
1949.0956
1949.0957
1949.0957
1949.0958
1949.0958
1949.0959
1949.0959
1949.096
1949.096
1949.0961
1949.0961
1949.0962
1949.0962
1949.0963
1949.0963
1949.0964
1949.0964
1949.0965
1949.0965
1949.0966
1949.9906
1949.9907
1949.9907
1949.9908
1949.9908
1949.9909
1949.9909
1949.991
1949.991
1949.9911
1949.9912
1949.9913
1949.9913
1949.9914
1949.9915
1949.9916
1949.9918
1949.9919
1949.992
1949.9922
1949.9924
1949.9926
1949.9928
1949.993
1949.9933
1949.9936
1949.9938
1949.9941
1949.9943
1949.9944
1949.9945
1949.9946
1949.9947
1949.9948
1949.9948
1949.9949
1949.9949
1949.995
1949.995
1949.9951
1949.9951
1949.9952
1949.9952
1949.9953
1949.9954
1949.9954
1949.9955
1949.9955
1949.9956
1949.9957
1950.8451
1950.8451
1950.8452
1950.8452
1950.8453
1950.8453
1950.8454
1950.8454
1950.8455
1950.8456
1950.8456
1950.8457
1950.8458
1950.8459
1950.846
1950.8461
1950.8463
1950.8464
1950.8466
1950.8467
1950.8469
1950.8471
1950.8474
1950.8476
1950.8479
1950.8482
1950.8485
1950.8487
1950.849
1950.8491
1950.8493
1950.8494
1950.8495
1950.8495
1950.8496
1950.8496
1950.8497
1950.8498
1950.8498
1950.8499
1950.8499
1950.85
1950.85
1950.8501
1950.8502
1950.8502
1950.8503
1950.8504
1950.8504
1950.8505
1951.6593
1951.6593
1951.6594
1951.6594
1951.6595
1951.6595
1951.6596
1951.6596
1951.6597
1951.6598
1951.6599
1951.6599
1951.66
1951.6601
1951.6603
1951.6604
1951.6605
1951.6607
1951.6608
1951.661
1951.6612
1951.6615
1951.6617
1951.662
1951.6623
1951.6626
1951.6629
1951.6632
1951.6634
1951.6636
1951.6638
1951.6639
1951.664
1951.6641
1951.6641
1951.6642
1951.6643
1951.6643
1951.6644
1951.6644
1951.6645
1951.6646
1951.6646
1951.6647
1951.6648
1951.6648
1951.6649
1951.665
1951.665
1951.6652
1952.4368
1952.4368
1952.4369
1952.4369
1952.437
1952.437
1952.4371
1952.4371
1952.4372
1952.4373
1952.4374
1952.4374
1952.4375
1952.4377
1952.4378
1952.4379
1952.4381
1952.4382
1952.4384
1952.4386
1952.4388
1952.4391
1952.4393
1952.4397
1952.44
1952.4403
1952.4407
1952.441
1952.4412
1952.4414
1952.4416
1952.4417
1952.4418
1952.4419
1952.442
1952.4421
1952.4421
1952.4422
1952.4423
1952.4423
1952.4424
1952.4425
1952.4425
1952.4426
1952.4427
1952.4428
1952.4428
1952.4429
1952.443
1952.4431
1953.1806
1953.1806
1953.1807
1953.1807
1953.1808
1953.1808
1953.1809
1953.181
1953.181
1953.1811
1953.1812
1953.1813
1953.1814
1953.1815
1953.1817
1953.1818
1953.182
1953.1821
1953.1823
1953.1825
1953.1828
1953.183
1953.1833
1953.1837
1953.1841
1953.1844
1953.1848
1953.1851
1953.1854
1953.1856
1953.1858
1953.1859
1953.1861
1953.1861
1953.1862
1953.1863
1953.1864
1953.1864
1953.1865
1953.1866
1953.1867
1953.1867
1953.1868
1953.1869
1953.187
1953.1871
1953.1871
1953.1872
1953.1873
1953.1874
1953.8935
1953.8935
1953.8936
1953.8936
1953.8937
1953.8937
1953.8938
1953.8939
1953.8939
1953.894
1953.8941
1953.8942
1953.8943
1953.8945
1953.8946
1953.8947
1953.8949
1953.8951
1953.8953
1953.8955
1953.8958
1953.8961
1953.8964
1953.8968
1953.8972
1953.8976
1953.898
1953.8983
1953.8986
1953.8989
1953.8991
1953.8992
1953.8994
1953.8995
1953.8995
1953.8996
1953.8997
1953.8998
1953.8999
1953.8999
1953.9
1953.9001
1953.9002
1953.9003
1953.9004
1953.9004
1953.9005
1953.9006
1953.9007
1953.9009
1954.5778
1954.5779
1954.5779
1954.578
1954.578
1954.5781
1954.5781
1954.5782
1954.5783
1954.5784
1954.5785
1954.5786
1954.5787
1954.5788
1954.579
1954.5792
1954.5793
1954.5795
1954.5798
1954.58
1954.5803
1954.5806
1954.581
1954.5814
1954.5818
1954.5822
1954.5827
1954.583
1954.5834
1954.5836
1954.5838
1954.584
1954.5841
1954.5842
1954.5843
1954.5844
1954.5845
1954.5846
1954.5847
1954.5848
1954.5849
1954.5849
1954.585
1954.5851
1954.5852
1954.5853
1954.5854
1954.5855
1954.5856
1954.5858
1955.2357
1955.2358
1955.2358
1955.2359
1955.2359
1955.236
1955.2361
1955.2362
1955.2362
1955.2363
1955.2364
1955.2366
1955.2367
1955.2368
1955.237
1955.2372
1955.2374
1955.2376
1955.2378
1955.2381
1955.2384
1955.2387
1955.2391
1955.2395
1955.24
1955.2405
1955.2409
1955.2413
1955.2417
1955.242
1955.2422
1955.2424
1955.2425
1955.2426
1955.2428
1955.2428
1955.2429
1955.243
1955.2431
1955.2432
1955.2433
1955.2434
1955.2435
1955.2436
1955.2437
1955.2438
1955.2439
1955.244
1955.2441
1955.2443
1955.8691
1955.8692
1955.8692
1955.8693
1955.8694
1955.8694
1955.8695
1955.8696
1955.8697
1955.8698
1955.8699
1955.87
1955.8702
1955.8703
1955.8705
1955.8707
1955.8709
1955.8711
1955.8713
1955.8716
1955.872
1955.8723
1955.8727
1955.8732
1955.8737
1955.8742
1955.8747
1955.8752
1955.8755
1955.8759
1955.8761
1955.8763
1955.8764
1955.8766
1955.8767
1955.8768
1955.8769
1955.877
1955.8771
1955.8772
1955.8773
1955.8774
1955.8775
1955.8776
1955.8777
1955.8778
1955.8779
1955.8781
1955.8782
1955.8784
1956.4797
1956.4798
1956.4799
1956.4799
1956.48
1956.4801
1956.4801
1956.4802
1956.4803
1956.4804
1956.4805
1956.4807
1956.4808
1956.481
1956.4812
1956.4814
1956.4816
1956.4818
1956.4821
1956.4824
1956.4827
1956.4831
1956.4836
1956.4841
1956.4846
1956.4852
1956.4857
1956.4862
1956.4866
1956.4869
1956.4872
1956.4874
1956.4876
1956.4877
1956.4878
1956.4879
1956.488
1956.4881
1956.4883
1956.4884
1956.4885
1956.4886
1956.4887
1956.4888
1956.4889
1956.4891
1956.4892
1956.4893
1956.4894
1956.4896
1957.0691
1957.0691
1957.0692
1957.0692
1957.0693
1957.0694
1957.0695
1957.0696
1957.0697
1957.0698
1957.0699
1957.0701
1957.0702
1957.0704
1957.0706
1957.0708
1957.071
1957.0713
1957.0716
1957.0719
1957.0723
1957.0727
1957.0732
1957.0737
1957.0743
1957.0749
1957.0755
1957.076
1957.0764
1957.0768
1957.0771
1957.0773
1957.0775
1957.0776
1957.0777
1957.0778
1957.078
1957.0781
1957.0782
1957.0783
1957.0784
1957.0785
1957.0787
1957.0788
1957.0789
1957.079
1957.0792
1957.0793
1957.0794
1957.0797
1957.6385
1957.6386
1957.6386
1957.6387
1957.6388
1957.6389
1957.6389
1957.639
1957.6391
1957.6393
1957.6394
1957.6395
1957.6397
1957.6399
1957.6401
1957.6403
1957.6406
1957.6409
1957.6412
1957.6415
1957.6419
1957.6424
1957.6429
1957.6435
1957.6441
1957.6447
1957.6453
1957.6459
1957.6464
1957.6467
1957.647
1957.6473
1957.6475
1957.6476
1957.6478
1957.6479
1957.648
1957.6481
1957.6483
1957.6484
1957.6485
1957.6486
1957.6488
1957.6489
1957.649
1957.6492
1957.6493
1957.6495
1957.6496
1957.6498
1958.1893
1958.1894
1958.1894
1958.1895
1958.1896
1958.1897
1958.1898
1958.1899
1958.19
1958.1901
1958.1903
1958.1904
1958.1906
1958.1908
1958.191
1958.1912
1958.1915
1958.1918
1958.1921
1958.1925
1958.1929
1958.1934
1958.194
1958.1946
1958.1953
1958.1959
1958.1966
1958.1972
1958.1977
1958.1981
1958.1984
1958.1987
1958.1989
1958.199
1958.1992
1958.1993
1958.1995
1958.1996
1958.1997
1958.1999
1958.2
1958.2001
1958.2003
1958.2004
1958.2005
1958.2007
1958.2008
1958.201
1958.2011
1958.2014
1958.7226
1958.7227
1958.7228
1958.7228
1958.7229
1958.723
1958.7231
1958.7232
1958.7233
1958.7235
1958.7236
1958.7238
1958.724
1958.7242
1958.7244
1958.7247
1958.725
1958.7253
1958.7256
1958.726
1958.7265
1958.727
1958.7276
1958.7282
1958.7289
1958.7297
1958.7304
1958.731
1958.7316
1958.732
1958.7323
1958.7326
1958.7328
1958.733
1958.7331
1958.7333
1958.7334
1958.7336
1958.7337
1958.7339
1958.734
1958.7341
1958.7343
1958.7344
1958.7346
1958.7348
1958.7349
1958.7351
1958.7352
1958.7355
1959.2395
1959.2395
1959.2396
1959.2397
1959.2398
1959.2399
1959.24
1959.2401
1959.2402
1959.2404
1959.2405
1959.2407
1959.2409
1959.2411
1959.2414
1959.2416
1959.242
1959.2423
1959.2427
1959.2431
1959.2436
1959.2441
1959.2448
1959.2455
1959.2462
1959.247
1959.2477
1959.2484
1959.249
1959.2494
1959.2498
1959.2501
1959.2503
1959.2505
1959.2507
1959.2508
1959.251
1959.2511
1959.2513
1959.2514
1959.2516
1959.2517
1959.2519
1959.252
1959.2522
1959.2524
1959.2525
1959.2527
1959.2529
1959.2532
1959.7408
1959.7409
1959.741
1959.741
1959.7411
1959.7412
1959.7414
1959.7415
1959.7416
1959.7418
1959.7419
1959.7421
1959.7423
1959.7426
1959.7428
1959.7431
1959.7434
1959.7438
1959.7442
1959.7447
1959.7452
1959.7458
1959.7464
1959.7472
1959.748
1959.7488
1959.7496
1959.7503
1959.7509
1959.7514
1959.7518
1959.7521
1959.7523
1959.7525
1959.7527
1959.7529
1959.753
1959.7532
1959.7534
1959.7535
1959.7537
1959.7538
1959.754
1959.7542
1959.7544
1959.7545
1959.7547
1959.7549
1959.755
1959.7554
1960.2275
1960.2276
1960.2277
1960.2278
1960.2279
1960.228
1960.2281
1960.2282
1960.2284
1960.2285
1960.2287
1960.2289
1960.2291
1960.2294
1960.2297
1960.23
1960.2303
1960.2307
1960.2311
1960.2316
1960.2322
1960.2328
1960.2335
1960.2343
1960.2351
1960.236
1960.2368
1960.2376
1960.2382
1960.2388
1960.2392
1960.2395
1960.2398
1960.24
1960.2401
1960.2403
1960.2405
1960.2407
1960.2408
1960.241
1960.2412
1960.2413
1960.2415
1960.2417
1960.2419
1960.2421
1960.2423
1960.2425
1960.2426
1960.2429
1960.7004
1960.7005
1960.7006
1960.7007
1960.7008
1960.7009
1960.701
1960.7011
1960.7013
1960.7015
1960.7016
1960.7019
1960.7021
1960.7024
1960.7027
1960.703
1960.7033
1960.7038
1960.7042
1960.7047
1960.7053
1960.706
1960.7067
1960.7075
1960.7084
1960.7094
1960.7103
1960.7111
1960.7117
1960.7123
1960.7127
1960.7131
1960.7133
1960.7136
1960.7138
1960.7139
1960.7141
1960.7143
1960.7145
1960.7147
1960.7148
1960.715
1960.7152
1960.7154
1960.7156
1960.7158
1960.716
1960.7162
1960.7164
1960.7167
1961.1601
1961.1602
1961.1603
1961.1604
1961.1605
1961.1607
1961.1608
1961.1609
1961.1611
1961.1613
1961.1615
1961.1617
1961.162
1961.1622
1961.1626
1961.1629
1961.1633
1961.1637
1961.1642
1961.1648
1961.1654
1961.1661
1961.1668
1961.1677
1961.1687
1961.1697
1961.1706
1961.1714
1961.1722
1961.1728
1961.1732
1961.1736
1961.1739
1961.1741
1961.1743
1961.1745
1961.1747
1961.1749
1961.1751
1961.1752
1961.1754
1961.1756
1961.1758
1961.176
1961.1762
1961.1764
1961.1766
1961.1769
1961.177
1961.1774
1961.6075
1961.6076
1961.6077
1961.6078
1961.6079
1961.608
1961.6082
1961.6083
1961.6085
1961.6087
1961.6089
1961.6091
1961.6094
1961.6097
1961.61
1961.6104
1961.6108
1961.6113
1961.6118
1961.6124
1961.613
1961.6137
1961.6146
1961.6155
1961.6165
1961.6175
1961.6185
1961.6194
1961.6202
1961.6208
1961.6213
1961.6217
1961.622
1961.6222
1961.6224
1961.6226
1961.6228
1961.623
1961.6232
1961.6234
1961.6236
1961.6238
1961.624
1961.6243
1961.6245
1961.6247
1961.6249
1961.6251
1961.6253
1961.6257
1962.043
1962.0431
1962.0432
1962.0434
1962.0435
1962.0436
1962.0438
1962.0439
1962.0441
1962.0443
1962.0445
1962.0448
1962.0451
1962.0454
1962.0457
1962.0461
1962.0465
1962.047
1962.0476
1962.0482
1962.0489
1962.0496
1962.0505
1962.0515
1962.0526
1962.0536
1962.0547
1962.0556
1962.0564
1962.0571
1962.0576
1962.058
1962.0583
1962.0586
1962.0588
1962.059
1962.0592
1962.0594
1962.0596
1962.0598
1962.0601
1962.0603
1962.0605
1962.0607
1962.0609
1962.0612
1962.0614
1962.0616
1962.0618
1962.0622
1962.4674
1962.4675
1962.4676
1962.4677
1962.4678
1962.468
1962.4681
1962.4683
1962.4685
1962.4687
1962.469
1962.4692
1962.4695
1962.4698
1962.4702
1962.4706
1962.4711
1962.4716
1962.4722
1962.4728
1962.4735
1962.4743
1962.4753
1962.4763
1962.4774
1962.4786
1962.4797
1962.4806
1962.4815
1962.4822
1962.4827
1962.4831
1962.4835
1962.4837
1962.484
1962.4842
1962.4844
1962.4846
1962.4848
1962.4851
1962.4853
1962.4855
1962.4857
1962.486
1962.4862
1962.4865
1962.4867
1962.487
1962.4872
1962.4876
1962.881
1962.8811
1962.8813
1962.8814
1962.8815
1962.8817
1962.8818
1962.882
1962.8822
1962.8824
1962.8827
1962.883
1962.8833
1962.8836
1962.884
1962.8845
1962.8849
1962.8855
1962.8861
1962.8868
1962.8875
1962.8884
1962.8893
1962.8904
1962.8916
1962.8928
1962.894
1962.895
1962.8959
1962.8966
1962.8972
1962.8976
1962.898
1962.8982
1962.8985
1962.8987
1962.899
1962.8992
1962.8994
1962.8996
1962.8999
1962.9001
1962.9004
1962.9006
1962.9008
1962.9011
1962.9014
1962.9016
1962.9018
1962.9023
1963.2845
1963.2846
1963.2848
1963.2849
1963.285
1963.2852
1963.2854
1963.2856
1963.2858
1963.286
1963.2863
1963.2866
1963.2869
1963.2873
1963.2877
1963.2881
1963.2886
1963.2892
1963.2898
1963.2905
1963.2913
1963.2923
1963.2933
1963.2944
1963.2956
1963.2969
1963.2981
1963.2992
1963.3001
1963.3009
1963.3015
1963.3019
1963.3023
1963.3026
1963.3029
1963.3031
1963.3034
1963.3036
1963.3038
1963.3041
1963.3043
1963.3046
1963.3048
1963.3051
1963.3053
1963.3056
1963.3059
1963.3061
1963.3064
1963.3068
1963.6783
1963.6784
1963.6786
1963.6787
1963.6789
1963.679
1963.6792
1963.6794
1963.6796
1963.6799
1963.6802
1963.6805
1963.6808
1963.6812
1963.6816
1963.6821
1963.6826
1963.6832
1963.6839
1963.6846
1963.6855
1963.6864
1963.6875
1963.6887
1963.69
1963.6913
1963.6926
1963.6937
1963.6947
1963.6955
1963.6961
1963.6966
1963.697
1963.6973
1963.6976
1963.6978
1963.6981
1963.6983
1963.6986
1963.6988
1963.6991
1963.6993
1963.6996
1963.6999
1963.7001
1963.7004
1963.7007
1963.701
1963.7012
1963.7017
1964.0628
1964.063
1964.0631
1964.0633
1964.0634
1964.0636
1964.0638
1964.064
1964.0642
1964.0645
1964.0648
1964.0651
1964.0655
1964.0659
1964.0663
1964.0668
1964.0674
1964.068
1964.0687
1964.0695
1964.0704
1964.0714
1964.0725
1964.0737
1964.0751
1964.0765
1964.0778
1964.079
1964.08
1964.0808
1964.0815
1964.082
1964.0824
1964.0827
1964.083
1964.0833
1964.0835
1964.0838
1964.0841
1964.0843
1964.0846
1964.0849
1964.0851
1964.0854
1964.0857
1964.086
1964.0863
1964.0866
1964.0868
1964.0873
1964.4385
1964.4386
1964.4388
1964.4389
1964.4391
1964.4393
1964.4395
1964.4397
1964.44
1964.4402
1964.4405
1964.4409
1964.4413
1964.4417
1964.4422
1964.4427
1964.4433
1964.4439
1964.4447
1964.4455
1964.4464
1964.4474
1964.4486
1964.4499
1964.4513
1964.4528
1964.4542
1964.4554
1964.4565
1964.4574
1964.458
1964.4586
1964.459
1964.4593
1964.4596
1964.4599
1964.4602
1964.4604
1964.4607
1964.461
1964.4613
1964.4615
1964.4618
1964.4621
1964.4624
1964.4627
1964.463
1964.4633
1964.4636
1964.4641
1964.8057
1964.8058
1964.806
1964.8062
1964.8063
1964.8065
1964.8067
1964.807
1964.8072
1964.8075
1964.8078
1964.8082
1964.8086
1964.809
1964.8095
1964.8101
1964.8107
1964.8114
1964.8122
1964.813
1964.814
1964.8151
1964.8163
1964.8177
1964.8191
1964.8206
1964.8221
1964.8234
1964.8245
1964.8254
1964.8261
1964.8267
1964.8271
1964.8275
1964.8278
1964.8281
1964.8283
1964.8286
1964.8289
1964.8292
1964.8295
1964.8298
1964.8301
1964.8304
1964.8307
1964.831
1964.8313
1964.8316
1964.8319
1964.8325
1965.1648
1965.1649
1965.1651
1965.1653
1965.1654
1965.1656
1965.1659
1965.1661
1965.1664
1965.1667
1965.167
1965.1674
1965.1678
1965.1683
1965.1688
1965.1694
1965.17
1965.1707
1965.1715
1965.1724
1965.1734
1965.1746
1965.1759
1965.1773
1965.1788
1965.1804
1965.1819
1965.1833
1965.1844
1965.1854
1965.1861
1965.1867
1965.1871
1965.1875
1965.1878
1965.1881
1965.1884
1965.1887
1965.189
1965.1893
1965.1896
1965.1899
1965.1902
1965.1905
1965.1908
1965.1912
1965.1915
1965.1919
1965.1921
1965.1927
1965.5161
1965.5162
1965.5164
1965.5166
1965.5168
1965.517
1965.5172
1965.5175
1965.5177
1965.5181
1965.5184
1965.5188
1965.5192
1965.5197
1965.5203
1965.5209
1965.5216
1965.5223
1965.5231
1965.5241
1965.5251
1965.5263
1965.5277
1965.5291
1965.5307
1965.5324
1965.534
1965.5354
1965.5366
1965.5376
1965.5383
1965.5389
1965.5394
1965.5398
1965.5401
1965.5404
1965.5407
1965.541
1965.5413
1965.5416
1965.542
1965.5423
1965.5426
1965.5429
1965.5433
1965.5436
1965.5439
1965.5443
1965.5446
1965.5452
1965.8599
1965.8601
1965.8602
1965.8604
1965.8606
1965.8608
1965.8611
1965.8613
1965.8616
1965.862
1965.8624
1965.8628
1965.8632
1965.8637
1965.8643
1965.8649
1965.8656
1965.8664
1965.8673
1965.8683
1965.8694
1965.8706
1965.872
1965.8736
1965.8752
1965.8769
1965.8786
1965.88
1965.8813
1965.8823
1965.8831
1965.8837
1965.8842
1965.8846
1965.885
1965.8853
1965.8856
1965.8859
1965.8862
1965.8866
1965.8869
1965.8872
1965.8875
1965.8879
1965.8882
1965.8886
1965.8889
1965.8893
1965.8896
1965.8902
1966.1966
1966.1967
1966.1969
1966.1971
1966.1973
1966.1976
1966.1978
1966.1981
1966.1984
1966.1987
1966.1991
1966.1996
1966.2
1966.2006
1966.2012
1966.2018
1966.2026
1966.2034
1966.2043
1966.2053
1966.2065
1966.2077
1966.2092
1966.2108
1966.2125
1966.2143
1966.216
1966.2175
1966.2188
1966.2199
1966.2207
1966.2214
1966.2219
1966.2223
1966.2227
1966.223
1966.2233
1966.2236
1966.224
1966.2243
1966.2246
1966.225
1966.2253
1966.2257
1966.226
1966.2264
1966.2268
1966.2272
1966.2275
1966.2281
1966.5263
1966.5265
1966.5267
1966.5269
1966.5271
1966.5274
1966.5276
1966.5279
1966.5282
1966.5286
1966.529
1966.5295
1966.53
1966.5305
1966.5311
1966.5318
1966.5326
1966.5335
1966.5344
1966.5355
1966.5367
1966.538
1966.5395
1966.5412
1966.543
1966.5448
1966.5466
1966.5482
1966.5495
1966.5506
1966.5515
1966.5521
1966.5527
1966.5531
1966.5535
1966.5538
1966.5542
1966.5545
1966.5549
1966.5552
1966.5555
1966.5559
1966.5563
1966.5566
1966.557
1966.5574
1966.5578
1966.5582
1966.5585
1966.5592
1966.8495
1966.8497
1966.8499
1966.8501
1966.8503
1966.8506
1966.8509
1966.8512
1966.8515
1966.8519
1966.8523
1966.8528
1966.8533
1966.8539
1966.8545
1966.8552
1966.856
1966.8569
1966.8579
1966.859
1966.8602
1966.8616
1966.8632
1966.8649
1966.8668
1966.8687
1966.8706
1966.8722
1966.8736
1966.8747
1966.8756
1966.8763
1966.8769
1966.8773
1966.8777
1966.8781
1966.8784
1966.8788
1966.8791
1966.8795
1966.8798
1966.8802
1966.8806
1966.881
1966.8813
1966.8817
1966.8821
1966.8825
1966.8829
1966.8836
1967.1663
1967.1665
1967.1667
1967.1669
1967.1672
1967.1674
1967.1677
1967.168
1967.1684
1967.1688
1967.1692
1967.1697
1967.1702
1967.1708
1967.1715
1967.1723
1967.1731
1967.174
1967.175
1967.1762
1967.1775
1967.1789
1967.1805
1967.1824
1967.1843
1967.1863
1967.1882
1967.1899
1967.1913
1967.1925
1967.1934
1967.1941
1967.1947
1967.1952
1967.1956
1967.196
1967.1963
1967.1967
1967.197
1967.1974
1967.1978
1967.1982
1967.1986
1967.1989
1967.1993
1967.1997
1967.2002
1967.2006
1967.2009
1967.2016
1967.4769
1967.4771
1967.4774
1967.4776
1967.4778
1967.4781
1967.4784
1967.4787
1967.4791
1967.4795
1967.48
1967.4805
1967.4811
1967.4817
1967.4824
1967.4832
1967.484
1967.485
1967.486
1967.4872
1967.4886
1967.4901
1967.4918
1967.4936
1967.4956
1967.4977
1967.4997
1967.5014
1967.5029
1967.5042
1967.5051
1967.5058
1967.5064
1967.5069
1967.5073
1967.5077
1967.5081
1967.5085
1967.5088
1967.5092
1967.5096
1967.51
1967.5104
1967.5108
1967.5112
1967.5116