/*--------------------------------*- C++ -*----------------------------------*\
| =========                 |                                                 |
| \\      /  F ield         | OpenFOAM: The Open Source CFD Toolbox           |
|  \\    /   O peration     | Version:  4.0                                   |
|   \\  /    A nd           | Web:      www.OpenFOAM.org                      |
|    \\/     M anipulation  |                                                 |
\*---------------------------------------------------------------------------*/
FoamFile
{
    version     2.0;
    format      ascii;
    class       volScalarField;
    location    "4000/fluid";
    object      ILambda_0_0;
}
// * * * * * * * * * * * * * * * * * * * * * * * * * * * * * * * * * * * * * //

dimensions      [1 0 -3 0 0 0 0];

internalField   nonuniform List<scalar> 
5000
(
164.99578
164.9958
164.99581
164.99583
164.99585
164.99587
164.99589
164.99591
164.99594
164.99596
164.99599
164.99602
164.99605
164.99608
164.99611
164.99614
164.99618
164.99622
164.99626
164.9963
164.99635
164.99639
164.99644
164.99649
164.99654
164.99659
164.99663
164.99667
164.9967
164.99673
164.99674
164.99676
164.99677
164.99678
164.99678
164.99679
164.9968
164.9968
164.99681
164.99682
164.99682
164.99683
164.99684
164.99684
164.99685
164.99685
164.99686
164.99687
164.99687
164.99688
166.49172
166.49174
166.49175
166.49177
166.49179
166.4918
166.49182
166.49184
166.49186
166.49189
166.49191
166.49194
166.49196
166.49199
166.49202
166.49206
166.49209
166.49212
166.49216
166.4922
166.49224
166.49228
166.49232
166.49237
166.49241
166.49246
166.4925
166.49253
166.49256
166.49258
166.4926
166.49261
166.49262
166.49263
166.49263
166.49264
166.49265
166.49265
166.49266
166.49266
166.49267
166.49267
166.49268
166.49268
166.49269
166.4927
166.4927
166.49271
166.49271
166.49272
167.78182
167.78183
167.78185
167.78186
167.78188
167.78189
167.78191
167.78193
167.78195
167.78197
167.78199
167.78201
167.78204
167.78206
167.78209
167.78212
167.78215
167.78218
167.78222
167.78225
167.78229
167.78232
167.78236
167.7824
167.78244
167.78248
167.78252
167.78255
167.78257
167.78259
167.78261
167.78262
167.78263
167.78263
167.78264
167.78264
167.78265
167.78265
167.78266
167.78266
167.78267
167.78267
167.78268
167.78268
167.78269
167.78269
167.7827
167.7827
167.78271
167.78272
168.87082
168.87083
168.87085
168.87086
168.87087
168.87089
168.8709
168.87092
168.87094
168.87096
168.87098
168.871
168.87102
168.87104
168.87107
168.8711
168.87112
168.87115
168.87118
168.87121
168.87124
168.87128
168.87131
168.87135
168.87139
168.87142
168.87145
168.87148
168.8715
168.87152
168.87153
168.87154
168.87155
168.87156
168.87156
168.87157
168.87157
168.87157
168.87158
168.87158
168.87159
168.87159
168.8716
168.8716
168.87161
168.87161
168.87161
168.87162
168.87162
168.87163
169.79454
169.79455
169.79456
169.79457
169.79459
169.7946
169.79461
169.79463
169.79465
169.79466
169.79468
169.7947
169.79472
169.79474
169.79476
169.79479
169.79481
169.79484
169.79487
169.79489
169.79492
169.79495
169.79499
169.79502
169.79505
169.79508
169.79511
169.79513
169.79515
169.79517
169.79518
169.79519
169.7952
169.7952
169.79521
169.79521
169.79522
169.79522
169.79522
169.79523
169.79523
169.79524
169.79524
169.79524
169.79525
169.79525
169.79525
169.79526
169.79526
169.79527
170.57994
170.57995
170.57996
170.57997
170.57999
170.58
170.58001
170.58003
170.58004
170.58006
170.58007
170.58009
170.58011
170.58013
170.58015
170.58017
170.58019
170.58022
170.58024
170.58027
170.5803
170.58032
170.58035
170.58038
170.58041
170.58044
170.58047
170.58049
170.58051
170.58052
170.58053
170.58054
170.58054
170.58055
170.58055
170.58056
170.58056
170.58056
170.58057
170.58057
170.58058
170.58058
170.58058
170.58059
170.58059
170.58059
170.5806
170.5806
170.5806
170.58061
171.25282
171.25283
171.25284
171.25285
171.25286
171.25287
171.25289
171.2529
171.25291
171.25293
171.25294
171.25296
171.25298
171.25299
171.25301
171.25303
171.25305
171.25308
171.2531
171.25312
171.25315
171.25317
171.2532
171.25323
171.25325
171.25328
171.2533
171.25332
171.25334
171.25335
171.25336
171.25337
171.25338
171.25338
171.25338
171.25339
171.25339
171.25339
171.2534
171.2534
171.2534
171.25341
171.25341
171.25341
171.25342
171.25342
171.25342
171.25343
171.25343
171.25344
171.83314
171.83315
171.83316
171.83317
171.83318
171.83319
171.8332
171.83321
171.83323
171.83324
171.83325
171.83327
171.83329
171.8333
171.83332
171.83334
171.83336
171.83338
171.8334
171.83342
171.83344
171.83347
171.83349
171.83352
171.83354
171.83357
171.83359
171.83361
171.83362
171.83363
171.83364
171.83365
171.83366
171.83366
171.83366
171.83367
171.83367
171.83367
171.83368
171.83368
171.83368
171.83369
171.83369
171.83369
171.83369
171.8337
171.8337
171.8337
171.83371
171.83371
172.33835
172.33836
172.33837
172.33838
172.33839
172.3384
172.33841
172.33842
172.33843
172.33845
172.33846
172.33847
172.33849
172.3385
172.33852
172.33854
172.33856
172.33858
172.3386
172.33862
172.33864
172.33866
172.33868
172.33871
172.33873
172.33875
172.33877
172.33879
172.3388
172.33882
172.33882
172.33883
172.33884
172.33884
172.33884
172.33885
172.33885
172.33885
172.33886
172.33886
172.33886
172.33886
172.33887
172.33887
172.33887
172.33888
172.33888
172.33888
172.33888
172.33889
172.78186
172.78187
172.78188
172.78188
172.78189
172.7819
172.78191
172.78192
172.78194
172.78195
172.78196
172.78197
172.78199
172.782
172.78202
172.78203
172.78205
172.78207
172.78209
172.78211
172.78213
172.78215
172.78217
172.78219
172.78222
172.78224
172.78226
172.78227
172.78229
172.7823
172.78231
172.78231
172.78232
172.78232
172.78233
172.78233
172.78233
172.78233
172.78234
172.78234
172.78234
172.78234
172.78235
172.78235
172.78235
172.78236
172.78236
172.78236
172.78236
172.78237
173.17481
173.17481
173.17482
173.17483
173.17484
173.17485
173.17486
173.17487
173.17488
173.17489
173.1749
173.17491
173.17493
173.17494
173.17496
173.17497
173.17499
173.17501
173.17502
173.17504
173.17506
173.17508
173.1751
173.17512
173.17515
173.17517
173.17519
173.1752
173.17522
173.17523
173.17523
173.17524
173.17525
173.17525
173.17525
173.17526
173.17526
173.17526
173.17526
173.17527
173.17527
173.17527
173.17527
173.17528
173.17528
173.17528
173.17529
173.17529
173.17529
173.1753
173.5258
173.52581
173.52582
173.52582
173.52583
173.52584
173.52585
173.52586
173.52587
173.52588
173.52589
173.52591
173.52592
173.52593
173.52595
173.52596
173.52598
173.52599
173.52601
173.52603
173.52605
173.52607
173.52609
173.52611
173.52613
173.52615
173.52617
173.52618
173.5262
173.52621
173.52622
173.52622
173.52623
173.52623
173.52623
173.52624
173.52624
173.52624
173.52625
173.52625
173.52625
173.52625
173.52626
173.52626
173.52626
173.52627
173.52627
173.52627
173.52628
173.52628
173.84189
173.84189
173.8419
173.84191
173.84191
173.84192
173.84193
173.84194
173.84195
173.84196
173.84197
173.84198
173.842
173.84201
173.84202
173.84204
173.84205
173.84207
173.84209
173.8421
173.84212
173.84214
173.84216
173.84218
173.8422
173.84222
173.84224
173.84226
173.84227
173.84228
173.84229
173.8423
173.8423
173.84231
173.84231
173.84231
173.84232
173.84232
173.84232
173.84232
173.84233
173.84233
173.84233
173.84234
173.84234
173.84234
173.84235
173.84235
173.84235
173.84236
174.12858
174.12859
174.12859
174.1286
174.12861
174.12862
174.12862
174.12863
174.12864
174.12865
174.12866
174.12867
174.12869
174.1287
174.12871
174.12873
174.12874
174.12876
174.12877
174.12879
174.12881
174.12883
174.12885
174.12887
174.12889
174.12891
174.12893
174.12895
174.12896
174.12897
174.12898
174.12899
174.12899
174.129
174.129
174.129
174.12901
174.12901
174.12901
174.12902
174.12902
174.12902
174.12903
174.12903
174.12903
174.12904
174.12904
174.12904
174.12905
174.12905
174.39039
174.3904
174.3904
174.39041
174.39042
174.39043
174.39043
174.39044
174.39045
174.39046
174.39047
174.39048
174.3905
174.39051
174.39052
174.39054
174.39055
174.39057
174.39058
174.3906
174.39062
174.39064
174.39066
174.39068
174.3907
174.39072
174.39074
174.39076
174.39077
174.39079
174.39079
174.3908
174.39081
174.39081
174.39081
174.39082
174.39082
174.39082
174.39083
174.39083
174.39083
174.39084
174.39084
174.39085
174.39085
174.39085
174.39086
174.39086
174.39086
174.39087
174.63093
174.63093
174.63094
174.63095
174.63095
174.63096
174.63097
174.63098
174.63099
174.631
174.63101
174.63102
174.63103
174.63104
174.63106
174.63107
174.63108
174.6311
174.63112
174.63113
174.63115
174.63117
174.63119
174.63121
174.63124
174.63126
174.63128
174.6313
174.63131
174.63133
174.63134
174.63134
174.63135
174.63135
174.63136
174.63136
174.63137
174.63137
174.63137
174.63138
174.63138
174.63138
174.63139
174.63139
174.6314
174.6314
174.6314
174.63141
174.63141
174.63142
174.85315
174.85316
174.85316
174.85317
174.85318
174.85319
174.85319
174.8532
174.85321
174.85322
174.85323
174.85324
174.85325
174.85327
174.85328
174.85329
174.85331
174.85332
174.85334
174.85336
174.85338
174.8534
174.85342
174.85344
174.85346
174.85349
174.85351
174.85353
174.85355
174.85356
174.85357
174.85358
174.85359
174.85359
174.8536
174.8536
174.8536
174.85361
174.85361
174.85362
174.85362
174.85362
174.85363
174.85363
174.85364
174.85364
174.85365
174.85365
174.85365
174.85366
175.05948
175.05949
175.05949
175.0595
175.05951
175.05951
175.05952
175.05953
175.05954
175.05955
175.05956
175.05957
175.05958
175.05959
175.05961
175.05962
175.05963
175.05965
175.05967
175.05969
175.0597
175.05973
175.05975
175.05977
175.0598
175.05982
175.05985
175.05987
175.05989
175.0599
175.05991
175.05992
175.05993
175.05994
175.05994
175.05994
175.05995
175.05995
175.05996
175.05996
175.05997
175.05997
175.05998
175.05998
175.05999
175.05999
175.05999
175.06
175.06
175.06001
175.25192
175.25192
175.25193
175.25193
175.25194
175.25195
175.25196
175.25196
175.25197
175.25198
175.25199
175.252
175.25202
175.25203
175.25204
175.25206
175.25207
175.25209
175.25211
175.25212
175.25214
175.25217
175.25219
175.25222
175.25224
175.25227
175.2523
175.25232
175.25234
175.25236
175.25237
175.25238
175.25239
175.25239
175.2524
175.2524
175.25241
175.25241
175.25242
175.25242
175.25243
175.25243
175.25244
175.25244
175.25245
175.25245
175.25246
175.25246
175.25247
175.25248
175.43212
175.43213
175.43214
175.43214
175.43215
175.43216
175.43216
175.43217
175.43218
175.43219
175.4322
175.43221
175.43223
175.43224
175.43225
175.43227
175.43228
175.4323
175.43232
175.43234
175.43236
175.43238
175.43241
175.43244
175.43247
175.4325
175.43252
175.43255
175.43257
175.43259
175.4326
175.43261
175.43262
175.43263
175.43263
175.43264
175.43264
175.43265
175.43266
175.43266
175.43267
175.43267
175.43268
175.43268
175.43269
175.43269
175.4327
175.43271
175.43271
175.43272
175.6015
175.60151
175.60152
175.60152
175.60153
175.60154
175.60155
175.60155
175.60156
175.60157
175.60158
175.60159
175.60161
175.60162
175.60163
175.60165
175.60167
175.60168
175.6017
175.60172
175.60175
175.60177
175.6018
175.60183
175.60186
175.60189
175.60193
175.60195
175.60198
175.602
175.60201
175.60202
175.60203
175.60204
175.60205
175.60205
175.60206
175.60206
175.60207
175.60208
175.60208
175.60209
175.60209
175.6021
175.60211
175.60211
175.60212
175.60213
175.60213
175.60215
175.76124
175.76124
175.76125
175.76125
175.76126
175.76127
175.76128
175.76129
175.7613
175.76131
175.76132
175.76133
175.76134
175.76135
175.76137
175.76138
175.7614
175.76142
175.76144
175.76146
175.76149
175.76151
175.76154
175.76158
175.76161
175.76165
175.76168
175.76171
175.76174
175.76176
175.76178
175.76179
175.7618
175.76181
175.76181
175.76182
175.76183
175.76183
175.76184
175.76185
175.76185
175.76186
175.76187
175.76187
175.76188
175.76189
175.7619
175.7619
175.76191
175.76192
175.91232
175.91233
175.91234
175.91234
175.91235
175.91236
175.91237
175.91237
175.91238
175.91239
175.91241
175.91242
175.91243
175.91244
175.91246
175.91248
175.91249
175.91251
175.91254
175.91256
175.91259
175.91261
175.91265
175.91268
175.91272
175.91276
175.9128
175.91283
175.91286
175.91288
175.9129
175.91291
175.91293
175.91293
175.91294
175.91295
175.91296
175.91296
175.91297
175.91298
175.91299
175.91299
175.913
175.91301
175.91302
175.91303
175.91303
175.91304
175.91305
175.91306
176.05562
176.05563
176.05564
176.05564
176.05565
176.05566
176.05567
176.05568
176.05569
176.0557
176.05571
176.05572
176.05574
176.05575
176.05577
176.05578
176.0558
176.05582
176.05585
176.05587
176.0559
176.05593
176.05597
176.05601
176.05605
176.05609
176.05613
176.05617
176.0562
176.05622
176.05624
176.05626
176.05627
176.05628
176.05629
176.0563
176.05631
176.05631
176.05632
176.05633
176.05634
176.05635
176.05636
176.05636
176.05637
176.05638
176.05639
176.0564
176.05641
176.05642
176.19188
176.19189
176.19189
176.1919
176.19191
176.19192
176.19192
176.19193
176.19194
176.19196
176.19197
176.19198
176.192
176.19201
176.19203
176.19205
176.19207
176.19209
176.19211
176.19214
176.19217
176.19221
176.19224
176.19229
176.19233
176.19238
176.19242
176.19246
176.1925
176.19252
176.19255
176.19256
176.19258
176.19259
176.1926
176.19261
176.19262
176.19262
176.19263
176.19264
176.19265
176.19266
176.19267
176.19268
176.19269
176.1927
176.19271
176.19272
176.19273
176.19275
176.32173
176.32174
176.32175
176.32175
176.32176
176.32177
176.32178
176.32179
176.3218
176.32181
176.32182
176.32184
176.32185
176.32187
176.32189
176.32191
176.32193
176.32195
176.32198
176.32201
176.32204
176.32208
176.32212
176.32216
176.32221
176.32226
176.32231
176.32236
176.32239
176.32242
176.32245
176.32247
176.32248
176.32249
176.3225
176.32251
176.32252
176.32253
176.32254
176.32255
176.32256
176.32257
176.32258
176.32259
176.3226
176.32262
176.32263
176.32264
176.32265
176.32267
176.44574
176.44575
176.44575
176.44576
176.44577
176.44578
176.44579
176.4458
176.44581
176.44582
176.44583
176.44585
176.44586
176.44588
176.4459
176.44592
176.44594
176.44597
176.446
176.44603
176.44607
176.44611
176.44615
176.4462
176.44625
176.44631
176.44636
176.44641
176.44645
176.44648
176.44651
176.44653
176.44655
176.44656
176.44657
176.44658
176.44659
176.4466
176.44661
176.44662
176.44664
176.44665
176.44666
176.44667
176.44668
176.44669
176.4467
176.44672
176.44673
176.44675
176.56439
176.5644
176.5644
176.56441
176.56442
176.56443
176.56444
176.56445
176.56446
176.56447
176.56449
176.5645
176.56452
176.56454
176.56456
176.56458
176.56461
176.56463
176.56466
176.5647
176.56474
176.56478
176.56483
176.56488
176.56494
176.565
176.56506
176.56511
176.56516
176.56519
176.56522
176.56524
176.56526
176.56527
176.56529
176.5653
176.56531
176.56532
176.56533
176.56534
176.56536
176.56537
176.56538
176.56539
176.56541
176.56542
176.56543
176.56545
176.56546
176.56548
176.67812
176.67812
176.67813
176.67814
176.67815
176.67816
176.67817
176.67818
176.67819
176.6782
176.67822
176.67824
176.67825
176.67827
176.67829
176.67832
176.67835
176.67837
176.67841
176.67844
176.67849
176.67853
176.67858
176.67864
176.67871
176.67877
176.67883
176.67889
176.67894
176.67898
176.67901
176.67903
176.67905
176.67907
176.67908
176.67909
176.67911
176.67912
176.67913
176.67914
176.67916
176.67917
176.67918
176.6792
176.67921
176.67923
176.67924
176.67926
176.67927
176.67929
176.7873
176.78731
176.78731
176.78732
176.78733
176.78734
176.78735
176.78736
176.78738
176.78739
176.78741
176.78742
176.78744
176.78746
176.78749
176.78751
176.78754
176.78757
176.78761
176.78765
176.78769
176.78774
176.7878
176.78786
176.78793
176.788
176.78807
176.78813
176.78818
176.78823
176.78826
176.78829
176.78831
176.78832
176.78834
176.78835
176.78837
176.78838
176.78839
176.78841
176.78842
176.78844
176.78845
176.78846
176.78848
176.78849
176.78851
176.78853
176.78854
176.78857
176.89228
176.89229
176.89229
176.8923
176.89231
176.89232
176.89233
176.89235
176.89236
176.89237
176.89239
176.89241
176.89243
176.89245
176.89248
176.89251
176.89254
176.89257
176.89261
176.89265
176.8927
176.89275
176.89281
176.89288
176.89296
176.89303
176.8931
176.89317
176.89323
176.89327
176.89331
176.89334
176.89336
176.89338
176.8934
176.89341
176.89343
176.89344
176.89345
176.89347
176.89348
176.8935
176.89352
176.89353
176.89355
176.89356
176.89358
176.8936
176.89361
176.89364
176.99335
176.99336
176.99337
176.99338
176.99339
176.9934
176.99341
176.99343
176.99344
176.99346
176.99348
176.9935
176.99352
176.99354
176.99357
176.9936
176.99363
176.99367
176.99371
176.99375
176.9938
176.99386
176.99393
176.994
176.99408
176.99416
176.99424
176.99431
176.99438
176.99442
176.99446
176.99449
176.99452
176.99454
176.99456
176.99457
176.99459
176.9946
176.99462
176.99464
176.99465
176.99467
176.99469
176.9947
176.99472
176.99474
176.99476
176.99477
176.99479
176.99482
177.0908
177.09081
177.09082
177.09083
177.09084
177.09085
177.09087
177.09088
177.09089
177.09091
177.09093
177.09095
177.09097
177.091
177.09103
177.09106
177.09109
177.09113
177.09118
177.09123
177.09128
177.09134
177.09141
177.09149
177.09158
177.09167
177.09175
177.09183
177.0919
177.09195
177.09199
177.09202
177.09205
177.09207
177.09209
177.09211
177.09212
177.09214
177.09216
177.09218
177.09219
177.09221
177.09223
177.09225
177.09227
177.09229
177.09231
177.09233
177.09234
177.09238
177.18486
177.18487
177.18488
177.18489
177.1849
177.18492
177.18493
177.18494
177.18496
177.18498
177.185
177.18502
177.18505
177.18507
177.1851
177.18514
177.18517
177.18522
177.18526
177.18532
177.18538
177.18544
177.18552
177.1856
177.1857
177.18579
177.18588
177.18596
177.18603
177.18609
177.18614
177.18617
177.1862
177.18622
177.18624
177.18626
177.18628
177.1863
177.18632
177.18633
177.18635
177.18637
177.18639
177.18641
177.18643
177.18645
177.18647
177.1865
177.18651
177.18655
177.27576
177.27577
177.27578
177.27579
177.2758
177.27582
177.27583
177.27585
177.27586
177.27588
177.2759
177.27593
177.27595
177.27598
177.27601
177.27605
177.27609
177.27614
177.27619
177.27624
177.27631
177.27638
177.27646
177.27655
177.27665
177.27675
177.27685
177.27694
177.27701
177.27707
177.27712
177.27716
177.27719
177.27721
177.27723
177.27725
177.27727
177.27729
177.27731
177.27733
177.27735
177.27737
177.27739
177.27742
177.27744
177.27746
177.27748
177.2775
177.27752
177.27756
177.36369
177.3637
177.36371
177.36372
177.36374
177.36375
177.36376
177.36378
177.3638
177.36382
177.36384
177.36387
177.3639
177.36393
177.36396
177.364
177.36404
177.36409
177.36414
177.3642
177.36427
177.36435
177.36443
177.36453
177.36464
177.36475
177.36485
177.36495
177.36503
177.36509
177.36514
177.36518
177.36521
177.36524
177.36526
177.36529
177.36531
177.36533
177.36535
177.36537
177.36539
177.36541
177.36544
177.36546
177.36548
177.3655
177.36553
177.36555
177.36557
177.36561
177.44884
177.44885
177.44886
177.44887
177.44888
177.4489
177.44891
177.44893
177.44895
177.44897
177.449
177.44902
177.44905
177.44909
177.44912
177.44916
177.44921
177.44926
177.44932
177.44938
177.44945
177.44954
177.44963
177.44973
177.44985
177.44996
177.45007
177.45017
177.45026
177.45033
177.45038
177.45043
177.45046
177.45049
177.45051
177.45054
177.45056
177.45058
177.4506
177.45063
177.45065
177.45067
177.4507
177.45072
177.45074
177.45077
177.45079
177.45082
177.45084
177.45089
177.53136
177.53137
177.53139
177.5314
177.53141
177.53143
177.53145
177.53146
177.53148
177.53151
177.53153
177.53156
177.53159
177.53163
177.53167
177.53171
177.53176
177.53181
177.53187
177.53194
177.53202
177.53211
177.53221
177.53232
177.53244
177.53256
177.53268
177.53279
177.53288
177.53295
177.53301
177.53306
177.53309
177.53312
177.53315
177.53317
177.5332
177.53322
177.53324
177.53327
177.53329
177.53332
177.53334
177.53337
177.53339
177.53342
177.53345
177.53347
177.5335
177.53354
177.61142
177.61143
177.61145
177.61146
177.61148
177.61149
177.61151
177.61153
177.61155
177.61157
177.6116
177.61163
177.61167
177.6117
177.61174
177.61179
177.61184
177.6119
177.61196
177.61204
177.61212
177.61221
177.61232
177.61244
177.61256
177.61269
177.61282
177.61293
177.61303
177.61311
177.61317
177.61322
177.61326
177.61329
177.61332
177.61334
177.61337
177.61339
177.61342
177.61344
177.61347
177.6135
177.61352
177.61355
177.61358
177.61361
177.61363
177.61366
177.61369
177.61374
177.68915
177.68916
177.68918
177.68919
177.68921
177.68922
177.68924
177.68926
177.68929
177.68931
177.68934
177.68937
177.68941
177.68945
177.68949
177.68954
177.6896
177.68966
177.68973
177.6898
177.68989
177.68999
177.6901
177.69023
177.69036
177.6905
177.69063
177.69075
177.69086
177.69094
177.69101
177.69106
177.6911
177.69113
177.69116
177.69119
177.69122
177.69124
177.69127
177.6913
177.69132
177.69135
177.69138
177.69141
177.69144
177.69147
177.6915
177.69153
177.69155
177.69161
177.76468
177.76469
177.76471
177.76472
177.76474
177.76475
177.76477
177.7648
177.76482
177.76485
177.76488
177.76491
177.76495
177.76499
177.76504
177.76509
177.76515
177.76521
177.76529
177.76537
177.76546
177.76557
177.76568
177.76582
177.76596
177.76611
177.76625
177.76638
177.76649
177.76657
177.76664
177.7667
177.76674
177.76678
177.76681
177.76684
177.76686
177.76689
177.76692
177.76695
177.76698
177.76701
177.76704
177.76707
177.7671
177.76713
177.76716
177.76719
177.76722
177.76728
177.83812
177.83813
177.83815
177.83816
177.83818
177.8382
177.83822
177.83824
177.83827
177.8383
177.83833
177.83837
177.83841
177.83845
177.8385
177.83856
177.83862
177.83869
177.83876
177.83885
177.83895
177.83906
177.83918
177.83932
177.83948
177.83963
177.83978
177.83992
177.84003
177.84013
177.8402
177.84026
177.8403
177.84034
177.84037
177.8404
177.84043
177.84046
177.84049
177.84052
177.84055
177.84058
177.84061
177.84064
177.84068
177.84071
177.84074
177.84078
177.84081
177.84087
177.90958
177.9096
177.90961
177.90963
177.90965
177.90967
177.90969
177.90971
177.90974
177.90977
177.90981
177.90985
177.90989
177.90993
177.90999
177.91004
177.91011
177.91018
177.91026
177.91036
177.91046
177.91058
177.91071
177.91086
177.91102
177.91118
177.91134
177.91148
177.9116
177.9117
177.91178
177.91184
177.91189
177.91193
177.91196
177.91199
177.91202
177.91206
177.91209
177.91212
177.91215
177.91218
177.91222
177.91225
177.91228
177.91232
177.91235
177.91239
177.91242
177.91248
177.97917
177.97918
177.9792
177.97922
177.97924
177.97926
177.97928
177.97931
177.97934
177.97937
177.97941
177.97945
177.97949
177.97954
177.9796
177.97966
177.97973
177.9798
177.97989
177.97999
177.9801
177.98022
177.98036
177.98051
177.98068
177.98086
177.98102
177.98117
177.9813
177.9814
177.98149
177.98155
177.9816
177.98164
177.98168
177.98171
177.98174
177.98178
177.98181
177.98184
177.98188
177.98191
177.98195
177.98198
177.98202
177.98205
177.98209
177.98213
177.98216
177.98223
178.04697
178.04699
178.047
178.04702
178.04704
178.04707
178.04709
178.04712
178.04715
178.04718
178.04722
178.04726
178.04731
178.04736
178.04742
178.04749
178.04756
178.04764
178.04773
178.04783
178.04795
178.04808
178.04822
178.04839
178.04857
178.04875
178.04892
178.04908
178.04922
178.04933
178.04941
178.04948
178.04953
178.04957
178.04961
178.04965
178.04968
178.04972
178.04975
178.04979
178.04982
178.04986
178.04989
178.04993
178.04997
178.05001
178.05004
178.05009
178.05012
178.05019
178.11307
178.11309
178.11311
178.11313
178.11315
178.11317
178.1132
178.11323
178.11326
178.1133
178.11334
178.11338
178.11343
178.11349
178.11355
178.11362
178.11369
178.11378
178.11387
178.11398
178.1141
178.11424
178.11439
178.11457
178.11475
178.11494
178.11513
178.11529
178.11544
178.11555
178.11564
178.11571
178.11577
178.11581
178.11585
178.11589
178.11592
178.11596
178.116
178.11603
178.11607
178.11611
178.11615
178.11618
178.11622
178.11626
178.11631
178.11635
178.11638
178.11645
178.17755
178.17757
178.17759
178.17761
178.17764
178.17766
178.17769
178.17772
178.17775
178.17779
178.17783
178.17788
178.17793
178.17799
178.17806
178.17813
178.17821
178.1783
178.1784
178.17851
178.17864
178.17878
178.17895
178.17913
178.17932
178.17952
178.17972
178.17989
178.18004
178.18016
178.18025
178.18033
178.18038
178.18043
178.18047
178.18051
178.18055
178.18059
178.18063
178.18067
178.1807
178.18074
178.18078
178.18082
178.18087
178.18091
178.18095
178.181
178.18103
178.18111
178.24049
178.24051
178.24054
178.24056
178.24058
178.24061
178.24064
178.24067
178.2407
178.24074
178.24079
178.24084
178.24089
178.24095
178.24102
178.2411
178.24118
178.24128
178.24138
178.2415
178.24164
178.24179
178.24196
178.24215
178.24235
178.24256
178.24276
178.24295
178.2431
178.24323
178.24333
178.2434
178.24346
178.24351
178.24356
178.2436
178.24364
178.24368
178.24372
178.24376
178.2438
178.24384
178.24388
178.24392
178.24397
178.24401
178.24405
178.2441
178.24414
178.24422
178.30196
178.30198
178.302
178.30202
178.30205
178.30208
178.30211
178.30214
178.30218
178.30222
178.30227
178.30232
178.30238
178.30244
178.30251
178.30259
178.30268
178.30278
178.30289
178.30302
178.30316
178.30331
178.30349
178.30369
178.30391
178.30413
178.30434
178.30453
178.30469
178.30482
178.30493
178.30501
178.30507
178.30512
178.30517
178.30521
178.30525
178.30529
178.30533
178.30538
178.30542
178.30546
178.30551
178.30555
178.30559
178.30564
178.30569
178.30574
178.30578
178.30586
178.36201
178.36203
178.36206
178.36208
178.36211
178.36214
178.36217
178.3622
178.36224
178.36229
178.36234
178.36239
178.36245
178.36252
178.36259
178.36268
178.36277
178.36288
178.36299
178.36312
178.36327
178.36344
178.36362
178.36383
178.36406
178.36428
178.36451
178.36471
178.36488
178.36501
178.36512
178.3652
178.36527
178.36532
178.36537
178.36542
178.36546
178.3655
178.36555
178.36559
178.36563
178.36568
178.36572
178.36577
178.36582
178.36586
178.36591
178.36596
178.36601
178.36609
178.42072
178.42074
178.42077
178.42079
178.42082
178.42085
178.42088
178.42092
178.42096
178.421
178.42106
178.42111
178.42118
178.42125
178.42133
178.42142
178.42151
178.42162
178.42174
178.42188
178.42203
178.42221
178.4224
178.42262
178.42286
178.4231
178.42333
178.42353
178.42371
178.42386
178.42397
178.42405
178.42412
178.42418
178.42423
178.42428
178.42432
178.42437
178.42441
178.42446
178.4245
178.42455
178.4246
178.42464
178.42469
178.42474
178.42479
178.42485
178.42489
178.42498
178.47813
178.47815
178.47818
178.47821
178.47824
178.47827
178.4783
178.47834
178.47838
178.47843
178.47849
178.47855
178.47861
178.47869
178.47877
178.47886
178.47896
178.47908
178.47921
178.47935
178.47951
178.47969
178.47989
178.48012
178.48037
178.48062
178.48086
178.48107
178.48126
178.48141
178.48152
178.48162
178.48169
178.48175
178.4818
178.48185
178.48189
178.48194
178.48199
178.48203
178.48208
178.48213
178.48218
178.48223
178.48228
178.48233
178.48238
178.48244
178.48248
178.48258
178.5343
178.53433
178.53436
178.53438
178.53441
178.53445
178.53448
178.53452
178.53457
178.53462
178.53468
178.53474
178.53481
178.53489
178.53497
178.53507
178.53518
178.5353
178.53543
178.53558
178.53575
178.53594
178.53615
178.53639
178.53664
178.5369
178.53715
178.53738
178.53757
178.53773
178.53785
178.53794
178.53801
178.53808
178.53813
178.53818
178.53823
178.53828
178.53833
178.53838
178.53843
178.53848
178.53853
178.53858
178.53863
178.53869
178.53874
178.5388
178.53884
178.53894
178.58929
178.58932
178.58934
178.58937
178.58941
178.58944
178.58948
178.58952
178.58957
178.58962
178.58968
178.58975
178.58982
178.5899
178.58999
178.59009
178.5902
178.59033
178.59047
178.59062
178.5908
178.59099
178.59122
178.59146
178.59173
178.592
178.59226
178.59249
178.59269
178.59286
178.59298
178.59308
178.59316
178.59322
178.59328
178.59333
178.59338
178.59343
178.59348
178.59353
178.59358
178.59364
178.59369
178.59374
178.5938
178.59385
178.59391
178.59397
178.59402
178.59412
178.64313
178.64316
178.64319
178.64322
178.64326
178.64329
178.64333
178.64337
178.64342
178.64348
178.64354
178.64361
178.64369
178.64377
178.64387
178.64397
178.64409
178.64422
178.64436
178.64453
178.64471
178.64491
178.64514
178.6454
178.64568
178.64596
178.64623
178.64647
178.64668
178.64685
178.64698
178.64708
178.64716
178.64723
178.64729
178.64734
178.64739
178.64744
178.6475
178.64755
178.6476
178.64766
178.64771
178.64777
178.64783
178.64788
178.64794
178.648
178.64805
178.64816
178.69588
178.69591
178.69594
178.69597
178.69601
178.69605
178.69609
178.69613
178.69618
178.69624
178.69631
178.69638
178.69646
178.69655
178.69665
178.69676
178.69688
178.69701
178.69716
178.69733
178.69752
178.69774
178.69798
178.69824
178.69853
178.69882
178.6991
178.69936
178.69957
178.69975
178.69988
178.69999
178.70007
178.70014
178.7002
178.70026
178.70031
178.70037
178.70042
178.70047
178.70053
178.70059
178.70064
178.7007
178.70076
178.70082
178.70088
178.70095
178.701
178.7011
178.74757
178.74761
178.74764
178.74767
178.74771
178.74775
178.74779
178.74784
178.74789
178.74795
178.74802
178.74809
178.74818
178.74827
178.74837
178.74849
178.74861
178.74875
178.74891
178.74909
178.74928
178.74951
178.74976
178.75003
178.75033
178.75063
178.75093
178.75119
178.75141
178.75159
178.75173
178.75184
178.75193
178.752
178.75206
178.75212
178.75218
178.75223
178.75229
178.75235
178.7524
178.75246
178.75252
178.75258
178.75264
178.75271
178.75277
178.75283
178.75289
178.753
178.79825
178.79829
178.79832
178.79835
178.79839
178.79843
178.79848
178.79853
178.79858
178.79865
178.79872
178.7988
178.79888
178.79898
178.79908
178.7992
178.79933
178.79948
178.79965
178.79983
178.80003
178.80026
178.80052
178.80081
178.80112
178.80143
178.80174
178.80201
178.80224
178.80243
178.80257
178.80269
178.80278
178.80285
178.80291
178.80297
178.80303
178.80309
178.80315
178.80321
178.80327
178.80333
178.80339
178.80345
178.80351
178.80358
178.80364
178.80371
178.80377
178.80388
178.84795
178.84799
178.84802
178.84806
178.8481
178.84814
178.84819
178.84824
178.8483
178.84836
178.84844
178.84852
178.84861
178.84871
178.84882
178.84894
178.84908
178.84923
178.8494
178.84959
178.84981
178.85004
178.85031
178.85061
178.85093
178.85126
178.85157
178.85185
178.85209
178.85229
178.85244
178.85255
178.85265
178.85272
178.85279
178.85285
178.85291
178.85297
178.85303
178.85309
178.85315
178.85322