/*--------------------------------*- C++ -*----------------------------------*\
| =========                 |                                                 |
| \\      /  F ield         | OpenFOAM: The Open Source CFD Toolbox           |
|  \\    /   O peration     | Version:  4.0                                   |
|   \\  /    A nd           | Web:      www.OpenFOAM.org                      |
|    \\/     M anipulation  |                                                 |
\*---------------------------------------------------------------------------*/
FoamFile
{
    version     2.0;
    format      ascii;
    class       surfaceScalarField;
    location    "4000/fluid";
    object      phi;
}
// * * * * * * * * * * * * * * * * * * * * * * * * * * * * * * * * * * * * * //

dimensions      [1 0 -1 0 0 0 0];

internalField   nonuniform List<scalar> 
9850
(
6.1468338e-12
9.537146e-11
2.4426835e-11
3.1813365e-10
5.5174704e-11
6.0331106e-10
9.7861316e-11
9.6307738e-10
1.5065215e-10
1.4111008e-09
2.09993e-10
1.962416e-09
2.7019488e-10
2.6332036e-09
3.2307507e-10
3.440477e-09
3.577351e-10
4.4016465e-09
3.6057382e-10
5.534026e-09
3.1564036e-10
6.8543812e-09
2.054204e-10
8.3786245e-09
1.2108916e-11
1.0121868e-08
-2.8065986e-10
1.209912e-08
-6.8574497e-10
1.4326817e-08
-1.2103607e-09
1.6825484e-08
-1.8542215e-09
1.9623708e-08
-2.6083895e-09
2.2763315e-08
-3.4552123e-09
2.6305664e-08
-4.3696002e-09
3.0338503e-08
-5.3216577e-09
3.498283e-08
-6.2804059e-09
4.0399052e-08
-7.2181269e-09
4.6792079e-08
-8.1147619e-09
5.4414743e-08
-8.9616755e-09
6.357124e-08
-9.7645388e-09
7.461881e-08
-1.0544509e-08
8.797366e-08
-1.133886e-08
1.0411753e-07
-1.2198812e-08
1.2361176e-07
-1.3190235e-08
1.4711596e-07
-1.438814e-08
1.7541689e-07
-1.5884752e-08
2.094552e-07
-1.7776089e-08
2.5037767e-07
-2.0192755e-08
2.9955485e-07
-2.3254985e-08
3.5868167e-07
-2.7163544e-08
4.297411e-07
-3.2054667e-08
5.1525195e-07
-3.8250511e-08
6.1802065e-07
-4.5851949e-08
7.4184828e-07
-5.5381518e-08
8.9057202e-07
-6.677347e-08
1.070095e-06
-8.0862967e-08
1.2853263e-06
-9.7166219e-08
1.5457957e-06
-1.1690024e-07
1.8568595e-06
-1.3876042e-07
2.2346728e-06
-1.638722e-07
2.6819865e-06
-1.8993645e-07
3.2286233e-06
-2.206978e-07
3.8731374e-06
-2.645349e-07
4.7180735e-06
4.7874685e-06
-1.2940953e-11
1.0831243e-10
-5.7632954e-11
3.6282577e-10
-1.4495004e-10
6.9062817e-10
-2.8890234e-10
1.1070296e-09
-5.0734672e-10
1.6295449e-09
-8.2279985e-10
2.2778689e-09
-1.2632572e-09
3.073661e-09
-1.8628985e-09
4.0401183e-09
-2.6624839e-09
5.2012317e-09
-3.7091736e-09
6.5807157e-09
-5.0554337e-09
8.2006412e-09
-6.756649e-09
1.0079839e-08
-8.867121e-09
1.223234e-08
-1.1434309e-08
1.4666309e-08
-1.4491489e-08
1.7383996e-08
-1.8049483e-08
2.0383479e-08
-2.2088715e-08
2.3662941e-08
-2.6553211e-08
2.7227812e-08
-3.1348415e-08
3.1100867e-08
-3.6344315e-08
3.5334404e-08
-4.1384566e-08
4.0023081e-08
-4.6301051e-08
4.5315538e-08
-5.0932086e-08
5.1423113e-08
-5.5141487e-08
5.8624145e-08
-5.883535e-08
6.7265103e-08
-6.1973723e-08
7.7757182e-08
-6.4574751e-08
9.057469e-08
-6.6711503e-08
1.0625428e-07
-6.8499891e-08
1.2540015e-07
-7.008517e-08
1.4870124e-07
-7.1620849e-08
1.7695257e-07
-7.3264061e-08
2.1109841e-07
-7.5152732e-08
2.5226634e-07
-7.7438458e-08
3.0184058e-07
-8.023878e-08
3.61482e-07
-8.3752929e-08
4.3325526e-07
-8.8099438e-08
5.1959845e-07
-9.3633413e-08
6.2355463e-07
-1.0046831e-07
7.4868316e-07
-1.0927465e-07
8.9937834e-07
-1.2010993e-07
1.0809303e-06
-1.3417436e-07
1.2993908e-06
-1.5144037e-07
1.5630617e-06
-1.7386497e-07
1.8792841e-06
-2.0152166e-07
2.2623295e-06
-2.3746456e-07
2.7179294e-06
-2.8507161e-07
3.2762303e-06
-3.7622966e-07
3.9642954e-06
-4.9799543e-07
4.8398392e-06
4.289473e-06
-1.4687537e-11
1.2299997e-10
-6.4589854e-11
4.12728e-10
-1.6079457e-10
7.8683292e-10
-3.1705663e-10
1.2632917e-09
-5.5030924e-10
1.8627976e-09
-8.8123921e-10
2.6087989e-09
-1.3349016e-09
3.5273236e-09
-1.9413471e-09
4.6465635e-09
-2.736186e-09
5.9960706e-09
-3.7609846e-09
7.6055144e-09
-5.0633019e-09
9.5029585e-09
-6.696093e-09
1.1712631e-08
-8.7161009e-09
1.4252348e-08
-1.1180795e-08
1.7131003e-08
-1.4143405e-08
2.0346605e-08
-1.7645791e-08
2.3885866e-08
-2.1709313e-08
2.7726462e-08
-2.6324508e-08
3.1843006e-08
-3.1441286e-08
3.6217647e-08
-3.696205e-08
4.0855167e-08
-4.274041e-08
4.5801441e-08
-4.8587691e-08
5.1162821e-08
-5.4288012e-08
5.7123434e-08
-5.962071e-08
6.3956844e-08
-6.438723e-08
7.2031622e-08
-6.8437705e-08
8.1807655e-08
-7.1693009e-08
9.3829997e-08
-7.4157347e-08
1.0871862e-07
-7.5920098e-08
1.271629e-07
-7.7144398e-08
1.4992554e-07
-7.8049449e-08
1.7785762e-07
-7.8883673e-08
2.1193264e-07
-7.991004e-08
2.5329271e-07
-8.1383956e-08
3.0331449e-07
-8.3568741e-08
3.6366678e-07
-8.6720214e-08
4.3640672e-07
-9.1136803e-08
5.2401503e-07
-9.7131512e-08
6.2954934e-07
-1.0509749e-07
7.5664912e-07
-1.154917e-07
9.0977256e-07
-1.2884419e-07
1.0942828e-06
-1.4594148e-07
1.3164881e-06
-1.6747351e-07
1.5845937e-06
-1.9511588e-07
1.9069265e-06
-2.2948227e-07
2.2966959e-06
-2.7555923e-07
2.7640064e-06
-3.3943506e-07
3.3401062e-06
-4.5868406e-07
4.0835444e-06
-5.1393898e-07
4.8950941e-06
3.775534e-06
-1.1838242e-11
1.3483821e-10
-5.2252225e-11
4.53142e-10
-1.3045805e-10
8.6503867e-10
-2.5801914e-10
1.3908526e-09
-4.4939183e-10
2.0541703e-09
-7.2255085e-10
2.8819578e-09
-1.0997028e-09
3.9044756e-09
-1.6080783e-09
5.154939e-09
-2.2807594e-09
6.6687517e-09
-3.1574707e-09
8.482226e-09
-4.28521e-09
1.0630698e-08
-5.7185102e-09
1.3145931e-08
-7.519041e-09
1.6052879e-08
-9.7541568e-09
1.9366119e-08
-1.2493892e-08
2.3086341e-08
-1.580593e-08
2.7197904e-08
-1.9748192e-08
3.1668724e-08
-2.4359121e-08
3.6453935e-08
-2.9646415e-08
4.150494e-08
-3.5575889e-08
4.6784642e-08
-4.2063031e-08
5.2288583e-08
-4.8970195e-08
5.8069986e-08
-5.6112002e-08
6.4265241e-08
-6.3269974e-08
7.111482e-08
-7.0215583e-08
7.8977231e-08
-7.6738249e-08
8.833032e-08
-8.2674036e-08
9.9765783e-08
-8.7929368e-08
1.1397395e-07
-9.2495535e-08
1.3172906e-07
-9.6450201e-08
1.538802e-07
-9.9946529e-08
1.8135395e-07
-1.0318989e-07
2.15176e-07
-1.064138e-07
2.5651662e-07
-1.0985198e-07
3.0675267e-07
-1.1373593e-07
3.6755072e-07
-1.182812e-07
4.4095199e-07
-1.2373384e-07
5.2946767e-07
-1.3035203e-07
6.3616754e-07
-1.3850166e-07
7.6479874e-07
-1.486195e-07
9.1989041e-07
-1.6128973e-07
1.106953e-06
-1.7738467e-07
1.332583e-06
-1.9766127e-07
1.6048703e-06
-2.2407036e-07
1.9333356e-06
-2.5707565e-07
2.3297012e-06
-3.0295359e-07
2.8098843e-06
-3.7060048e-07
3.407753e-06
-4.7478055e-07
4.1877245e-06
-4.4276179e-07
4.8630753e-06
3.3327723e-06
-9.0792874e-12
1.4391754e-10
-4.0145091e-11
4.8420789e-10
-1.0046081e-10
9.2535442e-10
-1.9924144e-10
1.4896332e-09
-3.4811312e-10
2.2030418e-09
-5.6167521e-10
3.09552e-09
-8.5816522e-10
4.2009657e-09
-1.2602268e-09
5.5570007e-09
-1.7957673e-09
7.2042922e-09
-2.4988653e-09
9.1853243e-09
-3.4106559e-09
1.1542488e-08
-4.5800461e-09
1.4315321e-08
-6.0640485e-09
1.7536882e-08
-7.9273994e-09
2.122947e-08
-1.0241018e-08
2.539996e-08
-1.3078765e-08
3.0035651e-08
-1.6511967e-08
3.5101927e-08
-2.0601325e-08
4.0543293e-08
-2.5386282e-08
4.6289897e-08
-3.0872716e-08
5.2271075e-08
-3.7020793e-08
5.843666e-08
-4.3735782e-08
6.4784976e-08
-5.0865105e-08
7.1394564e-08
-5.8204302e-08
7.8454016e-08
-6.5513325e-08
8.6286253e-08
-7.2541961e-08
9.5358957e-08
-7.9061488e-08
1.0628531e-07
-8.489738e-08
1.1980984e-07
-8.9957579e-08
1.3678926e-07
-9.4250927e-08
1.5817355e-07
-9.7891433e-08
1.8499445e-07
-1.010874e-07
2.1837197e-07
-1.0411719e-07
2.5954641e-07
-1.0730009e-07
3.0993559e-07
-1.109683e-07
3.7121893e-07
-1.1545577e-07
4.4543946e-07
-1.2109249e-07
5.3510438e-07
-1.2823403e-07
6.4330909e-07
-1.3725154e-07
7.7381625e-07
-1.4863171e-07
9.3127061e-07
-1.6284686e-07
1.1211682e-06
-1.807381e-07
1.3504742e-06
-2.0286804e-07
1.6270003e-06
-2.3088884e-07
1.9613563e-06
-2.6563449e-07
2.3644468e-06
-3.1307457e-07
2.8573244e-06
-3.8348804e-07
3.4781665e-06
-4.629152e-07
4.2671517e-06
-3.771207e-07
4.7772808e-06
2.9556516e-06
-8.6299698e-12
1.5254751e-10
-3.8141511e-11
5.1371946e-10
-9.5348259e-11
9.8256128e-10
-1.8883512e-10
1.5831201e-09
-3.2937838e-10
2.343585e-09
-5.3044328e-10
3.2965848e-09
-8.0877034e-10
4.4792929e-09
-1.185057e-09
5.9332876e-09
-1.6847271e-09
7.7039623e-09
-2.3387668e-09
9.839364e-09
-3.1845837e-09
1.2388305e-08
-4.2667933e-09
1.5397531e-08
-5.6377895e-09
1.8907877e-08
-7.3578569e-09
2.2949537e-08
-9.4944959e-09
2.7536599e-08
-1.2120506e-08
3.266166e-08
-1.5310312e-08
3.8291734e-08
-1.913406e-08
4.4367041e-08
-2.3649192e-08
5.0805029e-08
-2.8889779e-08
5.7511662e-08
-3.4854648e-08
6.4401529e-08
-4.149634e-08
7.1426669e-08
-4.8713739e-08
7.8611963e-08
-5.6351348e-08
8.6091624e-08
-6.420761e-08
9.4142516e-08
-7.2052631e-08
1.0320398e-07
-7.9654033e-08
1.1388671e-07
-8.680714e-08
1.2696295e-07
-9.3364795e-08
1.4334692e-07
-9.9261729e-08
1.6407049e-07
-1.0452818e-07
1.902609e-07
-1.0929012e-07
2.2313391e-07
-1.1375397e-07
2.6401025e-07
-1.1818212e-07
3.1436374e-07
-1.2286138e-07
3.7589818e-07
-1.2808694e-07
4.5066502e-07
-1.3414614e-07
5.4116359e-07
-1.4135129e-07
6.5051423e-07
-1.5003168e-07
7.8249664e-07
-1.6062982e-07
9.4186875e-07
-1.7363599e-07
1.1341744e-06
-1.8978294e-07
1.3666212e-06
-2.0982676e-07
1.6470441e-06
-2.3494975e-07
1.9864793e-06
-2.6695458e-07
2.3964517e-06
-3.1103523e-07
2.9014051e-06
-3.7463699e-07
3.5417682e-06
-4.2321611e-07
4.3157308e-06
-3.0430574e-07
4.6583704e-06
2.6513458e-06
-7.3892656e-12
1.5993685e-10
-3.2688047e-11
5.3901813e-10
-8.1820631e-11
1.0316938e-09
-1.6230327e-10
1.6636027e-09
-2.8362546e-10
2.4649072e-09
-4.5771595e-10
3.4706753e-09
-6.9949787e-10
4.721075e-09
-1.0275409e-09
6.261331e-09
-1.4648071e-09
8.1412284e-09
-2.0394718e-09
1.0414029e-08
-2.7857903e-09
1.3134623e-08
-3.7449292e-09
1.635667e-08
-4.9656419e-09
2.012859e-08
-6.5045963e-09
2.4488492e-08
-8.4260729e-09
2.9458075e-08
-1.0800644e-08
3.5036231e-08
-1.3702388e-08
4.1193478e-08
-1.7204135e-08
4.7868788e-08
-2.1370385e-08
5.497128e-08
-2.624786e-08
6.2389136e-08
-3.1854254e-08
7.0007922e-08
-3.8166632e-08
7.7739047e-08
-4.5111805e-08
8.5557136e-08
-5.2561513e-08
9.3541333e-08
-6.0335309e-08
1.0191631e-07
-6.8212544e-08
1.1108122e-07
-7.5953731e-08
1.216279e-07
-8.3328846e-08
1.3433806e-07
-9.0149023e-08
1.501671e-07
-9.6296822e-08
1.7021828e-07
-1.0174971e-07
1.9571379e-07
-1.0659198e-07
2.2797619e-07
-1.1101132e-07
2.6842958e-07
-1.1528013e-07
3.1863255e-07
-1.1972526e-07
3.803433e-07
-1.2469703e-07
4.5563679e-07
-1.3054558e-07
5.4701213e-07
-1.3761602e-07
6.5758466e-07
-1.4625961e-07
7.9114022e-07
-1.5685077e-07
9.524599e-07
-1.6983663e-07
1.1471602e-06
-1.8570456e-07
1.3824891e-06
-2.0514303e-07
1.6664826e-06
-2.2893049e-07
2.0102668e-06
-2.591512e-07
2.4266724e-06
-3.0039555e-07
2.9426494e-06
-3.5428387e-07
3.5956565e-06
-3.7620182e-07
4.3376488e-06
-2.4238902e-07
4.5245576e-06
2.4089568e-06
-7.0499654e-12
1.6698681e-10
-3.1178831e-11
5.6314692e-10
-7.7996692e-11
1.0785117e-09
-1.5459384e-10
1.7401998e-09
-2.6989758e-10
2.5802109e-09
-4.3510126e-10
3.6358789e-09
-6.6417513e-10
4.9501491e-09
-9.7447112e-10
6.5716268e-09
-1.3874146e-09
8.5541718e-09
-1.9292829e-09
1.0955897e-08
-2.6320397e-09
1.383738e-08
-3.5341652e-09
1.7258795e-08
-4.6813913e-09
2.1275816e-08
-6.1271764e-09
2.5934277e-08
-7.9326802e-09
3.1263579e-08
-1.0165915e-08
3.7269465e-08
-1.2899657e-08
4.3927221e-08
-1.6207667e-08
5.1176798e-08
-2.0158807e-08
5.892242e-08
-2.4808901e-08
6.7039231e-08
-3.0190634e-08
7.5389656e-08
-3.6302488e-08
8.38509e-08
-4.3098562e-08
9.2353211e-08
-5.0481767e-08
1.0092454e-07
-5.830312e-08
1.0973766e-07
-6.6368986e-08
1.1914708e-07
-7.4457123e-08
1.2971604e-07
-8.234011e-08
1.4222105e-07
-8.9813464e-08
1.5764045e-07
-9.6724531e-08
1.7712935e-07
-1.029977e-07
2.0198696e-07
-1.0865127e-07
2.3362975e-07
-1.1380245e-07
2.7358077e-07
-1.1865724e-07
3.2348735e-07
-1.234888e-07
3.8517485e-07
-1.2860588e-07
4.6075386e-07
-1.3433153e-07
5.5273778e-07
-1.4098252e-07
6.6423566e-07
-1.4889226e-07
7.9904997e-07
-1.5840063e-07
9.6196826e-07
-1.6993548e-07
1.1586951e-06
-1.8393947e-07
1.3964931e-06
-2.01055e-07
1.6835981e-06
-2.2211656e-07
2.0313283e-06
-2.4920911e-07
2.4537649e-06
-2.8617146e-07
2.9796118e-06
-3.2872327e-07
3.6382083e-06
-3.2864688e-07
4.3375723e-06
-1.9165412e-07
4.3875648e-06
2.2173027e-06
-6.3183002e-12
1.7330505e-10
-2.7962472e-11
5.8479105e-10
-7.0012783e-11
1.120562e-09
-1.3891707e-10
1.8091043e-09
-2.4282449e-10
2.6841183e-09
-3.9199166e-10
3.785046e-09
-5.99272e-10
5.1574293e-09
-8.8069511e-10
6.8530501e-09
-1.2561415e-09
8.9296178e-09
-1.7500996e-09
1.1449855e-08
-2.3924956e-09
1.4479776e-08
-3.2195367e-09
1.8085836e-08
-4.2744871e-09
2.2330767e-08
-5.6082384e-09
2.7268027e-08
-7.2794573e-09
3.2934797e-08
-9.3540185e-09
3.9344026e-08
-1.1903342e-08
4.6476545e-08
-1.5001191e-08
5.4274648e-08
-1.8718537e-08
6.2639765e-08
-2.3116218e-08
7.1436912e-08
-2.823556e-08
8.0508997e-08
-3.4087652e-08
8.9702993e-08
-4.0642831e-08
9.8908392e-08
-4.7822509e-08
1.0810421e-07
-5.5496017e-08
1.1741117e-07
-6.3484508e-08
1.2713557e-07
-7.1573331e-08
1.3780486e-07
-7.9532269e-08
1.5017999e-07
-8.7141823e-08
1.6525e-07
-9.4222226e-08
1.8420976e-07
-1.0066134e-07
2.0842608e-07
-1.0643675e-07
2.3940516e-07
-1.1162806e-07
2.7877208e-07
-1.1641486e-07
3.2827414e-07
-1.2106047e-07
3.8982046e-07
-1.2588179e-07
4.6557518e-07
-1.312194e-07
5.5807538e-07
-1.3740813e-07
6.7042438e-07
-1.4477611e-07
8.0641795e-07
-1.5364054e-07
9.7083271e-07
-1.6434477e-07
1.1693993e-06
-1.7725932e-07
1.4094077e-06
-1.9286503e-07
1.6992039e-06
-2.1202228e-07
2.0504855e-06
-2.3661043e-07
2.4783531e-06
-2.6917267e-07
3.012174e-06
-3.0089406e-07
3.6699297e-06
-2.841896e-07
4.3208679e-06
-1.5112247e-07
4.2544977e-06
2.0661802e-06
-6.0131614e-12
1.7931827e-10
-2.660932e-11
6.0538712e-10
-6.6605136e-11
1.1605578e-09
-1.3210264e-10
1.8746019e-09
-2.308039e-10
2.7828197e-09
-3.7239232e-10
3.9266343e-09
-5.6899105e-10
5.3540283e-09
-8.3571121e-10
7.1197705e-09
-1.1912892e-09
9.2851959e-09
-1.6588143e-09
1.1917381e-08
-2.2665324e-09
1.5087494e-08
-3.048683e-09
1.8867987e-08
-4.0463015e-09
2.3328385e-08
-5.3078649e-09
2.8529591e-08
-6.8895925e-09
3.4516525e-08
-8.8551303e-09
4.1309564e-08
-1.1274277e-08
4.8895691e-08
-1.4220322e-08
5.7220693e-08
-1.7765589e-08
6.6185033e-08
-2.1974895e-08
7.5646218e-08
-2.6896918e-08
8.5431019e-08
-3.2554034e-08
9.536011e-08
-3.8931869e-08
1.0528623e-07
-4.5970436e-08
1.1514278e-07
-5.3559402e-08
1.2500014e-07
-6.1539454e-08
1.3511562e-07
-6.9711505e-08
1.4597692e-07
-7.7853502e-08
1.5832199e-07
-8.5743485e-08
1.7313999e-07
-9.3186265e-08
1.9165254e-07
-1.0004017e-07
2.1527998e-07
-1.0624022e-07
2.4560521e-07
-1.1181382e-07
2.8434568e-07
-1.1688514e-07
3.3334547e-07
-1.2166579e-07
3.946011e-07
-1.2643251e-07
4.703419e-07
-1.3149694e-07
5.6313981e-07
-1.3717932e-07
6.7610678e-07
-1.4379079e-07
8.1302943e-07
-1.5164098e-07
9.7868288e-07
-1.610393e-07
1.1787977e-06
-1.7234802e-07
1.4207164e-06
-1.8601532e-07
1.7128712e-06
-2.0294809e-07
2.0674183e-06
-2.2483724e-07
2.5002422e-06
-2.5267829e-07
3.040015e-06
-2.7457501e-07
3.6918264e-06
-2.4589495e-07
4.2921878e-06
-1.1991154e-07
4.1285142e-06
1.9462686e-06
-5.5483656e-12
1.8486661e-10
-2.4563434e-11
6.2440218e-10
-6.1517179e-11
1.1975116e-09
-1.2208881e-10
1.9351735e-09
-2.1346132e-10
2.8741923e-09
-3.4468674e-10
4.0578598e-09
-5.2712499e-10
5.5364665e-09
-7.7497009e-10
7.3676156e-09
-1.1058674e-09
9.6160931e-09
-1.5416214e-09
1.2353135e-08
-2.1089852e-09
1.5654858e-08
-2.8404945e-09
1.9599496e-08
-3.7752861e-09
2.4263177e-08
-4.9597964e-09
2.9714101e-08
-6.4481646e-09
3.6004892e-08
-8.3020965e-09
4.3163497e-08
-1.0589872e-08
5.1183467e-08
-1.3384073e-08
6.0014895e-08
-1.6757645e-08
6.9558604e-08
-2.0777929e-08
7.9666502e-08
-2.5498618e-08
9.0151709e-08
-3.0949996e-08
1.0081149e-07
-3.7128515e-08
1.1146474e-07
-4.3987396e-08
1.2200166e-07
-5.143061e-08
1.3244336e-07
-5.9312265e-08
1.4299728e-07
-6.744336e-08
1.5410801e-07
-7.5606012e-08
1.6648464e-07
-8.3574409e-08
1.8110838e-07
-9.1140185e-08
1.9921832e-07
-9.8139199e-08
2.2227899e-07
-1.0447629e-07
2.519423e-07
-1.1014422e-07
2.9001361e-07
-1.1523315e-07
3.384344e-07
-1.1992662e-07
3.9929456e-07
-1.2448427e-07
4.7489953e-07
-1.2921129e-07
5.6786681e-07
-1.3442918e-07
6.8132467e-07
-1.4044647e-07
8.1904671e-07
-1.475594e-07
9.857958e-07
-1.5604552e-07
1.1872838e-06
-1.6622213e-07
1.430893e-06
-1.785159e-07
1.725165e-06
-1.9378329e-07
2.0826857e-06
-2.1344723e-07
2.5199062e-06
-2.3694138e-07
3.0635092e-06
-2.5050755e-07
3.7053926e-06
-2.1363544e-07
4.2553157e-06
-9.6100782e-08
4.0109796e-06
1.8501678e-06
-5.2864981e-12
1.9015312e-10
-2.3403514e-11
6.4251919e-10
-5.860538e-11
1.2327135e-09
-1.1629025e-10
1.9928585e-09
-2.0328341e-10
2.9611853e-09
-3.2818123e-10
4.1827579e-09
-5.0177153e-10
5.7100568e-09
-7.3753269e-10
7.6033767e-09
-1.052226e-09
9.9307863e-09
-1.4665782e-09
1.2767487e-08
-2.0060488e-09
1.6194328e-08
-2.7016535e-09
2.0295101e-08
-3.5907922e-09
2.5152316e-08
-4.7179867e-09
3.0841296e-08
-6.1353735e-09
3.7422279e-08
-7.9027288e-09
4.4930852e-08
-1.008672e-08
5.3367458e-08
-1.2759002e-08
6.2687176e-08
-1.5992737e-08
7.279234e-08
-1.9857202e-08
8.3530966e-08
-2.4410306e-08
9.4704812e-08
-2.9689309e-08
1.0609049e-07
-3.5700589e-08
1.1747602e-07
-4.2409956e-08
1.2871103e-07
-4.9735748e-08
1.3976915e-07
-5.7546669e-08
1.508082e-07
-6.5666448e-08
1.6222779e-07
-7.3885725e-08
1.7470392e-07
-8.1980613e-08
1.8920327e-07
-8.9736106e-08
2.0697381e-07
-9.6971449e-08
2.2951434e-07
-1.0356463e-07
2.5853547e-07
-1.0947251e-07
2.9592149e-07
-1.1474348e-07
3.4370536e-07
-1.1951855e-07
4.0406964e-07
-1.240199e-07
4.7940088e-07
-1.2852593e-07
5.7237284e-07
-1.3334145e-07
6.8614019e-07
-1.3876905e-07
8.244743e-07
-1.4509621e-07
9.9212296e-07
-1.526006e-07
1.1947882e-06
-1.6158395e-07
1.4398763e-06
-1.7250463e-07
1.7360857e-06
-1.8615728e-07
2.0963383e-06
-2.0365548e-07
2.5374044e-06
-2.2304349e-07
3.0828972e-06
-2.295964e-07
3.7119455e-06
-1.8729523e-07
4.2130146e-06
-7.8344796e-08
3.9020291e-06
1.771823e-06
-4.968914e-12
1.9512206e-10
-2.2003956e-11
6.5955415e-10
-5.5118079e-11
1.2658276e-09
-1.0940997e-10
2.0471505e-09
-1.9133446e-10
3.0431097e-09
-3.0903224e-10
4.3004557e-09
-4.7273254e-10
5.873757e-09
-6.9523591e-10
7.8258799e-09
-9.9248551e-10
1.0228036e-08
-1.3842317e-09
1.3159233e-08
-1.8947821e-09
1.6704878e-08
-2.5538142e-09
2.0954133e-08
-3.3972077e-09
2.599571e-08
-4.4678103e-09
3.1911899e-08
-5.8159964e-09
3.8770466e-08
-7.4998118e-09
4.6614667e-08
-9.5844212e-09
5.5452068e-08
-1.214049e-08
6.5243245e-08
-1.5241097e-08
7.5892946e-08
-1.8956793e-08
8.7246662e-08
-2.3348621e-08
9.909664e-08
-2.8459234e-08
1.112011e-07
-3.4302848e-08
1.2331964e-07
-4.0855348e-08
1.3526353e-07
-4.8046645e-08
1.4696044e-07
-5.5757224e-08
1.5851878e-07
-6.3821053e-08
1.7029162e-07
-7.2035503e-08
1.8291837e-07
-8.0178046e-08
1.9734582e-07
-8.8028204e-08
2.1482397e-07
-9.5392147e-08
2.3687828e-07
-1.0212727e-07
2.652706e-07
-1.081637e-07
3.0195793e-07
-1.1351933e-07
3.4906098e-07
-1.1830519e-07
4.088555e-07
-1.2271769e-07
4.8381338e-07
-1.2701862e-07
5.7667376e-07
-1.3150335e-07
6.9062492e-07
-1.3647377e-07
8.2944472e-07
-1.4221057e-07
9.9785975e-07
-1.4899171e-07
1.2015693e-06
-1.5710142e-07
1.4479861e-06
-1.670139e-07
1.7459982e-06
-1.7942683e-07
2.1087513e-06
-1.9507906e-07
2.5530567e-06
-2.1085914e-07
3.0986773e-06
-2.116879e-07
3.7127743e-06
-1.6598163e-07
4.1673083e-06
-6.5139068e-08
3.8011866e-06
1.706684e-06
-4.7495372e-12
1.9987154e-10
-2.1032546e-11
6.7583722e-10
-5.2683625e-11
1.2974787e-09
-1.0457346e-10
2.0990402e-09
-1.8286695e-10
3.1214032e-09
-2.9534033e-10
4.412929e-09
-4.5176581e-10
6.0301824e-09
-6.6437575e-10
8.0384896e-09
-9.4841317e-10
1.0512073e-08
-1.3227752e-09
1.3533595e-08
-1.8107445e-09
1.7192847e-08
-2.4407891e-09
2.1584178e-08
-3.2473967e-09
2.6802317e-08
-4.2718563e-09
3.2936359e-08
-5.5628765e-09
4.0061485e-08
-7.1768319e-09
4.8228623e-08
-9.177387e-09
5.7452623e-08
-1.1634131e-08
6.769999e-08
-1.4619841e-08
7.8878655e-08
-1.820597e-08
9.0832792e-08
-2.2456141e-08
1.0334681e-07
-2.7417683e-08
1.1616265e-07
-3.3111829e-08
1.2901378e-07
-3.9523757e-08
1.4167546e-07
-4.6594407e-08
1.540311e-07
-5.4216003e-08
1.6614037e-07
-6.2233467e-08
1.7830908e-07
-7.045257e-08
1.9113747e-07
-7.8654844e-08
2.0554809e-07
-8.6617881e-08
2.22787e-07
-9.4138741e-08
2.4439914e-07
-1.0105789e-07
2.7218974e-07
-1.0728099e-07
3.0818103e-07
-1.1279538e-07
3.5457537e-07
-1.1767871e-07
4.1373883e-07
-1.2209522e-07
4.882299e-07
-1.2628137e-07
5.8085991e-07
-1.3051566e-07
6.948592e-07
-1.350949e-07
8.3402396e-07
-1.4029813e-07
1.003063e-06
-1.4641279e-07
1.207684e-06
-1.5372727e-07
1.4553005e-06
-1.6273181e-07
1.7550027e-06
-1.7402713e-07
2.1200466e-06
-1.8795056e-07
2.5669801e-06
-2.0048263e-07
3.1112094e-06
-1.9659608e-07
3.7088877e-06
-1.4885996e-07
4.1195721e-06
-5.5402662e-08
3.7077293e-06
1.6512813e-06
-4.5172068e-12
2.0438872e-10
-2.0007496e-11
6.9132749e-10
-5.0125361e-11
1.3275965e-09
-9.9516414e-11
2.1484313e-09
-1.7406507e-10
3.1959518e-09
-2.8119945e-10
4.5200634e-09
-4.3026231e-10
6.1792453e-09
-6.3295959e-10
8.2411867e-09
-9.0389337e-10
1.0783008e-08
-1.2611886e-09
1.3890891e-08
-1.7272062e-09
1.7658865e-08
-2.3293338e-09
2.2186305e-08
-3.1008106e-09
2.7573794e-08
-4.0815318e-09
3.391708e-08
-5.3187017e-09
4.1298656e-08
-6.8671694e-09
4.977709e-08
-8.7891884e-09
5.9374642e-08
-1.1153275e-08
7.0064076e-08
-1.403176e-08
8.1757142e-08
-1.7496669e-08
9.42977e-08
-2.1613613e-08
1.0746375e-07
-2.6433726e-08
1.2098276e-07
-3.198412e-08
1.3456417e-07
-3.8257882e-08
1.4794922e-07
-4.5205483e-08
1.609787e-07
-5.272942e-08
1.7366431e-07
-6.0684351e-08
1.8626401e-07
-6.8883693e-08
1.9933682e-07
-7.7112989e-08
2.1377739e-07
-8.5148828e-08
2.3082284e-07
-9.2781338e-08
2.5203165e-07
-9.9837658e-08
2.7924606e-07
-1.0620415e-07
3.1454752e-07
-1.1184394e-07
3.6021516e-07
-1.1680818e-07
4.1870307e-07
-1.2123543e-07
4.9265715e-07
-1.2534154e-07
5.8496601e-07
-1.2939176e-07
6.9890942e-07
-1.3367863e-07
8.383108e-07
-1.3848237e-07
1.0078667e-06
-1.440974e-07
1.213299e-06
-1.508193e-07
1.4620225e-06
-1.5913255e-07
1.763316e-06
-1.6952611e-07
2.1304402e-06
-1.8192049e-07
2.5793745e-06
-1.9160463e-07
3.1208935e-06
-1.838723e-07
3.7011554e-06
-1.3506702e-07
4.0707669e-06
-4.8202366e-08
3.6208647e-06
1.6030789e-06
-4.3343441e-12
2.0872305e-10
-1.9198494e-11
7.0619158e-10
-4.8099577e-11
1.3564976e-09
-9.5496045e-11
2.1958278e-09
-1.670361e-10
3.2674918e-09
-2.6985047e-10
4.6228779e-09
-4.1291065e-10
6.3223056e-09
-6.0746155e-10
8.4357377e-09
-8.675388e-10
1.1043085e-08
-1.2105742e-09
1.4233927e-08
-1.6580966e-09
1.8106388e-08
-2.2365059e-09
2.2764714e-08
-2.9778962e-09
2.8315184e-08
-3.9208672e-09
3.4860051e-08
-5.1112144e-09
4.2489003e-08
-6.6023343e-09
5.126821e-08
-8.455112e-09
6.1227419e-08
-1.0736966e-08
7.2345929e-08
-1.3519676e-08
8.4539851e-08
-1.6875595e-08
9.765362e-08
-2.0871948e-08
1.1146011e-07
-2.556314e-08
1.2567395e-07
-3.0981482e-08
1.3998252e-07
-3.7127254e-08
1.5409499e-07
-4.3959785e-08
1.6781123e-07
-5.1391397e-08
1.8109592e-07
-5.9286438e-08
1.9415905e-07
-6.7466499e-08
2.0751688e-07
-7.5722323e-08
2.2203321e-07
-8.3831391e-08
2.3893191e-07
-9.1579358e-08
2.5977962e-07
-9.8782843e-08
2.8644955e-07
-1.053115e-07
3.2107618e-07
-1.1110633e-07
3.6600998e-07
-1.1619252e-07
4.2378927e-07
-1.2068209e-07
4.9714671e-07
-1.2476738e-07
5.8905131e-07
-1.2869752e-07
7.0283956e-07
-1.3275779e-07
8.4237107e-07
-1.3723149e-07
1.0123404e-06
-1.4242204e-07
1.2184895e-06
-1.4863965e-07
1.4682401e-06
-1.5635345e-07
1.7710298e-06
-1.6593659e-07
2.1400233e-06
-1.7690525e-07
2.5903431e-06
-1.8403965e-07
3.1280279e-06
-1.7312861e-07
3.6902443e-06
-1.2388525e-07
4.0215235e-06
-4.284113e-08
3.5398206e-06
1.5602378e-06
-4.1543412e-12
2.1287746e-10
-1.8403688e-11
7.2044093e-10
-4.611389e-11
1.3842079e-09
-9.1565855e-11
2.2412799e-09
-1.6018551e-10
3.3361113e-09
-2.5882611e-10
4.7215184e-09
-3.961149e-10
6.4595944e-09
-5.8287267e-10
8.6224956e-09
-8.3261559e-10
1.1292827e-08
-1.1621458e-09
1.4563457e-08
-1.5922351e-09
1.8536477e-08
-2.1483864e-09
2.3320866e-08
-2.861653e-09
2.9028451e-08
-3.7694529e-09
3.5767851e-08
-4.9162878e-09
4.3635837e-08
-6.3542093e-09
5.2706131e-08
-8.142808e-09
6.3016018e-08
-1.0348428e-08
7.4551548e-08
-1.3042227e-08
8.723365e-08
-1.62967e-08
1.0090809e-07
-2.018033e-08
1.1534374e-07
-2.475026e-08
1.3024388e-07
-3.0043281e-08
1.4527554e-07
-3.6065983e-08
1.601177e-07
-4.2785612e-08
1.7453086e-07
-5.0123406e-08
1.8843372e-07
-5.7952655e-08
2.019883e-07
-6.6102712e-08
2.1566694e-07
-7.4369587e-08
2.3030009e-07
-8.2532337e-08
2.4709467e-07
-9.0373547e-08
2.6762083e-07
-9.7701585e-08
2.9377758e-07
-1.0437254e-07
3.2774713e-07
-1.1030908e-07
3.7194653e-07
-1.1551465e-07
4.2899485e-07
-1.2007853e-07
5.0171057e-07
-1.2417237e-07
5.9314515e-07
-1.2803069e-07
7.0669787e-07
-1.3193155e-07
8.4627194e-07
-1.3616154e-07
1.0165704e-06
-1.4103106e-07
1.2233591e-06
-1.4686221e-07
1.4740712e-06
-1.5409445e-07
1.778262e-06
-1.6297442e-07
2.1489033e-06
-1.7263644e-07
2.6000052e-06
-1.7749883e-07
3.1328903e-06
-1.6395883e-07
3.6767043e-06
-1.1471021e-07
3.9722748e-06
-3.8793299e-08
3.4639037e-06
1.5214445e-06
-4.001287e-12
2.1687879e-10
-1.7726565e-11
7.3416615e-10
-4.441905e-11
1.4109004e-09
-8.8204052e-11
2.285065e-09
-1.5431096e-10
3.4022184e-09
-2.4934744e-10
4.8165548e-09
-3.8163299e-10
6.5918801e-09
-5.6160716e-10
8.8024698e-09
-8.0231593e-10
1.1533536e-08
-1.1199879e-09
1.4881129e-08
-1.5347027e-09
1.8951191e-08
-2.0711392e-09
2.3857302e-08
-2.7593872e-09
2.9716699e-08
-3.6357672e-09
3.6644231e-08
-4.7435694e-09
4.474364e-08
-6.1335725e-09
5.4096134e-08
-7.8641241e-09
6.474657e-08
-1.0000504e-08
7.6687928e-08
-1.2613192e-08
8.9846339e-08
-1.577468e-08
1.0406958e-07
-1.9554443e-08
1.191235e-07
-2.4011966e-08
1.347014e-07
-2.9188006e-08
1.5045158e-07
-3.5094853e-08
1.6602455e-07
-4.1707042e-08
1.8114305e-07
-4.8954189e-08
1.9568086e-07
-5.671821e-08
2.0975232e-07
-6.483625e-08
2.2378498e-07
-7.3110042e-08
2.3857388e-07
-8.1321184e-08
2.5530581e-07
-8.925066e-08
2.7555031e-07
-9.6700486e-08
3.0122739e-07
-1.0351532e-07
3.3456196e-07
-1.0960162e-07
3.7803284e-07
-1.1494277e-07
4.34336e-07
-1.1960621e-07
5.0637401e-07
-1.2374274e-07
5.9728168e-07
-1.2757123e-07
7.1052637e-07
-1.3136118e-07
8.5006186e-07
-1.354016e-07
1.0206108e-06
-1.4000944e-07
1.2279669e-06
-1.4551661e-07
1.4795784e-06
-1.5232519e-07
1.7850706e-06
-1.605502e-07
2.1571283e-06
-1.6897863e-07
2.6084336e-06
-1.7178528e-07
3.135697e-06
-1.5604595e-07
3.660965e-06
-1.070745e-07
3.9233034e-06
-3.5673283e-08
3.3925025e-06
1.4857712e-06
-3.8558983e-12
2.2073465e-10
-1.7083678e-11
7.4739387e-10
-4.2811463e-11
1.4366283e-09
-8.5019333e-11
2.327273e-09
-1.4875421e-10
3.4659534e-09
-2.4039536e-10
4.9081958e-09
-3.679781e-10
6.7194629e-09
-5.4159024e-10
8.9760821e-09
-7.7384642e-10
1.1765792e-08
-1.0804473e-09
1.518773e-08
-1.4808369e-09
1.9351581e-08
-1.9989371e-09
2.4375402e-08
-2.6639518e-09
3.0381713e-08
-3.5111871e-09
3.7491466e-08
-4.5828093e-09
4.5815262e-08
-5.928404e-09
5.5441729e-08
-7.6051412e-09
6.6423307e-08
-9.6772594e-09
7.8760046e-08
-1.2214536e-08
9.2383615e-08
-1.5289337e-08
1.0714438e-07
-1.8971908e-08
1.2280607e-07
-2.3323712e-08
1.3905321e-07
-2.8388978e-08
1.5551684e-07
-3.4185085e-08
1.7182065e-07
-4.0693174e-08
1.8765114e-07
-4.7850577e-08
2.0283827e-07
-5.5547297e-08
2.1744905e-07
-6.3627944e-08
2.3186562e-07
-7.1899985e-08
2.4684592e-07
-8.0147985e-08
2.6355381e-07
-8.8152241e-08
2.8355456e-07
-9.5709852e-08
3.08785e-07
-1.0265607e-07
3.4150817e-07
-1.0888361e-07
3.8426038e-07
-1.1435848e-07
4.3981087e-07
-1.1912886e-07
5.1114439e-07
-1.233266e-07
6.0147943e-07
-1.2715579e-07
7.1435555e-07
-1.3087707e-07
8.5378313e-07
-1.3478069e-07
1.0245145e-06
-1.3918785e-07
1.2323741e-06
-1.4443435e-07
1.4848249e-06
-1.5087625e-07
1.7915125e-06
-1.5849186e-07
2.1647439e-06
-1.6575789e-07
2.6156997e-06
-1.6670063e-07
3.1366397e-06
-1.4911544e-07
3.6433798e-06
-1.0061301e-07
3.8748009e-06
-3.320478e-08
3.3250942e-06
1.4525664e-06
-3.7265022e-12
2.244611e-10
-1.6511245e-11
7.6017859e-10
-4.1378971e-11
1.461496e-09
-8.2178582e-11
2.3680726e-09
-1.4379178e-10
3.5275665e-09
-2.3238992e-10
4.9967939e-09
-3.5574984e-10
6.8428228e-09
-5.2363746e-10
9.1439698e-09
-7.4827023e-10
1.1990425e-08
-1.0448653e-09
1.5484325e-08
-1.4322787e-09
1.9738994e-08
-1.9337316e-09
2.4876855e-08
-2.5776039e-09
3.1025585e-08
-3.3982543e-09
3.8312117e-08
-4.4367951e-09
4.6853803e-08
-5.7416848e-09
5.6746618e-08
-7.3689642e-09
6.8050585e-08
-9.3818552e-09
8.0772937e-08
-1.1849404e-08
9.4851164e-08
-1.4843763e-08
1.1013874e-07
-1.8435764e-08
1.2639807e-07
-2.2688563e-08
1.4330601e-07
-2.7649454e-08
1.6047773e-07
-3.3340417e-08
1.7751162e-07
-3.9748667e-08
1.9405939e-07
-4.6818743e-08
2.0990834e-07
-5.444834e-08
2.2507864e-07
-6.2489349e-08
2.3990663e-07
-7.0755105e-08
2.5511167e-07
-7.9033598e-08
2.718323e-07
-8.7105307e-08
2.9162627e-07
-9.4763633e-08
3.1644333e-07
-1.0183595e-07
3.485805e-07
-1.0820298e-07
3.906274e-07
-1.1381503e-07
4.4542293e-07
-1.1870241e-07
5.1603177e-07
-1.2297879e-07
6.057558e-07
-1.2683331e-07
7.1821007e-07
-1.3051712e-07
8.5746693e-07
-1.3431993e-07
1.0283173e-06
-1.3856512e-07
1.2366193e-06
-1.4358718e-07
1.4898469e-06
-1.4969068e-07
1.797616e-06
-1.5671633e-07
2.1717696e-06
-1.6287046e-07
2.6218538e-06
-1.6210784e-07
3.1358771e-06
-1.4296274e-07
3.6242347e-06
-9.5055118e-08
3.8268933e-06
-3.1193995e-08
3.2612331e-06
1.4213724e-06
-3.605151e-12
2.2806627e-10
-1.5974749e-11
7.7254828e-10
-4.0037266e-11
1.4855584e-09
-7.9519398e-11
2.4075546e-09
-1.3914909e-10
3.5871961e-09
-2.2490561e-10
5.0825502e-09
-3.4432508e-10
6.9622425e-09
-5.0687613e-10
9.306521e-09
-7.2440919e-10
1.2207958e-08
-1.0116924e-09
1.5771608e-08
-1.3870381e-09
2.011434e-08
-1.8730172e-09
2.5362834e-08
-2.4972442e-09
3.1649812e-08
-3.2931971e-09
3.9108069e-08
-4.3009984e-09
4.7861604e-08
-5.5680437e-09
5.8013664e-08
-7.1492989e-09
6.963184e-08
-9.107e-09
8.2730639e-08
-1.1509452e-08
9.7253616e-08
-1.4428518e-08
1.1305781e-07
-1.793546e-08
1.2990502e-07
-2.2094873e-08
1.4746542e-07
-2.6956761e-08
1.6533962e-07
-3.2547244e-08