/*--------------------------------*- C++ -*----------------------------------*\
| =========                 |                                                 |
| \\      /  F ield         | OpenFOAM: The Open Source CFD Toolbox           |
|  \\    /   O peration     | Version:  4.0                                   |
|   \\  /    A nd           | Web:      www.OpenFOAM.org                      |
|    \\/     M anipulation  |                                                 |
\*---------------------------------------------------------------------------*/
FoamFile
{
    version     2.0;
    format      ascii;
    class       volScalarField;
    location    "4000/fluid";
    object      Qin;
}
// * * * * * * * * * * * * * * * * * * * * * * * * * * * * * * * * * * * * * //

dimensions      [1 0 -3 0 0 0 0];

internalField   uniform 0;

boundaryField
{
    Outterwall
    {
        type            calculated;
        value           nonuniform List<scalar> 
100
(
518.353
523.05232
527.10496
530.52588
533.42757
535.89479
538.00854
539.83153
541.41859
542.81183
544.04624
545.14889
546.14188
547.04255
547.86508
548.62078
549.31898
549.96725
550.5719
551.13816
551.67042
552.17238
552.6472
553.09758
553.52584
553.93401
554.32382
554.69683
555.05438
555.39768
555.72778
556.04565
556.35213
556.64798
556.93391
557.21053
557.47842
557.7381
557.99004
558.23467
558.4724
558.70359
558.92858
559.14769
559.3612
559.56938
559.77249
559.97076
560.16441
560.35364
560.53864
560.7196
560.89667
561.07002
561.23979
561.40613
561.56916
561.72902
561.88581
562.03966
562.19066
562.33891
562.48452
562.62756
562.76814
562.90632
563.04218
563.17581
563.30726
563.43662
563.56393
563.68927
563.8127
563.93426
564.05401
564.17201
564.2883
564.40294
564.51597
564.62743
564.73737
564.84583
564.95286
565.0585
565.1628
565.26582
565.36762
565.46828
565.56792
565.6667
565.76485
565.86273
565.9609
566.06021
566.16199
566.26835
566.38226
566.50874
566.64764
566.81686
)
;
    }
    leftWedge
    {
        type            symmetry;
    }
    rigtWedge
    {
        type            symmetry;
    }
    Outlet
    {
        type            calculated;
        value           nonuniform List<scalar> 
50
(
7.4133823e-30
7.4133852e-30
7.4133879e-30
7.4133908e-30
7.413394e-30
7.4133974e-30
7.4134012e-30
7.4134054e-30
7.41341e-30
7.4134153e-30
7.413421e-30
7.4134274e-30
7.4134343e-30
7.4134418e-30
7.4134502e-30
7.4134593e-30
7.4134695e-30
7.4134807e-30
7.413493e-30
7.4135066e-30
7.4135217e-30
7.4135384e-30
7.4135569e-30
7.4135769e-30
7.4135979e-30
7.4136188e-30
7.4136383e-30
7.4136554e-30
7.4136696e-30
7.4136809e-30
7.4136896e-30
7.4136963e-30
7.4137016e-30
7.4137061e-30
7.41371e-30
7.4137138e-30
7.4137174e-30
7.413721e-30
7.4137246e-30
7.4137283e-30
7.413732e-30
7.4137358e-30
7.4137396e-30
7.4137435e-30
7.4137475e-30
7.4137515e-30
7.4137555e-30
7.4137597e-30
7.4137632e-30
7.4137702e-30
)
;
    }
    Inlet
    {
        type            calculated;
        value           uniform 0;
    }
    fluid_to_cilcen
    {
        type            calculated;
        value           nonuniform List<scalar> 
100
(
421.91959
421.91876
421.91792
421.91708
421.91624
421.9154
421.91456
421.91372
421.91288
421.91204
421.9112
421.91035
421.90951
421.90867
421.90783
421.90699
421.90615
421.90531
421.90447
421.90363
421.90279
421.90195
421.90111
421.90027
421.89943
421.89859
421.89775
421.89691
421.89607
421.89522
421.89438
421.89354
421.8927
421.89186
421.89102
421.89018
421.88934
421.8885
421.88767
421.88683
421.88599
421.88515
421.88431
421.88347
421.88264
421.8818
421.88097
421.88013
421.8793
421.87847
421.87763
421.8768
421.87598
421.87515
421.87433
421.8735
421.87268
421.87187
421.87105
421.87024
421.86943
421.86862
421.86782
421.86703
421.86623
421.86544
421.86466
421.86388
421.86311
421.86234
421.86158
421.86082
421.86007
421.85933
421.8586
421.85788
421.85716
421.85645
421.85576
421.85507
421.85439
421.85373
421.85307
421.85243
421.8518
421.85118
421.85058
421.84999
421.84942
421.84886
421.84832
421.84779
421.84728
421.84679
421.84632
421.84587
421.84544
421.84503
421.84464
421.84421
)
;
    }
}


// ************************************************************************* //
