/*--------------------------------*- C++ -*----------------------------------*\
| =========                 |                                                 |
| \\      /  F ield         | OpenFOAM: The Open Source CFD Toolbox           |
|  \\    /   O peration     | Version:  4.0                                   |
|   \\  /    A nd           | Web:      www.OpenFOAM.org                      |
|    \\/     M anipulation  |                                                 |
\*---------------------------------------------------------------------------*/
FoamFile
{
    version     2.0;
    format      ascii;
    class       volScalarField;
    location    "4000/fluid";
    object      Qr;
}
// * * * * * * * * * * * * * * * * * * * * * * * * * * * * * * * * * * * * * //

dimensions      [1 0 -3 0 0 0 0];

internalField   uniform 0;

boundaryField
{
    Outterwall
    {
        type            calculated;
        value           nonuniform List<scalar> 
100
(
96.433412
101.13356
105.18704
108.60879
111.51133
113.97939
116.09398
117.91781
119.50571
120.89979
122.13505
123.23854
124.23236
125.13388
125.95724
126.71379
127.41283
128.06194
128.66743
129.23453
129.76763
130.27043
130.74609
131.19731
131.62642
132.03542
132.42607
132.79992
133.15832
133.50245
133.8334
134.1521
134.45942
134.75612
135.04289
135.32035
135.58908
135.8496
136.10238
136.34785
136.58641
136.81844
137.04427
137.26421
137.47856
137.68758
137.89153
138.09063
138.28512
138.47518
138.66101
138.84279
139.02069
139.19487
139.36547
139.53263
139.69648
139.85715
140.01476
140.16942
140.32123
140.47029
140.6167
140.76054
140.90191
141.04088
141.17753
141.31193
141.44416
141.57428
141.70236
141.82846
141.95263
142.07493
142.19542
142.31414
142.43115
142.5465
142.66022
142.77237
142.88299
142.99212
143.0998
143.20609
143.31102
143.41465
143.51705
143.61831
143.71852
143.81786
143.91656
144.01497
144.11364
144.21345
144.3157
144.42252
144.53686
144.66376
144.80305
144.9727
)
;
    }
    leftWedge
    {
        type            symmetry;
    }
    rigtWedge
    {
        type            symmetry;
    }
    Outlet
    {
        type            calculated;
        value           nonuniform List<scalar> 
50
(
7.4133823e-30
7.4133852e-30
7.4133879e-30
7.4133908e-30
7.413394e-30
7.4133974e-30
7.4134012e-30
7.4134054e-30
7.41341e-30
7.4134153e-30
7.413421e-30
7.4134274e-30
7.4134343e-30
7.4134418e-30
7.4134502e-30
7.4134593e-30
7.4134695e-30
7.4134807e-30
7.413493e-30
7.4135066e-30
7.4135217e-30
7.4135384e-30
7.4135569e-30
7.4135769e-30
7.4135979e-30
7.4136188e-30
7.4136383e-30
7.4136554e-30
7.4136696e-30
7.4136809e-30
7.4136896e-30
7.4136963e-30
7.4137016e-30
7.4137061e-30
7.41371e-30
7.4137138e-30
7.4137174e-30
7.413721e-30
7.4137246e-30
7.4137283e-30
7.413732e-30
7.4137358e-30
7.4137396e-30
7.4137435e-30
7.4137475e-30
7.4137515e-30
7.4137555e-30
7.4137597e-30
7.4137632e-30
7.4137702e-30
)
;
    }
    Inlet
    {
        type            calculated;
        value           nonuniform List<scalar> 
50
(
-6.3277868e-30
-6.3277868e-30
-6.3277868e-30
-6.3277868e-30
-6.3277868e-30
-6.3277868e-30
-6.3277868e-30
-6.3277868e-30
-6.3277867e-30
-6.3277867e-30
-6.3277867e-30
-6.3277867e-30
-6.3277867e-30
-6.3277867e-30
-6.3277867e-30
-6.3277867e-30
-6.3277867e-30
-6.3277867e-30
-6.3277867e-30
-6.3277867e-30
-6.3277867e-30
-6.3277867e-30
-6.3277867e-30
-6.3277867e-30
-6.3277867e-30
-6.3277867e-30
-6.3277867e-30
-6.3277867e-30
-6.3277867e-30
-6.3277867e-30
-6.3277867e-30
-6.3277867e-30
-6.3277867e-30
-6.3277867e-30
-6.3277867e-30
-6.3277867e-30
-6.3277867e-30
-6.3277867e-30
-6.3277867e-30
-6.3277867e-30
-6.3277867e-30
-6.3277867e-30
-6.3277867e-30
-6.3277867e-30
-6.3277867e-30
-6.3277867e-30
-6.3277867e-30
-6.3277867e-30
-6.3277867e-30
-6.3277868e-30
)
;
    }
    fluid_to_cilcen
    {
        type            calculated;
        value           nonuniform List<scalar> 
100
(
-96.429947
-101.13042
-105.18422
-108.60626
-111.50904
-113.9773
-116.09205
-117.91602
-119.50403
-120.89819
-122.13351
-123.23704
-124.23088
-125.1324
-125.95574
-126.71225
-127.41123
-128.06027
-128.66566
-129.23265
-129.76561
-130.26826
-130.74376
-131.19479
-131.62369
-132.03248
-132.42289
-132.79649
-133.15461
-133.49846
-133.8291
-134.14748
-134.45446
-134.75081
-135.03721
-135.31429
-135.58262
-135.84273
-136.09508
-136.34011
-136.57822
-136.80978
-137.03513
-137.25458
-137.46842
-137.67692
-137.88034
-138.0789
-138.27283
-138.46233
-138.64759
-138.82879
-139.00609
-139.17966
-139.34964
-139.51618
-139.67939
-139.83942
-139.99638
-140.15037
-140.30151
-140.44989
-140.59561
-140.73876
-140.87943
-141.01769
-141.15362
-141.2873
-141.4188
-141.54818
-141.67552
-141.80086
-141.92427
-142.04581
-142.16553
-142.28348
-142.39971
-142.51427
-142.6272
-142.73855
-142.84837
-142.95669
-143.06356
-143.16903
-143.27313
-143.37594
-143.47751
-143.57792
-143.67729
-143.77577
-143.8736
-143.97114
-144.06892
-144.16781
-144.26913
-144.37497
-144.48829
-144.6141
-144.75226
-144.92068
)
;
    }
}


// ************************************************************************* //
