/*--------------------------------*- C++ -*----------------------------------*\
| =========                 |                                                 |
| \\      /  F ield         | OpenFOAM: The Open Source CFD Toolbox           |
|  \\    /   O peration     | Version:  4.0                                   |
|   \\  /    A nd           | Web:      www.OpenFOAM.org                      |
|    \\/     M anipulation  |                                                 |
\*---------------------------------------------------------------------------*/
FoamFile
{
    version     2.0;
    format      ascii;
    class       volScalarField;
    location    "4000/fluid";
    object      rho;
}
// * * * * * * * * * * * * * * * * * * * * * * * * * * * * * * * * * * * * * //

dimensions      [1 -3 0 0 0 0 0];

internalField   nonuniform List<scalar> 
5000
(
1.140713
1.1438478
1.1471877
1.1507192
1.1544212
1.1582642
1.1622099
1.1662113
1.170214
1.1741578
1.1779791
1.1816149
1.1850062
1.1881021
1.1908639
1.1932672
1.1953038
1.1969814
1.1983219
1.1993585
1.2001321
1.2006874
1.201069
1.2013188
1.2014732
1.2015626
1.2016102
1.201633
1.2016426
1.2016457
1.2016462
1.201646
1.2016458
1.2016456
1.2016456
1.2016455
1.2016455
1.2016455
1.2016455
1.2016455
1.2016455
1.2016455
1.2016455
1.2016455
1.2016455
1.2016455
1.2016455
1.2016455
1.2016455
1.2016455
1.1374712
1.1394169
1.1415084
1.143757
1.1461739
1.1487694
1.1515518
1.1545254
1.1576888
1.1610322
1.1645354
1.1681656
1.1718765
1.1756086
1.1792911
1.1828464
1.1861955
1.1892658
1.191998
1.1943523
1.196312
1.1978838
1.1990957
1.1999912
1.2006231
1.2010472
1.2013163
1.2014767
1.2015657
1.201611
1.2016319
1.2016404
1.2016432
1.201644
1.2016441
1.2016441
1.201644
1.201644
1.201644
1.201644
1.201644
1.201644
1.201644
1.201644
1.201644
1.201644
1.201644
1.201644
1.201644
1.201644
1.1351746
1.1370551
1.1390696
1.1412233
1.1435211
1.1459671
1.1485646
1.1513157
1.1542205
1.1572763
1.1604762
1.1638076
1.1672504
1.1707745
1.174339
1.1778913
1.1813687
1.1847015
1.1878186
1.1906548
1.1931577
1.1952941
1.1970535
1.1984478
1.1995083
1.2002802
1.2008158
1.2011685
1.2013877
1.2015153
1.2015842
1.2016183
1.2016336
1.2016397
1.2016418
1.2016424
1.2016425
1.2016425
1.2016425
1.2016425
1.2016425
1.2016425
1.2016425
1.2016425
1.2016425
1.2016425
1.2016425
1.2016425
1.2016425
1.2016425
1.1332658
1.135119
1.137104
1.1392258
1.1414887
1.143896
1.14645
1.149151
1.1519978
1.1549862
1.1581088
1.1613541
1.1647053
1.1681395
1.1716259
1.1751254
1.1785902
1.1819643
1.1851866
1.1881945
1.1909303
1.193347
1.1954144
1.1971224
1.1984814
1.1995199
1.2002798
1.2008102
1.2011618
1.2013817
1.2015106
1.2015807
1.2016157
1.2016315
1.2016379
1.2016402
1.2016408
1.201641
1.201641
1.201641
1.201641
1.201641
1.201641
1.201641
1.201641
1.201641
1.201641
1.201641
1.201641
1.201641
1.1316577
1.1334855
1.1354433
1.1375361
1.139768
1.1421426
1.1446622
1.1473274
1.1501371
1.1530876
1.1561721
1.1593797
1.1626952
1.1660976
1.1695593
1.1730461
1.1765158
1.1799197
1.1832033
1.186309
1.1891809
1.1917691
1.1940358
1.1959593
1.1975365
1.198783
1.1997299
1.2004189
1.2008975
1.2012133
1.2014099
1.2015246
1.2015867
1.2016175
1.2016313
1.2016369
1.2016388
1.2016394
1.2016395
1.2016395
1.2016395
1.2016395
1.2016395
1.2016395
1.2016395
1.2016395
1.2016395
1.2016395
1.2016395
1.2016395
1.1302997
1.1321076
1.1340442
1.1361142
1.138322
1.1406712
1.1431641
1.145802
1.1485839
1.1515068
1.1545646
1.1577478
1.1610422
1.1644286
1.1678819
1.1713701
1.1748545
1.1782896
1.1816244
1.1848045
1.1877754
1.1904866
1.1928967
1.1949779
1.196719
1.1981265
1.1992231
1.2000443
1.2006333
1.2010364
1.2012981
1.2014584
1.2015501
1.2015986
1.2016221
1.2016323
1.2016362
1.2016375
1.2016379
1.201638
1.201638
1.201638
1.201638
1.201638
1.201638
1.201638
1.201638
1.201638
1.201638
1.201638
1.1291416
1.1309311
1.1328479
1.1348968
1.1370823
1.1394079
1.1418762
1.1444887
1.1472448
1.1501422
1.1531754
1.156336
1.1596112
1.1629834
1.1664292
1.1699192
1.1734169
1.1768794
1.1802581
1.1835003
1.1865524
1.1893633
1.1918896
1.194099
1.1959747
1.1975165
1.1987407
1.1996773
1.2003657
1.2008502
1.2011752
1.2013818
1.2015054
1.2015742
1.2016095
1.201626
1.2016329
1.2016355
1.2016363
1.2016365
1.2016365
1.2016365
1.2016365
1.2016365
1.2016365
1.2016365
1.2016365
1.2016365
1.2016365
1.2016365
1.1281472
1.129921
1.1318209
1.1338517
1.136018
1.1383233
1.1407705
1.1433611
1.1460951
1.1489702
1.1519821
1.1551228
1.1583807
1.1617396
1.165178
1.1686679
1.1721753
1.1756592
1.1790732
1.1823659
1.1854846
1.1883778
1.1910002
1.1933164
1.195305
1.1969608
1.1982946
1.1993318
1.2001083
1.2006665
1.2010501
1.201301
1.2014561
1.201546
1.2015944
1.2016182
1.2016288
1.201633
1.2016345
1.2016349
1.201635
1.201635
1.201635
1.201635
1.201635
1.201635
1.201635
1.201635
1.201635
1.201635
1.1272843
1.1290432
1.130927
1.1329408
1.135089
1.1373752
1.1398024
1.1423723
1.1450851
1.1479392
1.1509304
1.1540518
1.1572926
1.1606379
1.1640674
1.1675551
1.1710685
1.1745688
1.1780111
1.1813456
1.1845202
1.1874833
1.190188
1.1925965
1.1946836
1.1964396
1.1978709
1.1989987
1.1998558
1.2004824
1.2009216
1.2012156
1.2014023
1.2015141
1.2015765
1.2016087
1.2016238
1.2016302
1.2016325
1.2016333
1.2016335
1.2016335
1.2016335
1.2016335
1.2016335
1.2016335
1.2016335
1.2016335
1.2016335
1.2016335
1.1265289
1.1282743
1.1301437
1.1321421
1.1342738
1.1365427
1.1389517
1.1415028
1.1441963
1.1470309
1.150003
1.1531063
1.1563308
1.1596626
1.1630825
1.1665662
1.1700827
1.1735949
1.1770595
1.1804281
1.1836493
1.1866716
1.189447
1.1919355
1.1941089
1.1959536
1.1974721
1.1986818
1.1996125
1.2003023
1.2007937
1.2011286
1.201346
1.2014796
1.2015566
1.2015978
1.2016179
1.2016269
1.2016304
1.2016316
1.2016319
1.201632
1.201632
1.201632
1.201632
1.201632
1.201632
1.201632
1.201632
1.201632
1.1258611
1.1275938
1.1294496
1.1314334
1.1335496
1.135802
1.1381938
1.140727
1.1434021
1.1462181
1.1491719
1.1522576
1.155466
1.158784
1.1621938
1.1656719
1.1691891
1.1727098
1.1761921
1.1795889
1.1828497
1.1859229
1.1887599
1.191319
1.1935693
1.195494
1.1970917
1.1983765
1.1993753
1.2001245
1.2006653
1.2010397
1.2012873
1.2014427
1.2015346
1.2015853
1.2016111
1.2016231
1.201628
1.2016298
1.2016303
1.2016305
1.2016305
1.2016305
1.2016305
1.2016305
1.2016305
1.2016305
1.2016305
1.2016305
1.1252658
1.1269868
1.1288299
1.1308002
1.132902
1.1351393
1.1375151
1.1400316
1.1426895
1.1454882
1.1484247
1.1514936
1.1546865
1.1579909
1.16139
1.1648616
1.1683777
1.171904
1.1754001
1.1788201
1.1821143
1.1852315
1.1881224
1.190744
1.1930631
1.1950598
1.1967297
1.1980836
1.1991458
1.1999506
1.2005382
1.2009504
1.2012271
1.2014041
1.2015111
1.2015717
1.2016035
1.2016188
1.2016254
1.2016279
1.2016287
1.201629
1.201629
1.201629
1.201629
1.201629
1.201629
1.201629
1.201629
1.201629
1.1247306
1.1264405
1.1282717
1.1302293
1.1323175
1.1345404
1.1369011
1.1394018
1.1420435
1.1448256
1.1477455
1.1507983
1.1539761
1.157267
1.1606552
1.1641195
1.167633
1.1711628
1.1746697
1.1781091
1.1814319
1.1845874
1.1875259
1.1902033
1.1925844
1.1946468
1.1963831
1.1978011
1.1989225
1.1997798
1.200412
1.2008605
1.2011657
1.2013639
1.2014861
1.2015568
1.201595
1.201614
1.2016225
1.2016259
1.2016271
1.2016274
1.2016275
1.2016275
1.2016275
1.2016275
1.2016275
1.2016275
1.2016275
1.2016275
1.124246
1.1259454
1.1277656
1.1297112
1.1317868
1.1339962
1.1363428
1.1388287
1.141455
1.1442215
1.1471257
1.1501631
1.1533263
1.1566041
1.1599813
1.1634377
1.1669476
1.1704791
1.1739944
1.1774497
1.180797
1.1839859
1.1869667
1.1896941
1.1921314
1.1942538
1.1960513
1.1975288
1.1987058
1.1996127
1.2002873
1.2007708
1.2011036
1.2013227
1.2014599
1.201541
1.2015858
1.2016087
1.2016193
1.2016237
1.2016254
1.2016259
1.201626
1.201626
1.201626
1.201626
1.201626
1.201626
1.201626
1.201626
1.1238039
1.1254936
1.1273032
1.1292377
1.1313013
1.1334981
1.1358312
1.1383031
1.140915
1.1436665
1.1465558
1.1495785
1.1527276
1.1559925
1.1593587
1.162807
1.1663124
1.1698443
1.1733659
1.1768345
1.180203
1.1834213
1.1864398
1.1892124
1.1917008
1.1938784
1.1957325
1.1972658
1.198495
1.1994489
1.2001642
1.2006814
1.201041
1.2012806
1.2014328
1.2015243
1.2015759
1.2016029
1.2016159
1.2016214
1.2016236
1.2016243
1.2016245
1.2016245
1.2016245
1.2016245
1.2016245
1.2016245
1.2016245
1.2016245
1.1233982
1.1250788
1.1268786
1.1288024
1.1308548
1.1330396
1.1353602
1.1378189
1.140417
1.1431545
1.1460296
1.1490382
1.1521737
1.1554262
1.1587816
1.1622214
1.1657218
1.169253
1.1727792
1.1762589
1.1796457
1.18289
1.1859422
1.1887557
1.191291
1.1935194
1.1954262
1.1970115
1.1982901
1.1992886
1.2000428
1.2005925
1.2009782
1.2012378
1.2014049
1.2015068
1.2015654
1.2015967
1.2016121
1.201619
1.2016217
1.2016227
1.201623
1.201623
1.201623
1.201623
1.201623
1.201623
1.201623
1.201623
1.1230239
1.1246957
1.1264862
1.1284001
1.1304418
1.1326154
1.134924
1.1373702
1.1399554
1.1426795
1.1455411
1.1485362
1.1516587
1.154899
1.1582437
1.1616751
1.16517
1.1686996
1.1722292
1.1757181
1.1791208
1.1823882
1.1854708
1.1883215
1.1908997
1.1931752
1.1951312
1.1967655
1.1980906
1.1991318
1.1999232
1.2005042
1.2009152
1.2011946
1.2013762
1.2014886
1.2015543
1.2015901
1.2016082
1.2016164
1.2016198
1.201621
1.2016214
1.2016215
1.2016215
1.2016215
1.2016215
1.2016215
1.2016215
1.2016215
1.1226766
1.1243403
1.126122
1.1280264
1.1300581
1.132221
1.1345184
1.1369528
1.1395256
1.1422371
1.1450857
1.148068
1.151178
1.1544066
1.1577409
1.1611637
1.1646528
1.1681802
1.171712
1.1752086
1.1786251
1.1819131
1.1850231
1.1879078
1.1905256
1.1928449
1.1948468
1.1965271
1.1978965
1.1989782
1.1998054
1.2004166
1.2008523
1.2011509
1.2013471
1.2014699
1.2015427
1.2015831
1.2016039
1.2016137
1.2016178
1.2016194
1.2016199
1.20162
1.20162
1.20162
1.20162
1.20162
1.20162
1.20162
1.122353
1.1240089
1.1257823
1.1276778
1.1297
1.1318528
1.1341395
1.1365626
1.1391238
1.1418232
1.1446595
1.1476295
1.1507275
1.1539447
1.1572688
1.1606832
1.1641663
1.1676909
1.1712241
1.174727
1.1781556
1.1814621
1.184597
1.1875128
1.1901672
1.1925272
1.1945721
1.196296
1.1977073
1.1988279
1.1996894
1.20033
1.2007896
1.2011071
1.2013175
1.2014507
1.2015306
1.2015757
1.2015994
1.2016108
1.2016158
1.2016177
1.2016183
1.2016185
1.2016185
1.2016185
1.2016185
1.2016185
1.2016185
1.2016185
1.1220502
1.1236988
1.1254642
1.1273513
1.1293645
1.1315077
1.1337842
1.1361967
1.1387467
1.1414346
1.1442592
1.1472175
1.1503039
1.1535102
1.1568244
1.1602304
1.1637073
1.1672288
1.1707626
1.1742708
1.17771
1.1810329
1.1841905
1.1871349
1.1898232
1.1922212
1.1943067
1.1960717
1.197523
1.1986807
1.1995753
1.2002442
1.2007271
1.2010631
1.2012876
1.201431
1.2015182
1.201568
1.2015947
1.2016078
1.2016136
1.2016159
1.2016167
1.201617
1.201617
1.201617
1.201617
1.201617
1.201617
1.201617
1.1217658
1.1234074
1.1251653
1.1270444
1.129049
1.1311831
1.13345
1.1358523
1.1383917
1.1410686
1.1438821
1.1468291
1.1499044
1.1531001
1.1564046
1.1598023
1.1632731
1.166791
1.1703249
1.1738374
1.1772858
1.1806236
1.1838019
1.1867728
1.1894926
1.1919262
1.1940499
1.1958539
1.1973432
1.1985365
1.199463
1.2001593
1.2006649
1.201019
1.2012574
1.201411
1.2015054
1.2015601
1.2015897
1.2016046
1.2016114
1.2016142
1.2016151
1.2016155
1.2016155
1.2016155
1.2016155
1.2016155
1.2016155
1.2016155
1.1214977
1.1231327
1.1248835
1.126755
1.1287514
1.1308768
1.1331345
1.1355271
1.1380564
1.1407229
1.1435256
1.1464618
1.1495265
1.152712
1.1560071
1.1593967
1.1628612
1.1663754
1.1699088
1.1734247
1.1768814
1.1802326
1.1834299
1.1864252
1.1891744
1.1916414
1.193801
1.1956421
1.1971678
1.1983952
1.1993525
1.2000754
1.2006032
1.2009749
1.2012269
1.2013907
1.2014922
1.2015518
1.2015846
1.2016013
1.2016091
1.2016123
1.2016135
1.2016139
1.201614
1.201614
1.201614
1.201614
1.201614
1.201614
1.1212444
1.122873
1.124617
1.1264812
1.1284698
1.1305869
1.1328359
1.1352193
1.1377389
1.1403954
1.1431879
1.1461137
1.1491682
1.1523438
1.1556297
1.1590114
1.1624696
1.1659799
1.1695124
1.1730311
1.176495
1.1798584
1.183073
1.186091
1.1888677
1.191366
1.1935598
1.195436
1.1969965
1.1982568
1.1992438
1.1999925
1.2005418
1.2009309
1.2011964
1.2013702
1.2014788
1.2015433
1.2015792
1.2015978
1.2016067
1.2016105
1.2016119
1.2016124
1.2016125
1.2016125
1.2016126
1.2016126
1.2016125
1.2016125
1.1210042
1.1226268
1.1243643
1.1262215
1.1282027
1.1303119
1.1325525
1.1349271
1.1374375
1.1400844
1.142867
1.1457829
1.1488275
1.1519936
1.1552707
1.1586446
1.1620965
1.1656028
1.1691339
1.1726549
1.1761251
1.1794995
1.1827302
1.1857692
1.1885716
1.1910995
1.1933256
1.1952354
1.1968292
1.198121
1.1991367
1.1999105
1.2004809
1.200887
1.2011656
1.2013494
1.2014652
1.2015345
1.2015737
1.2015943
1.2016042
1.2016086
1.2016103
1.2016108
1.201611
1.201611
1.2016111
1.2016111
1.2016111
1.2016111
1.1207759
1.1223927
1.124124
1.1259746
1.1279487
1.1300503
1.1322829
1.134649
1.1371506
1.1397883
1.1425615
1.1454679
1.148503
1.1516598
1.1549283
1.1582946
1.1617403
1.1652424
1.168772
1.1722947
1.1757705
1.1791549
1.1824004
1.185459
1.1882855
1.1908414
1.193098
1.1950399
1.1966656
1.1979878
1.1990314
1.1998295
1.2004204
1.2008431
1.2011348
1.2013284
1.2014513
1.2015256
1.201568
1.2015906
1.2016017
1.2016066
1.2016086
1.2016093
1.2016095
1.2016095
1.2016096
1.2016096
1.2016096
1.2016096
1.1205585
1.1221698
1.1238951
1.1257393
1.1277066
1.129801
1.1320259
1.1343839
1.136877
1.1395059
1.14227
1.1451672
1.1481931
1.1513411
1.1546012
1.15796
1.1613997
1.1648975
1.1684253
1.1719492
1.17543
1.1788235
1.1820827
1.1851595
1.1880088
1.190591
1.1928768
1.1948492
1.1965056
1.1978572
1.1989276
1.1997494
1.2003603
1.2007994
1.201104
1.2013072
1.2014372
1.2015164
1.2015621
1.2015867
1.201599
1.2016046
1.2016069
1.2016077
1.201608
1.201608
1.2016081
1.2016081
1.2016081
1.2016081
1.120351
1.1219569
1.1236766
1.1255146
1.1274754
1.1295629
1.1317804
1.1341306
1.1366156
1.139236
1.1419914
1.1448797
1.1478968
1.1510362
1.1542882
1.1576396
1.1610733
1.1645668
1.1680925
1.1716174
1.1751025
1.1785043
1.1817762
1.1848702
1.1877407
1.190348
1.1926615
1.1946632
1.196349
1.1977289
1.1988254
1.1996703
1.2003008
1.2007559
1.2010731
1.2012859
1.201423
1.2015071
1.2015561
1.2015828
1.2015963
1.2016026
1.2016052
1.2016062
1.2016065
1.2016065
1.2016066
1.2016066
1.2016066
1.2016066
1.1201525
1.1217533
1.1234675
1.1252997
1.1272542
1.129335
1.1315454
1.1338882
1.1363653
1.1389776
1.1417246
1.1446044
1.1476129
1.1507439
1.153988
1.1573324
1.16076
1.1642492
1.1677728
1.1712981
1.1747871
1.1781966
1.1814802
1.1845902
1.1874809
1.1901119
1.1924519
1.1944815
1.1961956
1.1976029
1.1987247
1.1995921
1.2002417
1.2007126
1.2010422
1.2012645
1.2014085
1.2014976
1.2015499
1.2015788
1.2015936
1.2016005
1.2016035
1.2016046
1.2016049
1.201605
1.2016051
1.2016051
1.2016051
1.2016051
1.1199623
1.1215582
1.1232671
1.1250937
1.1270422
1.1291165
1.1313201
1.1336557
1.1361253
1.1387297
1.1414687
1.1443402
1.1473405
1.1504634
1.1536999
1.1570373
1.160459
1.1639438
1.1674651
1.1709907
1.174483
1.1778994
1.181194
1.1843191
1.1872288
1.1898823
1.1922475
1.1943041
1.1960454
1.1974792
1.1986255
1.1995148
1.2001831
1.2006694
1.2010113
1.201243
1.201394
1.201488
1.2015436
1.2015746
1.2015907
1.2015984
1.2016017
1.201603
1.2016034
1.2016035
1.2016036
1.2016036
1.2016036
1.2016036
1.1197797
1.1213709
1.1230748
1.1248959
1.1268386
1.1289068
1.1311038
1.1334325
1.1358948
1.1384917
1.1412228
1.1440864
1.1470787
1.1501938
1.1534228
1.1567534
1.1601693
1.1636498
1.1671686
1.1706942
1.1741894
1.1776122
1.180917
1.1840562
1.186984
1.1896589
1.1920483
1.1941306
1.1958982
1.1973575
1.1985278
1.1994383
1.2001251
1.2006265
1.2009805
1.2012215
1.2013793
1.2014782
1.2015372
1.2015704
1.2015878
1.2015963
1.2015999
1.2016014
1.2016019
1.201602
1.2016021
1.2016021
1.2016021
1.2016021
1.1196043
1.1211909
1.1228899
1.1247058
1.1266429
1.1287051
1.1308958
1.1332178
1.1356731
1.1382627
1.1409863
1.1438421
1.1468268
1.1499342
1.153156
1.1564799
1.1598902
1.1633663
1.1668825
1.1704079
1.1739057
1.1773344
1.1806486
1.1838012
1.186746
1.1894414
1.1918538
1.1939609
1.1957539
1.197238
1.1984314
1.1993628
1.2000675
1.2005838
1.2009496
1.2011998
1.2013645
1.2014683
1.2015307
1.2015661
1.2015848
1.201594
1.2015981
1.2015998
1.2016003
1.2016005
1.2016005
1.2016006
1.2016006
1.2016006
1.1194354
1.1210177
1.1227119
1.1245227
1.1264544
1.1285109
1.1306955
1.1330111
1.1354596
1.1380421
1.1407584
1.1436068
1.146584
1.1496841
1.1528987
1.1562162
1.1596209
1.1630926
1.1666062
1.1701311
1.1736312
1.1770653
1.1803884
1.1835535
1.1865145
1.1892294
1.1916639
1.1937949
1.1956123
1.1971204
1.1983364
1.1992881
1.2000103
1.2005413
1.2009189
1.2011782
1.2013496
1.2014583
1.201524
1.2015617
1.2015818
1.2015918
1.2015963
1.2015981
1.2015988
1.201599
1.201599
1.2015991
1.2015991
1.2015991
1.1192726
1.1208506
1.1225403
1.1243463
1.1262728
1.1283237
1.1305024
1.1328117
1.1352537
1.1378294
1.1405386
1.1433799
1.1463497
1.1494427
1.1526505
1.1559616
1.1593607
1.1628281
1.1663391
1.1698634
1.1733654
1.1768044
1.1801358
1.1833128
1.1862892
1.1890227
1.1914784
1.1936323
1.1954734
1.1970048
1.1982427
1.1992142
1.1999537
1.200499
1.2008882
1.2011565
1.2013346
1.2014482
1.2015173
1.2015571
1.2015787
1.2015895
1.2015945
1.2015965
1.2015972
1.2015975
1.2015975
1.2015976
1.2015976
1.2015976
1.1191155
1.1206894
1.1223747
1.124176
1.1260974
1.1281429
1.130316
1.1326193
1.1350549
1.137624
1.1403264
1.1431607
1.1461235
1.1492095
1.1524106
1.1557155
1.1591092
1.1625723
1.1660805
1.169604
1.1731077
1.1765513
1.1798905
1.1830787
1.1860697
1.188821
1.191297
1.193473
1.195337
1.196891
1.1981503
1.1991412
1.1998975
1.200457
1.2008576
1.2011347
1.2013196
1.201438
1.2015105
1.2015526
1.2015755
1.2015872
1.2015926
1.2015949
1.2015957
1.201596
1.201596
1.2015961
1.2015961
1.2015961
1.1189637
1.1205337
1.1222147
1.1240114
1.125928
1.1279683
1.1301358
1.1324333
1.1348628
1.1374255
1.1401213
1.1429488
1.1459047
1.148984
1.1521785
1.1554773
1.1588657
1.1623246
1.16583
1.1693526
1.1728577
1.1763055
1.179652
1.1828508
1.1858558
1.188624
1.1911196
1.1933169
1.195203
1.196779
1.1980592
1.199069
1.1998418
1.2004152
1.200827
1.201113
1.2013045
1.2014277
1.2015036
1.2015479
1.2015723
1.2015848
1.2015907
1.2015932
1.2015941
1.2015944
1.2015945
1.2015946
1.2015946
1.2015946
1.1188169
1.1203831
1.12206
1.1238522
1.125764
1.1277993
1.1299615
1.1322534
1.1346769
1.1372334
1.1399228
1.1427437
1.145693
1.1487656
1.1519538
1.1552467
1.1586299
1.1620846
1.1655871
1.1691087
1.172615
1.1760666
1.17942
1.1826288
1.1856471
1.1884316
1.190946
1.1931639
1.1950714
1.1966687
1.1979692
1.1989975
1.1997866
1.2003736
1.2007965
1.2010912
1.2012893
1.2014173
1.2014965
1.2015432
1.201569
1.2015824
1.2015888
1.2015915
1.2015926
1.2015929
1.201593
1.2015931
1.2015931
1.2015931
1.1186748
1.1202372
1.1219101
1.1236981
1.1256053
1.1276357
1.1297927
1.1320791
1.1344969
1.1370474
1.1397305
1.142545
1.1454879
1.1485541
1.1517361
1.1550232
1.1584012
1.1618517
1.1653514
1.1688718
1.1723791
1.1758343
1.1791941
1.1824125
1.1854434
1.1882435
1.190776
1.1930138
1.1949421
1.1965602
1.1978804
1.1989269
1.1997318
1.2003323
1.2007662
1.2010694
1.201274
1.2014069
1.2014895
1.2015384
1.2015657
1.20158
1.2015868
1.2015898
1.201591
1.2015914
1.2015915
1.2015916
1.2015916
1.2015916
1.1185371
1.1200959
1.1217649
1.1235487
1.1254515
1.1274772
1.1296291
1.1319102
1.1343224
1.136867
1.1395441
1.1423524
1.145289
1.148349
1.1515249
1.1548063
1.1581793
1.1616256
1.1651224
1.1686416
1.1721497
1.1756082
1.178974
1.1822015
1.1852445
1.1880596
1.1906095
1.1928665
1.194815
1.1964532
1.1977928
1.1988569
1.1996775
1.2002912
1.2007359
1.2010477
1.2012587
1.2013963
1.2014823
1.2015335
1.2015623
1.2015775
1.2015849
1.2015881
1.2015894
1.2015899
1.20159
1.2015901
1.2015901
1.2015901
1.1184035
1.1199588
1.121624
1.1234038
1.1253023
1.1273234
1.1294704
1.1317463
1.1341531
1.136692
1.1393632
1.1421655
1.1450959
1.1481498
1.1513198
1.1545957
1.1579637
1.1614059
1.1648999
1.1684177
1.1719265
1.175388
1.1787595
1.1819956
1.1850502
1.1878797
1.1904464
1.1927219
1.1946899
1.1963478
1.1977062
1.1987878
1.1996237
1.2002504
1.2007057
1.2010259
1.2012434
1.2013857
1.2014751
1.2015286
1.2015589
1.201575
1.2015829
1.2015864
1.2015878
1.2015883
1.2015885
1.2015886
1.2015886
1.2015886
1.1182738
1.1198257
1.1214873
1.1232631
1.1251574
1.127174
1.1293163
1.1315872
1.1339887
1.1365221
1.1391876
1.1419839
1.1449085
1.1479564
1.1511206
1.1543911
1.1577542
1.1611924
1.1646834
1.1681999
1.1717092
1.1751734
1.1785503
1.1817945
1.1848602
1.1877035
1.1902864
1.1925799
1.1945669
1.1962439
1.1976208
1.1987193
1.1995703
1.2002098
1.2006757
1.2010042
1.2012281
1.2013751
1.2014678
1.2015236
1.2015554
1.2015724
1.2015808
1.2015847
1.2015862
1.2015868
1.201587
1.2015871
1.2015871
1.2015871
1.1181478
1.1196964
1.1213544
1.1231264
1.1250166
1.1270289
1.1291666
1.1314326
1.1338289
1.136357
1.1390168
1.1418075
1.1447262
1.1477684
1.1509269
1.154192
1.1575504
1.1609845
1.1644727
1.1679877
1.1714973
1.1749641
1.178346
1.1815981
1.1846744
1.187531
1.1901295
1.1924404
1.1944459
1.1961415
1.1975364
1.1986515
1.1995173
1.2001695
1.2006457
1.2009825
1.2012127
1.2013644
1.2014604
1.2015185
1.2015518
1.2015698
1.2015788
1.2015829
1.2015846
1.2015853
1.2015855
1.2015855
1.2015856
1.2015856
1.1180253
1.1195706
1.1212252
1.1229935
1.1248798
1.1268878
1.129021
1.1312822
1.1336736
1.1361964
1.1388508
1.1416359
1.1445489
1.1475854
1.1507385
1.1539984
1.157352
1.1607822
1.1642674
1.1677809
1.1712908
1.1747599
1.1781466
1.1814061
1.1844926
1.187362
1.1899756
1.1923034
1.1943268
1.1960405
1.197453
1.1985845
1.1994648
1.2001294
1.2006159
1.2009608
1.2011972
1.2013536
1.201453
1.2015134
1.2015482
1.2015672
1.2015767
1.2015812
1.201583
1.2015837
1.201584
1.201584
1.2015841
1.2015841
1.1179061
1.1194483
1.1210995
1.1228642
1.1247466
1.1267505
1.1288793
1.1311359
1.1335224
1.1360401
1.1386892
1.1414689
1.1443764
1.1474074
1.150555
1.1538098
1.1571588
1.1605851
1.1640674
1.1675793
1.1710893
1.1745606
1.1779518
1.1812184
1.1843145
1.1871963
1.1898245
1.1921687
1.1942095
1.1959409
1.1973706
1.1985181
1.1994127
1.2000895
1.2005861
1.2009391
1.2011818
1.2013428
1.2014455
1.2015082
1.2015446
1.2015645
1.2015746
1.2015794
1.2015814
1.2015822
1.2015825
1.2015825
1.2015826
1.2015826
1.11779
1.1193291
1.1209771
1.1227382
1.1246169
1.1266168
1.1287413
1.1309934
1.1333752
1.1358879
1.1385319
1.1413062
1.1442083
1.1472339
1.1503763
1.153626
1.1569705
1.1603929
1.1638723
1.1673826
1.1708926
1.1743659
1.1777613
1.1810347
1.1841402
1.1870338
1.1896762
1.1920362
1.194094
1.1958427
1.1972892
1.1984523
1.199361
1.2000499
1.2005565
1.2009175
1.2011663
1.2013319
1.201438
1.201503
1.2015409
1.2015618
1.2015725
1.2015776
1.2015798
1.2015806
1.2015809
1.201581
1.2015811
1.2015811
1.1176769
1.1192131
1.1208578
1.1226155
1.1244905
1.1264865
1.1286069
1.1308546
1.1332317
1.1357396
1.1383785
1.1411477
1.1440445
1.1470648
1.150202
1.1534469
1.1567868
1.1602054
1.1636819
1.1671906
1.1707005
1.1741756
1.1775751
1.1808548
1.1839694
1.1868745
1.1895305
1.1919059
1.1939802
1.1957458
1.1972087
1.1983873
1.1993097
1.2000105
1.200527
1.2008959
1.2011509
1.201321
1.2014304
1.2014977
1.2015372
1.2015591
1.2015704
1.2015758
1.2015781
1.2015791
1.2015794
1.2015795
1.2015796
1.2015796
1.1175667
1.1190999
1.1207415
1.1224959
1.1243673
1.1263595
1.1284758
1.1307192
1.1330918
1.135595
1.138229
1.1409931
1.1438848
1.1468999
1.1500321
1.1532721
1.1566076
1.1600225
1.1634961
1.1670031
1.1705128
1.1739896
1.1773928
1.1806788
1.1838019
1.1867181
1.1893873
1.1917777
1.1938681
1.1956501
1.1971291
1.1983228
1.1992588
1.1999713
1.2004976
1.2008743
1.2011354
1.2013101
1.2014228
1.2014924
1.2015334
1.2015563
1.2015682
1.201574
1.2015765
1.2015775
1.2015779
1.201578
1.2015781
1.2015781
1.1174591
1.1189895
1.1206281
1.1223792
1.1242471
1.1262355
1.1283479
1.1305872
1.1329554
1.1354539
1.1380831
1.1408423
1.1437289
1.146739
1.1498662
1.1531015
1.1564327
1.1598438
1.1633146
1.1668198
1.1703293
1.1738076
1.1772144
1.1805063
1.1836377
1.1865646
1.1892466
1.1916516
1.1937575
1.1955557
1.1970505
1.198259
1.1992083
1.1999324
1.2004683
1.2008528
1.2011199
1.2012991
1.2014151
1.201487
1.2015296
1.2015535
1.201566
1.2015721
1.2015748
1.201576
1.2015764
1.2015765
1.2015766
1.2015766
1.1173541
1.1188818
1.1205173
1.1222653
1.1241298
1.1261146
1.1282231
1.1304583
1.1328221
1.1353162
1.1379407
1.140695
1.1435768
1.1465819
1.1497043
1.1529349
1.1562618
1.1596693
1.1631372
1.1666407
1.1701498
1.1736294
1.1770397
1.1803372
1.1834767
1.1864138
1.1891083
1.1915274
1.1936486
1.1954624
1.1969727
1.1981957
1.1991582
1.1998937
1.2004391
1.2008313
1.2011043
1.2012881
1.2014073
1.2014816
1.2015257
1.2015506
1.2015638
1.2015703
1.2015732
1.2015744
1.2015748
1.201575
1.201575
1.2015751
1.1172516
1.1187765
1.1204092
1.122154
1.1240152
1.1259965
1.1281012
1.1303324
1.132692
1.1351817
1.1378016
1.1405512
1.1434281
1.1464284
1.149546
1.1527721
1.1560948
1.1594986
1.1629637
1.1664654
1.1699742
1.1734551
1.1768685
1.1801714
1.1833186
1.1862657
1.1889723
1.1914051
1.1935412
1.1953704
1.1968958
1.1981331
1.1991085
1.1998553
1.2004101
1.2008098
1.2010888
1.2012771
1.2013996
1.2014761
1.2015219
1.2015477
1.2015615
1.2015684
1.2015715
1.2015728
1.2015733
1.2015735
1.2015735
1.2015736
1.1171514
1.1186737
1.1203036
1.1220453
1.1239032
1.125881
1.1279821
1.1302094
1.1325649
1.1350502
1.1376657
1.1404106
1.1432829
1.1462785
1.1493914
1.152613
1.1559316
1.1593318
1.162794
1.166294
1.1698022
1.1732843
1.1767008
1.1800088
1.1831634
1.1861202
1.1888385
1.1912846
1.1934353
1.1952795
1.1968197
1.198071
1.1990592
1.199817
1.2003812
1.2007884
1.2010733
1.201266
1.2013917
1.2014706
1.2015179
1.2015448
1.2015593
1.2015665
1.2015698
1.2015712
1.2015718
1.201572
1.201572
1.2015721
1.1170535
1.1185732
1.1202003
1.1219391
1.1237938
1.1257682
1.1278657
1.1300891
1.1324406
1.1349217
1.1375328
1.1402732
1.1431408
1.1461318
1.1492401
1.1524573
1.1557719
1.1591685
1.1626279
1.1661261
1.1696338
1.1731169
1.1765363
1.1798493
1.183011
1.1859772
1.1887068
1.1911659
1.1933308
1.1951896
1.1967444
1.1980095
1.1990102
1.199779
1.2003523
1.2007671
1.2010578
1.2012549
1.2013839
1.2014651
1.2015139
1.2015419
1.201557
1.2015646
1.2015681
1.2015696
1.2015702
1.2015705
1.2015705
1.2015705
1.1169577
1.1184749
1.1200993
1.1218352
1.1236868
1.1256579
1.1277518
1.1299715
1.1323191
1.1347961
1.1374029
1.1401388
1.1430019
1.1459883
1.1490921
1.152305
1.1556156
1.1590087
1.1624654
1.1659617
1.1694688
1.1729528
1.176375
1.1796927
1.1828614
1.1858365
1.1885772
1.191049
1.1932276
1.1951009
1.1966699
1.1979486
1.1989616
1.1997412
1.2003236
1.2007457
1.2010422
1.2012438
1.201376
1.2014595
1.2015099
1.2015389
1.2015547
1.2015627
1.2015664
1.2015681
1.2015687
1.2015689
1.201569
1.201569
1.116864
1.1183787
1.1200004
1.1217335
1.123582
1.1255499
1.1276404
1.1298564
1.1322002
1.1346731
1.1372757
1.1400073
1.142866
1.1458479
1.1489473
1.152156
1.1554626
1.1588522
1.1623061
1.1658006
1.1693071
1.172792
1.1762167
1.179539
1.1827143
1.1856982
1.1884496
1.1909338
1.1931259
1.1950132
1.1965962
1.1978882
1.1989134
1.1997036
1.200295
1.2007245
1.2010267
1.2012326
1.201368
1.2014538
1.2015059
1.2015359
1.2015523
1.2015607
1.2015647
1.2015665
1.2015672
1.2015674
1.2015675
1.2015675
1.1167723
1.1182846
1.1199037
1.1216339
1.1234795
1.1254442
1.1275313
1.1297437
1.1320837
1.1345527
1.1371512
1.1398786
1.1427329
1.1457104
1.1488055
1.15201
1.1553127
1.158699
1.1621501
1.1656427
1.1691485
1.1726341
1.1760613
1.179388
1.1825697
1.1855621
1.1883239
1.1908201
1.1930254
1.1949265
1.1965232
1.1978283
1.1988655
1.1996662
1.2002665
1.2007032
1.2010112
1.2012214
1.2013601
1.2014481
1.2015018
1.2015329
1.20155
1.2015588
1.201563
1.2015648
1.2015656
1.2015659
1.201566
1.201566
1.1166825
1.1181924
1.1198089
1.1215364
1.1233791
1.1253407
1.1274245
1.1296334
1.1319697
1.1344348
1.1370292
1.1397524
1.1426025
1.1455757
1.1486666
1.151867
1.1551658
1.1585488
1.1619971
1.1654879
1.168993
1.1724793
1.1759088
1.1792396
1.1824276
1.1854282
1.1882001
1.1907081
1.1929263
1.1948408
1.196451
1.197769
1.1988179
1.1996291
1.2002382
1.200682
1.2009956
1.2012102
1.2013521
1.2014424
1.2014976
1.2015298
1.2015476
1.2015568
1.2015612
1.2015632
1.2015641
1.2015644
1.2015645
1.2015645
1.1165944
1.118102
1.1197161
1.1214409
1.1232807
1.1252392
1.1273198
1.1295253
1.131858
1.1343193
1.1369098
1.1396289
1.1424747
1.1454438
1.1485305
1.1517268
1.1550219
1.1584015
1.1618472
1.1653361
1.1688404
1.1723272
1.175759
1.1790939
1.1822878
1.1852964
1.1880782
1.1905976
1.1928284
1.1947561
1.1963795
1.1977102
1.1987707
1.1995921
1.2002099
1.2006609
1.2009801
1.201199
1.201344
1.2014366
1.2014935
1.2015267
1.2015452
1.2015548
1.2015595
1.2015616
1.2015625
1.2015629
1.201563
1.201563
1.1165082
1.1180135
1.1196251
1.1213473
1.1231843
1.1251398
1.1272172
1.1294194
1.1317485
1.1342061
1.1367927
1.1395078
1.1423495
1.1453144
1.148397
1.1515894
1.1548808
1.1582571
1.1617
1.1651871
1.1686906
1.172178
1.1756118
1.1789505
1.1821503
1.1851666
1.187958
1.1904886
1.1927317
1.1946724
1.1963087
1.1976518
1.1987238
1.1995553
1.2001817
1.2006398
1.2009646
1.2011877
1.2013359
1.2014308
1.2014892
1.2015236
1.2015427
1.2015528
1.2015577
1.20156
1.2015609
1.2015613
1.2015615
1.2015615
1.1164236
1.1179267
1.1195359
1.1212556
1.1230898
1.1250424
1.1271167
1.1293155
1.1316411
1.1340951
1.1366779
1.139389
1.1422268
1.1451876
1.1482661
1.1514546
1.1547424
1.1581154
1.1615557
1.1650408
1.1685435
1.1720313
1.1754671
1.1788096
1.1820149
1.1850388
1.1878395
1.190381
1.1926361
1.1945895
1.1962386
1.197594
1.1986773
1.1995188
1.2001537
1.2006187
1.200949
1.2011764
1.2013278
1.201425
1.201485
1.2015204
1.2015402
1.2015507
1.2015559
1.2015583
1.2015594
1.2015598
1.2015599
1.20156
1.1163406
1.1178415
1.1194484
1.1211655
1.1229971
1.1249468
1.127018
1.1292136
1.1315358
1.1339862
1.1365652
1.1392726
1.1421063
1.1450632
1.1481378
1.1513224
1.1546065
1.1579763
1.161414
1.1648973
1.1683991
1.1718873
1.1753249
1.178671
1.1818818
1.184913
1.1877227
1.1902748
1.1925418
1.1945076
1.1961692
1.1975366
1.1986311
1.1994824
1.2001257
1.2005977
1.2009335
1.2011651
1.2013196
1.2014191
1.2014807
1.2015172
1.2015378
1.2015487
1.2015542
1.2015567
1.2015578
1.2015583
1.2015584
1.2015585
1.1162593
1.117758
1.1193625
1.1210772
1.1229061
1.124853
1.1269212