/*--------------------------------*- C++ -*----------------------------------*\
| =========                 |                                                 |
| \\      /  F ield         | OpenFOAM: The Open Source CFD Toolbox           |
|  \\    /   O peration     | Version:  4.0                                   |
|   \\  /    A nd           | Web:      www.OpenFOAM.org                      |
|    \\/     M anipulation  |                                                 |
\*---------------------------------------------------------------------------*/
FoamFile
{
    version     2.0;
    format      ascii;
    class       surfaceScalarField;
    location    "4000/fluid";
    object      snGradRho;
}
// * * * * * * * * * * * * * * * * * * * * * * * * * * * * * * * * * * * * * //

dimensions      [1 -4 0 0 0 0 0];

internalField   nonuniform List<scalar> 
9850
(
31.731041
-0.21612197
30.731322
-0.29539357
29.538215
-0.37861865
28.147258
-0.46414889
26.560785
-0.54982629
24.789332
-0.63299082
22.852709
-0.71054069
20.780489
-0.77905905
18.611672
-0.83501522
16.39336
-0.87503862
14.178322
-0.89625089
12.021604
-0.89662329
9.976443
-0.87531072
8.0900053
-0.83290091
6.3995941
-0.77151641
4.9298269
-0.6947225
3.6913495
-0.60722326
2.6812138
-0.51437492
1.8847733
-0.42159064
1.2786701
-0.33374266
0.83431668
-0.25467366
0.52127844
-0.18690179
0.31009872
-0.13155415
0.17431925
-0.088507971
0.091652553
-0.056676357
0.044415598
-0.034359932
0.019394436
-0.019591319
0.0073295071
-0.010422066
0.0021862935
-0.0051257196
0.00035386516
-0.0023113426
-0.00011468168
-0.00095661248
-0.00013791131
-0.00037895736
-7.5300426e-05
-0.00016856262
-2.8985042e-05
-0.00010771825
-8.1194274e-06
-9.6593443e-05
-1.4624189e-06
-9.7286963e-05
-2.3190202e-08
-9.8884368e-05
7.8220804e-08
-9.964422e-05
4.1808007e-08
-9.9872671e-05
4.3452291e-10
-9.9917287e-05
1.1360668e-08
-9.9919631e-05
-4.9205888e-09
-9.9915483e-05
1.448168e-08
-9.991342e-05
-1.3942612e-09
-9.991092e-05
2.0755381e-08
-9.9913252e-05
-1.266731e-09
-9.9915703e-05
-2.2736732e-10
-9.9930077e-05
2.0892884e-08
-9.9925103e-05
4.9661534e-07
-9.9866438e-05
-0.00010021783
19.695035
-0.15310332
19.244659
-0.15745143
18.80737
-0.16258788
18.37589
-0.16891158
17.938904
-0.17685141
17.480971
-0.18681925
16.982935
-0.1991426
16.422984
-0.21397903
15.778454
-0.23121987
15.02837
-0.2503972
14.156538
-0.27061504
13.15487
-0.29053038
12.026378
-0.30840913
10.787188
-0.32227406
9.466899
-0.33014382
8.1067993
-0.33033669
6.7558705
-0.32178517
5.4650439
-0.30428806
4.2807374
-0.27862736
3.2390283
-0.24650292
2.361741
-0.21028599
1.6552195
-0.17264642
1.1117915
-0.13614541
0.71322624
-0.10289006
0.43510129
-0.074317602
0.25102953
-0.05113119
0.13600456
-0.033366538
0.068559122
-0.02054481
0.031763053
-0.011863017
0.013295948
-0.0063814475
0.0049018471
-0.0031803043
0.0015230247
-0.0014690279
0.00036133785
-0.00064234557
4.3588347e-05
-0.00028728697
-1.2232131e-05
-0.00015455283
-1.0073694e-05
-0.00011263455
-3.7468094e-06
-0.00010198089
-9.3946285e-07
-0.00010001543
-1.3886572e-07
-9.9839835e-05
-8.1915798e-09
-9.9873953e-05
2.5240784e-08
-9.9892683e-05
1.3535188e-09
-9.9898435e-05
2.1394471e-08
-9.9900968e-05
-7.2553007e-09
-9.9902378e-05
1.5155147e-08
-9.9906033e-05
-3.1124745e-08
-9.9909223e-05
9.1651338e-09
-9.9912245e-05
1.2159373e-07
-9.988193e-05
-5.1702603e-08
-9.992106e-05
-0.00010019039
19.034851
-0.1272541
18.53573
-0.12907691
18.013983
-0.13104144
17.470365
-0.13316834
16.905512
-0.13549294
16.319609
-0.13807013
15.71194
-0.14097719
15.080378
-0.14431147
14.42091
-0.14817924
13.727371
-0.15267168
12.99159
-0.15782565
12.204192
-0.16357066
11.356198
-0.16966948
10.441398
-0.17566764
9.4591952
-0.18087389
8.417293
-0.18439454
7.3333742
-0.18523709
6.2349481
-0.18247886
5.1568988
-0.17547034
4.136955
-0.16401935
3.2100514
-0.14849519
2.4030383
-0.12980995
1.7311395
-0.10927324
1.196956
-0.08836071
0.79193909
-0.068463802
0.49955826
-0.050687361
0.2990651
-0.035735127
0.16892696
-0.023889403
0.089369788
-0.015065101
0.043877285
-0.0089078359
0.01976308
-0.0049078892
0.0080491697
-0.0025085218
0.0029093497
-0.0011933391
0.00090948827
-0.00054291141
0.0002363513
-0.00025709943
4.735796e-05
-0.00014758029
5.8848301e-06
-0.00011185008
-1.5725515e-07
-0.00010225042
-2.7702666e-07
-0.0001002384
-7.7142203e-08
-9.9946062e-05
5.9928069e-09
-9.9928259e-05
-6.3514696e-09
-9.9931659e-05
1.7496005e-08
-9.9932143e-05
-1.6443939e-08
-9.9932003e-05
7.8652166e-09
-9.9932171e-05
-3.7401637e-08
-9.9932024e-05
6.6408981e-08
-9.9919968e-05
5.4425707e-08
-9.9904678e-05
-4.7196878e-07
-9.9982323e-05
-9.9995439e-05
18.758089
-0.10720873
18.264587
-0.10889785
17.747136
-0.11071073
17.205248
-0.11264883
16.638328
-0.11471094
16.045646
-0.11689243
15.426301
-0.11918474
14.77918
-0.12157489
14.102895
-0.12404475
13.395718
-0.12656936
12.655535
-0.12911297
11.879896
-0.13162086
11.066268
-0.13400546
10.21264
-0.13612648
9.3185732
-0.13776829
8.3867014
-0.13862247
7.4244115
-0.13828828
6.4452263
-0.13630446
5.4692129
-0.13222015
4.5218456
-0.12569793
3.6311743
-0.11662432
2.8237865
-0.10519023
2.1206149
-0.091906452
1.5338093
-0.077540122
1.0655177
-0.062987413
0.70874106
-0.049121761
0.44971328
-0.036661454
0.27094232
-0.026086914
0.15407752
-0.017615805
0.082089796
-0.011225941
0.040599899
-0.0067086933
0.018431722
-0.0037366991
0.0075770228
-0.0019336391
0.0027740016
-0.00093627697
0.00088582074
-0.00043989434
0.00023997202
-0.00022097858
5.2927469e-05
-0.0001369114
8.8057204e-06
-0.0001093716
9.0679879e-07
-0.00010186643
-1.160526e-08
-0.0001002213
-5.3827719e-09
-9.9946949e-05
-7.8245436e-09
-9.9917078e-05
1.7881565e-08
-9.991714e-05
-1.6864796e-08
-9.9920115e-05
8.201079e-09
-9.9921911e-05
-1.2359322e-08
-9.992232e-05
9.5282283e-08
-9.9912008e-05
-7.8856146e-08
-9.992965e-05
-4.9243519e-07
-0.00010001379
-0.0001000143
18.501625
-0.090535512
18.014376
-0.091859109
17.503976
-0.093278611
16.970068
-0.094794145
16.412168
-0.096403044
15.829616
-0.098098719
15.221544
-0.099869209
14.586844
-0.1016954
13.924179
-0.10354892
13.232039
-0.10538975
12.508836
-0.10716357
11.753098
-0.10879891
10.963746
-0.11020388
10.1405
-0.11126249
9.2844553
-0.11183045
8.3988355
-0.11173171
7.4898886
-0.11075823
6.5677689
-0.108678
5.6470999
-0.10525703
4.7468076
-0.1002992
3.8888729
-0.093700584
3.0959393
-0.085505387
2.3881736
-0.075942893
1.7801856
-0.06542564
1.2789094
-0.054501234
0.88306162
-0.043768454
0.58419516
-0.033782414
0.3688745
-0.02497613
0.22122967
-0.017616175
0.12524422
-0.011795313
0.066409581
-0.0074538735
0.032665762
-0.0044177515
0.014734406
-0.0024430987
0.0060121865
-0.0012612054
0.0021840331
-0.00061837399
0.00069316048
-0.00030521819
0.00018788488
-0.00017077644
4.223911e-05
-0.0001208175
7.5687662e-06
-0.00010506882
9.9834446e-07
-0.00010095424
9.4574982e-08
-0.00010008776
-8.0140759e-09
-9.9946538e-05
9.6565816e-09
-9.992902e-05
-2.1380284e-08
-9.9928738e-05
7.265914e-09
-9.9927142e-05
9.0615472e-09
-9.9924163e-05
6.1969504e-08
-9.9918368e-05
-2.2329228e-07
-9.9951023e-05
-4.9322296e-07
-9.9997976e-05
-9.9920123e-05
18.30066
-0.077205532
17.818457
-0.078432795
17.313833
-0.079749034
16.786576
-0.081154397
16.236373
-0.082646403
15.662764
-0.084218888
15.065099
-0.08586063
14.442504
-0.08755365
13.793869
-0.089271136
13.117895
-0.090975022
12.413177
-0.092613322
11.678391
-0.094117399
10.912577
-0.095399531
10.115544
-0.096351233
9.2883991
-0.096842968
8.4341811
-0.09672604
7.5585482
-0.095837671
6.670409
-0.094010582
5.7823195
-0.091088643
4.9104073
-0.086949731
4.073574
-0.081535067
3.291852
-0.0748805
2.5840471
-0.067140668
1.965135
-0.058594657
1.4440864
-0.049624837
1.022767
-0.040669532
0.69618922
-0.032160658
0.45396095
-0.024463739
0.28240208
-0.017835831
0.1667191
-0.012408428
0.092776167
-0.0081932019
0.048254422
-0.0051029336
0.023216043
-0.0029798075
0.01020574
-0.00162615
0.0040411069
-0.0008348924
0.0014179076
-0.00041681623
0.0004327062
-0.00022027357
0.00011239498
-0.0001394645
2.4230807e-05
-0.00011093965
4.1880428e-06
-0.00010246677
5.6714346e-07
-0.0001003954
4.5273848e-08
-9.9990487e-05
1.0437855e-08
-9.9929549e-05
-1.7367704e-08
-9.9924658e-05
1.4072871e-08
-9.9923112e-05
2.1099905e-08
-9.9920978e-05
3.0479633e-10
-9.9924177e-05
-3.038893e-07
-9.9958538e-05
-3.7173982e-07
-9.9977744e-05
-9.9909449e-05
18.114321
-0.066289682
17.636791
-0.067342169
17.137513
-0.068470842
16.616415
-0.069675885
16.073349
-0.070955384
15.508045
-0.072304496
14.920063
-0.073714366
14.308757
-0.075170747
13.673253
-0.076652294
13.012472
-0.078128495
12.325196
-0.079557307
11.610215
-0.080882617
10.866575
-0.082031794
10.093938
-0.082913826
9.2930695
-0.083418738
8.4664365
-0.083419218
7.6188525
-0.082775534
6.7580767
-0.081344766
5.8952041
-0.078995029
5.0446531
-0.07562459
4.2235528
-0.071184421
3.4504227
-0.065700749
2.7432081
-0.059291979
2.1169934
-0.052173128
1.5819081
-0.044642142
1.1418068
-0.037047327
0.79407492
-0.029741728
0.53058438
-0.023035881
0.33943957
-0.017161123
0.20698822
-0.012251136
0.11961297
-0.0083424439
0.065015187
-0.0053887906
0.032930314
-0.0032823852
0.015367561
-0.0018767679
0.0065203786
-0.0010089461
0.0024774276
-0.00051999309
0.00082870706
-0.00027250167
0.00023946501
-0.00016187576
5.8541889e-05
-0.00011899842
1.1813142e-05
-0.00010486181
1.9221347e-06
-0.00010097578
2.3064734e-07
-0.00010010437
2.3960606e-08
-9.9948301e-05
-1.3481418e-08
-9.9926741e-05
1.8949422e-08
-9.9922169e-05
1.445577e-08
-9.992062e-05
-6.4580035e-08
-9.9929878e-05
-3.368567e-07
-9.9959115e-05
-2.6517091e-07
-9.9959178e-05
-9.9899858e-05
17.95452
-0.057531756
17.481012
-0.058524049
16.986325
-0.059588402
16.47049
-0.060725232
15.933483
-0.061933056
15.375178
-0.063207748
14.795299
-0.06454157
14.193384
-0.065921966
13.568754
-0.067330081
12.920529
-0.068739005
12.247672
-0.070111775
11.549109
-0.071399236
10.823941
-0.07253798
10.071753
-0.073448721
9.2930503
-0.074035677
8.4898077
-0.074187747
7.666076
-0.073782454
6.8285764
-0.072693629
5.9871294
-0.070803519
5.1547382
-0.068019227
4.3471424
-0.064292091
3.5817231
-0.059636922
2.8757897
-0.054146439
2.2444925
-0.047995539
1.698792
-0.041431134
1.2440126
-0.034746784
0.87935663
-0.028246209
0.59850085
-0.022204077
0.39103945
-0.016833821
0.24432896
-0.012269389
0.14526338
-0.0085627387
0.081643952
-0.005693783
0.043017464
-0.0035870537
0.021028854
-0.0021300467
0.0094199634
-0.0011906638
0.0038116016
-0.00063334311
0.0013708239
-0.00033371236
0.00043047128
-0.00019020912
0.00011578839
-0.00013009277
2.6118305e-05
-0.00010848001
4.8381802e-06
-0.00010194078
7.0541493e-07
-0.00010030917
8.3581106e-08
-9.9980267e-05
-1.9880008e-09
-9.9927883e-05
2.2487598e-08
-9.9919714e-05
-4.7759404e-09
-9.9920415e-05
-1.1978862e-07
-9.9932576e-05
-3.3696423e-07
-9.9953988e-05
-1.7260705e-07
-9.9940588e-05
-9.9891806e-05
17.803857
-0.050357136
17.334111
-0.051255277
16.843696
-0.052218756
16.33274
-0.053248161
15.801332
-0.054342522
15.249477
-0.055498685
14.677044
-0.056710509
14.083729
-0.057967841
13.469018
-0.059255251
12.832193
-0.060550493
12.172362
-0.061822735
11.488558
-0.063030617
10.779919
-0.064120324
10.045962
-0.065023969
9.2869763
-0.065658776
8.5045233
-0.065927736
7.7020134
-0.065722598
6.8852859
-0.064930089
6.0630681
-0.063442055
5.2471451
-0.061169605
4.4520593
-0.058060194
3.69421
-0.054115086
2.9903442
-0.049403161
2.3556274
-0.04406631
1.8016638
-0.038312495
1.3349561
-0.032395403
0.95619754
-0.026583629
0.66058492
-0.021126194
0.43900783
-0.016222772
0.27973953
-0.012005242
0.17017824
-0.0085331528
0.098275274
-0.0058010995
0.053473403
-0.0037531328
0.027156981
-0.0022991569
0.012724982
-0.0013300788
0.0054268477
-0.00073090496
0.0020740544
-0.00039225562
0.0006982724
-0.00022022574
0.00020330971
-0.00014311521
5.0190434e-05
-0.00011319882
1.0298094e-05
-0.00010334809
1.7059368e-06
-0.00010064903
2.2843695e-07
-0.00010004496
1.8546699e-08
-9.9936319e-05
2.0886966e-08
-9.9919514e-05
-3.0037346e-08
-9.9921226e-05
-1.6022118e-07
-9.9933443e-05
-3.1396291e-07
-9.9947446e-05
-9.6486015e-08
-9.9928861e-05
-9.9897352e-05
17.66749
-0.044519222
17.201133
-0.045367274
16.714544
-0.046277206
16.20793
-0.047249787
15.68147
-0.048284394
15.135274
-0.049378454
14.569332
-0.05052673
13.983474
-0.05172041
13.377329
-0.052945993
12.750325
-0.054183946
12.101707
-0.05540715
11.430615
-0.056579208
10.73624
-0.057652734
10.018069
-0.05856789
9.2762335
-0.059251549
8.5119716
-0.059617667
7.7281707
-0.059569588
6.9299317
-0.059005087
6.1250469
-0.057824842
5.3242368
-0.055944519
4.5409731
-0.053309756
3.7907461
-0.049911985
3.0897378
-0.045801673
2.4530391
-0.041094719
1.8927276
-0.035968254
1.4162632
-0.030644377
1.0256026
-0.025363881
0.71727204
-0.020355541
0.48333056
-0.015808377
0.31290928
-0.011853175
0.1939042
-0.0085562715
0.1144427
-0.0059245225
0.06390759
-0.0039174312
0.033478825
-0.0024617856
0.016278197
-0.0014653649
0.0072524348
-0.00082844443
0.0029170783
-0.00045346977
0.0010417777
-0.00025344731
0.00032445676
-0.00015852402
8.6452781e-05
-0.00011921861
1.9330105e-05
-0.00010529708
3.5434911e-06
-0.0001011623
5.28859e-07
-0.00010015158
6.079007e-08
-9.9952013e-05
1.6976531e-08
-9.9920248e-05
-5.5415047e-08
-9.9921638e-05
-1.8666446e-07
-9.9932658e-05
-2.8206026e-07
-9.9940553e-05
-4.7318034e-08
-9.9920298e-05
-9.9898378e-05
17.538728
-0.039684927
17.075544
-0.040469447
16.592521
-0.041311332
16.089934
-0.042211481
15.568046
-0.043169611
15.02706
-0.04418379
14.467073
-0.045249808
13.888033
-0.046360396
13.289695
-0.047504238
12.671613
-0.048664772
12.033147
-0.049818793
11.373531
-0.050934894
10.692005
-0.051971864
9.98803
-0.052877256
9.26161
-0.053586465
8.5137173
-0.054022814
7.7468024
-0.054099296
6.9653429
-0.053722697
6.1763308
-0.052800762
5.3895605
-0.051252653
4.6175512
-0.049022238
3.8749566
-0.046092546
3.1774001
-0.042498499
2.5398298
-0.038334121
1.9746618
-0.033750636
1.4901378
-0.028943652
1.0892962
-0.024130667
0.76984057
-0.019523455
0.52489645
-0.015301893
0.34440544
-0.011595293
0.2167591
-0.0084746674
0.13028744
-0.0059556606
0.074353759
-0.0040089144
0.039979041
-0.0025735369
0.020055258
-0.0015700546
0.0092738441
-0.00091107367
0.0038972785
-0.00050969158
0.0014646338
-0.00028645251
0.0004836248
-0.00017510134
0.00013770049
-0.00012625151
3.3166523e-05
-0.0001077798
6.6180809e-06
-0.00010187966
1.0807225e-06
-0.00010031777
1.4063853e-07
-9.9981651e-05
1.3800704e-08
-9.992414e-05
-7.8305318e-08
-9.9922352e-05
-2.0157245e-07
-9.9931163e-05
-2.4729166e-07
-9.9934328e-05
-1.3113815e-08
-9.9914901e-05
-9.9902399e-05
17.419613
-0.035679276
16.959348
-0.036418749
16.479586
-0.037212416
15.980661
-0.038061272
15.462904
-0.038965269
14.926597
-0.039922884
14.371932
-0.040930571
13.798958
-0.04198205
13.207542
-0.04306744
12.597353
-0.044172184
11.967861
-0.045275803
11.318392
-0.046350496
10.648242
-0.047359685
9.9568679
-0.048256671
9.2441813
-0.048983706
8.5109404
-0.049471891
7.7592323
-0.04964248
6.993004
-0.04941025
6.2185539
-0.048689561
5.4448592
-0.047403432
4.6835798
-0.045495332
3.9485901
-0.042942386
3.2549576
-0.039767512
2.6174279
-0.036047137
2.0486411
-0.031911061
1.5574718
-0.027532478
1.1478885
-0.023108729
0.81864489
-0.018836475
0.56384973
-0.014887119
0.37421757
-0.011388229
0.2386349
-0.0084146415
0.1456558
-0.0059896005
0.084654478
-0.0040933629
0.046525324
-0.002675385
0.023963141
-0.0016665034
0.01143761
-0.00098906176
0.0049912505
-0.00056465557
0.0019606714
-0.00032020765
0.00068144321
-0.00019299715
0.00020569823
-0.00013432993
5.2910473e-05
-0.00011083552
1.1369285e-05
-0.00010283145
2.0101968e-06
-0.00010055704
2.8520837e-07
-0.00010002868
1.7886495e-08
-9.9931204e-05
-9.6609313e-08
-9.9923036e-05
-2.0754768e-07
-9.9929252e-05
-2.139452e-07
-9.9929121e-05
6.3948915e-09
-9.9911731e-05
-9.99053e-05
17.307337
-0.032312521
16.849807
-0.033003385
16.373087
-0.033744969
15.877562
-0.034538335
15.363625
-0.035383641
14.831632
-0.036279767
14.281855
-0.037223829
13.714435
-0.038210549
13.129338
-0.039231481
12.526336
-0.04027404
11.904996
-0.04132037
11.26473
-0.042346052
10.604885
-0.043318742
9.9249226
-0.04419688
9.2246822
-0.04492873
8.5047465
-0.045452116
7.7668972
-0.045695375
7.014627
-0.045580119
6.2536317
-0.045026407
5.4921667
-0.043960685
4.7411174
-0.042326323
4.0136357
-0.040095728
3.3242459
-0.037281907
2.6874513
-0.033946497
2.1160273
-0.030201045
1.6193603
-0.026199378
1.202221
-0.022121155
0.86430232
-0.018149522
0.60062016
-0.014448003
0.40262501
-0.011142086
0.25969468
-0.0083093442
0.16062542
-0.0059790028
0.094830332
-0.0041389998
0.053106831
-0.0027470675
0.027980499
-0.0017423221
0.013725494
-0.0010550762
0.0061891555
-0.00061419437
0.0025273577
-0.00035252787
0.00091901733
-0.00021122952
0.00029218549
-0.00014311689
7.9694879e-05
-0.00011439877
1.8287983e-05
-0.00010402699
3.4712641e-06
-0.00010088301
5.3023478e-07
-0.00010009939
3.6551979e-08
-9.9943395e-05
-1.0952179e-07
-9.9924387e-05
-2.0730038e-07
-9.9927405e-05
-1.840939e-07
-9.9924927e-05
1.6430913e-08
-9.990988e-05
-9.9907433e-05
17.202441
-0.029470451
16.747454
-0.030121662
16.273549
-0.030820756
15.781156
-0.03156884
15.270721
-0.03236621
14.742663
-0.033212026
14.197325
-0.034103867
13.634931
-0.03503717
13.055537
-0.036004531
12.459006
-0.036994833
11.844999
-0.037992217
11.213008
-0.038974911
10.562439
-0.039913968
9.8927657
-0.040772053
9.2037771
-0.041502487
8.4959141
-0.04204887
7.7707013
-0.042345754
7.0312401
-0.042320901
6.2826982
-0.041899697
5.5326874
-0.041012106
4.7913899
-0.039602113
4.0712842
-0.037638826
3.3863646
-0.03512746
2.7508616
-0.032117505
2.1776127
-0.028705092
1.6764149
-0.025027302
1.2527303
-0.021248134
0.90709457
-0.017538391
0.6353626
-0.014054036
0.42968691
-0.010918106
0.27993205
-0.0082101307
0.1751511
-0.0059643707
0.10481927
-0.0041754463
0.059661354
-0.002808302
0.032055998
-0.0018091424
0.016102195
-0.0011149444
0.0074714393
-0.00066059807
0.0031568014
-0.00038398411
0.0011948409
-0.00022979129
0.00039790216
-0.00015253796
0.00011440248
-0.00011844798
2.7851883e-05
-0.00010547539
5.6381919e-06
-0.0001013064
9.2236668e-07
-0.00010019858
7.9986787e-08
-9.9961857e-05
-1.1578943e-07
-9.992659e-05
-2.0262093e-07
-9.9925724e-05
-1.5826557e-07
-9.9921621e-05
2.0249928e-08
-9.9908944e-05
-9.990907e-05
17.103566
-0.027043505
16.650965
-0.027655548
16.179692
-0.028312652
15.690217
-0.029015945
15.183033
-0.029765845
14.658615
-0.030561761
14.117372
-0.031401702
13.559599
-0.032281776
12.985434
-0.033195547
12.394825
-0.034133251
11.787516
-0.035080857
11.163075
-0.036018973
10.520962
-0.03692168
9.8606711
-0.037755367
9.1819534
-0.038477778
8.4851347
-0.039037554
7.7715216
-0.039374672
7.0438776
-0.039422299
6.3069063
-0.039110581
5.5676454
-0.038372766
4.835638
-0.037153691
4.1227361
-0.035419995
3.4424221
-0.033170524
2.8086335
-0.030444536
2.2342137
-0.027324905
1.7292858
-0.023934052
1.299909
-0.020422004
0.94737625
-0.016948302
0.66831862
-0.013661735
0.45555689
-0.010682665
0.2994349
-0.0080919055
0.18927355
-0.0059278046
0.11463033
-0.0041905886
0.066179438
-0.0028512992
0.036172726
-0.0018621267
0.01855148
-0.0011656777
0.0088269724
-0.00070199718
0.0038436862
-0.00041342753
0.0015076798
-0.00024804188
0.00052339366
-0.00016230115
0.00015781329
-0.00012288971
4.0533838e-05
-0.0001071649
8.7016158e-06
-0.00010183418
1.5174402e-06
-0.00010033161
1.6057467e-07
-9.9988628e-05
-1.1398922e-07
-9.9930304e-05
-1.9487286e-07
-9.9924448e-05
-1.3650585e-07
-9.9919083e-05
2.0053748e-08
-9.9908509e-05
-9.9909939e-05
17.010638
-0.024958736
16.560272
-0.025536713
16.091455
-0.026157292
15.604692
-0.026821606
15.100519
-0.027530155
14.579458
-0.028282533
14.041978
-0.029077071
13.488441
-0.029910387
12.919055
-0.030776801
12.333848
-0.031667625
11.732641
-0.032570296
11.115075
-0.033467384
10.480665
-0.034335495
9.8289289
-0.035144179
9.1595949
-0.035854991
8.4728944
-0.036420974
7.7699496
-0.036786917
7.0532302
-0.036890871
6.3270295
-0.036667395
5.5978699
-0.036052967
4.8747115
-0.034993623
4.1688224
-0.03345436
3.4931909
-0.031428969
2.8614487
-0.028948184
2.2863988
-0.026083523
1.7784196
-0.022944568
1.3440858
-0.019668834
0.98537136
-0.0164055
0.69962617
-0.013296475
0.48030707
-0.010459221
0.3182286
-0.0079752743
0.20298779
-0.005886356
0.12424149
-0.0041975692
0.07263237
-0.0028853427
0.040302801
-0.0019071409
0.021051084
-0.0012104578
0.010241094
-0.00073975477
0.0045804319
-0.00044121536
0.0018548887
-0.0002659392
0.00066847442
-0.00017230158
0.00021043398
-0.00012766833
5.6749759e-05
-0.00010908438
1.2856632e-05
-0.00010247062
2.3796186e-06
-0.00010050276
2.9385118e-07
-0.00010002544
-1.0182448e-07
-9.9935996e-05
-1.8474277e-07
-9.9923651e-05
-1.1835505e-07
-9.9917143e-05
1.7822554e-08
-9.9908345e-05
-9.9910389e-05
16.922882
-0.023151085
16.474621
-0.02369681
16.008109
-0.024282795
15.523884
-0.024910172
15.022518
-0.025579507
14.50458
-0.026290549
13.970591
-0.027041921
13.42097
-0.027830693
12.855994
-0.028651865
12.275762
-0.029497707
11.680166
-0.030356967
11.068915
-0.031213946
10.441576
-0.032047479
9.7976965
-0.03282989
9.1369884
-0.033526083
8.4596075
-0.034092969
7.7665185
-0.034479593
7.0599352
-0.034628355
6.3437874
-0.034477824
5.6241342
-0.033967517
4.909403
-0.033044811
4.2103178
-0.031673598
3.539393
-0.029843581
2.9099472
-0.027578295
2.3347072
-0.024939428
1.8242473
-0.022025232
1.3855873
-0.01896196
1.021314
-0.015889257
0.72944334
-0.012942483
0.50403685
-0.010236084
0.33636938
-0.0078518705
0.21631972
-0.0058343185
0.13365844
-0.0041927203
0.079013734
-0.0029082096
0.044434266
-0.0019428687
0.023588545
-0.0012484529
0.011704071
-0.00077326696
0.0053612369
-0.00046687469
0.0022340762
-0.0002831387
0.0008327776
-0.00018233261
0.00027262239
-0.00013269191
7.6868617e-05
-0.00011120886
1.8298322e-05
-0.00010321573
3.5794773e-06
-0.00010071572
4.982455e-07
-0.00010007432
-7.618138e-08
-9.9944359e-05
-1.7245348e-07
-9.9923503e-05
-1.032534e-07
-9.991571e-05
1.4633308e-08
-9.9908316e-05
-9.991047e-05
16.840024
-0.021573866
16.393743
-0.022090698
15.929396
-0.022645689
15.447547
-0.023239959
14.948802
-0.023874117
14.433771
-0.024548035
13.903019
-0.025260559
13.357023
-0.026009128
12.796118
-0.026789294
12.220469
-0.027594119
11.630037
-0.028413448
11.024593
-0.02923305
10.403757
-0.030033668
9.7671063
-0.030790032
9.1143458
-0.031469968
8.4455698
-0.032033807
7.7616085
-0.032434389
7.0644516
-0.032618057
6.3577055
-0.032527074
5.6470109
-0.032103875
4.9403071
-0.031297323
4.2478105
-0.030070691
3.5815818
-0.028410432
2.954623
-0.026334033
2.3795565
-0.023894683
1.8671027
-0.021180619
1.4246645
-0.018307942
1.0553808
-0.015407496
0.75788535
-0.012608385
0.52681385
-0.01002194
0.3538904
-0.0077298704
0.22927912
-0.0057788881
0.14287649
-0.0041819339
0.085311199
-0.0029243368
0.048552284
-0.0019723212
0.026150172
-0.0012814395
0.013205531
-0.00080337917
0.0061797282
-0.00049066516
0.0026422926
-0.00029962179
0.0010155142
-0.00019230659
0.00034451218
-0.00013789866
0.00010118352
-0.00011351558
2.5211526e-05
-0.00010406742
5.1918174e-06
-0.00010097322
7.9521619e-07
-0.00010013708
-3.2858225e-08
-9.995605e-05
-1.5773802e-07
-9.992414e-05
-9.0560684e-08
-9.9914699e-05
1.1271906e-08
-9.9908331e-05
-9.9910316e-05
16.761552
-0.020187109
16.317144
-0.020677079
15.854838
-0.021203246
15.375222
-0.021766716
14.878935
-0.02236813
14.366622
-0.023007461
13.838891
-0.02368375
13.296268
-0.024394757
12.739145
-0.025136521
12.167746
-0.025902803
11.582094
-0.026684415
10.982021
-0.02746842
10.367197
-0.028237242
9.7372305
-0.028967727
9.0918249
-0.029630285
8.4310252
-0.030188277
7.7555464
-0.030597929
7.0671814
-0.030809125
6.3692478
-0.030767511
5.6670077
-0.03041827
4.9679526
-0.029711803
4.2818253
-0.028611102
3.6202527
-0.02710002
2.995921
-0.02519092
2.4213258
-0.022929597
1.9072917
-0.020395394
1.4615509
-0.017695229
1.0877406
-0.014951814
0.78506673
-0.012288307
0.54871058
-0.0098128805
0.37083331
-0.0076068475
0.24188608
-0.0057187194
0.1519014
-0.0041646043
0.091521736
-0.0029335636
0.052649344
-0.0019955355
0.028727295
-0.0013094717
0.014737971
-0.000830068
0.0070307717
-0.00051247815
0.0030768677
-0.00031524332
0.0012157997
-0.00020209943
0.00042610648
-0.00014321472
0.00012992457
-0.00011597552
3.3767851e-05
-0.00010502054
7.2936711e-06
-0.00010127704
1.2088882e-06
-0.00010021552
3.3425986e-08
-9.9971829e-05
-1.3990873e-07
-9.9925762e-05
-7.9631283e-08
-9.9914077e-05
8.1757031e-09
-9.9908362e-05
-9.9910027e-05
16.687158
-0.018960509
16.244523
-0.019426061
15.784143
-0.019926025
15.306632
-0.020461485
14.812654
-0.021033103
14.302888
-0.021640931
13.777981
-0.022284168
13.238504
-0.022960842
12.684901
-0.023667399
12.11745
-0.024398197
11.536234
-0.025144876
10.94114
-0.025895619
10.331888
-0.026634312
9.7081183
-0.027339663
9.0695376
-0.027984365
8.4161514
-0.028534475
7.7485758
-0.028949259
7.0684299
-0.029181819
6.378773
-0.029180912
5.6845232
-0.028894328
4.9927599
-0.028274043
4.3127837
-0.02728305
3.6558077
-0.025903151
3.0342051
-0.024142378
2.4603271
-0.022040083
1.9450672
-0.019667705
1.4964404
-0.017123835
1.1185326
-0.01452366
0.81108141
-0.011984683
0.56978537
-0.0096119037
0.38723038
-0.007485991
0.25415486
-0.0056568805
0.16073574
-0.0041434413
0.097641024
-0.0029380842
0.056717834
-0.0020141201
0.031311659
-0.0013335867
0.016294304
-0.00085388787
0.0079093963
-0.00053252261
0.0035350463
-0.00033001763
0.0014325651
-0.00021165573
0.00051725838
-0.00014858832
0.00016324933
-0.00011856298
4.4119678e-05
-0.00010606878
9.9620699e-06
-0.00010162811
1.7657435e-06
-0.00010031122
1.2912031e-07
-9.9992462e-05
-1.1784417e-07
-9.9928584e-05
-6.9820794e-08
-9.9913839e-05
5.5762655e-09
-9.9908396e-05
-9.9909668e-05
16.616472
-0.017868611
16.175518
-0.01831159
15.716963
-0.018787327
15.24144
-0.019296884
14.749639
-0.019840935
14.242269
-0.020419598
13.720012
-0.021032209
13.183482
-0.021677027
12.633168
-0.022350858
12.069402
-0.023048581
11.492319
-0.023762566
10.901861
-0.024481985
10.297794
-0.02519202
9.6797906
-0.025873024
9.047565
-0.02649972
8.4010912
-0.027040576
7.7409
-0.027457586
7.0684571
-0.027706769
6.3865893
-0.027739741
5.6999019
-0.027506738
5.0150947
-0.026961314
4.3410545
-0.026066666
3.6886004
-0.024802979
3.0697968
-0.023174605
2.4968379
-0.021215264
1.9806561
-0.018989338
1.5295081
-0.016587855
1.1478851
-0.014119037
0.83601734
-0.011695013
0.59009476
-0.0094176292
0.40311492
-0.0073667156
0.26610252
-0.0055933165
0.16938576
-0.0041187051
0.10366856
-0.0029383004
0.060753527
-0.0020284816
0.033897614
-0.0013541011
0.017869139
-0.00087501971
0.008811498
-0.00055085004
0.0040143553
-0.00034391094
0.0016647279
-0.00022091231
0.00061773364
-0.00015396755
0.00020125634
-0.00012125113
5.6399385e-05
-0.00010720428
1.3272405e-05
-0.00010202655
2.4941436e-06
-0.00010042561
2.6181103e-07
-0.00010001875
-9.0001234e-08
-9.993287e-05
-6.047742e-08
-9.9914016e-05
3.5907049e-09
-9.990845e-05
-9.9909299e-05
16.549214
-0.016891363
16.109857
-0.017313647
15.653033
-0.017767171
15.179392
-0.01825297
14.689648
-0.018771728
14.184536
-0.019323613
13.664773
-0.019908074
13.131009
-0.020523568
12.583777
-0.021167208
12.023458
-0.021834327
11.450237
-0.022517933
10.864106
-0.023208062
10.264877
-0.02389104
9.6522541
-0.024548683
9.0259622
-0.025157522
8.3859501
-0.025688185
7.7326755
-0.026105132
7.0674679
-0.026367034
6.3929442
-0.026428146
5.7134246
-0.026241005
5.035258
-0.025760733
4.3669445
-0.024950887
3.7189273
-0.023790402
3.1029683
-0.022280506
2.5310948
-0.020449983
2.014253
-0.018356905
1.5609054
-0.016085418
1.1759086
-0.013737286
0.85995075
-0.011419541
0.60968766
-0.0092309073
0.41851564
-0.007250219
0.27774367
-0.0055293577
0.17785671
-0.0040916909
0.10960383
-0.0029353498
0.064752733
-0.0020395222
0.03648024
-0.0013716493
0.019457716
-0.0008938422
0.0097333525
-0.00056763235
0.0045124408
-0.00035695975
0.0019111638
-0.00022984261
0.00072721422
-0.00015931554
0.00024398647
-0.00012401677
7.0717258e-05
-0.00010841888
1.729679e-05
-0.00010247185
3.4238563e-06
-0.00010055988
4.4020919e-07
-0.0001000515
-5.4397814e-08
-9.9938914e-05
-5.0924083e-08
-9.9914664e-05
2.2657043e-09
-9.9908553e-05
-9.990896e-05
16.485097
-0.016012015
16.047262
-0.016415173
15.592083
-0.016848165
15.120229
-0.017312002
14.632432
-0.017807368
14.129455
-0.018334476
13.612045
-0.018892872
13.080886
-0.019481184
12.536552
-0.020096795
11.979468
-0.020735439
11.409868
-0.021390687
10.827789
-0.022053344
10.233089
-0.022710753
9.6255022
-0.023346034
9.0047664
-0.023937339
8.3708114
-0.024457237
7.7240313
-0.024872418
7.0656343
-0.025143972
6.3980483
-0.025228581
5.725332
-0.025080947
5.0535101
-0.024657721
4.3907201
-0.023922943
3.7470476
-0.022854587
3.1339589
-0.021451227
2.5633072
-0.019737307
2.0460313
-0.017765242
1.5907678
-0.015612901
1.2027034
-0.013376056
0.88295147
-0.011156906
0.62860968
-0.0090511068
0.43346012
-0.0071363774
0.28909315
-0.0054652043
0.18615498
-0.0040627757
0.11544782
-0.0029296714
0.068713347
-0.0020476564
0.039055997
-0.0013865612
0.021056292
-0.00091057081
0.010671839
-0.00058297242
0.0050272043
-0.00036918268
0.0021707869
-0.00023842165
0.00084533626
-0.00016459942
0.00029143482
-0.00012683804
8.7162453e-05
-0.00010970399
2.2103016e-05
-0.00010296292
4.5855632e-06
-0.00010071504
6.7408181e-07
-0.00010009151
-8.6062753e-09
-9.9947043e-05
-4.0434379e-08
-9.9915869e-05
1.6298602e-09
-9.9908745e-05
-9.9908689e-05
16.423885
-0.015217002
15.987501
-0.015602523
15.533889
-0.016016579
15.063733
-0.016460157
14.577786
-0.016933939
14.076832
-0.017438172
13.561646
-0.017972484
13.032946
-0.01853565
12.491344
-0.019125291
11.937304
-0.01973749
11.371106
-0.020366318
10.792833
-0.021003263
10.202382
-0.021636573
9.5995208
-0.022250534
8.9840006
-0.022824756
8.3557368
-0.023333561
7.7150684
-0.023745661
7.0630958
-0.024024358
6.4020749
-0.024128576
5.735825
-0.024015047
5.0700703
-0.023641916
4.4126081
-0.022973793
3.7731838
-0.021987932
3.1629755
-0.020680648
2.5936571
-0.019072566
2.0761427
-0.01721102
1.6192149
-0.015168144
1.2283584
-0.013034146
0.90508166
-0.010906644
0.64690157
-0.0088782911
0.44797308
-0.0070255925
0.30016446
-0.0054014422
0.19428649
-0.0040326099
0.1212017
-0.0029218891
0.072633768