/*--------------------------------*- C++ -*----------------------------------*\
| =========                 |                                                 |
| \\      /  F ield         | OpenFOAM: The Open Source CFD Toolbox           |
|  \\    /   O peration     | Version:  4.0                                   |
|   \\  /    A nd           | Web:      www.OpenFOAM.org                      |
|    \\/     M anipulation  |                                                 |
\*---------------------------------------------------------------------------*/
FoamFile
{
    version     2.0;
    format      ascii;
    class       volScalarField;
    location    "4000/fluid";
    object      T;
}
// * * * * * * * * * * * * * * * * * * * * * * * * * * * * * * * * * * * * * //

dimensions      [0 0 0 1 0 0 0];

internalField   nonuniform List<scalar> 
5000
(
309.38825
308.54035
307.64207
306.69793
305.7144
304.70008
303.66564
302.62372
301.58859
300.57562
299.60055
298.6787
297.82394
297.04787
296.35898
295.76209
295.25815
294.84434
294.51452
294.25998
294.0703
293.9343
293.8409
293.77981
293.74205
293.72021
293.70857
293.70298
293.70065
293.69989
293.69975
293.6998
293.69987
293.6999
293.69992
293.69992
293.69993
293.69993
293.69993
293.69993
293.69993
293.69993
293.69993
293.69993
293.69993
293.69993
293.69993
293.69993
293.69993
293.69992
310.26947
309.73964
309.17212
308.56431
307.91366
307.21796
306.47566
305.68629
304.851
303.97312
303.05871
302.11692
301.16022
300.20416
299.26672
298.36722
297.52481
296.75669
296.07648
295.49286
295.00882
294.62171
294.32395
294.10432
293.94953
293.84574
293.7799
293.74068
293.71893
293.70785
293.70275
293.70068
293.69997
293.69979
293.69976
293.69977
293.69978
293.69978
293.69978
293.69978
293.69978
293.69978
293.69978
293.69978
293.69978
293.69978
293.69978
293.69978
293.69978
293.69978
310.89663
310.38246
309.83354
309.24882
308.62743
307.96868
307.27219
306.53796
305.76651
304.95914
304.11824
303.24769
302.35328
301.44317
300.52819
299.62185
298.7399
297.89949
297.11773
296.40999
295.7882
295.25952
294.82556
294.48255
294.2222
294.03299
293.90184
293.81553
293.76192
293.73074
293.71389
293.70555
293.70181
293.70033
293.69982
293.69967
293.69964
293.69963
293.69963
293.69963
293.69963
293.69963
293.69963
293.69963
293.69963
293.69963
293.69963
293.69963
293.69963
293.69963
311.41975
310.91133
310.36858
309.79052
309.17639
308.52573
307.83843
307.11485
306.35592
305.56327
304.73939
303.88782
303.01343
302.12262
301.2236
300.32655
299.44366
298.58884
297.77704
297.02322
296.34091
295.74077
295.22929
294.80808
294.4738
294.21885
294.03257
293.90269
293.81668
293.76289
293.73138
293.71424
293.70567
293.7018
293.70024
293.6997
293.69953
293.69949
293.69949
293.69949
293.69949
293.69949
293.69949
293.69949
293.69949
293.69949
293.69949
293.69949
293.69949
293.69949
311.86174
311.35884
310.82197
310.25015
309.6426
308.99883
308.31868
307.60246
306.85101
306.06584
305.24932
304.40478
303.53676
302.65112
301.75531
300.85838
299.97109
299.10571
298.27566
297.49477
296.77633
296.1318
295.56964
295.09427
294.70561
294.39917
294.16684
293.99798
293.88081
293.80356
293.75547
293.72742
293.71225
293.70472
293.70135
293.7
293.69952
293.69938
293.69935
293.69934
293.69934
293.69934
293.69934
293.69934
293.69934
293.69934
293.69934
293.69934
293.69934
293.69934
312.23589
311.73725
311.20492
310.63791
310.03541
309.3969
308.72217
308.01144
307.26542
306.48549
305.67377
304.83335
303.96839
303.08438
302.1882
301.28832
300.39476
299.51901
298.67369
297.87202
297.12699
296.45032
295.85137
295.33611
294.90642
294.55998
294.29062
294.08925
293.94498
293.84633
293.7823
293.74311
293.7207
293.70884
293.7031
293.7006
293.69964
293.69931
293.69922
293.6992
293.69919
293.69919
293.69919
293.69919
293.69919
293.69919
293.69919
293.69919
293.69919
293.6992
312.55559
312.061
311.533
310.97056
310.37288
309.73939
309.06984
308.36435
307.62353
306.84859
306.04147
305.20498
304.34297
303.4605
302.56401
301.66144
300.76225
299.87737
299.01893
298.19976
297.43273
296.72976
296.10084
295.55297
295.08945
294.70952
294.40854
294.1787
294.00998
293.89136
293.81184
293.76131
293.73111
293.71429
293.70565
293.70162
293.69993
293.69931
293.69911
293.69906
293.69905
293.69905
293.69905
293.69905
293.69905
293.69905
293.69905
293.69905
293.69905
293.69905
312.83052
312.33943
311.81515
311.25666
310.66313
310.03397
309.36887
308.66791
307.9316
307.16104
306.35797
305.52501
304.66572
303.78484
302.8884
301.9839
301.08031
300.18808
299.31891
298.48533
297.70011
296.97532
296.32144
295.74629
295.25425
294.84583
294.51764
294.26294
294.07253
293.93583
293.84194
293.78057
293.74264
293.72065
293.70883
293.70301
293.70042
293.69939
293.69904
293.69893
293.69891
293.6989
293.6989
293.6989
293.6989
293.6989
293.6989
293.6989
293.6989
293.6989
313.06946
312.58174
312.06105
311.50636
310.91684
310.29187
309.6311
308.93455
308.20266
307.43639
306.63738
305.80801
304.95163
304.07267
303.17683
302.2712
301.36432
300.46623
299.58824
298.7426
297.94196
297.19852
296.52313
295.9243
295.40733
294.97376
294.6213
294.34417
294.1339
293.98038
293.87286
293.80094
293.75528
293.72795
293.71269
293.70482
293.70113
293.69958
293.699
293.69882
293.69877
293.69876
293.69876
293.69876
293.69876
293.69876
293.69876
293.69876
293.69876
293.69876
313.27883
312.79419
312.27679
311.72558
311.13974
310.51861
309.86182
309.16934
308.44154
307.6793
306.88411
306.05821
305.20475
304.32789
303.43303
302.52691
301.61771
300.71506
299.82993
298.97429
298.16066
297.40129
296.70735
296.08789
295.54898
295.09309
294.71889
294.42147
294.19306
294.02397
293.90367
293.82172
293.76853
293.73587
293.71705
293.70699
293.70205
293.69987
293.69901
293.69872
293.69864
293.69861
293.69861
293.69861
293.69861
293.69861
293.69861
293.69861
293.69861
293.69861
313.4641
312.98242
312.46817
311.92031
311.33799
310.72056
310.06761
309.37906
308.65524
307.89693
307.10552
306.28311
305.43264
304.55808
303.66455
302.75847
301.84769
300.94149
300.05051
299.18646
298.3617
297.58853
296.87831
296.24058
295.68206
295.20604
294.81204
294.49597
294.25071
294.06702
293.93457
293.84294
293.78239
293.74439
293.72191
293.70951
293.7032
293.70029
293.69908
293.69865
293.69851
293.69847
293.69846
293.69846
293.69846
293.69846
293.69846
293.69846
293.69846
293.69846
313.62938
313.15046
312.63915
312.09442
311.5154
310.90143
310.25208
309.56724
308.84717
308.0926
307.30482
306.48579
305.63832
304.76615
303.87418
302.96856
302.05681
301.14791
300.25217
299.38106
298.54678
297.7616
297.03708
296.38312
295.80701
295.31277
294.90069
294.56744
294.30651
294.10913
293.96518
293.86429
293.79658
293.75331
293.72716
293.71234
293.70456
293.70083
293.69921
293.6986
293.69839
293.69833
293.69832
293.69832
293.69832
293.69832
293.69832
293.69832
293.69832
293.69832
313.77807
313.30178
312.79327
312.25152
311.67566
311.06499
310.41908
309.73779
309.02133
308.27037
307.48612
306.67042
305.82594
304.95625
304.06602
303.16116
302.24891
301.33796
300.43832
299.56123
298.71871
297.92299
297.18577
296.51724
295.92522
295.41434
294.98562
294.63641
294.36082
294.15049
293.99558
293.88576
293.81109
293.76261
293.73276
293.71545
293.70612
293.70149
293.69941
293.69858
293.69828
293.6982
293.69818
293.69817
293.69817
293.69817
293.69817
293.69817
293.69817
293.69817
313.9128
313.43898
312.93312
312.39417
311.82127
311.21373
310.57107
309.89314
309.18011
308.43259
307.65172
306.83925
305.9977
305.13051
304.24215
303.33828
302.42592
301.51345
300.61064
299.72847
298.8788
298.07381
297.32527
296.64364
296.03716
295.51104
295.06694
294.70288
294.41352
294.19096
294.02559
293.9072
293.82576
293.77218
293.73863
293.71881
293.70786
293.70227
293.69967
293.69859
293.69819
293.69807
293.69803
293.69803
293.69802
293.69802
293.69802
293.69802
293.69802
293.69802
314.03573
313.56426
313.06091
312.52463
311.95455
311.34996
310.7104
310.03568
309.32592
308.58171
307.80409
306.99476
306.1561
305.29141
304.40498
303.50229
302.59009
301.67654
300.77113
299.88463
299.02871
298.21549
297.45679
296.76329
296.1436
295.60345
295.14508
294.76712
294.4648
294.23061
294.05525
293.92858
293.84057
293.78196
293.74475
293.72239
293.70977
293.70316
293.7
293.69863
293.69811
293.69794
293.69789
293.69788
293.69788
293.69788
293.69788
293.69788
293.69788
293.69788
314.14858
313.67933
313.17834
312.64458
312.07717
311.47539
310.83877
310.16708
309.46044
308.71938
307.94489
307.13857
306.30273
305.44051
304.55607
303.65467
302.74287
301.82858
300.92106
300.03085
299.16946
298.34892
297.58107
296.87678
296.24498
295.69185
295.2202
294.82921
294.51464
294.26941
294.08448
293.94984
293.85544
293.79191
293.75107
293.72615
293.71183
293.70417
293.7004
293.69872
293.69805
293.69782
293.69775
293.69774
293.69773
293.69773
293.69773
293.69773
293.69773
293.69773
314.25276
313.78562
313.28688
312.75551
312.19063
311.59151
310.95768
310.28889
309.58523
308.84717
308.07568
307.27228
306.43918
305.5794
304.69696
303.79695
302.88572
301.97096
301.06173
300.16833
299.30212
298.47502
297.69889
296.98474
296.34179
295.77662
295.29256
294.88932
294.56315
294.3074
294.11329
293.97095
293.87033
293.80198
293.75755
293.73007
293.71403
293.70527
293.70086
293.69884
293.69801
293.69771
293.69762
293.69759
293.69759
293.69759
293.69759
293.69759
293.69759
293.69759
314.34941
313.88427
313.38766
312.85856
312.29608
311.6995
311.06831
310.40228
309.70145
308.96627
308.19766
307.39706
306.5666
305.70922
304.82878
303.93021
303.0197
302.10471
301.19409
300.29795
299.42747
298.59448
297.81083
297.08765
296.43439
295.85803
295.36234
294.94754
294.61038
294.34457
294.14164
293.99187
293.88521
293.81214
293.76417
293.73414
293.71635
293.70647
293.70138
293.69899
293.69798
293.6976
293.69748
293.69745
293.69744
293.69744
293.69744
293.69744
293.69744
293.69744
314.4395
313.97626
313.48168
312.95473
312.39453
311.80036
311.1717
310.50828
309.81016
309.07773
308.31187
307.51397
306.68609
305.83105
304.95258
304.05551
303.1458
302.23076
301.31903
300.42053
299.54626
298.70795
297.91745
297.18595
296.52314
295.93633
295.42972
295.00401
294.65638
294.38097
294.16956
294.01258
293.90005
293.82236
293.77089
293.73833
293.71878
293.70776
293.70197
293.69918
293.69797
293.69751
293.69735
293.69731
293.69729
293.69729
293.69729
293.69729
293.69729
293.69729
314.52381
314.06237
313.56972
313.04482
312.4868
311.89491
311.26866
310.60774
309.9122
309.1824
308.41918
307.62388
306.79848
305.94571
305.06922
304.17364
303.26483
302.3499
301.43728
300.53673
299.65909
298.81598
298.0192
297.28002
296.60834
296.01175
295.49486
295.05881
294.70122
294.4166
294.19703
294.03308
293.91483
293.83261
293.7777
293.74262
293.72132
293.70912
293.70261
293.69941
293.69799
293.69742
293.69722
293.69716
293.69715
293.69715
293.69715
293.69715
293.69715
293.69715
314.603
314.14329
313.65247
313.12952
312.57357
311.98387
311.35991
310.70138
310.0083
309.28103
308.52034
307.72754
306.90454
306.05399
305.17942
304.28537
303.37751
302.4628
301.5495
300.64717
299.76652
298.91904
298.11649
297.37022
296.69026
296.0845
295.55791
295.11205
294.74496
294.45151
294.22406
294.05336
293.92953
293.84288
293.78457
293.74699
293.72393
293.71056
293.70331
293.69968
293.69802
293.69734
293.6971
293.69702
293.697
293.697
293.697
293.697
293.697
293.697
314.67764
314.21956
313.7305
313.20942
312.65544
312.06783
311.44605
310.78981
310.09909
309.37422
308.61597
307.82557
307.00489
306.1565
305.28382
304.39129
303.48443
302.57004
301.65622
300.75236
299.86901
299.01754
298.20969
297.45683
296.76914
296.15476
295.619
295.1638
294.78763
294.4857
294.25065
294.0734
293.94414
293.85315
293.7915
293.75145
293.72663
293.71207
293.70406
293.69997
293.69807
293.69727
293.69698
293.69689
293.69686
293.69685
293.69685
293.69685
293.69685
293.69685
314.7482
314.29169
313.8043
313.285
312.73291
312.14729
311.52761
310.87355
310.18509
309.46253
308.70661
307.91853
307.10009
306.25379
305.38298
304.49195
303.58613
302.67215
301.75795
300.85276
299.96698
299.11187
298.29912
297.54012
296.84519
296.22269
295.67824
295.21417
294.8293
294.51922
294.27682
294.09322
293.95865
293.86341
293.79847
293.75597
293.7294
293.71364
293.70486
293.7003
293.69814
293.69722
293.69686
293.69675
293.69672
293.69671
293.69671
293.69671
293.69671
293.69671
314.81509
314.36008
313.87428
313.35669
312.8064
312.22269
311.60502
310.95305
310.26675
309.54642
308.79274
308.00689
307.19062
306.34636
305.47736
304.58783
303.68306
302.76956
301.85509
300.94875
300.06078
299.20235
298.38506
297.62034
296.91862
296.28845
295.73575
295.26321
294.87001
294.55208
294.30258
294.11279
293.97306
293.87365
293.80547
293.76054
293.73222
293.71526
293.7057
293.70067
293.69823
293.69717
293.69675
293.69661
293.69657
293.69656
293.69656
293.69656
293.69656
293.69656
314.87865
314.42508
313.94081
313.42485
312.8763
312.29442
311.67866
311.0287
310.34448
309.62629
308.87477
308.09107
307.27689
306.4346
305.56738
304.67934
303.77564
302.86266
301.94804
301.0407
300.15076
299.28927
298.46778
297.69771
296.98958
296.35216
295.79163
295.311
294.90981
294.58431
294.32793
294.13214
293.98736
293.88387
293.81249
293.76516
293.7351
293.71694
293.70658
293.70106
293.69834
293.69713
293.69665
293.69648
293.69643
293.69642
293.69642
293.69642
293.69642
293.69642
314.9392
314.487
314.00421
313.48981
312.94292
312.36279
311.74888
311.10085
310.41863
309.70248
308.95304
308.17142
307.35927
306.5189
305.65342
304.76683
303.86422
302.95181
302.03712
301.12892
300.2372
299.37289
298.54748
297.7724
297.05825
296.41396
295.84598
295.3576
294.94874
294.61593
294.35289
294.15126
294.00155
293.89404
293.81953
293.76982
293.73803
293.71866
293.7075
293.70148
293.69847
293.6971
293.69655
293.69635
293.69629
293.69627
293.69627
293.69627
293.69627
293.69627
314.99699
314.54612
314.06474
313.55184
313.00655
312.42811
311.81597
311.16978
310.48949
309.77531
309.02788
308.24826
307.43807
306.59957
305.73578
304.85064
303.94911
303.03732
302.12263
301.21369
300.32035
299.45345
298.62439
297.84461
297.12477
296.47396
295.89886
295.40308
294.98683
294.64697
294.37747
294.17015
294.01562
293.90418
293.82657
293.77451
293.74101
293.72043
293.70846
293.70193
293.69862
293.69709
293.69645
293.69622
293.69615
293.69613
293.69612
293.69612
293.69612
293.69612
315.05226
314.60266
314.12264
313.61119
313.06743
312.49061
311.88017
311.23577
310.55733
309.84506
309.09956
308.32188
307.51359
306.67689
305.81476
304.93104
304.0306
303.11944
302.20482
301.29525
300.40045
299.53115
298.69869
297.91448
297.18926
296.53226
295.95037
295.44749
295.02413
294.67745
294.40168
294.18882
294.02958
293.91428
293.83362
293.77923
293.74402
293.72224
293.70945
293.7024
293.69878
293.69708
293.69636
293.69609
293.69601
293.69598
293.69598
293.69598
293.69598
293.69598
315.10522
314.65684
314.17812
313.66807
313.12578
312.55052
311.94173
311.29905
310.62239
309.91196
309.16833
308.39252
307.58606
306.75113
305.89061
305.00829
304.10893
303.19844
302.28395
301.37384
300.47771
299.60618
298.77054
297.98216
297.25185
296.58895
296.00057
295.49087
295.06066
294.70739
294.42553
294.20727
294.04342
293.92433
293.84066
293.78397
293.74706
293.72408
293.71048
293.7029
293.69896
293.69709
293.69628
293.69597
293.69587
293.69584
293.69583
293.69583
293.69583
293.69583
315.15603
314.70883
314.23138
313.72266
313.1818
312.60805
312.00084
311.35982
310.68488
309.97622
309.2344
308.4604
307.65573
306.8225
305.96357
305.08261
304.18434
303.27453
302.36021
301.44965
300.55231
299.67873
298.84009
298.04779
297.31264
296.64413
296.04954
295.53329
295.09646
294.73681
294.44903
294.2255
294.05714
293.93433
293.8477
293.78874
293.75014
293.72596
293.71153
293.70342
293.69916
293.6971
293.6962
293.69585
293.69573
293.69569
293.69569
293.69568
293.69568
293.69568
315.20487
314.75881
314.28257
313.77515
313.23566
312.66336
312.05768
311.41826
310.74498
310.03804
309.29796
308.52572
307.72278
306.89122
306.03382
305.15422
304.25702
303.34791
302.43381
301.52286
300.62443
299.74893
298.9075
298.11148
297.37174
296.69786
296.09733
295.57477
295.13157
294.76572
294.47219
294.24352
294.07074
293.94427
293.85472
293.79351
293.75325
293.72786
293.71262
293.70397
293.69938
293.69713
293.69613
293.69573
293.69559
293.69555
293.69554
293.69554
293.69554
293.69554
315.25188
314.80691
314.33185
313.82568
313.28752
312.71662
312.11242
311.47454
310.80287
310.09759
309.3592
308.58866
307.7874
306.95746
306.10157
305.22329
304.32715
303.41876
302.50491
301.59364
300.69422
299.81694
298.97287
298.17334
297.42923
296.75024
296.14399
295.61537
295.166
294.79416
294.49502
294.26133
294.08423
293.95416
293.86174
293.7983
293.75638
293.7298
293.71373
293.70454
293.69961
293.69717
293.69606
293.69562
293.69546
293.69541
293.6954
293.69539
293.69539
293.69539
315.29718
314.85327
314.37934
313.87438
313.3375
312.76796
312.16519
311.52881
310.8587
310.15502
309.41827
308.64938
307.84976
307.02139
306.16696
305.28999
304.3949
303.48723
302.57367
301.66215
300.76181
299.88288
299.03634
298.23347
297.48521
296.80131
296.18959
295.65512
295.19979
294.82212
294.51753
294.27894
294.09759
293.964
293.86874
293.8031
293.75953
293.73176
293.71486
293.70512
293.69985
293.69721
293.696
293.6955
293.69532
293.69527
293.69525
293.69525
293.69525
293.69525
315.34088
314.89801
314.42518
313.92138
313.38575
312.81752
312.21613
311.5812
310.91259
310.21047
309.47531
308.70803
307.90999
307.08315
306.23017
305.35446
304.46042
303.55348
302.64023
301.72851
300.82735
299.94687
299.09799
298.29197
297.53974
296.85116
296.23417
295.69406
295.23296
294.84963
294.53973
294.29635
294.11085
293.97378
293.87572
293.80791
293.76269
293.73374
293.71602
293.70573
293.70012
293.69727
293.69595
293.69539
293.69519
293.69512
293.6951
293.6951
293.6951
293.6951
315.38311
314.94123
314.46946
313.9668
313.43236
312.86541
312.26536
311.63183
310.96469
310.26407
309.53046
308.76473
307.96823
307.14289
306.29131
305.41686
304.52385
303.61764
302.70473
301.79285
300.89094
300.00902
299.15794
298.34892
297.5929
296.89982
296.27777
295.73222
295.26553
294.87671
294.56163
294.31356
294.12398
293.9835
293.88268
293.81271
293.76588
293.73575
293.7172
293.70636
293.70039
293.69733
293.6959
293.69529
293.69506
293.69498
293.69496
293.69495
293.69495
293.69495
315.42393
314.98302
314.51228
314.01072
313.47745
312.91173
312.31298
311.68081
311.01509
310.31593
309.58382
308.8196
308.02461
307.20073
306.35051
305.47729
304.58531
303.67983
302.76729
301.8553
300.9527
300.06943
299.21627
298.4044
297.64476
296.94737
296.32044
295.76964
295.29753
294.90337
294.58324
294.33058
294.13701
293.99317
293.88962
293.81753
293.76908
293.73777
293.7184
293.707
293.70068
293.69741
293.69586
293.69519
293.69493
293.69484
293.69482
293.69481
293.69481
293.69481
315.46346
315.02348
314.55374
314.05324
313.5211
312.95658
312.35909
311.72824
311.0639
310.36617
309.63551
308.87276
308.07923
307.25677
306.4079
305.53588
304.64491
303.74017
302.828
301.91594
301.01272
300.1282
299.27307
298.45847
297.69538
296.99385
296.36222
295.80633
295.32897
294.92962
294.60456
294.34742
294.14992
294.00277
293.89654
293.82234
293.7723
293.73982
293.71962
293.70766
293.70098
293.6975
293.69582
293.69509
293.6948
293.6947
293.69467
293.69466
293.69466
293.69466
315.50175
315.06268
314.59391
314.09445
313.56341
313.00005
312.40378
311.77422
311.11121
310.41486
309.68562
308.9243
308.1322
307.31113
306.46356
305.59273
304.70276
303.79876
302.88698
301.97488
301.0711
300.1854
299.32841
298.51122
297.74482
297.03931
296.40315
295.84234
295.35988
294.95547
294.6256
294.36407
294.16272
294.01232
293.90344
293.82715
293.77552
293.74188
293.72086
293.70834
293.7013
293.69759
293.69579
293.69499
293.69467
293.69456
293.69453
293.69452
293.69452
293.69451
315.53889
315.1007
314.63287
314.13442
313.60444
313.04221
312.44713
311.81882
311.15711
310.46211
309.73424
308.97432
308.1836
307.36389
306.51761
305.64794
304.75895
303.85568
302.94432
302.03221
301.12792
300.24111
299.38236
298.5627
297.79313
297.08379
296.44325
295.87769
295.39028
294.98094
294.64638
294.38055
294.17541
294.02181
293.91031
293.83196
293.77876
293.74395
293.72211
293.70904
293.70163
293.69769
293.69576
293.6949
293.69455
293.69442
293.69438
293.69437
293.69437
293.69437
315.57493
315.1376
314.67069
314.17321
313.64428
313.08314
312.48922
311.86212
311.20167
310.50798
309.78146
309.0229
308.23353
307.41514
306.57011
305.70159
304.81357
303.91104
303.0001
302.08802
301.18326
300.29542
299.43499
298.61298
297.84035
297.12733
296.48257
295.9124
295.42018
295.00604
294.66689
294.39685
294.188
294.03124
293.91716
293.83676
293.782
293.74605
293.72338
293.70975
293.70197
293.69781
293.69574
293.69481
293.69442
293.69429
293.69424
293.69423
293.69422
293.69422
315.60994
315.17345
314.70743
314.2109
313.68297
313.12291
312.53011
311.90419
311.24498
310.55256
309.82734
309.07011
308.28207
307.46497
306.62117
305.75377
304.8667
303.96491
303.0544
302.14237
301.23719
300.34838
299.48636
298.66209
297.88655
297.16998
296.52114
295.94649
295.4496
295.03078
294.68714
294.41297
294.20048
294.04061
293.92398
293.84156
293.78525
293.74815
293.72467
293.71047
293.70232
293.69793
293.69573
293.69472
293.6943
293.69415
293.6941
293.69408
293.69408
293.69408
315.64398
315.2083
314.74315
314.24754
313.7206
313.16157
312.56987
311.9451
311.28709
310.59591
309.87197
309.11602
308.32928
307.51344
306.67085
305.80454
304.91843
304.01737
303.1073
302.19533
301.28978
300.40006
299.53653
298.71011
297.93176
297.21177
296.55898
295.97999
295.47855
295.05517
294.70715
294.42894
294.21285
294.04992
293.93077
293.84636
293.78851
293.75027
293.72597
293.71121
293.70269
293.69806
293.69572
293.69464
293.69418
293.69401
293.69395
293.69394
293.69393
293.69393
315.67709
315.2422
314.77789
314.28319
313.7572
313.19919
312.60856
311.98491
311.32806
310.6381
309.9154
309.16072
308.37523
307.56063
306.71921
305.85399
304.96881
304.06847
303.15885
302.24699
301.34109
300.45051
299.58555
298.75707
297.97602
297.25272
296.59611
296.01292
295.50706
295.07923
294.72691
294.44473
294.22512
294.05918
293.93754
293.85114
293.79178
293.7524
293.72729
293.71196
293.70306
293.6982
293.69572
293.69456
293.69407
293.69388
293.69381
293.69379
293.69379
293.69378
315.70932
315.2752
314.81172
314.31789
313.79284
313.23581
312.64622
312.02367
311.36796
310.67918
309.95769
309.20424
308.41999
307.60659
306.76633
305.90218
305.01792
304.1183
303.20914
302.29738
301.39118
300.4998
299.63347
298.80301
298.01937
297.29289
296.63258
296.0453
295.53513
295.10296
294.74644
294.46037
294.23729
294.06837
293.94428
293.85592
293.79504
293.75454
293.72862
293.71272
293.70345
293.69835
293.69573
293.69449
293.69395
293.69374
293.69367
293.69365
293.69364
293.69364
315.74071
315.30735
314.84467
314.3517
313.82756
313.27149
312.68292
312.06143
311.40684
310.71921
309.9989
309.24666
308.46361
307.6514
306.81227
305.94916
305.06581
304.16691
303.25821
302.34659
301.44011
300.54798
299.68034
298.84799
298.06185
297.33229
296.66839
296.07715
295.56278
295.12636
294.76574
294.47585
294.24936
294.07751
293.95099
293.8607
293.79832
293.7567
293.72996
293.7135
293.70385
293.69851
293.69574
293.69442
293.69384
293.69361
293.69353
293.6935
293.6935
293.69349
315.77131
315.33868
314.87679
314.38465
313.8614
313.30628
312.71869
312.09825
311.44474
310.75823
310.03909
309.28801
308.50614
307.69509
306.85708
305.99499
305.11254
304.21435
303.30612
302.39464
301.48792
300.59508
299.72621
298.89204
298.10349
297.37095
296.70358
296.10848
295.59002
295.14946
294.78481
294.49117
294.26133
294.08659
293.95768
293.86546
293.80159
293.75886
293.73131
293.71429
293.70426
293.69867
293.69576
293.69435
293.69373
293.69348
293.69339
293.69336
293.69335
293.69335
315.80115
315.36924
314.90811
314.41679
313.89441
313.3402
312.75359
312.13416
311.48171
310.7963
310.07829
309.32837
308.54765
307.73773
306.90081
306.03973
305.15816
304.26068
303.35292
302.44161
301.53467
300.64116
299.77111
298.9352
298.14432
297.40891
296.73817
296.13931
295.61687
295.17226
294.80367
294.50635
294.2732
294.09562
293.96433
293.87022
293.80487
293.76103
293.73268
293.71509
293.70468
293.69885
293.69578
293.69429
293.69362
293.69335
293.69325
293.69322
293.6932
293.6932
315.83027
315.39906
314.93868
314.44816
313.92662
313.37331
312.78764
312.1692
311.51779
310.83346
310.11655
309.36775
308.58816
307.77936
306.9435
306.08342
305.20272
304.30595
303.39866
302.48753
301.5804
300.68626
299.81508
298.97749
298.18438
297.44618
296.77217
296.16966
295.64333
295.19476
294.82231
294.52138
294.28498
294.10459
293.97096
293.87496
293.80816
293.76321
293.73406
293.7159
293.70511
293.69903
293.69581
293.69423
293.69352
293.69322
293.69311
293.69307
293.69306
293.69306
315.8587
315.42817
314.96853
314.47878
313.95807
313.40564
312.82089
312.20342
311.55303
310.86975
310.15392
309.40622
308.62774
307.82003
306.98522
306.12611
305.24627
304.3502
303.44338
302.53244
301.62515
300.73042
299.85816
299.01897
298.22369
297.48279
296.8056
296.19954
295.66942
295.21698
294.84075
294.53626
294.29667
294.11351
293.97757
293.8797
293.81144
293.7654
293.73545
293.71673
293.70555
293.69922
293.69585
293.69418
293.69341
293.69309
293.69297
293.69293
293.69292
293.69291
315.88647
315.45661
314.99768
314.5087
313.98879
313.43722
312.85338
312.23686
311.58745
310.9052
310.19043
309.44381
308.66641
307.85977
307.02599
306.16784
305.28885
304.39347
303.48713
302.57639
301.66896
300.77368
299.90039
299.05965
298.26228
297.51877
296.8385
296.22898
295.69515
295.23893
294.85898
294.551
294.30826
294.12237
293.98414
293.88443
293.81473
293.76759
293.73685
293.71756
293.706
293.69942
293.69589
293.69413
293.69331
293.69297
293.69283
293.69279
293.69277
293.69277
315.91361
315.48441
315.02617
314.53794
314.01882
313.46809
312.88513
312.26954
311.6211
310.93986
310.22613
309.48056
308.70422
307.89863
307.06586
306.20865
305.33051
304.43581
303.52995
302.61942
301.71187
300.81606
299.94179
299.09956
298.30018
297.55413
296.87086
296.25797
295.72053
295.2606
294.87701
294.56561
294.31977
294.13118
293.99069
293.88914
293.81801
293.7698
293.73825
293.71841
293.70646
293.69963
293.69594
293.69408
293.69321
293.69284
293.6927
293.69264
293.69263
293.69262
315.94015
315.51158
315.05403
314.56653
314.04819
313.49827
312.91618
312.3015
311.65401
310.97375
310.26104
309.51651
308.74121
307.93664
307.10487
306.24859
305.37127
304.47725
303.57187
302.66157
301.75391
300.85761
299.9824
299.13874
298.33741
297.5889
296.90272
296.28654
295.74557
295.28201
294.89485
294.58008
294.33119
294.13993
293.99721
293.89385
293.8213
293.77201
293.73967
293.71927
293.70693
293.69984
293.69599
293.69404
293.69312
293.69272
293.69256
293.6925
293.69248
293.69248
315.9661
315.53817
315.08129
314.59449
314.07691
313.5278
312.94656
312.33276
311.68621
311.00691
310.29519
309.55168
308.7774
307.97384
307.14304
306.28768
305.41117
304.51783
303.61294
302.70286
301.79512
300.89836
300.02225
299.1772
298.37399
297.6231
296.93408
296.3147
295.77028
295.30316
294.9125
294.59442
294.34252
294.14863
294.0037
293.89855
293.82459
293.77422
293.7411
293.72013
293.70741
293.70006
293.69605
293.694
293.69303
293.6926
293.69243
293.69236
293.69234
293.69233
315.99151
315.56418
315.10796
314.62187
314.10503
313.5567
312.97629
312.36337
311.71772
311.03937
310.32862
309.5861
308.81282
308.01026
307.18042
306.32596
305.45026
304.55758
303.65317
302.74333
301.83552
300.93833
300.06136
299.21498
298.40994
297.65674
296.96496
296.34245
295.79466
295.32407
294.92997
294.60863
294.35376
294.15728
294.01016
293.90323
293.82787
293.77645
293.74254
293.72101
293.7079
293.70029
293.69612
293.69397
293.69294
293.69248
293.69229
293.69222
293.6922
293.69219
316.01638
315.58965
315.13407
314.64866
314.13255
313.58499
313.00539
312.39333
311.74858
311.07116
310.36136
309.61982
308.84752
308.04593
307.21703
306.36345
305.48855
304.59654
303.69261
302.78302
301.87516
300.97755
300.09976
299.2521
298.44529
297.68985
296.99538
296.36982
295.81874
295.34473
294.94725
294.62271
294.36492
294.16588
294.0166
293.90791
293.83116
293.77868
293.74399
293.7219
293.7084
293.70053
293.69619
293.69394
293.69285
293.69236
293.69216
293.69208
293.69205
293.69205
316.04073
315.6146
315.15965
314.67491
314.15951
313.61271
313.03391
312.42268
311.7788
311.10229
310.39343
309.65284
308.88151
308.08088
307.25291
306.4002
305.52609
304.63473
303.73128
302.82194
301.91405
301.01606
300.13747
299.28858
298.48006
297.72243
297.02534
296.39681
295.8425
295.36516
294.96436
294.63667
294.376
294.17443
294.02301
293.91258
293.83445
293.78091
293.74544
293.72279
293.70891
293.70078
293.69627
293.69391
293.69276
293.69224
293.69203
293.69194
293.69191
293.6919
316.0646
315.63904
315.18471
314.70063
314.18593
313.63987
313.06185
312.45144
311.80842
311.1328
310.42487
309.68521
308.91483
308.11513
307.28808
306.43623
305.56289
304.67218
303.76922
302.86013
301.95222
301.05387
300.17453
299.32444
298.51426
297.75451
297.05487
296.42344
295.86597
295.38535
294.9813
294.6505
294.387
294.18293
294.0294
293.91723
293.83774
293.78315
293.74691
293.7237
293.70942
293.70103
293.69635
293.69389
293.69268
293.69213
293.69189
293.6918
293.69177
293.69176
316.08799
315.663
315.20928
314.72584
314.21183
313.66649
313.08923
312.47963
311.83746
311.16271
310.45568
309.71695
308.94749
308.14872
307.32256
306.47156
305.59898
304.70893
303.80644
302.89762
301.98969
301.09101
300.21094
299.3597
298.54791
297.7861
297.08398
296.44971
295.88915
295.40532
294.99807
294.66422
294.39792
294.19139
294.03575
293.92187
293.84102
293.7854
293.74838
293.72461
293.70995
293.70129
293.69644
293.69388
293.6926
293.69202
293.69176
293.69166
293.69163
293.69162
316.11093
315.6865
315.23336
314.75056
314.23722
313.69259
313.11609
312.50728
311.86593
311.19204
310.4859
309.74807
308.97953
308.18167
307.35639
306.50623
305.6344
304.74498
303.84297
302.93442
302.0265
301.12749
300.24674
299.39438
298.58103
297.81721
297.11267
296.47563
295.91205
295.42507
295.01468
294.67782
294.40876
294.19979
294.04209
293.92651
293.84431
293.78765
293.74986
293.72554
293.71048
293.70156
293.69654
293.69386
293.69253
293.69191