/*--------------------------------*- C++ -*----------------------------------*\
| =========                 |                                                 |
| \\      /  F ield         | OpenFOAM: The Open Source CFD Toolbox           |
|  \\    /   O peration     | Version:  4.0                                   |
|   \\  /    A nd           | Web:      www.OpenFOAM.org                      |
|    \\/     M anipulation  |                                                 |
\*---------------------------------------------------------------------------*/
FoamFile
{
    version     2.0;
    format      ascii;
    class       volVectorField;
    location    "4000/fluid";
    object      U;
}
// * * * * * * * * * * * * * * * * * * * * * * * * * * * * * * * * * * * * * //

dimensions      [0 1 -1 0 0 0 0];

internalField   nonuniform List<vector> 
5000
(
(6.2157976e-07 9.8479188e-24 0.0031677899)
(2.6871696e-06 1.2541097e-23 0.0092655282)
(7.7932754e-06 9.6336447e-24 0.015378333)
(1.4173668e-05 -4.7767501e-23 0.021434941)
(2.2262124e-05 2.9531596e-22 0.027355934)
(3.0939614e-05 2.5272204e-22 0.033055567)
(3.945859e-05 2.9171108e-22 0.038444473)
(4.6549103e-05 1.030625e-21 0.043433261)
(5.091658e-05 4.041186e-21 0.047936937)
(5.1092397e-05 2.8914238e-22 0.051879941)
(4.566974e-05 -7.2253408e-22 0.055201478)
(3.3382962e-05 -2.7285052e-21 0.057860657)
(1.3289873e-05 3.515401e-22 0.059840854)
(-1.4837483e-05 -9.1550724e-22 0.061152674)
(-5.0881592e-05 -1.1510827e-21 0.061834935)
(-9.42019e-05 5.7247838e-21 0.061953204)
(-0.00014307745 4.2100978e-21 0.061595813)
(-0.00019530873 4.3301006e-21 0.0608675)
(-0.00024829145 5.3001075e-21 0.059881274)
(-0.00029921078 -9.0904231e-21 0.058749396)
(-0.00034551598 -2.3910726e-21 0.057574571)
(-0.000384955 -1.1407486e-20 0.056442434)
(-0.00041626698 -1.2116864e-20 0.055416368)
(-0.00043859942 -9.4648655e-21 0.05453514)
(-0.00045270263 5.0738154e-21 0.053813804)
(-0.00045898682 3.9378177e-21 0.053247113)
(-0.00046024241 1.0302414e-21 0.052815474)
(-0.00045692053 2.2932717e-21 0.052490887)
(-0.00045373297 -3.1734241e-21 0.052244127)
(-0.00044911916 -2.3928391e-22 0.052047816)
(-0.00045043612 3.2932257e-21 0.051882119)
(-0.00045136616 3.0889883e-21 0.051730712)
(-0.00046449921 1.7016608e-20 0.051587905)
(-0.00047491514 3.0785222e-21 0.051444468)
(-0.00050552288 -1.0711389e-20 0.051306004)
(-0.00052688227 -1.6524847e-21 0.051160699)
(-0.0005799138 -1.5468292e-21 0.05102571)
(-0.00061192803 -1.0221477e-20 0.050876456)
(-0.00069178199 -1.0301419e-20 0.050749062)
(-0.00073252151 -5.3788731e-22 0.050593632)
(-0.0008419156 6.5371517e-21 0.050479042)
(-0.00088740098 -3.0648423e-20 0.050312191)
(-0.0010253777 -7.0274928e-21 0.050214191)
(-0.0010684326 -3.4569809e-20 0.050023199)
(-0.0012272186 -1.4928674e-20 0.049940036)
(-0.0012531141 4.7654681e-20 0.049691625)
(-0.0014095782 1.2086094e-20 0.049607635)
(-0.0013778573 -2.7245406e-20 0.04928267)
(-0.0014433532 -1.3655145e-20 0.049677137)
(-0.00097076696 -4.8424835e-20 0.043705751)
(-1.1322508e-06 2.1780551e-23 0.0034070781)
(-7.2514466e-06 4.0759969e-23 0.010031913)
(-1.9691007e-05 9.5998961e-23 0.01675233)
(-4.0565764e-05 1.1098987e-22 0.023503353)
(-7.1577384e-05 8.1885023e-23 0.030208446)
(-0.00011474852 6.7545956e-23 0.036779663)
(-0.0001723295 -6.8221713e-22 0.043118492)
(-0.00024673618 -1.5965375e-21 0.049117693)
(-0.00034044067 6.3363642e-21 0.054664354)
(-0.00045579491 8.6885761e-21 0.059644374)
(-0.00059477615 1.0628225e-20 0.063948511)
(-0.00075865214 -9.8213215e-21 0.067479892)
(-0.00094758346 -1.8552782e-20 0.07016265)
(-0.0011601982 -5.8077356e-21 0.071950919)
(-0.0013932083 -1.9726507e-20 0.072837078)
(-0.0016411483 1.3334057e-20 0.072857743)
(-0.0018963423 2.07557e-20 0.072095918)
(-0.0021491625 1.1471655e-20 0.070677954)
(-0.0023886638 3.3029148e-20 0.06876472)
(-0.0026034839 1.5817191e-20 0.066537481)
(-0.002783058 -1.5682999e-20 0.064180292)
(-0.0029187043 -2.4408412e-20 0.061861763)
(-0.003004831 -5.0640576e-20 0.059719335)
(-0.0030393026 -1.7267249e-20 0.057848862)
(-0.0030241139 -4.2995969e-21 0.056300847)
(-0.0029642536 -1.0606767e-20 0.055083559)
(-0.0028682016 0 0.054171279)
(-0.0027448077 1.2512557e-20 0.053516068)
(-0.0026053007 8.2528822e-21 0.053059598)
(-0.0024572435 2.9977489e-21 0.052744412)
(-0.0023113279 1.493543e-20 0.052520549)
(-0.0021694536 2.6534695e-21 0.052350842)
(-0.0020418719 4.5141371e-20 0.052209222)
(-0.0019222093 3.2760395e-20 0.052081685)
(-0.0018246093 -1.6746668e-20 0.051959282)
(-0.0017317829 -5.9449002e-21 0.051839925)
(-0.0016692447 -1.6286866e-21 0.051721014)
(-0.0016031862 -1.3989653e-20 0.051602221)
(-0.0015803785 -1.5456361e-20 0.051484534)
(-0.0015403381 0 0.051361516)
(-0.0015642435 1.1375702e-20 0.051244571)
(-0.0015495593 -2.9697123e-20 0.051107666)
(-0.001630751 -1.3152658e-20 0.050990729)
(-0.0016396073 -3.8992598e-20 0.050819427)
(-0.0017962449 -1.5756679e-20 0.050698698)
(-0.0018228238 4.3242453e-20 0.050444735)
(-0.0020990785 7.3086252e-21 0.050322532)
(-0.0021416579 -3.6938425e-20 0.050202993)
(-0.0026404664 -4.0400243e-20 0.050791449)
(-0.0017866335 -5.5224764e-20 0.039320524)
(-1.2111337e-06 -1.2373492e-23 0.0038519705)
(-8.1402071e-06 -5.3642808e-23 0.011373146)
(-2.1911326e-05 -9.5837533e-23 0.019038967)
(-4.4724366e-05 -1.741022e-22 0.026781247)
(-7.8087756e-05 -3.5765396e-22 0.034518337)
(-0.00012373193 -6.3273558e-22 0.042154741)
(-0.0001834934 -2.0420126e-21 0.049581318)
(-0.00025926823 -7.7549532e-21 0.056676355)
(-0.00035295215 -1.1092828e-20 0.063307786)
(-0.00046635434 2.8420713e-21 0.069336862)
(-0.00060107614 -1.4255451e-21 0.074623596)
(-0.000758344 -3.8268779e-20 0.079034176)
(-0.00093878759 -2.1651239e-20 0.082450356)
(-0.0011421577 -5.2042437e-21 0.084780514)
(-0.0013669935 -9.2387401e-21 0.085971509)
(-0.0016102621 2.6480775e-20 0.086019923)
(-0.0018670378 3.4411576e-20 0.084980683)
(-0.0021302921 1.1412175e-20 0.082970714)
(-0.00239093 4.6441414e-20 0.080165529)
(-0.002638128 3.0337247e-20 0.076787568)
(-0.0028601126 2.0050582e-20 0.073086774)
(-0.0030452049 2.4275255e-20 0.069315875)
(-0.0031832481 -1.092137e-20 0.065704461)
(-0.0032667682 2.3755326e-20 0.062436676)
(-0.0032923183 1.9215146e-20 0.059636506)
(-0.003260592 2.9540829e-20 0.057362981)
(-0.0031771222 8.539255e-20 0.055615026)
(-0.0030503899 8.0111189e-20 0.054344106)
(-0.0028926027 2.0234883e-20 0.053470948)
(-0.0027151464 -3.9790486e-21 0.052903468)
(-0.0025320166 -3.8072255e-20 0.052551557)
(-0.0023510499 9.582806e-22 0.052338724)
(-0.0021848565 6.6224303e-20 0.052206147)
(-0.0020329081 1.1793565e-19 0.052115293)
(-0.001908366 -1.4058676e-20 0.052041555)
(-0.0017992244 -1.1009273e-20 0.051974416)
(-0.0017265561 -1.4612861e-20 0.051906289)
(-0.0016616059 -9.978401e-20 0.051837566)
(-0.0016453816 -1.3913765e-20 0.051765354)
(-0.0016201934 1.3753099e-21 0.051689933)
(-0.00166602 1.1538185e-20 0.051614386)
(-0.0016729918 -2.9059852e-20 0.05152661)
(-0.0017925259 -1.4658762e-20 0.051451491)
(-0.0018225278 -3.7042848e-20 0.051338673)
(-0.0020403892 2.118368e-20 0.051266023)
(-0.002090069 5.9130764e-20 0.051103994)
(-0.0024587399 3.3324137e-21 0.051124428)
(-0.0025750387 -2.5857565e-20 0.051566781)
(-0.0030034359 8.2455045e-20 0.051688849)
(-0.0018570469 2.6912063e-20 0.035316438)
(-9.4273725e-07 2.5062832e-22 0.0042791081)
(-6.6046046e-06 9.2735446e-22 0.012655917)
(-1.7804407e-05 2.3965378e-21 0.021219603)
(-3.6439226e-05 9.562367e-22 0.029899325)
(-6.3823048e-05 3.4438348e-22 0.038609448)
(-0.00010150699 5.6680247e-22 0.047248838)
(-0.00015119681 2.0660332e-22 0.055700663)
(-0.00021473321 1.3826143e-21 0.063832983)
(-0.00029406221 5.3215363e-21 0.071500406)
(-0.00039118443 1.1197639e-20 0.078547123)
(-0.00050807467 2.9285961e-20 0.084811712)
(-0.00064656237 2.7571513e-20 0.090134009)
(-0.00080816247 -2.1316866e-20 0.094364261)
(-0.00099384746 -2.6527259e-20 0.097374537)
(-0.0012037583 -7.2571881e-20 0.099071918)
(-0.0014368584 -6.4331377e-20 0.099412421)
(-0.0016905644 1.9444086e-20 0.098413861)
(-0.0019603958 9.1104687e-21 0.096165191)
(-0.0022397499 3.7246116e-20 0.092829467)
(-0.0025198688 1.4545329e-20 0.088637941)
(-0.0027901711 -3.7711018e-20 0.083874012)
(-0.0030388968 2.4162334e-20 0.078847954)
(-0.003254246 -2.6078831e-20 0.073865795)
(-0.0034255506 -6.6606206e-20 0.069197761)
(-0.003544832 -8.9129317e-20 0.065052201)
(-0.003607525 -2.5130296e-20 0.06155985)
(-0.0036137163 -1.322146e-19 0.058770591)
(-0.0035671608 4.0721427e-20 0.056662077)
(-0.0034763035 5.6137239e-20 0.055157084)
(-0.0033505413 2.3623621e-20 0.054145369)
(-0.0032030265 2.5007087e-20 0.053505453)
(-0.0030425632 -2.2746979e-20 0.053123001)
(-0.002882926 3.1403071e-20 0.052902863)
(-0.0027258111 1.2167974e-19 0.052774838)
(-0.002585816 1.7311836e-20 0.052692577)
(-0.0024524791 1.5115182e-20 0.052629616)
(-0.002348476 1.1192091e-20 0.052572325)
(-0.0022447426 -4.5709511e-20 0.052515201)
(-0.0021864831 -1.2398309e-19 0.052456411)
(-0.0021121017 -1.286682e-20 0.052394459)
(-0.002111939 1.3455506e-20 0.052332286)
(-0.0020659043 -3.0888681e-20 0.052263499)
(-0.0021425068 -1.4575544e-20 0.052200629)
(-0.0021264703 -4.2382572e-20 0.052122)
(-0.0023032056 -9.6945628e-20 0.052056299)
(-0.0023333461 -2.5632263e-20 0.0519828)
(-0.0026452449 -1.0409168e-20 0.052148139)
(-0.0027811485 -1.9866955e-20 0.052981738)
(-0.0029439577 9.1071208e-20 0.051722107)
(-0.0015419637 4.3837533e-20 0.031207799)
(-6.8674028e-07 -2.0477442e-23 0.0046148385)
(-5.0908436e-06 -1.0794837e-22 0.013667897)
(-1.372949e-05 -1.5295945e-23 0.022945767)
(-2.8164108e-05 2.2102014e-22 0.032376708)
(-4.9470307e-05 4.7112429e-22 0.041873341)
(-7.8938238e-05 4.8514508e-22 0.051331689)
(-0.00011801241 1.2217941e-21 0.06063068)
(-0.00016828616 4.004374e-21 0.069632351)
(-0.00023149065 2.2049183e-20 0.078183039)
(-0.00030946982 1.726707e-20 0.086115863)
(-0.00040413457 2.8953885e-20 0.093254905)
(-0.00051738761 9.7510939e-20 0.099421442)
(-0.00065100874 2.4165703e-20 0.10444254)
(-0.00080648864 6.9053934e-21 0.10816215)
(-0.00098480305 -1.6676076e-20 0.11045456)
(-0.0011861191 -2.0640423e-20 0.11123932)
(-0.0014094491 -1.4834202e-20 0.11049655)
(-0.0016522666 1.0212032e-20 0.10828001)
(-0.0019101643 1.3519207e-20 0.1047253)
(-0.0021766006 3.6863343e-20 0.10005003)
(-0.0024429148 -2.9890121e-20 0.094543269)
(-0.0026985909 -6.0272815e-20 0.088543817)
(-0.0029320493 -4.9884e-20 0.082408884)
(-0.0031315802 -2.5740826e-20 0.076478012)
(-0.0032868995 -1.0168059e-19 0.071038611)
(-0.0033901004 -2.0903847e-20 0.066299764)
(-0.0034373979 -3.3005482e-20 0.062378826)
(-0.0034287172 -1.0573064e-19 0.059302316)
(-0.0033694232 -2.0017794e-20 0.057019297)
(-0.0032669694 1.5733556e-20 0.055423175)
(-0.0031341809 7.7151415e-20 0.05437699)
(-0.0029807982 2.074603e-20 0.053737515)
(-0.0028230123 -1.8400127e-20 0.053374472)
(-0.0026650144 2.8620499e-20 0.053182637)
(-0.0025247081 1.3844324e-20 0.053086235)
(-0.0023931969 1.5838404e-20 0.053036914)
(-0.0022955696 1.7567206e-20 0.053007412)
(-0.0022021104 6.9930945e-20 0.052984795)
(-0.0021588322 -1.128771e-19 0.05296299)
(-0.0021027202 -2.1631611e-20 0.052941427)
(-0.0021210738 1.6365654e-20 0.052917241)
(-0.0020980156 -2.7915942e-20 0.052894973)
(-0.0021859811 -1.2754267e-20 0.052867033)
(-0.0021957336 -4.3468849e-20 0.052844896)
(-0.002363609 -1.683241e-19 0.052809683)
(-0.0024237913 -3.5407539e-20 0.052849722)
(-0.0027039972 -1.9692702e-20 0.053216862)
(-0.0028264204 -2.6002862e-20 0.054131042)
(-0.002780062 -3.3822846e-20 0.051071742)
(-0.0012523421 -7.7463389e-20 0.027555682)
(-6.7838695e-07 -2.2527127e-22 0.0049249858)
(-4.8366168e-06 -8.8397701e-22 0.014601217)
(-1.3046449e-05 -2.2616149e-21 0.024535388)
(-2.6733674e-05 -6.7028507e-22 0.034654575)
(-4.6889193e-05 -2.1037387e-22 0.044869467)
(-7.4691056e-05 6.7291433e-23 0.055073261)
(-0.00011144797 -6.1020459e-22 0.065140961)
(-0.00015859265 -7.5854142e-22 0.074929349)
(-0.00021767185 6.4315781e-21 0.084277887)
(-0.00029032603 5.5147894e-21 0.093010844)
(-0.00037825486 2.9908663e-21 0.10094107)
(-0.00048316207 3.5079286e-20 0.10787579)
(-0.0006066732 1.9816167e-20 0.11362472)
(-0.00075021617 1.4937606e-20 0.1180108)
(-0.00091485789 -1.7216532e-21 0.1208835)
(-0.0011010857 5.8353824e-20 0.12213415)
(-0.0013085396 3.0753488e-20 0.12171223)
(-0.001535693 1.3026725e-20 0.11964072)
(-0.0017795378 -7.8645133e-21 0.11602769)
(-0.0020352869 -4.1533321e-24 0.11107099)
(-0.0022962527 1.9864411e-20 0.10505288)
(-0.0025538733 -8.7322847e-21 0.098322638)
(-0.0027981861 -2.162061e-20 0.091267685)
(-0.0030184259 2.9887216e-20 0.084276493)
(-0.0032043001 -6.3449454e-21 0.077699372)
(-0.0033468092 -2.2902762e-20 0.071814456)
(-0.0034400176 4.725773e-20 0.066805168)
(-0.0034809093 -2.8344022e-20 0.062752743)
(-0.0034714231 2.002289e-21 0.059643698)
(-0.0034156806 5.8717863e-21 0.057389098)
(-0.0033234863 2.1107421e-20 0.05585056)
(-0.0032026162 9.38212e-21 0.054867977)
(-0.0030678519 1.8367469e-21 0.05428385)
(-0.0029236361 -1.7701758e-21 0.053961868)
(-0.0027876357 -1.5477965e-20 0.053796215)
(-0.0026530896 4.9650489e-21 0.053714764)
(-0.0025440506 1.4263364e-20 0.053672464)
(-0.0024350726 3.1663486e-20 0.053647569)
(-0.0023677806 -4.0663041e-20 0.053626937)
(-0.0022885227 -2.40972e-20 0.053611515)
(-0.0022728237 1.623906e-20 0.053592991)
(-0.0022249567 -3.0002599e-20 0.05358415)
(-0.0022713874 -1.1598929e-20 0.053566235)
(-0.0022593443 -4.2646964e-20 0.053566926)
(-0.0023815661 -9.8980944e-20 0.053558625)
(-0.0024218351 6.7529588e-20 0.053697231)
(-0.0026527153 -1.9482651e-20 0.054248769)
(-0.0026933494 -3.5179488e-20 0.054938862)
(-0.002467238 -5.2696872e-20 0.050005962)
(-0.00096452725 -8.2338331e-20 0.024640455)
(-5.68213e-07 -2.4007288e-22 0.0051903442)
(-4.1533089e-06 -9.7352943e-22 0.015401559)
(-1.12071e-05 -2.5422204e-21 0.025901339)
(-2.2994994e-05 -9.2184396e-22 0.036616277)
(-4.0399308e-05 -2.3448271e-22 0.047455996)
(-6.4478523e-05 -5.6329488e-22 0.058311894)
(-9.6420632e-05 -2.641706e-21 0.069056248)
(-0.00013754095 -7.5778666e-21 0.079541962)
(-0.00018927704 -2.1579114e-20 0.089603185)
(-0.00025317457 -7.0541786e-21 0.099057116)
(-0.00033086016 -1.8350903e-20 0.10770741)
(-0.00042399588 -4.0890674e-20 0.11534956)
(-0.00053420937 5.7716376e-22 0.12177864)
(-0.00066299127 1.5489699e-20 0.1267997)
(-0.00081155435 4.6411926e-20 0.13024093)
(-0.00098064388 5.8826045e-20 0.13196916)
(-0.001170304 2.8423819e-20 0.13190687)
(-0.0013795938 7.3534613e-21 0.13004902)
(-0.0016062955 -1.2332016e-20 0.12647709)
(-0.0018466161 -7.6692701e-20 0.12136724)
(-0.0020950152 9.1374197e-20 0.11498908)
(-0.0023441229 8.2814868e-20 0.1076926)
(-0.0025850342 -6.4779575e-21 0.099882359)
(-0.0028077042 8.3067854e-20 0.091981308)
(-0.0030019991 4.2077246e-20 0.084389391)
(-0.0031584116 -2.69998e-20 0.077444208)
(-0.0032697619 8.4044709e-20 0.071391092)
(-0.0033312813 8.0810786e-20 0.066367776)
(-0.0033427462 1.7891092e-20 0.062405242)
(-0.003306333 -5.8624975e-21 0.059442793)
(-0.0032300114 -4.2160077e-20 0.057352642)
(-0.0031209059 2.0619221e-20 0.055969015)
(-0.0029932287 2.3767661e-20 0.05511583)
(-0.00285294 5.2778777e-24 0.054630409)
(-0.0027178389 -1.0312027e-20 0.054377895)
(-0.0025845996 -1.653717e-20 0.054259909)
(-0.0024757527 -1.029097e-19 0.054210248)
(-0.00237089 -8.4371227e-20 0.054193599)
(-0.002305547 4.7681904e-20 0.054188004)
(-0.0022340994 -1.0684713e-20 0.05419115)
(-0.0022192539 1.1214229e-20 0.054192173)
(-0.0021787864 -3.1608731e-20 0.054203486)
(-0.002219227 -1.4175838e-20 0.054205795)
(-0.0022074083 -2.3868386e-20 0.054227124)
(-0.0023128258 3.3388089e-20 0.054257707)
(-0.0023416312 8.3811984e-20 0.05449246)
(-0.0025313983 -1.5336834e-20 0.055150891)
(-0.0024948484 -4.0408632e-20 0.055382263)
(-0.0021338229 -4.7039505e-20 0.048662748)
(-0.000732896 1.8782208e-20 0.022222172)
(-5.5420365e-07 3.5095936e-22 0.0054399819)
(-3.9622924e-06 7.9430097e-22 0.016153712)
(-1.0692845e-05 1.5086076e-21 0.027183861)
(-2.1926311e-05 3.4051576e-21 0.03845638)
(-3.849015e-05 8.6448819e-21 0.049879721)
(-6.1372519e-05 3.5638636e-21 0.061343461)
(-9.1678232e-05 6.107815e-22 0.072717268)
(-0.00013062648 -8.6034271e-22 0.083850472)
(-0.00017954643 -3.4218956e-21 0.094572477)
(-0.00023986561 -4.9315889e-21 0.10469431)
(-0.00031308806 -2.1879375e-20 0.11401175)
(-0.00040075705 -7.8117473e-20 0.12231035)
(-0.00050439822 -1.7754828e-20 0.12937285)
(-0.00062543507 -2.8712909e-21 0.13498933)
(-0.00076507165 6.0064572e-21 0.13897006)
(-0.00092413273 -3.7055629e-20 0.14116116)
(-0.001102864 1.8724263e-20 0.141462)
(-0.001300684 7.9064071e-21 0.13984308)
(-0.0015159223 1.1742724e-20 0.13636191)
(-0.0017455381 -2.1071293e-20 0.13117386)
(-0.0019849319 -1.5368044e-20 0.12453431)
(-0.0022278137 9.8852799e-20 0.1167893)
(-0.0024663813 -5.3838764e-21 0.10835286)
(-0.0026915762 9.5368138e-21 0.099672549)
(-0.0028939281 8.8068433e-20 0.091187176)
(-0.0030641444 -3.5184165e-20 0.083284005)
(-0.00319462 -6.944637e-20 0.076263038)
(-0.0032796113 4.2272436e-20 0.070314864)
(-0.0033172379 7.5304212e-20 0.065515165)
(-0.0033078284 2.5317652e-20 0.061835149)
(-0.0032570215 2.2881018e-20 0.059163866)
(-0.003170247 2.987031e-20 0.057337383)
(-0.0030596086 2.3710814e-20 0.056168608)
(-0.0029307958 1.7702399e-20 0.055474552)
(-0.0028001541 -1.7179412e-21 0.055095384)
(-0.0026662764 1.649376e-20 0.054907451)
(-0.0025500377 -1.2635319e-20 0.054823233)
(-0.0024351738 -4.3522458e-20 0.054791277)
(-0.0023536472 7.8676398e-20 0.054780448)
(-0.0022664395 -3.3356422e-21 0.054782242)
(-0.0022295205 1.055827e-20 0.054785345)
(-0.0021703794 -3.0913937e-20 0.054798653)
(-0.0021848957 -1.4107347e-20 0.054806467)
(-0.002153705 -2.4238938e-20 0.054836373)
(-0.0022301087 5.8015635e-20 0.054901613)
(-0.0022395747 -1.5032763e-20 0.05522114)
(-0.0023777785 -1.3830751e-20 0.055892079)
(-0.0022709938 -4.1882217e-20 0.055520436)
(-0.0018160664 -3.9197084e-20 0.047235109)
(-0.00055304486 1.7963709e-20 0.020321234)
(-4.9062634e-07 2.6120039e-22 0.005663821)
(-3.5583448e-06 9.2352221e-22 0.016829143)
(-9.6056222e-06 2.3958856e-21 0.028337128)
(-1.9714526e-05 4.3274795e-22 0.040113453)
(-3.4645896e-05 2.4309746e-22 0.052065844)
(-5.5313565e-05 6.8019676e-22 0.064082589)
(-8.2745931e-05 -3.7195748e-22 0.076031367)
(-0.00011808591 -5.1580353e-22 0.087758645)
(-0.00016258934 1.7458259e-21 0.099089885)
(-0.0002176167 8.1750967e-21 0.10983086)
(-0.00028461516 1.9587075e-20 0.11977047)
(-0.00036508716 4.4225044e-20 0.12868552)
(-0.00046054022 0 0.13634776)
(-0.00057241158 -1.6598738e-20 0.14253376)
(-0.00070196272 -5.5982233e-20 0.14703765)
(-0.00085013442 -7.5704451e-20 0.14968667)
(-0.0010173642 -1.9245641e-20 0.15035903)
(-0.0012033573 6.1992726e-21 0.14900257)
(-0.0014068398 1.5623993e-20 0.14565213)
(-0.0016252871 6.6345524e-20 0.14044264)
(-0.0018547254 -6.1317013e-20 0.13361418)
(-0.0020895697 -1.1907691e-20 0.12550592)
(-0.0023227296 -1.5008546e-20 0.11653647)
(-0.0025457792 -2.7542365e-20 0.10717135)
(-0.0027496635 -5.4382033e-20 0.097880767)
(-0.0029252053 4.1441156e-21 0.089094502)
(-0.0030644825 -9.5716285e-20 0.081161625)
(-0.00316107 -7.8294291e-20 0.07432252)
(-0.0032119649 1.9758561e-20 0.06869748)
(-0.0032162872 2.720214e-20 0.064292347)
(-0.0031782154 3.812161e-20 0.061017943)
(-0.0031022305 -2.4246523e-20 0.058718362)
(-0.0029993257 1.8197725e-20 0.057201893)
(-0.0028753716 2.8284804e-20 0.056270654)
(-0.0027462193 -1.1973891e-20 0.055743512)
(-0.0026121436 -6.5837563e-20 0.055472837)
(-0.0024933505 1.9849331e-19 0.055349093)
(-0.0023764372 1.6110645e-19 0.055302549)
(-0.0022908302 2.689071e-20 0.055290331)
(-0.0022015424 1.3942579e-20 0.055295796)
(-0.0021585422 1.3590061e-20 0.055305002)
(-0.002096215 -3.307684e-20 0.055323725)
(-0.0020993138 -6.7808264e-21 0.055337907)
(-0.0020623379 -3.9302694e-20 0.05537998)
(-0.0021186685 -1.0747218e-19 0.055481536)
(-0.0021170001 -1.0086819e-20 0.055868195)
(-0.0022054146 -1.5224125e-20 0.056463767)
(-0.0020432979 -4.5657067e-20 0.0554136)
(-0.0015317895 -3.3112807e-20 0.045810431)
(-0.00041588575 -8.5794161e-20 0.018817831)
(-4.723694e-07 2.4020437e-22 0.0058752054)
(-3.3872273e-06 1.9766207e-22 0.017466691)
(-9.1443267e-06 3.124193e-22 0.029425257)
(-1.8762134e-05 7.2091934e-22 0.041676255)
(-3.2958902e-05 2.2477511e-21 0.054126674)
(-5.2595561e-05 1.259307e-21 0.066663566)
(-7.8639518e-05 4.040806e-22 0.079152753)
(-0.00011216484 6.8724898e-23 0.091438088)
(-0.00015435133 -1.5324414e-21 0.1033415)
(-0.00020647809 1.4819309e-21 0.11466407)
(-0.00026990895 -4.2548497e-21 0.12518867)
(-0.00034606615 -8.551096e-22 0.1346844)
(-0.00043638812 7.4287825e-21 0.14291339)
(-0.00054226478 7.9977452e-21 0.14964033)
(-0.00066494594 -8.2716038e-21 0.15464506)
(-0.00080541328 -1.4776369e-20 0.15773808)
(-0.00096421699 6.7897099e-21 0.15877854)
(-0.001141267 7.3152677e-21 0.15769362)
(-0.0013356034 -5.5678383e-22 0.15449712)
(-0.001545137 -1.2146565e-20 0.14930438)
(-0.0017664463 -1.0920337e-20 0.14233994)
(-0.0019945957 -1.2952848e-20 0.13393436)
(-0.0022231882 -4.8061609e-20 0.12450752)
(-0.0024444668 7.3590374e-21 0.11453809)
(-0.0026499108 4.0611215e-20 0.10452192)
(-0.0028306608 -3.0837359e-20 0.094925261)
(-0.0029787679 -3.0441195e-20 0.086140976)
(-0.0030874462 -2.6008225e-20 0.078455425)
(-0.0031528881 -1.9754172e-21 0.072031661)
(-0.0031731896 -2.9054243e-20 0.066910387)
(-0.003151111 -2.470666e-20 0.063026293)
(-0.0030899098 -1.1159449e-20 0.060235071)
(-0.0029990212 -1.6332408e-20 0.058344799)
(-0.0028836981 7.2185028e-24 0.057147346)
(-0.002758565 -5.1116591e-21 0.056444173)
(-0.0026247171 -3.6124905e-20 0.056066471)
(-0.0025012768 1.5708984e-20 0.055883533)
(-0.0023775464 6.8025427e-20 0.055807337)
(-0.0022806232 3.3184939e-20 0.055781591)
(-0.0021806289 1.3252651e-20 0.055781139)
(-0.0021216769 1.5435471e-20 0.055787348)
(-0.0020475956 -2.677408e-20 0.05580439)
(-0.0020308471 -1.1968653e-20 0.05581846)
(-0.0019835245 -4.1088699e-20 0.055870584)
(-0.0020156151 -7.6739823e-20 0.056004785)
(-0.0020016971 -6.5963465e-21 0.056430927)
(-0.0020409911 -1.2564865e-20 0.056876959)
(-0.0018360207 -3.2511687e-20 0.055123797)
(-0.0012941358 -1.0369931e-20 0.044439055)
(-0.00031445225 -6.291167e-20 0.01762329)
(-4.3335872e-07 3.6595531e-22 0.0060701411)
(-3.1296408e-06 8.7757781e-23 0.01805516)
(-8.4507992e-06 -1.7707895e-22 0.03043045)
(-1.7348549e-05 -6.9165537e-22 0.043121218)
(-3.0495802e-05 7.7891573e-21 0.056033955)
(-4.870175e-05 -7.1066927e-22 0.06905476)
(-7.2879224e-05 -1.1617525e-20 0.082047942)
(-0.00010404593 -5.6318819e-21 0.094855149)
(-0.00014332494 -1.3894956e-21 0.10729524)
(-0.00019194017 1.4105581e-21 0.11916519)
(-0.00025120438 -5.7420892e-21 0.13024248)
(-0.00032249658 -3.9442358e-20 0.14028925)
(-0.00040722442 -1.0418545e-20 0.1490589)
(-0.00050676622 1.3126959e-20 0.15630532)
(-0.00062238797 7.0648726e-20 0.16179523)
(-0.00075512621 -7.6048779e-20 0.16532367)
(-0.00090563758 3.4432932e-20 0.16673214)
(-0.0010740046 5.6610286e-20 0.16592848)
(-0.0012595185 6.6680913e-21 0.16290647)
(-0.0014604287 -1.432152e-20 0.15776242)
(-0.0016737368 -1.1982742e-20 0.15070506)
(-0.0018950015 -1.1840242e-20 0.14205503)
(-0.0021183492 -9.5828259e-20 0.13223093)
(-0.0023365265 -8.6262087e-20 0.12172095)
(-0.0025414076 1.9708682e-20 0.11104208)
(-0.0027243632 3.2821061e-20 0.10069242)
(-0.0028774039 1.1529508e-19 0.091104413)
(-0.0029934589 3.1905796e-20 0.082607379)
(-0.0030680902 9.4267341e-20 0.075405668)
(-0.0030986459 3.8631047e-21 0.069575114)
(-0.0030868278 -2.2749333e-20 0.065076091)
(-0.0030351086 -1.8562526e-20 0.061778923)
(-0.0029517979 2.3552306e-20 0.059495194)
(-0.0028419875 1.7674802e-21 0.058010423)
(-0.0027193323 1.0215506e-20 0.05711201)
(-0.0025860677 8.856331e-20 0.056612411)
(-0.0024600692 -1.0518886e-19 0.056360574)
(-0.0023335916 -1.0752543e-19 0.056250001)
(-0.0022306412 -4.2415012e-21 0.056209385)
(-0.0021268507 -1.323047e-20 0.056203854)
(-0.0020589957 -1.4894524e-19 0.056208347)
(-0.0019811131 -3.9195916e-20 0.056225384)
(-0.0019515599 -1.1948873e-20 0.05624149)
(-0.0019008504 -5.9371604e-20 0.056306484)
(-0.0019143244 -1.5552871e-19 0.056471693)
(-0.0018917116 1.9189395e-20 0.056908915)
(-0.0018883286 -1.4884958e-20 0.057150728)
(-0.00165185 -4.1610458e-20 0.054705967)
(-0.0010994642 -8.8941116e-20 0.043150888)
(-0.00023985945 -4.1653911e-20 0.016674764)
(-4.1551469e-07 4.7917014e-23 0.0062550012)
(-2.9829236e-06 1.6441986e-22 0.018613121)
(-8.055166e-06 4.0729554e-22 0.031383392)
(-1.6534401e-05 4.9764851e-22 0.044490875)
(-2.9059989e-05 1.8603288e-21 0.057841585)
(-4.6400123e-05 2.3839718e-21 0.071320733)
(-6.9421079e-05 8.9572796e-22 0.08479124)
(-9.9088832e-05 1.0296239e-22 0.098092743)
(-0.00013646987 4.8695584e-21 0.11104133)
(-0.00018272805 2.1827479e-21 0.12343027)
(-0.00023911483 -2.9029157e-21 0.13503219)
(-0.00030694993 -1.1663717e-20 0.14560301)
(-0.00038758889 -4.4225582e-21 0.15488828)
(-0.000482372 -8.5582908e-21 0.16263212)
(-0.00059255042 3.4143651e-21 0.1685894)
(-0.0007191805 -5.6675278e-21 0.17254108)
(-0.0008629863 -6.1866989e-21 0.17431242)
(-0.0010241801 2.0146577e-20 0.17379331)
(-0.001202258 1.9964598e-20 0.17095868)
(-0.0013957597 7.6725279e-21 0.16588653)
(-0.0016020625 7.6107187e-21 0.15876983)
(-0.0018171773 4.0830895e-20 0.14991845)
(-0.0020357254 -1.0623161e-20 0.13974782)
(-0.0022509533 -6.5022223e-20 0.12875273)
(-0.0024551583 -9.3438566e-21 0.11746766)
(-0.0026400165 -2.0234815e-21 0.10641856)
(-0.0027976101 1.2093731e-20 0.096073688)
(-0.0029207411 1.9873075e-20 0.086802317)
(-0.0030044987 1.9566596e-20 0.078848253)
(-0.0030456471 3.8509153e-20 0.072321911)
(-0.0030449016 -1.8902584e-21 0.067210055)
(-0.0030039831 2.7772301e-20 0.063399412)
(-0.0029299069 2.3497782e-20 0.060707625)
(-0.0028274363 3.5291748e-21 0.058916863)
(-0.0027088104 -1.7062595e-21 0.057803477)
(-0.0025771931 1.4735079e-20 0.057163733)
(-0.0024486927 -4.2320173e-20 0.056827902)
(-0.0023186307 -6.5618614e-20 0.056671523)
(-0.0022076521 -1.1981933e-20 0.056607969)
(-0.0020975117 -3.962854e-21 0.056591608)
(-0.0020177988 -7.3100576e-20 0.0565905)
(-0.0019333464 -6.7503336e-20 0.056604669)
(-0.0018891833 -1.4003366e-20 0.056622277)
(-0.0018333869 -4.5156667e-20 0.056699508)
(-0.0018286236 -1.3537367e-19 0.056890131)
(-0.0017960521 -1.8096527e-21 0.057308719)
(-0.0017552228 -1.4643867e-20 0.057306432)
(-0.0014948747 -4.0478838e-20 0.054200546)
(-0.0009443808 -1.0371965e-19 0.04195121)
(-0.00018630266 -3.8221236e-20 0.015906661)
(-3.8965678e-07 -1.7661762e-22 0.0064285705)
(-2.8063253e-06 5.0776565e-22 0.01913728)
(-7.5794712e-06 1.5714706e-21 0.032279035)
(-1.5562879e-05 4.0835337e-21 0.045778846)
(-2.7362884e-05 3.4069427e-21 0.059542376)
(-4.370939e-05 6.2668284e-21 0.07345411)
(-6.5427301e-05 1.265143e-20 0.087375781)
(-9.3438708e-05 4.2535338e-21 0.10114526)
(-0.0001287646 3.7567724e-21 0.11457618)
(-0.0001725228 1.0539818e-20 0.12745845)
(-0.00022592002 2.1931192e-20 0.1395603)
(-0.00029023477 5.2741452e-20 0.15063199)
(-0.00036678854 7.8353216e-21 0.16041181)
(-0.00045689968 -9.4045414e-21 0.16863494)
(-0.00056181597 -3.7800353e-20 0.17504528)
(-0.00068261758 4.7546824e-20 0.17941069)
(-0.00082008957 -4.2755958e-20 0.18154131)
(-0.00097455421 -4.5222045e-20 0.1813101)
(-0.001145677 -2.4909091e-20 0.1786741)
(-0.001332237 -8.3858e-20 0.17369361)
(-0.0015319194 -1.0840648e-20 0.16654588)
(-0.0017411094 1.5009713e-20 0.15752937)
(-0.0019548379 7.1951673e-20 0.14705485)
(-0.0021667702 6.5808417e-20 0.13562136)
(-0.0023695591 -6.9141837e-20 0.12377783)
(-0.0025551453 -1.8304327e-20 0.11207469)
(-0.0027156744 -1.124857e-19 0.10101286)
(-0.0028438607 -2.7729186e-20 0.090998971)
(-0.0029343982 -7.4150723e-20 0.082314693)
(-0.0029836038 -2.3034157e-20 0.075104546)
(-0.0029913707 -3.3928786e-20 0.069382313)
(-0.0029588881 -2.5853447e-20 0.065052661)
(-0.0028920874 7.5728334e-20 0.061941497)
(-0.0027956345 1.4028241e-19 0.059830181)
(-0.0026805117 1.1877485e-20 0.058486614)
(-0.0025509153 1.6352638e-20 0.057693038)
(-0.0024212157 8.4537612e-20 0.057262633)
(-0.002289659 6.7015043e-20 0.057053385)
(-0.0021735691 -1.4077954e-20 0.056963268)
(-0.0020603026 1.7152258e-20 0.056934637)
(-0.0019727269 1.4852905e-19 0.056928393)
(-0.0018851753 -4.417961e-20 0.05694074)
(-0.001830919 -1.1911492e-20 0.05696258)
(-0.0017726292 -3.2876932e-20 0.057052926)
(-0.0017538349 1.8519953e-20 0.057262951)
(-0.0017121711 1.350735e-20 0.057636519)
(-0.0016404894 -1.5264443e-20 0.057363801)
(-0.0013625827 -4.1784014e-20 0.053638358)
(-0.00082172295 1.3151374e-20 0.040839591)
(-0.00014796572 -2.4037398e-20 0.015275479)
(-3.7369871e-07 5.0799777e-24 0.0065939802)
(-2.6834103e-06 2.6159842e-23 0.019636792)
(-7.2479219e-06 -4.3742113e-23 0.033132557)
(-1.488185e-05 -2.0410057e-22 0.047006247)
(-2.6164636e-05 4.2115094e-22 0.061163203)
(-4.1793697e-05 1.0255413e-21 0.075487248)
(-6.2557469e-05 4.3725436e-22 0.089839028)
(-8.9337722e-05 3.0857329e-22 0.10405481)
(-0.00012311166 -6.2539242e-22 0.11794595)
(-0.00016495072 1.7589921e-21 0.13129934)
(-0.00021601406 -7.7777883e-22 0.14387917)
(-0.0002775339 1.1222406e-20 0.15543052)
(-0.00035079013 9.5369297e-21 0.16568509)
(-0.00043706894 3.5534904e-21 0.17436982)
(-0.00053760158 0 0.18121851)
(-0.00065347576 3.3920338e-21 0.18598694)
(-0.00078551771 5.3451677e-21 0.18847113)
(-0.00093413576 7.8198092e-21 0.18852822)
(-0.0010991365 1.5470613e-20 0.18609826)
(-0.0012795053 -6.5746153e-21 0.18122447)
(-0.0014732002 -2.3793702e-20 0.17406866)
(-0.0016769448 8.5591145e-21 0.16491746)
(-0.0018861483 -1.0570953e-20 0.1541758)
(-0.0020948758 2.0799021e-20 0.14234504)
(-0.0022961333 1.0255826e-20 0.129986)
(-0.0024821497 -1.0123709e-20 0.11767069)
(-0.0026451843 -1.3010274e-20 0.10592978)
(-0.0027779407 -1.381478e-20 0.095204871)
(-0.0028748153 -2.9176145e-20 0.085813795)
(-0.0029317759 -2.6785341e-20 0.077934438)
(-0.0029479889 -2.2550692e-20 0.07160777)
(-0.0029241563 -1.8412907e-20 0.06675735)
(-0.0028651559 3.6089199e-21 0.063218936)
(-0.0027754601 3.6752901e-20 0.060775045)
(-0.0026647506 1.6945906e-20 0.059187332)
(-0.0025379773 -1.469153e-20 0.058226025)
(-0.0024078097 1.7972736e-20 0.057688943)
(-0.0022749675 3.8663778e-20 0.057417343)
(-0.0021539281 1.3342724e-20 0.057294195)