/*--------------------------------*- C++ -*----------------------------------*\
| =========                 |                                                 |
| \\      /  F ield         | OpenFOAM: The Open Source CFD Toolbox           |
|  \\    /   O peration     | Version:  4.0                                   |
|   \\  /    A nd           | Web:      www.OpenFOAM.org                      |
|    \\/     M anipulation  |                                                 |
\*---------------------------------------------------------------------------*/
FoamFile
{
    version     2.0;
    format      ascii;
    class       volScalarField;
    location    "3000/cilcen";
    object      p;
}
// * * * * * * * * * * * * * * * * * * * * * * * * * * * * * * * * * * * * * //

dimensions      [1 -1 -2 0 0 0 0];

internalField   uniform 101325;

boundaryField
{
    cilcentop
    {
        type            fixedValue;
        value           uniform 101325;
    }
    cilcenbot
    {
        type            fixedValue;
        value           uniform 101325;
    }
    leftcenWedge
    {
        type            symmetry;
    }
    rigtcenWedge
    {
        type            symmetry;
    }
    cilcen_to_fluid
    {
        type            fixedValue;
        value           uniform 101325;
    }
}


// ************************************************************************* //
