/*--------------------------------*- C++ -*----------------------------------*\
| =========                 |                                                 |
| \\      /  F ield         | OpenFOAM: The Open Source CFD Toolbox           |
|  \\    /   O peration     | Version:  4.0                                   |
|   \\  /    A nd           | Web:      www.OpenFOAM.org                      |
|    \\/     M anipulation  |                                                 |
\*---------------------------------------------------------------------------*/
FoamFile
{
    version     2.0;
    format      ascii;
    class       volScalarField;
    location    "3000/cilcen";
    object      T;
}
// * * * * * * * * * * * * * * * * * * * * * * * * * * * * * * * * * * * * * //

dimensions      [0 0 0 1 0 0 0];

internalField   nonuniform List<scalar> 
1000
(
382.65501
382.63059
382.59247
382.55228
382.51484
382.48208
382.45445
382.43171
382.41329
382.39855
387.16803
387.14919
387.11979
387.08881
387.05996
387.03473
387.01346
386.99596
386.98178
386.97044
390.76834
390.74937
390.71978
390.68858
390.65953
390.63411
390.61267
390.59503
390.58075
390.56931
393.57516
393.55597
393.52603
393.49446
393.46506
393.43933
393.41765
393.3998
393.38534
393.37377
395.8071
395.78777
395.75759
395.72578
395.69615
395.67023
395.64837
395.63039
395.61582
395.60416
397.60853
397.58908
397.55874
397.52674
397.49694
397.47087
397.44889
397.43079
397.41614
397.40441
399.08773
399.0682
399.03773
399.00561
398.97569
398.94951
398.92744
398.90927
398.89456
398.88279
400.32141
400.30182
400.27126
400.23904
400.20903
400.18277
400.16063
400.14241
400.12766
400.11584
401.36727
401.34764
401.31701
401.28472
401.25464
401.22832
401.20614
401.18788
401.17309
401.16125
402.26694
402.24728
402.2166
402.18425
402.15412
402.12777
402.10554
402.08725
402.07244
402.06058
403.05169
403.03201
403.00129
402.96891
402.93874
402.91235
402.8901
402.87179
402.85696
402.84509
403.74456
403.72486
403.69411
403.6617
403.63151
403.60509
403.58282
403.56449
403.54965
403.53777
404.36306
404.34334
404.31257
404.28014
404.24992
404.22349
404.20121
404.18286
404.16801
404.15612
404.92042
404.9007
404.86991
404.83746
404.80723
404.78078
404.75849
404.74014
404.72527
404.71338
405.42694
405.4072
405.37641
405.34394
405.3137
405.28724
405.26493
405.24657
405.23171
405.2198
405.89059
405.87085
405.84004
405.80756
405.77731
405.75085
405.72853
405.71017
405.6953
405.68339
406.31773
406.29798
406.26717
406.23468
406.20442
406.17795
406.15563
406.13726
406.12238
406.11048
406.71343
406.69368
406.66286
406.63036
406.6001
406.57362
406.55129
406.53292
406.51804
406.50613
407.0818
407.06205
407.03122
406.99872
406.96845
406.94197
406.91964
406.90126
406.88638
406.87447
407.42623
407.40647
407.37564
407.34314
407.31286
407.28637
407.26404
407.24566
407.23078
407.21886
407.74951
407.72975
407.69891
407.6664
407.63613
407.60963
407.5873
407.56892
407.55403
407.54212
408.05398
408.03422
408.00338
407.97087
407.94058
407.91409
407.89176
407.87337
407.85848
407.84656
408.34162
408.32186
408.29102
408.2585
408.22822
408.20172
408.17938
408.161
408.14611
408.13419
408.61412
408.59435
408.56351
408.53099
408.50071
408.47421
408.45187
408.43348
408.41859
408.40667
408.87292
408.85316
408.82231
408.78979
408.7595
408.733
408.71066
408.69228
408.67738
408.66546
409.11928
409.09951
409.06867
409.03615
409.00586
408.97935
408.95701
408.93862
408.92373
408.91181
409.35428
409.33451
409.30366
409.27114
409.24085
409.21435
409.19201
409.17361
409.15872
409.1468
409.57888
409.55911
409.52826
409.49574
409.46544
409.43894
409.41659
409.3982
409.38331
409.37139
409.79391
409.77414
409.74329
409.71076
409.68047
409.65397
409.63162
409.61323
409.59833
409.58641
410.00012
409.98035
409.9495
409.91697
409.88668
409.86017
409.83782
409.81943
409.80454
409.79261
410.19817
410.1784
410.14754
410.11502
410.08472
410.05821
410.03587
410.01747
410.00258
409.99065
410.38864
410.36887
410.33802
410.30549
410.27519
410.24868
410.22634
410.20794
410.19305
410.18112
410.57207
410.5523
410.52144
410.48892
410.45862
410.43211
410.40976
410.39137
410.37647
410.36455
410.74893
410.72916
410.6983
410.66577
410.63548
410.60897
410.58662
410.56822
410.55333
410.5414
410.91965
410.89988
410.86902
410.83649
410.8062
410.77969
410.75734
410.73894
410.72405
410.71212
411.08463
411.06485
411.034
411.00147
410.97117
410.94466
410.92231
410.90391
410.88901
410.87709
411.2442
411.22443
411.19357
411.16104
411.13074
411.10423
411.08188
411.06349
411.04859
411.03666
411.39871
411.37893
411.34807
411.31554
411.28524
411.25873
411.23638
411.21799
411.20309
411.19116
411.54843
411.52866
411.4978
411.46527
411.43497
411.40845
411.3861
411.36771
411.35281
411.34088
411.69365
411.67387
411.64302
411.61048
411.58018
411.55367
411.53132
411.51292
411.49803
411.4861
411.83461
411.81483
411.78397
411.75144
411.72114
411.69463
411.67228
411.65388
411.63898
411.62706
411.97153
411.95176
411.9209
411.88837
411.85806
411.83155
411.8092
411.79081
411.77591
411.76398
412.10464
412.08487
412.05401
412.02147
411.99117
411.96466
411.94231
411.92391
411.90901
411.89709
412.23413
412.21435
412.18349
412.15096
412.12065
412.09414
412.07179
412.05339
412.0385
412.02657
412.36017
412.34039
412.30953
412.277
412.24669
412.22018
412.19783
412.17943
412.16453
412.15261
412.48293
412.46316
412.4323
412.39976
412.36946
412.34295
412.32059
412.3022
412.2873
412.27537
412.60258
412.5828
412.55194
412.51941
412.4891
412.46259
412.44024
412.42184
412.40694
412.39502
412.71925
412.69947
412.66861
412.63608
412.60577
412.57926
412.55691
412.53851
412.52361
412.51169
412.83308
412.81331
412.78245
412.74991
412.71961
412.69309
412.67074
412.65234
412.63744
412.62552
412.9442
412.92443
412.89357
412.86103
412.83073
412.80421
412.78186
412.76346
412.74856
412.73664
413.05273
413.03296
413.0021
412.96956
412.93926
412.91274
412.89039
412.87199
412.85709
412.84516
413.15878
413.139
413.10814
413.07561
413.0453
413.01879
412.99644
412.97804
412.96314
412.95121
413.26245
413.24267
413.21181
413.17927
413.14897
413.12246
413.1001
413.08171
413.06681
413.05488
413.36384
413.34406
413.3132
413.28066
413.25036
413.22385
413.20149
413.18309
413.16819
413.15627
413.46304
413.44326
413.4124
413.37987
413.34956
413.32305
413.30069
413.2823
413.2674
413.25547
413.56014
413.54036
413.5095
413.47697
413.44666
413.42015
413.39779
413.3794
413.3645
413.35257
413.65522
413.63545
413.60459
413.57205
413.54174
413.51523
413.49288
413.47448
413.45958
413.44765
413.74837
413.72859
413.69773
413.66519
413.63488
413.60837
413.58602
413.56762
413.55272
413.54079
413.83964
413.81986
413.789
413.75646
413.72616
413.69964
413.67729
413.65889
413.64399
413.63206
413.92911
413.90933
413.87847
413.84593
413.81563
413.78911
413.76676
413.74836
413.73346
413.72153
414.01685
413.99707
413.96621
413.93367
413.90337
413.87685
413.8545
413.8361
413.8212
413.80927
414.10291
414.08314
414.05227
414.01974
413.98943
413.96292
413.94056
413.92216
413.90726
413.89534
414.18737
414.16759
414.13673
414.10419
414.07388
414.04737
414.02502
414.00662
413.99172
413.97979
414.27026
414.25048
414.21962
414.18708
414.15678
414.13026
414.10791
414.08951
414.07461
414.06268
414.35165
414.33187
414.30101
414.26847
414.23817
414.21165
414.1893
414.1709
414.156
414.14407
414.43159
414.41181
414.38094
414.34841
414.3181
414.29159
414.26923
414.25083
414.23593
414.22401
414.51011
414.49033
414.45947
414.42693
414.39663
414.37011
414.34776
414.32936
414.31446
414.30253
414.58728
414.5675
414.53664
414.5041
414.4738
414.44728
414.42493
414.40653
414.39163
414.3797
414.66313
414.64335
414.61249
414.57995
414.54965
414.52313
414.50078
414.48238
414.46748
414.45555
414.7377
414.71793
414.68706
414.65453
414.62422
414.5977
414.57535
414.55695
414.54205
414.53012
414.81104
414.79126
414.7604
414.72786
414.69756
414.67104
414.64869
414.63029
414.61539
414.60346
414.88318
414.8634
414.83254
414.8
414.7697
414.74318
414.72083
414.70243
414.68753
414.6756
414.95416
414.93438
414.90352
414.87098
414.84067
414.81416
414.7918
414.7734
414.7585
414.74658
415.02401
415.00423
414.97337
414.94083
414.91052
414.88401
414.86165
414.84325
414.82835
414.81642
415.09276
415.07298
415.04212
415.00958
414.97928
414.95276
414.93041
414.91201
414.89711
414.88518
415.16045
415.14068
415.10981
415.07727
415.04697
415.02045
414.9981
414.9797
414.9648
414.95287
415.22711
415.20734
415.17647
415.14393
415.11363
415.08711
415.06476
415.04636
415.03146
415.01953
415.29277
415.27299
415.24213
415.20959
415.17928
415.15277
415.13041
415.11201
415.09711
415.08519
415.35745
415.33767
415.30681
415.27427
415.24397
415.21745
415.1951
415.1767
415.1618
415.14987
415.42119
415.40141
415.37054
415.338
415.3077
415.28118
415.25883
415.24043
415.22553
415.2136
415.484
415.46422
415.43335
415.40082
415.37051
415.34399
415.32164
415.30324
415.28834
415.27641
415.54591
415.52613
415.49527
415.46273
415.43242
415.40591
415.38355
415.36515
415.35025
415.33832
415.60695
415.58717
415.55631
415.52377
415.49346
415.46695
415.44459
415.42619
415.41129
415.39936
415.66714
415.64736
415.6165
415.58396
415.55365
415.52714
415.50478
415.48638
415.47148
415.45956
415.72651
415.70673
415.67587
415.64333
415.61302
415.58651
415.56415
415.54575
415.53085
415.51892
415.78508
415.7653
415.73444
415.7019
415.67159
415.64507
415.62272
415.60432
415.58942
415.57749
415.84288
415.8231
415.79223
415.7597
415.72939
415.70287
415.68052
415.66212
415.64722
415.63529
415.89994
415.88016
415.84929
415.81676
415.78645
415.75993
415.73758
415.71918
415.70428
415.69235
415.95631
415.93653
415.90566
415.87313
415.84282
415.8163
415.79395
415.77555
415.76065
415.74872
416.01205
415.99227
415.96141
415.92887
415.89856
415.87205
415.84969
415.83129
415.81639
415.80446
416.06728
416.0475
416.01664
415.9841
415.95379
415.92727
415.90492
415.88652
415.87162
415.85969
416.12217
416.10239
416.07153
416.03899
416.00868
415.98216
415.95981
415.94141
415.92651
415.91458
416.17705
416.15727
416.12641
416.09387
416.06356
416.03704
416.01468
415.99628
415.98138
415.96945
416.2325
416.21272
416.18185
416.14931
416.11899
416.09248
416.07012
416.05172
416.03681
416.02488
416.28955
416.26977
416.2389
416.20635
416.17604
416.14952
416.12716
416.10875
416.09385
416.08192
416.35015
416.33037
416.29949
416.26694
416.23662
416.21009
416.18773
416.16932
416.15442
416.14248
416.41759
416.39779
416.36691
416.33435
416.30402
416.27748
416.25511
416.2367
416.22179
416.20985
416.49851
416.47871
416.44782
416.41524
416.38491
416.35837
416.33599
416.31757
416.30266
416.29072
416.59757
416.57774
416.54681
416.51419
416.48381
416.45723
416.43482
416.41637
416.40143
416.38948
416.74242
416.72279
416.69216
416.65987
416.62979
416.60347
416.58128
416.56302
416.54824
416.5364
)
;

boundaryField
{
    cilcentop
    {
        type            zeroGradient;
    }
    cilcenbot
    {
        type            zeroGradient;
    }
    leftcenWedge
    {
        type            symmetry;
    }
    rigtcenWedge
    {
        type            symmetry;
    }
    cilcen_to_fluid
    {
        type            compressible::turbulentTemperatureRadCoupledMixed;
        refValue        nonuniform List<scalar> 
100
(
379.79038
385.31811
388.97153
391.80334
394.06071
395.88434
397.384
398.63591
399.69852
400.61341
401.41218
402.11792
402.74832
403.31671
403.83349
404.3067
404.74279
405.14688
405.52315
405.87503
406.20536
406.51651
406.8105
407.08905
407.35361
407.60548
407.84575
408.0754
408.29529
408.50616
408.7087
408.9035
409.0911
409.27199
409.44661
409.61536
409.77859
409.93663
410.0898
410.23835
410.38255
410.52263
410.65881
410.79128
410.92023
411.04583
411.16825
411.28762
411.40409
411.51779
411.62883
411.73734
411.84342
411.94716
412.04867
412.14803
412.24532
412.34063
412.43403
412.52559
412.61537
412.70345
412.78987
412.8747
412.95799
413.03979
413.12016
413.19913
413.27675
413.35307
413.42812
413.50195
413.57459
413.64608
413.71644
413.78572
413.85395
413.92114
413.98734
414.05257
414.11686
414.18022
414.2427
414.3043
414.36507
414.42501
414.48416
414.54256
414.60025
414.65729
414.7138
414.76993
414.82602
414.8826
414.9407
415.00221
415.07018
415.15229
415.24912
415.42791
)
;
        refGradient     nonuniform List<scalar> 
100
(
-50.591337
-54.370629
-57.440315
-59.891951
-61.879556
-63.508571
-64.86299
-66.004251
-66.980144
-67.825807
-68.568154
-69.227231
-69.818468
-70.353624
-70.841893
-71.290468
-71.705091
-72.090373
-72.450073
-72.78728
-73.104568
-73.404094
-73.687687
-73.956908
-74.213101
-74.45743
-74.690911
-74.914435
-75.128788
-75.334666
-75.532691
-75.723416
-75.907342
-76.084917
-76.256548
-76.422604
-76.583421
-76.739307
-76.890541
-77.037382
-77.180066
-77.318813
-77.453824
-77.585286
-77.713372
-77.838245
-77.960053
-78.078937
-78.195028
-78.308447
-78.41931
-78.527723
-78.633788
-78.737599
-78.839245
-78.938811
-79.036376
-79.132015
-79.2258
-79.317796
-79.408069
-79.496677
-79.583679
-79.669129
-79.753078
-79.835577
-79.916671
-79.996406
-80.074823
-80.151965
-80.227869
-80.302573
-80.376112
-80.448521
-80.519831
-80.590075
-80.659281
-80.72748
-80.794698
-80.860961
-80.926297
-80.990728
-81.05428
-81.116977
-81.178842
-81.239901
-81.300182
-81.35972
-81.41856
-81.476772
-81.534465
-81.591831
-81.649201
-81.707179
-81.766854
-81.830247
-81.90078
-81.985492
-82.088991
-82.243156
)
;
        valueFraction   nonuniform List<scalar> 
100
(
0.0017678704
0.00178311
0.0017950365
0.0018042906
0.0018116259
0.0018175308
0.0018223696
0.0018263982
0.0018298088
0.001832739
0.0018352923
0.0018375446
0.0018395535
0.0018413625
0.0018430054
0.0018445083
0.0018458922
0.0018471735
0.0018483657
0.00184948
0.0018505254
0.0018515096
0.001852439
0.0018533192
0.0018541549
0.0018549502
0.0018557085
0.0018564331
0.0018571266
0.0018577915
0.0018584299
0.0018590437
0.0018596347
0.0018602044
0.0018607542
0.0018612854
0.0018617991
0.0018622964
0.0018627782
0.0018632454
0.0018636988
0.0018641392
0.0018645672
0.0018649835
0.0018653886
0.0018657832
0.0018661677
0.0018665425
0.0018669082
0.0018672652
0.0018676137
0.0018679543
0.0018682871
0.0018686126
0.0018689311
0.0018692427
0.0018695478
0.0018698467
0.0018701396
0.0018704266
0.001870708
0.0018709841
0.0018712549
0.0018715207
0.0018717817
0.0018720379
0.0018722897
0.001872537
0.0018727801
0.0018730191
0.0018732541
0.0018734853
0.0018737127
0.0018739364
0.0018741567
0.0018743735
0.001874587
0.0018747972
0.0018750044
0.0018752084
0.0018754095
0.0018756077
0.0018758031
0.0018759958
0.0018761858
0.0018763733
0.0018765582
0.0018767408
0.0018769212
0.0018770996
0.0018772762
0.0018774518
0.0018776274
0.0018778047
0.0018779871
0.0018781808
0.0018783962
0.0018786548
0.0018789705
0.0018794404
)
;
        value           nonuniform List<scalar> 
100
(
382.39197
386.96537
390.56421
393.3686
395.59895
397.39918
398.87753
400.11057
401.15597
402.05529
402.83979
403.53247
404.15082
404.70807
405.21449
405.67808
406.10516
406.50081
406.86915
407.21355
407.5368
407.84125
408.12887
408.40135
408.66014
408.90649
409.14148
409.36607
409.58109
409.78729
409.98533
410.1758
410.35923
410.53608
410.7068
410.87177
411.03134
411.18584
411.33557
411.48078
411.62174
411.75866
411.89177
412.02125
412.14729
412.27005
412.3897
412.50637
412.6202
412.73132
412.83985
412.94589
413.04956
413.15095
413.25015
413.34725
413.44233
413.53547
413.62674
413.71622
413.80395
413.89002
413.97447
414.05737
414.13875
414.21869
414.29722
414.37438
414.45023
414.52481
414.59814
414.67028
414.74126
414.81111
414.87986
414.94756
415.01422
415.07987
415.14455
415.20829
415.2711
415.33301
415.39405
415.45424
415.51361
415.57218
415.62998
415.68704
415.74341
415.79915
415.85438
415.90927
415.96414
416.01957
416.07661
416.13717
416.20454
416.2854
416.38416
416.53113
)
;
        Tnbr            T;
        QrNbr           Qr;
        Qr              none;
        thicknessLayers 0();
        kappaLayers     0();
        kappaMethod     solidThermo;
        kappa           none;
        alphaAni        Anialpha;
    }
}


// ************************************************************************* //
