/*--------------------------------*- C++ -*----------------------------------*\
| =========                 |                                                 |
| \\      /  F ield         | OpenFOAM: The Open Source CFD Toolbox           |
|  \\    /   O peration     | Version:  4.0                                   |
|   \\  /    A nd           | Web:      www.OpenFOAM.org                      |
|    \\/     M anipulation  |                                                 |
\*---------------------------------------------------------------------------*/
FoamFile
{
    version     2.0;
    format      ascii;
    class       surfaceScalarField;
    location    "3000";
    object      phi;
}
// * * * * * * * * * * * * * * * * * * * * * * * * * * * * * * * * * * * * * //

dimensions      [1 0 -1 0 0 0 0];

internalField   nonuniform List<scalar> 
261000
(
1.9937161e-13
1.1710124e-12
4.4552647e-11
4.6122387e-13
4.2846424e-12
1.6852175e-10
6.8736122e-13
8.9238592e-12
3.6383357e-10
1.0887226e-12
1.5676012e-11
6.6271664e-10
2.1650865e-12
2.5186423e-11
1.1107854e-09
4.129962e-12
3.8978003e-11
1.7703786e-09
7.2958582e-12
5.8625247e-11
2.7264309e-09
1.3780205e-11
8.4417254e-11
4.0940257e-09
2.6479952e-11
1.1814999e-10
6.0233436e-09
4.9068717e-11
1.6212064e-10
8.7061487e-09
8.5503604e-11
2.1969118e-10
1.2378313e-08
1.3981956e-10
2.9550501e-10
1.7314955e-08
2.1626373e-10
3.9706696e-10
2.3809462e-08
3.2466461e-10
5.359743e-10
3.2115622e-08
7.2704849e-10
4.2304127e-08
4.8170499e-10
6.1037906e-13
2.0480101e-12
4.783062e-11
2.2392371e-12
7.5662604e-12
1.807881e-10
5.0764505e-12
1.5935985e-11
3.8995256e-10
9.7220058e-12
2.8287438e-11
7.0953619e-10
1.6805051e-11
4.6228056e-11
1.1870392e-09
2.784352e-11
7.1727853e-11
1.8886965e-09
4.578803e-11
1.066645e-10
2.9045171e-09
7.3228445e-11
1.5387813e-10
4.3531353e-09
1.1393132e-10
2.166953e-10
6.3899499e-09
1.7298057e-10
2.993329e-10
9.2116234e-09
2.5653968e-10
4.0795772e-10
1.3058097e-08
3.7121804e-10
5.5188072e-10
1.8207334e-08
5.2437227e-10
7.4633205e-10
2.4955177e-08
7.2925775e-10
1.0157059e-09
3.3561867e-08
1.3973314e-09
4.4123235e-08
9.9851096e-10
1.1253048e-12
2.6453645e-12
5.4522915e-11
4.6240069e-12
9.7097605e-12
2.0583956e-10
1.1428525e-11
2.0384712e-11
4.4331279e-10
2.3287023e-11
3.605954e-11
8.0507913e-10
4.2920859e-11
5.8455077e-11
1.3441632e-09
7.4270945e-11
8.9745706e-11
2.1330048e-09
1.2235647e-10
1.3254283e-10
3.2689195e-09
1.9393614e-10
1.901724e-10
4.880051e-09
2.9746688e-10
2.6686748e-10
7.131077e-09
4.4269335e-10
3.6847417e-10
1.0227369e-08
6.3972027e-10
5.040291e-10
1.4415608e-08
8.9689692e-10
6.8867543e-10
1.9977818e-08
1.2179276e-09
9.4939016e-10
2.7213345e-08
1.5989646e-09
1.3351107e-09
3.6395229e-08
1.9334897e-09
4.7670715e-08
2.0055147e-09
1.9463438e-12
2.8065791e-12
6.5149566e-11
8.2221376e-12
1.0262919e-11
2.4553192e-10
2.0721014e-11
2.1399164e-11
5.2762601e-10
4.2697679e-11
3.7511173e-11
9.5557967e-10
7.876181e-11
6.018295e-11
1.590186e-09
1.3527943e-10
9.1385452e-11
2.5134745e-09
2.2075059e-10
1.3349998e-10
3.8340325e-09
3.4622481e-10
1.8950774e-10
5.692358e-09
5.2541702e-10
2.6334311e-10
8.2653437e-09
7.7438736e-10
3.6078039e-10
1.1768602e-08
1.1109181e-09
4.9136036e-10
1.6454838e-08
1.5534491e-09
6.7203276e-10
2.2607397e-08
2.1217158e-09
9.3389123e-10
3.0525538e-08
2.8432312e-09
1.333206e-09
4.0495617e-08
1.9709385e-09
5.2732926e-08
3.7489979e-09
3.7182255e-12
1.7715599e-12
8.0214173e-11
1.60594e-11
6.5008905e-12
3.0166563e-10
4.0684515e-11
1.3586404e-11
6.4648987e-10
8.3256739e-11
2.3867869e-11
1.1669346e-09
1.5140284e-10
3.8353316e-11
1.9340621e-09
2.5518462e-10
5.8284389e-11
3.0422526e-09
4.0752138e-10
8.5159571e-11
4.6140598e-09
6.2450078e-10
1.2088273e-10
6.8044164e-09
9.2541138e-10
1.6810028e-10
9.8031125e-09
1.3324668e-09
2.31023e-10
1.3834353e-08
1.8706216e-09
3.171637e-10
1.9152561e-08
2.5684696e-09
4.4072318e-10
2.6034779e-08
3.4623942e-09
6.2926545e-10
3.4770714e-08
4.6052421e-09
9.3746458e-10
4.5650419e-08
1.484685e-09
5.8948136e-08
6.0477909e-09
5.2599557e-12
1.0022046e-10
2.2746274e-11
3.7605176e-10
5.7621188e-11
8.0346367e-10
1.1778377e-10
1.4448784e-09
2.1368137e-10
2.3839888e-09
3.5876391e-10
3.7299252e-09
5.6977477e-10
5.6212156e-09
8.6681985e-10
8.228177e-09
1.2732426e-09
1.1752509e-08
1.8158424e-09
1.6423143e-08
2.5270179e-09
2.2488591e-08
3.4520467e-09
3.0208234e-08
4.6673283e-09
3.9847141e-08
6.3193197e-09
5.1678541e-08
6.5995241e-08
8.6955436e-09
3.6169322e-12
1.0614489e-11
3.0320095e-11
1.8527358e-11
3.8473764e-11
1.1513456e-10
5.2826581e-11
7.9566297e-11
2.4996277e-10
1.1790537e-10
1.3883184e-10
4.5879717e-10
2.3114655e-10
2.2138302e-10
7.7614617e-10
4.1423531e-10
3.3583888e-10
1.2514262e-09
6.9396176e-10
4.9181805e-10
1.9548459e-09
1.1025531e-09
7.0029315e-10
2.985076e-09
1.670059e-09
9.7703527e-10
4.4786986e-09
2.411601e-09
1.3439996e-09
6.6204441e-09
3.3047043e-09
1.8336382e-09
9.6513195e-09
4.2561235e-09
2.4957144e-09
1.3867441e-08
5.0614563e-09
3.4099048e-09
1.9593663e-08
5.376238e-09
4.7021387e-09
2.7097645e-08
6.541791e-09
3.636022e-08
4.7769073e-09
8.7988302e-12
1.7071648e-11
3.2571249e-11
4.105769e-11
6.3371826e-11
1.2362341e-10
1.0900875e-10
1.3332594e-10
2.6822909e-10
2.293587e-10
2.3603163e-10
4.9196564e-10
4.2319879e-10
3.830065e-10
8.3154193e-10
7.1917924e-10
5.8911126e-10
1.3393899e-09
1.1536464e-09
8.7199818e-10
2.0897853e-09
1.7652011e-09
1.2549587e-09
3.186784e-09
2.5902872e-09
1.7678267e-09
4.7738731e-09
3.6502763e-09
2.4510026e-09
7.0443339e-09
4.930386e-09
3.3618646e-09
1.0249325e-08
6.3478342e-09
4.5883639e-09
1.469661e-08
7.712692e-09
6.2746676e-09
2.0724675e-08
8.6993788e-09
8.6559335e-09
2.8619995e-08
1.2112254e-08
3.8396372e-08
8.853967e-09
1.3576496e-11
2.0793793e-11
3.7220953e-11
6.4730343e-11
7.6906665e-11
1.4114333e-10
1.7390354e-10
1.6155868e-10
3.0589477e-10
3.6868874e-10
2.8601786e-10
5.6028825e-10
6.8632538e-10
4.64002e-10
9.454999e-10
1.174946e-09
7.1340008e-10
1.520046e-09
1.8928133e-09
1.0566462e-09
2.3663273e-09
2.9056217e-09
1.5231098e-09
3.5989732e-09
4.2765458e-09
2.1530384e-09
5.3747631e-09
6.0454499e-09
3.0062682e-09
7.9029358e-09
8.2189559e-09
4.15078e-09
1.14528e-08
1.0718324e-08
5.7144913e-09
1.6351765e-08
1.330267e-08
7.9427075e-09
2.2960167e-08
1.5489191e-08
1.1267852e-08
3.1595569e-08
1.6503674e-08
4.23377e-08
1.6429149e-08
1.9253502e-11
2.2106738e-11
4.4580909e-11
9.1096089e-11
8.1751842e-11
1.688394e-10
2.4412429e-10
1.7080614e-10
3.6534285e-10
5.1784423e-10
2.9994368e-10
6.6792229e-10
9.6514217e-10
4.822426e-10
1.1246289e-09
1.6543735e-09
7.3436042e-10
1.8032539e-09
2.6695201e-09
1.0770663e-09
2.7984211e-09
4.1069935e-09
1.5375625e-09
4.2403639e-09
6.0649253e-09
2.1554334e-09
6.3049135e-09
8.6800869e-09
2.9362839e-09
9.2232698e-09
1.1966133e-08
4.0313171e-09
1.3288017e-08
1.59084e-08
5.5299528e-09
1.8849307e-08
2.0365395e-08
7.7209573e-09
2.6289734e-08
2.5099283e-08
1.1070447e-08
3.5958217e-08
1.6483635e-08
4.801302e-08
2.9837868e-08
3.3123096e-11
1.4206893e-11
5.4990167e-11
1.5615915e-10
5.2442138e-11
2.0793773e-10
4.1459986e-10
1.0977267e-10
4.490804e-10
8.6953582e-10
1.9279208e-10
8.1914705e-10
1.6003173e-09
3.09985e-10
1.3755335e-09
2.7071858e-09
4.71272e-10
2.1984652e-09
4.3111181e-09
6.8853595e-10
3.3986471e-09
6.5514909e-09
9.7528825e-10
5.1263017e-09
9.5838138e-09
1.3454452e-09
7.5807497e-09
1.3503601e-08
1.8322576e-09
1.1018544e-08
1.8403347e-08
2.5275402e-09
1.5756496e-08
2.4290871e-08
3.5132561e-09
2.2163765e-08
3.1116116e-08
5.0310661e-09
3.0635006e-08
3.8782475e-08
7.5207265e-09
4.1533035e-08
1.2053667e-08
5.5070051e-08
4.7089288e-08
4.5661995e-11
6.8765885e-11
2.1454173e-10
2.5961541e-10
5.682522e-10
5.5952786e-10
1.1878043e-09
1.0181217e-09
2.177087e-09
1.7046964e-09
3.6632088e-09
2.7150845e-09
5.7932373e-09
4.1797359e-09
8.7241343e-09
6.2725865e-09
1.2602855e-08
9.2192521e-09
1.7556498e-08
1.3301773e-08
2.3716935e-08
1.8855676e-08
3.1184169e-08
2.6254178e-08
4.0187778e-08
3.5874392e-08
5.1346268e-08
4.8040312e-08
6.2923294e-08
6.6471055e-08
-3.0902251e-12
3.6944117e-12
2.9715855e-11
-1.4701884e-11
1.3711044e-11
1.1303526e-10
-3.8869621e-11
2.884115e-11
2.4528941e-10
-8.0738029e-11
5.1108162e-11
4.4955727e-10
-1.4672627e-10
8.3197935e-11
7.5893647e-10
-2.440403e-10
1.2824838e-10
1.2204918e-09
-3.8068848e-10
1.909076e-10
1.9005864e-09
-5.6421121e-10
2.7679335e-10
2.8918054e-09
-8.0341858e-10
3.9655737e-10
4.3213478e-09
-1.1048042e-09
5.6167747e-10
6.3601516e-09
-1.470123e-09
7.8661711e-10
9.2300179e-09
-1.892088e-09
1.0876246e-09
1.3201775e-08
-2.3447278e-09
1.4782833e-09
1.8568004e-08
-2.7573244e-09
1.9570046e-09
2.5553201e-08
2.4618508e-09
3.4085492e-08
-2.9444968e-09
-2.181439e-12
6.3555664e-12
3.209158e-11
-1.063768e-11
2.3800439e-11
1.2199022e-10
-2.8906182e-11
5.0794383e-11
2.6454447e-10
-6.1640117e-11
9.1330622e-11
4.8447718e-10
-1.1486624e-10
1.508046e-10
8.1716138e-10
-1.9629621e-10
2.3630062e-10
1.3127675e-09
-3.1486131e-10
3.5742661e-10
2.0418313e-09
-4.8138528e-10
5.2769985e-10
3.1024008e-09
-7.0712732e-10
7.6754284e-10
4.628628e-09
-9.9876159e-10
1.0982591e-09
6.7993829e-09
-1.3582741e-09
1.5487995e-09
9.8466489e-09
-1.7792608e-09
2.151928e-09
1.4053278e-08
-2.2402349e-09
2.9376633e-09
1.9726243e-08
-2.6914891e-09
3.9185295e-09
2.7109668e-08
4.9730651e-09
3.6169528e-08
-2.9759325e-09
-1.4699649e-12
7.9897415e-12
3.7056766e-11
-6.9680517e-12
2.9763157e-11
1.4067881e-10
-1.8422193e-11
6.3461704e-11
3.0468175e-10
-3.8183202e-11
1.141995e-10
5.5718067e-10
-6.9063942e-11
1.8893778e-10
9.3824786e-10
-1.1437053e-10
2.9716172e-10
1.5044921e-09
-1.7740773e-10
4.515943e-10
2.3351973e-09
-2.6143982e-10
6.7044946e-10
3.5402566e-09
-3.5743288e-10
9.6823196e-10
5.2700673e-09
-4.4730129e-10
1.3913534e-09
7.6997093e-09
-5.1780716e-10
1.9783078e-09
1.1093794e-08
-5.5125539e-10
2.7800353e-09
1.5757094e-08
-5.4498201e-10
3.8684672e-09
2.2023063e-08
-5.2766743e-10
5.3199072e-09
3.0176818e-08
7.1353863e-09
4.0280903e-08
-6.3327321e-10
-1.1272316e-12
8.8313541e-12
4.4866725e-11
-4.8629076e-12
3.2626168e-11
1.697122e-10
-1.1743025e-11
6.9002133e-11
3.6668292e-10
-2.1503613e-11
1.2302133e-10
6.6886144e-10
-3.2629362e-11
2.0165735e-10
1.1230358e-09
-4.134453e-11
3.1444849e-10
1.7946834e-09
-3.9846994e-11
4.7405787e-10
2.774462e-09
-1.6596674e-11
7.0133091e-10
4.1862351e-09
4.5029446e-11
1.0133931e-09
6.1981288e-09
2.1261589e-10
1.4265835e-09
9.0204552e-09
5.0846532e-10
2.0306459e-09
1.2939829e-08
1.0000903e-09
2.8506365e-09
1.8287075e-08
1.7516997e-09
3.9787092e-09
2.5427864e-08
2.8382397e-09
5.4982365e-09
3.4693298e-08
7.5124862e-09
4.6246412e-08
4.2276538e-09
2.5743339e-12
5.886189e-12
5.5361118e-11
1.2326732e-11
2.1697591e-11
2.0911428e-10
3.3395235e-11
4.6038659e-11
4.5097591e-10
7.2579567e-11
8.2328652e-11
8.2065633e-10
1.4049492e-10
1.3539565e-10
1.3738811e-09
2.5399017e-10
2.1162672e-10
2.1877938e-09
4.3930152e-10
3.1965031e-10
3.3677466e-09
7.4142315e-10
4.7042994e-10
5.0550855e-09
1.2305259e-09
6.704189e-10
7.434627e-09
1.9243453e-09
9.6228509e-10
1.078903e-08
2.9369695e-09
1.3730885e-09
1.5401433e-08
4.3779154e-09
1.9384729e-09
2.1634981e-08
6.3748608e-09
2.7338316e-09
2.9882922e-08
9.0372774e-09
3.865699e-09
4.0503097e-08
5.6017381e-09
5.369699e-08
1.2320967e-08
5.6448584e-12
6.9007375e-11
2.623752e-11
2.6072076e-10
7.0425821e-11
5.6137875e-10
1.5152436e-10
1.0193528e-09
2.8955936e-10
1.7020585e-09
5.1417061e-10
2.7021024e-09
8.68602e-10
4.1449582e-09
1.4137331e-09
6.1978904e-09
2.2237197e-09
9.0796906e-09
3.4186132e-09
1.3069172e-08
5.1484841e-09
1.8498898e-08
7.5926914e-09
2.5748443e-08
1.0994895e-08
3.5206005e-08
1.5709903e-08
4.7190953e-08
6.1818891e-08
2.2415946e-08
-6.9634823e-13
4.45497e-12
2.5956878e-11
-2.515018e-12
1.6292967e-11
9.8560147e-11
-5.0829798e-12
3.4031069e-11
2.1382485e-10
-7.4963569e-12
5.990184e-11
3.9206629e-10
-7.8065173e-12
9.6816059e-11
6.6242569e-10
-2.5062716e-12
1.4867877e-10
1.0665046e-09
1.4422091e-11
2.2037881e-10
1.6632686e-09
5.5750184e-11
3.1732261e-10
2.5331367e-09
1.3476121e-10
4.5138475e-10
3.790923e-09
2.7099997e-10
6.3354694e-10
5.5903201e-09
4.8551171e-10
8.8299716e-10
8.1324389e-09
7.9600791e-10
1.2255263e-09
1.1665646e-08
1.2005329e-09
1.6997076e-09
1.6463616e-08
1.645543e-09
2.3583733e-09
2.2749531e-08
3.257906e-09
3.049245e-08
1.9802863e-09
1.1415702e-12
7.3400803e-12
2.8063903e-11
5.73068e-12
2.7331814e-11
1.0636001e-10
1.5710076e-11
5.8081746e-11
2.3051066e-10
3.4077918e-11
1.0378115e-10
4.2222385e-10
6.5375636e-11
1.701267e-10
7.1254308e-10
1.1674416e-10
2.6444891e-10
1.1456131e-09
1.9925584e-10
3.9599417e-10
1.7836794e-09
3.2408481e-10
5.7878006e-10
2.7160759e-09
5.1356552e-10
8.2837685e-10
4.0620969e-09
7.9412499e-10
1.1678531e-09
5.9844305e-09
1.1973352e-09
1.6306701e-09
8.6956393e-09
1.7507491e-09
2.2667482e-09
1.245846e-08
2.4620015e-09
3.1498837e-09
1.7564561e-08
3.282798e-09
4.3863821e-09
2.4260466e-08
6.1208157e-09
3.2547347e-08
4.0415501e-09
2.2047457e-12
9.8790079e-12
3.2311948e-11
1.1262885e-11
3.6500083e-11
1.2244988e-10
3.1790898e-11
7.7061138e-11
2.6517009e-10
7.0570069e-11
1.3697156e-10
4.8520425e-10
1.3775323e-10
2.2336078e-10
8.1781954e-10
2.4832094e-10
3.4533675e-10
1.3130191e-09
4.2386487e-10
5.1450257e-10
2.0411176e-09
6.9782179e-10
7.4508949e-10
3.0999486e-09
1.1186959e-09
1.0539604e-09
4.6235466e-09
1.7326428e-09
1.4616869e-09
6.7918354e-09
2.5946489e-09
2.0233829e-09
9.8389396e-09
3.7467918e-09
2.8175345e-09
1.4053973e-08
5.193074e-09
3.9653824e-09
1.9761015e-08
6.8171869e-09
5.689095e-09
2.724959e-08
8.3349775e-09
3.6591158e-08
8.2922411e-09
4.8235285e-12
1.0876186e-11
3.9044863e-11
2.3542535e-11
3.9696212e-11
1.4779436e-10
6.4936007e-11
8.2763958e-11
3.1958227e-10
1.4191379e-10
1.4510528e-10
5.8374288e-10
2.733944e-10
2.3302126e-10
9.8188342e-10
4.8625785e-10
3.5450496e-10
1.5726337e-09
8.179597e-10
5.1938369e-10
2.4378515e-09
1.3191914e-09
7.3953721e-10
3.6905141e-09
2.0600586e-09
1.0269767e-09
5.4841826e-09
3.072341e-09
1.4465108e-09
8.023257e-09
4.5036045e-09
1.9605368e-09
1.157128e-08
6.4140401e-09
2.7424131e-09
1.6451575e-08
8.8636709e-09
3.9159328e-09
2.3027425e-08
1.1787197e-08
5.8200124e-09
3.1638473e-08
8.7089467e-09
4.2438322e-08
1.5220813e-08
1.1240872e-11
6.475722e-12
4.8519418e-11
5.2708521e-11
2.3954549e-11
1.8338532e-10
1.4074953e-10
4.9892194e-11
3.9580183e-10
2.9741933e-10
8.7706664e-11
7.2137738e-10
5.5308555e-10
1.4095637e-10
1.2102677e-09
9.4798188e-10
2.1478938e-10
1.932594e-09
1.5340181e-09
3.1569677e-10
2.9853688e-09
2.3739831e-09
4.5352602e-10
4.501089e-09
3.5322335e-09
6.4555812e-10
6.6577324e-09
5.174e-09
9.0459156e-10
9.6890927e-09
7.3577006e-09
1.2864368e-09
1.3891706e-08
1.0254189e-08
1.8574326e-09
1.9623294e-08
1.4047226e-08
2.7257265e-09
2.7279843e-08
1.8997809e-08
4.1415839e-09
3.7230578e-08
6.5721428e-09
4.9674062e-08
2.5157076e-08
1.4566657e-11
6.091539e-11
6.9364642e-11
2.2987506e-10
1.8551898e-10
4.9511304e-10
3.9238513e-10
9.0018766e-10
7.2943563e-10
1.5059555e-09
1.2495989e-09
2.3967151e-09
2.0224301e-09
3.6878025e-09
3.1391941e-09
5.534621e-09
4.7219784e-09
8.1424183e-09
6.9207098e-09
1.1774966e-08
9.947897e-09
1.6758056e-08
1.4083214e-08
2.3470433e-08
1.9705328e-08
3.2309451e-08
2.7425882e-08
4.361178e-08
5.7495047e-08
3.8321634e-08
-1.1028275e-12
-9.551771e-13
2.8014625e-11
-5.6619049e-12
-3.3452676e-12
1.0646399e-10
-1.5995383e-11
-6.7021402e-12
2.3085963e-10
-3.552755e-11
-1.1201177e-11
4.2279784e-10
-6.9393041e-11
-1.6872611e-11
7.1316086e-10
-1.2537178e-10
-2.3266352e-11
1.1457447e-09
-2.1498567e-10
-2.9238357e-11
1.7821131e-09
-3.5353717e-10
-3.6138069e-11
2.7078132e-09
-5.5660851e-10
-4.5922353e-11
4.0398951e-09
-8.4608239e-10
-5.5140611e-11
5.9349009e-09
-1.245922e-09
-6.269646e-11
8.5949212e-09
-1.7755678e-09
-7.0376937e-11
1.2265585e-08
-2.4236755e-09
-1.0029607e-10
1.7211889e-08
-3.0925197e-09
-2.2210247e-10
2.3640214e-08
-4.236957e-10
3.1499452e-08
-3.676147e-09
-1.9355596e-12
-1.2494916e-12
3.0292883e-11
-9.6246495e-12
-4.3495527e-12
1.1505172e-10
-2.6302508e-11
-8.8465984e-12
2.4933045e-10
-5.6619078e-11
-1.4979393e-11
4.5631432e-10
-1.0699783e-10
-2.3048155e-11
7.6908998e-10
-1.8584742e-10
-3.328822e-11
1.2344729e-09
-3.0442612e-10
-4.5108063e-11
1.9181089e-09
-4.7774387e-10
-5.7741731e-11
2.9109674e-09
-7.3155869e-10
-6.7170817e-11
4.3371139e-09
-1.0921235e-09
-7.215458e-11
6.3619396e-09
-1.5850391e-09
-7.2483599e-11
9.1982377e-09
-2.2203052e-09
-8.0922967e-11
1.3104118e-08
-2.9724535e-09
-1.4331969e-10
1.8359507e-08
-3.7380802e-09
-3.8922496e-10
2.5192852e-08
-6.2431645e-10
3.3598344e-08
-4.5888697e-09
-2.5677569e-12
-1.455572e-12
3.5084712e-11
-1.2475482e-11
-5.0782221e-12
1.3308444e-10
-3.4030709e-11
-1.0186354e-11
2.8806197e-10
-7.324484e-11
-1.7050922e-11
5.2648475e-10
-1.3877076e-10
-2.5683901e-11
8.8597272e-10
-2.4309623e-10
-3.5473522e-11
1.4195164e-09
-4.0149082e-10
-4.6642407e-11
2.2010251e-09
-6.3775539e-10
-5.387077e-11
3.3323084e-09
-9.8088016e-10
-5.1838522e-11
4.9512877e-09
-1.4645591e-09
-3.7091952e-11
7.240374e-09
-2.1045389e-09
-2.4449752e-11
1.0430771e-08
-2.9122433e-09
-1.846217e-11
1.4799051e-08
-3.8202069e-09
-1.2114668e-10
2.0646564e-08
-4.9124242e-09
-2.8888125e-10
2.8241089e-08
-6.8390367e-10
3.7649424e-08
-5.9115407e-09
-4.1251883e-12
-1.0615562e-12
4.2774805e-11
-1.9782335e-11
-3.5851662e-12
1.619563e-10
-5.3364951e-11
-6.9758182e-12
3.4995084e-10
-1.1391432e-10
-1.1122741e-11
6.3835832e-10
-2.1296826e-10
-1.6598971e-11
1.0718433e-09
-3.6717223e-10
-2.1579028e-11
1.7129283e-09
-5.9717966e-10
-2.7037143e-11
2.6482302e-09
-9.2791933e-10
-2.8901915e-11
3.9962487e-09
-1.388386e-09
-2.3803986e-11
5.9165597e-09
-1.9965027e-09
-2.4400682e-11
8.6186014e-09
-2.8182938e-09
3.0725928e-11
1.2337781e-08
-3.7869547e-09
6.1449901e-11
1.7340162e-08
-4.9235141e-09
8.6080535e-11
2.395652e-08
-5.9554894e-09
-1.6804775e-10
3.2549244e-08
-6.364151e-10
4.3318481e-08
-6.8835738e-09
-5.6842547e-12
-4.5203575e-13
5.3592695e-11
-2.681683e-11
-1.4777656e-12
2.0240804e-10
-7.1406427e-11
-2.9138463e-12
4.3632544e-10
-1.4992306e-10
-4.9717248e-12
7.9373641e-10
-2.7800301e-10
-6.6807032e-12
1.3284188e-09
-4.7238267e-10
-9.456186e-12
2.114834e-09
-7.6026018e-10
-8.5957384e-12
3.2547788e-09
-1.1636479e-09
-9.694897e-12
4.8852308e-09
-1.6987668e-09
-1.7871626e-11
7.1868632e-09
-2.4136163e-09
1.4128852e-11
1.0365334e-08
-3.2250261e-09
3.942093e-11
1.4694309e-08
-4.2120858e-09
1.0510305e-10
2.056654e-08
-5.3635101e-09
2.1567432e-10
2.8301439e-08
-6.2948389e-09
-1.7928298e-10
3.8172802e-08
-4.5146782e-10
5.0150356e-08
-6.9564712e-09
-7.5930988e-12
6.8055277e-11
-3.5438248e-11
2.5624074e-10
-9.4072713e-11
5.5083067e-10
-1.975683e-10
9.9870667e-10
-3.6293193e-10
1.6646308e-09
-6.1230187e-10
2.6366174e-09
-9.6516241e-10
4.0320488e-09
-1.4439759e-09
6.0037133e-09
-2.0633259e-09
8.7438577e-09
-2.7897499e-09
1.2515463e-08
-3.6446707e-09
1.7652316e-08
-4.5364713e-09
2.4467224e-08
-5.3192772e-09
3.3307783e-08
-6.1322295e-09
4.4245257e-08
5.7049412e-08
-6.1383025e-09
1.136e-13
-2.6136235e-14
2.7927067e-11
7.3024544e-13
-5.6507888e-14
1.0590364e-10
2.2388354e-12
-1.7507672e-13
2.295257e-10
5.0441225e-12
-3.4963746e-13
4.2034151e-10
9.6580771e-12
-5.930098e-13
7.091388e-10
1.6833395e-11
-1.0548021e-12
1.1396223e-09
2.6150148e-11
-4.9260312e-13
1.7732858e-09
3.7926888e-11
4.3573433e-13
2.695596e-09
5.7207325e-11
-2.8029503e-12
4.0234099e-09
7.3736681e-11
4.8692078e-12
5.9134902e-09
8.8624885e-11
1.1018271e-11
8.5689965e-09
1.2156501e-10
-4.1281651e-12
1.2236747e-08
1.5260836e-10
-4.397977e-12
1.7185205e-08
1.3091058e-10
2.9704362e-11
2.3632133e-08
-5.6183695e-12
3.155436e-08
8.1512337e-11
4.3881657e-13
-3.4753768e-13
3.0175194e-11
2.2966785e-12
-1.3148501e-12
1.144516e-10
5.9785315e-12
-2.4191768e-12
2.4789169e-10
1.2011532e-11
-3.7744241e-12
4.5370443e-10
2.0414717e-11
-4.8384433e-12
7.6492932e-10
2.9509707e-11
-4.0577144e-12
1.2283766e-09
3.9775676e-11
-2.4693892e-12
1.9098127e-09
5.1151236e-11
-8.5281261e-13
2.9008699e-09
5.9337845e-11
1.135903e-12
4.3249727e-09
7.7782492e-11
3.1506222e-12
6.3451906e-09
9.9283545e-11
1.1512313e-11
9.1762097e-09
9.9380845e-11
2.0431561e-11
1.3079413e-08
8.750876e-11
2.5314447e-11
1.8341602e-08
8.5677161e-11
3.1214806e-11
2.519307e-08
3.0017763e-11
3.3681391e-08
-3.3145461e-11
-1.0066741e-14
-1.870948e-13
3.4933948e-11
4.408006e-14
-6.3300896e-13
1.3234756e-10
4.676358e-13
-1.1368444e-12
2.8635451e-10
1.3462096e-12
-1.5529613e-12
5.2338223e-10
2.8749385e-12
-1.3136992e-12
8.8091527e-10
6.627484e-12
2.0886923e-13
1.4114911e-09
1.2254539e-11
4.4931501e-12
2.1884264e-09
3.2224531e-11
-1.2599657e-12
3.3127316e-09
5.6310157e-11
6.2716842e-12
4.9220464e-09
7.5708225e-11
2.2817657e-11
7.2012796e-09
8.4946799e-11
5.0999889e-11
1.0382003e-08
6.5470077e-11
9.3466471e-11
1.4745438e-08
1.0341191e-11
1.3458816e-10
2.0592343e-08
-1.3936871e-10
1.1445016e-10
2.8307419e-08
9.7686929e-11
3.7910734e-08
-4.685085e-10
2.206885e-14
1.7426583e-13
4.2390794e-11
3.9759659e-13
7.2184458e-13
1.6022467e-10
1.3852895e-12
1.6360947e-12
3.4618809e-10
8.3557846e-12
-1.6252928e-12
6.3145692e-10
2.0081031e-11
-1.2521199e-12
1.0600507e-09
3.0024101e-11
8.6774801e-12
1.6945084e-09
5.7272103e-11
5.5770495e-12
2.6198859e-09
8.5865895e-11
1.5784316e-11
3.9505927e-09
1.2509755e-10
3.5032984e-11
5.8485398e-09
1.6662059e-10
7.6844212e-11
8.5230134e-09
1.6786256e-10
1.5357627e-10
1.2233911e-08
8.933066e-11
2.1668917e-10
1.72954e-08
-9.1676934e-11
2.3002535e-10
2.4041973e-08
-3.1063929e-10
5.1769111e-11
3.2830725e-08
6.4864746e-11
4.3742816e-08
-7.0232449e-10
8.486998e-13
2.6106938e-13
5.2656419e-11
4.1450582e-12
9.8746817e-13
1.9884434e-10
1.1404899e-11
2.0134215e-12
4.2868551e-10
2.3146207e-11
-2.5931662e-13
7.8062484e-10
3.6909865e-11
5.3384871e-12
1.3080573e-09
7.621939e-11
-8.5217526e-13
2.0850432e-09
1.0762341e-10
1.431234e-11
3.2146235e-09
1.5158152e-10
2.6102455e-11
4.8309311e-09
2.0582753e-10
4.9434942e-11
7.1181813e-09
2.4280162e-10
9.2713401e-11
1.0312443e-08
2.7870818e-10
1.0425026e-10
1.4707663e-08
2.9901457e-10
1.0944436e-10
2.0653393e-08
2.1176866e-10
8.3938428e-11
2.8534663e-08
-2.4266058e-11
3.9691119e-11
3.8420748e-08
1.7549325e-10
5.0782989e-08
-7.6768411e-10
1.9315508e-12
6.6384142e-11
8.8452543e-12
2.5031285e-10
2.3170898e-11
5.3851605e-10
4.4402074e-11
9.7721223e-10
8.3405926e-11
1.6309593e-09
1.3125405e-10
2.5879081e-09
2.1025069e-10
3.9673509e-09
3.0469245e-10
5.935354e-09
4.0107859e-10
8.696878e-09
4.9445807e-10
1.2514758e-08
5.4469245e-10
1.770628e-08
4.936625e-10
2.4627634e-08
2.5654234e-10
3.3628768e-08
-4.1443691e-10
4.4955841e-08
5.8057273e-08
-1.2468782e-09
-3.2571826e-13
-2.6569615e-12
3.0909565e-11
-1.7492341e-12
-1.0000138e-11
1.1732706e-10
-4.9369283e-12
-2.1559881e-11
2.5427279e-10
-1.0821896e-11
-3.921083e-11
4.6543665e-10
-2.0748871e-11
-6.5507625e-11
7.845723e-10
-3.7717964e-11
-1.0355171e-10
1.2601411e-09
-6.7346804e-11
-1.5695292e-10
1.9598645e-09
-1.1950777e-10
-2.2951734e-10
2.9772697e-09
-2.1274795e-10
-3.2352976e-10
4.440172e-09
-3.715523e-10
-4.4690885e-10
6.5191919e-09
-6.378445e-10
-5.9875503e-10
9.4340257e-09
-1.0454525e-09
-8.066685e-10
1.3450998e-08
-1.6688474e-09
-1.0478431e-09
1.8856404e-08
-2.4942691e-09
-1.4156211e-09
2.5873111e-08
-1.9579107e-09
3.4447027e-08
-3.4291015e-09
5.4881172e-13
-6.4607539e-12
3.3429917e-11
2.0975836e-12
-2.3935115e-11
1.2683713e-10
3.8829081e-12
-5.0199948e-11
2.7474543e-10
4.247391e-12
-8.8486915e-11
5.0261449e-10
-2.2891575e-13
-1.4274434e-10
8.4663925e-10
-1.6540303e-11
-2.1750052e-10
1.3586321e-09
-5.5948344e-11
-3.1845122e-10
2.1107115e-09
-1.3497556e-10
-4.5189584e-10
3.2022642e-09
-2.7516275e-10
-6.2712091e-10
4.7687337e-09
-5.162076e-10
-8.5094794e-10
6.9902497e-09
-9.1132444e-10
-1.1255448e-09
1.009808e-08
-1.5518402e-09
-1.4585269e-09
1.4371737e-08
-2.4702637e-09
-1.9003929e-09
2.0112507e-08
-3.6736608e-09
-2.5816239e-09
2.756237e-08
-3.648919e-09
3.6704873e-08
-5.0062473e-09
-1.8801029e-12
-8.3308965e-12
3.8683621e-11
-1.0132858e-11
-3.020199e-11
1.4686621e-10
-2.9055156e-11
-6.28626e-11
3.1793773e-10
-6.5141487e-11
-1.1018581e-10
5.8116449e-10
-1.2839991e-10
-1.7684691e-10
9.7827153e-10
-2.320715e-10
-2.688287e-10
1.5664837e-09
-3.9712797e-10
-3.9125632e-10
2.4262761e-09
-6.5121328e-10
-5.5433551e-10
3.6692386e-09
-1.0343689e-09
-7.677851e-10
5.4458391e-09
-1.5984078e-09
-1.0398702e-09
7.9542019e-09
-2.4035805e-09
-1.3843229e-09
1.1445899e-08
-3.4905643e-09
-1.847974e-09
1.6221794e-08
-4.990468e-09
-2.4121533e-09
2.2603908e-08
-6.6761961e-09
-3.4442813e-09
3.0855662e-08
-4.6023621e-09
4.0993278e-08
-8.8054531e-09
-4.4808762e-12
-8.6050992e-12
4.714502e-11
-2.1367284e-11
-3.1503306e-11
1.7841075e-10
-5.7708461e-11
-6.5691086e-11
3.853549e-10
-1.2412806e-10
-1.1497563e-10
7.0266161e-10
-2.3715509e-10
-1.8301274e-10
1.1792356e-09
-4.1882979e-10
-2.7599279e-10
1.883335e-09
-7.0194253e-10
-3.9741899e-10
2.9091423e-09
-1.1348058e-09
-5.5562419e-10
4.3847163e-09
-1.7760803e-09
-7.5878979e-10
6.4807771e-09
-2.6930399e-09
-1.0186657e-09
9.4187083e-09
-3.9617787e-09
-1.3558521e-09
1.3474097e-08
-5.6616442e-09
-1.8212453e-09
1.8968428e-08
-7.7608994e-09
-2.5057266e-09
2.623466e-08
-1.057816e-08
-3.3290957e-09
3.5532612e-08
-4.4845793e-09
4.6870351e-08
-1.3823671e-08
-7.5929935e-12
-7.5432952e-12
5.9186108e-11
-3.7333363e-11
-2.6354011e-11
2.2343285e-10
-1.0314582e-10
-5.2708887e-11
4.8151142e-10
-2.2465899e-10
-8.856678e-11
8.7572223e-10
-4.2764116e-10
-1.371783e-10
1.4651937e-09
-7.5037047e-10
-1.9982366e-10
2.3315856e-09
-1.2348168e-09
-2.8444417e-10
3.5860685e-09
-1.9457489e-09
-3.9105112e-10
5.3772507e-09
-2.9605651e-09
-5.2490064e-10
7.8990523e-09
-4.368999e-09
-6.9406462e-10
1.1396197e-08
-6.2670332e-09
-9.1311043e-10
1.6162852e-08
-8.7612881e-09
-1.2001774e-09
2.2526447e-08
-1.1921845e-08
-1.6137306e-09
3.0803061e-08
-1.5841356e-08
-2.1892816e-09
4.120025e-08
-3.1754747e-09
5.3663715e-08
-2.003137e-08
-1.6833649e-11
7.5673015e-11
-7.7668268e-11
2.8479095e-10
-2.0390242e-10
6.120374e-10
-4.2471874e-10
1.1094555e-09
-7.7980017e-10
1.8488523e-09
-1.3194836e-09
2.9277521e-09
-2.1127431e-09
4.4761429e-09
-3.2316742e-09
6.6631997e-09
-4.7620171e-09
9.7022719e-09
-6.792533e-09
1.3851144e-08
-9.4020763e-09
1.9402631e-08
-1.2632989e-08
2.6658269e-08
-1.6493591e-08
3.5875528e-08
-2.0904942e-08
4.71778e-08
6.0422872e-08
-2.6446114e-08
4.2518312e-15
-1.6269311e-12
3.2531969e-11
1.0515459e-13
-6.13332e-12
1.2335861e-10
4.4648899e-13
-1.3371464e-11
2.6730156e-10
1.1419081e-12
-2.4621574e-11
4.8936048e-10
2.1561454e-12
-4.1665416e-11
8.2521943e-10
3.5944481e-12
-6.6759746e-11
1.325456e-09
6.5914514e-12
-1.0425289e-10
2.0611097e-09
1.0903617e-11
-1.5785772e-10
3.1307979e-09
1.4736596e-11
-2.3292574e-10
4.6692374e-09
1.728499e-11
-3.3958362e-10
6.8561879e-09
1.1470804e-11
-4.8309863e-10
9.9228817e-09
-4.4594345e-12
-6.8174542e-10
1.4148566e-08
-1.061757e-10
-9.4301124e-10
1.9900972e-08
-3.0733344e-10
-1.3094887e-09
2.7383456e-08
-1.7080026e-09
3.6541066e-08
-6.9372633e-10
1.6799853e-12
-4.8853276e-12
3.5007421e-11
7.6715317e-12
-1.8162517e-11
1.328726e-10
1.9517034e-11
-3.8366465e-11
2.8789143e-10
3.8816972e-11
-6.8209632e-11
5.268968e-10
6.7052598e-11
-1.1142258e-10
8.8815152e-10
1.0668927e-10
-1.7360686e-10
1.4258277e-09
1.557026e-10
-2.5851573e-10
2.215938e-09
2.0607205e-10
-3.699093e-10
3.3639108e-09
2.4396754e-10
-5.1585376e-10
5.0137133e-09
2.2942685e-10
-6.925261e-10
7.3576607e-09
1.5382323e-10
-9.5339962e-10
1.0643882e-08
-4.4429249e-11
-1.2859381e-09
1.5173992e-08
-4.1912569e-10
-1.7312971e-09
2.1275219e-08
-9.8992758e-10
-2.3854615e-09
2.9208733e-08
-3.015314e-09
3.8958469e-08
-1.9366698e-09
-3.5078679e-13
-6.2720618e-12
4.0419593e-11
-2.1442722e-12
-2.2901059e-11
1.5339567e-10
-6.4496033e-12
-4.8185102e-11
3.3205725e-10
-1.4883715e-11
-8.5663274e-11
6.07045e-10
-3.0123147e-11
-1.3981157e-10
1.0218879e-09
-5.8947171e-11
-2.1629457e-10
1.6379762e-09
-1.1033323e-10
-3.219476e-10
2.5410641e-09
-1.9552406e-10
-4.650213e-10
3.8494952e-09
-3.3412685e-10
-6.5543936e-10
5.7239576e-09
-5.4311047e-10
-9.0714925e-10
8.3777045e-09
-8.9831878e-10
-1.2367088e-09
1.2084268e-08
-1.469684e-09
-1.6688061e-09
1.7175816e-08
-2.3138841e-09
-2.2194782e-09
2.3935995e-08
-3.4905774e-09
-3.0511804e-09
3.2697636e-08
-3.733293e-09
4.3469333e-08
-5.249148e-09
-1.5289428e-12
-6.980546e-12
4.9380561e-11
-6.9118069e-12
-2.5907464e-11
1.8679674e-10
-1.8604193e-11
-5.4617921e-11
4.0347456e-10
-4.1058899e-11
-9.6463409e-11
7.3590743e-10
-8.1490837e-11
-1.5573848e-10
1.2355797e-09
-1.5135572e-10
-2.3763458e-10
1.9745167e-09
-2.6826589e-10
-3.4828093e-10
3.0523494e-09
-4.5870901e-10
-4.9484267e-10
4.6049258e-09
-7.6168064e-10
-6.8569041e-10
6.813918e-09
-1.2348641e-09
-9.310391e-10
9.9156626e-09
-1.9586001e-09
-1.244025e-09
1.4204982e-08
-3.038543e-09
-1.6455489e-09
2.0024882e-08
-4.6016838e-09
-2.1500186e-09
2.7728025e-08
-6.789344e-09
-2.9190981e-09
3.7587735e-08
-3.565132e-09
4.9594374e-08
-9.6820362e-09
-2.0508283e-12
-7.7309124e-12
6.1984878e-11
-1.1846207e-11
-2.65788e-11
2.3389535e-10
-3.6294282e-11
-5.272472e-11
5.0405929e-10
-8.5942052e-11
-8.8088198e-11
9.1698362e-10
-1.7666666e-10
-1.3473598e-10
1.5348977e-09
-3.3162939e-10
-1.9502559e-10
2.4439111e-09
-5.8374853e-10
-2.7165894e-10
3.7615227e-09
-9.789267e-10
-3.6768467e-10
5.645207e-09
-1.5801354e-09
-4.8650029e-10
8.3009781e-09
-2.4725255e-09
-6.3191989e-10
1.1989337e-08
-3.7680402e-09
-8.0927237e-10
1.7023435e-08
-5.6104466e-09
-1.0272675e-09
2.3750333e-08
-8.1529716e-09
-1.3056463e-09
3.2500897e-08
-1.1574747e-08
-1.784734e-09
4.3487237e-08
-2.5427397e-09
5.6619823e-08
-1.555371e-08
-1.1309113e-11
7.9248977e-11
-5.1205472e-11
2.9810503e-10
-1.3254835e-10
6.4064984e-10
-2.7285515e-10
1.1616649e-09
-4.9549777e-10
1.9367447e-09
-8.3154077e-10
3.0687472e-09
-1.3221311e-09
4.6950403e-09
-2.0213931e-09
6.9947274e-09
-2.999643e-09
1.0193951e-08
-4.3462743e-09
1.4565758e-08
-6.1718591e-09
2.0418812e-08
-8.6079606e-09
2.8066935e-08
-1.1808727e-08
3.7770445e-08
-1.6060021e-08
4.9644115e-08
6.3538002e-08
-2.1718179e-08
-7.3136751e-13
-2.3195445e-12
3.5582935e-11
-3.613832e-12
-8.8206637e-12
1.3506186e-10
-9.694177e-12
-1.9339989e-11
2.9272217e-10
-2.0316343e-11
-3.5901365e-11
5.3588446e-10
-3.732776e-11
-6.1314034e-11
9.0354564e-10
-6.3285136e-11
-9.9510144e-11