/*--------------------------------*- C++ -*----------------------------------*\
| =========                 |                                                 |
| \\      /  F ield         | OpenFOAM: The Open Source CFD Toolbox           |
|  \\    /   O peration     | Version:  4.0                                   |
|   \\  /    A nd           | Web:      www.OpenFOAM.org                      |
|    \\/     M anipulation  |                                                 |
\*---------------------------------------------------------------------------*/
FoamFile
{
    version     2.0;
    format      ascii;
    class       volScalarField;
    location    "3000";
    object      rho;
}
// * * * * * * * * * * * * * * * * * * * * * * * * * * * * * * * * * * * * * //

dimensions      [1 -3 0 0 0 0 0];

internalField   nonuniform List<scalar> 
90000
(
1.1522443
1.1527118
1.153265
1.1539172
1.154684
1.1555783
1.1566085
1.1577841
1.1591032
1.1605498
1.1620874
1.1636508
1.1651371
1.1663951
1.167207
1.1523391
1.1528234
1.1533967
1.1540728
1.1548644
1.1557861
1.1568526
1.1580674
1.1594277
1.1609159
1.1624935
1.1640929
1.1656104
1.1668971
1.1677437
1.152493
1.1530102
1.1536222
1.1543435
1.155189
1.1561727
1.1573057
1.1585929
1.160029
1.1615926
1.1632401
1.1648997
1.1664658
1.1677947
1.1686968
1.1526647
1.1532298
1.1538984
1.1546857
1.1556071
1.1566767
1.1579043
1.1592923
1.1608307
1.1624916
1.1642236
1.1659476
1.1675552
1.1689103
1.1698497
1.1528095
1.1534365
1.1541775
1.1550489
1.1560664
1.1572431
1.1585867
1.1600948
1.1617502
1.1635152
1.165327
1.1670966
1.1687117
1.1700438
1.1709578
1.1528948
1.153596
1.1544235
1.1553943
1.1565238
1.1578235
1.159297
1.1609352
1.1627105
1.1645719
1.1664424
1.16822
1.1697863
1.1710178
1.1717977
1.1399293
1.1403834
1.1409217
1.141558
1.1423079
1.1431873
1.1442122
1.145396
1.1467465
1.1482602
1.149914
1.151653
1.1533726
1.1548947
1.1559351
1.1400671
1.1405377
1.1410957
1.1417555
1.1425331
1.1434451
1.144508
1.1457356
1.1471358
1.1487048
1.150419
1.1522224
1.1540101
1.1556055
1.1567311
1.1402966
1.1407997
1.1413963
1.1421019
1.1429335
1.1439087
1.1450449
1.1463562
1.1478504
1.1495227
1.1513473
1.1532658
1.1551718
1.156893
1.1581681
1.1405529
1.141103
1.1417556
1.1425274
1.1434368
1.1445028
1.1457432
1.1471725
1.148797
1.1506089
1.1525776
1.1546389
1.1566822
1.1585381
1.1599672
1.1407667
1.1413771
1.1421011
1.1429571
1.1439647
1.1451441
1.1465133
1.1480855
1.1498639
1.1518348
1.1539588
1.156161
1.1583214
1.1602687
1.1617809
1.140889
1.1415718
1.1423808
1.1433362
1.1444588
1.1457692
1.1472848
1.1490158
1.1509595
1.1530924
1.1553609
1.157672
1.1598873
1.1618213
1.1632496
1.1276855
1.1281268
1.1286495
1.1292674
1.1299954
1.1308496
1.1318464
1.1330004
1.1343217
1.1358106
1.137449
1.1391868
1.1409212
1.1424657
1.1435084
1.1279525
1.1284103
1.128953
1.1295946
1.1303512
1.1312395
1.1322768
1.1334786
1.1348557
1.1364078
1.1381172
1.1399342
1.1417563
1.1433997
1.1445608
1.1284024
1.1288926
1.1294741
1.1301625
1.1309753
1.1319312
1.1330497
1.1343491
1.135844
1.1375036
1.1393357
1.1412891
1.1432607
1.1450725
1.1464476
1.1288893
1.1294244
1.1300595
1.1308119
1.1317006
1.1327458
1.1339678
1.135385
1.1370122
1.1388386
1.1408569
1.1430078
1.145184
1.1472099
1.1488297
1.1292416
1.1298349
1.1305396
1.1313742
1.1323596
1.1335173
1.1348682
1.1364292
1.1382074
1.1402485
1.1424865
1.1448573
1.1472437
1.14946
1.1512457
1.1294182
1.1300829
1.130872
1.1318064
1.1329089
1.1342033
1.135713
1.137457
1.139446
1.1416742
1.1440998
1.1466385
1.1491459
1.1514053
1.1531233
1.1158953
1.1163234
1.1168304
1.1174292
1.1181343
1.1189611
1.1199253
1.1210357
1.1223052
1.1237337
1.1253033
1.1269668
1.1286277
1.1301134
1.1311381
1.1161871
1.1166307
1.1171563
1.1177772
1.1185087
1.1193665
1.1203664
1.121528
1.1228577
1.124356
1.1260065
1.1277624
1.129528
1.1311318
1.1322909
1.1166616
1.1171375
1.1177019
1.1183698
1.1191578
1.1200837
1.1211657
1.1224207
1.1238606
1.1254876
1.1272862
1.1292102
1.131165
1.1329823
1.1343899
1.1171957
1.1177171
1.1183362
1.1190699
1.1199367
1.1209566
1.1221503
1.1235365
1.1251292
1.1269318
1.1289284
1.1310711
1.1332626
1.1353344
1.137025
1.117644
1.1182228
1.1189108
1.1197267
1.1206915
1.1218276
1.1231575
1.124702
1.1264755
1.1284805
1.1306971
1.1330696
1.1354892
1.1377755
1.1396631
1.1178983
1.1185454
1.1193146
1.1202267
1.1213048
1.1225732
1.124056
1.125774
1.1277399
1.1299503
1.1323745
1.1349395
1.137511
1.1398765
1.1417336
1.1038131
1.1042292
1.1047215
1.1053027
1.1059866
1.1067879
1.1077215
1.1088006
1.1100343
1.111423
1.1129503
1.1145706
1.1161903
1.1176391
1.1186303
1.1041844
1.1046171
1.1051294
1.1057347
1.1064475
1.1072836
1.1082588
1.1093879
1.1106812
1.1121403
1.11375
1.1154657
1.1171951
1.1187734
1.1199284
1.1048473
1.1053113
1.1058614
1.1065121
1.1072799
1.1081821
1.1092369
1.1104611
1.1118675
1.1134594
1.1152197
1.1170991
1.1190039
1.1207823
1.1221815
1.1056381
1.1061458
1.106749
1.1074644
1.1083106
1.1093081
1.1104785
1.1118428
1.1134188
1.1152145
1.1171707
1.1191985
1.1212318
1.1231963
1.1248781
1.1063164
1.1068787
1.1075472
1.1083407
1.10928
1.1103876
1.1116866
1.1131983
1.1149384
1.1168678
1.1189765
1.1212962
1.1236586
1.1258428
1.1274691
1.106751
1.1073789
1.1081259
1.1090125
1.1100608
1.1112933
1.1127308
1.114388
1.1162661
1.1183885
1.1207608
1.1232624
1.1257594
1.1278665
1.1291611
1.0925654
1.092969
1.0934463
1.0940094
1.0946714
1.0954462
1.0963475
1.0973873
1.0985715
1.099899
1.1013559
1.1028912
1.1044105
1.1057618
1.1066874
1.0929249
1.0933449
1.0938421
1.0944293
1.0951207
1.0959314
1.0968768
1.0979709
1.0992199
1.1006157
1.1021402
1.103764
1.1054064
1.1068744
1.1079289
1.0935419
1.0939923
1.0945263
1.0951579
1.0959025
1.0967769
1.0977986
1.0989741
1.1003155
1.1018444
1.1035295
1.1053238
1.1071291
1.108876
1.1102562
1.0942438
1.0947366
1.0953223
1.0960146
1.0968283
1.0977913
1.098917
1.1002175
1.1017291
1.103441
1.105337
1.1073685
1.109431
1.111398
1.1130076
1.0948125
1.0953577
1.0960053
1.0967775
1.0976958
1.0987737
1.1000385
1.1015105
1.103205
1.1051253
1.1072526
1.1095365
1.1118776
1.1139158
1.1156646
1.0951456
1.095758
1.096487
1.0973511
1.0983732
1.0995765
1.1009828
1.1026276
1.1045141
1.1066406
1.108979
1.1114569
1.1139357
1.1161853
1.1175536
1.0818264
1.0822194
1.0826841
1.0832322
1.0838763
1.0846321
1.0855118
1.0865274
1.087687
1.08899
1.0904201
1.0919336
1.0934419
1.0947845
1.0956927
1.0822166
1.0826257
1.0831099
1.0836815
1.0843539
1.0851439
1.0860643
1.0871289
1.0883469
1.0897194
1.0912315
1.0928409
1.0944607
1.0959333
1.097
1.0829072
1.0833474
1.0838694
1.0844872
1.0852162
1.0860688
1.0870649
1.0882203
1.0895466
1.0910467
1.092707
1.094485
1.0962916
1.0979673
1.0992508
1.0837396
1.0842206
1.0847916
1.0854681
1.0862675
1.0872086
1.0883106
1.0895916
1.0910653
1.0927353
1.094586
1.0965687
1.098582
1.1004468
1.101883
1.0845027
1.0850355
1.085669
1.0864209
1.0873109
1.0883601
1.0895902
1.0910208
1.0926649
1.0945225
1.0965685
1.0987369
1.1008994
1.1028401
1.1042546
1.085024
1.0856193
1.0863288
1.0871723
1.0881718
1.08935
1.0907285
1.0923242
1.0941431
1.0961707
1.0983594
1.1006118
1.1027637
1.1045748
1.1057396
1.0722497
1.0726329
1.0730861
1.0736207
1.0742491
1.0749844
1.0758397
1.0768261
1.0779508
1.0792121
1.0805928
1.0820482
1.0835366
1.0848622
1.0857633
1.0726035
1.0730031
1.073476
1.0740344
1.0746916
1.0754619
1.0763595
1.0773976
1.0785855
1.0799242
1.0814001
1.0829722
1.0845569
1.0859982
1.087045
1.073266
1.0736955
1.0742045
1.0748065
1.0755164
1.0763504
1.077325
1.0784558
1.0797549
1.0812264
1.082859
1.0846149
1.0863609
1.0879844
1.089231
1.0740977
1.0745671
1.0751244
1.0757848
1.0765653
1.077484
1.0785598
1.0798103
1.0812484
1.0828774
1.0846813
1.086611
1.0885659
1.0903739
1.091769
1.0748561
1.075376
1.0759943
1.076728
1.0775963
1.0786198
1.0798191
1.0812128
1.0828131
1.0846186
1.0866036
1.0887025
1.0907906
1.0926651
1.0940416
1.0753742
1.0759551
1.0766474
1.0774705
1.0784455
1.0795943
1.0809371
1.0824895
1.0842559
1.0862203
1.0883345
1.0905026
1.0925677
1.0943098
1.0954692
1.0635896
1.0639646
1.0644082
1.0649312
1.065546
1.0662653
1.0671019
1.0680669
1.0691675
1.0704124
1.0717793
1.0732277
1.0746749
1.0759701
1.0768598
1.0639706
1.064361
1.0648232
1.0653689
1.066011
1.0667635
1.0676403
1.0686539
1.0698128
1.0711266
1.0725738
1.074116
1.0756719
1.0770942
1.0781398
1.0646417
1.0650619
1.0655599
1.0661492
1.0668443
1.0676613
1.0686168
1.0697267
1.071004
1.0724336
1.0740189
1.0757203
1.077453
1.0790673
1.0803233
1.0654674
1.0659266
1.0664718
1.0671179
1.0678816
1.0687807
1.0698338
1.0710582
1.0724667
1.0740623
1.0758307
1.0777261
1.0796537
1.0814485
1.0828624
1.066221
1.0667296
1.0673344
1.0680524
1.0689022
1.0699042
1.0710789
1.0724446
1.0740138
1.0757856
1.0777356
1.079801
1.0818631
1.0837322
1.0851513
1.0667363
1.0673046
1.067982
1.0687876
1.0697422
1.0708674
1.0721836
1.0737062
1.07544
1.0773701
1.0794502
1.0815888
1.0836384
1.0853971
1.0866374
1.0559082
1.0562755
1.05671
1.0572224
1.0578248
1.0585297
1.0593497
1.0602958
1.0613752
1.0625873
1.0639169
1.0653238
1.066727
1.0680092
1.0689232
1.0562535
1.0566366
1.0570899
1.0576252
1.0582551
1.0589933
1.0598536
1.0608487
1.0619877
1.0632722
1.0646897
1.0662034
1.0677349
1.0691683
1.0702216
1.0569054
1.0573172
1.0578052
1.0583824
1.059063
1.0598626
1.0607972
1.0618819
1.0631287
1.064542
1.0661122
1.067805
1.069546
1.0711414
1.0724165
1.0577278
1.0581779
1.0587124
1.0593458
1.0600944
1.060976
1.0620089
1.0632104
1.0645938
1.0661639
1.067908
1.0697843
1.0717036
1.0735114
1.0749814
1.0584787
1.0589773
1.0595702
1.0602741
1.0611075
1.0620902
1.0632427
1.0645835
1.0661256
1.0678699
1.0697953
1.0718452
1.0739111
1.0758195
1.0773379
1.0589916
1.0595487
1.0602128
1.0610027
1.061939
1.063043
1.0643352
1.0658315
1.067538
1.0694429
1.0715052
1.073642
1.0757189
1.0775523
1.0789358
1.0490062
1.0493672
1.0497942
1.0502976
1.0508893
1.0515816
1.0523869
1.053316
1.0543763
1.0555675
1.0568752
1.0582797
1.0596901
1.0609676
1.0618765
1.0493817
1.0497577
1.0502026
1.0507279
1.0513461
1.0520706
1.0529149
1.0538915
1.0550095
1.0562704
1.0576615
1.0591633
1.0606867
1.0620996
1.0631794
1.0500431
1.0504477
1.0509272
1.0514943
1.0521633
1.0529494
1.0538687
1.0549367
1.0561659
1.0575624
1.0591199
1.0607712
1.0624737
1.0640925
1.0654162
1.0508707
1.051313
1.0518381
1.0524606
1.0531964
1.0540632
1.0550792
1.0562619
1.0576251
1.0591744
1.0608989
1.06276
1.064678
1.0665128
1.0680551
1.051627
1.0521168
1.0526995
1.0533913
1.0542107
1.0551774
1.056312
1.0576335
1.0591556
1.0608813
1.0627927
1.064839
1.0669215
1.0688824
1.070512
1.0521436
1.0526909
1.0533436
1.0541203
1.0550414
1.0561285
1.0574022
1.0588795
1.0605682
1.0624593
1.0645168
1.0666654
1.0687827
1.0707011
1.072234
1.0428192
1.0431741
1.0435938
1.0440887
1.0446704
1.045351
1.0461428
1.0470564
1.0480994
1.0492716
1.0505598
1.0519277
1.0533008
1.0545724
1.0554913
1.0431678
1.043538
1.0439761
1.0444931
1.0451016
1.0458147
1.0466458
1.0476075
1.0487089
1.0499526
1.0513282
1.0528029
1.0543052
1.0557305
1.0568377
1.0438258
1.0442239
1.0446956
1.0452534
1.0459113
1.0466843
1.0475882
1.048638
1.0498463
1.0512188
1.0527491
1.0544082
1.0561324
1.0577458
1.0590998
1.044656
1.0450912
1.045608
1.0462205
1.0469446
1.0477978
1.0487981
1.0499631
1.0513073
1.0528375
1.054546
1.0563991
1.0583221
1.0601834
1.0617923
1.0454161
1.0458981
1.0464715
1.0471524
1.047959
1.0489111
1.050029
1.0513322
1.0528353
1.0545433
1.056442
1.0584868
1.0605886
1.0626032
1.0643392
1.0459349
1.0464735
1.0471159
1.0478805
1.0487877
1.0498589
1.0511152
1.0525742
1.0542454
1.0561232
1.0581766
1.0603391
1.0624992
1.0645031
1.0661773
1.0371652
1.0375151
1.0379288
1.0384166
1.0389897
1.0396602
1.0404401
1.0413401
1.0423676
1.0435229
1.0447933
1.0461618
1.0475438
1.0488098
1.0497383
1.0375435
1.0379079
1.0383392
1.0388482
1.0394473
1.0401493
1.0409675
1.0419142
1.0429987
1.0442233
1.0455773
1.0470448
1.0485438
1.049954
1.0510707
1.0382104
1.0386027
1.0390676
1.0396175
1.040266
1.0410283
1.0419201
1.0429567
1.0441512
1.0455109
1.0470324
1.0486547
1.0503437
1.0519801
1.0533757
1.0390455
1.0394744
1.0399837
1.0405874
1.0413013
1.0421426
1.0431294
1.0442794
1.0456074
1.0471212
1.0488141
1.0506556
1.0525793
1.0544656
1.0561358
1.0398105
1.0402856
1.0408508
1.0415221
1.0423175
1.0432567
1.0443604
1.0456481
1.0471356
1.0488292
1.0507179
1.0527621
1.0548809
1.0569422
1.0587702
1.0403329
1.0408636
1.0414969
1.042251
1.043146
1.0442037
1.0454453
1.0468894
1.048547
1.0504149
1.0524666
1.0546419
1.0568388
1.0589149
1.0607082
1.0319954
1.0323403
1.032748
1.0332287
1.0337935
1.0344544
1.0352231
1.0361104
1.0371236
1.0382633
1.0395176
1.040853
1.0422001
1.0434601
1.0443945
1.0323483
1.032708
1.0331337
1.0336361
1.0342272
1.0349199
1.0357274
1.036662
1.0377331
1.0389439
1.0402856
1.0417289
1.0432081
1.0446291
1.0457665
1.0330128
1.0333998
1.0338583
1.0344005
1.03504
1.0357915
1.0366705
1.0376921
1.038869
1.0402084
1.0417061
1.0433379
1.0450481
1.046675
1.0480893
1.0338512
1.0342743
1.0347767
1.0353723
1.0360766
1.0369068
1.0378808
1.0390163
1.0403288
1.0418269
1.0435067
1.0453413
1.0472674
1.0491712
1.0508878
1.0346201
1.0350887
1.0356463
1.0363087
1.0370938
1.038021
1.0391111
1.040384
1.0418559
1.0435348
1.0454125
1.047454
1.0495855
1.0516846
1.0535881
1.0351445
1.0356681
1.0362929
1.0370371
1.0379208
1.0389655
1.0401929
1.0416219
1.0432649
1.0451212
1.0471683
1.0493521
1.0515789
1.0537159
1.0556096
1.027175
1.0275154
1.0279176
1.0283916
1.0289483
1.0295993
1.0303588
1.0312353
1.0322365
1.033363
1.0346036
1.0359257
1.0372851
1.0385408
1.0394821
1.0275465
1.0279018
1.0283223
1.0288187
1.029403
1.0300882
1.0308846
1.0318064
1.0328631
1.0340578
1.0353822
1.0368065
1.0382882
1.0396936
1.0408335
1.0282158
1.028598
1.0290508
1.0295862
1.0302178
1.03096
1.0318284
1.032838
1.0340019
1.0353281
1.036814
1.0384393
1.0401055
1.0417448
1.0431849
1.029057
1.0294748
1.029971
1.0305591
1.0312548
1.0320748
1.0330372
1.0341598
1.0354582
1.0369418
1.0386078
1.0404313
1.0423534
1.0442703
1.046025
1.0298291
1.0302919
1.0308425
1.0314968
1.0322723
1.0331887
1.0342664
1.0355258
1.0369837
1.0386491
1.0405159
1.0425527
1.0446914
1.0468179
1.0487787
1.0303556
1.0308727
1.0314898
1.032225
1.0330984
1.0341314
1.035346
1.0367616
1.0383916
1.0402371
1.0422786
1.0444666
1.0467136
1.0488942
1.0508613
1.022671
1.0230077
1.0234057
1.0238749
1.0244263
1.0250715
1.0258223
1.0266892
1.0276804
1.0287975
1.0300194
1.0313216
1.0326617
1.0339022
1.0348386
1.0230414
1.023392
1.0238068
1.0242962
1.0248721
1.0255467
1.0263329
1.0272424
1.0282842
1.0294604
1.0307736
1.0321876
1.0336628
1.0350681
1.0362187
1.0237044
1.024082
1.0245293
1.0250582
1.025682
1.0264151
1.0272729
1.0282703
1.0294207
1.0307322
1.0322039
1.0338168
1.0354746
1.0371137
1.0385673
1.0245444
1.0249572
1.0254475
1.0260287
1.0267161
1.0275265
1.0284778
1.0295878
1.0308723
1.0323414
1.0339933
1.0358055
1.0377223
1.0396457
1.0414262
1.0253167
1.025774
1.0263181
1.0269647
1.0277312
1.0286371
1.029703
1.030949
1.0323925
1.0340435
1.0358976
1.0379266
1.0400671
1.0422116
1.0442144
1.0258432
1.0263542
1.0269641
1.0276907
1.0285542
1.0295758
1.0307776
1.0321793
1.0337952
1.0356278
1.0376604
1.0398473
1.0421066
1.044319
1.046342
1.018426
1.0187589
1.0191524
1.0196163
1.0201616
1.0207981
1.021538
1.0223917
1.0233664
1.0244629
1.0256826
1.0269861
1.0283102
1.0295374
1.0304884
1.0187915
1.0191381
1.019548
1.0200314
1.0205998
1.0212672
1.0220453
1.022946
1.0239786
1.0251461
1.0264526
1.0278623
1.0293198
1.030719
1.0318566
1.0194659
1.0198393
1.0202818
1.0208052
1.0214226
1.0221485
1.0229984
1.0239874
1.0251294
1.0264337
1.0278746
1.0294508
1.0311092
1.0327511
1.0342168
1.0203057
1.0207139
1.0211987
1.0217735
1.0224534
1.023255
1.0241962
1.0252946
1.0265661
1.0280205
1.0296567
1.0314554
1.0333659
1.0352936
1.0370955
1.0210771
1.0215293
1.0220673
1.0227068
1.0234649
1.0243611
1.0254158
1.0266494
1.0280795
1.0297168
1.0315584
1.0335788
1.0357188
1.0378767
1.0399141
1.0216032
1.0221084
1.0227115
1.0234303
1.0242845
1.0252956
1.0264856
1.0278746
1.0294774
1.0312979
1.0333214
1.0355057
1.0377734
1.0400108
1.0420812
1.014392
1.0147209
1.0151097
1.0155681
1.0161067
1.0167367
1.0174693
1.0183147
1.0192794
1.0203724
1.0215783
1.0228518
1.024161
1.0254001
1.0263477
1.0147554
1.0150987
1.0155048
1.0159841
1.0165481
1.0172091
1.0179797
1.0188716
1.0198937
1.0210578
1.0223536
1.0237443
1.0251675
1.0265554
1.0277041
1.0154351
1.0158044
1.0162418
1.016759
1.017369
1.0180859
1.0189251
1.0199018
1.0210304
1.0223031
1.0237277
1.0253135
1.0269874
1.0286093
1.0300741
1.016268
1.0166718
1.0171513
1.0177197
1.0183919
1.0191845
1.0201151
1.0212015
1.0224596
1.0238998
1.0255229
1.0273116
1.029216
1.0311433
1.0329586
1.0170355
1.0174828
1.018015
1.0186476
1.0193976
1.0202843
1.0213281
1.0225494
1.023966
1.0255893
1.0274179
1.0294285
1.0315652
1.033731
1.035794
1.0175592
1.018059
1.0186557
1.0193668
1.0202121
1.0212129
1.0223911
1.0237671
1.0253562
1.0271634
1.0291759
1.0313545
1.0336258
1.0358808
1.0379863
1.0105517
1.0108772
1.0112617
1.0117147
1.0122467
1.0128703
1.013596
1.0144338
1.0153914
1.0164701
1.0176602
1.0189324
1.0202256
1.0214541
1.0223986
1.0109198
1.0112596
1.0116617
1.0121364
1.0126952
1.0133487
1.0141105
1.0149923
1.0160037
1.0171487
1.0184206
1.0197946
1.021214
1.0225988
1.0237502
1.0115814
1.0119469
1.0123799
1.0128919
1.0134956
1.0142051
1.0150353
1.0160009
1.017115
1.0183858
1.0198128
1.0213791
1.0230405
1.0246556
1.0261237
1.0124164
1.0128161
1.0132907
1.0138534
1.014519
1.0153038
1.0162255
1.0173017
1.0185486
1.0199774
1.021589
1.0233664
1.0252623
1.027188
1.029014
1.0131848
1.0136276
1.0141544
1.0147806
1.0155231
1.0164012
1.017435
1.0186451
1.0200495
1.0216601
1.0234765
1.025477
1.0276088
1.0297794
1.031863
1.0137081
1.0142027
1.0147933
1.0154973
1.0163343
1.0173254
1.0184927
1.0198567
1.0214331
1.0232277
1.0252293
1.0274011
1.0296733
1.0319411
1.0340761
1.0068669
1.0071895
1.0075706
1.0080199
1.0085477
1.0091651
1.0098833
1.0107126
1.0116605
1.0127286
1.0139081
1.0151712
1.0164615
1.0176677
1.0185982
1.0072348
1.0075709
1.0079684
1.0084373
1.008989
1.0096354
1.0103889
1.011261
1.0122611
1.0133926
1.0146487
1.0160024
1.0174365
1.018815
1.0199699
1.0078902
1.0082521
1.0086809
1.0091878
1.0097857
1.0104885
1.0113109
1.0122678
1.0133722
1.0146331
1.016051
1.0176112
1.0192283
1.0208483
1.0223233
1.0087216
1.0091173
1.0095873
1.0101445
1.0108037
1.011581
1.012494
1.0135603
1.0147959
1.0162123
1.0178107
1.0195744
1.0214584
1.02338
1.0252125
1.0094875
1.0099258
1.0104475
1.0110675
1.0118029
1.0126725
1.0136966
1.0148956
1.0162876
1.0178849
1.0196878
1.0216762
1.0238001
1.0259707
1.0280663
1.010009
1.0104988
1.0110836
1.0117807
1.0126096
1.0135914
1.014748
1.0160999
1.0176633
1.0194446
1.0214338
1.0235962
1.0258648
1.0281382
1.0302904
1.00333
1.0036495
1.0040271
1.0044722
1.0049941
1.0056044
1.0063141
1.0071331
1.0080685
1.0091216
1.0102945
1.0115509
1.0128323
1.0140303
1.0149574
1.0036868
1.0040195
1.0044128
1.0048768
1.0054234
1.0060639
1.0068106
1.0076749
1.0086662
1.0097878
1.0110446
1.0124037
1.0138145
1.0151789
1.0163286
1.0043511
1.0047096
1.0051344
1.0056368
1.0062296
1.0069265
1.0077426
1.0086928
1.0097906
1.011046
1.0124359
1.0139619
1.0155774
1.0171953
1.0186728
1.0051794
1.0055714
1.0060369
1.0065889
1.0072418
1.0080119
1.0089165
1.0099729
1.0111973
1.0126005
1.0141841
1.0159336
1.017807
1.0197237
1.0215602
1.0059416
1.0063758
1.0068925
1.0075066
1.008235
1.0090965
1.0101112
1.0112993
1.0126792
1.0142634
1.016053
1.0180293
1.0201445
1.0223132
1.0244178
1.0064609
1.006946
1.0075252
1.0082158
1.009037
1.0100098
1.0111561
1.0124966
1.0140474
1.0158157
1.0177927
1.0199452
1.0222089
1.0244858
1.026653
0.99990789
1.0002244
1.0005984
1.0010392
1.0015571
1.002163
1.0028678
1.0036817
1.0046121
1.0056606
1.0068182
1.0080568
1.0093352
1.0105333
1.0114644
1.0002688
1.0005991
1.0009898
1.0014508
1.0019931
1.0026286
1.0033697
1.0042282
1.0052137
1.0063311
1.0075758
1.0089264
1.0103148
1.0116628
1.0128025
1.0009486
1.0013031
1.0017232
1.0022199
1.0028058
1.0034944
1.0043001
1.0052372
1.0063183
1.0075513
1.0089352
1.0104529
1.0120626
1.0136726
1.0151486
1.0017622
1.0021505
1.0026116
1.0031581
1.0038046
1.004567
1.0054624
1.0065082
1.0077204
1.0091107
1.0106817
1.0124197
1.014283
1.016194
1.0180332
1.0025185
1.0029486
1.0034605
1.0040689
1.0047905
1.005644
1.0066494
1.0078269
1.0091948
1.0107662
1.0125428
1.0145074
1.0166141
1.0187806
1.0208934
1.0030348
1.0035154
1.0040893
1.0047736
1.0055873
1.0065515
1.0076878
1.0090169
1.0105555
1.0123111
1.0142759
1.0164188
1.0186777
1.0209576
1.0231392
0.99661997
0.99693365
0.99730389
0.99774012
0.99825237
0.99885297
0.99955161
1.0003583
1.0012805
1.00232
1.003468
1.0046981
1.0059535
1.0071291
1.0080659
0.99698325
0.99731005
0.99769622
0.99815329
0.99869121
0.99932015
1.0000534
1.0009025
1.0018767
1.0029803
1.0042079
1.0055371
1.0069181
1.0082533
1.0094016
0.99763362
0.99798461
0.99840103
0.99889387
0.99947489
1.0001578
1.0009569
1.0018865
1.0029596
1.0041846
1.0055616
1.0070751
1.0086837
1.0103056
1.011761
0.9984522
0.99883805
0.99929645
0.99983799
1.0004787
1.0012343
1.0021221
1.0031594
1.0043623
1.0057427
1.0073037
1.0090319
1.0108874
1.0127945
1.0146343
0.99920984
0.99963612
1.0001435
1.0007465
1.0014619
1.0023081
1.0033051
1.004473
1.0058304
1.0073905
1.0091557
1.0111097
1.0132087
1.0153733
1.0174941
0.99972478
1.0002011
1.0007699
1.0014481
1.0022548
1.0032108
1.0043378
1.0056564
1.0071836
1.0089274
1.010881
1.0130147
1.015269
1.0175522
1.0197483
0.99342979
0.99374028
0.99410714
0.99453947
0.99504768
0.99564276
0.99633497
0.99713427
0.99804801
0.99907813
1.0002165
1.0014374
1.0026881
1.0038634
1.0047843
0.99378547
0.99411047
0.99449493
0.99494873
0.9954816
0.99610425
0.99683011
0.99767052
0.99863449
0.99972589
1.0009386
1.0022478
1.0036391
1.0049836
1.0061239
0.99443346
0.99478235
0.99519568
0.9956844
0.99626076
0.99693824
0.99773119
0.99865399
0.99971966
1.0009374
1.0023087
1.0038215
1.0053963
1.0069872
1.0084568
0.9952503
0.99563183
0.99608492
0.99662216
0.99725774
0.99800746
0.99888829
0.99991755
1.0011113
1.0024815
1.0040312
1.005747
1.0075903
1.0094886
1.0113299
0.99600351
0.99642608
0.99692905
0.99752695
0.99823626
0.99907538
1.0000641
1.0012227
1.0025695
1.0041179
1.0058708
1.007813
1.0099026
1.012063
1.0141889
0.99651611
0.99698823
0.9975521
0.99822451
0.99902435
0.99997234
1.00109
1.0023982
1.0039138
1.0056453
1.0075868
1.00971
1.0119576
1.0142407
1.0164459
0.99033601
0.99064387
0.99100791
0.99143737
0.99194197
0.99253243
0.99321716
0.9940072
0.9949096
0.99592586
0.99705868
0.9982742
0.9995178
1.0006874
1.0016067
0.99068551
0.99100772
0.99138812
0.9918358
0.99236214
0.99297842
0.99369868
0.99453274
0.99548957
0.99657264
0.99778743
0.99910325
1.0004728
1.0018034
1.0029355
0.9913358
0.99168177
0.99209169
0.99257646
0.99314836
0.99382089
0.99460852
0.99552589
0.99658652
0.99780061
0.9991467
1.0006274
1.0022008
1.0037873
1.0052559
0.99214892
0.99252723
0.9929765
0.99350923
0.99413953
0.99488305
0.99575667
0.99677758
0.99796163
0.99932038
1.0008567
1.0025591
1.0043915
1.0062824
1.0081226
0.9928978
0.99331679
0.9938155
0.99440835
0.9951117
0.99594383
0.9969244
0.99807351
0.99940961
1.0009462
1.0026865
1.0046166
1.0066959
1.0088504
1.0109775
0.99340768
0.9938758
0.99443491
0.99510167
0.99589487
0.99683508
0.99794379
0.99924173
1.0007459
1.0024653
1.0043946
1.0065068
1.0087463
1.0110263
1.0132358
0.98732329
0.98762862
0.98798928
0.9884142
0.98891316
0.98949821
0.99017883
0.99096487
0.99186367
0.99287725
0.99399774
0.99519966
0.99642761
0.99760041
0.99852104
0.98767415
0.98799292
0.98836985
0.9888145
0.98933733
0.98995133
0.9906671
0.99149619
0.99244803
0.99352742
0.99473028
0.99603682
0.99740115
0.99871241
0.99983515
0.98833623
0.98867945
0.98908628
0.98956765
0.99013582
0.99080081
0.99157915
0.99248477
0.99353007
0.99472332
0.99606425
0.99753767
0.99910321
1.0006823
1.0021483
0.98913842
0.98951357
0.98995904
0.99048719
0.99111195
0.99184881
0.99271445
0.99372595
0.9948992
0.99624626
0.99777089
0.99946195
1.0012842
1.003168
1.0050067
0.9898815
0.99029701
0.99079156
0.99137944
0.99207689
0.99290204
0.99387444
0.99501411
0.99633953
0.99786445
0.99959269
1.001511
1.0035805
1.0057292
1.0078576
0.99038851
0.99085275
0.99140724
0.9920685
0.9928552
0.99378778
0.99488766
0.99617553
0.99766856
0.99937605
1.0012934
1.0033948
1.0056264
1.0079037
1.0101183
0.98440213
0.98470539
0.98506383
0.98548636
0.98598283
0.98656369
0.9872395
0.98801998
0.98891216
0.9899172
0.99102838
0.99222009
0.99343811
0.99458169
0.99550388
0.98475544
0.9850714
0.98544505
0.98588587
0.98640627
0.98701629
0.98772803
0.98855334
0.98950287
0.99056758
0.99175394
0.99304103
0.99438132
0.99568323
0.99681745
0.98540864
0.98574815
0.98615022
0.98662528
0.98718591
0.98784419
0.98861384
0.98950813
0.99053828
0.99172767
0.99306461
0.99453602
0.99610515
0.99769969
0.9991439
0.98620328
0.98657621
0.98701917
0.98754451
0.98816334
0.98889345
0.98975143
0.99075436
0.99191846
0.99325636
0.99477217
0.99645532
0.99827131
1.0001504
1.001987
0.98694629
0.98735845
0.98784904
0.98843221
0.98912409
0.9899427
0.99090753
0.99203859
0.99335446
0.99486915
0.99658698
0.99849551
1.0005571
1.0027016
1.0048329
0.98745176
0.98791226
0.98846232
0.98911834
0.98989889
0.99082431
0.99191595
0.99319454
0.99467739
0.99637417
0.99828098
1.0003732
1.0025986
1.0048752
1.007097
0.98155974
0.98186054
0.98221593
0.98263472
0.98312663
0.98370198
0.98437123
0.98514402
0.98602749
0.98702353
0.98812416
0.98930426
0.99050992
0.99166696
0.99258081
0.98191446
0.98222723
0.98259794
0.98303535
0.98354992
0.98415292
0.98485599
0.98567022
0.98660465
0.98766358
0.98884233
0.99012043
0.99144974
0.9927632
0.9938875
0.98254314
0.98288054
0.98328058
0.98375343
0.98431106
0.9849665
0.98573361
0.98662636
0.98765742
0.98883589
0.99016333
0.99162783
0.99319554
0.99474583
0.9961989
0.98334447
0.98371467
0.98415312
0.98467299
0.98528806
0.98601366
0.98686632
0.98786307
0.98901988
0.99034912
0.99185525
0.99352818
0.99533365
0.99720395
0.99904043
0.98408499
0.98449392
0.9849807
0.98555942
0.9862461
0.98705866
0.98801651
0.98913955
0.99044634
0.99195099
0.99365817
0.99555626
0.99760911
0.9997493
1.0018843
0.98458835
0.98504524
0.98559101
0.98624198
0.98701658
0.98793507
0.98901872
0.99028822
0.991761
0.99344707
0.99534321
0.997426
0.99964524
1.0019213
1.0041514
0.97878371
0.97908182
0.97943404
0.97984909
0.98033654
0.98090656
0.98157016
0.98233745
0.9832146
0.98420365
0.98529708
0.98647091
0.98767537
0.9888108
0.98972597
0.97912647
0.97943853
0.97980766
0.98024328
0.98075593
0.98135705
0.9820563
0.982863
0.98378875
0.98483764
0.98600455
0.98726702
0.98861334
0.98992495
0.99103594
0.97976496
0.98010002
0.98049695
0.98096629
0.98151985
0.98217059
0.98293228
0.98381889
0.98484326
0.9860148
0.98733592
0.98879682
0.99032366
0.99187564
0.99332969
0.98056265
0.98092905
0.98136417
0.98188012
0.98249058
0.98321079
0.9840572
0.98504671
0.98619525
0.98751515
0.98901087
0.99067215
0.99246585
0.99432886
0.99616382
0.98129828
0.98170406
0.9821871
0.98276139
0.98344285
0.98424928
0.98519997
0.98631475
0.98761214
0.98910634
0.99080235
0.99268927
0.9947324
0.99686662
0.99900202
0.98179888
0.98225225
0.98279382
0.98343981
0.98420854
0.98512013
0.98619576
0.98745609
0.98891863
0.99059363
0.99247848
0.99455079
0.99676199
0.99903459
1.0012677
0.97607504
0.97637088
0.9767204
0.97713255
0.97761719
0.97818428
0.97884429
0.97960349
0.98047071
0.98144766
0.98253732
0.98370759
0.984907
0.98603896
0.9869354
0.9764157
0.97672546
0.97709194
0.97752365
0.97803003
0.97862281
0.97931317
0.98011515
0.98103556
0.98207803
0.98324817
0.98451751
0.98584277
0.9871384
0.98825683
0.97705563
0.9773882
0.97778224
0.97824824
0.97879796
0.97944442
0.98020153
0.98108355
0.98210374
0.98327238
0.98456976
0.98600059
0.98752713
0.98907701
0.99053109
0.97784915
0.9782128
0.97864467
0.97915678
0.97976272
0.98047762
0.98131782
0.98230008
0.98344012
0.98474991
0.98623377
0.9878831
0.98966713
0.99152337
0.9933561
0.97858068
0.97898341
0.97946281
0.98003278
0.98070913
0.98150954
0.98245319
0.98355979
0.98484787
0.98633167
0.98801657
0.98989249
0.99192602
0.99405375
0.99618805
0.97907881
0.97952876
0.98006627
0.98070744
0.98147046
0.98237536
0.98344323
0.98469469
0.98614731
0.9878116
0.98968546
0.99174745
0.99395039
0.99621854
0.99845292
0.97342602
0.97372009
0.97406758
0.97447713
0.97495823
0.97552102
0.97617573
0.97693183
0.97779639
0.97877138
0.97984918
0.98100486
0.9822025
0.98333297
0.98423281
0.97377073
0.97407764
0.97444063
0.97486893
0.97537279
0.97596328
0.97665191
0.9774498
0.97836627
0.97940637
0.98056697
0.98183008
0.98313497
0.98441503
0.98552456
0.9744209
0.9747504
0.97514079
0.97560239
0.97614679
0.97678673
0.97753572
0.97840727
0.97941357
0.98056305
0.98185646
0.98328127
0.98480406
0.98635061
0.98779981
0.97520174
0.97556271
0.97599127
0.97649933
0.97710037
0.97780939
0.97864257
0.97961662
0.98074732
0.98204711
0.98352121
0.98516177
0.98693788
0.98878722
0.99061741
0.97592849
0.97632823
0.97680406
0.97736977
0.97804106
0.97883549
0.97977214
0.9808707
0.9821497
0.98362363
0.98529829
0.98716431
0.98918924
0.99131117
0.99344519
0.97642429
0.97687092
0.97740447
0.97804095
0.97879843
0.97969685
0.98075722
0.98200014
0.98344328
0.98509744
0.98696105
0.9890136
0.99120921
0.99347399
0.99571127
0.97085037
0.97114233
0.97148736
0.97189404
0.97237181
0.97293072
0.97357854
0.9743295
0.97518809
0.97615643
0.97722728
0.97837707
0.97955501
0.98066563
0.98157114
0.97119614
0.97150027
0.97185988
0.97228542
0.97278644
0.97337424
0.97405823
0.97484798
0.97575489
0.97678348
0.97792976
0.97917463
0.98047372
0.98174247
0.98285951
0.97182272
0.97214958
0.97253651
0.97299412
0.97353332
0.97416649
0.97491164
0.9757786
0.97677979
0.97792413
0.97921332
0.98063598
0.98215913
0.9837171
0.98514494
0.9726047
0.972964
0.97339099
0.97389561
0.97449241
0.97519646
0.976024
0.97699176
0.9781156
0.97940811
0.9808747
0.98250754
0.98427709
0.98612189
0.98794889
0.97333323
0.97373012
0.97420259
0.97476433
0.97543095
0.97621996
0.97715035
0.97824177
0.97951281
0.98097808
0.98264371
0.98450093
0.98651844
0.98863621
0.99077202
0.97382779
0.97427121
0.97480096
0.97543296
0.97618519
0.9770775
0.97813084