/*--------------------------------*- C++ -*----------------------------------*\
| =========                 |                                                 |
| \\      /  F ield         | OpenFOAM: The Open Source CFD Toolbox           |
|  \\    /   O peration     | Version:  4.0                                   |
|   \\  /    A nd           | Web:      www.OpenFOAM.org                      |
|    \\/     M anipulation  |                                                 |
\*---------------------------------------------------------------------------*/
FoamFile
{
    version     2.0;
    format      ascii;
    class       surfaceScalarField;
    location    "3000";
    object      snGradRho;
}
// * * * * * * * * * * * * * * * * * * * * * * * * * * * * * * * * * * * * * //

dimensions      [1 -4 0 0 0 0 0];

internalField   nonuniform List<scalar> 
261000
(
13.662836
-0.048798102
-1.231503
13.538002
-0.23266247
-1.2328371
13.365719
-0.22267187
-1.2343293
13.158698
-0.50629269
-1.2359129
12.849331
-0.24666347
-1.2376125
12.395197
0.096029522
-1.2390944
11.843484
-0.15828908
-1.2396297
11.127169
-0.12645637
-1.2388119
10.218506
-0.088171409
-1.2356701
9.09478
-0.041847852
-1.2289624
7.7433505
0.014681052
-1.217337
6.1647635
0.084884286
-1.1997758
4.3694522
0.17484463
-1.1764527
2.3614192
0.29551038
-1.1500451
0.46651146
-1.1271988
0.10207928
13.669959
-0.10647521
-1.2272043
13.548151
-0.42665241
-1.2285674
13.378252
-0.40962357
-1.2300955
13.115308
-0.3881809
-1.2317216
12.786497
-0.35720769
-1.2331253
12.385259
-0.31867312
-1.2340985
11.809405
-0.27772955
-1.2344591
11.067825
-0.2248123
-1.2331805
10.13279
-0.15987595
-1.2291904
8.983948
-0.080789308
-1.221111
7.6134713
0.015772721
-1.2074424
6.0290111
0.13569261
-1.1870424
4.2496517
0.28989834
-1.1600334
2.2881856
0.49875908
-1.1291581
0.80017796
-1.1012653
0.11282886
13.676691
-0.14275451
-1.2196415
13.549131
-0.5188343
-1.2210502
13.368703
-0.496598
-1.2225923
13.117262
-0.46834844
-1.2241638
12.772839
-0.4328906
-1.2255559
12.309936
-0.38888433
-1.226397
11.699678
-0.33497028
-1.2260783
10.913548
-0.26973286
-1.2236665
9.9278471
-0.1916579
-1.2178521
8.7293731
-0.098723292
-1.2069812
7.3213881
0.012554098
-1.1892776
5.7264564
0.14892946
-1.1633935
3.9811681
0.32351743
-1.129398
2.1169514
0.56098008
-1.0901766
0.90700275
-1.0528628
0.12232066
13.685356
-0.15034632
-1.2111806
13.5509
-0.48912307
-1.2126821
13.356906
-0.46542887
-1.2142826
13.083148
-0.43575224
-1.2158299
12.705245
-0.39918142
-1.2170343
12.195442
-0.35478599
-1.2173949
11.524692
-0.30180173
-1.2161086
10.666539
-0.239653
-1.2119802
9.6029638
-0.16778179
-1.2033717
8.3315348
-0.085104441
-1.188272
6.8717581
0.011107619
-1.1646009
5.2667853
0.12708173
-1.1308713
3.5756138
0.27528365
-1.0873009
1.8519385
0.4785225
-1.0372173
0.77720641
-0.98824809
0.10914311
13.692542
-0.11240595
-1.2042853
13.546793
-0.32555926
-1.2059344
13.331969
-0.30449186
-1.2076408
13.024999
-0.27942362
-1.2091855
12.5988
-0.25010164
-1.2101656
12.02381
-0.21641332
-1.209903
11.271221
-0.17849418
-1.207337
10.31837
-0.13668216
-1.2009283
9.156128
-0.091270795
-1.1886328
7.7969873
-0.041945689
-1.1680417
6.2808219
0.013149483
-1.1368228
4.6738918
0.078647113
-1.093564
3.0569568
0.16332055
-1.0390262
1.5018332
0.28149605
-0.97751055
0.45442233
-0.91769167
0.042208715
13.694851
-1.200581
13.529171
-1.2024206
13.282877
-1.2042655
12.929933
-1.2058079
12.440708
-1.2064975
11.784426
-1.2054294
10.933747
-1.2012231
9.8717414
-1.1919362
8.6006647
-1.1750921
7.1503442
-1.1479487
5.5822075
-1.1081462
3.9841363
-1.0547987
2.453198
-0.98990648
1.0684236
-0.91964596
-0.85481238
-0.13864308
13.272928
0.039501641
-1.2243802
13.172815
-0.13951707
-1.2256636
13.040993
-0.13091688
-1.2272128
12.866814
-0.11990046
-1.2290658
12.636138
-0.1057774
-1.2312504
12.330455
-0.087642248
-1.2337698
11.925883
-0.064323441
-1.23658
11.392206
-0.034294457
-1.2395596
10.69233
0.0044897114
-1.2424747
9.7824309
0.054869022
-1.2449541
8.6131819
0.12096858
-1.2465013
7.1321493
0.20905226
-1.2466185
5.2866929
0.32895066
-1.2451424
3.0259471
0.49626298
-1.2428946
0.73524075
-1.2426638
0.30140189
13.281056
0.04894027
-1.2114597
13.182598
-0.26318921
-1.2127408
13.051819
-0.24766861
-1.2142764
12.877704
-0.22782344
-1.2160908
12.64573
-0.20248884
-1.2181947
12.336892
-0.17014311
-1.2205659
11.926807
-0.12884817
-1.223124
11.385017
-0.076088693
-1.2256997
10.674701
-0.0085015929
-1.2280076
9.7532826
0.078642253
-1.2297047
8.5742546
0.19240601
-1.2301828
7.090193
0.34389706
-1.2288281
5.2558913
0.55120608
-1.2253786
3.0293475
0.84417212
-1.2205738
1.2716417
-1.2170238
0.36804484
13.294192
0.031510995
-1.1894236
13.197005
-0.33564958
-1.1907142
13.065817
-0.31599764
-1.192224
12.888746
-0.29084663
-1.1939399
12.650196
-0.25882251
-1.1958191
12.330034
-0.21813423
-1.1977519
11.902891
-0.1665774
-1.1995162
11.337831
-0.10139584
-1.2007091
10.598763
-0.018997039
-1.2006412
9.6461161
0.085640164
-1.2019159
8.4398317
0.22013333
-1.2011581
6.9437748
0.39704324
-1.1976649
5.1296062
0.63763482
-1.1911148
2.9771466
0.97807144
-1.1820524
1.4793166
-1.1720485
0.46821086
13.310266
-0.0070884578
-1.1663542
13.213843
-0.33829898
-1.1678656
13.080417
-0.31757173
-1.1696059
12.896669
-0.29139866
-1.1715441
12.645277
-0.2586169
-1.1736187
12.304237
-0.21775297
-1.1756979
11.846516
-0.16707105
-1.1775412
11.240377
-0.10445894
-1.1787557
10.450891
-0.027143092
-1.1784809
9.4431429
0.068962674
-1.1770329
8.1876264
0.19048275
-1.1720687
6.6654246
0.34866578
-1.163114
4.8735532
0.56315506
-1.149821
2.8252102
0.86723788
-1.1328159
1.315229
-1.1137547
0.54393734
13.324818
-0.034132434
-1.1525111
13.226109
-0.24259581
-1.1542208
13.08557
-0.22369421
-1.1561563
12.887963
-0.20095219
-1.1582827
12.613748
-0.17375121
-1.160513
12.238663
-0.14134994
-1.162681
11.733873
-0.10292961
-1.1645154
11.067211
-0.057533511
-1.1656372
10.206147
-0.0038845731
-1.1656518
9.1225437
0.06000903
-1.1586284
7.8000526
0.13776059
-1.1472289
6.240985
0.23597327
-1.1303652
4.4714826
0.36656082
-1.1077716
2.5404369
0.54901322
-1.0808711
0.81050168
-1.0535194
0.51294069
13.333444
-1.1470836
13.224682
-1.1488842
13.068101
-1.1508796
12.846333
-1.1529796
12.537387
-1.1549965
12.114517
-1.1565877
11.54696
-1.1571813
10.802205
-1.1558817
9.850401
-1.1513539
8.6712977
-1.1418221
7.2633812
-1.1261073
5.6520365
-1.1033527
3.8929394
-1.0741356
2.0659605
-1.0416056
-1.0126349
0.25538247
12.897936
-0.18331104
-1.1790147
12.79397
0.034727793
-1.180333
12.661641
0.037831893
-1.1819171
12.492389
0.043132068
-1.1838217
12.274692
0.051704576
-1.1861102
11.993028
0.065096758
-1.1888524
11.626527
0.085515398
-1.1921154
11.147277
0.11607227
-1.1964744
10.518338
0.16119741
-1.2016489
9.6922221
0.22510437
-1.2076969
8.6087857
0.31745094
-1.2145696
7.1947868
0.45209962
-1.2220051
5.3659989
0.64884102
-1.2293469
3.0334027
0.93589087
-1.2352388
1.3765324
-1.2370326
0.10418729
12.908527
-0.34994593
-1.1765371
12.809353
0.028681306
-1.1779597
12.682149
0.033078716
-1.1796704
12.518145
0.041557112
-1.1817387
12.305473
0.056295562
-1.1842481
12.028053
0.080533461
-1.1873029
11.664106
0.11911806
-1.1910334
11.184191
0.17937656
-1.1950555
10.545055
0.28865371
-1.1998033
9.7104886
0.37984658
-1.2051729
8.6208776
0.52646954
-1.211068
7.2055731
0.75097548
-1.2171773
5.386509
1.0862112
-1.2228277
3.085419
1.5811626
-1.2267912
2.4524111
-1.2269976
0.17586218
12.927343
-0.49304988
-1.174076
12.838289
-0.052762718
-1.1755066
12.722279
-0.054035939
-1.1772147
12.570502
-0.052002744
-1.1792703
12.371165
-0.044842195
-1.1817509
12.108622
-0.03007427
-1.1847529
11.76248
-0.0044309592
-1.188397
11.307277
0.034608759
-1.1928408
10.476077
1.0587753
-1.1983415
9.6429382
0.38378414
-1.2015964
8.5468924
0.57510647
-1.2049576
7.1291058
0.84218768
-1.2078869
5.3347456
1.2144376
-1.2095622
3.1257004
1.73729
-1.2090179
2.614342
-1.2057779
0.5003078
12.917525
-0.18236328
-1.1693633
12.836401
-0.13932446
-1.1707293
12.726098
-0.1322896
-1.1723279
12.57607
-0.12149281
-1.1742062
12.372144
-0.10548518
-1.1763955
12.095492
-0.082321279
-1.1789145
11.721549
-0.049591196
-1.1817531
11.219117
-0.0063380371
-1.1848443
10.490145
1.1445489
-1.188296
9.6032373
0.33557874
-1.1906799
8.4502725
0.51644079
-1.1928551
6.9885875
0.74584809
-1.1936612
5.1915008
1.0439105
-1.192135
3.0651864
1.440323
-1.1875561
1.9683406
-1.1804625
0.74940746
12.936635
0.076269811
-1.1597561
12.855173
-0.12511106
-1.1612126
12.740399
-0.10539803
-1.1628777
12.579521
-0.080984646
-1.1647519
12.355225
-0.05025628
-1.1668091
12.044298
-0.0106175
-1.1689718
11.615925
0.042186007
-1.1710635
11.02904
0.11561986
-1.1727184
10.534007
0.22429228
-1.1731888
9.5596965
0.26353197
-1.1767922
8.326449
0.35490181
-1.1789343
6.800963
0.48031688
-1.1787765
4.9735963
0.64722972
-1.1754505
2.8729469
0.86670011
-1.1684528
1.1481538
-1.1582546
0.57279631
12.978726
-1.1519889
12.894185
-1.1537542
12.774962
-1.1557479
12.607782
-1.157972
12.374977
-1.1604105
12.053658
-1.1630169
11.61541
-1.1656972
11.027433
-1.1682946
10.257234
-1.17061
9.235799
-1.172394
7.9377172
-1.1725278
6.3503603
-1.1699055
4.4941307
-1.1634881
2.4298324
-1.1528766
-1.138964
0.24620473
12.512652
0.11336826
-1.2082187
12.406274
0.13430739
-1.2094283
12.271324
0.1379515
-1.2108874
12.099695
0.14344827
-1.2126478
11.880665
0.15142871
-1.2147692
11.600087
0.16264209
-1.21732
11.186945
0.50442995
-1.2203793
10.709796
0.26641153
-1.2235098
10.089978
0.31642196
-1.2270892
9.2844105
0.38143251
-1.2310616
8.239098
0.46658652
-1.2353053
6.8888684
0.57909073
-1.2396198
5.1601325
0.72917127
-1.2437416
2.9804927
0.93129482
-1.2474295
1.2048722
-1.2507832
0.30276263
12.503466
0.53571746
-1.2002701
12.400066
0.24102262
-1.201365
12.26718
0.25621863
-1.2026826
12.0959
0.27681134
-1.2042558
11.874298
0.30470756
-1.2061171
11.586387
0.34258773
-1.2082876
11.263224
0.39419946
-1.2107604
10.785509
0.45266758
-1.2140166
10.164109
0.53413048
-1.2176484
9.3558494
0.64308046
-1.2215736
8.307175
0.78864496
-1.2256514
6.9542824
0.98388112
-1.2296717
5.2260914
1.2480035
-1.2332897
3.0529113
1.6100572
-1.2358439
2.1140472
-1.2362498
0.38491838
12.542939
0.58454671
-1.1814329
12.450415
0.23452906
-1.1826206
12.329552
0.2513135
-1.1840539
12.171344
0.27427008
-1.1857641
11.963794
0.30537834
-1.1877883
11.691043
0.34729804
-1.1901567
11.332365
0.40342258
-1.192885
10.858665
0.47819943
-1.1959616
10.234672
0.57789949
-1.1993121
9.4188499
0.71079157
-1.20282
8.3593568
0.88767524
-1.2066488
6.9972417
1.1238421
-1.2111137
5.2710397
1.4419015
-1.2161092
3.1264811
1.8765347
-1.2200005
2.4817749
-1.2208396
0.53082765
12.576516
0.46131106
-1.1557628
12.496235
0.14423512
-1.1571231
12.387484
0.16090267
-1.1587189
12.240358
0.18357185
-1.1605503
12.041614
0.21408329
-1.1626099
11.773751
0.25491678
-1.1648544
11.41398
0.30925366
-1.1671774
10.933201
0.38120473
-1.169368
10.295078
0.47619794
-1.1710435
9.4571295
0.60182478
-1.1717242
8.3694849
0.76743535
-1.1757685
6.9813128
0.98634066
-1.1872694
5.24704
1.2777291
-1.2030797
3.1395576
1.6703569
-1.213811
2.207543
-1.2146946
0.66425299
12.608194
0.23127549
-1.1327631
12.538681
0.031312295
-1.1344113
12.439441
0.046553709
-1.1363535
12.29933
0.066007561
-1.1385979
12.103516
0.09084453
-1.1411517
11.832601
0.12262627
-1.1439995
11.461797
0.16332591
-1.1470954
10.960427
0.21539818
-1.1503623
10.292313
0.28180306
-1.1537053
9.4116056
0.3657744
-1.1612737
8.2733199
0.47288045
-1.1720612
6.8366648
0.61035496
-1.1773413
5.0761608
0.78844306
-1.1830621
2.99912
1.0209338
-1.1932722
1.3204522
-1.2194065
0.66352993
12.629735
-1.1147318
12.562474
-1.1166538
12.463154
-1.1188656
12.319233
-1.1214141
12.114048
-1.1243961
11.825931
-1.1279877
11.427477
-1.1325181
10.885243
-1.1386008
10.160318
-1.1473777
9.2100656
-1.156178
7.9945269
-1.1613723
6.4857918
-1.1677017
4.681124
-1.1751582
2.6184946
-1.2010039
-1.2572537
0.38030162
12.146223
0.055952643
-1.1247713
12.03491
0.26286314
-1.1260191
11.894671
0.26697636
-1.127521
11.717703
0.27354111
-1.1293319
11.493642
0.28371503
-1.1315199
11.208681
0.299163
-1.1341705
10.844372
0.32226987
-1.1373923
10.376327
0.35644731
-1.1413221
9.7720528
0.40646811
-1.146288
8.9889526
0.47902757
-1.1524023
7.9723552
0.58322453
-1.1594376
6.6546275
0.73149029
-1.1679385
4.9566054
0.94185828
-1.1779815
2.7927372
1.2428028
-1.187726
1.7286205
-1.1942869
0.059666999
12.157989
0.12736685
-1.1259473
12.049454
0.48468886
-1.1272203
11.912197
0.48854811
-1.1287361
11.738225
0.49657561
-1.1305401
11.516883
0.51094737
-1.132681
11.233947
0.53479436
-1.1352138
10.870446
0.57257203
-1.1382003
10.400893
0.630566
-1.1416992
9.7917276
0.7175918
-1.146128
8.9990542
0.8466367
-1.1524567
7.9687316
1.0289925
-1.1609783
6.6384975
1.2773181
-1.170165
4.9415468
1.6157997
-1.178868
2.807326
2.1036776
-1.1899031
3.0484359
-1.1999432
0.096331951
12.183136
0.16803467
-1.1305385
12.084722
0.58357162
-1.1318948
11.958469
0.58288554
-1.1335044
11.795954
0.58749573
-1.1354264
11.585794
0.60055037
-1.137733
11.312574
0.62665298
-1.140525
10.955443
0.67251386
-1.1438269
10.486286
0.74792156
-1.1486959
9.8671094
0.86829033
-1.1551949
9.0406479
1.0785682
-1.1615
7.9650548
1.3010908
-1.1690171
6.6098135
1.5171076
-1.1775328
4.9457308
1.7719395
-1.1874825
2.8763693
2.3076623
-1.190631
3.7015022
-1.1925324
0.18671554
12.22215
0.075926252
-1.1394271
12.147376
0.44746658
-1.1409265
12.047303
0.43897155
-1.142674
11.913435
0.43295081
-1.1449746
11.734372
0.43143254
-1.1482212
11.495022
0.43728055
-1.1516836
11.175821
0.45435623
-1.1561476
10.75236
0.48747992
-1.1625314
10.189969
0.56546282
-1.1689746
9.4850464
0.60919428
-1.1773571
8.5721798
0.72547262
-1.1833727
7.2573353
1.1686309
-1.1830001
5.3929489
1.7702127
-1.1800848
3.0054987
2.4568242
-1.179825
3.5798351
-1.1870474
0.33790938
12.24695
0.043207492
-1.1503888
12.184742
0.27622236
-1.1521017
12.096245
0.26370106
-1.1541948
11.971262
0.2522256
-1.1563271
11.795956
0.24234347
-1.1584208
11.552003
0.23429343
-1.1613855
11.215876
0.22753801
-1.1648091
10.758779
0.21999814
-1.1687795
10.155127
0.20665165
-1.1733407
9.3103833
0.2886179
-1.1742489
8.133504
0.49923202
-1.1723927
6.6809483
0.73252398
-1.1759673
4.8837642
1.1675404
-1.178093
2.7163507
1.6844349
-1.1926977
2.2203039
-1.1804407
0.43975213
12.271416
-1.1605362
12.233535
-1.1620856
12.167782
-1.1638946
12.061515
-1.1661465
11.897212
-1.1687565
11.650893
-1.1716761
11.29024
-1.1748065
10.772244
-1.1760436
10.040325
-1.1752018
9.0663992
-1.1747861
7.8450226
-1.1781768
6.3432424
-1.1805521
4.6483557
-1.1823763
2.7918668
-1.1681208
-1.1607507
0.77548502
11.781788
0.48707449
-1.0739028
11.667517
0.32833135
-1.0749557
11.523694
0.33721401
-1.0762162
11.342319
0.34937242
-1.077721
11.112753
0.36610956
-1.0795104
10.820871
0.38924768
-1.0814094
10.448007
0.42129089
-1.0835759
9.9719152
0.46571031
-1.0859937
9.3593696
0.51829318
-1.0884489
8.5720416
0.58119961
-1.0909067
7.5761566
0.64413765
-1.0935843
6.3013557
0.74630009
-1.0957551
4.6583173
0.91565278
-1.0968556
2.6039984
1.1061045
-1.0977337
1.3397149
-1.0994661
0.11178957
11.801839
0.83306018
-1.0708324
11.693371
0.55166186
-1.0719175
11.557161
0.56455565
-1.0732188
11.385157
0.58228357
-1.0747827
11.166881
0.60629486
-1.0766754
10.888126
0.63839953
-1.0787592
10.531545
0.68209974
-1.0812511
10.075786
0.71725096
-1.0841991
9.4978423
0.76652362
-1.0872943
8.7453391
0.89065133
-1.0896325
7.7373907
1.0619956
-1.0908753
6.4409181
1.2459573
-1.0923069
4.8480113
1.4605469
-1.0945759
2.9906119
1.4877078
-1.0941082
2.7995826
-1.0928962
0.21644986
11.833608
0.93838098
-1.0634731
11.735331
0.60012752
-1.0644918
11.608966
0.61410441
-1.0656876
11.444961
0.62747913
-1.0670697
11.230372
0.64689909
-1.0686363
10.961169
0.68850428
-1.0708089
10.641142
0.72764169
-1.0733686
10.201131
0.80522104
-1.0753843
9.5792725
0.92137303
-1.0768987
8.7779322
1.0594585
-1.0797748
7.7379983
1.2564241
-1.082254
6.3957051
1.5191121
-1.083878
5.0196549
1.0536961
-1.0837565
2.989554
1.7064746
-1.0908692
3.6977319
-1.1005347
0.1736019
11.870704
0.71638671
-1.0504147
11.801813
0.41189709
-1.0515978
11.724011
0.4205142
-1.0530741
11.611239
0.44655499
-1.0546527
11.424322
0.49254286
-1.056082
11.16533
0.54329267
-1.058269
10.808845
0.60391382
-1.0606485
10.323639
0.69720682
-1.0625945
9.7131968
0.78865145
-1.0663763
8.9032146
0.92375395
-1.0705679
7.8393949
1.1055573
-1.0750998
6.4753571
1.3542511
-1.0799724
4.8766275
0.71103412
-1.0848966
2.9055959
1.3011088
-1.0951209
3.6365114
-1.1124611
0.23811162
11.92241
0.39547035
-1.0309775
11.864254
0.21268929
-1.0322142
11.764554
0.23506213
-1.0336273
11.626963
0.24944134
-1.035657
11.463297
0.26148343
-1.0384948
11.229434
0.29677023
-1.0413625
10.881805
0.3189178
-1.0448252
10.418965
0.37033438
-1.0489779
9.7939155
0.44080929
-1.0540088
8.9556863
0.52886502
-1.0602845
7.870382
0.6415285
-1.0684153
6.4952984
0.7768204
-1.0799578
4.3487795
0.92344954
-1.0978214
2.6533521
-0.058250821
-1.1075721
2.6160103
-1.1410056
0.2391329
11.947217
-1.0121616
11.898651
-1.0138666
11.822978
-1.0158179
11.707485
-1.0178737
11.534657
-1.0201412
11.282606
-1.0226537
10.920134
-1.025424
10.419914
-1.0303362
9.7426387
-1.0371036
8.8440127
-1.0469943
7.6741515
-1.06196
6.1936203
-1.084509
4.3735612
-1.1171961
1.5661695
-1.1610441
-1.1814013
0.21465876
11.473148
0.33920702
-0.95766578
11.358194
0.35990625
-0.95864738
11.214513
0.36645134
-0.95979726
11.034497
0.37589196
-0.96114307
10.839208
0.12291086
-0.96271584
10.559652
0.36222472
-0.96476664
10.204123
0.38590718
-0.96721245
9.7495267
0.42056625
-0.97013334
9.1657555
0.47084497
-0.97362161
8.4136427
0.54319116
-0.97778103
7.4429277
0.64658054
-0.98272059
6.1914499
0.79348302
-0.98854791
4.5865444
1.0009445
-0.9905282
2.5505385
1.2920909
-0.9922286
1.7501909
-0.99294477
-0.010254243
11.488329
0.61387987
-0.96130718
11.378042
0.64513049
-0.96226303
11.239205
0.65576544
-0.96338704
11.063911
0.67214114
-0.96470492
10.869699
0.2154235
-0.96623245
10.592708
0.64400442
-0.96819861
10.238517
0.67943174
-0.97048031
9.7833312
0.73436077
-0.97312487
9.1960943
0.81717576
-0.97614628
8.4369815
0.93938078
-0.97951804
7.4558887
1.116184
-0.98313747
6.192182
1.3674538
-0.98687302
4.5784834
1.7186126
-0.99037182
2.553435
2.2032459
-0.99351257
3.0718592
-0.99550028
0.0032002131
11.548624
0.31846473
-0.96411635
11.456823
0.70955199
-0.96519335
11.339204
0.70539674
-0.96649456
11.188299
0.70445391
-0.96806904
10.934327
0.71205702
-0.96997758
10.66908
0.73390637
-0.9718405
10.324018
0.77194974
-0.9739974
9.8740136
0.83367097
-0.9764493
9.2859912
0.92944708
-0.97916119
8.5173407
1.0731876
-0.9820269
7.5167248
1.2829054
-0.98480127
6.2265475
1.5809693
-0.98701164
4.5921007
1.9926429
-0.99306855
2.5587323
2.5438028
-0.99828499
3.6684494
-1.0019803
0.032334694
11.559446
0.30269133
-0.96418952
11.479291
0.65357397
-0.96534643
11.37286
0.64561115
-0.96671347
11.231121
0.64126098
-0.96832722
11.04215
0.64328344
-0.97022778
10.790304
0.65561859
-0.9724598
10.454032
0.68374672
-0.9750759
10.005335
0.73506656
-0.97813166
9.4074667
0.81944962
-0.98168629
8.614962
0.94974366
-0.98578882
7.5756722
1.1420968
-0.99047024
6.2352459
1.4159891
-0.99577452
4.549299
1.7935336
-1.0016149
2.4949509
2.2857924
-1.0072884
3.3441689
-1.0114019
0.10383118
11.591913
0.24991781
-0.96466163
11.530904
0.46951213
-0.9659485
11.444204
0.45844712
-0.96747562
11.321465
0.45110559
-0.96929113
11.148431
0.44953026
-0.97145332
10.905832
0.45621166
-0.97403277
10.568104
0.47409279
-0.9771141
10.10293
0.50667665
-0.98079471
9.4706696
0.55788992
-0.98518451
8.6261818
0.63269272
-0.99039119
7.5230931
0.73830116
-0.99648886
6.1204438
0.88670822
-1.0034418
4.389853
1.0997289
-1.0108846
2.3663587
1.4086906
-1.0174972
2.0049104
-1.0213014
0.24765498
11.635352
-0.96498427
11.617771
-0.96642418
11.57662
-0.96813647
11.500324
-0.97017967
11.372887
-0.97262791
11.172721
-0.97557522
10.871424
-0.97914017
10.431973
-0.98346913
9.8097831
-0.98871945
8.9543339
-0.99503757
7.8150017
-1.0024935
6.3533572
-1.010926
4.5648275
-1.0195989
2.5100519
-1.0265045
-1.0270402
0.55914298
11.187381
0.48643655
-0.86601774
11.077817
0.33659487
-0.86683075
10.939762
0.34645557
-0.86779942
10.765654
0.35949091
-0.86895
10.545555
0.37682565
-0.87031094
10.266342
0.40002467
-0.8719107
9.9106937
0.43125332
-0.87377388
9.455878
0.47350663
-0.87591418
8.872174
0.53092369
-0.87832304
8.121033
0.60921288
-0.87997248
7.1532945
0.71628865
-0.88135043
6.107919
0.26236409
-0.88204527
4.5278167
1.0117665
-0.88616792
2.5310948
1.2782479
-0.88920425
1.7129297
-0.89034854
0.022070313
11.221066
0.57742474
-0.86329639
11.115201
0.60725442
-0.86420447
10.981588
0.61641409
-0.86528092
10.812749
0.63022864
-0.86655527
10.598824
0.65069729
-0.86806126
10.326758
0.68061806
-0.86983687
9.9793092
0.7238631
-0.87192417
9.5339008
0.78575964
-0.87436921
8.9610685
0.87351525
-0.87726914
8.2230342
0.99675041
-0.8797659
7.2720748
1.1681195
-0.88263397
6.0470807
0.84374254
-0.88562377
4.4798069
1.7047401
-0.88850224
2.5093558
2.1514982
-0.89039806
2.9789168
-0.8905197
0.020110651
11.263469
0.34786127
-0.86243308
11.168305
0.72982798
-0.86336383
11.046817
0.72674494
-0.86445653
10.891391
0.72779517
-0.86573268
10.691832
0.73543272
-0.86721165
10.43462
0.75310938
-0.86890615
10.101876
0.78558593
-0.87081455
9.6700552
0.83930329
-0.8729072
9.1087077
0.92278611
-0.87509817
8.3796676
1.0469578
-0.87928365
7.4368253
1.2251027
-0.88400298
6.0222662
1.4958679
-0.88946134
4.4538565
1.9081968
-0.89078335
2.4918822
2.4427556
-0.89171521
3.5247054
-0.89076743
0.052398458
11.279467
0.32122976
-0.86303116
11.202361
0.66362907
-0.8640536
11.09932
0.65547016
-0.86526382
10.961676
0.65066632
-0.86669174
10.777691
0.65173415
-0.86836884
10.531581
0.66227397
-0.87032672
10.202315
0.68729779
-0.87259532
9.7622662
0.73360905
-0.87520185
9.1758851
0.81023955
-0.87817407
8.3987655
0.9289867
-0.88150811
7.3777435
1.1052057
-0.88506048
6.0623873
1.358005
-0.88848963
4.4225167
1.7072177
-0.89122126
2.4396506
2.1684366
-0.89253929
3.1700338
-0.89065885
0.15753499
11.310861
0.26155564
-0.86351087
11.251693
0.47588136
-0.86464441
11.166422
0.46498476
-0.86598487
11.044723
0.45777864
-0.86756353
10.872435
0.45619961
-0.86941166
10.630505
0.46253467
-0.87155791
10.293956
0.4793598
-0.87402401
9.8311626
0.50948918
-0.87681869
9.203988
0.5560553
-0.8799281
8.369631
0.62296211
-0.88329803
7.2854348
0.71605318
-0.88679815
5.9178287
0.84531087
-0.89014748
4.2552522
1.0281924
-0.89274677
2.3227668
1.292647
-0.89328855
1.8534622
-0.88903112
0.36212329
11.353926
-0.86378483
11.337371
-0.86505081
11.296214
-0.86654448
11.21862
-0.86829668
11.088377
-0.87033599
10.883766
-0.87268487
10.576458
-0.87535424
10.130772
-0.87833585
9.5040044
-0.88159037
8.6491649
-0.8850237
7.5222951
-0.88843245
6.0973827
-0.89137903
4.3917357
-0.89293601
2.5010241
-0.89126392
-0.88317576
0.75638138
10.948958
0.33979368
-0.76813566
10.840075
0.35982429
-0.76890809
10.703348
0.36602133
-0.76981575
10.531562
0.37504669
-0.77087942
10.315226
0.38804307
-0.77212087
10.041836
0.40660074
-0.773562
9.6949117
0.43290495
-0.77522224
9.2527911
0.46992601
-0.77711345
8.7562378
0.20417154
-0.77923026
8.0408912
0.54684514
-0.78251016
7.1209883
0.64711268
-0.78624712
5.9396619
0.78834576
-0.79039319
4.4236581
0.98627199
-0.79479168
2.4983743
1.2635948
-0.79609605
1.7028488
-0.7936635
0.073036583
10.963764
0.60871426
-0.77170395
10.859743
0.63870367
-0.77244653
10.72826
0.64837074
-0.77332779
10.561934
0.66302866
-0.77436963
10.350993
0.68489185
-0.7755945
10.082464
0.71712154
-0.77702272
9.7390972
0.76418962
-0.77866735
9.2979354
0.83240354
-0.7805244
8.7920802
0.35004148
-0.78250967
8.0687812
0.96153765
-0.78543728
7.1385977
1.1209647
-0.78840253
5.9435879
1.3533521
-0.79125891
4.4195897
1.6801559
-0.79370625
2.5079038
2.1301853
-0.79258423
2.9519379
-0.79181931
0.10299607
11.017764
0.3633351
-0.77363053
10.926868
0.73672716
-0.77446727
10.810892
0.73310682
-0.77547202
10.662723
0.73316661
-0.77667898
10.472895
0.73910477
-0.7781291
10.228863
0.75396528
-0.77987161
9.9141468
0.7818393
-0.78196598
9.5074599
0.82799899
-0.7844859
8.8451094
0.9103847
-0.78753045
8.1282352
1.0518569
-0.78916077
7.1886475
1.2510175
-0.79067654
5.9704499
1.5292175
-0.79152948
4.4260013
1.9109481
-0.79070022
2.5195429
2.4192467
-0.79258195
3.477404
-0.79068413
0.18252323
11.032118
0.3365409
-0.77396562
10.95728
0.67135506
-0.7748701
10.857336
0.66313207
-0.77594376
10.723901
0.65819337
-0.7772149
10.545536
0.65904093
-0.7787132
10.306697
0.66928178
-0.78046654
9.9863902
0.69399536
-0.78249353
9.5565231
0.74020792
-0.78478788
8.9829508
0.81728002
-0.78728571
8.2269254
0.93666784
-0.78984637
7.2395175
1.1117128
-0.79226839
5.9718666
1.3580559
-0.79417913
4.3885754
1.6926796
-0.79500365
2.4871891
2.1298153
-0.79371609
3.1099716
-0.78809834
0.3438035
11.063286
0.27210688
-0.77422622
11.006588
0.48164233
-0.77522895
10.924841
0.47084089
-0.77641753
10.808092
0.46372407
-0.77782211
10.642591
0.4622351
-0.77947359
10.409707
0.46867448
-0.78139959
10.084863
0.48563637
-0.78361604
9.636845
0.51593947
-0.78611123
9.0281294
0.56264225
-0.78881792
8.2170546
0.62934517
-0.79156852
7.1631353
0.72113131
-0.79402571
5.8371512
0.84650672
-0.79557962
4.2367878
1.0202696
-0.79520535
2.403246
1.2654331
-0.79127506
1.8040437
-0.7813392
0.62040763
11.106496
-0.77446981
11.092772
-0.77559097
11.055747
-0.77691892
10.983976
-0.77848479
10.861649
-0.78031753
10.667428
-0.78243675
10.373342
-0.78483875
9.944135
-0.78747174
9.3379471
-0.79019476
8.5098155
-0.79271494
7.4203212
-0.7945012
6.0520963
-0.79468085
4.4356041
-0.79194109
2.6794743
-0.78448629
-0.77015991
1.124489
10.724304
0.47800832
-0.69020506
10.618959
0.33440879
-0.69083176
10.486402
0.34378446
-0.6915834
10.319567
0.35611966
-0.6924815
10.10919
0.3724465
-0.69354934
9.8431133
0.39419612
-0.69480995
9.5053929
0.42333523
-0.69628295
9.075177
0.46255028
-0.69797917
8.5253654
0.51547519
-0.69989233
7.8203334
0.58696491
-0.7019869
6.9154818
0.68346676
-0.70416864
5.7560541
0.81351385
-0.70441107
4.3761297
0.73109391
-0.70368963
2.566448
1.0991945
-0.70415477
1.7147859
-0.70466948
0.18669011
10.755892
0.58538613
-0.68718041
10.653383
0.61405261
-0.68788973
10.52425
0.62279022
-0.68873057
10.361474
0.63600844
-0.68972477
10.155809
0.65563805
-0.69089628
9.895057
0.68439306
-0.69227021
9.5631342
0.72603046
-0.69387092
9.1388928
0.78569636
-0.69571858
8.5947609
0.87034406
-0.69782367
7.8944724
0.98906856
-0.70017987
6.9933019
1.154356
-0.70282222
5.8363454
1.382344
-0.70400371
4.4477033
1.2252864
-0.70481567
2.5286438
2.1219127
-0.70687615
2.9409145
-0.70421766
0.20495859
10.796598
0.38101021
-0.68623086
10.704505
0.74714511
-0.68695139
10.587249
0.74402253
-0.68780319
10.437722
0.7449615
-0.68880467
10.246434
0.75237255
-0.68997275
10.000721
0.76965023
-0.69131918
9.6837499
0.80149771
-0.69284374
9.2732708
0.85433042
-0.69452172
8.7402009
0.93676071
-0.69628061
8.0490586
1.0599832
-0.69795538
7.156085
1.2378918
-0.69922562
6.0129911
1.4867767
-0.70337261
4.375537
1.8486576
-0.70723218
2.5697042
2.3731381
-0.70489186
3.460039
-0.70003284
0.32112499
10.813075
0.35332947
-0.68570577
10.739596
0.68134026
-0.68649227
10.641633
0.67311422
-0.68742351
10.511149
0.66812559
-0.68852035
10.337273
0.66881584
-0.68980234
10.105387
0.67866997
-0.69128448
9.7960255
0.70252085
-0.69297145
9.3836626
0.74688564
-0.69484878
8.8356376
0.8203145
-0.69687015
8.1117164
0.93373037
-0.69894189
7.1651261
1.1007704
-0.70091186
5.9464121
1.3382667
-0.70243407
4.4236431
1.6655458
-0.70256109
2.6103147
2.096622
-0.69986111
3.1097898
-0.69262767
0.5560748
10.844283
0.28149118
-0.6851777
10.78926
0.48673434
-0.68604939
10.709908
0.47601685
-0.68707788
10.596662
0.46894507
-0.68828306
10.436375
0.4674376
-0.68968115
10.211325
0.47376083
-0.69127959
9.8982459
0.49046213
-0.69306843
9.4676876
0.5203011
-0.6950065
8.8842647
0.56628139
-0.69699929
8.1086999
0.63198881
-0.69886349
7.1029751
0.72252222
-0.70026702
5.84023
0.84622023
-0.70062596
4.3206737
1.0168522
-0.69895637
2.588035
1.2540548
-0.69371219
1.8026789
-0.68258503
0.92831778
10.88737
-0.68480419
10.87531
-0.68577708
10.840852
-0.686918
10.773099
-0.68824273
10.65709
-0.68975869
10.472765
-0.69145686
10.193993
-0.69329881
9.7880282
-0.6951965
9.2161728
-0.69698169
8.4370481
-0.69835983
7.414696
-0.69884222
6.1341655
-0.69765259
4.6258422
-0.69362077
2.9931129
-0.6851186
-0.67017693
1.5823212
10.540223
0.34387824
-0.61869282
10.434205
0.36311342
-0.61930819
10.301586
0.36909366
-0.62003429
10.135602
0.37781808
-0.62088885
9.9273869
0.39040069
-0.62189069
9.665295
0.40839841
-0.62305893
9.3340129
0.43396686
-0.62441087
8.9134239
0.47007452
-0.62595743
8.3772224
0.52077779
-0.62769473
7.6913601
0.59155544
-0.6295881
6.904014
0.37493115
-0.6315433
5.7873143
0.79489833
-0.63520136
4.3619617
0.99065981
-0.63893651
2.553103
1.2658654
-0.63952543
1.7089868
-0.63851493
0.26253372
10.554646
0.61519533
-0.62138972
10.453553
0.6439908
-0.62196693
10.326311
0.65316147
-0.62265667
10.166053
0.66692141
-0.62347754
9.9637363
0.68729187
-0.62444875
9.707437
0.71715107
-0.62558794
9.3814056
0.76054757
-0.62690713
8.9648527
0.82314168
-0.62840525
8.430428
0.91280375
-0.63005487
7.7424287
1.0404376
-0.63177874
6.9369988
0.64884261
-0.63332998
5.8110857
1.381052
-0.63604605
4.3853514
1.690731
-0.63815392
2.5977316
2.127792
-0.63690794
2.96275
-0.63417051
0.33771626
10.605065
0.41202948
-0.62172964
10.514857
0.77136438
-0.62238112
10.400518
0.76794189
-0.62315978
10.255346
0.76837431
-0.62408893
10.070425
0.77496121
-0.6251949
9.8339198
0.79091987
-0.62650641
9.5302057
0.8206552
-0.62805322
9.1388975
0.87004764
-0.62986352
8.6339699
0.94667986
-0.6319603
7.9835251
1.0597723
-0.6343592
6.9685192
1.2384538
-0.63708273
5.8570222
1.5209088
-0.636303
4.4347015
1.8985378
-0.6341333
2.6801493
2.3985013
-0.63466869
3.4955781
-0.63163262
0.51004488
10.621538
0.38243494
-0.6214676
10.549616
0.70431481
-0.62217421
10.454208
0.69592197
-0.62301366
10.32766
0.69069961
-0.62400734
10.159582
0.69106789
-0.62517695
9.935951
0.70048975
-0.62654165
9.6379879
0.7237847
-0.62811189
9.2408568
0.76749329
-0.62987742
8.7123431
0.84030716
-0.63178439
8.0117983
0.95364658
-0.63369211