/*--------------------------------*- C++ -*----------------------------------*\
| =========                 |                                                 |
| \\      /  F ield         | OpenFOAM: The Open Source CFD Toolbox           |
|  \\    /   O peration     | Version:  4.0                                   |
|   \\  /    A nd           | Web:      www.OpenFOAM.org                      |
|    \\/     M anipulation  |                                                 |
\*---------------------------------------------------------------------------*/
FoamFile
{
    version     2.0;
    format      ascii;
    class       volScalarField;
    location    "3000";
    object      T;
}
// * * * * * * * * * * * * * * * * * * * * * * * * * * * * * * * * * * * * * //

dimensions      [0 0 0 1 0 0 0];

internalField   nonuniform List<scalar> 
90000
(
306.29203
306.16782
306.02096
305.84799
305.64487
305.40835
305.13631
304.82647
304.47958
304.10005
303.69768
303.28966
302.90276
302.57606
302.36559
306.26683
306.13817
305.98601
305.80676
305.59714
305.35342
305.07192
304.75191
304.39437
304.00414
303.5916
303.17448
302.77977
302.44591
302.22663
306.22593
306.08857
305.92619
305.73503
305.51126
305.25133
304.9525
304.61369
304.23658
303.82706
303.39674
302.9645
302.55774
302.21343
301.98017
306.18033
306.03028
305.85297
305.64443
305.40072
305.11831
304.79483
304.4299
304.02646
303.59208
303.14042
302.6922
302.27543
301.92502
301.68256
306.14185
305.97545
305.779
305.54831
305.27939
304.96897
304.61532
304.21932
303.78583
303.32501
302.8534
302.3942
301.97632
301.6325
301.39708
306.1192
305.93315
305.71385
305.45698
305.15866
304.8161
304.42867
303.9991
303.53494
303.04977
302.56382
302.10341
301.6989
301.38163
301.18103
309.60067
309.47738
309.33138
309.15894
308.95599
308.71832
308.4418
308.12302
307.76015
307.35445
306.91239
306.44896
305.99207
305.58879
305.31375
309.56325
309.4355
309.28419
309.10546
308.89509
308.64871
308.36208
308.03169
307.65571
307.23547
306.77767
306.29752
305.82305
305.40082
305.10365
309.50094
309.36445
309.20275
309.01172
308.78689
308.52363
308.2175
307.86492
307.46416
307.01687
306.53032
306.02042
305.51548
305.06095
304.72507
309.4314
309.28221
309.10545
308.89664
308.65096
308.36349
308.02963
307.64585
307.21082
306.72704
306.20312
305.65649
305.11654
304.62776
304.25245
309.3734
309.20794
309.01193
308.78051
308.50852
308.19079
307.82274
307.4012
306.92578
306.40061
305.83664
305.25409
304.68475
304.17338
303.77749
309.34022
309.15521
308.93626
308.67812
308.37533
308.02265
307.61575
307.15232
306.6336
306.06641
305.46548
304.85566
304.27343
303.7669
303.39393
312.96176
312.83933
312.69443
312.52335
312.32201
312.08608
311.81124
311.49365
311.1308
310.72295
310.27538
309.80206
309.33113
308.91292
308.63125
312.88767
312.76072
312.61039
312.43281
312.2237
311.97852
311.69272
311.36223
310.98441
310.55967
310.09322
309.59896
309.10487
308.66058
308.34746
312.76292
312.62712
312.46617
312.27583
312.05141
311.78788
311.48009
311.12328
310.71381
310.2605
309.76157
309.2314
308.69813
308.20969
307.83998
312.62801
312.47991
312.30428
312.09648
311.8514
311.56366
311.2279
310.83944
310.39458
309.89679
309.34854
308.76643
308.17967
307.63544
307.2017
312.53049
312.36636
312.17167
311.94137
311.66992
311.3516
310.98099
310.55383
310.06865
309.51362
308.90731
308.2676
307.62638
307.03323
306.55701
312.48162
312.29781
312.07989
311.82226
311.51882
311.16327
310.74966
310.2732
309.73159
309.12709
308.47171
307.78874
307.11716
306.51451
306.05785
316.26805
316.14676
316.00327
315.83393
315.63476
315.40153
315.13
314.81786
314.46173
314.062
313.62392
313.161
312.70015
312.28907
312.00615
316.18538
316.05976
315.91108
315.73558
315.52911
315.28731
315.0059
314.67964
314.30702
313.88815
313.42806
312.94007
312.45091
312.00788
311.6885
316.05102
315.91639
315.75686
315.56829
315.34611
315.08543
314.78133
314.42937
314.02652
313.57257
313.07227
312.53883
311.99872
311.49829
311.11177
315.89993
315.75258
315.57776
315.37087
315.12679
314.84005
314.50515
314.11711
313.67245
313.17072
312.61685
312.02462
311.42123
310.85295
310.39074
315.77322
315.60977
315.41571
315.18587
314.91453
314.59562
314.2231
313.79161
313.29758
312.74092
312.12783
311.47429
310.81057
310.18601
309.67225
315.70138
315.51875
315.30193
315.04521
314.7423
314.38667
313.97194
313.49279
312.94631
312.33413
311.66547
310.96112
310.25813
309.61428
309.11067
319.7295
319.60904
319.4666
319.29862
319.10117
318.87014
318.60141
318.29134
317.93757
317.54031
317.10457
316.64358
316.1841
315.77423
315.49443
319.62199
319.49679
319.34867
319.17387
318.96824
318.7274
318.44693
318.12284
317.75241
317.33552
316.87687
316.3895
315.89972
315.45407
315.12874
319.43023
319.29613
319.13731
318.94961
318.72847
318.46897
318.16614
317.81538
317.41338
316.95957
316.45928
315.92687
315.38908
314.88865
314.49603
319.20176
319.05523
318.88134
318.67537
318.43206
318.14572
317.8104
317.42042
316.97113
316.46074
315.90662
315.33426
314.7624
314.21189
313.74211
319.00605
318.84399
318.65152
318.42339
318.15377
317.83642
317.46504
317.03391
316.53911
315.99229
315.3968
314.74434
314.08261
313.47327
313.02111
318.88078
318.69998
318.48512
318.23051
317.92999
317.57738
317.16711
316.69545
316.16262
315.56263
314.89468
314.19338
313.49648
312.91082
312.55206
323.02068
322.90142
322.76047
322.59434
322.39925
322.17121
321.90635
321.60133
321.25469
320.86694
320.44249
319.99642
319.55622
319.16569
318.89876
322.91443
322.7904
322.64368
322.47057
322.26697
322.02857
321.75101
321.43041
321.06518
320.65799
320.21445
319.74338
319.2683
318.84489
318.5414
322.73224
322.59936
322.44198
322.25603
322.03706
321.78034
321.48085
321.13697
320.74547
320.30042
319.81132
319.29218
318.77152
318.26935
317.8737
322.52523
322.38005
322.20766
322.00412
321.76523
321.483
321.15366
320.77405
320.33396
319.83698
319.28836
318.70262
318.11013
317.54711
317.08789
322.35769
322.19725
322.00687
321.78016
321.51096
321.19555
320.82626
320.3975
319.90539
319.34951
318.73597
318.07988
317.41013
316.82936
316.33272
322.25963
322.07954
321.86541
321.61196
321.31267
320.96104
320.5511
320.07292
319.52623
318.91223
318.23976
317.53028
316.82371
316.18517
315.79804
326.22685
326.10838
325.96841
325.80349
325.60987
325.38297
325.11929
324.81538
324.4691
324.08087
323.65584
323.2072
322.76138
322.36557
322.09835
326.10922
325.98599
325.84027
325.66841
325.46644
325.22952
324.95388
324.63567
324.27234
323.86393
323.41517
322.93887
322.46094
322.02765
321.71452
325.90127
325.76882
325.61192
325.42645
325.20785
324.95255
324.65477
324.31008
323.91531
323.46995
322.97846
322.45377
321.92241
321.43109
321.05577
325.65093
325.50647
325.33514
325.13237
324.89309
324.61188
324.28319
323.90193
323.46443
322.97009
322.42402
321.84104
321.25122
320.70684
320.28883
325.42179
325.26199
325.0722
324.84722
324.58134
324.26843
323.90233
323.47763
322.99089
322.44273
321.84112
321.20593
320.57498
320.01087
319.60095
325.26544
325.08708
324.87477
324.6227
324.32453
323.97376
323.5643
323.09163
322.55454
321.9579
321.31632
320.65875
320.03303
319.50829
319.17173
329.14014
329.02255
328.88359
328.71983
328.52754
328.30282
328.04185
327.74135
327.39939
327.01673
326.59889
326.15963
325.71158
325.3136
325.04362
329.03157
328.90905
328.76415
328.59322
328.39227
328.15708
327.88341
327.56748
327.20673
326.8011
326.35509
325.88133
325.40516
324.97332
324.66037
328.82848
328.69694
328.54119
328.35718
328.14044
327.88619
327.58957
327.24607
326.85233
326.40752
325.91541
325.38778
324.86482
324.38004
324.0088
328.57384
328.43032
328.26008
328.05856
327.82075
327.54123
327.21452
326.83559
326.40087
325.90986
325.36786
324.79004
324.20677
323.66917
323.25559
328.34202
328.18327
327.99471
327.7712
327.50708
327.19632
326.83292
326.41162
325.92922
325.38667
324.79226
324.16608
323.54554
322.99048
322.58411
328.18384
328.00665
327.79573
327.54531
327.24919
326.90099
326.49487
326.02664
325.49552
324.90685
324.27569
323.63099
323.01927
322.50504
322.16372
331.81974
331.70277
331.56455
331.4017
331.21049
330.98705
330.72756
330.42875
330.0886
329.70471
329.28421
328.83983
328.39699
328.00168
327.7307
331.70092
331.57923
331.43532
331.26556
331.06601
330.83248
330.56079
330.24724
329.88951
329.48488
329.04032
328.56789
328.09262
327.65938
327.34162
331.49183
331.36105
331.20616
331.02311
330.80743
330.55428
330.25871
329.91604
329.5226
329.08334
328.59757
328.07787
327.55025
327.06026
326.67999
331.23492
331.09223
330.92297
330.7226
330.4861
330.20807
329.88301
329.5059
329.07317
328.5843
328.0442
327.46727
326.88262
326.3401
325.914
331.00081
330.84299
330.65552
330.43325
330.17054
329.86132
329.49956
329.07994
328.59914
328.05795
327.46438
326.83801
326.21504
325.65241
325.22656
330.84091
330.66476
330.45503
330.20595
329.91128
329.56463
329.16006
328.69329
328.16338
327.57547
326.94423
326.29778
325.68062
325.15289
324.78176
334.23324
334.117
333.97964
333.81776
333.62766
333.40549
333.14742
332.85016
332.51164
332.13235
331.71729
331.27921
330.84342
330.44624
330.16369
334.12397
334.00284
333.8596
333.69064
333.49202
333.25955
332.98903
332.67668
332.31988
331.91841
331.47649
331.00591
330.53114
330.08798
329.76313
333.9179
333.78784
333.63384
333.45191
333.23761
332.9862
332.69284
332.35299
331.96323
331.52251
331.03423
330.50944
329.97142
329.47994
329.08821
333.65827
333.51634
333.34798
333.14866
332.91338
332.63675
332.31324
331.93772
331.50635
331.01818
330.47755
329.89793
329.30711
328.75257
328.303
333.42155
333.26457
333.07808
332.85695
332.59555
332.2878
331.92762
331.50956
331.03005
330.48934
329.89452
329.2636
328.63021
328.04725
327.5849
333.26007
333.08486
332.87621
332.62838
332.33511
331.98996
331.58691
331.12141
330.59208
330.00323
329.3681
328.71258
328.07791
327.51972
327.09974
336.43197
336.31621
336.17944
336.01829
335.8291
335.60801
335.35121
335.0554
334.71846
334.34075
333.92705
333.48388
333.04001
332.639
332.3543
336.31157
336.19112
336.04869
335.88069
335.68319
335.45203
335.18304
334.87243
334.51758
334.11824
333.67879
333.20565
332.7271
332.28449
331.947
336.09975
335.9703
335.817
335.63587
335.42248
335.17205
334.87967
334.54066
334.15132
333.71006
333.21932
332.70059
332.16748
331.66215
331.2501
335.83504
335.69377
335.52617
335.32773
335.09345
334.81789
334.49547
334.12094
333.69027
333.20216
332.66056
332.07801
331.47976
330.90951
330.43164
335.59354
335.43729
335.25163
335.03145
334.77105
334.46434
334.10508
333.68764
333.20808
332.66608
332.06779
331.42966
330.78274
330.17592
329.67328
335.42875
335.25436
335.04662
334.79975
334.50745
334.16315
333.76062
333.29497
332.76428
332.17197
331.52997
330.86214
330.20669
329.61507
329.14382
338.42761
338.31246
338.17641
338.01611
337.8279
337.60795
337.35244
337.05807
336.72267
336.34649
335.93407
335.49723
335.05987
334.65585
334.36449
338.31451
338.1945
338.0526
337.88524
337.68852
337.45827
337.1903
336.88078
336.52695
336.12832
335.68852
335.21832
334.74067
334.28874
333.93852
338.10127
337.97237
337.81976
337.63947
337.42709
337.17789
336.88697
336.5497
336.16238
335.72346
335.23545
334.70795
334.16153
333.65181
333.22526
337.83255
337.69187
337.52498
337.32738
337.09406
336.81959
336.49834
336.12497
335.69521
335.20729
334.66423
334.07717
333.47015
332.88468
332.38029
337.58694
337.43135
337.24647
337.02716
336.76776
336.46209
336.10387
335.68726
335.20798
334.66508
334.0636
333.41824
332.7575
332.12661
331.58491
337.41948
337.24582
337.03893
336.79299
336.50167
336.15833
335.75656
335.29116
334.75964
334.16445
333.51597
332.83581
332.15914
331.53387
331.01327
340.27213
340.15736
340.02178
339.86207
339.6746
339.45553
339.20109
338.90793
338.57386
338.19902
337.78778
337.3459
336.90085
336.49418
336.19657
340.14807
340.02863
339.88741
339.72085
339.52508
339.29593
339.02924
338.72118
338.369
337.97216
337.5345
337.06143
336.57956
336.12751
335.77039
339.92957
339.80116
339.64912
339.46948
339.25784
339.00942
338.71927
338.38262
337.99552
337.55593
337.06542
336.54397
336.00278
335.48013
335.03564
339.65635
339.51621
339.34994
339.15306
338.92055
338.64695
338.3266
337.95402
337.52478
337.03684
336.49282
335.90303
335.28914
334.68936
334.16007
339.40646
339.25146
339.06725
338.84871
338.59013
338.28529
337.9278
337.51163
337.03218
336.48796
335.88313
335.23093
334.55758
333.90511
333.32863
339.23605
339.06305
338.85689
338.61174
338.32119
337.97851
337.5771
337.11145
336.57854
335.98002
335.32505
334.6334
333.93778
333.28307
332.71961
341.97633
341.86209
341.72714
341.56816
341.38152
341.16343
340.91008
340.61815
340.2854
339.91187
339.50173
339.06613
338.62787
338.21899
337.91639
341.85945
341.74036
341.59956
341.43353
341.23838
341.00996
340.7441
340.43691
340.08553
339.6892
339.25106
338.78104
338.30067
337.8405
337.47305
341.63954
341.5116
341.36013
341.18119
340.9704
340.72302
340.43412
340.09897
339.71367
339.27625
338.78847
338.2586
337.70504
337.18013
336.72514
341.36249
341.22284
341.05716
340.86097
340.62925
340.35655
340.03715
339.6655
339.23699
338.74917
338.20388
337.61032
336.98941
336.37789
335.82843
341.10879
340.95435
340.77078
340.55296
340.29518
339.99119
339.63452
339.219
338.73975
338.19476
337.58732
336.92935
336.24513
335.57399
334.96774
340.936
340.76362
340.55815
340.31377
340.02403
339.68212
339.28132
338.81585
338.28225
337.68141
337.02128
336.3199
335.60772
334.92709
334.32626
343.5808
343.46699
343.3326
343.17434
342.98866
342.77179
342.51914
342.22799
341.89608
341.52336
341.11384
340.67848
340.23202
339.82065
339.51291
343.45658
343.33786
343.19747
343.03187
342.83715
342.60912
342.34444
342.03858
341.68866
341.29388
340.85731
340.38907
339.90331
339.44386
339.07211
343.233
343.10548
342.95451
342.77615
342.56602
342.31938
342.0313
341.69697
341.31233
340.87514
340.3866
339.85386
339.30943
338.7755
338.30783
342.95244
342.81325
342.64811
342.45255
342.22155
341.94964
341.63107
341.26021
340.8323
340.34465
339.79871
339.20317
338.5777
337.9562
337.38926
342.69532
342.54139
342.35841
342.14126
341.88421
341.58099
341.22504
340.81006
340.33092
339.78522
339.17561
338.51296
337.81995
337.13371
336.5034
342.52019
342.34838
342.14356
341.89987
341.61084
341.26958
340.86924
340.40382
339.86947
339.2665
338.60198
337.89266
337.1673
336.46634
335.83653
345.09358
344.98001
344.84585
344.68781
344.50228
344.28544
344.03348
343.74296
343.41145
343.03855
342.63162
342.19898
341.7549
341.34487
341.03598
344.96866
344.85047
344.71076
344.54603
344.35245
344.12592
343.86231
343.55785
343.2098
342.81765
342.38092
341.91189
341.42393
340.96037
340.58177
344.74523
344.61813
344.46766
344.28992
344.08053
343.83477
343.54767
343.21442
342.83089
342.39465
341.90649
341.37307
340.82653
340.28786
339.81158
344.46258
344.32383
344.15921
343.96426
343.73397
343.46286
343.14518
342.77522
342.34812
341.86095
341.31478
340.71764
340.08831
339.45912
338.87874
344.20312
344.04967
343.86726
343.65076
343.39445
343.09203
342.7369
342.32267
341.84403
341.29822
340.68734
340.02134
339.32156
338.62336
337.97388
344.02645
343.85519
343.65098
343.40798
343.11971
342.77923
342.37959
341.91462
341.38019
340.77609
340.10858
339.39328
338.65748
337.94005
337.28666
346.53161
346.41838
346.28463
346.12706
345.94204
345.72636
345.47595
345.18748
344.8587
344.48958
344.07993
343.64321
343.20071
342.79163
342.47528
346.40728
346.28947
346.15026
345.98621
345.79352
345.56754
345.30446
345.00042
344.6525
344.26
343.8218
343.35027
342.86411
342.39864
342.02118
346.17812
346.05137
345.90129
345.72396
345.51498
345.26959
344.98277
344.64955
344.26562
343.82814
343.34617
342.82047
342.26909
341.72493
341.24065
345.89321
345.75487
345.59072
345.39631
345.16664
344.89623
344.57929
344.21013
343.78382
343.29745
342.75189
342.1542
341.52163
340.8857
340.29345
345.63189
345.4789
345.29701
345.08113
344.8255
344.52381
344.16944
343.7559
343.27773
342.73191
342.12004
341.45127
340.74575
340.03731
339.37111
345.45389
345.28314
345.07951
344.83716
344.54958
344.20979
343.81076
343.34617
342.8116
342.20645
341.53632
340.81588
340.07115
339.33954
338.66535
347.9093
347.79652
347.6633
347.50638
347.32219
347.10698
346.85704
346.5691
346.24106
345.87019
345.46192
345.0318
344.59073
344.17435
343.85658
347.78471
347.66709
347.52804
347.36408
347.17136
346.94577
346.68315
346.37965
346.03253
345.63803
345.19994
344.731
344.25242
343.78701
343.40275
347.55191
347.42556
347.276
347.09935
346.89126
346.64697
346.36149
346.02978
345.64729
345.21698
344.73658
344.20341
343.64237
343.10055
342.61262
347.26705
347.12912
346.96549
346.77171
346.54281
346.27331
345.95741
345.58938
345.16416
344.67866
344.13313
343.53394
342.89829
342.25737
341.65589
347.00501
346.85246
346.6711
346.45584
346.20092
345.90004
345.54654
345.13385
344.65637
344.11083
343.49839
342.8275
342.11741
341.40061
340.72063
346.8264
346.65614
346.45309
346.21139
345.92454
345.58553
345.18728
344.72333
344.18907
343.58349
342.91163
342.18727
341.43535
340.69211
340.00103
349.231
349.11857
348.98583
348.82956
348.64623
348.43157
348.18213
347.89454
347.56646
347.19762
346.7916
346.35859
345.91955
345.50353
345.18436
349.10385
348.98655
348.84784
348.68422
348.49182
348.26707
348.00548
347.70312
347.35699
346.96599
346.53266
346.06576
345.58475
345.11676
344.72861
348.87552
348.74951
348.60035
348.42416
348.21661
347.97299
347.68839
347.35794
346.97749
346.54449
346.05957
345.5289
344.96776
344.42402
343.93124
348.58778
348.45021
348.28701
348.09371
347.86535
347.59645
347.28119
346.91378
346.48909
346.00375
345.45789
344.85789
344.22019
343.57489
342.96519
348.32341
348.17127
347.9904
347.77568
347.52137
347.22116
346.86833
346.45628
345.97928
345.43385
344.82082
344.14814
343.43421
342.71028
342.01828
348.14361
347.97382
347.7713
347.53021
347.24402
346.9057
346.50811
346.04469
345.51063
344.90464
344.23126
343.5036
342.74562
341.99239
341.28631
350.50868
350.39643
350.26388
350.10777
349.92455
349.71047
349.46175
349.17502
348.84786
348.47992
348.07455
347.64146
347.20017
346.78864
346.47184
350.38064
350.26378
350.12567
349.96284
349.7715
349.54757
349.2869
348.98566
348.64088
348.25159
347.82049
347.35705
346.86744
346.39811
346.00589
350.15281
350.02713
349.87835
349.70259
349.49554
349.25247
348.96844
348.63858
348.25861
347.82581
347.34045
346.80789
346.25766
345.70817
345.20937
349.86423
349.72702
349.56422
349.37139
349.14357
348.87527
348.56067
348.19398
347.77001
347.28531
346.73992
346.1401
345.50169
344.85293
344.23653
349.59878
349.44705
349.26663
349.05245
348.79876
348.49923
348.14715
347.73587
347.25957
346.71464
346.10162
345.42802
344.71143
343.98214
343.28098
349.41825
349.2489
349.0469
348.8064
348.52088
348.18329
347.78644
347.3237
346.79013
346.18418
345.50999
344.78009
344.01765
343.25696
342.53992
351.74389
351.63192
351.49968
351.34391
351.16147
350.94834
350.70084
350.41564
350.09047
349.72512
349.31911
348.88526
348.44384
348.03219
347.7143
351.61885
351.50233
351.36467
351.20246
351.0115
350.78803
350.5279
350.22723
349.88303
349.4944
349.05995
348.59137
348.10626
347.63842
347.24515
351.38628
351.2609
351.11244
350.93702
350.7303
350.48752
350.20369
349.87382
349.49344
349.05946
348.58026
348.05569
347.50201
346.94928
346.44608
351.09671
350.95985
350.79745
350.6051
350.37782
350.11014
349.79625
349.43034
349.00726
348.52362
347.97941
347.38019
346.74077
346.08902
345.46685
350.83069
350.67934
350.49939
350.28574
350.03266
349.73383
349.38252
348.97204
348.49652
347.9522
347.33937
346.66507
345.94628
345.21239
344.50319
350.64968
350.48076
350.27927
350.03935
349.75447
349.41758
349.02146
348.5594
348.02633
347.42048
346.74566
346.01387
345.2476
344.48033
343.75312
352.9473
352.83562
352.70373
352.54841
352.36611
352.15308
351.90559
351.62023
351.2946
350.92834
350.52483
350.09414
349.65072
349.23617
348.91468
352.81994
352.70347
352.56582
352.40353
352.2128
351.98954
351.72956
351.42887
351.08433
350.6945
350.26128
349.7924
349.31172
348.84625
348.45372
352.58033
352.45549
352.30769
352.13308
351.92736
351.68587
351.40372
351.07612
350.69897
350.26979
349.78936
349.26396
348.70846
348.1546
347.64842
352.29396
352.15746
351.99553
351.80374
351.57717
351.31036
350.99751
350.63281
350.21102
349.72852
349.18491
348.58546
347.94509
347.29075
346.66333
352.02822
351.87725
351.69775
351.48464
351.2322
350.93411
350.58362
350.17403
349.69936
349.1557
348.54308
347.86811
347.14724
346.409
345.69209
351.84699
351.67849
351.47748
351.23813
350.9539
350.61772
350.22235
349.76101
349.22851
348.62286
347.94751
347.21396
346.44403
345.67036
344.9333
354.11129
353.99987
353.86845
353.71374
353.53223
353.31966
353.0727
352.78797
352.46305
352.09753
351.69469
351.26411
350.82575
350.41625
350.09059
353.98226
353.86627
353.7293
353.56732
353.37688
353.15448
352.89554
352.59616
352.2533
351.86572
351.43559
350.97101
350.48967
350.0255
349.62732
353.75149
353.62708
353.47959
353.30519
353.0998
352.85871
352.57701
352.24985
351.873
351.44375
350.96248
350.43502
349.87618
349.3145
348.81202
353.46147
353.32493
353.16285
352.97157
352.74554
352.47931
352.16705
351.8029
351.38156
350.89927
350.3555
349.75544
349.11346
348.45607
347.82424
353.19346
353.04285
352.86376
352.65112
352.39921
352.1017
351.75183
351.34283
350.86868
350.32531
349.71254
349.03669
348.31362
347.57107
346.84661
353.01154
352.84344
352.6429
352.40407
352.12042
351.78487
351.39014
350.92938
350.39728
349.79166
349.11567
348.38032
347.60677
346.82682
346.07988
355.24804
355.13704
355.00598
354.85166
354.67043
354.45845
354.21218
353.92825
353.60421
353.23962
352.83761
352.40743
351.96788
351.55577
351.23357
355.12089
355.00479
354.86755
354.7057
354.51583
354.29422
354.03624
353.73801
353.39655
353.01075
352.58305
352.12247
351.63435
351.16392
350.76592
354.88949
354.76502
354.61768
354.44362
354.23857
353.99784
353.7165
353.38965
353.01295
352.58346
352.10108
351.57047
351.01976
350.46523
349.95447
354.59822
354.46233
354.3011
354.11011
353.88443
353.61858
353.30676
352.94308
352.52222
352.0404
351.49704
350.89736
350.25543
349.5968
348.96028
354.33006
354.17979
354.0011
353.78892
353.53753
353.24059
352.89135
352.48302
352.00951
351.46669
350.8542
350.17803
349.45349
348.70752
347.97659
354.1478
353.98009
353.78
353.54169
353.25864
352.92375
352.52971
352.06965
351.53815
350.93286
350.25667
349.52014
348.74383
347.95882
347.20392
356.35742
356.24667
356.11581
355.96155
355.78047
355.56881
355.32368
355.04127
354.71924
354.35728
353.95468
353.52369
353.08384
352.67117
352.34745
356.2317
356.11588
355.97923
355.81855
355.62983
355.40911
355.1515
354.85366
354.51259
354.1273
353.69616
353.23034
352.74679
352.27829
351.88063
355.99802
355.87382
355.72678
355.55304
355.3483
355.10783
354.82662
354.49965
354.12237
353.69149
353.21498
352.6923
352.13859
351.58205
351.06839
355.70626
355.57068
355.4098
355.21923
354.99401
354.72871
354.41749
354.05449
353.63442
353.15359
352.6115
352.01274
351.37054
350.71026
350.07009
355.43797
355.28805
355.10976
354.89805
354.6472
354.35089
354.00235
353.59478
353.12206
352.57998
351.968
351.29181
350.56621
349.81755
349.08154
355.25554
355.08821
354.88857
354.65078
354.36831
354.03407
353.64074
353.18139
352.65053
352.04568
351.36946
350.6321
349.85366
349.06468
348.30352
357.4444
357.33389
357.20345
357.04989
356.86974
356.65873
356.41357
356.13087
355.80815
355.44492
355.04425
354.61545
354.17844
353.76206
353.43589
357.31742
357.20213
357.06591
356.90534
356.71673
356.49549
356.23791
355.94002
355.59865
355.21232
354.78278
354.3174
353.83274
353.36817
352.97137
357.07805
356.9541
356.80727
356.6337
356.42906
356.18983
355.91024
355.58549
355.21137
354.78527
354.30764
353.78431
353.22995
352.67253
352.15663
356.78846
356.6532
356.49271
356.30262
356.07802
355.81348
355.50321
355.14135
354.72255
354.24291
353.70162
353.10317
352.46055
351.79869
351.15504
356.52063
356.37104
356.19316
355.98194
355.73168
355.43605
355.08829
354.68158
354.20975
353.66845
353.05698
352.38072
351.65407
350.90278
350.16174
356.33812
356.17116
355.97196
355.73469
355.45282
355.11926
354.72666
354.26806
353.7379
353.13352
352.45732
351.71918
350.93866
350.14572
349.37808
358.50468
358.39428
358.26387
358.11026
357.92994
357.7192
357.47433
357.19194
356.86969
356.50737
356.10764
355.67994
355.24384
354.83538
354.50668
358.37606
358.26111
358.12527
357.96514
357.77629
357.55517
357.29752
356.99922
356.65665
356.2733
355.84711
355.3859
354.90688
354.44282
354.03952
358.1385
358.01515
357.86918
357.69687
357.49373
357.25551
356.97738
356.65475
356.28383
355.85654
355.37746
354.85168
354.29269
353.72646
353.21516
357.84993
357.71466
357.55413
357.36392
357.14012
356.87644
356.56708
356.20613
355.78809
355.30885
354.76744
354.16819
353.52391
352.85969
352.21292
357.58053
357.43126
357.25375
357.04297
356.79323
356.49818
356.15107
355.74501
355.27376
354.73286
354.1214
353.44453
352.71628
351.9619
351.2154
357.39749
357.23089
357.0321
356.7953
356.51396
356.18098
355.78899
355.33097
354.80125
354.19703
353.52048
352.78113
351.99806
351.20061
350.42579
359.54243
359.43228
359.30223
359.1491
358.9694
358.75944
358.51553
358.23429
357.91332
357.55214
357.15387
356.72784
356.29363
355.87792
355.55027
359.41254
359.29809
359.16254
359.00273
358.81491
358.59506
358.33906
358.04305
357.70394
357.32043
356.89448
356.43378
355.95589
355.48495
355.08282
359.18257
359.05927
358.91319
358.74068
358.53745
358.29886
358.02002
357.69607
357.32266
356.89681
356.41834
355.89196
355.3302
354.77643
354.25895
358.88988
358.75481
358.59499
358.40566
358.18192
357.91834
357.6091
357.24827
356.83041
356.35148
355.81036
355.21124
354.56691
353.9019
353.25134
358.61981
358.47085
358.29369
358.08331
357.83399
357.53941
357.19279
356.78724
356.3165
355.77602
355.16477
354.48762
353.75817
353.00087
352.24864
358.43647
358.27022
358.07183
357.83548
357.55465
357.22223
356.83083
356.37339
355.84417
355.24024
354.5635
353.82311
353.03762
352.23561
351.45333
360.56175
360.45197
360.32235
360.16972
359.99063
359.78144
359.5382
359.25737
358.93687
358.57616
358.17824
357.75203
357.31576
356.90546
356.57544
360.43553
360.32069
360.18495
360.02488
359.83669
359.61628
359.36022
359.06527
358.72739
358.34533
357.92124
357.46355
356.97674
356.50376
356.10411
360.20064
360.07751
359.93174
359.75953
359.55663
359.31841
359.03996
358.7164
358.34329
357.91752
357.4386
356.9105
356.36024
355.80264
355.28181
359.90762
359.77319
359.61367
359.4247
359.20138
358.93826
358.62953
358.26927
357.85203
357.37373
356.83326
356.23487
355.59105
354.9248
354.27102
359.63782
359.48916
359.31237
359.1024
358.85356
358.55954
358.21354
357.80867
357.33863
356.79882
356.18807
355.51102
354.78081
354.02125
353.26452
359.45444
359.28854
359.09055
358.85467
358.57439
358.24258
357.85184
357.3951
356.86654
356.26311
355.58652
354.8456
354.05841
353.25301
352.46515
361.56192
361.45237
361.32303
361.17062
360.99158
360.78229
360.53903
360.25961
359.94096
359.58267
359.18388
358.75658
358.31969
357.90834
357.58325
361.43578
361.32115
361.18563
361.02612
360.8392
360.62062
360.36641
360.07154
359.73372
359.35186
358.9242
358.46144
357.97957
357.50972
357.10511
361.19905
361.07615
360.93064
360.75871
360.55609
360.31812
360.03981
359.71612
359.34245
358.91537
358.44242
357.92227
357.36899
356.80899
356.2852
360.90594
360.77178
360.61257
360.42397
360.20106
359.93842
359.63025
359.27063
358.85415
358.37685
357.83764
357.24021
356.59623
355.92864
355.27196
360.63615
360.48779
360.31135
360.1018
359.85346
359.56
359.21464
358.81049
358.3412
357.80213
357.19195
356.51505
355.78416
355.02262
354.262
360.45267
360.28709
360.0895
359.85408
359.57432
359.2431
358.85301
358.39694
357.86902
357.26607
356.58963
355.84822
355.05954
354.25116
353.4584
362.54544
362.43595
362.30666
362.15439
361.97568
361.76685
361.52422
361.24441
360.925
360.56547
360.16886
359.74457
359.30591
358.89284
358.56472
362.4171
362.30291
362.16795
362.00883
361.82183
361.60291
361.34795
361.05298
360.71477
360.3317
359.90522
359.4422
358.96513
358.49835
358.09474
362.17528
362.05285
361.90791
361.73668
361.53493
361.29807
361.02125
360.69966
360.32906
359.90665
359.43254
358.91171
358.35673
357.79485
357.26993
361.88529
361.75139
361.59255
361.40441
361.1821
360.92021
360.61293
360.25437
359.83903
359.36277
358.82415
358.22662
357.58194
356.91315
356.25375
361.61581
361.46775
361.29166
361.08255
360.83472
360.54186
360.19718
359.79377
359.32523
358.78679
358.17698
357.49992
356.7681
356.00443
355.2397
361.43219
361.26694
361.06973
360.83475
360.55551
360.22486
359.8354
359.37996
358.85259
358.25001
357.57355
356.83146
356.04105
355.2294
354.43122
363.50685
363.39757
363.26851
363.1165
362.93809
362.72959
362.48823
362.20885
361.88994
361.53095
361.13479
360.71038
360.27662
359.8686
359.53661
363.37744
363.26368
363.12926
362.97034
362.78339
362.56431
362.30972
362.0162
361.67973
361.29886
360.87537
360.41657
359.93903
359.47387
359.06532
363.14315
363.02105
362.87662
362.70596
362.50507
362.26945
361.99256
361.67094
361.30023
360.87745
360.40233
359.87948
359.32137
358.75229
358.23233
362.85118
362.71719
362.55808
362.37022
362.14829
361.88684
361.58001
361.22184
360.80681
360.33065
359.79189
359.19395
358.54819
357.87743
357.21561
362.57959
362.4318
362.25603
362.04727
361.79984
361.50743
361.16322
360.76027
360.29214
359.75397
359.14417
358.46666
357.73357
356.96726
356.19775
362.39545
362.23052
362.03366
361.7991
361.5203
361.19014
360.80118
360.34621
359.81922
359.21678
358.54003
357.79692
357.00429
356.1886
355.38378
364.45322
364.34429
364.21568
364.06423
363.88651
363.6789
363.43775
363.1594
362.84113
362.48281
362.08722
361.66294
361.22758
360.81596
360.48722
364.32851
364.21458
364.07992
363.92116
363.73453
363.51597
363.26126
362.96746
362.63232
362.25319
361.83207
361.37722
360.89283
360.42167
360.01496
364.09288
363.97069
363.82603
363.65512
363.45374
363.21727
362.94083
362.61954
362.24898
361.82592
361.3496
360.82357
360.27389
359.71381
359.18628
363.79861
363.66521
363.50691
363.31936
363.09768
362.83646
362.52988
362.172
361.75727
361.28145
360.74304
360.14565
359.50065
358.82935
358.1641
363.52749
363.37998
363.20453
362.99612
362.74908