/*--------------------------------*- C++ -*----------------------------------*\
| =========                 |                                                 |
| \\      /  F ield         | OpenFOAM: The Open Source CFD Toolbox           |
|  \\    /   O peration     | Version:  4.0                                   |
|   \\  /    A nd           | Web:      www.OpenFOAM.org                      |
|    \\/     M anipulation  |                                                 |
\*---------------------------------------------------------------------------*/
FoamFile
{
    version     2.0;
    format      ascii;
    class       volVectorField;
    location    "3000";
    object      U;
}
// * * * * * * * * * * * * * * * * * * * * * * * * * * * * * * * * * * * * * //

dimensions      [0 1 -1 0 0 0 0];

internalField   nonuniform List<vector> 
90000
(
(-1.8567324e-07 3.2629488e-06 0.0023720078)
(-3.9091621e-07 9.9693253e-06 0.0074395561)
(-7.01439e-07 1.734737e-05 0.013311049)
(-4.3530225e-06 2.5229214e-05 0.020067898)
(-2.46242e-06 3.4358175e-05 0.027787791)
(-1.1084852e-06 4.4495376e-05 0.036504509)
(-3.2897169e-06 5.5185732e-05 0.046213065)
(-8.67981e-07 6.6337457e-05 0.056866846)
(1.5965767e-06 7.7695063e-05 0.068318179)
(4.9832566e-06 8.9289931e-05 0.080308141)
(9.8036363e-06 0.00010133902 0.092440609)
(1.67156e-05 0.00011421591 0.10416392)
(2.5658043e-05 0.00012855919 0.11475785)
(3.7064382e-05 0.00014527133 0.12330847)
(5.1495409e-05 0.00016495607 0.12861097)
(-6.6073926e-07 5.3303118e-06 0.0024616412)
(-1.7305469e-06 1.6572943e-05 0.0077169)
(-2.6664763e-06 2.9319801e-05 0.013798838)
(-3.506582e-06 4.3576018e-05 0.020789345)
(-3.8608626e-06 5.9958981e-05 0.028746581)
(-3.8080264e-06 7.849202e-05 0.037720715)
(-2.7037975e-06 9.8564853e-05 0.047715357)
(6.5901361e-08 0.00012000533 0.058646833)
(5.0320099e-06 0.00014272487 0.070355441)
(1.2699553e-05 0.00016680897 0.082564107)
(2.3640642e-05 0.00019278786 0.094859068)
(3.834286e-05 0.00022157581 0.10667786)
(5.704136e-05 0.00025484052 0.11730572)
(8.0267772e-05 0.00029501057 0.12586364)
(0.00010783924 0.00034455809 0.1312299)
(-1.2498003e-06 6.2436026e-06 0.0026326094)
(-3.3641438e-06 1.9434503e-05 0.008246428)
(-5.1175414e-06 3.4488843e-05 0.014731485)
(-6.3082907e-06 5.1512757e-05 0.022167165)
(-6.2924525e-06 7.0640448e-05 0.030614938)
(-4.4762193e-06 9.1954503e-05 0.040103777)
(-1.26993e-08 0.00011545655 0.050611312)
(8.0193331e-06 0.00014122601 0.06204154)
(2.0731893e-05 0.0001694281 0.074200675)
(3.914868e-05 0.00020050225 0.086774967)
(6.4029045e-05 0.00023541407 0.099316568)
(9.5614507e-05 0.00027592133 0.11124366)
(0.00013330798 0.00032501917 0.12185534)
(0.00017552032 0.00038738342 0.13034537)
(0.00021770526 0.00046926829 0.13576232)
(-1.6281962e-06 6.0531812e-06 0.002883424)
(-4.2602422e-06 1.8801257e-05 0.0090206796)
(-6.1282678e-06 3.3356699e-05 0.016089751)
(-6.7790075e-06 4.9888352e-05 0.02416536)
(-5.283161e-06 6.8649247e-05 0.033298371)
(-7.0414969e-07 8.9865905e-05 0.043498768)
(8.2405578e-06 0.00011385828 0.054715207)
(2.3007942e-05 0.00014108166 0.06681174)
(4.5216112e-05 0.00017222126 0.079544931)
(7.644279e-05 0.00020834598 0.09254704)
(0.00011803218 0.0002511775 0.10532229)
(0.00017095569 0.00030345457 0.11726686)
(0.00023590889 0.00036955049 0.12770757)
(0.00031402907 0.00045633962 0.1359473)
(0.00040524289 0.00057327469 0.14127052)
(-8.4812368e-07 3.476679e-06 0.0032036204)
(-1.5895257e-06 1.120637e-05 0.010005485)
(-7.4969357e-07 2.0642678e-05 0.017809719)
(2.5118535e-06 3.2189049e-05 0.026682107)
(9.3848548e-06 4.6332338e-05 0.036655896)
(2.12275e-05 6.3627189e-05 0.047712088)
(3.9733777e-05 8.4767117e-05 0.059756946)
(6.6805519e-05 0.0001106069 0.072598377)
(0.00010446376 0.00014222376 0.085926158)
(0.00015465235 0.00018101231 0.09930375)
(0.00021908957 0.00022887749 0.11218089)
(0.00029931373 0.00028858839 0.12393443)
(0.00039715674 0.00036452589 0.13393394)
(0.00051548472 0.0004638897 0.14161366)
(0.00065427907 0.00059763248 0.1465091)
(-9.3914495e-08 1.8539427e-06 0.0035809714)
(9.9903264e-07 6.4220608e-06 0.011162242)
(4.3991685e-06 1.2645878e-05 0.019819954)
(1.1262075e-05 2.1121807e-05 0.029605877)
(2.304498e-05 3.2578172e-05 0.040527785)
(4.1454975e-05 4.7867217e-05 0.052527132)
(6.8515248e-05 6.8017073e-05 0.065454714)
(0.00010642903 9.4212877e-05 0.079047735)
(0.00015744993 0.00012780744 0.092915268)
(0.00022375738 0.00017037713 0.10654182)
(0.00030759222 0.00022394096 0.119319)
(0.00041201264 0.00029148039 0.1306099)
(0.00054280979 0.00037781822 0.13983723)
(0.00071197125 0.00048983987 0.1465686)
(0.00093854125 0.00062799471 0.15055454)
(-1.041487e-07 2.9378217e-05 0.0016189325)
(-1.4137713e-06 8.9330916e-05 0.005111261)
(2.4781103e-06 0.00015545377 0.0092063355)
(8.6652015e-06 0.00022757793 0.01398986)
(2.7722825e-05 0.00030578835 0.019550891)
(5.2178775e-05 0.00039005522 0.025976638)
(8.8504852e-05 0.00048000995 0.033343571)
(0.00014611103 0.00057526532 0.041702873)
(0.00022346968 0.00067589672 0.05105817)
(0.00031989207 0.00078257444 0.061331614)
(0.00042906741 0.00089685043 0.072315273)
(0.00053612205 0.0010213943 0.083604314)
(0.00061378161 0.0011604048 0.094508174)
(0.00062434039 0.0013195629 0.10393122)
(0.00053215045 0.0015030664 0.11019636)
(-3.8526313e-06 4.5983539e-05 0.0016807248)
(-1.1792679e-05 0.00014234229 0.0053054532)
(-1.2471774e-05 0.000252282 0.0095536214)
(-7.0202992e-06 0.00037638221 0.01451278)
(1.0107917e-05 0.00051564412 0.020273518)
(4.2131375e-05 0.00067102687 0.026923815)
(9.4558112e-05 0.00084210193 0.034539692)
(0.0001719378 0.0010291351 0.043170166)
(0.00027803274 0.0012326585 0.05281405)
(0.00041290942 0.0014539453 0.06338567)
(0.0005708652 0.0016954004 0.074666686)
(0.0007375319 0.001961784 0.086241868)
(0.00088677598 0.0022623618 0.097417039)
(0.00098189975 0.0026118566 0.10711309)
(0.00098252862 0.0030311107 0.11371143)
(-7.8865683e-06 5.0678412e-05 0.001800911)
(-2.3177655e-05 0.00015759425 0.0056829622)
(-2.8318437e-05 0.00028157563 0.010228176)
(-2.2903688e-05 0.0004236521 0.015527401)
(1.1567549e-06 0.00058586515 0.021673699)
(5.0198245e-05 0.00076972489 0.028755724)
(0.00013290233 0.00097693698 0.036847276)
(0.00025723253 0.0012095099 0.045990887)
(0.00042955959 0.0014703575 0.056173181)
(0.00065191341 0.0017632826 0.06728974)
(0.00091884091 0.0020874537 0.079098388)
(0.0012144521 0.002449558 0.091161007)
(0.0015030733 0.0028689266 0.10277661)
(0.0017297595 0.003373254 0.11290478)
(0.0018175705 0.0040144791 0.12006122)
(-1.0870584e-05 4.9363848e-05 0.0019755988)
(-3.1175624e-05 0.00015313426 0.0062308157)
(-3.7806136e-05 0.0002746925 0.011205184)
(-2.9056132e-05 0.00041504249 0.016993563)
(5.7287681e-06 0.00057786375 0.023691379)
(7.5613254e-05 0.00076610724 0.031386494)
(0.00019259722 0.00098372434 0.04014691)
(0.00036796723 0.0012351705 0.050001997)
(0.00060743617 0.0015253888 0.060915517)
(0.00095363215 0.001859406 0.072749461)
(0.0013386605 0.0022401672 0.085218483)
(0.0018102288 0.0026939353 0.097843673)
(0.0023069916 0.0032342081 0.10990682)
(0.0028077037 0.0039049006 0.12041721)
(0.0032718547 0.0047797375 0.12807919)
(-5.1073098e-06 2.9158072e-05 0.0021967122)
(-8.5750924e-06 9.3967439e-05 0.0069227321)
(5.4932284e-06 0.00017480122 0.012435537)
(4.8584768e-05 0.0002776272 0.018833555)
(0.0001296513 0.0004061762 0.026212839)
(0.0002632554 0.00056666977 0.034656957)
(0.00046441309 0.00076507451 0.044222058)
(0.00074935906 0.0010075262 0.054914938)
(0.0011331889 0.0012981833 0.06666291)
(0.0016218795 0.0016420742 0.079276232)
(0.0022049516 0.0020653137 0.092407078)
(0.0028795035 0.0025586697 0.10551468)
(0.0036141376 0.0031457265 0.1178487)
(0.0043890874 0.0038614084 0.12846175)
(0.005158187 0.0047913321 0.13624625)
(1.2647353e-06 1.6304624e-05 0.0024546369)
(1.3519892e-05 5.4747606e-05 0.0077289878)
(5.0219914e-05 0.00010934086 0.013865418)
(0.00012620511 0.0001882799 0.020965124)
(0.00025205039 0.00029679186 0.029122535)
(0.00044530744 0.00044398003 0.038412737)
(0.00072259366 0.00063846351 0.048872985)
(0.0011004041 0.00088922993 0.06047648)
(0.0015905119 0.0012037396 0.073098106)
(0.0021984063 0.0015874035 0.086474856)
(0.0029233944 0.00204843 0.10016887)
(0.0037637254 0.0025907546 0.11354744)
(0.0047200668 0.0032316198 0.12579551)
(0.0058407336 0.0040009178 0.13596832)
(0.0072414846 0.0048969219 0.14306906)
(1.0073079e-06 1.0492349e-05 0.001613048)
(-1.7340429e-06 3.2095598e-05 0.0050915117)
(-4.7956727e-06 5.6347257e-05 0.0091593641)
(-9.754455e-06 8.3248228e-05 0.013895538)
(-1.8146444e-05 0.00011279111 0.019379835)
(-2.6085446e-05 0.00014484902 0.025687452)
(-4.7305867e-05 0.00017866271 0.032880242)
(-6.6329107e-05 0.00021552464 0.040993454)
(-9.3096149e-05 0.00025619886 0.050015703)
(-0.00012638207 0.00030089918 0.059859873)
(-0.00016575878 0.00034938533 0.070320801)
(-0.00020993382 0.00040064296 0.081013481)
(-0.00025643907 0.00045203605 0.091282419)
(-0.00029847091 0.00049745796 0.10006648)
(-0.00033073594 0.00052223607 0.10568996)
(-2.1321187e-06 1.708495e-05 0.0016835368)
(-7.2185456e-06 5.3295267e-05 0.0053118745)
(-1.3694982e-05 9.492027e-05 0.0095525463)
(-2.2125349e-05 0.00014247069 0.014486702)
(-3.308407e-05 0.00019635196 0.020195768)
(-4.7227107e-05 0.00025673637 0.026755752)
(-6.5289269e-05 0.00032353038 0.034228044)
(-8.817148e-05 0.00039826198 0.042645411)
(-0.00011678009 0.00048270612 0.051991049)
(-0.00015122411 0.00057598243 0.062163901)
(-0.00019085586 0.00067786964 0.072951856)
(-0.00023391136 0.00078696383 0.083964099)
(-0.00027645387 0.00089933356 0.094545703)
(-0.00031460721 0.0010053907 0.10365434)
(-0.00033363823 0.0010749043 0.10967557)
(-4.2464016e-06 1.9272642e-05 0.0018230455)
(-1.3301583e-05 6.0212479e-05 0.0057471328)
(-2.3883503e-05 0.00010750471 0.010328051)
(-3.6184918e-05 0.00016184536 0.015651133)
(-5.0362119e-05 0.00022393071 0.021801107)
(-6.6520209e-05 0.00029446715 0.028856327)
(-8.4705298e-05 0.00037419554 0.036879555)
(-0.00010356085 0.00046413099 0.045904816)
(-0.00012633518 0.00056194955 0.055920084)
(-0.00014510235 0.00067585944 0.066610442)
(-0.00015998163 0.00080675228 0.077918565)
(-0.00016632193 0.00095374392 0.089435815)
(-0.00015908107 0.00111875 0.10050599)
(-0.000143323 0.0012969946 0.11013667)
(-9.8695616e-05 0.0014653958 0.11689444)
(-6.3442958e-06 1.8963744e-05 0.0020221392)
(-1.8440848e-05 5.9044849e-05 0.0063553168)
(-3.2246711e-05 0.00010461791 0.011401791)
(-4.7441889e-05 0.00015638867 0.017249221)
(-6.3654451e-05 0.00021518494 0.023981617)
(-8.0537262e-05 0.00028199176 0.031672184)
(-9.5435393e-05 0.0003584274 0.040371891)
(-0.00011664136 0.00044560512 0.050093248)
(-0.0001083521 0.00054894413 0.060805151)
(-7.1185069e-05 0.00067573006 0.072298039)
(-4.3848379e-05 0.00082049644 0.084398988)
(2.9600616e-05 0.0010001249 0.096643053)
(0.00013436514 0.001212252 0.10836357)
(0.00028465488 0.0014617184 0.11861703)
(0.00046597276 0.0017406644 0.12615193)
(-4.1487753e-06 1.1166737e-05 0.0022504923)
(-1.1325265e-05 3.5288556e-05 0.0070668447)
(-1.8355623e-05 6.3500419e-05 0.01266376)
(-2.2778139e-05 9.7423015e-05 0.01912945)
(-2.3736894e-05 0.00013790429 0.026545732)
(-1.8277167e-05 0.00018680303 0.034977575)
(-2.6026919e-06 0.00024631276 0.044458544)
(2.9715761e-05 0.0003200759 0.054969706)
(8.8615632e-05 0.00040943447 0.066407995)
(0.00017245241 0.00052146675 0.078904406)
(0.0002981952 0.00067194293 0.091890114)
(0.00047422912 0.00085446162 0.10488261)
(0.00071091212 0.0010841705 0.11718961)
(0.0010144461 0.0013678718 0.12788064)
(0.0013606986 0.0017167001 0.13578421)
(-1.5297328e-06 5.2378683e-06 0.00250866)
(-3.3495074e-06 1.6941443e-05 0.0078827593)
(-2.3204488e-06 3.1984885e-05 0.014112279)
(3.8601109e-06 5.1692911e-05 0.021288127)
(1.7705975e-05 7.7636349e-05 0.029491566)
(4.3393934e-05 0.00011225043 0.038782937)
(8.6511046e-05 0.00015884198 0.049186847)
(0.00015457411 0.0002220331 0.060673263)
(0.0002565385 0.00030772789 0.07313615)
(0.00040478156 0.00042303592 0.086364807)
(0.00061581876 0.00057661086 0.099957804)
(0.00090490849 0.00077942825 0.11334237)
(0.0012909216 0.0010444331 0.12573646)
(0.0018006239 0.0013810124 0.13614548)
(0.0024636088 0.0017717238 0.14338295)
(-3.8905261e-07 1.257445e-05 0.00141685)
(-1.7528349e-06 3.8562243e-05 0.0044719151)
(-3.2287703e-06 6.7489713e-05 0.0080482796)
(-4.8661785e-06 9.943252e-05 0.012217543)
(-6.3276653e-06 0.00013447456 0.01705314)
(-8.3586617e-06 0.00017270125 0.022625956)
(-6.3144776e-06 0.00021433807 0.028997415)
(2.2073848e-06 0.0002592211 0.036174788)
(1.0778193e-05 0.0003087184 0.044181593)
(3.0421088e-05 0.00036369835 0.052950465)
(5.8321336e-05 0.00042532308 0.062310074)
(9.7459783e-05 0.0004953538 0.071928071)
(0.00014472087 0.00057567875 0.081227876)
(0.00019226426 0.00066729727 0.089267526)
(0.00022216612 0.00076676292 0.094564566)
(-2.3644454e-06 1.9997143e-05 0.0014802384)
(-6.6518192e-06 6.2330975e-05 0.0046646038)
(-1.0946714e-05 0.00011091429 0.0083893895)
(-1.3774872e-05 0.00016644934 0.012727241)
(-1.4914547e-05 0.00022933614 0.017751917)
(-1.2836666e-05 0.00030002394 0.023533156)
(-5.6739392e-06 0.0003787788 0.030128531)
(7.1772499e-06 0.00046673036 0.037605833)
(3.1145495e-05 0.00056537186 0.045936246)
(6.7058717e-05 0.00067527774 0.055049121)
(0.00011950459 0.00080056841 0.064768444)
(0.00018979954 0.0009456866 0.074757138)
(0.00027666502 0.00111631 0.084436926)
(0.0003720246 0.001317364 0.092873223)
(0.00045465593 0.0015490329 0.09861034)
(-4.7604287e-06 2.4212786e-05 0.0015977905)
(-1.3885077e-05 7.5395621e-05 0.0050374263)
(-2.2081422e-05 0.00013422848 0.0090582683)
(-2.7723014e-05 0.00020144023 0.013737359)
(-2.9284408e-05 0.00027771121 0.019152832)
(-2.4037605e-05 0.00036374688 0.025378435)
(-8.4933575e-06 0.00046027472 0.032475383)
(2.2304604e-05 0.00056800627 0.040479811)
(7.4949008e-05 0.00068730296 0.049382702)
(0.00015480479 0.0008201218 0.059104235)
(0.00026622236 0.00097681452 0.069456957)
(0.0004106489 0.0011688006 0.080092559)
(0.00058423216 0.0014058857 0.090429486)
(0.00077028089 0.001704589 0.099555247)
(0.00093167837 0.0020763468 0.10609666)
(-6.4671128e-06 2.4274837e-05 0.0017680426)
(-1.8120139e-05 7.4741378e-05 0.0055715955)
(-2.7139595e-05 0.00013222795 0.010011638)
(-3.0804401e-05 0.00019790371 0.015169791)
(-2.6300984e-05 0.00027259138 0.021127708)
(-9.1820729e-06 0.00035776113 0.027960582)
(2.6144483e-05 0.00045515119 0.035727825)
(8.7145702e-05 0.00056709817 0.044459297)
(0.00018699581 0.00069693492 0.054135717)
(0.00029855446 0.00084937334 0.064661145)
(0.00049760176 0.0010352317 0.075827059)
(0.00072359895 0.0012713823 0.08726094)
(0.0010127156 0.0015852332 0.098367686)
(0.0013372649 0.0020098558 0.10825746)
(0.001696929 0.0025354092 0.11566424)
(-2.4814184e-06 1.3620542e-05 0.0019803573)
(-8.2135907e-06 4.1499332e-05 0.0062359286)
(-3.8456787e-06 7.7861647e-05 0.011193297)
(7.7982652e-06 0.00012123893 0.016938163)
(3.4748152e-05 0.00017533095 0.023554248)
(8.1110089e-05 0.00024209112 0.031115529)
(0.0001543012 0.00032522743 0.039675497)
(0.00026143896 0.00042925123 0.049251819)
(0.00040978932 0.00056144445 0.059805336)
(0.00061391281 0.00072940659 0.071212434)
(0.00088390503 0.00094352694 0.083224557)
(0.0012231313 0.0012196277 0.095425577)
(0.0016531253 0.0015717846 0.10718174)
(0.0021811998 0.002029845 0.11759425)
(0.0027982902 0.0026324292 0.12547697)
(9.828209e-07 6.0844864e-06 0.0022217079)
(2.4604616e-06 1.7642508e-05 0.0069897575)
(1.7264771e-05 3.7662977e-05 0.012529508)
(4.2001249e-05 6.3802426e-05 0.018929568)
(8.6419056e-05 0.00010152703 0.026273312)
(0.00015537445 0.00015372453 0.03462964)
(0.00025814305 0.00022623713 0.044040177)
(0.00040448595 0.00032618249 0.054501373)
(0.00060711435 0.00046424321 0.065940393)
(0.00087910873 0.00065722577 0.078183871)
(0.0012456289 0.00090201589 0.090918887)
(0.0017272741 0.001220626 0.10365)
(0.0023557114 0.0016327642 0.11565842)
(0.0031784281 0.0021546972 0.12597457)
(0.0042466863 0.0028141472 0.13337967)
(-1.104389e-06 -1.2178756e-06 0.0015519898)
(-1.7417641e-07 -3.4481139e-06 0.0048960061)
(-7.418754e-07 -5.7591613e-06 0.0088025808)
(-2.4222448e-06 -7.9417172e-06 0.013345128)
(-4.9887572e-06 -9.6956359e-06 0.018596871)
(-1.3848383e-05 -1.0795338e-05 0.024625279)
(-1.7484226e-05 -1.0042108e-05 0.03148337)
(-3.3526855e-05 -8.2285261e-06 0.039196713)
(-5.4416975e-05 -6.1204683e-06 0.047744563)
(-8.360055e-05 -3.0414972e-06 0.057032485)
(-0.0001233267 2.1646257e-07 0.066854015)
(-0.00017508359 2.5492752e-06 0.076836335)
(-0.00023958841 4.4667188e-06 0.086363302)
(-0.00031354016 3.2470559e-06 0.094462489)
(-0.00036778772 -2.394845e-06 0.09962771)
(2.9970032e-07 -2.7447445e-06 0.001621671)
(6.8546657e-07 -8.0184306e-06 0.0051141168)
(3.9770122e-08 -1.3572256e-05 0.0091922293)
(-2.1434702e-06 -1.9238184e-05 0.013931862)
(-6.6392193e-06 -2.4691218e-05 0.019408206)
(-1.4473188e-05 -2.9231437e-05 0.025690011)
(-2.6772388e-05 -3.240801e-05 0.032830619)
(-4.4892102e-05 -3.5646133e-05 0.040854388)
(-7.0549032e-05 -4.0705613e-05 0.049737043)
(-0.00010688214 -4.5285978e-05 0.059378139)
(-0.00015636943 -4.9915981e-05 0.069562049)
(-0.000219647 -5.5948617e-05 0.079905302)
(-0.00029805009 -6.988489e-05 0.089786992)
(-0.0003774477 -0.00011484907 0.098254286)
(-0.00044917117 -0.0001619414 0.10387489)
(1.5979043e-06 -3.1212016e-06 0.0017608608)
(1.6023912e-06 -9.8050446e-06 0.0055488169)
(1.4125987e-06 -1.7011884e-05 0.0099674107)
(-8.0352138e-07 -2.4762728e-05 0.015096798)
(-5.9570403e-06 -3.3041509e-05 0.021015386)
(-1.5428756e-05 -4.1865395e-05 0.027793566)
(-3.1051778e-05 -5.0668287e-05 0.035483719)
(-5.4829159e-05 -5.9346339e-05 0.044105573)
(-8.9984324e-05 -6.6438617e-05 0.053625366)
(-0.00013990282 -7.3755484e-05 0.063926464)
(-0.00020589871 -8.2579687e-05 0.074759405)
(-0.0002870748 -9.7500832e-05 0.085699154)
(-0.00039483544 -0.00014498044 0.096108595)
(-0.00046483915 -0.0002169956 0.10509568)
(-0.00059140729 -0.00028851581 0.11135655)
(1.0976467e-06 -3.497067e-06 0.0019660237)
(2.4723244e-06 -1.046798e-05 0.0061875897)
(1.9586096e-06 -1.8333333e-05 0.011103707)
(-1.5598987e-06 -2.7154418e-05 0.016799709)
(-9.4964435e-06 -3.6788467e-05 0.023357405)
(-2.3945706e-05 -4.6936859e-05 0.030848183)
(-4.6815734e-05 -5.8584801e-05 0.039322153)
(-8.172723e-05 -6.9033045e-05 0.048793071)
(-0.00013105244 -7.7664719e-05 0.059218338)
(-0.00019727901 -8.6527843e-05 0.070465167)
(-0.00027940924 -0.00010695894 0.08207617)
(-0.00039531609 -0.0001449432 0.093452699)
(-0.00048712001 -0.00019457131 0.10409663)
(-0.0006078228 -0.00028015906 0.11343652)
(-0.00070867396 -0.00039319649 0.12039904)
(8.8118279e-07 -2.2393404e-06 0.0022207159)
(1.6279598e-06 -6.699128e-06 0.0069758166)
(-1.7131837e-07 -1.2147734e-05 0.01249783)
(-5.8741663e-06 -1.8639578e-05 0.018873858)
(-1.6822362e-05 -2.7351513e-05 0.026183548)
(-3.5759677e-05 -3.721337e-05 0.034490348)
(-6.4592124e-05 -5.0638047e-05 0.043828068)
(-0.00010688223 -6.6295347e-05 0.054182356)
(-0.0001654603 -8.5129165e-05 0.065467122)
(-0.00024045398 -0.0001161118 0.07730194)
(-0.00033068945 -0.00015547801 0.08939302)
(-0.00043089592 -0.00018775392 0.10164048)
(-0.00056741382 -0.00022385448 0.11311498)
(-0.00065150537 -0.00032021557 0.1227963)
(-0.00073914022 -0.00044616545 0.12918902)
(3.5928539e-07 -8.207286e-07 0.0025207648)
(-7.6206161e-08 -2.7825617e-06 0.0078980839)
(-3.6216413e-06 -6.413256e-06 0.014119968)
(-1.174892e-05 -1.2537522e-05 0.02126962)
(-2.6929009e-05 -2.1083242e-05 0.029414312)
(-5.0824386e-05 -3.4643789e-05 0.038592065)
(-8.7516685e-05 -5.1207018e-05 0.048792415)
(-0.00013770411 -7.6466664e-05 0.059931012)
(-0.00020292643 -0.00011319326 0.071816277)
(-0.00028350666 -0.00015572083 0.08432643)
(-0.00037940859 -0.00019790803 0.097238886)
(-0.00048171408 -0.00024969401 0.10977916)
(-0.00058833965 -0.00030908631 0.1212255)
(-0.00065661593 -0.00037779022 0.13006986)
(-0.00071899591 -0.0004414598 0.13485875)
(8.0078926e-08 3.9989931e-07 0.0015583781)
(-2.52709e-08 1.2471018e-06 0.0049107359)
(3.3329066e-07 2.060377e-06 0.0088282005)
(7.1445578e-07 2.6961713e-06 0.013384998)
(1.4874771e-06 2.794942e-06 0.018655378)
(2.6345812e-06 1.7117316e-06 0.024707964)
(4.1809334e-06 5.3104355e-07 0.031596952)
(5.9956693e-06 -2.3968e-07 0.039347644)
(8.3270719e-06 -7.4764079e-07 0.047936578)
(1.1153826e-05 -1.0165043e-06 0.05726996)
(1.3164456e-05 -7.6220707e-07 0.067143622)
(1.4971027e-05 3.2656428e-08 0.077179225)
(1.7267002e-05 4.4740672e-07 0.086757967)
(1.6343099e-05 2.1968197e-07 0.094919378)
(9.4729887e-06 -1.1093805e-06 0.10020482)
(-2.2696549e-07 -8.5467795e-08 0.0016270033)
(1.3229062e-06 -4.6913345e-08 0.0051295487)
(6.3151614e-07 -4.0470325e-07 0.0092187689)
(2.4386333e-06 -4.9429481e-07 0.013974331)
(5.069547e-06 -5.4179462e-07 0.019473103)
(2.0785806e-06 -8.3384027e-07 0.025785652)
(6.0423715e-06 4.5307387e-07 0.032967954)
(9.7250085e-06 1.2461517e-06 0.041051499)
(7.8781455e-06 2.4944506e-06 0.049996014)
(1.0735218e-05 4.2305137e-06 0.059675433)
(1.2372695e-05 7.632679e-06 0.069894768)
(1.3593052e-05 1.1312383e-05 0.080280529)
(1.1385043e-05 1.2222343e-05 0.090218371)
(7.91963e-06 9.9836851e-06 0.098718318)
(6.3355311e-06 3.9227413e-06 0.10449341)
(3.2679655e-07 -9.2401284e-07 0.0017657241)
(4.9277325e-07 -2.9978529e-06 0.0055634212)
(1.005826e-06 -4.6328773e-06 0.0099942076)
(1.3733276e-06 -6.0410804e-06 0.01513965)
(1.7231304e-06 -6.476778e-06 0.021078608)
(2.1528909e-06 -4.8926662e-06 0.027876037)
(2.8864091e-06 -2.3729125e-06 0.035580719)
(4.3058467e-06 3.8131384e-07 0.044209768)
(6.7872807e-06 6.5846973e-06 0.053735293)
(9.2267677e-06 1.5256313e-05 0.064066314)
(9.0575668e-06 2.6595007e-05 0.074942279)
(5.6344823e-06 3.7117677e-05 0.08594822)
(-1.5677104e-06 4.0338762e-05 0.096410222)
(-1.0477747e-06 2.9388466e-05 0.1058392)
(-1.9683742e-05 1.6676825e-05 0.1125244)
(3.0297117e-07 -4.475952e-07 0.0019619197)
(4.2014461e-07 -1.3634273e-06 0.0061713175)
(1.033528e-06 -1.8389845e-06 0.011079131)
(1.5868473e-06 -1.829176e-06 0.016763603)
(2.9650729e-06 -5.1902048e-07 0.02330246)
(4.6805879e-06 2.093722e-06 0.030780382)
(7.2288461e-06 7.2782398e-06 0.039231408)
(1.0933168e-05 1.6210796e-05 0.048634483)
(1.4193586e-05 2.8235504e-05 0.059004353)
(1.6532031e-05 4.6343982e-05 0.070213864)
(1.327949e-05 7.1339525e-05 0.081964502)
(4.58356e-06 8.0623107e-05 0.093811672)
(-8.562834e-06 6.6626424e-05 0.10505143)
(-1.095649e-05 1.2670153e-05 0.11493857)
(-3.7426844e-05 -2.6126566e-06 0.12200871)
(6.8740913e-08 5.6737358e-07 0.002196587)
(-1.6100578e-07 1.6417327e-06 0.0069080266)
(7.3095351e-07 3.4403035e-06 0.012384089)
(2.2170906e-06 5.6848111e-06 0.018723429)
(4.3612918e-06 8.5118904e-06 0.026005684)
(8.0035816e-06 1.2500406e-05 0.034295329)
(1.291755e-05 1.8139375e-05 0.043649419)
(1.7256995e-05 2.6124783e-05 0.054014348)
(2.2812294e-05 3.8212799e-05 0.065345348)
(2.4913403e-05 5.5625165e-05 0.077469996)
(3.0421471e-05 5.4851805e-05 0.090076931)
(3.2955015e-05 4.8741248e-05 0.1026924)
(2.6930044e-05 3.1484698e-05 0.1146539)
(1.9057091e-05 1.0881367e-05 0.12414702)
(-1.1430791e-05 1.7829519e-05 0.13126146)
(4.8310456e-07 2.8027714e-07 0.0024746931)
(1.1837434e-06 5.055615e-07 0.0077761288)
(3.6393413e-06 1.5539402e-06 0.013920976)
(6.947986e-06 3.0941168e-06 0.020990843)
(1.2539803e-05 5.4191688e-06 0.029066656)
(1.9968813e-05 9.283888e-06 0.038199746)
(3.0437789e-05 1.3892616e-05 0.048406585)
(4.4491046e-05 1.8487446e-05 0.059722183)
(5.8412254e-05 2.0259258e-05 0.071975456)
(7.2721113e-05 1.300115e-05 0.084929855)
(7.8112954e-05 8.8300092e-06 0.09819676)
(6.7692014e-05 5.1529738e-06 0.11119097)
(3.5576602e-05 -1.4654883e-06 0.12308872)
(-6.9499828e-06 4.137808e-06 0.13279912)
(-6.0920352e-05 -7.6759709e-06 0.13779725)
(1.4941121e-07 -5.2484782e-06 0.0017459212)
(6.0627528e-07 -1.5910295e-05 0.0055027313)
(8.434308e-07 -2.7615911e-05 0.0098890004)
(8.5376049e-07 -4.0282847e-05 0.014985105)
(1.5975156e-07 -5.3787738e-05 0.020869037)
(-9.8517404e-07 -6.771549e-05 0.027626798)
(-3.3729683e-06 -8.1752892e-05 0.035317304)
(-7.5919861e-06 -9.5327775e-05 0.043960044)
(-1.5987921e-05 -0.00010810644 0.053524417)
(-2.6332524e-05 -0.00012022982 0.063897727)
(-6.407124e-05 -0.00013054109 0.074841779)
(-7.6821473e-05 -0.00014238877 0.085933095)
(-0.00014130452 -0.00015301175 0.096480575)
(-0.00020937379 -0.00017052177 0.10540563)
(-0.00032213555 -0.00019179592 0.11105635)
(1.0223285e-06 -7.5386143e-06 0.0018246014)
(3.4970864e-06 -2.3958158e-05 0.0057497631)
(5.8516178e-06 -4.3423042e-05 0.010331239)
(8.5220944e-06 -6.620007e-05 0.015652197)
(1.1176567e-05 -9.2653947e-05 0.021792613)
(1.3573939e-05 -0.00012271263 0.028839487)
(1.3630895e-05 -0.00015605549 0.036849673)
(9.7669726e-06 -0.00019171993 0.045840493)
(-1.0271228e-06 -0.00022756976 0.055777611)
(-1.835339e-05 -0.00026506793 0.066541012)
(-6.7694466e-05 -0.00030416559 0.077882442)
(-9.9028254e-05 -0.00034403537 0.089365384)
(-0.00019671706 -0.00038515062 0.10028887)
(-0.00029798042 -0.00044455878 0.10958192)
(-0.00046702702 -0.00053254072 0.11565441)
(4.4501161e-06 -1.7797214e-05 0.0019793118)
(1.1851054e-05 -5.524959e-05 0.0062444521)
(1.8709465e-05 -9.720201e-05 0.011219923)
(2.421109e-05 -0.00014409037 0.016996837)
(2.7228888e-05 -0.00019577408 0.023667506)
(2.5321239e-05 -0.00025190685 0.031282882)
(1.6374968e-05 -0.00031219641 0.039894931)
(-3.1560323e-06 -0.00037615119 0.049532429)
(-3.7032623e-05 -0.00044467017 0.060154714)
(-9.0732628e-05 -0.00051598098 0.071622654)
(-0.00017146936 -0.00058683075 0.083657656)
(-0.00028127472 -0.00066241478 0.095786798)
(-0.000421662 -0.00074149142 0.10727527)
(-0.00060261505 -0.00087675582 0.11704686)
(-0.00082308907 -0.0010532817 0.12356801)
(8.2335896e-06 -1.9424012e-05 0.0022088782)
(1.8366464e-05 -6.1608138e-05 0.0069503704)
(2.8723377e-05 -0.00010869971 0.01246928)
(3.648353e-05 -0.00016145608 0.018859238)
(3.9305583e-05 -0.0002200943 0.026208573)
(3.4426804e-05 -0.00028498773 0.034591542)
(1.7422596e-05 -0.00035493959 0.044055183)
(-1.6296728e-05 -0.00043271093 0.054600118)
(-7.3652919e-05 -0.00051930448 0.066153777)
(-0.00016217469 -0.00061433179 0.07853478)
(-0.00029198177 -0.00072170135 0.091408225)
(-0.00044853559 -0.00084541268 0.10423346)
(-0.00069460999 -0.0010040846 0.11620822)
(-0.00091408443 -0.0012234352 0.1262145)
(-0.0012939359 -0.0014638127 0.13277084)
(1.0352983e-05 -1.7857606e-05 0.002499612)
(2.2461917e-05 -5.8285404e-05 0.0078508767)
(3.3829049e-05 -0.00010369057 0.014063569)
(4.0179709e-05 -0.00015582928 0.021234307)
(3.7444722e-05 -0.00021457505 0.029449937)
(2.1471169e-05 -0.00028212055 0.038776581)
(-1.4286533e-05 -0.00035756225 0.049242724)
(-7.5669828e-05 -0.00044411391 0.060815909)
(-0.00017120027 -0.00054448238 0.073372045)
(-0.00031014334 -0.0006628088 0.086657252)
(-0.00049970467 -0.00080505287 0.10024464)
(-0.00075117519 -0.00098565765 0.11349128)
(-0.0010545507 -0.0012117717 0.12550177)
(-0.0014347871 -0.0014606147 0.13510355)
(-0.0019252043 -0.001765661 0.14091122)
(1.0696878e-05 -1.1892573e-05 0.0028562591)
(1.831831e-05 -4.1748678e-05 0.0089482724)
(2.1728404e-05 -7.4618303e-05 0.015995586)
(1.4731279e-05 -0.00011302294 0.024091407)
(-7.0955395e-06 -0.0001597275 0.033310502)
(-5.0373848e-05 -0.00021567211 0.043693965)
(-0.00012085853 -0.00028753077 0.055227718)
(-0.00022873889 -0.00037593228 0.067814634)
(-0.00038233319 -0.00048544232 0.081240912)
(-0.00059010808 -0.00062148231 0.095140069)
(-0.00085862654 -0.00078983538 0.10896037)
(-0.0011926314 -0.00099484162 0.12194522)
(-0.0015769588 -0.001236344 0.13313852)
(-0.0020204568 -0.0015170661 0.14142923)
(-0.0025388744 -0.0019046339 0.14564623)
(3.031988e-07 -5.1000825e-06 0.0018508128)
(4.9399125e-07 -1.5178586e-05 0.0058307959)
(1.2053944e-06 -2.5873079e-05 0.010479404)
(1.6089216e-06 -3.6955203e-05 0.015883207)
(2.1679348e-06 -4.7955788e-05 0.02212821)
(2.6489834e-06 -5.8162557e-05 0.029293021)
(3.2719164e-06 -6.871572e-05 0.037438268)
(4.0564532e-06 -8.0399798e-05 0.046590763)
(4.8912894e-06 -9.4668507e-05 0.056720404)
(4.9603841e-06 -0.00011114075 0.067707099)
(4.2054819e-06 -0.00012241178 0.079294068)
(2.1593013e-06 -0.00013285226 0.091021601)
(5.9636415e-07 -0.00014045681 0.10249284)
(-9.5456243e-06 -0.0001505749 0.11222592)
(-3.9006899e-05 -0.0001530619 0.1184314)
(8.8019766e-07 -4.4913486e-06 0.0019244484)
(3.334912e-06 -1.4405444e-05 0.0060703972)
(6.4534282e-06 -2.641732e-05 0.01091278)
(1.1257758e-05 -4.063253e-05 0.016541626)
(1.6082056e-05 -5.752379e-05 0.023046594)
(2.8674453e-05 -7.6890566e-05 0.030509846)
(3.5534182e-05 -0.00010090101 0.03899527)
(4.2936491e-05 -0.00012776605 0.0485325)
(5.7864348e-05 -0.00015784158 0.059093741)
(3.5295907e-05 -0.00019288751 0.070561268)
(4.3177897e-05 -0.00023179054 0.082681976)
(2.4022812e-05 -0.0002762995 0.094997978)
(4.2952834e-06 -0.00032430013 0.10676052)
(-3.5043629e-05 -0.00038658453 0.11679051)
(-0.00012743344 -0.00043229752 0.12336358)
(3.1061278e-06 -1.3814609e-05 0.0020828754)
(9.1732968e-06 -4.2624705e-05 0.006572774)
(1.5484487e-05 -7.5229189e-05 0.011812353)
(2.175968e-05 -0.00011210637 0.01789763)
(2.7610269e-05 -0.00015373614 0.02492297)
(3.2410919e-05 -0.00020090234 0.032973767)
(3.4543456e-05 -0.00025201536 0.042114671)
(3.1862345e-05 -0.00030455692 0.052372295)
(2.2619792e-05 -0.00035856718 0.063710529)
(4.0579312e-06 -0.00041101066 0.075996387)
(-2.6673777e-05 -0.00047789441 0.088954364)
(-7.5093497e-05 -0.00055037395 0.10210724)
(-0.00016077723 -0.00063383449 0.11431697)
(-0.00025049869 -0.00074468617 0.12474636)
(-0.00043541797 -0.00081739173 0.13169603)
(5.0100777e-06 -1.4925741e-05 0.0023298296)
(1.4103614e-05 -4.6614664e-05 0.0073330298)
(2.3600299e-05 -8.2928948e-05 0.013159613)
(3.270075e-05 -0.00012435958 0.01991035)
(4.0389045e-05 -0.00017126236 0.027681413)
(4.5153268e-05 -0.00022388615 0.036555613)
(4.4614853e-05 -0.00028234707 0.046588278)
(3.5704349e-05 -0.00034678593 0.057786762)
(1.3795392e-05 -0.00041788486 0.070081604)
(-2.5916546e-05 -0.00049742513 0.083287169)
(-9.2004778e-05 -0.00058825634 0.097049787)
(-0.00019043994 -0.00069399521 0.11078191)
(-0.00034487328 -0.00081952931 0.12359943)
(-0.00051480486 -0.00098797396 0.13428474)
(-0.0008425474 -0.0011210796 0.1412119)