/*--------------------------------*- C++ -*----------------------------------*\
| =========                 |                                                 |
| \\      /  F ield         | OpenFOAM: The Open Source CFD Toolbox           |
|  \\    /   O peration     | Version:  4.0                                   |
|   \\  /    A nd           | Web:      www.OpenFOAM.org                      |
|    \\/     M anipulation  |                                                 |
\*---------------------------------------------------------------------------*/
FoamFile
{
    version     2.0;
    format      ascii;
    class       volScalarField;
    location    "2000";
    object      rho;
}
// * * * * * * * * * * * * * * * * * * * * * * * * * * * * * * * * * * * * * //

dimensions      [1 -3 0 0 0 0 0];

internalField   nonuniform List<scalar> 
100000
(
1.1568119
1.1593459
1.1620299
1.164848
1.1677777
1.17079
1.1738489
1.1769132
1.1799369
1.1828721
1.185671
1.1882891
1.190688
1.1928385
1.1947213
1.1963296
1.1976675
1.1987499
1.1995997
1.2002461
1.2007212
1.2010578
1.2012871
1.2014365
1.2015295
1.2015845
1.2016153
1.2016316
1.2016396
1.2016432
1.2016448
1.2016454
1.2016456
1.2016457
1.2016457
1.2016457
1.2016457
1.2016457
1.2016457
1.2016457
1.2016457
1.2016457
1.2016457
1.2016457
1.2016457
1.2016457
1.2016457
1.2016457
1.2016457
1.2016457
1.1577929
1.1603286
1.1630087
1.1658158
1.1687261
1.1717094
1.1747295
1.1777447
1.1807099
1.1835784
1.1863042
1.1888455
1.1911666
1.1932406
1.1950513
1.1965934
1.1978728
1.198905
1.1997134
1.2003267
1.2007764
1.2010942
1.2013101
1.2014505
1.2015376
1.201589
1.2016176
1.2016327
1.2016401
1.2016434
1.2016449
1.2016454
1.2016456
1.2016457
1.2016457
1.2016457
1.2016457
1.2016457
1.2016457
1.2016457
1.2016457
1.2016457
1.2016457
1.2016457
1.2016457
1.2016457
1.2016457
1.2016457
1.2016457
1.2016457
1.1602807
1.162926
1.1656764
1.1685106
1.1714025
1.1743217
1.1772335
1.1801004
1.1828833
1.1855433
1.1880435
1.1903514
1.1924407
1.194293
1.1958989
1.1972583
1.19838
1.1992808
1.1999833
1.2005143
1.2009022
1.2011754
1.2013604
1.2014803
1.2015544
1.201598
1.2016222
1.2016348
1.201641
1.2016439
1.201645
1.2016455
1.2016457
1.2016457
1.2016457
1.2016457
1.2016457
1.2016457
1.2016457
1.2016457
1.2016457
1.2016457
1.2016457
1.2016457
1.2016457
1.2016457
1.2016457
1.2016457
1.2016457
1.2016457
1.1695978
1.1721485
1.1746597
1.1771212
1.1795228
1.1818534
1.1841012
1.1862534
1.1882965
1.1902162
1.1919985
1.1936305
1.1951013
1.1964035
1.1975337
1.1984933
1.1992886
1.1999307
1.2004344
1.2008174
1.2010989
1.2012984
1.2014342
1.2015226
1.2015776
1.20161
1.2016281
1.2016376
1.2016422
1.2016443
1.2016452
1.2016456
1.2016457
1.2016457
1.2016457
1.2016457
1.2016457
1.2016457
1.2016457
1.2016457
1.2016457
1.2016457
1.2016457
1.2016457
1.2016457
1.2016457
1.2016457
1.2016457
1.2016457
1.2016457
1.2048294
1.2031594
1.2017098
1.200491
1.1995079
1.1987595
1.1982379
1.1979293
1.1978132
1.1978642
1.1980524
1.1983454
1.1987101
1.1991145
1.1995299
1.1999318
1.2003014
1.200626
1.2008988
1.2011185
1.2012879
1.2014129
1.2015009
1.2015599
1.2015974
1.2016201
1.2016329
1.2016397
1.2016431
1.2016447
1.2016453
1.2016456
1.2016457
1.2016457
1.2016457
1.2016457
1.2016457
1.2016457
1.2016457
1.2016457
1.2016457
1.2016457
1.2016457
1.2016457
1.2016457
1.2016457
1.2016457
1.2016457
1.2016457
1.2016457
1.2048318
1.2031618
1.2017121
1.2004931
1.1995098
1.1987611
1.1982394
1.1979305
1.1978142
1.1978649
1.1980529
1.1983457
1.1987104
1.1991148
1.1995302
1.1999319
1.2003014
1.2006259
1.2008987
1.2011185
1.2012879
1.2014128
1.2015008
1.2015599
1.2015974
1.20162
1.2016329
1.2016397
1.2016431
1.2016447
1.2016453
1.2016456
1.2016457
1.2016457
1.2016457
1.2016457
1.2016457
1.2016457
1.2016457
1.2016457
1.2016457
1.2016457
1.2016457
1.2016457
1.2016457
1.2016457
1.2016457
1.2016457
1.2016457
1.2016457
1.1696114
1.1721602
1.1746696
1.1771295
1.1795295
1.1818587
1.1841053
1.1862564
1.1882985
1.1902173
1.191999
1.1936306
1.1951012
1.1964032
1.1975334
1.198493
1.1992883
1.1999304
1.2004341
1.2008172
1.2010988
1.2012983
1.2014341
1.2015226
1.2015776
1.20161
1.2016281
1.2016376
1.2016422
1.2016443
1.2016452
1.2016456
1.2016457
1.2016457
1.2016457
1.2016457
1.2016457
1.2016457
1.2016457
1.2016457
1.2016457
1.2016457
1.2016457
1.2016457
1.2016457
1.2016457
1.2016457
1.2016457
1.2016457
1.2016457
1.1602799
1.1629234
1.1656724
1.1685055
1.1713967
1.1743153
1.1772268
1.1800937
1.1828768
1.1855372
1.1880379
1.1903464
1.1924364
1.1942893
1.1958958
1.1972558
1.1983781
1.1992794
1.1999823
1.2005135
1.2009017
1.2011751
1.2013602
1.2014802
1.2015544
1.2015979
1.2016222
1.2016348
1.201641
1.2016438
1.201645
1.2016455
1.2016457
1.2016457
1.2016457
1.2016457
1.2016457
1.2016457
1.2016457
1.2016457
1.2016457
1.2016457
1.2016457
1.2016457
1.2016457
1.2016457
1.2016457
1.2016457
1.2016457
1.2016457
1.1577296
1.1602703
1.1629554
1.1657674
1.1686826
1.1716707
1.1746953
1.1777149
1.1806842
1.1835565
1.186286
1.1888305
1.1911544
1.193231
1.1950438
1.1965877
1.1978685
1.1989019
1.1997112
1.2003252
1.2007754
1.2010936
1.2013097
1.2014503
1.2015375
1.2015889
1.2016176
1.2016326
1.2016401
1.2016434
1.2016449
1.2016454
1.2016456
1.2016457
1.2016457
1.2016457
1.2016457
1.2016457
1.2016457
1.2016457
1.2016457
1.2016457
1.2016457
1.2016457
1.2016457
1.2016457
1.2016457
1.2016457
1.2016457
1.2016457
1.1567329
1.1592722
1.1619616
1.1647852
1.1677206
1.1707386
1.1738032
1.1768731
1.1799022
1.1828425
1.1856462
1.1882686
1.1906715
1.1928254
1.1947112
1.1963219
1.1976618
1.1987458
1.1995968
1.2002441
1.2007199
1.201057
1.2012866
1.2014362
1.2015294
1.2015845
1.2016153
1.2016315
1.2016396
1.2016432
1.2016448
1.2016454
1.2016456
1.2016457
1.2016457
1.2016457
1.2016457
1.2016457
1.2016457
1.2016457
1.2016457
1.2016457
1.2016457
1.2016457
1.2016457
1.2016457
1.2016457
1.2016457
1.2016457
1.2016457
1.1467198
1.1489986
1.1514214
1.1539863
1.1566886
1.1595198
1.1624668
1.1655117
1.1686307
1.1717948
1.1749688
1.178113
1.1811841
1.184137
1.1869271
1.1895136
1.191861
1.1939424
1.1957412
1.1972524
1.1984827
1.19945
1.2001819
1.2007124
1.201079
1.2013197
1.2014688
1.2015554
1.2016024
1.201626
1.201637
1.2016416
1.2016434
1.201644
1.2016442
1.2016442
1.2016442
1.2016442
1.2016442
1.2016442
1.2016442
1.2016442
1.2016442
1.2016442
1.2016442
1.2016442
1.2016442
1.2016442
1.2016442
1.2016442
1.1483373
1.1506224
1.1530472
1.155608
1.1582976
1.1611053
1.1640164
1.167011
1.1700648
1.1731483
1.1762275
1.1792645
1.1822189
1.1850493
1.1877156
1.1901808
1.1924134
1.1943898
1.1960954
1.1975262
1.1986893
1.1996018
1.20029
1.2007868
1.2011283
1.2013506
1.201487
1.2015654
1.2016075
1.2016284
1.2016379
1.201642
1.2016435
1.201644
1.2016442
1.2016442
1.2016442
1.2016442
1.2016442
1.2016442
1.2016442
1.2016442
1.2016442
1.2016442
1.2016442
1.2016442
1.2016442
1.2016442
1.2016442
1.2016442
1.1519098
1.1543681
1.156926
1.1595743
1.1623019
1.1650954
1.1679387
1.1708132
1.1736973
1.1765664
1.1793934
1.1821492
1.1848027
1.1873229
1.1896793
1.191844
1.1937932
1.1955091
1.1969814
1.1982088
1.1991991
1.1999695
1.2005449
1.2009555
1.2012343
1.2014135
1.2015221
1.2015836
1.2016162
1.2016323
1.2016395
1.2016426
1.2016437
1.2016441
1.2016442
1.2016442
1.2016442
1.2016442
1.2016442
1.2016442
1.2016442
1.2016442
1.2016442
1.2016442
1.2016442
1.2016442
1.2016442
1.2016442
1.2016442
1.2016442
1.1633212
1.1657069
1.1680583
1.1703737
1.1726528
1.1748963
1.1771051
1.1792791
1.1814164
1.1835123
1.1855585
1.187544
1.1894536
1.1912693
1.1929706
1.1945373
1.1959516
1.1971991
1.1982705
1.1991631
1.1998822
1.2004402
1.2008557
1.2011509
1.2013509
1.2014792
1.2015569
1.201601
1.2016243
1.2016357
1.2016409
1.201643
1.2016438
1.2016441
1.2016442
1.2016442
1.2016442
1.2016442
1.2016442
1.2016442
1.2016442
1.2016442
1.2016442
1.2016442
1.2016442
1.2016442
1.2016442
1.2016442
1.2016442
1.2016442
1.2000427
1.198315
1.1968181
1.1955649
1.194564
1.1938184
1.1933259
1.1930783
1.193062
1.1932578
1.1936407
1.1941815
1.1948459
1.1955965
1.1963936
1.1972017
1.1979877
1.1987236
1.1993847
1.1999541
1.2004258
1.2008007
1.2010852
1.201291
1.2014323
1.201524
1.2015801
1.2016122
1.2016293
1.2016378
1.2016417
1.2016433
1.2016439
1.2016441
1.2016442
1.2016442
1.2016442
1.2016442
1.2016442
1.2016442
1.2016442
1.2016442
1.2016442
1.2016442
1.2016442
1.2016442
1.2016442
1.2016442
1.2016442
1.2016442
1.2000387
1.198311
1.1968141
1.1955611
1.1945598
1.1938139
1.1933212
1.1930741
1.1930586
1.1932548
1.193638
1.1941775
1.1948396
1.1955885
1.1963881
1.1972001
1.197989
1.1987237
1.1993833
1.1999536
1.2004261
1.2008009
1.2010852
1.2012909
1.2014322
1.201524
1.2015801
1.2016122
1.2016293
1.2016378
1.2016417
1.2016433
1.2016439
1.2016441
1.2016442
1.2016442
1.2016442
1.2016442
1.2016442
1.2016442
1.2016442
1.2016442
1.2016442
1.2016442
1.2016442
1.2016442
1.2016442
1.2016442
1.2016442
1.2016442
1.1633043
1.1656903
1.1680421
1.1703581
1.1726384
1.1748836
1.1770945
1.1792708
1.1814098
1.1835066
1.1855534
1.1875383
1.1894466
1.1912613
1.1929628
1.1945309
1.1959468
1.1971954
1.1982675
1.1991608
1.1998805
1.200439
1.2008548
1.2011506
1.2013507
1.2014792
1.2015569
1.201601
1.2016243
1.2016357
1.2016409
1.201643
1.2016438
1.2016441
1.2016442
1.2016442
1.2016442
1.2016442
1.2016442
1.2016442
1.2016442
1.2016442
1.2016442
1.2016442
1.2016442
1.2016442
1.2016442
1.2016442
1.2016442
1.2016442
1.1518736
1.1543323
1.156891
1.1595404
1.1622695
1.1650647
1.1679099
1.1707863
1.1736724
1.1765435
1.1793728
1.1821307
1.1847865
1.187309
1.1896677
1.1918345
1.1937856
1.195503
1.1969767
1.1982053
1.1991966
1.1999678
1.2005438
1.200955
1.2012342
1.2014132
1.2015217
1.2015834
1.2016162
1.2016322
1.2016395
1.2016426
1.2016437
1.2016441
1.2016442
1.2016442
1.2016442
1.2016442
1.2016442
1.2016442
1.2016442
1.2016442
1.2016442
1.2016442
1.2016442
1.2016442
1.2016442
1.2016442
1.2016442
1.2016442
1.1482453
1.1505358
1.1529662
1.1555325
1.1582278
1.1610411
1.1639577
1.166958
1.1700172
1.1731061
1.1761904
1.1792324
1.1821915
1.1850264
1.1876968
1.1901656
1.1924014
1.1943804
1.1960884
1.1975211
1.1986856
1.1995993
1.2002884
1.2007857
1.2011276
1.2013502
1.2014867
1.2015653
1.2016074
1.2016283
1.2016379
1.201642
1.2016435
1.201644
1.2016442
1.2016442
1.2016442
1.2016442
1.2016442
1.2016442
1.2016442
1.2016442
1.2016442
1.2016442
1.2016442
1.2016442
1.2016442
1.2016442
1.2016442
1.2016442
1.1466113
1.1488958
1.1513243
1.1538953
1.1566038
1.1594414
1.162395
1.1654464
1.1685721
1.1717427
1.1749231
1.1780736
1.1811505
1.1841089
1.1869041
1.1894951
1.1918465
1.1939313
1.1957329
1.1972464
1.1984785
1.1994471
1.2001801
1.2007112
1.2010783
1.2013193
1.2014686
1.2015553
1.2016024
1.201626
1.201637
1.2016416
1.2016434
1.201644
1.2016442
1.2016442
1.2016442
1.2016442
1.2016442
1.2016442
1.2016442
1.2016442
1.2016442
1.2016442
1.2016442
1.2016442
1.2016442
1.2016442
1.2016442
1.2016442
1.142016
1.1441728
1.1464657
1.1488957
1.1514619
1.1541614
1.1569884
1.1599338
1.1629845
1.1661228
1.1693254
1.1725634
1.1758021
1.1790012
1.1821158
1.1850988
1.1879026
1.1904826
1.192801
1.1948286
1.1965501
1.1979647
1.1990847
1.1999364
1.2005561
1.2009854
1.2012671
1.2014411
1.2015417
1.2015958
1.2016227
1.2016349
1.20164
1.2016419
1.2016425
1.2016427
1.2016427
1.2016427
1.2016427
1.2016427
1.2016427
1.2016427
1.2016427
1.2016427
1.2016427
1.2016427
1.2016427
1.2016427
1.2016427
1.2016427
1.143813
1.1459776
1.1482751
1.1507044
1.1532622
1.1559434
1.1587399
1.1616406
1.1646311
1.1676927
1.1708023
1.1739318
1.1770486
1.1801152
1.183091
1.1859328
1.1885981
1.191047
1.1932457
1.1951691
1.1968043
1.1981497
1.199216
1.2000273
1.2006168
1.2010243
1.2012908
1.2014547
1.201549
1.2015994
1.2016243
1.2016356
1.2016402
1.2016419
1.2016425
1.2016427
1.2016427
1.2016427
1.2016427
1.2016427
1.2016427
1.2016427
1.2016427
1.2016427
1.2016427
1.2016427
1.2016427
1.2016427
1.2016427
1.2016427
1.1476269
1.1499788
1.1524242
1.1549567
1.1575693
1.1602538
1.1630011
1.1658005
1.1686392
1.1715022
1.1743716
1.1772261
1.1800408
1.1827873
1.1854342
1.1879483
1.1902962
1.1924464
1.1943722
1.1960533
1.1974788
1.1986483
1.199573
1.2002733
1.200779
1.2011259
1.2013509
1.2014881
1.2015663
1.2016077
1.2016279
1.201637
1.2016407
1.2016421
1.2016426
1.2016427
1.2016427
1.2016427
1.2016427
1.2016427
1.2016427
1.2016427
1.2016427
1.2016427
1.2016427
1.2016427
1.2016427
1.2016427
1.2016427
1.2016427
1.1594158
1.1616986
1.1639458
1.1661594
1.1683433
1.170503
1.1726448
1.1747748
1.1768974
1.1790149
1.1811256
1.1832234
1.1852973
1.1873311
1.189304
1.1911913
1.1929662
1.1946017
1.1960736
1.197363
1.1984587
1.1993572
1.2000655
1.2006007
1.2009865
1.2012507
1.2014217
1.2015258
1.2015851
1.2016163
1.2016316
1.2016384
1.2016412
1.2016423
1.2016426
1.2016427
1.2016427
1.2016427
1.2016427
1.2016427
1.2016427
1.2016427
1.2016427
1.2016427
1.2016427
1.2016427
1.2016427
1.2016427
1.2016427
1.2016427
1.1962954
1.1945144
1.1929645
1.1916608
1.1906144
1.1898322
1.1893164
1.1890641
1.189067
1.1893114
1.1897775
1.1904403
1.1912693
1.1922289
1.1932807
1.1943821
1.1954915
1.1965664
1.1975722
1.1984785
1.1992653
1.1999218
1.2004468
1.2008479
1.2011397
1.2013409
1.2014719
1.201552
1.2015978
1.2016221
1.201634
1.2016394
1.2016416
1.2016424
1.2016426
1.2016427
1.2016427
1.2016427
1.2016427
1.2016427
1.2016427
1.2016427
1.2016427
1.2016427
1.2016427
1.2016427
1.2016427
1.2016427
1.2016427
1.2016427
1.196289
1.194508
1.1929582
1.1916547
1.1906084
1.1898265
1.1893109
1.1890587
1.1890619
1.1893064
1.189773
1.1904368
1.1912671
1.1922273
1.1932795
1.1943802
1.1954882
1.196564
1.1975697
1.1984771
1.1992648
1.1999215
1.2004466
1.2008477
1.2011395
1.2013408
1.2014719
1.201552
1.2015978
1.2016221
1.201634
1.2016394
1.2016416
1.2016424
1.2016426
1.2016427
1.2016427
1.2016427
1.2016427
1.2016427
1.2016427
1.2016427
1.2016427
1.2016427
1.2016427
1.2016427
1.2016427
1.2016427
1.2016427
1.2016427
1.1593947
1.161678
1.1639257
1.16614
1.1683246
1.1704851
1.1726278
1.1747585
1.1768819
1.179
1.1811114
1.1832104
1.1852858
1.1873214
1.1892959
1.1911845
1.1929602
1.1945963
1.1960688
1.1973589
1.1984554
1.1993548
1.2000639
1.2005996
1.2009858
1.2012503
1.2014215
1.2015257
1.201585
1.2016163
1.2016316
1.2016384
1.2016412
1.2016423
1.2016426
1.2016427
1.2016427
1.2016427
1.2016427
1.2016427
1.2016427
1.2016427
1.2016427
1.2016427
1.2016427
1.2016427
1.2016427
1.2016427
1.2016427
1.2016427
1.1475837
1.1499361
1.1523822
1.1549157
1.1575296
1.1602157
1.1629648
1.1657661
1.1686069
1.1714723
1.1743442
1.1772013
1.1800187
1.1827678
1.1854172
1.1879337
1.1902838
1.1924362
1.1943638
1.1960467
1.1974737
1.1986445
1.1995703
1.2002715
1.2007779
1.2011252
1.2013504
1.2014878
1.2015661
1.2016076
1.2016279
1.201637
1.2016407
1.2016421
1.2016426
1.2016427
1.2016427
1.2016427
1.2016427
1.2016427
1.2016427
1.2016427
1.2016427
1.2016427
1.2016427
1.2016427
1.2016427
1.2016427
1.2016427
1.2016427
1.1437208
1.1458899
1.1481921
1.1506261
1.1531888
1.1558748
1.1586761
1.1615817
1.1645771
1.1676436
1.170758
1.1738922
1.1770136
1.1800846
1.1830647
1.1859105
1.1885795
1.1910318
1.1932335
1.1951595
1.196797
1.1981443
1.1992123
1.2000248
1.2006152
1.2010234
1.2012902
1.2014544
1.2015488
1.2015993
1.2016243
1.2016356
1.2016402
1.2016419
1.2016425
1.2016427
1.2016427
1.2016427
1.2016427
1.2016427
1.2016427
1.2016427
1.2016427
1.2016427
1.2016427
1.2016427
1.2016427
1.2016427
1.2016427
1.2016427
1.1419088
1.1440703
1.1463681
1.1488032
1.1513748
1.1540797
1.1569124
1.1598636
1.1629202
1.1660644
1.1692731
1.1725171
1.1757617
1.1789664
1.1820865
1.1850745
1.1878829
1.190467
1.192789
1.1948196
1.1965435
1.1979601
1.1990815
1.1999343
1.2005548
1.2009846
1.2012666
1.2014408
1.2015416
1.2015957
1.2016226
1.2016349
1.20164
1.2016419
1.2016425
1.2016427
1.2016427
1.2016427
1.2016427
1.2016427
1.2016427
1.2016427
1.2016427
1.2016427
1.2016427
1.2016427
1.2016427
1.2016427
1.2016427
1.2016427
1.1392569
1.1413414
1.1435563
1.1459032
1.148382
1.1509913
1.1537274
1.1565842
1.159553
1.1626213
1.1657726
1.1689856
1.1722337
1.1754846
1.1787006
1.1818386
1.1848521
1.1876926
1.190314
1.1926749
1.1947438
1.196502
1.1979454
1.1990861
1.1999505
1.2005756
1.2010048
1.2012832
1.2014526
1.2015488
1.2015995
1.2016239
1.2016347
1.201639
1.2016406
1.2016411
1.2016412
1.2016412
1.2016412
1.2016412
1.2016412
1.2016412
1.2016412
1.2016412
1.2016412
1.2016412
1.2016412
1.2016412
1.2016412
1.2016412
1.1411246
1.1432173
1.145438
1.1477858
1.1502585
1.1528523
1.1555613
1.1583776
1.1612905
1.164287
1.1673502
1.1704593
1.1735892
1.1767101
1.1797868
1.1827804
1.1856486
1.1883483
1.1908373
1.1930791
1.1950451
1.1967181
1.1980947
1.1991854
1.2000137
1.200614
1.2010271
1.2012954
1.201459
1.201552
1.2016009
1.2016245
1.2016349
1.2016391
1.2016406
1.2016411
1.2016412
1.2016412
1.2016412
1.2016412
1.2016412
1.2016412
1.2016412
1.2016412
1.2016412
1.2016412
1.2016412
1.2016412
1.2016412
1.2016412
1.1450261
1.1473108
1.1496842
1.1521407
1.1546741
1.1572779
1.159945
1.1626676
1.1654371
1.1682435
1.1710746
1.1739158
1.1767491
1.1795523
1.1822994
1.1849604
1.187502
1.1898897
1.1920894
1.1940705
1.1958088
1.1972893
1.1985086
1.1994749
1.2002085
1.2007396
1.2011041
1.2013402
1.2014834
1.2015644
1.2016067
1.201627
1.2016359
1.2016394
1.2016407
1.2016411
1.2016412
1.2016412
1.2016412
1.2016412
1.2016412
1.2016412
1.2016412
1.2016412
1.2016412
1.2016412
1.2016412
1.2016412
1.2016412
1.2016412
1.1569179
1.1591341
1.1613122
1.1634546
1.1655666
1.1676552
1.1697287
1.171796
1.1738652
1.1759429
1.1780325
1.1801337
1.182241
1.1843434
1.186424
1.1884606
1.1904262
1.1922906
1.1940224
1.1955927
1.1969777
1.1981612
1.1991375
1.1999117
1.2004992
1.200924
1.2012149
1.2014029
1.2015166
1.2015807
1.2016141
1.2016301
1.2016371
1.2016398
1.2016408
1.2016411
1.2016412
1.2016412
1.2016412
1.2016412
1.2016412
1.2016412
1.2016412
1.2016412
1.2016412
1.2016412
1.2016412
1.2016412
1.2016412
1.2016412
1.1937077
1.1918879
1.1902968
1.18895
1.1878597
1.1870341
1.1864773
1.1861888
1.1861635
1.1863917
1.1868583
1.1875431
1.1884204
1.1894598
1.1906257
1.1918788
1.1931761
1.1944728
1.1957268
1.1968983
1.1979552
1.1988735
1.1996402
1.2002537
1.2007223
1.2010628
1.2012969
1.2014485
1.2015404
1.2015922
1.2016193
1.2016322
1.2016379
1.2016401
1.2016409
1.2016412
1.2016412
1.2016412
1.2016412
1.2016412
1.2016412
1.2016412
1.2016412
1.2016412
1.2016412
1.2016412
1.2016412
1.2016412
1.2016412
1.2016412
1.1937015
1.1918817
1.1902907
1.188944
1.1878538
1.1870283
1.1864716
1.1861832
1.1861582
1.1863864
1.1868531
1.187538
1.1884158
1.1894561
1.1906228
1.1918758
1.1931727
1.1944699
1.195724
1.1968961
1.1979533
1.1988722
1.1996396
1.2002533
1.2007221
1.2010627
1.2012968
1.2014484
1.2015403
1.2015922
1.2016193
1.2016322
1.2016379
1.2016401
1.2016409
1.2016412
1.2016412
1.2016412
1.2016412
1.2016412
1.2016412
1.2016412
1.2016412
1.2016412
1.2016412
1.2016412
1.2016412
1.2016412
1.2016412
1.2016412
1.1568986
1.1591151
1.1612934
1.1634362
1.1655485
1.1676375
1.1697115
1.1717794
1.1738493
1.1759276
1.1780179
1.1801197
1.1822278
1.1843311
1.186413
1.1884508
1.1904176
1.1922831
1.194016
1.1955873
1.1969732
1.1981578
1.1991349
1.1999098
1.2004979
1.2009231
1.2012145
1.2014026
1.2015165
1.2015807
1.2016141
1.2016301
1.2016371
1.2016398
1.2016408
1.2016411
1.2016412
1.2016412
1.2016412
1.2016412
1.2016412
1.2016412
1.2016412
1.2016412
1.2016412
1.2016412
1.2016412
1.2016412
1.2016412
1.2016412
1.1449852
1.1472701
1.149644
1.1521011
1.1546354
1.1572403
1.1599086
1.1626326
1.1654037
1.1682118
1.1710448
1.173888
1.1767234
1.1795288
1.1822782
1.1849414
1.1874854
1.1898754
1.1920773
1.1940605
1.1958007
1.1972831
1.1985038
1.1994714
1.2002062
1.200738
1.2011032
1.2013396
1.2014831
1.2015642
1.2016066
1.201627
1.2016359
1.2016394
1.2016407
1.2016411
1.2016412
1.2016412
1.2016412
1.2016412
1.2016412
1.2016412
1.2016412
1.2016412
1.2016412
1.2016412
1.2016412
1.2016412
1.2016412
1.2016412
1.1410386
1.1431352
1.1453597
1.1477115
1.1501882
1.152786
1.155499
1.1583193
1.1612364
1.164237
1.1673043
1.1704176
1.1735517
1.1766767
1.1797574
1.1827549
1.1856268
1.1883299
1.1908222
1.1930669
1.1950356
1.1967108
1.1980893
1.1991816
1.2000111
1.2006123
1.201026
1.2012948
1.2014587
1.2015518
1.2016008
1.2016245
1.2016349
1.2016391
1.2016406
1.2016411
1.2016412
1.2016412
1.2016412
1.2016412
1.2016412
1.2016412
1.2016412
1.2016412
1.2016412
1.2016412
1.2016412
1.2016412
1.2016412
1.2016412
1.1391575
1.1412459
1.1434649
1.1458161
1.1482994
1.1509132
1.153654
1.1565158
1.1594896
1.162563
1.1657194
1.1689376
1.1721909
1.175447
1.178668
1.181811
1.1848291
1.1876739
1.1902991
1.1926634
1.1947352
1.1964958
1.1979411
1.1990831
1.1999486
1.2005744
1.2010041
1.2012828
1.2014524
1.2015487
1.2015994
1.2016239
1.2016347
1.201639
1.2016406
1.2016411
1.2016412
1.2016412
1.2016412
1.2016412
1.2016412
1.2016412
1.2016412
1.2016412
1.2016412
1.2016412
1.2016412
1.2016412
1.2016412
1.2016412
1.1374997
1.1395381
1.1417035
1.1439975
1.1464205
1.1489715
1.1516478
1.1544447
1.1573551
1.1603691
1.1634733
1.1666501
1.1698778
1.1731291
1.1763715
1.1795669
1.1826724
1.1856414
1.1884265
1.1909822
1.1932692
1.1952587
1.1969343
1.198296
1.1993599
1.2001551
1.200721
1.2011024
1.2013446
1.2014885
1.201568
1.2016084
1.2016273
1.2016353
1.2016383
1.2016393
1.2016396
1.2016397
1.2016397
1.2016397
1.2016397
1.2016397
1.2016397
1.2016397
1.2016397
1.2016397
1.2016397
1.2016397
1.2016397
1.2016397
1.1393979
1.1414449
1.1436169
1.1459133
1.1483323
1.1508705
1.1535233
1.1562838
1.1591434
1.1620912
1.1651133
1.1681927
1.1713082
1.1744348
1.1775418
1.1805945
1.1835537
1.1863774
1.1890225
1.1914483
1.1936194
1.1955095
1.1971049
1.1984054
1.1994248
1.2001901
1.2007377
1.2011092
1.2013466
1.2014887
1.2015676
1.2016081
1.2016271
1.2016352
1.2016383
1.2016393
1.2016396
1.2016397
1.2016397
1.2016397
1.2016397
1.2016397
1.2016397
1.2016397
1.2016397
1.2016397
1.2016397
1.2016397
1.2016397
1.2016397
1.1433113
1.1455507
1.1478763
1.1502826
1.1527639
1.1553144
1.1579278
1.1605977
1.1633173
1.1660788
1.1688727
1.1716877
1.1745096
1.1773204
1.1800982
1.1828166
1.1854454
1.1879512
1.1902991
1.1924555
1.1943903
1.1960808
1.1975137
1.1986873
1.1996119
1.2003095
1.2008108
1.2011519
1.2013704
1.2015012
1.2015738
1.2016109
1.2016283
1.2016356
1.2016384
1.2016394
1.2016396
1.2016397
1.2016397
1.2016397
1.2016397
1.2016397
1.2016397
1.2016397
1.2016397
1.2016397
1.2016397
1.2016397
1.2016397
1.2016397
1.1551574
1.1573274
1.1594571
1.1615492
1.1636094
1.1656453
1.1676663
1.1696824
1.1717036
1.1737386
1.1757937
1.1778719
1.1799715
1.1820858
1.1842022
1.186302
1.188361
1.1903502
1.1922378
1.1939913
1.1955806
1.1969808
1.1981758
1.1991595
1.1999371
1.2005247
1.2009468
1.2012335
1.2014165
1.2015255
1.2015857
1.2016163
1.2016305
1.2016364
1.2016387
1.2016394
1.2016397
1.2016397
1.2016397
1.2016397
1.2016397
1.2016397
1.2016397
1.2016397
1.2016397
1.2016397
1.2016397
1.2016397
1.2016397
1.2016397
1.1917752
1.1899256
1.188302
1.1869204
1.1857935
1.1849303
1.1843358
1.184011
1.1839528
1.1841535
1.1846012
1.1852788
1.1861642
1.1872308
1.1884475
1.1897775
1.1911805
1.1926135
1.1940322
1.1953926
1.196654
1.1977845
1.1987612
1.1995723
1.2002176
1.2007075
1.2010603
1.2013001
1.2014532
1.2015444
1.2015947
1.2016202
1.2016321
1.201637
1.2016389
1.2016395
1.2016397
1.2016397
1.2016397
1.2016397
1.2016397
1.2016397
1.2016397
1.2016397
1.2016397
1.2016397
1.2016397
1.2016397
1.2016397
1.2016397
1.1917706
1.189921
1.1882975
1.1869159
1.1857889
1.1849256
1.184331
1.1840064
1.1839484
1.1841493
1.184597
1.1852745
1.1861603
1.1872275
1.188444
1.1897736
1.1911761
1.1926081
1.1940249
1.1953837
1.1966463
1.1977792
1.1987586
1.1995719
1.2002182
1.2007078
1.2010603
1.2013
1.2014531
1.2015443
1.2015947
1.2016202
1.2016321
1.201637
1.2016389
1.2016395
1.2016397
1.2016397
1.2016397
1.2016397
1.2016397
1.2016397
1.2016397
1.2016397
1.2016397
1.2016397
1.2016397
1.2016397
1.2016397
1.2016397
1.1551369
1.1573069
1.1594365
1.1615287
1.163589
1.1656252
1.1676464
1.1696629
1.1716846
1.1737201
1.1757758
1.1778546
1.179955
1.1820701
1.1841873
1.1862879
1.1883477
1.1903379
1.1922265
1.1939814
1.1955725
1.1969749
1.1981719
1.1991572
1.1999359
1.2005241
1.2009465
1.2012333
1.2014164
1.2015254
1.2015856
1.2016163
1.2016305
1.2016364
1.2016387
1.2016394
1.2016397
1.2016397
1.2016397
1.2016397
1.2016397
1.2016397
1.2016397
1.2016397
1.2016397
1.2016397
1.2016397
1.2016397
1.2016397
1.2016397
1.1432716
1.145511
1.1478367
1.1502434
1.1527252
1.1552763
1.1578906
1.1605616
1.1632825
1.1660452
1.1688407
1.1716574
1.174481
1.1772936
1.1800733
1.1827938
1.1854247
1.1879326
1.1902827
1.1924414
1.1943786
1.1960715
1.1975066
1.1986822
1.1996085
1.2003073
1.2008094
1.2011511
1.20137
1.2015009
1.2015737
1.2016109
1.2016283
1.2016356
1.2016384
1.2016394
1.2016396
1.2016397
1.2016397
1.2016397
1.2016397
1.2016397
1.2016397
1.2016397
1.2016397
1.2016397
1.2016397
1.2016397
1.2016397
1.2016397
1.1393186
1.141369
1.1435443
1.1458441
1.1482664
1.1508081
1.1534643
1.1562283
1.1590914
1.1620427
1.1650683
1.1681513
1.1712704
1.1744005
1.1775111
1.1805673
1.1835299
1.1863569
1.1890051
1.1914338
1.1936077
1.1955002
1.1970978
1.1984001
1.1994211
1.2001876
1.2007361
1.2011082
1.201346
1.2014884
1.2015675
1.2016081
1.2016271
1.2016352
1.2016383
1.2016393
1.2016396
1.2016397
1.2016397
1.2016397
1.2016397
1.2016397
1.2016397
1.2016397
1.2016397
1.2016397
1.2016397
1.2016397
1.2016397
1.2016397
1.1374084
1.1394502
1.1416192
1.1439169
1.1463437
1.1488986
1.1515789
1.15438
1.1572947
1.1603131
1.1634216
1.166603
1.1698353
1.1730911
1.1763381
1.179538
1.1826477
1.1856208
1.1884097
1.1909689
1.193259
1.195251
1.1969287
1.1982921
1.1993573
1.2001534
1.20072
1.2011019
1.2013443
1.2014883
1.2015679
1.2016084
1.2016273
1.2016353
1.2016383
1.2016393
1.2016396
1.2016397
1.2016397
1.2016397
1.2016397
1.2016397
1.2016397
1.2016397
1.2016397
1.2016397
1.2016397
1.2016397
1.2016397
1.2016397
1.1361692
1.1381732
1.1403015
1.1425558
1.1449365
1.1474429
1.1500729
1.1528223
1.1556853
1.1586532
1.1617147
1.1648548
1.1680548
1.1712911
1.1745354
1.1777536
1.1809067
1.1839511
1.1868405
1.1895284
1.1919718
1.1941354
1.1959942
1.1975385
1.1987746
1.1997234
1.2004184
1.200902
1.2012197
1.2014156
1.2015282
1.2015881
1.2016174
1.2016304
1.2016356
1.2016374
1.201638
1.2016382
1.2016382
1.2016382
1.2016382
1.2016382
1.2016382
1.2016382
1.2016382
1.2016382
1.2016382
1.2016382
1.2016382
1.2016382
1.1380836
1.1400964
1.1422317
1.1444891
1.1468668
1.1493621
1.1519704
1.1546859
1.1575011
1.1604063
1.1633899
1.166437
1.1695297
1.1726461
1.1757595
1.1788388
1.1818481
1.1847477
1.1874952
1.1900486
1.1923689
1.1944237
1.1961919
1.1976646
1.198847
1.1997588
1.2004312
1.2009029
1.2012159
1.2014111
1.2015247
1.2015859
1.2016162
1.2016298
1.2016354
1.2016374
1.201638
1.2016382
1.2016382
1.2016382
1.2016382
1.2016382
1.2016382
1.2016382
1.2016382
1.2016382
1.2016382
1.2016382
1.2016382
1.2016382
1.1420037
1.1442093
1.1464989
1.1488672
1.1513087
1.1538178
1.156389
1.1590166
1.1616947
1.164417
1.1671759
1.1699623
1.1727645
1.1755678
1.1783533
1.181098
1.1837745
1.1863515
1.188795
1.1910703
1.1931448
1.1949907
1.1965884
1.1979287
1.1990141
1.1998589
1.2004878
1.2009332
1.2012313
1.2014186
1.2015282
1.2015875
1.2016169
1.2016301
1.2016355
1.2016374
1.201638
1.2016382
1.2016382
1.2016382
1.2016382
1.2016382
1.2016382
1.2016382
1.2016382
1.2016382
1.2016382
1.2016382
1.2016382
1.2016382
1.1538209
1.1559566
1.1580501
1.1601045
1.1621255
1.1641211
1.166101
1.1680762
1.1700574
1.1720546
1.1740758
1.1761261
1.1782063
1.1803126
1.1824357
1.1845604
1.1866655
1.1887247
1.1907075
1.1925811
1.1943127
1.1958726
1.1972379
1.1983945
1.1993389
1.2000785
1.2006312
1.201023
1.2012849
1.2014488
1.2015442
1.2015953
1.2016203
1.2016315
1.201636
1.2016376
1.2016381
1.2016382
1.2016382
1.2016382
1.2016382
1.2016382
1.2016382
1.2016382
1.2016382
1.2016382
1.2016382
1.2016382
1.2016382
1.2016382
1.1903119
1.1884397
1.1867912
1.1853824
1.1842262
1.1833318
1.1827049
1.1823472
1.1822565
1.1824266
1.182847
1.1835032
1.1843754
1.1854404
1.1866704
1.188032
1.1894887
1.1909994
1.1925218
1.1940115
1.1954244
1.1967195
1.1978683
1.1988509
1.199659
1.2002959
1.200772
1.2011096
1.2013352
1.2014761
1.2015579
1.2016017
1.2016231
1.2016326
1.2016363
1.2016377
1.2016381
1.2016382
1.2016382
1.2016382
1.2016382
1.2016382
1.2016382
1.2016382
1.2016382
1.2016382
1.2016382
1.2016382
1.2016382
1.2016382
1.1903065
1.1884344
1.186786
1.1853773
1.1842212
1.183327
1.1827003
1.1823428
1.1822523
1.1824225
1.1828429
1.1834986
1.1843709
1.1854368
1.186667
1.1880292
1.1894856
1.1909955
1.1925146
1.193999
1.1954077
1.1967056
1.1978598
1.1988477
1.1996591
1.2002951
1.2007718
1.2011098
1.2013352
1.2014761
1.2015579
1.2016017
1.2016231
1.2016325
1.2016363
1.2016377
1.2016381
1.2016382
1.2016382
1.2016382
1.2016382
1.2016382
1.2016382
1.2016382
1.2016382
1.2016382
1.2016382
1.2016382
1.2016382
1.2016382
1.1538019
1.1559373
1.1580307
1.1600849
1.1621058
1.1641014
1.1660814
1.1680566
1.1700379
1.1720353
1.1740567
1.1761072
1.1781878
1.1802946
1.1824182
1.1845433
1.1866489
1.1887084
1.1906915
1.1925657
1.1942987
1.1958614
1.1972302
1.19839
1.1993367
1.2000777
1.200631
1.2010231
1.201285
1.2014489
1.2015442
1.2015953
1.2016203
1.2016315
1.201636
1.2016376
1.2016381
1.2016382
1.2016382
1.2016382
1.2016382
1.2016382
1.2016382
1.2016382
1.2016382
1.2016382
1.2016382
1.2016382
1.2016382
1.2016382
1.1419671
1.1441725
1.1464621
1.1488305
1.1512722
1.1537817
1.1563535
1.1589817
1.1616607
1.1643839
1.1671438
1.1699313
1.1727348
1.1755394
1.1783263
1.1810725
1.1837507
1.1863293
1.1887746
1.1910519
1.1931287
1.1949772
1.1965778
1.1979209
1.1990088
1.1998555
1.2004858
1.2009321
1.2012307
1.2014183
1.2015281
1.2015875
1.2016169
1.2016301
1.2016355
1.2016374
1.201638
1.2016382
1.2016382
1.2016382
1.2016382
1.2016382
1.2016382
1.2016382
1.2016382
1.2016382
1.2016382
1.2016382
1.2016382
1.2016382
1.1380112
1.1400268
1.142165
1.1444253
1.1468059
1.149304
1.1519152
1.1546337
1.1574517
1.1603599
1.1633464
1.1663966
1.1694923
1.1726118
1.1757283
1.1788106
1.1818229
1.1847255
1.1874758
1.190032
1.1923549
1.1944122
1.1961828
1.1976576
1.1988419
1.1997553
1.2004289
1.2009015
1.2012151
1.2014107
1.2015245
1.2015858
1.2016161
1.2016298
1.2016353