/*--------------------------------*- C++ -*----------------------------------*\
| =========                 |                                                 |
| \\      /  F ield         | OpenFOAM: The Open Source CFD Toolbox           |
|  \\    /   O peration     | Version:  4.0                                   |
|   \\  /    A nd           | Web:      www.OpenFOAM.org                      |
|    \\/     M anipulation  |                                                 |
\*---------------------------------------------------------------------------*/
FoamFile
{
    version     2.0;
    format      ascii;
    class       surfaceScalarField;
    location    "2000";
    object      snGradRho;
}
// * * * * * * * * * * * * * * * * * * * * * * * * * * * * * * * * * * * * * //

dimensions      [1 -4 0 0 0 0 0];

internalField   nonuniform List<scalar> 
287000
(
25.992449
0.9776558
-0.67280711
25.025865
0.95036988
-0.68981999
23.885521
0.91684084
-0.70723676
22.572689
0.87625589
-0.72411279
21.096903
0.82824305
-0.73927385
19.475103
0.77285693
-0.75134375
17.733945
0.71078207
-0.75880659
15.907299
0.64314349
-0.76009978
14.036834
0.57162864
-0.75374257
12.167385
0.49817708
-0.73848607
10.346005
0.42509813
-0.71347696
8.6177037
0.35468536
-0.67840195
7.0220725
0.28898461
-0.63359837
5.5890334
0.22956625
-0.58009851
4.3396374
0.17768612
-0.51961378
3.2818433
0.13371729
-0.45440212
2.413336
0.097700514
-0.38710504
1.7224976
0.069201428
-0.32049714
1.1910165
0.047455053
-0.2572323
0.79578228
0.031410678
-0.1995784
0.51251609
0.020051317
-0.14923576
0.3172902
0.012312783
-0.10718864
0.18805727
0.0072285532
-0.073674862
0.10635375
0.0040665185
-0.048276322
0.057207603
0.0021882708
-0.03003154
0.029102609
0.0011086691
-0.017655757
0.013934796
0.00052840696
-0.009769765
0.0062503676
0.00023559671
-0.0050741324
0.0026117604
9.8061768e-05
-0.0024756634
0.0010100146
3.7617052e-05
-0.0011465179
0.000360219
1.3370034e-05
-0.00052255222
0.00011670622
4.2438906e-06
-0.00025513876
3.4745876e-05
1.2766599e-06
-0.00015141592
9.2951608e-06
3.1545549e-07
-0.00011515931
2.1479514e-06
6.2733548e-08
-0.00010385939
5.1230494e-07
4.7700049e-09
-0.0001007525
1.321187e-07
1.3803554e-09
-0.00010001184
5.3571701e-09
3.2745328e-08
-9.9865676e-05
1.8063242e-08
-2.9389696e-08
-9.985018e-05
1.3756379e-08
1.600487e-08
-9.9855346e-05
3.0374535e-08
1.6797635e-08
-9.9863652e-05
-3.5892965e-10
3.0877136e-08
-9.986949e-05
1.5361738e-08
1.0493977e-08
-9.9874516e-05
4.4873038e-09
2.6963015e-08
-9.9878123e-05
7.4498431e-09
2.0384589e-08
-9.988109e-05
4.8404476e-09
2.7714388e-08
-9.9883463e-05
9.9705153e-10
2.3193967e-08
-9.9885195e-05
6.2353941e-09
2.303436e-08
-9.9887279e-05
5.5267778e-09
2.7084947e-08
-9.9887781e-05
1.676404e-08
-9.9889841e-05
26.008931
2.4792594
-0.6303714
24.989489
2.5121371
-0.64707829
23.792454
2.4990221
-0.66409497
22.423281
2.4400465
-0.68051888
20.89453
2.3374753
-0.69523366
19.227317
2.1957541
-0.70693843
17.45022
2.0212678
-0.7142069
15.599722
1.8220386
-0.71557707
13.717659
1.6071054
-0.70967102
11.849969
1.3859102
-0.69533474
10.042446
1.1674776
-0.67178429
8.3378336
0.95981164
-0.63873815
6.7725802
0.7693656
-0.59651704
5.3748446
0.60071437
-0.54608959
4.1611245
0.4563383
-0.48904611
3.1380898
0.33692844
-0.42750853
2.3014933
0.24146072
-0.36395651
1.638564
0.16771438
-0.30101314
1.1300295
0.11270181
-0.24119871
0.75324944
0.073137776
-0.18669673
0.48394349
0.045719679
-0.13914078
0.29873948
0.027458932
-0.099494374
0.17666406
0.015805627
-0.068005107
0.099665616
0.0086820148
-0.044247411
0.053394969
0.0045343921
-0.027291459
0.027070559
0.0022470787
-0.015894468
0.012917152
0.0010512637
-0.0087106494
0.0057760867
0.00046280102
-0.0044826679
0.0024043219
0.00019027209
-0.0021710287
0.00092768709
7.2935128e-05
-0.0010052564
0.00032899719
2.5766073e-05
-0.00046253454
0.000106877
8.4076496e-06
-0.00023246796
3.1480691e-05
2.4894624e-06
-0.00014369414
8.3628763e-06
6.7040444e-07
-0.00011290065
1.988465e-06
1.6537426e-07
-0.00010331542
4.0909875e-07
4.0192416e-08
-0.00010066658
6.9299149e-08
1.5859468e-08
-0.00010002613
1.555129e-08
1.3406853e-08
-9.9894124e-05
-8.8555961e-09
1.2365544e-08
-9.987793e-05
-1.5732118e-09
1.6669194e-08
-9.9881782e-05
-2.0812219e-09
1.9024522e-08
-9.9886389e-05
3.3755272e-09
2.200014e-08
-9.988926e-05
5.0083837e-09
2.3842319e-08
-9.989285e-05
8.3407982e-09
2.5544532e-08
-9.9895202e-05
9.3321941e-09
2.6426946e-08
-9.9897698e-05
1.1051412e-08
2.6979289e-08
-9.9899818e-05
9.8768382e-09
2.6763465e-08
-9.9901631e-05
1.0123174e-08
2.6273192e-08
-9.9904342e-05
4.411585e-09
2.5023512e-08
-9.9904837e-05
2.3385312e-08
-9.9907628e-05
27.133299
9.2851605
-0.55806049
25.644918
8.919734
-0.57052401
24.022261
8.4152723
-0.58336062
22.281807
7.7965849
-0.59575428
20.444986
7.0917859
-0.60671056
18.538102
6.330787
-0.61508738
16.591885
5.5436759
-0.61964852
14.640615
4.759109
-0.61914309
12.720717
4.0027388
-0.6124026
10.868947
3.2959031
-0.5984607
9.1201885
2.6547975
-0.57667103
7.5051989
2.090007
-0.54681698
6.0485181
1.6066234
-0.50919968
4.7668458
1.2047284
-0.46467511
3.6681191
0.88023104
-0.41464006
2.7515718
0.62589718
-0.36095335
2.008529
0.4325104
-0.30579037
1.423934
0.28998711
-0.25144875
0.97829081
0.18829588
-0.20012721
0.64975028
0.11815662
-0.15370155
0.41601957
0.071478555
-0.11354117
0.255983
0.041572019
-0.080395836
0.15084707
0.02317315
-0.054368185
0.084802705
0.012333795
-0.034985075
0.045285315
0.0062465169
-0.021340108
0.022871145
0.0029990546
-0.012296711
0.010868884
0.0013581573
-0.0066748539
0.004834839
0.00057760846
-0.0034159087
0.0020020788
0.00022941284
-0.0016545575
0.00076700217
8.459274e-05
-0.00077175785
0.00027023988
2.8766199e-05
-0.00036646453
8.6946835e-05
8.9522508e-06
-0.00019642319
2.5386778e-05
2.536719e-06
-0.00013162237
6.6800646e-06
6.524271e-07
-0.00010929615
1.5746006e-06
1.5523347e-07
-0.00010238223
3.3178818e-07
3.8996181e-08
-0.00010047367
6.5257892e-08
1.6167058e-08
-0.00010000948
1.5945279e-08
1.35242e-08
-9.9912775e-05
1.0638524e-08
1.4822354e-08
-9.9897665e-05
1.2152661e-08
1.6429641e-08
-9.9897818e-05
1.4575882e-08
1.7861699e-08
-9.9899943e-05
1.6859566e-08
1.8973032e-08
-9.9901957e-05
1.854504e-08
1.9673169e-08
-9.9903676e-05
1.947276e-08
1.9940307e-08
-9.9905191e-05
1.9559796e-08
1.9773731e-08
-9.9906594e-05
1.8728876e-08
1.9192901e-08
-9.9907955e-05
1.652023e-08
1.8225601e-08
-9.9909284e-05
1.3943527e-08
1.6995212e-08
-9.9910896e-05
6.4851618e-09
1.5286884e-08
-9.9911754e-05
1.4072123e-08
-9.9913777e-05
26.16282
35.110657
-0.41843911
23.41448
29.992837
-0.42943639
20.863727
25.339719
-0.44009102
18.503342
21.160355
-0.44983622
16.322901
17.453967
-0.45799805
14.310751
14.210473
-0.46380357
12.455831
11.411354
-0.4664078
10.748308
9.0307972
-0.46495735
9.1805369
7.0371133
-0.45866939
7.7481536
5.3943126
-0.44692605
6.4491016
4.063632
-0.4293316
5.2835338
3.0051406
-0.40576646
4.2521329
2.1791573
-0.37651688
3.354817
1.5475536
-0.3422817
2.5893548
1.0748401
-0.30420419
1.9508993
0.72903425
-0.26373037
1.4316603
0.48210404
-0.22247164
1.0209205
0.31025132
-0.18210873
0.70568925
0.19388083
-0.14426161
0.47155871
0.11738115
-0.11028536
0.30371378
0.068672113
-0.081116324
0.18791934
0.038703207
-0.057212016
0.11128937
0.020946744
-0.038562005
0.062861308
0.010850165
-0.024780122
0.033711611
0.0053549597
-0.01511311
0.017082306
0.0025067584
-0.00872058
0.008140676
0.0011080967
-0.0047480244
0.0036279748
0.00046005915
-0.0024384078
0.0015039231
0.00017843731
-0.0011958623
0.00057628389
6.4238021e-05
-0.00057521442
0.00020296904
2.1357331e-05
-0.00028943136
6.5291143e-05
6.5168021e-06
-0.00016896185
1.9061181e-05
1.8145771e-06
-0.00012274037
5.0209952e-06
4.6028232e-07
-0.00010670724
1.1908319e-06
1.0848826e-07
-0.00010171372
2.5965846e-07
2.7280891e-08
-0.00010032793
6.0614519e-08
1.1129775e-08
-9.9988755e-05
2.491462e-08
9.0504166e-09
-9.9917148e-05
2.1111579e-08
9.4869403e-09
-9.9905174e-05
2.2467497e-08
9.970049e-09
-9.9904492e-05
2.4162324e-08
1.0347089e-08
-9.990544e-05
2.5304362e-08
1.0527135e-08
-9.9906458e-05
2.5653884e-08
1.06228e-08
-9.9907407e-05
2.5118738e-08
1.0597395e-08
-9.9908301e-05
2.3685896e-08
1.0252151e-08
-9.9909121e-05
2.1311733e-08
9.5361851e-09
-9.9909905e-05
1.788069e-08
8.8667656e-09
-9.9910761e-05
1.3246337e-08
7.8312568e-09
-9.9911632e-05
7.000121e-09
7.0661856e-09
-9.9912621e-05
6.3964297e-09
-9.991381e-05
-17.128987
0.0024680257
-0.31911229
-13.516387
0.0023232007
-0.32296389
-10.330462
0.0021244779
-0.32611456
-7.574196
0.0018866217
-0.32840412
-5.242121
0.0016280443
-0.32959588
-3.3202846
0.0013688523
-0.32940314
-1.7863531
0.0011338942
-0.32747281
-0.61053537
0.00091222075
-0.32339951
0.24365509
0.00070079348
-0.31675005
0.8180071
0.00050364419
-0.30709056
1.1578602
0.00033649757
-0.29410869
1.3101201
0.0002304684
-0.27758882
1.3208228
0.00018058739
-0.25760755
1.2329335
0.00016399882
-0.23453917
1.0844489
0.00014481379
-0.20908798
0.90659306
7.0671755e-05
-0.18200829
0.72374903
-1.0574729e-06
-0.15424841
0.5529747
-4.1429236e-05
-0.1268235
0.40477251
-2.8828168e-05
-0.10094376
0.28376289
-1.2400101e-05
-0.077628215
0.19024908
-1.1294136e-05
-0.057475538
0.12178873
-5.7107143e-06
-0.040811534
0.074242636
-2.9274743e-06
-0.027708054
0.042965165
-2.1062113e-06
-0.017922178
0.023522179
-1.0442669e-06
-0.011010211
0.012132531
-6.4347251e-07
-0.006404166
0.0058695288
-3.2776784e-07
-0.0035216767
0.0026496333
-1.703813e-07
-0.0018366378
0.0011103254
-7.5616989e-08
-0.00091948489
0.00042956114
-2.7600951e-08
-0.00045751949
0.00015252464
-1.1303435e-08
-0.00024331872
4.9404751e-05
-4.5003235e-09
-0.00015242939
1.4512091e-05
-1.459652e-09
-0.00011735654
3.8466829e-06
-3.6444062e-10
-0.00010512754
9.2272951e-07
2.5139166e-10
-0.00010130098
2.0853185e-07
2.0668737e-10
-0.00010023444
5.6463659e-08
3.1680583e-10
-9.9972209e-05
2.933945e-08
4.8000338e-11
-9.9916852e-05
2.5833778e-08
-1.8995155e-10
-9.9907681e-05
2.6949191e-08
5.2250541e-11
-9.990677e-05
2.8047328e-08
2.6296083e-10
-9.9906856e-05
2.8940763e-08
4.4765888e-10
-9.9906982e-05
2.8886726e-08
3.4238835e-10
-9.9907718e-05
2.720586e-08
3.2579125e-11
-9.9909234e-05
2.4353595e-08
-5.4448389e-11
-9.9910121e-05
2.1927113e-08
2.0304948e-10
-9.9909662e-05
1.7000749e-08
7.5220607e-12
-9.9910931e-05
1.3002929e-08
2.7915824e-10
-9.9911098e-05
6.8578518e-09
-9.4632692e-11
-9.9912848e-05
-2.545788e-10
-9.9914545e-05
-17.129751
-35.099618
-0.31954546
-13.517638
-29.983856
-0.32338984
-10.332023
-25.33255
-0.32652993
-7.5758869
-21.154765
-0.32879947
-5.2437713
-17.449717
-0.32999734
-3.3217095
-14.207355
-0.32981603
-1.787657
-11.409187
-0.32787535
-0.61175419
-9.0294094
-0.32375563
0.24253763
-7.0363458
-0.3170403
0.81708218
-5.3939995
-0.30733702
1.1573081
-4.0636138
-0.29432042
1.3098955
-3.0053126
-0.27788108
1.3207844
-2.179432
-0.25805137
1.2328791
-1.5478746
-0.23509193
1.0840995
-1.0751505
-0.20947172
0.90624556
-0.72926952
-0.18212188
0.72354696
-0.48226118
-0.15416059
0.55302292
-0.31035153
-0.12681092
0.40484114
-0.19396523
-0.10103003
0.28376411
-0.11745084
-0.077658909
0.19027069
-0.068716491
-0.057449447
0.1217992
-0.038731974
-0.040799246
0.074245267
-0.020971118
-0.027711896
0.042969007
-0.010862375
-0.017930588
0.023523522
-0.005361091
-0.01101235
0.012133624
-0.0025101566
-0.0064030454
0.0058700621
-0.0011095824
-0.0035209573
0.0026499577
-0.00046086828
-0.0018365024
0.0011104907
-0.00017875945
-0.0009194889
0.00042961591
-6.436923e-05
-0.00045755868
0.00015254729
-2.1402943e-05
-0.0002433455
4.9414934e-05
-6.5307546e-06
-0.00015244299
1.4515772e-05
-1.8184077e-06
-0.00011736188
3.8488767e-06
-4.6117002e-07
-0.00010512979
9.2264188e-07
-1.0888006e-07
-0.00010130228
2.0900329e-07
-2.7370243e-08
-0.00010023545
5.5576032e-08
-1.1290673e-08
-9.9973112e-05
2.8485985e-08
-8.9551368e-09
-9.9916843e-05
2.6653714e-08
-9.1551705e-09
-9.9906826e-05
2.7726906e-08
-9.8560615e-09
-9.9906215e-05
2.879406e-08
-1.0412207e-08
-9.9907266e-05
2.8703617e-08
-1.0758841e-08
-9.9908439e-05
2.7887787e-08
-1.0747372e-08
-9.9908884e-05
2.6906386e-08
-1.0413701e-08
-9.9908467e-05
2.5250031e-08
-9.9697036e-09
-9.990864e-05
2.1298926e-08
-9.495293e-09
-9.9910147e-05
1.7961645e-08
-8.6276627e-09
-9.9909925e-05
1.1774273e-08
-7.8652034e-09
-9.9910799e-05
6.2663042e-09
-6.7492001e-09
-9.9910114e-05
-5.9422839e-09
-9.9909874e-05
26.143686
-9.2994932
-0.42046994
23.398004
-8.9334846
-0.43132245
20.849633
-8.4282581
-0.44183205
18.491568
-7.8086411
-0.45142242
16.31315
-7.1027959
-0.45940645
14.302802
-6.3406609
-0.46500529
12.449375
-5.5523615
-0.46738412
10.74311
-4.7665798
-0.46570878
9.176579
-4.009001
-0.45924222
7.7454162
-3.3010232
-0.44738287
6.4473767
-2.6588994
-0.42971101
5.2826442
-2.0932354
-0.40615091
4.2517437
-1.6091375
-0.37696748
3.3547206
-1.2066603
-0.34279485
2.5893082
-0.88169328
-0.30470072
1.9508808
-0.62696536
-0.26413427
1.4316935
-0.43325732
-0.22276432
1.0210141
-0.29048812
-0.18233143
0.70580097
-0.1886229
-0.14444349
0.47165479
-0.11836496
-0.1104242
0.3037918
-0.071606809
-0.081215485
0.18794017
-0.041648605
-0.057285897
0.1113369
-0.023209436
-0.038618785
0.062887093
-0.012353318
-0.024798717
0.03372242
-0.0062612883
-0.015125642
0.017090177
-0.0030067933
-0.0087204035
0.0081434776
-0.0013623567
-0.0047443959
0.0036299866
-0.00057943555
-0.0024398244
0.001504739
-0.00023014924
-0.0011964495
0.00057663061
-8.4906792e-05
-0.00057556012
0.00020309929
-2.8853846e-05
-0.00028959385
6.5335546e-05
-8.9898233e-06
-0.0001690254
1.9074783e-05
-2.5458255e-06
-0.00012276278
5.0247695e-06
-6.5438287e-07
-0.00010671428
1.1917467e-06
-1.5553487e-07
-0.00010171586
2.5983766e-07
-3.8983601e-08
-0.00010032866
6.0616944e-08
-1.609554e-08
-9.9989067e-05
2.4954112e-08
-1.3427439e-08
-9.9917264e-05
2.124461e-08
-1.4756297e-08
-9.9905178e-05
2.2633709e-08
-1.6476605e-08
-9.9904476e-05
2.4289372e-08
-1.7959765e-08
-9.9905449e-05
2.5378604e-08
-1.9075099e-08
-9.9906465e-05
2.5716519e-08
-1.9753742e-08
-9.9907324e-05
2.5228128e-08
-1.999782e-08
-9.9908084e-05
2.3813787e-08
-1.982944e-08
-9.9908849e-05
2.1397548e-08
-1.9259071e-08
-9.9909654e-05
1.7952864e-08
-1.829499e-08
-9.9910453e-05
1.3242578e-08
-1.7069093e-08
-9.9911294e-05
6.9896346e-09
-1.5345145e-08
-9.9912217e-05
-1.4122724e-08
-9.991341e-05
27.115855
-2.5414923
-0.56041931
25.631753
-2.5660175
-0.57273984
24.012805
-2.5452031
-0.58542897
22.275491
-2.4792049
-0.59767264
20.441257
-2.3702991
-0.60847869
18.536436
-2.2229308
-0.61670846
16.591801
-2.0434736
-0.62112942
14.641679
-1.8399281
-0.62049243
12.722543
-1.6213025
-0.6136308
10.871202
-1.3969986
-0.59957597
9.1225958
-1.1759924
-0.57767731
7.5075484
-0.96623235
-0.54771652
6.0506727
-0.77411266
-0.50998988
4.7687344
-0.60414949
-0.4653534
3.6697131
-0.45876737
-0.41520793
2.7528745
-0.33860445
-0.36142098
2.0095573
-0.24258816
-0.30617167
1.4247157
-0.16845318
-0.25175657
0.97886117
-0.11317293
-0.20036971
0.65015033
-0.073429636
-0.15388537
0.41629012
-0.045895233
-0.11367439
0.25615744
-0.027561885
-0.080486422
0.15095564
-0.015864803
-0.054423273
0.084842523
-0.0087160238
-0.035011083
0.045320799
-0.0045487828
-0.021344471
0.022891105
-0.002251725
-0.012314811
0.010879955
-0.0010538691
-0.0067001259
0.0048406257
-0.00046335471
-0.0034285725
0.0020043264
-0.00019076127
-0.0016568929
0.00076813142
-7.3000199e-05
-0.00077344947
0.00027053546
-2.5849358e-05
-0.00036703726
8.7087998e-05
-8.4129306e-06
-0.00019658587
2.5424548e-05
-2.4969608e-06
-0.00013169086
6.6894266e-06
-6.7404075e-07
-0.00010931547
1.5765888e-06
-1.670037e-07
-0.00010238753
3.3218903e-07
-4.0798271e-08
-0.00010047517
6.537536e-08
-1.5878097e-08
-0.00010001001
1.590298e-08
-1.299103e-08
-9.9913072e-05
1.0381876e-08
-1.1932381e-08
-9.989783e-05
1.2119529e-08
-1.7411108e-08
-9.989775e-05
1.4657854e-08
-1.9522202e-08
-9.9899798e-05
1.6978892e-08
-2.2293407e-08
-9.9901796e-05
1.8664795e-08
-2.4034068e-08
-9.9903517e-05
1.9570574e-08
-2.5692579e-08
-9.990504e-05
1.963315e-08
-2.6555904e-08
-9.9906447e-05
1.8782596e-08
-2.7099077e-08
-9.9907806e-05
1.6554844e-08
-2.687753e-08
-9.990914e-05
1.3971645e-08
-2.6381606e-08
-9.9910762e-05
6.4833595e-09
-2.5125663e-08
-9.9911631e-05
-2.3481078e-08
-9.9913672e-05
26.060598
-0.99328716
-0.63228838
25.036102
-0.96538456
-0.64896644
23.834287
-0.93099918
-0.66594719
22.460597
-0.88936195
-0.68232764
20.927584
-0.84014992
-0.69699097
19.256355
-0.7834694
-0.70863584
17.475485
-0.72005719
-0.71583551
15.621459
-0.65108737
-0.71712743
13.736121
-0.57829137
-0.71113313
11.865422
-0.50364465
-0.69669821
10.055173
-0.4294839
-0.67303877
8.3481305
-0.35812046
-0.63987426
6.7807545
-0.29160868
-0.59752774
5.3812048
-0.23151876
-0.54697155
4.165968
-0.1790999
-0.48980049
3.1416949
-0.13471222
-0.42814074
2.3041108
-0.098380313
-0.36447499
1.6404142
-0.06965188
-0.30142823
1.1312997
-0.047744207
-0.24152191
0.75409428
-0.031590188
-0.18694044
0.48448604
-0.020158942
-0.13931797
0.2990746
-0.0123749
-0.09961817
0.17686279
-0.0072627387
-0.068088273
0.099777944
-0.0040841621
-0.044301707
0.053466544
-0.002196223
-0.027326377
0.027097432
-0.0011130884
-0.015917511
0.012935696
-0.00052930921
-0.0087240031
0.0057819573
-0.00023637221
-0.004488734
0.0024080855
-9.8150016e-05
-0.0021772635
0.00092872512
-3.7735768e-05
-0.0010070426
0.00032956698
-1.3378057e-05
-0.00046371931
0.00010700805
-4.2596254e-06
-0.00023275205
3.1530706e-05
-1.2781839e-06
-0.00014383682
8.3786213e-06
-3.1517839e-07
-0.00011292678
1.9937506e-06
-6.2386096e-08
-0.0001033243
4.1147925e-07
-4.703579e-09
-0.00010066895
7.1005598e-08
-1.6280974e-09
-0.00010002716
1.5702377e-08
-3.3345979e-08
-9.9895525e-05
-1.324309e-08
2.8773667e-08
-9.9879706e-05
-9.5596502e-10
-1.5451869e-08
-9.987983e-05
-1.419574e-09
-1.6468696e-08
-9.9885329e-05
3.766861e-09
-3.0742035e-08
-9.9888692e-05
5.2241664e-09
-1.046278e-08
-9.9892516e-05
8.4602185e-09
-2.6985187e-08
-9.9894979e-05
9.3977335e-09
-2.0434519e-08
-9.9897525e-05
1.1087901e-08
-2.777895e-08
-9.9899669e-05
9.8957032e-09
-2.3265097e-08
-9.9901492e-05
1.0139422e-08
-2.3107071e-08
-9.9904211e-05
4.4002559e-09
-2.7157092e-08
-9.9904709e-05
-1.6832656e-08
-9.9907516e-05
26.045766
-0.67477171
25.076304
-0.69176087
23.932774
-0.70915103
22.616484
-0.72599601
21.137017
-0.74111982
19.511369
-0.75314432
17.766269
-0.7605516
15.935665
-0.76177721
14.061315
-0.7553389
12.188134
-0.73998695
10.363253
-0.71486819
8.6317506
-0.67967066
7.0332676
-0.63473432
5.5977527
-0.58109522
4.3462687
-0.52046927
3.2867609
-0.45511917
2.4168869
-0.38769089
1.7249901
-0.32096281
1.1927145
-0.25759164
0.7969023
-0.19984707
0.5132299
-0.14943006
0.31772896
-0.10732441
0.18831673
-0.073766465
0.10650163
-0.048335976
0.057291406
-0.030068974
0.029142518
-0.017678449
0.01395357
-0.009782701
0.0062587343
-0.0050810731
0.0026153765
-0.0024792647
0.0010114462
-0.001148146
0.00036075659
-0.00052324574
0.00011688653
-0.00025539393
3.480222e-05
-0.00015150434
9.311256e-06
-0.00011518583
2.1523005e-06
-0.00010386668
5.1354556e-07
-0.00010075433
1.3245218e-07
-0.0001000122
5.2641993e-09
-9.9865748e-05
1.772753e-08
-9.9850121e-05
1.3736941e-08
-9.9855058e-05
3.0441893e-08
-9.9863361e-05
-2.977287e-10
-9.9869237e-05
1.5396746e-08
-9.9874296e-05
4.5010378e-09
-9.9877925e-05
7.4478146e-09
-9.9880905e-05
4.8335468e-09
-9.9883286e-05
9.8802108e-10
-9.9885024e-05
6.2309499e-09
-9.9887113e-05
5.5052221e-09
-9.9887617e-05
-9.9889691e-05
23.374861
1.6120073
-0.31358566
22.589929
1.5704467
-0.32172068
21.739948
1.5230487
-0.33037706
20.820516
1.4683429
-0.33937519
19.828882
1.4051783
-0.34844641
18.762412
1.3327327
-0.3572254
17.621683
1.250802
-0.36522729
16.408965
1.1596901
-0.37185758
15.131242
1.0604558
-0.37641379
13.798179
0.95471189
-0.37813326
12.425104
0.84489083
-0.37622908
11.03187
0.73389685
-0.36997604
9.6425761
0.62486048
-0.35879484
8.2821547
0.520765
-0.34238893
6.9790901
0.42456571
-0.32075476
5.757918
0.33815975
-0.29431806
4.6411178
0.26298878
-0.26389309
3.6459842
0.19961309
-0.23065561
2.7844563
0.14785684
-0.19601701
2.0605873
0.10673569
-0.16158818
1.4728114
0.075074577
-0.12883822
1.0130724
0.05133695
-0.099019236
0.66739356
0.033942852
-0.073151211
0.41935939
0.021674268
-0.051733033
0.25021253
0.013279405
-0.034862363
0.14090071
0.0077024612
-0.022285698
0.074448659
0.0041908578
-0.013448266
0.036691522
0.0021224891
-0.0076256996
0.01676641
0.00099360836
-0.0040487255
0.00705048
0.00041987472
-0.0020167115
0.0027135133
0.00016271838
-0.00095366559
0.00094646288
5.6072782e-05
-0.00044673439
0.00029840752
1.7480968e-05
-0.00022727787
8.3994822e-05
4.6627993e-06
-0.00014187804
2.0818372e-05
1.0223315e-06
-0.00011221456
4.5583242e-06
1.4358159e-07
-0.00010307718
8.5794285e-07
-1.9760043e-08
-0.00010059914
7.5308423e-08
-5.7385758e-09
-0.00010001105
-3.1364929e-09
-6.3712015e-08
-9.9890967e-05
-1.7230046e-08
-1.3873945e-08
-9.9869758e-05
1.0579301e-08
-6.6749835e-09
-9.9868788e-05
-1.5853628e-08
1.2242175e-08
-9.9870694e-05
5.2555672e-09
-5.2781571e-09
-9.9872773e-05
-3.0701923e-09
1.3557407e-08
-9.987523e-05
1.954688e-09
8.4948799e-09
-9.9877316e-05
1.1944113e-09
1.7038476e-08
-9.9879664e-05
-2.9897988e-09
1.341423e-08
-9.9881303e-05
5.360554e-09
1.3781428e-08
-9.9883495e-05
2.2699829e-09
1.8658203e-08
-9.9884569e-05
8.7587097e-09
-9.988769e-05
23.438423
3.5602013
-0.3016191
22.609512
3.6227514
-0.30965298
21.704364
3.6334626
-0.31814166
20.722683
3.5913086
-0.3269065
19.66487
3.4971457
-0.33568917
18.533187
3.3538399
-0.34412927
17.331275
3.1661952
-0.3517665
16.065787
2.940853
-0.35802744
14.746057
2.6859747
-0.36224961
13.385646
2.4108233
-0.36370775
12.001283
2.1251485
-0.36168044
10.612848
1.8386371
-0.35550855
9.2425925
1.5602703
-0.34468298
7.9147419
1.2978196
-0.32894054
6.6518681
1.0572784
-0.30831071
5.4763719
0.84287459
-0.28319784
4.4067105
0.65678651
-0.25435652
3.4571454
0.49946218
-0.22285218
2.6363564
0.36989006
-0.18997661
1.9480419
0.26607559
-0.15714206
1.3894099
0.18525171
-0.12566208
0.95249062
0.12432385
-0.096811326
0.62503339
0.080058993
-0.071598882
0.39056021
0.04916166
-0.050634941
0.23113527
0.028623913
-0.034094399
0.1289141
0.015716118
-0.02174827
0.067404271
0.0080911001
-0.01307704
0.03285702
0.0038659803
-0.00737893
0.014819139
0.001708563
-0.0038985404
0.0061816506
0.00070478919
-0.0019291761
0.0023536311
0.00026482721
-0.0009094415
0.00081704524
9.0811491e-05
-0.00042609775
0.00025541402
2.7822338e-05
-0.00021900012
7.1727378e-05
7.6081551e-06
-0.00013897319
1.7906257e-05
1.8115732e-06
-0.00011133241
3.9076878e-06
3.5186815e-07
-0.00010286371
7.2484388e-07
4.0482519e-08
-0.00010057209
8.8651032e-08
-1.1824684e-08
-0.00010002831
-2.4660426e-08
-1.2042947e-08
-9.9917181e-05
-1.876004e-08
-1.4561555e-09
-9.9894537e-05
-1.1816498e-08
5.03168e-09
-9.9892672e-05
-7.6915604e-09
1.0031603e-08
-9.9893274e-05
-1.583444e-09
1.452862e-08
-9.9895275e-05
1.9830493e-09
1.7704396e-08
-9.9896883e-05
4.4231181e-09
2.005835e-08
-9.9898857e-05
7.2355831e-09
2.1668232e-08
-9.9900904e-05
4.6891946e-09
2.2209668e-08
-9.9902526e-05
9.2621159e-09
2.2719212e-08
-9.9905492e-05
-1.1235796e-12
2.1606145e-08
-9.9906762e-05
2.0617665e-08
-9.9910987e-05
25.215673
11.372295
-0.28552852
23.849571
10.966568
-0.29261912
22.446565
10.428428
-0.3001186
21.015583
9.7784256
-0.30783764
19.564948
9.0399496
-0.31550728
18.102518
8.2382191
-0.32276933
16.635762
7.3991381
-0.32917339
15.172527
6.5479516
-0.33418376
13.720824
5.7078969
-0.33720665
12.289808
4.8991175
-0.33761307
10.889811
4.13832
-0.33479082
9.5321454
3.4385408
-0.32820538
8.2293985
2.8084397
-0.31746148
6.9946882
2.2527125
-0.30237296
5.8410976
1.7721657
-0.28300581
4.7811941
1.3649769
-0.25971218
3.8260502
1.0274341
-0.23313354
2.9842999
0.75409856
-0.20417791
2.261404
0.53812425
-0.17395178
1.6587369
0.37203092
-0.14369879
1.1730111
0.24821196
-0.11468699
0.7963451
0.15915687
-0.088081355
0.51665662
0.097647453
-0.064791897
0.31889438
0.056933006
-0.04548027
0.18632044
0.031451783
-0.030355839
0.10257107
0.016387132
-0.019174294
0.052867775
0.0080211869
-0.01141022
0.02546913
0.003696036
-0.0063680046
0.011403397
0.0015778575
-0.0033295132
0.0046905519
0.00061644509
-0.0016388298
0.0017666392
0.00022045601
-0.00077297893
0.00060533712
7.1733057e-05
-0.00036826084
0.00018774527
2.1175785e-05
-0.00019675479
5.2385504e-05
5.635428e-06
-0.00013132862
1.3043773e-05
1.3345129e-06
-0.00010900988
2.8675229e-06
2.7446567e-07
-0.00010224501
5.4549751e-07
4.6820255e-08
-0.00010043447
8.4154835e-08
7.609145e-09
-0.00010000919
1.0009327e-08
5.5356734e-09
-9.9921869e-05
4.2271302e-09
8.8864568e-09
-9.9906457e-05
7.7452116e-09
1.2186531e-08
-9.9904506e-05
1.1560681e-08
1.4730981e-08
-9.9905002e-05
1.4300068e-08
1.6463587e-08
-9.9905962e-05
1.5898218e-08
1.749951e-08
-9.9907113e-05
1.6409793e-08
1.7965213e-08
-9.9908351e-05
1.5930329e-08
1.7919895e-08
-9.9909659e-05
1.3435975e-08
1.7346938e-08
-9.9910984e-05
1.2451507e-08
1.659596e-08
-9.9912669e-05
3.2859311e-09
1.4858605e-08
-9.9914081e-05
1.4057472e-08
-9.9916722e-05
24.470788
36.595447
-0.26036182
21.924308
31.537491
-0.26722199
19.62475
26.941262
-0.27416389
17.560075
22.809631
-0.28095209
15.712994
19.136061
-0.28730398
14.06205
15.905034
-0.29288952
12.581745
13.0936
-0.29734761
11.24451
10.673133
-0.30028336
10.022933
8.6112359
-0.30126607
8.8954523
6.8737516
-0.29982877
7.8459444
5.4251564
-0.29553215
6.8595986
4.2306013
-0.28803958
5.9290239
3.2562162
-0.27708639
5.0502421
2.4700907
-0.26254542
4.2275393
1.8430458
-0.24443712
3.4689401
1.3502777
-0.22306474
2.7816468
0.96924085
-0.1990235
2.1716136
0.6802902
-0.17315734
1.6447257
0.46513564
-0.14645733
1.2043995
0.30834235
-0.12000491
0.84965358
0.19752751
-0.094897907
0.5751137
0.12188399
-0.072202997
0.37138923
0.072087525
-0.052679799
0.22870759
0.040821777
-0.036681812
0.13340548
0.021962427
-0.0242938
0.073400421
0.011178792
-0.015235386
0.037905318
0.0053488408
-0.0090095822
0.018184439
0.0023798281
-0.0050094715
0.0081134722
0.00099091479
-0.0026137705
0.0033428828
0.00038272397
-0.0012898811
0.0012631258
0.00013610429
-0.00061738717
0.00043505138
4.4312539e-05
-0.00030520928
0.00013565572
1.3112659e-05
-0.00017370498
3.8031317e-05
3.5008049e-06
-0.00012377532
9.5185304e-06
8.3657633e-07
-0.00010680494
2.1124762e-06
1.7832887e-07
-0.00010167619
4.1620787e-07
3.5599195e-08
-0.00010030694
7.8967686e-08
9.4506997e-09
-9.9985964e-05
2.3907005e-08
6.3853382e-09
-9.9920336e-05
1.8931719e-08
7.3961201e-09
-9.990892e-05
2.0711775e-08
8.8852092e-09
-9.9907651e-05
2.2377801e-08
1.0032579e-08
-9.9908132e-05
2.3149401e-08
1.0355e-08
-9.9908899e-05
2.3030371e-08
9.8651079e-09
-9.990971e-05
2.1869784e-08
9.5360027e-09
-9.9910585e-05
1.9509965e-08
9.6945258e-09
-9.9911501e-05
1.6213263e-08
8.7657374e-09
-9.9912378e-05
1.1527208e-08
8.1208422e-09
-9.9913245e-05
5.1200987e-09
6.953839e-09
-9.9914358e-05
6.065266e-09
-9.991612e-05
-17.721591
-0.0040071777
-0.24981694
-13.957044
-0.003856332
-0.25337344
-10.62155
-0.0037120522
-0.25690678
-7.7119281
-0.0034829402
-0.26027604
-5.2218722
-0.0036311313
-0.26330626
-3.1359411
-0.00383701
-0.26574518
-1.4327467
-0.0037401443
-0.26729697
-0.085806669
-0.0032195386
-0.26761452
0.93656775
-0.0025185903
-0.2663317
1.6645285
-0.0021039158
-0.26309471
2.1370889
-0.0017953874
-0.25754761
2.386778
-0.0025637674
-0.24941439
2.4507466
-0.0038394741
-0.23844663
2.366164
-0.0045689486
-0.22450112
2.1805038
-0.0029544572
-0.2075273
1.9279678
-0.00079283476
-0.18797485
1.6410081
0.00062594745
-0.16641504
1.3398151
4.2773737e-05
-0.14381758
1.0491681
-0.0005690367
-0.12082687
0.79007736
-0.00019187785
-0.098369406
0.57083082
0.00013091895
-0.077368136
0.3938311
5.6614529e-05
-0.058591856
0.25892749
-2.1027794e-05
-0.042562734
0.16154618
-3.8861052e-05
-0.029542274
0.095355156
-9.7021586e-06
-0.019506224
0.052996997
3.5518185e-06
-0.01220331
0.027585072
2.1600564e-06
-0.0072089565
0.013394112
2.6171467e-07
-0.0040087185
0.0060299961
-8.738426e-08
-0.0021001979
0.0025031887
-1.3363447e-07
-0.0010457786
0.00095236973
-7.7945152e-08
-0.00051073919
0.0003299787
-3.560014e-08
-0.00026271697
0.00010344263
-1.267581e-08
-0.00015838181
2.9142626e-05
-4.7133675e-09
-0.00011880764
7.3319646e-06
-2.0283158e-09
-0.00010536808
1.6410286e-06
-1.4203359e-09
-0.00010130845
3.3135845e-07
-1.0186735e-09
-0.00010022481
7.0736474e-08
5.9554862e-11
-9.9970236e-05
2.957464e-08
8.6810147e-10
-9.9917628e-05
2.662632e-08
6.7868818e-10
-9.9908361e-05
2.7619398e-08
-1.6049368e-10
-9.9907915e-05
2.6671976e-08
-9.2488449e-10
-9.9909339e-05
2.4640177e-08
-6.6070788e-10
-9.9910293e-05
2.494581e-08
6.3418916e-10
-9.9909929e-05
2.5415662e-08
1.0058752e-09
-9.991067e-05
1.925732e-08
-1.1318748e-10
-9.991278e-05
1.6680101e-08
6.057637e-10
-9.991293e-05
9.9593308e-09
4.4165873e-10
-9.9912189e-05
4.173908e-09
1.256379e-09
-9.9911197e-05
1.84773e-09
-9.9910711e-05
-17.721245
-36.608291
-0.24997531
-13.956815
-31.549693
-0.25353073
-10.620567
-26.95272
-0.25706084
-7.7143251
-22.820214
-0.26042906
-5.2247238
-19.145003
-0.26342743
-3.1363776
-15.911862
-0.26582617
-1.4300214
-13.09838
-0.26735793
-0.081826983
-10.676331
-0.26769307
0.93859135
-8.6136026
-0.26644802
1.6658684
-6.875664
-0.26322923
2.1317632
-5.4268266
-0.2576721
2.3783869
-4.2316546
-0.24938055
2.4453724
-3.2565523
-0.23816895
2.3736352
-2.4700726
-0.22407523
2.1910887
-1.8442671
-0.20723822
1.9350306
-1.3527199
-0.18799153
1.6382899
-0.97211482
-0.16671684
1.336858
-0.6819652
-0.14398496
1.0507727
-0.46581875
-0.12090906
0.79150523
-0.30904444
-0.098434049
0.57053719
-0.19825458
-0.077425338
0.3935067
-0.12234979
-0.058622523
0.2588439
-0.072361334
-0.04257272
0.16165761
-0.0408785
-0.029545043
0.095407333
-0.022010627
-0.019513828
0.052992402
-0.011185725
-0.012211929
0.027578079
-0.005340267
-0.0072136819
0.013392803
-0.0023855888
-0.0040111499
0.0060297867
-0.00099295152
-0.0021011098
0.0025033635
-0.00038368463
-0.0010462514
0.00095250834
-0.0001364876
-0.00051091574
0.00033005495
-4.4440678e-05
-0.00026279188
0.00010346875
-1.3152299e-05
-0.00015840399
2.9151213e-05
-3.5108939e-06
-0.00011881497
7.3335913e-06
-8.3846653e-07
-0.00010536879
1.642068e-06
-1.7797758e-07
-0.00010130709
3.3499776e-07
-3.4886053e-08
-0.00010022321