/*--------------------------------*- C++ -*----------------------------------*\
| =========                 |                                                 |
| \\      /  F ield         | OpenFOAM: The Open Source CFD Toolbox           |
|  \\    /   O peration     | Version:  3.0.1                                 |
|   \\  /    A nd           | Web:      www.OpenFOAM.org                      |
|    \\/     M anipulation  |                                                 |
\*---------------------------------------------------------------------------*/
FoamFile
{
    version     2.0;
    format      ascii;
    class       surfaceScalarField;
    location    "2172";
    object      phi;
}
// * * * * * * * * * * * * * * * * * * * * * * * * * * * * * * * * * * * * * //

dimensions      [1 0 -1 0 0 0 0];

internalField   nonuniform List<scalar> 
7860
(
5.2319462e-10
9.2156325e-09
1.3222253e-09
2.6988592e-08
1.8460664e-09
4.6208428e-08
1.9084089e-09
6.6134696e-08
1.5900638e-09
8.6425213e-08
1.0773283e-09
1.0711511e-07
5.4460817e-10
1.2849597e-07
1.0385249e-10
1.50983e-07
-1.9885343e-10
1.7502001e-07
-3.6399391e-10
2.0103322e-07
-4.1867783e-10
2.2941268e-07
-4.0095367e-10
2.6051704e-07
-3.4925271e-10
2.9468973e-07
-2.9709931e-10
3.3227714e-07
-2.7122044e-10
3.7364657e-07
-2.9184435e-10
4.1920302e-07
-3.7366697e-10
4.6940477e-07
-5.2715636e-10
5.2477772e-07
-7.5944622e-10
5.8592858e-07
-1.0750128e-09
6.53556e-07
-1.4760548e-09
7.2845831e-07
-1.9623785e-09
8.1153528e-07
-2.5314642e-09
9.0377976e-07
-3.1780639e-09
1.0062532e-06
-3.8937775e-09
1.1200366e-06
-4.6666963e-09
1.2461444e-06
-5.480846e-09
1.3853844e-06
-6.3156232e-09
1.5381411e-06
-7.1452082e-09
1.7040506e-06
-7.9380939e-09
1.8815283e-06
-8.656693e-09
2.0670995e-06
-9.2575061e-09
2.2544717e-06
-9.6906682e-09
2.4332885e-06
-9.9023249e-09
2.5874841e-06
-9.8303018e-09
2.6931931e-06
-9.409223e-09
2.7160862e-06
-8.534409e-09
2.608108e-06
-7.0423034e-09
2.3030558e-06
-4.4089504e-09
1.7106654e-06
7.0626382e-07
-6.9720429e-10
9.9128368e-09
-2.5960287e-09
2.8887415e-08
-5.5007053e-09
4.9113107e-08
-9.040479e-09
6.9674468e-08
-1.2751588e-08
9.0136321e-08
-1.6192321e-08
1.1055584e-07
-1.9037433e-08
1.3134108e-07
-2.1117519e-08
1.5306308e-07
-2.240651e-08
1.7630901e-07
-2.2978744e-08
2.0160545e-07
-2.2963695e-08
2.2939763e-07
-2.2509161e-08
2.6006251e-07
-2.1755862e-08
2.9393645e-07
-2.082397e-08
3.3134525e-07
-1.9808469e-08
3.7263105e-07
-1.8780272e-08
4.1817484e-07
-1.7790224e-08
4.6841471e-07
-1.6873565e-08
5.2386106e-07
-1.6054227e-08
5.8510924e-07
-1.5347945e-08
6.5284973e-07
-1.4764451e-08
7.2787483e-07
-1.43086e-08
8.1107941e-07
-1.3980696e-08
9.0345186e-07
-1.3776718e-08
1.0060492e-06
-1.3687543e-08
1.1199475e-06
-1.3698931e-08
1.2461558e-06
-1.3790113e-08
1.3854756e-06
-1.3933488e-08
1.5382845e-06
-1.4093648e-08
1.7042107e-06
-1.4226624e-08
1.8816613e-06
-1.4279888e-08
2.0671528e-06
-1.4193319e-08
2.2543851e-06
-1.3900069e-08
2.4329953e-06
-1.3331541e-08
2.5869155e-06
-1.2417771e-08
2.6922793e-06
-1.109605e-08
2.7147645e-06
-9.2855378e-09
2.6062974e-06
-6.8685805e-09
2.3006391e-06
-3.536077e-09
1.7073326e-06
7.0272784e-07
-7.6675859e-10
1.0679596e-08
-3.029635e-09
3.1150291e-08
-6.7537583e-09
5.2837229e-08
-1.1630601e-08
7.4551315e-08
-1.7134457e-08
9.5640175e-08
-2.2651611e-08
1.16073e-07
-2.7627479e-08
1.3631695e-07
-3.1671383e-08
1.5710698e-07
-3.4592779e-08
1.7923041e-07
-3.6379451e-08
2.0339213e-07
-3.7146108e-08
2.3016428e-07
-3.7077548e-08
2.5999396e-07
-3.6381056e-08
2.9323996e-07
-3.5253393e-08
3.3021758e-07
-3.3862603e-08
3.7124026e-07
-3.234146e-08
4.166537e-07
-3.0788604e-08
4.6686187e-07
-2.9273705e-08
5.2234616e-07
-2.7843855e-08
5.8367936e-07
-2.6529443e-08
6.5153534e-07
-2.5348985e-08
7.2669436e-07
-2.4312006e-08
8.1004242e-07
-2.342088e-08
9.0256077e-07
-2.2671791e-08
1.0053001e-06
-2.2054369e-08
1.1193301e-06
-2.1551776e-08
1.2456531e-06
-2.1139528e-08
1.3850634e-06
-2.0784974e-08
1.53793e-06
-2.0446626e-08
1.7038722e-06
-2.0072957e-08
1.8812876e-06
-1.960321e-08
2.066683e-06
-1.8967862e-08
2.2537498e-06
-1.8090864e-08
2.4321183e-06
-1.6894415e-08
2.5857191e-06
-1.5301871e-08
2.6906868e-06
-1.3244495e-08
2.7127071e-06
-1.0642249e-08
2.6036951e-06
-7.3906622e-09
2.2973874e-06
-3.381896e-09
1.7033241e-06
6.9934573e-07
-6.8946369e-10
1.136906e-08
-2.8314775e-09
3.3292304e-08
-6.5567688e-09
5.6562521e-08
-1.1740501e-08
7.9735048e-08
-1.7983184e-08
1.0188286e-07
-2.4687675e-08
1.2277749e-07
-3.1201627e-08
1.428309e-07
-3.6961188e-08
1.6286654e-07
-4.1583874e-08
1.838531e-07
-4.4895142e-08
2.0670339e-07
-4.6903034e-08
2.3217217e-07
-4.7746028e-08
2.6083696e-07
-4.7635421e-08
2.9312934e-07
-4.6805845e-08
3.2938801e-07
-4.5480199e-08
3.6991462e-07
-4.3849297e-08
4.150228e-07
-4.2064038e-08
4.6507659e-07
-4.0236039e-08
5.2051819e-07
-3.8443402e-08
5.8188672e-07
-3.6737609e-08
6.4982953e-07
-3.5150436e-08
7.251072e-07
-3.3699331e-08
8.0859131e-07
-3.2390901e-08
9.0125235e-07
-3.1223043e-08
1.0041322e-06
-3.0185658e-08
1.1182927e-06
-2.9260741e-08
1.2447282e-06
-2.8421835e-08
1.3842245e-06
-2.763312e-08
1.5371412e-06
-2.6848642e-08
1.7030878e-06
-2.6011921e-08
1.8804509e-06
-2.505577e-08
2.0657268e-06
-2.3903512e-08
2.2525976e-06
-2.2471609e-08
2.4306864e-06
-2.0674464e-08
2.583922e-06
-1.8428917e-08
2.6884411e-06
-1.5659283e-08
2.7099375e-06
-1.2285175e-08
2.6003211e-06
-8.2209086e-09
2.2933231e-06
-3.5385786e-09
1.6986416e-06
6.9580727e-07
-6.1406844e-10
1.1983128e-08
-2.5721689e-09
3.5250405e-08
-6.0857513e-09
6.0076102e-08
-1.1165963e-08
8.4815261e-08
-1.7561932e-08
1.0827883e-07
-2.4780336e-08
1.299959e-07
-3.2187325e-08
1.5023788e-07
-3.9147995e-08
1.6982721e-07
-4.5147301e-08
1.898524e-07
-4.985811e-08
2.1141421e-07
-5.3153005e-08
2.3546705e-07
-5.50747e-08
2.6275866e-07
-5.5785902e-08
2.9384055e-07
-5.5515181e-08
3.2911727e-07
-5.4510216e-08
3.6890965e-07
-5.3004082e-08
4.1351666e-07
-5.1195209e-08
4.6326773e-07
-4.9239666e-08
5.1856263e-07
-4.7251759e-08
5.7989879e-07
-4.5309803e-08
6.478876e-07
-4.3463705e-08
7.2326106e-07
-4.1741587e-08
8.0686925e-07
-4.0155934e-08
8.9966666e-07
-3.870652e-08
1.0026828e-06
-3.7382934e-08
1.1169692e-06
-3.6165152e-08
1.2435104e-06
-3.5023288e-08
1.3830825e-06
-3.3916994e-08
1.536035e-06
-3.2795176e-08
1.7019659e-06
-3.1594787e-08
1.8792505e-06
-3.0241466e-08
2.0643735e-06
-2.8650765e-08
2.2510068e-06
-2.6730837e-08
2.4287665e-06
-2.4387844e-08
2.581579e-06
-2.153074e-08
2.685584e-06
-1.8076792e-08
2.7064837e-06
-1.3945373e-08
2.5961897e-06
-9.0783091e-09
2.2884561e-06
-3.7243053e-09
1.6932873e-06
6.9208316e-07
-5.5514028e-10
1.2538268e-08
-2.3509062e-09
3.704617e-08
-5.6328238e-09
6.3358021e-08
-1.049452e-08
8.9676956e-08
-1.6801819e-08
1.1458613e-07
-2.417508e-08
1.3736916e-07
-3.2049592e-08
1.5811239e-07
-3.9791111e-08
1.7756873e-07
-4.6819113e-08
1.968804e-07
-5.269755e-08
2.1729264e-07
-5.7176547e-08
2.3994606e-07
-6.0189738e-08
2.6577184e-07
-6.1821176e-08
2.9547199e-07
-6.2257974e-08
3.2955408e-07
-6.1741043e-08
3.6839271e-07
-6.0522698e-08
4.1229833e-07
-5.8836123e-08
4.6158116e-07
-5.6877252e-08
5.1660376e-07
-5.4798078e-08
5.7781962e-07
-5.2707953e-08
6.4579746e-07
-5.0679471e-08
7.2123261e-07
-4.8756165e-08
8.049459e-07
-4.6958953e-08
8.9786949e-07
-4.5292083e-08
1.0010159e-06
-4.3745817e-08
1.1154229e-06
-4.2298706e-08
1.2420633e-06
-4.091781e-08
1.3817017e-06
-3.9558504e-08
1.5346757e-06
-3.8163852e-08
1.7005713e-06
-3.6664402e-08
1.8777511e-06
-3.4978116e-08
2.0626873e-06
-3.3012457e-08
2.2490411e-06
-3.066655e-08
2.4264207e-06
-2.783771e-08
2.5787501e-06
-2.4426497e-08
2.6821728e-06
-2.0342823e-08
2.7024e-06
-1.550642e-08
2.5913533e-06
-9.8954434e-09
2.282845e-06
-3.9248465e-09
1.6873169e-06
6.8815822e-07
-5.0789424e-10
1.3046162e-08
-2.1663144e-09
3.8704591e-08
-5.2340813e-09
6.6425787e-08
-9.8541011e-09
9.4296979e-08
-1.5976231e-08
1.2070826e-07
-2.331922e-08
1.4471214e-07
-3.1399444e-08
1.6619262e-07
-3.9619532e-08
1.8578882e-07
-4.7381212e-08
2.0464209e-07
-5.4183523e-08
2.2409494e-07
-5.9683286e-08
2.4544582e-07
-6.3714405e-08
2.6980296e-07
-6.6273921e-08
2.980315e-07
-6.7487091e-08
3.3076725e-07
-6.756308e-08
3.6846871e-07
-6.6750704e-08
4.1148593e-07
-6.5300802e-08
4.6013127e-07
-6.3439666e-08
5.1474264e-07
-6.1353669e-08
5.7573361e-07
-5.9184178e-08
6.4362798e-07
-5.7029978e-08
7.190784e-07
-5.4953352e-08
8.0286929e-07
-5.2987565e-08
8.959037e-07
-5.1143287e-08
9.9917157e-07
-4.9413381e-08
1.113693e-06
-4.7775981e-08
1.2404259e-06
-4.6195632e-08
1.3801213e-06
-4.4623623e-08
1.5331037e-06
-4.2997708e-08
1.6989454e-06
-4.1241922e-08
1.8759953e-06
-3.9266883e-08
2.0607123e-06
-3.6971703e-08
2.2467458e-06
-3.4246913e-08
2.4236959e-06
-3.0980727e-08
2.5754839e-06
-2.7065046e-08
2.6782572e-06
-2.2403055e-08
2.6977379e-06
-1.6916836e-08
2.5858672e-06
-1.0626964e-08
2.276555e-06
-4.1059316e-09
1.6807959e-06
6.840522e-07
-4.6941965e-10
1.3515582e-08
-2.0122852e-09
4.0247456e-08
-4.8907078e-09
6.930421e-08
-9.2773294e-09
9.8683599e-08
-1.5181743e-08
1.2661267e-07
-2.2402279e-08
1.5193268e-07
-3.0532574e-08
1.7432292e-07
-3.9026453e-08
1.9428269e-07
-4.729619e-08
2.1291183e-07
-5.4809342e-08
2.3160809e-07
-6.1158818e-08
2.5179531e-07
-6.6097501e-08
2.7474164e-07
-6.9540583e-08
3.0147458e-07
-7.1544313e-08
3.3277099e-07
-7.227064e-08
3.6919504e-07
-7.1946173e-08
4.1116146e-07
-7.0822585e-08
4.5900769e-07
-6.9144006e-08
5.1306403e-07
-6.7124147e-08
5.7371376e-07
-6.493444e-08
6.4143828e-07
-6.2700942e-08
7.1684489e-07
-6.0507589e-08
8.0067594e-07
-5.8402874e-08
8.9379899e-07
-5.6406776e-08
9.9717549e-07
-5.451677e-08
1.111803e-06
-5.2711977e-08
1.2386211e-06
-5.0955389e-08
1.3783647e-06
-4.9194876e-08
1.5313432e-06
-4.7363387e-08
1.6971139e-06
-4.5378868e-08
1.8740108e-06
-4.3145005e-08
2.0584784e-06
-4.0552702e-08
2.2441536e-06
-3.7484289e-08
2.4206275e-06
-3.3819224e-08
2.5718188e-06
-2.9441023e-08
2.6738791e-06
-2.4246671e-08
2.6925435e-06
-1.8163936e-08
2.5797845e-06
-1.1259848e-08
2.2696509e-06
-4.2558924e-09
1.6737918e-06
6.7979652e-07
-4.3740311e-10
1.3952984e-08
-1.8820605e-09
4.1692114e-08
-4.594449e-09
7.2016599e-08
-8.7652291e-09
1.0285438e-07
-1.4446845e-08
1.3229429e-07
-2.1500778e-08
1.5898661e-07
-2.9589095e-08
1.8241124e-07
-3.8220058e-08
2.0291365e-07
-4.6831428e-08
2.215232e-07
-5.4881773e-08
2.3965844e-07
-6.1924118e-08
2.5883763e-07
-6.7650045e-08
2.8046759e-07
-7.1904524e-08
3.0572905e-07
-7.4676627e-08
3.3554308e-07
-7.6074204e-08
3.7059263e-07
-7.6289105e-08
4.1137637e-07
-7.555942e-08
4.5827798e-07
-7.4134239e-08
5.1163885e-07
-7.2245781e-08
5.7182529e-07
-7.009066e-08
6.3928316e-07
-6.7821067e-08
7.1457531e-07
-6.554403e-08
7.9839889e-07
-6.3325541e-08
8.9158053e-07
-6.119749e-08
9.9504744e-07
-5.9164023e-08
1.1097696e-06
-5.7206893e-08
1.2366639e-06
-5.5288669e-08
1.3764465e-06
-5.3354732e-08
1.5294093e-06
-5.1333846e-08
1.695093e-06
-4.9138539e-08
1.8718154e-06
-4.6665794e-08
2.0560057e-06
-4.3799441e-08
2.2412872e-06
-4.0413638e-08
2.4172418e-06
-3.6379567e-08
2.5677847e-06
-3.1573513e-08
2.6690729e-06
-2.5887074e-08
2.6868571e-06
-1.9256562e-08
2.5731539e-06
-1.1799394e-08
2.2621937e-06
-4.3753355e-09
1.6663678e-06
6.7542112e-07
-4.102919e-10
1.4363275e-08
-1.7705378e-09
4.3052361e-08
-4.3370715e-09
7.4583133e-08
-8.3113489e-09
1.0682865e-07
-1.3776936e-08
1.3775988e-07
-2.064541e-08
1.6585508e-07
-2.8637755e-08
1.9040359e-07
-3.7314784e-08
2.1159068e-07
-4.6146755e-08
2.3035518e-07
-5.459739e-08
2.4810907e-07
-6.2197533e-08
2.6643777e-07
-6.8594905e-08
2.8686497e-07
-7.3577394e-08
3.1071153e-07
-7.7073607e-08
3.3903929e-07
-7.91367e-08
3.7265574e-07
-7.991698e-08
4.1215665e-07
-7.9628303e-08
4.5798928e-07
-7.8513448e-08
5.1052402e-07
-7.6813426e-08
5.7012528e-07
-7.4743694e-08
6.372134e-07
-7.2479551e-08
7.1231122e-07
-7.015083e-08
7.9607013e-07
-6.7842458e-08
8.892722e-07
-6.5600332e-08
9.9280528e-07
-6.343721e-08
1.1076065e-06
-6.1339188e-08
1.2345659e-06
-5.9269853e-08
1.3743771e-06
-5.7172941e-08
1.5273123e-06
-5.4973711e-08
1.6928938e-06
-5.257996e-08
1.8694216e-06
-4.9882679e-08
2.0533085e-06
-4.6759039e-08
2.2381635e-06
-4.30759e-08
2.4135586e-06
-3.8696786e-08
2.5634057e-06
-3.3491212e-08
2.6638673e-06
-2.7347431e-08
2.6807135e-06
-2.0212536e-08
2.5660189e-06
-1.2257032e-08
2.2542382e-06
-4.4689356e-09
1.6585797e-06
6.7095223e-07
-3.8699166e-10
1.4750267e-08
-1.6738793e-09
4.4339249e-08
-4.1116087e-09
7.7020863e-08
-7.9078198e-09
1.1062487e-07
-1.3168989e-08
1.4302105e-07
-1.9846624e-08
1.7253272e-07
-2.7711966e-08
1.9826893e-07
-3.6374416e-08
2.2025313e-07
-4.5339215e-08
2.3931998e-07
-5.4083711e-08
2.5685356e-07
-6.2129129e-08
2.7448318e-07
-6.909314e-08
2.93829e-07
-7.4719031e-08
3.1633742e-07
-7.888351e-08
3.4320377e-07
-8.1588359e-08
3.7536058e-07
-8.2939998e-08
4.135083e-07
-8.312141e-08
4.5817068e-07
-8.2360097e-08
5.097627e-07
-8.0896743e-08
5.6866196e-07
-7.895857e-08
6.3527519e-07
-7.6739659e-08
7.1009233e-07
-7.4390799e-08
7.9372127e-07
-7.2016477e-08
8.8689783e-07
-6.9677605e-08
9.9046647e-07
-6.7397857e-08
1.1053267e-06
-6.516906e-08
1.2323372e-06
-6.2957193e-08
1.3721652e-06
-6.0705263e-08
1.5250604e-06
-5.8336046e-08
1.6905246e-06
-5.5753023e-08
1.8668386e-06
-5.2842197e-08
2.0503976e-06
-4.9474289e-08
2.2347956e-06
-4.5509606e-08
2.409594e-06
-4.0804989e-08
2.558701e-06
-3.522361e-08
2.6582859e-06
-2.8652476e-08
2.6741422e-06
-2.1051414e-08
2.558418e-06
-1.264586e-08
2.2458326e-06
-4.5417144e-09
1.6504756e-06
6.6641037e-07
-3.6671691e-10
1.5116983e-08
-1.5892105e-09
4.5561742e-08
-3.9124773e-09
7.9344131e-08
-7.5473351e-09
1.1425972e-07
-1.2617263e-08
1.4809098e-07
-1.91059e-08
1.7902135e-07
-2.6827224e-08
2.0599025e-07
-3.543471e-08
2.2886061e-07
-4.4468601e-08
2.4835387e-07
-5.3424667e-08
2.6580963e-07
-6.1823085e-08
2.828816e-07
-6.9262139e-08
3.0126805e-07
-7.5451108e-08
3.2252639e-07
-8.0223628e-08
3.4797628e-07
-8.3535256e-08
3.7867222e-07
-8.5449476e-08
4.1542252e-07
-8.611497e-08
4.5883616e-07
-8.5737515e-08
5.0938525e-07
-8.4549977e-08
5.6747443e-07
-8.278407e-08
6.335093e-07
-8.0647691e-08
7.0795592e-07
-7.8309718e-08
7.9138329e-07
-7.58933e-08
8.8448143e-07
-7.3475647e-08
9.8804881e-07
-7.109216e-08
1.1029431e-06
-6.8742316e-08
1.2299874e-06
-6.6395559e-08
1.3698185e-06
-6.399563e-08
1.5226605e-06
-6.146324e-08
1.6879923e-06
-5.8698616e-08
1.864074e-06
-5.5582821e-08
2.0472818e-06
-5.1981308e-08
2.2311941e-06
-4.7748213e-08
2.4053609e-06
-4.2734249e-08
2.553687e-06
-3.6797583e-08
2.6523492e-06
-2.9824669e-08
2.6671694e-06
-2.179162e-08
2.5503849e-06
-1.2978124e-08
2.2370192e-06
-4.5986067e-09
1.6420961e-06
6.6181182e-07
-3.4888509e-10
1.5465869e-08
-1.5143514e-09
4.6727208e-08
-3.7352525e-09
8.1565033e-08
-7.2235755e-09
1.1774804e-07
-1.2115528e-08
1.5298293e-07
-1.8420787e-08
1.8532661e-07
-2.5989783e-08
2.1355925e-07
-3.4515552e-08
2.3738638e-07
-4.3572093e-08
2.5741042e-07
-5.267613e-08
2.7491366e-07
-6.13525e-08
2.9155797e-07
-6.9187996e-08
3.0910355e-07
-7.5866677e-08
3.2920508e-07
-8.1187064e-08
3.5329667e-07
-8.5064508e-08
3.8254966e-07
-8.7522197e-08
4.1788022e-07
-8.8673742e-08
4.599877e-07
-8.8699173e-08
5.0941069e-07
-8.7817564e-08
5.6659278e-07
-8.6258751e-08
6.3195051e-07
-8.4238931e-08
7.0593611e-07
-8.1941722e-08
7.8908608e-07
-7.9507272e-08
8.8204703e-07
-7.7028983e-08
9.855705e-07
-7.4555071e-08
1.1004692e-06
-7.2093999e-08
1.2275263e-06
-6.9619985e-08
1.3673445e-06
-6.7078393e-08
1.5201188e-06
-6.4388982e-08
1.6853029e-06
-6.1449121e-08
1.8611341e-06
-5.8135923e-08
2.0439687e-06
-5.4309785e-08
2.2273679e-06
-4.9819377e-08
2.4008705e-06
-4.45099e-08
2.5483775e-06
-3.823546e-08
2.6460748e-06
-3.0883709e-08
2.6598178e-06
-2.2448524e-08
2.5419495e-06
-1.3264114e-08
2.2278349e-06
-4.6433652e-09
1.6334753e-06
6.5716849e-07
-3.3306111e-10
1.5798929e-08
-1.4476216e-09
4.7841769e-08
-3.5764197e-09
8.3693832e-08
-6.9312561e-09
1.2110288e-07
-1.165789e-08
1.5770957e-07
-1.7787277e-08
1.91456e-07
-2.5201058e-08
2.2097303e-07
-3.3627616e-08
2.4581294e-07
-4.2672899e-08
2.6645569e-07
-5.1875598e-08
2.8411637e-07
-6.0769043e-08
3.0045142e-07
-6.8934313e-08
3.1726882e-07
-7.6037181e-08
3.3630794e-07
-8.184804e-08
3.5910753e-07
-8.6247867e-08
3.8694947e-07
-8.9223326e-08
4.2085569e-07
-9.0853773e-08
4.6161815e-07
-9.1291532e-08
5.0984846e-07
-9.0737506e-08
5.6603873e-07
-8.9414455e-08
6.3062747e-07
-8.7541566e-08
7.0406324e-07
-8.5313281e-08
7.8685774e-07
-8.288448e-08
8.7961827e-07
-8.0363984e-08
9.8305001e-07
-7.7813439e-08
1.0979187e-06
-7.5251164e-08
1.224964e-06
-7.2657585e-08
1.3647509e-06
-6.9980449e-08
1.5174418e-06
-6.7139754e-08
1.6824621e-06
-6.4030489e-08
1.8580249e-06
-6.0526495e-08
2.0404646e-06
-5.6483586e-08
2.223325e-06
-5.1745578e-08
2.3961325e-06
-4.615285e-08
2.5427848e-06
-3.9556114e-08
2.6394781e-06
-3.1845974e-08
2.6521075e-06
-2.3034937e-08
2.5331387e-06
-1.3512125e-08
2.2183121e-06
-4.6787599e-09
1.624642e-06
6.5248972e-07
-3.1890388e-10
1.6117833e-08
-1.387706e-09
4.8910573e-08
-3.4331688e-09
8.5739292e-08
-6.665979e-09
1.2433568e-07
-1.123906e-08
1.6228265e-07
-1.7200899e-08
1.9741783e-07
-2.4459952e-08
2.2823208e-07
-3.2776188e-08
2.5412918e-07
-4.1785399e-08
2.7546491e-07
-5.1048467e-08
2.9337944e-07
-6.0109573e-08
3.0951252e-07
-6.8548352e-08
3.257076e-07
-7.6017705e-08
3.4377729e-07
-8.226575e-08
3.6535558e-07
-8.7144489e-08
3.9182821e-07
-9.0608135e-08
4.2431935e-07
-9.2703811e-08
4.6371382e-07
-9.3555563e-08
5.107002e-07
-9.3343336e-08
5.6582654e-07
-9.2278648e-08
6.2956276e-07
-9.0579009e-08
7.0236362e-07
-8.8445532e-08
7.8472423e-07
-8.6045213e-08
8.77218e-07
-8.3501068e-08
9.8050584e-07
-8.0888009e-08
1.0953057e-06
-7.8235008e-08
1.222311e-06
-7.5529571e-08
1.3620455e-06
-7.2723227e-08
1.5146354e-06
-6.9736613e-08
1.6794755e-06
-6.646343e-08
1.8547518e-06
-6.2774568e-08
2.0367758e-06
-5.8521987e-08
2.2190724e-06
-5.3545089e-08
2.3911556e-06
-4.7679847e-08
2.5369195e-06
-4.0774801e-08
2.632573e-06
-3.2724132e-08
2.6440569e-06
-2.3561645e-08
2.5239761e-06
-1.3728606e-08
2.2084791e-06
-4.7070249e-09
1.6156202e-06
6.4778267e-07
-3.0615089e-10
1.6423984e-08
-1.3335687e-09
4.9937992e-08
-3.3032286e-09
8.7708952e-08
-6.4240857e-09
1.2745654e-07
-1.0854428e-08
1.6671299e-07
-1.6657228e-08
2.0322064e-07
-2.3764138e-08
2.35339e-07
-3.196336e-08
2.623284e-07
-4.0918402e-08
2.8441995e-07
-5.021195e-08
3.0267299e-07
-5.9400551e-08
3.1870112e-07
-6.8065448e-08
3.343725e-07
-7.5850877e-08
3.5156272e-07
-8.2487517e-08
3.7199223e-07
-8.7803193e-08
3.9714387e-07
-9.1723686e-08
4.2823985e-07
-9.4266371e-08
4.6625651e-07
-9.5527636e-08
5.1196147e-07
-9.5665128e-08
5.6596403e-07
-9.4875722e-08
6.2877334e-07
-9.3371418e-08
7.0085932e-07
-9.1356127e-08
7.8270891e-07
-8.9006006e-08
8.748679e-07
-8.6456394e-08
9.7795624e-07
-8.3795173e-08
1.0926444e-06
-8.1062209e-08
1.2195781e-06
-7.8253036e-08
1.3592363e-06
-7.5323646e-08
1.5117061e-06
-7.2196447e-08
1.6763483e-06
-6.8764571e-08
1.8513199e-06
-6.4896393e-08
2.0329076e-06
-6.0440628e-08
2.2146166e-06
-5.5232516e-08
2.3859475e-06
-4.9104626e-08
2.5307917e-06
-4.1903768e-08
2.6253721e-06
-3.3529343e-08
2.6356824e-06
-2.4036701e-08
2.5144835e-06
-1.3918811e-08
2.1983612e-06
-4.729487e-09
1.6064311e-06
6.4305317e-07
-2.9459241e-10
1.6718576e-08
-1.2843713e-09
5.092777e-08
-3.1847558e-09
8.9609339e-08
-6.2025541e-09
1.3047434e-07
-1.0499991e-08
1.7101043e-07
-1.615214e-08
2.0887279e-07
-2.3110766e-08
2.4229762e-07
-3.1189348e-08
2.7040698e-07
-4.0077056e-08
2.9330766e-07
-4.9377724e-08
3.1197366e-07
-5.8661086e-08
3.2798448e-07
-6.7512198e-08
3.4322361e-07
-7.5569887e-08
3.5962041e-07
-8.2551329e-08
3.7897367e-07
-8.8264295e-08
4.0285682e-07
-9.2609872e-08
4.3258545e-07
-9.5578585e-08
4.692252e-07
-9.7240353e-08
5.1362326e-07
-9.772999e-08
5.6645367e-07
-9.7227736e-08
6.2827105e-07
-9.5936732e-08
6.9956833e-07
-9.406019e-08
7.8083238e-07
-9.1780459e-08
8.7258814e-07
-8.9243139e-08
9.7541894e-07
-8.6548104e-08
1.0899494e-06
-8.37462e-08
1.2167762e-06
-8.084146e-08
1.3563315e-06
-7.7795508e-08
1.5086601e-06
-7.4533128e-08
1.6730859e-06
-7.0947383e-08
1.8477342e-06
-6.6905139e-08
2.0288654e-06
-6.2251994e-08
2.2099635e-06
-5.681992e-08
2.3805155e-06
-5.0438355e-08
2.52441e-06
-4.2953069e-08
2.6178869e-06
-3.4269967e-08
2.6269992e-06
-2.4466994e-08
2.5046805e-06
-1.4086431e-08
2.1879807e-06
-4.7475768e-09
1.597092e-06
6.3830575e-07
-2.8405879e-10
1.7002636e-08
-1.2394309e-09
5.1883141e-08
-3.0762334e-09
9.1446142e-08
-5.9988242e-09
1.3339693e-07
-1.0172307e-08
1.7518391e-07
-1.5681858e-08
2.1438234e-07
-2.2496796e-08
2.4911255e-07
-3.0453275e-08
2.7836346e-07
-3.9264187e-08
3.0211856e-07
-4.8553652e-08
3.2126312e-07
-5.7905005e-08
3.3733583e-07
-6.6908684e-08
3.522273e-07
-7.520064e-08
3.6791236e-07
-8.2487691e-08
3.8626073e-07
-8.8561069e-08
4.0893019e-07
-9.3300637e-08
4.3732502e-07
-9.6672748e-08
4.725973e-07
-9.8722704e-08
5.1567322e-07
-9.9562666e-08
5.6729363e-07
-9.9354842e-08
6.2806325e-07
-9.8291256e-08
6.9850472e-07
-9.657122e-08
7.7911237e-07
-9.4380292e-08
8.7039717e-07
-9.1872205e-08
9.7291088e-07
-8.9157518e-08
1.0872347e-06
-8.6297894e-08
1.2139166e-06
-8.3306128e-08
1.3533398e-06
-8.0150098e-08
1.505504e-06
-7.6757711e-08
1.6696935e-06
-7.3023013e-08
1.8439995e-06
-6.8811565e-08
2.0246539e-06
-6.3966551e-08
2.2051185e-06
-5.8317201e-08
2.3748661e-06
-5.1690038e-08
2.5177829e-06
-4.3931199e-08
2.610128e-06
-3.4953296e-08
2.6180214e-06
-2.4857886e-08
2.4945851e-06
-1.4235027e-08
2.1773577e-06
-4.7614479e-09
1.5876187e-06
6.335442e-07
-2.7441396e-10
1.7277049e-08
-1.1981927e-09
5.280692e-08
-2.9763985e-09
9.3224349e-08
-5.8107659e-09
1.362313e-07
-9.8684121e-09
1.7924156e-07
-1.5243011e-08
2.1975694e-07
-2.1919234e-08
2.5578878e-07
-2.9753656e-08
2.8619789e-07
-3.8481067e-08
3.1084597e-07
-4.7744946e-08
3.30527e-07
-5.7142349e-08
3.4673324e-07
-6.6270196e-08
3.6135515e-07
-7.4763471e-08
3.7640563e-07
-8.2321231e-08
3.938185e-07
-8.8721096e-08
4.1533005e-07
-9.3824741e-08
4.4242865e-07
-9.757704e-08
4.7634961e-07
-1.0000057e-07
5.1809675e-07
-1.0118559e-07
5.6847864e-07
-1.0127579e-07
6.2815345e-07
-1.0045004e-07
6.9767898e-07
-9.8901424e-08
7.7756376e-07
-9.681582e-08
8.6831155e-07
-9.4352918e-08
9.7044802e-07
-9.163252e-08
1.0845143e-06
-8.87263e-08
1.2110103e-06
-8.5656167e-08
1.3502697e-06
-8.2396623e-08
1.5022445e-06
-7.8879681e-08
1.6661766e-06
-7.5000706e-08
1.8401205e-06
-7.0624781e-08
2.0202779e-06
-6.5593164e-08
2.200087e-06
-5.9732508e-08
2.3690055e-06
-5.2867488e-08
2.5109179e-06
-4.4844684e-08
2.6021053e-06
-3.5585206e-08
2.6087618e-06
-2.5213975e-08
2.484214e-06
-1.4366617e-08
2.1665102e-06
-4.7724101e-09
1.5780244e-06
6.2877186e-07
-2.6554101e-10
1.7542592e-08
-1.1601945e-09
5.3701572e-08
-2.8842013e-09
9.4948358e-08
-5.6365682e-09
1.3898366e-07
-9.5857417e-09
1.8319073e-07
-1.4832577e-08
2.2500378e-07
-2.137523e-08
2.6233143e-07
-2.9088695e-08
2.9391136e-07
-3.7727987e-08
3.1948526e-07
-4.6955003e-08
3.3975402e-07
-5.6380408e-08
3.5615865e-07
-6.5608375e-08
3.7058312e-07
-7.4274423e-08
3.8507167e-07
-8.2071869e-08
4.0161596e-07
-8.8767248e-08
4.2202543e-07
-9.4206605e-08
4.4786801e-07
-9.8315928e-08
4.8045894e-07
-1.01097e-07
5.208778e-07
-1.0261921e-07
5.7000088e-07
-1.0300773e-07
6.2854197e-07
-1.0242715e-07
6.9709838e-07
-1.0106206e-07
7.7619868e-07
-9.90964e-08
8.6634587e-07
-9.6693488e-08
9.6804515e-07
-9.3980751e-08
1.0818015e-06
-9.1039026e-08
1.2080687e-06
-8.7899322e-08
1.3471299e-06
-8.4543079e-08
1.4988883e-06
-8.0906881e-08
1.6625404e-06
-7.6888332e-08
1.836102e-06
-7.235228e-08
2.015742e-06
-6.7139023e-08
2.1948737e-06
-6.1072864e-08
2.3629393e-06
-5.3977099e-08
2.5038221e-06
-4.5699704e-08
2.5938279e-06
-3.6170633e-08
2.5992328e-06
-2.553896e-08
2.4735822e-06
-1.448343e-08
2.1554547e-06
-4.7803395e-09
1.5683213e-06
6.2399157e-07
-2.5735073e-10
1.7799941e-08
-1.1250485e-09
5.456927e-08
-2.7987585e-09
9.6622068e-08
-5.4746898e-09
1.4165959e-07
-9.3221015e-09
1.8703814e-07
-1.444789e-08
2.3012956e-07
-2.0862126e-08
2.6874566e-07
-2.8456452e-08
3.0150569e-07
-3.7004604e-08
3.2803341e-07
-4.6185913e-08
3.4893533e-07
-5.5624447e-08
3.6559718e-07
-6.4932129e-08
3.7989079e-07
-7.3746121e-08
3.9388567e-07
-8.1755772e-08
4.0962561e-07
-8.8718485e-08
4.2898813e-07
-9.4467013e-08
4.5361654e-07
-9.8910713e-08
4.8490262e-07
-1.0203243e-07
5.2399953e-07
-1.0388216e-07
5.718506e-07
-1.045667e-07
6.2922652e-07
-1.0423569e-07
6.9676735e-07
-1.0306375e-07
7.7502674e-07
-1.0123062e-07
8.6451275e-07
-9.890128e-08
9.6571582e-07
-9.6208868e-08
1.0791091e-06
-9.3242664e-08
1.2051025e-06
-9.0042115e-08
1.3439293e-06
-8.6595984e-08
1.4954422e-06
-8.2846039e-08
1.6587904e-06
-7.8692447e-08
1.8319484e-06
-7.4000876e-08
2.0110504e-06
-6.8610433e-08
2.1894832e-06
-6.2344115e-08
2.356673e-06
-5.5024436e-08
2.4965023e-06
-4.6501128e-08
2.5853046e-06
-3.6713812e-08
2.5894456e-06
-2.5835889e-08
2.4627042e-06
-1.4587049e-08
2.144206e-06
-4.7856829e-09
1.5585201e-06
6.1920573e-07
-2.4975658e-10
1.8049698e-08
-1.092427e-09
5.5411941e-08
-2.7193158e-09
9.8248954e-08
-5.3238108e-09
1.4426409e-07
-9.0755538e-09
1.9078988e-07
-1.4086567e-08
2.3514057e-07
-2.0377452e-08
2.7503655e-07
-2.7854978e-08
3.0898321e-07
-3.6310153e-08
3.3648859e-07
-4.5438853e-08
3.5806403e-07
-5.4878234e-08
3.7503656e-07
-6.4248262e-08
3.8926082e-07
-7.3188671e-08
4.0282608e-07
-8.1386109e-08
4.1782304e-07
-8.8590622e-08
4.3619265e-07
-9.4623635e-08
4.5964955e-07
-9.9379816e-08
4.8965881e-07
-1.0282508e-07
5.2744478e-07
-1.049912e-07
5.7401673e-07
-1.0596739e-07
6.302027e-07
-1.0588796e-07
6.9668792e-07
-1.0491639e-07
7.7405519e-07
-1.0322653e-07
8.6282292e-07
-1.0098299e-07
9.6347223e-07
-9.8322906e-08
1.0764491e-06
-9.5342868e-08
1.2021224e-06
-9.2090259e-08
1.3406767e-06
-8.8561183e-08
1.4919131e-06
-8.4702963e-08
1.6549322e-06
-8.0418897e-08
1.8276643e-06
-7.5576027e-08
2.0062074e-06
-7.0012853e-08
2.1839202e-06
-6.3551588e-08
2.3502118e-06
-5.6014171e-08
2.4889648e-06
-4.7253188e-08
2.5765437e-06
-3.7218555e-08
2.5794109e-06
-2.6107387e-08
2.451593e-06
-1.4678962e-08
2.1327777e-06
-4.7890295e-09
1.5486301e-06
6.1441678e-07
-2.4269758e-10
1.8292395e-08
-1.0620549e-09
5.6231299e-08
-2.6452265e-09
9.9832125e-08
-5.1827993e-09
1.4680167e-07
-8.8444367e-09
1.9445152e-07
-1.3746509e-08
2.4004265e-07
-1.9918984e-08
2.8120902e-07
-2.7282328e-08
3.1634656e-07
-3.564363e-08
3.4484989e-07
-4.4714373e-08
3.6713478e-07
-5.4144434e-08
3.8446662e-07
-6.3562e-08
3.9867839e-07
-7.2610058e-08
4.1187415e-07
-8.0973641e-08
4.2618662e-07
-8.8396844e-08
4.4361587e-07
-9.4691468e-08
4.6594415e-07
-9.9739324e-08
4.9470666e-07
-1.03491e-07
5.3119647e-07
-1.0596157e-07
5.764873e-07
-1.0722338e-07
6.314645e-07
-1.0739549e-07
6.9686003e-07
-1.0662946e-07
7.7328914e-07
-1.0509178e-07
8.6128523e-07
-1.0294476e-07
9.6132525e-07
-1.0032832e-07
1.0738326e-06
-9.7344671e-08
1.1991387e-06
-9.4048638e-08
1.3373807e-06
-9.0443632e-08
1.4883081e-06
-8.6482664e-08
1.6509712e-06
-8.207275e-08
1.8232545e-06
-7.7082648e-08
2.0012172e-06
-7.1351111e-08
2.1781887e-06
-6.469984e-08
2.3435604e-06
-5.6950584e-08
2.4812157e-06
-4.7959734e-08
2.5675528e-06
-3.7687743e-08
2.569139e-06
-2.6355859e-08
2.4402609e-06
-1.4760352e-08
2.1211823e-06
-4.7902532e-09
1.5386602e-06
6.0962642e-07
-2.3611122e-10
1.8528507e-08
-1.0336957e-09
5.7028881e-08
-2.5759424e-09
1.0137437e-07
-5.0506682e-09
1.4927639e-07
-8.6272925e-09
1.9802815e-07
-1.3425856e-08
2.4484121e-07
-1.9484663e-08
2.8726783e-07
-2.6736687e-08
3.2359858e-07
-3.5003905e-08
3.5311711e-07
-4.4012581e-08
3.7614345e-07
-5.3424882e-08
3.9387892e-07
-6.2877344e-08
4.0813086e-07
-7.2016675e-08
4.2101348e-07
-8.0527177e-08
4.3469712e-07
-8.8148248e-08
4.5123694e-07
-9.4683372e-08
4.7247928e-07
-1.0000316e-07
5.0002644e-07
-1.040445e-07
5.352378e-07
-1.0680704e-07
5.7924984e-07
-1.083472e-07
6.3300469e-07
-1.0876913e-07
6.9728194e-07
-1.0821187e-07
7.7273188e-07
-1.0683348e-07
8.5990685e-07
-1.047926e-07
9.592844e-07
-1.0223006e-07
1.07127e-06
-9.9252537e-08
1.1961613e-06
-9.5921687e-08
1.3340498e-06
-9.2247748e-08
1.4846342e-06
-8.8189501e-08
1.646913e-06
-8.3658427e-08
1.8187234e-06
-7.8525233e-08
1.996084e-06
-7.2629469e-08
2.172293e-06
-6.5792659e-08
2.3367237e-06
-5.7837591e-08
2.4732606e-06
-4.8624182e-08
2.5583394e-06
-3.8124482e-08
2.5586394e-06
-2.6583149e-08
2.4287195e-06
-1.4832049e-08
2.1094312e-06
-4.789946e-09
1.5286179e-06
6.0483674e-07
-2.2995459e-10
1.8758461e-08
-1.0071395e-09
5.7806068e-08
-2.5109908e-09
1.0287822e-07
-4.9265691e-09
1.5169197e-07
-8.4228348e-09
2.0152441e-07
-1.3122944e-08
2.4954132e-07
-1.9072638e-08
2.9321752e-07
-2.621631e-08
3.3074225e-07
-3.4389764e-08
3.6129057e-07
-4.3333256e-08
3.8508693e-07
-5.2720825e-08
4.032665e-07
-6.2197352e-08
4.1760737e-07
-7.1413625e-08
4.3022976e-07
-8.0053968e-08
4.4333747e-07
-8.7854043e-08
4.59037e-07
-9.4610304e-08
4.7923553e-07
-1.0018346e-07
5.0559961e-07
-1.0449817e-07
5.3955248e-07
-1.0753997e-07
5.8229165e-07
-1.0935038e-07
6.348151e-07
-1.1001895e-07
6.9795049e-07
-1.0967208e-07
7.7238504e-07
-1.0845862e-07
8.5869335e-07
-1.0653208e-07
9.5735787e-07
-1.0403274e-07
1.0687707e-06
-1.0107077e-07
1.1931993e-06
-9.7713293e-08
1.3306924e-06
-9.3977286e-08
1.4808982e-06
-8.9827524e-08
1.6427632e-06
-8.5179817e-08
1.8140756e-06
-7.9907566e-08
1.9908118e-06
-7.3851678e-08
2.1662371e-06
-6.6833933e-08
2.329706e-06
-5.8678365e-08
2.465105e-06
-4.9249523e-08
2.5489105e-06
-3.8531283e-08
2.5479211e-06
-2.6791305e-08
2.4169796e-06
-1.4895087e-08
2.097535e-06
-4.7876805e-09
1.5185104e-06
6.0004909e-07
-2.2417906e-10
1.898264e-08
-9.8221834e-10
5.8564106e-08
-2.4499485e-09
1.0434596e-07
-4.8097497e-09
1.5405177e-07
-8.2299358e-09
2.049446e-07
-1.2836289e-08
2.5414768e-07
-1.8681217e-08
2.9906245e-07
-2.571955e-08
3.3778059e-07
-3.3799982e-08
3.69371e-07
-4.2675964e-08
3.9396291e-07
-5.2033036e-08
4.1262357e-07
-6.1524301e-08
4.2709864e-07
-7.0804993e-08
4.3951046e-07
-7.9559999e-08
4.5209246e-07
-8.7522028e-08
4.6699904e-07
-9.4481593e-08
4.8619511e-07
-1.002908e-07
5.1140879e-07
-1.0486317e-07
5.4412488e-07
-1.0817155e-07
5.8560002e-07
-1.1024342e-07
6.3688696e-07
-1.1115434e-07
6.9886143e-07
-1.1101817e-07
7.7224887e-07
-1.0997367e-07
8.5764888e-07
-1.0816847e-07
9.5555264e-07
-1.0574087e-07
1.0663431e-06
-1.0280307e-07
1.1902615e-06
-9.9427052e-08