/*--------------------------------*- C++ -*----------------------------------*\
| =========                 |                                                 |
| \\      /  F ield         | OpenFOAM: The Open Source CFD Toolbox           |
|  \\    /   O peration     | Version:  3.0.1                                 |
|   \\  /    A nd           | Web:      www.OpenFOAM.org                      |
|    \\/     M anipulation  |                                                 |
\*---------------------------------------------------------------------------*/
FoamFile
{
    version     2.0;
    format      ascii;
    class       volScalarField;
    location    "2172";
    object      rho;
}
// * * * * * * * * * * * * * * * * * * * * * * * * * * * * * * * * * * * * * //

dimensions      [1 -3 0 0 0 0 0];

internalField   nonuniform List<scalar> 
4000
(
1.098893
1.1334133
1.159411
1.1770304
1.1880391
1.1944891
1.1980754
1.199983
1.2009586
1.2014397
1.2016689
1.2017745
1.2018215
1.2018418
1.2018501
1.2018535
1.2018548
1.2018553
1.2018554
1.2018555
1.2018555
1.2018555
1.2018555
1.2018555
1.2018555
1.2018555
1.2018555
1.2018555
1.2018555
1.2018555
1.2018555
1.2018555
1.2018555
1.2018555
1.2018555
1.2018555
1.2018555
1.2018555
1.2018555
1.2018555
1.0740539
1.1061751
1.1343268
1.1569519
1.1736289
1.1849966
1.1922393
1.1965956
1.1990885
1.200453
1.2011698
1.2015319
1.2017079
1.2017902
1.2018272
1.2018432
1.2018498
1.2018525
1.2018535
1.2018538
1.201854
1.201854
1.201854
1.201854
1.201854
1.201854
1.201854
1.201854
1.201854
1.201854
1.201854
1.201854
1.201854
1.201854
1.201854
1.201854
1.201854
1.201854
1.201854
1.201854
1.0625781
1.0925735
1.1199501
1.1434778
1.1623238
1.1763784
1.1861815
1.192621
1.1966317
1.199013
1.200366
1.2011034
1.2014892
1.2016831
1.2017766
1.2018199
1.2018391
1.2018472
1.2018505
1.2018518
1.2018523
1.2018525
1.2018525
1.2018525
1.2018525
1.2018525
1.2018525
1.2018525
1.2018525
1.2018525
1.2018525
1.2018525
1.2018525
1.2018525
1.2018525
1.2018525
1.2018525
1.2018525
1.2018525
1.2018525
1.0555071
1.0840768
1.110565
1.1340505
1.153721
1.1692025
1.1806585
1.1886603
1.193963
1.1973127
1.1993372
1.2005103
1.2011629
1.2015115
1.2016901
1.2017779
1.2018192
1.2018378
1.2018458
1.201849
1.2018503
1.2018508
1.201851
1.201851
1.201851
1.201851
1.201851
1.201851
1.201851
1.201851
1.201851
1.201851
1.201851
1.201851
1.201851
1.201851
1.201851
1.201851
1.201851
1.201851
1.0505229
1.0780612
1.1037994
1.1270214
1.147
1.1632774
1.1758147
1.1849616
1.1913064
1.1955078
1.1981723
1.1997943
1.200743
1.2012763
1.2015642
1.2017132
1.2017872
1.2018223
1.2018381
1.201845
1.2018478
1.2018489
1.2018493
1.2018495
1.2018495
1.2018495
1.2018495
1.2018495
1.2018495
1.2018495
1.2018495
1.2018495
1.2018495
1.2018495
1.2018495
1.2018495
1.2018495
1.2018495
1.2018495
1.2018495
1.0467338
1.0734788
1.0985964
1.1215114
1.1415798
1.1583248
1.1715963
1.1815934
1.1887706
1.1936982
1.1969437
1.1989987
1.200251
1.2009856
1.2013999
1.2016245
1.2017411
1.2017991
1.2018267
1.2018391
1.2018445
1.2018467
1.2018476
1.2018479
1.201848
1.201848
1.201848
1.201848
1.201848
1.201848
1.201848
1.201848
1.201848
1.201848
1.201848
1.201848
1.201848
1.201848
1.201848
1.201848
1.0437084
1.069816
1.0944133
1.117027
1.1370847
1.1541151
1.1679045
1.1785482
1.1863956
1.1919386
1.1957006
1.1981594
1.1997088
1.2006503
1.2012016
1.2015121
1.2016801
1.2017673
1.2018104
1.2018309
1.2018401
1.201844
1.2018456
1.2018462
1.2018464
1.2018465
1.2018465
1.2018465
1.2018465
1.2018465
1.2018465
1.2018465
1.2018465
1.2018465
1.2018465
1.2018465
1.2018465
1.2018465
1.2018465
1.2018465
1.0412086
1.0667877
1.0909411
1.113273
1.1332708
1.1504787
1.1646457
1.1757934
1.1841884
1.1902549
1.1944733
1.1973025
1.1991351
1.2002819
1.2009747
1.2013783
1.2016045
1.2017262
1.2017889
1.2018197
1.2018342
1.2018406
1.2018433
1.2018444
1.2018448
1.201845
1.201845
1.201845
1.201845
1.201845
1.201845
1.201845
1.201845
1.201845
1.201845
1.201845
1.201845
1.201845
1.201845
1.201845
1.0390902
1.0642205
1.0879892
1.1100613
1.1299748
1.1472928
1.1617425
1.1732916
1.1821411
1.1886568
1.193279
1.1964458
1.1985444
1.1998903
1.2007254
1.2012259
1.2015151
1.2016759
1.2017616
1.2018053
1.2018265
1.2018364
1.2018407
1.2018424
1.2018431
1.2018434
1.2018435
1.2018435
1.2018435
1.2018435
1.2018435
1.2018435
1.2018435
1.2018435
1.2018435
1.2018435
1.2018435
1.2018435
1.2018435
1.2018435
1.0372597
1.0620016
1.0854325
1.107266
1.1270832
1.1444674
1.1591332
1.1710082
1.1802403
1.1871452
1.1921263
1.1956004
1.1979473
1.199484
1.2004591
1.2010581
1.2014135
1.2016168
1.2017285
1.2017873
1.2018169
1.201831
1.2018375
1.2018403
1.2018414
1.2018418
1.201842
1.201842
1.201842
1.201842
1.201842
1.201842
1.201842
1.201842
1.201842
1.201842
1.201842
1.201842
1.201842
1.201842
1.0356535
1.0600542
1.0831848
1.104799
1.124515
1.1419356
1.1567693
1.1689132
1.1784716
1.1857169
1.1910187
1.1947733
1.1973513
1.1990694
1.2001808
1.200878
1.2013013
1.2015496
1.2016897
1.2017657
1.2018051
1.2018246
1.2018337
1.2018378
1.2018395
1.2018402
1.2018404
1.2018405
1.2018405
1.2018405
1.2018405
1.2018405
1.2018405
1.2018405
1.2018405
1.2018405
1.2018405
1.2018405
1.2018405
1.2018405
1.0342262
1.0583237
1.0811846
1.1025968
1.1222102
1.1396466
1.1546123
1.166981
1.1768209
1.1843665
1.1899569
1.1939682
1.1967614
1.1986513
1.1998943
1.2006883
1.2011802
1.2014751
1.2016456
1.2017405
1.201791
1.2018167
1.2018292
1.2018349
1.2018374
1.2018384
1.2018388
1.201839
1.201839
1.201839
1.201839
1.201839
1.201839
1.201839
1.201839
1.201839
1.201839
1.201839
1.201839
1.201839
1.0329448
1.0567699
1.0793868
1.100612
1.1201236
1.1375614
1.1526318
1.1651905
1.1752755
1.1830884
1.1889399
1.1931871
1.1961809
1.1982334
1.1996028
1.2004915
1.2010518
1.2013943
1.2015966
1.2017117
1.2017746
1.2018075
1.2018239
1.2018317
1.2018352
1.2018366
1.2018372
1.2018374
1.2018375
1.2018375
1.2018375
1.2018375
1.2018375
1.2018375
1.2018375
1.2018375
1.2018375
1.2018375
1.2018375
1.2018375
1.0317842
1.0553627
1.077757
1.0988085
1.1182204
1.1356491
1.1508031
1.163524
1.1738244
1.1818766
1.1879657
1.1924305
1.1956118
1.1978182
1.1993088
1.2002897
1.2009177
1.201308
1.2015431
1.2016796
1.201756
1.2017969
1.2018178
1.201828
1.2018327
1.2018347
1.2018355
1.2018359
1.201836
1.201836
1.201836
1.201836
1.201836
1.201836
1.201836
1.201836
1.201836
1.201836
1.201836
1.201836
1.0307252
1.0540786
1.0762686
1.0971585
1.1164733
1.1338852
1.1491061
1.1619666
1.1724576
1.1807256
1.1870321
1.1916984
1.1950553
1.1974075
1.1990142
1.2000845
1.2007789
1.2012172
1.2014856
1.2016445
1.2017351
1.2017848
1.2018108
1.2018238
1.2018299
1.2018327
1.2018338
1.2018343
1.2018345
1.2018345
1.2018345
1.2018345
1.2018345
1.2018345
1.2018345
1.2018345
1.2018345
1.2018345
1.2018345
1.2018345
1.0297527
1.0528994
1.074901
1.0956396
1.1148604
1.1322499
1.1475244
1.1605059
1.1711667
1.1796303
1.1861365
1.1909902
1.1945121
1.1970024
1.1987205
1.1998772
1.2006368
1.2011227
1.2014247
1.2016065
1.2017122
1.2017712
1.2018029
1.201819
1.2018269
1.2018305
1.201832
1.2018327
1.2018329
1.201833
1.201833
1.201833
1.201833
1.201833
1.201833
1.201833
1.201833
1.201833
1.201833
1.201833
1.0288547
1.0518104
1.0736373
1.0942341
1.1133639
1.1307271
1.1460443
1.1591313
1.1699443
1.178586
1.1852765
1.1903049
1.1939822
1.1966039
1.1984285
1.1996689
1.2004922
1.2010251
1.2013608
1.2015659
1.2016872
1.2017563
1.201794
1.2018137
1.2018235
1.2018281
1.2018302
1.201831
1.2018314
1.2018315
1.2018315
1.2018315
1.2018315
1.2018315
1.2018315
1.2018315
1.2018315
1.2018315
1.2018315
1.2018315
1.0280212
1.0507999
1.0724639
1.0929273
1.1119693
1.1293031
1.1446545
1.1578338
1.1687838
1.1775886
1.1844498
1.1896418
1.1934657
1.1962124
1.1981392
1.1994605
1.2003459
1.2009251
1.2012943
1.2015231
1.2016604
1.20174
1.2017842
1.2018078
1.2018198
1.2018256
1.2018282
1.2018293
1.2018298
1.20183
1.20183
1.20183
1.20183
1.20183
1.20183
1.20183
1.20183
1.20183
1.20183
1.20183
1.0272443
1.049858
1.0713698
1.0917074
1.1106646
1.1279669
1.143345
1.1566057
1.1676796
1.1766342
1.1836541
1.1889995
1.1929623
1.1958281
1.1978531
1.1992526
1.2001984
1.2008232
1.2012258
1.2014783
1.201632
1.2017224
1.2017736
1.2018013
1.2018157
1.2018228
1.2018261
1.2018276
1.2018282
1.2018284
1.2018285
1.2018285
1.2018285
1.2018285
1.2018285
1.2018285
1.2018285
1.2018285
1.2018285
1.2018285
1.0265174
1.0489768
1.0703457
1.0905642
1.1094398
1.126709
1.1421079
1.1554404
1.1666268
1.1757196
1.1828873
1.1883772
1.1924716
1.1954512
1.1975706
1.1990457
1.2000504
1.2007199
1.2011555
1.2014318
1.201602
1.2017036
1.201762
1.2017943
1.2018113
1.2018199
1.201824
1.2018258
1.2018266
1.2018269
1.201827
1.201827
1.201827
1.201827
1.201827
1.201827
1.201827
1.201827
1.201827
1.201827
1.0258349
1.0481493
1.0693839
1.0894895
1.1082862
1.1255212
1.1409358
1.154332
1.165621
1.1748416
1.1821477
1.1877738
1.1919932
1.1950817
1.1972919
1.1988402
1.1999023
1.2006155
1.2010838
1.2013837
1.2015707
1.2016836
1.2017496
1.2017866
1.2018065
1.2018167
1.2018216
1.2018239
1.2018249
1.2018253
1.2018255
1.2018255
1.2018255
1.2018255
1.2018255
1.2018255
1.2018255
1.2018255
1.2018255
1.2018255
1.025192
1.04737
1.0684776
1.088476
1.1071967
1.1243967
1.1398228
1.1532757
1.1646584
1.1739975
1.1814333
1.1871882
1.1915267
1.1947194
1.1970172
1.1986364
1.1997543
1.2005104
1.2010109
1.2013344
1.2015381
1.2016627
1.2017364
1.2017784
1.2018013
1.2018133
1.2018192
1.201822
1.2018232
1.2018237
1.2018239
1.201824
1.201824
1.201824
1.201824
1.201824
1.201824
1.201824
1.201824
1.201824
1.0245847
1.0466338
1.0676213
1.0875177
1.1061649
1.1233295
1.1387636
1.1522668
1.1637355
1.173185
1.1807427
1.1866195
1.1910716
1.1943644
1.1967465
1.1984345
1.1996068
1.2004049
1.200937
1.2012839
1.2015044
1.2016408
1.2017224
1.2017696
1.2017958
1.2018096
1.2018166
1.20182
1.2018215
1.2018221
1.2018224
1.2018225
1.2018225
1.2018225
1.2018225
1.2018225
1.2018225
1.2018225
1.2018225
1.2018225
1.0240095
1.0459367
1.0668102
1.0866092
1.1051855
1.1223145
1.1377534
1.1513016
1.1628495
1.1724018
1.1800742
1.1860668
1.1906274
1.1940163
1.1964799
1.1982346
1.19946
1.2002992
1.2008625
1.2012325
1.2014698
1.201618
1.2017078
1.2017603
1.2017898
1.2018057
1.2018139
1.2018179
1.2018197
1.2018205
1.2018208
1.201821
1.201821
1.201821
1.201821
1.201821
1.201821
1.201821
1.201821
1.201821
1.0234635
1.0452749
1.0660401
1.085746
1.1042538
1.121347
1.1367882
1.1503767
1.1619974
1.1716459
1.1794266
1.1855293
1.1901937
1.1936751
1.1962175
1.1980369
1.199314
1.2001935
1.2007875
1.2011804
1.2014344
1.2015945
1.2016924
1.2017504
1.2017835
1.2018016
1.201811
1.2018157
1.2018179
1.2018189
1.2018193
1.2018195
1.2018195
1.2018195
1.2018195
1.2018195
1.2018195
1.2018195
1.2018195
1.2018195
1.022944
1.0446453
1.0653073
1.0849241
1.1033656
1.1204232
1.1358643
1.1494889
1.161177
1.1709155
1.1787987
1.1850061
1.18977
1.1933405
1.1959591
1.1978414
1.1991689
1.2000879
1.2007121
1.2011276
1.2013982
1.2015702
1.2016765
1.2017401
1.2017768
1.2017972
1.201808
1.2018135
1.2018161
1.2018172
1.2018177
1.2018179
1.201818
1.201818
1.201818
1.201818
1.201818
1.201818
1.201818
1.201818
1.0224488
1.0440452
1.0646086
1.0841401
1.1025174
1.1195395
1.1349787
1.1486356
1.160386
1.1702091
1.1781892
1.1844966
1.1893559
1.1930122
1.1957047
1.1976482
1.199025
1.1999826
1.2006364
1.2010743
1.2013614
1.2015453
1.20166
1.2017293
1.2017698
1.2017926
1.2018048
1.2018111
1.2018141
1.2018155
1.2018161
1.2018164
1.2018165
1.2018165
1.2018165
1.2018165
1.2018165
1.2018165
1.2018165
1.2018165
1.0219758
1.0434721
1.0639412
1.0833908
1.1017059
1.1186927
1.1341284
1.1478142
1.1596225
1.1695251
1.1775971
1.184
1.1889509
1.1926902
1.1954542
1.1974573
1.1988821
1.1998776
1.2005606
1.2010206
1.2013241
1.2015199
1.2016429
1.2017181
1.2017625
1.2017877
1.2018015
1.2018086
1.2018122
1.2018138
1.2018146
1.2018149
1.201815
1.201815
1.201815
1.201815
1.201815
1.201815
1.201815
1.201815
1.0215233
1.0429238
1.0633027
1.0826734
1.1009283
1.1178802
1.1333109
1.1470226
1.1588847
1.1688621
1.1770215
1.1835157
1.1885547
1.1923741
1.1952076
1.1972687
1.1987405
1.1997731
1.2004848
1.2009666
1.2012863
1.2014939
1.2016254
1.2017065
1.2017548
1.2017826
1.201798
1.2018061
1.2018101
1.2018121
1.2018129
1.2018133
1.2018135
1.2018135
1.2018135
1.2018135
1.2018135
1.2018135
1.2018135
1.2018135
1.0210897
1.0423984
1.0626908
1.0819857
1.1001822
1.1170995
1.1325238
1.1462589
1.158171
1.168219
1.1764614
1.183043
1.1881669
1.1920638
1.1949648
1.1970824
1.1986001
1.1996691
1.2004091
1.2009123
1.2012481
1.2014675
1.2016075
1.2016945
1.2017468
1.2017773
1.2017943
1.2018034
1.2018081
1.2018103
1.2018113
1.2018118
1.2018119
1.201812
1.201812
1.201812
1.201812
1.201812
1.201812
1.201812
1.0206736
1.0418942
1.0621035
1.0813254
1.0994651
1.1163482
1.1317652
1.1455211
1.1574799
1.1675945
1.1759162
1.1825815
1.1877872
1.1917591
1.1947256
1.1968983
1.1984609
1.1995656
1.2003334
1.2008578
1.2012095
1.2014407
1.2015892
1.2016821
1.2017386
1.2017718
1.2017905
1.2018007
1.2018059
1.2018085
1.2018097
1.2018102
1.2018104
1.2018105
1.2018105
1.2018105
1.2018105
1.2018105
1.2018105
1.2018105
1.0202737
1.0414098
1.0615391
1.0806905
1.0987751
1.1156244
1.1310332
1.1448078
1.15681
1.1669878
1.1753849
1.1821306
1.1874152
1.1914597
1.19449
1.1967164
1.1983231
1.1994628
1.2002579
1.2008033
1.2011707
1.2014135
1.2015705
1.2016694
1.20173
1.201766
1.2017865
1.2017978
1.2018037
1.2018066
1.201808
1.2018086
1.2018089
1.201809
1.201809
1.201809
1.201809
1.201809
1.201809
1.201809
1.0198889
1.0409436
1.0609959
1.0800792
1.0981104
1.1149263
1.130326
1.1441173
1.1561602
1.1663977
1.1748669
1.1816899
1.1870505
1.1911655
1.1942578
1.1965368
1.1981865
1.1993606
1.2001826
1.2007486
1.2011317
1.2013861
1.2015514
1.2016564
1.2017212
1.20176
1.2017824
1.2017948
1.2018014
1.2018047
1.2018063
1.201807
1.2018073
1.2018075
1.2018075
1.2018075
1.2018075
1.2018075
1.2018075
1.2018075
1.0195181
1.0404946
1.0604726
1.0794902
1.0974693
1.1142522
1.1296422
1.1434484
1.1555293
1.1658235
1.1743615
1.1812587
1.1866929
1.1908763
1.194029
1.1963593
1.1980512
1.1992591
1.2001076
1.200694
1.2010925
1.2013583
1.2015321
1.2016431
1.2017122
1.2017539
1.2017781
1.2017917
1.201799
1.2018028
1.2018046
1.2018054
1.2018058
1.2018059
1.201806
1.201806
1.201806
1.201806
1.201806
1.201806
1.0191605
1.0400615
1.0599679
1.0789217
1.0968502
1.1136007
1.1289802
1.1427998
1.1549163
1.1652642
1.1738682
1.1808369
1.1863422
1.1905919
1.1938035
1.1961839
1.1979171
1.1991582
1.2000328
1.2006394
1.2010531
1.2013304
1.2015125
1.2016296
1.2017029
1.2017475
1.2017737
1.2017886
1.2017966
1.2018008
1.2018029
1.2018038
1.2018042
1.2018044
1.2018045
1.2018045
1.2018045
1.2018045
1.2018045
1.2018045
1.0188153
1.0396433
1.0594805
1.0783727
1.0962519
1.1129704
1.128339
1.1421703
1.1543203
1.1647193
1.1733863
1.1804238
1.185998
1.1903122
1.1935811
1.1960106
1.1977844
1.1990581
1.1999584
1.2005848
1.2010136
1.2013022
1.2014927
1.2016158
1.2016934
1.2017409
1.2017692
1.2017853
1.2017941
1.2017988
1.2018011
1.2018022
1.2018027
1.2018029
1.201803
1.201803
1.201803
1.201803
1.201803
1.201803
1.0184815
1.0392391
1.0590094
1.0778418
1.0956731
1.11236
1.1277172
1.141559
1.1537402
1.1641879
1.1729154
1.1800192
1.18566
1.1900369
1.1933619
1.1958393
1.1976528
1.1989587
1.1998843
1.2005303
1.2009741
1.2012739
1.2014727
1.2016018
1.2016837
1.2017342
1.2017645
1.2017819
1.2017916
1.2017967
1.2017993
1.2018005
1.2018011
1.2018014
1.2018015
1.2018015
1.2018015
1.2018015
1.2018015
1.2018015
1.0181587
1.0388481
1.0585536
1.0773281
1.0951125
1.1117683
1.1271137
1.1409648
1.1531755
1.1636694
1.172455
1.1796228
1.1853281
1.189766
1.1931456
1.19567
1.1975226
1.1988599
1.1998105
1.2004759
1.2009345
1.2012454
1.2014525
1.2015876
1.2016738
1.2017274
1.2017596
1.2017784
1.2017889
1.2017946
1.2017975
1.2017989
1.2017995
1.2017998
1.2017999
1.2018
1.2018
1.2018
1.2018
1.2018
1.017846
1.0384695
1.0581122
1.0768304
1.0945692
1.1111944
1.1265277
1.1403868
1.1526252
1.1631632
1.1720045
1.1792341
1.1850021
1.1894993
1.1929322
1.1955026
1.1973935
1.1987619
1.1997371
1.2004216
1.2008948
1.2012168
1.2014321
1.2015732
1.2016637
1.2017203
1.2017547
1.2017748
1.2017862
1.2017924
1.2017956
1.2017972
1.201798
1.2017983
1.2017984
1.2017985
1.2017985
1.2017985
1.2017985
1.2017985
1.017543
1.0381026
1.0576844
1.076348
1.0940423
1.1106373
1.1259581
1.1398243
1.1520887
1.1626688
1.1715636
1.1788529
1.1846816
1.1892366
1.1927217
1.1953372
1.1972657
1.1986646
1.1996641
1.2003675
1.2008552
1.2011881
1.2014115
1.2015586
1.2016535
1.2017131
1.2017496
1.2017712
1.2017835
1.2017902
1.2017938
1.2017955
1.2017964
1.2017967
1.2017969
1.201797
1.201797
1.201797
1.201797
1.201797
1.017249
1.0377467
1.0572695
1.0758799
1.0935308
1.110096
1.1254042
1.1392765
1.1515653
1.1621856
1.1711319
1.1784789
1.1843666
1.1889779
1.1925139
1.1951735
1.197139
1.1985681
1.1995914
1.2003135
1.2008155
1.2011593
1.2013908
1.2015439
1.2016431
1.2017058
1.2017444
1.2017674
1.2017806
1.201788
1.2017919
1.2017938
1.2017948
1.2017952
1.2017954
1.2017955
1.2017955
1.2017955
1.2017955
1.2017955
1.0169637
1.0374012
1.0568667
1.0754254
1.0930338
1.1095698
1.1248651
1.1387426
1.1510545
1.1617131
1.170709
1.1781117
1.1840568
1.1887229
1.1923088
1.1950117
1.1970135
1.1984722
1.1995191
1.2002596
1.2007759
1.2011304
1.20137
1.201529
1.2016325
1.2016983
1.2017391
1.2017635
1.2017777
1.2017857
1.2017899
1.2017921
1.2017932
1.2017936
1.2017939
1.2017939
1.201794
1.201794
1.201794
1.201794
1.0166865
1.0370656
1.0564753
1.0749837
1.0925508
1.1090579
1.1243401
1.138222
1.1505556
1.1612509
1.1702945
1.1777513
1.183752
1.1884717
1.1921062
1.1948516
1.1968891
1.198377
1.1994472
1.200206
1.2007363
1.2011015
1.2013491
1.201514
1.2016218
1.2016907
1.2017336
1.2017596
1.2017748
1.2017833
1.201788
1.2017903
1.2017915
1.2017921
1.2017923
1.2017924
1.2017925
1.2017925
1.2017925
1.2017925
1.016417
1.0367394
1.0560949
1.0745543
1.0920808
1.1085596
1.1238285
1.1377141
1.1500681
1.1607986
1.1698881
1.1773972
1.183452
1.188224
1.1919062
1.1946933
1.1967659
1.1982825
1.1993757
1.2001525
1.2006967
1.2010725
1.201328
1.2014989
1.201611
1.201683
1.2017281
1.2017556
1.2017717
1.2017809
1.2017859
1.2017886
1.2017899
1.2017905
1.2017908
1.2017909
1.201791
1.201791
1.201791
1.201791
1.0161548
1.036422
1.0557249
1.0741365
1.0916234
1.1080742
1.1233297
1.1372183
1.1495916
1.1603556
1.1694895
1.1770493
1.1831568
1.1879797
1.1917086
1.1945366
1.1966437
1.1981887
1.1993046
1.2000993
1.2006572
1.2010435
1.2013069
1.2014837
1.2016001
1.2016752
1.2017225
1.2017514
1.2017686
1.2017785
1.2017839
1.2017868
1.2017882
1.2017889
1.2017893
1.2017894
1.2017895
1.2017895
1.2017895
1.2017895
1.0158996
1.0361131
1.0553647
1.0737297
1.0911779
1.1076011
1.1228432
1.1367341
1.1491256
1.1599218
1.1690985
1.1767074
1.1828661
1.1877388
1.1915134
1.1943815
1.1965227
1.1980956
1.1992339
1.2000462
1.2006178
1.2010145
1.2012858
1.2014683
1.201589
1.2016672
1.2017167
1.2017472
1.2017655
1.201776
1.2017819
1.201785
1.2017866
1.2017874
1.2017877
1.2017879
1.2017879
1.201788
1.201788
1.201788
1.015651
1.0358123
1.0550138
1.0733334
1.0907437
1.1071397
1.1223683
1.1362609
1.1486696
1.1594966
1.1687146
1.1763711
1.1825798
1.1875011
1.1913205
1.194228
1.1964026
1.1980031
1.1991636
1.1999933
1.2005785
1.2009855
1.2012645
1.2014529
1.2015779
1.2016592
1.2017109
1.201743
1.2017622
1.2017735
1.2017798
1.2017831
1.2017849
1.2017858
1.2017862
1.2017864
1.2017864
1.2017865
1.2017865
1.2017865
1.0154088
1.0355191
1.0546719
1.0729471
1.0903203
1.1066896
1.1219045
1.1357984
1.1482233
1.1590799
1.1683377
1.1760405
1.1822977
1.1872666
1.1911299
1.1940761
1.1962837
1.1979113
1.1990937
1.1999406
1.2005392
1.2009564
1.2012432
1.2014374
1.2015666
1.2016511
1.201705
1.2017386
1.2017589
1.2017709
1.2017776
1.2017813
1.2017832
1.2017842
1.2017846
1.2017848
1.2017849
1.201785
1.201785
1.201785
1.0151726
1.0352332
1.0543385
1.0725703
1.0899072
1.1062502
1.1214514
1.135346
1.1477861
1.1586711
1.1679675
1.1757152
1.1820198
1.1870351
1.1909414
1.1939257
1.1961657
1.1978202
1.1990242
1.1998882
1.2005
1.2009274
1.2012219
1.2014218
1.2015553
1.2016428
1.201699
1.2017342
1.2017556
1.2017682
1.2017755
1.2017794
1.2017815
1.2017826
1.2017831
1.2017833
1.2017834
1.2017834
1.2017835
1.2017835
1.0149421
1.0349543
1.0540132
1.0722027
1.089504
1.105821
1.1210085
1.1349033
1.1473579
1.1582701
1.1676038
1.1753951
1.1817459
1.1868066
1.1907551
1.1937768
1.1960487
1.1977296
1.198955
1.1998359
1.2004609
1.2008984
1.2012005
1.2014061
1.2015439
1.2016345
1.2016929
1.2017297
1.2017522
1.2017656
1.2017733
1.2017775
1.2017798
1.2017809
1.2017815
1.2017818
1.2017819
1.2017819
1.201782
1.201782
1.0147171
1.0346821
1.0536956
1.0718438
1.0891102
1.1054016
1.1205753
1.13447
1.1469382
1.1578766
1.1672463
1.17508
1.1814759
1.186581
1.1905709
1.1936293
1.1959327
1.1976398
1.1988862
1.1997839
1.2004219
1.2008694
1.2011791
1.2013904
1.2015324
1.2016261
1.2016867
1.2017251
1.2017487
1.2017628
1.201771
1.2017756
1.201778
1.2017793
1.2017799
1.2017802
1.2017804
1.2017804
1.2017804
1.2017805
1.0144973
1.0344162
1.0533855
1.0714932
1.0887254
1.1049916
1.1201516
1.1340456
1.1465267
1.1574903
1.1668948
1.1747698
1.1812096
1.1863582
1.1903887
1.1934833
1.1958177
1.1975505
1.1988178
1.1997321
1.2003829
1.2008404
1.2011576
1.2013746
1.2015208
1.2016176
1.2016805
1.2017204
1.2017452
1.2017601
1.2017688
1.2017736
1.2017763
1.2017777
1.2017784
1.2017787
1.2017788
1.2017789
1.2017789
1.2017789
1.0142826
1.0341564
1.0530825
1.0711507
1.0883493
1.1045906
1.1197369
1.1336299
1.1461232
1.1571109
1.1665492
1.1744642
1.1809469
1.1861381
1.1902084
1.1933386
1.1957036
1.1974618
1.1987498
1.1996804
1.2003441
1.2008114
1.2011362
1.2013588
1.2015092
1.2016091
1.2016742
1.2017157
1.2017416
1.2017573
1.2017665
1.2017717
1.2017745
1.201776
1.2017768
1.2017771
1.2017773
1.2017774
1.2017774
1.2017774
1.0140727
1.0339025
1.0527863
1.0708157
1.0879814
1.1041982
1.1193308
1.1332225
1.1457273
1.1567382
1.1662093
1.1741633
1.1806878
1.1859207
1.1900301
1.1931953
1.1955904
1.1973737
1.1986821
1.199629
1.2003054
1.2007825
1.2011147
1.2013429
1.2014975
1.2016004
1.2016678
1.201711
1.201738
1.2017544
1.2017641
1.2017697
1.2017727
1.2017744
1.2017752
1.2017756
1.2017758
1.2017759
1.2017759
1.2017759
1.0138675
1.0336542
1.0524967
1.0704881
1.0876215
1.1038142
1.118933
1.1328231
1.1453387
1.156372
1.1658748
1.1738667
1.1804322
1.1857059
1.1898537
1.1930533
1.1954781
1.1972862
1.1986149
1.1995778
1.2002668
1.2007536
1.2010932
1.201327
1.2014857
1.2015917
1.2016614
1.2017061
1.2017343
1.2017515
1.2017618
1.2017677
1.2017709
1.2017727
1.2017736
1.201774
1.2017743
1.2017744
1.2017744
1.2017744
1.0136666
1.0334112
1.0522133
1.0701676
1.0872693
1.1034381
1.1185433
1.1324314
1.1449572
1.1560121
1.1655455
1.1735744
1.1801798
1.1854935
1.1896791
1.1929126
1.1953666
1.1971993
1.1985479
1.1995268
1.2002283
1.2007247
1.2010717
1.201311
1.2014739
1.201583
1.2016549
1.2017013
1.2017306
1.2017486
1.2017594
1.2017656
1.2017691
1.201771
1.201772
1.2017725
1.2017727
1.2017728
1.2017729
1.2017729
1.01347
1.0331734
1.0519359
1.0698538
1.0869244
1.1030697
1.1181612
1.1320471
1.1445825
1.1556582
1.1652214
1.1732863
1.1799308
1.1852837
1.1895063
1.1927731
1.1952561
1.197113
1.1984814
1.199476
1.2001899
1.2006959
1.2010501
1.201295
1.201462
1.2015742
1.2016483
1.2016963
1.2017268
1.2017456
1.2017569
1.2017635
1.2017673
1.2017693
1.2017704
1.2017709
1.2017712
1.2017713
1.2017714
1.2017714
1.0132775
1.0329406
1.0516643
1.0695465
1.0865865
1.1027087
1.1177866
1.13167
1.1442145
1.1553102
1.1649023
1.1730023
1.1796849
1.1850762
1.1893352
1.1926349
1.1951464
1.1970272
1.1984151
1.1994255
1.2001516
1.2006671
1.2010286
1.201279
1.2014501
1.2015653
1.2016417
1.2016913
1.2017229
1.2017426
1.2017545
1.2017614
1.2017654
1.2017676
1.2017688
1.2017694
1.2017696
1.2017698
1.2017698
1.2017699
1.013089
1.0327126
1.0513983
1.0692455
1.0862555
1.1023548
1.1174191
1.1312997
1.1438529
1.1549678
1.164588
1.1727221
1.1794421
1.1848711
1.1891658
1.1924979
1.1950375
1.196942
1.1983493
1.1993751
1.2001134
1.2006383
1.2010071
1.2012629
1.2014381
1.2015564
1.201635
1.2016863
1.201719
1.2017395
1.201752
1.2017593
1.2017635
1.2017659
1.2017671
1.2017678
1.2017681
1.2017683
1.2017683
1.2017683
1.0129042
1.0324891
1.0511376
1.0689505
1.085931
1.1020077
1.1170585
1.1309362
1.1434974
1.1546309
1.1642783
1.1724458
1.1792023
1.1846682
1.1889981
1.1923621
1.1949294
1.1968573
1.1982837
1.1993249
1.2000753
1.2006096
1.2009855
1.2012468
1.2014261
1.2015474
1.2016282
1.2016812
1.2017151
1.2017364
1.2017494
1.2017572
1.2017617
1.2017641
1.2017655
1.2017662
1.2017666
1.2017667
1.2017668
1.2017668
1.0127231
1.03227
1.0508821
1.0686613
1.0856128
1.1016673
1.1167046
1.1305791
1.143148
1.1542993
1.1639732
1.1721732
1.1789654
1.1844675
1.188832
1.1922274
1.1948221
1.1967731
1.1982185
1.199275
1.2000374
1.200581
1.200964
1.2012307
1.201414
1.2015384
1.2016215
1.201676
1.2017111
1.2017333
1.2017469
1.201755
1.2017597
1.2017624
1.2017638
1.2017646
1.201765
1.2017652
1.2017653
1.2017653
1.0125455
1.0320553
1.0506315
1.0683777
1.0853007
1.1013332
1.1163572
1.1302282
1.1428043
1.1539729
1.1636725
1.1719042
1.1787313
1.184269
1.1886676
1.1920938
1.1947156
1.1966895
1.1981537
1.1992252
1.1999995
1.2005524
1.2009425
1.2012145
1.2014019
1.2015293
1.2016146
1.2016708
1.2017071
1.2017301
1.2017443
1.2017528
1.2017578
1.2017606
1.2017622
1.201763
1.2017634
1.2017636
1.2017637
1.2017638
1.0123712
1.0318446
1.0503858
1.0680996
1.0849944
1.1010053
1.1160159
1.1298834
1.1424662
1.1536515
1.1633761
1.1716387
1.1785
1.1840727
1.1885046
1.1919614
1.1946099
1.1966063
1.1980892
1.1991756
1.1999617
1.2005238
1.200921
1.2011984
1.2013898
1.2015202
1.2016077
1.2016655
1.2017031
1.2017269
1.2017417
1.2017506
1.2017559
1.2017589
1.2017605
1.2017614
1.2017619
1.2017621
1.2017622
1.2017622
1.0122003
1.0316379
1.0501446
1.0678266
1.0846938
1.1006834
1.1156806
1.1295443
1.1421336
1.1533349
1.1630838
1.1713766
1.1782714
1.1838783
1.1883432
1.1918301
1.1945049
1.1965237
1.1980249
1.1991263
1.1999241
1.2004953
1.2008995
1.2011822
1.2013777
1.201511
1.2016008
1.2016603
1.2016989
1.2017236
1.201739
1.2017484
1.2017539
1.2017571
1.2017589
1.2017598
1.2017603
1.2017606
1.2017607
1.2017607
1.0120324
1.031435
1.049908
1.0675586
1.0843987
1.1003671
1.1153512
1.129211
1.1418062
1.1530231
1.1627955
1.1711178
1.1780455
1.183686
1.1881833
1.1916998
1.1944007
1.1964416
1.1979611
1.1990771
1.1998866
1.2004668
1.200878
1.201166
1.2013655
1.2015018
1.2015938
1.2016549
1.2016948
1.2017203
1.2017363
1.2017461
1.2017519
1.2017553
1.2017572
1.2017582
1.2017587
1.201759
1.2017591
1.2017591
1.0118677
1.0312358
1.0496756
1.0672955
1.0841089
1.1000565
1.1150274
1.1288831
1.141484
1.1527158
1.1625112
1.1708623
1.1778221
1.1834957
1.1880248
1.1915706
1.1942972
1.1963599
1.1978975
1.1990281
1.1998491
1.2004384
1.2008565
1.2011498
1.2013532
1.2014926
1.2015868
1.2016495
1.2016906
1.201717
1.2017336
1.2017438
1.2017499
1.2017535
1.2017555
1.2017566
1.2017572
1.2017574
1.2017576
1.2017576
1.0117059
1.0310402
1.0494474
1.0670371
1.0838242
1.0997512
1.114709
1.1285605
1.1411667
1.152413
1.1622307
1.17061
1.1776013
1.1833073
1.1878678
1.1914424
1.1941944
1.1962788
1.1978342
1.1989793
1.1998118
1.20041
1.200835
1.2011336
1.201341
1.2014833
1.2015797
1.2016441
1.2016864
1.2017136
1.2017309
1.2017415
1.2017479
1.2017516
1.2017538
1.2017549
1.2017556
1.2017559
1.201756
1.201756
1.0115469
1.030848
1.0492232
1.0667832
1.0835444
1.0994511
1.1143959
1.1282431
1.1408542
1.1521145
1.161954
1.1703607
1.1773829
1.1831208
1.1877122
1.1913152
1.1940923
1.1961981
1.1977712
1.1989307
1.1997746
1.2003817
1.2008135
1.2011173
1.2013287
1.201474
1.2015726
1.2016386
1.2016821
1.2017103
1.2017281
1.2017391
1.2017458
1.2017498
1.201752
1.2017533
1.201754
1.2017543
1.2017545
1.2017545
1.0113907
1.0306592
1.0490029
1.0665337
1.0832694
1.0991561
1.1140879
1.1279306
1.1405464
1.1518202
1.1616808
1.1701144
1.1771669
1.1829361
1.1875579
1.1911889
1.1939908
1.1961178
1.1977086
1.1988823
1.1997375
1.2003534
1.2007921
1.2011011
1.2013164
1.2014647
1.2015655
1.2016331
1.2016778
1.2017068
1.2017253
1.2017368
1.2017438
1.2017479
1.2017503
1.2017517
1.2017524
1.2017527
1.2017529
1.2017529
1.0112371
1.0304736
1.0487864
1.0662885
1.0829991
1.0988659
1.1137849
1.127623
1.1402431
1.15153
1.1614112
1.1698711
1.1769532
1.1827532
1.187405
1.1910637
1.1938901
1.196038
1.1976462
1.198834
1.1997005
1.2003252
1.2007706
1.2010849
1.2013041
1.2014553
1.2015583
1.2016276
1.2016735
1.2017034
1.2017224
1.2017344
1.2017417
1.201746
1.2017486
1.20175
1.2017508
1.2017512
1.2017513
1.2017514
1.0110862
1.0302911
1.0485736
1.0660474
1.0827332
1.0985805
1.1134867
1.1273201
1.1399443
1.1512437
1.161145
1.1696306
1.1767418
1.1825721
1.1872534
1.1909394
1.19379
1.1959587
1.1975841
1.198786
1.1996636
1.200297
1.2007492
1.2010686
1.2012917
1.2014459
1.2015511
1.201622
1.2016691
1.2016999
1.2017196
1.201732
1.2017396
1.2017441
1.2017468
1.2017483
1.2017492
1.2017496
1.2017498
1.2017498
1.0109377
1.0301117
1.0483643
1.0658102
1.0824717
1.0982996
1.1131931
1.1270217
1.1396497
1.1509613
1.1608822
1.1693929
1.1765327
1.1823927
1.187103
1.190816
1.1936906
1.1958798
1.1975224
1.1987381
1.1996268
1.2002689
1.2007278
1.2010523
1.2012793
1.2014364
1.2015439
1.2016164
1.2016647
1.2016963
1.2017167
1.2017295
1.2017375
1.2017422
1.201745
1.2017466
1.2017475
1.201748
1.2017482
1.2017482
1.0107917
1.0299352
1.0481584
1.065577
1.0822145
1.0980232
1.1129041
1.1267278
1.1393593
1.1506828
1.1606227
1.169158
1.1763257
1.182215
1.186954
1.1906935
1.1935918
1.1958013
1.1974609
1.1986904
1.1995901
1.2002408
1.2007064
1.201036
1.201267
1.201427
1.2015366
1.2016108
1.2016603
1.2016928
1.2017138
1.2017271
1.2017353
1.2017403
1.2017433
1.201745
1.2017459
1.2017464
1.2017466
1.2017466
1.010648
1.0297615
1.0479558
1.0653475
1.0819613
1.0977512
1.1126195
1.1264382
1.139073
1.1504078
1.1603663
1.1689257
1.1761209
1.1820389
1.1868061
1.190572
1.1934936
1.1957233
1.1973996
1.1986429
1.1995535
1.2002128
1.2006851
1.2010198
1.2012545
1.2014175
1.2015293
1.2016051
1.2016558
1.2016892
1.2017108
1.2017246
1.2017331
1.2017384
1.2017415
1.2017433
1.2017443
1.2017448
1.201745
1.2017451
1.0105065
1.0295906
1.0477565
1.0651216
1.0817121