/*--------------------------------*- C++ -*----------------------------------*\
| =========                 |                                                 |
| \\      /  F ield         | OpenFOAM: The Open Source CFD Toolbox           |
|  \\    /   O peration     | Version:  3.0.1                                 |
|   \\  /    A nd           | Web:      www.OpenFOAM.org                      |
|    \\/     M anipulation  |                                                 |
\*---------------------------------------------------------------------------*/
FoamFile
{
    version     2.0;
    format      ascii;
    class       volScalarField;
    location    "2172";
    object      T;
}
// * * * * * * * * * * * * * * * * * * * * * * * * * * * * * * * * * * * * * //

dimensions      [0 0 0 1 0 0 0];

internalField   nonuniform List<scalar> 
4000
(
321.21853
311.4352
304.45182
299.89438
297.11548
295.5111
294.62652
294.15817
293.9192
293.80151
293.74546
293.71965
293.70816
293.70322
293.70117
293.70035
293.70003
293.69992
293.69988
293.69986
293.69986
293.69986
293.69986
293.69986
293.69986
293.69986
293.69986
293.69986
293.69986
293.69986
293.69986
293.69986
293.69986
293.69986
293.69986
293.69986
293.69986
293.69986
293.69986
293.69987
328.64662
319.10336
311.18385
305.0984
300.76303
297.87781
296.06823
294.99037
294.3771
294.04249
293.867
293.77844
293.73542
293.7153
293.70626
293.70235
293.70073
293.70009
293.69984
293.69976
293.69972
293.69971
293.69971
293.69971
293.69971
293.69971
293.69971
293.69971
293.69971
293.69971
293.69971
293.69971
293.69971
293.69971
293.69971
293.69971
293.69971
293.69971
293.69972
293.69972
332.19541
323.07533
315.17795
308.69298
303.6878
300.05955
297.57972
295.97294
294.98096
294.39511
294.06327
293.88274
293.78837
293.74097
293.71811
293.70753
293.70285
293.70086
293.70005
293.69974
293.69962
293.69958
293.69957
293.69956
293.69956
293.69956
293.69956
293.69956
293.69956
293.69956
293.69956
293.69956
293.69956
293.69956
293.69956
293.69957
293.69957
293.69957
293.69957
293.69957
334.42026
325.60697
317.84088
311.25857
305.95174
301.9006
298.97124
296.95864
295.63977
294.81265
294.31502
294.02741
293.86766
293.78242
293.73874
293.71729
293.7072
293.70265
293.7007
293.6999
293.69959
293.69948
293.69944
293.69942
293.69942
293.69942
293.69942
293.69942
293.69942
293.69942
293.69942
293.69942
293.69942
293.69942
293.69942
293.69942
293.69942
293.69942
293.69942
293.69943
336.00631
327.42326
319.78849
313.19932
307.74397
303.43781
300.20235
297.88504
296.29852
295.25724
294.60065
294.20238
293.96992
293.83942
293.76902
293.73258
293.71451
293.70594
293.70205
293.70038
293.69969
293.69942
293.69932
293.69929
293.69928
293.69927
293.69927
293.69927
293.69927
293.69927
293.69927
293.69927
293.69927
293.69927
293.69927
293.69927
293.69927
293.69928
293.69928
293.69928
337.22205
328.82038
321.30246
314.73753
309.20459
304.73466
301.28272
298.73365
296.93006
295.70433
294.90253
294.39708
294.0899
293.91004
293.80867
293.75377
293.72526
293.71108
293.70435
293.7013
293.69998
293.69945
293.69924
293.69916
293.69914
293.69913
293.69913
293.69912
293.69912
293.69912
293.69912
293.69913
293.69913
293.69913
293.69913
293.69913
293.69913
293.69913
293.69913
293.69913
338.19898
329.94561
322.52999
316.00051
310.4264
305.84568
302.23456
299.50502
297.52395
296.14035
295.2086
294.60279
294.22231
293.99159
293.85668
293.78072
293.73965
293.71835
293.7078
293.7028
293.70056
293.6996
293.69921
293.69906
293.699
293.69899
293.69898
293.69898
293.69898
293.69898
293.69898
293.69898
293.69898
293.69898
293.69898
293.69898
293.69898
293.69898
293.69899
293.69899
339.01035
330.88165
323.55594
317.06552
311.47056
306.81184
303.0797
300.20622
298.07798
296.55874
295.5114
294.81311
294.36257
294.08132
293.91167
293.81293
293.75763
293.72788
293.71256
293.70502
293.70149
293.69991
293.69925
293.69898
293.69888
293.69885
293.69884
293.69883
293.69883
293.69883
293.69883
293.69883
293.69883
293.69883
293.69883
293.69883
293.69884
293.69884
293.69884
293.69884
339.7009
331.67927
324.43324
317.98231
312.37854
307.66329
303.83657
300.84581
298.59369
296.95693
295.80665
295.02371
294.50713
294.17677
293.97219
293.8497
293.77896
293.73966
293.71871
293.70804
293.70284
293.70044
293.69939
293.69895
293.69878
293.69872
293.6987
293.69869
293.69869
293.69869
293.69869
293.69869
293.69869
293.69869
293.69869
293.69869
293.69869
293.69869
293.69869
293.69869
340.29977
332.37168
325.19688
318.78451
313.1794
308.4223
304.52
301.43191
299.07405
297.33452
296.09217
295.23179
294.65341
294.27591
294.03687
293.89024
293.80329
293.7536
293.72629
293.71191
293.70469
293.70122
293.69965
293.69898
293.6987
293.6986
293.69856
293.69855
293.69854
293.69854
293.69854
293.69854
293.69854
293.69854
293.69854
293.69854
293.69854
293.69855
293.69855
293.69855
340.82696
332.98167
325.87112
319.49579
313.89411
309.10557
305.14177
301.97165
299.5224
297.69218
296.367
295.43566
294.79956
294.37716
294.10456
293.93381
293.83022
293.76952
293.73525
293.71668
293.70706
293.7023
293.70006
293.69907
293.69865
293.69849
293.69842
293.6984
293.6984
293.69839
293.69839
293.69839
293.69839
293.6984
293.6984
293.6984
293.6984
293.6984
293.6984
293.6984
341.29672
333.52557
326.47339
320.13337
314.53825
309.72585
305.71128
302.4711
299.94202
298.03106
296.63092
295.63436
294.94436
294.47932
294.17427
293.97973
293.85933
293.78721
293.74552
293.72234
293.70998
293.7037
293.70065
293.69925
293.69864
293.69839
293.6983
293.69826
293.69825
293.69825
293.69825
293.69825
293.69825
293.69825
293.69825
293.69825
293.69825
293.69825
293.69825
293.69826
341.71952
334.01537
327.0166
320.71013
315.12362
310.29306
306.23604
302.93536
300.33587
298.35251
296.88414
295.82738
295.08698
294.58151
294.24523
294.0274
293.89023
293.80646
293.757
293.72885
293.71347
293.70543
293.70143
293.69953
293.69868
293.69832
293.69818
293.69813
293.69811
293.6981
293.6981
293.6981
293.6981
293.6981
293.6981
293.6981
293.69811
293.69811
293.69811
293.69811
342.1033
334.46018
327.51056
321.23593
315.65939
310.81502
306.72215
303.36873
300.70664
298.6579
297.12708
296.01456
295.22692
294.68311
294.31684
294.07633
293.92256
293.82704
293.76957
293.73618
293.71752
293.70752
293.70241
293.69992
293.69878
293.69828
293.69808
293.698
293.69797
293.69796
293.69796
293.69796
293.69796
293.69796
293.69796
293.69796
293.69796
293.69796
293.69796
293.69796
342.45418
334.86704
327.96289
321.71849
316.15281
311.29798
307.17457
303.7748
301.05665
298.94851
297.36026
296.19589
295.36387
294.78368
294.38864
294.12611
293.956
293.84874
293.78311
293.74427
293.7221
293.70997
293.70361
293.70044
293.69894
293.69827
293.69798
293.69787
293.69783
293.69782
293.69781
293.69781
293.69781
293.69781
293.69781
293.69781
293.69781
293.69782
293.69782
293.69782
342.777
335.24149
328.3796
322.16392
316.60966
311.74703
307.59743
304.15663
301.38796
299.22557
297.58427
296.37151
295.49769
294.88291
294.46028
294.17641
293.99028
293.87136
293.7975
293.75304
293.72721
293.71277
293.70503
293.70109
293.69917
293.69829
293.69791
293.69775
293.69769
293.69767
293.69767
293.69766
293.69766
293.69766
293.69767
293.69767
293.69767
293.69767
293.69767
293.69767
343.07561
335.58798
328.76555
322.57718
317.03467
312.16635
307.99414
304.51679
301.70235
299.49017
297.79966
296.5416
295.6283
294.9806
294.53149
294.22696
294.02518
293.89472
293.81261
293.76244
293.73279
293.71591
293.70669
293.70187
293.69948
293.69835
293.69785
293.69764
293.69756
293.69753
293.69752
293.69752
293.69752
293.69752
293.69752
293.69752
293.69752
293.69752
293.69752
293.69752
343.35316
335.91012
329.12466
322.9623
317.43172
312.55941
308.36758
304.8575
302.00139
299.74333
298.007
296.7064
295.75573
295.07664
294.60209
294.27758
294.06052
293.91869
293.82834
293.77239
293.73882
293.71938
293.70856
293.7028
293.69987
293.69846
293.69782
293.69754
293.69743
293.69739
293.69738
293.69737
293.69737
293.69737
293.69737
293.69737
293.69738
293.69738
293.69738
293.69738
343.61222
336.21089
329.46018
323.32264
317.80404
312.92913
308.7202
305.18067
302.28645
299.98593
298.20681
296.86614
295.88003
295.17095
294.67194
294.32808
294.09612
293.94312
293.8446
293.78284
293.74527
293.72317
293.71066
293.70387
293.70035
293.69862
293.69781
293.69746
293.69731
293.69726
293.69724
293.69723
293.69723
293.69723
293.69723
293.69723
293.69723
293.69723
293.69723
293.69723
343.85494
336.49276
329.77483
323.66098
318.15434
313.27796
309.05408
305.48793
302.55871
300.21878
298.39958
297.02108
296.00126
295.26349
294.74094
294.37835
294.13188
293.9679
293.86128
293.79371
293.75208
293.72725
293.71297
293.70509
293.70092
293.69883
293.69783
293.69739
293.6972
293.69712
293.69709
293.69708
293.69708
293.69708
293.69708
293.69708
293.69708
293.69709
293.69709
293.69709
344.08313
336.75781
330.07088
323.97969
318.48494
313.60802
309.37101
305.78071
302.81925
300.44262
298.58577
297.17146
296.11954
295.35428
294.80904
294.4283
294.16768
293.99293
293.87832
293.80495
293.75923
293.73161
293.71549
293.70645
293.70158
293.69909
293.69788
293.69733
293.69709
293.69699
293.69695
293.69694
293.69694
293.69694
293.69694
293.69694
293.69694
293.69694
293.69694
293.69694
344.29831
337.00781
330.35027
324.28079
318.79779
313.92111
309.67256
306.06027
303.06901
300.6581
298.76579
297.31753
296.23496
295.44331
294.87619
294.47785
294.20345
294.01815
293.89564
293.8165
293.76668
293.73622
293.71821
293.70795
293.70234
293.69942
293.69797
293.69729
293.69699
293.69686
293.69681
293.6968
293.69679
293.69679
293.69679
293.69679
293.69679
293.69679
293.69679
293.69679
344.50178
337.24425
330.61464
324.56599
319.09459
314.21879
309.96008
306.3277
303.30881
300.8658
298.94003
297.4595
296.34763
295.53062
294.94236
294.52695
294.23911
294.04348
293.91319
293.82833
293.7744
293.74106
293.72111
293.70958
293.70319
293.6998
293.69808
293.69727
293.6969
293.69674
293.69668
293.69665
293.69665
293.69664
293.69664
293.69665
293.69665
293.69665
293.69665
293.69665
344.69468
337.46845
330.86544
324.83678
319.37682
314.50243
310.23475
306.58397
303.5394
301.06627
299.10884
297.59759
296.45767
295.61625
295.00756
294.57556
294.27462
294.06886
293.93092
293.84038
293.78234
293.74612
293.72418
293.71135
293.70413
293.70023
293.69824
293.69726
293.69681
293.69662
293.69654
293.69651
293.6965
293.6965
293.6965
293.6965
293.6965
293.6965
293.6965
293.6965
344.87797
337.68151
331.10388
325.09446
319.64574
314.77322
310.49762
306.82994
303.76144
301.25998
299.27255
297.732
296.56519
295.70024
295.07177
294.62366
294.30993
294.09425
293.94877
293.85262
293.7905
293.75136
293.72742
293.71324
293.70515
293.70073
293.69843
293.69728
293.69675
293.69651
293.69641
293.69637
293.69636
293.69635
293.69635
293.69635
293.69635
293.69636
293.69636
293.69636
345.05251
337.88443
331.33107
325.34017
319.90249
315.03221
310.74961
307.06638
303.97553
301.44736
299.43145
297.86293
296.67028
295.78264
295.13501
294.67122
294.34501
294.11962
293.96672
293.86502
293.79883
293.75678
293.7308
293.71525
293.70627
293.70129
293.69865
293.69732
293.69669
293.6964
293.69628
293.69623
293.69621
293.69621
293.69621
293.69621
293.69621
293.69621
293.69621
293.69621
345.21903
338.07806
331.54793
325.57488
320.14805
315.28033
310.99155
307.29397
304.18221
301.62882
299.58583
297.99054
296.77306
295.8635
295.19728
294.71824
294.37984
294.14492
293.98473
293.87755
293.80732
293.76235
293.73432
293.71737
293.70747
293.70191
293.69892
293.69739
293.69664
293.6963
293.69615
293.69609
293.69607
293.69606
293.69606
293.69606
293.69606
293.69606
293.69606
293.69607
345.3782
338.26317
331.75532
325.7995
320.3833
315.51842
311.22417
307.51333
304.38195
301.8047
299.73593
298.11501
296.87362
295.94287
295.25861
294.76472
294.4144
294.17014
294.00278
293.89018
293.81594
293.76807
293.73797
293.7196
293.70876
293.70259
293.69922
293.69748
293.69661
293.69621
293.69603
293.69596
293.69593
293.69592
293.69592
293.69592
293.69592
293.69592
293.69592
293.69592
345.53059
338.44041
331.95397
326.01478
320.60902
315.74719
311.44813
307.72501
304.57521
301.97536
299.88199
298.23648
296.97206
296.02081
295.31902
294.81064
294.44867
294.19526
294.02083
293.90289
293.82467
293.7739
293.74174
293.72193
293.71012
293.70332
293.69957
293.69759
293.69659
293.69612
293.69591
293.69582
293.69579
293.69577
293.69577
293.69577
293.69577
293.69577
293.69577
293.69577
345.67672
338.61039
332.14453
326.22144
320.8259
315.96733
311.66402
307.92951
304.76237
302.14107
300.02422
298.35511
297.06847
296.09735
295.37852
294.85601
294.48265
294.22025
294.03888
293.91566
293.8335
293.77985
293.74561
293.72436
293.71155
293.70411
293.69995
293.69773
293.69659
293.69605
293.6958
293.69569
293.69565
293.69563
293.69563
293.69562
293.69563
293.69563
293.69563
293.69563
345.81704
338.77365
332.32761
326.42009
321.03458
316.17942
311.87238
308.12728
304.94381
302.30213
300.16282
298.47102
297.16292
296.17254
295.43714
294.90085
294.51633
294.24511
294.0569
293.92848
293.84242
293.78589
293.74958
293.72686
293.71306
293.70495
293.70037
293.69789
293.69661
293.69598
293.69569
293.69556
293.69551
293.69549
293.69548
293.69548
293.69548
293.69548
293.69548
293.69548
345.95198
338.93065
332.50373
326.61129
321.23561
316.38399
312.07369
308.31875
305.11985
302.45878
300.29798
298.58434
297.25551
296.24645
295.49491
294.94514
294.5497
294.26982
294.07488
293.94132
293.8514
293.79202
293.75364
293.72945
293.71464
293.70585
293.70083
293.69808
293.69664
293.69592
293.69558
293.69543
293.69537
293.69534
293.69534
293.69533
293.69533
293.69533
293.69534
293.69534
346.08191
339.08184
332.67337
326.79554
321.4295
316.58154
312.26839
308.50428
305.29081
302.61126
300.42985
298.69519
297.34631
296.3191
295.55184
294.98891
294.58276
294.29438
294.09282
293.95418
293.86044
293.79822
293.75778
293.73212
293.71627
293.70679
293.70132
293.69829
293.69668
293.69587
293.69548
293.69531
293.69523
293.6952
293.69519
293.69519
293.69519
293.69519
293.69519
293.69519
346.20715
339.22759
332.83695
326.97331
321.61672
316.7725
312.45688
308.68422
305.45695
302.75979
300.55861
298.80369
297.43538
296.39054
295.60795
295.03216
294.61552
294.31878
294.11069
293.96705
293.86952
293.80449
293.76199
293.73485
293.71797
293.70779
293.70185
293.69853
293.69674
293.69583
293.69539
293.69518
293.6951
293.69506
293.69505
293.69504
293.69504
293.69504
293.69504
293.69504
346.32802
339.36826
332.99486
327.145
321.79767
316.95728
312.63953
308.85888
305.61855
302.90456
300.6844
298.90992
297.5228
296.46082
295.66328
295.0749
294.64797
294.34302
294.1285
293.97991
293.87864
293.81081
293.76627
293.73765
293.71973
293.70883
293.70242
293.69879
293.69682
293.6958
293.6953
293.69507
293.69496
293.69492
293.6949
293.6949
293.6949
293.6949
293.6949
293.6949
346.44478
339.50418
333.14747
327.31099
321.97274
317.13624
312.81667
309.02855
305.77583
303.04576
300.80735
299.01399
297.60863
296.52998
295.71784
295.11715
294.68012
294.36708
294.14623
293.99276
293.88778
293.81719
293.7706
293.74051
293.72154
293.70992
293.70302
293.69908
293.69692
293.69579
293.69522
293.69495
293.69483
293.69478
293.69476
293.69475
293.69475
293.69475
293.69475
293.69475
346.5577
339.63562
333.29509
327.47163
322.14228
317.30971
312.98861
309.19351
305.92902
303.18356
300.9276
299.11598
297.69294
296.59804
295.77166
295.1589
294.71196
294.39098
294.16389
294.0056
293.89695
293.8236
293.77499
293.74342
293.7234
293.71105
293.70366
293.6994
293.69703
293.69578
293.69514
293.69484
293.6947
293.69464
293.69462
293.69461
293.69461
293.69461
293.69461
293.69461
346.66699
339.76286
333.43802
327.62722
322.30661
317.47802
313.15562
309.35399
306.07831
303.31811
301.04526
299.21599
297.77577
296.66506
295.82475
295.20018
294.74351
294.41471
294.18146
294.01841
293.90613
293.83006
293.77942
293.74638
293.7253
293.71222
293.70433
293.69973
293.69716
293.69578
293.69508
293.69473
293.69457
293.6945
293.69448
293.69446
293.69446
293.69446
293.69446
293.69446
346.77288
339.88614
333.57652
327.77806
322.46602
317.64143
313.31798
309.51023
306.22391
303.44958
301.16044
299.31409
297.85719
296.73106
295.87715
295.24099
294.77476
294.43827
294.19895
294.03119
293.91532
293.83654
293.78389
293.74938
293.72726
293.71342
293.70503
293.7001
293.69731
293.6958
293.69501
293.69463
293.69445
293.69437
293.69433
293.69432
293.69432
293.69432
293.69432
293.69432
346.87555
340.00568
333.71086
327.92441
322.62077
317.80022
313.47593
309.66243
306.36598
303.57809
301.27324
299.41036
297.93724
296.79608
295.92886
295.28135
294.80572
294.46165
294.21634
294.04394
293.92451
293.84305
293.78841
293.75243
293.72925
293.71467
293.70576
293.70048
293.69747
293.69582
293.69496
293.69453
293.69432
293.69423
293.69419
293.69418
293.69417
293.69417
293.69417
293.69417
346.97518
340.1217
333.84125
328.06651
322.77112
317.95461
313.62968
309.8108
306.50468
303.70378
301.38378
299.50487
298.01597
296.86015
295.97991
295.32126
294.8364
294.48487
294.23365
294.05665
293.93371
293.84959
293.79296
293.75552
293.73128
293.71595
293.70652
293.70089
293.69765
293.69586
293.69491
293.69443
293.6942
293.6941
293.69405
293.69403
293.69403
293.69402
293.69402
293.69402
347.07193
340.23437
333.9679
328.20459
322.9173
318.10484
313.77944
309.95551
306.64017
303.82677
301.49213
299.59767
298.09343
296.9233
296.03031
295.36074
294.8668
294.50791
294.25086
294.06932
293.9429
293.85614
293.79753
293.75864
293.73334
293.71726
293.7073
293.70132
293.69785
293.69591
293.69487
293.69434
293.69408
293.69396
293.69391
293.69389
293.69388
293.69388
293.69388
293.69388
347.16595
340.34387
334.09102
328.33885
323.05952
318.25112
313.92541
310.09673
306.77259
303.94717
301.59838
299.68885
298.16966
296.98556
296.08009
295.39979
294.89693
294.53079
294.26799
294.08195
293.95208
293.8627
293.80214
293.7618
293.73544
293.7186
293.70812
293.70177
293.69806
293.69597
293.69484
293.69426
293.69397
293.69383
293.69377
293.69375
293.69374
293.69373
293.69373
293.69373
347.2574
340.45038
334.21078
328.4695
323.19797
318.39362
314.06776
310.23462
306.90208
304.06508
301.70262
299.77845
298.24471
297.04695
296.12926
295.43844
294.92678
294.5535
294.28501
294.09454
293.96124
293.86927
293.80676
293.76498
293.73757
293.71998
293.70896
293.70225
293.69829
293.69605
293.69482
293.69418
293.69386
293.6937
293.69364
293.69361
293.69359
293.69359
293.69359
293.69359
347.34638
340.55402
334.32734
328.59669
323.33283
318.53254
314.20667
310.36933
307.02876
304.18061
301.80491
299.86653
298.31861
297.10751
296.17784
295.47668
294.95637
294.57604
294.30195
294.10708
293.9704
293.87586
293.81141
293.7682
293.73974
293.72138
293.70982
293.70274
293.69854
293.69613
293.6948
293.6941
293.69375
293.69358
293.6935
293.69346
293.69345
293.69344
293.69344
293.69344
347.43303
340.65495
334.44087
328.72061
323.46429
318.66804
314.34228
310.501
307.15274
304.29386
301.90535
299.95315
298.39141
297.16726
296.22585
295.51452
294.9857
294.59843
294.31879
294.11957
293.97954
293.88244
293.81608
293.77143
293.74192
293.72281
293.71071
293.70326
293.6988
293.69623
293.6948
293.69403
293.69364
293.69345
293.69336
293.69332
293.69331
293.6933
293.6933
293.6933
347.51745
340.7533
334.55151
328.84141
323.59249
318.80028
314.47474
310.62976
307.27413
304.4049
302.00398
300.03835
298.46313
297.22622
296.27329
295.55198
295.01478
294.62065
294.33553
294.13202
293.98867
293.88903
293.82076
293.77469
293.74414
293.72426
293.71162
293.70379
293.69908
293.69633
293.6948
293.69397
293.69354
293.69333
293.69323
293.69318
293.69316
293.69316
293.69315
293.69315
347.59975
340.84918
334.65939
328.95923
323.71758
318.92939
314.60418
310.75572
307.39305
304.51383
302.10088
300.12219
298.5338
297.28441
296.3202
295.58907
295.0436
294.64271
294.35218
294.14442
293.99777
293.89563
293.82546
293.77797
293.74637
293.72574
293.71256
293.70434
293.69937
293.69645
293.6948
293.69391
293.69344
293.69321
293.69309
293.69304
293.69302
293.69301
293.69301
293.69301
347.68003
340.94271
334.76463
329.0742
323.83971
319.05553
314.73075
310.879
307.50958
304.62072
302.1961
300.2047
298.60348
297.34186
296.36657
295.62579
295.07219
294.66462
294.36874
294.15676
294.00686
293.90222
293.83017
293.78127
293.74863
293.72724
293.71351
293.70491
293.69968
293.69658
293.69482
293.69385
293.69334
293.69309
293.69296
293.6929
293.69288
293.69287
293.69286
293.69286
347.75838
341.034
334.86737
329.18645
323.959
319.1788
314.85455
310.99972
307.62381
304.72564
302.28972
300.28593
298.67217
297.39859
296.41242
295.66215
295.10053
294.68638
294.3852
294.16906
294.01592
293.90881
293.83488
293.78459
293.75091
293.72876
293.71449
293.7055
293.7
293.69673
293.69485
293.69381
293.69325
293.69297
293.69283
293.69277
293.69274
293.69272
293.69272
293.69272
347.83488
341.12313
334.9677
329.29611
324.07557
319.29934
314.97569
311.11797
307.73584
304.82867
302.38177
300.36593
298.73991
297.45462
296.45777
295.69816
295.12864
294.70798
294.40158
294.18131
294.02496
293.9154
293.83961
293.78792
293.75321
293.7303
293.71548
293.70611
293.70033
293.69688
293.69488
293.69376
293.69316
293.69286
293.6927
293.69263
293.6926
293.69258
293.69258
293.69258
347.90962
341.21022
335.06572
329.40327
324.18954
319.41726
315.0943
311.23384
307.84575
304.92988
302.47231
300.44473
298.80674
297.50996
296.50264
295.73383
295.15652
294.72944
294.41786
294.19351
294.03398
293.92198
293.84434
293.79127
293.75553
293.73186
293.71649
293.70673
293.70068
293.69704
293.69492
293.69373
293.69308
293.69274
293.69257
293.69249
293.69246
293.69244
293.69243
293.69243
347.98266
341.29533
335.16155
329.50805
324.30101
319.53266
315.21045
311.34743
307.9536
305.02933
302.56139
300.52236
298.87267
297.56464
296.54702
295.76917
295.18417
294.75075
294.43405
294.20565
294.04298
293.92855
293.84908
293.79463
293.75786
293.73344
293.71752
293.70736
293.70104
293.69722
293.69497
293.6937
293.693
293.69263
293.69245
293.69236
293.69232
293.6923
293.69229
293.69229
348.05407
341.37856
335.25525
329.61054
324.41009
319.64564
315.32426
311.45882
308.05949
305.12707
302.64907
300.59887
298.93774
297.61868
296.59094
295.80418
295.2116
294.77191
294.45016
294.21775
294.05195
293.93512
293.85383
293.798
293.76021
293.73504
293.71857
293.70802
293.70142
293.6974
293.69503
293.69367
293.69292
293.69253
293.69232
293.69222
293.69218
293.69216
293.69215
293.69214
348.12394
341.45998
335.34694
329.71083
324.51687
319.75629
315.4358
311.56809
308.16346
305.22316
302.73537
300.67429
299.00196
297.67208
296.6344
295.83887
295.23882
294.79294
294.46617
294.22979
294.0609
293.94169
293.85858
293.80138
293.76257
293.73665
293.71963
293.70869
293.70181
293.6976
293.69509
293.69365
293.69285
293.69242
293.6922
293.69209
293.69204
293.69201
293.692
293.692
348.1923
341.53966
335.43667
329.80901
324.62144
319.86471
315.54516
311.67532
308.2656
305.31767
302.82036
300.74864
299.06536
297.72487
296.67742
295.87325
295.26582
294.81382
294.4821
294.24178
294.06982
293.94824
293.86333
293.80478
293.76495
293.73827
293.72071
293.70937
293.70221
293.6978
293.69517
293.69364
293.69278
293.69232
293.69208
293.69196
293.6919
293.69187
293.69186
293.69186
348.25924
341.61767
335.52453
329.90517
324.72388
319.97098
315.65242
311.78058
308.36596
305.41063
302.90405
300.82197
299.12797
297.77707
296.72
295.90732
295.29262
294.83457
294.49795
294.25373
294.07871
293.95479
293.86808
293.80818
293.76734
293.73992
293.7218
293.71006
293.70262
293.69802
293.69525
293.69363
293.69272
293.69222
293.69196
293.69183
293.69176
293.69173
293.69172
293.69172
348.32479
341.69407
335.6106
329.99937
324.82428
320.07518
315.75767
311.88394
308.46461
305.5021
302.98651
300.89429
299.1898
297.82868
296.76217
295.9411
295.31921
294.85519
294.51371
294.26562
294.08758
293.96132
293.87284
293.81159
293.76975
293.74157
293.72291
293.71077
293.70305
293.69824
293.69534
293.69363
293.69266
293.69213
293.69184
293.6917
293.69163
293.69159
293.69158
293.69158
348.38901
341.76893
335.69493
330.0917
324.92271
320.17738
315.86095
311.98546
308.56159
305.59213
303.06776
300.96564
299.25087
297.87973
296.80391
295.97459
295.34561
294.87567
294.52938
294.27747
294.09643
293.96785
293.87759
293.81501
293.77216
293.74324
293.72403
293.71149
293.70348
293.69848
293.69543
293.69364
293.69261
293.69204
293.69173
293.69157
293.69149
293.69146
293.69144
293.69144
348.45196
341.84231
335.77759
330.18221
325.01923
320.27765
315.96236
312.08521
308.65696
305.68076
303.14783
301.03605
299.31121
297.93022
296.84526
296.00779
295.3718
294.89602
294.54497
294.28926
294.10525
293.97436
293.88235
293.81843
293.77459
293.74492
293.72516
293.71223
293.70393
293.69872
293.69554
293.69365
293.69256
293.69195
293.69162
293.69144
293.69136
293.69132
293.6913
293.6913
348.51367
341.91425
335.85865
330.27099
325.11393
320.37607
316.06194
312.18324
308.75078
305.76804
303.22677
301.10554
299.37083
297.98017
296.88621
296.0407
295.39781
294.91625
294.56049
294.30101
294.11404
293.98087
293.88711
293.82186
293.77702
293.74662
293.72631
293.71298
293.70439
293.69898
293.69565
293.69366
293.69251
293.69186
293.69151
293.69132
293.69123
293.69118
293.69116
293.69116
348.5742
341.98481
335.93816
330.35808
325.20686
320.47269
316.15977
312.27961
308.8431
305.85399
303.3046
301.17413
299.42975
298.02959
296.92677
296.07335
295.42362
294.93635
294.57592
294.31271
294.12281
293.98736
293.89186
293.8253
293.77946
293.74832
293.72747
293.71374
293.70486
293.69924
293.69577
293.69369
293.69247
293.69178
293.6914
293.6912
293.69109
293.69104
293.69102
293.69102
348.63358
342.05404
336.01617
330.44355
325.29809
320.56757
316.25589
312.37437
308.93395
305.93867
303.38135
301.24185
299.48799
298.0785
296.96696
296.10573
295.44925
294.95632
294.59127
294.32436
294.13155
293.99385
293.89661
293.82874
293.78192
293.75004
293.72864
293.71451
293.70534
293.69952
293.6959
293.69372
293.69243
293.6917
293.69129
293.69108
293.69096
293.69091
293.69089
293.69088
348.69186
342.12198
336.09274
330.52745
325.38766
320.66078
316.35037
312.46758
309.02338
306.02211
303.45707
301.30872
299.54557
298.12691
297.00678
296.13784
295.4747
294.97618
294.60654
294.33597
294.14026
294.00032
293.90136
293.83218
293.78438
293.75177
293.72982
293.71529
293.70583
293.6998
293.69604
293.69375
293.6924
293.69162
293.69119
293.69096
293.69083
293.69077
293.69075
293.69074
348.74907
342.18868
336.16792
330.60984
325.47565
320.75237
316.44326
312.55928
309.11144
306.10434
303.53176
301.37477
299.60249
298.17482
297.04623
296.1697
295.49998
294.99591
294.62174
294.34753
294.14895
294.00678
293.90611
293.83563
293.78685
293.7535
293.73101
293.71608
293.70633
293.70009
293.69618
293.6938
293.69237
293.69155
293.69109
293.69084
293.69071
293.69064
293.69061
293.69061
348.80524
342.25418
336.24175
330.69076
325.56209
320.8424
316.53461
312.64952
309.19817
306.1854
303.60546
301.44001
299.65879
298.22225
297.08533
296.2013
295.52507
295.01553
294.63686
294.35904
294.15761
294.01322
293.91086
293.83908
293.78932
293.75525
293.73222
293.71688
293.70684
293.70039
293.69633
293.69384
293.69235
293.69148
293.69099
293.69072
293.69058
293.69051
293.69048
293.69047
348.86043
342.31852
336.31428
330.77027
325.64705
320.9309
316.62446
312.73834
309.2836
306.26533
303.67821
301.50447
299.71447
298.26922
297.12409
296.23266
295.55
295.03503
294.65191
294.3705
294.16625
294.01966
293.9156
293.84254
293.79181
293.757
293.73343
293.7177
293.70736
293.7007
293.69649
293.6939
293.69233
293.69142
293.6909
293.69061
293.69046
293.69038
293.69035
293.69034
348.91464
342.38174
336.38555
330.84841
325.73056
321.01794
316.71287
312.82579
309.36777
306.34415
303.75001
301.56816
299.76954
298.31572
297.16251
296.26377
295.57475
295.05442
294.66689
294.38192
294.17486
294.02608
293.92034
293.846
293.7943
293.75877
293.73465
293.71852
293.70789
293.70102
293.69666
293.69396
293.69232
293.69136
293.6908
293.6905
293.69033
293.69025
293.69021
293.69021
348.96792
342.44387
336.45559
330.92523
325.81267
321.10355
316.79987
312.9119
309.45072
306.42189
303.8209
301.6311
299.82402
298.36177
297.20059
296.29465
295.59934
295.0737
294.68179
294.3933
294.18345
294.0325
293.92508
293.84946
293.79679
293.76054
293.73589
293.71935
293.70843
293.70134
293.69683
293.69402
293.69231
293.6913
293.69072
293.69039
293.69021
293.69012
293.69008
293.69007
349.0203
342.50495
336.52446
331.00076
325.89343
321.18778
316.88551
312.99672
309.53249
306.49858
303.8909
301.69332
299.87793
298.40738
297.23835
296.32529
295.62377
295.09287
294.69662
294.40463
294.19201
294.0389
293.92981
293.85292
293.7993
293.76232
293.73713
293.72019
293.70898
293.70168
293.69701
293.69409
293.69231
293.69125
293.69063
293.69028
293.69009
293.68999
293.68995
293.68994
349.07181
342.56501
336.59219
331.07504
325.97288
321.27066
316.96982
313.08027
309.61309
306.57425
303.96003
301.75482
299.93128
298.45257
297.27579
296.3557
295.64804
295.11193
294.71138
294.41592
294.20054
294.04528
293.93454
293.85639
293.8018
293.76411
293.73838
293.72104
293.70954
293.70202
293.6972
293.69417
293.69231
293.6912
293.69055
293.69018
293.68997
293.68987
293.68983
293.68981
349.12247
342.62408
336.6588
331.14812
326.05106
321.35225
317.05285
313.16261
309.69258
306.64893
304.02831
301.81563
299.98407
298.49733
297.31291
296.38589
295.67215
295.13088
294.72607
294.42717
294.20906
294.05166
293.93927
293.85985
293.80432
293.7659
293.73964
293.7219
293.7101
293.70237
293.69739
293.69426
293.69232
293.69115
293.69046
293.69007
293.68986
293.68975
293.6897
293.68969
349.1723
342.6822
336.72434
331.22003
326.128
321.43258
317.13464
313.24375
309.77097
306.72263
304.09577
301.87576
300.03633
298.54168
297.34973
296.41586
295.69611
295.14973
294.74069
294.43837
294.21754
294.05802
293.94399
293.86332
293.80684
293.7677
293.7409
293.72277
293.71067
293.70273
293.6976
293.69435
293.69233
293.69111
293.69039
293.68997
293.68974
293.68963
293.68957
293.68956
349.22134
342.73939
336.78884
331.29081
326.20375
321.51168
317.21521
313.32374
309.84829
306.7954
304.16243
301.93522
300.08806
298.58562
297.38625
296.44561
295.71991
295.16848
294.75525
294.44953
294.22601
294.06437
293.94871
293.86679
293.80936
293.76951