/*--------------------------------*- C++ -*----------------------------------*\
| =========                 |                                                 |
| \\      /  F ield         | OpenFOAM: The Open Source CFD Toolbox           |
|  \\    /   O peration     | Version:  3.0.1                                 |
|   \\  /    A nd           | Web:      www.OpenFOAM.org                      |
|    \\/     M anipulation  |                                                 |
\*---------------------------------------------------------------------------*/
FoamFile
{
    version     2.0;
    format      ascii;
    class       volVectorField;
    location    "2172";
    object      U;
}
// * * * * * * * * * * * * * * * * * * * * * * * * * * * * * * * * * * * * * //

dimensions      [0 1 -1 0 0 0 0];

internalField   nonuniform List<vector> 
4000
(
(8.1143754e-05 -1.0221225e-18 0.043371709)
(0.00013998323 -2.3669695e-18 0.098301642)
(0.00023774488 -3.6279237e-18 0.13332726)
(0.00023388481 -4.8821462e-18 0.1541384)
(0.00018617139 -5.2243209e-18 0.16520628)
(0.00012168589 -5.5724973e-18 0.16985454)
(6.3634961e-05 -5.9408589e-18 0.17043555)
(2.1039627e-05 -6.2713808e-18 0.16853982)
(-5.0278477e-06 -6.0016202e-18 0.16519799)
(-1.7734815e-05 -5.7260351e-18 0.16105624)
(-2.1347259e-05 -5.4963762e-18 0.1565021)
(-1.9842697e-05 -5.3149704e-18 0.15176162)
(-1.623935e-05 -5.186655e-18 0.14696623)
(-1.2551984e-05 -5.1184738e-18 0.14219356)
(-9.9503597e-06 -5.1122175e-18 0.13749187)
(-8.9960298e-06 -5.1716382e-18 0.13289374)
(-9.8547363e-06 -5.3103101e-18 0.12842344)
(-1.245757e-05 -6.4681254e-18 0.12410039)
(-1.6608972e-05 -7.7050035e-18 0.11994048)
(-2.2052063e-05 -9.0325169e-18 0.11595616)
(-2.8507302e-05 -1.0471468e-17 0.11215594)
(-3.5689985e-05 -1.2025655e-17 0.10854336)
(-4.3320545e-05 -1.2391241e-17 0.10511586)
(-5.1127748e-05 -1.0373699e-17 0.10186338)
(-5.8850149e-05 -9.8013703e-18 0.098766781)
(-6.6233742e-05 -8.1146362e-18 0.095796183)
(-7.3038499e-05 -6.7171692e-18 0.092909017)
(-7.902478e-05 -6.6136978e-18 0.090047937)
(-8.3980016e-05 -6.7230846e-18 0.087138548)
(-8.7667734e-05 -7.0257384e-18 0.084087015)
(-8.9929768e-05 -6.5704651e-18 0.080777733)
(-9.0505834e-05 -4.3583415e-18 0.077071219)
(-8.9373645e-05 -2.4437973e-18 0.072802827)
(-8.6164097e-05 -7.3664291e-19 0.067782248)
(-8.1204693e-05 8.0640111e-19 0.061795212)
(-7.3698355e-05 2.2339262e-18 0.054605499)
(-6.4832516e-05 2.2764196e-18 0.045960116)
(-5.203629e-05 1.2455812e-18 0.035587616)
(-3.8571205e-05 1.0555999e-18 0.023196532)
(-1.2418504e-05 3.3364747e-19 0.0084306276)
(-2.3607942e-05 -1.3521282e-18 0.047276742)
(-0.0002558155 -2.8654806e-18 0.10642721)
(-0.00055957611 -4.2985217e-18 0.14277507)
(-0.00087542475 -5.8271846e-18 0.16284836)
(-0.0011406934 -5.6090604e-18 0.17213687)
(-0.0013282153 -5.7073658e-18 0.17477928)
(-0.0014288531 -5.8752644e-18 0.17360047)
(-0.0014499862 -6.0675277e-18 0.17037085)
(-0.0014079817 -6.0398888e-18 0.16612188)
(-0.0013222122 -5.8506755e-18 0.16141762)
(-0.0012106897 -5.7244574e-18 0.15654811)
(-0.0010880234 -5.8205054e-18 0.15165467)
(-0.00096477323 -5.3793425e-18 0.14680445)
(-0.00084776868 -5.169892e-18 0.14203106)
(-0.00074085776 -5.0236089e-18 0.13735494)
(-0.00064574944 -4.8209216e-18 0.13279237)
(-0.00056275764 -5.0171951e-18 0.12835874)
(-0.00049136872 -6.5026091e-18 0.12406913)
(-0.00043063793 -7.9823392e-18 0.1199376)
(-0.00037943683 -9.1615186e-18 0.11597611)
(-0.00033659876 -1.0616889e-17 0.11219332)
(-0.00030099208 -1.2411904e-17 0.10859322)
(-0.0002715509 -1.2423266e-17 0.10517378)
(-0.00024728686 -1.0438244e-17 0.10192548)
(-0.00022728784 -1.0081487e-17 0.098829731)
(-0.00021071039 -8.1772991e-18 0.09585713)
(-0.00019677847 -6.7515571e-18 0.092965568)
(-0.00018476618 -6.636712e-18 0.090098118)
(-0.0001740141 -6.7407244e-18 0.087180774)
(-0.00016388754 -6.9865614e-18 0.084120075)
(-0.00015385411 -6.2860205e-18 0.080800777)
(-0.00014335025 -4.1002588e-18 0.077083781)
(-0.000132054 -2.4264689e-18 0.072804799)
(-0.0001194366 -7.4061274e-19 0.067773967)
(-0.00010561214 8.0145883e-19 0.061777279)
(-8.9887281e-05 2.2221356e-18 0.054578922)
(-7.3295796e-05 2.1526775e-18 0.045925378)
(-5.3847233e-05 1.3365944e-18 0.035544486)
(-3.4595257e-05 1.0557591e-18 0.0231392)
(-6.6809521e-06 2.9986858e-19 0.0083598728)
(-2.4948906e-05 -9.7514313e-19 0.051819314)
(-0.00028620885 -2.4436287e-18 0.11664375)
(-0.0006764768 -3.7440768e-18 0.15569824)
(-0.0011132293 -4.7873501e-18 0.17589936)
(-0.0015173842 -5.3282376e-18 0.18353755)
(-0.0018392945 -5.5295064e-18 0.18366409)
(-0.0020522083 -5.7244186e-18 0.17985037)
(-0.0021523392 -6.1047226e-18 0.17432537)
(-0.0021524069 -5.9908807e-18 0.16831082)
(-0.0020743093 -5.7674405e-18 0.16237793)
(-0.0019425101 -5.350572e-18 0.15673094)
(-0.0017795537 -5.5721397e-18 0.15139646)
(-0.0016036831 -5.4145833e-18 0.14633372)
(-0.0014281491 -5.2256307e-18 0.14149028)
(-0.0012615791 -5.148421e-18 0.13682502)
(-0.0011088673 -5.1524243e-18 0.13231381)
(-0.00097219006 -5.5196646e-18 0.12794757)
(-0.00085192368 -6.6586676e-18 0.12372768)
(-0.00074736503 -8.0841594e-18 0.11966127)
(-0.00065723994 -9.5895124e-18 0.11575735)
(-0.00058003128 -1.0280927e-17 0.11202369)
(-0.00051417074 -1.17749e-17 0.10846447)
(-0.00045813766 -1.1670328e-17 0.1050783)
(-0.00041050388 -1.0544621e-17 0.10185648)
(-0.00036994928 -9.756518e-18 0.098781217)
(-0.00033525884 -8.202629e-18 0.095823912)
(-0.00030531911 -6.9545217e-18 0.092943166)
(-0.00027910248 -6.6905984e-18 0.090082706)
(-0.00025567618 -6.7305736e-18 0.087169124)
(-0.00023416655 -6.8210017e-18 0.084109507)
(-0.00021381972 -5.9763422e-18 0.080789129)
(-0.0001938989 -3.8967645e-18 0.077069401)
(-0.00017390094 -2.3849422e-18 0.072786525)
(-0.00015320766 -7.3924486e-19 0.067751161)
(-0.00013177233 7.785675e-19 0.061749734)
(-0.00010895737 2.0376307e-18 0.05454689)
(-8.5547544e-05 1.9025623e-18 0.045889044)
(-6.0012795e-05 1.4003827e-18 0.03550383)
(-3.4445743e-05 1.064108e-18 0.023093745)
(-5.4534993e-06 3.2513277e-19 0.0083271532)
(-2.1173166e-05 -6.5023923e-19 0.055881156)
(-0.00026123839 -1.993691e-18 0.12633999)
(-0.00064653917 -3.0682279e-18 0.16880783)
(-0.0011084229 -3.820833e-18 0.19017158)
(-0.0015725916 -4.9235134e-18 0.19706088)
(-0.0019805629 -5.8076445e-18 0.19515955)
(-0.0022907531 -5.8647385e-18 0.18874209)
(-0.0024837359 -5.9969022e-18 0.18061197)
(-0.0025600922 -5.991366e-18 0.17234822)
(-0.0025349477 -5.8302174e-18 0.16467292)
(-0.0024312541 -5.4468366e-18 0.1577949)
(-0.0022739437 -4.9944233e-18 0.15166545)
(-0.0020858502 -5.3333596e-18 0.14613979)
(-0.0018855087 -5.3483137e-18 0.14106419)
(-0.0016864757 -5.3101802e-18 0.13631404)
(-0.0014976502 -5.4949904e-18 0.13180367)
(-0.0013241163 -6.1977925e-18 0.12748247)
(-0.0011681399 -6.8749315e-18 0.12332598)
(-0.0010300954 -7.9295914e-18 0.11932662)
(-0.00090920985 -9.423735e-18 0.11548574)
(-0.00080409456 -1.0312467e-17 0.11180774)
(-0.0007130959 -1.0974742e-17 0.10829574)
(-0.00063450175 -1.1078007e-17 0.10494846)
(-0.00056664884 -1.0630889e-17 0.10175782)
(-0.00050797275 -9.3258189e-18 0.098706879)
(-0.00045702187 -8.2092557e-18 0.095767872)
(-0.0004124612 -7.3053695e-18 0.092900219)
(-0.00037305921 -6.7686008e-18 0.090048406)
(-0.00033769189 -6.6928202e-18 0.087139719)
(-0.00030531698 -6.5882001e-18 0.084081896)
(-0.0002750195 -5.7863463e-18 0.080760822)
(-0.00024593193 -3.9651661e-18 0.077038513)
(-0.00021741245 -2.3517571e-18 0.072751758)
(-0.0001887729 -7.3851005e-19 0.067711823)
(-0.00015983012 7.3299729e-19 0.061705663)
(-0.00012999325 1.768535e-18 0.054498408)
(-9.9806038e-05 1.8402049e-18 0.045836483)
(-6.81567e-05 1.3831258e-18 0.035447378)
(-3.6599078e-05 9.1730209e-19 0.023034807)
(-5.1963141e-06 3.4324899e-19 0.0082854353)
(-1.8471229e-05 -7.8349421e-19 0.059436902)
(-0.0002348414 -1.9786816e-18 0.13510412)
(-0.00059510871 -2.9830722e-18 0.181116)
(-0.0010452655 -3.8628688e-18 0.20420607)
(-0.0015224333 -4.5735191e-18 0.21108473)
(-0.0019702407 -5.3310547e-18 0.20780108)
(-0.0023416207 -5.90235e-18 0.19916783)
(-0.0026067745 -5.9456681e-18 0.18852918)
(-0.002754867 -6.0177088e-18 0.17788104)
(-0.002791583 -5.9869235e-18 0.16819297)
(-0.0027339988 -6.0701703e-18 0.15976912)
(-0.002604933 -5.5365986e-18 0.15254946)
(-0.0024281472 -5.4393065e-18 0.1463192)
(-0.0022250355 -5.5552759e-18 0.14083344)
(-0.0020128413 -5.6783186e-18 0.13587912)
(-0.0018041278 -5.9236644e-18 0.13129699)
(-0.0016070969 -6.3677736e-18 0.12698149)
(-0.0014263655 -7.0553765e-18 0.12287062)
(-0.0012638924 -8.0116111e-18 0.11893317)
(-0.0011198429 -9.0382042e-18 0.11515692)
(-0.00099329459 -1.0567728e-17 0.11153923)
(-0.00088274648 -1.0921361e-17 0.10808011)
(-0.00078645197 -1.1126969e-17 0.10477734)
(-0.00070261863 -1.0428235e-17 0.10162303)
(-0.00062951042 -9.3233696e-18 0.098600879)
(-0.00056549386 -8.2236869e-18 0.095683953)
(-0.00050905713 -7.3326308e-18 0.092832527)
(-0.00045880401 -6.8304686e-18 0.089991905)
(-0.00041345935 -6.6549324e-18 0.087090139)
(-0.00037184702 -6.4184049e-18 0.08403569)
(-0.00033292645 -5.7076153e-18 0.080715129)
(-0.00029573292 -4.1425555e-18 0.076991148)
(-0.00025952061 -2.3402741e-18 0.072701204)
(-0.00022355583 -7.394554e-19 0.067657233)
(-0.00018755179 6.8963712e-19 0.061646804)
(-0.00015097333 1.6705133e-18 0.054435569)
(-0.00011417556 1.8492553e-18 0.045770107)
(-7.6417244e-05 1.3779843e-18 0.035378138)
(-3.9050354e-05 8.4112994e-19 0.022966604)
(-5.0295929e-06 2.9508189e-19 0.0082423574)
(-1.6601384e-05 -1.1125306e-18 0.062619539)
(-0.0002136852 -2.3297528e-18 0.14307999)
(-0.000548633 -3.3931882e-18 0.19256096)
(-0.00097777524 -4.4679443e-18 0.21763386)
(-0.0014485805 -4.5464665e-18 0.22498089)
(-0.0019102983 -4.641531e-18 0.22084751)
(-0.0023160006 -5.3903485e-18 0.21043239)
(-0.0026309466 -5.9074581e-18 0.19753666)
(-0.0028364264 -6.0810669e-18 0.18456379)
(-0.0029297899 -6.0357817e-18 0.17277187)
(-0.0029212625 -6.0729206e-18 0.16262108)
(-0.0028293245 -6.116083e-18 0.15409752)
(-0.0026760747 -5.7551031e-18 0.14695858)
(-0.0024834715 -5.7203646e-18 0.14089224)
(-0.0022708046 -5.8903305e-18 0.13560562)
(-0.0020533767 -6.2057506e-18 0.13086402)
(-0.001842181 -6.4602795e-18 0.12649953)
(-0.0016442565 -7.2650763e-18 0.12240362)
(-0.001463417 -8.368691e-18 0.11851327)
(-0.0013010962 -9.301781e-18 0.1147963)
(-0.0011571334 -1.0453025e-17 0.11123862)
(-0.0010304122 -1.1145692e-17 0.10783442)
(-0.00091931746 -1.1136301e-17 0.10457903)
(-0.00082203694 -1.0098815e-17 0.10146393)
(-0.00073673534 -9.5194792e-18 0.098473152)
(-0.00066164593 -8.2474676e-18 0.095580471)
(-0.00059511234 -7.1864645e-18 0.092747008)
(-0.00053559836 -6.8503469e-18 0.089918923)
(-0.00048169569 -6.6305727e-18 0.087025092)
(-0.00043210909 -6.337143e-18 0.083974752)
(-0.00038568684 -5.5062667e-18 0.080655222)
(-0.00034137633 -4.0677135e-18 0.076929923)
(-0.0002983405 -2.3259108e-18 0.072637032)
(-0.00025580309 -7.4181239e-19 0.067589202)
(-0.00021338868 6.5718673e-19 0.061574664)
(-0.00017061048 1.7060319e-18 0.054359627)
(-0.00012768179 1.7978981e-18 0.045690959)
(-8.4182349e-05 1.3775874e-18 0.035297068)
(-4.1518415e-05 9.2367799e-19 0.022889791)
(-4.9534727e-06 2.5641929e-19 0.0081969709)
(-1.5160627e-05 -7.7866315e-19 0.065508533)
(-0.0001964795 -1.3805544e-18 0.15039989)
(-0.00050879104 -2.7209593e-18 0.20321401)
(-0.00091563992 -3.7702637e-18 0.23037444)
(-0.0013726171 -4.494178e-18 0.23849106)
(-0.001834856 -4.8657667e-18 0.2339069)
(-0.0022578988 -5.2984163e-18 0.22209367)
(-0.0026054355 -5.9523286e-18 0.20722505)
(-0.002854042 -6.0066186e-18 0.19207553)
(-0.0029948167 -5.9896688e-18 0.17819794)
(-0.0030318282 -5.9911061e-18 0.16624074)
(-0.0029786815 -6.1613307e-18 0.15627718)
(-0.0028544844 -6.0501998e-18 0.14807436)
(-0.002680149 -5.9593555e-18 0.14128073)
(-0.0024755324 -6.1766619e-18 0.13553956)
(-0.002257586 -6.4452241e-18 0.13054648)
(-0.0020394565 -6.752278e-18 0.12606994)
(-0.0018303659 -7.2662265e-18 0.1219497)
(-0.0016360204 -7.8770584e-18 0.11808453)
(-0.0014592997 -9.0500545e-18 0.11441637)
(-0.001301027 -1.0587694e-17 0.11091505)
(-0.0011606724 -1.0932311e-17 0.10756574)
(-0.0010369098 -1.0868355e-17 0.1043593)
(-0.0009280182 -1.0058223e-17 0.10128551)
(-0.00083213655 -9.3393485e-18 0.09832813)
(-0.0007474107 -8.2543839e-18 0.095461426)
(-0.00067207126 -7.3023259e-18 0.092647289)
(-0.00060446211 -6.879124e-18 0.089832742)
(-0.00054305764 -6.7043314e-18 0.086947525)
(-0.0004864555 -6.2219917e-18 0.083901707)
(-0.00043340329 -5.0649473e-18 0.080583409)
(-0.00038276756 -3.9541774e-18 0.076856839)
(-0.00033362849 -2.2988244e-18 0.072560951)
(-0.00028517153 -7.4268761e-19 0.067509167)
(-0.00023694332 6.3395532e-19 0.06149043)
(-0.00018849286 1.7320778e-18 0.054271553)
(-0.00013993656 1.6909587e-18 0.045599861)
(-9.1139114e-05 1.361536e-18 0.035204969)
(-4.3736793e-05 8.8167742e-19 0.022805016)
(-4.8729452e-06 2.6909431e-19 0.0081491981)
(-1.4013982e-05 -3.9703145e-20 0.068163249)
(-0.00018232251 -9.6457863e-19 0.15717741)
(-0.00047497347 -1.631013e-18 0.21317545)
(-0.00086073242 -1.8055619e-18 0.24245168)
(-0.0013014492 -3.5735878e-18 0.25152736)
(-0.0017574953 -4.5352881e-18 0.24678519)
(-0.0021876105 -4.9694365e-18 0.23389014)
(-0.0025557162 -5.5130747e-18 0.21731717)
(-0.0028358576 -5.8550126e-18 0.20016895)
(-0.0030147801 -5.8430525e-18 0.1842821)
(-0.0030915758 -5.8214995e-18 0.1705064)
(-0.0030753022 -5.7072051e-18 0.15902798)
(-0.0029816563 -6.0527312e-18 0.14965243)
(-0.002829598 -6.2524932e-18 0.14201374)
(-0.0026384722 -6.5678999e-18 0.13570938)
(-0.0024258891 -7.1161569e-18 0.13037555)
(-0.0022064207 -7.5945132e-18 0.12572043)
(-0.0019910515 -7.6423693e-18 0.12153066)
(-0.0017872279 -8.0305597e-18 0.1176628)
(-0.0015993146 -9.0489737e-18 0.11402811)
(-0.0014292543 -1.004145e-17 0.11057601)
(-0.0012772646 -9.9312411e-18 0.10727924)
(-0.001142454 -9.8975784e-18 0.10412191)
(-0.0010233045 -9.8865187e-18 0.10109064)
(-0.00091800788 -8.7134918e-18 0.098168162)
(-0.0008246747 -8.1782402e-18 0.095328831)
(-0.00074145459 -7.5512123e-18 0.092535158)
(-0.00066659235 -6.9113237e-18 0.089734991)
(-0.00059846043 -6.6131065e-18 0.086858944)
(-0.00053555879 -5.9958632e-18 0.083817961)
(-0.00047654357 -5.0580968e-18 0.080501014)
(-0.00042020534 -4.030721e-18 0.076773147)
(-0.00036554754 -2.2917218e-18 0.072474144)
(-0.0003117173 -7.4662341e-19 0.067418242)
(-0.00025819423 5.8778482e-19 0.061395149)
(-0.00020455152 1.4625818e-18 0.054172347)
(-0.00015084684 1.6308602e-18 0.045497799)
(-9.7207317e-05 1.3302781e-18 0.035102895)
(-4.560735e-05 7.9471725e-19 0.022713251)
(-4.7661689e-06 2.9016381e-19 0.008099461)
(-1.3069409e-05 -9.3230918e-19 0.070625756)
(-0.00017044798 -2.4237318e-18 0.16349982)
(-0.00044603936 -2.9731531e-18 0.22253639)
(-0.00081253408 -3.8435861e-18 0.25391775)
(-0.0012366598 -4.169971e-18 0.26407242)
(-0.0016832374 -4.6827583e-18 0.25938802)
(-0.0021142535 -4.8510036e-18 0.24566664)
(-0.0024947463 -4.7577654e-18 0.22762732)
(-0.0027976094 -5.2469035e-18 0.20866015)
(-0.0030066774 -5.7385582e-18 0.19086757)
(-0.0031172136 -6.1128565e-18 0.17530246)
(-0.0031343696 -6.5153018e-18 0.16227852)
(-0.0030705207 -6.3263798e-18 0.15166001)
(-0.0029422984 -6.532251e-18 0.14308696)
(-0.0027678656 -6.684323e-18 0.136128)
(-0.0025647291 -6.8240498e-18 0.13037171)
(-0.0023482068 -7.3293604e-18 0.1254723)
(-0.0021305548 -8.1026135e-18 0.12116491)
(-0.0019206904 -9.11754e-18 0.11726224)
(-0.0017243823 -9.5907803e-18 0.1136416)
(-0.0015447366 -9.6979458e-18 0.11022832)
(-0.001382827 -1.0209294e-17 0.10697948)
(-0.0012383176 -9.8628816e-18 0.10386994)
(-0.0011099993 -9.6960643e-18 0.10088151)
(-0.00099619664 -9.0139716e-18 0.097994912)
(-0.00089503913 -8.1573008e-18 0.095184049)
(-0.00080463171 -7.4971935e-18 0.092411799)
(-0.000723145 -6.916373e-18 0.089626741)
(-0.00064886307 -6.4399291e-18 0.086760354)
(-0.00058020116 -5.9080412e-18 0.083724475)
(-0.00051573125 -4.9767817e-18 0.080408968)
(-0.00045417313 -3.7028055e-18 0.076679758)
(-0.00039446137 -2.2508154e-18 0.072377505)
(-0.00033570316 -7.4978832e-19 0.06731731)
(-0.0002773215 5.3199794e-19 0.061289694)
(-0.00021890598 1.2592559e-18 0.054062879)
(-0.00016048505 1.5575798e-18 0.045385681)
(-0.00010243821 1.3748076e-18 0.034991834)
(-4.7138887e-05 7.9403951e-19 0.022615394)
(-4.6400003e-06 2.3328111e-19 0.0080481327)
(-1.2273375e-05 -1.041417e-18 0.072927363)
(-0.00016032827 -1.7323219e-18 0.16943506)
(-0.00042103412 -3.1076357e-18 0.23137419)
(-0.0007701295 -4.4748617e-18 0.26482988)
(-0.0011782133 -4.6753144e-18 0.27613922)
(-0.0016138439 -4.9102275e-18 0.27167346)
(-0.0020420492 -4.9114419e-18 0.25733167)
(-0.002429377 -5.2683606e-18 0.23803179)
(-0.002748413 -5.528823e-18 0.21741512)
(-0.0029811075 -5.7903746e-18 0.19782989)
(-0.0031198414 -6.0808755e-18 0.18052794)
(-0.0031665429 -6.4779312e-18 0.16595777)
(-0.0031305854 -6.5927724e-18 0.15405597)
(-0.0030262222 -6.706275e-18 0.14448421)
(-0.0028700881 -6.9332954e-18 0.1367969)
(-0.0026790688 -7.1052525e-18 0.13054653)
(-0.0024686725 -7.2439314e-18 0.12534098)
(-0.0022519525 -7.9537201e-18 0.12086751)
(-0.0020389724 -8.4989096e-18 0.11689539)
(-0.0018367382 -9.1718878e-18 0.11326624)
(-0.0016494877 -1.0083419e-17 0.10987852)
(-0.0014792014 -1.052979e-17 0.10667076)
(-0.0013261877 -1.0515323e-17 0.10360617)
(-0.0011896386 -9.5986077e-18 0.10065996)
(-0.0010680881 -9.1339538e-18 0.09780966)
(-0.00095974103 -8.1737907e-18 0.095028042)
(-0.00086269713 -7.2850046e-18 0.092278001)
(-0.0007750784 -6.8984926e-18 0.089508692)
(-0.00069509801 -6.551275e-18 0.086652409)
(-0.0006210959 -5.9685824e-18 0.083621889)
(-0.00055156876 -4.9162168e-18 0.080307914)
(-0.00048517306 -3.6439179e-18 0.076577328)
(-0.00042077998 -2.2069624e-18 0.07227171)
(-0.00035745818 -7.50831e-19 0.067207064)
(-0.00029458169 5.0924933e-19 0.061174778)
(-0.00023175191 1.4656921e-18 0.053943898)
(-0.00016899345 1.508316e-18 0.04526432)
(-0.00010693327 1.2383369e-18 0.034872678)
(-4.8374854e-05 8.370321e-19 0.022512254)
(-4.5047289e-06 2.5239026e-19 0.0079955529)
(-1.1590062e-05 -1.1404828e-19 0.075091953)
(-0.00015158451 -1.1577289e-18 0.17503662)
(-0.00039920409 -1.8966985e-18 0.23975319)
(-0.00073261771 -2.0001568e-18 0.27524219)
(-0.0011255549 -3.7485345e-18 0.28775298)
(-0.0015497172 -4.6490593e-18 0.28362729)
(-0.0019728894 -4.7946262e-18 0.26883196)
(-0.0023632681 -5.1177965e-18 0.24844797)
(-0.0026936362 -5.5967303e-18 0.22633659)
(-0.0029447723 -5.8106297e-18 0.20507206)
(-0.0031069119 -5.9828281e-18 0.186098)
(-0.0031793699 -5.9164627e-18 0.1700004)
(-0.0031689063 -6.5669956e-18 0.156797)
(-0.0030875225 -6.9256556e-18 0.14618269)
(-0.0029502018 -7.289243e-18 0.13770956)
(-0.002772894 -7.8375503e-18 0.13090441)
(-0.0025708874 -8.2486943e-18 0.12533656)
(-0.0023576251 -8.2842858e-18 0.1206502)
(-0.0021439843 -8.5155256e-18 0.11657306)
(-0.0019379961 -9.1435061e-18 0.11291068)
(-0.0017449378 -9.6879351e-18 0.10953289)
(-0.0015676953 -9.5996901e-18 0.10635736)
(-0.0014072749 -9.5871686e-18 0.10333338)
(-0.0012633421 -9.5793442e-18 0.10042776)
(-0.00113471 -8.5922521e-18 0.097613559)
(-0.0010197183 -8.1172629e-18 0.09486161)
(-0.00091649975 -7.538682e-18 0.092134373)
(-0.00082315301 -6.9122571e-18 0.089381356)
(-0.00073783972 -6.4806351e-18 0.086535582)
(-0.00065883699 -5.7864827e-18 0.083510666)
(-0.00058457547 -4.855561e-18 0.080198324)
(-0.00051365278 -3.7948659e-18 0.076466352)
(-0.00044488301 -2.2013825e-18 0.07215728)
(-0.00037729905 -7.5604402e-19 0.067088059)
(-0.00031023164 4.6017475e-19 0.061050994)
(-0.00024329449 1.2234834e-18 0.053816046)
(-0.00017652723 1.4459474e-18 0.045134435)
(-0.00011080447 1.1987023e-18 0.034746224)
(-4.9369023e-05 7.5077937e-19 0.022404537)
(-4.3671212e-06 2.7408825e-19 0.0079419989)
(-1.0995317e-05 -6.3833433e-19 0.077138211)
(-0.00014394052 -2.035486e-18 0.18034726)
(-0.0003799671 -2.4801808e-18 0.24772679)
(-0.00069922483 -2.915015e-18 0.28520329)
(-0.001078016 -3.6919909e-18 0.29894307)
(-0.0014907034 -4.4582417e-18 0.29525014)
(-0.0019075368 -4.8175274e-18 0.28013754)
(-0.0022983707 -5.3700529e-18 0.25882062)
(-0.0026364842 -5.5467895e-18 0.23535385)
(-0.0029019746 -5.7810577e-18 0.21251896)
(-0.0030834896 -6.0697681e-18 0.19194281)
(-0.003178242 -6.3122099e-18 0.17434876)
(-0.0031907593 -6.7579128e-18 0.15984117)
(-0.003130993 -7.1836784e-18 0.14815666)
(-0.0030122853 -7.5114934e-18 0.13885437)
(-0.002849491 -7.9342462e-18 0.13144428)
(-0.0026574003 -8.3281545e-18 0.12546457)
(-0.0024495192 -8.6932879e-18 0.12052153)
(-0.0022372373 -9.2975329e-18 0.11630417)
(-0.0020293838 -9.6375471e-18 0.11258267)
(-0.001832142 -9.3702711e-18 0.1091974)
(-0.00164926 -9.5306334e-18 0.10604348)
(-0.0014824595 -9.3948726e-18 0.10305436)
(-0.0013319327 -9.3137322e-18 0.1001867)
(-0.001196832 -8.6287633e-18 0.097407743)
(-0.0010756815 -8.0588544e-18 0.094685502)
(-0.00096668915 -7.4932497e-18 0.09198145)
(-0.00086796071 -6.8910202e-18 0.089245159)
(-0.00077762416 -6.3140968e-18 0.086410248)
(-0.0006939055 -5.7223832e-18 0.083391169)
(-0.00061517793 -5.0255784e-18 0.080080572)
(-0.00053998703 -3.7204667e-18 0.076347223)
(-0.00046709618 -2.1767091e-18 0.072034641)
(-0.00039550254 -7.6266376e-19 0.066960756)
(-0.00032450343 4.0362852e-19 0.060918842)
(-0.00025372229 1.059225e-18 0.05367988)
(-0.00018323202 1.481073e-18 0.044996657)
(-0.0001141558 1.1624342e-18 0.034613169)
(-5.0171305e-05 7.2978313e-19 0.022292839)
(-4.2355868e-06 2.4721468e-19 0.007887687)
(-1.047135e-05 -1.3847042e-18 0.079081053)
(-0.0001371906 -2.5500966e-18 0.18540173)
(-0.00036287253 -3.6912646e-18 0.2553396)
(-0.00066931016 -5.3175611e-18 0.29475602)
(-0.0010349526 -4.5105881e-18 0.30973917)
(-0.0014364334 -4.5915045e-18 0.30655043)
(-0.0018461962 -4.7641207e-18 0.29123278)
(-0.0022356971 -5.1725922e-18 0.26911284)
(-0.0025788825 -5.6666417e-18 0.24441533)
(-0.0028555088 -5.9369335e-18 0.22011251)
(-0.0030530543 -6.3486671e-18 0.19800547)
(-0.0031670424 -6.9379315e-18 0.17895314)
(-0.0032001091 -7.0692001e-18 0.16314976)
(-0.0031603813 -7.3124969e-18 0.15037977)
(-0.0030596443 -7.4877987e-18 0.14021673)
(-0.0029116016 -7.6085806e-18 0.13216125)
(-0.0027303736 -7.9386415e-18 0.12572688)
(-0.0025292876 -8.7792843e-18 0.12048717)
(-0.0023199896 -9.4991363e-18 0.11609574)
(-0.0021118862 -9.6425395e-18 0.11228892)
(-0.0019119148 -9.667306e-18 0.10887757)
(-0.0017246108 -1.0180022e-17 0.10573322)
(-0.0015523988 -1.0032498e-17 0.10277191)
(-0.0013960262 -9.168048e-18 0.09993859)
(-0.0012550311 -8.9988502e-18 0.09719337)
(-0.0011281708 -8.0677961e-18 0.094500461)
(-0.0010137689 -7.2825739e-18 0.091819738)
(-0.00090996484 -6.8239313e-18 0.089100483)
(-0.00081487346 -6.301523e-18 0.086276733)
(-0.00072668314 -5.7533408e-18 0.083263704)
(-0.00064372007 -4.8803005e-18 0.079954967)
(-0.00056448262 -3.4587045e-18 0.076220272)
(-0.00048768746 -2.1314317e-18 0.071904148)
(-0.00041230125 -7.671434e-19 0.066825543)
(-0.00033759134 3.6952613e-19 0.060778752)
(-0.00026319486 1.1534858e-18 0.053535884)
(-0.00018923231 1.4166298e-18 0.044851546)
(-0.00011707574 1.1488303e-18 0.034474121)
(-5.0824362e-05 7.7099358e-19 0.022177661)
(-4.1109874e-06 2.1456687e-19 0.0078327823)
(-1.0004857e-05 -8.966216e-19 0.0809326)
(-0.00013117844 -2.2222773e-18 0.19022866)
(-0.00034756801 -3.3340052e-18 0.26262911)
(-0.00064235053 -4.2579439e-18 0.30393781)
(-0.00099579102 -4.5599242e-18 0.32016968)
(-0.0013864747 -4.6924827e-18 0.31754056)
(-0.001788798 -4.7908173e-18 0.30211107)
(-0.0021757333 -4.9943266e-18 0.27930018)
(-0.0025219857 -5.680438e-18 0.25348328)
(-0.0028072059 -6.0573125e-18 0.22780768)
(-0.0030180183 -6.4702709e-18 0.20423977)
(-0.0031485873 -7.0299584e-18 0.18377125)
(-0.0031999501 -7.354822e-18 0.16668795)
(-0.0031786267 -7.5274077e-18 0.15282653)
(-0.0030949644 -7.7165141e-18 0.14178071)
(-0.0029615251 -7.9618501e-18 0.13304781)
(-0.0027916662 -8.254252e-18 0.12612248)
(-0.0025983676 -8.7857452e-18 0.12055031)
(-0.0023933274 -9.3783972e-18 0.115953)
(-0.0021863317 -9.6512106e-18 0.11203503)
(-0.0019849161 -9.7385361e-18 0.10857839)
(-0.0017943062 -9.9959055e-18 0.10543048)
(-0.0016175947 -9.8623493e-18 0.10248883)
(-0.0014560901 -9.2009719e-18 0.099685306)
(-0.0013097488 -8.7908969e-18 0.096971638)
(-0.0011776023 -8.0665868e-18 0.094307253)
(-0.0010581273 -7.319836e-18 0.091649746)
(-0.0009495254 -6.7706001e-18 0.088947695)
(-0.00084991915 -6.2582719e-18 0.086135333)
(-0.00075747395 -5.6918705e-18 0.083128544)
(-0.00067047647 -4.804465e-18 0.079821781)
(-0.00058738474 -3.4331472e-18 0.076085783)
(-0.00050687435 -2.0876759e-18 0.071766111)
(-0.00042788423 -7.7028079e-19 0.066682761)
(-0.000349657 3.3412086e-19 0.060631102)
(-0.00027184654 1.078528e-18 0.053384488)
(-0.00019463293 1.3173027e-18 0.044699597)
(-0.00011963648 1.1242401e-18 0.03432961)
(-5.1360244e-05 7.5024868e-19 0.022059428)
(-3.995373e-06 2.2950135e-19 0.0077774086)
(-9.5864651e-06 -5.2560194e-19 0.082702852)
(-0.00012578248 -1.7574076e-18 0.19485189)
(-0.00033377398 -2.6765065e-18 0.26962712)
(-0.0006179187 -2.9885855e-18 0.31278138)
(-0.00096003325 -4.2922289e-18 0.33026098)
(-0.0013403956 -5.1829135e-18 0.32823473)
(-0.0017351433 -5.0492771e-18 0.31277138)
(-0.0021186668 -5.3115018e-18 0.28936676)
(-0.002466473 -5.8426398e-18 0.26252997)
(-0.0027582708 -6.1591019e-18 0.23556943)
(-0.0029800692 -6.4273333e-18 0.21060819)
(-0.0031249358 -6.5708769e-18 0.18876735)
(-0.0031925558 -7.2900213e-18 0.17042494)
(-0.0031880411 -7.6462058e-18 0.15547305)
(-0.00312043 -7.9211351e-18 0.14353005)
(-0.0030011901 -8.2631095e-18 0.13409491)
(-0.0028428801 -8.7529908e-18 0.12664827)
(-0.0026580236 -8.9251786e-18 0.12071207)
(-0.0024582117 -9.1792794e-18 0.11587953)
(-0.002253443 -9.5638439e-18 0.11182553)
(-0.0020517031 -9.6432898e-18 0.10830422)
(-0.0018588015 -9.4646728e-18 0.1051389)
(-0.0016784424 -9.3596762e-18 0.10220783)
(-0.0015124862 -9.2598826e-18 0.09942873)
(-0.0013613269 -8.4828238e-18 0.096743783)
(-0.0012243 -8.0172211e-18 0.094106669)
(-0.0011000685 -7.4920413e-18 0.091471989)
(-0.00098692735 -6.7943991e-18 0.088787155)
(-0.00088302536 -6.1811078e-18 0.085986334)
(-0.00078651898 -5.4416586e-18 0.082985938)
(-0.00069566635 -4.674e-18 0.079681258)
(-0.00060889094 -3.3905094e-18 0.075944011)
(-0.00052483323 -2.0535729e-18 0.071620802)
(-0.00044240505 -7.7401257e-19 0.066532707)
(-0.00036083104 2.8693447e-19 0.060476227)
(-0.00027978502 9.223592e-19 0.053226077)
(-0.00019951851 1.2507907e-18 0.044541254)
(-0.00012189577 1.0839054e-18 0.034180105)
(-5.1801772e-05 6.6563888e-19 0.021938494)
(-3.8882629e-06 2.4960904e-19 0.0077216618)
(-9.2082695e-06 -1.1018525e-18 0.084400163)
(-0.0001209077 -2.2045686e-18 0.19929156)
(-0.00032126705 -3.2992248e-18 0.27636081)
(-0.00059566319 -4.6257379e-18 0.32131536)
(-0.00092725417 -4.7002185e-18 0.34003726)
(-0.0012977947 -5.0481779e-18 0.33864771)
(-0.0016849785 -5.0558964e-18 0.32321621)
(-0.0020645169 -5.0849153e-18 0.29930262)
(-0.0024127296 -5.8350958e-18 0.27153503)
(-0.0027094969 -6.3204797e-18 0.24337044)
(-0.0029403941 -6.7509793e-18 0.21708026)
(-0.0030976024 -7.3945156e-18 0.19391131)
(-0.0031796599 -7.5200907e-18 0.17433378)
(-0.0031904459 -7.7875921e-18 0.15829745)
(-0.0031378179 -8.0223092e-18 0.14544886)
(-0.0030322162 -8.0924022e-18 0.13529269)
(-0.0028853997 -8.3828857e-18 0.1272997)
(-0.0027093704 -8.9426e-18 0.12097198)
(-0.0025155028 -9.4694956e-18 0.1158775)
(-0.0023138667 -9.6009592e-18 0.11166388)
(-0.0021127631 -9.6957322e-18 0.10805877)
(-0.0019184797 -9.8182635e-18 0.10486177)
(-0.0017352649 -9.4028645e-18 0.10193153)
(-0.0015655046 -9.1857426e-18 0.099170732)
(-0.0014100341 -8.6560994e-18 0.096511064)
(-0.0012685191 -8.0230655e-18 0.093899526)
(-0.0011398363 -7.4679741e-18 0.091287)
(-0.0010223976 -6.7806182e-18 0.08861923)
(-0.00091440225 -6.1035792e-18 0.08583001)
(-0.00081401292 -5.3210446e-18 0.082836122)
(-0.00071946736 -4.2425487e-18 0.079533623)
(-0.00062916135 -3.0646555e-18 0.075795184)
(-0.00054170528 -1.9832782e-18 0.071468466)
(-0.00045598759 -7.7300764e-19 0.06637565)
(-0.0003712197 2.4785798e-19 0.060314427)
(-0.00028709979 8.6005734e-19 0.053060997)
(-0.00020395724 1.1164017e-18 0.044376916)
(-0.00012389923 1.1322459e-18 0.034026016)
(-5.216947e-05 6.6786456e-19 0.02181516)
(-3.7895495e-06 1.9277729e-19 0.0076656171)
(-8.864247e-06 -8.3317254e-19 0.086031594)
(-0.00011647774 -2.0760804e-18 0.20356479)
(-0.00030986679 -3.0997205e-18 0.28285359)
(-0.00057529625 -3.9129031e-18 0.32956487)
(-0.00089709237 -4.3027363e-18 0.3495205)
(-0.0012583087 -4.3653478e-18 0.34879413)
(-0.0016380362 -5.0560102e-18 0.33345024)
(-0.0020132094 -5.9861888e-18 0.30910192)
(-0.0023609545 -6.1059186e-18 0.28048353)
(-0.0026614024 -6.4998276e-18 0.25118927)
(-0.0028998332 -6.8715254e-18 0.22363111)
(-0.0030677097 -7.4845776e-18 0.19917776)
(-0.0031625937 -7.7960881e-18 0.17839101)
(-0.0031872842 -8.0362393e-18 0.16127992)
(-0.0031485781 -8.3553776e-18 0.147522)
(-0.0030559625 -8.7086852e-18 0.13663099)
(-0.0029204189 -8.6541802e-18 0.12807123)
(-0.0027533978 -8.9460159e-18 0.12132832)
(-0.0025659759 -9.3969788e-18 0.11594787)
(-0.0023681885 -9.6108327e-18 0.11155258)
(-0.0021685347 -9.6566908e-18 0.10784512)
(-0.0019736759 -9.6934858e-18 0.10460206)
(-0.001788334 -9.6108621e-18 0.10166236)
(-0.0016153814 -8.9978804e-18 0.098913144)
(-0.0014560889 -8.5982695e-18 0.096274754)
(-0.0013104648 -8.0173562e-18 0.093686666)
(-0.001177623 -7.2724717e-18 0.091095327)
(-0.0010561193 -6.6954803e-18 0.088444289)
(-0.00094422248 -6.0487497e-18 0.085666633)
(-0.00084011347 -5.3948129e-18 0.082679322)
(-0.00074202268 -4.4406923e-18 0.079379083)
(-0.00064832553 -3.2545425e-18 0.075639513)
(-0.00055760562 -1.9516452e-18 0.071309325)
(-0.00046873341 -7.72957e-19 0.066211835)
(-0.00038090987 2.2726888e-19 0.060145977)
(-0.00029386105 9.2370622e-19 0.052889567)
(-0.00020800491 1.2040364e-18 0.044206946)
(-0.00012568413 1.0078056e-18 0.03386771)
(-5.2475051e-05 7.1001467e-19 0.021689687)
(-3.6978848e-06 2.1351539e-19 0.0076093351)
(-8.5496386e-06 -4.1809827e-19 0.087603174)
(-0.00011243065 -1.5922597e-18 0.2076863)
(-0.00029942478 -2.4404943e-18 0.28912576)
(-0.00055657678 -2.7046398e-18 0.33755207)
(-0.00086923932 -4.0288265e-18 0.35873068)