/*--------------------------------*- C++ -*----------------------------------*\
| =========                 |                                                 |
| \\      /  F ield         | OpenFOAM: The Open Source CFD Toolbox           |
|  \\    /   O peration     | Version:  3.0.1                                 |
|   \\  /    A nd           | Web:      www.OpenFOAM.org                      |
|    \\/     M anipulation  |                                                 |
\*---------------------------------------------------------------------------*/
FoamFile
{
    version     2.0;
    format      ascii;
    class       volScalarField;
    location    "3500/cilcen";
    object      T;
}
// * * * * * * * * * * * * * * * * * * * * * * * * * * * * * * * * * * * * * //

dimensions      [0 0 0 1 0 0 0];

internalField   nonuniform List<scalar> 
100
(
302.26747
313.80006
321.94294
327.77559
332.01267
335.14918
337.51665
339.34236
340.77993
341.93575
342.88342
343.67495
344.34727
344.92714
345.4341
345.8827
346.28386
346.64593
346.97538
347.27727
347.55563
347.81368
348.05406
348.27894
348.49011
348.68907
348.8771
349.0553
349.22458
349.38577
349.53957
349.68658
349.82737
349.9624
350.09211
350.21688
350.33706
350.45294
350.56482
350.67294
350.77753
350.87881
350.97697
351.07218
351.16461
351.2544
351.34169
351.42661
351.50928
351.5898
351.66828
351.74482
351.8195
351.8924
351.96361
352.03319
352.10121
352.16774
352.23283
352.29655
352.35895
352.42007
352.47997
352.53869
352.59628
352.65276
352.70819
352.7626
352.81602
352.86849
352.92003
352.97068
353.02047
353.06942
353.11756
353.16491
353.2115
353.25735
353.30248
353.34691
353.39067
353.43377
353.47624
353.51808
353.55933
353.6
353.64011
353.67971
353.71881
353.75748
353.7958
353.83388
353.87191
353.9102
353.94924
353.98983
354.03326
354.08153
354.13699
354.19636
)
;

boundaryField
{
    cilcentop
    {
        type            zeroGradient;
    }
    cilcenbot
    {
        type            fixedValue;
        value           uniform 293.7;
    }
    symmetryleftcen
    {
        type            symmetry;
    }
    symmetryrigtcen
    {
        type            symmetry;
    }
    cilcen_to_fluid
    {
        type            compressible::turbulentTemperatureRadCoupledMixed;
        refValue        nonuniform List<scalar> 
100
(
301.95851
313.20658
321.25514
327.03733
331.24524
334.36808
336.73017
338.55608
339.99665
341.15716
342.11027
342.90753
343.58559
344.17106
344.68339
345.13709
345.54308
345.90971
346.24345
346.54939
346.83157
347.09324
347.33704
347.56516
347.77941
347.9813
348.17212
348.35298
348.52481
348.68844
348.84457
348.99383
349.13677
349.27388
349.40559
349.53229
349.65433
349.77201
349.88563
349.99543
350.10166
350.20453
350.30422
350.40093
350.49481
350.58601
350.67468
350.76094
350.84491
350.92671
351.00643
351.08418
351.16004
351.2341
351.30643
351.37712
351.44622
351.51381
351.57994
351.64467
351.70807
351.77016
351.83102
351.89068
351.94918
352.00657
352.06288
352.11816
352.17243
352.22574
352.27811
352.32957
352.38015
352.42989
352.4788
352.52691
352.57425
352.62083
352.66669
352.71184
352.7563
352.80009
352.84324
352.88575
352.92766
352.96898
353.00974
353.04997
353.0897
353.12898
353.1679
353.20656
353.24515
353.28398
353.32351
353.36454
353.40831
353.45697
353.51389
353.58516
)
;
        refGradient     nonuniform List<scalar> 
100
(
-3.2810403
-8.1629302
-11.951426
-14.847839
-17.051207
-18.73764
-20.042415
-21.067636
-21.886693
-22.552844
-23.10414
-23.568149
-23.964837
-24.308866
-24.611086
-24.879637
-25.120689
-25.338986
-25.538216
-25.721286
-25.890514
-26.047769
-26.194577
-26.332194
-26.461667
-26.583878
-26.699572
-26.809387
-26.913871
-27.013502
-27.108694
-27.199811
-27.287176
-27.371073
-27.451757
-27.529454
-27.604369
-27.676686
-27.746571
-27.814175
-27.879637
-27.943082
-28.004624
-28.06437
-28.122417
-28.178853
-28.233762
-28.287221
-28.3393
-28.390065
-28.439579
-28.487897
-28.535075
-28.581161
-28.626202
-28.670243
-28.713325
-28.755486
-28.796764
-28.837192
-28.876803
-28.915628
-28.953695
-28.991033
-29.027667
-29.063622
-29.098921
-29.133587
-29.16764
-29.201102
-29.23399
-29.266324
-29.298121
-29.329397
-29.360168
-29.39045
-29.420257
-29.449603
-29.478501
-29.506965
-29.535006
-29.562637
-29.589871
-29.616718
-29.643191
-29.669303
-29.69507
-29.72051
-29.745646
-29.770512
-29.795157
-29.819658
-29.844136
-29.868787
-29.893926
-29.920068
-29.948037
-29.979138
-30.014905
-30.053495
)
;
        valueFraction   nonuniform List<scalar> 
100
(
0.0390714
0.040158449
0.040913088
0.041447153
0.041831805
0.042114795
0.042327426
0.04249084
0.042619172
0.042722138
0.04280642
0.042876718
0.04293636
0.04298775
0.04303264
0.043072332
0.043107803
0.043139798
0.043168895
0.043195544
0.043220104
0.043242863
0.043264055
0.043283873
0.043302476
0.043319999
0.043336553
0.043352237
0.043367132
0.043381311
0.043394837
0.043407763
0.043420138
0.043432005
0.043443402
0.043454362
0.043464917
0.043475093
0.043484915
0.043494406
0.043503585
0.043512473
0.043521085
0.043529437
0.043537543
0.043545417
0.043553071
0.043560516
0.043567763
0.043574821
0.043581698
0.043588405
0.043594948
0.043601334
0.043607571
0.043613665
0.043619622
0.043625448
0.043631147
0.043636726
0.043642188
0.043647538
0.04365278
0.043657919
0.043662958
0.0436679
0.043672749
0.043677509
0.043682182
0.04368677
0.043691278
0.043695708
0.043700061
0.043704341
0.04370855
0.043712689
0.043716762
0.04372077
0.043724714
0.043728598
0.043732422
0.043736188
0.043739898
0.043743554
0.043747158
0.043750711
0.043754215
0.043757673
0.043761089
0.043764466
0.043767813
0.043771138
0.043774459
0.043777802
0.04378121
0.043784753
0.043788542
0.043792755
0.043797598
0.043802821
)
;
        value           nonuniform List<scalar> 
100
(
302.25205
313.76791
321.90263
327.72987
331.9632
335.09721
337.46295
339.2875
340.72426
341.87952
342.8268
343.61804
344.29016
344.86987
345.37673
345.82524
346.22633
346.58836
346.91777
347.21963
347.49796
347.75599
347.99636
348.22122
348.43237
348.63133
348.81935
348.99754
349.16682
349.328
349.48179
349.6288
349.76958
349.90461
350.03432
350.15909
350.27926
350.39514
350.50701
350.61513
350.71973
350.82101
350.91916
351.01437
351.10679
351.19658
351.28387
351.36879
351.45146
351.53198
351.61047
351.687
351.76168
351.83458
351.90579
351.97536
352.04339
352.10992
352.17501
352.23873
352.30113
352.36225
352.42215
352.48087
352.53845
352.59494
352.65037
352.70477
352.75819
352.81066
352.8622
352.91285
352.96264
353.01159
353.05973
353.10708
353.15367
353.19952
353.24465
353.28909
353.33284
353.37595
353.41841
353.46025
353.5015
353.54217
353.58228
353.62188
353.66098
353.69965
353.73797
353.77605
353.81408
353.85236
353.8914
353.93198
353.97539
354.02364
354.07913
354.13898
)
;
        Tnbr            T;
        QrNbr           Qr;
        Qr              none;
        thicknessLayers 0();
        kappaLayers     0();
        kappa           solidThermo;
        kappaName       none;
    }
}


// ************************************************************************* //
