/*--------------------------------*- C++ -*----------------------------------*\
| =========                 |                                                 |
| \\      /  F ield         | OpenFOAM: The Open Source CFD Toolbox           |
|  \\    /   O peration     | Version:  4.0                                   |
|   \\  /    A nd           | Web:      www.OpenFOAM.org                      |
|    \\/     M anipulation  |                                                 |
\*---------------------------------------------------------------------------*/
FoamFile
{
    version     2.0;
    format      ascii;
    class       volScalarField;
    location    "2000/cilcen";
    object      T;
}
// * * * * * * * * * * * * * * * * * * * * * * * * * * * * * * * * * * * * * //

dimensions      [0 0 0 1 0 0 0];

internalField   nonuniform List<scalar> 
600
(
373.67409
373.62558
373.57423
373.53811
373.51541
373.67409
373.62561
373.57439
373.53846
373.51594
373.67409
373.62566
373.57468
373.53909
373.51686
373.67409
373.62572
373.57502
373.53984
373.51796
373.6741
373.62578
373.57532
373.54053
373.51901
373.6741
373.62581
373.57551
373.54098
373.51975
375.21341
375.19144
375.16861
375.15277
375.14291
375.21341
375.19146
375.1687
375.15295
375.14316
375.21341
375.19149
375.16885
375.15327
375.14362
375.21341
375.19152
375.16904
375.15368
375.14421
375.21342
375.19155
375.16921
375.15408
375.14483
375.21342
375.19157
375.16932
375.15435
375.1453
377.21239
377.19828
377.18345
377.17306
377.16653
377.2124
377.19829
377.18353
377.17321
377.16675
377.2124
377.19832
377.18367
377.1735
377.16717
377.2124
377.19835
377.18383
377.17386
377.1677
377.2124
377.19838
377.18398
377.17421
377.16824
377.2124
377.19839
377.18407
377.17445
377.16863
379.35114
379.33998
379.32824
379.32
379.31483
379.35114
379.33999
379.3283
379.32012
379.315
379.35114
379.34001
379.32839
379.32033
379.31532
379.35114
379.34003
379.3285
379.32058
379.31568
379.35114
379.34004
379.3286
379.3208
379.31602
379.35114
379.34006
379.32866
379.32094
379.31624
381.5099
381.50019
381.48992
381.48267
381.47811
381.5099
381.5002
381.48999
381.4828
381.47829
381.5099
381.50022
381.4901
381.48304
381.47863
381.5099
381.50025
381.49023
381.48334
381.47907
381.5099
381.50027
381.49036
381.48363
381.47951
381.5099
381.50028
381.49043
381.48381
381.47983
383.62927
383.62053
383.61129
383.60478
383.60068
383.62928
383.62054
383.61134
383.60488
383.60083
383.62928
383.62055
383.61143
383.60507
383.6011
383.62928
383.62057
383.61154
383.60532
383.60146
383.62928
383.62059
383.61164
383.60556
383.60183
383.62928
383.6206
383.6117
383.60571
383.60209
385.67039
385.66229
385.65372
385.64765
385.64383
385.67039
385.6623
385.65377
385.64777
385.64399
385.67039
385.66232
385.65387
385.64798
385.6443
385.67039
385.66234
385.65399
385.64824
385.64468
385.67039
385.66236
385.6541
385.64849
385.64507
385.67039
385.66237
385.65416
385.64866
385.64534
387.60658
387.59897
387.5909
387.58521
387.58162
387.60658
387.59898
387.59096
387.58531
387.58175
387.60658
387.599
387.59105
387.5855
387.58203
387.60659
387.59902
387.59116
387.58576
387.58241
387.60659
387.59903
387.59127
387.586
387.58278
387.60659
387.59904
387.59133
387.58616
387.58305
389.41835
389.41102
389.40325
389.39774
389.39427
389.41835
389.41103
389.4033
389.39786
389.39442
389.41835
389.41105
389.4034
389.39806
389.39472
389.41835
389.41107
389.40352
389.39832
389.3951
389.41835
389.41109
389.40362
389.39857
389.39548
389.41835
389.4111
389.40369
389.39873
389.39575
391.09388
391.08674
391.07915
391.07377
391.07037
391.09388
391.08675
391.07921
391.07389
391.07053
391.09388
391.08676
391.0793
391.0741
391.07083
391.09389
391.08679
391.07942
391.07436
391.07122
391.09389
391.0868
391.07953
391.07461
391.0716
391.09389
391.08682
391.0796
391.07477
391.07188
392.62586
392.61879
392.61127
392.60594
392.60256
392.62586
392.6188
392.61133
392.60606
392.60273
392.62586
392.61882
392.61144
392.60628
392.60305
392.62586
392.61884
392.61156
392.60655
392.60345
392.62586
392.61886
392.61167
392.60682
392.60386
392.62586
392.61887
392.61174
392.60698
392.60414
394.01105
394.00402
393.99655
393.99123
393.98786
394.01106
394.00404
393.99661
393.99136
393.98804
394.01106
394.00406
393.99672
393.99159
393.98838
394.01106
394.00408
393.99685
393.99187
393.9888
394.01106
394.0041
393.99696
393.99214
393.98921
394.01106
394.00411
393.99703
393.99232
393.9895
395.24774
395.24072
395.23325
395.22793
395.22456
395.24774
395.24073
395.23331
395.22806
395.22473
395.24774
395.24075
395.23342
395.22829
395.22507
395.24775
395.24078
395.23355
395.22859
395.22551
395.24775
395.2408
395.23368
395.22887
395.22595
395.24775
395.24081
395.23375
395.22905
395.22625
396.33556
396.32856
396.32109
396.31578
396.3124
396.33556
396.32857
396.32116
396.31591
396.31259
396.33556
396.32859
396.32128
396.31616
396.31296
396.33556
396.32862
396.32142
396.31647
396.31341
396.33557
396.32864
396.32154
396.31676
396.31385
396.33557
396.32865
396.32162
396.31694
396.31416
397.27373
397.26674
397.25929
397.25398
397.25061
397.27373
397.26675
397.25936
397.25412
397.2508
397.27374
397.26678
397.25948
397.25437
397.25116
397.27374
397.2668
397.25962
397.25468
397.25162
397.27374
397.26683
397.25975
397.25498
397.25208
397.27374
397.26684
397.25982
397.25517
397.25241
398.06166
398.05471
398.0473
398.042
398.03864
398.06166
398.05472
398.04737
398.04215
398.03884
398.06166
398.05475
398.04749
398.04241
398.03923
398.06166
398.05477
398.04764
398.04273
398.0397
398.06166
398.0548
398.04777
398.04304
398.04017
398.06166
398.05481
398.04785
398.04323
398.04049
398.69757
398.69067
398.6833
398.67804
398.67469
398.69757
398.69068
398.68337
398.67818
398.67489
398.69757
398.6907
398.68349
398.67844
398.67527
398.69757
398.69073
398.68364
398.67877
398.67575
398.69757
398.69075
398.68377
398.67908
398.67623
398.69758
398.69077
398.68386
398.67928
398.67657
399.17961
399.17278
399.16548
399.16027
399.15694
399.17961
399.17279
399.16555
399.16042
399.15716
399.17961
399.17281
399.16568
399.16069
399.15755
399.17961
399.17284
399.16583
399.16102
399.15805
399.17961
399.17286
399.16597
399.16133
399.15852
399.17961
399.17288
399.16605
399.16153
399.15886
399.50468
399.49794
399.49072
399.48556
399.48228
399.50468
399.49795
399.4908
399.48571
399.48249
399.50469
399.49797
399.49093
399.48599
399.48289
399.50469
399.498
399.49108
399.48633
399.48339
399.50469
399.49803
399.49122
399.48665
399.48388
399.50469
399.49804
399.4913
399.48685
399.48422
399.66941
399.66277
399.65567
399.65057
399.64732
399.66941
399.66279
399.65574
399.65073
399.64755
399.66941
399.66281
399.65587
399.65102
399.64797
399.66942
399.66284
399.65603
399.65137
399.64848
399.66942
399.66286
399.65618
399.65169
399.64898
399.66942
399.66288
399.65626
399.6519
399.64933
)
;

boundaryField
{
    ciltopcen
    {
        type            zeroGradient;
    }
    cilbotcen
    {
        type            zeroGradient;
    }
    symmetrycen1
    {
        type            symmetry;
    }
    symmetrycen2
    {
        type            symmetry;
    }
    cilcen_to_fluid
    {
        type            compressible::turbulentTemperatureRadCoupledMixed;
        refValue        nonuniform List<scalar> 
120
(
372.93369
372.91966
372.89125
372.84829
372.79153
372.72281
374.89244
374.88614
374.87402
374.85667
374.83506
374.81045
377.00068
376.99702
376.99028
376.98074
376.96879
376.95492
379.18367
379.18111
379.17606
379.16793
379.15677
379.14297
381.36263
381.36023
381.35628
381.35046
381.34318
381.33484
383.4977
383.49535
383.49122
383.48576
383.47887
383.47065
385.54787
385.54581
385.54292
385.53835
385.53256
385.5258
387.49192
387.48977
387.48651
387.48265
387.47749
387.47136
389.30759
389.30582
389.3032
389.29969
389.29494
389.28926
390.98583
390.98412
390.9818
390.97846
390.97411
390.96887
392.51876
392.51722
392.51492
392.51209
392.50812
392.5032
393.90435
393.90295
393.90112
393.89828
393.89454
393.88996
395.14115
395.13981
395.1377
395.13517
395.13198
395.1277
396.22893
396.22773
396.22619
396.22376
396.22052
396.21645
397.16739
397.16624
397.16439
397.16199
397.15925
397.15573
397.95567
397.95455
397.95325
397.95118
397.94836
397.94473
398.59228
398.59126
398.58963
398.5877
398.58538
398.58201
399.07511
399.0742
399.07312
399.07137
399.06892
399.06569
399.40132
399.40041
399.39928
399.3979
399.39569
399.39268
399.56714
399.5666
399.5658
399.56455
399.56271
399.56005
)
;
        refGradient     uniform 0;
        valueFraction   nonuniform List<scalar> 
120
(
0.014831646
0.0143401
0.013458082
0.012340736
0.011139832
0.0099684181
0.014878189
0.014385113
0.013500351
0.012379525
0.011174878
0.0099998099
0.014935792
0.014440834
0.01355269
0.012427571
0.0112183
0.01003871
0.01499674
0.014499791
0.013608068
0.012478405
0.011264238
0.010079863
0.015057904
0.014558958
0.013663648
0.012529432
0.011310359
0.010121187
0.015117715
0.014616816
0.013717995
0.012579323
0.01135545
0.010161584
0.015175096
0.014672324
0.013770138
0.012627194
0.011398718
0.01020035
0.015229344
0.014724801
0.013819432
0.012672449
0.011439621
0.010236997
0.015279937
0.014773743
0.013865408
0.012714659
0.011477772
0.010271179
0.015326591
0.014818875
0.013907805
0.012753582
0.011512953
0.010302701
0.015369135
0.014860031
0.013946467
0.012789077
0.011545036
0.010331447
0.015407517
0.014897162
0.013981347
0.012821101
0.011573982
0.010357382
0.015441717
0.014930246
0.014012427
0.012849636
0.011599774
0.010380491
0.015471752
0.014959302
0.014039723
0.012874696
0.011622426
0.010400787
0.01549762
0.014984326
0.01406323
0.012896279
0.011641934
0.010418267
0.015519323
0.015005322
0.014082955
0.012914388
0.011658303
0.010432934
0.015536825
0.015022252
0.014098859
0.01292899
0.011671502
0.01044476
0.015550085
0.01503508
0.014110911
0.012940055
0.011681504
0.010453721
0.015559026
0.01504373
0.014119036
0.012947516
0.011688247
0.010459764
0.01556356
0.015048117
0.014123157
0.0129513
0.011691668
0.010462829
)
;
        value           nonuniform List<scalar> 
120
(
373.46386
373.46445
373.46549
373.46673
373.46791
373.46877
375.09887
375.09914
375.09963
375.10028
375.10095
375.1015
377.12771
377.12794
377.12838
377.12894
377.12953
377.12997
379.28074
379.28093
379.28126
379.28163
379.28198
379.28221
381.44806
381.44824
381.44861
381.44907
381.44954
381.4499
383.57386
383.574
383.57429
383.57468
383.57507
383.57537
385.61925
385.61941
385.61974
385.62015
385.62056
385.62087
387.55838
387.55852
387.55881
387.55921
387.55961
387.55992
389.3716
389.37176
389.37207
389.37248
389.37289
389.37319
391.04772
391.04788
391.0482
391.04862
391.04904
391.04934
392.57956
392.57973
392.58006
392.58051
392.58094
392.58126
393.96433
393.96451
393.96488
393.96533
393.96578
393.96611
395.20045
395.20063
395.20099
395.20147
395.20195
395.20229
396.28775
396.28796
396.28835
396.28884
396.28932
396.28967
397.22551
397.22571
397.22609
397.22659
397.2271
397.22747
398.0132
398.01341
398.01383
398.01434
398.01485
398.01522
398.64901
398.64923
398.64963
398.65015
398.65067
398.65105
399.13111
399.13134
399.13177
399.1323
399.13282
399.1332
399.45635
399.45658
399.45701
399.45756
399.45809
399.45847
399.62135
399.62159
399.62204
399.6226
399.62315
399.62354
)
;
        Tnbr            T;
        QrNbr           none;
        Qr              none;
        thicknessLayers 0();
        kappaLayers     0();
        kappaMethod     solidThermo;
        kappa           none;
        alphaAni        Anialpha;
    }
}


// ************************************************************************* //
