/*--------------------------------*- C++ -*----------------------------------*\
| =========                 |                                                 |
| \\      /  F ield         | OpenFOAM: The Open Source CFD Toolbox           |
|  \\    /   O peration     | Version:  3.0.1                                 |
|   \\  /    A nd           | Web:      www.OpenFOAM.org                      |
|    \\/     M anipulation  |                                                 |
\*---------------------------------------------------------------------------*/
FoamFile
{
    version     2.0;
    format      ascii;
    class       volScalarField;
    location    "3500/cilcen";
    object      T;
}
// * * * * * * * * * * * * * * * * * * * * * * * * * * * * * * * * * * * * * //

dimensions      [0 0 0 1 0 0 0];

internalField   nonuniform List<scalar> 
100
(
327.61431
370.22515
397.90676
415.97223
427.9293
436.04118
441.70812
445.80064
448.85732
451.21726
453.09607
454.6338
455.92305
457.02642
457.98722
458.83607
459.59514
460.28082
460.90551
461.47875
462.00804
462.49936
462.95756
463.3866
463.78979
464.16992
464.52933
464.87003
465.19378
465.50206
465.7962
466.07737
466.34658
466.60474
466.85266
467.09108
467.32064
467.54194
467.7555
467.96181
468.16132
468.35443
468.5415
468.72287
468.89887
469.06976
469.23583
469.39731
469.55444
469.70742
469.85646
470.00173
470.14341
470.28166
470.41662
470.54845
470.67726
470.80319
470.92636
471.04686
471.16481
471.28031
471.39344
471.5043
471.61296
471.71951
471.82402
471.92656
472.0272
472.126
472.22302
472.31833
472.41197
472.504
472.59447
472.68343
472.77092
472.85699
472.94168
473.02503
473.10707
473.18786
473.26741
473.34578
473.42298
473.49906
473.57406
473.64801
473.72097
473.79302
473.86428
473.93495
474.0054
474.07633
474.14903
474.22595
474.31177
474.41528
474.5505
474.71983
)
;

boundaryField
{
    cilcentop
    {
        type            zeroGradient;
    }
    cilcenbot
    {
        type            fixedValue;
        value           uniform 293.7;
    }
    symmetryleftcen
    {
        type            symmetry;
    }
    symmetryrigtcen
    {
        type            symmetry;
    }
    cilcen_to_fluid
    {
        type            compressible::turbulentTemperatureRadCoupledMixed;
        refValue        nonuniform List<scalar> 
100
(
326.29551
367.88202
395.31348
413.27599
425.20247
433.32664
439.02402
443.15468
446.25059
448.64839
450.56243
452.13252
453.45125
454.58151
455.56683
456.43813
457.21783
457.92254
458.56485
459.15449
459.69907
460.20471
460.67636
461.11808
461.53325
461.92471
462.29488
462.64582
462.97932
463.29692
463.59998
463.88968
464.16708
464.43312
464.68861
464.93432
465.17091
465.399
465.61912
465.83178
466.03743
466.23648
466.42933
466.6163
466.79774
466.97392
467.14513
467.31161
467.47361
467.63134
467.78501
467.93479
468.08088
468.22342
468.36259
468.49852
468.63135
468.76121
468.88822
469.01248
469.13412
469.25322
469.36989
469.48421
469.59627
469.70616
469.81394
469.91969
470.02348
470.12538
470.22545
470.32374
470.42032
470.51524
470.60855
470.7003
470.79054
470.87932
470.96667
471.05264
471.13727
471.22059
471.30265
471.38348
471.46312
471.5416
471.61895
471.69523
471.77049
471.8448
471.91828
471.99113
472.06371
472.1367
472.21134
472.29004
472.37731
472.48212
472.62128
472.82485
)
;
        refGradient     nonuniform List<scalar> 
100
(
-14.753225
-41.02871
-63.738536
-81.350672
-94.341246
-103.79766
-110.72549
-115.89802
-119.85603
-122.96813
-125.48124
-127.56177
-129.3226
-130.8416
-132.1734
-133.35707
-134.42117
-135.38697
-136.27065
-137.08474
-137.83913
-138.54173
-139.199
-139.81623
-140.39785
-140.94758
-141.46861
-141.96364
-142.43504
-142.88485
-143.31487
-143.72668
-144.12168
-144.50112
-144.86611
-145.21765
-145.55665
-145.88392
-146.20019
-146.50614
-146.80239
-147.0895
-147.36797
-147.63828
-147.90088
-148.15616
-148.40449
-148.64622
-148.88167
-149.11114
-149.33491
-149.55323
-149.76635
-149.97449
-150.17788
-150.3767
-150.57114
-150.76139
-150.9476
-151.12994
-151.30855
-151.48357
-151.65513
-151.82337
-151.98839
-152.15032
-152.30925
-152.46529
-152.61854
-152.76909
-152.91702
-153.06242
-153.20537
-153.34595
-153.48422
-153.62026
-153.75413
-153.8859
-154.01563
-154.14337
-154.26919
-154.39313
-154.51525
-154.63561
-154.75424
-154.8712
-154.98655
-155.10035
-155.21268
-155.32366
-155.43346
-155.54241
-155.65107
-155.7605
-155.87269
-155.99144
-156.12394
-156.28381
-156.49297
-156.75755
)
;
        valueFraction   nonuniform List<scalar> 
100
(
0.041430262
0.045176269
0.047479083
0.04893163
0.049872628
0.050502213
0.050937959
0.051250616
0.051483051
0.051661881
0.051803868
0.051919828
0.052016876
0.052099807
0.052171927
0.052235572
0.052292426
0.052343736
0.052390443
0.05243327
0.052472786
0.052509443
0.052543607
0.05257558
0.05260561
0.052633908
0.05266065
0.05268599
0.052710057
0.052732966
0.052754816
0.052775694
0.052795677
0.052814833
0.052833224
0.052850904
0.052867922
0.052884323
0.052900146
0.052915428
0.052930202
0.052944498
0.052958344
0.052971765
0.052984785
0.052997425
0.053009705
0.053021644
0.053033258
0.053044564
0.053055576
0.053066308
0.053076772
0.053086981
0.053096946
0.053106677
0.053116185
0.053125478
0.053134566
0.053143456
0.053152156
0.053160674
0.053169017
0.05317719
0.0531852
0.053193054
0.053200756
0.053208312
0.053215727
0.053223006
0.053230153
0.053237172
0.053244068
0.053250844
0.053257505
0.053264054
0.053270494
0.053276829
0.053283061
0.053289195
0.053295231
0.053301174
0.053307027
0.05331279
0.053318469
0.053324064
0.053329578
0.053335015
0.053340379
0.053345676
0.053350913
0.053356107
0.053361285
0.053366496
0.053371836
0.053377485
0.053383785
0.053391381
0.053401311
0.053413857
)
;
        value           nonuniform List<scalar> 
100
(
327.54468
370.07771
397.71914
415.75805
427.69797
435.79922
441.45956
445.54799
448.60209
450.96038
452.83813
454.37515
455.66391
456.76696
457.72752
458.5762
459.33514
460.02072
460.64533
461.21852
461.74776
462.23904
462.6972
463.12622
463.52939
463.9095
464.26889
464.60958
464.93331
465.24158
465.53572
465.81687
466.08607
466.34423
466.59215
466.83056
467.06011
467.2814
467.49496
467.70127
467.90078
468.09388
468.28095
468.46232
468.63831
468.80921
468.97527
469.13675
469.29388
469.44686
469.59589
469.74116
469.88284
470.02108
470.15605
470.28787
470.41669
470.54262
470.66578
470.78628
470.90423
471.01973
471.13286
471.24371
471.35237
471.45892
471.56343
471.66597
471.76661
471.86541
471.96243
472.05774
472.15138
472.24341
472.33388
472.42283
472.51033
472.59639
472.68108
472.76443
472.84648
472.92726
473.00682
473.08518
473.16238
473.23846
473.31346
473.38741
473.46037
473.53242
473.60368
473.67434
473.74479
473.81571
473.88839
473.96528
474.05102
474.15444
474.28964
474.4605
)
;
        Tnbr            T;
        QrNbr           Qr;
        Qr              none;
        thicknessLayers 0();
        kappaLayers     0();
        kappa           solidThermo;
        kappaName       none;
    }
}


// ************************************************************************* //
