/*--------------------------------*- C++ -*----------------------------------*\
| =========                 |                                                 |
| \\      /  F ield         | OpenFOAM: The Open Source CFD Toolbox           |
|  \\    /   O peration     | Version:  3.0.1                                 |
|   \\  /    A nd           | Web:      www.OpenFOAM.org                      |
|    \\/     M anipulation  |                                                 |
\*---------------------------------------------------------------------------*/
FoamFile
{
    version     2.0;
    format      ascii;
    class       volScalarField;
    location    "3500/cilcen";
    object      T;
}
// * * * * * * * * * * * * * * * * * * * * * * * * * * * * * * * * * * * * * //

dimensions      [0 0 0 1 0 0 0];

internalField   nonuniform List<scalar> 
100
(
296.74684
300.97504
304.02584
306.25736
307.91122
309.15727
310.11161
310.85591
311.44663
311.92395
312.31623
312.64398
312.92202
313.16127
313.36983
313.55378
313.71773
313.86524
313.99906
314.12136
314.23387
314.33796
314.43477
314.52521
314.61003
314.68987
314.76527
314.83667
314.90447
314.96901
315.03056
315.08938
315.14571
315.19973
315.25161
315.30152
315.34959
315.39594
315.44069
315.48394
315.52579
315.56631
315.60558
315.64368
315.68068
315.71662
315.75157
315.78557
315.81868
315.85093
315.88238
315.91304
315.94298
315.9722
316.00075
316.02866
316.05594
316.08264
316.10876
316.13434
316.15939
316.18393
316.20799
316.23158
316.25472
316.27742
316.29971
316.32158
316.34306
316.36417
316.3849
316.40528
316.42532
316.44502
316.46441
316.48347
316.50224
316.52071
316.53889
316.5568
316.57443
316.59181
316.60893
316.62581
316.64245
316.65887
316.67507
316.69106
316.70688
316.72253
316.73806
316.75351
316.76896
316.78453
316.8004
316.81682
316.83419
316.85308
316.87391
316.89482
)
;

boundaryField
{
    cilcentop
    {
        type            zeroGradient;
    }
    cilcenbot
    {
        type            fixedValue;
        value           uniform 293.7;
    }
    symmetryleftcen
    {
        type            symmetry;
    }
    symmetryrigtcen
    {
        type            symmetry;
    }
    cilcen_to_fluid
    {
        type            compressible::turbulentTemperatureRadCoupledMixed;
        refValue        nonuniform List<scalar> 
100
(
296.65726
300.79563
303.81057
306.02069
307.66092
308.89923
309.84917
310.59147
311.18155
311.65914
312.0522
312.38105
312.66034
312.90092
313.11083
313.2961
313.46135
313.6101
313.74512
313.86857
313.98217
314.08731
314.1851
314.27648
314.36221
314.44291
314.51913
314.59133
314.65988
314.72514
314.78739
314.84688
314.90385
314.95849
315.01097
315.06146
315.11008
315.15698
315.20225
315.24601
315.28834
315.32934
315.36908
315.40763
315.44506
315.48142
315.51679
315.55119
315.5847
315.61733
315.64915
315.68019
315.71048
315.74005
315.76894
315.79718
315.82479
315.85181
315.87824
315.90413
315.92948
315.95432
315.97867
316.00255
316.02596
316.04894
316.07149
316.09363
316.11537
316.13673
316.15771
316.17834
316.19862
316.21856
316.23818
316.25748
316.27647
316.29516
316.31356
316.33169
316.34954
316.36713
316.38446
316.40154
316.41838
316.435
316.45139
316.46758
316.48358
316.49942
316.51513
316.53075
316.54637
316.5621
316.57811
316.59466
316.61214
316.63118
316.65261
316.6777
)
;
        refGradient     nonuniform List<scalar> 
100
(
-1.1342265
-2.7690671
-3.9926429
-4.9113231
-5.6053032
-6.1356475
-6.5462295
-6.8691181
-7.1270656
-7.3365907
-7.5095273
-7.6545318
-7.7779158
-7.8843636
-7.9773629
-8.0595504
-8.1329337
-8.1990617
-8.2591409
-8.3141222
-8.364762
-8.4116687
-8.4553363
-8.49617
-8.534505
-8.5706215
-8.6047554
-8.6371076
-8.66785
-8.6971311
-8.7250797
-8.7518086
-8.7774166
-8.801991
-8.8256091
-8.84834
-8.8702453
-8.8913807
-8.9117964
-8.9315378
-8.9506464
-8.9691599
-8.9871129
-9.0045369
-9.0214612
-9.0379124
-9.0539153
-9.0694926
-9.0846656
-9.0994538
-9.1138755
-9.1279476
-9.1416862
-9.1551059
-9.1682206
-9.1810434
-9.1935864
-9.205861
-9.217878
-9.2296475
-9.241179
-9.2524815
-9.2635635
-9.274433
-9.2850977
-9.2955647
-9.3058409
-9.3159328
-9.3258466
-9.3355881
-9.345163
-9.3545765
-9.3638339
-9.3729398
-9.3818991
-9.3907161
-9.3993951
-9.4079402
-9.4163553
-9.4246443
-9.4328109
-9.4408587
-9.4487914
-9.4566127
-9.4643265
-9.4719372
-9.4794497
-9.4868703
-9.4942069
-9.5014708
-9.5086777
-9.515851
-9.5230258
-9.5302553
-9.5376205
-9.5452441
-9.5533081
-9.56207
-9.57174
-9.5815122
)
;
        valueFraction   nonuniform List<scalar> 
100
(
0.038543257
0.038948527
0.039239117
0.039450674
0.039606927
0.039724354
0.03981412
0.039884029
0.03993945
0.039984192
0.040020937
0.040051619
0.040077635
0.040100012
0.040119511
0.040136704
0.040152024
0.040165803
0.040178301
0.040189722
0.040200225
0.040209942
0.040218976
0.040227415
0.040235328
0.040242776
0.040249809
0.040256468
0.04026279
0.040268807
0.040274546
0.040280029
0.040285279
0.040290314
0.040295149
0.0402998
0.040304278
0.040308597
0.040312766
0.040316795
0.040320693
0.040324467
0.040328125
0.040331673
0.040335118
0.040338465
0.040341719
0.040344885
0.040347967
0.04035097
0.040353897
0.040356752
0.040359537
0.040362258
0.040364915
0.040367512
0.040370051
0.040372535
0.040374966
0.040377346
0.040379676
0.04038196
0.040384199
0.040386393
0.040388546
0.040390658
0.04039273
0.040394765
0.040396763
0.040398726
0.040400655
0.04040255
0.040404413
0.040406246
0.040408048
0.040409821
0.040411566
0.040413283
0.040414974
0.040416639
0.040418279
0.040419894
0.040421486
0.040423055
0.040424602
0.040426128
0.040427634
0.040429121
0.040430591
0.040432046
0.040433489
0.040434925
0.040436361
0.040437808
0.040439283
0.040440808
0.040442423
0.040444177
0.040446115
0.040448072
)
;
        value           nonuniform List<scalar> 
100
(
296.74223
300.96525
304.01335
306.24305
307.89562
309.14079
310.09452
310.83838
311.4288
311.9059
312.29802
312.62566
312.90361
313.14281
313.35132
313.53523
313.69915
313.84663
313.98043
314.10272
314.21522
314.31931
314.41611
314.50654
314.59135
314.67119
314.74659
314.81799
314.88579
314.95031
315.01187
315.07069
315.12701
315.18103
315.23291
315.28282
315.33089
315.37724
315.42199
315.46524
315.50708
315.5476
315.58688
315.62498
315.66197
315.69791
315.73286
315.76686
315.79997
315.83222
315.86367
315.89434
315.92427
315.95349
315.98204
316.00995
316.03723
316.06392
316.09005
316.11562
316.14068
316.16522
316.18928
316.21287
316.23601
316.25871
316.28099
316.30287
316.32435
316.34545
316.36619
316.38657
316.40661
316.42631
316.44569
316.46476
316.48352
316.50199
316.52017
316.53808
316.55572
316.57309
316.59022
316.60709
316.62374
316.64015
316.65635
316.67235
316.68816
316.70381
316.71934
316.73479
316.75024
316.76581
316.78167
316.79809
316.81546
316.83434
316.85519
316.87626
)
;
        Tnbr            T;
        QrNbr           Qr;
        Qr              none;
        thicknessLayers 0();
        kappaLayers     0();
        kappa           solidThermo;
        kappaName       none;
    }
}


// ************************************************************************* //
