/*--------------------------------*- C++ -*----------------------------------*\
| =========                 |                                                 |
| \\      /  F ield         | OpenFOAM: The Open Source CFD Toolbox           |
|  \\    /   O peration     | Version:  3.0.1                                 |
|   \\  /    A nd           | Web:      www.OpenFOAM.org                      |
|    \\/     M anipulation  |                                                 |
\*---------------------------------------------------------------------------*/
FoamFile
{
    version     2.0;
    format      ascii;
    class       surfaceScalarField;
    location    "2620";
    object      phi;
}
// * * * * * * * * * * * * * * * * * * * * * * * * * * * * * * * * * * * * * //

dimensions      [1 0 -1 0 0 0 0];

internalField   nonuniform List<scalar> 
229200
(
3.4185821e-10
2.752916e-10
2.904659e-08
3.6321855e-10
4.9377205e-10
8.6140563e-08
-9.7730086e-10
7.5134151e-10
1.4970148e-07
-3.9131151e-09
1.0195501e-09
2.1837729e-07
-8.8434614e-09
1.9736845e-09
2.9189679e-07
-1.4512861e-08
2.171963e-09
3.7107605e-07
-2.1372527e-08
3.2266049e-09
4.5748611e-07
-2.8833188e-08
3.9075656e-09
5.5314087e-07
-3.6242438e-08
4.0482847e-09
6.6030026e-07
-4.5868967e-08
6.1990732e-09
7.8116643e-07
-5.5276215e-08
6.0572402e-09
9.1856495e-07
-6.3798418e-08
5.3666485e-09
1.0749605e-06
-7.4129777e-08
6.7648464e-09
1.2523088e-06
-8.2676422e-08
5.5112174e-09
1.4544882e-06
-9.1345466e-08
5.4616625e-09
1.6824429e-06
-9.914127e-08
5.2036765e-09
1.9395486e-06
-1.090713e-07
6.365045e-09
2.225811e-06
-1.1635806e-07
5.1135426e-09
2.5479119e-06
-1.2660408e-07
6.155179e-09
2.9014474e-06
-1.3779339e-07
7.0567654e-09
3.2974802e-06
-1.4590775e-07
5.787369e-09
3.7389586e-06
-1.5908158e-07
7.5641751e-09
4.2163404e-06
-1.7445089e-07
8.3554058e-09
4.7506431e-06
-1.8849076e-07
8.6528998e-09
5.3540225e-06
-2.0050969e-07
6.1615852e-09
6.0182696e-06
-2.1769798e-07
1.0154732e-08
6.749231e-06
-2.2818868e-07
6.962996e-09
7.561359e-06
-2.4381245e-07
1.0407169e-08
8.4216855e-06
-2.5573169e-07
8.7823391e-09
9.3458769e-06
-2.6606844e-07
8.4703469e-09
1.0305432e-05
-2.8317048e-07
1.1045563e-08
1.126853e-05
-2.8982653e-07
9.521587e-09
1.2276427e-05
-2.8790581e-07
7.8616414e-09
1.3174218e-05
-2.9946049e-07
1.1065987e-08
1.3787787e-05
-2.9398773e-07
8.6941903e-09
1.4207596e-05
-3.0152537e-07
8.0094879e-09
1.4060629e-05
-2.6631571e-07
8.2847007e-09
1.3423374e-05
-2.5905216e-07
1.3995514e-09
1.129299e-05
-4.0634728e-07
2.1667718e-08
7.7761487e-06
-1.6714322e-09
4.4349296e-06
6.9747889e-10
2.1701455e-10
2.9057108e-08
1.496488e-09
2.5412574e-10
8.6159614e-08
1.4031084e-09
3.1933668e-10
1.4971821e-07
-1.9612042e-10
7.9925206e-10
2.1840031e-07
-2.6583613e-09
1.6636253e-09
2.9195453e-07
-6.2534774e-09
2.543589e-09
3.7112345e-07
-9.8444066e-09
3.5735665e-09
4.5740544e-07
-1.3245035e-08
4.3084509e-09
5.5270664e-07
-1.6698907e-08
4.8376432e-09
6.5907959e-07
-1.8189779e-08
5.3412398e-09
7.7859677e-07
-1.9302709e-08
5.0897776e-09
9.1331654e-07
-2.0793213e-08
4.9342729e-09
1.065172e-06
-2.0851297e-08
4.9633819e-09
1.2360846e-06
-2.1567506e-08
4.3854902e-09
1.4279857e-06
-2.2422926e-08
4.3796276e-09
1.6426934e-06
-2.346109e-08
4.1560482e-09
1.8822347e-06
-2.3625178e-08
4.255824e-09
2.1487451e-06
-2.4757483e-08
3.7930553e-09
2.4445395e-06
-2.5464053e-08
4.1010949e-09
2.7721024e-06
-2.5281421e-08
3.9535437e-09
3.1347222e-06
-2.6253294e-08
3.6281645e-09
3.5351716e-06
-2.61958e-08
4.0844738e-09
3.976987e-06
-2.5005575e-08
3.7034568e-09
4.4646284e-06
-2.3408547e-08
3.7532351e-09
5.0010896e-06
-2.3793926e-08
3.024153e-09
5.587082e-06
-2.1724179e-08
4.4360963e-09
6.226264e-06
-2.0911204e-08
2.7532858e-09
6.9175011e-06
-1.893365e-08
4.612176e-09
7.6571699e-06
-1.6169195e-08
3.110918e-09
8.4395349e-06
-1.5285017e-08
3.965666e-09
9.2444158e-06
-1.1575455e-08
4.1614507e-09
1.0057497e-05
-7.7389915e-09
3.5763905e-09
1.0838474e-05
-6.622106e-09
3.6037169e-09
1.1519361e-05
-3.0476422e-09
4.600345e-09
1.2037719e-05
9.4699734e-10
3.0642006e-09
1.2282467e-05
1.7197976e-09
3.9540268e-09
1.2088676e-05
4.1193e-09
3.2846635e-09
1.1286998e-05
-7.5286976e-09
2.4966685e-09
9.6174095e-06
7.792188e-10
6.4374797e-09
6.9058975e-06
-4.0532055e-09
2.7435974e-06
7.8721665e-10
8.5176945e-11
2.9055573e-08
1.7144727e-09
-5.3516507e-11
8.612532e-08
1.5688267e-09
5.5606234e-11
1.4959784e-07
-6.4689562e-11
7.8528125e-10
2.1809618e-07
-2.8795594e-09
1.9234467e-09
2.9127795e-07
-6.4196655e-09
3.106106e-09
3.6971905e-07
-9.9147609e-09
4.0956073e-09
4.5470795e-07
-1.2982795e-08
4.675403e-09
5.4788021e-07
-1.5350127e-08
4.8805534e-09
6.5096709e-07
-1.6695231e-08
4.7275619e-09
7.6566027e-07
-1.756062e-08
4.2890855e-09
8.9355769e-07
-1.7956218e-08
3.8576947e-09
1.0361751e-06
-1.7734394e-08
3.3719263e-09
1.1949856e-06
-1.7586435e-08
2.8990752e-09
1.3714456e-06
-1.7180757e-08
2.6084842e-09
1.5670753e-06
-1.6787519e-08
2.3431476e-09
1.7834684e-06
-1.619067e-08
2.1662885e-09
2.0223347e-06
-1.6010798e-08
2.0452703e-09
2.285476e-06
-1.5652055e-08
2.0953177e-09
2.574905e-06
-1.5452079e-08
2.0422307e-09
2.8926569e-06
-1.5784745e-08
2.187494e-09
3.2408441e-06
-1.5889566e-08
2.3596776e-09
3.6216782e-06
-1.6527691e-08
2.4891241e-09
4.0369629e-06
-1.7413621e-08
2.7190319e-09
4.4881813e-06
-1.9488823e-08
3.1426209e-09
4.9761758e-06
-2.0573799e-08
3.5002179e-09
5.5012003e-06
-2.3537837e-08
3.7270768e-09
6.0605479e-06
-2.5310828e-08
4.3489088e-09
6.6505679e-06
-2.8422841e-08
4.300256e-09
7.2617179e-06
-3.1431335e-08
5.0365996e-09
7.8810662e-06
-3.3909551e-08
4.981025e-09
8.4878297e-06
-3.7012741e-08
5.1555535e-09
9.0496566e-06
-4.0012493e-08
5.4096884e-09
9.5244886e-06
-4.1199864e-08
5.1782115e-09
9.8540165e-06
-4.2809126e-08
4.7556267e-09
9.9558023e-06
-4.2393788e-08
4.6423816e-09
9.7289356e-06
-3.9954798e-08
3.4678598e-09
9.0393631e-06
-3.4654515e-08
3.0384775e-09
7.7179149e-06
-1.7472579e-08
6.8978496e-10
5.5420251e-06
-2.0808243e-09
2.1884671e-06
8.1123956e-10
-2.2526069e-11
2.8994991e-08
1.6709612e-09
-1.4138911e-10
8.5902753e-08
1.5304362e-09
3.0195526e-11
1.4912978e-07
2.9016288e-10
6.6189592e-10
2.1723314e-07
-1.5760289e-09
1.4954632e-09
2.8974556e-07
-3.4478159e-09
2.2035478e-09
3.6708528e-07
-4.7877335e-09
2.6000498e-09
4.503399e-07
-5.3632177e-09
2.6363546e-09
5.4093809e-07
-5.1414965e-09
2.3958095e-09
6.4040791e-07
-4.3054035e-09
1.994405e-09
7.5024411e-07
-3.1622994e-09
1.5601776e-09
8.7186002e-07
-1.8647308e-09
1.2013013e-09
1.0065947e-06
-6.4147301e-10
9.3117741e-10
1.1557412e-06
3.3479544e-10
7.7194871e-10
1.3205847e-06
1.0725139e-09
7.2860444e-10
1.502448e-06
1.5060795e-09
7.3922972e-10
1.7027102e-06
1.6342663e-09
8.1261232e-10
1.9228059e-06
1.4600572e-09
9.2003742e-10
2.1642332e-06
1.1120638e-09
1.0536299e-09
2.4285485e-06
4.843543e-10
1.1815013e-09
2.7173218e-06
-2.7040339e-10
1.3390189e-09
3.0321076e-06
-1.1257154e-09
1.4864849e-09
3.3743668e-06
-2.1155702e-09
1.6206101e-09
3.745357e-06
-3.1963605e-09
1.8083471e-09
4.1459407e-06
-4.1221277e-09
1.9434408e-09
4.5763408e-06
-4.9217143e-09
2.0545123e-09
5.0357128e-06
-5.6547582e-09
2.1129443e-09
5.5216269e-06
-5.9418849e-09
2.1924319e-09
6.0294757e-06
-6.2658263e-09
2.1467567e-09
6.5512956e-06
-5.9243321e-09
2.1866803e-09
7.0749578e-06
-5.3762024e-09
1.9879355e-09
7.5820265e-06
-4.4910125e-09
1.9170393e-09
8.0462266e-06
-2.9307906e-09
1.67942e-09
8.4309035e-06
-1.027403e-09
1.3505662e-09
8.6853256e-06
9.8842174e-10
1.0718699e-09
8.7414013e-06
3.4456391e-09
7.5552337e-10
8.5101413e-06
5.5065882e-09
4.4436216e-10
7.8762658e-06
7.3287977e-09
1.6965915e-10
6.6906279e-06
6.1618775e-09
-6.3603101e-11
4.7645132e-06
-4.6080459e-11
1.8610489e-06
7.3701972e-10
7.2324513e-16
2.8919236e-08
1.5264168e-09
1.3967213e-15
8.5658568e-08
1.6164386e-09
2.0577573e-17
1.4867168e-07
1.1446986e-09
-1.3207983e-15
2.1646933e-07
5.2106404e-10
-7.9311929e-16
2.8850271e-07
5.4245892e-11
-4.1859258e-17
3.6511457e-07
-1.3901172e-10
-1.1935557e-15
4.472889e-07
-1.1396854e-10
-3.0308456e-16
5.3635542e-07
1.0565998e-11
2.0453465e-15
6.3376e-07
1.1050946e-10
7.614825e-16
7.4092507e-07
1.1217741e-10
9.941403e-16
8.5919556e-07
1.2394552e-11
1.2883753e-15
9.8983526e-07
-1.8731855e-10
2.9248439e-16
1.1340508e-06
-4.5397111e-10
2.4099831e-15
1.2930277e-06
-7.344467e-10
-4.0923883e-15
1.4679588e-06
-1.0201942e-09
-8.8156696e-16
1.6600653e-06
-1.2807362e-09
4.0715606e-15
1.8706077e-06
-1.5041929e-09
4.6750321e-15
2.1008848e-06
-1.6796698e-09
8.2402916e-15
2.3522199e-06
-1.823402e-09
4.3937481e-15
2.6259306e-06
-1.9150808e-09
3.0303157e-15
2.923281e-06
-1.9710558e-09
-1.0403662e-15
3.2454042e-06
-2.0088959e-09
-2.0787374e-15
3.5931893e-06
-1.9788691e-09
7.4807185e-16
3.9671184e-06
-1.9284538e-09
5.5748706e-15
4.3670234e-06
-1.8702849e-09
1.294248e-14
4.7917476e-06
-1.840823e-09
1.2974251e-15
5.2386751e-06
-1.7977942e-09
1.5451235e-15
5.7031208e-06
-1.8309914e-09
-4.1282168e-15
6.1774925e-06
-1.8255819e-09
3.3652427e-15
6.6502362e-06
-1.9576025e-09
-1.0189256e-14
7.10443e-06
-2.0673304e-09
-2.2893436e-15
7.5160369e-06
-2.2568698e-09
-8.1521583e-15
7.8517548e-06
-2.5611011e-09
-2.1008737e-15
8.0662766e-06
-2.9027417e-09
1.4714722e-14
8.0990557e-06
-3.2719314e-09
1.4546341e-14
7.8704066e-06
-3.5827947e-09
3.5246317e-14
7.2763793e-06
-3.5889701e-09
3.2699199e-14
6.1819083e-06
-2.6839977e-09
1.4114763e-14
4.4110179e-06
6.5827462e-14
1.7326919e-06
7.3701765e-10
2.2524912e-11
2.8919235e-08
1.5264156e-09
1.4138895e-10
8.5658565e-08
1.6164377e-09
-3.0198256e-11
1.4867168e-07
1.1447021e-09
-6.6189656e-10
2.1646933e-07
5.2106612e-10
-1.4954645e-09
2.885027e-07
5.4248468e-11
-2.2035507e-09
3.6511456e-07
-1.3901712e-10
-2.6000544e-09
4.4728889e-07
-1.1395279e-10
-2.636356e-09
5.3635541e-07
1.0556538e-11
-2.3958096e-09
6.3375998e-07
1.1051569e-10
-1.9944045e-09
7.4092506e-07
1.1218987e-10
-1.5601799e-09
8.5919555e-07
1.2379974e-11
-1.2013028e-09
9.8983525e-07
-1.8728541e-10
-9.3117389e-10
1.1340508e-06
-4.5403566e-10
-7.7194797e-10
1.2930277e-06
-7.3443348e-10
-7.285988e-10
1.4679588e-06
-1.0201505e-09
-7.3922341e-10
1.6600653e-06
-1.2807472e-09
-8.1260646e-10
1.8706077e-06
-1.5041657e-09
-9.2002635e-10
2.1008848e-06
-1.6796369e-09
-1.053629e-09
2.3522199e-06
-1.8234297e-09
-1.1815049e-09
2.6259306e-06
-1.9150962e-09
-1.3390157e-09
2.923281e-06
-1.9710461e-09
-1.4864886e-09
3.2454042e-06
-2.0088796e-09
-1.6206238e-09
3.5931893e-06
-1.978898e-09
-1.8083475e-09
3.9671184e-06
-1.9283637e-09
-1.9434339e-09
4.3670233e-06
-1.8703947e-09
-2.0545201e-09
4.7917475e-06
-1.8408223e-09
-2.1129484e-09
5.2386751e-06
-1.7978652e-09
-2.1924263e-09
5.7031207e-06
-1.8308629e-09
-2.1467548e-09
6.1774924e-06
-1.8256702e-09
-2.1867005e-09
6.6502361e-06
-1.9574283e-09
-1.987947e-09
7.1044299e-06
-2.0674286e-09
-1.9170628e-09
7.5160368e-06
-2.2568521e-09
-1.6794589e-09
7.8517548e-06
-2.5610417e-09
-1.3505943e-09
8.0662766e-06
-2.9029748e-09
-1.0718524e-09
8.0990557e-06
-3.2715808e-09
-7.5547702e-10
7.8704066e-06
-3.5826454e-09
-4.4436597e-10
7.2763792e-06
-3.5891261e-09
-1.6965693e-10
6.1819082e-06
-2.6837507e-09
6.3645009e-11
4.4110178e-06
4.6098994e-11
1.7326917e-06
8.1124089e-10
-8.5171982e-11
2.8994988e-08
1.6709633e-09
5.3520949e-11
8.5902744e-08
1.5304491e-09
-5.5602423e-11
1.4912976e-07
2.9015923e-10
-7.8528158e-10
2.1723312e-07
-1.5760277e-09
-1.9234472e-09
2.8974553e-07
-3.4478259e-09
-3.1061042e-09
3.6708525e-07
-4.7877219e-09
-4.0956032e-09
4.5033987e-07
-5.3632043e-09
-4.6753971e-09
5.4093806e-07
-5.1415e-09
-4.8805515e-09
6.4040787e-07
-4.3054242e-09
-4.7275592e-09
7.5024407e-07
-3.1622773e-09
-4.2890793e-09
8.7185998e-07
-1.864698e-09
-3.8576897e-09
1.0065947e-06
-6.4146259e-10
-3.3719232e-09
1.1557412e-06
3.3482432e-10
-2.8990699e-09
1.3205847e-06
1.0724885e-09
-2.6084807e-09
1.5024479e-06
1.5060887e-09
-2.3431379e-09
1.7027102e-06
1.6343007e-09
-2.1662813e-09
1.9228059e-06
1.460031e-09
-2.0452682e-09
2.1642332e-06
1.1120534e-09
-2.0953149e-09
2.4285485e-06
4.8442823e-10
-2.0422234e-09
2.7173218e-06
-2.7042497e-10
-2.187491e-09
3.0321075e-06
-1.1257857e-09
-2.3596762e-09
3.3743668e-06
-2.115499e-09
-2.4891352e-09
3.7453569e-06
-3.1963882e-09
-2.7190397e-09
4.1459406e-06
-4.1221059e-09
-3.1426177e-09
4.5763407e-06
-4.921748e-09
-3.5002363e-09
5.0357127e-06
-5.6548462e-09
-3.7270911e-09
5.5216267e-06
-5.9418739e-09
-4.3489061e-09
6.0294756e-06
-6.2659567e-09
-4.3002701e-09
6.5512955e-06
-5.9243437e-09
-5.036612e-09
7.0749577e-06
-5.3762429e-09
-4.9810319e-09
7.5820263e-06
-4.4910709e-09
-5.1555589e-09
8.0462263e-06
-2.9307574e-09
-5.4097042e-09
8.4309032e-06
-1.0273641e-09
-5.1782312e-09
8.6853253e-06
9.8854972e-10
-4.7556364e-09
8.741401e-06
3.4452344e-09
-4.6423798e-09
8.5101412e-06
5.5070457e-09
-3.4678435e-09
7.8762659e-06
7.3286572e-09
-3.0385229e-09
6.6906278e-06
6.1620641e-09
-6.8972668e-10
4.7645136e-06
2.0808836e-09
1.8610487e-06
7.8721019e-10
-2.1701844e-10
2.9055569e-08
1.7144743e-09
-2.5412989e-10
8.6125307e-08
1.5688052e-09
-3.1934163e-10
1.4959782e-07
-6.4708801e-11
-7.9925581e-10
2.1809616e-07
-2.8795557e-09
-1.6636279e-09
2.9127791e-07
-6.4196848e-09
-2.5435932e-09
3.6971901e-07
-9.9147461e-09
-3.5735652e-09
4.5470791e-07
-1.2982814e-08
-4.3084515e-09
5.4788016e-07
-1.5350111e-08
-4.8376412e-09
6.5096704e-07
-1.6695239e-08
-5.3412431e-09
7.6566022e-07
-1.7560637e-08
-5.0897813e-09
8.9355764e-07
-1.7956227e-08
-4.9342754e-09
1.0361751e-06
-1.7734358e-08
-4.9633826e-09
1.1949855e-06
-1.7586447e-08
-4.3854914e-09
1.3714455e-06
-1.7180747e-08
-4.3796266e-09
1.5670753e-06
-1.6787533e-08
-4.1560484e-09
1.7834683e-06
-1.6190684e-08
-4.2558225e-09
2.0223346e-06
-1.6010775e-08
-3.793053e-09
2.2854759e-06
-1.5651985e-08
-4.101093e-09
2.5749049e-06
-1.5452086e-08
-3.9535496e-09
2.8926568e-06
-1.5784784e-08
-3.6281653e-09
3.240844e-06
-1.5889649e-08
-4.0844677e-09
3.6216781e-06
-1.6527692e-08
-3.7034492e-09
4.0369627e-06
-1.7413563e-08
-3.7532308e-09
4.4881811e-06
-1.9488784e-08
-3.0241469e-09
4.9761756e-06
-2.057384e-08
-4.4360955e-09
5.5012e-06
-2.3537867e-08
-2.7532788e-09
6.0605476e-06
-2.5310869e-08
-4.612167e-09
6.6505676e-06
-2.8422754e-08
-3.110923e-09
7.2617176e-06
-3.1431457e-08
-3.9656694e-09
7.8810658e-06
-3.3909537e-08
-4.1614388e-09
8.4878292e-06
-3.7012668e-08
-3.5763914e-09
9.049656e-06
-4.0012566e-08
-3.603717e-09
9.5244879e-06
-4.1199882e-08
-4.6003444e-09
9.8540158e-06
-4.2809189e-08
-3.0642109e-09
9.9558017e-06
-4.2393624e-08
-3.954016e-09
9.728935e-06
-3.9955064e-08
-3.2846653e-09
9.0393626e-06
-3.4654204e-08
-2.4966767e-09
7.7179146e-06
-1.7472651e-08
-6.437498e-09
5.542025e-06
4.053202e-09
2.1884672e-06
6.9747926e-10
-2.7528923e-10
2.9057103e-08
1.4964928e-09
-4.9376912e-10
8.6159601e-08
1.4031023e-09
-7.5134263e-10
1.4971819e-07
-1.9611038e-10
-1.0195483e-09
2.1840029e-07
-2.6583581e-09
-1.9736835e-09
2.919545e-07
-6.2534595e-09
-2.1719624e-09
3.7112341e-07
-9.8444149e-09
-3.2266058e-09
4.574054e-07
-1.3245042e-08
-3.9075667e-09
5.5270659e-07
-1.6698925e-08
-4.0482843e-09
6.5907954e-07
-1.818978e-08
-6.1990737e-09
7.7859672e-07
-1.9302717e-08
-6.0572431e-09
9.1331647e-07
-2.0793212e-08
-5.3666506e-09
1.0651719e-06
-2.0851285e-08
-6.7648498e-09
1.2360845e-06
-2.1567522e-08
-5.5112231e-09
1.4279857e-06
-2.2422959e-08
-5.4616669e-09
1.6426933e-06
-2.3461112e-08
-5.2036804e-09
1.8822346e-06
-2.3625134e-08
-6.3650459e-09
2.148745e-06
-2.475748e-08
-5.1135441e-09
2.4445394e-06
-2.5464122e-08
-6.1551888e-09
2.7721022e-06
-2.5281369e-08
-7.0567675e-09
3.1347221e-06
-2.6253317e-08
-5.7873703e-09
3.5351714e-06
-2.6195754e-08
-7.5641738e-09
3.9769868e-06
-2.5005524e-08
-8.3554071e-09
4.4646281e-06
-2.3408504e-08
-8.6529049e-09
5.0010894e-06
-2.3793915e-08
-6.1615914e-09
5.5870817e-06
-2.1724141e-08
-1.015474e-08
6.2262636e-06
-2.0911193e-08
-6.9629951e-09
6.9175006e-06
-1.8933644e-08
-1.0407167e-08
7.6571694e-06
-1.616916e-08
-8.7823425e-09
8.4395343e-06
-1.5285086e-08
-8.4703563e-09
9.2444151e-06
-1.1575454e-08
-1.1045567e-08
1.0057496e-05
-7.7390234e-09
-9.5215929e-09
1.0838473e-05
-6.6220429e-09
-7.8616401e-09
1.151936e-05
-3.0477301e-09
-1.1065993e-08
1.2037718e-05
9.470065e-10
-8.6941997e-09
1.2282465e-05
1.719609e-09
-8.0094933e-09
1.2088675e-05
4.1192064e-09
-8.2846977e-09
1.1286997e-05
-7.5287756e-09
-1.3995371e-09
9.6174085e-06
7.7891903e-10
-2.1667709e-08
6.905897e-06
1.6714486e-09
2.7435972e-06
3.4186376e-10
2.9046586e-08
3.6320771e-10
8.6140551e-08
-9.7730244e-10
1.4970146e-07
-3.9131257e-09
2.1837726e-07
-8.8434795e-09
2.9189675e-07
-1.4512872e-08
3.7107601e-07
-2.1372547e-08
4.5748606e-07
-2.8833188e-08
5.5314082e-07
-3.6242464e-08
6.603002e-07
-4.5868986e-08
7.8116637e-07
-5.5276217e-08
9.1856488e-07
-6.3798452e-08
1.0749605e-06
-7.4129811e-08
1.2523088e-06
-8.2676419e-08
1.4544881e-06
-9.1345515e-08
1.6824428e-06
-9.9141286e-08
1.9395484e-06
-1.0907132e-07
2.2258109e-06
-1.1635817e-07
2.5479118e-06
-1.2660406e-07
2.9014473e-06
-1.3779343e-07
3.2974801e-06
-1.4590776e-07
3.7389584e-06
-1.5908163e-07
4.2163401e-06
-1.7445096e-07
4.7506428e-06
-1.884907e-07
5.3540221e-06
-2.0050976e-07
6.0182691e-06
-2.1769795e-07
6.7492305e-06
-2.2818873e-07
7.5613583e-06
-2.4381243e-07
8.4216847e-06
-2.5573173e-07
9.3458759e-06
-2.6606848e-07
1.0305431e-05
-2.8317041e-07
1.1268529e-05
-2.8982655e-07
1.2276426e-05
-2.8790578e-07
1.3174217e-05
-2.9946048e-07
1.3787785e-05
-2.9398778e-07
1.4207595e-05
-3.015254e-07
1.4060628e-05
-2.6631587e-07
1.3423374e-05
-2.5905244e-07
1.1292989e-05
-4.0634703e-07
7.7761482e-06
4.4349291e-06
-3.0071622e-09
6.2916382e-10
3.1424587e-08
-1.1427681e-08
1.9781781e-09
9.2582904e-08
-2.5088558e-08
3.8786717e-09
1.5948367e-07
-4.2777484e-08
5.8793336e-09
2.301869e-07
-6.3562084e-08
8.4733986e-09
3.0420796e-07
-8.4949861e-08
9.9610383e-09
3.8250281e-07
-1.0657609e-07
1.2031183e-08
4.6708116e-07
-1.272247e-07
1.3306325e-08
5.6048314e-07
-1.4593967e-07
1.3623243e-08
6.65392e-07
-1.6521108e-07
1.6022641e-08
7.8441522e-07
-1.8229253e-07
1.5452551e-08
9.2019384e-07
-1.9654533e-07
1.4016166e-08
1.0751972e-06
-2.1102002e-07
1.5043633e-08
1.2517399e-06
-2.218113e-07
1.2645513e-08
1.452634e-06
-2.3084009e-07
1.1669877e-08
1.6798019e-06
-2.3756798e-07
1.050612e-08
1.9357703e-06
-2.4507976e-07
1.1209907e-08
2.222113e-06
-2.485583e-07
8.6567395e-09
2.5427337e-06
-2.5410668e-07
9.3851358e-09
2.8976107e-06
-2.5999368e-07
9.9053903e-09
3.2934618e-06
-2.6170285e-07
7.4269581e-09
3.7332409e-06
-2.6884667e-07
9.407219e-09
4.2140769e-06
-2.7869125e-07
1.0213723e-08
4.750274e-06
-2.8676013e-07
9.8527539e-09
5.3522387e-06
-2.9140418e-07
5.8498601e-09
6.0170635e-06
-3.0272906e-07
1.1224547e-08
6.7493317e-06
-3.0549766e-07
6.3017161e-09
7.5578258e-06
-3.1473645e-07
1.104361e-08
8.4198807e-06
-3.1936682e-07
8.3775841e-09
9.3421297e-06
-3.219549e-07
7.3803186e-09
1.030064e-05
-3.3363787e-07
1.147539e-08
1.1268738e-05
-3.3162478e-07
8.3686873e-09
1.2266045e-05
-3.1868545e-07
5.6969234e-09
1.3155582e-05
-3.2312062e-07
1.0487471e-08
1.3781734e-05
-3.0777263e-07
6.2206923e-09
1.4186027e-05
-3.0606594e-07
4.9679711e-09
1.4053955e-05
-2.5643632e-07
3.2814714e-09
1.3370463e-05
-2.4876057e-07
-5.0694223e-09
1.1290384e-05
-3.9945166e-07
2.0431569e-08
7.9064087e-06
-1.5872554e-08
4.0513499e-06
-3.1086909e-09
1.3597473e-09
3.1435223e-08
-1.1490811e-08
3.9159727e-09
9.2603929e-08
-2.4677145e-08
7.2806377e-09
1.5950261e-07
-4.1488739e-08
1.089788e-08
2.3019334e-07
-5.9533012e-08
1.4292628e-08
3.0417961e-07
-7.7701894e-08
1.6865043e-08
3.8238833e-07
-9.370042e-08
1.8686445e-08
4.6674872e-07
-1.0675813e-07
1.9392516e-08
5.5967814e-07
-1.1694331e-07
1.9217715e-08
6.636703e-07
-1.2191587e-07
1.8506507e-08
7.8108547e-07
-1.2393531e-07
1.6699728e-08
9.1408878e-07
-1.2423395e-07
1.4825e-08
1.0646618e-06
-1.2093495e-07
1.3135941e-08
1.2346932e-06
-1.1722039e-07
1.0909315e-08
1.4260074e-06
-1.1268222e-07
9.3953167e-09
1.6404298e-06
-1.0776711e-07
7.9263994e-09
1.8798992e-06
-1.0125701e-07
6.9318965e-09
2.1465131e-06
-9.6120845e-08
5.5690656e-09
2.442491e-06
-9.0261614e-08
5.1921326e-09
2.7704361e-06
-8.3520699e-08
4.5080227e-09
3.1333787e-06
-7.8832319e-08
3.7246187e-09
3.5341855e-06
-7.2889866e-08
3.9348898e-09
3.9765168e-06
-6.5846193e-08
3.3696848e-09
4.4644288e-06
-5.8954423e-08
3.1213357e-09
5.0009293e-06
-5.558764e-08
2.3120555e-09
5.5872531e-06
-4.8679236e-08
3.7534622e-09
6.2268267e-06
-4.4870023e-08
2.0176445e-09
6.9179759e-06
-3.8714719e-08
3.9022841e-09
7.6581558e-06
-3.3041327e-08
2.3859615e-09
8.4398534e-06
-2.970539e-08
3.1349623e-09
9.2453251e-06
-2.2464417e-08
3.5331031e-09
1.0058199e-05
-1.6246592e-08
2.6310481e-09
1.0837994e-05
-1.3433974e-08
2.6238922e-09
1.1519622e-05
-6.8733486e-09
3.6823446e-09
1.2037963e-05
-9.8731725e-10
1.7997435e-09
1.2281002e-05
1.6246512e-09
2.4772487e-09
1.2088554e-05
3.4131045e-09
1.57499e-09
1.1286917e-05
-1.0424532e-08
6.5382804e-10
9.6255235e-06
1.6831716e-09
4.5008782e-09
6.9097209e-06
-7.8168996e-09
2.7372244e-06
-3.396895e-09
2.3868188e-09
3.1425402e-08
-1.1368186e-08
5.4845382e-09
9.2528042e-08
-2.2955594e-08
9.163032e-09
1.5930284e-07
-3.6462073e-08
1.2704762e-08
2.2979581e-07
-4.9859332e-08
1.5520447e-08
3.034474e-07
-6.151459e-08
1.7207511e-08
3.810318e-07
-7.0059749e-08
1.7690901e-08
4.6424868e-07
-7.5017731e-08
1.7011074e-08
5.5521963e-07
-7.6401971e-08
1.5472312e-08
6.5609675e-07
-7.4449917e-08
1.3359309e-08
7.6885535e-07
-7.0380958e-08
1.0955264e-08
8.9523325e-07
-6.48634e-08
8.7046763e-09
1.0367779e-06
-5.8327353e-08
6.6683243e-09
1.1949172e-06
-5.193027e-08
4.9316864e-09
1.3710261e-06
-4.5674399e-08
3.6728869e-09
1.5665419e-06
-3.997074e-08
2.7182045e-09
1.782973e-06
-3.4739194e-08
2.0683835e-09
2.0219666e-06
-3.0627218e-08
1.6560482e-09
2.2852771e-06
-2.6969281e-08
1.5429339e-09
2.5748962e-06
-2.4074291e-08
1.4410326e-09
2.8928289e-06
-2.2269223e-08
1.5756748e-09
3.2411881e-06
-2.0648656e-08
1.8047462e-09
3.6221877e-06
-1.9913374e-08
1.9923408e-09
4.037605e-06
-1.9873921e-08
2.2952621e-09
4.4889677e-06
-2.128012e-08
2.794711e-09
4.9770993e-06
-2.1846792e-08
3.2443112e-09
5.5022762e-06
-2.4494707e-08
3.532989e-09
6.0616804e-06
-2.6000893e-08
4.1736355e-09
6.6518026e-06
-2.8983374e-08
4.1872038e-09
7.2628994e-06
-3.19073e-08
4.8761052e-09
7.8822491e-06
-3.4180871e-08
4.8472777e-09
8.488789e-06
-3.7204692e-08
4.9368561e-09
9.0503746e-06
-4.0040117e-08
5.1340605e-09
9.524814e-06
-4.0856196e-08
4.8207938e-09
9.8536942e-06
-4.2101469e-08
4.2652913e-09
9.9545818e-06
-4.1164721e-08
3.9790256e-09
9.726497e-06
-3.8014668e-08
2.6848972e-09
9.0351033e-06
-3.1535994e-08
1.9134573e-09
7.7101764e-06
-1.2700466e-08
-7.3550143e-10
5.5284264e-06
-3.774881e-09
2.1717247e-06
-2.144681e-09
2.227796e-09
3.1298693e-08
-7.0863635e-09
4.2192502e-09
9.210973e-08
-1.3669951e-08
6.3140429e-09
1.5856234e-07
-2.0602426e-08
8.1595145e-09
2.2871087e-07
-2.6622437e-08
9.3902341e-09
3.0189578e-07
-3.0821164e-08
9.8131497e-09
3.7867839e-07
-3.2720975e-08
9.4479097e-09
4.6048269e-07
-3.236888e-08
8.4451922e-09
5.4915187e-07
-3.0138896e-08
7.0568354e-09
6.465934e-07
-2.6645252e-08
5.532345e-09
7.5457741e-07
-2.2592131e-08
4.090665e-09
8.7467153e-07
-1.8452177e-08
2.8936762e-09
1.0082658e-06
-1.4650531e-08
1.9759701e-09
1.1566319e-06
-1.1476575e-08
1.3455044e-09
1.3209969e-06
-8.9497241e-09
9.8226357e-10
1.5026116e-06
-7.101765e-09
7.9715415e-10
1.7027834e-06
-5.8819352e-09
7.5743932e-10
1.922897e-06
-5.2199902e-09
8.1121257e-10
2.1644161e-06
-4.9322858e-09
9.2801013e-10
2.4288757e-06
-5.0593546e-09
1.0611901e-09
2.7178287e-06
-5.4336901e-09
1.2293974e-09
3.0328283e-06
-5.9837917e-09
1.3950225e-09
3.3753266e-06
-6.7442321e-09
1.5479468e-09
3.7465618e-06
-7.6452162e-09
1.7438657e-09
4.147393e-06
-8.4398823e-09
1.8960694e-09
4.5780341e-06
-9.1235818e-09
2.0165202e-09
5.0376243e-06
-9.7622018e-09
2.0790216e-09
5.5237193e-06
-9.9797132e-09
2.1532091e-09
6.0317136e-06
-1.0207474e-08
2.1094396e-09
6.5536012e-06
-9.7795922e-09
2.1256405e-09
7.0772806e-06
-9.0919376e-09
1.9296002e-09
7.5842566e-06
-8.0363526e-09
1.8215741e-09
8.048286e-06
-6.2449607e-09
1.5661562e-09
8.4326804e-06
-4.040817e-09
1.2094185e-09
8.6867324e-06
-1.7025075e-09
8.8377488e-10
8.7424447e-06
1.0224075e-09
5.3648585e-10
8.5108591e-06
3.5052043e-09
1.8888513e-10
7.8762792e-06
5.6983699e-09
-1.3408206e-10
6.6904817e-06
4.794977e-09
-3.8201305e-10
4.7650644e-06
-3.1338885e-10
1.8623814e-06
6.8530748e-12
-5.8563039e-16
3.1140179e-08
-1.7418496e-09
-3.9817087e-16
9.1626528e-08
-4.5678225e-09
-1.7669308e-15
1.5781171e-07
-7.6681831e-09
-3.8313899e-15
2.2772921e-07
-1.0404952e-08
-2.2223665e-15
3.0062972e-07
-1.2394761e-08
-9.141633e-16
3.7691754e-07
-1.3500782e-08
-2.5701053e-15
4.5784282e-07
-1.3804664e-08
-1.3272343e-15
5.4510451e-07
-1.3501892e-08
-9.5394832e-16
6.4051402e-07
-1.282914e-08
-5.116918e-17
7.4578469e-07
-1.1988366e-08
-9.711588e-16
8.6244544e-07
-1.1101027e-08
-2.6822332e-15
9.9184158e-07
-1.0256978e-08
-1.6923326e-15
1.1351827e-06
-9.4912988e-09
-1.7718654e-15
1.2936076e-06
-8.7919907e-09
-6.8827482e-15
1.4682418e-06
-8.1672952e-09
-3.7516051e-15
1.6602378e-06
-7.5998247e-09
-1.8036546e-15
1.8707977e-06
-7.0795673e-09
-5.1882362e-15
2.1011757e-06
-6.5953591e-09
-2.8814603e-15
2.3526636e-06
-6.1612109e-09
-4.5185338e-15
2.6265577e-06
-5.7597526e-09
-7.7258205e-15
2.9241089e-06
-5.4010946e-09
-4.1924075e-15
3.2464405e-06
-5.0983915e-09
6.9487421e-15
3.5944345e-06
-4.8033852e-09
1.3042476e-14
3.9685674e-06
-4.5448409e-09
1.7174456e-15
4.3686609e-06
-4.3301144e-09
1.5694755e-14
4.7935492e-06
-4.1845885e-09
1.2208838e-14
5.2406086e-06
-4.0576118e-09
1.1888364e-14
5.7051473e-06
-4.0161208e-09
2.6082888e-16
6.1795602e-06
-3.9476041e-09
2.3959426e-15
6.6522936e-06
-3.9905367e-09
7.1615498e-15
7.1064021e-06
-3.9995372e-09
7.6476157e-15
7.5178679e-06
-4.0474403e-09
2.2218099e-15
7.8533684e-06
-4.1646278e-09
2.0763023e-14
8.0676043e-06
-4.2788717e-09
1.8013313e-14
8.1000534e-06
-4.3488629e-09
2.6511312e-14
7.871013e-06
-4.2667008e-09
2.8389226e-14
7.2764857e-06
-3.7511815e-09
3.3287042e-14
6.1812598e-06
-2.2757679e-09
1.7147209e-14
4.4091595e-06
3.1289544e-15
1.730103e-06
6.8516389e-12
-2.2277998e-09
3.1140177e-08
-1.7418529e-09
-4.2192548e-09
9.1626525e-08
-4.5678331e-09
-6.3140505e-09
1.578117e-07
-7.6681834e-09
-8.1595173e-09
2.277292e-07
-1.0404951e-08
-9.390236e-09
3.0062971e-07
-1.2394773e-08
-9.813152e-09
3.7691753e-07
-1.350078e-08
-9.4479109e-09
4.578428e-07
-1.3804661e-08
-8.4451929e-09
5.451045e-07
-1.3501885e-08
-7.0568344e-09
6.40514e-07
-1.2829142e-08
-5.5323441e-09
7.4578468e-07
-1.1988392e-08
-4.0906621e-09
8.6244542e-07
-1.1101018e-08
-2.8936672e-09
9.9184157e-07
-1.0256957e-08
-1.9759631e-09
1.1351827e-06
-9.4913646e-09
-1.3455037e-09
1.2936076e-06
-8.7919532e-09
-9.8226466e-10
1.4682418e-06
-8.1672711e-09
-7.9715452e-10
1.6602377e-06
-7.5998578e-09
-7.5743808e-10
1.8707977e-06
-7.0795499e-09
-8.1121182e-10
2.1011757e-06
-6.595328e-09
-9.2800835e-10
2.3526636e-06
-6.1612392e-09
-1.0611896e-09
2.6265577e-06
-5.7596544e-09
-1.2293882e-09
2.9241089e-06
-5.4009673e-09
-1.3950218e-09
3.2464405e-06
-5.0983322e-09
-1.5479612e-09
3.5944345e-06
-4.8035524e-09
-1.7438822e-09
3.9685674e-06
-4.5446922e-09
-1.8960777e-09
4.3686608e-06
-4.3301329e-09
-2.0165298e-09
4.7935492e-06
-4.184609e-09
-2.0790433e-09
5.2406085e-06
-4.0577212e-09
-2.1532144e-09
5.7051472e-06
-4.0160361e-09
-2.1094452e-09
6.1795602e-06
-3.9475766e-09
-2.1256428e-09
6.6522935e-06
-3.990509e-09
-1.929603e-09
7.106402e-06
-3.9995697e-09
-1.821596e-09
7.5178678e-06
-4.0471613e-09
-1.5661857e-09
7.8533683e-06
-4.1649635e-09
-1.209485e-09
8.0676041e-06
-4.2789073e-09
-8.8378526e-10
8.1000534e-06
-4.3487794e-09
-5.3647535e-10
7.871013e-06
-4.2664538e-09
-1.8886809e-10
7.2764857e-06
-3.7515196e-09
1.3405608e-10
6.1812598e-06
-2.27611e-09
3.8203691e-10
4.4091596e-06
3.1332874e-10
1.7301028e-06
-2.1446792e-09
-2.3868193e-09
3.129869e-08
-7.0863787e-09
-5.4845428e-09
9.2109721e-08
-1.3669944e-08
-9.1630341e-09
1.5856232e-07
-2.0602429e-08
-1.2704761e-08
2.2871085e-07
-2.6622438e-08
-1.5520446e-08
3.0189576e-07
-3.0821166e-08
-1.7207513e-08
3.7867836e-07
-3.2720982e-08
-1.76909e-08
4.6048266e-07
-3.2368868e-08
-1.7011071e-08
5.4915184e-07
-3.0138903e-08
-1.5472311e-08
6.4659337e-07
-2.6645215e-08
-1.3359311e-08
7.5457737e-07
-2.25921e-08
-1.0955266e-08
8.7467149e-07
-1.8452189e-08
-8.7046796e-09
1.0082658e-06
-1.4650559e-08
-6.668323e-09
1.1566319e-06
-1.1476649e-08
-4.931682e-09
1.3209969e-06
-8.9496653e-09
-3.6728777e-09
1.5026116e-06
-7.1017345e-09
-2.7181974e-09
1.7027833e-06
-5.8819972e-09
-2.0683769e-09
1.922897e-06
-5.2199611e-09
-1.6560307e-09
2.1644161e-06
-4.932205e-09
-1.5429279e-09
2.4288757e-06
-5.0592988e-09
-1.441029e-09
2.7178287e-06
-5.4337519e-09
-1.5756668e-09
3.0328283e-06
-5.9838594e-09
-1.8047496e-09
3.3753266e-06
-6.7442298e-09
-1.9923491e-09
3.7465617e-06
-7.6452436e-09
-2.2952703e-09
4.147393e-06
-8.439838e-09
-2.7947181e-09
4.578034e-06
-9.1237061e-09
-3.2443258e-09
5.0376242e-06
-9.7620539e-09
-3.5329986e-09
5.5237192e-06
-9.9796489e-09
-4.1736487e-09
6.0317135e-06
-1.0207447e-08
-4.1872173e-09
6.553601e-06
-9.7797408e-09
-4.8761134e-09
7.0772804e-06
-9.0921293e-09
-4.8472731e-09
7.5842564e-06
-8.0362914e-09
-4.9368561e-09
8.0482857e-06
-6.2452809e-09
-5.1340865e-09
8.4326801e-06
-4.0406383e-09
-4.8208076e-09
8.6867322e-06
-1.702338e-09
-4.2653029e-09
8.7424445e-06
1.0226872e-09
-3.979041e-09
8.5108591e-06
3.5049077e-09
-2.6849061e-09
7.8762793e-06
5.6992734e-09
-1.9134813e-09
6.6904818e-06
4.7937082e-09
7.3542767e-10
4.7650644e-06
3.7748676e-09
1.8623814e-06
-3.3968986e-09
-1.3597469e-09
3.1425397e-08
-1.1368187e-08
-3.9159719e-09
9.2528028e-08
-2.2955575e-08
-7.2806353e-09
1.5930281e-07
-3.6462078e-08
-1.0897885e-08
2.2979578e-07
-4.9859347e-08
-1.429263e-08
3.0344736e-07
-6.1514567e-08
-1.6865043e-08
3.8103176e-07
-7.0059741e-08
-1.8686448e-08
4.6424864e-07
-7.5017747e-08
-1.9392523e-08
5.5521959e-07
-7.6402003e-08
-1.9217717e-08
6.560967e-07
-7.4449897e-08
-1.8506511e-08
7.688553e-07
-7.0380975e-08
-1.6699733e-08
8.9523319e-07
-6.4863395e-08
-1.4825007e-08
1.0367778e-06
-5.8327371e-08
-1.313595e-08
1.1949171e-06
-5.1930235e-08
-1.0909317e-08
1.371026e-06
-4.5674397e-08
-9.3953227e-09
1.5665418e-06
-3.9970744e-08
-7.9264029e-09
1.7829729e-06
-3.4739094e-08
-6.9318926e-09