/*--------------------------------*- C++ -*----------------------------------*\
| =========                 |                                                 |
| \\      /  F ield         | OpenFOAM: The Open Source CFD Toolbox           |
|  \\    /   O peration     | Version:  4.0                                   |
|   \\  /    A nd           | Web:      www.OpenFOAM.org                      |
|    \\/     M anipulation  |                                                 |
\*---------------------------------------------------------------------------*/
FoamFile
{
    version     2.0;
    format      ascii;
    class       surfaceScalarField;
    location    "2000";
    object      phi;
}
// * * * * * * * * * * * * * * * * * * * * * * * * * * * * * * * * * * * * * //

dimensions      [1 0 -1 0 0 0 0];

internalField   nonuniform List<scalar> 
287000
(
1.2981509e-10
-1.2307806e-12
1.0024517e-09
5.4825307e-10
-4.23922e-11
3.3509938e-09
1.2266754e-09
-3.7034241e-11
6.3553906e-09
2.2651937e-09
-1.0924668e-10
1.0132207e-08
3.6228448e-09
-1.2823965e-10
1.4815002e-08
5.4232138e-09
-2.7161397e-10
2.0548349e-08
7.5914097e-09
-3.569825e-10
2.7486738e-08
1.0197556e-08
-5.4602695e-10
3.5793377e-08
1.3084363e-08
-6.3239894e-10
4.5640108e-08
1.6299361e-08
-8.3460921e-10
5.7210544e-08
1.9800606e-08
-1.0783516e-09
7.0704368e-08
2.3540744e-08
-1.3665634e-09
8.6347168e-08
2.725089e-08
-1.4783455e-09
1.0440644e-07
3.1235636e-08
-1.9818697e-09
1.2521185e-07
3.4934866e-08
-1.997796e-09
1.4918016e-07
3.8465801e-08
-2.1946875e-09
1.7684877e-07
4.1689669e-08
-2.2767453e-09
2.0891337e-07
4.4735619e-08
-2.5087824e-09
2.462588e-07
4.7103936e-08
-2.2288462e-09
2.9000784e-07
4.9279101e-08
-2.4030617e-09
3.4155935e-07
5.1091757e-08
-2.3724856e-09
4.026216e-07
5.1689805e-08
-1.4806572e-09
4.7526876e-07
5.2502758e-08
-1.9652251e-09
5.6201447e-07
5.3040664e-08
-1.8975431e-09
6.6578337e-07
5.1861461e-08
-7.5629429e-10
7.9002096e-07
4.9883946e-08
-1.559207e-10
9.3934069e-07
4.8177343e-08
-8.7085758e-10
1.1185819e-06
4.5020085e-08
-1.7553098e-10
1.3335548e-06
4.0341659e-08
6.9190393e-10
1.5919151e-06
3.6526875e-08
-1.0717859e-09
1.9024742e-06
2.9784136e-08
6.1514186e-10
2.2759949e-06
2.5244943e-08
-1.9235656e-09
2.7261076e-06
1.6730313e-08
-2.5707987e-10
3.2649672e-06
7.6418917e-09
-5.3419763e-10
3.9163542e-06
-3.9577039e-10
-2.5993126e-09
4.7011944e-06
-1.0789358e-08
-2.1495443e-09
5.6439884e-06
-1.9086237e-08
-5.2907795e-09
6.7834119e-06
-2.1811519e-08
-1.1740749e-08
8.1573152e-06
-3.4162675e-08
-3.8060074e-09
9.8112396e-06
-3.8997647e-08
-1.2650532e-08
1.1806808e-05
-4.3427084e-08
-1.4793269e-08
1.4215851e-05
-4.2473495e-08
-2.0977593e-08
1.712729e-05
-4.6416549e-08
-1.8303964e-08
2.0633833e-05
-4.438414e-08
-2.5518757e-08
2.4872503e-05
-4.3649988e-08
-2.6369338e-08
2.9985839e-05
-3.8919103e-08
-3.1960498e-08
3.6162709e-05
-3.4420098e-08
-3.379173e-08
4.3623641e-05
-2.7308955e-08
-3.7442519e-08
5.2629296e-05
-1.8357868e-08
-4.3003963e-08
6.352958e-05
-4.520058e-08
7.6701401e-05
1.4537244e-10
-1.8870372e-11
1.0004074e-09
5.3813225e-10
-6.2173041e-11
3.3441916e-09
1.2644477e-09
-1.2713808e-10
6.3425739e-09
2.3068618e-09
-2.3056631e-10
1.0111808e-08
3.7748542e-09
-3.7831361e-10
1.4785269e-08
5.5944823e-09
-5.7746852e-10
2.0507508e-08
7.8576128e-09
-8.2724111e-10
2.743305e-08
1.0477863e-08
-1.1286255e-09
3.5725297e-08
1.3548343e-08
-1.4727342e-09
4.5556746e-08
1.6920263e-08
-1.8526781e-09
5.711108e-08
2.0484972e-08
-2.2473922e-09
7.0588827e-08
2.4097975e-08
-2.6319031e-09
8.6217053e-08
2.7805871e-08
-2.9778109e-09
1.0426436e-07
3.1075247e-08
-3.2673511e-09
1.2506148e-07
3.421396e-08
-3.4502656e-09
1.4902795e-07
3.6883023e-08
-3.5295864e-09
1.7670273e-07
3.9038837e-08
-3.4833796e-09
2.0878031e-07
4.039677e-08
-3.3120705e-09
2.4614794e-07
4.1351968e-08
-3.013039e-09
2.8992597e-07
4.1408365e-08
-2.6442512e-09
3.4150872e-07
4.0728281e-08
-2.1981083e-09
4.0260645e-07
4.0168231e-08
-1.7149297e-09
4.752929e-07
3.8478989e-08
-1.3346505e-09
5.6205927e-07
3.6199989e-08
-9.3886291e-10
6.6587262e-07
3.4424512e-08
-5.9976533e-10
7.9028445e-07
3.2653579e-08
-3.455795e-10
9.3952677e-07
2.9696187e-08
-3.1086718e-10
1.1186772e-06
2.6887284e-08
-3.0144444e-10
1.3337666e-06
2.4426499e-08
-4.3264728e-10
1.5921083e-06
1.9953219e-08
-9.0454284e-10
1.9024956e-06
1.6802071e-08
-1.3628128e-09
2.2755711e-06
1.1153392e-08
-2.2189656e-09
2.7241806e-06
7.0587429e-09
-2.9928473e-09
3.2638005e-06
3.0150965e-09
-4.1818314e-09
3.9133232e-06
-2.4625246e-09
-5.6045344e-09
4.6953196e-06
-6.5071893e-09
-7.2670222e-09
5.637162e-06
-1.2318696e-08
-9.191136e-09
6.7719646e-06
-2.2919124e-08
-1.1128642e-08
8.139375e-06
-2.3824382e-08
-1.3280023e-08
9.7880997e-06
-3.1034934e-08
-1.5757172e-08
1.1776091e-05
-3.7538749e-08
-1.8341754e-08
1.4173657e-05
-4.6846891e-08
-2.0929133e-08
1.7065282e-05
-5.0101147e-08
-2.362743e-08
2.0554414e-05
-5.6265728e-08
-2.6433696e-08
2.4764117e-05
-5.8726057e-08
-2.9294446e-08
2.9844827e-05
-6.0989069e-08
-3.2167246e-08
3.5976451e-05
-5.8953705e-08
-3.5055198e-08
4.337944e-05
-5.0598141e-08
-3.7987684e-08
5.2314218e-05
-4.0592678e-08
-4.0718955e-08
6.3114892e-05
-4.5278624e-08
7.6120969e-05
1.4587597e-10
-3.923905e-11
9.9563873e-10
5.7859454e-10
-1.2937685e-10
3.3288627e-09
1.3251698e-09
-2.5158135e-10
6.3144575e-09
2.4148769e-09
-4.2128342e-10
1.0068415e-08
3.8669555e-09
-6.437989e-10
1.4723904e-08
5.6792103e-09
-9.1732373e-10
2.0425432e-08
7.8266451e-09
-1.2334538e-09
2.7327642e-08
1.0252586e-08
-1.5783884e-09
3.5594428e-08
1.2871754e-08
-1.9318214e-09
4.5399105e-08
1.5565635e-08
-2.2694406e-09
5.6926619e-08
1.8200698e-08
-2.5675178e-09
7.0378918e-08
2.0640545e-08
-2.805747e-09
8.5984604e-08
2.274594e-08
-2.9539475e-09
1.0401378e-07
2.4398913e-08
-3.0099721e-09
1.2479862e-07
2.5510653e-08
-2.9404303e-09
1.4875956e-07
2.5997326e-08
-2.7354612e-09
1.7643672e-07
2.5820684e-08
-2.3972712e-09
2.0852522e-07
2.4984801e-08
-1.9461476e-09
2.4591334e-07
2.3571833e-08
-1.4374121e-09
2.8972228e-07
2.168738e-08
-9.3681385e-10
3.4134695e-07
1.9516783e-08
-5.0792427e-10
4.0249698e-07
1.7105403e-08
-6.1638833e-11
4.752496e-07
1.671678e-08
-1.9597403e-09
5.6207959e-07
1.3877697e-08
6.3220644e-10
6.6595863e-07
1.3052539e-08
-1.3233416e-09
7.9039577e-07
1.0149588e-08
6.9914287e-10
9.3958894e-07
8.8251576e-09
-1.2079733e-09
1.1185545e-06
5.822182e-09
7.8353261e-11
1.3333276e-06
2.8012554e-09
-4.8286737e-10
1.5911724e-06
-4.9249738e-10
-1.1370061e-09
1.9008472e-06
-3.9404233e-09
-1.8964939e-09
2.2729835e-06
-7.8647722e-09
-2.726249e-09
2.7204029e-06
-1.2042196e-08
-3.6578653e-09
3.2585622e-06
-1.6715535e-08
-4.6945747e-09
3.9061352e-06
-2.1911624e-08
-5.8369744e-09
4.6856514e-06
-2.7621625e-08
-7.0869683e-09
5.624305e-06
-3.3839775e-08
-8.4283992e-09
6.7549328e-06
-4.0273832e-08
-9.8694057e-09
8.1171968e-06
-4.6820524e-08
-1.1377398e-08
9.7589213e-06
-5.3459981e-08
-1.2944282e-08
1.1737913e-05
-5.9935009e-08
-1.4530154e-08
1.4123878e-05
-6.5866738e-08
-1.6119629e-08
1.7001089e-05
-7.093828e-08
-1.7677815e-08
2.0471251e-05
-7.4771989e-08
-1.917136e-08
2.4657296e-05
-7.68104e-08
-2.0551751e-08
2.9707717e-05
-7.6245829e-08
-2.1769379e-08
3.5802124e-05
-7.1937562e-08
-2.2795215e-08
4.3157968e-05
-6.1424447e-08
-2.3543144e-08
5.2037505e-05
-4.3139715e-08
-2.4187345e-08
6.2765281e-05
-2.4630139e-08
7.5700598e-05
1.2786728e-10
-4.9050311e-11
9.8906454e-10
4.967072e-10
-1.5722059e-10
3.3084974e-09
1.108689e-09
-2.8629511e-10
6.2777586e-09
1.9670939e-09
-4.4847657e-10
1.0012281e-08
3.0732418e-09
-6.5564895e-10
1.4644844e-08
4.3985246e-09
-8.872714e-10
2.0319769e-08
5.8859456e-09
-1.1201696e-09
2.719182e-08
7.4613327e-09
-1.3385482e-09
3.5425397e-08
9.0351549e-09
-1.5223227e-09
4.5194708e-08
1.0461828e-08
-1.6055414e-09
5.6685907e-08
1.1650631e-08
-1.6308768e-09
7.0102418e-08
1.2501574e-08
-1.5757033e-09
8.5674472e-08
1.2979903e-08
-1.4763685e-09
1.0367407e-07
1.3105367e-08
-1.3803279e-09
1.2443562e-07
1.286884e-08
-1.2141651e-09
1.4838245e-07
1.2307315e-08
-9.9857368e-10
1.7605825e-07
1.1525472e-08
-7.8401601e-10
2.081617e-07
1.0575381e-08
-5.1722001e-10
2.4558389e-07
9.4518558e-09
-1.7661863e-10
2.8944698e-07
8.1783775e-09
1.5506647e-10
3.4114507e-07
7.9487944e-09
-7.5600278e-10
4.0238173e-07
6.7284872e-09
4.2880749e-10
4.7519811e-07
4.0228245e-09
-2.1148394e-10
5.6205962e-07
3.2411009e-09
2.3642274e-10
6.6589544e-07
3.4491506e-10
1.9266435e-10
7.9019537e-07
-4.2598235e-10
-1.3094512e-10
9.39146e-07
-3.0948549e-09
-3.5157296e-10
1.1177563e-06
-4.5552799e-09
-5.3124031e-10
1.3320972e-06
-6.6231443e-09
-7.634179e-10
1.5894438e-06
-9.3569761e-09
-1.0572054e-09
1.8985758e-06
-1.2770204e-08
-1.4337184e-09
2.270048e-06
-1.6829778e-08
-1.8802854e-09
2.7166184e-06
-2.1532221e-08
-2.370914e-09
3.2536923e-06
-2.6850215e-08
-2.9034748e-09
3.8998681e-06
-3.2702667e-08
-3.5041984e-09
4.6775946e-06
-3.9023022e-08
-4.1285303e-09
5.6139662e-06
-4.5667828e-08
-4.8106241e-09
6.7416888e-06
-5.2488014e-08
-5.5349996e-09
8.1002387e-06
-5.9273342e-08
-6.2969546e-09
9.7372683e-06
-6.5829654e-08
-7.0374043e-09
1.171031e-05
-7.1842095e-08
-7.800957e-09
1.4088843e-05
-7.7024454e-08
-8.4991325e-09
1.6956789e-05
-8.1026586e-08
-9.1040566e-09
2.041556e-05
-8.3353511e-08
-9.6559041e-09
2.4587755e-05
-8.3361858e-08
-1.0122879e-08
2.9621679e-05
-8.0182206e-08
-1.0486013e-08
3.5696931e-05
-7.2721954e-08
-1.059518e-08
4.3031248e-05
-5.9199835e-08
-1.0562943e-08
5.1889123e-05
-3.711942e-08
-1.0335715e-08
6.25926e-05
-9.5471102e-09
7.5529108e-05
-1.58791e-11
5.8897434e-11
9.9234128e-10
-7.0511044e-11
1.6115027e-10
3.3151468e-09
-1.8515031e-10
2.7727012e-10
6.28116e-09
-4.1874543e-10
4.3942562e-10
1.0004529e-08
2.9427803e-10
-4.9507673e-10
1.4617205e-08
1.1429134e-09
-6.3835742e-10
2.0264035e-08
2.1142166e-09
-7.7648894e-10
2.7099634e-08
3.1909141e-09
-9.0368871e-10
3.5289981e-08
4.3561144e-09
-1.0153916e-09
4.5011219e-08
5.599188e-09
-1.0663321e-09
5.6452093e-08
6.9373838e-09
-1.1380844e-09
6.9818743e-08
8.3753173e-09
-1.2030063e-09
8.5343847e-08
6.8520446e-09
1.7670542e-09
1.0330158e-07
5.3791907e-09
1.6546956e-09
1.2403192e-07
4.0500259e-09
1.4547951e-09
1.4796358e-07
2.8903437e-09
1.2268524e-09
1.756424e-07
3.8025878e-09
-9.4070912e-10
2.0776738e-07
4.3116786e-09
-5.9345298e-10
2.4522492e-07
4.4825182e-09
-2.3032908e-10
2.8912705e-07
4.1854445e-09
2.7835545e-10
3.408522e-07
2.9669033e-09
3.506719e-11
4.0208463e-07
2.3979409e-09
3.5386288e-10
4.7486677e-07
1.4463036e-09
-8.721127e-11
5.6165642e-07
4.2570614e-10
2.6527122e-10
6.6539387e-07
-5.5649161e-10
2.1108095e-11
7.8959105e-07
-2.107112e-09
9.2157803e-11
9.384478e-07
-4.1349361e-09
1.3446878e-10
1.1169977e-06
-6.5958122e-09
1.5691421e-10
1.3312376e-06
-9.3206794e-09
-5.519474e-11
1.5884186e-06
-1.2806331e-08
1.7300088e-10
1.8972886e-06
-1.6920392e-08
2.0252244e-10
2.2684091e-06
-2.1336931e-08
-1.3239759e-10
2.7145291e-06
-2.6338116e-08
-1.5464638e-10
3.2510245e-06
-3.2307796e-08
2.8210427e-10
3.8964543e-06
-3.8288677e-08
-2.1243922e-10
4.6732482e-06
-4.5096778e-08
2.9444617e-10
5.6084092e-06
-5.2139126e-08
3.01932e-10
6.7346181e-06
-5.9319198e-08
3.2898276e-10
8.0912896e-06
-6.5819788e-08
-2.8876249e-10
9.7259503e-06
-7.2631336e-08
4.209271e-10
1.1696029e-05
-7.8055985e-08
-3.4176034e-10
1.4070877e-05
-8.2310823e-08
-4.1258385e-10
1.6934302e-05
-8.5762808e-08
5.6409009e-10
2.0387581e-05
-8.7296345e-08
6.1482714e-10
2.455355e-05
-8.6392003e-08
7.4164087e-10
2.9580347e-05
-8.0740986e-08
-1.0598248e-09
3.5647969e-05
-7.1962332e-08
1.2376077e-09
4.2973971e-05
-5.6973457e-08
1.6711155e-09
5.1824454e-05
-3.2102226e-08
-1.9142275e-09
6.2524932e-05
2.9631999e-09
7.5468567e-05
1.0815033e-10
4.3193426e-11
9.9220999e-10
4.0685631e-10
1.2701175e-10
3.3148807e-09
9.1360395e-10
2.2059725e-10
6.2808564e-09
1.6704504e-09
3.3871497e-10
1.0004076e-08
1.5735735e-09
4.7821193e-10
1.4616512e-08
1.4115914e-09
6.2577119e-10
2.0262395e-08
1.175011e-09
7.8114618e-10
2.7097126e-08
8.5654156e-10
9.3483056e-10
3.5285783e-08
4.4917089e-10
1.0766119e-09
4.5004237e-08
-1.1553589e-12
1.1849582e-09
5.6440698e-08
-5.6704179e-10
1.2827641e-09
6.9803124e-08
-1.291996e-09
1.3586833e-09
8.5325573e-08
7.3848196e-10
1.4778382e-09
1.0328489e-07
2.4093783e-09
1.5556731e-09
1.2402225e-07
3.7648518e-09
1.440388e-09
1.479596e-07
4.8926484e-09
1.163316e-09
1.756412e-07
3.9288763e-09
7.8391496e-10
2.0776429e-07
3.3576097e-09
4.2300585e-10
2.4521754e-07
3.2148189e-09
4.6953402e-11
2.8911612e-07
1.8430211e-09
1.5001477e-09
3.4083549e-07
1.9388925e-09
-4.6689202e-10
4.0206862e-07
9.0937425e-10
7.5919491e-10
4.7485679e-07
4.0520478e-10
-3.9354169e-10
5.6165194e-07
-4.5462182e-10
1.5242368e-10
6.653895e-07
-1.5883474e-09
2.3872484e-11
7.8958494e-07
-2.9330342e-09
1.2734861e-10
9.3844436e-07
-4.697518e-09
3.7844506e-10
1.1169906e-06
-6.8694425e-09
5.7723547e-10
1.3312289e-06
-9.7326345e-09
8.1570601e-10
1.5884073e-06
-1.2925889e-08
1.1283129e-09
1.8972794e-06
-1.6691269e-08
1.5056792e-09
2.2684023e-06
-2.1390761e-08
1.9317031e-09
2.7145178e-06
-2.6723169e-08
2.4281133e-09
3.2510165e-06
-3.2228518e-08
2.9933477e-09
3.8964721e-06
-3.8725824e-08
3.5938456e-09
4.6732692e-06
-4.5189153e-08
4.2619813e-09
5.6084908e-06
-5.1941561e-08
4.9569255e-09
6.7347347e-06
-5.8725273e-08
5.6671305e-09
8.0913818e-06
-6.5933285e-08
6.3825475e-09
9.726029e-06
-7.2065082e-08
7.1343552e-09
1.1696106e-05
-7.8209966e-08
7.8434457e-09
1.4070984e-05
-8.342392e-08
8.5589247e-09
1.6934467e-05
-8.6465379e-08
9.2636033e-09
2.0387897e-05
-8.7387182e-08
9.867429e-09
2.4553543e-05
-8.5376052e-08
1.0325435e-08
2.9580041e-05
-8.1070964e-08
1.0587307e-08
3.564716e-05
-7.0744513e-08
1.0727541e-08
4.2974175e-05
-5.480505e-08
1.0556233e-08
5.1826451e-05
-3.3564799e-08
1.0122944e-08
6.2526733e-05
9.4917581e-09
7.5472838e-05
1.3595039e-10
2.5915738e-11
9.8881846e-10
5.023489e-10
1.0285352e-10
3.3079647e-09
1.0833688e-09
2.1856541e-10
6.2769934e-09
1.8706956e-09
3.8497607e-10
1.0011206e-08
2.8383751e-09
6.0812872e-10
1.4643325e-08
3.9351127e-09
8.8889726e-10
2.0317618e-08
5.1047394e-09
1.2183788e-09
2.7188791e-08
6.2814275e-09
1.5816208e-09
3.5421189e-08
7.3957386e-09
1.9564161e-09
4.5189e-08
8.3699844e-09
2.3150362e-09
5.6678449e-08
9.1682205e-09
2.6266909e-09
7.009316e-08
9.763686e-09
2.8636389e-09
8.5663687e-08
1.02176e-08
3.0011879e-09
1.0366231e-07
1.0523929e-08
3.0271254e-09
1.2442355e-07
1.0549387e-08
2.9282917e-09
1.4837048e-07
1.0204693e-08
2.7081557e-09
1.7604642e-07
9.4719109e-09
2.3744391e-09
2.081498e-07
8.450457e-09
1.9507278e-09
2.4557175e-07
7.196117e-09
1.4663637e-09
2.8943451e-07
7.5426366e-09
9.9660983e-10
3.4113339e-07
6.1171795e-09
5.0952104e-10
4.023692e-07
6.0824017e-09
8.6064029e-11
4.7519013e-07
2.7632629e-09
1.9976545e-09
5.6204928e-07
2.4077024e-09
-6.3848602e-10
6.6588442e-07
-2.6429452e-10
1.3499798e-09
7.901829e-07
-9.9129476e-10
-7.0891775e-10
9.3913275e-07
-3.5830374e-09
1.2002852e-09
1.1177416e-06
-4.9466274e-09
-8.2464644e-11
1.3320815e-06
-6.913812e-09
4.8345319e-10
1.5894293e-06
-9.5429714e-09
1.1498637e-09
1.8985666e-06
-1.2868972e-08
1.9227495e-09
2.2700457e-06
-1.6880011e-08
2.7644598e-09
2.7166249e-06
-2.1548617e-08
3.7068282e-09
3.2537105e-06
-2.6824097e-08
4.7539107e-09
3.8999019e-06
-3.2657536e-08
5.9057813e-09
4.6776468e-06
-3.8938481e-08
7.1621807e-09
5.6140403e-06
-4.5546896e-08
8.5086712e-09
6.7417846e-06
-5.2353084e-08
9.9547241e-09
8.1003537e-06
-5.9175987e-08
1.1469568e-08
9.7374015e-06
-6.5760898e-08
1.3040997e-08
1.1710462e-05
-7.18652e-08
1.4637136e-08
1.4089009e-05
-7.7133498e-08
1.6235265e-08
1.6956962e-05
-8.1127799e-08
1.7794038e-08
2.0415724e-05
-8.3373763e-08
1.9283271e-08
2.4587889e-05
-8.3275846e-08
2.0654249e-08
2.9621791e-05
-8.0058776e-08
2.1862306e-08
3.5697056e-05
-7.253317e-08
2.2860545e-08
4.3031464e-05
-5.9054329e-08
2.359193e-08
5.1889447e-05
-3.7138734e-08
2.4238419e-08
6.2592968e-05
2.4657202e-08
7.5529493e-05
1.4102398e-10
1.0965132e-11
9.9545657e-10
5.5782728e-10
5.2654517e-11
3.3285074e-09
1.2785139e-09
1.2144885e-10
6.3139984e-09
2.3351731e-09
2.2924281e-10
1.0067823e-08
3.7496258e-09
3.8287881e-10
1.4723125e-08
5.5245812e-09
5.8976397e-10
2.04244e-08
7.63961e-09
8.4890843e-10
2.7326284e-08
1.0042215e-08
1.1605708e-09
3.5592675e-08
1.2650703e-08
1.5145648e-09
4.5396903e-08
1.5348586e-08
1.9022191e-09
5.6923947e-08
1.7998883e-08
2.3006008e-09
7.0375798e-08
2.0455745e-08
2.6833939e-09
8.5981087e-08
2.2575498e-08
3.0225414e-09
1.0400992e-07
2.4224104e-08
3.3019549e-09
1.2479446e-07
2.531377e-08
3.4745884e-09
1.4875509e-07
2.5772154e-08
3.5463617e-09
1.7643193e-07
2.5577219e-08
3.4959897e-09
2.0852011e-07
2.4753913e-08
3.3224481e-09
2.4590787e-07
2.3381842e-08
3.0207679e-09
2.8971625e-07
2.1575522e-08
2.6471992e-09
3.413398e-07
1.943487e-08
2.1944936e-09
4.0248741e-07
1.7083987e-08
1.709318e-09
4.7523571e-07
1.6765118e-08
1.3303556e-09
5.6206816e-07
1.3962368e-08
9.3234479e-10
6.6594096e-07
1.3197817e-08
5.9776996e-10
7.9038164e-07
1.0338502e-08
3.3564649e-10
9.3956614e-07
9.0699954e-09
2.8823343e-10
1.1185337e-06
6.0784932e-09
3.267551e-10
1.3333079e-06
3.0267118e-09
5.1010369e-10
1.5911483e-06
-2.8306022e-10
9.7384387e-10
1.9008295e-06
-3.7379285e-09
1.4291883e-09
2.2729774e-06
-7.657052e-09
2.2766531e-09
2.7204119e-06
-1.1814414e-08
3.0370777e-09
3.2585898e-06
-1.6479109e-08
4.2384169e-09
3.9061844e-06
-2.1672759e-08
5.6675651e-09
4.6857254e-06
-2.7387931e-08
7.3364799e-09
5.624407e-06
-3.3618087e-08
9.2662252e-09
6.7550664e-06
-4.0070678e-08
1.1209749e-08
8.1173659e-06
-4.663984e-08
1.3368207e-08
9.7591294e-06
-5.3307624e-08
1.585332e-08
1.1738163e-05
-5.980988e-08
1.8446858e-08
1.4124173e-05
-6.576591e-08
2.1042637e-08
1.7001431e-05
-7.0864472e-08
2.3748038e-08
2.0471641e-05
-7.4728357e-08
2.6560593e-08
2.4657737e-05
-7.6802806e-08
2.942729e-08
2.9708208e-05
-7.6274421e-08
3.2306154e-08
3.5802653e-05
-7.2008323e-08
3.5200417e-08
4.3158508e-05
-6.1518235e-08
3.8140236e-08
5.2038013e-05
-4.3219921e-08
4.0877943e-08
6.2765724e-05
4.5444313e-08
7.570086e-05
1.4255683e-10
-3.4797192e-12
1.0003072e-09
5.3277554e-10
3.6246066e-11
3.3440428e-09
1.2584388e-09
3.3180595e-11
6.3424612e-09
2.3020986e-09
1.082121e-10
1.011176e-08
3.774215e-09
1.3061307e-10
1.4785312e-08
5.6022866e-09
2.7783897e-10
2.0507672e-08
7.8796817e-09
3.6724334e-10
2.7433374e-08
1.0521181e-08
5.6011688e-10
3.572583e-08
1.3620088e-08
6.4963618e-10
4.5557551e-08
1.7026493e-08
8.5380687e-10
5.7112234e-08
2.0629148e-08
1.097923e-09
7.0590417e-08
2.4279759e-08
1.3847649e-09
8.6219171e-08
2.8021351e-08
1.493624e-09
1.0426709e-07
3.1317927e-08
1.9932688e-09
1.2506489e-07
3.4477224e-08
2.0051183e-09
1.4903208e-07
3.7162129e-08
2.1985076e-09
1.7670759e-07
3.9331514e-08
2.2780638e-09
2.0878585e-07
4.070164e-08
2.5086464e-09
2.4615401e-07
4.1666904e-08
2.2281683e-09
2.8993225e-07
4.1729146e-08
2.4029572e-09
3.4151463e-07
4.1048986e-08
2.3744116e-09
4.0261103e-07
4.0487098e-08
1.4872037e-09
4.7529468e-07
3.8795408e-08
1.9799666e-09
5.6205686e-07
3.6484473e-08
1.9298646e-09
6.6587771e-07
3.4652408e-08
8.1710479e-10
7.9028906e-07
3.2750134e-08
2.5962754e-10
9.395497e-07
3.0605988e-08
-8.37462e-13
1.1187119e-06
2.7730342e-08
2.4154021e-10
1.333801e-06
2.4421849e-08
2.2145366e-10
1.5921476e-06
2.0017091e-08
1.0634691e-09
1.9025386e-06
1.6919056e-08
-6.1096693e-10
2.2756196e-06
1.1251623e-08
1.9831577e-09
2.7242411e-06
7.5000632e-09
-7.5784331e-11
3.2638801e-06
3.4021288e-09
6.1860167e-10
3.9134157e-06
-2.108511e-09
2.6724411e-09
4.6954324e-06
-6.1689481e-09
2.2154369e-09
5.6373023e-06
-1.1987981e-08
5.3544693e-09
6.7721426e-06
-2.2592988e-08
1.180549e-08
8.1396024e-06
-2.3503402e-08
3.8739898e-09
9.78839e-06
-3.0723337e-08
1.272336e-08
1.1776459e-05
-3.7243567e-08
1.4872298e-08
1.417412e-05
-4.6577279e-08
2.1064102e-08
1.7065859e-05
-4.9869156e-08
1.8399647e-08
2.0555124e-05
-5.6081848e-08
2.5625094e-08
2.476498e-05
-5.8598342e-08
2.648833e-08
2.9845859e-05
-6.0921793e-08
3.2093788e-08
3.5977662e-05
-5.8944628e-08
3.3940784e-08
4.3380837e-05
-5.0629612e-08
3.7609155e-08
5.2315781e-05
-4.0655292e-08
4.3184905e-08
6.3116654e-05
4.5403405e-08
7.6122763e-05
1.2540504e-10
1.0024088e-09
5.3840226e-10
3.3509827e-09
1.2140282e-09
6.3554918e-09
2.2529583e-09
1.0132466e-08
3.6148381e-09
1.4815469e-08
5.4236943e-09
2.0549085e-08
7.6048051e-09
2.7487817e-08
1.0228069e-08
3.5794885e-08
1.3135474e-08
4.5642142e-08
1.6373298e-08
5.7213214e-08
1.9897854e-08
7.0707787e-08
2.3659839e-08
8.6351453e-08
2.7388566e-08
1.044117e-07
3.1387435e-08
1.2521816e-07
3.5095977e-08
1.4918759e-07
3.8632077e-08
1.7685731e-07
4.185792e-08
2.0892299e-07
4.4904017e-08
2.4626937e-07
4.7271838e-08
2.9001914e-07
4.9447723e-08
3.4157109e-07
5.1264149e-08
4.0263349e-07
5.1871936e-08
4.7528079e-07
5.2702909e-08
5.6202717e-07
5.3275431e-08
6.6579827e-07
5.2156844e-08
7.9003997e-07
5.0280074e-08
9.3936586e-07
4.7708521e-08
1.1186084e-06
4.460194e-08
1.3335997e-06
4.0795672e-08
1.5919777e-06
3.6932025e-08
1.9025457e-06
3.0157405e-08
2.2760744e-06
2.5656038e-08
2.7261934e-06
1.6811156e-08
3.2650587e-06
7.807271e-09
3.9164675e-06
-1.5923793e-10
4.701336e-06
-1.0496731e-08
5.6441692e-06
-1.8747933e-08
6.7836427e-06
-2.1436935e-08
8.1576105e-06
-3.3760171e-08
9.8116179e-06
-3.8575455e-08
1.1807293e-05
-4.2994566e-08
1.4216471e-05
-4.2041658e-08
1.712808e-05
-4.5998411e-08
2.0634835e-05
-4.3992863e-08
2.4873765e-05
-4.3298895e-08
2.9987418e-05
-3.8619915e-08
3.6164666e-05
-3.4185217e-08
4.3626051e-05
-2.7143179e-08
5.2632226e-05
-1.828387e-08
6.3533139e-05
7.6705616e-05
2.238587e-10
-1.0203659e-11
7.8879765e-10
9.7764194e-10
-6.2822575e-11
2.6600515e-09
2.3243262e-09
-8.9791482e-11
5.0985237e-09
4.4352621e-09
-2.132906e-10
8.2345748e-09
7.3446374e-09
-3.1515737e-10
1.2220775e-08
1.1232277e-08
-5.7295145e-10
1.7233625e-08
1.606497e-08
-8.1985562e-10
2.3473849e-08
2.1908151e-08
-1.2155545e-09
3.1165715e-08
2.85586e-08
-1.5651846e-09
4.0554857e-08
3.5937227e-08
-2.0734168e-09
5.1905409e-08
4.3803797e-08
-2.6585574e-09
6.5496479e-08
5.1834874e-08
-3.3041657e-09
8.1620339e-08
5.9429048e-08
-3.7715355e-09
1.0058383e-07
6.6495456e-08
-4.5704098e-09
1.2271586e-07
7.2112662e-08
-4.8202655e-09
1.4838345e-07
7.6067761e-08
-5.1272966e-09
1.7802143e-07
7.7987557e-08
-5.1800834e-09
2.1217424e-07
7.7917074e-08
-5.2225968e-09
2.5155252e-07
7.5438365e-08
-4.6161061e-09
2.971032e-07
7.1252093e-08
-4.3365556e-09
3.5008294e-07
6.5518014e-08
-3.7732561e-09
4.1212997e-07
5.7793107e-08
-2.333214e-09
4.853275e-07
4.99237e-08
-2.3714519e-09
5.7225561e-07
4.1709568e-08
-2.0214721e-09
6.7601953e-07
3.1937795e-08
-4.9754024e-10
8.0029108e-07
2.2985956e-08
-1.289459e-09
9.4958313e-07
1.2077732e-08
5.4317392e-10
1.128948e-06
1.9694061e-09
-7.2709572e-10
1.3443902e-06
-9.7482523e-09
2.9173701e-10
1.6033404e-06
-2.1201131e-08
-5.9670171e-10
1.9145231e-06
-3.4532811e-08
6.2703214e-10
2.2886993e-06
-4.5135241e-08
-2.3643779e-09
2.7390748e-06
-5.8627521e-08
-7.1946949e-10
3.2791786e-06
-7.1040702e-08
-2.1532604e-09
3.9309197e-06
-8.1014052e-08
-4.8988055e-09
4.7160656e-06
-9.2169045e-08
-4.8510679e-09
5.6599931e-06
-1.0003599e-07
-8.6772621e-09
6.7999544e-06
-1.0122413e-07
-1.5848621e-08
8.1743511e-06
-1.1170459e-07
-7.618942e-09
9.8293377e-06
-1.1330911e-07
-1.7432584e-08
1.1825844e-05
-1.1350871e-07
-2.0051595e-08
1.42361e-05
-1.0746327e-07
-2.6899932e-08
1.7148143e-05
-1.0601423e-07
-2.4023675e-08
2.0656405e-05
-9.758802e-08
-3.1982502e-08
2.4896057e-05
-9.00043e-08
-3.2945162e-08
3.0011198e-05
-7.7246564e-08
-3.9288411e-08
3.6189237e-05
-6.4941236e-08
-4.1304622e-08
4.3652637e-05
-4.7175367e-08
-4.6590332e-08
5.2658116e-05
-3.0142612e-08
-5.1637145e-08
6.3564178e-05
-6.0511939e-08
7.6731766e-05
2.4961121e-10
-4.4390716e-11
7.8499039e-10
1.0182509e-09
-1.3449251e-10
2.6472487e-09
2.4853437e-09
-2.8836817e-10
5.0740835e-09
4.7277038e-09
-5.3908799e-10
8.1952588e-09
7.944055e-09
-9.0894585e-10
1.2162729e-08
1.214619e-08
-1.4198462e-09
1.7152298e-08
1.7477721e-08
-2.0824704e-09
2.336417e-08
2.386624e-08
-2.9008673e-09
3.1022144e-08
3.134291e-08
-3.8568961e-09
4.0371854e-08
3.9619678e-08
-4.9169246e-09
5.16778e-08
4.8343077e-08
-6.0139007e-09
6.5220647e-08
5.7016954e-08
-7.0563642e-09
8.1295204e-08
6.5233452e-08
-7.9352386e-09
1.0021148e-07
7.1971717e-08
-8.5487481e-09
1.223014e-07
7.7017425e-08
-8.7735568e-09
1.4793527e-07
7.96071e-08
-8.5621205e-09
1.7754766e-07
7.9400813e-08
-7.8746006e-09
2.1168087e-07
7.6028904e-08
-6.7443456e-09
2.5104128e-07
7.0059852e-08
-5.2904353e-09
2.9656892e-07
6.1469495e-08
-3.7503906e-09
3.4951264e-07
5.1087097e-08
-2.2902498e-09
4.1150592e-07
4.0144359e-08
-7.2482539e-10
4.8462781e-07
2.7997924e-08
3.8399008e-10
5.7145043e-07
1.9713328e-08
-2.9578945e-09
6.7509328e-07
7.6803879e-09
2.5856895e-09
7.9923336e-07
-1.3536242e-09
-9.6666839e-10
9.4823758e-07
-1.2435007e-08
3.1111091e-09
1.1271907e-06
-2.0890335e-08
-7.1799266e-10
1.3422134e-06
-2.8270108e-08
-7.916902e-10
1.6005717e-06
-3.7473174e-08
8.3162484e-11
1.9110184e-06
-4.3518644e-08
-1.8908461e-09
2.2841334e-06
-5.0548524e-08
-3.8506821e-09
2.7326961e-06
-5.3881241e-08
-5.8088238e-09
3.2722224e-06
-5.652557e-08
-7.8566334e-09
3.9216706e-06
-5.9816729e-08
-9.8539428e-09
4.7035663e-06
-6.0830028e-08
-1.1952869e-08
5.6452769e-06
-6.3280525e-08
-1.4183647e-08
6.7799211e-06
-7.081596e-08
-1.6013901e-08
8.1470749e-06
-6.7323744e-08
-1.8526687e-08
9.7955132e-06
-7.072815e-08
-2.0987147e-08
1.1783047e-05
-7.3537205e-08
-2.3619744e-08
1.4180031e-05
-7.9838633e-08
-2.5992243e-08
1.7070673e-05
-7.9223669e-08
-2.8933395e-08
2.0558706e-05
-8.1978774e-08
-3.1765383e-08
2.4766652e-05
-8.0400893e-08
-3.4988485e-08
2.9845289e-05
-7.8393406e-08
-3.8193445e-08
3.5973346e-05
-7.1528565e-08
-4.1844424e-08
4.3373113e-05
-5.6581841e-08
-4.5946649e-08
5.2298625e-05
-4.1703232e-08
-4.9170362e-08
6.3097546e-05
-6.1226287e-08
7.6079981e-05
2.7730206e-10
-1.0337394e-10
7.7733265e-10
1.1782381e-09
-3.2864645e-10
2.6220829e-09
2.8268557e-09
-6.4966093e-10
5.0270977e-09
5.3422204e-09
-1.1075879e-09
8.1215066e-09
8.8246541e-09
-1.7242021e-09
1.2056666e-08
1.3319888e-08
-2.4976802e-09
1.7007999e-08
1.8805008e-08
-3.415575e-09
2.3175614e-08
2.515455e-08
-4.4397326e-09
3.0783783e-08
3.2137766e-08
-5.520149e-09
4.0079194e-08
3.9399652e-08
-6.5801375e-09
5.13281e-08
4.6480079e-08
-7.5282117e-09
6.4813027e-08
5.2792043e-08
-8.2137605e-09
8.0830241e-08
5.7677058e-08
-8.4964891e-09
9.9690111e-08
6.0493909e-08
-8.2899807e-09
1.2172317e-07
6.0727187e-08
-7.5422727e-09
1.4729537e-07
5.8068932e-08
-6.3027428e-09
1.7683608e-07
5.2533141e-08
-4.6944899e-09
2.1088162e-07
4.4463995e-08
-2.8952475e-09
2.501342e-07
3.4461583e-08
-1.0981435e-09
2.9553335e-07
2.3055156e-08
6.730947e-10
3.4833066e-07
1.5646447e-08
-2.5526513e-09
4.1016876e-07
3.5414654e-09
3.5137759e-09
4.8311635e-07
-4.741921e-09
1.0059505e-09
5.6974155e-07
-1.6596615e-08
1.7409162e-09
6.7311466e-07
-2.3004047e-08
2.4675258e-09
7.9692136e-07
-3.2442733e-08
2.5999394e-09
9.4546066e-07
-3.6816185e-08
2.2051426e-09
1.1238332e-06
-4.379385e-08
1.5071581e-09
1.3380791e-06
-4.97652e-08
8.7479112e-10
1.5954764e-06
-4.9930234e-08
-3.6928011e-09
1.9047873e-06
-5.0578748e-08
-4.8171749e-09
2.276557e-06
-5.1812022e-08
-5.9218144e-09
2.7237054e-06
-5.3556365e-08
-7.0802892e-09
3.2615754e-06
-5.5804206e-08
-8.2895975e-09
3.9088137e-06
-5.8409625e-08
-9.5480895e-09
4.6879489e-06
-6.1370335e-08
-1.0849246e-08
5.6261596e-06
-6.4705992e-08
-1.2177683e-08
6.7562594e-06
-6.7827079e-08
-1.3589135e-08
8.1178902e-06
-7.1230399e-08
-1.5042341e-08
9.7588372e-06
-7.461633e-08
-1.6540878e-08
1.1736851e-05
-7.7891858e-08
-1.8045907e-08
1.412158e-05
-8.0424861e-08
-1.960368e-08
1.6997235e-05
-8.2293619e-08
-2.1200112e-08
2.0465388e-05
-8.2773542e-08
-2.2838016e-08
2.4648849e-05
-8.1457864e-08
-2.4481378e-08
2.9695895e-05
-7.7268022e-08
-2.6105331e-08
3.5785847e-05
-6.9341797e-08
-2.7757619e-08
4.3135957e-05
-5.5185622e-08
-2.9162879e-08
5.2006568e-05
-3.4583297e-08
-3.1165061e-08
6.2726676e-05
-3.367402e-08
7.5638462e-05
2.8693252e-10
-1.6795404e-10
7.6672537e-10
1.1802191e-09
-5.0207465e-10
2.5885773e-09
2.7370431e-09
-8.9531394e-10
4.9664931e-09
4.9616469e-09
-1.3493677e-09
8.0294296e-09
7.8516979e-09
-1.8983073e-09
1.1928855e-08
1.1311916e-08
-2.4787172e-09
1.6840681e-08
1.5249086e-08
-3.1269598e-09
2.2965837e-08
1.9390936e-08
-3.6859424e-09
3.0529598e-08
2.3301405e-08
-4.0156555e-09
3.9779409e-08
2.6647091e-08
-4.2217584e-09
5.0981487e-08
2.921736e-08
-4.4134684e-09
6.4416797e-08
3.0733561e-08
-4.4339742e-09
8.0378181e-08
3.0954422e-08
-4.2146371e-09
9.9171073e-08
2.9887975e-08
-3.9087675e-09
1.2112028e-07
2.7499728e-08
-3.3585379e-09
1.4658647e-07
2.3610064e-08
-2.3527697e-09
1.7599722e-07
1.8258506e-08
-1.0748881e-09
2.0989299e-07
1.1806693e-08
1.5433239e-10
2.4898528e-07
7.2544827e-09
-1.3275099e-09
2.9422771e-07
1.6708734e-09
5.1881201e-10
3.4688228e-07
-8.7614296e-09
1.6788658e-09
4.0858207e-07
-1.3947193e-08
2.4862376e-09
4.8141114e-07
-2.1718034e-08
2.9277974e-09
5.6790797e-07
-2.8506096e-08
3.2881576e-09
6.7113619e-07
-3.3972292e-08
3.4013565e-09
7.9472761e-07
-3.8551814e-08
3.3494124e-09
9.4297581e-07
-3.6906233e-08
-2.6636109e-09
1.1209793e-06
-3.5905338e-08
-2.1718626e-09
1.3347751e-06
-3.5146809e-08
-2.098298e-09
1.5916585e-06
-3.8164387e-08
-2.4901776e-09
1.9003908e-06
-4.1511203e-08
-3.001479e-09
2.2715795e-06
-4.5117919e-08
-3.5636722e-09
2.7178672e-06
-4.8969243e-08
-4.1554455e-09
3.2546189e-06
-5.3025163e-08
-4.7822431e-09
3.9004162e-06
-5.7272718e-08
-5.4046102e-09
4.6776981e-06
-6.1627545e-08
-6.0800216e-09
5.6135508e-06
-6.6038354e-08
-6.7433817e-09
6.7406635e-06
-7.0489708e-08
-7.389647e-09
8.0984877e-06
-7.4785904e-08
-8.1282061e-09
9.7346476e-06
-7.8831489e-08
-8.8161301e-09
1.170663e-05
-8.2273118e-08
-9.6232947e-09
1.408386e-05
-8.4949067e-08
-1.0331525e-08
1.6950192e-05
-8.6619472e-08
-1.091106e-08
2.040694e-05
-8.6936287e-08
-1.1343136e-08
2.4576575e-05
-8.5122063e-08
-1.1869643e-08
2.9607252e-05
-8.024457e-08
-1.242136e-08
3.5678367e-05
-7.1145045e-08
-1.2990076e-08
4.3007378e-05
-5.5947209e-08
-1.3664834e-08
5.1858423e-05
-3.3568559e-08
-1.3864564e-08
6.2552914e-05
-1.2960474e-08
7.547482e-05
-9.820923e-11
1.601353e-10
7.6245032e-10
-3.5522149e-10
4.958546e-10
2.574243e-09
9.4659552e-10
-8.5382242e-10
4.937892e-09