/*--------------------------------*- C++ -*----------------------------------*\
| =========                 |                                                 |
| \\      /  F ield         | OpenFOAM: The Open Source CFD Toolbox           |
|  \\    /   O peration     | Version:  3.0.1                                 |
|   \\  /    A nd           | Web:      www.OpenFOAM.org                      |
|    \\/     M anipulation  |                                                 |
\*---------------------------------------------------------------------------*/
FoamFile
{
    version     2.0;
    format      ascii;
    class       volScalarField;
    location    "2620";
    object      rho;
}
// * * * * * * * * * * * * * * * * * * * * * * * * * * * * * * * * * * * * * //

dimensions      [1 -3 0 0 0 0 0];

internalField   nonuniform List<scalar> 
80000
(
1.1264077
1.1514159
1.1703026
1.1832443
1.1914385
1.196297
1.1990203
1.2004714
1.2012088
1.2015666
1.2017322
1.2018054
1.2018361
1.2018484
1.201853
1.2018547
1.2018553
1.2018555
1.2018555
1.2018555
1.2018555
1.2018555
1.2018555
1.2018555
1.2018555
1.2018555
1.2018555
1.2018555
1.2018555
1.2018555
1.2018555
1.2018555
1.2018555
1.2018555
1.2018555
1.2018555
1.2018555
1.2018555
1.2018555
1.2018555
1.1265075
1.15146
1.1702965
1.1832099
1.1914027
1.1962662
1.1989964
1.2004543
1.2011974
1.2015594
1.201728
1.201803
1.2018349
1.2018478
1.2018528
1.2018546
1.2018552
1.2018554
1.2018555
1.2018555
1.2018555
1.2018555
1.2018555
1.2018555
1.2018555
1.2018555
1.2018555
1.2018555
1.2018555
1.2018555
1.2018555
1.2018555
1.2018555
1.2018555
1.2018555
1.2018555
1.2018555
1.2018555
1.2018555
1.2018555
1.126704
1.1515725
1.1703481
1.1832241
1.1913983
1.1962535
1.1989818
1.2004413
1.2011874
1.2015525
1.2017237
1.2018005
1.2018336
1.2018471
1.2018525
1.2018545
1.2018552
1.2018554
1.2018555
1.2018555
1.2018555
1.2018555
1.2018555
1.2018555
1.2018555
1.2018555
1.2018555
1.2018555
1.2018555
1.2018555
1.2018555
1.2018555
1.2018555
1.2018555
1.2018555
1.2018555
1.2018555
1.2018555
1.2018555
1.2018555
1.1269407
1.1517061
1.1704101
1.1832387
1.1913834
1.1962274
1.198955
1.2004192
1.2011715
1.2015422
1.2017175
1.2017971
1.2018318
1.2018463
1.2018521
1.2018543
1.2018551
1.2018554
1.2018555
1.2018555
1.2018555
1.2018555
1.2018555
1.2018555
1.2018555
1.2018555
1.2018555
1.2018555
1.2018555
1.2018555
1.2018555
1.2018555
1.2018555
1.2018555
1.2018555
1.2018555
1.2018555
1.2018555
1.2018555
1.2018555
1.1271193
1.1518031
1.1704524
1.1832436
1.1913642
1.1962016
1.1989321
1.2004021
1.2011601
1.2015352
1.2017136
1.201795
1.2018308
1.2018458
1.2018519
1.2018542
1.2018551
1.2018554
1.2018555
1.2018555
1.2018555
1.2018555
1.2018555
1.2018555
1.2018555
1.2018555
1.2018555
1.2018555
1.2018555
1.2018555
1.2018555
1.2018555
1.2018555
1.2018555
1.2018555
1.2018555
1.2018555
1.2018555
1.2018555
1.2018555
1.1271193
1.1518031
1.1704524
1.1832436
1.1913642
1.1962016
1.1989321
1.2004021
1.2011601
1.2015352
1.2017136
1.201795
1.2018308
1.2018458
1.2018519
1.2018542
1.2018551
1.2018554
1.2018555
1.2018555
1.2018555
1.2018555
1.2018555
1.2018555
1.2018555
1.2018555
1.2018555
1.2018555
1.2018555
1.2018555
1.2018555
1.2018555
1.2018555
1.2018555
1.2018555
1.2018555
1.2018555
1.2018555
1.2018555
1.2018555
1.1269407
1.1517061
1.1704101
1.1832387
1.1913834
1.1962274
1.198955
1.2004192
1.2011715
1.2015422
1.2017175
1.2017971
1.2018318
1.2018463
1.2018521
1.2018543
1.2018551
1.2018554
1.2018555
1.2018555
1.2018555
1.2018555
1.2018555
1.2018555
1.2018555
1.2018555
1.2018555
1.2018555
1.2018555
1.2018555
1.2018555
1.2018555
1.2018555
1.2018555
1.2018555
1.2018555
1.2018555
1.2018555
1.2018555
1.2018555
1.1267041
1.1515726
1.1703481
1.1832241
1.1913983
1.1962535
1.1989818
1.2004413
1.2011874
1.2015525
1.2017237
1.2018005
1.2018336
1.2018471
1.2018525
1.2018545
1.2018552
1.2018554
1.2018555
1.2018555
1.2018555
1.2018555
1.2018555
1.2018555
1.2018555
1.2018555
1.2018555
1.2018555
1.2018555
1.2018555
1.2018555
1.2018555
1.2018555
1.2018555
1.2018555
1.2018555
1.2018555
1.2018555
1.2018555
1.2018555
1.1265075
1.15146
1.1702965
1.1832099
1.1914027
1.1962662
1.1989964
1.2004543
1.2011974
1.2015594
1.201728
1.201803
1.2018349
1.2018478
1.2018528
1.2018546
1.2018552
1.2018554
1.2018555
1.2018555
1.2018555
1.2018555
1.2018555
1.2018555
1.2018555
1.2018555
1.2018555
1.2018555
1.2018555
1.2018555
1.2018555
1.2018555
1.2018555
1.2018555
1.2018555
1.2018555
1.2018555
1.2018555
1.2018555
1.2018555
1.1264077
1.1514159
1.1703026
1.1832443
1.1914385
1.196297
1.1990203
1.2004714
1.2012088
1.2015666
1.2017322
1.2018054
1.2018361
1.2018484
1.201853
1.2018547
1.2018553
1.2018555
1.2018555
1.2018555
1.2018555
1.2018555
1.2018555
1.2018555
1.2018555
1.2018555
1.2018555
1.2018555
1.2018555
1.2018555
1.2018555
1.2018555
1.2018555
1.2018555
1.2018555
1.2018555
1.2018555
1.2018555
1.2018555
1.2018555
1.1027959
1.1281962
1.1500941
1.1675418
1.1803727
1.1891199
1.1946876
1.1980175
1.1998979
1.2009043
1.2014151
1.2016611
1.2017735
1.2018221
1.2018421
1.2018498
1.2018526
1.2018536
1.2018539
1.201854
1.201854
1.201854
1.201854
1.201854
1.201854
1.201854
1.201854
1.201854
1.201854
1.201854
1.201854
1.201854
1.201854
1.201854
1.201854
1.201854
1.201854
1.201854
1.201854
1.201854
1.102832
1.1281843
1.1500395
1.1674552
1.1802678
1.1890146
1.1945938
1.197942
1.1998427
1.2008665
1.2013912
1.2016471
1.2017659
1.2018183
1.2018403
1.201849
1.2018523
1.2018535
1.2018539
1.201854
1.201854
1.201854
1.201854
1.201854
1.201854
1.201854
1.201854
1.201854
1.201854
1.201854
1.201854
1.201854
1.201854
1.201854
1.201854
1.201854
1.201854
1.201854
1.201854
1.201854
1.1028538
1.1281099
1.1498822
1.1672411
1.180034
1.1887945
1.19441
1.197803
1.1997462
1.2008046
1.2013542
1.2016264
1.201755
1.201813
1.2018378
1.2018479
1.2018518
1.2018533
1.2018538
1.201854
1.201854
1.201854
1.201854
1.201854
1.201854
1.201854
1.201854
1.201854
1.201854
1.201854
1.201854
1.201854
1.201854
1.201854
1.201854
1.201854
1.201854
1.201854
1.201854
1.201854
1.1027578
1.1278593
1.1495084
1.1668064
1.1796078
1.1884284
1.1941276
1.1976041
1.1996166
1.2007259
1.2013093
1.2016023
1.2017427
1.201807
1.2018351
1.2018467
1.2018514
1.2018531
1.2018537
1.2018539
1.201854
1.201854
1.201854
1.201854
1.201854
1.201854
1.201854
1.201854
1.201854
1.201854
1.201854
1.201854
1.201854
1.201854
1.201854
1.201854
1.201854
1.201854
1.201854
1.201854
1.1026328
1.1276062
1.1491706
1.1664447
1.1792767
1.188161
1.1939331
1.1974743
1.1995361
1.2006791
1.2012835
1.2015888
1.201736
1.2018038
1.2018336
1.2018461
1.2018511
1.201853
1.2018537
1.2018539
1.201854
1.201854
1.201854
1.201854
1.201854
1.201854
1.201854
1.201854
1.201854
1.201854
1.201854
1.201854
1.201854
1.201854
1.201854
1.201854
1.201854
1.201854
1.201854
1.201854
1.1026328
1.1276062
1.1491706
1.1664447
1.1792767
1.188161
1.1939331
1.1974743
1.1995361
1.2006791
1.2012835
1.2015888
1.201736
1.2018038
1.2018336
1.2018461
1.2018511
1.201853
1.2018537
1.2018539
1.201854
1.201854
1.201854
1.201854
1.201854
1.201854
1.201854
1.201854
1.201854
1.201854
1.201854
1.201854
1.201854
1.201854
1.201854
1.201854
1.201854
1.201854
1.201854
1.201854
1.1027579
1.1278593
1.1495084
1.1668064
1.1796078
1.1884284
1.1941276
1.1976041
1.1996166
1.2007259
1.2013093
1.2016023
1.2017427
1.201807
1.2018351
1.2018467
1.2018514
1.2018531
1.2018537
1.2018539
1.201854
1.201854
1.201854
1.201854
1.201854
1.201854
1.201854
1.201854
1.201854
1.201854
1.201854
1.201854
1.201854
1.201854
1.201854
1.201854
1.201854
1.201854
1.201854
1.201854
1.1028539
1.1281099
1.1498823
1.1672411
1.180034
1.1887945
1.19441
1.1978031
1.1997462
1.2008046
1.2013542
1.2016264
1.201755
1.201813
1.2018378
1.2018479
1.2018518
1.2018533
1.2018538
1.201854
1.201854
1.201854
1.201854
1.201854
1.201854
1.201854
1.201854
1.201854
1.201854
1.201854
1.201854
1.201854
1.201854
1.201854
1.201854
1.201854
1.201854
1.201854
1.201854
1.201854
1.1028321
1.1281843
1.1500395
1.1674552
1.1802678
1.1890146
1.1945938
1.197942
1.1998427
1.2008665
1.2013912
1.2016471
1.2017659
1.2018183
1.2018403
1.201849
1.2018523
1.2018535
1.2018539
1.201854
1.201854
1.201854
1.201854
1.201854
1.201854
1.201854
1.201854
1.201854
1.201854
1.201854
1.201854
1.201854
1.201854
1.201854
1.201854
1.201854
1.201854
1.201854
1.201854
1.201854
1.102796
1.1281962
1.1500941
1.1675418
1.1803727
1.1891199
1.1946876
1.1980175
1.1998979
1.2009043
1.2014151
1.2016611
1.2017735
1.2018221
1.2018421
1.2018498
1.2018526
1.2018536
1.2018539
1.201854
1.201854
1.201854
1.201854
1.201854
1.201854
1.201854
1.201854
1.201854
1.201854
1.201854
1.201854
1.201854
1.201854
1.201854
1.201854
1.201854
1.201854
1.201854
1.201854
1.201854
1.0900645
1.1150128
1.1373795
1.1563229
1.1713413
1.1824529
1.1901409
1.1951319
1.1981839
1.1999477
1.200912
1.2014112
1.201656
1.2017696
1.2018194
1.20184
1.2018481
1.201851
1.2018521
1.2018524
1.2018525
1.2018525
1.2018525
1.2018525
1.2018525
1.2018525
1.2018525
1.2018525
1.2018525
1.2018525
1.2018525
1.2018525
1.2018525
1.2018525
1.2018525
1.2018525
1.2018525
1.2018525
1.2018525
1.2018525
1.0900372
1.1149441
1.1372763
1.1561898
1.1711832
1.1822855
1.1899789
1.1949893
1.1980694
1.1998624
1.2008535
1.2013744
1.2016345
1.201758
1.2018136
1.2018373
1.2018469
1.2018506
1.2018519
1.2018523
1.2018525
1.2018525
1.2018525
1.2018525
1.2018525
1.2018525
1.2018525
1.2018525
1.2018525
1.2018525
1.2018525
1.2018525
1.2018525
1.2018525
1.2018525
1.2018525
1.2018525
1.2018525
1.2018525
1.2018525
1.0898837
1.1146819
1.1369089
1.1557369
1.1706875
1.1817989
1.1895479
1.1946416
1.1978116
1.199686
1.2007414
1.2013079
1.2015976
1.2017388
1.2018042
1.201833
1.201845
1.2018498
1.2018516
1.2018522
1.2018524
1.2018525
1.2018525
1.2018525
1.2018525
1.2018525
1.2018525
1.2018525
1.2018525
1.2018525
1.2018525
1.2018525
1.2018525
1.2018525
1.2018525
1.2018525
1.2018525
1.2018525
1.2018525
1.2018525
1.089482
1.1140667
1.1360928
1.1547935
1.1697277
1.1809281
1.1888344
1.1941075
1.1974429
1.1994494
1.2005995
1.2012279
1.2015551
1.2017175
1.2017941
1.2018285
1.2018431
1.201849
1.2018513
1.2018521
1.2018524
1.2018525
1.2018525
1.2018525
1.2018525
1.2018525
1.2018525
1.2018525
1.2018525
1.2018525
1.2018525
1.2018525
1.2018525
1.2018525
1.2018525
1.2018525
1.2018525
1.2018525
1.2018525
1.2018525
1.0890936
1.113478
1.135355
1.1539898
1.1689573
1.1802694
1.1883255
1.193748
1.1972082
1.1993065
1.2005177
1.2011835
1.2015322
1.2017061
1.2017887
1.201826
1.201842
1.2018486
1.2018511
1.2018521
1.2018524
1.2018525
1.2018525
1.2018525
1.2018525
1.2018525
1.2018525
1.2018525
1.2018525
1.2018525
1.2018525
1.2018525
1.2018525
1.2018525
1.2018525
1.2018525
1.2018525
1.2018525
1.2018525
1.2018525
1.0890936
1.113478
1.1353551
1.1539898
1.1689573
1.1802694
1.1883255
1.193748
1.1972082
1.1993065
1.2005177
1.2011835
1.2015322
1.2017061
1.2017887
1.201826
1.201842
1.2018486
1.2018511
1.2018521
1.2018524
1.2018525
1.2018525
1.2018525
1.2018525
1.2018525
1.2018525
1.2018525
1.2018525
1.2018525
1.2018525
1.2018525
1.2018525
1.2018525
1.2018525
1.2018525
1.2018525
1.2018525
1.2018525
1.2018525
1.0894821
1.1140668
1.1360928
1.1547935
1.1697277
1.1809281
1.1888344
1.1941075
1.1974429
1.1994494
1.2005995
1.2012279
1.2015551
1.2017175
1.2017941
1.2018285
1.2018431
1.201849
1.2018513
1.2018521
1.2018524
1.2018525
1.2018525
1.2018525
1.2018525
1.2018525
1.2018525
1.2018525
1.2018525
1.2018525
1.2018525
1.2018525
1.2018525
1.2018525
1.2018525
1.2018525
1.2018525
1.2018525
1.2018525
1.2018525
1.0898838
1.1146819
1.136909
1.1557369
1.1706875
1.1817989
1.1895479
1.1946416
1.1978116
1.199686
1.2007414
1.2013079
1.2015976
1.2017388
1.2018042
1.201833
1.201845
1.2018498
1.2018516
1.2018522
1.2018524
1.2018525
1.2018525
1.2018525
1.2018525
1.2018525
1.2018525
1.2018525
1.2018525
1.2018525
1.2018525
1.2018525
1.2018525
1.2018525
1.2018525
1.2018525
1.2018525
1.2018525
1.2018525
1.2018525
1.0900372
1.1149441
1.1372763
1.1561898
1.1711832
1.1822855
1.1899789
1.1949893
1.1980694
1.1998624
1.2008535
1.2013744
1.2016345
1.201758
1.2018136
1.2018373
1.2018469
1.2018506
1.2018519
1.2018523
1.2018525
1.2018525
1.2018525
1.2018525
1.2018525
1.2018525
1.2018525
1.2018525
1.2018525
1.2018525
1.2018525
1.2018525
1.2018525
1.2018525
1.2018525
1.2018525
1.2018525
1.2018525
1.2018525
1.2018525
1.0900646
1.1150128
1.1373795
1.1563229
1.1713413
1.1824529
1.1901409
1.1951319
1.1981839
1.1999477
1.200912
1.2014112
1.201656
1.2017696
1.2018194
1.20184
1.2018481
1.201851
1.2018521
1.2018524
1.2018525
1.2018525
1.2018525
1.2018525
1.2018525
1.2018525
1.2018525
1.2018525
1.2018525
1.2018525
1.2018525
1.2018525
1.2018525
1.2018525
1.2018525
1.2018525
1.2018525
1.2018525
1.2018525
1.2018525
1.0814999
1.1060602
1.1284639
1.1480181
1.1641744
1.1767342
1.1859113
1.19222
1.1963097
1.1988163
1.2002697
1.2010676
1.2014826
1.2016868
1.2017817
1.2018234
1.2018406
1.2018473
1.2018498
1.2018506
1.2018509
1.201851
1.201851
1.201851
1.201851
1.201851
1.201851
1.201851
1.201851
1.201851
1.201851
1.201851
1.201851
1.201851
1.201851
1.201851
1.201851
1.201851
1.201851
1.201851
1.0814152
1.1059372
1.1283127
1.1478427
1.1639747
1.176521
1.1856967
1.1920199
1.1961381
1.1986792
1.200169
1.2009998
1.2014403
1.2016623
1.2017687
1.2018169
1.2018377
1.2018461
1.2018493
1.2018505
1.2018509
1.201851
1.201851
1.201851
1.201851
1.201851
1.201851
1.201851
1.201851
1.201851
1.201851
1.201851
1.201851
1.201851
1.201851
1.201851
1.201851
1.201851
1.201851
1.201851
1.0811255
1.105528
1.1277807
1.1471998
1.1632606
1.1757942
1.1850206
1.1914429
1.1956839
1.1983486
1.1999453
1.2008585
1.2013569
1.2016163
1.2017448
1.2018053
1.2018324
1.2018438
1.2018484
1.2018501
1.2018507
1.2018509
1.201851
1.201851
1.201851
1.201851
1.201851
1.201851
1.201851
1.201851
1.201851
1.201851
1.201851
1.201851
1.201851
1.201851
1.201851
1.201851
1.201851
1.201851
1.0805118
1.1046571
1.1266396
1.1458522
1.1618318
1.1744275
1.1838326
1.1904968
1.1949883
1.1978739
1.1996429
1.2006779
1.2012556
1.2015628
1.2017181
1.2017928
1.2018268
1.2018414
1.2018474
1.2018498
1.2018506
1.2018509
1.201851
1.201851
1.201851
1.201851
1.201851
1.201851
1.201851
1.201851
1.201851
1.201851
1.201851
1.201851
1.201851
1.201851
1.201851
1.201851
1.201851
1.201851
1.0799486
1.1038426
1.1256041
1.1446832
1.1606509
1.1733541
1.1829475
1.1898291
1.1945238
1.1975735
1.1994612
1.2005744
1.2011998
1.2015341
1.201704
1.2017861
1.2018238
1.2018402
1.2018469
1.2018496
1.2018505
1.2018509
1.201851
1.201851
1.201851
1.201851
1.201851
1.201851
1.201851
1.201851
1.201851
1.201851
1.201851
1.201851
1.201851
1.201851
1.201851
1.201851
1.201851
1.201851
1.0799486
1.1038426
1.1256041
1.1446832
1.1606509
1.1733541
1.1829475
1.1898291
1.1945238
1.1975735
1.1994612
1.2005744
1.2011998
1.2015341
1.201704
1.2017861
1.2018238
1.2018402
1.2018469
1.2018496
1.2018505
1.2018509
1.201851
1.201851
1.201851
1.201851
1.201851
1.201851
1.201851
1.201851
1.201851
1.201851
1.201851
1.201851
1.201851
1.201851
1.201851
1.201851
1.201851
1.201851
1.0805118
1.1046571
1.1266396
1.1458522
1.1618318
1.1744275
1.1838326
1.1904968
1.1949883
1.1978739
1.1996429
1.2006779
1.2012556
1.2015628
1.2017181
1.2017928
1.2018268
1.2018414
1.2018474
1.2018498
1.2018506
1.2018509
1.201851
1.201851
1.201851
1.201851
1.201851
1.201851
1.201851
1.201851
1.201851
1.201851
1.201851
1.201851
1.201851
1.201851
1.201851
1.201851
1.201851
1.201851
1.0811256
1.105528
1.1277808
1.1471998
1.1632606
1.1757942
1.1850206
1.1914429
1.1956839
1.1983486
1.1999453
1.2008585
1.2013569
1.2016163
1.2017448
1.2018053
1.2018324
1.2018438
1.2018484
1.2018501
1.2018507
1.2018509
1.201851
1.201851
1.201851
1.201851
1.201851
1.201851
1.201851
1.201851
1.201851
1.201851
1.201851
1.201851
1.201851
1.201851
1.201851
1.201851
1.201851
1.201851
1.0814152
1.1059373
1.1283127
1.1478427
1.1639747
1.176521
1.1856967
1.1920199
1.1961381
1.1986792
1.200169
1.2009998
1.2014403
1.2016623
1.2017687
1.2018169
1.2018377
1.2018461
1.2018493
1.2018505
1.2018509
1.201851
1.201851
1.201851
1.201851
1.201851
1.201851
1.201851
1.201851
1.201851
1.201851
1.201851
1.201851
1.201851
1.201851
1.201851
1.201851
1.201851
1.201851
1.201851
1.0815
1.1060603
1.1284639
1.1480182
1.1641744
1.1767342
1.1859113
1.19222
1.1963097
1.1988163
1.2002697
1.2010676
1.2014826
1.2016868
1.2017817
1.2018234
1.2018406
1.2018473
1.2018498
1.2018506
1.2018509
1.201851
1.201851
1.201851
1.201851
1.201851
1.201851
1.201851
1.201851
1.201851
1.201851
1.201851
1.201851
1.201851
1.201851
1.201851
1.201851
1.201851
1.201851
1.201851
1.075068
1.0993141
1.1216526
1.141502
1.1583299
1.1718433
1.1820946
1.1894371
1.1944086
1.1975968
1.1995336
1.200649
1.2012581
1.201573
1.2017271
1.2017982
1.2018293
1.201842
1.2018469
1.2018487
1.2018493
1.2018495
1.2018495
1.2018495
1.2018495
1.2018495
1.2018495
1.2018495
1.2018495
1.2018495
1.2018495
1.2018495
1.2018495
1.2018495
1.2018495
1.2018495
1.2018495
1.2018495
1.2018495
1.2018495
1.0749356
1.0991435
1.1214567
1.1412864
1.1580936
1.1715934
1.1818396
1.1891917
1.1941886
1.1974119
1.1993902
1.2005467
1.2011905
1.2015317
1.2017037
1.2017859
1.2018233
1.2018393
1.2018457
1.2018482
1.2018491
1.2018494
1.2018495
1.2018495
1.2018495
1.2018495
1.2018495
1.2018495
1.2018495
1.2018495
1.2018495
1.2018495
1.2018495
1.2018495
1.2018495
1.2018495
1.2018495
1.2018495
1.2018495
1.2018495
1.0745464
1.0986258
1.1208026
1.1405018
1.1572126
1.1706746
1.1809544
1.1884034
1.1935381
1.1969136
1.1990345
1.2003093
1.2010423
1.201445
1.2016562
1.2017615
1.2018115
1.201834
1.2018435
1.2018473
1.2018488
1.2018493
1.2018495
1.2018495
1.2018495
1.2018495
1.2018495
1.2018495
1.2018495
1.2018495
1.2018495
1.2018495
1.2018495
1.2018495
1.2018495
1.2018495
1.2018495
1.2018495
1.2018495
1.2018495
1.0737953
1.0975888
1.1194439
1.1388678
1.155425
1.1688941
1.1793328
1.1870447
1.1924844
1.1961536
1.1985224
1.1999861
1.2008508
1.2013383
1.2016002
1.2017339
1.2017986
1.2018283
1.2018411
1.2018464
1.2018484
1.2018492
1.2018494
1.2018495
1.2018495
1.2018495
1.2018495
1.2018495
1.2018495
1.2018495
1.2018495
1.2018495
1.2018495
1.2018495
1.2018495
1.2018495
1.2018495
1.2018495
1.2018495
1.2018495
1.0731263
1.0966373
1.11821
1.1374351
1.1539176
1.167455
1.17808
1.186044
1.1917464
1.1956482
1.1981993
1.1997922
1.200741
1.2012794
1.2015701
1.2017192
1.2017917
1.2018252
1.2018398
1.2018459
1.2018482
1.2018491
1.2018494
1.2018495
1.2018495
1.2018495
1.2018495
1.2018495
1.2018495
1.2018495
1.2018495
1.2018495
1.2018495
1.2018495
1.2018495
1.2018495
1.2018495
1.2018495
1.2018495
1.2018495
1.0731263
1.0966373
1.11821
1.1374351
1.1539176
1.167455
1.17808
1.186044
1.1917464
1.1956482
1.1981993
1.1997922
1.200741
1.2012794
1.2015701
1.2017192
1.2017917
1.2018252
1.2018398
1.2018459
1.2018482
1.2018491
1.2018494
1.2018495
1.2018495
1.2018495
1.2018495
1.2018495
1.2018495
1.2018495
1.2018495
1.2018495
1.2018495
1.2018495
1.2018495
1.2018495
1.2018495
1.2018495
1.2018495
1.2018495
1.0737954
1.0975888
1.1194439
1.1388678
1.1554251
1.1688941
1.1793328
1.1870447
1.1924844
1.1961536
1.1985224
1.1999861
1.2008508
1.2013383
1.2016002
1.2017339
1.2017986
1.2018283
1.2018411
1.2018464
1.2018484
1.2018492
1.2018494
1.2018495
1.2018495
1.2018495
1.2018495
1.2018495
1.2018495
1.2018495
1.2018495
1.2018495
1.2018495
1.2018495
1.2018495
1.2018495
1.2018495
1.2018495
1.2018495
1.2018495
1.0745465
1.0986258
1.1208027
1.1405018
1.1572127
1.1706746
1.1809544
1.1884034
1.1935381
1.1969136
1.1990345
1.2003093
1.2010423
1.201445
1.2016562
1.2017615
1.2018115
1.201834
1.2018435
1.2018473
1.2018488
1.2018493
1.2018495
1.2018495
1.2018495
1.2018495
1.2018495
1.2018495
1.2018495
1.2018495
1.2018495
1.2018495
1.2018495
1.2018495
1.2018495
1.2018495
1.2018495
1.2018495
1.2018495
1.2018495
1.0749356
1.0991436
1.1214568
1.1412865
1.1580936
1.1715934
1.1818396
1.1891917
1.1941886
1.1974119
1.1993902
1.2005467
1.2011905
1.2015317
1.2017037
1.2017859
1.2018233
1.2018393
1.2018457
1.2018482
1.2018491
1.2018494
1.2018495
1.2018495
1.2018495
1.2018495
1.2018495
1.2018495
1.2018495
1.2018495
1.2018495
1.2018495
1.2018495
1.2018495
1.2018495
1.2018495
1.2018495
1.2018495
1.2018495
1.2018495
1.075068
1.0993141
1.1216526
1.141502
1.1583299
1.1718433
1.1820946
1.1894371
1.1944086
1.1975968
1.1995336
1.200649
1.2012581
1.201573
1.2017271
1.2017982
1.2018293
1.201842
1.2018469
1.2018487
1.2018493
1.2018495
1.2018495
1.2018495
1.2018495
1.2018495
1.2018495
1.2018495
1.2018495
1.2018495
1.2018495
1.2018495
1.2018495
1.2018495
1.2018495
1.2018495
1.2018495
1.2018495
1.2018495
1.2018495
1.0699336
1.0939195
1.1161643
1.1361692
1.1534316
1.167615
1.1786714
1.1868363
1.1925514
1.1963482
1.1987422
1.2001757
1.2009909
1.2014305
1.2016551
1.2017637
1.2018132
1.2018344
1.201843
1.2018463
1.2018475
1.2018479
1.201848
1.201848
1.201848
1.201848
1.201848
1.201848
1.201848
1.201848
1.201848
1.201848
1.201848
1.201848
1.201848
1.201848
1.201848
1.201848
1.201848
1.201848
1.0697624
1.0937085
1.115928
1.1359155
1.1531603
1.167332
1.1783824
1.1865538
1.192291
1.1961213
1.1985588
1.2000387
1.2008959
1.2013695
1.2016188
1.2017435
1.2018028
1.2018295
1.2018408
1.2018454
1.2018471
1.2018477
1.2018479
1.201848
1.201848
1.201848
1.201848
1.201848
1.201848
1.201848
1.201848
1.201848
1.201848
1.201848
1.201848
1.201848
1.201848
1.201848
1.201848
1.201848
1.0692998
1.0931098
1.115182
1.1350235
1.1521514
1.1662619
1.1773253
1.1855827
1.19146
1.1954586
1.1980646
1.1996933
1.2006696
1.2012304
1.2015385
1.2017001
1.2017808
1.201819
1.2018362
1.2018435
1.2018464
1.2018475
1.2018479
1.201848
1.201848
1.201848
1.201848
1.201848
1.201848
1.201848
1.201848
1.201848
1.201848
1.201848
1.201848
1.201848
1.201848
1.201848
1.201848
1.201848
1.0684588
1.0919645
1.1136787
1.133191
1.1500997
1.1641555
1.175337
1.1838486
1.1900557
1.1943981
1.197315
1.1991963
1.2003599
1.2010489
1.2014385
1.2016482
1.2017554
1.2018073
1.2018311
1.2018414
1.2018456
1.2018472
1.2018478
1.2018479
1.201848
1.201848
1.201848
1.201848
1.201848
1.201848
1.201848
1.201848
1.201848
1.201848
1.201848
1.201848
1.201848
1.201848
1.201848
1.201848
1.0677247
1.0909293
1.1123184
1.1315766
1.1483478
1.1624184
1.1737582
1.182527
1.1890318
1.1936605
1.1968189
1.1988833
1.2001742
1.2009447
1.201383
1.2016201
1.2017418
1.201801
1.2018283
1.2018402
1.2018451
1.201847
1.2018477
1.2018479
1.201848
1.201848
1.201848
1.201848
1.201848
1.201848
1.201848
1.201848
1.201848
1.201848
1.201848
1.201848
1.201848
1.201848
1.201848
1.201848
1.0677247
1.0909293
1.1123184
1.1315766
1.1483478
1.1624184
1.1737582
1.182527
1.1890318
1.1936605
1.1968189
1.1988833
1.2001742
1.2009447
1.201383
1.2016201
1.2017418
1.201801
1.2018283
1.2018402
1.2018451
1.201847
1.2018477
1.2018479
1.201848
1.201848
1.201848
1.201848
1.201848
1.201848
1.201848
1.201848
1.201848
1.201848
1.201848
1.201848
1.201848
1.201848
1.201848
1.201848
1.0684589
1.0919645
1.1136788
1.133191
1.1500998
1.1641555
1.175337
1.1838486
1.1900557
1.1943981
1.197315
1.1991963
1.2003599
1.2010489
1.2014385
1.2016482
1.2017554
1.2018073
1.2018311
1.2018414
1.2018456
1.2018472
1.2018478
1.2018479
1.201848
1.201848
1.201848
1.201848
1.201848
1.201848
1.201848
1.201848
1.201848
1.201848
1.201848
1.201848
1.201848
1.201848
1.201848
1.201848
1.0692999
1.0931099
1.115182
1.1350235
1.1521514
1.1662619
1.1773254
1.1855827
1.19146
1.1954586
1.1980646
1.1996933
1.2006696
1.2012304
1.2015385
1.2017001
1.2017808
1.201819
1.2018362
1.2018435
1.2018464
1.2018475
1.2018479
1.201848
1.201848
1.201848
1.201848
1.201848
1.201848
1.201848
1.201848
1.201848
1.201848
1.201848
1.201848
1.201848
1.201848
1.201848
1.201848
1.201848
1.0697624
1.0937085
1.115928
1.1359156
1.1531603
1.167332
1.1783824
1.1865538
1.192291
1.1961213
1.1985588
1.2000387
1.2008959
1.2013695
1.2016188
1.2017435
1.2018028
1.2018295
1.2018408
1.2018454
1.2018471
1.2018477
1.2018479
1.201848
1.201848
1.201848
1.201848
1.201848
1.201848
1.201848
1.201848
1.201848
1.201848
1.201848
1.201848
1.201848
1.201848
1.201848
1.201848
1.201848
1.0699336
1.0939195
1.1161643
1.1361693
1.1534316
1.167615
1.1786714
1.1868363
1.1925514
1.1963482
1.1987422
1.2001757
1.2009909
1.2014305
1.2016551
1.2017637
1.2018132
1.2018344
1.201843
1.2018463
1.2018475
1.2018479
1.201848
1.201848
1.201848
1.201848
1.201848
1.201848
1.201848
1.201848
1.201848
1.201848
1.201848
1.201848
1.201848
1.201848
1.201848
1.201848
1.201848
1.201848
1.065666
1.0894306
1.1115748
1.1316638
1.149226
1.1639052
1.1755876
1.1844213
1.1907678
1.1951045
1.1979225
1.1996648
1.2006899
1.2012628
1.2015666
1.2017193
1.2017918
1.2018243
1.201838
1.2018435
1.2018455
1.2018462
1.2018464
1.2018465
1.2018465
1.2018465
1.2018465
1.2018465
1.2018465
1.2018465
1.2018465
1.2018465
1.2018465
1.2018465
1.2018465
1.2018465
1.2018465
1.2018465
1.2018465
1.2018465
1.0654634
1.0891858
1.1113029
1.1313747
1.1489211
1.1635907
1.1752677
1.1841065
1.1904727
1.1948409
1.1977027
1.1994948
1.2005672
1.2011806
1.2015154
1.2016897
1.2017758
1.2018163
1.2018343
1.2018419
1.2018449
1.201846
1.2018464
1.2018465
1.2018465
1.2018465
1.2018465
1.2018465
1.2018465
1.2018465
1.2018465
1.2018465
1.2018465
1.2018465
1.2018465
1.2018465
1.2018465
1.2018465
1.2018465
1.2018465
1.0649465
1.0885265
1.110487
1.1304
1.1478127
1.1624006
1.1740705
1.1829805
1.1894818
1.1940252
1.1970727
1.1990373
1.200255
1.2009801
1.2013945
1.2016211
1.2017394
1.2017982
1.2018258
1.2018382
1.2018433
1.2018454
1.2018462
1.2018464
1.2018465
1.2018465
1.2018465
1.2018465
1.2018465
1.2018465
1.2018465
1.2018465
1.2018465
1.2018465
1.2018465
1.2018465
1.2018465
1.2018465
1.2018465
1.2018465
1.0640467
1.0873109
1.1088885
1.1284309
1.1455691
1.160043
1.1717821
1.1809206
1.1877547
1.1926708
1.1960762
1.1983478
1.199806
1.2007049
1.2012356
1.2015347
1.2016952
1.2017768
1.2018162
1.201834
1.2018417
1.2018448
1.2018459
1.2018463
1.2018465
1.2018465
1.2018465
1.2018465
1.2018465
1.2018465
1.2018465
1.2018465
1.2018465
1.2018465
1.2018465
1.2018465
1.2018465
1.2018465
1.2018465
1.2018465
1.0632739
1.0862264
1.1074502
1.1266939
1.1436389
1.1580719
1.1699284
1.179309
1.1864541
1.1916927
1.1953882
1.197894
1.1995243
1.2005399
1.2011441
1.2014866
1.201671
1.2017653
1.2018108
1.2018317
1.2018407
1.2018444
1.2018458
1.2018463
1.2018465
1.2018465
1.2018465
1.2018465
1.2018465
1.2018465
1.2018465
1.2018465
1.2018465
1.2018465
1.2018465
1.2018465
1.2018465
1.2018465
1.2018465
1.2018465
1.0632739
1.0862264
1.1074502
1.1266939
1.1436389
1.1580719
1.1699284
1.179309
1.1864541
1.1916927
1.1953882
1.197894
1.1995243
1.2005399
1.2011441
1.2014866
1.201671
1.2017653
1.2018108
1.2018317
1.2018407
1.2018444
1.2018458
1.2018463
1.2018465
1.2018465
1.2018465
1.2018465
1.2018465
1.2018465
1.2018465
1.2018465
1.2018465
1.2018465
1.2018465
1.2018465
1.2018465
1.2018465
1.2018465
1.2018465
1.0640468
1.0873109
1.1088885
1.1284309
1.1455691
1.160043
1.1717821
1.1809206
1.1877547
1.1926708
1.1960762
1.1983478
1.199806
1.2007049
1.2012356
1.2015347
1.2016952
1.2017768
1.2018162
1.201834
1.2018417
1.2018448
1.2018459
1.2018463
1.2018465
1.2018465
1.2018465
1.2018465
1.2018465
1.2018465
1.2018465
1.2018465
1.2018465
1.2018465
1.2018465
1.2018465
1.2018465
1.2018465
1.2018465
1.2018465
1.0649465
1.0885265
1.110487
1.1304
1.1478127
1.1624006
1.1740705
1.1829805
1.1894819
1.1940252
1.1970727
1.1990373
1.200255
1.2009801
1.2013945
1.2016211
1.2017394
1.2017982
1.2018258
1.2018382
1.2018433
1.2018454
1.2018462
1.2018464
1.2018465
1.2018465
1.2018465
1.2018465
1.2018465
1.2018465
1.2018465
1.2018465
1.2018465
1.2018465
1.2018465
1.2018465
1.2018465
1.2018465
1.2018465
1.2018465
1.0654635
1.0891858
1.111303
1.1313747
1.1489211
1.1635908
1.1752677
1.1841065
1.1904727
1.1948409
1.1977027
1.1994948
1.2005672
1.2011806
1.2015154
1.2016897
1.2017758
1.2018163
1.2018343
1.2018419
1.2018449
1.201846
1.2018464
1.2018465
1.2018465
1.2018465
1.2018465
1.2018465
1.2018465
1.2018465
1.2018465
1.2018465
1.2018465
1.2018465
1.2018465
1.2018465
1.2018465
1.2018465
1.2018465
1.2018465
1.065666
1.0894307
1.1115748
1.1316638
1.1492261
1.1639053
1.1755876
1.1844213
1.1907678
1.1951045
1.1979225
1.1996648
1.2006899
1.2012628
1.2015666
1.2017193
1.2017918
1.2018243
1.201838
1.2018435
1.2018455
1.2018462
1.2018464
1.2018465
1.2018465
1.2018465
1.2018465
1.2018465
1.2018465
1.2018465
1.2018465
1.2018465
1.2018465
1.2018465
1.2018465
1.2018465
1.2018465
1.2018465
1.2018465
1.2018465
1.0620184
1.085591
1.1076352
1.1277676
1.1455459
1.1606065
1.1727904
1.1821794
1.1890682
1.1938847
1.1970929
1.1991299
1.2003631
1.2010736
1.2014629
1.2016653
1.201765
1.2018113
1.2018317
1.20184
1.2018433
1.2018445
1.2018449
1.201845
1.201845
1.201845
1.201845
1.201845
1.201845
1.201845
1.201845
1.201845
1.201845
1.201845
1.201845
1.201845
1.201845
1.201845
1.201845
1.201845
1.0617906
1.0853181
1.1073324
1.1274462
1.1452092
1.1602617
1.1724413
1.1818352
1.1887423
1.1935885
1.1968402
1.1989289
1.2002134
1.2009698
1.2013957
1.2016248
1.2017422
1.2017994
1.2018258
1.2018374
1.2018422
1.201844
1.2018447
1.2018449
1.201845
1.201845
1.201845
1.201845
1.201845
1.201845
1.201845
1.201845
1.201845
1.201845
1.201845
1.201845
1.201845
1.201845
1.201845
1.201845
1.061233
1.0846128
1.1064626
1.1264069
1.1440219
1.1589751
1.1711289
1.180578
1.1876116
1.1926339
1.1960816
1.1983605
1.1998119
1.2007024
1.2012279
1.2015257
1.2016872
1.2017707
1.2018118
1.201831
1.2018394
1.2018429
1.2018443
1.2018448
1.201845
1.201845
1.201845
1.201845
1.201845
1.201845
1.201845
1.201845
1.201845
1.201845
1.201845
1.201845
1.201845
1.201845
1.201845
1.201845
1.0602952
1.0833521
1.1048018
1.124344
1.1416391
1.1564249
1.1685981
1.1782414
1.1855963
1.1910041
1.1948416
1.1974713
1.1992104
1.2003184
1.2009969
1.2013946
1.2016172
1.2017355
1.2017952
1.2018236
1.2018363
1.2018417
1.2018438
1.2018446
1.2018449
1.201845
1.201845
1.201845
1.201845
1.201845
1.201845
1.201845
1.201845
1.201845
1.201845
1.201845
1.201845
1.201845
1.201845
1.201845
1.0595005
1.0822405
1.103318
1.1225253
1.1395808
1.1542734
1.1665185
1.1763768
1.1840398
1.1897902
1.1939545
1.1968623
1.1988168
1.2000785
1.2008586
1.201319
1.2015779
1.2017161
1.201786
1.2018194
1.2018345
1.201841
1.2018435
1.2018445
1.2018449
1.201845
1.201845
1.201845
1.201845
1.201845
1.201845
1.201845
1.201845
1.201845
1.201845
1.201845