/*--------------------------------*- C++ -*----------------------------------*\
| =========                 |                                                 |
| \\      /  F ield         | OpenFOAM: The Open Source CFD Toolbox           |
|  \\    /   O peration     | Version:  3.0.1                                 |
|   \\  /    A nd           | Web:      www.OpenFOAM.org                      |
|    \\/     M anipulation  |                                                 |
\*---------------------------------------------------------------------------*/
FoamFile
{
    version     2.0;
    format      ascii;
    class       volScalarField;
    location    "2620";
    object      T;
}
// * * * * * * * * * * * * * * * * * * * * * * * * * * * * * * * * * * * * * //

dimensions      [0 0 0 1 0 0 0];

internalField   nonuniform List<scalar> 
80000
(
313.37215
306.56584
301.61839
298.31945
296.26774
295.06451
294.39434
294.03848
293.85799
293.77049
293.72999
293.71211
293.7046
293.7016
293.70046
293.70006
293.69992
293.69987
293.69986
293.69986
293.69986
293.69986
293.69986
293.69986
293.69986
293.69986
293.69986
293.69986
293.69986
293.69986
293.69986
293.69986
293.69986
293.69986
293.69986
293.69986
293.69986
293.69986
293.69986
293.69987
313.34439
306.55411
301.61998
298.32812
296.27666
295.07211
294.40022
294.04267
293.86076
293.77224
293.73102
293.71268
293.7049
293.70174
293.70053
293.70008
293.69993
293.69988
293.69986
293.69986
293.69986
293.69986
293.69986
293.69986
293.69986
293.69986
293.69986
293.69986
293.69986
293.69986
293.69986
293.69986
293.69986
293.69986
293.69986
293.69986
293.69986
293.69986
293.69986
293.69987
313.28974
306.52415
301.60668
298.32454
296.27773
295.07524
294.4038
294.04585
293.86321
293.77392
293.73208
293.7133
293.70523
293.70191
293.7006
293.70012
293.69994
293.69988
293.69986
293.69986
293.69986
293.69986
293.69986
293.69986
293.69986
293.69986
293.69986
293.69986
293.69986
293.69986
293.69986
293.69986
293.69986
293.69986
293.69986
293.69986
293.69986
293.69986
293.69986
293.69987
313.22394
306.4886
301.59069
298.32087
296.28143
295.08169
294.41038
294.05128
293.86712
293.77645
293.73359
293.71413
293.70565
293.70211
293.7007
293.70016
293.69996
293.69989
293.69987
293.69986
293.69986
293.69986
293.69986
293.69986
293.69986
293.69986
293.69986
293.69986
293.69986
293.69986
293.69986
293.69986
293.69986
293.69986
293.69986
293.69986
293.69986
293.69986
293.69986
293.69987
313.17431
306.46279
301.5798
298.31963
296.28622
295.08805
294.416
294.05547
293.8699
293.77815
293.73454
293.71464
293.70591
293.70223
293.70075
293.70018
293.69997
293.69989
293.69987
293.69986
293.69986
293.69986
293.69986
293.69986
293.69986
293.69986
293.69986
293.69986
293.69986
293.69986
293.69986
293.69986
293.69986
293.69986
293.69986
293.69986
293.69986
293.69986
293.69987
293.69987
313.17431
306.46279
301.5798
298.31963
296.28622
295.08805
294.416
294.05547
293.8699
293.77815
293.73454
293.71464
293.70591
293.70223
293.70075
293.70018
293.69997
293.69989
293.69987
293.69986
293.69986
293.69986
293.69986
293.69986
293.69986
293.69986
293.69986
293.69986
293.69986
293.69986
293.69986
293.69986
293.69986
293.69986
293.69986
293.69986
293.69986
293.69986
293.69987
293.69987
313.22394
306.48859
301.59069
298.32087
296.28143
295.08169
294.41038
294.05128
293.86712
293.77645
293.73359
293.71413
293.70565
293.70211
293.7007
293.70016
293.69996
293.69989
293.69987
293.69986
293.69986
293.69986
293.69986
293.69986
293.69986
293.69986
293.69986
293.69986
293.69986
293.69986
293.69986
293.69986
293.69986
293.69986
293.69986
293.69986
293.69986
293.69986
293.69986
293.69987
313.28972
306.52414
301.60668
298.32454
296.27773
295.07524
294.4038
294.04585
293.86321
293.77392
293.73208
293.7133
293.70523
293.70191
293.7006
293.70012
293.69994
293.69988
293.69986
293.69986
293.69986
293.69986
293.69986
293.69986
293.69986
293.69986
293.69986
293.69986
293.69986
293.69986
293.69986
293.69986
293.69986
293.69986
293.69986
293.69986
293.69986
293.69986
293.69986
293.69987
313.34439
306.5541
301.61998
298.32812
296.27666
295.07211
294.40022
294.04267
293.86076
293.77224
293.73102
293.71268
293.7049
293.70174
293.70053
293.70008
293.69993
293.69988
293.69986
293.69986
293.69986
293.69986
293.69986
293.69986
293.69986
293.69986
293.69986
293.69986
293.69986
293.69986
293.69986
293.69986
293.69986
293.69986
293.69986
293.69986
293.69986
293.69986
293.69986
293.69987
313.37215
306.56584
301.61839
298.31944
296.26774
295.06451
294.39434
294.03848
293.85799
293.77049
293.72999
293.71211
293.7046
293.7016
293.70046
293.70006
293.69992
293.69987
293.69986
293.69986
293.69986
293.69986
293.69986
293.69986
293.69986
293.69986
293.69986
293.69986
293.69986
293.69986
293.69986
293.69986
293.69986
293.69986
293.69986
293.69986
293.69986
293.69986
293.69986
293.69987
320.08114
312.87481
306.91765
302.33109
299.04468
296.84491
295.46148
294.64026
294.1785
293.93198
293.80702
293.74687
293.71939
293.7075
293.70263
293.70074
293.70005
293.69982
293.69974
293.69972
293.69971
293.69971
293.69971
293.69971
293.69971
293.69971
293.69971
293.69971
293.69971
293.69971
293.69971
293.69971
293.69971
293.69971
293.69971
293.69971
293.69971
293.69971
293.69971
293.69972
320.07066
312.87812
306.93223
302.35351
299.07127
296.87118
295.48469
294.65882
294.19206
293.94123
293.81286
293.75028
293.72124
293.70843
293.70307
293.70093
293.70013
293.69985
293.69975
293.69972
293.69971
293.69971
293.69971
293.69971
293.69971
293.69971
293.69971
293.69971
293.69971
293.69971
293.69971
293.69971
293.69971
293.69971
293.69971
293.69971
293.69971
293.69971
293.69972
293.69972
320.06435
312.89875
306.9742
302.40897
299.13051
296.92615
295.53016
294.693
294.21572
293.95638
293.8219
293.75533
293.7239
293.70975
293.70368
293.7012
293.70024
293.69989
293.69977
293.69973
293.69971
293.69971
293.69971
293.69971
293.69971
293.69971
293.69971
293.69971
293.69971
293.69971
293.69971
293.69971
293.69971
293.69971
293.69971
293.69971
293.69971
293.69971
293.69972
293.69972
320.0922
312.96828
307.07403
302.52162
299.23859
297.01763
295.60004
294.74195
294.2475
293.97566
293.83289
293.76125
293.72691
293.7112
293.70434
293.70149
293.70036
293.69994
293.69978
293.69973
293.69972
293.69971
293.69971
293.69971
293.69971
293.69971
293.69971
293.69971
293.69971
293.69971
293.69971
293.69971
293.69971
293.69971
293.69971
293.69971
293.69971
293.69971
293.69972
293.69972
320.12849
313.03852
307.16428
302.61544
299.32262
297.08446
295.64821
294.7739
294.26724
293.98712
293.83919
293.76455
293.72856
293.71199
293.70471
293.70165
293.70043
293.69996
293.69979
293.69974
293.69972
293.69971
293.69971
293.69971
293.69971
293.69971
293.69971
293.69971
293.69971
293.69971
293.69971
293.69971
293.69971
293.69971
293.69971
293.69971
293.69971
293.69972
293.69972
293.69972
320.12849
313.03852
307.16428
302.61544
299.32262
297.08446
295.64821
294.7739
294.26724
293.98712
293.83919
293.76455
293.72856
293.71199
293.70471
293.70165
293.70043
293.69996
293.69979
293.69974
293.69972
293.69971
293.69971
293.69971
293.69971
293.69971
293.69971
293.69971
293.69971
293.69971
293.69971
293.69971
293.69971
293.69971
293.69971
293.69971
293.69971
293.69972
293.69972
293.69972
320.09219
312.96828
307.07403
302.52162
299.23858
297.01763
295.60004
294.74195
294.2475
293.97566
293.83289
293.76125
293.72691
293.7112
293.70434
293.70149
293.70036
293.69994
293.69978
293.69973
293.69972
293.69971
293.69971
293.69971
293.69971
293.69971
293.69971
293.69971
293.69971
293.69971
293.69971
293.69971
293.69971
293.69971
293.69971
293.69971
293.69971
293.69971
293.69972
293.69972
320.06433
312.89874
306.97419
302.40897
299.13051
296.92615
295.53016
294.693
294.21572
293.95638
293.8219
293.75533
293.7239
293.70975
293.70368
293.7012
293.70024
293.69989
293.69977
293.69973
293.69971
293.69971
293.69971
293.69971
293.69971
293.69971
293.69971
293.69971
293.69971
293.69971
293.69971
293.69971
293.69971
293.69971
293.69971
293.69971
293.69971
293.69971
293.69972
293.69972
320.07065
312.87812
306.93223
302.35351
299.07127
296.87118
295.48469
294.65882
294.19206
293.94123
293.81286
293.75028
293.72124
293.70843
293.70307
293.70093
293.70013
293.69985
293.69975
293.69972
293.69971
293.69971
293.69971
293.69971
293.69971
293.69971
293.69971
293.69971
293.69971
293.69971
293.69971
293.69971
293.69971
293.69971
293.69971
293.69971
293.69971
293.69971
293.69972
293.69972
320.08113
312.8748
306.91764
302.33109
299.04468
296.84491
295.46148
294.64026
294.1785
293.93198
293.80702
293.74687
293.71939
293.7075
293.70263
293.70074
293.70005
293.69982
293.69974
293.69972
293.69971
293.69971
293.69971
293.69971
293.69971
293.69971
293.69971
293.69971
293.69971
293.69971
293.69971
293.69971
293.69971
293.69971
293.69971
293.69971
293.69971
293.69971
293.69971
293.69972
323.81895
316.57355
310.34809
305.26383
301.34989
298.51806
296.58972
295.35112
294.59881
294.16578
293.92958
293.80744
293.74759
293.71983
293.70765
293.70262
293.70065
293.69993
293.69968
293.6996
293.69957
293.69956
293.69956
293.69956
293.69956
293.69956
293.69956
293.69956
293.69956
293.69956
293.69956
293.69956
293.69956
293.69956
293.69956
293.69956
293.69957
293.69957
293.69957
293.69958
323.82709
316.59305
310.37627
305.29898
301.39057
298.56034
296.6301
295.38637
294.62697
294.18671
293.9439
293.81646
293.75284
293.72267
293.70908
293.70328
293.70094
293.70004
293.69972
293.69961
293.69958
293.69957
293.69956
293.69956
293.69956
293.69956
293.69956
293.69956
293.69956
293.69956
293.69956
293.69956
293.69956
293.69956
293.69956
293.69956
293.69957
293.69957
293.69957
293.69957
323.87269
316.66753
310.47655
305.41863
301.51818
298.68327
296.73758
295.47236
294.69038
294.22996
293.97134
293.83272
293.76187
293.72736
293.71137
293.70433
293.70139
293.70023
293.69979
293.69964
293.69959
293.69957
293.69956
293.69956
293.69956
293.69956
293.69956
293.69956
293.69956
293.69956
293.69956
293.69956
293.69956
293.69956
293.69956
293.69957
293.69957
293.69957
293.69957
293.69957
323.99209
316.84239
310.6996
305.66813
301.76558
298.90352
296.91568
295.60452
294.78113
294.28799
294.00608
293.85228
293.77225
293.73257
293.71385
293.70545
293.70187
293.70042
293.69987
293.69966
293.69959
293.69957
293.69957
293.69956
293.69956
293.69956
293.69956
293.69956
293.69956
293.69956
293.69956
293.69956
293.69956
293.69956
293.69956
293.69957
293.69957
293.69957
293.69957
293.69957
324.10765
317.0099
310.90148
305.88101
301.96446
299.07033
297.04281
295.69352
294.83891
294.32306
294.02613
293.86315
293.77786
293.73534
293.71516
293.70604
293.70212
293.70053
293.69991
293.69968
293.6996
293.69957
293.69957
293.69956
293.69956
293.69956
293.69956
293.69956
293.69956
293.69956
293.69956
293.69956
293.69956
293.69956
293.69957
293.69957
293.69957
293.69957
293.69957
293.69957
324.10764
317.0099
310.90148
305.88101
301.96446
299.07033
297.04281
295.69352
294.83891
294.32306
294.02613
293.86315
293.77786
293.73534
293.71516
293.70604
293.70212
293.70053
293.69991
293.69968
293.6996
293.69957
293.69957
293.69956
293.69956
293.69956
293.69956
293.69956
293.69956
293.69956
293.69956
293.69956
293.69956
293.69956
293.69957
293.69957
293.69957
293.69957
293.69957
293.69957
323.99208
316.84238
310.69959
305.66813
301.76557
298.90352
296.91568
295.60452
294.78113
294.28799
294.00608
293.85228
293.77225
293.73257
293.71385
293.70545
293.70187
293.70042
293.69987
293.69966
293.69959
293.69957
293.69957
293.69956
293.69956
293.69956
293.69956
293.69956
293.69956
293.69956
293.69956
293.69956
293.69956
293.69956
293.69956
293.69957
293.69957
293.69957
293.69957
293.69957
323.87267
316.66752
310.47654
305.41862
301.51818
298.68327
296.73758
295.47236
294.69038
294.22996
293.97134
293.83272
293.76187
293.72736
293.71137
293.70433
293.70139
293.70023
293.69979
293.69964
293.69959
293.69957
293.69956
293.69956
293.69956
293.69956
293.69956
293.69956
293.69956
293.69956
293.69956
293.69956
293.69956
293.69956
293.69956
293.69957
293.69957
293.69957
293.69957
293.69957
323.82709
316.59305
310.37626
305.29898
301.39057
298.56033
296.6301
295.38637
294.62697
294.18671
293.9439
293.81646
293.75284
293.72267
293.70908
293.70328
293.70094
293.70004
293.69972
293.69961
293.69958
293.69957
293.69956
293.69956
293.69956
293.69956
293.69956
293.69956
293.69956
293.69956
293.69956
293.69956
293.69956
293.69956
293.69956
293.69956
293.69957
293.69957
293.69957
293.69957
323.81895
316.57354
310.34809
305.26383
301.34989
298.51806
296.58972
295.35112
294.59881
294.16578
293.92958
293.80744
293.74759
293.71983
293.70765
293.70262
293.70065
293.69993
293.69968
293.6996
293.69957
293.69956
293.69956
293.69956
293.69956
293.69956
293.69956
293.69956
293.69956
293.69956
293.69956
293.69956
293.69956
293.69956
293.69956
293.69956
293.69957
293.69957
293.69957
293.69958
326.38277
319.13537
312.7995
307.47158
303.20453
299.96828
297.647
296.072
295.05985
294.4429
294.08637
293.89098
293.78947
293.73956
293.71636
293.70617
293.70196
293.70032
293.69972
293.69951
293.69944
293.69942
293.69942
293.69942
293.69942
293.69942
293.69942
293.69942
293.69942
293.69942
293.69942
293.69942
293.69942
293.69942
293.69942
293.69942
293.69942
293.69942
293.69942
293.69943
326.40836
319.17087
312.84142
307.51858
303.25654
300.02266
297.70089
296.12169
295.10218
294.47657
294.11103
293.90759
293.79983
293.74553
293.71955
293.70775
293.70269
293.70063
293.69984
293.69956
293.69946
293.69943
293.69942
293.69942
293.69942
293.69942
293.69942
293.69942
293.69942
293.69942
293.69942
293.69942
293.69942
293.69942
293.69942
293.69942
293.69942
293.69942
293.69942
293.69942
326.4958
319.28901
312.98898
307.69092
303.44271
300.2081
297.87072
296.2651
295.21427
294.5578
294.16586
293.94217
293.82022
293.7568
293.72538
293.71059
293.70398
293.70118
293.70006
293.69964
293.69949
293.69944
293.69942
293.69942
293.69942
293.69942
293.69942
293.69942
293.69942
293.69942
293.69942
293.69942
293.69942
293.69942
293.69942
293.69942
293.69942
293.69942
293.69942
293.69943
326.68125
319.54075
313.30601
308.05277
303.81589
300.55747
298.16964
296.50055
295.3861
294.67455
294.24003
293.98637
293.84499
293.76988
293.7319
293.71366
293.70535
293.70176
293.70029
293.69973
293.69952
293.69945
293.69943
293.69942
293.69942
293.69942
293.69942
293.69942
293.69942
293.69942
293.69942
293.69942
293.69942
293.69942
293.69942
293.69942
293.69942
293.69942
293.69943
293.69943
326.85162
319.77652
313.59424
308.36737
304.12499
300.83242
298.39273
296.66694
295.50097
294.74845
294.2846
294.01172
293.85866
293.77689
293.73534
293.71527
293.70607
293.70207
293.70042
293.69978
293.69954
293.69946
293.69943
293.69942
293.69942
293.69942
293.69942
293.69942
293.69942
293.69942
293.69942
293.69942
293.69942
293.69942
293.69942
293.69942
293.69942
293.69942
293.69943
293.69943
326.85162
319.77652
313.59424
308.36737
304.12499
300.83242
298.39273
296.66694
295.50097
294.74845
294.2846
294.01172
293.85866
293.77689
293.73534
293.71527
293.70607
293.70207
293.70042
293.69978
293.69954
293.69946
293.69943
293.69942
293.69942
293.69942
293.69942
293.69942
293.69942
293.69942
293.69942
293.69942
293.69942
293.69942
293.69942
293.69942
293.69942
293.69942
293.69943
293.69943
326.68125
319.54075
313.306
308.05277
303.81588
300.55746
298.16964
296.50055
295.3861
294.67455
294.24003
293.98637
293.84499
293.76988
293.7319
293.71366
293.70535
293.70176
293.70029
293.69973
293.69952
293.69945
293.69943
293.69942
293.69942
293.69942
293.69942
293.69942
293.69942
293.69942
293.69942
293.69942
293.69942
293.69942
293.69942
293.69942
293.69942
293.69942
293.69943
293.69943
326.49578
319.289
312.98897
307.69091
303.44271
300.2081
297.87072
296.26509
295.21427
294.5578
294.16586
293.94217
293.82022
293.7568
293.72538
293.71059
293.70398
293.70118
293.70006
293.69964
293.69949
293.69944
293.69942
293.69942
293.69942
293.69942
293.69942
293.69942
293.69942
293.69942
293.69942
293.69942
293.69942
293.69942
293.69942
293.69942
293.69942
293.69942
293.69942
293.69943
326.40835
319.17086
312.84141
307.51857
303.25654
300.02266
297.70089
296.12169
295.10218
294.47657
294.11103
293.90759
293.79983
293.74553
293.71955
293.70775
293.70269
293.70063
293.69984
293.69956
293.69946
293.69943
293.69942
293.69942
293.69942
293.69942
293.69942
293.69942
293.69942
293.69942
293.69942
293.69942
293.69942
293.69942
293.69942
293.69942
293.69942
293.69942
293.69942
293.69942
326.38276
319.13537
312.7995
307.47157
303.20452
299.96828
297.647
296.072
295.05985
294.4429
294.08637
293.89098
293.78947
293.73956
293.71636
293.70617
293.70196
293.70032
293.69972
293.69951
293.69944
293.69942
293.69942
293.69942
293.69942
293.69942
293.69942
293.69942
293.69942
293.69942
293.69942
293.69942
293.69942
293.69942
293.69942
293.69942
293.69942
293.69942
293.69942
293.69943
328.33488
321.09324
314.69844
309.22621
304.73386
301.21974
298.60752
296.76419
295.52895
294.74221
294.26631
293.99294
293.84386
293.76685
293.7292
293.71181
293.70423
293.70112
293.69992
293.69948
293.69934
293.69929
293.69928
293.69927
293.69927
293.69927
293.69927
293.69927
293.69927
293.69927
293.69927
293.69927
293.69927
293.69927
293.69927
293.69927
293.69927
293.69927
293.69928
293.69929
328.37533
321.14307
314.75341
309.28461
304.79604
301.28398
298.67195
296.82543
295.5834
294.78772
294.30148
294.01799
293.86041
293.77696
293.73492
293.71481
293.70569
293.70178
293.7002
293.69959
293.69938
293.6993
293.69928
293.69927
293.69927
293.69927
293.69927
293.69927
293.69927
293.69927
293.69927
293.69927
293.69927
293.69927
293.69927
293.69927
293.69927
293.69927
293.69928
293.69928
328.49427
321.29442
314.9371
309.49739
305.02806
301.52045
298.89583
297.02231
295.7445
294.91044
294.3888
294.07614
293.89668
293.79816
293.74654
293.72077
293.70856
293.70308
293.70074
293.69981
293.69946
293.69933
293.69929
293.69928
293.69927
293.69927
293.69927
293.69927
293.69927
293.69927
293.69927
293.69927
293.69927
293.69927
293.69927
293.69927
293.69927
293.69928
293.69928
293.69928
328.72403
321.59798
315.31936
309.94144
305.49998
301.97972
299.30679
297.36229
296.00583
295.09784
294.51458
294.15534
293.94354
293.82425
293.76022
293.72754
293.71172
293.70447
293.70132
293.70004
293.69954
293.69936
293.6993
293.69928
293.69927
293.69927
293.69927
293.69927
293.69927
293.69927
293.69927
293.69927
293.69927
293.69927
293.69927
293.69927
293.69927
293.69928
293.69928
293.69928
328.92897
321.877
315.6673
310.33185
305.89907
302.35197
299.62509
297.61318
296.18913
295.22256
294.594
294.20289
293.97042
293.83865
293.76757
293.73113
293.71339
293.70522
293.70165
293.70017
293.69959
293.69938
293.69931
293.69928
293.69927
293.69927
293.69927
293.69927
293.69927
293.69927
293.69927
293.69927
293.69927
293.69927
293.69927
293.69927
293.69928
293.69928
293.69928
293.69928
328.92897
321.877
315.6673
310.33184
305.89907
302.35197
299.62509
297.61318
296.18913
295.22256
294.594
294.20289
293.97042
293.83865
293.76757
293.73113
293.71339
293.70522
293.70165
293.70017
293.69959
293.69938
293.69931
293.69928
293.69927
293.69927
293.69927
293.69927
293.69927
293.69927
293.69927
293.69927
293.69927
293.69927
293.69927
293.69927
293.69928
293.69928
293.69928
293.69928
328.72402
321.59798
315.31936
309.94143
305.49998
301.97972
299.30679
297.36229
296.00583
295.09784
294.51458
294.15534
293.94354
293.82425
293.76022
293.72754
293.71172
293.70447
293.70132
293.70004
293.69954
293.69936
293.6993
293.69928
293.69927
293.69927
293.69927
293.69927
293.69927
293.69927
293.69927
293.69927
293.69927
293.69927
293.69927
293.69927
293.69927
293.69928
293.69928
293.69928
328.49425
321.2944
314.93709
309.49739
305.02806
301.52045
298.89582
297.02231
295.7445
294.91044
294.3888
294.07614
293.89668
293.79816
293.74653
293.72077
293.70856
293.70308
293.70074
293.69981
293.69946
293.69933
293.69929
293.69928
293.69927
293.69927
293.69927
293.69927
293.69927
293.69927
293.69927
293.69927
293.69927
293.69927
293.69927
293.69927
293.69927
293.69928
293.69928
293.69928
328.37532
321.14306
314.7534
309.28461
304.79604
301.28398
298.67194
296.82543
295.5834
294.78772
294.30148
294.01799
293.86041
293.77696
293.73492
293.71481
293.70569
293.70178
293.7002
293.69959
293.69938
293.6993
293.69928
293.69927
293.69927
293.69927
293.69927
293.69927
293.69927
293.69927
293.69927
293.69927
293.69927
293.69927
293.69927
293.69927
293.69927
293.69927
293.69928
293.69928
328.33488
321.09323
314.69844
309.22621
304.73386
301.21974
298.60752
296.76419
295.52895
294.74221
294.26631
293.99294
293.84386
293.76685
293.7292
293.71181
293.70423
293.70112
293.69992
293.69948
293.69934
293.69929
293.69928
293.69927
293.69927
293.69927
293.69927
293.69927
293.69927
293.69927
293.69927
293.69927
293.69927
293.69927
293.69927
293.69927
293.69927
293.69927
293.69928
293.69929
329.90993
322.67613
316.24531
310.67706
306.02743
302.31001
299.47424
297.41397
295.98868
295.04931
294.46007
294.10837
293.90873
293.80118
293.74627
293.71974
293.70764
293.70244
293.70034
293.69954
293.69926
293.69917
293.69914
293.69913
293.69912
293.69912
293.69912
293.69912
293.69912
293.69912
293.69912
293.69912
293.69912
293.69913
293.69913
293.69913
293.69913
293.69913
293.69913
293.69914
329.96272
322.73839
316.31227
310.74644
306.09943
302.3833
299.54769
297.4848
296.05333
295.10528
294.50513
294.14193
293.93198
293.81611
293.75516
293.72466
293.71018
293.70365
293.70088
293.69977
293.69934
293.6992
293.69915
293.69913
293.69913
293.69912
293.69912
293.69912
293.69912
293.69912
293.69912
293.69912
293.69912
293.69912
293.69913
293.69913
293.69913
293.69913
293.69913
293.69913
330.10547
322.91514
316.52387
310.99067
306.36747
302.66077
299.81663
297.72847
296.25982
295.26887
294.62661
294.22662
293.98738
293.85014
293.77478
293.73527
293.71555
293.70621
293.70201
293.70024
293.69953
293.69926
293.69917
293.69914
293.69913
293.69912
293.69912
293.69912
293.69912
293.69912
293.69912
293.69912
293.69912
293.69913
293.69913
293.69913
293.69913
293.69913
293.69913
293.69913
330.3653
323.25384
316.95111
311.49358
306.914
303.20839
300.32383
298.16457
296.60941
295.53105
294.81107
294.34858
294.06323
293.89453
293.79924
293.74797
293.72176
293.70907
293.70326
293.70075
293.69973
293.69934
293.69919
293.69915
293.69913
293.69913
293.69912
293.69912
293.69912
293.69912
293.69912
293.69912
293.69913
293.69913
293.69913
293.69913
293.69913
293.69913
293.69913
293.69913
330.59243
323.56058
317.33874
311.93799
307.38224
303.66151
300.7278
298.49779
296.86481
295.71365
294.93328
294.42541
294.10874
293.92003
293.8128
293.75484
293.72509
293.71061
293.70394
293.70104
293.69984
293.69938
293.69921
293.69915
293.69913
293.69913
293.69912
293.69912
293.69912
293.69912
293.69912
293.69913
293.69913
293.69913
293.69913
293.69913
293.69913
293.69913
293.69913
293.69913
330.59243
323.56058
317.33874
311.93798
307.38224
303.66151
300.7278
298.49779
296.86481
295.71365
294.93328
294.42541
294.10874
293.92003
293.8128
293.75484
293.72509
293.71061
293.70394
293.70104
293.69984
293.69938
293.69921
293.69915
293.69913
293.69913
293.69912
293.69912
293.69912
293.69912
293.69912
293.69913
293.69913
293.69913
293.69913
293.69913
293.69913
293.69913
293.69913
293.69913
330.36529
323.25383
316.9511
311.49358
306.914
303.20839
300.32383
298.16457
296.60941
295.53105
294.81107
294.34858
294.06323
293.89453
293.79924
293.74797
293.72176
293.70907
293.70326
293.70075
293.69973
293.69934
293.69919
293.69915
293.69913
293.69913
293.69912
293.69912
293.69912
293.69912
293.69912
293.69912
293.69913
293.69913
293.69913
293.69913
293.69913
293.69913
293.69913
293.69913
330.10544
322.91513
316.52386
310.99067
306.36746
302.66076
299.81662
297.72847
296.25982
295.26887
294.62661
294.22662
293.98738
293.85014
293.77478
293.73527
293.71555
293.70621
293.70201
293.70024
293.69953
293.69926
293.69917
293.69914
293.69913
293.69912
293.69912
293.69912
293.69912
293.69912
293.69912
293.69912
293.69912
293.69913
293.69913
293.69913
293.69913
293.69913
293.69913
293.69913
329.96272
322.73838
316.31226
310.74644
306.09943
302.3833
299.54769
297.4848
296.05333
295.10528
294.50513
294.14193
293.93198
293.81611
293.75516
293.72466
293.71018
293.70365
293.70088
293.69977
293.69934
293.6992
293.69915
293.69913
293.69913
293.69912
293.69912
293.69912
293.69912
293.69912
293.69912
293.69912
293.69912
293.69912
293.69913
293.69913
293.69913
293.69913
293.69913
293.69913
329.90992
322.67613
316.2453
310.67705
306.02742
302.31001
299.47424
297.41397
295.98868
295.04931
294.46007
294.10837
293.90873
293.80118
293.74627
293.71974
293.70764
293.70244
293.70034
293.69954
293.69926
293.69917
293.69914
293.69913
293.69912
293.69912
293.69912
293.69912
293.69912
293.69912
293.69912
293.69912
293.69912
293.69913
293.69913
293.69913
293.69913
293.69913
293.69913
293.69914
331.23053
324.00512
317.55047
311.91339
307.1468
303.27306
300.25929
298.01987
296.43151
295.35584
294.66104
294.2331
293.98191
293.84171
293.7674
293.73007
293.71234
293.7044
293.70105
293.69972
293.69923
293.69906
293.699
293.69898
293.69898
293.69898
293.69898
293.69898
293.69898
293.69898
293.69898
293.69898
293.69898
293.69898
293.69898
293.69898
293.69898
293.69898
293.69899
293.69899
331.29349
324.07795
317.62815
311.9931
307.22832
303.35502
300.34102
298.0991
296.50498
295.421
294.71511
294.27481
294.01195
293.86181
293.77991
293.73732
293.71626
293.70637
293.70197
293.70012
293.69939
293.69912
293.69902
293.69899
293.69898
293.69898
293.69898
293.69898
293.69898
293.69898
293.69898
293.69898
293.69898
293.69898
293.69898
293.69898
293.69898
293.69898
293.69898
293.69898
331.45431
324.27425
317.86154
312.26211
307.52501
303.66561
300.64728
298.38286
296.75198
295.62282
294.87023
294.38709
294.08843
293.91085
293.80948
293.75408
293.72516
293.7108
293.70404
293.70102
293.69976
293.69926
293.69907
293.69901
293.69899
293.69898
293.69898
293.69898
293.69898
293.69898
293.69898
293.69898
293.69898
293.69898
293.69898
293.69898
293.69898
293.69898
293.69899
293.69899
331.73458
324.63678
318.31974
312.80702
308.12729
304.28277
301.23442
298.90333
297.18351
295.95853
295.11591
294.55646
294.19847
293.97823
293.84835
293.77519
293.73597
293.71601
293.7064
293.70204
293.70017
293.69941
293.69913
293.69903
293.69899
293.69898
293.69898
293.69898
293.69898
293.69898
293.69898
293.69898
293.69898
293.69898
293.69898
293.69898
293.69898
293.69898
293.69899
293.69899
331.97571
324.9609
318.73315
313.28927
308.64733
304.80067
301.71172
299.3118
297.50929
296.20145
295.28575
294.66806
294.26756
294.01863
293.87073
293.78697
293.74187
293.71884
293.7077
293.70261
293.70041
293.69951
293.69916
293.69904
293.699
293.69898
293.69898
293.69898
293.69898
293.69898
293.69898
293.69898
293.69898
293.69898
293.69898
293.69898
293.69898
293.69898
293.69899
293.69899
331.9757
324.9609
318.73315
313.28927
308.64733
304.80067
301.71172
299.3118
297.50929
296.20145
295.28575
294.66806
294.26756
294.01863
293.87073
293.78697
293.74187
293.71884
293.7077
293.70261
293.70041
293.69951
293.69916
293.69904
293.699
293.69898
293.69898
293.69898
293.69898
293.69898
293.69898
293.69898
293.69898
293.69898
293.69898
293.69898
293.69898
293.69898
293.69899
293.69899
331.73457
324.63677
318.31974
312.80701
308.12729
304.28277
301.23442
298.90333
297.18351
295.95852
295.11591
294.55646
294.19847
293.97823
293.84835
293.77519
293.73597
293.71601
293.7064
293.70204
293.70017
293.69941
293.69913
293.69903
293.69899
293.69898
293.69898
293.69898
293.69898
293.69898
293.69898
293.69898
293.69898
293.69898
293.69898
293.69898
293.69898
293.69898
293.69899
293.69899
331.45429
324.27423
317.86153
312.26211
307.525
303.66561
300.64728
298.38286
296.75198
295.62281
294.87023
294.38709
294.08843
293.91085
293.80948
293.75408
293.72516
293.7108
293.70404
293.70102
293.69976
293.69926
293.69907
293.69901
293.69899
293.69898
293.69898
293.69898
293.69898
293.69898
293.69898
293.69898
293.69898
293.69898
293.69898
293.69898
293.69898
293.69898
293.69899
293.69899
331.29348
324.07794
317.62815
311.99309
307.22831
303.35502
300.34102
298.0991
296.50498
295.421
294.71511
294.27481
294.01195
293.86181
293.77991
293.73732
293.71626
293.70637
293.70197
293.70012
293.69939
293.69912
293.69902
293.69899
293.69898
293.69898
293.69898
293.69898
293.69898
293.69898
293.69898
293.69898
293.69898
293.69898
293.69898
293.69898
293.69898
293.69898
293.69898
293.69898
331.23052
324.00511
317.55046
311.91338
307.14679
303.27305
300.25929
298.01987
296.43151
295.35584
294.66104
294.2331
293.98191
293.84171
293.7674
293.73007
293.71234
293.7044
293.70105
293.69972
293.69923
293.69906
293.699
293.69898
293.69898
293.69898
293.69898
293.69898
293.69898
293.69898
293.69898
293.69898
293.69898
293.69898
293.69898
293.69898
293.69898
293.69898
293.69899
293.69899
332.36757
325.15052
318.67937
312.99045
308.13298
304.13452
300.97491
298.58454
296.85471
295.6571
294.86474
294.36384
294.06143
293.88747
293.79224
293.74276
293.7184
293.70707
293.7021
293.70005
293.69926
293.69897
293.69888
293.69884
293.69884
293.69883
293.69883
293.69883
293.69883
293.69883
293.69883
293.69883
293.69883
293.69883
293.69883
293.69883
293.69884
293.69884
293.69884
293.69884
332.43887
325.23228
318.7665
313.07968
308.22358
304.22489
301.06452
298.6715
296.93607
295.73046
294.92699
294.41318
294.0981
293.91288
293.80867
293.75266
293.72397
293.70999
293.70353
293.7007
293.69953
293.69908
293.69891
293.69886
293.69884
293.69883
293.69883
293.69883
293.69883
293.69883
293.69883
293.69883
293.69883
293.69883
293.69883
293.69883
293.69883
293.69884
293.69884
293.69884
332.61356
325.44377
319.01708
313.36852
308.54345
304.56262
301.40191
298.98954
297.21878
295.96717
295.11405
294.55283
294.19651
293.97833
293.84971
293.77689
293.73741
293.71699
293.70694
293.70226
293.7002
293.69934
293.69901
293.69889
293.69885
293.69884
293.69883
293.69883
293.69883
293.69883
293.69883
293.69883
293.69883
293.69883
293.69883
293.69883
293.69884
293.69884
293.69884
293.69884
332.90775
325.82249
319.49666
313.94349
309.18745
305.23426
302.05465
299.58248
297.724
296.37219
295.42031
294.77156