/*--------------------------------*- C++ -*----------------------------------*\
| =========                 |                                                 |
| \\      /  F ield         | OpenFOAM: The Open Source CFD Toolbox           |
|  \\    /   O peration     | Version:  4.0                                   |
|   \\  /    A nd           | Web:      www.OpenFOAM.org                      |
|    \\/     M anipulation  |                                                 |
\*---------------------------------------------------------------------------*/
FoamFile
{
    version     2.0;
    format      ascii;
    class       volScalarField;
    location    "2000";
    object      T;
}
// * * * * * * * * * * * * * * * * * * * * * * * * * * * * * * * * * * * * * //

dimensions      [0 0 0 1 0 0 0];

internalField   nonuniform List<scalar> 
100000
(
324.66235
322.68804
320.60167
318.42158
316.17205
313.88296
311.58897
309.32808
307.13967
305.0621
303.13022
301.37295
299.81131
298.45713
297.31288
296.37195
295.62022
295.03778
294.60108
294.28499
294.06481
293.9177
293.82376
293.76672
293.73392
293.71614
293.70711
293.70285
293.70099
293.70024
293.69996
293.69987
293.69985
293.69984
293.69984
293.69984
293.69984
293.69984
293.69984
293.69984
293.69984
293.69984
293.69984
293.69984
293.69984
293.69984
293.69984
293.69984
293.69984
293.69984
324.4788
322.50466
320.41972
318.24266
315.99798
313.71573
311.43055
309.18034
307.00423
304.94022
303.02262
301.27975
299.73206
298.39102
297.25863
296.32828
295.58574
295.01112
294.58094
294.27022
294.05431
293.91052
293.8191
293.76383
293.73223
293.71522
293.70666
293.70264
293.7009
293.70021
293.69995
293.69987
293.69984
293.69984
293.69984
293.69984
293.69984
293.69984
293.69984
293.69984
293.69984
293.69984
293.69984
293.69984
293.69984
293.69984
293.69984
293.69984
293.69984
293.69984
323.98967
321.99014
319.88927
317.70642
315.46639
313.19894
310.93798
308.72012
306.58275
304.5619
302.68982
300.99288
299.48982
298.19069
297.09658
296.20016
295.48694
294.93701
294.52704
294.23236
294.02877
293.89404
293.80898
293.75796
293.72904
293.7136
293.70589
293.70231
293.70077
293.70016
293.69994
293.69986
293.69984
293.69984
293.69984
293.69984
293.69984
293.69984
293.69984
293.69984
293.69984
293.69984
293.69984
293.69984
293.69984
293.69984
293.69984
293.69984
293.69984
293.69984
321.92971
319.9577
317.91886
315.82922
313.70909
311.58282
309.47822
307.42551
305.45582
303.59941
301.88364
300.33107
298.95781
297.7724
296.77543
295.95982
295.31199
294.81345
294.44265
294.17682
293.99377
293.87295
293.7969
293.7514
293.72566
293.71197
293.70516
293.702
293.70065
293.70012
293.69992
293.69986
293.69984
293.69984
293.69984
293.69984
293.69984
293.69984
293.69984
293.69984
293.69984
293.69984
293.69984
293.69984
293.69984
293.69984
293.69984
293.69984
293.69984
293.69984
313.95951
312.95804
311.83383
310.59659
309.26139
307.84855
306.38367
304.89636
303.41887
301.98413
300.62364
299.36551
298.23213
297.23811
296.39079
295.68952
295.12694
294.69024
294.36316
294.12731
293.96399
293.85581
293.78746
293.74647
293.72324
293.71085
293.70467
293.70181
293.70058
293.70009
293.69992
293.69986
293.69984
293.69984
293.69984
293.69984
293.69984
293.69984
293.69984
293.69984
293.69984
293.69984
293.69984
293.69984
293.69984
293.69984
293.69984
293.69984
293.69984
293.69984
313.95876
312.95725
311.83292
310.59554
309.26035
307.84785
306.38368
304.8974
303.42114
301.98774
300.62851
299.37112
298.23747
297.24218
296.39324
295.69063
295.12725
294.69045
294.36339
294.12753
293.96419
293.85593
293.78754
293.74652
293.72326
293.71086
293.70468
293.70181
293.70058
293.70009
293.69992
293.69986
293.69984
293.69984
293.69984
293.69984
293.69984
293.69984
293.69984
293.69984
293.69984
293.69984
293.69984
293.69984
293.69984
293.69984
293.69984
293.69984
293.69984
293.69984
321.92626
319.95469
317.91625
315.82701
313.70731
311.58153
309.47753
307.42551
305.45658
303.60095
301.88585
300.33374
298.96064
297.7751
296.77775
295.96167
295.3134
294.81451
294.44343
294.17737
293.99407
293.87315
293.79701
293.75146
293.72569
293.71199
293.70516
293.702
293.70065
293.70012
293.69992
293.69986
293.69984
293.69984
293.69984
293.69984
293.69984
293.69984
293.69984
293.69984
293.69984
293.69984
293.69984
293.69984
293.69984
293.69984
293.69984
293.69984
293.69984
293.69984
323.98936
321.99026
319.88974
317.70721
315.46743
313.20019
310.93939
308.72162
306.58431
304.56346
302.69132
300.99429
299.49109
298.1918
297.09752
296.20094
295.48757
294.9375
294.5274
294.23261
294.02894
293.89414
293.80904
293.758
293.72906
293.71361
293.7059
293.70231
293.70077
293.70016
293.69994
293.69986
293.69984
293.69984
293.69984
293.69984
293.69984
293.69984
293.69984
293.69984
293.69984
293.69984
293.69984
293.69984
293.69984
293.69984
293.69984
293.69984
293.69984
293.69984
324.49321
322.5178
320.4316
318.25331
316.00743
313.72401
311.43773
309.18648
307.00939
304.94448
303.02607
301.28249
299.7342
298.39265
297.25985
296.32917
295.58637
295.01157
294.58124
294.27042
294.05444
293.9106
293.81915
293.76386
293.73224
293.71523
293.70666
293.70264
293.7009
293.70021
293.69995
293.69987
293.69984
293.69984
293.69984
293.69984
293.69984
293.69984
293.69984
293.69984
293.69984
293.69984
293.69984
293.69984
293.69984
293.69984
293.69984
293.69984
293.69984
293.69984
324.68025
322.70462
320.61687
318.43538
316.18443
313.89392
311.59854
309.3363
307.14661
305.06785
303.13489
301.37667
299.8142
298.45933
297.31452
296.37315
295.62107
295.03836
294.60148
294.28525
294.06498
293.91781
293.82383
293.76675
293.73394
293.71615
293.70712
293.70285
293.70099
293.70024
293.69996
293.69987
293.69985
293.69984
293.69984
293.69984
293.69984
293.69984
293.69984
293.69984
293.69984
293.69984
293.69984
293.69984
293.69984
293.69984
293.69984
293.69984
293.69984
293.69984
332.29228
330.5323
328.65666
326.66743
324.5698
322.37287
320.09035
317.74106
315.3493
312.94458
310.56109
308.2363
306.00907
303.91725
301.99534
300.27154
298.76604
297.48919
296.44082
295.61027
294.9779
294.51704
294.19692
293.98614
293.85515
293.77871
293.73708
293.71606
293.70627
293.70211
293.7005
293.69993
293.69976
293.69971
293.69969
293.69969
293.69969
293.69969
293.69969
293.69969
293.69969
293.69969
293.69969
293.69969
293.69969
293.69969
293.69969
293.69969
293.69969
293.69969
331.96069
330.20015
328.32514
326.33827
324.2453
322.05583
319.78392
317.44862
315.07419
312.6899
310.32927
308.02885
305.82644
303.75892
301.85971
300.15669
298.66972
297.40924
296.3753
295.55769
294.9369
294.48627
294.17506
293.97167
293.84612
293.77354
293.73434
293.71477
293.70574
293.70191
293.70043
293.69991
293.69975
293.6997
293.69969
293.69969
293.69969
293.69969
293.69969
293.69969
293.69969
293.69969
293.69969
293.69969
293.69969
293.69969
293.69969
293.69969
293.69969
293.69969
331.20659
329.40136
327.49215
325.48274
323.3797
321.19304
318.93671
316.6291
314.29325
311.95668
309.65088
307.41025
305.27047
303.2666
301.43067
299.78942
298.36191
297.15779
296.17625
295.40597
294.82707
294.41052
294.12559
293.94124
293.82888
293.76456
293.73008
293.71291
293.70499
293.70164
293.70034
293.69989
293.69974
293.6997
293.69969
293.69969
293.69969
293.69969
293.69969
293.69969
293.69969
293.69969
293.69969
293.69969
293.69969
293.69969
293.69969
293.69969
293.69969
293.69969
328.53011
326.74708
324.8914
322.96475
320.97074
318.91561
316.80903
314.66477
312.50125
310.34171
308.21398
306.14927
304.18042
302.34
300.6581
299.15985
297.86268
296.77448
295.89358
295.20566
294.69056
294.32275
294.07268
293.91134
293.81301
293.75665
293.72644
293.71136
293.70439
293.70142
293.70027
293.69987
293.69974
293.6997
293.69969
293.69969
293.69969
293.69969
293.69969
293.69969
293.69969
293.69969
293.69969
293.69969
293.69969
293.69969
293.69969
293.69969
293.69969
293.69969
320.10511
319.25049
318.26541
317.14774
315.89899
314.52409
313.03371
311.44206
309.77096
308.04863
306.30818
304.58388
302.91193
301.328
299.86395
298.54982
297.40616
296.44294
295.66036
295.04854
294.59008
294.26173
294.03756
293.89227
293.80328
293.75198
293.72432
293.71045
293.70402
293.70129
293.70023
293.69985
293.69973
293.6997
293.69969
293.69969
293.69969
293.69969
293.69969
293.69969
293.69969
293.69969
293.69969
293.69969
293.69969
293.69969
293.69969
293.69969
293.69969
293.69969
320.10589
319.25123
318.26612
317.14852
315.89963
314.52529
313.03517
311.44605
309.77845
308.05807
306.31432
304.58423
302.90645
301.31909
299.85751
298.54702
297.40611
296.44427
295.66107
295.04926
294.59086
294.26225
294.03786
293.89243
293.80335
293.75202
293.72433
293.71045
293.70402
293.70129
293.70023
293.69985
293.69973
293.6997
293.69969
293.69969
293.69969
293.69969
293.69969
293.69969
293.69969
293.69969
293.69969
293.69969
293.69969
293.69969
293.69969
293.69969
293.69969
293.69969
328.53347
326.75036
324.89461
322.96789
320.97384
318.91879
316.81241
314.66855
312.50553
310.34622
308.21808
306.15232
304.18214
302.34063
300.65827
299.16009
297.86317
296.77518
295.89427
295.2063
294.6911
294.32336
294.07308
293.91157
293.81312
293.7567
293.72646
293.71137
293.70439
293.70142
293.70027
293.69987
293.69974
293.6997
293.69969
293.69969
293.69969
293.69969
293.69969
293.69969
293.69969
293.69969
293.69969
293.69969
293.69969
293.69969
293.69969
293.69969
293.69969
293.69969
331.21484
329.40952
327.50015
325.49051
323.38719
321.20019
318.94348
316.63542
314.29906
311.96192
309.65555
307.41436
305.27411
303.26982
301.43353
299.79191
298.36403
297.15953
296.17764
295.40705
294.82788
294.41108
294.12584
293.94134
293.82899
293.76459
293.7301
293.71291
293.70499
293.70164
293.70034
293.69989
293.69974
293.6997
293.69969
293.69969
293.69969
293.69969
293.69969
293.69969
293.69969
293.69969
293.69969
293.69969
293.69969
293.69969
293.69969
293.69969
293.69969
293.69969
331.98213
330.22022
328.34383
326.35558
324.26121
322.07035
319.79705
317.4604
315.08464
312.69909
310.33727
308.03576
305.83236
303.76394
301.86391
300.16015
298.67251
297.41144
296.37698
295.55895
294.9378
294.4869
294.17546
293.97172
293.84621
293.77355
293.73436
293.71478
293.70575
293.70192
293.70044
293.69992
293.69975
293.6997
293.69969
293.69969
293.69969
293.69969
293.69969
293.69969
293.69969
293.69969
293.69969
293.69969
293.69969
293.69969
293.69969
293.69969
293.69969
293.69969
332.31734
330.55596
328.67886
326.68809
324.58889
322.39035
320.1062
317.75528
315.3619
312.95561
310.57061
308.2444
306.01585
303.92283
301.99984
300.27509
298.76878
297.49124
296.4423
295.6113
294.97858
294.51746
294.19716
293.98626
293.85521
293.77874
293.73711
293.71608
293.70628
293.70212
293.7005
293.69993
293.69976
293.69971
293.69969
293.69969
293.69969
293.69969
293.69969
293.69969
293.69969
293.69969
293.69969
293.69969
293.69969
293.69969
293.69969
293.69969
293.69969
293.69969
335.8736
334.21876
332.45289
330.5746
328.58419
326.4843
324.28051
321.98215
319.60307
317.16249
314.6855
312.2032
309.75226
307.3738
305.11092
303.00612
301.09755
299.41544
297.97881
296.79374
295.85266
295.13576
294.61407
294.25288
294.01602
293.8697
293.78504
293.73944
293.71671
293.70631
293.70197
293.70033
293.69977
293.6996
293.69956
293.69955
293.69954
293.69954
293.69954
293.69954
293.69954
293.69954
293.69954
293.69954
293.69954
293.69954
293.69954
293.69954
293.69954
293.69954
335.50076
333.84487
332.07868
330.20135
328.21377
326.11913
323.92355
321.63678
319.27301
316.8515
314.39714
311.94059
309.51789
307.16904
304.93633
302.86102
300.98014
299.32292
297.90794
296.74084
295.81425
295.10882
294.59575
294.24091
294.00864
293.86545
293.78276
293.73832
293.71622
293.70612
293.7019
293.70031
293.69977
293.6996
293.69956
293.69955
293.69954
293.69954
293.69954
293.69954
293.69954
293.69954
293.69954
293.69954
293.69954
293.69954
293.69954
293.69954
293.69954
293.69954
334.71611
333.01229
331.20862
329.30546
327.30466
325.21002
323.02787
320.76776
318.44317
316.0722
313.67811
311.28948
308.93984
306.66661
304.50918
302.50626
300.69264
299.09598
297.73376
296.61135
295.72142
295.04488
294.55374
294.21474
293.99331
293.85707
293.77854
293.73637
293.71539
293.7058
293.7018
293.70028
293.69976
293.6996
293.69956
293.69955
293.69954
293.69954
293.69954
293.69954
293.69954
293.69954
293.69954
293.69954
293.69954
293.69954
293.69954
293.69954
293.69954
293.69954
332.00048
330.31879
328.56789
326.74608
324.85253
322.88779
320.85451
318.75826
316.60841
314.41897
312.20918
310.00355
307.8319
305.72843
303.72974
301.87221
300.18891
298.7064
297.44167
296.39996
295.57436
294.94708
294.4919
294.17775
293.97245
293.84604
293.77309
293.73388
293.71435
293.7054
293.70165
293.70023
293.69974
293.6996
293.69956
293.69955
293.69954
293.69954
293.69954
293.69954
293.69954
293.69954
293.69954
293.69954
293.69954
293.69954
293.69954
293.69954
293.69954
293.69955
323.59223
322.82683
321.93453
320.91045
319.75182
318.45859
317.03395
315.48507
313.82374
312.06731
310.23919
308.36819
306.48856
304.63855
302.85898
301.18907
299.66359
298.31215
297.15441
296.19864
295.43911
294.86023
294.43862
294.14672
293.95535
293.83716
293.76875
293.73185
293.71346
293.70504
293.70152
293.70018
293.69973
293.69959
293.69956
293.69955
293.69954
293.69954
293.69954
293.69954
293.69954
293.69954
293.69954
293.69954
293.69954
293.69954
293.69954
293.69954
293.69954
293.69954
323.59379
322.82839
321.9361
320.91203
319.75338
318.46002
317.03517
315.48613
313.8249
312.0686
310.24025
308.36896
306.48891
304.6383
302.85736
301.18655
299.66282
298.31394
297.15786
296.20102
295.44006
294.86031
294.43868
294.14683
293.95549
293.83726
293.76876
293.73185
293.71346
293.70504
293.70152
293.70018
293.69973
293.69959
293.69956
293.69955
293.69954
293.69954
293.69954
293.69954
293.69954
293.69954
293.69954
293.69954
293.69954
293.69954
293.69954
293.69954
293.69954
293.69954
332.006
330.32426
328.57331
326.75144
324.85782
322.89298
320.85958
318.76319
316.61318
314.42352
312.21346
310.00749
307.83541
305.7315
303.7324
301.8746
300.19125
298.70874
297.44382
296.40162
295.57542
294.94766
294.49215
294.17781
293.97243
293.84601
293.77312
293.73391
293.71437
293.7054
293.70165
293.70023
293.69974
293.6996
293.69956
293.69955
293.69954
293.69954
293.69954
293.69954
293.69954
293.69954
293.69954
293.69954
293.69954
293.69954
293.69954
293.69954
293.69954
293.69955
334.72649
333.02258
331.21875
329.31537
327.31429
325.2193
323.03676
320.77619
318.4511
316.0796
313.68494
311.29572
308.94549
306.67166
304.51364
302.51015
300.69601
299.09885
297.73614
296.61322
295.7228
295.04582
294.5543
294.21505
293.99346
293.85714
293.77856
293.73637
293.71539
293.70581
293.7018
293.70028
293.69976
293.6996
293.69956
293.69955
293.69954
293.69954
293.69954
293.69954
293.69954
293.69954
293.69954
293.69954
293.69954
293.69954
293.69954
293.69954
293.69954
293.69954
335.52231
333.86526
332.09791
330.21939
328.23062
326.13477
323.93797
321.64996
319.28497
316.86223
314.40666
311.94893
309.52511
307.17519
304.9415
302.86529
300.98362
299.32571
297.91014
296.74254
295.81553
295.10975
294.5964
294.24132
294.00889
293.86559
293.78284
293.73836
293.71624
293.70613
293.70191
293.70031
293.69977
293.6996
293.69956
293.69955
293.69954
293.69954
293.69954
293.69954
293.69954
293.69954
293.69954
293.69954
293.69954
293.69954
293.69954
293.69954
293.69954
293.69954
335.89827
334.24225
332.47515
330.59556
328.60381
326.50253
324.29731
321.99748
319.61691
317.17483
314.69635
312.21258
309.76022
307.38043
305.11631
303.0104
301.10086
299.41794
297.98064
296.79504
295.85356
295.13636
294.61446
294.25312
294.01616
293.86979
293.78509
293.73946
293.71672
293.70632
293.70197
293.70033
293.69977
293.6996
293.69956
293.69955
293.69954
293.69954
293.69954
293.69954
293.69954
293.69954
293.69954
293.69954
293.69954
293.69954
293.69954
293.69954
293.69954
293.69954
337.95094
336.35815
334.65831
332.84925
330.92999
328.90121
326.7657
324.52899
322.20006
319.79223
317.32389
314.81921
312.30845
309.82794
307.41877
305.12516
302.99128
301.05747
299.3559
297.90728
296.718
295.77976
295.07136
294.56136
294.21275
293.98767
293.85115
293.77382
293.73317
293.71348
293.70475
293.70124
293.69997
293.69955
293.69943
293.6994
293.6994
293.6994
293.6994
293.6994
293.6994
293.6994
293.6994
293.6994
293.6994
293.6994
293.6994
293.6994
293.6994
293.6994
337.5597
335.96556
334.26477
332.45566
330.5378
328.51238
326.3827
324.15475
321.8379
319.44563
316.99636
314.51412
312.02894
309.57651
307.19759
304.9355
302.83344
300.9305
299.25792
297.83506
296.66764
295.74704
295.05164
294.55056
294.20766
293.98581
293.85082
293.77403
293.73346
293.71369
293.70487
293.70129
293.69999
293.69956
293.69944
293.69941
293.6994
293.6994
293.6994
293.6994
293.6994
293.6994
293.6994
293.6994
293.6994
293.6994
293.6994
293.6994
293.6994
293.6994
336.7712
335.12847
333.38916
331.5528
329.61989
327.59229
325.47359
323.26973
320.98963
318.64601
316.25612
313.84244
311.43301
309.06125
306.76499
304.58451
302.5598
300.72701
299.11481
297.74117
296.61127
295.71708
295.03867
294.54721
294.20875
293.98824
293.85308
293.77563
293.7344
293.71417
293.70509
293.70138
293.70002
293.69957
293.69944
293.69941
293.6994
293.6994
293.6994
293.6994
293.6994
293.6994
293.6994
293.6994
293.6994
293.6994
293.6994
293.6994
293.6994
293.6994
334.10258
332.48258
330.79671
329.04255
327.21807
325.32199
323.35443
321.31755
319.21634
317.05951
314.8603
312.63715
310.41403
308.2202
306.08942
304.05831
302.16387
300.44037
298.91604
297.60982
296.52909
295.66865
295.01188
294.53327
294.20181
293.98487
293.85145
293.77483
293.73401
293.71398
293.70499
293.70133
293.7
293.69956
293.69944
293.69941
293.6994
293.6994
293.6994
293.6994
293.6994
293.6994
293.6994
293.6994
293.6994
293.6994
293.6994
293.6994
293.6994
293.6994
325.79659
325.08922
324.25909
323.3006
322.20979
320.98481
319.6263
318.13793
316.52681
314.80379
312.98616
311.09647
309.16322
307.21809
305.29789
303.44242
301.69271
300.08575
298.65379
297.42013
296.39711
295.58039
294.95527
294.49847
294.18096
293.97286
293.84486
293.77141
293.73238
293.71325
293.7047
293.70123
293.69997
293.69955
293.69944
293.69941
293.6994
293.6994
293.6994
293.6994
293.6994
293.6994
293.6994
293.6994
293.6994
293.6994
293.6994
293.6994
293.6994
293.6994
325.79848
325.0911
324.26094
323.30239
322.21149
320.98628
319.6274
318.13873
316.52804
314.8066
312.99064
311.10221
309.16794
307.21945
305.29665
303.44042
301.69108
300.08724
298.65961
297.42885
296.40326
295.58283
294.95483
294.49667
294.17982
293.97242
293.84478
293.77145
293.73239
293.71326
293.7047
293.70123
293.69997
293.69956
293.69944
293.69941
293.6994
293.6994
293.6994
293.6994
293.6994
293.6994
293.6994
293.6994
293.6994
293.6994
293.6994
293.6994
293.6994
293.6994
334.10919
332.48922
330.80339
329.04927
327.22483
325.32879
323.36129
321.32448
319.22339
317.06671
314.86762
312.64449
310.42119
308.227
306.09583
304.06441
302.16983
300.44633
298.92183
297.6149
296.53277
295.67074
295.01269
294.53337
294.20172
293.98481
293.85147
293.77488
293.73404
293.714
293.70499
293.70134
293.7
293.69956
293.69944
293.69941
293.6994
293.6994
293.6994
293.6994
293.6994
293.6994
293.6994
293.6994
293.6994
293.6994
293.6994
293.6994
293.6994
293.6994
336.78199
335.13925
333.39989
331.56344
329.6304
327.60263
325.48372
323.27962
320.99926
318.65534
316.26512
313.85108
311.44125
309.06905
306.7723
304.5913
302.56604
300.73266
299.11981
297.74539
296.61461
295.71949
295.04024
294.54814
294.20925
293.9885
293.85322
293.77569
293.73443
293.71419
293.7051
293.70139
293.70002
293.69957
293.69944
293.69941
293.6994
293.6994
293.6994
293.6994
293.6994
293.6994
293.6994
293.6994
293.6994
293.6994
293.6994
293.6994
293.6994
293.6994
337.57996
335.98486
334.2831
332.47299
330.55414
328.5277
326.397
324.16801
321.85011
319.45678
317.00644
314.52314
312.03692
309.58347
307.20359
304.9406
302.83771
300.93403
299.26079
297.83736
296.66942
295.74837
295.05257
294.55116
294.20802
293.986
293.85091
293.77407
293.73348
293.71369
293.70487
293.70129
293.69999
293.69956
293.69944
293.69941
293.6994
293.6994
293.6994
293.6994
293.6994
293.6994
293.6994
293.6994
293.6994
293.6994
293.6994
293.6994
293.6994
293.6994
337.97379
336.38001
334.67913
332.86897
330.94857
328.91862
326.78188
324.54391
322.21368
319.80452
317.33484
314.82881
312.31671
309.83491
307.42451
305.12977
302.99488
301.0602
299.35791
297.90871
296.719
295.78044
295.07181
294.56164
294.21293
293.98777
293.85121
293.77385
293.73319
293.71349
293.70476
293.70124
293.69997
293.69955
293.69943
293.6994
293.6994
293.6994
293.6994
293.6994
293.6994
293.6994
293.6994
293.6994
293.6994
293.6994
293.6994
293.6994
293.6994
293.6994
339.32422
337.77276
336.117
334.35446
332.48364
330.50436
328.41816
326.22879
323.94285
321.57057
319.12655
316.63055
314.10809
311.59093
309.1164
306.7267
304.46644
302.37948
300.50459
298.87163
297.49751
296.38426
295.51943
294.87749
294.42408
294.12083
293.92978
293.81704
293.75512
293.72368
293.70902
293.7028
293.70041
293.69959
293.69934
293.69927
293.69925
293.69925
293.69925
293.69925
293.69925
293.69925
293.69925
293.69925
293.69925
293.69925
293.69925
293.69925
293.69925
293.69925
338.92744
337.37447
335.71739
333.95416
332.0838
330.10659
328.02454
325.84181
323.5654
321.20571
318.77743
316.30031
313.79989
311.30756
308.86075
306.50119
304.27293
302.21884
300.37678
298.77495
297.42895
296.33975
295.49358
294.86493
294.42004
294.12137
293.93207
293.81943
293.75693
293.72479
293.7096
293.70306
293.70051
293.69962
293.69935
293.69927
293.69926
293.69925
293.69925
293.69925
293.69925
293.69925
293.69925
293.69925
293.69925
293.69925
293.69925
293.69925
293.69925
293.69925
338.14893
336.54774
334.85225
333.06161
331.17572
329.19552
327.12334
324.96335
322.72218
320.40966
318.03956
315.63045
313.20626
310.79652
308.43603
306.16356
304.01966
302.04353
300.26938
298.72275
297.41766
296.35499
295.52271
294.89792
294.45012
294.14509
293.94866
293.82983
293.76277
293.72773
293.71094
293.7036
293.70071
293.69968
293.69937
293.69928
293.69926
293.69925
293.69925
293.69925
293.69925
293.69925
293.69925
293.69925
293.69925
293.69925
293.69925
293.69925
293.69925
293.69925
335.53839
333.9606
332.3195
330.61235
328.83659
326.99017
325.07205
323.08277
321.02518
318.90521
316.73273
314.52224
312.29343
310.07119
307.8854
305.77
303.76123
301.8951
300.20428
298.71508
297.44446
296.39781
295.56812
294.93754
294.48012
294.16512
293.96057
293.83613
293.76564
293.72888
293.71129
293.70368
293.70071
293.69968
293.69936
293.69928
293.69926
293.69925
293.69925
293.69925
293.69925
293.69925
293.69925
293.69925
293.69925
293.69925
293.69925
293.69925
293.69925
293.69925
327.32237
326.65568
325.86952
324.95805
323.91688
322.74338
321.43712
320.00007
318.437
316.75549
314.96895
313.09621
311.16148
309.19022
307.21374
305.26773
303.39353
301.63147
300.01685
298.58145
297.34887
296.3325
295.52503
294.90998
294.46275
294.15328
293.95263
293.83145
293.76328
293.72771
293.7108
293.70349
293.70065
293.69966
293.69936
293.69928
293.69926
293.69925
293.69925
293.69925
293.69925
293.69925
293.69925
293.69925
293.69925
293.69925
293.69925
293.69925
293.69925
293.69925
327.3247
326.658
325.8718
324.96028
323.91901
322.74532
321.43862
320.00121
318.43874
316.75929
314.97571
313.10531
311.16924
309.19213
307.21052
305.26441
303.39156
301.6317
300.02345
298.59629
297.36891
296.34685
295.53134
294.9099
294.45979
294.15211
293.95288
293.83156
293.76321
293.72769
293.71079
293.70349
293.70065
293.69966
293.69936
293.69928
293.69926
293.69925
293.69925
293.69925
293.69925
293.69925
293.69925
293.69925
293.69925
293.69925
293.69925
293.69925
293.69925
293.69925
335.54653
333.9689
332.32798
330.62104
328.84554
326.99942
325.08166
323.09281
321.03575
318.9164
316.74453
314.53452
312.30586
310.08345
307.89739
305.78183
303.77308
301.90713
300.21653
298.72701
297.45482
296.40516
295.5721
294.93891
294.48015
294.16488
293.96041
293.83606
293.76563
293.72888
293.7113
293.70368
293.70071
293.69968
293.69936
293.69928
293.69926
293.69925
293.69925
293.69925
293.69925
293.69925
293.69925
293.69925
293.69925
293.69925
293.69925
293.69925
293.69925
293.69925
338.16081
336.55972
334.86433
333.07375
331.18792
329.20777
327.13564
324.9757
322.73459
320.42212
318.05208
315.64299
313.21876
310.80891
308.4482
306.17539
304.03101
302.05425
300.27928
298.73159
297.42511
296.36076
295.52673
294.9004
294.45147
294.14574
293.94895
293.82995
293.76281
293.72775
293.71095
293.70361
293.70071
293.69969
293.69937
293.69928
293.69926
293.69925
293.69925
293.69925
293.69925
293.69925
293.69925
293.69925
293.69925
293.69925
293.69925
293.69925
293.69925
293.69925
338.94721
337.39344
335.73555
333.97151
332.10033
330.12229
328.03941
325.85584
323.57858
321.21803
318.78888
316.31089
313.8096
311.31641
308.86876
306.50837
304.27931
302.22445
300.38165
298.7791
297.43238
296.34248
295.49561
294.86633
294.42093
294.12187
293.93233
293.81955
293.75697
293.7248
293.70961
293.70306
293.70051
293.69962
293.69935
293.69927
293.69926
293.69925
293.69925
293.69925
293.69925
293.69925
293.69925
293.69925
293.69925
293.69925
293.69925
293.69925
293.69925
293.69925
339.3458
337.79351
336.13688
334.37342
332.50164
330.52136
328.4341
326.24364
323.95657
321.58313
319.13791
316.64069
314.117
311.59863
309.12291
306.73209
304.4708
302.38292
300.50724
298.87363
297.49898
296.38533
295.52018
294.87802
294.42443
294.12104
293.9299
293.81711
293.75515
293.72369
293.70903
293.7028
293.70041
293.69959
293.69934
293.69927
293.69925
293.69925
293.69925
293.69925
293.69925
293.69925
293.69925
293.69925
293.69925
293.69925
293.69925
293.69925
293.69925
293.69925
340.35966
338.83941
337.21702
335.48987
333.6562
331.71539
329.66826
327.51754
325.26838
322.92907
320.51173
318.03304
315.51504
312.98575
310.47894
308.034
305.6942
303.50408
301.50561
299.73435
298.21478
296.95742
295.95798
295.19751
294.64578
294.26592
294.01899
293.86825
293.78236
293.73699
293.71492
293.70511
293.70117
293.69974
293.69928
293.69915
293.69911
293.69911
293.6991
293.6991
293.6991
293.6991
293.6991
293.6991
293.6991
293.6991
293.6991
293.6991
293.6991
293.6991
339.96171
338.43988
336.81596
335.08776
333.25399
331.31446
329.27043
327.12499
324.88366
322.55486
320.15077
317.68814
315.18906
312.68133
310.19909
307.7816
305.47192
303.31407
301.34944
299.61198
298.12473
296.89667
295.92141
295.17925
294.64004
294.26737
294.02343
293.87299
293.7861
293.73942
293.71628
293.70577
293.70144
293.69984
293.69931
293.69915
293.69912
293.69911
293.69911
293.69911
293.69911
293.69911
293.69911
293.69911
293.69911
293.69911
293.69911
293.69911
293.69911
293.69911
339.19308
337.62336
335.96123
334.20566
332.35624
330.41339
328.37868
326.25522
324.04816
321.76543
319.4184
317.0228
314.59939
312.17447
309.77988
307.45226
305.23133
303.15726
301.26724
299.59169
298.15093
296.95282
295.99202
295.25129
294.70411
294.31836
294.0601
293.89692
293.80024
293.74697
293.71992
293.70733
293.70203
293.70003
293.69936
293.69917
293.69912
293.69911
293.69911
293.69911
293.69911
293.69911
293.69911
293.69911
293.69911
293.69911
293.69911
293.69911
293.69911
293.69911
336.62119
335.07534
333.46821
331.79694
330.05871
328.25103
326.37218
324.42175
322.40128
320.31492
318.17029
315.97923
313.75836
311.5293
309.31872
307.15777
305.08088
303.12381
301.32089
299.70218
298.29044
297.0983
296.12622
295.36333
294.78933
294.37721
294.09624
293.91723
293.81027
293.75137
293.72152
293.70781
293.70214
293.70005
293.69936
293.69917
293.69912
293.69911
293.69911
293.69911
293.69911
293.69911
293.69911
293.69911
293.69911
293.69911
293.69911
293.69911
293.69911
293.69911
328.46261
327.82643
327.07325
326.19718
325.19362
324.05955
322.79395
321.39784
319.87532
318.23278
316.47919
314.6309
312.7099
310.73715
308.74087
306.75331
304.80817
302.94927
301.21327
299.63521
298.24594
297.07014
296.10801
295.35048
294.7788
294.36618
294.08914
293.91259
293.80791
293.75001
293.72085
293.70753
293.70204
293.70002
293.69936
293.69917
293.69912
293.69911
293.69911
293.69911
293.69911
293.69911
293.69911
293.69911
293.69911
293.69911
293.69911
293.69911
293.69911
293.69911
328.46581
327.82963
327.07646
326.20041
325.19689
324.06291
322.79728
321.40126
319.87823
318.23643
316.48564
314.64059
312.71885
310.74059
308.73803
306.74953
304.80907
302.95536
301.22857
299.66303
298.2833
297.10037
296.12587
295.35709
294.77925
294.36893
294.08984
293.91214
293.80697
293.74964
293.72074
293.70751
293.70204
293.70002
293.69936
293.69917
293.69912
293.69911
293.69911
293.69911
293.69911
293.69911
293.69911
293.69911
293.69911
293.69911
293.69911
293.69911
293.69911
293.69911
336.63129
335.08571
333.4789
331.80803
330.07028
328.26315
326.38493
324.43522
322.41554
320.33009
318.18642
315.9962
313.77583
311.54695
309.33647
307.17587
305.0996
303.14327
301.34096
299.72199
298.30799
297.11101
296.13298
295.36494
294.78791
294.37512
294.09524
293.91662
293.81012
293.75127
293.72149
293.7078
293.70214
293.70005
293.69937
293.69917
293.69912
293.69911
293.69911
293.69911
293.69911
293.69911
293.69911
293.69911
293.69911
293.69911
293.69911
293.69911
293.69911
293.69911
339.20649
337.63699
335.97509
334.21974
332.37056
330.42798
328.39356
326.27043
324.06375
321.78141
319.43481
317.03963
314.6166
312.19197
309.79756
307.46993
305.24877
303.1742
301.28333
299.60646
298.16378
296.96315
295.99952
295.25611
294.70682
294.3197
294.0607
293.89713
293.80029
293.74697
293.71992
293.70733
293.70203
293.70003
293.69936
293.69917
293.69912
293.69911
293.69911
293.69911
293.69911
293.69911
293.69911
293.69911
293.69911
293.69911
293.69911
293.69911
293.69911
293.69911
339.98137
338.4589
336.83433
335.10549
333.27108
331.3309
329.28622
327.14014
324.89815
322.56869
320.16393
317.70063
315.20086
312.69246
310.20954
307.79135
305.48096
303.32239
301.35699
299.61872
298.13058
296.90154
295.92523
295.18204
294.64191
294.26852
294.02407
293.87331
293.78625
293.73948
293.71629
293.70577
293.70144
293.69984
293.69931
293.69915
293.69912
293.69911
293.69911
293.69911
293.69911
293.69911
293.69911
293.69911
293.69911
293.69911
293.69911
293.69911
293.69911
293.69911
340.3803
338.85938
337.23627