/*--------------------------------*- C++ -*----------------------------------*\
| =========                 |                                                 |
| \\      /  F ield         | OpenFOAM: The Open Source CFD Toolbox           |
|  \\    /   O peration     | Version:  3.0.1                                 |
|   \\  /    A nd           | Web:      www.OpenFOAM.org                      |
|    \\/     M anipulation  |                                                 |
\*---------------------------------------------------------------------------*/
FoamFile
{
    version     2.0;
    format      ascii;
    class       volVectorField;
    location    "2620";
    object      U;
}
// * * * * * * * * * * * * * * * * * * * * * * * * * * * * * * * * * * * * * //

dimensions      [0 1 -1 0 0 0 0];

internalField   nonuniform List<vector> 
80000
(
(2.5106398e-05 3.5668567e-05 0.037368172)
(8.3149057e-06 5.4850427e-05 0.086689455)
(-1.0979728e-05 7.2052612e-05 0.12031225)
(-7.7028536e-05 7.108917e-05 0.14256112)
(-0.00019950443 0.00010245465 0.15682348)
(-0.00030343189 7.7834615e-05 0.16570264)
(-0.00042086962 0.00010291056 0.17104503)
(-0.00053170041 0.0001036222 0.17412075)
(-0.00059282449 8.2496791e-05 0.17578884)
(-0.00070593355 0.00015662286 0.17650348)
(-0.00078296925 0.00012139775 0.17676587)
(-0.00080702785 7.0881053e-05 0.17671478)
(-0.00088304505 0.00010198819 0.17626088)
(-0.00088942087 4.0811532e-05 0.17578467)
(-0.00091272264 2.0956632e-05 0.17489779)
(-0.00089698497 6.0787309e-06 0.17380859)
(-0.00092746194 2.6622372e-05 0.17213229)
(-0.00090168755 -1.4107054e-05 0.17043983)
(-0.00089639821 5.4315112e-06 0.16795304)
(-0.00092702571 1.5659437e-05 0.16547902)
(-0.00088624083 -1.6025449e-05 0.16291812)
(-0.00090137623 1.1600115e-05 0.1595176)
(-0.00090580912 2.3269155e-05 0.15627753)
(-0.00094430935 1.0958564e-05 0.15335763)
(-0.00087719934 -2.7280239e-05 0.15016959)
(-0.00094852986 1.6007091e-05 0.14680522)
(-0.0008777862 -2.241451e-05 0.14354594)
(-0.00090626857 9.865337e-06 0.13954558)
(-0.00087735352 -8.9432061e-06 0.13529142)
(-0.00084395151 -1.7646647e-05 0.13038852)
(-0.00084086285 9.30945e-06 0.12462409)
(-0.00083143936 -1.2410881e-05 0.11884293)
(-0.000743775 -2.2033737e-05 0.11165673)
(-0.00073456555 3.4877571e-06 0.1022415)
(-0.00069553319 -1.4094897e-05 0.092347821)
(-0.00060362623 -1.4341221e-05 0.080008379)
(-0.00066619352 -2.5974009e-05 0.067115088)
(-0.00030719672 -2.6046584e-05 0.049393015)
(-0.0007404318 4.1796892e-05 0.029433491)
(-0.00053314301 -7.1919021e-05 0.016003577)
(9.4192549e-06 3.0858552e-05 0.037396707)
(3.1643905e-05 5.1474095e-05 0.086734722)
(4.1034525e-05 6.5345438e-05 0.12036015)
(4.9474296e-07 6.843993e-05 0.14262501)
(-8.9368673e-05 8.5278097e-05 0.15693836)
(-0.00015474424 7.4456823e-05 0.16583064)
(-0.00025105351 8.5453242e-05 0.17114245)
(-0.00030518063 8.4677702e-05 0.174135)
(-0.00033107088 7.2263873e-05 0.17562618)
(-0.00039011252 0.0001055637 0.17612975)
(-0.00034759956 8.4418358e-05 0.17596151)
(-0.00031728531 5.4038651e-05 0.17527699)
(-0.00033501907 6.5342282e-05 0.17417004)
(-0.00026561438 3.1426669e-05 0.17269613)
(-0.00026756949 1.7484924e-05 0.17086159)
(-0.00023669873 9.2162028e-06 0.16869933)
(-0.00025224611 1.8085737e-05 0.16623434)
(-0.00019838441 -3.6394797e-06 0.16349753)
(-0.00021682317 5.9690898e-06 0.16050926)
(-0.00020586803 1.1022924e-05 0.15734209)
(-0.00016241746 -6.3120057e-06 0.1539979)
(-0.00018988936 8.0841481e-06 0.1505123)
(-0.00015263306 1.483552e-05 0.14694744)
(-0.00015712707 5.7528426e-06 0.14328458)
(-7.8811742e-05 -1.4377661e-05 0.13944553)
(-0.00016068423 8.3703252e-06 0.13547585)
(-4.3338827e-05 -1.2158842e-05 0.13131623)
(-0.00012401392 5.230353e-06 0.12688576)
(-4.4074657e-05 -5.5223817e-06 0.12216606)
(-5.3670667e-05 -1.0519113e-05 0.1169407)
(-5.6742692e-05 5.2599877e-06 0.11124735)
(-2.329738e-05 -8.1170913e-06 0.10488206)
(-1.4044961e-06 -1.3296148e-05 0.097546542)
(-3.5683042e-05 1.7992912e-06 0.089245801)
(1.9407927e-05 -8.6449765e-06 0.079758797)
(1.7856331e-06 -9.0124644e-06 0.068767656)
(6.5922879e-06 -1.5687817e-05 0.056272423)
(4.8750859e-05 -1.4905417e-05 0.042004991)
(-0.00011191276 2.5172079e-05 0.026450099)
(0.00013837807 -3.7699701e-05 0.0092189848)
(7.6785715e-07 2.4391216e-05 0.037414041)
(3.740007e-05 4.9601516e-05 0.08675907)
(4.3466399e-05 6.1442833e-05 0.12035423)
(-1.8037855e-05 6.5731619e-05 0.14253403)
(-0.00011907863 6.5255886e-05 0.1566828)
(-0.00022459287 6.0487931e-05 0.16529947)
(-0.00031660161 5.4502901e-05 0.17021588)
(-0.00037356355 4.6857638e-05 0.17268571)
(-0.00040334122 3.9167097e-05 0.17352886)
(-0.00040327402 3.1587305e-05 0.17326312)
(-0.0003766692 2.2229162e-05 0.17220596)
(-0.0003523862 1.5513534e-05 0.17055042)
(-0.00031873932 1.0800099e-05 0.16841879)
(-0.00028183281 6.1577848e-06 0.16589082)
(-0.0002556108 4.3733214e-06 0.16302722)
(-0.00022827596 3.6421314e-06 0.15987814)
(-0.00020356966 2.792161e-06 0.1564868)
(-0.00018065553 2.1085115e-06 0.15289051)
(-0.0001687004 2.4840183e-06 0.14912759)
(-0.00014791919 1.6147276e-06 0.14522651)
(-0.0001393787 1.1578412e-06 0.14121033)
(-0.0001317698 1.3934825e-06 0.13710084)
(-0.00012295965 -2.7477943e-08 0.13290211)
(-0.00011536321 -1.5132772e-06 0.12861071)
(-0.00012080722 -1.2208998e-06 0.12421916)
(-0.00012171701 -1.1831674e-06 0.11971821)
(-0.00011941705 -1.793106e-06 0.11506141)
(-0.00013308577 -1.3759795e-06 0.11022062)
(-0.0001228222 -2.4402125e-06 0.1051216)
(-0.00014047182 -1.6139939e-06 0.099704417)
(-0.00013624982 -1.8392302e-06 0.093892671)
(-0.00013652794 -2.6882529e-06 0.087572379)
(-0.00014384557 -1.5668002e-06 0.080662004)
(-0.00013990456 -1.6808525e-06 0.073065683)
(-0.00013072185 -2.1521513e-06 0.064656615)
(-0.00013267065 -1.6690751e-06 0.055360539)
(-0.00010918443 -1.5676812e-06 0.045085428)
(-0.00010755478 -2.0533947e-07 0.033759393)
(-6.4197652e-05 -2.2581923e-06 0.021280425)
(-7.2327296e-06 -3.1169386e-06 0.0074100012)
(7.4714484e-06 1.7322191e-05 0.037399135)
(4.0393029e-05 4.7662718e-05 0.086689291)
(2.9852508e-05 6.0932754e-05 0.12017231)
(-4.1117476e-05 5.9772936e-05 0.14214973)
(-0.00013580601 4.9995402e-05 0.15598747)
(-0.00021478634 3.7373356e-05 0.16419645)
(-0.00025787051 2.586579e-05 0.16861246)
(-0.00026021033 1.6896254e-05 0.17050369)
(-0.00023088751 1.0714131e-05 0.17070938)
(-0.00018226728 6.936688e-06 0.16976861)
(-0.00012783431 4.5344243e-06 0.16802159)
(-7.8562196e-05 3.4389854e-06 0.16568356)
(-3.7197853e-05 3.1733875e-06 0.16289393)
(-6.8037754e-06 2.9752139e-06 0.15974737)
(1.1600969e-05 3.0309443e-06 0.15631405)
(2.2636211e-05 2.956429e-06 0.15264897)
(2.5733232e-05 2.702776e-06 0.14879495)
(2.3590158e-05 2.2175907e-06 0.14478765)
(1.7666969e-05 1.7416185e-06 0.14065696)
(1.0247317e-05 1.0985772e-06 0.13642679)
(5.6152583e-07 4.0660267e-07 0.13211541)
(-8.8834853e-06 -1.9217851e-07 0.12773618)
(-1.7116528e-05 -8.3993378e-07 0.1232966)
(-2.7643853e-05 -1.226974e-06 0.11879685)
(-3.4871679e-05 -1.5136239e-06 0.11422995)
(-4.0536406e-05 -1.6223835e-06 0.10957967)
(-4.3068333e-05 -1.9473714e-06 0.10482021)
(-4.4907521e-05 -1.9468631e-06 0.099917871)
(-4.2266074e-05 -2.0795068e-06 0.094827544)
(-4.1065965e-05 -2.0831197e-06 0.089497265)
(-3.2607486e-05 -2.101488e-06 0.083863085)
(-2.736599e-05 -2.1255952e-06 0.0778536)
(-1.7868405e-05 -2.0826958e-06 0.071392109)
(-6.0268638e-06 -2.1527185e-06 0.064391042)
(4.2751211e-06 -2.3045288e-06 0.056759978)
(1.5515352e-05 -2.407061e-06 0.048413502)
(2.529995e-05 -2.6994193e-06 0.039270537)
(3.4349142e-05 -3.3434407e-06 0.02924357)
(3.8301629e-05 -4.1575462e-06 0.018257628)
(2.7482561e-05 -3.9866262e-06 0.0062469576)
(6.0090658e-06 1.5655488e-05 0.037375424)
(1.6849982e-05 5.0616136e-05 0.086604349)
(4.939211e-06 6.1147005e-05 0.11998397)
(-2.8237174e-05 5.2232318e-05 0.1417961)
(-6.1239374e-05 3.5624081e-05 0.15540511)
(-7.766945e-05 2.1196465e-05 0.16335186)
(-7.5107704e-05 1.2272466e-05 0.16747543)
(-6.0264199e-05 8.1697793e-06 0.1690499)
(-4.3006897e-05 6.8997453e-06 0.16892548)
(-3.0564635e-05 6.6903195e-06 0.16765178)
(-2.6410342e-05 6.4951091e-06 0.16557846)
(-3.0549197e-05 6.0953658e-06 0.16292747)
(-3.9887716e-05 5.4647202e-06 0.15984257)
(-5.1504326e-05 4.6181706e-06 0.15642143)
(-6.2752626e-05 3.7606305e-06 0.15273398)
(-7.1490317e-05 2.9158133e-06 0.14883345)
(-7.7093195e-05 2.0635567e-06 0.14476228)
(-7.9342512e-05 1.2708444e-06 0.14055519)
(-7.8732899e-05 5.6359992e-07 0.13624083)
(-7.5520805e-05 -1.010678e-07 0.13184222)
(-7.0883144e-05 -6.7481198e-07 0.12737701)
(-6.5083294e-05 -1.1206981e-06 0.12285748)
(-5.8974645e-05 -1.5086298e-06 0.11829016)
(-5.2552497e-05 -1.7530425e-06 0.11367554)
(-4.6184447e-05 -1.8433099e-06 0.10900765)
(-4.0094649e-05 -1.8997736e-06 0.10427313)
(-3.4870345e-05 -1.9482871e-06 0.099450819)
(-3.103941e-05 -1.9329944e-06 0.094511687)
(-2.7600656e-05 -1.9380455e-06 0.089418596)
(-2.5790317e-05 -1.8808851e-06 0.084126271)
(-2.4438143e-05 -1.8431585e-06 0.0785819)
(-2.4389412e-05 -1.8403633e-06 0.072724793)
(-2.4774733e-05 -1.7633044e-06 0.066488816)
(-2.6277409e-05 -1.7613792e-06 0.059802179)
(-2.853503e-05 -1.7508351e-06 0.052589657)
(-3.1638467e-05 -1.6527108e-06 0.044774928)
(-3.4333823e-05 -1.4552723e-06 0.036279926)
(-3.7229201e-05 -1.0401312e-06 0.027022745)
(-3.5704914e-05 -4.279485e-07 0.016911568)
(-2.1454805e-05 1.5039813e-07 0.0058328917)
(-6.0090666e-06 1.5655535e-05 0.037375423)
(-1.6850168e-05 5.0616191e-05 0.086604345)
(-4.9392799e-06 6.1146968e-05 0.11998397)
(2.8237361e-05 5.2232242e-05 0.14179609)
(6.1239447e-05 3.5624165e-05 0.15540511)
(7.7669423e-05 2.1196588e-05 0.16335186)
(7.5107897e-05 1.2272439e-05 0.16747543)
(6.02642e-05 8.1698472e-06 0.1690499)
(4.3006765e-05 6.899748e-06 0.16892547)
(3.0564548e-05 6.6903059e-06 0.16765178)
(2.641029e-05 6.4951948e-06 0.16557845)
(3.054921e-05 6.0952893e-06 0.16292747)
(3.9887691e-05 5.4647766e-06 0.15984257)
(5.1504287e-05 4.6180319e-06 0.15642143)
(6.2752785e-05 3.7604528e-06 0.15273398)
(7.1490288e-05 2.916043e-06 0.14883345)
(7.7093038e-05 2.0635931e-06 0.14476227)
(7.9342273e-05 1.2708388e-06 0.14055519)
(7.8732519e-05 5.637306e-07 0.13624083)
(7.5520738e-05 -1.0108685e-07 0.13184222)
(7.0883083e-05 -6.7490872e-07 0.12737701)
(6.5083388e-05 -1.1206811e-06 0.12285748)
(5.897485e-05 -1.5085505e-06 0.11829016)
(5.2552538e-05 -1.7530146e-06 0.11367554)
(4.6184273e-05 -1.8432238e-06 0.10900765)
(4.0094406e-05 -1.8998626e-06 0.10427313)
(3.4870332e-05 -1.9484925e-06 0.099450818)
(3.1039405e-05 -1.9331476e-06 0.094511686)
(2.7600684e-05 -1.9379828e-06 0.089418595)
(2.5790276e-05 -1.8808676e-06 0.08412627)
(2.4438359e-05 -1.8431262e-06 0.078581899)
(2.4389615e-05 -1.8402477e-06 0.072724793)
(2.4775004e-05 -1.7633239e-06 0.066488815)
(2.6277514e-05 -1.7613352e-06 0.059802179)
(2.8534859e-05 -1.751106e-06 0.052589657)
(3.163805e-05 -1.6527519e-06 0.044774928)
(3.4333271e-05 -1.4549681e-06 0.036279926)
(3.7228798e-05 -1.0400815e-06 0.027022745)
(3.5704859e-05 -4.2795175e-07 0.016911567)
(2.1454212e-05 1.5038618e-07 0.0058328917)
(-7.4716801e-06 1.7322125e-05 0.03739913)
(-4.0393327e-05 4.7662795e-05 0.08668928)
(-2.9852596e-05 6.093281e-05 0.12017229)
(4.1117413e-05 5.9772943e-05 0.14214972)
(0.00013580594 4.9995396e-05 0.15598746)
(0.0002147866 3.7373267e-05 0.16419644)
(0.00025787054 2.5865867e-05 0.16861245)
(0.00026021022 1.6896421e-05 0.17050368)
(0.00023088746 1.0714172e-05 0.17070937)
(0.00018226732 6.936507e-06 0.1697686)
(0.00012783426 4.534366e-06 0.16802159)
(7.8562017e-05 3.4391804e-06 0.16568355)
(3.7197569e-05 3.173535e-06 0.16289393)
(6.8035816e-06 2.9752489e-06 0.15974736)
(-1.1601123e-05 3.0308495e-06 0.15631405)
(-2.2636501e-05 2.9563574e-06 0.15264897)
(-2.573357e-05 2.7028469e-06 0.14879494)
(-2.3590524e-05 2.2176089e-06 0.14478764)
(-1.766678e-05 1.7415467e-06 0.14065695)
(-1.0247379e-05 1.0986698e-06 0.13642678)
(-5.6164509e-07 4.066927e-07 0.13211541)
(8.8836697e-06 -1.9231748e-07 0.12773617)
(1.7116806e-05 -8.3981649e-07 0.1232966)
(2.7643742e-05 -1.2267554e-06 0.11879685)
(3.4871496e-05 -1.513597e-06 0.11422995)
(4.0536839e-05 -1.6223602e-06 0.10957967)
(4.3068646e-05 -1.9474467e-06 0.1048202)
(4.4907434e-05 -1.9469856e-06 0.099917869)
(4.2266199e-05 -2.0796193e-06 0.094827542)
(4.1066492e-05 -2.0832099e-06 0.089497263)
(3.2607589e-05 -2.1014611e-06 0.083863083)
(2.7366119e-05 -2.1256008e-06 0.077853597)
(1.786889e-05 -2.0826471e-06 0.071392107)
(6.0272482e-06 -2.1525711e-06 0.06439104)
(-4.2753759e-06 -2.3044616e-06 0.056759977)
(-1.5515459e-05 -2.4072679e-06 0.048413501)
(-2.5299723e-05 -2.6993607e-06 0.039270537)
(-3.4349037e-05 -3.3431196e-06 0.029243569)
(-3.830243e-05 -4.1576843e-06 0.018257629)
(-2.7482761e-05 -3.9866561e-06 0.0062469575)
(-7.6778521e-07 2.4391195e-05 0.037414032)
(-3.7399807e-05 4.9601547e-05 0.086759054)
(-4.3465801e-05 6.1442919e-05 0.12035421)
(1.8038582e-05 6.5731515e-05 0.14253401)
(0.00011907924 6.5255942e-05 0.15668278)
(0.00022459317 6.0487963e-05 0.16529945)
(0.00031660154 5.4502832e-05 0.17021587)
(0.00037356335 4.6857581e-05 0.17268569)
(0.00040334122 3.9167076e-05 0.17352885)
(0.0004032742 3.1587322e-05 0.1732631)
(0.00037666932 2.2229071e-05 0.17220595)
(0.00035238627 1.5513437e-05 0.17055041)
(0.00031873923 1.0800126e-05 0.16841879)
(0.00028183275 6.1577934e-06 0.16589082)
(0.00025561077 4.3732513e-06 0.16302721)
(0.00022827571 3.6420542e-06 0.15987813)
(0.00020356961 2.7920588e-06 0.1564868)
(0.0001806556 2.1084618e-06 0.15289051)
(0.00016870006 2.484121e-06 0.14912758)
(0.000147919 1.6147704e-06 0.14522651)
(0.00013937869 1.1577822e-06 0.14121033)
(0.00013176965 1.3933346e-06 0.13710083)
(0.0001229599 -2.7616565e-08 0.13290211)
(0.00011536319 -1.5131838e-06 0.12861071)
(0.00012080697 -1.2207758e-06 0.12421915)
(0.00012171721 -1.1831314e-06 0.1197182)
(0.00011941722 -1.7931539e-06 0.11506141)
(0.00013308577 -1.3760387e-06 0.11022062)
(0.00012282237 -2.4401455e-06 0.10512159)
(0.00014047191 -1.6139856e-06 0.099704412)
(0.00013624987 -1.8392889e-06 0.093892665)
(0.00013652795 -2.6881939e-06 0.087572373)
(0.00014384564 -1.5667729e-06 0.080661998)
(0.00013990463 -1.6808691e-06 0.073065678)
(0.00013072224 -2.1521495e-06 0.06465661)
(0.00013267049 -1.6689938e-06 0.055360535)
(0.0001091842 -1.5677258e-06 0.045085426)
(0.00010755523 -2.0539763e-07 0.033759392)
(6.4197463e-05 -2.258103e-06 0.021280424)
(7.2318428e-06 -3.1168857e-06 0.0074100015)
(-9.4191049e-06 3.0858602e-05 0.0373967)
(-3.1643616e-05 5.1474083e-05 0.086734708)
(-4.1034413e-05 6.5345574e-05 0.12036013)
(-4.9494813e-07 6.844003e-05 0.14262499)
(8.9368544e-05 8.5278126e-05 0.15693834)
(0.00015474406 7.4456945e-05 0.16583062)
(0.00025105346 8.5453286e-05 0.17114243)
(0.00030518082 8.4677714e-05 0.17413499)
(0.00033107087 7.2263856e-05 0.17562617)
(0.00039011255 0.0001055637 0.17612973)
(0.00034759966 8.4418408e-05 0.17596149)
(0.00031728537 5.4038719e-05 0.17527698)
(0.00033501917 6.5342321e-05 0.17417003)
(0.00026561445 3.1426733e-05 0.17269612)
(0.00026756962 1.7484869e-05 0.17086158)
(0.00023669896 9.2161542e-06 0.16869932)
(0.00025224589 1.8085791e-05 0.16623433)
(0.00019838415 -3.6394115e-06 0.16349752)
(0.0002168235 5.9690523e-06 0.16050925)
(0.00020586821 1.1022925e-05 0.15734209)
(0.00016241743 -6.3119764e-06 0.15399789)
(0.00018988915 8.0841201e-06 0.1505123)
(0.00015263256 1.4835538e-05 0.14694743)
(0.00015712693 5.7529122e-06 0.14328457)
(7.8811752e-05 -1.4377643e-05 0.13944552)
(0.00016068413 8.3703355e-06 0.13547584)
(4.3338579e-05 -1.215888e-05 0.13131622)
(0.00012401371 5.2303209e-06 0.12688575)
(4.4074775e-05 -5.5223387e-06 0.12216605)
(5.3670825e-05 -1.051908e-05 0.1169407)
(5.6742503e-05 5.2599497e-06 0.11124734)
(2.3297613e-05 -8.1171287e-06 0.10488205)
(1.4043423e-06 -1.3296123e-05 0.097546534)
(3.5683203e-05 1.7993246e-06 0.089245793)
(-1.9407784e-05 -8.6449763e-06 0.07975879)
(-1.7855913e-06 -9.0125237e-06 0.06876765)
(-6.5920728e-06 -1.5687923e-05 0.056272417)
(-4.8751033e-05 -1.4905522e-05 0.042004986)
(0.00011191307 2.517202e-05 0.026450097)
(-0.00013837757 -3.7699757e-05 0.0092189837)
(-2.5106533e-05 3.5668347e-05 0.037368166)
(-8.3147805e-06 5.485017e-05 0.086689442)
(1.0980011e-05 7.2052469e-05 0.12031224)
(7.7028816e-05 7.108907e-05 0.1425611)
(0.0001995049 0.00010245457 0.15682346)
(0.00030343237 7.7834564e-05 0.16570262)
(0.00042086993 0.0001029106 0.17104502)
(0.00053170059 0.0001036222 0.17412073)
(0.00059282453 8.2496788e-05 0.17578882)
(0.00070593363 0.00015662285 0.17650346)
(0.00078296944 0.00012139781 0.17676585)
(0.00080702818 7.0881091e-05 0.17671476)
(0.00088304547 0.00010198815 0.17626086)
(0.00088942096 4.0811671e-05 0.17578465)
(0.00091272284 2.0956693e-05 0.17489778)
(0.00089698538 6.0787658e-06 0.17380858)
(0.00092746215 2.6622375e-05 0.17213228)
(0.00090168785 -1.4107054e-05 0.17043982)
(0.00089639863 5.4316799e-06 0.16795303)
(0.00092702604 1.5659491e-05 0.16547901)
(0.00088624069 -1.6025441e-05 0.16291811)
(0.00090137636 1.1600038e-05 0.15951759)
(0.00090580965 2.3269118e-05 0.15627752)
(0.00094430921 1.0958664e-05 0.15335762)
(0.00087719933 -2.7280116e-05 0.15016958)
(0.00094853017 1.6007155e-05 0.14680521)
(0.00087778625 -2.241447e-05 0.14354593)
(0.00090626856 9.8653623e-06 0.13954557)
(0.00087735351 -8.9431699e-06 0.13529141)
(0.0008439516 -1.7646616e-05 0.13038851)
(0.00084086288 9.3095293e-06 0.12462408)
(0.00083143942 -1.2410822e-05 0.11884291)
(0.00074377502 -2.2033754e-05 0.11165672)
(0.00073456543 3.4877829e-06 0.10224149)
(0.00069553336 -1.4094858e-05 0.092347814)
(0.00060362612 -1.4341144e-05 0.080008373)
(0.00066619373 -2.5974049e-05 0.067115084)
(0.00030719723 -2.6046739e-05 0.049393013)
(0.00074043152 4.1796779e-05 0.02943349)
(0.00053314299 -7.1919136e-05 0.016003576)
(-4.289759e-05 4.5622562e-05 0.041291946)
(-0.00031071149 8.0133933e-05 0.094693836)
(-0.00071316844 9.6114426e-05 0.12957311)
(-0.001143901 8.9554051e-05 0.15118169)
(-0.0015777606 0.00011319918 0.1638949)
(-0.0019183222 7.0204408e-05 0.17101448)
(-0.0021966937 8.0436966e-05 0.17480947)
(-0.002394919 6.1772791e-05 0.17670888)
(-0.0024845576 1.7155744e-05 0.17755175)
(-0.0025838654 8.9214939e-05 0.17779096)
(-0.0026068865 3.074282e-05 0.17770322)
(-0.0025519792 -4.5529492e-05 0.17738925)
(-0.0025318881 -1.3969119e-05 0.1768502)
(-0.0024291436 -0.00010090659 0.17616606)
(-0.0023302673 -0.00012963097 0.17520727)
(-0.002194196 -0.00015044943 0.17398029)
(-0.0021043109 -0.00011764728 0.17235538)
(-0.0019548344 -0.00017123454 0.17049973)
(-0.0018395652 -0.00013495732 0.16814642)
(-0.0017622555 -0.00011067217 0.16564324)
(-0.0016191536 -0.00014974785 0.1629483)
(-0.0015437709 -9.592157e-05 0.159719)
(-0.0014756514 -6.7508653e-05 0.15652197)
(-0.0014400094 -7.6215358e-05 0.15350323)
(-0.001303999 -0.00012867081 0.15031037)
(-0.0013213608 -4.6716971e-05 0.14696155)
(-0.0011925331 -0.00010220364 0.14358483)
(-0.001177856 -3.8257958e-05 0.13961554)
(-0.0011050257 -6.3380729e-05 0.13530815)
(-0.0010269961 -7.0868308e-05 0.13037886)
(-0.0010010127 -1.8623986e-05 0.12468096)
(-0.00095632847 -5.1522519e-05 0.11876377)
(-0.00083045722 -6.3894455e-05 0.1114999)
(-0.00080070046 -1.5990143e-05 0.10221499)
(-0.00072965194 -4.5100454e-05 0.092189502)
(-0.00062583869 -4.6298089e-05 0.079979636)
(-0.00064380435 -6.528953e-05 0.066786504)
(-0.00027894893 -7.2974119e-05 0.049345084)
(-0.00074565425 2.9441581e-05 0.030079781)
(-0.0004460513 -0.00016225249 0.014107369)
(-9.4619551e-05 4.9697286e-05 0.041293667)
(-0.00037928093 8.9242131e-05 0.094694218)
(-0.00081844467 9.1468636e-05 0.12956889)
(-0.0012678627 7.5966055e-05 0.15117413)
(-0.0016830562 6.8380121e-05 0.16387792)
(-0.0019686018 2.673902e-05 0.17096834)
(-0.002179299 8.7584285e-06 0.17469342)
(-0.002253193 -1.9985791e-05 0.17646604)
(-0.0022256835 -5.9069357e-05 0.1771061)
(-0.0021767108 -3.8064917e-05 0.17705644)
(-0.0019843422 -7.6428641e-05 0.17653953)
(-0.0017864485 -0.00012268619 0.17565097)
(-0.0016340144 -0.0001107039 0.17442934)
(-0.0013926626 -0.00015345175 0.1728864)
(-0.0012332871 -0.00016650971 0.17102141)
(-0.001061509 -0.0001702386 0.16884496)
(-0.0009482465 -0.00014637813 0.16637466)
(-0.00077667972 -0.00016522267 0.16363158)
(-0.00070112392 -0.00013818281 0.16064832)
(-0.00060668361 -0.00011643239 0.15747334)
(-0.00048638544 -0.00012909426 0.15412301)
(-0.00045914388 -9.3531383e-05 0.15063655)
(-0.00037523861 -7.0369566e-05 0.14705705)
(-0.00032752127 -7.1404935e-05 0.14337258)
(-0.00021248413 -9.3963987e-05 0.13952772)
(-0.00027463012 -4.6583629e-05 0.13555132)
(-0.00012649253 -7.1478337e-05 0.1313737)
(-0.00019517216 -3.4774133e-05 0.1269441)
(-9.5491299e-05 -4.5765826e-05 0.12219761)
(-8.7744133e-05 -4.8536662e-05 0.11697795)
(-9.2353508e-05 -1.7368786e-05 0.11127242)
(-3.7433324e-05 -3.5420007e-05 0.10488726)
(-8.1428845e-06 -4.2124793e-05 0.097560619)
(-4.5008425e-05 -1.4226344e-05 0.089255402)
(2.4663343e-05 -3.0671375e-05 0.079754486)
(1.0532308e-05 -3.221155e-05 0.068775846)
(2.1702054e-05 -4.3825805e-05 0.056276271)
(6.29534e-05 -4.843496e-05 0.042056396)
(-0.0001161264 1.1318833e-05 0.026482238)
(0.0001875927 -8.8628495e-05 0.0092186503)
(-0.00020620419 6.0768988e-05 0.041265969)
(-0.00053932207 0.00010098497 0.094596667)
(-0.00099648086 6.3198193e-05 0.1293892)
(-0.0014139664 1.2946047e-05 0.15088896)
(-0.0017300014 -4.3400014e-05 0.16343572)
(-0.001908832 -9.8216354e-05 0.17027737)
(-0.0019555506 -0.00014409416 0.17363479)
(-0.0018811071 -0.00017972294 0.1749069)
(-0.001724915 -0.00020356335 0.174913)
(-0.0015147662 -0.00021630267 0.17410395)
(-0.0012764885 -0.00022224675 0.17271513)
(-0.0010542706 -0.00021873418 0.17086887)
(-0.00084859099 -0.00020781756 0.1686326)
(-0.00066718022 -0.0001938869 0.16604892)
(-0.00052549517 -0.00017527861 0.16315678)
(-0.00040940927 -0.00015498285 0.15999149)
(-0.00031799256 -0.00013527779 0.15658985)
(-0.00024710883 -0.00011686151 0.15298515)
(-0.0002011798 -9.8745603e-05 0.14921504)
(-0.00015855291 -8.3735431e-05 0.14530625)
(-0.00013482546 -7.0394597e-05 0.14128275)
(-0.00011954581 -5.7934624e-05 0.13716629)
(-0.00010532562 -4.9143193e-05 0.13295973)
(-9.6159008e-05 -4.2276007e-05 0.12866277)
(-0.00010152655 -3.4912804e-05 0.12426528)
(-0.00010454661 -2.8594996e-05 0.11975967)
(-0.00010402423 -2.4469031e-05 0.11509602)
(-0.00011876035 -2.0074988e-05 0.11025085)
(-0.00011141845 -1.8146308e-05 0.1051447)
(-0.00012937614 -1.4936306e-05 0.099723481)
(-0.00012732997 -1.3219171e-05 0.093904063)
(-0.00012732293 -1.2921909e-05 0.087579003)
(-0.0001353591 -1.0763782e-05 0.08066276)
(-0.00013134616 -1.0007243e-05 0.07305942)
(-0.00012137067 -1.0241384e-05 0.06464397)
(-0.00012142984 -9.545416e-06 0.055340877)
(-9.8112839e-05 -9.291548e-06 0.045057301)
(-9.2555894e-05 -8.1060344e-06 0.033715243)
(-4.6391643e-05 -1.11832e-05 0.02121222)
(1.7136281e-05 -1.1003249e-05 0.007320384)
(-0.0002862493 4.7106832e-05 0.041111544)
(-0.00055736054 5.8316298e-05 0.094208127)
(-0.00085129518 -1.6701921e-05 0.12882882)
(-0.0010742537 -9.4106909e-05 0.15017682)
(-0.0011907553 -0.00016142462 0.16252509)
(-0.0011943198 -0.00021061978 0.16906831)
(-0.0011034173 -0.00023909108 0.17200554)
(-0.00094639486 -0.00024856154 0.1727437)
(-0.00075718304 -0.00024277023 0.17212832)
(-0.00056454466 -0.00022617943 0.17064273)
(-0.00039055434 -0.00020348097 0.16855488)
(-0.00024917553 -0.00017769559 0.16601441)
(-0.00014184895 -0.000151439 0.1631097)
(-6.728385e-05 -0.00012695707 0.15990037)
(-2.1618761e-05 -0.00010487595 0.15643372)
(4.2525856e-06 -8.5829488e-05 0.15275027)
(1.4528895e-05 -6.9911214e-05 0.14888581)
(1.4767346e-05 -5.6956024e-05 0.14487211)
(8.6243815e-06 -4.6377621e-05 0.14073716)
(-1.0669058e-07 -3.80348e-05 0.13650345)
(-1.1152957e-05 -3.1523391e-05 0.13218937)
(-2.1920229e-05 -2.6361393e-05 0.12780759)
(-3.1216949e-05 -2.2479017e-05 0.12336498)
(-4.1903809e-05 -1.9389148e-05 0.11886183)
(-4.941468e-05 -1.6952762e-05 0.11429109)
(-5.47941e-05 -1.4939697e-05 0.10963631)
(-5.6677758e-05 -1.3667591e-05 0.10487176)
(-5.7561688e-05 -1.2450475e-05 0.099964287)
(-5.4009397e-05 -1.1648928e-05 0.094867869)
(-5.1176725e-05 -1.0910267e-05 0.089531924)
(-4.1817931e-05 -1.0267382e-05 0.083891313)
(-3.4651793e-05 -9.7393588e-06 0.077875889)
(-2.3742482e-05 -9.1390457e-06 0.071408391)
(-1.0399045e-05 -8.6122781e-06 0.064401856)
(1.7311648e-06 -8.2240217e-06 0.056766642)
(1.4193548e-05 -7.8570959e-06 0.04841715)
(2.5475776e-05 -7.7171136e-06 0.039270212)
(3.598963e-05 -7.8925049e-06 0.029244151)
(4.0662037e-05 -8.5936199e-06 0.018263807)
(3.0674267e-05 -6.2794529e-06 0.0062618114)
(-0.00014637214 1.5358191e-05 0.040927272)
(-0.0002359176 3.084282e-07 0.093792704)
(-0.00030553183 -7.2326197e-05 0.12828972)
(-0.00035192721 -0.00014641898 0.14955724)
(-0.00036557128 -0.00020215173 0.16180128)
(-0.00034641739 -0.00023350989 0.16817835)
(-0.00030361986 -0.00024233315 0.17087882)
(-0.0002497498 -0.00023399716 0.17132234)
(-0.00019704169 -0.00021472649 0.17037686)
(-0.00015364406 -0.00019000568 0.16854813)
(-0.00012323283 -0.00016390306 0.16612159)
(-0.00010560905 -0.00013882671 0.1632578)
(-9.7322877e-05 -0.00011612738 0.16005115)
(-9.4770415e-05 -9.6443357e-05 0.15656351)
(-9.4724474e-05 -7.9740368e-05 0.15284126)
(-9.4505187e-05 -6.5826385e-05 0.14892304)
(-9.2965805e-05 -5.4426353e-05 0.14484289)
(-8.9598199e-05 -4.5143421e-05 0.14063096)
(-8.4579237e-05 -3.7614243e-05 0.13631349)
(-7.8025486e-05 -3.1581633e-05 0.13191231)
(-7.0839253e-05 -2.6757234e-05 0.12744463)
(-6.3246092e-05 -2.2887481e-05 0.1229224)
(-5.5832833e-05 -1.9844835e-05 0.11835205)
(-4.8635516e-05 -1.7390468e-05 0.11373411)
(-4.1863535e-05 -1.5358255e-05 0.10906236)
(-3.5643646e-05 -1.3730473e-05 0.10432348)
(-3.0445083e-05 -1.2440794e-05 0.099496384)
(-2.669618e-05 -1.1345451e-05 0.094552178)
(-2.3525188e-05 -1.0433485e-05 0.089453669)
(-2.1926175e-05 -9.5709433e-06 0.084155955)
(-2.0880067e-05 -8.7762558e-06 0.078605927)
(-2.1046866e-05 -8.0308607e-06 0.072743587)
(-2.1724796e-05 -7.2117167e-06 0.066502537)
(-2.3397552e-05 -6.4415678e-06 0.05981127)
(-2.5791842e-05 -5.6528617e-06 0.052594917)
(-2.8940418e-05 -4.7481551e-06 0.044776974)
(-3.1791094e-05 -3.6782217e-06 0.036279147)
(-3.4549453e-05 -2.3198127e-06 0.027018808)
(-3.281274e-05 -7.1214381e-07 0.016902728)
(-1.943966e-05 3.3119006e-07 0.0058194835)
(0.00014637244 1.5358176e-05 0.04092727)
(0.00023591786 3.0840212e-07 0.0937927)
(0.00030553233 -7.2326338e-05 0.12828971)
(0.00035192772 -0.00014641909 0.14955724)
(0.00036557151 -0.00020215163 0.16180127)
(0.00034641751 -0.00023350998 0.16817834)
(0.00030362003 -0.00024233328 0.17087882)
(0.00024974983 -0.00023399714 0.17132234)
(0.00019704166 -0.00021472644 0.17037686)
(0.000153644 -0.00019000564 0.16854812)
(0.0001232328 -0.00016390322 0.16612159)
(0.00010560899 -0.00013882687 0.1632578)
(9.7322724e-05 -0.00011612728 0.16005115)
(9.4770463e-05 -9.6443477e-05 0.15656351)
(9.4724689e-05 -7.9740332e-05 0.15284126)
(9.4505187e-05 -6.5826181e-05 0.14892304)
(9.2965791e-05 -5.4426518e-05 0.14484289)
(8.9598296e-05 -4.5143455e-05 0.14063096)
(8.4579204e-05 -3.7614168e-05 0.13631349)
(7.802552e-05 -3.1581581e-05 0.13191231)
(7.0839302e-05 -2.6757061e-05 0.12744463)
(6.3246117e-05 -2.2887039e-05 0.1229224)
(5.5832684e-05 -1.9844413e-05 0.11835205)
(4.8635311e-05 -1.7390633e-05 0.11373411)
(4.1863501e-05 -1.5358234e-05 0.10906236)
(3.564323e-05 -1.373037e-05 0.10432348)
(3.0444905e-05 -1.2441017e-05 0.099496384)
(2.6695971e-05 -1.1345713e-05 0.094552177)
(2.3525177e-05 -1.0433648e-05 0.089453668)
(2.1926142e-05 -9.570863e-06 0.084155953)
(2.0880009e-05 -8.7761368e-06 0.078605926)
(2.1046874e-05 -8.0307759e-06 0.072743586)
(2.1724868e-05 -7.2114362e-06 0.066502537)
(2.3397581e-05 -6.4415931e-06 0.059811269)
(2.5791726e-05 -5.6533095e-06 0.052594917)
(2.8940069e-05 -4.7482256e-06 0.044776974)
(3.1790688e-05 -3.6779185e-06 0.036279146)
(3.4549217e-05 -2.3196099e-06 0.027018807)
(3.281272e-05 -7.1252742e-07 0.016902728)
(1.9439715e-05 3.3088541e-07 0.0058194835)
(0.00028624953 4.7107015e-05 0.041111539)
(0.00055736097 5.8316297e-05 0.094208115)
(0.00085129559 -1.6701898e-05 0.1288288)
(0.0010742535 -9.4106782e-05 0.15017681)
(0.0011907552 -0.00016142471 0.16252508)
(0.0011943199 -0.00021061981 0.16906829)
(0.0011034173 -0.00023909118 0.17200553)
(0.00094639483 -0.00024856165 0.17274369)
(0.00075718293 -0.00024277027 0.17212831)
(0.0005645444 -0.00022617932 0.17064272)
(0.00039055406 -0.00020348072 0.16855488)
(0.00024917521 -0.00017769562 0.1660144)
(0.00014184889 -0.00015143924 0.1631097)
(6.7283867e-05 -0.00012695742 0.15990037)
(2.1618574e-05 -0.00010487613 0.15643372)
(-4.2527475e-06 -8.5829244e-05 0.15275026)
(-1.4528881e-05 -6.9911375e-05 0.1488858)
(-1.4767448e-05 -5.695624e-05 0.1448721)
(-8.6245155e-06 -4.6377298e-05 0.14073716)
(1.0660862e-07 -3.8034467e-05 0.13650345)
(1.1152777e-05 -3.152332e-05 0.13218937)
(2.1920188e-05 -2.6361519e-05 0.12780759)
(3.1217152e-05 -2.2478922e-05 0.12336498)
(4.190421e-05 -1.9389111e-05 0.11886182)
(4.9414874e-05 -1.6952717e-05 0.11429109)
(5.4794439e-05 -1.4939633e-05 0.10963631)
(5.6678113e-05 -1.3667385e-05 0.10487176)
(5.7561758e-05 -1.2450113e-05 0.099964284)
(5.4009617e-05 -1.1648885e-05 0.094867866)
(5.1176946e-05 -1.0910344e-05 0.089531921)
(4.1817999e-05 -1.0267663e-05 0.08389131)
(3.4651942e-05 -9.7394923e-06 0.077875886)
(2.3742889e-05 -9.1392074e-06 0.071408388)
(1.0399658e-05 -8.6123483e-06 0.064401854)
(-1.7312246e-06 -8.2237131e-06 0.056766641)
(-1.4193732e-05 -7.8567148e-06 0.048417149)
(-2.5475732e-05 -7.7170713e-06 0.039270212)
(-3.5989619e-05 -7.8922931e-06 0.029244151)
(-4.0661815e-05 -8.5936933e-06 0.018263807)
(-3.0672873e-05 -6.2803474e-06 0.0062618105)
(0.00020620396 6.0769015e-05 0.04126596)
(0.00053932194 0.00010098505 0.094596649)
(0.00099648049 6.3198355e-05 0.12938918)
(0.0014139663 1.294623e-05 0.15088894)
(0.0017300016 -4.34002e-05 0.16343571)
(0.001908832 -9.8216328e-05 0.17027735)
(0.0019555504 -0.00014409396 0.17363478)
(0.0018811072 -0.00017972295 0.17490689)
(0.0017249152 -0.00020356353 0.17491299)
(0.0015147665 -0.00021630265 0.17410394)
(0.0012764888 -0.00022224658 0.17271512)
(0.001054271 -0.00021873403 0.17086886)