/*--------------------------------*- C++ -*----------------------------------*\
| =========                 |                                                 |
| \\      /  F ield         | OpenFOAM: The Open Source CFD Toolbox           |
|  \\    /   O peration     | Version:  4.0                                   |
|   \\  /    A nd           | Web:      www.OpenFOAM.org                      |
|    \\/     M anipulation  |                                                 |
\*---------------------------------------------------------------------------*/
FoamFile
{
    version     2.0;
    format      ascii;
    class       volVectorField;
    location    "2000";
    object      U;
}
// * * * * * * * * * * * * * * * * * * * * * * * * * * * * * * * * * * * * * //

dimensions      [0 1 -1 0 0 0 0];

internalField   nonuniform List<vector> 
100000
(
(7.7503468e-06 1.6736184e-06 0.0098820083)
(3.3858291e-05 -1.441266e-05 0.028846304)
(6.6895379e-05 2.867006e-06 0.04776908)
(0.0001209168 -1.1634517e-05 0.066409083)
(0.00018452014 8.5689906e-06 0.084498521)
(0.00026613496 -1.4237986e-05 0.10176211)
(0.00035473977 -2.7627205e-06 0.11793031)
(0.00045259859 -1.7226198e-05 0.13275742)
(0.00054847784 9.6788536e-06 0.14602898)
(0.00064618873 9.5486827e-06 0.15759827)
(0.00074325955 6.2342929e-06 0.16737631)
(0.00083311169 -2.0317605e-06 0.17535157)
(0.00090640661 2.7195651e-05 0.18159089)
(0.00097825954 -1.6342045e-05 0.18622944)
(0.0010249144 2.3140366e-05 0.18945929)
(0.0010541262 2.6836284e-05 0.19150644)
(0.0010693881 4.1813687e-05 0.19263419)
(0.0010714805 3.1693277e-05 0.19307877)
(0.0010507187 7.2819013e-05 0.19307571)
(0.0010236465 5.8065109e-05 0.19281956)
(0.00098720125 5.979569e-05 0.19245489)
(0.00092412153 0.0001250756 0.19207877)
(0.00087271424 7.682291e-05 0.19177041)
(0.00081867595 7.0390941e-05 0.19153824)
(0.00073621276 0.00012560302 0.19130952)
(0.00064893186 0.00014111656 0.19126281)
(0.00057465776 0.00014141791 0.19123891)
(0.00050367158 0.00010864447 0.19118537)
(0.0004158916 0.00012501312 0.19117985)
(0.00035248349 3.9997231e-05 0.19117906)
(0.0002626977 0.00010720554 0.19118076)
(0.00021139417 -1.1414641e-05 0.19127544)
(0.00013485801 3.6272149e-05 0.19112772)
(6.3117383e-05 4.6732597e-06 0.19117254)
(3.3442204e-05 -4.7980697e-05 0.1912142)
(-1.1089621e-05 -4.2147439e-05 0.1911326)
(-6.4966587e-05 -0.00011091225 0.19116014)
(-5.0823371e-05 -0.00021673491 0.19118137)
(-0.00011242989 -8.4027695e-05 0.19112413)
(-0.00011669404 -0.00020857186 0.19107829)
(-0.00012776954 -0.00022401349 0.1910441)
(-0.00010400562 -0.00027843827 0.19105666)
(-0.00011035024 -0.00022954661 0.1909766)
(-9.014352e-05 -0.00027927529 0.19094297)
(-8.0680412e-05 -0.00026262409 0.19086899)
(-5.9239418e-05 -0.00028201289 0.19080528)
(-4.3469299e-05 -0.00026814526 0.19073946)
(-2.3955484e-05 -0.00026314007 0.19064781)
(-1.0240263e-05 -0.00027115206 0.19061479)
(3.0817096e-05 -0.0002380561 0.19059126)
(9.8379532e-06 -1.2263626e-06 0.0098563882)
(4.0768911e-05 -1.0055521e-05 0.028770317)
(7.6316994e-05 -2.2673116e-06 0.047645588)
(0.00014008835 -8.102164e-06 0.066237393)
(0.00021177805 1.5636829e-06 0.084281449)
(0.00030854381 -8.5762884e-06 0.10150467)
(0.00040661308 -3.4186612e-06 0.11763957)
(0.00051898656 -9.2883693e-06 0.13244003)
(0.00062583699 4.5934042e-06 0.14569866)
(0.00074168095 7.2257005e-06 0.15726242)
(0.00084976998 7.528576e-06 0.16704565)
(0.00094343351 5.791726e-06 0.17503724)
(0.0010131604 2.3386534e-05 0.18130152)
(0.0010790766 7.3190111e-06 0.1859721)
(0.0010967236 2.9710079e-05 0.18923931)
(0.0011064863 3.8910401e-05 0.19133269)
(0.0010903543 5.2138266e-05 0.19250059)
(0.0010561239 5.2827578e-05 0.19298918)
(0.00099146696 7.7663794e-05 0.19302424)
(0.00092984018 7.6185673e-05 0.1927975)
(0.00084664056 7.8501021e-05 0.19245639)
(0.00074971852 0.00011286776 0.1921034)
(0.00068458463 9.1202917e-05 0.1917997)
(0.00059158473 8.5890539e-05 0.19156822)
(0.00049624454 0.0001109477 0.19141081)
(0.00042925591 0.00011942561 0.19131774)
(0.00036871888 0.0001093579 0.19127019)
(0.00030885611 8.2475753e-05 0.19124404)
(0.00024879869 8.1461756e-05 0.19122703)
(0.0002180535 2.7746711e-05 0.19121033)
(0.00014583343 4.5582746e-05 0.19118709)
(0.00013703041 -2.6412408e-05 0.19115833)
(7.3985687e-05 -2.1324513e-05 0.19111627)
(5.9672114e-05 -4.8126109e-05 0.19107163)
(5.4189732e-05 -8.9119292e-05 0.19101886)
(2.9496378e-05 -0.00010243182 0.19095848)
(2.3805859e-05 -0.00014861848 0.19089189)
(2.9053511e-05 -0.00021443275 0.19081306)
(-3.4701166e-05 -0.00016505058 0.19072933)
(-3.5072796e-06 -0.0002313158 0.19063886)
(-1.5249409e-05 -0.00024956703 0.19053835)
(-9.86775e-06 -0.00028381873 0.19042462)
(-3.5519852e-05 -0.0002668259 0.19030442)
(-1.8892036e-05 -0.00029245457 0.19017352)
(-2.4343841e-05 -0.00028588814 0.19003549)
(-1.0574666e-05 -0.00029299721 0.18988749)
(-6.6622702e-06 -0.00028283555 0.18973711)
(1.5514002e-05 -0.00027128334 0.18957522)
(2.2137232e-05 -0.00026966436 0.18943975)
(0.00010473597 -0.00022353831 0.18923241)
(1.5248935e-05 -2.9465798e-06 0.0097951663)
(5.2425199e-05 -5.5390599e-06 0.028593743)
(0.00010538461 -5.4257803e-06 0.047357123)
(0.00018080566 -3.5949506e-06 0.065843643)
(0.000274354 -1.2694413e-06 0.083792534)
(0.00038306574 1.5639028e-06 0.10093455)
(0.00050023252 5.4095225e-06 0.11700565)
(0.0006206989 1.0339911e-05 0.13176285)
(0.00073600525 1.6366638e-05 0.14500072)
(0.00084002636 2.3031841e-05 0.15656687)
(0.00092437906 3.0164629e-05 0.1663743)
(0.00098359635 3.8165438e-05 0.17440894)
(0.0010138698 4.6988468e-05 0.18073098)
(0.0010152492 5.5820046e-05 0.18546929)
(0.00098492838 6.5832673e-05 0.18880944)
(0.00093017288 7.5757637e-05 0.19097689)
(0.0008526056 8.4498929e-05 0.19221661)
(0.00075872428 9.1805084e-05 0.19277259)
(0.00065378114 9.7725782e-05 0.19286919)
(0.00054807165 0.0001005635 0.1926968)
(0.00044395985 0.00010104163 0.1924025)
(0.00034648677 0.00010093183 0.19208851)
(0.00027844044 0.00010751392 0.19181158)
(0.00022841895 0.00010419778 0.19159911)
(0.00017491434 9.2483901e-05 0.1914457)
(0.0001392823 7.6908055e-05 0.19134065)
(0.00010796572 5.4172179e-05 0.19126424)
(8.5596355e-05 3.0399606e-05 0.19120347)
(5.9266922e-05 -2.8968313e-07 0.19114548)
(4.8209768e-05 -2.8793149e-05 0.19108374)
(3.5566577e-05 -5.6678186e-05 0.1910177)
(2.8358642e-05 -8.851547e-05 0.19094604)
(1.756483e-05 -0.00011765949 0.19086747)
(1.2854286e-05 -0.00014826266 0.19078154)
(9.5457166e-06 -0.00017790175 0.19068735)
(6.5777402e-06 -0.00020625958 0.19058417)
(5.0641549e-06 -0.00023224574 0.19047147)
(1.3054692e-06 -0.00025448025 0.19034925)
(8.0810103e-08 -0.00027315701 0.19021635)
(2.9041674e-07 -0.000288919 0.19007309)
(1.2351596e-06 -0.00030013222 0.1899186)
(2.2398221e-06 -0.0003063881 0.18975353)
(5.08127e-06 -0.00030797453 0.18957807)
(9.5088123e-06 -0.00030504708 0.18939343)
(1.5778758e-05 -0.0002974031 0.18920086)
(2.4134423e-05 -0.00028481859 0.18900279)
(3.4823295e-05 -0.00026751503 0.18880296)
(5.1808785e-05 -0.00024290871 0.18860361)
(6.3366042e-05 -0.0002194837 0.1884243)
(0.00013748192 -0.00015324696 0.18821659)
(2.6062229e-05 -2.1188296e-06 0.0096704926)
(8.1334374e-05 -8.7524179e-06 0.028242641)
(0.00014960192 -1.044334e-05 0.046795689)
(0.00023406382 -8.0847646e-06 0.065094173)
(0.00033255008 -2.5038346e-06 0.082883656)
(0.00043649505 7.1253779e-06 0.099900502)
(0.00053819502 2.0407562e-05 0.11588486)
(0.00062988781 3.6578754e-05 0.13059578)
(0.00070416204 5.4738441e-05 0.14382726)
(0.00075458043 7.3008867e-05 0.15542368)
(0.00077688152 8.9600816e-05 0.16529261)
(0.00077226911 0.00010228855 0.17341311)
(0.00073663296 0.00011214861 0.17983808)
(0.00068137685 0.00011804386 0.18468965)
(0.00060901731 0.00011978871 0.18814787)
(0.000524217 0.000119309 0.19043379)
(0.00043339558 0.00011820063 0.19178869)
(0.0003388804 0.00011927643 0.19245338)
(0.00025077845 0.00011946633 0.1926491)
(0.00017526684 0.00011519075 0.19256261)
(0.00012159455 0.00011496269 0.192336)
(8.1142105e-05 0.00011144236 0.19206597)
(3.6032586e-05 8.5717372e-05 0.19181002)
(4.1004336e-06 6.1019005e-05 0.19159142)
(-1.5907105e-05 3.8360787e-05 0.19141614)
(-2.2633334e-05 1.0927053e-05 0.19127579)
(-2.2387653e-05 -1.1481479e-05 0.19116221)
(-1.9528385e-05 -3.8655332e-05 0.19106636)
(-9.0761118e-06 -6.0425529e-05 0.19098102)
(-8.5025345e-08 -8.47756e-05 0.19089909)
(6.4921996e-06 -0.00011114128 0.19081419)
(1.0603752e-05 -0.00013820978 0.19072301)
(1.2942711e-05 -0.00016519516 0.19062384)
(1.3943807e-05 -0.00019137691 0.19051578)
(1.4354052e-05 -0.00021611821 0.19039814)
(1.4171332e-05 -0.00023851635 0.19027041)
(1.3863294e-05 -0.00025802556 0.19013214)
(1.3860588e-05 -0.00027407531 0.18998302)
(1.4186588e-05 -0.00028609483 0.18982287)
(1.479726e-05 -0.00029361178 0.18965178)
(1.6025627e-05 -0.00029649022 0.18947017)
(1.7778311e-05 -0.00029442361 0.18927893)
(2.0053644e-05 -0.00028737767 0.18907945)
(2.3217415e-05 -0.00027541886 0.18887375)
(2.7387815e-05 -0.0002583634 0.1886648)
(3.2839957e-05 -0.00023600683 0.18845679)
(3.9681159e-05 -0.00020787799 0.18825547)
(4.8834242e-05 -0.00017343622 0.18806875)
(6.0689228e-05 -0.00013403614 0.18790773)
(8.8884985e-05 -6.8399176e-05 0.18777601)
(2.4740425e-05 -1.6294465e-06 0.009467355)
(7.89961e-05 -1.266392e-05 0.027688531)
(0.00013381926 -2.5766765e-05 0.045934241)
(0.00018739845 -4.4888984e-05 0.063976359)
(0.00024352305 -4.3366357e-05 0.0815655)
(0.00029852809 -1.178528e-05 0.098444418)
(0.00034168335 2.4099187e-05 0.11435096)
(0.00037138847 6.3485771e-05 0.12904164)
(0.00038658972 0.00010505604 0.14230427)
(0.0003759456 0.00014862839 0.15397538)
(0.00035881588 0.00017880437 0.16395385)
(0.00033230076 0.00020248195 0.17220775)
(0.00031311825 0.00020812983 0.17878058)
(0.00028649155 0.00016551484 0.18378907)
(0.00023896269 0.00011291605 0.18740456)
(0.00018093656 7.3467264e-05 0.18984061)
(0.00012504928 6.9506773e-05 0.19133203)
(8.1068023e-05 9.0967739e-05 0.19211488)
(3.8037137e-05 0.0001001313 0.19240416)
(3.376512e-06 9.8370314e-05 0.19238382)
(-1.5827181e-05 8.0244398e-05 0.19219659)
(-2.2811038e-05 5.7930092e-05 0.19194407)
(-1.9133761e-05 3.9925102e-05 0.19169169)
(-1.3967305e-05 1.8748287e-05 0.19147235)
(-6.5739836e-06 1.2030673e-07 0.19129647)
(-1.6583924e-06 -1.6716793e-05 0.1911612)
(2.7425306e-06 -3.7485341e-05 0.19105556)
(3.7175296e-06 -5.9763298e-05 0.19096438)
(4.1299866e-06 -8.2219463e-05 0.19087771)
(5.1046609e-06 -0.0001057909 0.19078959)
(6.1630637e-06 -0.00013140157 0.19069617)
(6.9399851e-06 -0.00015619509 0.19059532)
(7.7053787e-06 -0.00017950165 0.19048591)
(8.1761602e-06 -0.00020329382 0.19036706)
(8.2808041e-06 -0.00022516646 0.19023807)
(8.4771161e-06 -0.00024439405 0.19009856)
(8.4255217e-06 -0.0002616516 0.18994816)
(8.2900792e-06 -0.00027513468 0.1897868)
(8.3148284e-06 -0.00028321872 0.18961403)
(8.6529051e-06 -0.00028705902 0.18943098)
(9.0156091e-06 -0.00028608783 0.18923744)
(9.9078695e-06 -0.00027870227 0.18903572)
(1.1092418e-05 -0.00026727187 0.18882797)
(1.236272e-05 -0.00025176406 0.188617)
(1.3775192e-05 -0.00023118909 0.1884059)
(1.554951e-05 -0.00020373813 0.18819998)
(1.7952198e-05 -0.00017078092 0.18800702)
(2.0667949e-05 -0.00013284774 0.18783573)
(2.4411093e-05 -8.6501053e-05 0.18770068)
(2.9961468e-05 -3.0861699e-05 0.1876161)
(-3.2540909e-05 -3.0578125e-06 0.0094677807)
(-8.4067009e-05 -2.5314854e-06 0.027689304)
(-0.0001336433 9.1925705e-06 0.045935706)
(-0.00019170801 2.9317554e-05 0.063978776)
(-0.00025494415 4.2877765e-05 0.081568979)
(-0.00030884021 3.3519362e-05 0.098447065)
(-0.00035219397 1.1999795e-05 0.11435267)
(-0.00038278494 -1.0552555e-05 0.12904142)
(-0.00039757269 -3.3341043e-05 0.14230183)
(-0.00039144211 -5.4392098e-05 0.15397007)
(-0.00037188217 -7.3731439e-05 0.16394606)
(-0.00033767525 -9.4089849e-05 0.17219847)
(-0.00030675405 -6.7907649e-05 0.17877111)
(-0.00028492982 2.0461575e-06 0.1837828)
(-0.00024129422 5.4565384e-05 0.18740067)
(-0.00018928367 9.5325193e-05 0.18983843)
(-0.00013861241 0.00010146448 0.1913313)
(-8.9203961e-05 8.1155463e-05 0.1921136)
(-4.4858502e-05 7.3143001e-05 0.19240239)
(-6.4664284e-06 5.8193142e-05 0.1923809)
(1.2617669e-05 4.2953631e-05 0.19219387)
(1.9134721e-05 3.3336337e-05 0.19194392)
(1.5304969e-05 1.6108005e-05 0.19169292)
(1.0511716e-05 2.8829961e-06 0.19147378)
(3.6271114e-06 -1.3477173e-05 0.19129768)
(-1.4919093e-06 -2.9238604e-05 0.19116222)
(-5.6649485e-06 -4.6346149e-05 0.19105608)
(-6.6333517e-06 -6.4958468e-05 0.19096459)
(-6.9988e-06 -8.6141682e-05 0.19087779)
(-7.5579082e-06 -0.00010877462 0.19078955)
(-8.7651149e-06 -0.00013139901 0.19069628)
(-9.7134576e-06 -0.00015583918 0.19059573)
(-1.0056887e-05 -0.00018142692 0.19048646)
(-1.0179491e-05 -0.00020470973 0.19036768)
(-1.0271409e-05 -0.00022655782 0.19023887)
(-9.9746426e-06 -0.00024622441 0.19009945)
(-9.9375541e-06 -0.00026166583 0.18994907)
(-9.9376673e-06 -0.00027350072 0.18978744)
(-1.001569e-05 -0.00028236897 0.18961511)
(-1.0095926e-05 -0.00028636666 0.18943168)
(-1.0520039e-05 -0.00028549963 0.1892389)
(-1.0845109e-05 -0.00028099 0.18903714)
(-1.1386591e-05 -0.00027021115 0.1888283)
(-1.2466423e-05 -0.00025298928 0.18861538)
(-1.3980233e-05 -0.00023008349 0.18840339)
(-1.5887316e-05 -0.00020298393 0.18819802)
(-1.8143141e-05 -0.00016986845 0.18800618)
(-2.1324812e-05 -0.00012957572 0.18783861)
(-2.513949e-05 -8.5918483e-05 0.18770605)
(-3.0144876e-05 -3.2073325e-05 0.1876211)
(-2.7373655e-05 -2.842557e-06 0.0096709588)
(-8.3709422e-05 -8.8697587e-06 0.028243121)
(-0.00015255839 -1.1331272e-05 0.046796051)
(-0.00023764621 -1.1546341e-05 0.065094562)
(-0.00033409886 -1.0655201e-05 0.08288403)
(-0.00043652462 -1.0285918e-05 0.099900756)
(-0.00053700032 -1.1292611e-05 0.11588486)
(-0.00062735888 -1.3166588e-05 0.1305954)
(-0.00070009032 -1.5229277e-05 0.14382646)
(-0.00074923866 -1.6876146e-05 0.15542254)
(-0.00077131365 -1.7065543e-05 0.16529136)
(-0.00076697356 -1.487762e-05 0.17341207)
(-0.00073975344 -9.1661517e-06 0.17983755)
(-0.0006880469 4.3429238e-06 0.18468984)
(-0.00061663084 2.1697741e-05 0.18814883)
(-0.00053023214 3.8011531e-05 0.19043537)
(-0.00043324904 5.0774767e-05 0.19179067)
(-0.00033699363 5.7572737e-05 0.19245545)
(-0.00024576023 5.985116e-05 0.19265081)
(-0.00017489119 7.4312125e-05 0.19256366)
(-0.00012373627 8.3578543e-05 0.19233734)
(-7.9989281e-05 8.1830158e-05 0.19206752)
(-3.6839985e-05 6.4888601e-05 0.19181173)
(-2.4328771e-06 4.0474403e-05 0.1915929)
(1.53897e-05 2.4629213e-05 0.19141746)
(2.1994342e-05 1.3066297e-06 0.1912771)
(2.1264374e-05 -1.8459166e-05 0.19116345)
(1.802497e-05 -4.4208692e-05 0.19106749)
(7.8511806e-06 -6.4517743e-05 0.19098216)
(-1.4861876e-06 -8.7797041e-05 0.1909004)
(-8.2451609e-06 -0.00011322007 0.19081569)
(-1.216877e-05 -0.00013952732 0.19072466)
(-1.4532376e-05 -0.00016615581 0.19062564)
(-1.58439e-05 -0.0001922003 0.19051773)
(-1.6160584e-05 -0.00021669138 0.19040023)
(-1.6230345e-05 -0.00023906828 0.1902726)
(-1.5953886e-05 -0.00025843197 0.1901344)
(-1.5804989e-05 -0.00027434855 0.18998531)
(-1.5738745e-05 -0.00028628176 0.18982514)
(-1.6264555e-05 -0.00029397308 0.18965398)
(-1.7087604e-05 -0.00029691251 0.18947223)
(-1.8681776e-05 -0.00029507482 0.1892807)
(-2.1145604e-05 -0.00028823219 0.18908081)
(-2.439675e-05 -0.00027616275 0.18887472)
(-2.8507135e-05 -0.00025882513 0.18866554)
(-3.3620705e-05 -0.0002361045 0.18845752)
(-4.0438392e-05 -0.00020789965 0.1882564)
(-4.922787e-05 -0.00017331498 0.18806994)
(-6.0552814e-05 -0.00013383682 0.18790898)
(-8.8939488e-05 -6.8395423e-05 0.18777708)
(-1.4167486e-05 1.043328e-06 0.0097957975)
(-5.1149821e-05 -2.8716887e-06 0.028594938)
(-0.00010535648 -5.5569264e-06 0.047358751)
(-0.00018069563 -6.8215194e-06 0.065845754)
(-0.00027398646 -7.4636452e-06 0.083795062)
(-0.00038226592 -7.5813013e-06 0.1009374)
(-0.00049894519 -6.56007e-06 0.11700873)
(-0.00061896652 -4.1497782e-06 0.13176608)
(-0.00073397005 -1.5938186e-07 0.14500405)
(-0.00083794991 5.0842567e-06 0.15657025)
(-0.00092256154 1.1480918e-05 0.16637772)
(-0.00098225185 1.9324825e-05 0.1744124)
(-0.0010131759 2.8440735e-05 0.18073445)
(-0.0010150572 3.7841644e-05 0.18547273)
(-0.00098468455 4.8604482e-05 0.1888128)
(-0.00092936455 5.9430612e-05 0.19098009)
(-0.00085093598 6.9276403e-05 0.19221958)
(-0.00075648562 7.7935551e-05 0.19277528)
(-0.00065178693 8.5385348e-05 0.19287149)
(-0.00054731599 8.9837865e-05 0.19269861)
(-0.00044181562 9.4408075e-05 0.19240368)
(-0.00034560456 9.5560018e-05 0.19208888)
(-0.00027748766 0.0001048168 0.1918122)
(-0.00022802298 0.00010262074 0.19159905)
(-0.00017552501 9.20383e-05 0.19144603)
(-0.00013973173 7.7491636e-05 0.19134036)
(-0.00010865281 5.5933198e-05 0.19126415)
(-8.7070294e-05 3.1720294e-05 0.19120354)
(-6.1369506e-05 2.7105903e-07 0.19114531)
(-5.0248863e-05 -2.8281418e-05 0.19108394)
(-3.7838176e-05 -5.6349672e-05 0.19101855)
(-3.0577861e-05 -8.8267891e-05 0.19094751)
(-1.9678158e-05 -0.00011733323 0.1908695)
(-1.5074574e-05 -0.00014811099 0.19078405)
(-1.1734092e-05 -0.0001778797 0.19069028)
(-8.6963599e-06 -0.000206372 0.19058742)
(-7.0613303e-06 -0.00023247015 0.19047498)
(-3.1458228e-06 -0.00025479861 0.19035294)
(-1.753743e-06 -0.00027355829 0.19022014)
(-1.8020965e-06 -0.00028940699 0.1900769)
(-2.6007647e-06 -0.0003006975 0.18992236)
(-3.4894036e-06 -0.00030702513 0.18975718)
(-6.2261786e-06 -0.00030867693 0.18958157)
(-1.0532056e-05 -0.0003057912 0.18939675)
(-1.6652827e-05 -0.00029815625 0.18920396)
(-2.4842454e-05 -0.00028554991 0.1890056)
(-3.5365303e-05 -0.000268212 0.1888054)
(-5.2211732e-05 -0.00024354224 0.1886056)
(-6.3665937e-05 -0.00022005455 0.18842581)
(-0.00013790958 -0.00015363417 0.18821751)
(-9.5257892e-06 3.8269683e-06 0.0098574513)
(-3.9774268e-05 -4.323174e-06 0.02877299)
(-7.6038415e-05 1.9140166e-06 0.04764973)
(-0.00013963573 -5.5765479e-06 0.066242945)
(-0.00021123678 2.7427643e-06 0.084288258)
(-0.00030790465 -8.4568991e-06 0.10151254)
(-0.00040588186 -4.0182319e-06 0.1176483)
(-0.00051821108 -1.020228e-05 0.13244939)
(-0.00062509653 3.8145818e-06 0.14570842)
(-0.00074106928 7.0396716e-06 0.15727234)
(-0.00084936281 8.3506306e-06 0.16705554)
(-0.00094326207 7.929386e-06 0.17504692)
(-0.0010131973 2.6980144e-05 0.18131082)
(-0.0010792541 1.2317532e-05 0.1859809)
(-0.0010969612 3.5865385e-05 0.18924752)
(-0.0011067507 4.583956e-05 0.19134025)
(-0.0010906777 5.9427059e-05 0.19250747)
(-0.0010565879 6.0123955e-05 0.19299535)
(-0.00099216472 8.4741012e-05 0.19302969)
(-0.0009308544 8.2891952e-05 0.19280222)
(-0.00084791265 8.4771509e-05 0.19246036)
(-0.0007513165 0.00011851827 0.19210655)
(-0.00068648749 9.6093564e-05 0.19180199)
(-0.00059417004 8.9603226e-05 0.19157094)
(-0.00049843396 0.00011306614 0.19141293)
(-0.00043064743 0.00011969 0.19132082)
(-0.00037368427 0.00011070866 0.19127323)
(-0.00031841463 8.6964078e-05 0.19124726)
(-0.00025411761 8.3940962e-05 0.19123114)
(-0.00021934025 2.722877e-05 0.19121424)
(-0.00014759679 4.4626252e-05 0.19119078)
(-0.00013848527 -2.7749226e-05 0.19116195)
(-7.650003e-05 -2.2285783e-05 0.19111991)
(-6.3113487e-05 -4.843496e-05 0.19107548)
(-5.6886058e-05 -8.9507663e-05 0.19102297)
(-3.1972677e-05 -0.00010280849 0.19096289)
(-2.6062384e-05 -0.00014901954 0.19089662)
(-3.1135243e-05 -0.00021485814 0.19081811)
(3.2773877e-05 -0.00016550992 0.1907347)
(1.7267145e-06 -0.00023182069 0.19064452)
(1.3619209e-05 -0.00025013078 0.19054427)
(8.3979972e-06 -0.00028444902 0.19043075)
(3.422366e-05 -0.00026752688 0.19031071)
(1.7779593e-05 -0.00029322419 0.19017987)
(2.3415961e-05 -0.00028672219 0.19004183)
(9.8183404e-06 -0.00029388553 0.1898937)
(6.0673003e-06 -0.00028376845 0.18974309)
(-1.6015496e-05 -0.0002722342 0.18958083)
(-2.2486069e-05 -0.00027063621 0.18944503)
(-0.00010526558 -0.00022441227 0.189237)
(-7.958077e-06 6.0087258e-06 0.0098832746)
(-3.3821002e-05 -8.4229481e-06 0.028849679)
(-6.7107114e-05 8.1120466e-06 0.047774424)
(-0.00012089475 -7.5505084e-06 0.066416294)
(-0.00018431939 1.1381075e-05 0.084507412)
(-0.00026576405 -1.2673067e-05 0.10177245)
(-0.00035421596 -2.2813753e-06 0.11794183)
(-0.00045196253 -1.7540199e-05 0.13276981)
(-0.00054778654 8.9494314e-06 0.14604195)
(-0.00064551177 8.8370924e-06 0.15761151)
(-0.00074266725 5.9722093e-06 0.16738952)
(-0.00083266393 -1.4755832e-06 0.1753645)
(-0.00090614349 2.8813864e-05 0.18160332)
(-0.00097820551 -1.3591631e-05 0.1862412)
(-0.0010250742 2.691091e-05 0.18947026)
(-0.0010545062 3.1360128e-05 0.19151655)
(-0.0010699957 4.674367e-05 0.19264342)
(-0.0010723266 3.66863e-05 0.19308712)
(-0.0010518106 7.7603612e-05 0.19308321)
(-0.0010249995 6.2453872e-05 0.19282625)
(-0.000988841 6.3653523e-05 0.19246082)
(-0.00092609453 0.00012828994 0.19208405)
(-0.0008751044 7.9264858e-05 0.19177519)
(-0.00082166092 7.1922902e-05 0.19154274)
(-0.00074027669 0.00012565371 0.19131397)
(-0.00065536145 0.00013885759 0.19126752)
(-0.00057749949 0.00013403606 0.19124386)
(-0.00050023225 0.00010311824 0.19119061)
(-0.00041579729 0.00012558175 0.19118483)
(-0.00035609532 4.1527846e-05 0.19118417)
(-0.00026564741 0.00010801566 0.19118592)
(-0.00021499323 -1.1689198e-05 0.1912807)
(-0.00013735839 3.4376584e-05 0.19113317)
(-6.4301335e-05 2.9813276e-06 0.19117808)
(-3.5163877e-05 -4.9257285e-05 0.19121991)
(9.3057566e-06 -4.3068904e-05 0.19113854)
(6.3087436e-05 -0.00011159829 0.19116638)
(4.8910492e-05 -0.0002173054 0.19118795)
(0.00011053191 -8.4552622e-05 0.19113111)
(0.00011484733 -0.00020909296 0.19108569)
(0.00012600841 -0.00022455642 0.19105196)
(0.00010236038 -0.00027902031 0.19106496)
(0.00010884787 -0.00023018418 0.19098535)
(8.8806164e-05 -0.00027997657 0.19095214)
(7.9523441e-05 -0.00026339865 0.19087852)
(5.8266527e-05 -0.00028285993 0.19081511)
(4.2689191e-05 -0.00026906386 0.19074952)
(2.3342155e-05 -0.00026411666 0.19065799)
(9.8329925e-06 -0.00027216999 0.19062505)
(-3.1125498e-05 -0.00023907932 0.19060139)
(2.0270849e-05 7.6706963e-07 0.0078696904)
(5.4191456e-05 -1.7376133e-05 0.023297724)
(0.00013244083 4.9403341e-07 0.03910021)
(0.00024372732 -1.5144256e-05 0.05515507)
(0.00038503575 3.3445439e-06 0.071311258)
(0.00056429223 -2.0246588e-05 0.087388009)
(0.00076849279 -1.0226671e-05 0.10317557)
(0.00099538922 -2.5596985e-05 0.11844017)
(0.0012275994 -4.3339632e-07 0.13293164)
(0.001460502 -1.6247919e-06 0.1463965)
(0.0016817049 -5.8094631e-06 0.15859323)
(0.0018741641 -1.4680333e-05 0.16931183)
(0.0020185692 1.3225773e-05 0.1783934)
(0.0021215796 -3.0002652e-05 0.18574746)
(0.0021541803 7.6139012e-06 0.19136396)
(0.0021230843 9.7221768e-06 0.19532011)
(0.0020346756 2.1782313e-05 0.1977761)
(0.0018969596 7.6774996e-06 0.19896186)
(0.0017106584 4.2032477e-05 0.1991568)
(0.001504845 1.9262901e-05 0.19866021)
(0.0012880927 1.0329026e-05 0.19775942)
(0.0010527775 6.383949e-05 0.19670079)
(0.00084781242 2.0147761e-06 0.19566999)
(0.00066068295 -2.4736172e-05 0.19477758)
(0.00046375999 2.2091342e-05 0.19406446)
(0.00029824379 2.3101522e-05 0.19356242)
(0.00015569861 1.6677502e-05 0.19321193)
(2.8823794e-05 -2.501712e-05 0.19295181)
(-5.7201175e-05 -6.0455037e-06 0.19276487)
(-8.6182819e-05 -0.00010061593 0.19261614)
(-0.00021726776 -4.8322272e-05 0.19249419)
(-0.00026851265 -0.00017996826 0.19240888)
(-0.00034573834 -0.00013243531 0.19222047)
(-0.00041836253 -0.00016924261 0.19213032)
(-0.0004435919 -0.00022388653 0.19205205)
(-0.00046543644 -0.00020846015 0.19190584)
(-0.00050388058 -0.00027133276 0.19183792)
(-0.00042449569 -0.00036494798 0.19176971)
(-0.00046230842 -0.0002171424 0.19165387)
(-0.0004211361 -0.00033099373 0.19154754)
(-0.00040493752 -0.00033930619 0.19146479)
(-0.00032932073 -0.00038460984 0.19141942)
(-0.00030900085 -0.00032543116 0.19130662)
(-0.00024976173 -0.00036724736 0.19123162)
(-0.0002140899 -0.00034285066 0.19112918)
(-0.0001596107 -0.00035577819 0.19103417)
(-0.00012270468 -0.00033601542 0.19094585)
(-6.8253689e-05 -0.00032593009 0.19082378)
(-5.4754115e-05 -0.00033152483 0.19078338)
(4.1509012e-05 -0.00030154213 0.1907115)
(2.6019093e-05 -3.6950868e-06 0.0078239347)
(7.162806e-05 -1.7489947e-05 0.023162384)
(0.00015976221 -9.4674546e-06 0.038873609)
(0.00029534687 -1.7328276e-05 0.054836496)
(0.0004649108 -9.7946986e-06 0.070901646)
(0.00068550617 -2.1356409e-05 0.086890128)
(0.00093147353 -1.7550769e-05 0.1025952)
(0.0012102148 -2.4027291e-05 0.11778601)
(0.0014939968 -1.047254e-05 0.13221626)
(0.0017858666 -7.0787937e-06 0.14563582)
(0.0020557579 -5.0660192e-06 0.15780734)
(0.0022822764 -4.1922684e-06 0.16852384)
(0.0024416206 1.6078941e-05 0.17762707)
(0.0025415389 3.3388131e-06 0.18502415)
(0.0025302821 2.7130314e-05 0.19070118)
(0.0024463521 3.6070751e-05 0.1947274)
(0.0022764955 4.5923416e-05 0.1972551)
(0.0020395981 4.0043618e-05 0.19850774)
(0.0017397415 5.4608236e-05 0.19875964)
(0.0014317273 3.9737074e-05 0.19830784)
(0.0011095226 2.4688678e-05 0.19744076)
(0.0007961708 4.5382894e-05 0.19640736)
(0.00055453285 -6.8867456e-07 0.19539382)
(0.00033755954 -1.4487165e-05 0.19451663)
(0.00014657616 -2.887642e-06 0.19382247)
(3.9805593e-05 -6.2969749e-06 0.19330903)
(-3.2603197e-05 -2.8174396e-05 0.19294098)
(-0.00013230253 -7.5771905e-05 0.19267688)
(-0.0002160472 -9.4957396e-05 0.1924769)
(-0.00024488438 -0.00017034652 0.1923098)
(-0.00031119415 -0.00017177655 0.19215732)
(-0.00029255383 -0.00024976764 0.19200758)
(-0.00031850418 -0.0002419616 0.19185968)
(-0.00029918933 -0.00026797379 0.19171967)
(-0.0002611534 -0.00029926464 0.19157997)
(-0.00024875352 -0.00029702004 0.19144022)
(-0.00021662835 -0.0003307861 0.19130162)
(-0.00015212375 -0.00037346068 0.19115507)
(-0.00021213436 -0.0003058857 0.19101629)
(-0.00013379834 -0.00035881295 0.19087226)
(-0.0001263558 -0.00036421909 0.19072496)
(-8.7781469e-05 -0.00038256298 0.19056623)
(-0.0001117335 -0.00035316287 0.19041132)
(-6.9097408e-05 -0.00036872155 0.19024534)
(-6.8357856e-05 -0.0003536303 0.190079)
(-3.4281272e-05 -0.00035286931 0.18990015)
(-2.9179634e-05 -0.00033877927 0.18972817)
(2.5965724e-05 -0.00031969637 0.18952641)
(-1.9547127e-06 -0.00032628196 0.18938619)
(0.00017435272 -0.00027600949 0.18909215)
(4.0090199e-05 -7.1395298e-06 0.0077298026)
(0.00011379345 -1.9402584e-05 0.022886334)
(0.00024220859 -2.0613057e-05 0.038415469)
(0.00042580164 -2.1604156e-05 0.054199964)
(0.00066225975 -2.148822e-05 0.070095051)
(0.00094538595 -1.9908323e-05 0.08592753)
(0.001261758 -1.6089029e-05 0.10149676)
(0.0015948308 -9.6797973e-06 0.11657841)
(0.0019209446 -3.7149097e-07 0.13093174)
(0.002216365 1.1423595e-05 0.14431061)
(0.0024541934 2.5628518e-05 0.1564781)
(0.0026106339 4.2182107e-05 0.16722391)
(0.0026662039 5.9808959e-05 0.17638301)
(0.0026115286 7.5703153e-05 0.18385339)
(0.0024423546 8.9169551e-05 0.18961054)
(0.0021740028 9.7855183e-05 0.19371575)
(0.0018260378 0.00010035875 0.19631617)
(0.0014325246 9.6232086e-05 0.19763429)
(0.0010338569 8.2777349e-05 0.19794685)
(0.0006613198 5.6916747e-05 0.19755375)
(0.00035801354 5.2890525e-05 0.19674738)
(0.00010967787 3.3615023e-05 0.19577259)
(-5.7286544e-05 1.4907118e-05 0.1948106)
(-0.00017129717 -1.0893456e-05 0.19397218)
(-0.00029362193 -7.6951171e-05 0.19330365)
(-0.00036819747 -0.00013627914 0.1927992)
(-0.0003928433 -0.00020453911 0.19242672)
(-0.00038869404 -0.00025528291 0.19214683)
(-0.00038548869 -0.00031108756 0.19192578)
(-0.00035190265 -0.00034367891 0.19173799)
(-0.00028639954 -0.0003579399 0.19156895)
(-0.00023117771 -0.000370169 0.19141477)
(-0.00018660926 -0.00038076438 0.19126419)
(-0.0001490108 -0.00038972199 0.19111332)
(-0.00011979603 -0.00039575929 0.19096044)
(-9.5387973e-05 -0.00040012656 0.19080389)
(-7.3691635e-05 -0.00040180346 0.19064266)
(-6.1282468e-05 -0.00039897752 0.19047668)
(-4.4249836e-05 -0.00039758259 0.19030445)
(-3.1014209e-05 -0.00039353417 0.19012579)
(-1.8278386e-05 -0.00038732444 0.18993962)
(-9.1398765e-06 -0.00037752922 0.18974661)
(3.3554441e-06 -0.00036715786 0.18954622)
(1.485375e-05 -0.0003535926 0.18933926)
(2.8882924e-05 -0.00033825332 0.18912614)
(4.4304237e-05 -0.00031920017 0.18890839)
(6.0996979e-05 -0.00029951134 0.18868949)
(9.194487e-05 -0.00026945086 0.18846477)
(8.505678e-05 -0.00026078352 0.18827105)
(0.00023371879 -0.0001800781 0.18799246)
(8.309791e-05 -1.1886407e-05 0.0075627644)
(0.00023063903 -3.8319894e-05 0.022411883)
(0.00041902975 -4.5941987e-05 0.037650922)
(0.00065296269 -4.3456827e-05 0.053170811)
(0.00093295583 -3.4983373e-05 0.068835234)
(0.0012304539 -1.7596502e-05 0.084478962)
(0.0015400238 1.6264636e-06 0.099907544)
(0.0018205444 2.8667886e-05 0.11489984)
(0.0020450224 5.7909276e-05 0.12921409)
(0.0021897089 8.2328974e-05 0.14259849)
(0.0022514379 9.6738767e-05 0.15480622)
(0.0022164987 0.00010292918 0.16561498)
(0.0020808611 0.00010532015 0.17484844)
(0.0018598974 0.00010644551 0.18239588)
(0.0015527395 0.00011754253 0.18822835)
(0.0011973658 0.00012807605 0.19240819)
(0.0008293356 0.00012484762 0.19508774)
(0.00048111245 0.00010209999 0.19649451)
(0.00019168611 8.7112877e-05 0.19690857)
(-1.4980739e-05 9.9430479e-05 0.19662765)
(-0.00018343896 4.5284969e-05 0.19593336)
(-0.00030131549 -5.7046318e-05 0.19506363)
(-0.00036670417 -0.00012999428 0.19419199)
(-0.00040325154 -0.00021992994 0.19342207)
(-0.00040585254 -0.00028999522 0.19279588)
(-0.00038083747 -0.00034685886 0.19231452)
(-0.00032336924 -0.00036593512 0.19195408)
(-0.0002224823 -0.00035940676 0.19168271)
(-0.00013639271 -0.00035229567 0.1914721)
(-8.3404825e-05 -0.00035258733 0.19129964)
(-5.819044e-05 -0.0003639559 0.19114854)
(-4.060904e-05 -0.00037273423 0.19100158)
(-2.6460333e-05 -0.00037942983 0.19085195)
(-1.4796515e-05 -0.00038400723 0.19069731)
(-5.5581844e-06 -0.00038624572 0.19053678)
(2.3352743e-06 -0.00038637017 0.19036985)
(8.4916626e-06 -0.00038402943 0.19019612)
(1.3956405e-05 -0.00037957383 0.19001519)
(1.9224506e-05 -0.00037315799 0.18982679)
(2.3951155e-05 -0.0003641726 0.18963076)
(2.8971126e-05 -0.00035285941 0.18942735)
(3.4228986e-05 -0.00033875863 0.18921709)
(3.9718772e-05 -0.00032199798 0.18900102)
(4.5474131e-05 -0.00030246794 0.18878075)
(5.255942e-05 -0.00028013372 0.18855873)
(6.1248973e-05 -0.00025424146 0.18833858)
(7.2456983e-05 -0.00022419301 0.18812522)