/*--------------------------------*- C++ -*----------------------------------*\
| =========                 |                                                 |
| \\      /  F ield         | OpenFOAM: The Open Source CFD Toolbox           |
|  \\    /   O peration     | Version:  3.0.1                                 |
|   \\  /    A nd           | Web:      www.OpenFOAM.org                      |
|    \\/     M anipulation  |                                                 |
\*---------------------------------------------------------------------------*/
FoamFile
{
    version     2.0;
    format      ascii;
    class       volScalarField;
    location    "6000/fluid";
    object      G;
}
// * * * * * * * * * * * * * * * * * * * * * * * * * * * * * * * * * * * * * //

dimensions      [1 0 -3 0 0 0 0];

internalField   nonuniform List<scalar> 
162000
(
2434.0594
2434.0995
2434.144
2434.1933
2434.2481
2434.3089
2434.3763
2434.4513
2434.5347
2434.6276
2434.7315
2434.848
2434.9795
2435.129
2435.3007
2435.5
2435.734
2436.012
2436.3459
2436.7509
2437.2455
2437.8525
2438.5993
2439.518
2440.6462
2442.0271
2443.7097
2429.8397
2429.8227
2429.8028
2429.7796
2429.7524
2429.7205
2429.6835
2429.6405
2429.5911
2429.535
2429.4723
2429.4035
2429.3301
2429.2541
2429.179
2429.1094
2429.0518
2429.0142
2429.0068
2429.0419
2429.1345
2429.3022
2429.566
2429.9509
2430.4863
2431.2081
2432.1592
2426.5087
2426.4343
2426.3502
2426.2552
2426.1483
2426.0286
2425.8951
2425.7475
2425.5856
2425.4097
2425.2205
2425.0195
2424.8085
2424.5902
2424.3677
2424.1447
2423.9255
2423.7149
2423.5184
2423.3418
2423.1921
2423.0772
2423.0064
2422.9911
2423.0454
2423.1872
2423.4394
2423.9478
2423.8172
2423.6728
2423.5147
2423.3431
2423.1584
2422.9615
2422.7533
2422.5349
2422.3078
2422.0733
2421.8329
2421.5881
2421.3401
2421.0902
2420.8397
2420.5894
2420.3402
2420.0931
2419.849
2419.6087
2419.3737
2419.1458
2418.9272
2418.7216
2418.5335
2418.3697
2421.7239
2421.552
2421.3764
2421.1972
2421.0146
2420.829
2420.6402
2420.4483
2420.2531
2420.0545
2419.8522
2419.6459
2419.4351
2419.2194
2418.9985
2418.7719
2418.5392
2418.2999
2418.0537
2417.8001
2417.5388
2417.2693
2416.9915
2416.7051
2416.4103
2416.1076
2415.7986
2419.5628
2419.4654
2419.361
2419.2493
2419.13
2419.0028
2418.8676
2418.724
2418.5719
2418.4111
2418.2414
2418.0626
2417.8747
2417.6775
2417.4709
2417.2548
2417.0292
2416.7938
2416.5486
2416.2936
2416.0288
2415.7545
2415.4713
2415.1804
2414.8841
2414.5866
2414.2949
2445.4729
2445.5686
2445.6745
2445.7917
2445.9213
2446.0649
2446.224
2446.4004
2446.5961
2446.8135
2447.0554
2447.3252
2447.627
2447.9658
2448.3477
2448.7806
2449.2739
2449.8396
2450.4919
2451.2485
2452.1305
2453.163
2454.3757
2455.8031
2457.4854
2459.4688
2461.8054
2440.3262
2440.3594
2440.3951
2440.4332
2440.4739
2440.5172
2440.5635
2440.6129
2440.6661
2440.7238
2440.7875
2440.8591
2440.9411
2441.0372
2441.152
2441.2914
2441.4628
2441.675
2441.9386
2442.2663
2442.6729
2443.176
2443.7966
2444.5597
2445.4957
2446.6416
2448.0431
2436.455
2436.4309
2436.4026
2436.3697
2436.3317
2436.2886
2436.2405
2436.1878
2436.1313
2436.0721
2436.012
2435.953
2435.8977
2435.8487
2435.8094
2435.7831
2435.7734
2435.7839
2435.8188
2435.8824
2435.9797
2436.1165
2436.3001
2436.5401
2436.8486
2437.242
2437.7421
2433.71
2433.6378
2433.5586
2433.4732
2433.3824
2433.2877
2433.1902
2433.0916
2432.9934
2432.8972
2432.8044
2432.7162
2432.6334
2432.5566
2432.4861
2432.4216
2432.3625
2432.3079
2432.2568
2432.2078
2432.1597
2432.1111
2432.0612
2432.0092
2431.9553
2431.9004
2431.8467
2431.5543
2431.4582
2431.3666
2431.28
2431.1989
2431.1235
2431.0538
2430.9895
2430.9302
2430.8752
2430.8235
2430.774
2430.7253
2430.6758
2430.6239
2430.5677
2430.5051
2430.4339
2430.3517
2430.2556
2430.1428
2430.0096
2429.8524
2429.6667
2429.4476
2429.1897
2428.8873
2429.593
2429.5953
2429.5967
2429.597
2429.5959
2429.5931
2429.5882
2429.5807
2429.5701
2429.5556
2429.5366
2429.5123
2429.4815
2429.443
2429.3956
2429.3374
2429.2666
2429.1807
2429.077
2428.9521
2428.8018
2428.6212
2428.4043
2428.1438
2427.8308
2427.4545
2427.0018
2460.6423
2460.7544
2460.8786
2461.0165
2461.1694
2461.3394
2461.5282
2461.7384
2461.9725
2462.2337
2462.5256
2462.8527
2463.2203
2463.6349
2464.1046
2464.6392
2465.2507
2465.954
2466.7671
2467.7115
2468.8131
2470.1024
2471.6149
2473.392
2475.4812
2477.9365
2480.8188
2454.7125
2454.7531
2454.7971
2454.8449
2454.8966
2454.9526
2455.0134
2455.0798
2455.1527
2455.2336
2455.3243
2455.4278
2455.5477
2455.6887
2455.8571
2456.0604
2456.3081
2456.6114
2456.9837
2457.4409
2458.0014
2458.687
2459.5233
2460.5408
2461.7761
2463.2733
2465.0865
2450.3561
2450.3327
2450.3054
2450.2739
2450.2381
2450.1981
2450.1541
2450.1069
2450.0578
2450.0084
2449.961
2449.9184
2449.8839
2449.8615
2449.8554
2449.8703
2449.9112
2449.9835
2450.0929
2450.2459
2450.4496
2450.7124
2451.0445
2451.4588
2451.9714
2452.6035
2453.3825
2447.3925
2447.3173
2447.2353
2447.1473
2447.0545
2446.9584
2446.8607
2446.7632
2446.668
2446.5771
2446.4925
2446.4159
2446.3491
2446.2934
2446.2497
2446.2187
2446.2009
2446.1964
2446.2053
2446.2275
2446.2631
2446.3125
2446.3765
2446.4567
2446.5556
2446.6769
2446.8265
2445.1812
2445.0807
2444.9851
2444.8953
2444.8118
2444.7351
2444.6655
2444.6032
2444.5479
2444.4996
2444.4576
2444.4213
2444.3899
2444.3625
2444.338
2444.3153
2444.2931
2444.2702
2444.2451
2444.2161
2444.1817
2444.1396
2444.0878
2444.0237
2443.9444
2443.8467
2443.7273
2443.2339
2443.2329
2443.2317
2443.2301
2443.228
2443.2255
2443.2222
2443.2181
2443.2129
2443.2065
2443.1983
2443.1882
2443.1754
2443.1596
2443.1398
2443.1152
2443.0846
2443.0465
2442.9994
2442.9408
2442.8682
2442.7783
2442.6668
2442.529
2442.3585
2442.1481
2441.8889
2482.1392
2482.2675
2482.4098
2482.5675
2482.7426
2482.9371
2483.1532
2483.3936
2483.6613
2483.9599
2484.2935
2484.6672
2485.0867
2485.5595
2486.0944
2486.7022
2487.3961
2488.1923
2489.1104
2490.1738
2491.4104
2492.8533
2494.5409
2496.5177
2498.8348
2501.55
2504.7284
2475.7608
2475.8125
2475.8687
2475.9299
2475.9965
2476.069
2476.1481
2476.2347
2476.33
2476.4357
2476.5541
2476.6884
2476.8427
2477.0223
2477.234
2477.4863
2477.7893
2478.1555
2478.5995
2479.1386
2479.7931
2480.5868
2481.5478
2482.7095
2484.1116
2485.8023
2487.84
2471.1256
2471.1095
2471.0903
2471.0678
2471.0419
2471.0127
2470.9808
2470.947
2470.9127
2470.8798
2470.8509
2470.8291
2470.8179
2470.8217
2470.8453
2470.8939
2470.9731
2471.089
2471.2483
2471.4584
2471.7276
2472.0656
2472.4843
2472.9982
2473.626
2474.3913
2475.3246
2468.026
2467.9565
2467.8807
2467.7996
2467.7145
2467.6269
2467.5387
2467.4519
2467.3688
2467.2914
2467.2222
2467.163
2467.1159
2467.0824
2467.064
2467.0618
2467.0767
2467.1093
2467.1602
2467.2302
2467.32
2467.4309
2467.5646
2467.7237
2467.9121
2468.1349
2468.3996
2465.7512
2465.656
2465.5665
2465.4835
2465.4078
2465.3399
2465.2804
2465.2295
2465.1871
2465.1533
2465.1278
2465.1101
2465.0997
2465.0961
2465.0984
2465.106
2465.1181
2465.1338
2465.1523
2465.1726
2465.1935
2465.2137
2465.2318
2465.246
2465.2539
2465.2532
2465.2408
2463.7598
2463.7655
2463.7716
2463.7782
2463.7853
2463.7929
2463.801
2463.8095
2463.8185
2463.8279
2463.8375
2463.8474
2463.8571
2463.8666
2463.8754
2463.883
2463.8888
2463.892
2463.8914
2463.8856
2463.8726
2463.8501
2463.8148
2463.763
2463.6895
2463.5884
2463.4521
2507.7921
2507.9307
2508.0844
2508.2547
2508.4437
2508.6536
2508.8867
2509.1459
2509.4346
2509.7563
2510.1157
2510.5178
2510.9692
2511.4772
2512.0514
2512.703
2513.4459
2514.2969
2515.2764
2516.4086
2517.7226
2519.2526
2521.0383
2523.1258
2525.5678
2528.424
2531.7613
2501.1623
2501.2212
2501.2855
2501.3556
2501.432
2501.5153
2501.6062
2501.7058
2501.8155
2501.9371
2502.0732
2502.2269
2502.4028
2502.6063
2502.8447
2503.1266
2503.4629
2503.8663
2504.3521
2504.9383
2505.646
2506.5001
2507.5296
2508.7693
2510.2605
2512.0531
2514.2077
2496.3686
2496.3578
2496.3443
2496.3281
2496.3091
2496.2875
2496.2639
2496.2392
2496.215
2496.1933
2496.1767
2496.1685
2496.1724
2496.1931
2496.2354
2496.3048
2496.4073
2496.5492
2496.7377
2496.9803
2497.2861
2497.6652
2498.1302
2498.6964
2499.3833
2500.2155
2501.225
2493.1871
2493.1218
2493.0506
2492.9746
2492.8951
2492.8138
2492.7325
2492.6534
2492.5788
2492.511
2492.4524
2492.405
2492.3711
2492.3523
2492.3502
2492.3661
2492.401
2492.4558
2492.5312
2492.6283
2492.7479
2492.8917
2493.0615
2493.2604
2493.4923
2493.7631
2494.0804
2490.8653
2490.7741
2490.6892
2490.6114
2490.5416
2490.4804
2490.4283
2490.3857
2490.3527
2490.3293
2490.3154
2490.3105
2490.3144
2490.3264
2490.3461
2490.3728
2490.4059
2490.4447
2490.4885
2490.5363
2490.5874
2490.6403
2490.6938
2490.746
2490.7946
2490.8368
2490.8694
2488.8322
2488.8432
2488.8552
2488.8682
2488.8824
2488.8978
2488.9145
2488.9325
2488.9519
2488.9727
2488.995
2489.0187
2489.0438
2489.0701
2489.0974
2489.1253
2489.1535
2489.1812
2489.2074
2489.2309
2489.2499
2489.2622
2489.2647
2489.2535
2489.2236
2489.1689
2489.0816
2535.3363
2535.4811
2535.6415
2535.8193
2536.0166
2536.2356
2536.4788
2536.7493
2537.0503
2537.3859
2537.7605
2538.1797
2538.6499
2539.179
2539.7767
2540.4546
2541.2268
2542.1108
2543.1273
2544.3014
2545.6626
2547.2459
2549.0921
2551.2482
2553.7681
2556.7129
2560.1506
2528.5368
2528.5999
2528.6686
2528.7437
2528.8255
2528.9147
2529.0122
2529.119
2529.2367
2529.367
2529.5127
2529.6772
2529.8649
2530.0817
2530.3348
2530.6333
2530.988
2531.4123
2531.9218
2532.5348
2533.273
2534.1618
2535.231
2536.5162
2538.0597
2539.9126
2542.1366
2523.6325
2523.6242
2523.6136
2523.6004
2523.5847
2523.5668
2523.5472
2523.5269
2523.5076
2523.4913
2523.4806
2523.4791
2523.4905
2523.5195
2523.5711
2523.6511
2523.7654
2523.9207
2524.1241
2524.3837
2524.7085
2525.1091
2525.5982
2526.1918
2526.9096
2527.7771
2528.8269
2520.3887
2520.3252
2520.2559
2520.1819
2520.1047
2520.026
2519.9476
2519.8718
2519.801
2519.7374
2519.6836
2519.6417
2519.6138
2519.6019
2519.6076
2519.6321
2519.6765
2519.7418
2519.829
2519.9388
2520.0724
2520.2313
2520.4177
2520.6344
2520.8857
2521.1772
2521.5169
2518.0273
2517.9375
2517.8543
2517.7786
2517.7113
2517.653
2517.6043
2517.5656
2517.5369
2517.5185
2517.51
2517.5113
2517.5219
2517.5414
2517.5693
2517.6049
2517.6478
2517.6971
2517.7522
2517.8123
2517.8762
2517.9429
2518.0107
2518.0776
2518.1411
2518.1982
2518.2448
2515.9586
2515.9724
2515.9874
2516.0037
2516.0215
2516.0409
2516.0619
2516.0846
2516.1092
2516.1357
2516.1642
2516.1946
2516.227
2516.2612
2516.2971
2516.3344
2516.3726
2516.411
2516.4487
2516.4843
2516.5161
2516.5415
2516.5575
2516.5599
2516.5432
2516.5007
2516.424
2563.4795
2563.6284
2563.7934
2563.9763
2564.1793
2564.4045
2564.6547
2564.9329
2565.2425
2565.5876
2565.9729
2566.4039
2566.8873
2567.4313
2568.0455
2568.7421
2569.5354
2570.4431
2571.4865
2572.6912
2574.0873
2575.7105
2577.6023
2579.8107
2582.3907
2585.4045
2588.9217
2556.5393
2556.6048
2556.6764
2556.7544
2556.8395
2556.9323
2557.0338
2557.145
2557.2675
2557.4032
2557.5548
2557.7259
2557.921
2558.146
2558.4084
2558.7174
2559.0842
2559.5221
2560.0472
2560.6782
2561.4372
2562.3501
2563.4473
2564.7651
2566.3465
2568.2437
2570.5198
2551.5414
2551.5342
2551.5249
2551.5131
2551.4989
2551.4826
2551.4647
2551.4465
2551.4294
2551.4155
2551.4077
2551.4093
2551.4243
2551.4575
2551.5139
2551.5994
2551.7201
2551.8827
2552.0946
2552.3639
2552.6998
2553.1132
2553.6172
2554.2277
2554.9652
2555.8554
2556.9316
2548.243
2548.1798
2548.1109
2548.0374
2547.9607
2547.8826
2547.805
2547.7301
2547.6604
2547.5983
2547.5461
2547.5063
2547.4808
2547.4718
2547.4807
2547.5089
2547.5577
2547.6278
2547.7203
2547.8361
2547.9763
2548.1424
2548.3366
2548.5619
2548.8223
2549.1237
2549.4739
2545.8465
2545.7568
2545.6738
2545.5984
2545.5317
2545.4742
2545.4265
2545.3891
2545.362
2545.3454
2545.3391
2545.3428
2545.3561
2545.3787
2545.4099
2545.4493
2545.496
2545.5496
2545.6093
2545.674
2545.7429
2545.8145
2545.8872
2545.9587
2546.0264
2546.0867
2546.1354
2543.7478
2543.7627
2543.779
2543.7968
2543.8161
2543.8372
2543.86
2543.8848
2543.9116
2543.9404
2543.9715
2544.0047
2544.04
2544.0774
2544.1167
2544.1575
2544.1993
2544.2415
2544.283
2544.3225
2544.3578
2544.3865
2544.4052
2544.4092
2544.3929
2544.3488
2544.2676
2591.5694
2591.7217
2591.8905
2592.0776
2592.2851
2592.5155
2592.7714
2593.0559
2593.3726
2593.7255
2594.1196
2594.5604
2595.0548
2595.6112
2596.2393
2596.9516
2597.7627
2598.6906
2599.7571
2600.9882
2602.4145
2604.0726
2606.0046
2608.2594
2610.8931
2613.9691
2617.5583
2584.4988
2584.5661
2584.6396
2584.7199
2584.8074
2584.9029
2585.0073
2585.1217
2585.2478
2585.3875
2585.5435
2585.7195
2585.9202
2586.1515
2586.4211
2586.7382
2587.1144
2587.5633
2588.101
2588.7468
2589.523
2590.456
2591.577
2592.9226
2594.5369
2596.473
2598.7951
2579.4126
2579.4061
2579.3973
2579.3862
2579.3727
2579.3572
2579.3403
2579.323
2579.307
2579.2944
2579.2881
2579.2915
2579.3087
2579.3443
2579.4038
2579.4929
2579.6178
2579.7856
2580.0034
2580.2798
2580.624
2581.0472
2581.5625
2582.1864
2582.9396
2583.8482
2584.9463
2576.0618
2575.9983
2575.9292
2575.8554
2575.7785
2575.7002
2575.6225
2575.5477
2575.4781
2575.4162
2575.3645
2575.3254
2575.301
2575.2932
2575.3038
2575.334
2575.385
2575.4579
2575.5535
2575.6728
2575.8169
2575.9874
2576.1864
2576.4168
2576.683
2576.9905
2577.3474
2573.6316
2573.5413
2573.4578
2573.3822
2573.3152
2573.2577
2573.2102
2573.1731
2573.1465
2573.1305
2573.125
2573.1298
2573.1444
2573.1683
2573.2011
2573.2421
2573.2908
2573.3463
2573.4079
2573.4748
2573.5456
2573.6191
2573.6933
2573.766
2573.8342
2573.894
2573.9408
2571.5048
2571.5203
2571.5373
2571.5558
2571.5759
2571.5978
2571.6215
2571.6473
2571.6751
2571.7051
2571.7373
2571.7717
2571.8084
2571.8471
2571.8878
2571.9299
2571.9731
2572.0166
2572.0591
2572.0993
2572.135
2572.1635
2572.1809
2572.1826
2572.1623
2572.1119
2572.0216
2619.2845
2619.4399
2619.6121
2619.803
2620.0147
2620.2498
2620.5109
2620.8012
2621.1243
2621.4845
2621.8866
2622.3365
2622.8411
2623.4088
2624.0498
2624.7767
2625.6043
2626.5512
2627.6393
2628.895
2630.3499
2632.0409
2634.0109
2636.31
2638.9949
2642.1305
2645.7887
2612.0879
2612.1568
2612.232
2612.3142
2612.4037
2612.5016
2612.6085
2612.7258
2612.8549
2612.9981
2613.158
2613.3383
2613.5439
2613.7808
2614.0567
2614.3812
2614.7659
2615.2246
2615.7739
2616.4331
2617.2253
2618.1771
2619.3201
2620.6919
2622.3373
2624.3102
2626.6761
2606.9164
2606.9102
2606.9019
2606.8912
2606.8781
2606.8631
2606.8467
2606.8301
2606.8148
2606.8031
2606.7978
2606.8024
2606.8211
2606.8588
2606.9206
2607.0126
2607.1411
2607.313
2607.536
2607.8185
2608.17
2608.6018
2609.1274
2609.7634
2610.5308
2611.4565
2612.5748
2603.5148
2603.4509
2603.3812
2603.307
2603.2296
2603.1508
2603.0726
2602.9974
2602.9275
2602.8655
2602.8139
2602.775
2602.7511
2602.744
2602.7555
2602.787
2602.8397
2602.9145
2603.0123
2603.1342
2603.2813
2603.4552
2603.6579
2603.8925
2604.1632
2604.4758
2604.8382
2601.0519
2600.9608
2600.8766
2600.8004
2600.733
2600.6751
2600.6274
2600.5901
2600.5636
2600.5479
2600.5428
2600.548
2600.5632
2600.588
2600.6216
2600.6636
2600.7133
2600.7699
2600.8327
2600.9006
2600.9724
2601.0467
2601.1214
2601.1941
2601.2616
2601.3198
2601.3636
2598.8982
2598.9141
2598.9314
2598.9503
2598.9709
2598.9933
2599.0176
2599.0439
2599.0723
2599.1029
2599.1358
2599.1709
2599.2082
2599.2476
2599.2889
2599.3316
2599.3753
2599.419
2599.4616
2599.5015
2599.5364
2599.5634
2599.5785
2599.5766
2599.5509
2599.4929
2599.392
2646.4347
2646.593
2646.7684
2646.9628
2647.1786
2647.418
2647.6841
2647.9799
2648.3091
2648.6761
2649.0859
2649.5443
2650.0586
2650.6372
2651.2905
2652.0312
2652.8747
2653.8396
2654.9484
2656.228
2657.7103
2659.4329
2661.4397
2663.7814
2666.516
2669.7092
2673.4346
2639.115
2639.1853
2639.2621
2639.346
2639.4375
2639.5374
2639.6467
2639.7665
2639.8985
2640.0448
2640.2083
2640.3927
2640.6028
2640.8448
2641.1267
2641.4581
2641.8507
2642.3187
2642.8789
2643.551
2644.3583
2645.328
2646.4923
2647.8892
2649.5645
2651.5729
2653.9813
2633.8598
2633.8539
2633.8458
2633.8354
2633.8227
2633.808
2633.792
2633.7758
2633.761
2633.7499
2633.7455
2633.7511
2633.7712
2633.8104
2633.8743
2633.9689
2634.1005
2634.2764
2634.5041
2634.7922
2635.1505
2635.5903
2636.1255
2636.7729
2637.5539
2638.4957
2639.6334
2630.4082
2630.3438
2630.2736
2630.1987
2630.1207
2630.0413
2629.9625
2629.8868
2629.8165
2629.7542
2629.7024
2629.6636
2629.6399
2629.6333
2629.6455
2629.678
2629.7319
2629.8083
2629.9081
2630.0322
2630.1819
2630.3586
2630.5646
2630.8028
2631.0775
2631.3945
2631.7618
2627.9135
2627.8215
2627.7365
2627.6596
2627.5916
2627.5333
2627.4852
2627.4477
2627.4212
2627.4054
2627.4005
2627.406
2627.4216
2627.4468
2627.4811
2627.5237
2627.5741
2627.6315
2627.6949
2627.7635
2627.8358
2627.9104
2627.9851
2628.0573
2628.1236
2628.1796
2628.2199
2625.7341
2625.7502
2625.7679
2625.7871
2625.808
2625.8307
2625.8554
2625.882
2625.9109
2625.9419
2625.9751
2626.0107
2626.0484
2626.0881
2626.1297
2626.1727
2626.2164
2626.26
2626.3022
2626.3413
2626.375
2626.4
2626.4121
2626.4059
2626.3743
2626.3082
2626.1962
2672.9101
2673.0712
2673.2497
2673.4476
2673.6672
2673.9109
2674.1817
2674.4828
2674.8179
2675.1916
2675.6087
2676.0754
2676.599
2677.1881
2677.8533
2678.6075
2679.4663
2680.4487
2681.5775
2682.8802
2684.3891
2686.1426
2688.1852
2690.5684
2693.3513
2696.6008
2700.3917
2665.4702
2665.542
2665.6203
2665.7058
2665.7991
2665.901
2666.0125
2666.1348
2666.2695
2666.4189
2666.5858
2666.7739
2666.9884
2667.2354
2667.5229
2667.8609
2668.2612
2668.7381
2669.3089
2669.9934
2670.8153
2671.8024
2672.9872
2674.4085
2676.1128
2678.1559
2680.6055
2660.1337
2660.1279
2660.1201
2660.1099
2660.0974
2660.083
2660.0673
2660.0514
2660.0371
2660.0266
2660.0228
2660.0294
2660.0506
2660.0914
2660.1571
2660.2541
2660.3887
2660.5681
2660.8003
2661.0938
2661.4585
2661.9061
2662.4504
2663.1088
2663.9029
2664.8604
2666.0167
2656.6334
2656.5684
2656.4976
2656.4221
2656.3434
2656.2633
2656.1839
2656.1076
2656.0368
2655.9741
2655.9221
2655.8831
2655.8595
2655.8533
2655.8661
2655.8994
2655.9544
2656.0322
2656.1337
2656.2598
2656.4118
2656.5912
2656.8001
2657.0417
2657.3201
2657.6413
2658.0131
2654.1077
2654.0148
2653.929
2653.8513
2653.7827
2653.7238
2653.6753
2653.6375
2653.6108
2653.595
2653.5901
2653.5958
2653.6116
2653.6372
2653.6718
2653.715
2653.7659
2653.8238
2653.8877
2653.9567
2654.0293
2654.104
2654.1785
2654.25
2654.3149
2654.3686
2654.4053
2651.9033
2651.9196
2651.9375
2651.9569
2651.9781
2652.001
2652.026
2652.0529
2652.0821
2652.1134
2652.1469
2652.1827
2652.2207
2652.2607
2652.3024
2652.3454
2652.389
2652.4323
2652.474
2652.5121
2652.5442
2652.567
2652.576
2652.5655
2652.5278
2652.4535
2652.3304
2698.6282
2698.792
2698.9735
2699.1747
2699.398
2699.6458
2699.9212
2700.2274
2700.5682
2700.9482
2701.3725
2701.8472
2702.3797
2702.979
2703.6556
2704.4228
2705.2964
2706.2958
2707.444
2708.769
2710.3037
2712.087
2714.1642
2716.5877
2719.4175
2722.7216
2726.5761
2691.0712
2691.1442
2691.224
2691.311
2691.4061
2691.5099
2691.6235
2691.7481
2691.8854
2692.0377
2692.2078
2692.3996
2692.6182
2692.8699
2693.1629
2693.5072
2693.9148
2694.4004
2694.9812
2695.6777
2696.5138
2697.5176
2698.7223
2700.1672
2701.8996
2703.9762
2706.4659
2685.655
2685.6495
2685.6418
2685.6317
2685.6195
2685.6053
2685.5898
2685.5743
2685.5603
2685.5503
2685.5471
2685.5545
2685.5768
2685.6189
2685.6865
2685.7856
2685.923
2686.1059
2686.3423
2686.6409
2687.0118
2687.4667
2688.0198
2688.6887
2689.4954
2690.4679
2691.6423
2682.1072
2682.0416
2681.9702
2681.894
2681.8146
2681.7338
2681.6538
2681.5769
2681.5055
2681.4424
2681.3901
2681.351
2681.3274
2681.3214
2681.3347
2681.3688
2681.4248
2681.5038
2681.6068
2681.7347
2681.8888
2682.0706
2682.2823
2682.527
2682.8088
2683.1338
2683.5099
2679.5515
2679.4577
2679.371
2679.2926
2679.2233
2679.1639
2679.1149
2679.0768
2679.0498
2679.0339
2679.029
2679.0347
2679.0507
2679.0765
2679.1115
2679.155
2679.2063
2679.2646
2679.3289
2679.3981
2679.4709
2679.5454
2679.6195
2679.6901
2679.7534
2679.8046
2679.8375
2677.3231
2677.3396
2677.3576
2677.3773
2677.3986
2677.4218
2677.4469
2677.4741
2677.5035
2677.535
2677.5688
2677.6047
2677.6429
2677.6829
2677.7247
2677.7676
2677.811
2677.8538
2677.8947
2677.9317
2677.9622
2677.9826
2677.9883
2677.9732
2677.9294
2677.8468
2677.7125
2723.5401
2723.7064
2723.8908
2724.0953
2724.3221
2724.5739
2724.8537
2725.1648
2725.5111
2725.8973
2726.3284
2726.8109
2727.3521
2727.9611
2728.6489
2729.4287
2730.3166
2731.3323
2732.4994
2733.846
2735.4057
2737.218
2739.3288
2741.7913
2744.6666
2748.0237
2751.9399
2715.8694
2715.9437
2716.0248
2716.1134
2716.2101
2716.3157
2716.4313
2716.5582
2716.698
2716.853
2717.0262
2717.2215
2717.4441
2717.7004
2717.9987
2718.349
2718.7637
2719.2576
2719.8482
2720.5563
2721.406
2722.426
2723.6499
2725.1178
2726.8774
2728.9865
2731.515
2710.3761
2710.3707
2710.3632
2710.3533
2710.3412
2710.3272
2710.312
2710.2967
2710.2831
2710.2735
2710.2709
2710.279
2710.3023
2710.3457
2710.4149
2710.5162
2710.6562
2710.8424
2711.0828
2711.3863
2711.7631
2712.2251
2712.7867
2713.4657
2714.2845
2715.2716
2716.4635
2706.7824
2706.7162
2706.6441
2706.5673
2706.4872
2706.4057
2706.325
2706.2474
2706.1756
2706.112
2706.0593
2706.02
2705.9965
2705.9906
2706.0043
2706.039
2706.0959
2706.1761
2706.2805
2706.4101
2706.5661
2706.7502
2706.9645
2707.2121
2707.4972
2707.8258
2708.2059
2704.1976
2704.1029
2704.0154
2703.9362
2703.8662
2703.8062
2703.7568
2703.7183
2703.691
2703.675
2703.67
2703.6757
2703.6919
2703.7178
2703.753
2703.7968
2703.8484
2703.907
2703.9715
2704.0409
2704.1137
2704.1881
2704.2616
2704.3313
2704.393
2704.4417
2704.4709
2701.946
2701.9627
2701.9808
2702.0006
2702.0221
2702.0455
2702.0708
2702.0981
2702.1276
2702.1593
2702.1932
2702.2293
2702.2675
2702.3077
2702.3493
2702.3921
2702.4352
2702.4775
2702.5176
2702.5534
2702.5822
2702.6002
2702.6027
2702.5831
2702.5332
2702.4425
2702.2973
2747.6024
2747.7713
2747.9584
2748.1659
2748.3962
2748.6518
2748.9358
2749.2517
2749.6033
2749.9953
2750.4331
2750.923
2751.4726
2752.091
2752.7895
2753.5814
2754.4831
2755.5146
2756.6997
2758.0672
2759.651
2761.4911
2763.6343
2766.1346
2769.0538
2772.462
2776.4378
2739.8217
2739.8971
2739.9796
2740.0696
2740.1679
2740.2753
2740.3928
2740.5218
2740.664
2740.8216
2740.9978
2741.1965
2741.4228
2741.6835
2741.9868
2742.3429
2742.7645
2743.2663
2743.8664
2744.5855
2745.4484
2746.4839
2747.7264
2749.2163
2751.0022
2753.1426
2755.7085
2734.2536
2734.2484
2734.2409
2734.2312
2734.2193
2734.2054
2734.1903
2734.1753
2734.162
2734.1528
2734.1507
2734.1596
2734.1837
2734.2284
2734.2992
2734.4024
2734.545
2734.7343
2734.9785
2735.2866
2735.669
2736.1378
2736.7076
2737.3964
2738.2268
2739.2278
2740.4365
2730.6153
2730.5486
2730.4759
2730.3983
2730.3176
2730.2354
2730.154
2730.0758
2730.0034
2729.9393
2729.8863
2729.8468
2729.8232
2729.8175
2729.8316
2729.8668
2729.9245
2730.0057
2730.1114
2730.2426
2730.4005
2730.5867
2730.8034
2731.0536
2731.3418
2731.6738
2732.0577
2728.0026
2727.907
2727.8186
2727.7387
2727.6681
2727.6075
2727.5575
2727.5187
2727.4911
2727.4748
2727.4697
2727.4755
2727.4917
2727.5178
2727.5532
2727.5972
2727.649
2727.7078
2727.7725
2727.842
2727.9147
2727.9888
2728.0617
2728.1303
2728.1903
2728.2365
2728.2619
2725.7288
2725.7456
2725.7639
2725.7838
2725.8054
2725.8289
2725.8543
2725.8818
2725.9115
2725.9433
2725.9773
2726.0135
2726.0517
2726.0918
2726.1333
2726.1759
2726.2186
2726.2603
2726.2995
2726.3341
2726.3611
2726.3767
2726.3759
2726.3518
2726.2959
2726.197
2726.0412
2770.7926
2770.9639
2771.1537
2771.3642
2771.5977
2771.857
2772.1451
2772.4655
2772.8223
2773.22
2773.6641
2774.1612
2774.7188
2775.3463
2776.055
2776.8586
2777.7736
2778.8203
2780.0229
2781.4104
2783.0174
2784.8844
2787.0588
2789.5954
2792.5568
2796.0143
2800.0475
2762.906
2762.9826
2763.0663
2763.1576
2763.2574
2763.3665
2763.4859
2763.6169
2763.7614
2763.9216
2764.1006
2764.3025
2764.5326
2764.7974
2765.1055
2765.4673
2765.8954
2766.4049
2767.014
2767.7438
2768.6193
2769.6699
2770.9302
2772.4413
2774.2525
2776.4231
2779.025
2757.2661
2757.261
2757.2537
2757.2441
2757.2323
2757.2185
2757.2036
2757.1888
2757.1758
2757.1669
2757.1653
2757.1748
2757.1999
2757.2457
2757.3179
2757.4231
2757.568
2757.7603
2758.0082
2758.3208
2758.7086
2759.184
2759.7615
2760.4596
2761.3012
2762.3157
2763.5405
2753.5851
2753.5178
2753.4444
2753.3663
2753.2848
2753.202
2753.1199
2753.0411
2752.9681
2752.9035
2752.8501
2752.8104
2752.7868
2752.7812
2752.7955
2752.8313
2752.8898
2752.9719
2753.0789
2753.2115
2753.3711
2753.5593
2753.7783
2754.0312
2754.3222
2754.6574
2755.045
2750.9454
2750.8489
2750.7598
2750.6791
2750.6078
2750.5466
2750.4962
2750.457
2750.4291
2750.4126
2750.4074
2750.4131
2750.4293
2750.4555
2750.4911
2750.5352
2750.5872
2750.6462
2750.7111
2750.7806
2750.8532
2750.927
2750.9993
2751.0668
2751.1252
2751.1689
2751.1907
2748.6502
2748.6671
2748.6855
2748.7055
2748.7272
2748.7508
2748.7764
2748.804
2748.8337
2748.8656
2748.8997
2748.936
2748.9742
2749.0142
2749.0557
2749.098
2749.1403
2749.1814
2749.2197
2749.2531
2749.2784
2749.2916
2749.2875
2749.2591
2749.1974
2749.0907
2748.9245
2793.0876
2793.2612
2793.4536
2793.6669
2793.9036
2794.1664
2794.4584
2794.7831
2795.1447
2795.5479
2795.9981
2796.502
2797.0673
2797.7035
2798.422
2799.2368
2800.1645
2801.2257
2802.445
2803.8517
2805.4809
2807.3737
2809.578
2812.1493
2815.1513
2818.6561
2822.7443
2785.0992
2785.1769
2785.2617
2785.3544
2785.4557
2785.5663
2785.6875
2785.8205
2785.9671
2786.1297
2786.3115
2786.5164
2786.7499
2787.0188
2787.3315
2787.6986
2788.1329
2788.6498
2789.2675
2790.0075
2790.8951
2791.9601
2793.2375
2794.7689
2796.6043
2798.8038
2801.4402
2779.3902
2779.3851
2779.3779
2779.3684
2779.3567
2779.3431
2779.3284
2779.3137
2779.3009
2779.2924
2779.2913
2779.3014
2779.3273
2779.3741
2779.4478
2779.5547
2779.702
2779.8971
2780.1485
2780.4654
2780.8583
2781.3399
2781.9249
2782.6319
2783.4842
2784.5115
2785.7517
2775.6679
2775.6001
2775.5261
2775.4473
2775.3652
2775.2817
2775.199
2775.1196
2775.046
2774.981
2774.9273
2774.8873
2774.8636
2774.8581
2774.8727
2774.909
2774.9681
2775.0512
2775.1593
2775.2933
2775.4546
2775.6446
2775.8657
2776.121
2776.4148
2776.7531
2777.144
2773.0025
2772.9051
2772.8152
2772.7338
2772.6619
2772.6001
2772.5492
2772.5096
2772.4814
2772.4648
2772.4594
2772.4651
2772.4813
2772.5076
2772.5432
2772.5875
2772.6397
2772.6988
2772.7637
2772.8333
2772.9058
2772.9792
2773.0508
2773.1173
2773.174
2773.2151
2773.2333
2770.6869
2770.7038
2770.7223
2770.7424
2770.7643
2770.788
2770.8136
2770.8413
2770.8711
2770.9031
2770.9373
2770.9735
2771.0118
2771.0517
2771.093
2771.135
2771.1769
2771.2174
2771.2549
2771.2869
2771.3105
2771.3214
2771.3141
2771.2814
2771.214
2771.0997
2770.9234
2814.4804
2814.6562
2814.851
2815.067
2815.3067
2815.5729
2815.8686
2816.1975
2816.5638
2816.9721
2817.4282
2817.9386
2818.5113
2819.1558
2819.8837
2820.7091
2821.649
2822.7242
2823.9594
2825.3845
2827.035
2828.9524
2831.1853
2833.7899
2836.8307
2840.3807
2844.5216
2806.3947
2806.4734
2806.5594
2806.6534
2806.756
2806.8682
2806.991
2807.1259
2807.2746
2807.4395
2807.6238
2807.8317
2808.0686
2808.3413
2808.6584
2809.0306
2809.4709
2809.9948
2810.6207
2811.3705
2812.2697
2813.3484
2814.6421
2816.193
2818.0516
2820.2787
2822.9483
2800.6197
2800.6148
2800.6077
2800.5983
2800.5867
2800.5732
2800.5586
2800.5441
2800.5315
2800.5233
2800.5226
2800.5333
2800.56
2800.6078
2800.6829
2800.7915
2800.9409
2801.1387
2801.3934
2801.7144
2802.1123
2802.5998
2803.1919
2803.9075
2804.77
2805.8095
2807.0646
2796.8583
2796.7899
2796.7153
2796.6359
2796.5532
2796.469
2796.3857
2796.3057
2796.2316
2796.1661
2796.112
2796.0718
2796.048
2796.0426
2796.0575
2796.0942
2796.1539
2796.2379
2796.3471
2796.4824
2796.6452
2796.8371
2797.0602
2797.3179
2797.6143
2797.9555
2798.3497
2794.1681
2794.07
2793.9793
2793.8972
2793.8246
2793.7623
2793.711
2793.671
2793.6425
2793.6256
2793.6201
2793.6257
2793.642
2793.6683
2793.704
2793.7485
2793.8007
2793.86
2793.925
2793.9945
2794.0669
2794.14
2794.211
2794.2764
2794.3315
2794.3703
2794.3851
2791.8329
2791.8499
2791.8685
2791.8887
2791.9106
2791.9344
2791.9602
2791.988
2792.0179
2792.0499
2792.0841
2792.1204
2792.1586
2792.1984
2792.2396
2792.2813
2792.3228
2792.3627
2792.3993
2792.4302
2792.4521
2792.4608
2792.4504
2792.4136
2792.3407
2792.2191
2792.0332
2834.9609
2835.1388
2835.3359
2835.5545
2835.7971
2836.0664
2836.3657
2836.6986
2837.0692
2837.4825
2837.9441
2838.4607
2839.0404
2839.6928
2840.4297
2841.2652
2842.2167
2843.3051
2844.5555
2845.9982
2847.6688
2849.6097
2851.8698
2854.5062
2857.5839
2861.1769
2865.3681
2826.7824
2826.8621
2826.9491
2827.0442
2827.1482
2827.2618
2827.3862
2827.5228
2827.6735
2827.8406
2828.0274
2828.2381
2828.4781
2828.7544
2829.0757
2829.4528
2829.8987
2830.4293
2831.0631
2831.8221
2832.7323
2833.8241
2835.1334
2836.7028
2838.5834
2840.8368
2843.5379
2820.9443
2820.9394
2820.9324
2820.9231
2820.9116
2820.8982
2820.8837
2820.8694
2820.857
2820.8491
2820.8488
2820.86
2820.8874
2820.9362
2821.0125
2821.1228
2821.2742
2821.4746
2821.7325
2822.0573
2822.4599
2822.953
2823.5519
2824.2756
2825.1479
2826.1991
2827.4682
2817.1452
2817.0763
2817.0012
2816.9212
2816.8378
2816.7531
2816.6691
2816.5885
2816.5139
2816.448
2816.3935
2816.3532
2816.3292
2816.3239
2816.339
2816.3761
2816.4365
2816.5213
2816.6315
2816.7681
2816.9323
2817.1259
2817.351
2817.6108
2817.9097
2818.2536
2818.6509
2814.4315
2814.3325
2814.2411
2814.1584
2814.0852
2814.0224
2813.9706
2813.9303
2813.9015
2813.8844
2813.8788
2813.8843
2813.9005
2813.9269
2813.9627
2814.0073
2814.0597
2814.119
2814.1841
2814.2536
2814.3258
2814.3985
2814.4689
2814.5333
2814.5868
2814.6232
2814.6347
2812.0778
2812.0949
2812.1135
2812.1338
2812.1558
2812.1797
2812.2055
2812.2334
2812.2633
2812.2954
2812.3296
2812.3659
2812.4041
2812.4438
2812.4848
2812.5263
2812.5673
2812.6066
2812.6424
2812.6721
2812.6924
2812.6988
2812.6855
2812.6447
2812.5665
2812.4378
2812.2426
2854.5332
2854.7131
2854.9124
2855.1335
2855.3787
2855.6511
2855.9538
2856.2904
2856.6653
2857.0833
2857.5501
2858.0727
2858.659
2859.3189
2860.0643
2860.9095
2861.872
2862.9729
2864.2378
2865.6971
2867.387
2869.3502
2871.6363
2874.3028
2877.4156
2881.0496
2885.2886
2846.2665