/*--------------------------------*- C++ -*----------------------------------*\
| =========                 |                                                 |
| \\      /  F ield         | OpenFOAM: The Open Source CFD Toolbox           |
|  \\    /   O peration     | Version:  3.0.1                                 |
|   \\  /    A nd           | Web:      www.OpenFOAM.org                      |
|    \\/     M anipulation  |                                                 |
\*---------------------------------------------------------------------------*/
FoamFile
{
    version     2.0;
    format      ascii;
    class       volScalarField;
    location    "6000/fluid";
    object      ILambda_5_0;
}
// * * * * * * * * * * * * * * * * * * * * * * * * * * * * * * * * * * * * * //

dimensions      [1 0 -3 0 0 0 0];

internalField   nonuniform List<scalar> 
162000
(
198.14851
198.14653
198.14418
198.14136
198.13799
198.13392
198.12903
198.12313
198.11603
198.10751
198.09735
198.08531
198.07119
198.05486
198.03624
198.01541
197.99258
197.96819
197.94288
197.91749
197.8931
197.87091
197.85227
197.8385
197.83092
197.83068
197.83873
198.03797
198.03215
198.02541
198.0176
198.00855
197.99804
197.9859
197.97192
197.95595
197.93788
197.91767
197.8954
197.87129
197.8457
197.81919
197.79247
197.76642
197.74203
197.7204
197.70262
197.68975
197.68274
197.68238
197.68928
197.70381
197.72614
197.75625
197.87509
197.86352
197.85029
197.83525
197.8183
197.79938
197.77855
197.75594
197.73181
197.70658
197.68077
197.65505
197.63017
197.60699
197.58638
197.5692
197.55627
197.54827
197.54579
197.54923
197.55883
197.57467
197.59668
197.62468
197.65842
197.69761
197.74194
197.66136
197.64166
197.62028
197.59757
197.57396
197.54995
197.52614
197.50317
197.48171
197.46244
197.446
197.43298
197.42389
197.41913
197.41898
197.4236
197.43305
197.44727
197.46613
197.48944
197.51696
197.54846
197.58371
197.62251
197.66469
197.71016
197.75885
197.39911
197.37567
197.35464
197.33635
197.32107
197.30901
197.30036
197.29523
197.29368
197.29571
197.30126
197.31026
197.32258
197.33807
197.35658
197.37795
197.40204
197.42871
197.45787
197.48942
197.52333
197.55956
197.59812
197.63906
197.68242
197.7283
197.77681
197.12977
197.1393
197.14962
197.16077
197.17282
197.1858
197.19979
197.21483
197.23099
197.24832
197.26688
197.28674
197.30794
197.33056
197.35466
197.3803
197.40754
197.43646
197.46712
197.4996
197.53399
197.57036
197.60882
197.64945
197.69239
197.73774
197.78566
199.61657
199.6151
199.6133
199.61111
199.60843
199.60515
199.60114
199.59624
199.59028
199.58307
199.5744
199.56408
199.55198
199.53799
199.52212
199.50452
199.4855
199.46559
199.44552
199.42626
199.40896
199.39495
199.38561
199.38235
199.38649
199.39918
199.42136
199.49291
199.4877
199.48165
199.47463
199.46646
199.45697
199.44599
199.43335
199.41893
199.40267
199.38458
199.3648
199.34362
199.32147
199.299
199.27699
199.2564
199.23833
199.2239
199.21429
199.21058
199.21373
199.22454
199.24358
199.27118
199.30746
199.35234
199.3186
199.30788
199.29561
199.28169
199.26602
199.24859
199.2295
199.20892
199.18717
199.16473
199.14218
199.12025
199.09978
199.08166
199.06683
199.0562
199.05059
199.05075
199.05724
199.07045
199.0906
199.11774
199.15176
199.19243
199.23946
199.29251
199.35124
199.0955
199.07705
199.05714
199.03614
199.01453
198.99287
198.97181
198.95202
198.93424
198.91917
198.90752
198.8999
198.89683
198.89873
198.90589
198.91848
198.93651
198.95994
198.98859
199.02225
199.06066
199.10357
199.15071
199.20187
199.25686
199.31558
199.37793
198.82576
198.80433
198.7857
198.77019
198.7581
198.74969
198.74514
198.74459
198.74809
198.75567
198.76727
198.78281
198.80215
198.82514
198.85162
198.88143
198.91441
198.95043
198.98936
199.03112
199.07566
199.12294
199.17297
199.22579
199.28144
199.34002
199.40165
198.55099
198.56408
198.57822
198.59348
198.60992
198.62762
198.64665
198.66706
198.68894
198.71234
198.73734
198.76401
198.79241
198.82261
198.85469
198.8887
198.92471
198.96281
199.00305
199.04552
199.0903
199.13747
199.18714
199.23939
199.29436
199.35217
199.41295
201.60848
201.60711
201.60544
201.60339
201.60087
201.59779
201.594
201.58937
201.58373
201.57689
201.56867
201.55891
201.54747
201.5343
201.51944
201.50308
201.48558
201.46752
201.44971
201.43316
201.4191
201.40889
201.40398
201.4058
201.41569
201.43481
201.46408
201.47424
201.4692
201.46334
201.45654
201.44864
201.43946
201.42885
201.41666
201.40279
201.38718
201.36988
201.35108
201.33108
201.31037
201.28964
201.26973
201.25164
201.23651
201.22553
201.21988
201.22069
201.22892
201.24536
201.27058
201.30489
201.34837
201.40089
201.29086
201.28043
201.26851
201.25498
201.23979
201.22293
201.20451
201.18475
201.164
201.14275
201.12164
201.10143
201.08299
201.06727
201.05523
201.0478
201.04585
201.05011
201.06116
201.07939
201.105
201.13802
201.17831
201.22562
201.27964
201.33997
201.40628
201.0604
201.04243
201.0231
201.0028
200.98205
200.96141
200.94158
200.92326
200.90722
200.89419
200.88489
200.87995
200.87992
200.88523
200.89616
200.91288
200.93541
200.96366
200.99748
201.03661
201.0808
201.12975
201.1832
201.24092
201.30271
201.36843
201.43802
200.78455
200.764
200.74646
200.73226
200.72174
200.71514
200.71266
200.71445
200.72058
200.73105
200.74583
200.76482
200.78788
200.81487
200.8456
200.87992
200.91765
200.95866
201.00282
201.05003
201.10025
201.15343
201.20957
201.2687
201.33088
201.3962
201.46477
200.50499
200.52
200.53621
200.55369
200.57252
200.59277
200.61452
200.63783
200.6628
200.68948
200.71796
200.7483
200.78058
200.81486
200.85123
200.88973
200.93046
200.97347
201.01885
201.06666
201.117
201.16993
201.22557
201.28401
201.34537
201.40977
201.47737
203.878
203.87662
203.87494
203.87289
203.87038
203.8673
203.86352
203.85891
203.85329
203.84649
203.83833
203.82865
203.81733
203.80432
203.78968
203.77363
203.75654
203.73903
203.72193
203.70629
203.69337
203.68456
203.68135
203.68517
203.69739
203.71917
203.75143
203.7373
203.73226
203.72642
203.71963
203.71174
203.70259
203.69202
203.67988
203.66609
203.65059
203.63345
203.61487
203.59516
203.57486
203.55465
203.53542
203.51819
203.50413
203.49445
203.49036
203.49299
203.50333
203.52217
203.55005
203.58728
203.63394
203.68987
203.5481
203.53769
203.5258
203.51233
203.49719
203.48042
203.46213
203.44254
203.42202
203.40109
203.3804
203.36074
203.343
203.32815
203.31716
203.311
203.31054
203.31653
203.32954
203.34996
203.378
203.41365
203.45679
203.50713
203.56433
203.62801
203.69778
203.31242
203.29451
203.27526
203.2551
203.23453
203.21416
203.19469
203.17684
203.1614
203.14912
203.14074
203.13689
203.13815
203.14492
203.15752
203.17609
203.20066
203.23113
203.26734
203.30902
203.3559
203.40768
203.46409
203.52486
203.58982
203.6588
203.73174
203.03164
203.0113
202.99408
202.98033
202.97039
202.96451
202.9629
202.9657
202.973
202.98479
203.00103
203.02163
203.04644
203.07532
203.10808
203.14454
203.18454
203.22793
203.27459
203.3244
203.37731
203.43327
203.4923
203.55439
203.61963
203.68808
203.75986
202.74771
202.76367
202.78091
202.79949
202.8195
202.84101
202.8641
202.88885
202.91533
202.94362
202.9738
203.00593
203.0401
203.07637
203.11481
203.1555
203.19849
203.24387
203.2917
203.34207
203.39504
203.45071
203.50916
203.5705
203.63485
203.70232
203.77306
206.28289
206.28144
206.27968
206.27753
206.27492
206.27172
206.26782
206.26307
206.25729
206.25032
206.24197
206.23209
206.22055
206.2073
206.19242
206.1761
206.15876
206.141
206.12368
206.10785
206.09479
206.08592
206.08271
206.08665
206.09909
206.1212
206.1539
206.13829
206.13315
206.1272
206.12029
206.11227
206.10297
206.09224
206.07992
206.06593
206.05023
206.03287
206.01405
205.99412
205.97359
205.95318
205.93377
205.91641
205.90228
205.89259
205.88858
205.89138
205.90199
205.9212
205.94957
205.98739
206.03472
206.09141
205.94531
205.93478
205.92275
205.90912
205.89381
205.87686
205.85837
205.83858
205.81786
205.79673
205.77587
205.75606
205.73821
205.7233
205.71232
205.70624
205.70595
205.71218
205.72554
205.7464
205.77496
205.81124
205.85507
205.90617
205.9642
206.02875
206.09944
205.70598
205.68789
205.66845
205.6481
205.62735
205.60681
205.58719
205.56923
205.55372
205.54142
205.53308
205.52935
205.53079
205.53784
205.55078
205.56977
205.59485
205.6259
205.66275
205.70513
205.75277
205.80535
205.86259
205.92424
205.99009
206.05998
206.13384
205.42143
205.40093
205.38359
205.36978
205.35983
205.35401
205.35252
205.35551
205.36306
205.37517
205.39179
205.41283
205.43815
205.46757
205.50093
205.53805
205.57874
205.62285
205.67026
205.72086
205.77458
205.83138
205.89125
205.95421
206.02032
206.08966
206.16233
205.13391
205.1502
205.16778
205.18673
205.20714
205.22907
205.2526
205.27782
205.30481
205.33363
205.36436
205.39708
205.43186
205.46877
205.50788
205.54925
205.59296
205.63908
205.68767
205.73882
205.79259
205.84907
205.90836
205.97054
206.03574
206.10408
206.17569
208.73452
208.73294
208.73103
208.72873
208.72593
208.72253
208.7184
208.71339
208.70733
208.70003
208.69131
208.68101
208.669
208.65524
208.63977
208.62281
208.60476
208.58624
208.56809
208.55138
208.5374
208.52757
208.52338
208.52632
208.53777
208.55889
208.5906
208.58703
208.58171
208.57556
208.56843
208.56016
208.55058
208.53953
208.52686
208.51247
208.49632
208.47847
208.45911
208.43859
208.41742
208.39632
208.37619
208.35808
208.34316
208.33269
208.32788
208.3299
208.33973
208.35819
208.38583
208.42294
208.46958
208.5256
208.39092
208.38014
208.36784
208.35389
208.33824
208.3209
208.30198
208.28172
208.2605
208.23883
208.2174
208.19699
208.17853
208.16299
208.15139
208.14469
208.14379
208.14945
208.16224
208.18257
208.21063
208.24642
208.28978
208.34044
208.39802
208.46213
208.53236
208.14822
208.12978
208.10996
208.08918
208.06799
208.04699
208.02689
208.00844
207.99244
207.97967
207.97086
207.96667
207.96768
207.97432
207.98688
208.00553
208.03027
208.06101
208.09757
208.13968
208.18704
208.23935
208.29631
208.35766
208.4232
208.49276
208.56625
207.85994
207.83902
207.82128
207.8071
207.7968
207.79065
207.78886
207.79158
207.79888
207.81076
207.82719
207.84805
207.8732
207.90247
207.93568
207.97265
208.0132
208.05717
208.10443
208.15486
208.2084
208.265
208.32464
208.38736
208.45319
208.52222
208.59455
207.56875
207.58504
207.60262
207.62156
207.64196
207.66388
207.6874
207.7126
207.73956
207.76835
207.79905
207.83173
207.86646
207.9033
207.94234
207.98363
208.02724
208.07325
208.12171
208.17271
208.22631
208.2826
208.34167
208.40362
208.46855
208.53658
208.60785
211.18473
211.18298
211.18088
211.17836
211.17532
211.17166
211.16723
211.16188
211.15544
211.14771
211.13851
211.12767
211.11504
211.10058
211.08433
211.0665
211.04748
211.02789
211.00856
210.99057
210.97522
210.96391
210.95817
210.95948
210.96922
210.98857
211.01848
211.03473
211.02919
211.02278
211.01537
211.00678
210.99684
210.98538
210.97225
210.95735
210.94062
210.92212
210.90205
210.88073
210.85868
210.83663
210.81547
210.79626
210.78017
210.76846
210.76237
210.76304
210.77151
210.78856
210.81475
210.8504
210.89556
210.95006
210.83582
210.82473
210.81208
210.79774
210.78164
210.7638
210.74433
210.72346
210.70157
210.67918
210.65696
210.63572
210.61636
210.59989
210.58731
210.5796
210.57766
210.58225
210.59397
210.6132
210.64014
210.6748
210.71702
210.76651
210.8229
210.88578
210.95475
210.59
210.57111
210.5508
210.5295
210.50772
210.48611
210.46535
210.44623
210.42951
210.416
210.40643
210.40148
210.4017
210.40755
210.41931
210.43714
210.46107
210.49098
210.52669
210.56794
210.61442
210.66581
210.72183
210.78221
210.84672
210.91521
210.98757
210.2982
210.27673
210.25845
210.24372
210.23287
210.22618
210.22385
210.22603
210.2328
210.24414
210.26002
210.28033
210.30492
210.33362
210.36624
210.4026
210.44251
210.48581
210.53237
210.58207
210.63483
210.69062
210.74941
210.81122
210.87609
210.94411
211.01536
210.00349
210.01958
210.03694
210.05565
210.0758
210.09744
210.12067
210.14555
210.17217
210.2006
210.2309
210.26316
210.29743
210.3338
210.37232
210.41306
210.45609
210.50147
210.54928
210.59957
210.65243
210.70793
210.76616
210.82722
210.89121
210.95824
211.02846
213.60521
213.60326
213.60094
213.59817
213.59486
213.59089
213.58611
213.58037
213.57349
213.56526
213.5555
213.54401
213.53067
213.5154
213.49824
213.47939
213.45922
213.43836
213.41764
213.39813
213.38111
213.36803
213.36038
213.35968
213.36731
213.38446
213.41207
213.45282
213.44702
213.44032
213.43257
213.42361
213.41325
213.40132
213.38766
213.37216
213.35476
213.33551
213.3146
213.29235
213.26928
213.2461
213.22372
213.20318
213.18569
213.17247
213.1648
213.16382
213.17055
213.18582
213.21018
213.24394
213.28716
213.33968
213.25113
213.23968
213.22662
213.21182
213.19521
213.1768
213.15669
213.13512
213.11246
213.08922
213.06607
213.04384
213.02342
213.00582
212.99205
212.9831
212.97987
212.98312
212.99346
213.01127
213.03676
213.06993
213.11063
213.15856
213.21335
213.27458
213.34184
213.00214
212.98275
212.96188
212.93996
212.91753
212.89519
212.87368
212.85374
212.83618
212.82177
212.81128
212.80537
212.80461
212.80945
212.82017
212.83695
212.85978
212.88858
212.92315
212.96322
213.00848
213.05862
213.11333
213.17235
213.23545
213.30246
213.37328
212.70677
212.68467
212.66575
212.65038
212.63887
212.63152
212.62852
212.63001
212.63608
212.64671
212.66186
212.68142
212.70523
212.73313
212.76492
212.80041
212.83942
212.88178
212.92734
212.976
213.02768
213.08232
213.1399
213.20044
213.26399
213.3306
213.40039
212.40851
212.42429
212.44133
212.45969
212.47945
212.50068
212.52347
212.54788
212.57399
212.60187
212.63159
212.66322
212.69684
212.73249
212.77026
212.81021
212.85239
212.89688
212.94374
212.99303
213.04483
213.09922
213.15628
213.21609
213.27878
213.34444
213.41321
215.98015
215.97798
215.97542
215.97239
215.96878
215.96447
215.95931
215.95315
215.94579
215.93702
215.92665
215.91448
215.90036
215.88421
215.86607
215.84611
215.82471
215.80247
215.78022
215.75904
215.7402
215.72515
215.7154
215.71246
215.71772
215.7324
215.75743
215.82544
215.81935
215.81234
215.80424
215.79488
215.78407
215.77164
215.75741
215.74127
215.72315
215.70309
215.68128
215.65802
215.63385
215.60945
215.58573
215.56375
215.5447
215.52983
215.52039
215.51756
215.52236
215.53561
215.55789
215.58949
215.6305
215.68074
215.62105
215.60922
215.59573
215.58044
215.56329
215.54427
215.52348
215.50116
215.47766
215.4535
215.42936
215.40604
215.38446
215.36562
215.35054
215.34021
215.33552
215.33727
215.34604
215.36224
215.38607
215.41753
215.45647
215.50258
215.55551
215.61482
215.68009
215.369
215.34906
215.3276
215.30502
215.28187
215.25877
215.23642
215.2156
215.1971
215.18172
215.1702
215.16322
215.16136
215.16504
215.17458
215.19014
215.21172
215.23922
215.27245
215.31114
215.35497
215.40363
215.4568
215.51422
215.57566
215.64094
215.70996
215.07008
215.04731
215.0277
215.01162
214.99939
214.99129
214.98753
214.98825
214.99351
215.00332
215.01762
215.0363
215.05921
215.08616
215.11696
215.15142
215.18935
215.23059
215.27497
215.3224
215.37277
215.42605
215.48221
215.54126
215.60323
215.6682
215.73626
214.76829
214.7837
214.80033
214.81826
214.83756
214.85829
214.88054
214.90437
214.92986
214.95708
214.9861
215.01698
215.04979
215.0846
215.12147
215.16045
215.20163
215.24504
215.29077
215.33887
215.38941
215.44248
215.49814
215.5565
215.61764
215.68168
215.74875
218.2996
218.29721
218.29439
218.29108
218.28715
218.28248
218.27693
218.27033
218.26246
218.25314
218.24213
218.22924
218.2143
218.19723
218.17805
218.15693
218.13423
218.11054
218.08669
218.06375
218.043
218.02588
218.0139
218.00858
218.01133
218.02337
218.04564
218.1426
218.13621
218.12887
218.1204
218.11062
218.09934
218.08638
218.07156
218.05474
218.03587
218.01498
217.99222
217.96791
217.94257
217.9169
217.89178
217.86828
217.84759
217.83097
217.81967
217.81487
217.81762
217.82872
217.84876
217.87805
217.91667
217.96446
217.93551
217.92328
217.90933
217.89355
217.87583
217.85617
217.83467
217.81156
217.78719
217.76208
217.73689
217.71244
217.68965
217.66951
217.65304
217.64125
217.63503
217.63518
217.64228
217.65675
217.67879
217.70841
217.74544
217.7896
217.8405
217.89772
217.96084
217.68037
217.65988
217.6378
217.61455
217.59066
217.56676
217.54355
217.52181
217.50234
217.48592
217.47332
217.46522
217.46217
217.46464
217.47291
217.48715
217.50738
217.53348
217.56526
217.60245
217.64472
217.69177
217.74327
217.79895
217.85857
217.92196
217.989
217.37798
217.35451
217.33418
217.31736
217.30437
217.29549
217.29092
217.29081
217.29522
217.30414
217.31753
217.33526
217.35717
217.38309
217.41282
217.44616
217.48292
217.52291
217.56601
217.61208
217.66104
217.71283
217.76743
217.82484
217.8851
217.94827
218.01444
217.07271
217.08771
217.1039
217.12135
217.14013
217.16032
217.18197
217.20517
217.22998
217.25647
217.28471
217.31476
217.34669
217.38056
217.41644
217.45437
217.49443
217.53667
217.58115
217.62795
217.67711
217.72873
217.78287
217.83962
217.89908
217.96136
218.02658
220.55752
220.55489
220.55182
220.54821
220.54396
220.53893
220.53298
220.52591
220.51754
220.50763
220.49597
220.48234
220.46657
220.44856
220.42832
220.406
220.38197
220.35679
220.3313
220.30655
220.28381
220.26454
220.25025
220.24246
220.24259
220.25187
220.27126
220.39829
220.39161
220.38392
220.37507
220.36487
220.35311
220.33961
220.32419
220.30669
220.28705
220.26529
220.24157
220.21619
220.18966
220.16267
220.13611
220.11105
220.08867
220.07023
220.05699
220.05015
220.05074
220.0596
220.0773
220.10417
220.14027
220.18547
220.1886
220.17596
220.16156
220.14526
220.12696
220.10666
220.08444
220.06052
220.03526
220.00917
219.98292
219.95731
219.93326
219.91177
219.89387
219.88056
219.87274
219.87121
219.87657
219.88923
219.90939
219.93706
219.97208
220.01417
220.06292
220.11793
220.17875
219.93048
219.90943
219.88672
219.86278
219.83813
219.8134
219.78931
219.76663
219.74615
219.72866
219.71494
219.70566
219.70138
219.70257
219.70951
219.72237
219.74117
219.76579
219.79603
219.83162
219.87225
219.91758
219.9673
220.02112
220.07881
220.14019
220.20514
219.62466
219.60048
219.57942
219.56183
219.54806
219.53836
219.53296
219.53198
219.53549
219.54348
219.5559
219.57262
219.59348
219.61831
219.64689
219.67903
219.71453
219.75321
219.79492
219.83955
219.88699
219.9372
219.99013
220.0458
220.10423
220.16549
220.22965
219.31598
219.33054
219.34626
219.3632
219.38143
219.40101
219.42203
219.44455
219.46862
219.49433
219.52174
219.5509
219.58189
219.61475
219.64956
219.68637
219.72524
219.76622
219.80938
219.85477
219.90247
219.95254
220.00506
220.0601
220.11777
220.17817
220.24141
222.74934
222.74648
222.74314
222.73924
222.73466
222.72926
222.72289
222.71536
222.70646
222.69597
222.68364
222.66926
222.65265
222.63368
222.61236
222.58883
222.56344
222.53675
222.50958
222.48298
222.45823
222.43676
222.42011
222.40979
222.40724
222.41369
222.43011
222.58793
222.58094
222.57291
222.56367
222.55304
222.5408
222.52675
222.51071
222.49252
222.4721
222.44947
222.42477
222.3983
222.37056
222.34224
222.31422
222.28756
222.26345
222.24317
222.22796
222.21902
222.21741
222.22395
222.23925
222.26361
222.29713
222.33964
222.37566
222.36261
222.34775
222.33093
222.31204
222.29109
222.26814
222.24341
222.21725
222.19017
222.16284
222.13605
222.11072
222.08787
222.06851
222.05365
222.0442
222.04095
222.04452
222.05531
222.07353
222.0992
222.13215
222.17208
222.21862
222.27133
222.32977
222.1146
222.09298
222.06964
222.045
222.01959
221.99404
221.96906
221.94542
221.92391
221.90535
221.89049
221.88
221.87447
221.87434
221.87992
221.89136
221.90868
221.93177
221.96042
221.99436
222.03327
222.07682
222.12469
222.17658
222.23227
222.29155
222.35431
221.80545
221.78056
221.75875
221.74039
221.72582
221.7153
221.70904
221.70717
221.70975
221.71679
221.7282
221.74388
221.76366
221.78735
221.81474
221.84563
221.87982
221.91714
221.95742
222.00054
222.0464
222.09495
222.14615
222.2
222.25653
222.31579
222.37787
221.49345
221.50755
221.52277
221.53918
221.55683
221.5758
221.59615
221.61795
221.64127
221.66616
221.6927
221.72093
221.75093
221.78275
221.81645
221.85209
221.88971
221.92938
221.97116
222.0151
222.06126
222.10972
222.16054
222.21381
222.26961
222.32805
222.38924
224.87202
224.86891
224.86531
224.86111
224.85619
224.85043
224.84364
224.83564
224.82622
224.81513
224.80214
224.787
224.76953
224.74961
224.7272
224.70245
224.67569
224.64748
224.61861
224.59014
224.56335
224.53965
224.5206
224.50771
224.50243
224.50599
224.51938
224.7085
224.7012
224.69283
224.68321
224.67214
224.65941
224.64482
224.62816
224.60927
224.58807
224.56456
224.53888
224.51132
224.48236
224.45269
224.4232
224.39493
224.36908
224.34691
224.3297
224.31863
224.31477
224.31895
224.33178
224.35358
224.38444
224.4242
224.49377
224.48031
224.46498
224.44764
224.42817
224.40656
224.38288
224.35734
224.33028
224.3022
224.27377
224.24579
224.21918
224.19494
224.1741
224.15766
224.14655
224.14155
224.14329
224.15217
224.1684
224.192
224.22281
224.26053
224.30478
224.35512
224.41111
224.22989
224.20769
224.18372
224.15838
224.13221
224.10582
224.07994
224.05533
224.0328
224.01313
223.99711
223.9854
223.97858
223.97711
223.98129
223.99127
224.00707
224.02858
224.0556
224.08783
224.12497
224.16668
224.21263
224.26253
224.31613
224.37325
224.43375
223.9175
223.89188
223.86932
223.85018
223.8348
223.82344
223.8163
223.81352
223.81516
223.82121
223.8316
223.8462
223.86485
223.88737
223.91353
223.94313
223.97597
224.01186
224.05065
224.09221
224.13644
224.18328
224.23268
224.28465
224.33921
224.39641
224.45632
223.60226
223.61588
223.63058
223.64643
223.66348
223.68181
223.70147
223.72253
223.74505
223.7691
223.79473
223.822
223.85098
223.88171
223.91426
223.94867
223.98501
224.02332
224.06366
224.10608
224.15066
224.19745
224.24651
224.29794
224.35181
224.40822
224.46728
226.92283
226.91948
226.91561
226.91111
226.90586
226.89972
226.89252
226.88405
226.8741
226.86241
226.84875
226.83286
226.81453
226.79364
226.77014
226.74417
226.71604
226.68629
226.65572
226.62538
226.59652
226.57059
226.54912
226.53364
226.5256
226.52624
226.53656
226.75725
226.74965
226.74093
226.73092
226.71942
226.7062
226.69106
226.67378
226.6542
226.63222
226.60783
226.58116
226.5525
226.52233
226.49131
226.46034
226.43045
226.40285
226.37879
226.35956
226.34634
226.34021
226.342
226.35233
226.37154
226.39969
226.43665
226.5401
226.52623
226.51044
226.49258
226.47253
226.45026
226.42585
226.3995
226.37153
226.34246
226.31294
226.28377
226.25587
226.23024
226.20791
226.18989
226.1771
226.17034
226.17022
226.17717
226.19139
226.21289
226.24153
226.277
226.31891
226.36683
226.42031
226.27346
226.25069
226.22609
226.20006
226.17313
226.14592
226.11914
226.09356
226.06999
226.04923
226.03204
226.0191
226.01099
226.00817
226.01093
226.01943
226.03369
226.0536
226.07894
226.10944
226.14477
226.1846
226.22859
226.27646
226.32794
226.38285
226.44104
225.95794
225.9316
225.90829
225.88838
225.87219
225.85999
225.85197
225.84827
225.84895
225.854
225.86335
225.87686
225.89437
225.91568
225.94059
225.96887
226.00033
226.03477
226.07204
226.11201
226.15457
226.19965
226.24722
226.29727
226.34981
226.4049
226.4626
225.63958
225.65271
225.66689
225.68217
225.69861
225.71627
225.73522
225.75552
225.77723
225.80041
225.82512
225.85141
225.87933
225.90896
225.94032
225.97349
226.00851
226.04543
226.0843
226.12518
226.16813
226.21321
226.26048
226.31002
226.36192
226.41626
226.47314
228.89997
228.89638
228.89224
228.88744
228.88186
228.87535
228.86773
228.85879
228.84831
228.83604
228.8217
228.80506
228.78588
228.76402
228.73944
228.71225
228.68275
228.65147
228.6192
228.58698
228.55606
228.52789
228.50399
228.4859
228.47507
228.47276
228.47998
228.73243
228.72452
228.71546
228.70507
228.69313
228.67944
228.66375
228.64586
228.62559
228.60283
228.57757
228.54992
228.52017
228.48877
228.45642
228.42396
228.39246
228.3631
228.33714
228.31587
228.30049
228.29207
228.29145
228.29926
228.31582
228.34124
228.37536
228.51299
228.49871
228.48246
228.46408
228.44345
228.42054
228.3954
228.36824
228.33937
228.30931
228.27871
228.24835
228.21915
228.19213
228.16831
228.14869
228.13421
228.12567
228.12368
228.12866
228.14084
228.16022
228.18664
228.21982
228.25936
228.30482
228.35575
228.24371
228.22038
228.19515
228.16843
228.14074
228.1127
228.08503
228.05848
228.03388
228.01201
227.99365
227.97947
227.97006
227.96586
227.96719
227.97419
227.98689
228.00516
228.02881
228.05754
228.09103
228.12894
228.17094
228.21673
228.26604
228.31869
228.37453
227.92516
227.89811
227.87406
227.85337
227.83636
227.82331
227.8144
227.80978
227.80949
227.81353
227.82181
227.83421
227.85055
227.87065
227.89427
227.92121
227.95125
227.98422
228.01994
228.05827
228.09913
228.14242
228.18811
228.23619
228.28668
228.33961
228.39506
227.60378
227.61641
227.63005
227.64474
227.66055
227.67754
227.69577
227.71529
227.73617
227.75846
227.78222
227.8075
227.83436
227.86284
227.893
227.92489
227.95856
227.99405
228.03143
228.07073
228.11202
228.15535
228.20079
228.24841
228.29829
228.35051
228.40518
230.80173
230.7979
230.79349
230.78839
230.78248
230.7756
230.76756
230.75816
230.74716
230.73429
230.71929
230.7019
230.68187
230.65906
230.6334
230.60499
230.57412
230.54132
230.50736
230.47327
230.4403
230.40988
230.38355
230.36286
230.34925
230.34399
230.34809
230.63229
230.62407
230.61467
230.60389
230.59153
230.57735
230.56112
230.54262
230.52166
230.49813
230.472
230.44339
230.41255
230.37995
230.34625
230.31233
230.27921
230.2481
230.22026
230.19696
230.17942
230.1687
230.16567
230.17094
230.18486
230.20753
230.23878
230.4106
230.39591
230.37921
230.36032
230.33912
230.31556
230.28971
230.26174
230.23199
230.20095
230.16926
230.13772
230.10725
230.07884
230.05353
230.03232
230.01616
230.00583
230.00196
230.00499
230.01511
230.03235
230.05656
230.08743
230.12458
230.16755
230.21591
230.13875
230.11487
230.08903
230.06163
230.03319
230.00433
229.97577
229.94827
229.92264
229.89968
229.88015
229.86473
229.85402
229.84845
229.84834
229.85384
229.86497
229.8816
229.90354
229.93049
229.96213
229.9981
230.03809
230.08178
230.12891
230.17927
230.23273
229.8173
229.78955
229.76476
229.74329
229.72548
229.71158
229.70179
229.69624
229.69498
229.698
229.70522
229.7165
229.73168
229.75054
229.77287
229.79845
229.82708
229.85855
229.8927
229.92939
229.96851
230.01
230.0538
230.0999
230.14831
230.19906
230.25223
229.49302
229.50514
229.51823
229.53234
229.54751
229.56382
229.58132
229.60006
229.62009
229.64149
229.66429
229.68855
229.71432
229.74166
229.7706
229.8012
229.8335
229.86756
229.90342
229.94112
229.98073
230.0223
230.06589
230.11157
230.15941
230.2095
230.26193
232.62718
232.62311
232.61844
232.61305
232.60681
232.59956
232.59111
232.58125
232.56973
232.55628
232.54062
232.52248
232.50162
232.47786
232.45113
232.42152
232.38931
232.355
232.31936
232.28341
232.2484
232.21575
232.18701
232.16371
232.14732
232.13911
232.1401
232.45593
232.44741
232.43768
232.42653
232.41374
232.39909
232.38233
232.36322
232.34159
232.3173
232.29031
232.26074
232.22882
232.19503
232.16001
232.12462
232.08991
232.05706
232.02733
232.00201
231.98231
231.9693
231.96385
231.96659
231.97786
231.99776
232.02615
232.23213
232.21705
232.1999
232.18051
232.15874
232.13455
232.10798
232.07922
232.0486
232.01658
231.98382
231.95111
231.91937
231.88958
231.86279
231.84
231.82215
231.81004
231.8043
231.80535
231.81341
231.82851
231.85048
231.87904
231.91377
231.95425
232.00001
231.95786
231.93343
231.90698
231.8789
231.84972
231.82006
231.79061
231.76217
231.73551
231.71146
231.69076
231.67412
231.6621
231.65516
231.65361
231.6576
231.66714
231.68213
231.70234
231.7275
231.75727
231.79129
231.82925
231.87082
231.91574
231.96381
232.01487
231.63362
231.60517
231.57964
231.55741
231.53879
231.52405
231.51337
231.50689
231.50466
231.50666
231.51281
231.52296
231.53696
231.55458
231.57561
231.59982
231.627
231.65696
231.68953
231.72456
231.76194
231.8016
231.84349
231.88758
231.93389
231.98245
232.03332
231.30653
231.31815
231.33068
231.34419
231.35872
231.37434
231.39109
231.40903
231.42822
231.44871
231.47054
231.49377
231.51844
231.54461
231.57232
231.60162
231.63255
231.66515
231.69947
231.73557
231.77348
231.81327
231.85499
231.8987
231.94449
231.99242
232.04259
234.37543
234.37113
234.3662
234.36051
234.35395
234.34634
234.33748
234.32716
234.31513
234.30111
234.2848
234.26593
234.24424
234.21954
234.19176
234.16096
234.12742
234.09162
234.05432
234.01653
233.9795
233.94465
233.91351
233.88764
233.86849
233.85735
233.85525
234.20244
234.19363
234.18356
234.17204
234.15884
234.14371
234.12642
234.10673
234.08443
234.05938
234.03156
234.00103
233.96806
233.93309
233.89676
233.85994
233.82365
233.78907
233.75748
233.73016
233.70832
233.69304
233.68519
233.68541
233.69404
233.71119
233.73671
233.97658
233.96111
233.94352
233.92363
233.90131
233.87649
233.84923
233.81969
233.7882
233.75523
233.72142
233.68756
233.65455
233.62341
233.59515
233.5708
233.55128
233.53741
233.5298
233.5289
233.53491
233.54788
233.56762
233.59386
233.6262
233.66418
233.70735
233.69995
233.67499
233.64794
233.61921
233.5893
233.55884
233.52854
233.49915
233.4715
233.44636
233.42452
233.40666
233.39335
233.38505
233.38207
233.38456
233.39253
233.40587
233.42437
233.44774
233.47564
233.50772
233.54365
233.5831
233.62582
233.67159
233.72025
233.37304
233.34391
233.31767
233.29468
233.27527
233.25969
233.24814
233.24074
233.23755
233.23853
233.24361
233.25265
233.26547
233.28185
233.30158
233.32442
233.35017
233.37862
233.40961
233.44297
233.47862
233.51645
233.55642
233.59851
233.64273
233.68909
233.73766
233.04329
233.05439
233.06637
233.07928
233.09317
233.1081
233.12411
233.14126
233.15959
233.17917
233.20003
233.22223
233.24581
233.27082
233.2973
233.32529
233.35484
233.38598
233.41878
233.45326
233.48948
233.52748
233.56733
233.60909
233.65281
233.69859
233.7465
236.04638
236.04185
236.03666
236.03069
236.0238
236.01583
236.00658
235.99582
235.98328
235.96869
235.95175
235.93216
235.90966
235.88405
235.85523
235.82327
235.78841
235.75114
235.71221
235.67262
235.63359
235.59656
235.56306
235.53463
235.51275
235.49871
235.49353
235.87175
235.86264
235.85225
235.84037
235.82676