/*--------------------------------*- C++ -*----------------------------------*\
| =========                 |                                                 |
| \\      /  F ield         | OpenFOAM: The Open Source CFD Toolbox           |
|  \\    /   O peration     | Version:  3.0.1                                 |
|   \\  /    A nd           | Web:      www.OpenFOAM.org                      |
|    \\/     M anipulation  |                                                 |
\*---------------------------------------------------------------------------*/
FoamFile
{
    version     2.0;
    format      ascii;
    class       volScalarField;
    location    "6000/fluid";
    object      ILambda_6_0;
}
// * * * * * * * * * * * * * * * * * * * * * * * * * * * * * * * * * * * * * //

dimensions      [1 0 -3 0 0 0 0];

internalField   nonuniform List<scalar> 
162000
(
176.56506
176.60948
176.65885
176.71377
176.77492
176.84307
176.91912
177.0041
177.09917
177.20569
177.32522
177.45956
177.61081
177.78141
177.97421
178.19252
178.44022
178.72187
179.04281
179.40931
179.82873
180.30969
180.86226
181.4982
182.2311
183.07657
184.05227
174.90703
174.92922
174.95392
174.98147
175.01222
175.0466
175.08508
175.12822
175.17668
175.2312
175.29267
175.36211
175.44075
175.53
175.63159
175.74751
175.8802
176.03252
176.20797
176.41074
176.64592
176.91968
177.23955
177.61473
178.0565
178.57867
179.19821
173.8645
173.87201
173.88041
173.88981
173.90035
173.91219
173.92551
173.94054
173.95752
173.97675
173.99859
174.02346
174.05185
174.08436
174.12172
174.16479
174.21464
174.27255
174.34009
174.41921
174.51232
174.62239
174.75318
174.90935
175.09684
175.32315
175.59786
173.36991
173.37014
173.37044
173.37082
173.3713
173.3719
173.37265
173.37359
173.37477
173.37623
173.37806
173.38033
173.38316
173.38668
173.39106
173.39652
173.40332
173.41182
173.42243
173.43572
173.45238
173.47331
173.49967
173.53294
173.57506
173.62853
173.69663
173.211
173.20865
173.20605
173.20321
173.20009
173.19666
173.19291
173.18879
173.18428
173.17934
173.17394
173.16803
173.16159
173.15456
173.14692
173.13862
173.12963
173.11992
173.10949
173.09833
173.08647
173.07399
173.06101
173.04773
173.03448
173.02175
173.01026
173.18721
173.18425
173.18098
173.17738
173.17341
173.16903
173.16421
173.15888
173.15301
173.14652
173.13937
173.13146
173.12273
173.11309
173.10242
173.09063
173.07759
173.06315
173.04716
173.02945
173.00982
172.98804
172.96387
172.93703
172.90721
172.87405
172.83715
178.08975
178.13403
178.18324
178.23797
178.29891
178.36684
178.44263
178.52733
178.62208
178.72824
178.84736
178.98125
179.13198
179.302
179.49413
179.71167
179.9585
180.23914
180.55891
180.92405
181.34187
181.82094
182.37129
183.00457
183.73429
184.57592
185.54697
176.42953
176.45157
176.47612
176.50349
176.53405
176.56822
176.60646
176.64934
176.6975
176.7517
176.8128
176.88184
176.96002
177.04877
177.14977
177.26505
177.39699
177.54848
177.72297
177.92463
178.15853
178.4308
178.74894
179.12207
179.56139
180.08063
180.69663
175.38574
175.39311
175.40135
175.41059
175.42094
175.43258
175.44567
175.46045
175.47715
175.49607
175.51757
175.54206
175.57003
175.60208
175.63893
175.68143
175.73063
175.78782
175.85456
175.93278
176.02486
176.13377
176.26322
176.41786
176.60358
176.82781
177.10007
174.89052
174.89061
174.89075
174.89096
174.89124
174.89163
174.89214
174.89282
174.89371
174.89486
174.89634
174.89823
174.90064
174.90369
174.90756
174.91246
174.91864
174.92645
174.93631
174.94876
174.96449
174.98439
175.00961
175.04162
175.08232
175.1342
175.20049
174.7315
174.72898
174.72622
174.72318
174.71985
174.71619
174.71218
174.70778
174.70296
174.69768
174.6919
174.68558
174.67868
174.67115
174.66296
174.65405
174.64439
174.63394
174.62269
174.61064
174.5978
174.58424
174.57007
174.5555
174.54083
174.52655
174.51339
174.70795
174.70482
174.70137
174.69757
174.69337
174.68875
174.68365
174.67803
174.67183
174.66498
174.65742
174.64907
174.63986
174.62967
174.61841
174.60596
174.59218
174.57694
174.56006
174.54136
174.52063
174.49764
174.47213
174.4438
174.41233
174.37734
174.33841
179.73959
179.7843
179.834
179.88927
179.95082
180.01942
180.09598
180.18151
180.27721
180.38444
180.50476
180.63999
180.79225
180.96399
181.15806
181.37782
181.62715
181.91066
182.2337
182.60257
183.02467
183.50865
184.06464
184.70442
185.44161
186.29185
187.2728
178.05757
178.07977
178.1045
178.13207
178.16285
178.19727
178.2358
178.279
178.32753
178.38214
178.44372
178.5133
178.5921
178.68155
178.78338
178.8996
179.03263
179.18539
179.36135
179.56475
179.80067
180.07533
180.39627
180.77273
181.216
181.73995
182.36155
177.00023
177.00757
177.01579
177.02499
177.03532
177.04692
177.05999
177.07474
177.09141
177.11032
177.1318
177.15627
177.18424
177.2163
177.25317
177.29573
177.34501
177.40232
177.46923
177.54769
177.64009
177.74943
177.87946
178.03485
178.22153
178.44702
178.7209
176.4986
176.49857
176.49857
176.49863
176.49875
176.49895
176.49927
176.49974
176.50039
176.50129
176.50248
176.50407
176.50614
176.50883
176.5123
176.51676
176.52248
176.52978
176.5391
176.55097
176.56608
176.58533
176.60986
176.64115
176.68112
176.73226
176.79782
176.33761
176.33493
176.33198
176.32874
176.32518
176.32128
176.317
176.3123
176.30715
176.30151
176.29533
176.28857
176.28118
176.27312
176.26433
176.25477
176.24439
176.23316
176.22104
176.20802
176.19413
176.17941
176.16397
176.14801
176.13183
176.11591
176.10098
176.314
176.31069
176.30704
176.30302
176.29858
176.29369
176.28829
176.28234
176.27577
176.26853
176.26052
176.25169
176.24192
176.23113
176.21921
176.20601
176.19142
176.17526
176.15736
176.13753
176.11554
176.09114
176.06405
176.03396
176.00051
175.96331
175.92189
181.49588
181.5413
181.59179
181.64794
181.71046
181.78015
181.85793
181.94482
182.04205
182.15098
182.27321
182.4106
182.56529
182.73977
182.93694
183.1602
183.41353
183.70156
184.02977
184.40456
184.83343
185.32518
185.8901
186.54016
187.28921
188.15313
189.14989
179.78533
179.80786
179.83295
179.86093
179.89217
179.92709
179.96619
180.01003
180.05928
180.11471
180.1772
180.24781
180.32779
180.41859
180.52194
180.6399
180.77494
180.93
181.10862
181.3151
181.55461
181.83344
182.15928
182.54149
182.99155
183.52352
184.15468
178.71037
178.71779
178.7261
178.7354
178.74584
178.75757
178.77078
178.78569
178.80256
178.82168
178.8434
178.86817
178.89647
178.92891
178.96623
179.0093
179.05919
179.11722
179.18498
179.26444
179.35804
179.46882
179.60057
179.75804
179.94726
180.17583
180.4535
178.20052
178.20045
178.2004
178.2004
178.20047
178.20061
178.20087
178.20126
178.20184
178.20265
178.20375
178.20524
178.20722
178.2098
178.21317
178.21752
178.22313
178.23033
178.23955
178.25133
178.26638
178.28559
178.31013
178.34148
178.3816
178.43301
178.499
178.03698
178.0342
178.03115
178.02781
178.02413
178.02009
178.01567
178.01081
178.00548
177.99964
177.99325
177.98625
177.9786
177.97025
177.96114
177.95123
177.94046
177.9288
177.91621
177.90269
177.88823
177.87289
177.85678
177.84009
177.82312
177.80635
177.79052
178.01309
178.00967
178.00591
178.00176
177.99719
177.99214
177.98658
177.98044
177.97367
177.96619
177.95794
177.94882
177.93875
177.92762
177.91531
177.90169
177.88662
177.86993
177.85145
177.83096
177.80823
177.78301
177.75501
177.72388
177.68927
177.65074
177.60784
183.31128
183.35758
183.40903
183.46626
183.52999
183.60103
183.68029
183.76886
183.86796
183.97898
184.10357
184.2436
184.40126
184.57909
184.78005
185.0076
185.26579
185.55936
185.89387
186.27585
186.71295
187.21415
187.78992
188.45247
189.21593
190.09647
191.11243
181.56879
181.59176
181.61734
181.64586
181.6777
181.7133
181.75316
181.79785
181.84805
181.90455
181.96824
182.04022
182.12173
182.21427
182.3196
182.43983
182.57745
182.73547
182.9175
183.1279
183.37196
183.65609
183.98809
184.37753
184.83609
185.37811
186.02116
180.47421
180.48179
180.49027
180.49977
180.51043
180.52241
180.53591
180.55113
180.56835
180.58786
180.61004
180.63531
180.66418
180.69729
180.73536
180.77929
180.83018
180.88936
180.95845
181.03946
181.13488
181.2478
181.38207
181.54255
181.73534
181.96823
182.25109
179.95531
179.95526
179.95524
179.95528
179.95538
179.95556
179.95587
179.95632
179.95695
179.95783
179.95902
179.96061
179.96269
179.9654
179.96891
179.97344
179.97925
179.98668
179.99618
180.0083
180.02375
180.04344
180.06857
180.10064
180.14164
180.19414
180.26148
179.78893
179.78614
179.78307
179.7797
179.776
179.77194
179.76748
179.76259
179.75723
179.75135
179.74491
179.73787
179.73017
179.72176
179.71259
179.70261
179.69177
179.68004
179.66736
179.65374
179.63919
179.62375
179.60754
179.59074
179.57367
179.55681
179.5409
179.7646
179.76116
179.75736
179.75318
179.74857
179.74349
179.73788
179.73169
179.72486
179.71732
179.709
179.69981
179.68965
179.67842
179.66601
179.65227
179.63707
179.62023
179.60157
179.58089
179.55795
179.53249
179.5042
179.47275
179.43778
179.39883
179.35545
185.14459
185.19187
185.24441
185.30286
185.36794
185.44047
185.52142
185.61186
185.71304
185.82641
185.95362
186.0966
186.25758
186.43915
186.64434
186.87667
187.14028
187.44001
187.78154
188.17152
188.61779
189.12948
189.71731
190.39374
191.17319
192.0722
193.10947
183.36808
183.39156
183.41771
183.44686
183.47941
183.5158
183.55653
183.60221
183.65351
183.71124
183.77633
183.84988
183.93316
184.02771
184.13532
184.25813
184.3987
184.5601
184.74602
184.96089
185.21012
185.50024
185.83924
186.23684
186.70499
187.25831
187.91473
182.25267
182.26047
182.26919
182.27895
182.2899
182.30221
182.31607
182.3317
182.34938
182.36941
182.39217
182.4181
182.44772
182.48166
182.52069
182.56572
182.61786
182.67847
182.74921
182.83214
182.92978
183.04529
183.18261
183.34668
183.54375
183.78172
184.0707
181.72422
181.72424
181.72431
181.72444
181.72464
181.72494
181.72537
181.72596
181.72675
181.72781
181.7292
181.731
181.73333
181.73632
181.74016
181.74504
181.75127
181.75917
181.76921
181.78195
181.79812
181.81865
181.84476
181.87799
181.92036
181.97449
182.04379
181.55485
181.55209
181.54906
181.54573
181.54207
181.53806
181.53365
181.52881
181.52351
181.51771
181.51135
181.50439
181.49678
181.48848
181.47943
181.46958
181.45889
181.44731
181.43482
181.4214
181.40707
181.39189
181.37596
181.35949
181.3428
181.32637
181.31097
181.52997
181.52655
181.52279
181.51864
181.51406
181.50901
181.50344
181.4973
181.49052
181.48303
181.47477
181.46564
181.45555
181.4444
181.43207
181.41843
181.40332
181.3866
181.36806
181.34751
181.32471
181.2994
181.27129
181.24002
181.20524
181.16651
181.12335
186.96796
187.0163
187.07001
187.12976
187.19628
187.27043
187.35317
187.44562
187.54905
187.66493
187.79496
187.9411
188.10564
188.29122
188.50093
188.73838
189.00779
189.31412
189.66315
190.0617
190.51776
191.04068
191.6414
192.33267
193.12922
194.04796
195.10803
185.15596
185.17999
185.20677
185.23661
185.26994
185.30718
185.34888
185.39563
185.44814
185.50722
185.57383
185.64909
185.7343
185.83103
185.94111
186.06674
186.21052
186.37559
186.56571
186.78543
187.04025
187.33686
187.6834
188.08982
188.56831
189.1338
189.80462
184.01885
184.0269
184.03589
184.04596
184.05726
184.06995
184.08423
184.10034
184.11855
184.13918
184.16261
184.18929
184.21976
184.25467
184.29479
184.34106
184.39462
184.45685
184.52946
184.61455
184.71469
184.8331
184.97382
185.1419
185.34369
185.58729
185.88301
183.48049
183.48062
183.4808
183.48106
183.4814
183.48186
183.48247
183.48325
183.48427
183.48557
183.48723
183.48933
183.49201
183.49538
183.49965
183.50502
183.51179
183.52032
183.53107
183.54461
183.56171
183.58332
183.61066
183.64534
183.6894
183.74553
183.81722
183.30801
183.30531
183.30235
183.29909
183.29552
183.2916
183.2873
183.28258
183.2774
183.27174
183.26553
183.25874
183.25133
183.24323
183.23441
183.22482
183.21441
183.20315
183.19101
183.17798
183.16409
183.1494
183.13401
183.11815
183.10214
183.08649
183.07196
183.2825
183.27914
183.27544
183.27136
183.26686
183.2619
183.25643
183.25039
183.24372
183.23637
183.22824
183.21927
183.20935
183.19839
183.18626
183.17284
183.15799
183.14155
183.12332
183.10311
183.08068
183.05579
183.02812
182.99737
182.96314
182.92503
182.88254
188.76319
188.81262
188.86756
188.92866
188.99669
189.07252
189.15714
189.25168
189.35745
189.47595
189.60891
189.75835
189.92659
190.11635
190.33077
190.57355
190.84901
191.1622
191.51905
191.92651
192.39276
192.92737
193.54151
194.24821
195.06255
196.00182
197.08559
186.91477
186.9394
186.96683
186.9974
187.03154
187.06969
187.1124
187.16029
187.21407
187.27457
187.34278
187.41983
187.50708
187.6061
187.71879
187.84737
187.99452
188.16344
188.35797
188.58277
188.84345
189.14684
189.50127
189.91692
190.40621
190.98443
191.67029
185.75543
185.76375
185.77304
185.78345
185.79511
185.80822
185.82296
185.83959
185.85837
185.87965
185.9038
185.9313
185.9627
185.99864
186.03994
186.08755
186.14263
186.20661
186.28122
186.36861
186.47142
186.59294
186.73728
186.9096
187.11642
187.36599
187.66884
185.20692
185.20718
185.2075
185.2079
185.20842
185.20907
185.20988
185.2109
185.21217
185.21376
185.21574
185.2182
185.22127
185.2251
185.22986
185.2358
185.2432
185.25245
185.26401
185.27848
185.29664
185.31946
185.34821
185.38451
185.43046
185.48882
185.56315
185.03126
185.02864
185.02577
185.02262
185.01916
185.01536
185.01119
185.00662
185.00162
184.99613
184.99013
184.98357
184.9764
184.96858
184.96006
184.9508
184.94077
184.92992
184.91823
184.90572
184.89239
184.87832
184.86364
184.84856
184.83343
184.81875
184.80533
185.00508
185.00181
184.99819
184.99421
184.98981
184.98497
184.97962
184.97373
184.96722
184.96004
184.9521
184.94334
184.93365
184.92294
184.9111
184.898
184.88349
184.86743
184.84962
184.82988
184.80798
184.78365
184.75663
184.72657
184.69313
184.65588
184.61436
190.51881
190.56937
190.62555
190.68804
190.75762
190.83518
190.92171
191.0184
191.12656
191.24774
191.38372
191.53653
191.70857
191.9026
192.12186
192.3701
192.65175
192.97197
193.33682
193.75342
194.23011
194.77668
195.40456
196.12707
196.95964
197.91994
199.02802
188.63346
188.6587
188.6868
188.71814
188.75311
188.7922
188.83596
188.88501
188.9401
189.00207
189.07192
189.15083
189.24017
189.34155
189.45692
189.58854
189.73916
189.91204
190.11112
190.34113
190.60784
190.91821
191.28077
191.70589
192.20629
192.79758
193.4989
187.45158
187.46018
187.46979
187.48055
187.49261
187.50615
187.52138
187.53854
187.55793
187.57989
187.6048
187.63316
187.66551
187.70255
187.74508
187.79409
187.85077
187.91656
187.99326
188.08305
188.18863
188.31337
188.46148
188.63822
188.85025
189.106
189.41624
186.8928
186.89319
186.89366
186.89424
186.89494
186.89579
186.89684
186.89811
186.89966
186.90156
186.90389
186.90675
186.91025
186.91456
186.91987
186.92642
186.93452
186.94454
186.95698
186.97246
186.99176
187.01589
187.04614
187.08418
187.13216
187.1929
187.27003
186.7139
186.71139
186.70862
186.70559
186.70225
186.6986
186.69459
186.69019
186.68538
186.6801
186.67433
186.66803
186.66114
186.65364
186.64547
186.6366
186.62699
186.61661
186.60546
186.59352
186.58084
186.5675
186.55362
186.53944
186.5253
186.51175
186.49958
186.68704
186.68385
186.68034
186.67647
186.6722
186.66749
186.6623
186.65657
186.65024
186.64326
186.63555
186.62703
186.61762
186.60721
186.5957
186.58296
186.56886
186.55325
186.53594
186.51675
186.49545
186.47181
186.44553
186.41631
186.3838
186.34758
186.3072
192.22707
192.27876
192.33621
192.4001
192.47124
192.55053
192.639
192.73784
192.84842
192.97231
193.11131
193.26752
193.44339
193.64173
193.86585
194.11959
194.40747
194.73477
195.10769
195.53348
196.02069
196.57931
197.22103
197.95947
198.81039
199.79188
200.92443
190.30476
190.33062
190.35941
190.3915
190.42733
190.46736
190.51218
190.56241
190.61882
190.68227
190.75379
190.83457
190.92602
191.0298
191.14787
191.28257
191.43669
191.61357
191.81723
192.05252
192.32531
192.64273
193.01347
193.44816
193.95977
194.56425
195.28116
189.10033
189.10922
189.11915
189.13027
189.14273
189.15671
189.17243
189.19015
189.21016
189.23281
189.2585
189.28773
189.32107
189.35921
189.403
189.45343
189.51173
189.57938
189.6582
189.75042
189.85883
189.98685
190.13877
190.31999
190.5373
190.79932
191.11705
188.53128
188.53181
188.53244
188.53319
188.53409
188.53516
188.53644
188.53797
188.53982
188.54205
188.54474
188.548
188.55196
188.55678
188.56266
188.56985
188.57866
188.58949
188.60285
188.61937
188.63985
188.66533
188.69714
188.73697
188.78704
188.85022
188.93023
188.34914
188.34673
188.34408
188.34117
188.33797
188.33447
188.33063
188.32642
188.32181
188.31676
188.31124
188.30521
188.29863
188.29147
188.28367
188.27521
188.26606
188.25619
188.2456
188.23429
188.2223
188.20973
188.19671
188.18348
188.17041
188.15804
188.1472
188.32158
188.31849
188.31509
188.31134
188.3072
188.30264
188.29761
188.29206
188.28593
188.27916
188.27169
188.26344
188.25432
188.24424
188.23309
188.22075
188.20709
188.19196
188.17519
188.1566
188.13596
188.11305
188.08758
188.05927
188.02775
187.99264
187.9535
193.88352
193.93635
193.99505
194.06035
194.13304
194.21406
194.30447
194.40547
194.51846
194.64504
194.78706
194.94667
195.12635
195.329
195.55797
195.8172
196.11131
196.44568
196.82663
197.26161
197.75931
198.32996
198.98549
199.73982
200.60906
201.6117
202.76868
191.92456
191.95103
191.98051
192.01337
192.05004
192.09103
192.1369
192.18832
192.24605
192.31099
192.38418
192.46684
192.5604
192.66657
192.78735
192.92513
193.08275
193.26364
193.47188
193.71245
193.99132
194.31579
194.69473
195.13897
195.6618
196.27947
197.01196
190.69776
190.70694
190.7172
190.72868
190.74154
190.75597
190.7722
190.79048
190.81112
190.83446
190.86094
190.89105
190.92538
190.96465
191.0097
191.06157
191.12151
191.19102
191.27198
191.36667
191.47792
191.60923
191.765
191.95072
192.17335
192.44167
192.76691
190.11852
190.1192
190.12
190.12093
190.12203
190.12332
190.12485
190.12666
190.12881
190.13138
190.13445
190.13813
190.14256
190.1479
190.15437
190.16221
190.17177
190.18344
190.19774
190.21532
190.23702
190.26389
190.29729
190.33896
190.39117
190.45684
190.53979
189.93318
189.93088
189.92835
189.92557
189.92252
189.91918
189.91552
189.9115
189.90711
189.9023
189.89705
189.89131
189.88506
189.87825
189.87085
189.86283
189.85416
189.84483
189.83483
189.82418
189.81293
189.80117
189.78906
189.77684
189.7649
189.75379
189.74435
189.9049
189.90192
189.89864
189.89502
189.89102
189.88662
189.88176
189.8764
189.87048
189.86395
189.85674
189.84877
189.83997
189.83023
189.81946
189.80755
189.79436
189.77975
189.76356
189.7456
189.72567
189.70354
189.67895
189.6516
189.62117
189.58726
189.54945
195.48425
195.5382
195.59814
195.66482
195.73905
195.82178
195.91409
196.01722
196.1326
196.26184
196.40685
196.56982
196.75327
196.96016
197.19393
197.45859
197.75884
198.10019
198.48909
198.93313
199.44121
200.02373
200.69291
201.46295
202.35029
203.37382
204.55494
193.48918
193.51627
193.54643
193.58005
193.61756
193.65949
193.70641
193.759
193.81804
193.88445
193.95929
194.0438
194.13946
194.248
194.37146
194.51228
194.67337
194.85822
195.071
195.31678
195.60168
195.93311
196.32015
196.77386
197.30776
197.93848
198.68638
192.24036
192.24984
192.26043
192.27227
192.28553
192.30041
192.31714
192.33597
192.35723
192.38127
192.40853
192.43951
192.47483
192.51521
192.56153
192.61482
192.67638
192.74775
192.83083
192.92796
193.04203
193.17661
193.33619
193.52638
193.75427
194.02884
194.36153
191.6511
191.65193
191.6529
191.65401
191.65531
191.65683
191.65861
191.66069
191.66315
191.66606
191.66951
191.67361
191.67851
191.68438
191.69143
191.69994
191.71024
191.72274
191.73798
191.75664
191.77955
191.80781
191.8428
191.88631
191.94065
192.00881
192.09469
191.46261
191.46042
191.45801
191.45537
191.45247
191.44929
191.44581
191.44199
191.43782
191.43326
191.42827
191.42283
191.4169
191.41046
191.40346
191.39588
191.38771
191.37892
191.36953
191.35955
191.34904
191.33811
191.32691
191.31571
191.30491
191.29506
191.28704
191.43363
191.43076
191.42759
191.4241
191.42025
191.41601
191.41133
191.40616
191.40046
191.39417
191.38721
191.37954
191.37105
191.36167
191.35129
191.33981
191.32709
191.31301
191.2974
191.2801
191.26089
191.23956
191.21585
191.18949
191.16015
191.12746
191.09101
197.02782
197.08287
197.14403
197.21207
197.28781
197.37222
197.46641
197.57164
197.68935
197.82121
197.96916
198.13542
198.32257
198.53364
198.77212
199.04211
199.3484
199.6966
200.09331
200.54626
201.06452
201.65872
202.3413
203.12676
204.03189
205.07595
206.2808
194.99745
195.02514
195.05596
195.09033
195.12867
195.17152
195.21948
195.27322
195.33355
195.40141
195.47787
195.56422
195.66194
195.77281
195.89891
196.04273
196.20723
196.39597
196.61322
196.86414
197.15495
197.49325
197.88826
198.35127
198.89607
199.53962
200.30268
193.72709
193.73686
193.74777
193.75996
193.77363
193.78895
193.80617
193.82556
193.84743
193.87217
193.9002
193.93205
193.96835
194.00983
194.05739
194.11211
194.17527
194.24848
194.33366
194.4332
194.55006
194.68787
194.85122
195.04582
195.2789
195.55963
195.89967
193.12803
193.12902
193.13014
193.13145
193.13295
193.13469
193.13672
193.13909
193.14185
193.14511
193.14894
193.15346
193.15884
193.16523
193.17288
193.18205
193.19309
193.20643
193.22262
193.24235
193.26648
193.29613
193.33271
193.37806
193.43453
193.50517
193.59396
192.93645
192.93437
192.93209
192.92959
192.92684
192.92383
192.92053
192.91692
192.91298
192.90866
192.90395
192.89881
192.89322
192.88715
192.88056
192.87344
192.86576
192.85753
192.84876
192.83946
192.82971
192.81962
192.80936
192.79921
192.78956
192.78102
192.77443
192.90678
192.90401
192.90097
192.89762
192.89392
192.88984
192.88534
192.88037
192.87489
192.86884
192.86216
192.85477
192.84662
192.8376
192.82762
192.81658
192.80436
192.79082
192.77582
192.75917
192.74071
192.7202
192.69741
192.67206
192.64385
192.61241
192.57737
198.51249
198.56861
198.63097
198.70032
198.77754
198.86359
198.95961
199.06688
199.18687
199.32129
199.4721
199.64157
199.83234
200.04748
200.29055
200.56573
200.87791
201.23281
201.63714
202.09877
202.62696
203.23255
203.92821
204.72872
205.65119
206.71528
207.94327
196.44776
196.47604
196.50752
196.54261
196.58177
196.62552
196.67448
196.72935
196.79095
196.86022
196.93827
197.0264
197.12614
197.23928
197.36796
197.5147
197.68254
197.87508
198.09669
198.35262
198.64922
198.9942
199.39699
199.86908
200.42452
201.08059
201.85844
195.15645
195.1665
195.17773
195.19028
195.20433
195.22009
195.2378
195.25773
195.28021
195.30562
195.33441
195.36711
195.40437
195.44693
195.49571
195.5518
195.61654
195.69154
195.77878
195.88069
196.00027
196.14124
196.30827
196.50718
196.74535
197.03209
197.37931
194.54787
194.549
194.55029
194.55178
194.55348
194.55545
194.55772
194.56036
194.56344
194.56703
194.57123
194.57618
194.58202
194.58894
194.59716
194.60699
194.61876
194.63293
194.65005
194.67083
194.69616
194.72717
194.76533
194.81248
194.87103
194.94411
195.03577
194.35329
194.35132
194.34916
194.3468
194.3442
194.34136
194.33824
194.33484
194.33111
194.32705
194.32261
194.31777
194.31251
194.3068
194.30062
194.29395
194.28678
194.2791
194.27093
194.26232
194.25332
194.24407
194.23474
194.22561
194.21711
194.20984
194.20469
194.32293
194.32028
194.31736
194.31414
194.31059
194.30667
194.30235
194.29758
194.29232
194.28651
194.2801
194.27301
194.26518
194.25652
194.24694
194.23634
194.22461
194.21161
194.1972
194.18122
194.16349
194.1438
194.12192
194.09758
194.07048
194.0403
194.00664
199.93826
199.99542
200.05893
200.12958
200.20822
200.29587
200.39367
200.50292
200.62513
200.76203
200.91562
201.08822
201.2825
201.50159
201.74913
202.02937
202.34727
202.70867
203.1204
203.59047
204.12832
204.74496
205.45333
206.26846
207.20779
208.29134
209.54182
197.84027
197.86913
197.90125
197.93705
197.97699
198.02163
198.07157
198.12754
198.19036
198.26101
198.34061
198.43048
198.53218
198.64753
198.77872
198.92831
199.09939
199.29564
199.52149
199.78229
200.08452
200.43602
200.84638
201.32729
201.89309
202.56133
203.35357
196.52869
196.53902
196.55056
196.56345
196.57789
196.59408
196.61226
196.63272
196.65579
196.68186
196.71139
196.74493
196.78312
196.82674
196.87672
196.93417
197.00045
197.07721
197.16645
197.27067
197.39291
197.53697
197.7076
197.91072
198.15384
198.44646
198.80069
195.91089
195.91217
195.91363
195.91529
195.9172
195.91939
195.92191
195.92482
195.9282
195.93212
195.9367
195.94206
195.94837
195.9558
195.96461
195.97508
195.98758
196.00256
196.02061
196.04243
196.06895
196.10131
196.14101
196.18994
196.25056
196.32603
196.42051
195.71341
195.71155
195.70952
195.70729
195.70485
195.70217
195.69924
195.69604
195.69254
195.68872
195.68456
195.68003
195.6751
195.66977
195.66399
195.65778
195.6511
195.64398
195.63643
195.62849
195.62026
195.61184
195.60344
195.59536
195.58801
195.58203
195.5783
195.68238
195.67984
195.67705
195.67396
195.67056
195.66681
195.66267
195.6581
195.65306
195.6475
195.64135
195.63456
195.62706
195.61876
195.60959
195.59944
195.58819
195.57574
195.56194
195.54663
195.52965
195.51078
195.48982
195.4665
195.44054
195.41162
195.37937
201.30444
201.36261
201.42725
201.49913
201.57916
201.66835
201.76787
201.87904
202.00339
202.14269
202.29897
202.47458
202.67226
202.89518
203.14703
203.43215
203.75558
204.12326
204.54214
205.02038
205.56755
206.19489
206.91554
207.7448
208.70042
209.80279
211.075
199.17439
199.2038
199.23653
199.27302
199.31373
199.35922
199.41011
199.46714
199.53115
199.60313
199.68422
199.77578
199.87937
199.99687
200.13048
200.28283
200.45705
200.65688
200.88684
201.15235
201.46001
201.81781
202.23549
202.72494
203.30075
203.98076
204.78692
197.84325
197.85386
197.8657
197.87893
197.89373
197.91034
197.92898
197.94995
197.9736
198.00031
198.03056
198.06491
198.10401
198.14866
198.19979
198.25856
198.32633
198.40479
198.49598
198.60243
198.72725
198.87431
199.04841
199.25561
199.50354
199.80184
200.16285
197.21658
197.218
197.21962
197.22146
197.22356
197.22597
197.22873
197.2319
197.23557
197.23983
197.24477
197.25054
197.25729
197.26523
197.2746
197.2857
197.29891
197.31469
197.33364
197.35648
197.38414
197.41782
197.45903
197.50969
197.5723
197.65011
197.74733
197.01629
197.01455
197.01264
197.01055
197.00825
197.00574
197.00299
196.99999
196.99671
196.99314
196.98924
196.98501
196.98041
196.97544
196.97007
196.96429
196.95811
196.95153
196.94459
196.93732
196.92982
196.92223
196.91474
196.90767
196.90145
196.89672
196.89439
196.98462
196.98219
196.97952
196.97656
196.97331
196.96972
196.96576
196.96139
196.95657
196.95124
196.94536
196.93887
196.93169
196.92375
196.91497
196.90525
196.8945
196.88258
196.86937
196.85473
196.83847
196.82041
196.80035
196.77803
196.75318
196.7255
196.69463
202.61184
202.67098
202.73669
202.80978
202.89115
202.98182
203.08299
203.19601
203.32243
203.46404
203.62292
203.80144
204.00239
204.22899
204.48501
204.77483
205.1036
205.47733
205.9031
206.3892
206.94537
207.58302
208.3155
209.15838
210.12971
211.25021
212.54338
200.45099
200.48093
200.51426
200.55141
200.59286
200.63917
200.69098
200.74904
200.8142
200.88747
200.97001
201.06319
201.16861
201.28818
201.42414
201.57915
201.75639
201.95969
202.1936
202.46367
202.77658
203.14046
203.5652
204.0629
204.64835
205.33973
206.1593
199.10108
199.11195
199.12409
199.13764
199.15281
199.16981
199.1889
199.21038
199.23458
199.26192
199.29287
199.32801
199.36799
199.41363
199.4659
199.52593
199.59515
199.67526
199.76835
199.87697
200.00429
200.15424
200.33172
200.54287
200.79544
201.09925
201.46681
198.46589
198.46745
198.46923
198.47124
198.47354
198.47616
198.47915
198.48259
198.48655
198.49113
198.49643
198.5026
198.5098
198.51823
198.52816
198.53988
198.55378
198.57035
198.59017
198.61401
198.64281
198.67778
198.72046
198.77281
198.83739
198.91748
199.01736
198.26292
198.26129
198.2595
198.25754
198.25539
198.25305
198.25048
198.24768
198.24462
198.24129
198.23766
198.23372
198.22945
198.22484
198.21987
198.21454
198.20885
198.20281
198.19647
198.18987
198.18311
198.17633
198.16976
198.1637
198.15861
198.15512
198.15418
198.23062
198.2283
198.22574
198.22293
198.21982
198.21639
198.21261
198.20844
198.20383
198.19875
198.19313
198.18693
198.18007
198.17249
198.16411
198.15483
198.14456
198.13318
198.12057
198.10658
198.09105
198.07381
198.05465
198.03334
198.00961
197.98317
197.95369
203.86039
203.92046
203.98721
204.06145
204.1441
204.2362
204.33896
204.45376
204.58216
204.72599
204.88735
205.06867
205.27276
205.5029
205.76291
206.05725
206.39113
206.77068
207.20306
207.69671
208.26151
208.90904
209.65288
210.50884
211.49524
212.63314
213.94643
201.67004
201.7005
201.73441
201.7722
201.81436
201.86146
201.91415
201.97319
202.03946
202.11396
202.19789
202.29263
202.39982
202.52137
202.65958
202.81715
202.9973
203.20391
203.44163
203.71608
204.03403
204.40374
204.83526
205.34087
205.93559
206.63787
207.47034
200.30217
200.3133
200.32571
200.33958
200.3551
200.37249
200.39201
200.41397
200.43871
200.46665
200.49828
200.53417
200.575
200.62161
200.67495
200.73621
200.80683
200.88853
200.98343
201.09414
201.22387
201.3766
201.55733
201.77227
202.02931
202.33841
202.71227
199.65882
199.66053
199.66245
199.66464
199.66712
199.66994
199.67317
199.67686
199.6811
199.68599
199.69164
199.6982
199.70583
199.71474
199.7252
199.73753
199.7521
199.76943
199.7901
199.81491
199.8448
199.88101
199.92511
199.9791
200.04557
200.12785
200.23031
199.45328
199.45176
199.45009
199.44826
199.44626
199.44407
199.44168
199.43907
199.43623
199.43314
199.42977
199.42612
199.42217
199.41791
199.41333
199.40843
199.40322
199.39771
199.39195
199.38599
199.37995
199.37398
199.36829
199.36321
199.3592
199.35693
199.35734
199.42038
199.41817
199.41573
199.41304
199.41008
199.40681
199.4032
199.39922
199.39483
199.38998
199.38462
199.3787
199.37216
199.36493
199.35693
199.34808
199.33828
199.32743
199.3154
199.30205
199.28724
199.27079
199.2525
199.23217
199.20952
199.1843
199.15616
205.05136
205.11233
205.18008
205.25542
205.33929
205.43276
205.53705
205.65354
205.78385
205.92981
206.09355
206.27755
206.48464
206.71817
206.98201
207.28067
207.61946
208.00457
208.4433
208.94418
209.51724
210.17425
210.92897
211.79745
212.79829
213.95286
215.28542
202.83287
202.86383