/*--------------------------------*- C++ -*----------------------------------*\
| =========                 |                                                 |
| \\      /  F ield         | OpenFOAM: The Open Source CFD Toolbox           |
|  \\    /   O peration     | Version:  3.0.1                                 |
|   \\  /    A nd           | Web:      www.OpenFOAM.org                      |
|    \\/     M anipulation  |                                                 |
\*---------------------------------------------------------------------------*/
FoamFile
{
    version     2.0;
    format      ascii;
    class       volScalarField;
    location    "6000/fluid";
    object      ILambda_7_0;
}
// * * * * * * * * * * * * * * * * * * * * * * * * * * * * * * * * * * * * * //

dimensions      [1 0 -3 0 0 0 0];

internalField   nonuniform List<scalar> 
162000
(
197.61458
197.61168
197.6085
197.60501
197.60117
197.59696
197.59233
197.58724
197.58166
197.57553
197.56881
197.56143
197.55334
197.54446
197.53473
197.52406
197.51237
197.49956
197.48554
197.4702
197.45341
197.43504
197.41497
197.39304
197.36908
197.34294
197.31442
197.62238
197.6194
197.61612
197.61252
197.60857
197.60423
197.59946
197.59422
197.58847
197.58216
197.57523
197.56763
197.55929
197.55014
197.54011
197.52912
197.51707
197.50387
197.48942
197.47359
197.45627
197.43731
197.41657
197.39389
197.36909
197.34198
197.31234
197.63746
197.63429
197.63081
197.62699
197.62279
197.61817
197.6131
197.60753
197.60141
197.59469
197.58731
197.57921
197.57032
197.56056
197.54985
197.53809
197.52519
197.51103
197.49549
197.47842
197.45968
197.43908
197.41643
197.3915
197.36401
197.33365
197.30001
197.65939
197.65592
197.6521
197.64791
197.64329
197.63822
197.63264
197.62651
197.61977
197.61235
197.6042
197.59523
197.58537
197.57452
197.56257
197.54942
197.53492
197.51894
197.50129
197.48178
197.46018
197.43622
197.40956
197.37981
197.34649
197.309
197.26658
197.688
197.68409
197.67978
197.67504
197.66982
197.66407
197.65774
197.65078
197.6431
197.63464
197.62531
197.61502
197.60366
197.59111
197.57723
197.56186
197.54482
197.5259
197.50483
197.48134
197.45505
197.42555
197.39233
197.35477
197.31211
197.26345
197.20768
197.7235
197.719
197.71403
197.70856
197.70253
197.69588
197.68854
197.68044
197.67149
197.66159
197.65065
197.63852
197.62508
197.61016
197.59357
197.57508
197.55444
197.53136
197.50546
197.47634
197.44348
197.4063
197.36409
197.31604
197.26118
197.19841
197.1265
199.19031
199.18674
199.18281
199.17849
199.17374
199.16852
199.16279
199.1565
199.14958
199.14199
199.13365
199.12449
199.11444
199.10341
199.0913
199.07803
199.06346
199.04749
199.02999
199.0108
198.98978
198.96675
198.94154
198.91393
198.88372
198.85066
198.81451
199.19997
199.19629
199.19225
199.1878
199.18291
199.17754
199.17164
199.16516
199.15805
199.15023
199.14165
199.13222
199.12188
199.11052
199.09807
199.0844
199.06941
199.05297
199.03494
199.01518
198.99353
198.9698
198.9438
198.91532
198.88413
198.84997
198.81255
199.21868
199.21478
199.21049
199.20578
199.2006
199.1949
199.18865
199.18177
199.17422
199.16593
199.15681
199.1468
199.13581
199.12374
199.11049
199.09593
199.07995
199.0624
199.04312
199.02195
198.99868
198.9731
198.94497
198.91399
198.87985
198.84216
198.80045
199.24593
199.24167
199.23699
199.23184
199.22618
199.21996
199.21312
199.20559
199.19732
199.18822
199.17822
199.16721
199.15511
199.14179
199.12712
199.11098
199.0932
199.07359
199.05196
199.02807
199.00164
198.97235
198.93983
198.90363
198.86318
198.81782
198.76671
199.28146
199.27669
199.27145
199.26567
199.25932
199.25233
199.24462
199.23615
199.22681
199.21652
199.20517
199.19267
199.17887
199.16363
199.1468
199.12817
199.10754
199.08467
199.05924
199.03093
198.99933
198.96396
198.92424
198.87946
198.82878
198.77118
198.7054
199.32542
199.31998
199.31398
199.30738
199.3001
199.29207
199.28322
199.27345
199.26267
199.25075
199.23758
199.22301
199.20687
199.18897
199.16909
199.14697
199.12233
199.09481
199.06401
199.02943
198.99051
198.94658
198.89682
198.84029
198.77586
198.70225
198.61797
201.13801
201.13407
201.12973
201.12497
201.11973
201.11398
201.10766
201.10071
201.09308
201.0847
201.0755
201.06539
201.05429
201.0421
201.02873
201.01405
200.99795
200.98029
200.96092
200.93967
200.91639
200.89086
200.86289
200.83225
200.79869
200.76194
200.72171
201.14866
201.1446
201.14014
201.13524
201.12985
201.12393
201.11743
201.11028
201.10243
201.09381
201.08434
201.07394
201.06252
201.04998
201.03622
201.02112
201.00455
200.98637
200.96643
200.94457
200.92059
200.8943
200.86549
200.8339
200.79928
200.76134
200.71975
201.16929
201.165
201.16028
201.15509
201.14938
201.14311
201.13622
201.12864
201.12032
201.11118
201.10113
201.0901
201.07798
201.06466
201.05004
201.03398
201.01634
200.99696
200.97567
200.95228
200.92658
200.89831
200.86721
200.83296
200.7952
200.75352
200.7074
201.19936
201.19468
201.18953
201.18387
201.17765
201.17081
201.16328
201.155
201.1459
201.1359
201.12489
201.11278
201.09946
201.0848
201.06866
201.0509
201.03132
201.00974
200.98593
200.95963
200.93054
200.89832
200.86255
200.82273
200.77828
200.72846
200.67238
201.23855
201.23332
201.22756
201.22123
201.21426
201.20658
201.19813
201.18883
201.17858
201.16729
201.15484
201.14112
201.12597
201.10926
201.09078
201.07035
201.04772
201.02263
200.99475
200.96371
200.92908
200.89032
200.84681
200.79778
200.74231
200.67927
200.6073
201.28696
201.28101
201.27444
201.26721
201.25924
201.25046
201.24077
201.23007
201.21827
201.20523
201.19082
201.17487
201.15721
201.13762
201.11587
201.09168
201.06472
201.03462
201.00092
200.96311
200.92054
200.87248
200.81802
200.75613
200.68554
200.60479
200.51218
203.28508
203.28094
203.27638
203.27138
203.26587
203.25983
203.25318
203.24588
203.23785
203.22904
203.21936
203.20873
203.19705
203.18423
203.17016
203.15471
203.13776
203.11916
203.09875
203.07637
203.05183
203.02493
202.99543
202.96311
202.92768
202.88888
202.84637
203.29627
203.29201
203.28732
203.28217
203.27651
203.27029
203.26345
203.25594
203.24768
203.23862
203.22866
203.21772
203.20571
203.19252
203.17804
203.16215
203.14471
203.12557
203.10457
203.08154
203.05627
203.02856
202.99818
202.96486
202.92832
202.88826
202.84433
203.31795
203.31344
203.30848
203.30302
203.29703
203.29044
203.2832
203.27524
203.26649
203.25688
203.24632
203.23472
203.22197
203.20797
203.19259
203.17569
203.15712
203.13673
203.11431
203.08968
203.0626
203.03281
203.00003
202.96392
202.92409
202.8801
202.83141
203.34952
203.3446
203.3392
203.33326
203.32672
203.31953
203.31163
203.30293
203.29337
203.28285
203.27128
203.25856
203.24455
203.22914
203.21217
203.19348
203.17289
203.15017
203.12511
203.09741
203.06677
203.03282
202.9951
202.95311
202.90621
202.85361
202.79436
203.39063
203.38514
203.3791
203.37245
203.36513
203.35707
203.3482
203.33843
203.32766
203.3158
203.30272
203.28829
203.27237
203.25479
203.23536
203.21386
203.19004
203.16362
203.13424
203.10153
203.065
203.02408
202.97812
202.92627
202.86755
202.80072
202.72431
203.44138
203.43512
203.42824
203.42065
203.41228
203.40306
203.39288
203.38165
203.36925
203.35555
203.34039
203.32362
203.30504
203.28442
203.26152
203.23603
203.20761
203.17585
203.14026
203.10029
203.05523
203.00429
202.94649
202.88066
202.80543
202.71915
202.61991
205.54153
205.53729
205.53264
205.52752
205.5219
205.51572
205.50893
205.50147
205.49327
205.48426
205.47436
205.46349
205.45155
205.43845
205.42405
205.40826
205.39092
205.37189
205.35102
205.32812
205.30301
205.27547
205.24527
205.21217
205.17589
205.13612
205.09256
205.55296
205.5486
205.54381
205.53855
205.53277
205.52641
205.51942
205.51174
205.50331
205.49404
205.48386
205.47268
205.4604
205.44691
205.43211
205.41586
205.39802
205.37844
205.35696
205.33339
205.30753
205.27916
205.24805
205.21392
205.17649
205.13544
205.0904
205.57509
205.57048
205.56541
205.55983
205.55371
205.54698
205.53957
205.53144
205.5225
205.51268
205.50188
205.49002
205.47699
205.46267
205.44693
205.42965
205.41065
205.38978
205.36684
205.34162
205.31388
205.28337
205.24977
205.21274
205.17188
205.12672
205.07671
205.60728
205.60226
205.59674
205.59066
205.58398
205.57663
205.56855
205.55966
205.54988
205.53913
205.5273
205.51427
205.49994
205.48417
205.4668
205.44766
205.42656
205.40329
205.37759
205.34918
205.31773
205.28285
205.24409
205.20089
205.15258
205.09834
205.03716
205.64918
205.64356
205.63739
205.63058
205.6231
205.61485
205.60577
205.59577
205.58475
205.5726
205.5592
205.54442
205.5281
205.51008
205.49014
205.46807
205.44361
205.41644
205.38622
205.35253
205.31487
205.27263
205.2251
205.1714
205.11046
205.04096
204.96128
205.70084
205.69444
205.68739
205.67962
205.67105
205.6616
205.65117
205.63966
205.62694
205.61288
205.59733
205.58011
205.56101
205.53981
205.51623
205.48997
205.46065
205.42784
205.39104
205.34962
205.30286
205.24987
205.1896
205.12078
205.04189
204.95112
204.84633
207.84708
207.84282
207.83815
207.83301
207.82736
207.82114
207.81432
207.80682
207.79858
207.78952
207.77957
207.76865
207.75665
207.74347
207.729
207.71312
207.69568
207.67655
207.65555
207.63252
207.60726
207.57955
207.54916
207.51585
207.47933
207.4393
207.39542
207.85856
207.85418
207.84937
207.84408
207.83827
207.83188
207.82486
207.81714
207.80866
207.79935
207.78911
207.77787
207.76553
207.75197
207.73708
207.72074
207.7028
207.68311
207.6615
207.63779
207.61177
207.58322
207.55191
207.51755
207.47986
207.4385
207.39312
207.88077
207.87613
207.87104
207.86544
207.85928
207.85251
207.84507
207.8369
207.82791
207.81803
207.80717
207.79525
207.78214
207.76773
207.75191
207.73451
207.7154
207.69439
207.67129
207.64589
207.61795
207.5872
207.55332
207.51597
207.47473
207.42911
207.37855
207.91304
207.90799
207.90243
207.89633
207.88961
207.88221
207.87408
207.86514
207.8553
207.84447
207.83256
207.81945
207.80502
207.78913
207.77163
207.75233
207.73106
207.70758
207.68164
207.65294
207.62115
207.58586
207.5466
207.5028
207.45374
207.39858
207.33623
207.95498
207.94933
207.94311
207.93626
207.92872
207.92041
207.91126
207.90118
207.89007
207.87782
207.86431
207.84939
207.83292
207.81471
207.79455
207.77223
207.74746
207.71993
207.68927
207.65505
207.61673
207.57369
207.52516
207.47022
207.4077
207.33621
207.25398
208.00668
208.00023
207.99312
207.98528
207.97663
207.96709
207.95656
207.94493
207.93207
207.91785
207.90211
207.88467
207.86531
207.8438
207.81985
207.79315
207.76329
207.72984
207.69223
207.64982
207.60184
207.54733
207.48515
207.41392
207.33199
207.23736
207.12765
210.16392
210.15969
210.15505
210.14994
210.14433
210.13816
210.13137
210.12392
210.11573
210.10674
210.09685
210.086
210.07407
210.06098
210.0466
210.03081
210.01349
209.99447
209.9736
209.95071
209.92559
209.89804
209.86783
209.8347
209.79838
209.75857
209.71493
210.17532
210.17097
210.16619
210.16093
210.15516
210.14881
210.14184
210.13417
210.12574
210.11649
210.10632
210.09515
210.08288
210.06941
210.05461
210.03837
210.02054
210.00096
209.97948
209.9559
209.93003
209.90164
209.87049
209.83631
209.79881
209.75765
209.71246
210.19734
210.19274
210.18768
210.18211
210.17599
210.16927
210.16187
210.15374
210.14481
210.13499
210.1242
210.11234
210.09931
210.08498
210.06924
210.05194
210.03292
210.01201
209.98902
209.96374
209.93591
209.90527
209.8715
209.83424
209.79308
209.74752
209.69696
210.22931
210.22428
210.21876
210.21268
210.206
210.19865
210.19056
210.18166
210.17186
210.16109
210.14923
210.13618
210.1218
210.10597
210.08852
210.06929
210.04806
210.02463
209.99872
209.97004
209.93824
209.90291
209.86355
209.81957
209.77024
209.71466
209.6517
210.27079
210.26516
210.25897
210.25214
210.24463
210.23635
210.22723
210.21718
210.20609
210.19387
210.18038
210.16548
210.14901
210.1308
210.11064
210.08828
210.06345
210.03582
210.00502
209.97057
209.93195
209.88848
209.83937
209.78362
209.72001
209.64703
209.56282
210.32188
210.31545
210.30835
210.30052
210.29188
210.28235
210.27182
210.26018
210.24732
210.23308
210.21731
210.19981
210.18037
210.15875
210.13466
210.10775
210.07762
210.04379
210.00569
209.96263
209.91378
209.85813
209.79446
209.72127
209.63678
209.53879
209.42471
212.46545
212.46129
212.45671
212.45167
212.44614
212.44006
212.43337
212.42602
212.41795
212.40908
212.39934
212.38863
212.37688
212.36396
212.34979
212.33422
212.31714
212.29838
212.2778
212.25522
212.23045
212.20327
212.17347
212.14079
212.10495
212.06566
212.02259
212.47668
212.47239
212.46768
212.4625
212.45681
212.45055
212.44367
212.43611
212.42781
212.41868
212.40866
212.39764
212.38555
212.37226
212.35767
212.34165
212.32406
212.30476
212.28356
212.2603
212.23478
212.20676
212.17602
212.14228
212.10525
212.0646
212.01996
212.49835
212.49381
212.48882
212.48333
212.4773
212.47066
212.46337
212.45535
212.44654
212.43686
212.42621
212.41451
212.40165
212.38751
212.37197
212.35489
212.33611
212.31547
212.29276
212.26777
212.24026
212.20996
212.17654
212.13966
212.09887
212.05369
212.00349
212.52975
212.5248
212.51934
212.51334
212.50675
212.49948
212.4915
212.48271
212.47303
212.46239
212.45067
212.43776
212.42355
212.40789
212.39063
212.37159
212.35057
212.32734
212.30165
212.27319
212.2416
212.20645
212.16725
212.12339
212.07409
212.01843
211.95523
212.57045
212.56488
212.55875
212.552
212.54457
212.53638
212.52735
212.51739
212.50642
212.4943
212.48093
212.46615
212.44981
212.43172
212.41168
212.38944
212.36471
212.33716
212.3064
212.27195
212.23325
212.18961
212.14018
212.08392
212.01954
211.94543
211.85959
212.62052
212.61414
212.6071
212.59934
212.59077
212.58131
212.57085
212.55929
212.5465
212.53234
212.51663
212.49919
212.4798
212.45821
212.43411
212.40715
212.37692
212.34291
212.30452
212.26104
212.21157
212.15505
212.09017
212.01534
211.92861
211.82764
211.70957
214.73417
214.73009
214.7256
214.72068
214.71526
214.7093
214.70275
214.69556
214.68765
214.67897
214.66942
214.65894
214.64743
214.63478
214.62089
214.60565
214.58891
214.57054
214.55039
214.52827
214.504
214.47737
214.44818
214.41615
214.38104
214.34254
214.30033
214.74515
214.74096
214.73634
214.73127
214.7257
214.71957
214.71283
214.70543
214.69729
214.68836
214.67854
214.66775
214.6559
214.64288
214.62859
214.6129
214.59567
214.57675
214.55599
214.53319
214.50818
214.48072
214.45058
214.4175
214.38119
214.34132
214.29752
214.76633
214.76189
214.757
214.75162
214.74571
214.73921
214.73206
214.7242
214.71557
214.70608
214.69564
214.68417
214.67156
214.6577
214.64247
214.62572
214.6073
214.58704
214.56475
214.54022
214.5132
214.48343
214.45058
214.41429
214.37413
214.3296
214.28007
214.79697
214.79211
214.78676
214.78087
214.7744
214.76727
214.75943
214.75081
214.74131
214.73086
214.71935
214.70667
214.69271
214.67732
214.66034
214.64161
214.62092
214.59804
214.57272
214.54464
214.51343
214.47868
214.43987
214.39635
214.34736
214.29191
214.22878
214.83661
214.83114
214.82511
214.81848
214.81117
214.80311
214.79422
214.78443
214.77362
214.76168
214.7485
214.73393
214.71781
214.69995
214.68014
214.65813
214.63363
214.60631
214.57576
214.54149
214.50291
214.45931
214.4098
214.35328
214.28841
214.21348
214.12637
214.88535
214.87906
214.87212
214.86446
214.85601
214.84667
214.83634
214.82492
214.81228
214.79826
214.7827
214.76541
214.74617
214.72471
214.70073
214.67386
214.64367
214.60964
214.57115
214.52743
214.47755
214.4204
214.35457
214.27837
214.18973
214.0861
213.96442
216.95577
216.95179
216.94742
216.94261
216.93733
216.93153
216.92514
216.91813
216.91042
216.90195
216.89265
216.88243
216.87121
216.85888
216.84534
216.83048
216.81416
216.79625
216.77659
216.75502
216.73136
216.70539
216.67692
216.64568
216.61144
216.57388
216.53271
216.96647
216.96238
216.95788
216.95293
216.9475
216.94152
216.93496
216.92774
216.91981
216.91109
216.90152
216.891
216.87945
216.86676
216.85282
216.83751
216.82071
216.80226
216.78201
216.75977
216.73537
216.70858
216.67917
216.64688
216.61143
216.5725
216.52972
216.98707
216.98273
216.97796
216.97271
216.96695
216.96061
216.95364
216.94597
216.93755
216.92829
216.9181
216.90691
216.8946
216.88108
216.8662
216.84985
216.83186
216.81207
216.79029
216.76631
216.73989
216.71076
216.6786
216.64305
216.60368
216.55997
216.51129
217.0168
217.01206
217.00683
217.00108
216.99476
216.9878
216.98014
216.97171
216.96243
216.95221
216.94096
216.92856
216.9149
216.89983
216.88321
216.86485
216.84457
216.82213
216.79726
216.76967
216.73897
216.70474
216.66644
216.62342
216.57489
216.51983
216.45698
217.05521
217.04986
217.04396
217.03746
217.0303
217.02241
217.0137
217.0041
216.9935
216.98179
216.96885
216.95454
216.93869
216.92112
216.90162
216.87993
216.85575
216.82876
216.79851
216.76453
216.7262
216.68277
216.63333
216.57673
216.51155
216.436
216.34783
217.10242
217.09625
217.08943
217.08191
217.0736
217.06442
217.05426
217.04302
217.03056
217.01674
217.00138
216.98431
216.96527
216.94402
216.92024
216.89354
216.86349
216.82955
216.79106
216.74723
216.6971
216.63946
216.57286
216.49549
216.40514
216.2991
216.17407
219.12133
219.11747
219.11323
219.10856
219.10343
219.0978
219.0916
219.0848
219.07732
219.0691
219.06007
219.05015
219.03925
219.02728
219.01414
218.99971
218.98387
218.96649
218.9474
218.92646
218.90349
218.87828
218.85063
218.82031
218.78705
218.75058
218.7106
219.1317
219.12773
219.12337
219.11857
219.11329
219.10749
219.10112
219.09411
219.08641
219.07795
219.06866
219.05844
219.04723
219.03491
219.02137
219.00651
218.9902
218.97228
218.95261
218.93102
218.90731
218.88129
218.85272
218.82134
218.78689
218.74904
218.70744
219.15165
219.14744
219.1428
219.13771
219.13211
219.12595
219.11918
219.11173
219.10355
219.09455
219.08466
219.07378
219.06182
219.04867
219.03421
219.01831
219.00082
218.98157
218.96037
218.93703
218.91131
218.88292
218.85157
218.81688
218.77843
218.73569
218.68804
219.18038
219.17576
219.17068
219.16509
219.15894
219.15217
219.14471
219.13651
219.12748
219.11753
219.10657
219.09449
219.08117
219.06648
219.05027
219.03236
219.01255
218.99062
218.9663
218.93928
218.90918
218.87558
218.83792
218.79554
218.74763
218.69313
218.63073
219.21742
219.2122
219.20645
219.20011
219.19313
219.18542
219.17692
219.16754
219.15719
219.14574
219.13309
219.11908
219.10356
219.08634
219.0672
219.04589
219.02212
218.99552
218.96569
218.93209
218.89412
218.85099
218.80176
218.74523
218.67992
218.60395
218.51494
219.26289
219.25686
219.25019
219.24283
219.23469
219.2257
219.21574
219.20471
219.19248
219.1789
219.1638
219.14698
219.12822
219.10724
219.08372
219.05728
219.02746
218.9937
218.95532
218.91151
218.86124
218.80327
218.73606
218.6577
218.56586
218.45765
218.32955
221.22318
221.21945
221.21534
221.21083
221.20587
221.20041
221.19442
221.18783
221.18059
221.17264
221.1639
221.1543
221.14376
221.13218
221.11946
221.1055
221.09017
221.07334
221.05487
221.0346
221.01236
220.98797
220.9612
220.93185
220.89966
220.86435
220.82564
221.23321
221.22937
221.22514
221.2205
221.21539
221.20978
221.20361
221.19683
221.18938
221.18119
221.1722
221.16231
221.15145
221.13953
221.12643
221.11205
221.09625
221.0789
221.05986
221.03895
221.016
220.99079
220.96311
220.93272
220.89933
220.86264
220.82231
221.25246
221.24838
221.2439
221.23896
221.23354
221.22758
221.22102
221.21381
221.20588
221.19716
221.18758
221.17704
221.16545
221.15271
221.1387
221.12328
221.10632
221.08764
221.06708
221.04442
221.01944
220.99186
220.96138
220.92762
220.89017
220.84849
220.80194
221.28012
221.27565
221.27072
221.2653
221.25933
221.25276
221.24553
221.23757
221.2288
221.21914
221.20849
221.19676
221.18381
221.16953
221.15376
221.13633
221.11703
221.09566
221.07193
221.04553
221.0161
220.98319
220.94624
220.90458
220.85737
220.80353
220.7417
221.31571
221.31064
221.30504
221.29888
221.29208
221.28458
221.27631
221.26718
221.25708
221.24592
221.23358
221.2199
221.20474
221.18789
221.16916
221.14828
221.12495
221.09881
221.06943
221.03628
220.99874
220.95599
220.90705
220.85069
220.78536
220.70909
220.61939
221.35936
221.35347
221.34697
221.33978
221.33183
221.32304
221.3133
221.3025
221.29052
221.27721
221.26239
221.24587
221.22741
221.20674
221.18353
221.15739
221.12785
221.09433
221.05613
221.01241
220.96209
220.90389
220.83618
220.75696
220.66378
220.55357
220.4226
223.25697
223.25337
223.24941
223.24505
223.24027
223.23501
223.22923
223.22287
223.21589
223.20822
223.19979
223.19053
223.18036
223.16919
223.15692
223.14345
223.12866
223.11243
223.09461
223.07506
223.0536
223.03007
223.00425
222.97593
222.94486
222.9108
222.87345
223.26663
223.26292
223.25885
223.25437
223.24944
223.24403
223.23808
223.23154
223.22435
223.21645
223.20777
223.19823
223.18776
223.17625
223.16361
223.14973
223.13449
223.11775
223.09937
223.07919
223.05703
223.0327
223.00598
222.97663
222.94438
222.90893
222.86995
223.28514
223.28121
223.27688
223.27212
223.26688
223.26112
223.25479
223.24783
223.24018
223.23176
223.2225
223.21233
223.20113
223.18882
223.17528
223.16038
223.14398
223.12592
223.10603
223.08411
223.05992
223.0332
223.00364
222.97089
222.93451
222.89397
222.84863
223.31168
223.30736
223.30259
223.29735
223.29158
223.28522
223.27822
223.27052
223.26203
223.25268
223.24237
223.231
223.21846
223.20461
223.18931
223.17239
223.15365
223.13287
223.10978
223.08406
223.05535
223.02319
222.98703
222.94616
222.89974
222.84666
222.78551
223.34575
223.34083
223.33541
223.32943
223.32284
223.31556
223.30752
223.29865
223.28884
223.27799
223.26597
223.25265
223.23787
223.22144
223.20314
223.18272
223.15988
223.13424
223.10538
223.07274
223.03569
222.99339
222.94484
222.88875
222.82351
222.74707
222.65683
223.3875
223.38177
223.37544
223.36844
223.36069
223.35212
223.34261
223.33207
223.32036
223.30734
223.29283
223.27663
223.25851
223.23818
223.21533
223.18953
223.16032
223.1271
223.08915
223.04558
222.99531
222.93697
222.86887
222.78893
222.69456
222.58253
222.44892
225.21861
225.21515
225.21134
225.20715
225.20254
225.19748
225.19192
225.1858
225.17908
225.1717
225.16359
225.15468
225.14489
225.13414
225.12233
225.10937
225.09513
225.07951
225.06236
225.04354
225.02289
225.00024
224.97538
224.94812
224.91822
224.88543
224.84947
225.2279
225.22434
225.22041
225.2161
225.21136
225.20615
225.20042
225.19413
225.18721
225.1796
225.17125
225.16207
225.15199
225.14091
225.12874
225.11538
225.10071
225.08459
225.06689
225.04746
225.02612
225.00268
224.97693
224.94865
224.91757
224.8834
224.8458
225.24566
225.24187
225.2377
225.23312
225.22807
225.22253
225.21643
225.20972
225.20235
225.19424
225.18532
225.17551
225.16472
225.15285
225.1398
225.12543
225.10961
225.09218
225.07298
225.05181
225.02844
225.0026
224.97401
224.94229
224.90701
224.86765
224.82356
225.27105
225.26688
225.26228
225.25722
225.25165
225.24552
225.23876
225.23132
225.22312
225.21409
225.20413
225.19314
225.18101
225.16761
225.15279
225.1364
225.11823
225.09806
225.07563
225.05062
225.02265
224.99128
224.95593
224.9159
224.87031
224.81804
224.75763
225.30357
225.29881
225.29356
225.28777
225.28138
225.27433
225.26654
225.25794
225.24842
225.23788
225.22621
225.21327
225.19888
225.18288
225.16504
225.1451
225.12276
225.09766
225.06933
225.03724
225.00072
224.95892
224.9108
224.85504
224.78995
224.71342
224.62275
225.34339
225.33782
225.33167
225.32486
225.31732
225.30897
225.29971
225.28944
225.27801
225.26529
225.2511
225.23524
225.21747
225.19751
225.17503
225.14961
225.12075
225.08786
225.0502
225.00684
224.95666
224.89825
224.82985
224.74927
224.65382
224.54011
224.40402
227.10631
227.10298
227.09933
227.09531
227.09089
227.08603
227.08069
227.07482
227.06837
227.06128
227.0535
227.04494
227.03555
227.02523
227.0139
227.00145
226.98779
226.97279
226.95633
226.93827
226.91844
226.8967
226.87284
226.84666
226.81796
226.78648
226.75195
227.11522
227.11179
227.10803
227.10389
227.09934
227.09433
227.08883
227.08279
227.07615
227.06885
227.06083
227.05202
227.04234
227.0317
227.02002
227.00719
226.9931
226.97762
226.96062
226.94196
226.92146
226.89894
226.8742
226.84702
226.81714
226.78428
226.74812
227.1322
227.12856
227.12456
227.12015
227.11531
227.10998
227.10412
227.09767
227.09059
227.08279
227.07422
227.06479
227.05442
227.04301
227.03045
227.01662
227.0014
226.98463
226.96614
226.94574
226.92321
226.89829
226.87068
226.84003
226.8059
226.76777
226.72498
227.15642
227.1524
227.14798
227.14311
227.13774
227.13184
227.12533
227.11816
227.11026
227.10155
227.09195
227.08135
227.06964
227.0567
227.04239
227.02654
227.00896
226.98943
226.96768
226.9434
226.91622
226.88566
226.85117
226.81202
226.76732
226.71591
226.65632
227.18735
227.18275
227.17768
227.17209
227.16591
227.1591
227.15156
227.14324
227.13402
227.12382
227.1125
227.09994
227.08597
227.07041
227.05305
227.03361
227.01181
226.98725
226.9595
226.92799
226.89204
226.85079
226.80316
226.74778
226.68294
226.60642
226.51542
227.22518
227.21978
227.21381
227.2072
227.19988
227.19177
227.18277
227.17276
227.16163
227.14923
227.13538
227.11987
227.10248
227.08291
227.06083
227.03581
227.00735
226.97483
226.9375
226.8944
226.84438
226.78596
226.71734
226.63623
226.53982
226.42459
226.2862
228.91809
228.91491
228.9114
228.90755
228.90332
228.89866
228.89355
228.88793
228.88175
228.87496
228.8675
228.8593
228.8503
228.84042
228.82956
228.81764
228.80455
228.79018
228.77441
228.7571
228.73811
228.71727
228.6944
228.66932
228.64182
228.61165
228.57856
228.92661
228.92333
228.91973
228.91576
228.9114
228.90661
228.90134
228.89555
228.88918
228.88219
228.8745
228.86606
228.85678
228.84659
228.83539
228.8231
228.80959
228.79475
228.77846
228.76056
228.74091
228.71931
228.69559
228.66951
228.64084
228.6093
228.57457
228.94283
228.93934
228.9355
228.93127
228.92663
228.92152
228.9159
228.90972
228.90292
228.89544
228.88722
228.87817
228.86821
228.85726
228.8452
228.83192
228.8173
228.80118
228.78341
228.76379
228.7421
228.7181
228.69149
228.66191
228.62894
228.59204
228.55055
228.96587
228.96201
228.95776
228.95308
228.94792
228.94225
228.93599
228.92909
228.92149
228.91311
228.90386
228.89365
228.88237
228.8699
228.8561
228.84079
228.82381
228.80491
228.78386
228.76032
228.73392
228.70419
228.67057
228.63231
228.58852
228.53801
228.47925
228.99521
228.99078
228.98589
228.98049
228.97453
228.96795
228.96068
228.95263
228.94372
228.93385
228.92289
228.91071
228.89716
228.88206
228.86517
228.84625
228.82498
228.80099
228.77383
228.74291
228.70755
228.66687
228.61975
228.5648
228.50024
228.42378
228.33252
229.03105
229.02582
229.02004
229.01363
229.00653
228.99866
228.98992
228.98019
228.96936
228.95728
228.94377
228.92863
228.91162
228.89245
228.87077
228.84616
228.81811
228.78599
228.74901
228.7062
228.65636
228.59799
228.5292
228.44763
228.35035
228.2337
228.09316
230.65372
230.65067
230.64733
230.64364
230.6396
230.63515
230.63026
230.62489
230.61898
230.61249
230.60536
230.59753
230.58893
230.57948
230.5691
230.5577
230.54519
230.53146
230.51638
230.49984
230.48168
230.46176
230.4399
230.41593
230.38963
230.36079
230.32916
230.66185
230.65872
230.65527
230.65148
230.64731
230.64273
230.63769
230.63215
230.62607
230.61938
230.61203
230.60396
230.59509
230.58535
230.57464
230.56288
230.54997
230.53578
230.52019
230.50308
230.48427
230.46361
230.44091
230.41595
230.3885
230.35829
230.32501
230.67729
230.67395
230.67027
230.66623
230.66179
230.6569
230.65152
230.6456
230.6391
230.63194
230.62407
230.6154
230.60587
230.59538
230.58382
230.5711
230.55708
230.54163
230.52457
230.50574
230.48491
230.46184
230.43624
230.40775
230.37595
230.3403
230.30015
230.69915
230.69545
230.69137
230.68688
230.68194
230.67649
230.67049
230.66387
230.65657
230.64852
230.63963
230.62982
230.61897
230.60697
230.59367
230.57893
230.56254
230.5443
230.52394
230.50115
230.47555
230.44668
230.41394
230.37661
230.33375
230.28416
230.22629
230.72691
230.72264
230.71793
230.71274
230.707
230.70065
230.69364
230.68587
230.67727
230.66773
230.65714
230.64536
230.63223
230.61758
230.60118
230.58278
230.56207
230.53866
230.51209
230.48179
230.44705
230.40696
230.36039
230.30591
230.24169
230.16536
230.07394
230.76076
230.7557
230.75011
230.74391
230.73703
230.7294
230.72092
230.71148
230.70095
230.68919
230.67603
230.66126
230.64464
230.62588
230.60463
230.58045
230.55283
230.52112
230.48451
230.44203
230.39243
230.33415
230.26525
230.18331
230.08526
229.96733
229.82479
232.31257
232.30967
232.30647
232.30296
232.2991
232.29485
232.29019
232.28506
232.27942
232.27323
232.26643
232.25895
232.25074
232.24173
232.23182
232.22095
232.20901
232.1959
232.18152
232.16573
232.1484
232.12939
232.10853
232.08564
232.06054
232.03301
232.00282
232.32032
232.31733
232.31403
232.31042
232.30644
232.30207
232.29726
232.29197
232.28617
232.27979
232.27277
232.26507
232.2566
232.2473
232.23708
232.22585
232.21352
232.19997
232.18509
232.16874
232.15078
232.13105
232.10935
232.0855
232.05926
232.03036
231.99852
232.33499
232.3318
232.32829
232.32443
232.32018
232.31551
232.31037
232.30472
232.2985
232.29166
232.28413
232.27585
232.26673
232.25669
232.24564
232.23347
232.22005
232.20525
232.18891
232.17085
232.15087
232.12873
232.10412
232.07671
232.04607
232.01168
231.97285
232.35568
232.35214
232.34823
232.34393
232.3392
232.33398
232.32822
232.32188
232.31488
232.30716
232.29863
232.28921
232.27879
232.26725
232.25447
232.24027
232.22448
232.20689
232.18722
232.16518
232.14038
232.11234
232.08049
232.04408
232.00216
231.9535
231.89652
232.38186
232.37776
232.37323
232.36823
232.36271
232.3566
232.34985
232.34236
232.33407
232.32486
232.31463
232.30324
232.29054
232.27634
232.26043
232.24256
232.22239
232.19956
232.1736
232.14391
232.10979
232.0703
232.0243
231.97031
231.90645
231.8303
231.73876
232.41378
232.40889
232.40348
232.39748
232.39083
232.38344
232.37521
232.36605
232.35583
232.3444
232.33158
232.31718
232.30096
232.2826
232.26177
232.23803
232.21084
232.17955
232.14334
232.1012
232.05184
231.99369
231.92474
231.84246
231.74373
231.6246
231.4802
233.89542
233.89265
233.88961
233.88627
233.88259
233.87855
233.87411
233.86922
233.86386
233.85796
233.85149
233.84437
233.83655
233.82797
233.81854
233.80818
233.79681
233.78433
233.77064
233.7556
233.7391
233.721
233.70113
233.67934
233.65544
233.62922
233.60047