/*--------------------------------*- C++ -*----------------------------------*\
| =========                 |                                                 |
| \\      /  F ield         | OpenFOAM: The Open Source CFD Toolbox           |
|  \\    /   O peration     | Version:  3.0.1                                 |
|   \\  /    A nd           | Web:      www.OpenFOAM.org                      |
|    \\/     M anipulation  |                                                 |
\*---------------------------------------------------------------------------*/
FoamFile
{
    version     2.0;
    format      ascii;
    class       volScalarField;
    location    "6000/fluid";
    object      ILambda_4_0;
}
// * * * * * * * * * * * * * * * * * * * * * * * * * * * * * * * * * * * * * //

dimensions      [1 0 -3 0 0 0 0];

internalField   nonuniform List<scalar> 
162000
(
198.1526
198.15534
198.15835
198.16167
198.16533
198.16936
198.17381
198.17872
198.18413
198.1901
198.19669
198.20397
198.212
198.22087
198.23067
198.2415
198.25348
198.26673
198.28139
198.29762
198.31561
198.33553
198.35763
198.38214
198.40936
198.43959
198.4732
198.04809
198.05364
198.05966
198.06617
198.0732
198.08078
198.08894
198.09773
198.10718
198.11732
198.12819
198.13985
198.15232
198.16568
198.17997
198.19527
198.21164
198.22919
198.24801
198.26824
198.29002
198.31353
198.33898
198.3666
198.39667
198.42953
198.46554
197.89097
197.8974
197.90443
197.91214
197.92057
197.92979
197.93985
197.95083
197.96279
197.9758
197.98993
198.00525
198.02183
198.03974
198.05905
198.07983
198.10215
198.12606
198.15165
198.17898
198.20815
198.23924
198.27239
198.30774
198.34548
198.38585
198.42914
197.68547
197.69247
197.70017
197.70862
197.71789
197.72806
197.73922
197.75145
197.76486
197.77953
197.79559
197.81315
197.83233
197.85324
197.87603
197.90081
197.92773
197.95689
197.98844
198.02248
198.05913
198.09851
198.14071
198.18584
198.23403
198.28542
198.34016
197.43143
197.43899
197.4473
197.45642
197.46645
197.47747
197.48956
197.50285
197.51743
197.53343
197.55099
197.57024
197.59135
197.61447
197.63978
197.66747
197.69774
197.73078
197.76682
197.80605
197.8487
197.89498
197.94509
197.99922
198.05755
198.12028
198.18756
197.1283
197.13644
197.14539
197.15523
197.16604
197.17793
197.19099
197.20534
197.22111
197.23843
197.25745
197.27834
197.30127
197.32643
197.35403
197.3843
197.41748
197.45384
197.49364
197.53719
197.58478
197.63676
197.69343
197.75515
197.82223
197.895
197.97379
199.62111
199.62482
199.6289
199.6334
199.63836
199.64382
199.64983
199.65646
199.66377
199.67183
199.68071
199.69051
199.70131
199.71323
199.72638
199.74089
199.75691
199.7746
199.79414
199.81572
199.83957
199.86594
199.89509
199.92735
199.96303
200.00253
200.04627
199.50368
199.51055
199.51799
199.52605
199.53477
199.5442
199.55437
199.56535
199.57717
199.58989
199.60357
199.61827
199.63405
199.651
199.66918
199.6887
199.70966
199.73218
199.7564
199.78248
199.81063
199.84105
199.87401
199.90979
199.94875
199.99127
200.03778
199.33486
199.34252
199.35092
199.36013
199.37021
199.38125
199.39332
199.4065
199.42088
199.43655
199.45361
199.47213
199.49223
199.51398
199.5375
199.56288
199.5902
199.61958
199.65112
199.68492
199.72111
199.75982
199.80123
199.84553
199.89296
199.94381
199.99844
199.11961
199.12781
199.13683
199.14672
199.1576
199.16953
199.18263
199.19701
199.21277
199.23005
199.24898
199.2697
199.29236
199.31711
199.34412
199.37355
199.40557
199.44036
199.47806
199.51886
199.56291
199.61036
199.66138
199.71612
199.77476
199.83748
199.90451
198.85751
198.86628
198.87591
198.8865
198.89814
198.91093
198.92498
198.94041
198.95736
198.97597
198.9964
199.01882
199.04341
199.07037
199.09991
199.13227
199.16767
199.20638
199.24864
199.29474
199.34493
199.3995
199.45871
199.52281
199.59207
199.66672
199.74701
198.54738
198.55678
198.56712
198.57849
198.59099
198.60472
198.61982
198.63641
198.65465
198.67468
198.69668
198.72085
198.74738
198.77652
198.80849
198.84357
198.88204
198.92421
198.97042
199.021
199.07635
199.13683
199.20287
199.27486
199.35322
199.43835
199.53067
201.61339
201.61762
201.62227
201.62739
201.63303
201.63925
201.6461
201.65364
201.66195
201.67111
201.68121
201.69234
201.70461
201.71813
201.73305
201.74951
201.76766
201.7877
201.80981
201.83421
201.86116
201.89092
201.92379
201.96011
202.00025
202.04462
202.09367
201.4856
201.49326
201.50157
201.51057
201.52031
201.53084
201.54222
201.55449
201.56771
201.58195
201.59727
201.61374
201.63143
201.65043
201.67083
201.69273
201.71626
201.74155
201.76876
201.79807
201.82969
201.86387
201.90088
201.94106
201.98477
202.03242
202.08451
201.30754
201.31594
201.32515
201.33526
201.34633
201.35845
201.37172
201.38621
201.40204
201.41929
201.43807
201.4585
201.48066
201.50469
201.53067
201.55873
201.58897
201.62152
201.65647
201.69397
201.73416
201.77718
201.82322
201.8725
201.92528
201.98188
202.04268
201.08473
201.09363
201.1034
201.11415
201.12595
201.13891
201.15315
201.16877
201.18591
201.20471
201.22531
201.24787
201.27256
201.29955
201.32902
201.36116
201.39616
201.4342
201.47547
201.52017
201.56848
201.62057
201.67662
201.73682
201.80136
201.87045
201.94433
200.81624
200.8257
200.83609
200.84752
200.86008
200.87388
200.88905
200.90572
200.92403
200.94413
200.96621
200.99045
201.01704
201.0462
201.07818
201.11321
201.15157
201.19352
201.23937
201.2894
201.34391
201.40322
201.46763
201.53742
201.61288
201.69428
201.78189
200.50024
200.51036
200.5215
200.53374
200.54719
200.56198
200.57824
200.59611
200.61574
200.63732
200.66102
200.68705
200.71564
200.74703
200.78149
200.8193
200.86078
200.90626
200.95611
201.0107
201.07044
201.13576
201.2071
201.28492
201.36966
201.46178
201.56172
203.88314
203.88761
203.89254
203.89797
203.90395
203.91053
203.91778
203.92577
203.93457
203.94426
203.95495
203.96673
203.9797
203.99401
204.00979
204.02718
204.04637
204.06753
204.09088
204.11664
204.14508
204.17646
204.21111
204.24937
204.29163
204.3383
204.38987
203.74905
203.75714
203.7659
203.7754
203.78568
203.7968
203.8088
203.82175
203.83571
203.85074
203.86691
203.88429
203.90296
203.92301
203.94454
203.96766
203.99248
204.01916
204.04786
204.07877
204.11211
204.14813
204.18712
204.22943
204.27542
204.32555
204.38029
203.56511
203.5739
203.58355
203.59414
203.60574
203.61844
203.63234
203.64753
203.66413
203.68222
203.70192
203.72335
203.74661
203.77182
203.7991
203.82856
203.86032
203.8945
203.93123
203.97062
204.01284
204.05804
204.10642
204.15819
204.21362
204.27305
204.33686
203.33705
203.34632
203.35651
203.36771
203.38002
203.39353
203.40837
203.42467
203.44255
203.46215
203.48365
203.5072
203.53297
203.56115
203.59192
203.62549
203.66206
203.70181
203.74496
203.7917
203.84222
203.89671
203.95536
204.01835
204.08588
204.15818
204.23549
203.06356
203.07339
203.0842
203.09609
203.10915
203.1235
203.13928
203.15661
203.17565
203.19657
203.21954
203.24475
203.27242
203.30277
203.33605
203.37251
203.41244
203.45612
203.50386
203.55597
203.61276
203.67456
203.74168
203.81442
203.89308
203.97795
204.0693
202.74243
202.75295
202.76451
202.77723
202.79121
202.80658
202.82347
202.84203
202.86243
202.88485
202.90947
202.93652
202.96622
202.99884
203.03464
203.07393
203.11702
203.16428
203.21607
203.27279
203.33487
203.40275
203.47689
203.55776
203.64583
203.74158
203.84545
206.28817
206.29274
206.29776
206.30329
206.30938
206.31609
206.32348
206.33162
206.34059
206.35047
206.36136
206.37335
206.38657
206.40115
206.41721
206.43492
206.45446
206.476
206.49976
206.52597
206.5549
206.58681
206.62204
206.66093
206.70387
206.75128
206.80363
206.1503
206.15858
206.16755
206.17727
206.18779
206.19917
206.21145
206.22469
206.23897
206.25434
206.27086
206.28863
206.3077
206.32818
206.35017
206.37376
206.3991
206.42631
206.45558
206.48708
206.52104
206.55772
206.59742
206.64046
206.68723
206.73818
206.79379
205.96259
205.97157
205.98141
205.99221
206.00405
206.01702
206.0312
206.04671
206.06365
206.08211
206.10222
206.12409
206.14784
206.17357
206.20141
206.23148
206.26388
206.29876
206.33621
206.37639
206.41943
206.4655
206.51478
206.56751
206.62394
206.6844
206.74928
205.73092
205.74036
205.75074
205.76214
205.77467
205.78843
205.80354
205.82013
205.83834
205.85831
205.8802
205.90418
205.93043
205.95913
205.99049
206.02468
206.06193
206.10243
206.14638
206.19399
206.24545
206.30095
206.36067
206.4248
206.49354
206.5671
206.64574
205.45371
205.46371
205.4747
205.48679
205.50007
205.51467
205.53071
205.54834
205.5677
205.58897
205.61233
205.63797
205.66611
205.69698
205.73083
205.76792
205.80853
205.85296
205.90152
205.95452
206.01229
206.07514
206.1434
206.21738
206.29737
206.38366
206.47651
205.12848
205.13917
205.15093
205.16386
205.17807
205.19369
205.21086
205.22972
205.25046
205.27324
205.29827
205.32576
205.35595
205.38909
205.42548
205.4654
205.5092
205.55722
205.60984
205.66748
205.73056
205.79953
205.87485
205.957
206.04647
206.14371
206.24919
208.73992
208.74448
208.7495
208.75503
208.76112
208.76782
208.77521
208.78334
208.7923
208.80217
208.81305
208.82503
208.83824
208.85279
208.86884
208.88653
208.90604
208.92755
208.95127
208.97744
209.00631
209.03817
209.07332
209.11212
209.15495
209.20224
209.25444
208.59926
208.60762
208.61667
208.62648
208.63709
208.64856
208.66094
208.67429
208.68867
208.70414
208.72078
208.73865
208.75783
208.77842
208.80051
208.8242
208.84963
208.87693
208.90626
208.93783
208.97184
209.00854
209.04825
209.09127
209.13801
209.18889
209.24439
208.40849
208.41754
208.42746
208.43835
208.45029
208.46336
208.47766
208.49329
208.51036
208.52897
208.54924
208.57128
208.5952
208.62111
208.64915
208.67941
208.71203
208.74711
208.78477
208.82516
208.8684
208.91465
208.9641
209.01697
209.07351
209.13406
209.19898
208.17355
208.18306
208.19351
208.20499
208.21761
208.23147
208.24669
208.2634
208.28174
208.30185
208.3239
208.34805
208.37448
208.40339
208.43495
208.46938
208.50687
208.54764
208.59187
208.63976
208.69152
208.74731
208.80734
208.87176
208.94078
209.0146
209.09346
207.89272
207.90278
207.91385
207.92601
207.93938
207.95408
207.97023
207.98797
208.00746
208.02887
208.05238
208.07819
208.10651
208.13758
208.17164
208.20896
208.24982
208.29453
208.34338
208.39669
208.45479
208.518
208.58662
208.66098
208.74135
208.82801
208.92122
207.56338
207.57415
207.58598
207.59899
207.61329
207.62901
207.64628
207.66527
207.68613
207.70906
207.73424
207.7619
207.79227
207.82562
207.86222
207.90238
207.94643
207.99472
208.04765
208.10561
208.16903
208.23836
208.31407
208.39663
208.48651
208.58419
208.69011
211.19023
211.19473
211.19969
211.20515
211.21117
211.21779
211.22508
211.23312
211.24197
211.25172
211.26246
211.27429
211.28734
211.30171
211.31756
211.33503
211.35429
211.37553
211.39895
211.42479
211.45329
211.48473
211.51943
211.55772
211.59998
211.64664
211.69814
211.04718
211.05555
211.06462
211.07444
211.08506
211.09653
211.10891
211.12225
211.13662
211.15207
211.16868
211.18651
211.20564
211.22615
211.24814
211.27172
211.297
211.32413
211.35326
211.38458
211.4183
211.45467
211.49398
211.53656
211.58278
211.63307
211.6879
210.85368
210.86274
210.87268
210.88359
210.89554
210.90863
210.92295
210.9386
210.95568
210.97431
210.99459
211.01663
211.04056
211.06647
211.09449
211.12473
211.1573
211.19232
211.2299
211.27016
211.31324
211.35929
211.40849
211.46104
211.5172
211.57728
211.64164
210.61573
210.62525
210.63571
210.6472
210.65983
210.6737
210.68893
210.70566
210.72401
210.74413
210.76619
210.79036
210.8168
210.84571
210.87729
210.91171
210.9492
210.98995
211.03415
211.08199
211.13368
211.18937
211.24925
211.31349
211.38226
211.45576
211.53421
210.33152
210.34159
210.35266
210.36483
210.3782
210.3929
210.40906
210.4268
210.4463
210.46771
210.49123
210.51704
210.54536
210.57643
210.61049
210.64781
210.68866
210.73335
210.78217
210.83545
210.8935
210.95664
211.02517
211.09939
211.17959
211.26602
211.35894
209.99831
210.00907
210.0209
210.03391
210.04821
210.06393
210.08121
210.1002
210.12106
210.14398
210.16916
210.19681
210.22718
210.26052
210.2971
210.33725
210.38127
210.42954
210.48243
210.54034
210.6037
210.67296
210.74857
210.831
210.92073
211.01821
211.12386
213.61081
213.61523
213.6201
213.62545
213.63135
213.63785
213.64501
213.65289
213.66157
213.67114
213.68168
213.69329
213.70608
213.72019
213.73573
213.75287
213.77176
213.79259
213.81556
213.8409
213.86885
213.89969
213.93371
213.97126
214.0127
214.05843
214.10892
213.4655
213.47384
213.48289
213.49268
213.50327
213.5147
213.52703
213.54031
213.55461
213.56997
213.58648
213.60418
213.62316
213.64351
213.6653
213.68864
213.71366
213.74047
213.76924
213.80014
213.83339
213.86922
213.90792
213.94981
213.99525
214.04466
214.0985
213.26929
213.27833
213.28826
213.29914
213.31107
213.32413
213.33842
213.35404
213.37108
213.38966
213.40988
213.43186
213.4557
213.48151
213.50941
213.53951
213.57191
213.60672
213.64406
213.68403
213.72676
213.7724
213.82112
213.87311
213.92861
213.98792
214.0514
213.0283
213.0378
213.04824
213.05971
213.07231
213.08615
213.10135
213.11803
213.13633
213.15641
213.17841
213.20251
213.22888
213.25771
213.28919
213.3235
213.36085
213.40144
213.44546
213.49308
213.5445
213.59989
213.65939
213.72319
213.79143
213.8643
213.942
212.74067
212.75072
212.76176
212.7739
212.78724
212.8019
212.81801
212.83571
212.85515
212.8765
212.89995
212.92568
212.95392
212.98489
213.01884
213.05604
213.09675
213.14128
213.18992
213.24299
213.3008
213.36365
213.43185
213.50569
213.58543
213.67131
213.76359
212.40357
212.4143
212.4261
212.43907
212.45333
212.469
212.48623
212.50516
212.52595
212.5488
212.5739
212.60146
212.63172
212.66495
212.70141
212.74141
212.78527
212.83336
212.88604
212.94372
213.00682
213.07578
213.15105
213.23309
213.32236
213.4193
213.52434
215.98585
215.99016
215.99492
216.00015
216.00591
216.01226
216.01924
216.02694
216.03542
216.04476
216.05505
216.06639
216.07889
216.09266
216.10784
216.12457
216.14302
216.16336
216.18579
216.21053
216.23781
216.26792
216.30113
216.33779
216.37823
216.42287
216.47215
215.83833
215.84664
215.85565
215.86539
215.87591
215.88727
215.89952
215.91271
215.92689
215.94213
215.95848
215.97602
215.9948
216.01491
216.03644
216.05947
216.08413
216.11055
216.13886
216.16924
216.2019
216.23707
216.27502
216.31606
216.36055
216.4089
216.46156
215.63952
215.64853
215.65841
215.66925
215.68113
215.69414
215.70836
215.72391
215.74087
215.75935
215.77947
215.80132
215.82502
215.85068
215.87839
215.90827
215.94041
215.97493
216.01192
216.05149
216.09375
216.13885
216.18694
216.2382
216.29287
216.35122
216.41361
215.3956
215.40505
215.41544
215.42686
215.43941
215.45319
215.46832
215.48492
215.50314
215.52312
215.54502
215.569
215.59524
215.62391
215.65522
215.68934
215.72647
215.76681
215.81053
215.85782
215.90885
215.96378
216.02277
216.08595
216.15348
216.22552
216.30226
215.1046
215.1146
215.12559
215.13767
215.15095
215.16554
215.18157
215.19918
215.21853
215.23977
215.2631
215.2887
215.31679
215.3476
215.38137
215.41836
215.45885
215.50312
215.55147
215.60421
215.66164
215.72407
215.79178
215.86505
215.94413
216.02927
216.12067
214.76364
214.77432
214.78606
214.79896
214.81315
214.82874
214.84587
214.8647
214.88539
214.90812
214.93308
214.96049
214.99059
215.02363
215.05989
215.09966
215.14327
215.19108
215.24344
215.30076
215.36346
215.43197
215.50673
215.58819
215.67681
215.773
215.87718
218.30539
218.3096
218.31422
218.31932
218.32493
218.3311
218.33791
218.3454
218.35365
218.36275
218.37276
218.3838
218.39596
218.40937
218.42414
218.44043
218.45838
218.47818
218.50001
218.52408
218.55064
218.57994
218.61226
218.64792
218.68728
218.73071
218.77865
218.15571
218.16397
218.17292
218.18259
218.19304
218.20432
218.21647
218.22954
218.24359
218.25867
218.27485
218.29217
218.31072
218.33057
218.35179
218.37447
218.39874
218.42469
218.45249
218.48229
218.51429
218.54872
218.58583
218.62593
218.66937
218.71654
218.76789
217.95429
217.96325
217.97308
217.98387
217.99568
218.00861
218.02276
218.03821
218.05507
218.07344
218.09342
218.11512
218.13865
218.16411
218.19159
218.22121
218.25305
218.28722
218.3238
218.3629
218.40463
218.44911
218.49648
218.54692
218.60065
218.65793
218.71909
217.70742
217.71683
217.72716
217.73852
217.75099
217.76469
217.77973
217.79624
217.81436
217.83422
217.85599
217.87982
217.90589
217.93438
217.96547
217.99936
218.03622
218.07625
218.11962
218.16652
218.21709
218.27149
218.32985
218.39233
218.45904
218.53013
218.60577
217.41311
217.42305
217.43397
217.44598
217.45918
217.47368
217.48961
217.50712
217.52634
217.54746
217.57064
217.59608
217.62399
217.65459
217.68814
217.72487
217.76508
217.80904
217.85704
217.90938
217.96636
218.02827
218.0954
218.16801
218.24633
218.33059
218.42097
217.06837
217.07898
217.09065
217.10347
217.11756
217.13305
217.15008
217.16878
217.18934
217.21191
217.23671
217.26394
217.29383
217.32664
217.36265
217.40214
217.44544
217.4929
217.54488
217.60177
217.66399
217.73195
217.8061
217.88688
217.97471
218.07003
218.1732
220.56341
220.56749
220.57198
220.57692
220.58237
220.58836
220.59497
220.60224
220.61025
220.61908
220.6288
220.63951
220.65132
220.66433
220.67867
220.69448
220.7119
220.73112
220.7523
220.77567
220.80144
220.82987
220.86124
220.89585
220.93404
220.97618
221.0227
220.41162
220.41982
220.4287
220.4383
220.44866
220.45983
220.47186
220.4848
220.4987
220.51361
220.52958
220.54668
220.56497
220.58452
220.6054
220.6277
220.65153
220.67699
220.70422
220.73339
220.76468
220.7983
220.83451
220.8736
220.91591
220.96182
221.01176
220.20768
220.21659
220.22636
220.23707
220.24881
220.26166
220.2757
220.29104
220.30778
220.32601
220.34584
220.36736
220.39068
220.41591
220.44313
220.47245
220.50394
220.53771
220.57384
220.61242
220.65356
220.69735
220.74393
220.79348
220.84618
220.9023
220.96214
219.95798
219.96732
219.97759
219.98887
220.00125
220.01486
220.0298
220.0462
220.06418
220.0839
220.10551
220.12917
220.15504
220.18331
220.21416
220.24776
220.28431
220.32399
220.36696
220.41339
220.46343
220.51723
220.57491
220.63659
220.70239
220.77243
220.84687
219.66042
219.67029
219.68114
219.69306
219.70616
219.72056
219.73638
219.75375
219.77284
219.7938
219.8168
219.84205
219.86975
219.90012
219.9334
219.96985
220.00973
220.05332
220.10091
220.15279
220.20926
220.27058
220.33705
220.4089
220.48637
220.56964
220.6589
219.31198
219.32251
219.33409
219.34681
219.3608
219.37617
219.39307
219.41163
219.43202
219.45443
219.47903
219.50604
219.5357
219.56825
219.60396
219.64313
219.68608
219.73314
219.78467
219.84107
219.90273
219.97008
220.04354
220.12354
220.21049
220.30481
220.40686
222.75533
222.75928
222.76363
222.76842
222.77369
222.7795
222.78589
222.79293
222.80069
222.80924
222.81866
222.82903
222.84046
222.85306
222.86695
222.88225
222.89913
222.91773
222.93824
222.96087
222.98582
223.01335
223.04372
223.07722
223.11419
223.15499
223.20001
222.60147
222.60961
222.61841
222.62793
222.63819
222.64925
222.66116
222.67395
222.68769
222.70241
222.71817
222.73502
222.75303
222.77226
222.79278
222.81467
222.83804
222.86297
222.88962
222.91812
222.94865
222.98143
223.01669
223.05473
223.09585
223.14044
223.18891
222.39505
222.40389
222.41359
222.42423
222.43588
222.44863
222.46257
222.47779
222.49439
222.51247
222.53212
222.55345
222.57656
222.60153
222.62847
222.65746
222.68859
222.72193
222.75757
222.7956
222.83609
222.87916
222.92491
222.9735
223.02512
223.08001
223.13846
222.14255
222.15182
222.162
222.1732
222.18549
222.199
222.21382
222.23009
222.24794
222.2675
222.28894
222.3124
222.33806
222.36609
222.39667
222.42998
222.46619
222.50547
222.54801
222.59394
222.64342
222.69657
222.75351
222.81435
222.87917
222.9481
223.02126
221.84183
221.85162
221.86238
221.87421
221.8872
221.90149
221.91718
221.93442
221.95335
221.97413
221.99695
222.02199
222.04945
222.07956
222.11256
222.14869
222.18821
222.2314
222.27855
222.32993
222.38584
222.44653
222.51228
222.58333
222.65987
222.74208
222.83014
221.48979
221.50023
221.51172
221.52434
221.53821
221.55345
221.5702
221.58861
221.60883
221.63104
221.65543
221.68221
221.71161
221.74387
221.77927
221.81808
221.86064
221.90726
221.95831
222.01417
222.07524
222.14191
222.21462
222.29378
222.37978
222.47303
222.57387
224.87809
224.88191
224.88611
224.89074
224.89583
224.90144
224.90762
224.91443
224.92192
224.93018
224.93928
224.9493
224.96034
224.97251
224.98593
225.00071
225.01701
225.03498
225.0548
225.07665
225.10076
225.12735
225.15668
225.18904
225.22474
225.26414
225.30763
224.72225
224.73031
224.73903
224.74845
224.75861
224.76955
224.78132
224.79396
224.80751
224.82203
224.83756
224.85416
224.87187
224.89077
224.91091
224.93237
224.95524
224.97963
225.00565
225.03345
225.0632
225.0951
225.12938
225.16631
225.2062
225.24942
225.29636
224.51346
224.52223
224.53185
224.5424
224.55395
224.56659
224.58041
224.5955
224.61195
224.62986
224.64932
224.67044
224.69331
224.71801
224.74464
224.77327
224.804
224.83689
224.87201
224.90944
224.94926
224.99155
225.03643
225.08402
225.13451
225.18811
225.24511
224.25827
224.26746
224.27756
224.28866
224.30086
224.31425
224.32894
224.34507
224.36276
224.38216
224.4034
224.42665
224.45208
224.47984
224.51013
224.5431
224.57893
224.6178
224.65986
224.70526
224.75413
224.80659
224.86274
224.92267
224.98646
225.05421
225.12603
223.95448
223.96419
223.97485
223.98658
223.99946
224.01362
224.02917
224.04626
224.06502
224.08562
224.10823
224.13303
224.16024
224.19007
224.22275
224.25853
224.29767
224.34043
224.38709
224.43794
224.49323
224.55325
224.61823
224.6884
224.76395
224.84504
224.93181
223.59895
223.6093
223.62067
223.63318
223.64692
223.66203
223.67862
223.69686
223.71689
223.73889
223.76305
223.78958
223.8187
223.85065
223.8857
223.92413
223.96626
224.01242
224.06295
224.11822
224.17864
224.24459
224.31649
224.39474
224.47973
224.57183
224.67137
226.92899
226.93267
226.93672
226.94118
226.9461
226.9515
226.95746
226.96402
226.97125
226.97921
226.98798
226.99764
227.00828
227.02002
227.03295
227.0472
227.06291
227.08024
227.09934
227.1204
227.14363
227.16926
227.19753
227.22872
227.26313
227.3011
227.343
226.77121
226.7792
226.78783
226.79715
226.8072
226.81801
226.82964
226.84211
226.85548
226.86979
226.88508
226.9014
226.91881
226.93735
226.9571
226.97811
227.00048
227.0243
227.04968
227.07676
227.1057
227.1367
227.16996
227.20576
227.24439
227.2862
227.33157
226.56008
226.56878
226.57832
226.58878
226.60023
226.61276
226.62645
226.64139
226.65769
226.67542
226.69468
226.71558
226.73819
226.76261
226.78891
226.81718
226.84749
226.8799
226.91448
226.9513
226.99041
227.03191
227.07587
227.12244
227.17175
227.22403
227.27954
226.30226
226.31138
226.32139
226.33239
226.34448
226.35775
226.37231
226.38829
226.40582
226.42503
226.44608
226.4691
226.49428
226.52177
226.55174
226.58436
226.61981
226.65824
226.6998
226.74464
226.79287
226.84461
226.89993
226.95892
227.02165
227.08818
227.1586
225.99552
226.00514
226.01571
226.02732
226.04008
226.05411
226.06951
226.08643
226.10502
226.12542
226.14781
226.17237
226.19931
226.22884
226.26119
226.29661
226.33533
226.37764
226.4238
226.47407
226.52873
226.58803
226.6522
226.72146
226.79598
226.8759
226.96134
225.63663
225.64688
225.65814
225.67052
225.68413
225.69909
225.71552
225.73357
225.75341
225.77519
225.79911
225.82536
225.85418
225.8858
225.92049
225.95852
226.0002
226.04586
226.09584
226.15051
226.21024
226.27544
226.34649
226.42379
226.50771
226.59861
226.6968
228.90622
228.90976
228.91366
228.91795
228.92267
228.92788
228.9336
228.93991
228.94686
228.95452
228.96295
228.97225
228.98249
228.99377
229.00621
229.01991
229.03503
229.05169
229.07006
229.09031
229.11265
229.1373
229.16448
229.19447
229.22756
229.26407
229.30435
228.74658
228.75449
228.76303
228.77224
228.78217
228.79285
228.80432
228.81662
228.8298
228.84388
228.85893
228.87497
228.89205
228.91023
228.92957
228.95012
228.97197
228.9952
229.01992
229.04626
229.07437
229.10444
229.13666
229.1713
229.20863
229.249
229.29277
228.53325
228.54187
228.55132
228.56168
228.57302
228.58542
228.59898
228.61377
228.62989
228.64744
228.66649
228.68714
228.70948
228.7336
228.75956
228.78744
228.81731
228.84922
228.88324
228.91941
228.9578
228.99846
229.04149
229.08698
229.13509
229.18601
229.23998
228.27294
228.28196
228.29188
228.30277
228.31474
228.32788
228.3423
228.35813
228.37548
228.3945
228.41532
228.43811
228.46302
228.49021
228.51985
228.55211
228.58714
228.6251
228.66614
228.71038
228.75795
228.80892
228.86338
228.9214
228.983
229.04826
229.11724
227.96334
227.97286
227.98332
227.99482
228.00746
228.02134
228.03659
228.05333
228.07173
228.09192
228.11407
228.13838
228.16504
228.19425
228.22625
228.26127
228.29957
228.34139
228.38701
228.43669
228.49067
228.54922
228.61254
228.68084
228.75428
228.83298
228.91702
227.60119
227.61133
227.62248
227.63473
227.6482
227.663
227.67926
227.69712
227.71674
227.73829
227.76195
227.78792
227.81643
227.8477
227.882
227.91961
227.96082
228.00596
228.05536
228.10938
228.1684
228.23279
228.30295
228.37925
228.46206
228.55171
228.64848
230.80806
230.81146
230.8152
230.81932
230.82385
230.82885
230.83435
230.8404
230.84707
230.85442
230.86252
230.87144
230.88126
230.89209
230.90403
230.91719
230.93169
230.94768
230.96531
230.98475
231.00619
231.02983
231.05592
231.0847
231.11645
231.15148
231.19013
230.64663
230.65445
230.6629
230.672
230.6818
230.69234
230.70366
230.71578
230.72875
230.74261
230.7574
230.77315
230.7899
230.80771
230.82663
230.84671
230.86803
230.89066
230.91472
230.9403
230.96757
230.99669
231.02786
231.06132
231.09734
231.13625
231.17839
230.43114
230.43968
230.44903
230.45929
230.47051
230.48279
230.4962
230.51084
230.52679
230.54414
230.56297
230.58338
230.60544
230.62924
230.65485
230.68234
230.71175
230.74316
230.77659
230.81211
230.84975
230.88956
230.93163
230.97604
231.02292
231.07246
231.12486
230.16839
230.17733
230.18714
230.19793
230.20978
230.22278
230.23706
230.25272
230.26989
230.2887
230.30931
230.33185
230.35648
230.38337
230.41267
230.44454
230.47915
230.51663
230.55713
230.60077
230.64764
230.69784
230.75142
230.80843
230.8689
230.93286
231.00037
229.85606
229.86548
229.87583
229.88721
229.89971
229.91344
229.92853
229.9451
229.96329
229.98326
230.00518
230.02922
230.05558
230.08447
230.11611
230.15073
230.18858
230.22991
230.27497
230.32403
230.37732
230.43509
230.49755
230.56486
230.63719
230.71463
230.79725
229.4908
229.50083
229.51185
229.52397
229.53729
229.55193
229.56801
229.58567
229.60507
229.62638
229.64977
229.67545
229.70363
229.73455
229.76845
229.80562
229.84634
229.89094
229.93974
229.99309
230.05137
230.11494
230.18418
230.25946
230.34112
230.42948
230.5248
232.6336
232.63685
232.64043
232.64437
232.64872
232.6535
232.65877
232.66457
232.67095
232.67799
232.68574
232.69429
232.7037
232.71407
232.7255
232.7381
232.75198
232.76729
232.78418
232.80279
232.82332
232.84596
232.87094
232.89849
232.92888
232.96242
232.99942
232.47046
232.47819
232.48653
232.49552
232.5052
232.51559
232.52674
232.53868
232.55145
232.56507
232.57959
232.59504
232.61146
232.62889
232.64738
232.66698
232.68776
232.70979
232.73315
232.75798
232.78439
232.81255
232.84265
232.87492
232.90962
232.94704
232.98755
232.25294
232.26139
232.27065
232.28079
232.2919
232.30404
232.31731
232.33178
232.34754
232.36468
232.38329
232.40344
232.42521
232.44869
232.47393
232.501
232.52995
232.56083
232.59367
232.62851
232.66538
232.70433
232.74542
232.78872
232.83436
232.88248
232.9333
231.98789
231.99674
232.00645
232.01712
232.02884
232.0417
232.05582
232.07131
232.08829
232.1069
232.12727
232.14955
232.1739
232.20046
232.2294
232.26088
232.29504
232.33202
232.37196
232.41497
232.46113
232.51052
232.5632
232.61917
232.67847
232.74112
232.80712
231.67294
231.68225
231.69249
231.70374
231.71611
231.72969
231.7446
231.76099
231.77898
231.79872
231.82038
231.84415
231.8702
231.89875
231.93001
231.96421
232.00159
232.04241
232.0869
232.13531
232.18789
232.24486
232.30641
232.37271
232.4439
232.52005
232.60121
231.30468
231.31459
231.32549
231.33747
231.35064
231.36511
231.381
231.39846
231.41763
231.43869
231.46181
231.48718
231.51502
231.54556
231.57906
231.61577
231.65599
231.70002
231.7482
231.80087
231.85838
231.9211
231.9894
232.06362
232.14409
232.23112
232.32496
234.38192
234.38503
234.38846
234.39223
234.39638
234.40095
234.40598
234.41152
234.41763
234.42436
234.43176
234.43993
234.44892
234.45883
234.46976
234.4818
234.49507
234.5097
234.52583
234.54362
234.56324
234.58487
234.60874
234.63506
234.6641
234.69614
234.73149
234.21715
234.22479
234.23303
234.2419
234.25145
234.26169
234.27268
234.28443
234.29698
234.31037
234.32462
234.33977
234.35585
234.3729
234.39096
234.41007
234.4303
234.45172
234.4744
234.49846
234.52401
234.55121
234.58024
234.61131
234.64467
234.68062
234.71948
233.99766
234.00601
234.01517
234.02521
234.03619
234.0482
234.06131
234.07562
234.09119
234.10813
234.1265
234.14638
234.16787
234.19101
234.21589
234.24254
234.27102
234.30136
234.3336
234.36775
234.40385
234.44193
234.48203
234.52422
234.5686
234.61531
234.66455
233.73038
233.73912
233.74873
233.75928
233.77087
233.78359
233.79755
233.81287
233.82966
233.84805
233.86818
233.8902
233.91426
233.9405
233.96908
234.00015
234.03386
234.07034
234.10971
234.15208
234.19753
234.24611
234.29786
234.3528
234.41092
234.47223
234.53672
233.41291
233.42212
233.43224
233.44336
233.45558
233.46901
233.48376
233.49995
233.51773
233.53724
233.55865
233.58213
233.60787
233.63607
233.66695
233.70073
233.73764
233.77793
233.82183
233.8696
233.92145
233.9776
234.03824
234.10352
234.17355
234.2484
234.32808
233.0418
233.0516
233.06237
233.07421
233.08722
233.10151
233.11721
233.13446
233.15341
233.17421
233.19704
233.2221
233.2496
233.27977
233.31284
233.34908
233.38879
233.43226
233.47981
233.53178
233.58851
233.65037
233.7177
233.79085
233.87012
233.95581
234.04814
236.05294
236.05591
236.05917
236.06277
236.06673
236.07109
236.07589
236.08117
236.08699
236.09341
236.10047
236.10826
236.11683
236.12629
236.1367
236.14818
236.16084
236.17479
236.19017
236.20713
236.22583
236.24646
236.26921
236.29431
236.322
236.35254
236.38624
235.88663
235.89417
235.9023