/*--------------------------------*- C++ -*----------------------------------*\
| =========                 |                                                 |
| \\      /  F ield         | OpenFOAM: The Open Source CFD Toolbox           |
|  \\    /   O peration     | Version:  3.0.1                                 |
|   \\  /    A nd           | Web:      www.OpenFOAM.org                      |
|    \\/     M anipulation  |                                                 |
\*---------------------------------------------------------------------------*/
FoamFile
{
    version     2.0;
    format      ascii;
    class       volScalarField;
    location    "6000/fluid";
    object      ILambda_2_0;
}
// * * * * * * * * * * * * * * * * * * * * * * * * * * * * * * * * * * * * * //

dimensions      [1 0 -3 0 0 0 0];

internalField   nonuniform List<scalar> 
162000
(
188.29645
188.31234
188.33002
188.3497
188.37162
188.39607
188.42337
188.45392
188.48812
188.5265
188.56962
188.61817
188.67293
188.73483
188.80495
188.88458
188.97521
189.07863
189.19696
189.33271
189.48887
189.669
189.87733
190.11889
190.39967
190.72671
191.1083
187.75499
187.76324
187.77243
187.78266
187.79407
187.80683
187.8211
187.8371
187.85506
187.87526
187.89803
187.92375
187.95288
187.98595
188.02359
188.06657
188.1158
188.17238
188.23763
188.31317
188.40097
188.50345
188.6236
188.7651
188.93255
189.13168
189.36968
187.42029
187.42374
187.42759
187.43187
187.43666
187.44201
187.44801
187.45473
187.46229
187.47079
187.48039
187.49124
187.50355
187.51753
187.53346
187.55168
187.57257
187.59662
187.62441
187.65667
187.69427
187.73835
187.79029
187.85188
187.92538
188.01373
188.12072
187.26331
187.26464
187.26613
187.26779
187.26964
187.2717
187.27402
187.27661
187.27951
187.28277
187.28643
187.29054
187.29517
187.30038
187.30627
187.31293
187.32047
187.32904
187.33882
187.34999
187.36284
187.37767
187.39489
187.41502
187.43872
187.46687
187.50061
187.20858
187.20938
187.21028
187.21128
187.21239
187.21363
187.215
187.21653
187.21822
187.22009
187.22216
187.22446
187.22699
187.2298
187.23289
187.23632
187.2401
187.24428
187.24891
187.25404
187.25973
187.26606
187.2731
187.28096
187.28975
187.29964
187.31078
187.19285
187.19367
187.19457
187.19555
187.19664
187.19782
187.19913
187.20056
187.20214
187.20386
187.20576
187.20784
187.21012
187.21263
187.21539
187.21841
187.22174
187.22539
187.22942
187.23385
187.23874
187.24414
187.25012
187.25676
187.26415
187.27241
187.2817
183.62991
183.65397
183.68081
183.71077
183.74428
183.78179
183.82386
183.87112
183.9243
183.98424
184.05196
184.1286
184.21556
184.31443
184.42713
184.55593
184.70349
184.87303
185.06834
185.29398
185.55536
185.859
186.21263
186.62551
187.10862
187.67496
188.33976
182.50374
182.51218
182.52167
182.53237
182.54445
182.55813
182.57365
182.59131
182.61143
182.63444
182.66082
182.69116
182.72616
182.76666
182.81369
182.86849
182.93259
183.00783
183.0965
183.20141
183.32603
183.47467
183.65271
183.86685
184.12551
184.43924
184.82137
181.78712
181.78495
181.78264
181.78021
181.77767
181.77503
181.77231
181.76956
181.76683
181.76419
181.76173
181.75958
181.75791
181.75694
181.75694
181.75829
181.76147
181.7671
181.77597
181.78912
181.80791
181.83407
181.86988
181.91829
181.98315
182.06955
182.18414
181.44077
181.43285
181.42414
181.41457
181.40406
181.39252
181.37985
181.36595
181.3507
181.33399
181.31568
181.29564
181.27373
181.24979
181.22368
181.19526
181.16437
181.1309
181.09475
181.05586
181.01424
180.97001
180.92339
180.8748
180.82494
180.77481
180.72587
181.33273
181.32219
181.31057
181.29775
181.28361
181.268
181.25077
181.23174
181.21073
181.18751
181.16184
181.13347
181.10209
181.06738
181.02897
180.98645
180.93938
180.88726
180.82956
180.76567
180.69497
180.61679
180.53045
180.43527
180.33066
180.21616
180.09164
181.33073
181.31931
181.30668
181.29274
181.27732
181.26028
181.24142
181.22054
181.19741
181.17178
181.14334
181.11178
181.07671
181.03771
180.9943
180.94591
180.89191
180.83158
180.76405
180.68836
180.60336
180.50771
180.39987
180.27797
180.13984
179.98288
179.80395
179.75298
179.79091
179.83314
179.88021
179.93275
179.99146
180.05715
180.13076
180.21337
180.30625
180.41085
180.52888
180.66233
180.81353
180.98521
181.18061
181.40353
181.65847
181.95076
182.28671
182.67381
183.12093
183.63858
184.23916
184.93724
185.74985
186.69664
178.18445
178.20089
178.21928
178.23989
178.26301
178.28899
178.31825
178.35127
178.3886
178.4309
178.47896
178.5337
178.59621
178.6678
178.75005
178.84483
178.95443
179.0816
179.2297
179.40281
179.60595
179.84526
180.12833
180.46454
180.86549
181.34563
181.92289
177.19314
177.19523
177.19767
177.20052
177.20386
177.20778
177.21241
177.21787
177.22435
177.23204
177.24121
177.25216
177.26529
177.28106
177.30006
177.32301
177.35083
177.38465
177.42587
177.47627
177.53809
177.61416
177.70807
177.82441
177.96906
178.14956
178.37572
176.71936
176.71402
176.70818
176.70182
176.69488
176.68733
176.67912
176.67021
176.66056
176.65014
176.6389
176.62684
176.61393
176.60019
176.58564
176.57036
176.55445
176.5381
176.52155
176.5052
176.48954
176.47531
176.46348
176.45537
176.45276
176.45803
176.47435
176.57025
176.56187
176.55266
176.54252
176.53138
176.51913
176.50566
176.49085
176.47458
176.45671
176.43707
176.41552
176.39186
176.36592
176.3375
176.30637
176.27233
176.23514
176.19461
176.15051
176.10267
176.05096
175.99533
175.93583
175.87271
175.80647
175.738
176.55835
176.54905
176.5388
176.5275
176.51506
176.50134
176.48623
176.46956
176.45119
176.43093
176.40858
176.38393
176.35673
176.32672
176.2936
176.25703
176.21667
176.1721
176.12289
176.06856
176.00856
175.94233
175.86924
175.78862
175.69976
175.60194
175.4944
178.44219
178.49101
178.5453
178.60571
178.67303
178.74811
178.83195
178.92571
179.0307
179.14844
179.2807
179.42953
179.59729
179.78678
180.00122
180.24442
180.52085
180.83574
181.19527
181.60673
182.0787
182.62128
183.24638
183.9679
184.80212
185.76782
186.88652
176.64178
176.66597
176.69293
176.72301
176.75661
176.79421
176.83634
176.88363
176.93679
176.99669
177.0643
177.14079
177.22753
177.32615
177.43858
177.56711
177.71451
177.88407
178.07981
178.30654
178.57016
178.87782
179.23829
179.66233
180.16316
180.75708
181.46418
175.51307
175.52109
175.53008
175.54015
175.55147
175.56421
175.57858
175.59481
175.6132
175.63408
175.65786
175.68499
175.71607
175.75176
175.79289
175.84047
175.89569
175.96006
176.03539
176.12393
176.22847
176.35249
176.50035
176.67754
176.891
177.14957
177.46457
174.98027
174.98032
174.98044
174.98063
174.98092
174.98134
174.98192
174.98271
174.98376
174.98514
174.98694
174.98927
174.99225
174.99607
175.00092
175.00708
175.01489
175.02476
175.03724
175.053
175.07291
175.09808
175.12992
175.17027
175.22148
175.28661
175.36966
174.81071
174.80793
174.80489
174.80156
174.79792
174.79395
174.78962
174.7849
174.77976
174.77417
174.76811
174.76155
174.75447
174.74684
174.73865
174.7299
174.7206
174.71077
174.70047
174.6898
174.67889
174.66794
174.65724
174.64722
174.63842
174.63164
174.62793
174.78628
174.78282
174.77903
174.77486
174.77028
174.76526
174.75974
174.75369
174.74705
174.73978
174.73181
174.72308
174.71352
174.70307
174.69165
174.67919
174.66561
174.65082
174.63476
174.61733
174.59848
174.57816
174.55632
174.53295
174.5081
174.48184
174.45434
178.91547
178.97048
179.0316
179.09957
179.17523
179.25954
179.35361
179.45868
179.5762
179.70784
179.85551
180.02144
180.20821
180.41881
180.65675
180.92612
181.23169
181.57909
181.9749
182.42688
182.94414
183.53736
184.21908
185.00393
185.90894
186.9537
188.16052
177.00283
177.03164
177.0637
177.09941
177.13923
177.1837
177.23343
177.28911
177.35157
177.42174
177.50075
177.58986
177.69061
177.80477
177.93447
178.08222
178.251
178.44441
178.66676
178.92325
179.22016
179.56516
179.96755
180.43874
180.99268
181.64653
182.42133
175.80912
175.8209
175.83402
175.84865
175.86499
175.88327
175.90373
175.92669
175.95249
175.98154
176.01432
176.0514
176.09344
176.14125
176.19576
176.25812
176.3297
176.41216
176.50753
176.61828
176.74748
176.8989
177.07725
177.28843
177.53988
177.84101
178.2038
175.24943
175.25305
175.25708
175.26158
175.26662
175.27225
175.27857
175.28567
175.29366
175.30266
175.31285
175.32439
175.33749
175.35243
175.3695
175.38908
175.41161
175.43764
175.46784
175.50304
175.54426
175.59277
175.6502
175.71856
175.80045
175.89922
176.01918
175.07004
175.07101
175.0721
175.07332
175.07469
175.07622
175.07794
175.07987
175.08206
175.08452
175.08732
175.09049
175.0941
175.09822
175.10294
175.10836
175.11459
175.12181
175.13017
175.13991
175.1513
175.16468
175.18045
175.19913
175.22139
175.24802
175.28006
175.03771
175.0382
175.03875
175.03936
175.04005
175.04083
175.04171
175.04269
175.04381
175.04508
175.04652
175.04815
175.05002
175.05216
175.05461
175.05744
175.06069
175.06446
175.06882
175.0739
175.07983
175.08677
175.09491
175.10449
175.1158
175.12918
175.14507
180.24213
180.30034
180.36499
180.43687
180.51685
180.60595
180.70531
180.81624
180.94026
181.0791
181.23477
181.40957
181.60621
181.82779
182.07794
182.36092
182.68169
183.04605
183.46082
183.93402
184.47502
185.09487
185.80645
186.62481
187.56742
188.65436
189.90846
178.26729
178.29842
178.33304
178.37159
178.41454
178.46246
178.516
178.5759
178.64303
178.71837
178.8031
178.89856
179.00635
179.12834
179.26673
179.42414
179.6037
179.80914
180.04492
180.31644
180.6302
180.99412
181.41781
181.91302
182.49411
183.17871
183.98842
177.03726
177.05087
177.066
177.08284
177.10162
177.12258
177.146
177.17221
177.20159
177.2346
177.27173
177.31362
177.36096
177.4146
177.47557
177.54505
177.6245
177.71566
177.82066
177.94208
178.08311
178.24769
178.44069
178.66822
178.93795
179.2596
179.6455
176.46225
176.46756
176.47345
176.48
176.48728
176.49538
176.5044
176.51447
176.52572
176.53831
176.55242
176.56827
176.58611
176.60623
176.62898
176.65477
176.68411
176.71759
176.75593
176.80003
176.85097
176.9101
176.97911
177.06012
177.15581
177.26966
177.40613
176.27735
176.28009
176.28312
176.28647
176.29018
176.29429
176.29883
176.30387
176.30946
176.31567
176.32256
176.33023
176.33876
176.34828
176.3589
176.37077
176.38406
176.39896
176.41571
176.43457
176.45587
176.47997
176.50733
176.5385
176.57414
176.61505
176.66225
176.24111
176.24346
176.24604
176.2489
176.25206
176.25555
176.25941
176.26368
176.2684
176.27363
176.27942
176.28583
176.29295
176.30085
176.30963
176.31939
176.33026
176.34236
176.35585
176.37092
176.38776
176.40661
176.42774
176.45145
176.47811
176.50812
176.54196
181.90995
181.96997
182.03664
182.11075
182.1932
182.28504
182.38743
182.50174
182.62951
182.77252
182.93283
183.11281
183.31521
183.54324
183.80061
184.09167
184.4215
184.79603
185.22226
185.70836
186.26393
186.90023
187.63043
188.4699
189.43645
190.55056
191.83552
179.89115
179.92349
179.95944
179.99945
180.04403
180.09376
180.14929
180.21141
180.28099
180.35907
180.44682
180.54566
180.65721
180.7834
180.92648
181.08915
181.2746
181.48665
181.72988
182.0098
182.33308
182.70779
183.14376
183.65299
184.25013
184.95317
185.78415
178.63489
178.64933
178.66538
178.68324
178.70313
178.72532
178.7501
178.77781
178.80886
178.84369
178.88285
178.92697
178.97678
179.03317
179.09718
179.17003
179.25323
179.34856
179.45821
179.58483
179.73168
179.90278
180.10314
180.33898
180.61815
180.95055
181.34879
178.04835
178.05435
178.06102
178.06841
178.07661
178.08573
178.09588
178.10718
178.11978
178.13385
178.14959
178.16723
178.18702
178.20929
178.23439
178.26277
178.29494
178.33153
178.37328
178.4211
178.47613
178.53974
178.61367
178.70007
178.80172
178.92212
179.06586
177.85953
177.86297
177.86678
177.87098
177.87562
177.88074
177.88641
177.89268
177.89962
177.9073
177.91582
177.92526
177.93573
177.94737
177.96031
177.97471
177.99075
178.00866
178.02867
178.05107
178.0762
178.10445
178.13628
178.17225
178.21302
178.25941
178.31241
177.82144
177.82452
177.82791
177.83166
177.83579
177.84035
177.84539
177.85094
177.85708
177.86386
177.87136
177.87965
177.88881
177.89896
177.91019
177.92264
177.93644
177.95175
177.96875
177.98763
178.00862
178.03198
178.058
178.08701
178.11938
178.15554
178.19597
183.69906
183.76034
183.8284
183.90406
183.98823
184.08197
184.18649
184.30316
184.43356
184.57951
184.7431
184.92676
185.13328
185.36593
185.6285
185.92541
186.26183
186.64383
187.0785
187.57418
188.14065
188.78936
189.53372
190.38938
191.37445
192.50979
193.81909
181.64313
181.67621
181.71298
181.7539
181.79949
181.85034
181.90712
181.97063
182.04176
182.12156
182.21125
182.31226
182.42623
182.55514
182.70129
182.86741
183.05677
183.27326
183.52153
183.8072
184.13705
184.51931
184.96397
185.48324
186.09204
186.80865
187.65552
180.36436
180.37922
180.39573
180.41411
180.43457
180.45738
180.48286
180.51134
180.54324
180.57903
180.61925
180.66455
180.71568
180.77353
180.83918
180.91387
180.99914
181.0968
181.20908
181.33868
181.48893
181.6639
181.86869
182.10965
182.39475
182.73406
183.14039
179.76765
179.77394
179.78092
179.78865
179.79723
179.80677
179.81737
179.82917
179.84233
179.85701
179.87342
179.8918
179.91241
179.93557
179.96167
179.99114
180.02452
180.06244
180.10566
180.15512
180.21197
180.2776
180.35378
180.44271
180.54719
180.67081
180.8182
179.57554
179.57924
179.58333
179.58784
179.59282
179.59832
179.60439
179.61111
179.61854
179.62676
179.63586
179.64595
179.65713
179.66954
179.68332
179.69863
179.71568
179.73468
179.75588
179.77957
179.8061
179.83586
179.86933
179.90706
179.94973
179.99816
180.05334
179.53646
179.53981
179.54349
179.54755
179.55203
179.55698
179.56243
179.56845
179.57509
179.58242
179.59052
179.59947
179.60936
179.6203
179.6324
179.6458
179.66063
179.67706
179.69528
179.7155
179.73793
179.76286
179.79057
179.82139
179.85572
179.89397
179.93664
185.52109
185.5834
185.65259
185.72951
185.81508
185.91038
186.01664
186.13525
186.26782
186.4162
186.58251
186.76921
186.97916
187.21566
187.48257
187.78439
188.12638
188.51468
188.95652
189.46037
190.03616
190.69554
191.45214
192.32184
193.32307
194.47702
195.80776
183.43105
183.46468
183.50206
183.54367
183.59001
183.6417
183.69943
183.76399
183.8363
183.91742
184.00859
184.11126
184.22711
184.35813
184.50668
184.67553
184.86798
185.088
185.34031
185.63063
185.96583
186.35427
186.80612
187.33376
187.95235
188.68047
189.54091
182.13143
182.14654
182.16334
182.18202
182.20283
182.22603
182.25194
182.2809
182.31334
182.34972
182.39062
182.43667
182.48865
182.54746
182.61419
182.69011
182.77677
182.87602
182.99012
183.12181
183.27447
183.45224
183.66029
183.90506
184.19466
184.5393
184.95198
181.52518
181.53159
181.53869
181.54657
181.55531
181.56502
181.57582
181.58783
181.60123
181.61617
181.63288
181.65158
181.67255
181.69612
181.72267
181.75265
181.78659
181.82514
181.86908
181.91936
181.97712
182.0438
182.12118
182.2115
182.31759
182.44309
182.59271
181.33005
181.33383
181.33801
181.34261
181.3477
181.35331
181.35951
181.36637
181.37395
181.38234
181.39162
181.40191
181.41331
181.42595
181.43999
181.4556
181.47296
181.4923
181.51387
181.53798
181.56495
181.5952
181.62919
181.66751
181.71081
181.75993
181.81588
181.29033
181.29375
181.29752
181.30167
181.30625
181.31131
181.31688
181.32303
181.32981
181.3373
181.34557
181.35471
181.3648
181.37597
181.38831
181.40196
181.41708
181.43382
181.45238
181.47294
181.49577
181.5211
181.54925
181.58054
181.61536
181.65412
181.69732
187.33547
187.39868
187.46888
187.54691
187.63373
187.73042
187.83822
187.95856
188.09306
188.2436
188.41234
188.60177
188.81478
189.05474
189.32556
189.6318
189.9788
190.3728
190.82113
191.33239
191.91666
192.58576
193.35353
194.23608
195.25214
196.4232
197.77371
185.21305
185.24714
185.28504
185.32721
185.37419
185.4266
185.48512
185.55056
185.62387
185.70611
185.79854
185.90263
186.02009
186.15293
186.30354
186.47474
186.66989
186.89298
187.14883
187.44322
187.78314
188.17707
188.63531
189.17043
189.79782
190.53632
191.40905
183.89356
183.90885
183.92584
183.94475
183.9658
183.98928
184.01549
184.0448
184.07762
184.11444
184.15582
184.20243
184.25504
184.31457
184.38211
184.45897
184.5467
184.64718
184.76271
184.89606
185.05065
185.23068
185.44141
185.68935
185.98271
186.33187
186.75001
183.27816
183.28461
183.29176
183.29969
183.30849
183.31827
183.32914
183.34124
183.35473
183.36978
183.38661
183.40544
183.42657
183.45032
183.47707
183.50727
183.54148
183.58035
183.62465
183.67534
183.7336
183.80087
183.87895
183.97011
184.07722
184.20396
184.35509
183.08016
183.08395
183.08812
183.09272
183.0978
183.10342
183.10962
183.11648
183.12406
183.13244
183.14172
183.15201
183.1634
183.17605
183.19009
183.20569
183.22305
183.24238
183.26395
183.28805
183.31502
183.34527
183.37928
183.41761
183.46094
183.51011
183.56614
183.03996
183.04337
183.04713
183.05128
183.05585
183.06088
183.06644
183.07257
183.07934
183.08681
183.09505
183.10416
183.11422
183.12534
183.13764
183.15125
183.16631
183.18298
183.20145
183.22193
183.24464
183.26984
183.29784
183.32895
183.36355
183.40207
183.44497
189.12206
189.1861
189.25723
189.33629
189.42426
189.52223
189.63146
189.75339
189.88968
190.04222
190.21321
190.40516
190.62103
190.8642
191.13865
191.449
191.80067
192.19998
192.65437
193.17255
193.76475
194.44296
195.2212
196.11582
197.14581
198.33297
199.7021
186.96856
187.00306
187.04141
187.08409
187.13164
187.18468
187.24391
187.31015
187.38435
187.46759
187.56116
187.66652
187.78543
187.91992
188.07241
188.24574
188.44333
188.66924
188.92832
189.22645
189.57071
189.96969
190.43383
190.97588
191.61143
192.35959
193.24379
185.62994
185.64536
185.66251
185.68159
185.70283
185.72652
185.75298
185.78256
185.81569
185.85286
185.89463
185.94169
185.99481
186.05493
186.12314
186.20077
186.2894
186.39093
186.50766
186.64243
186.79869
186.9807
187.19377
187.4445
187.74122
188.09442
188.51748
185.00569
185.01215
185.0193
185.02724
185.03605
185.04584
185.05673
185.06885
185.08236
185.09744
185.1143
185.13317
185.15435
185.17816
185.20498
185.23529
185.26961
185.30862
185.3531
185.40402
185.46256
185.53018
185.6087
185.70041
185.80822
185.93586
186.08813
184.80494
184.80868
184.81281
184.81736
184.82239
184.82795
184.83409
184.84087
184.84838
184.85668
184.86587
184.87605
184.88734
184.89986
184.91376
184.92922
184.94642
184.96558
184.98696
185.01085
185.0376
185.06761
185.10137
185.13943
185.18249
185.23139
185.28715
184.76434
184.7677
184.7714
184.77549
184.77999
184.78496
184.79043
184.79647
184.80314
184.8105
184.81862
184.82759
184.83751
184.84846
184.86058
184.87398
184.88881
184.90523
184.92341
184.94357
184.96593
184.99074
185.01829
185.0489
185.08294
185.12082
185.163
190.86808
190.93291
191.0049
191.08493
191.17397
191.27314
191.38371
191.50714
191.6451
191.79952
191.97262
192.16694
192.38548
192.63167
192.90953
193.22376
193.57982
193.98414
194.44424
194.96896
195.56864
196.25545
197.04359
197.94963
198.99281
200.19522
201.582
188.68464
188.71951
188.75828
188.80143
188.84949
188.90311
188.96299
189.02996
189.10497
189.18914
189.28374
189.39029
189.51053
189.64653
189.80075
189.97606
190.17591
190.40442
190.66651
190.96812
191.31642
191.72011
192.18977
192.73831
193.38152
194.13875
195.03374
187.32757
187.3431
187.36037
187.37959
187.40099
187.42485
187.45151
187.48131
187.51469
187.55215
187.59426
187.64169
187.69524
187.75586
187.82465
187.90294
187.99234
188.09477
188.21257
188.34858
188.50632
188.69008
188.90525
189.1585
189.45826
189.81515
190.2427
186.69475
186.70119
186.70833
186.71625
186.72504
186.7348
186.74567
186.75776
186.77125
186.78631
186.80314
186.822
186.84316
186.86695
186.89377
186.92408
186.95842
186.99746
187.042
187.09301
187.15168
187.21949
187.29827
187.39035
187.49864
187.62693
187.78006
186.49134
186.49502
186.49908
186.50356
186.5085
186.51396
186.52
186.52667
186.53405
186.54222
186.55126
186.56128
186.57238
186.5847
186.59839
186.61361
186.63054
186.64942
186.67049
186.69404
186.72043
186.75004
186.78337
186.82098
186.86356
186.91195
186.96721
186.4504
186.45369
186.45731
186.4613
186.46571
186.47056
186.47591
186.48182
186.48834
186.49553
186.50347
186.51224
186.52193
186.53264
186.54448
186.55758
186.57207
186.58812
186.60589
186.62559
186.64743
186.67166
186.69857
186.72847
186.76171
186.79869
186.83987
192.56645
192.63202
192.70483
192.78577
192.87582
192.97613
193.08796
193.21281
193.35236
193.50855
193.68364
193.88022
194.10128
194.35033
194.63143
194.94932
195.30956
195.71862
196.18415
196.71506
197.32186
198.01684
198.81439
199.7313
200.78702
202.00396
203.40755
190.35419
190.38941
190.42856
190.47213
190.52068
190.57483
190.63532
190.70296
190.77874
190.86377
190.95934
191.06698
191.18847
191.32589
191.48172
191.65888
191.86086
192.09181
192.35672
192.6616
193.01371
193.42184
193.89671
194.45138
195.10183
195.86766
196.77287
188.97932
188.99495
189.01232
189.03166
189.05319
189.07721
189.10403
189.13402
189.16763
189.20533
189.24772
189.29549
189.34942
189.41047
189.47976
189.55865
189.64874
189.75198
189.87073
190.00788
190.16695
190.35232
190.56941
190.82498
191.12755
191.48787
191.91961
188.33823
188.34464
188.35175
188.35963
188.36838
188.3781
188.38892
188.40097
188.4144
188.42941
188.44619
188.46499
188.48609
188.50983
188.53659
188.56685
188.60115
188.64016
188.68469
188.73571
188.79443
188.86233
188.94127
189.03358
189.14223
189.27102
189.42485
188.13226
188.13586
188.13983
188.14422
188.14906
188.15441
188.16032
188.16686
188.17409
188.18209
188.19095
188.20077
188.21165
188.22374
188.23716
188.25209
188.26871
188.28724
188.30793
188.33108
188.35702
188.38615
188.41896
188.45601
188.498
188.54578
188.60039
188.09102
188.09421
188.09774
188.10162
188.10591
188.11063
188.11584
188.12159
188.12793
188.13493
188.14265
188.15119
188.16061
188.17103
188.18255
188.19529
188.20939
188.22499
188.24228
188.26144
188.28268
188.30625
188.33241
188.36149
188.3938
188.42976
188.46979
194.21166
194.27792
194.35151
194.43331
194.52432
194.6257
194.73873
194.86491
195.00596
195.16384
195.34081
195.53951
195.76298
196.01473
196.2989
196.62026
196.98445
197.39802
197.86868
198.40548
199.01903
199.72177
200.52826
201.45548
202.52313
203.75386
205.17344
191.97169
192.00723
192.04674
192.09071
192.13971
192.19436
192.2554
192.32368
192.40016
192.48599
192.58247
192.69113
192.81379
192.95253
193.10988
193.28877
193.49273
193.72598
193.99354
194.3015
194.65719
195.06951
195.54929
196.10975
196.76705
197.54099
198.45589
190.5797
190.59541
190.61287
190.6323
190.65394
190.67809
190.70505
190.73521
190.769
190.80692
190.84956
190.89761
190.95187
191.01331
191.08305
191.16246
191.25317
191.35713
191.47674
191.61491
191.7752
191.96204
192.18089
192.43859
192.74375
193.10724
193.54288
189.93064
189.937
189.94406
189.95189
189.96059
189.97025
189.98101
189.99299
190.00635
190.02128
190.03798
190.05669
190.0777
190.10135
190.12802
190.15818
190.1924
190.23132
190.27578
190.32674
190.38543
190.45334
190.53234
190.62479
190.73367
190.86282
191.0172
189.72219
189.7257
189.72958
189.73386
189.73859
189.74381
189.74958
189.75596
189.76302
189.77084
189.77949
189.78908
189.79972
189.81153
189.82465
189.83925
189.85551
189.87365
189.89391
189.91659
189.94202
189.9706
190.0028
190.03922
190.08052
190.12758
190.18144
189.68068
189.68378
189.6872
189.69096
189.69511
189.69969
189.70473
189.7103
189.71645
189.72323
189.73071
189.73898
189.74811
189.75821
189.76936
189.78171
189.79536
189.81048
189.82722
189.84578
189.86635
189.88917
189.91451
189.94266
189.97396
190.00877
190.04752
195.80117
195.86808
195.9424
196.02502
196.11694
196.21933
196.3335
196.46095
196.60341
196.76288
196.94165
197.14236
197.3681
197.62242
197.90949
198.23415
198.60209
199.01993
199.49548
200.03786
200.65782
201.36793
202.18291
203.11993
204.19892
205.44278
206.87755
193.53465
193.57048
193.61033
193.65467
193.70409
193.75921
193.82077
193.88964
193.96679
194.05337
194.1507
194.26033
194.38407
194.52407
194.68283
194.86336
195.0692
195.3046
195.57467
195.88553
196.2446
196.66088
197.14531
197.71125
198.37503
199.15667
200.08075
192.12624
192.14201
192.15955
192.17907
192.20081
192.22506
192.25215
192.28246
192.31641
192.35453
192.39739
192.44569
192.50025
192.56203
192.63218
192.71206
192.80333
192.90796
193.02835
193.16746
193.32888
193.51707
193.73755
193.99724
194.30483
194.67128
195.11058
191.46952
191.47584
191.48284
191.49062
191.49925
191.50885
191.51953
191.53143
191.54471
191.55955
191.57615
191.59476
191.61567
191.6392
191.66576
191.6958
191.7299
191.76871
191.81306
191.86393
191.92255
191.99042
192.06943
192.16194
192.27099
192.40042
192.55525
191.2587
191.26212
191.2659
191.27007
191.27467
191.27976
191.28538
191.2916
191.29848
191.3061
191.31453
191.32388
191.33426
191.34578
191.35859
191.37284
191.38873
191.40645
191.42626
191.44844
191.47333
191.50132
191.5329
191.56863
191.60922
191.65551
191.70858
191.21695
191.21994
191.22324
191.22688
191.23089
191.23532
191.24019
191.24557
191.25151
191.25806
191.2653
191.27329
191.28211
191.29186
191.30265
191.31457
191.32777
191.34237
191.35855
191.37648
191.39635
191.4184
191.44289
191.47008
191.50031
191.53394
191.57137
197.33249
197.40003
197.47504
197.55842
197.6512
197.75455
197.86978
197.99843
198.14223
198.30321
198.48366
198.68628
198.91416
199.17091
199.46072
199.7885
200.15998
200.58186
201.06202
201.60969
202.23571
202.95279
203.77581
204.72211
205.81183
207.06811
208.51728
195.0406
195.07672
195.11687
195.16157
195.21137
195.26692
195.32898
195.3984
195.47617
195.56345
195.66157
195.7721
195.89687
196.03803
196.19813
196.38018
196.58778
196.82521
197.09762
197.41121
197.77346
198.19347
198.68227
199.25337
199.92325
200.71216
201.6449
193.6165
193.63233
193.64993
193.66952
193.69135
193.71569
193.74289
193.77332
193.80742
193.8457
193.88876
193.93728
193.9921
194.05419
194.1247
194.20501
194.29677
194.402
194.52311
194.66307
194.82551
195.01494
195.23693
195.49845
195.80827
196.17748
196.62017
192.95245
192.95872
192.96566
192.97337
192.98193
192.99146
193.00206
193.01387
193.02705
193.04178
193.05827
193.07677
193.09755
193.12095
193.14737
193.17727
193.21122
193.24988
193.29409
193.34483
193.40333
193.4711
193.55006
193.64258
193.7517
193.88133
194.0365
192.73937
192.7427
192.74637
192.75042
192.75489
192.75984
192.7653
192.77135
192.77804
192.78545
192.79365
192.80276
192.81285
192.82407
192.83655
192.85044
192.86592
192.8832
192.90253
192.92419
192.94851
192.97588
193.00679
193.0418
193.08162
193.12709
193.1793
192.6974
192.70028
192.70347
192.70697
192.71084
192.7151
192.7198
192.72498
192.7307
192.73702
192.74399
192.75169
192.76019
192.76959
192.77998
192.79147
192.80418
192.81825
192.83384
192.85111
192.87026
192.8915
192.91508
192.94127
192.97039
193.00278
193.03883
198.80516
198.87328
198.94894
199.03305
199.12664
199.23089
199.34713
199.4769
199.62197
199.78436
199.96641
200.17082
200.40073
200.65976
200.95217
201.28289
201.65771
202.08341
202.56793
203.12059
203.75234
204.47601
205.30662
206.2617
207.36156
208.62959
210.09237
196.48913
196.52551
196.56596
196.61097
196.66114
196.7171
196.77962
196.84955
196.92791
197.01584
197.1147
197.22607
197.3518
197.49405
197.6554
197.83888
198.04813
198.28747
198.56209
198.87824
199.24349
199.667
200.15992
200.73588
201.41152
202.20728
203.14819
195.05009
195.06597
195.08362
195.10328
195.12517
195.14961
195.1769
195.20744
195.24167
195.28009
195.32332
195.37205
195.4271
195.48946
195.5603
195.64099
195.73322
195.83899
195.96075
196.1015
196.26489
196.45546
196.67884
196.94207
197.25398
197.62576
198.07162
194.37906
194.38527
194.39215
194.39979
194.40828
194.41772
194.42823
194.43995
194.45303
194.46765
194.48403
194.50239
194.52304
194.5463
194.57257
194.60232
194.6361
194.67461
194.71865
194.76924
194.82759
194.89525
194.97412
195.0666
195.17576
195.30552
195.46097
194.16382
194.16704
194.17061
194.17454
194.17888
194.18368
194.18899
194.19487
194.20136
194.20856
194.21654
194.22539
194.23521
194.24612
194.25826
194.27178
194.28686
194.3037
194.32254
194.34367
194.36741
194.39416
194.4244
194.45868
194.49771
194.54236
194.59371
194.12164
194.12442
194.12748
194.13085
194.13457
194.13867
194.14319
194.14818
194.15368
194.15976
194.16646
194.17387
194.18205
194.19109
194.20108
194.21214
194.22436
194.2379
194.25289
194.2695
194.28792
194.30836
194.33104
194.35623
194.38423
194.41538
194.45005
200.21815
200.28682
200.36309
200.44788
200.54223
200.64732
200.76451
200.89534
201.04159
201.20531
201.38886
201.59495
201.82676
202.08794
202.38278
202.71627
203.09423
203.52351
204.01213
204.56948
205.20661
205.93648
206.77424
207.73757
208.84698
210.12606
211.60165
197.87922
197.91584
197.95655
198.00187
198.05237
198.10871
198.17165
198.24207
198.32096
198.4095
198.50905
198.6212
198.74782
198.89109
199.0536
199.23842
199.44921
199.69032
199.967
200.28555
200.65359
201.08037
201.57715
202.15766
202.8387
203.64087
204.58946
196.42599
196.44191
196.45961
196.47932
196.50127
196.52578
196.55315
196.58379
196.61812
196.65667
196.70005
196.74895
196.80421
196.86681
196.93793
197.01897
197.1116
197.21786
197.34021
197.48167
197.64592
197.83753
198.06219
198.32697
198.6408
199.01495
199.46375
195.74833
195.75447
195.76129
195.76886
195.77727
195.78662
195.79704
195.80866
195.82163
195.83613
195.85238
195.87061
195.89111
195.91422
195.94032
195.96989
196.0035
196.04182
196.08568
196.13608
196.19426
196.26176
196.3405
196.43289
196.54202
196.67185
196.82748
195.53104
195.53416
195.53761
195.54143
195.54564
195.55029
195.55544
195.56113
195.56744
195.57442
195.58216
195.59075
195.60028
195.61088
195.62268
195.63582
195.65048
195.66687
195.68521
195.7058
195.72895
195.75506
195.78459
195.81812
195.85635
195.90014
195.95058
195.48869
195.49135
195.49429
195.49752
195.50109
195.50503
195.50937
195.51415
195.51944
195.52527
195.5317
195.53881
195.54666
195.55534
195.56493
195.57553
195.58727
195.60026
195.61465
195.63059
195.64826
195.66787
195.68963
195.71381
195.74067
195.77056
195.80382
201.57201
201.64119
201.71804
201.80346
201.89852
202.0044
202.12248
202.2543
202.40166
202.56663
202.75158
202.95925
203.19284
203.45604
203.75316
204.08924
204.47015
204.9028
205.39525
205.95701
206.5992
207.33489
208.17936
209.15044
210.26882
211.55829
213.04592