/*--------------------------------*- C++ -*----------------------------------*\
| =========                 |                                                 |
| \\      /  F ield         | OpenFOAM: The Open Source CFD Toolbox           |
|  \\    /   O peration     | Version:  3.0.1                                 |
|   \\  /    A nd           | Web:      www.OpenFOAM.org                      |
|    \\/     M anipulation  |                                                 |
\*---------------------------------------------------------------------------*/
FoamFile
{
    version     2.0;
    format      ascii;
    class       volScalarField;
    location    "6000/fluid";
    object      ILambda_0_0;
}
// * * * * * * * * * * * * * * * * * * * * * * * * * * * * * * * * * * * * * //

dimensions      [1 0 -3 0 0 0 0];

internalField   nonuniform List<scalar> 
162000
(
198.13289
198.11403
198.09333
198.0706
198.04568
198.01834
197.98836
197.95551
197.91953
197.88013
197.83702
197.78988
197.73836
197.68212
197.62078
197.55396
197.48125
197.40226
197.31661
197.22393
197.1239
197.01626
196.90084
196.77762
196.64673
196.50856
196.36382
198.02863
198.01284
197.99537
197.97603
197.95462
197.93093
197.9047
197.87568
197.84356
197.80803
197.76874
197.72532
197.67737
197.62447
197.56617
197.502
197.4315
197.35417
197.26955
197.17719
197.07666
196.96763
196.84983
196.72313
196.5876
196.44351
196.29148
197.87126
197.85604
197.83926
197.82075
197.80033
197.7778
197.75293
197.72546
197.69512
197.66159
197.62453
197.58356
197.53827
197.4882
197.43285
197.3717
197.30417
197.22968
197.14759
197.05729
196.95815
196.84957
196.73103
196.6021
196.4625
196.31214
196.15125
197.66504
197.64962
197.63264
197.61393
197.59331
197.5706
197.54556
197.51797
197.48756
197.45403
197.41707
197.37632
197.33139
197.28185
197.22721
197.16696
197.10052
197.02727
196.94653
196.85759
196.75969
196.65204
196.53387
196.40442
196.26299
196.10904
195.9422
197.4099
197.39383
197.37614
197.35666
197.33522
197.31163
197.28566
197.25709
197.22565
197.19105
197.15299
197.11113
197.06507
197.01441
196.95869
196.89741
196.83001
196.75589
196.6744
196.5848
196.48633
196.37816
196.2594
196.12916
195.98651
195.83057
195.66054
197.10534
197.08829
197.06956
197.04896
197.02632
197.00144
196.97409
196.94404
196.91101
196.87473
196.83488
196.7911
196.74302
196.69024
196.63228
196.56867
196.49886
196.42228
196.33828
196.24617
196.14521
196.03459
195.91344
195.78085
195.63586
195.47747
195.30471
199.6152
199.61242
199.60931
199.60585
199.60198
199.59766
199.59282
199.5874
199.58132
199.5745
199.56682
199.55816
199.5484
199.53737
199.5249
199.51076
199.49472
199.47649
199.45576
199.43215
199.40523
199.37452
199.33947
199.29946
199.2538
199.2017
199.14234
199.49803
199.49867
199.49921
199.4996
199.49981
199.49977
199.49942
199.49867
199.49743
199.49558
199.49301
199.48955
199.48504
199.47926
199.47199
199.46298
199.45192
199.43847
199.42226
199.40286
199.37979
199.35252
199.32045
199.28291
199.23918
199.18846
199.12988
199.32923
199.33069
199.33223
199.33381
199.33544
199.33708
199.33869
199.34024
199.34166
199.34287
199.34377
199.34424
199.34412
199.34323
199.34134
199.33817
199.33339
199.32662
199.31739
199.3052
199.28944
199.26944
199.24443
199.21358
199.17596
199.13058
199.07636
199.1138
199.11561
199.11754
199.11959
199.12175
199.12401
199.12636
199.12877
199.13122
199.13365
199.13602
199.13822
199.14018
199.14173
199.14272
199.14293
199.14207
199.1398
199.13571
199.12928
199.1199
199.10683
199.08922
199.06609
199.03629
198.99858
198.95156
198.85135
198.85334
198.85547
198.85774
198.86015
198.8627
198.86536
198.86814
198.871
198.87391
198.87682
198.87968
198.88241
198.8849
198.887
198.88855
198.88932
198.88903
198.88732
198.88373
198.87773
198.86862
198.85558
198.83761
198.81354
198.78197
198.74131
198.54072
198.54281
198.54505
198.54744
198.54997
198.55264
198.55544
198.55836
198.56137
198.56444
198.56753
198.57058
198.5735
198.57621
198.57856
198.58041
198.58152
198.58166
198.58048
198.57758
198.57244
198.56444
198.55281
198.5366
198.51467
198.48564
198.44788
201.60617
201.60246
201.59839
201.5939
201.58897
201.58353
201.57755
201.57096
201.56371
201.55573
201.54694
201.53725
201.52659
201.51483
201.50188
201.48759
201.47184
201.45446
201.43527
201.41408
201.39066
201.36474
201.33605
201.30424
201.26894
201.22971
201.18605
201.47867
201.47871
201.47862
201.47835
201.47786
201.4771
201.47601
201.47451
201.47254
201.46998
201.46675
201.46273
201.45777
201.45174
201.44447
201.43578
201.42548
201.41335
201.39917
201.38268
201.3636
201.34165
201.3165
201.28778
201.25511
201.21803
201.17605
201.30062
201.30142
201.30226
201.30313
201.30402
201.30491
201.30578
201.30659
201.30731
201.30788
201.30824
201.30829
201.30794
201.30705
201.30547
201.30301
201.29945
201.29454
201.28798
201.27943
201.26853
201.25485
201.23792
201.21724
201.19225
201.16235
201.12689
201.07756
201.07861
201.07974
201.08096
201.08227
201.08366
201.08514
201.0867
201.08833
201.09002
201.09173
201.09345
201.09511
201.09666
201.098
201.09902
201.09958
201.09948
201.09848
201.09628
201.09253
201.08679
201.07854
201.06718
201.05201
201.03223
201.00695
200.80864
200.80977
200.81099
200.81232
200.81376
200.81532
200.81699
200.81879
200.82071
200.82276
200.82492
200.8272
200.82957
200.832
200.83445
200.83688
200.83919
200.84128
200.843
200.84415
200.84446
200.84361
200.84116
200.83656
200.82914
200.81809
200.80241
200.49202
200.49315
200.49438
200.49572
200.49717
200.49874
200.50045
200.50229
200.50427
200.5064
200.50867
200.51109
200.51365
200.51633
200.51913
200.52199
200.52489
200.52775
200.53047
200.53293
200.53495
200.53628
200.53661
200.53549
200.53239
200.52657
200.51712
203.87522
203.871
203.86635
203.86124
203.8556
203.8494
203.84258
203.83506
203.82678
203.81767
203.80763
203.79657
203.7844
203.77099
203.75622
203.73994
203.72201
203.70226
203.6805
203.65652
203.6301
203.60098
203.56889
203.53352
203.49454
203.45156
203.40418
203.74144
203.74116
203.74069
203.74001
203.73905
203.73776
203.73607
203.7339
203.73116
203.72775
203.72356
203.71845
203.71227
203.70487
203.69607
203.68567
203.67346
203.65922
203.64271
203.62366
203.60179
203.57683
203.54844
203.51631
203.48008
203.43937
203.39376
203.5575
203.55793
203.55836
203.55879
203.55918
203.55953
203.55979
203.55994
203.55991
203.55966
203.55911
203.55815
203.55667
203.55453
203.55156
203.54756
203.54229
203.53549
203.52685
203.51601
203.50261
203.48622
203.46638
203.44261
203.4144
203.38121
203.34249
203.32917
203.32979
203.33045
203.33116
203.33189
203.33266
203.33345
203.33425
203.33505
203.33582
203.33652
203.33713
203.33757
203.33777
203.33764
203.33706
203.33585
203.33383
203.33074
203.3263
203.32012
203.31179
203.30081
203.2866
203.26852
203.24585
203.21781
203.05519
203.05583
203.05653
203.05728
203.05808
203.05892
203.05982
203.06076
203.06173
203.06274
203.06376
203.06478
203.06577
203.0667
203.06751
203.06814
203.0685
203.06849
203.06794
203.06666
203.06441
203.06086
203.05562
203.04819
203.03798
203.02427
203.00622
202.73337
202.73396
202.7346
202.73528
202.73602
202.7368
202.73763
202.73851
202.73943
202.74039
202.74138
202.7424
202.74341
202.74441
202.74536
202.74623
202.74695
202.74747
202.74769
202.74748
202.74669
202.74511
202.74247
202.73841
202.73248
202.72411
202.71258
206.27995
206.27548
206.27055
206.26513
206.25915
206.25258
206.24533
206.23736
206.22857
206.2189
206.20824
206.1965
206.18356
206.1693
206.15359
206.13628
206.1172
206.09616
206.07297
206.04741
206.01922
205.98813
205.95386
205.91606
205.87437
205.82839
205.77769
206.14239
206.14197
206.14134
206.14047
206.1393
206.13778
206.13582
206.13334
206.13026
206.12645
206.1218
206.11617
206.10941
206.10133
206.09176
206.08049
206.06729
206.05193
206.03413
206.01363
205.99013
205.96331
205.93284
205.89836
205.85949
205.81583
205.76693
205.95468
205.95495
205.95521
205.95544
205.95561
205.95572
205.95572
205.95556
205.95521
205.95459
205.95362
205.95219
205.95019
205.94745
205.94381
205.93905
205.93291
205.92512
205.91535
205.90324
205.88836
205.87029
205.84854
205.82259
205.79191
205.75592
205.71403
205.72272
205.72315
205.72361
205.72408
205.72457
205.72506
205.72554
205.726
205.72642
205.72677
205.72701
205.7271
205.72697
205.72654
205.7257
205.72432
205.72223
205.71921
205.715
205.70929
205.70168
205.69173
205.67891
205.66262
205.64217
205.61682
205.58575
205.44499
205.44543
205.44589
205.44637
205.44688
205.44741
205.44795
205.4485
205.44905
205.44957
205.45007
205.4505
205.45084
205.45104
205.45105
205.45079
205.45016
205.44904
205.44726
205.4446
205.44081
205.43553
205.42836
205.41876
205.40612
205.38969
205.3686
205.11905
205.1194
205.11977
205.12016
205.12057
205.121
205.12143
205.12187
205.1223
205.12272
205.12312
205.12346
205.12374
205.12393
205.12397
205.12382
205.12343
205.12269
205.12152
205.11976
205.11725
205.11374
205.10896
205.10252
205.09395
205.08264
205.06788
208.73162
208.72706
208.72204
208.71651
208.71042
208.70371
208.69632
208.68818
208.67922
208.66934
208.65847
208.64648
208.63327
208.61871
208.60266
208.58497
208.56546
208.54395
208.52023
208.49407
208.46521
208.43337
208.39824
208.35948
208.31669
208.26947
208.21736
208.59128
208.59085
208.59021
208.58932
208.58813
208.58658
208.58458
208.58205
208.5789
208.57501
208.57026
208.56451
208.5576
208.54934
208.53956
208.52803
208.51453
208.4988
208.48059
208.4596
208.43552
208.40803
208.37678
208.3414
208.3015
208.25664
208.20636
208.40049
208.40076
208.401
208.40121
208.40137
208.40145
208.40142
208.40124
208.40085
208.40018
208.39915
208.39765
208.39556
208.39272
208.38895
208.38403
208.3777
208.36967
208.35961
208.34713
208.33183
208.31323
208.29085
208.26415
208.23257
208.19551
208.15236
208.16526
208.16568
208.16611
208.16656
208.16701
208.16746
208.1679
208.16832
208.16869
208.16898
208.16915
208.16916
208.16894
208.1684
208.16744
208.16592
208.16365
208.16042
208.15597
208.14995
208.14199
208.1316
208.11825
208.10132
208.0801
208.05381
208.02161
207.88391
207.88432
207.88474
207.88519
207.88566
207.88614
207.88662
207.88711
207.88759
207.88804
207.88845
207.88878
207.889
207.88908
207.88893
207.8885
207.88767
207.88632
207.88426
207.88129
207.87712
207.87141
207.86371
207.85349
207.8401
207.82277
207.8006
207.55386
207.55417
207.5545
207.55485
207.5552
207.55557
207.55594
207.5563
207.55665
207.55698
207.55726
207.55749
207.55763
207.55765
207.55751
207.55716
207.55652
207.55551
207.55402
207.55189
207.54894
207.54494
207.53956
207.53243
207.52304
207.51077
207.49486
211.18198
211.17742
211.1724
211.16687
211.16078
211.15408
211.14669
211.13856
211.12959
211.11972
211.10884
211.09685
211.08364
211.06907
211.05301
211.03531
211.01579
210.99426
210.97051
210.94431
210.9154
210.88349
210.84828
210.80941
210.7665
210.71912
210.66679
211.03925
211.03888
211.03832
211.03751
211.0364
211.03493
211.03302
211.03059
211.02753
211.02374
211.0191
211.01344
211.00663
210.99847
210.98879
210.97735
210.96393
210.94829
210.93014
210.9092
210.88515
210.85768
210.82642
210.79101
210.75103
210.70605
210.65561
210.84574
210.84607
210.84638
210.84668
210.84692
210.8471
210.84718
210.84711
210.84684
210.8463
210.84541
210.84407
210.84213
210.83946
210.83586
210.83112
210.82498
210.81713
210.80725
210.79495
210.77982
210.76137
210.73912
210.71252
210.681
210.64396
210.60077
210.6075
210.60798
210.60848
210.609
210.60954
210.61009
210.61063
210.61115
210.61164
210.61206
210.61238
210.61255
210.61249
210.61214
210.61137
210.61005
210.60801
210.60501
210.6008
210.59504
210.58732
210.57719
210.56409
210.54738
210.52636
210.50024
210.46815
210.32276
210.32323
210.32373
210.32425
210.3248
210.32537
210.32596
210.32655
210.32715
210.32773
210.32827
210.32876
210.32915
210.3294
210.32945
210.32923
210.32863
210.32751
210.32571
210.32301
210.31913
210.3137
210.3063
210.29637
210.28326
210.2662
210.24425
209.98884
209.98922
209.98962
209.99004
209.99048
209.99094
209.9914
209.99188
209.99235
209.99281
209.99323
209.99361
209.99392
209.99412
209.99418
209.99404
209.99362
209.99285
209.99162
209.98976
209.9871
209.98339
209.97832
209.97149
209.96241
209.95044
209.93479
213.60269
213.59819
213.59322
213.58776
213.58175
213.57512
213.56782
213.55979
213.55093
213.54117
213.53042
213.51857
213.50551
213.49111
213.47524
213.45774
213.43844
213.41715
213.39366
213.36775
213.33915
213.30758
213.27274
213.23427
213.19179
213.14486
213.09303
213.45768
213.45743
213.457
213.45633
213.45536
213.45405
213.45231
213.45006
213.4472
213.44362
213.43919
213.43377
213.42721
213.41932
213.40992
213.39878
213.38568
213.37037
213.35257
213.332
213.30836
213.2813
213.25048
213.21553
213.17604
213.13158
213.08168
213.26147
213.26191
213.26236
213.2628
213.2632
213.26355
213.26382
213.26395
213.26391
213.26362
213.26299
213.26194
213.26032
213.25798
213.25475
213.25039
213.24466
213.23726
213.22785
213.21606
213.20145
213.18356
213.16189
213.1359
213.10501
213.06862
213.02611
213.0202
213.02079
213.02143
213.02209
213.02279
213.02351
213.02424
213.02498
213.02569
213.02637
213.02696
213.02743
213.02771
213.02771
213.02734
213.02645
213.02487
213.02238
213.01871
213.01353
213.00645
212.99699
212.98459
212.96864
212.94842
212.92312
212.89189
212.73205
212.73264
212.73327
212.73394
212.73466
212.7354
212.73619
212.737
212.73783
212.73867
212.73949
212.74029
212.74102
212.74165
212.74211
212.74233
212.74221
212.74163
212.74041
212.73834
212.73514
212.73045
212.72384
212.71476
212.70257
212.68646
212.66553
212.39425
212.39476
212.3953
212.39588
212.39649
212.39713
212.3978
212.3985
212.39922
212.39995
212.40067
212.40138
212.40204
212.40264
212.40312
212.40344
212.40354
212.40333
212.4027
212.40151
212.39957
212.39664
212.39242
212.38651
212.37841
212.36749
212.35296
215.9779
215.97348
215.96861
215.96325
215.95735
215.95085
215.94368
215.9358
215.9271
215.91753
215.90698
215.89535
215.88253
215.8684
215.85282
215.83564
215.81669
215.79579
215.77273
215.74728
215.7192
215.6882
215.65398
215.61619
215.57445
215.52835
215.47741
215.83068
215.83058
215.8303
215.82979
215.82902
215.8279
215.82637
215.82435
215.82174
215.81843
215.81429
215.80919
215.80296
215.79543
215.78642
215.77569
215.76304
215.74821
215.73093
215.71092
215.68786
215.66145
215.63133
215.59712
215.55844
215.51485
215.4659
215.63186
215.63245
215.63306
215.63367
215.63427
215.63483
215.63533
215.63572
215.63595
215.63596
215.63567
215.63497
215.63375
215.63184
215.62907
215.62522
215.62003
215.61322
215.60444
215.59332
215.57944
215.56233
215.5415
215.5164
215.48646
215.45109
215.40966
215.38766
215.3884
215.3892
215.39004
215.39093
215.39186
215.39283
215.39383
215.39483
215.39582
215.39675
215.3976
215.39829
215.39875
215.39887
215.39852
215.39754
215.39569
215.39273
215.38832
215.38206
215.3735
215.36207
215.34716
215.32805
215.30395
215.274
215.09616
215.09691
215.0977
215.09856
215.09947
215.10044
215.10147
215.10255
215.10367
215.10484
215.10602
215.10721
215.10837
215.10947
215.11045
215.11124
215.11175
215.11185
215.11138
215.11013
215.10782
215.10411
215.09856
215.09064
215.07969
215.06493
215.04545
214.75452
214.75518
214.7559
214.75667
214.7575
214.75838
214.75931
214.76029
214.76133
214.7624
214.7635
214.76462
214.76574
214.76684
214.76787
214.76879
214.76955
214.77007
214.77023
214.76991
214.76892
214.76704
214.76395
214.75928
214.75253
214.74308
214.73015
218.29764
218.29332
218.28857
218.28334
218.27757
218.27122
218.26423
218.25652
218.24803
218.23868
218.22837
218.21701
218.20449
218.19069
218.17547
218.15868
218.14017
218.11975
218.09722
218.07236
218.04492
218.01462
217.98118
217.94424
217.90345
217.85838
217.80858
218.14825
218.1483
218.1482
218.14788
218.14731
218.14642
218.14514
218.14338
218.14105
218.13805
218.13425
218.1295
218.12366
218.11655
218.10799
218.09776
218.08563
218.07137
218.0547
218.03536
218.01303
217.9874
217.95812
217.92484
217.88716
217.84467
217.79691
217.94681
217.94757
217.94836
217.94917
217.94998
217.95078
217.95154
217.95221
217.95276
217.95312
217.9532
217.95292
217.95214
217.95072
217.94848
217.9452
217.94064
217.9345
217.92646
217.91613
217.9031
217.88691
217.86707
217.84304
217.81425
217.78013
217.74004
217.69968
217.70059
217.70157
217.70261
217.70372
217.7049
217.70613
217.70742
217.70874
217.71008
217.71141
217.71268
217.71385
217.71482
217.71551
217.71578
217.71547
217.71437
217.71222
217.70869
217.70339
217.69587
217.68557
217.67189
217.6541
217.63142
217.603
217.40488
217.4058
217.40678
217.40784
217.40898
217.41021
217.41151
217.41289
217.41435
217.41588
217.41747
217.4191
217.42076
217.42239
217.42396
217.4254
217.42663
217.42751
217.4279
217.42759
217.42631
217.42373
217.41941
217.41283
217.40334
217.39017
217.3724
217.05947
217.06032
217.06124
217.06223
217.0633
217.06445
217.06567
217.06698
217.06836
217.06982
217.07135
217.07295
217.07458
217.07625
217.0779
217.07952
217.08103
217.08237
217.08345
217.08412
217.08423
217.08355
217.08178
217.07856
217.07338
217.06565
217.0546
220.55587
220.55167
220.54704
220.54194
220.53633
220.53015
220.52334
220.51584
220.50757
220.49847
220.48843
220.47737
220.46518
220.45174
220.43692
220.42058
220.40256
220.38267
220.36073
220.33652
220.3098
220.2803
220.24772
220.21175
220.17201
220.12811
220.07959
220.40436
220.40459
220.40467
220.40455
220.4042
220.40355
220.40252
220.40104
220.39902
220.39635
220.3929
220.38854
220.38312
220.37647
220.36839
220.35869
220.34714
220.3335
220.31751
220.2989
220.27737
220.2526
220.22427
220.19202
220.15547
220.1142
220.06778
220.20042
220.20135
220.20233
220.20334
220.20438
220.20543
220.20647
220.20744
220.20832
220.20904
220.20952
220.20967
220.20937
220.20847
220.20679
220.20413
220.20024
220.19483
220.18757
220.17809
220.16599
220.1508
220.13204
220.10918
220.08166
220.0489
220.0103
219.95045
219.95154
219.9527
219.95396
219.9553
219.95673
219.95825
219.95984
219.96151
219.96322
219.96496
219.96669
219.96835
219.96987
219.97116
219.97209
219.9725
219.97219
219.9709
219.96831
219.96404
219.95764
219.94856
219.9362
219.91984
219.89872
219.87198
219.65242
219.65352
219.6547
219.65598
219.65737
219.65885
219.66045
219.66215
219.66397
219.66589
219.66791
219.67001
219.67218
219.67439
219.67659
219.67872
219.6807
219.68242
219.68373
219.68442
219.68425
219.68287
219.67988
219.67474
219.66683
219.65538
219.63948
219.30332
219.30437
219.3055
219.30672
219.30805
219.30948
219.31101
219.31266
219.31442
219.3163
219.31828
219.32038
219.32256
219.32483
219.32716
219.3295
219.33182
219.33405
219.3361
219.33784
219.33913
219.33973
219.33938
219.33771
219.33424
219.32837
219.31935
222.74802
222.74394
222.73945
222.7345
222.72905
222.72305
222.71644
222.70916
222.70113
222.69229
222.68255
222.67181
222.65998
222.64693
222.63254
222.61667
222.59917
222.57987
222.55856
222.53506
222.50911
222.48046
222.44882
222.41389
222.37529
222.33265
222.28552
222.59443
222.59484
222.59511
222.59521
222.59508
222.59468
222.59392
222.59274
222.59103
222.58871
222.58563
222.58168
222.5767
222.57053
222.56297
222.55383
222.5429
222.52992
222.51465
222.49682
222.47614
222.4523
222.42498
222.39384
222.35849
222.31854
222.27357
222.38801
222.38911
222.39029
222.39152
222.3928
222.39411
222.39543
222.39673
222.39795
222.39905
222.39995
222.40055
222.40075
222.40039
222.39931
222.39729
222.3941
222.38946
222.38303
222.37446
222.36333
222.3492
222.33159
222.30998
222.28381
222.25252
222.21551
222.13524
222.13651
222.13788
222.13935
222.14094
222.14263
222.14444
222.14636
222.14839
222.15049
222.15266
222.15486
222.15704
222.15914
222.16105
222.16267
222.16384
222.16436
222.16398
222.16238
222.1592
222.15397
222.14618
222.13522
222.12038
222.1009
222.07595
221.83407
221.83535
221.83674
221.83826
221.83989
221.84166
221.84356
221.8456
221.84778
221.85011
221.85258
221.85517
221.85789
221.86069
221.86355
221.8664
221.86918
221.87177
221.87404
221.87579
221.87677
221.87667
221.87506
221.87145
221.86521
221.85557
221.84166
221.4814
221.48264
221.48399
221.48546
221.48706
221.48878
221.49064
221.49265
221.4948
221.49711
221.49957
221.50218
221.50495
221.50785
221.51087
221.51398
221.51714
221.5203
221.52336
221.52623
221.52874
221.53071
221.53185
221.53181
221.53013
221.52623
221.51936
224.87102
224.86707
224.86272
224.85793
224.85265
224.84684
224.84044
224.83338
224.82561
224.81705
224.80762
224.79722
224.78575
224.77311
224.75918
224.74381
224.72686
224.70816
224.68752
224.66475
224.63961
224.61186
224.58121
224.54736
224.50997
224.46865
224.42299
224.71544
224.71602
224.71649
224.7168
224.71691
224.71676
224.71628
224.7154
224.71402
224.71205
224.70936
224.70583
224.70131
224.69562
224.6886
224.68005
224.66974
224.65745
224.64293
224.62592
224.60612
224.58326
224.55699
224.527
224.49291
224.45436
224.4109
224.50664
224.50793
224.5093
224.51076
224.51228
224.51386
224.51547
224.51709
224.51866
224.52015
224.52147
224.52254
224.52324
224.52344
224.52296
224.5216
224.51914
224.51527
224.5097
224.50206
224.49194
224.47891
224.46249
224.44216
224.4174
224.38764
224.35229
224.2512
224.25265
224.25422
224.25592
224.25775
224.25972
224.26183
224.26408
224.26646
224.26897
224.27158
224.27426
224.27697
224.27964
224.2822
224.28453
224.28647
224.28783
224.28838
224.2878
224.28572
224.28171
224.27524
224.26572
224.25245
224.23468
224.21158
223.94697
223.94845
223.95006
223.9518
223.95369
223.95574
223.95795
223.96034
223.9629
223.96564
223.96857
223.97167
223.97494
223.97835
223.98188
223.98547
223.98906
223.99255
223.9958
223.99863
224.0008
224.00199
224.00182
223.99977
223.99524
223.98747
223.9756
223.59083
223.59228
223.59386
223.59557
223.59744
223.59947
223.60166
223.60403
223.60659
223.60933
223.61228
223.61543
223.61878
223.62233
223.62607
223.62996
223.63399
223.63809
223.6422
223.64622
223.65
223.65335
223.65601
223.65765
223.65782
223.65594
223.65129
226.92217
226.91835
226.91415
226.90952
226.90442
226.8988
226.89262
226.8858
226.8783
226.87002
226.86091
226.85086
226.83978
226.82757
226.8141
226.79925
226.78287
226.7648
226.74486
226.72285
226.69856
226.67174
226.64212
226.6094
226.57326
226.53332
226.48918
226.76464
226.7654
226.76607
226.7666
226.76695
226.76706
226.76686
226.76628
226.76524
226.76363
226.76134
226.75824
226.75418
226.74901
226.74254
226.73459
226.72493
226.71335
226.69961
226.68343
226.66456
226.64269
226.61752
226.58873
226.55596
226.51884
226.47696
226.5535
226.55498
226.55656
226.55824
226.56001
226.56186
226.56377
226.56571
226.56765
226.56953
226.57128
226.57283
226.57405
226.57481
226.57496
226.57428
226.57255
226.5695
226.5648
226.55811
226.54903
226.53713
226.52193
226.50294
226.47963
226.45145
226.41782
226.29544
226.29708
226.29886
226.30079
226.30287
226.30512
226.30753
226.31012
226.31287
226.31579
226.31884
226.32202
226.32527
226.32855
226.33176
226.33481
226.33754
226.33977
226.34126
226.34172
226.34079
226.33802
226.33291
226.32486
226.31321
226.2972
226.27601
225.98827
225.98995
225.99177
225.99375
225.99591
225.99824
226.00077
226.00351
226.00646
226.00962
226.01301
226.01663
226.02046
226.0245
226.02871
226.03306
226.03748
226.04188
226.04614
226.05007
226.05346
226.05599
226.05727
226.05683
226.05405
226.04821
226.03844
225.62878
225.63044
225.63226
225.63423
225.63637
225.63871
225.64124
225.64398
225.64694
225.65014
225.65359
225.65728
225.66124
225.66544
225.6699
225.6746
225.67951
225.68458
225.68976
225.69495
225.70002
225.70479
225.70902
225.71238
225.71444
225.71463
225.71225
228.89965
228.89597
228.89191
228.88745
228.88254
228.87712
228.87116
228.86459
228.85735
228.84937
228.84058
228.83089
228.82021
228.80844
228.79546
228.78114
228.76534
228.74792
228.72869
228.70747
228.68404
228.65818
228.62961
228.59806
228.5632
228.52468
228.48211
228.74025
228.7412
228.74207
228.74282
228.74341
228.74378
228.74387
228.7436
228.7429
228.74166
228.73977
228.7371
228.73352
228.72886
228.72295
228.7156
228.70661
228.69575
228.6828
228.66748
228.64954
228.6287
228.60465
228.57709
228.54566
228.51002
228.46977
228.52691
228.52857
228.53036
228.53226
228.53428
228.5364
228.53861
228.54089
228.54319
228.54546
228.54765
228.54967
228.55142
228.55275
228.55352
228.55353
228.55254
228.5503
228.54649
228.54077
228.53274
228.52198
228.50803
228.4904
228.46857
228.44199
228.41012
228.26636
228.26819
228.27018
228.27233
228.27467
228.2772
228.27992
228.28284
228.28597
228.28929
228.29279
228.29646
228.30026
228.30413
228.30801
228.31178
228.3153
228.31841
228.32086
228.32237
228.32258
228.32107
228.31733
228.31078
228.30076
228.28653
228.26729
227.95635
227.95823
227.96027
227.96249
227.96491
227.96754
227.97039
227.97347
227.97681
227.9804
227.98426
227.9884
227.9928
227.99746
228.00236
228.00747
228.01273
228.01805
228.02332
228.02837
228.03297
228.03685
228.03961
228.04079
228.03979
228.03589
228.02825
227.59364
227.59551
227.59755
227.59978
227.60221
227.60485
227.60772
227.61084
227.61421
227.61787
227.62181
227.62606
227.63062
227.63549
227.64069
227.64619
227.65198
227.65804
227.66429
227.67066
227.67704
227.68325
227.68906
227.69415
227.69811
227.70041
227.70033
230.80174
230.7982
230.7943
230.79001
230.78528
230.78008
230.77434
230.76802
230.76106
230.75338
230.74493
230.73561
230.72533
230.71401
230.70152
230.68774
230.67255
230.65578
230.63728
230.61687
230.59433
230.56944
230.54196
230.5116
230.47806
230.44099
230.40002
230.64055
230.64168
230.64276
230.64373
230.64456
230.64519
230.64556
230.64561
230.64525
230.64438
230.64289
230.64067
230.63756
230.63343
230.62809
230.62136
230.61305
230.60292
230.59077
230.57633
230.55935
230.53955
230.51665
230.49033
230.46028
230.42614
230.38755
230.42505
230.4269
230.42889
230.43102
230.43329
230.43569
230.4382
230.4408
230.44347
230.44615
230.44878
230.45128
230.45355
230.45546
230.45687
230.45756
230.45733
230.45592
230.453
230.44826
230.4413
230.43171
230.41902
230.40277
230.38245
230.35752
230.32744
230.16207
230.16409
230.16629
230.16868
230.17127
230.17408
230.17711
230.18037
230.18387
230.18761
230.19157
230.19574
230.20009
230.20457
230.2091
230.21361
230.21794
230.22192
230.22534
230.22791
230.22929
230.22905
230.22671
230.22168
230.21332
230.2009
230.18363
229.84934
229.85141
229.85367
229.85614
229.85882
229.86174
229.86492
229.86836
229.87208
229.87611
229.88044
229.8851
229.89007
229.89537
229.90097
229.90685
229.91295
229.9192
229.92549
229.93166
229.93751
229.94274
229.947
229.94982
229.95062
229.94869
229.9432
229.48353
229.48562
229.48789
229.49038
229.49309
229.49604
229.49926
229.50276
229.50655
229.51066
229.51511
229.51991
229.52508
229.53063
229.53656
229.54288
229.54957
229.55661
229.56395
229.57152
229.57921
229.58687
229.59428
229.60113
229.60702
229.61144
229.6137
232.62753
232.62413
232.62039
232.61627
232.61173
232.60673
232.60123
232.59516
232.58848
232.58111
232.573
232.56405
232.55419
232.54331
232.53132
232.5181
232.50351
232.48742
232.46966
232.45005
232.42841
232.40452
232.37813
232.34898
232.31677
232.28117
232.24183
232.46462
232.46595
232.46722
232.46841
232.46948
232.47038
232.47104
232.4714
232.47138
232.47088
232.4698
232.46802
232.46539
232.46178
232.45701
232.45091
232.44327
232.43389
232.42254
232.40898
232.39297
232.37423
232.35248
232.32743
232.29877
232.26616
232.22925
232.2471
232.24913
232.25133
232.25369
232.2562
232.25887
232.26169
232.26462
232.26765
232.27073
232.27379
232.27677
232.27957
232.28206
232.28409
232.28548
232.28601
232.28541
232.2834
232.27963
232.27375
232.26532
232.25391
232.23905
232.22024
232.19696
232.16869
231.98183
231.98404
231.98645
231.98907
231.99191
231.995
231.99834
232.00194
232.00581
232.00996
232.01437
232.01904
232.02393
232.02902
232.03422
232.03945
232.04458
232.04945
232.05383
232.05746
232.06
232.06103
232.06008
232.05657
232.04987
232.03927
232.02399
231.66649
231.66876
231.67124
231.67395
231.6769
231.68011
231.68361
231.6874
231.69152
231.69597
231.70078
231.70595
231.7115
231.71743
231.72372
231.73036
231.73731
231.74448
231.7518
231.75909
231.76617
231.77277
231.77852
231.78298
231.78557
231.78562
231.7823
231.29771
231.30001
231.30252
231.30526
231.30825
231.31152
231.31508
231.31895
231.32316
231.32773
231.33268
231.33804
231.34382
231.35004
231.35671
231.36384
231.37143
231.37945
231.38788
231.39665
231.40566
231.41476
231.42376
231.43237
231.4402
231.44674
231.45133
234.37612
234.37287
234.36928
234.36534
234.36099
234.3562
234.35093
234.34512
234.33872
234.33166
234.32389
234.31532
234.30587
234.29546
234.28397
234.27131
234.25733
234.24192
234.2249
234.20612
234.18539
234.1625
234.13722
234.10929
234.07844
234.04433
234.00663
234.21156
234.21307
234.21455
234.21596
234.21727
234.21843
234.21938
234.22005
234.22037
234.22025
234.21957
234.21823
234.21609
234.21301
234.20881
234.20333
234.19638
234.18774
234.17721
234.16454
234.1495
234.13182
234.11124
234.08748
234.06022
234.02916
233.99394
233.99206
233.99428
233.99669
233.99927
234.00203
234.00498
234.00809
234.01136
234.01475
234.01823
234.02173
234.02519
234.02852
234.03159
234.03425
234.03633
234.03761
234.03784
234.03673
234.03396
234.02914
234.02189
234.01176
233.9983
233.98102
233.95941
233.93297
233.72457
233.72697
233.72959
233.73244
233.73554
233.73891
233.74255
233.74649
233.75074
233.7553
233.76016
233.76533
233.77077
233.77646
233.78233
233.78829
233.79422
233.79997
233.80533
233.81002
233.81372
233.81603
233.81648
233.8145
233.80947
233.8007
233.78741
233.40674
233.40921
233.41191
233.41485
233.41807
233.42157
233.42539
233.42954
233.43405
233.43893
233.44421
233.4499
233.45603
233.46258
233.46957
233.47698
233.48477
233.49288
233.50121
233.50963
233.51795
233.52591
233.53316
233.53926
233.54366
233.54569
233.54454
233.03513
233.03763
233.04038
233.04338
233.04666
233.05024
233.05414
233.05839
233.06301
233.06804
233.07349
233.0794
233.08579
233.09268
233.10009
233.10804
233.11652
233.12553
233.13505
233.14501
233.15534
233.1659
233.1765
233.18687
233.19663
233.2053
233.21224
236.0474
236.04429
236.04086
236.03709
236.03294
236.02836
236.02332
236.01777
236.01165
236.00491
235.99748
235.98928
235.98026
235.9703
235.95932
235.94721
235.93386
235.91912
235.90285
235.8849
235.86509
235.8432
235.81903
235.79233
235.76282
235.73021
235.69416
235.88129
235.88298