/*--------------------------------*- C++ -*----------------------------------*\
| =========                 |                                                 |
| \\      /  F ield         | OpenFOAM: The Open Source CFD Toolbox           |
|  \\    /   O peration     | Version:  3.0.1                                 |
|   \\  /    A nd           | Web:      www.OpenFOAM.org                      |
|    \\/     M anipulation  |                                                 |
\*---------------------------------------------------------------------------*/
FoamFile
{
    version     2.0;
    format      ascii;
    class       volScalarField;
    location    "6000/fluid";
    object      ILambda_3_0;
}
// * * * * * * * * * * * * * * * * * * * * * * * * * * * * * * * * * * * * * //

dimensions      [1 0 -3 0 0 0 0];

internalField   nonuniform List<scalar> 
162000
(
194.53347
194.54553
194.55878
194.57336
194.58939
194.60702
194.6264
194.64771
194.67114
194.69689
194.7252
194.75631
194.79049
194.82805
194.8693
194.9146
194.96432
195.01888
195.07871
195.14428
195.21607
195.2946
195.38038
195.47392
195.57571
195.6862
195.80576
194.47256
194.48447
194.49757
194.51198
194.52781
194.54522
194.56435
194.58538
194.60848
194.63387
194.66177
194.69241
194.72608
194.76304
194.80363
194.84819
194.89708
194.95071
195.0095
195.07392
195.14445
195.22163
195.30599
195.39811
195.49863
195.60818
195.72747
194.36023
194.37199
194.38491
194.3991
194.41471
194.43186
194.4507
194.4714
194.49414
194.51913
194.54656
194.57669
194.60977
194.64607
194.68589
194.72957
194.77744
194.8299
194.88733
194.95017
195.0189
195.09399
195.17599
195.26547
195.36304
195.46937
195.58517
194.20757
194.21926
194.23211
194.24623
194.26176
194.27881
194.29755
194.31814
194.34075
194.36558
194.39282
194.42271
194.45549
194.4914
194.53074
194.5738
194.62089
194.67236
194.72857
194.78989
194.85674
194.92956
195.0088
195.09496
195.18854
195.2901
195.40019
194.02413
194.03597
194.04899
194.06331
194.07905
194.09634
194.11533
194.13618
194.15904
194.18412
194.21159
194.24168
194.27461
194.31062
194.34997
194.39295
194.43986
194.49101
194.54676
194.60751
194.67367
194.74572
194.82425
194.90991
195.00355
195.10623
195.21944
193.81734
193.82967
193.84321
193.85807
193.87438
193.89226
193.91187
193.93335
193.95688
193.98264
194.01083
194.04166
194.07536
194.1122
194.15247
194.19648
194.2446
194.29727
194.35501
194.41845
194.48844
194.56604
194.65276
194.75064
194.86266
194.99309
195.14827
197.46351
197.46889
197.47479
197.48126
197.48835
197.49612
197.50464
197.51395
197.52415
197.5353
197.54748
197.56079
197.57531
197.59115
197.6084
197.62717
197.64758
197.66973
197.69374
197.71972
197.74779
197.77805
197.8106
197.84551
197.88287
197.92269
197.965
197.44665
197.45217
197.45823
197.46487
197.47215
197.48013
197.48886
197.49842
197.50887
197.5203
197.53279
197.54642
197.56129
197.5775
197.59515
197.61434
197.63519
197.65781
197.6823
197.70879
197.73737
197.76815
197.80121
197.83663
197.87444
197.91467
197.95727
197.41169
197.41747
197.42381
197.43076
197.43837
197.4467
197.45582
197.46579
197.47669
197.48859
197.50158
197.51575
197.53118
197.54798
197.56624
197.58605
197.60753
197.63076
197.65585
197.68287
197.71191
197.74301
197.7762
197.81146
197.84871
197.8878
197.92845
197.35788
197.36401
197.37073
197.37808
197.38613
197.39492
197.40454
197.41504
197.42649
197.43898
197.45258
197.46737
197.48344
197.50086
197.51973
197.54011
197.56207
197.58569
197.61099
197.638
197.66668
197.69698
197.72874
197.76174
197.79559
197.82976
197.86345
197.28514
197.2917
197.29888
197.30673
197.3153
197.32466
197.33486
197.34597
197.35805
197.37119
197.38544
197.40086
197.41754
197.43552
197.45485
197.47557
197.4977
197.52121
197.54606
197.57215
197.5993
197.62725
197.65561
197.68382
197.71112
197.73648
197.75849
197.19408
197.20118
197.20892
197.21737
197.22658
197.2366
197.2475
197.25932
197.27214
197.286
197.30096
197.31706
197.33435
197.35285
197.37256
197.39346
197.4155
197.43858
197.46254
197.48713
197.51204
197.5368
197.56079
197.58318
197.60288
197.61846
197.62802
199.43442
199.43803
199.44201
199.44637
199.45117
199.45643
199.4622
199.46854
199.47549
199.48312
199.49148
199.50065
199.51069
199.5217
199.53375
199.54695
199.56139
199.57719
199.59446
199.61335
199.63399
199.65653
199.68115
199.70803
199.73736
199.76937
199.8043
199.42428
199.428
199.43209
199.43657
199.4415
199.44691
199.45284
199.45935
199.46649
199.47432
199.4829
199.4923
199.5026
199.51388
199.52623
199.53974
199.55451
199.57065
199.58829
199.60755
199.62856
199.65148
199.67645
199.70364
199.73321
199.76534
199.80022
199.40374
199.40765
199.41193
199.41664
199.4218
199.42745
199.43366
199.44046
199.44792
199.45608
199.46502
199.47479
199.48549
199.49717
199.50993
199.52386
199.53904
199.55557
199.57355
199.59307
199.61424
199.63713
199.66184
199.6884
199.71686
199.74717
199.77925
199.37226
199.3764
199.38093
199.3859
199.39135
199.39732
199.40385
199.41099
199.41879
199.42732
199.43662
199.44677
199.45781
199.46982
199.48286
199.49699
199.51226
199.52873
199.54644
199.56539
199.58557
199.60693
199.62935
199.65262
199.67645
199.70034
199.7236
199.32947
199.33387
199.33869
199.34396
199.34971
199.35599
199.36284
199.37031
199.37843
199.38725
199.39682
199.40718
199.41837
199.43042
199.44335
199.45717
199.47187
199.4874
199.50369
199.52059
199.53791
199.55534
199.57244
199.58864
199.60312
199.61481
199.62228
199.27554
199.28023
199.28536
199.29094
199.29701
199.30361
199.31077
199.31852
199.32689
199.33591
199.3456
199.35597
199.36702
199.37872
199.39103
199.40388
199.41714
199.43064
199.44412
199.45724
199.46954
199.48039
199.48899
199.4943
199.495
199.48943
199.47557
201.4501
201.4538
201.45787
201.46234
201.46726
201.47267
201.4786
201.48513
201.49231
201.50019
201.50885
201.51836
201.52881
201.54028
201.55289
201.56672
201.58192
201.5986
201.61691
201.637
201.65906
201.68326
201.70982
201.73897
201.77096
201.80606
201.84458
201.43989
201.44369
201.44786
201.45245
201.4575
201.46304
201.46913
201.47582
201.48318
201.49125
201.50013
201.50987
201.52057
201.53231
201.5452
201.55935
201.57487
201.5919
201.61058
201.63105
201.65349
201.67808
201.705
201.73448
201.76672
201.80195
201.84043
201.41944
201.42341
201.42777
201.43256
201.43782
201.4436
201.44995
201.45692
201.46457
201.47297
201.48217
201.49227
201.50335
201.51548
201.52877
201.54332
201.55923
201.57662
201.59562
201.61633
201.6389
201.66343
201.69005
201.71884
201.74988
201.78317
201.81866
201.38844
201.39262
201.39721
201.40225
201.40777
201.41382
201.42046
201.42774
201.4357
201.44442
201.45395
201.46437
201.47575
201.48815
201.50165
201.51634
201.53227
201.54952
201.56814
201.58817
201.6096
201.63241
201.65651
201.6817
201.7077
201.73404
201.76
201.34681
201.35122
201.35604
201.36132
201.3671
201.37341
201.38031
201.38784
201.39605
201.40499
201.4147
201.42523
201.43664
201.44896
201.46221
201.47643
201.49159
201.50767
201.5246
201.54225
201.56041
201.57878
201.59693
201.61424
201.62988
201.6427
201.6512
201.29501
201.29964
201.3047
201.31022
201.31623
201.32277
201.32987
201.33757
201.3459
201.35488
201.36455
201.37491
201.38596
201.39768
201.41004
201.42294
201.43628
201.44985
201.46341
201.47657
201.48886
201.49961
201.50796
201.51278
201.51264
201.50576
201.48992
203.61693
203.62091
203.62528
203.63009
203.63538
203.64119
203.64758
203.6546
203.66232
203.6708
203.68012
203.69036
203.7016
203.71396
203.72753
203.74243
203.7588
203.77677
203.7965
203.81816
203.84193
203.86802
203.89665
203.92807
203.96255
204.00038
204.04189
203.60597
203.61005
203.61454
203.61947
203.6249
203.63086
203.63741
203.6446
203.65251
203.6612
203.67075
203.68124
203.69275
203.7054
203.71928
203.73451
203.75124
203.76958
203.78971
203.81177
203.83596
203.86247
203.8915
203.92328
203.95804
203.99604
204.03751
203.58405
203.58832
203.593
203.59815
203.60381
203.61002
203.61685
203.62434
203.63257
203.6416
203.65151
203.66238
203.67429
203.68736
203.70167
203.71734
203.73449
203.75324
203.77372
203.79606
203.82041
203.84688
203.87562
203.90671
203.94023
203.97619
204.01455
203.55089
203.55538
203.5603
203.56571
203.57165
203.57816
203.58529
203.59311
203.60168
203.61106
203.62132
203.63253
203.64478
203.65814
203.67269
203.68852
203.70571
203.72432
203.74442
203.76605
203.78921
203.81389
203.83997
203.86727
203.89547
203.92408
203.95234
203.50644
203.51116
203.51634
203.52201
203.52821
203.535
203.54241
203.5505
203.55933
203.56894
203.57939
203.59073
203.60301
203.61628
203.63057
203.6459
203.66227
203.67965
203.69795
203.71704
203.73672
203.75664
203.77636
203.7952
203.81227
203.82632
203.83574
203.45124
203.4562
203.46162
203.46754
203.47398
203.481
203.48862
203.49688
203.50583
203.51549
203.52588
203.53702
203.54891
203.56154
203.57485
203.58876
203.60315
203.6178
203.63245
203.64669
203.65999
203.67164
203.68069
203.68592
203.68575
203.67821
203.66085
205.88002
205.88418
205.88875
205.89377
205.89929
205.90536
205.91203
205.91936
205.92742
205.93627
205.94599
205.95668
205.96841
205.9813
205.99546
206.011
206.02807
206.0468
206.06736
206.08992
206.11468
206.14185
206.17165
206.20434
206.24019
206.2795
206.32261
205.86858
205.87284
205.87753
205.88268
205.88834
205.89457
205.90141
205.90892
205.91718
205.92625
205.93622
205.94716
205.95918
205.97237
205.98685
206.00274
206.02018
206.03931
206.06028
206.08327
206.10847
206.13607
206.16628
206.19934
206.23549
206.27497
206.31804
205.84567
205.85013
205.85502
205.8604
205.86631
205.8728
205.87993
205.88776
205.89635
205.90578
205.91612
205.92747
205.93991
205.95354
205.96847
205.98482
206.0027
206.02225
206.0436
206.06688
206.09223
206.11979
206.14969
206.18202
206.21686
206.25421
206.294
205.81101
205.8157
205.82085
205.8265
205.8327
205.8395
205.84695
205.85512
205.86407
205.87386
205.88458
205.89628
205.90907
205.92301
205.93819
205.9547
205.97262
205.99201
206.01295
206.03547
206.05957
206.08522
206.11231
206.14063
206.16983
206.19939
206.2285
205.76451
205.76945
205.77486
205.78079
205.78727
205.79436
205.8021
205.81056
205.81977
205.8298
205.84071
205.85255
205.86536
205.8792
205.89409
205.91006
205.9271
205.94517
205.96418
205.98399
206.00435
206.02493
206.04521
206.06447
206.08175
206.09572
206.1046
205.70676
205.71195
205.71762
205.72379
205.73053
205.73785
205.74581
205.75444
205.76377
205.77384
205.78467
205.79628
205.80866
205.82179
205.83562
205.85006
205.86495
205.88008
205.89515
205.90972
205.92321
205.93485
205.9436
205.94813
205.94672
205.93722
205.91693
208.18735
208.19159
208.19624
208.20136
208.20699
208.21318
208.21998
208.22745
208.23566
208.24468
208.25459
208.26547
208.27743
208.29056
208.30498
208.32081
208.33818
208.35725
208.37818
208.40114
208.42633
208.45396
208.48426
208.51749
208.55392
208.59386
208.63763
208.17567
208.18002
208.1848
208.19005
208.19583
208.20217
208.20914
208.2168
208.22522
208.23447
208.24462
208.25577
208.26801
208.28145
208.2962
208.31238
208.33014
208.34961
208.37095
208.39435
208.41998
208.44805
208.47877
208.51237
208.54908
208.58917
208.63289
208.1523
208.15684
208.16183
208.16732
208.17334
208.17996
208.18722
208.1952
208.20396
208.21357
208.22411
208.23567
208.24834
208.26222
208.27743
208.29407
208.31227
208.33216
208.35387
208.37754
208.40331
208.43131
208.46166
208.49447
208.52978
208.56761
208.60786
208.11688
208.12167
208.12692
208.13268
208.139
208.14593
208.15353
208.16185
208.17096
208.18094
208.19184
208.20376
208.21677
208.23096
208.2464
208.26318
208.28139
208.30108
208.32233
208.34516
208.36958
208.39552
208.42288
208.45142
208.48076
208.51034
208.5393
208.06935
208.07438
208.07989
208.08593
208.09253
208.09975
208.10763
208.11623
208.12561
208.13581
208.1469
208.15892
208.17194
208.18598
208.20107
208.21725
208.23448
208.25272
208.27188
208.29179
208.31219
208.3327
208.35277
208.37164
208.38825
208.40118
208.40854
208.01024
208.01553
208.02129
208.02758
208.03442
208.04187
208.04995
208.05871
208.06819
208.0784
208.08937
208.10112
208.11363
208.12687
208.14079
208.15528
208.17017
208.18523
208.20012
208.21438
208.22737
208.23825
208.2459
208.24889
208.24535
208.23294
208.20872
210.5017
210.50595
210.51062
210.51575
210.5214
210.5276
210.53442
210.54191
210.55014
210.55919
210.56913
210.58004
210.59203
210.60519
210.61964
210.6355
210.65291
210.67202
210.69299
210.71599
210.74122
210.76888
210.79922
210.83248
210.86894
210.9089
210.9527
210.48998
210.49434
210.49913
210.5044
210.51019
210.51655
210.52355
210.53123
210.53967
210.54894
210.55912
210.5703
210.58257
210.59604
210.61082
210.62704
210.64483
210.66434
210.68572
210.70915
210.73482
210.76292
210.79367
210.82728
210.86402
210.9041
210.94779
210.4665
210.47106
210.47606
210.48156
210.4876
210.49424
210.50152
210.50952
210.5183
210.52793
210.5385
210.55008
210.56278
210.57669
210.59192
210.60859
210.62681
210.64672
210.66844
210.69212
210.71789
210.74588
210.77619
210.80893
210.84415
210.88183
210.92186
210.43089
210.43569
210.44095
210.44672
210.45306
210.46
210.46761
210.47595
210.48508
210.49506
210.50598
210.51791
210.53093
210.54511
210.56055
210.57732
210.5955
210.61516
210.63635
210.65909
210.68337
210.70914
210.73625
210.76445
210.79334
210.82231
210.85044
210.38304
210.38808
210.39359
210.39963
210.40624
210.41346
210.42134
210.42994
210.43931
210.4495
210.46057
210.47257
210.48554
210.49952
210.51454
210.53061
210.5477
210.56576
210.58468
210.60426
210.62423
210.64419
210.66352
210.68142
210.69676
210.70802
210.71317
210.3235
210.32877
210.33453
210.34081
210.34764
210.35507
210.36313
210.37185
210.38128
210.39143
210.40233
210.41397
210.42635
210.43943
210.45313
210.46734
210.48187
210.49647
210.51077
210.52427
210.53627
210.54589
210.5519
210.55278
210.54651
210.53057
210.50179
212.79901
212.80323
212.80787
212.81296
212.81857
212.82473
212.83149
212.83893
212.8471
212.85608
212.86594
212.87677
212.88866
212.90172
212.91606
212.9318
212.94907
212.96802
212.98882
213.01163
213.03665
213.06409
213.09417
213.12714
213.16328
213.20288
213.24628
212.78737
212.7917
212.79646
212.80169
212.80744
212.81375
212.82069
212.82832
212.83669
212.84589
212.85599
212.86709
212.87926
212.89263
212.90729
212.92338
212.94103
212.96038
212.98158
213.00481
213.03026
213.05811
213.08859
213.1219
213.15828
213.19798
213.24123
212.76403
212.76855
212.77352
212.77898
212.78497
212.79156
212.79878
212.80672
212.81543
212.82498
212.83546
212.84695
212.85954
212.87333
212.88843
212.90495
212.92301
212.94273
212.96425
212.98769
213.01319
213.04087
213.07084
213.10318
213.13793
213.17506
213.21446
212.72858
212.73334
212.73856
212.74428
212.75056
212.75744
212.76498
212.77325
212.78229
212.79218
212.803
212.8148
212.82768
212.84172
212.85698
212.87356
212.89152
212.91092
212.93181
212.9542
212.97808
213.00337
213.02991
213.05743
213.0855
213.11345
213.14034
212.6809
212.68588
212.69135
212.69732
212.70386
212.711
212.71879
212.72729
212.73654
212.7466
212.75752
212.76935
212.78213
212.79589
212.81065
212.82642
212.84316
212.8608
212.87922
212.89822
212.91748
212.93656
212.95483
212.97142
212.98512
212.99433
212.99688
212.62151
212.62672
212.6324
212.6386
212.64533
212.65265
212.66058
212.66917
212.67843
212.68839
212.69907
212.71046
212.72255
212.73528
212.74857
212.76229
212.77624
212.79014
212.80359
212.81604
212.82677
212.83481
212.83886
212.83729
212.82794
212.80812
212.77443
215.06068
215.06483
215.0694
215.07442
215.07993
215.08599
215.09265
215.09997
215.10802
215.11685
215.12656
215.13722
215.14892
215.16178
215.17589
215.19137
215.20837
215.22702
215.24748
215.26992
215.29454
215.32152
215.35111
215.38354
215.41907
215.45801
215.50067
215.04921
215.05347
215.05816
215.06331
215.06896
215.07518
215.08201
215.08952
215.09776
215.10682
215.11676
215.12768
215.13966
215.15281
215.16724
215.18307
215.20043
215.21946
215.24032
215.26317
215.2882
215.31558
215.34554
215.37828
215.41403
215.45303
215.4955
215.02619
215.03064
215.03553
215.0409
215.0468
215.05328
215.06039
215.0682
215.07676
215.08616
215.09647
215.10777
215.12015
215.13371
215.14855
215.16479
215.18253
215.20191
215.22304
215.24606
215.27108
215.29822
215.32759
215.35926
215.39325
215.42953
215.46793
214.99119
214.99586
215.00099
215.00662
215.01279
215.01955
215.02696
215.03508
215.04396
215.05367
215.06429
215.07588
215.08851
215.10228
215.11724
215.13347
215.15105
215.17002
215.19043
215.21228
215.23554
215.26011
215.28583
215.31239
215.33934
215.36596
215.39126
214.94403
214.94892
214.95428
214.96014
214.96655
214.97354
214.98118
214.9895
214.99856
215.0084
215.01907
215.03062
215.04309
215.0565
215.07087
215.08618
215.1024
215.11945
215.13718
215.15538
215.1737
215.19168
215.20863
215.22363
215.23541
215.24226
215.24191
214.88529
214.89039
214.89594
214.90199
214.90856
214.9157
214.92343
214.93179
214.9408
214.95047
214.96082
214.97184
214.98351
214.99575
215.00848
215.02155
215.03475
215.04776
215.06015
215.07136
215.08058
215.0868
215.08865
215.08437
215.07169
215.04773
215.00888
217.27453
217.2786
217.28306
217.28798
217.29337
217.29931
217.30583
217.31299
217.32086
217.32951
217.33901
217.34944
217.3609
217.37348
217.38729
217.40244
217.41907
217.43732
217.45734
217.4793
217.50338
217.52978
217.55872
217.59044
217.6252
217.66328
217.70499
217.2633
217.26747
217.27205
217.27709
217.28263
217.28871
217.2954
217.30275
217.31081
217.31967
217.3294
217.34009
217.35181
217.36468
217.3788
217.39429
217.41127
217.42989
217.45029
217.47264
217.49711
217.52389
217.55318
217.58518
217.62012
217.65822
217.6997
217.24072
217.24507
217.24986
217.25511
217.26088
217.26722
217.27418
217.28181
217.29019
217.29938
217.30946
217.32051
217.33262
217.34587
217.36038
217.37624
217.39358
217.41251
217.43314
217.4556
217.48001
217.50648
217.5351
217.56592
217.59897
217.63418
217.67139
217.20633
217.2109
217.21591
217.22141
217.22744
217.23405
217.24128
217.24921
217.25788
217.26736
217.27772
217.28902
217.30135
217.31476
217.32933
217.34514
217.36223
217.38067
217.40047
217.42165
217.44415
217.46786
217.4926
217.51803
217.54367
217.56878
217.5923
217.15996
217.16473
217.16995
217.17566
217.1819
217.18872
217.19615
217.20424
217.21305
217.22261
217.23298
217.24418
217.25626
217.26924
217.28311
217.29788
217.31348
217.32982
217.34674
217.36401
217.38126
217.39798
217.41346
217.42672
217.43641
217.44074
217.43732
217.10216
217.1071
217.11249
217.11836
217.12473
217.13165
217.13913
217.14721
217.15591
217.16523
217.17519
217.18577
217.19692
217.2086
217.22068
217.233
217.24533
217.25733
217.26856
217.27838
217.28598
217.29025
217.28975
217.28263
217.26648
217.23827
217.19415
219.43064
219.4346
219.43895
219.44373
219.44899
219.45477
219.46112
219.4681
219.47576
219.48418
219.49343
219.50359
219.51475
219.52699
219.54044
219.5552
219.57139
219.58916
219.60865
219.63002
219.65346
219.67916
219.70733
219.7382
219.77203
219.80908
219.84967
219.41969
219.42375
219.42822
219.43312
219.43851
219.44444
219.45095
219.4581
219.46596
219.47459
219.48406
219.49446
219.50588
219.51841
219.53215
219.54723
219.56376
219.58188
219.60174
219.62349
219.6473
219.67335
219.70184
219.73296
219.76693
219.80397
219.84427
219.39765
219.40189
219.40655
219.41166
219.41728
219.42345
219.43022
219.43765
219.4458
219.45474
219.46455
219.4753
219.48707
219.49996
219.51407
219.52949
219.54634
219.56473
219.58477
219.60658
219.63026
219.65593
219.68366
219.7135
219.74545
219.77943
219.81526
219.36404
219.36848
219.37335
219.37869
219.38455
219.39097
219.398
219.4057
219.41412
219.42332
219.43337
219.44434
219.45629
219.46929
219.4834
219.4987
219.51524
219.53305
219.55215
219.57255
219.59417
219.6169
219.64052
219.66469
219.68887
219.7123
219.73386
219.31864
219.32326
219.32832
219.33386
219.3399
219.3465
219.35369
219.36152
219.37003
219.37927
219.38927
219.40007
219.4117
219.42418
219.4375
219.45164
219.46653
219.48207
219.49809
219.51432
219.53038
219.54573
219.55961
219.57099
219.57847
219.58014
219.57352
219.26201
219.26679
219.27199
219.27764
219.28379
219.29044
219.29763
219.30539
219.31373
219.32265
219.33216
219.34224
219.35283
219.36386
219.37521
219.3867
219.39808
219.409
219.41895
219.4273
219.43316
219.43537
219.43243
219.42236
219.40265
219.37009
219.32065
221.5229
221.52674
221.53096
221.5356
221.5407
221.54631
221.55247
221.55924
221.56668
221.57485
221.58383
221.59368
221.60451
221.61639
221.62944
221.64375
221.65946
221.6767
221.69561
221.71634
221.73908
221.76401
221.79133
221.82128
221.85408
221.89002
221.92939
221.51226
221.5162
221.52053
221.5253
221.53053
221.53628
221.54259
221.54953
221.55716
221.56553
221.57472
221.58481
221.59588
221.60804
221.62137
221.63599
221.65203
221.6696
221.68886
221.70995
221.73303
221.75829
221.7859
221.81607
221.84898
221.88485
221.92388
221.49083
221.49494
221.49945
221.50441
221.50986
221.51584
221.52241
221.52961
221.53751
221.54618
221.55569
221.5661
221.57751
221.59
221.60367
221.61861
221.63492
221.65272
221.67211
221.69321
221.71611
221.7409
221.76766
221.79643
221.82719
221.85986
221.8942
221.45808
221.46238
221.46709
221.47227
221.47794
221.48415
221.49095
221.4984
221.50654
221.51544
221.52516
221.53575
221.54729
221.55984
221.57346
221.58821
221.60413
221.62126
221.63961
221.65917
221.67985
221.70152
221.72395
221.74677
221.76943
221.7911
221.81062
221.41378
221.41824
221.42313
221.42847
221.43429
221.44065
221.44758
221.45512
221.46332
221.4722
221.48181
221.49217
221.50332
221.51526
221.52797
221.54144
221.55557
221.57027
221.58532
221.60046
221.61527
221.62918
221.64141
221.65085
221.65604
221.65502
221.64514
221.35848
221.36307
221.36806
221.37349
221.37938
221.38575
221.39264
221.40005
221.408
221.41649
221.42552
221.43506
221.44505
221.4554
221.46598
221.4766
221.48698
221.49675
221.50539
221.51221
221.51628
221.51639
221.51096
221.49792
221.47463
221.43773
221.38298
223.54599
223.54971
223.55379
223.55828
223.56321
223.56863
223.57459
223.58114
223.58833
223.59623
223.60491
223.61444
223.6249
223.63639
223.649
223.66284
223.67803
223.69469
223.71297
223.73302
223.75499
223.77909
223.8055
223.83444
223.86614
223.90088
223.93891
223.5357
223.53951
223.5437
223.5483
223.55336
223.55892
223.56502
223.57173
223.5791
223.58719
223.59608
223.60583
223.61654
223.62829
223.64117
223.65531
223.6708
223.68779
223.70639
223.72677
223.74907
223.77347
223.80014
223.82927
223.86104
223.89566
223.93331
223.51492
223.51889
223.52326
223.52805
223.53331
223.53909
223.54543
223.55239
223.56003
223.5684
223.57758
223.58763
223.59865
223.61071
223.6239
223.63831
223.65405
223.67121
223.68991
223.71023
223.73228
223.75614
223.78187
223.80949
223.83898
223.87023
223.903
223.48311
223.48726
223.49181
223.4968
223.50227
223.50826
223.51482
223.52199
223.52984
223.53841
223.54777
223.55796
223.56907
223.58113
223.59421
223.60837
223.62364
223.64004
223.65759
223.67624
223.69593
223.71648
223.73766
223.75906
223.7801
223.79993
223.81734
223.44002
223.44431
223.44901
223.45414
223.45974
223.46584
223.47249
223.47972
223.48757
223.49607
223.50526
223.51517
223.5258
223.53716
223.54924
223.56199
223.57533
223.58912
223.60316
223.61716
223.63067
223.64309
223.6536
223.66105
223.66391
223.66012
223.64696
223.38623
223.39061
223.39538
223.40057
223.40618
223.41225
223.4188
223.42584
223.43338
223.44142
223.44994
223.45891
223.46826
223.47789
223.48767
223.49737
223.50672
223.5153
223.52258
223.52783
223.53007
223.52805
223.52009
223.50405
223.47717
223.43593
223.37591
225.49711
225.50069
225.50463
225.50896
225.51372
225.51895
225.52469
225.53101
225.53794
225.54556
225.55393
225.56312
225.57321
225.58429
225.59645
225.6098
225.62444
225.64051
225.65813
225.67746
225.69865
225.72188
225.74735
225.77525
225.80581
225.8393
225.87596
225.48718
225.49085
225.49489
225.49933
225.50421
225.50957
225.51545
225.52192
225.52903
225.53683
225.5454
225.5548
225.56512
225.57645
225.58887
225.6025
225.61743
225.6338
225.65174
225.67138
225.69287
225.71638
225.74207
225.77012
225.80072
225.83404
225.87027
225.46708
225.47091
225.47512
225.47973
225.4848
225.49037
225.49648
225.50319
225.51054
225.51861
225.52745
225.53713
225.54774
225.55935
225.57204
225.58591
225.60106
225.61756
225.63553
225.65506
225.67623
225.69912
225.72379
225.75023
225.77841
225.80821
225.83937
225.43626
225.44025
225.44463
225.44943
225.45468
225.46044
225.46675
225.47364
225.48118
225.48941
225.49839
225.50818
225.51883
225.53039
225.54292
225.55646
225.57106
225.58671
225.60343
225.62117
225.63982
225.65923
225.67912
225.69908
225.71849
225.73645
225.75172
225.39445
225.39856
225.40306
225.40797
225.41333
225.41918
225.42553
225.43244
225.43994
225.44805
225.45681
225.46623
225.47633
225.4871
225.49852
225.51054
225.52306
225.53593
225.54895
225.56178
225.57396
225.58488
225.59366
225.5991
225.59963
225.5931
225.57667
225.3422
225.34638
225.35092
225.35585
225.36119
225.36695
225.37316
225.37982
225.38694
225.39451
225.40251
225.41089
225.41959
225.4285
225.43745
225.44623
225.45452
225.46191
225.46782
225.47149
225.4719
225.46774
225.45728
225.43826
225.40783
225.36232
225.29712
227.37355
227.37699
227.38078
227.38494
227.38952
227.39455
227.40007
227.40614
227.41281
227.42014
227.42819
227.43703
227.44673
227.45738
227.46908
227.48191
227.49599
227.51144
227.52839
227.54697
227.56735
227.58968
227.61416
227.64098
227.67037
227.70255
227.7378
227.36398
227.36751
227.3714
227.37567
227.38036
227.38551
227.39117
227.39739
227.40422
227.41173
227.41996
227.429
227.43893
227.44982
227.46176
227.47486
227.48921
227.50495
227.52218
227.54105
227.56171
227.58429
227.60897
227.63591
227.66528
227.69727
227.73202
227.3446
227.34828
227.35232
227.35676
227.36163
227.36698
227.37285
227.37929
227.38635
227.3941
227.40259
227.41189
227.42208
227.43322
227.4454
227.45871
227.47323
227.48906
227.50628
227.52498
227.54525
227.56714
227.5907
227.61592
227.64276
227.67106
227.70056
227.31481
227.31864
227.32283
227.32743
227.33247
227.33799
227.34403
227.35064
227.35786
227.36574
227.37433
227.38369
227.39387
227.40492
227.41688
227.42979
227.44368
227.45857
227.47444
227.49122
227.50883
227.52706
227.54564
227.56412
227.58186
227.59793
227.61103
227.27432
227.27825
227.28255
227.28724
227.29235
227.29792
227.30398
227.31056
227.31769
227.3254
227.33371
227.34264
227.35219
227.36235
227.3731
227.38437
227.39605
227.408
227.41996
227.4316
227.44245
227.45184
227.45887
227.4623
227.46048
227.45121
227.43153
227.2237
227.22766
227.23197
227.23664
227.24169
227.24714
227.25299
227.25927
227.26596
227.27305
227.28051
227.2883
227.29633
227.3045
227.31261
227.32045
227.32768
227.33386
227.33839
227.34047
227.33905
227.33276
227.31979
227.29783
227.26388
227.21415
227.14386
229.17443
229.17773
229.18137
229.18536
229.18975
229.19458
229.19988
229.20571
229.21211
229.21914
229.22686
229.23535
229.24466
229.25488
229.2661
229.27842
229.29193
229.30676
229.32302
229.34085
229.3604
229.38183
229.40532
229.43106
229.45925
229.49013
229.52394
229.16523
229.16862
229.17235
229.17645
229.18095
229.18589
229.19133
229.19729
229.20385
229.21105
229.21895
229.22763
229.23715
229.24759
229.25905
229.27161
229.28539
229.30048
229.31701
229.33511
229.35491
229.37656
229.40021
229.42603
229.45418
229.48481
229.51809
229.14658
229.1501
229.15398
229.15823
229.1629
229.16803
229.17366
229.17983
229.1866
229.19403
229.20216
229.21108
229.22083
229.2315
229.24317
229.25591
229.26981
229.28495
229.30141
229.31929
229.33864
229.35952
229.38197
229.40597
229.43145
229.45826
229.48609
229.11783
229.12149
229.12551
229.12991
229.13473
229.14001
229.14578
229.15209
229.15899
229.16652
229.17472
229.18365
229.19335
229.20388
229.21526
229.22754
229.24073
229.25485
229.26985
229.28569
229.30224
229.31929
229.33655
229.35356
229.36964
229.38383
229.39477
229.07869
229.08244
229.08653
229.09099
229.09586
229.10115
229.10691
229.11316
229.11992
229.12722
229.13508
229.14352
229.15252
229.16208
229.17215
229.18266
229.19351
229.20452
229.21543
229.22589
229.2354
229.24328
229.24857
229.25001
229.24589
229.2339
229.21104
229.0297
229.03346
229.03753
229.04194
229.0467
229.05183
229.05733
229.06322
229.06947
229.07608
229.08301
229.09021
229.09758
229.105
229.11228
229.11918
229.12536
229.13033
229.13349
229.134
229.13078
229.12238
229.10696
229.0821
229.04471
228.99088
228.91563
230.89864
230.90181
230.90529
230.90911
230.91332
230.91794
230.92301
230.92859
230.93472
230.94145
230.94885
230.95697
230.96588
230.97567
230.98641
230.9982
231.01114
231.02533
231.0409
231.05797
231.07668
231.09719
231.11967
231.14431
231.17129
231.20084
231.2332
230.88983
230.89307
230.89664
230.90056
230.90487
230.90961
230.91481
230.92052
230.92679
230.93368
230.94125
230.94955
230.95866
230.96866
230.97962
230.99165
231.00483
231.01927
231.03508
231.05239
231.07133
231.09204
231.11466
231.13934
231.16624
231.1955
231.22727
230.87191
230.87528
230.87899
230.88306
230.88752
230.89243
230.89781
230.90371
230.91019
230.91728
230.92506
230.93358
230.9429
230.95309
230.96423
230.9764
230.98966
231.00411
231.01981
231.03684
231.05527
231.07513
231.09646
231.11922
231.14333
231.16862
231.19478
230.84423
230.84772
230.85155
230.85575
230.86035
230.86538
230.87088
230.8769
230.88347
230.89064
230.89845
230.90694
230.91617
230.92616
230.93696
230.9486
230.96109
230.97442
230.98856
231.00343
231.01892
231.03479
231.05073
231.06625
231.08066
231.09296
231.10177
230.80646
230.81002
230.8139
230.81813
230.82275
230.82777
230.83322
230.83913
230.84552
230.85241
230.85982
230.86776
230.87621
230.88515
230.89454
230.9043
230.91431
230.92437
230.93423
230.94352
230.95169
230.95806
230.96163
230.96108
230.95467
230.94001
230.914
230.75919
230.76273
230.76656
230.7707
230.77517
230.77998
230.78512
230.79061
230.79643
230.80255
230.80895
230.81554
230.82224
230.82892
230.83537
230.84133
230.84644
230.85022
230.85202
230.85097
230.84595
230.83548
230.81764
230.78993
230.74918
230.69131
230.61124
232.54659
232.54962
232.55294
232.5566
232.56062
232.56503
232.56989
232.57522
232.58107
232.58751
232.59457
232.60233
232.61085
232.62021
232.63048
232.64174
232.65411
232.66767
232.68254
232.69886
232.71674
232.73634
232.75782
232.78136
232.80714
232.83538
232.8663
232.53816
232.54126
232.54467