/*--------------------------------*- C++ -*----------------------------------*\
| =========                 |                                                 |
| \\      /  F ield         | OpenFOAM: The Open Source CFD Toolbox           |
|  \\    /   O peration     | Version:  3.0.1                                 |
|   \\  /    A nd           | Web:      www.OpenFOAM.org                      |
|    \\/     M anipulation  |                                                 |
\*---------------------------------------------------------------------------*/
FoamFile
{
    version     2.0;
    format      ascii;
    class       volScalarField;
    location    "6000/fluid";
    object      ILambda_1_0;
}
// * * * * * * * * * * * * * * * * * * * * * * * * * * * * * * * * * * * * * //

dimensions      [1 0 -3 0 0 0 0];

internalField   nonuniform List<scalar> 
162000
(
198.12681
198.10095
198.07219
198.04014
198.00439
197.96442
197.91969
197.86951
197.81314
197.74972
197.67828
197.59774
197.50695
197.40469
197.28972
197.16085
197.01699
196.85726
196.68108
196.48824
196.27898
196.05408
195.81484
195.56306
195.30105
195.0315
194.75744
198.01232
197.97819
197.94003
197.89729
197.84936
197.79552
197.735
197.66691
197.59034
197.50431
197.4078
197.29987
197.17959
197.0462
196.8991
196.73795
196.5627
196.3736
196.17128
195.95667
195.73103
195.49586
195.25289
195.00392
194.75082
194.49547
194.23965
197.8436
197.79706
197.7448
197.68612
197.62028
197.54654
197.46415
197.37241
197.27068
197.15842
197.03523
196.90087
196.75527
196.59859
196.43117
196.25355
196.06645
195.87073
195.66735
195.45733
195.24173
195.02155
194.79778
194.57131
194.34294
194.1134
193.88332
197.62105
197.55623
197.48417
197.40451
197.31696
197.2213
197.11739
197.00518
196.88471
196.75611
196.6196
196.47546
196.32405
196.16577
196.00106
195.83036
195.65414
195.47285
195.28694
195.0968
194.90284
194.7054
194.50483
194.30141
194.09543
193.88714
193.67677
197.34517
197.26133
197.17288
197.0797
196.9817
196.87877
196.77083
196.65781
196.53961
196.4162
196.28753
196.15358
196.01436
195.86988
195.72021
195.56544
195.40566
195.24103
195.0717
194.89786
194.7197
194.53744
194.35129
194.16147
193.9682
193.77169
193.57213
197.0572
196.98888
196.91568
196.83739
196.75385
196.66487
196.57033
196.47009
196.36407
196.2522
196.13445
196.0108
195.8813
195.74599
195.60497
195.45836
195.3063
195.14896
194.98654
194.81924
194.64727
194.47087
194.29026
194.10566
193.9173
193.72538
193.5301
199.61004
199.60139
199.5916
199.58049
199.56784
199.5534
199.53686
199.51785
199.49596
199.47069
199.44149
199.40774
199.36875
199.32382
199.27221
199.21318
199.14606
199.07024
198.98522
198.89061
198.78621
198.67194
198.54785
198.41412
198.27101
198.11881
197.95782
199.48542
199.47194
199.45663
199.4392
199.41931
199.39657
199.37057
199.34083
199.30689
199.26824
199.22438
199.17488
199.11931
199.05736
198.98879
198.91346
198.83135
198.74253
198.64713
198.54536
198.4374
198.32343
198.20358
198.0779
197.94634
197.80873
197.66485
199.30953
199.28871
199.26502
199.23813
199.20768
199.17338
199.13492
199.09209
199.04473
198.99275
198.93617
198.87505
198.80954
198.73985
198.66618
198.58875
198.50772
198.4232
198.3352
198.24364
198.14832
198.04894
197.94513
197.83642
197.72231
197.60224
197.47565
199.0839
199.05234
199.01743
198.97924
198.9379
198.89359
198.84655
198.79702
198.74527
198.69155
198.63606
198.57893
198.52024
198.45995
198.39792
198.33391
198.26761
198.19861
198.12642
198.05054
197.97043
197.88554
197.79534
197.69929
197.59689
197.48767
197.37116
198.81009
198.77083
198.73183
198.69315
198.65483
198.61681
198.579
198.54123
198.50326
198.4648
198.42548
198.3849
198.34263
198.29821
198.25115
198.20097
198.1472
198.08937
198.02704
197.95979
197.8872
197.80888
197.72447
197.6336
197.53593
197.43111
197.31878
198.52966
198.51942
198.50792
198.49502
198.48055
198.46434
198.44621
198.42595
198.40335
198.37818
198.35021
198.31919
198.28485
198.24694
198.20517
198.15926
198.10894
198.0539
197.99386
197.92853
197.8576
197.78077
197.69775
197.60823
197.5119
197.40843
197.2975
201.6005
201.59039
201.57902
201.56623
201.55179
201.53545
201.51691
201.49583
201.47181
201.44439
201.41307
201.3773
201.33651
201.29012
201.23758
201.17842
201.11224
201.03881
200.95809
200.8702
200.77549
200.67448
200.56781
200.45623
200.34049
200.22125
200.09904
201.46507
201.44994
201.43286
201.41354
201.39167
201.36685
201.3387
201.30679
201.27067
201.22994
201.1842
201.13313
201.0765
201.01423
200.94636
200.87309
200.79478
200.71194
200.62517
200.53514
200.44252
200.34793
200.25188
200.1547
200.05656
199.9574
199.85696
201.27975
201.257
201.23127
201.20223
201.16955
201.13297
201.09224
201.04723
200.99787
200.94423
200.88648
200.82492
200.75996
200.69207
200.62182
200.54975
200.4764
200.40225
200.32766
200.25287
200.17796
200.10288
200.02739
199.95114
199.87367
199.7944
199.71269
201.04617
201.01226
200.97491
200.93423
200.89041
200.84373
200.79451
200.74317
200.69012
200.63581
200.58065
200.52504
200.4693
200.41366
200.35825
200.30313
200.24821
200.19332
200.1382
200.08253
200.0259
199.9679
199.90806
199.84591
199.78096
199.71272
199.64068
200.76536
200.72325
200.68145
200.64013
200.59941
200.55938
200.52007
200.48146
200.4435
200.40606
200.36898
200.33206
200.29504
200.25768
200.21968
200.18075
200.14061
200.09895
200.05548
200.00991
199.96196
199.91133
199.85775
199.8009
199.74047
199.67613
199.60752
200.47893
200.46591
200.45187
200.43675
200.4205
200.40304
200.3843
200.36422
200.34273
200.31975
200.29519
200.26899
200.24104
200.21126
200.17955
200.14578
200.10985
200.07163
200.03096
199.98769
199.94164
199.89263
199.84042
199.78479
199.72547
199.66216
199.59452
203.86925
203.85828
203.84596
203.83211
203.8165
203.79886
203.77888
203.75618
203.73036
203.70093
203.66736
203.62908
203.58549
203.53597
203.47996
203.41695
203.34655
203.26853
203.18286
203.08974
202.98958
202.88305
202.77097
202.65432
202.5341
202.41129
202.28678
203.72724
203.7111
203.69291
203.67235
203.64909
203.62273
203.59285
203.559
203.52072
203.47755
203.4291
203.37501
203.31504
203.24908
203.17716
203.09951
203.01651
202.92873
202.83683
202.74161
202.64388
202.54441
202.44392
202.34299
202.24202
202.14121
202.04058
203.53587
203.5119
203.48481
203.45424
203.41984
203.38133
203.33845
203.29103
203.239
203.18239
203.12137
203.05624
202.9874
202.91536
202.84069
202.76401
202.68592
202.60697
202.52764
202.44829
202.36916
202.29034
202.21178
202.13332
202.05467
201.97547
201.89529
203.29675
203.26127
203.22216
203.17951
203.1335
203.0844
203.03253
202.97829
202.92208
202.86436
202.80556
202.74609
202.6863
202.62645
202.56675
202.50728
202.44806
202.38898
202.32991
202.2706
202.2108
202.1502
202.08849
202.02533
201.9604
201.89338
201.82392
203.01048
202.96635
202.92237
202.8787
202.83544
202.79269
202.75047
202.70877
202.66754
202.62667
202.586
202.54535
202.50452
202.46328
202.4214
202.37863
202.33475
202.28954
202.24279
202.1943
202.1439
202.09141
202.03667
201.9795
201.91974
201.8572
201.7917
202.71896
202.70399
202.68784
202.67046
202.65176
202.63168
202.61017
202.58714
202.56254
202.5363
202.50836
202.47867
202.44715
202.41376
202.37844
202.34113
202.30177
202.2603
202.21666
202.17079
202.1226
202.07202
202.01894
201.96326
201.90486
201.84357
201.77925
206.27381
206.26238
206.24956
206.23515
206.21892
206.20059
206.17983
206.15627
206.12947
206.09894
206.06414
206.02447
205.97931
205.92802
205.87
205.80472
205.73176
205.65086
205.56196
205.46524
205.36109
205.25017
205.13332
205.01151
204.88579
204.75719
204.62668
206.12782
206.11115
206.09235
206.07112
206.0471
206.01989
205.98905
205.95413
205.91463
205.87011
205.82012
205.76429
205.70237
205.63422
205.55985
205.47948
205.39346
205.30235
205.20682
205.10764
205.00563
204.9016
204.79628
204.69029
204.58405
204.47786
204.37178
205.93259
205.90795
205.88009
205.84865
205.8133
205.7737
205.72959
205.6808
205.62723
205.56891
205.50599
205.43875
205.36758
205.29299
205.21553
205.13582
205.05446
204.972
204.88892
204.8056
204.72229
204.63909
204.55599
204.47285
204.38943
204.30541
204.22042
205.68967
205.65328
205.61316
205.56938
205.52212
205.47164
205.41826
205.36234
205.30432
205.24462
205.18368
205.1219
205.05962
204.99711
204.93456
204.87207
204.80963
204.74716
204.68451
204.62147
204.55777
204.49313
204.42725
204.35983
204.29058
204.2192
204.14541
205.3994
205.35411
205.30889
205.26389
205.21922
205.17495
205.13112
205.0877
205.04463
205.00178
204.95901
204.91612
204.8729
204.82911
204.78453
204.73889
204.69198
204.64358
204.59347
204.54147
204.4874
204.43112
204.37247
204.3113
204.24748
204.18086
204.1113
205.10396
205.08802
205.07081
205.05227
205.03232
205.01089
204.9879
204.96329
204.93698
204.90889
204.87897
204.84713
204.81333
204.7775
204.73957
204.69949
204.65719
204.61262
204.56573
204.51644
204.46469
204.41042
204.35354
204.29397
204.23161
204.16635
204.09808
208.72536
208.7137
208.70063
208.68595
208.6694
208.65072
208.62956
208.60556
208.57826
208.54717
208.51173
208.47133
208.42534
208.37312
208.31405
208.24758
208.17327
208.09087
208.00028
207.90168
207.79547
207.68228
207.56293
207.43841
207.30976
207.17802
207.04412
208.57646
208.55949
208.54037
208.51878
208.49435
208.46667
208.43532
208.3998
208.35965
208.31437
208.26354
208.20677
208.1438
208.07447
207.99881
207.917
207.82941
207.73659
207.6392
207.53802
207.43386
207.32753
207.21975
207.11113
207.00212
206.89298
206.78379
208.37808
208.35304
208.32475
208.29282
208.25691
208.21669
208.17189
208.12232
208.0679
208.00863
207.94468
207.87631
207.80393
207.72802
207.64916
207.56794
207.48498
207.40082
207.31595
207.23073
207.14541
207.06008
206.97472
206.88919
206.80325
206.71656
206.62873
208.13175
208.09482
208.0541
208.00966
207.96168
207.91042
207.8562
207.79939
207.74041
207.67971
207.61771
207.55481
207.49135
207.42761
207.36377
207.29992
207.23604
207.17206
207.10781
207.04306
206.97755
206.91098
206.84305
206.77344
206.70185
206.62798
206.55155
207.83769
207.79172
207.74582
207.70011
207.65472
207.60972
207.56513
207.52093
207.47704
207.43335
207.38969
207.34588
207.30167
207.25685
207.21115
207.16433
207.11615
207.06637
207.0148
206.96122
206.90546
206.84735
206.78674
206.72348
206.65741
206.5884
206.51627
207.5385
207.52222
207.50464
207.4857
207.46531
207.4434
207.41989
207.3947
207.36777
207.339
207.30833
207.27569
207.24101
207.20422
207.16526
207.12405
207.08053
207.03465
206.98632
206.93549
206.88208
206.82601
206.76721
206.70557
206.641
206.57338
206.50258
211.17562
211.16386
211.15067
211.13584
211.11915
211.10029
211.07894
211.05471
211.02716
210.99579
210.96002
210.91926
210.87285
210.82015
210.76054
210.69347
210.6185
210.53536
210.44398
210.34451
210.23736
210.12317
210.00277
209.87714
209.74734
209.61438
209.47922
211.02423
211.0071
210.98781
210.96602
210.94137
210.91344
210.8818
210.84597
210.80545
210.75977
210.70848
210.6512
210.58767
210.51774
210.44142
210.35891
210.27059
210.17698
210.07878
209.97677
209.87175
209.76455
209.65588
209.54635
209.4364
209.32628
209.21607
210.82306
210.7978
210.76925
210.73703
210.7008
210.66022
210.61502
210.56502
210.51012
210.45034
210.38585
210.31691
210.24393
210.16741
210.08792
210.00608
209.92248
209.83769
209.7522
209.66635
209.58039
209.49443
209.40842
209.32221
209.23555
209.14808
209.05943
210.57363
210.53637
210.49528
210.45045
210.40206
210.35036
210.29568
210.2384
210.17896
210.11779
210.05532
209.99197
209.92808
209.86391
209.79965
209.7354
209.67113
209.60676
209.54211
209.47695
209.41102
209.34399
209.27556
209.2054
209.13321
209.05866
208.98147
210.27607
210.22972
210.18343
210.13737
210.09164
210.04632
210.00143
209.95696
209.91282
209.8689
209.82502
209.781
209.73659
209.69157
209.64567
209.59863
209.55023
209.50021
209.44835
209.39447
209.33836
209.27986
209.2188
209.15502
209.08838
209.01871
208.94586
209.97342
209.95713
209.93955
209.92059
209.90019
209.87826
209.85472
209.8295
209.80252
209.7737
209.74296
209.71024
209.67547
209.63856
209.59946
209.55809
209.51438
209.46828
209.4197
209.36857
209.31482
209.25837
209.19912
209.13697
209.07182
209.00355
208.93202
213.59624
213.58443
213.57119
213.55631
213.53955
213.52061
213.49917
213.47485
213.44718
213.41567
213.37974
213.3388
213.29219
213.23926
213.17939
213.11204
213.03677
212.95332
212.86161
212.76182
212.65437
212.5399
212.41927
212.29345
212.16352
212.0305
211.89535
213.44248
213.42527
213.40588
213.38398
213.3592
213.33113
213.29933
213.26331
213.22259
213.17667
213.12513
213.06759
213.00377
212.93353
212.85691
212.7741
212.68549
212.59162
212.4932
212.39101
212.28588
212.17863
212.06998
211.96054
211.85075
211.74086
211.63092
213.23856
213.21315
213.18444
213.15205
213.11561
213.07481
213.02937
212.97911
212.92393
212.86388
212.7991
212.72989
212.65666
212.57991
212.50024
212.41826
212.33459
212.24978
212.16433
212.0786
211.99283
211.9071
211.82139
211.73553
211.64925
211.56219
211.47396
212.98602
212.94853
212.9072
212.86213
212.81348
212.76152
212.7066
212.6491
212.58945
212.52811
212.46553
212.4021
212.33819
212.27406
212.2099
212.1458
212.08174
212.01764
211.95331
211.88851
211.82296
211.75636
211.68837
211.61867
211.54694
211.47286
211.39613
212.68498
212.63838
212.59189
212.54566
212.49981
212.45441
212.4095
212.36505
212.32099
212.27719
212.23349
212.18968
212.14553
212.1008
212.05523
212.00856
211.96054
211.91093
211.85951
211.80607
211.75042
211.69238
211.63179
211.56848
211.5023
211.43309
211.36067
212.37889
212.3628
212.34543
212.3267
212.30653
212.28486
212.26159
212.23665
212.20997
212.18147
212.15107
212.11871
212.08429
212.04777
212.00906
211.9681
211.92482
211.87914
211.831
211.78032
211.72703
211.67103
211.61224
211.55055
211.48585
211.41802
211.34692
215.97136
215.95955
215.9463
215.9314
215.91462
215.89566
215.8742
215.84984
215.82213
215.79057
215.75459
215.71357
215.66688
215.61387
215.55391
215.48646
215.41111
215.32758
215.23582
215.13603
215.02863
214.91429
214.79388
214.6684
214.53892
214.40648
214.27205
215.81531
215.79806
215.77862
215.75666
215.73182
215.70368
215.67179
215.63567
215.59483
215.5488
215.49713
215.43945
215.3755
215.30514
215.22841
215.14553
215.05689
214.96306
214.86475
214.76276
214.65793
214.55109
214.44297
214.33418
214.22516
214.11615
214.00721
215.60874
215.58325
215.55443
215.52192
215.48536
215.44442
215.39883
215.34841
215.29309
215.23289
215.16799
215.09868
215.02539
214.94864
214.86903
214.78719
214.70374
214.61925
214.53422
214.44901
214.36386
214.27887
214.19398
214.10903
214.02374
213.93775
213.85065
215.3532
215.31556
215.27407
215.22882
215.18001
215.1279
215.07285
215.01526
214.95556
214.89422
214.8317
214.76841
214.7047
214.64086
214.57708
214.51344
214.44993
214.38645
214.32282
214.25879
214.19409
214.12839
214.06137
213.99268
213.92201
213.84903
213.77344
215.04875
215.00199
214.95538
214.9091
214.86324
214.81791
214.77312
214.72885
214.68504
214.64155
214.59823
214.55486
214.51123
214.46706
214.42211
214.37611
214.32882
214.27998
214.22938
214.17679
214.12204
214.06494
214.00532
213.94302
213.87789
213.80975
213.73844
214.73929
214.7235
214.70645
214.68807
214.66828
214.647
214.62416
214.59968
214.57349
214.54551
214.51566
214.48387
214.45007
214.4142
214.37617
214.33593
214.2934
214.24851
214.20119
214.15137
214.09896
214.04389
213.98605
213.92535
213.86168
213.79491
213.72489
218.29102
218.27922
218.26599
218.2511
218.23434
218.21539
218.19394
218.16958
218.14188
218.11032
218.07434
218.03332
217.98663
217.93361
217.87366
217.80623
217.73091
217.64746
217.55583
217.45622
217.3491
217.23514
217.11523
216.9904
216.86172
216.73026
216.59697
218.13271
218.11544
218.09598
218.074
218.04912
218.02095
217.98901
217.95284
217.91195
217.86586
217.81414
217.75641
217.69242
217.62205
217.54534
217.46253
217.37402
217.28041
217.18241
217.08085
216.97658
216.87043
216.76315
216.65536
216.54748
216.43977
216.33226
217.9235
217.89794
217.86906
217.83648
217.79983
217.7588
217.71312
217.66262
217.60721
217.54696
217.48203
217.41273
217.33951
217.2629
217.18351
217.10198
217.01895
216.93499
216.85061
216.76618
216.68194
216.59797
216.51423
216.43053
216.34661
216.26209
216.17655
217.66497
217.62721
217.5856
217.54024
217.49133
217.43915
217.38405
217.32645
217.26681
217.20558
217.14325
217.08023
217.01688
216.95349
216.89026
216.82727
216.76451
216.70188
216.6392
216.57621
216.51262
216.44813
216.38238
216.31504
216.24579
216.1743
216.10025
217.35716
217.31031
217.26366
217.21738
217.17161
217.12642
217.08185
217.03787
216.99442
216.95138
216.90857
216.8658
216.82282
216.77939
216.73524
216.69011
216.64375
216.5959
216.54635
216.49488
216.44129
216.38542
216.32708
216.26612
216.20237
216.13568
216.06588
217.04442
217.029
217.01235
216.9944
216.97507
216.95428
216.93197
216.90806
216.88247
216.85513
216.82597
216.79491
216.76189
216.72683
216.68966
216.65033
216.60875
216.56486
216.5186
216.46988
216.41863
216.36476
216.30819
216.2488
216.18649
216.12114
216.0526
220.54917
220.5374
220.5242
220.50935
220.49261
220.4737
220.45229
220.42797
220.40031
220.36879
220.33285
220.29188
220.24524
220.19228
220.1324
220.06507
219.98988
219.9066
219.81521
219.71592
219.60922
219.4958
219.37657
219.25258
219.12493
218.99469
218.86282
220.38867
220.37141
220.35195
220.32996
220.30508
220.2769
220.24495
220.20877
220.16787
220.12177
220.07004
220.01232
219.94836
219.87805
219.80145
219.71881
219.63055
219.53727
219.43972
219.33873
219.23518
219.1299
219.02366
218.91706
218.81056
218.70438
218.59857
220.17692
220.15133
220.12241
220.08978
220.05308
220.012
219.96627
219.91573
219.8603
219.80004
219.73515
219.66594
219.59287
219.51648
219.43741
219.3563
219.2738
219.19051
219.10693
219.02343
218.94025
218.85749
218.77508
218.69286
218.61052
218.5277
218.44397
219.9155
219.87766
219.83596
219.79053
219.74156
219.68935
219.63425
219.57671
219.51717
219.45613
219.39406
219.33139
219.26849
219.20566
219.14308
219.08086
219.01897
218.95733
218.89573
218.83392
218.77162
218.7085
218.64422
218.57843
218.51081
218.44103
218.36877
219.60442
219.55751
219.51085
219.46464
219.41899
219.374
219.3297
219.28608
219.24307
219.20054
219.15833
219.11623
219.07401
219.03141
218.98817
218.94402
218.89871
218.85199
218.80363
218.75341
218.70116
218.64667
218.58979
218.53036
218.46821
218.40319
218.33513
219.28848
219.27346
219.25725
219.23977
219.22095
219.20072
219.179
219.15571
219.1308
219.10417
219.07577
219.04553
219.01336
218.97922
218.94302
218.9047
218.8642
218.82145
218.77638
218.72891
218.67897
218.62647
218.57133
218.51345
218.45272
218.389
218.32218
222.74125
222.72952
222.71635
222.70155
222.68486
222.66601
222.64465
222.62039
222.59279
222.56134
222.52547
222.48458
222.43803
222.38518
222.32542
222.25825
222.18325
222.10022
222.00915
221.91028
221.8041
221.69135
221.57294
221.44995
221.32348
221.19463
221.06437
222.5786
222.56135
222.5419
222.51993
222.49506
222.46689
222.43496
222.3988
222.35791
222.31184
222.26014
222.20248
222.1386
222.06841
221.99199
221.90958
221.82164
221.7288
221.63179
221.53149
221.42878
221.32451
221.21944
221.1142
221.00924
220.90477
220.80085
222.36432
222.33872
222.30977
222.27712
222.2404
222.19929
222.15355
222.103
222.0476
221.98739
221.92259
221.85352
221.78067
221.70458
221.6259
221.5453
221.46344
221.38092
221.29824
221.21579
221.13381
221.05238
220.97146
220.89084
220.81025
220.7293
220.64756
222.10007
222.06217
222.02042
221.97494
221.92595
221.87375
221.8187
221.76126
221.70189
221.64109
221.57934
221.51709
221.45472
221.39252
221.33069
221.26932
221.20841
221.14784
221.08744
221.02694
220.96604
220.90442
220.84173
220.77764
220.7118
220.64389
220.57359
221.78582
221.73888
221.69226
221.64614
221.60067
221.55592
221.51195
221.46874
221.42621
221.38426
221.34271
221.30135
221.25996
221.21827
221.17602
221.13294
221.08877
221.04327
220.9962
220.94736
220.89654
220.84357
220.78828
220.73051
220.67011
220.60691
220.54075
221.46677
221.4522
221.43646
221.4195
221.40123
221.38158
221.36049
221.33789
221.3137
221.28785
221.26027
221.2309
221.19967
221.16651
221.13136
221.09414
221.05481
221.01328
220.9695
220.92339
220.87487
220.82387
220.77029
220.71405
220.65502
220.5931
220.52815
224.86418
224.8525
224.83939
224.82464
224.80802
224.78923
224.76795
224.74377
224.71626
224.6849
224.64913
224.60835
224.56192
224.50921
224.44963
224.38266
224.30792
224.2252
224.13452
224.03614
223.93058
223.81858
223.70109
223.5792
223.45404
223.32671
223.1982
224.69946
224.68224
224.66282
224.64088
224.61605
224.58791
224.55602
224.51989
224.47906
224.43304
224.38142
224.32385
224.2601
224.19008
224.11388
224.03177
223.94422
223.85188
223.7555
223.65597
223.55418
223.45101
223.34722
223.24345
223.14013
223.03751
222.9356
224.48279
224.45719
224.42824
224.39558
224.35886
224.31776
224.27203
224.22151
224.16615
224.10603
224.04136
223.97249
223.8999
223.82417
223.74594
223.66592
223.58475
223.50307
223.42137
223.34005
223.25935
223.17935
223.1
223.0211
222.94236
222.8634
222.78377
224.21582
224.17788
224.13609
224.0906
224.04162
223.98945
223.93449
223.87718
223.81802
223.7575
223.69612
223.63434
223.57254
223.51102
223.44999
223.38954
223.32966
223.27025
223.21111
223.15198
223.09257
223.03254
222.97154
222.90923
222.84527
222.77933
222.71111
223.89849
223.85155
223.80499
223.75901
223.71373
223.66926
223.62565
223.58287
223.54088
223.49953
223.45868
223.41812
223.3776
223.33687
223.29566
223.2537
223.21074
223.16652
223.12081
223.07341
223.02411
222.97274
222.91912
222.86311
222.80454
222.74326
222.67911
223.57644
223.56233
223.54708
223.53065
223.51295
223.49393
223.4735
223.45161
223.42817
223.40313
223.37642
223.34797
223.31771
223.28559
223.25153
223.21547
223.17736
223.13712
223.09469
223.05001
223.00299
222.95356
222.90163
222.84711
222.7899
222.72987
222.66689
226.91526
226.90363
226.89059
226.87591
226.85936
226.84065
226.81945
226.79537
226.76796
226.73671
226.70107
226.66042
226.61415
226.56162
226.50224
226.43551
226.36107
226.27872
226.1885
226.09067
225.9858
225.87463
225.75815
225.63746
225.51371
225.38802
225.26137
226.74853
226.73134
226.71196
226.69006
226.66528
226.63719
226.60535
226.56928
226.52852
226.48258
226.43106
226.37362
226.31003
226.24022
226.1643
226.08255
225.99545
225.90366
225.80798
225.70929
225.60852
225.50653
225.40412
225.3019
225.20034
225.09965
224.99987
226.5295
226.5039
226.47497
226.44233
226.40562
226.36455
226.31886
226.26839
226.21312
226.15312
226.08863
226.01999
225.94771
225.87238
225.79467
225.71527
225.63487
225.55409
225.47345
225.39333
225.31399
225.2355
225.15781
225.08072
225.00393
224.92704
224.84962
226.25987
226.22191
226.18012
226.13463
226.08568
226.03359
225.97875
225.92161
225.86269
225.8025
225.74153
225.68027
225.61909
225.55831
225.49813
225.43866
225.37988
225.32168
225.26387
225.20619
225.14833
225.08995
225.03072
224.97027
224.90828
224.84441
224.77836
225.93959
225.89267
225.8462
225.80037
225.75533
225.71117
225.66795
225.62565
225.58422
225.54353
225.50342
225.46368
225.42408
225.38436
225.34424
225.30346
225.26175
225.21887
225.17459
225.12868
225.08097
225.03126
224.97939
224.92521
224.86856
224.80929
224.74725
225.61465
225.60101
225.58629
225.57041
225.55331
225.53493
225.51519
225.49403
225.47139
225.44719
225.42138
225.39388
225.36464
225.33359
225.30068
225.26583
225.22899
225.19009
225.14908
225.10588
225.06042
225.01263
224.96242
224.9097
224.85438
224.79632
224.73542
228.89267
228.88111
228.86814
228.85354
228.83708
228.81846
228.79736
228.77339
228.7461
228.71498
228.67948
228.639
228.5929
228.54058
228.48144
228.415
228.3409
228.25897
228.16925
228.07204
227.96791
227.85765
227.74225
227.62284
227.50058
227.3766
227.25191
228.72402
228.70688
228.68756
228.66571
228.64099
228.61296
228.5812
228.54522
228.50454
228.45872
228.40733
228.35004
228.28665
228.2171
228.14148
228.06013
227.97353
227.88235
227.78743
227.68964
227.58994
227.4892
227.38822
227.28764
227.1879
227.08923
226.99166
228.50277
228.4772
228.44829
228.41568
228.37901
228.33798
228.29235
228.24197
228.18681
228.12697
228.06267
227.99431
227.92238
227.84749
227.77034
227.69162
227.61202
227.5322
227.45265
227.3738
227.29587
227.21895
227.14297
227.06775
226.99296
226.91822
226.84307
228.23061
228.19265
228.15087
228.10542
228.05652
228.00452
227.94982
227.89288
227.83423
227.77439
227.71388
227.65316
227.59264
227.53263
227.47334
227.41488
227.35724
227.30029
227.24386
227.18766
227.13141
227.07475
227.01733
226.9588
226.89883
226.83709
226.77326
227.90748
227.86061
227.81425
227.7686
227.72381
227.67998
227.63718
227.59538
227.55453
227.51452
227.47518
227.4363
227.39765
227.35896
227.31996
227.28039
227.23997
227.19847
227.15565
227.11129
227.0652
227.0172
226.96713
226.91483
226.86016
226.80295
226.74307
227.57976
227.56661
227.55242
227.53711
227.52062
227.50289
227.48386
227.46346
227.44163
227.4183
227.3934
227.36689
227.33869
227.30874
227.27699
227.24338
227.20785
227.17033
227.13077
227.0891
227.04524
226.99914
226.95069
226.89983
226.84644
226.79042
226.73164
230.7947
230.78322
230.77032
230.75581
230.73944
230.72093
230.69994
230.67609
230.64893
230.61796
230.58262
230.54232
230.49643
230.44434
230.38547
230.31935
230.24563
230.16415
230.07498
229.97844
229.87512
229.76582
229.65157
229.5335
229.41281
229.29063
229.16797
230.62419
230.60711
230.58785
230.56607
230.54141
230.51347
230.48179
230.4459
230.40534
230.35964
230.30841
230.25131
230.18815
230.11888
230.04362
229.9627
229.87664
229.78613
229.69201
229.59519
229.49661
229.39719
229.29771
229.19883
229.10098
229.0044
228.90911
230.40076
230.37523
230.34637
230.3138
230.27719
230.23622
230.19067
230.1404
230.08538
230.02572
229.96166
229.8936
229.82206
229.74766
229.6711
229.5931
229.51436
229.43553
229.35715
229.2796
229.20314
229.12784
229.05365
228.98034
228.90763
228.83509
228.76229
230.12615
230.08822
230.04647
230.00106
229.95225
229.90036
229.84583
229.78913
229.73078
229.67133
229.6113
229.55116
229.49133
229.43214
229.37378
229.31638
229.25991
229.20426
229.14924
229.09459
229.03998
228.98507
228.92952
228.87297
228.81507
228.75551
228.69398
229.8003
229.7535
229.70728
229.66183
229.61732
229.57385
229.53148
229.49021
229.44998
229.41068
229.37213
229.33414
229.29646
229.25883
229.22099
229.18266
229.14357
229.10349
229.06216
229.01938
228.97496
228.92872
228.88049
228.83013
228.77748
228.72239
228.66473
229.46993
229.45728
229.44362
229.4289
229.41304
229.39599
229.37768
229.35806
229.33705
229.3146
229.29065
229.26514
229.23801
229.2092
229.17865
229.14631
229.11211
229.07601
229.03793
228.99782
228.95562
228.91124
228.86461
228.81564
228.76424
228.71031
228.65371
232.62044
232.60903
232.59622
232.5818
232.56553
232.54713
232.52626
232.50254
232.47553
232.44473
232.40957
232.36947
232.3238
232.27197
232.2134
232.14763
232.07433
231.99334
231.90476
231.80894
231.70646
231.59818
231.48513
231.36846
231.24939
231.12907
231.0085
232.44816
232.43114
232.41195
232.39025
232.36568
232.33783
232.30625
232.27048
232.23005
232.1845
232.13344
232.07656
232.01365
231.94469
231.86982
231.78938
231.7039
231.61409
231.52081
231.42499
231.32759
231.22952
231.13159
231.03445
230.93855
230.84411
230.75114
232.22269
232.19721
232.1684
232.13589
232.09934
232.05846
232.01302
231.96287
231.90801
231.84855
231.78476
231.71703
231.6459
231.57202
231.49608
231.41884
231.34099
231.2632
231.186
231.1098
231.03484
230.9612
230.88881
230.81747
230.74686
230.67657
230.60615
231.94577
231.90786
231.86615
231.82082
231.7721
231.72036
231.66601
231.60956
231.55154
231.4925
231.43297
231.37344
231.31433
231.25597
231.19857
231.14224
231.08697
231.03264
230.97907
230.92597
230.87304
230.81992
230.76626
230.71172
230.65593
230.59859
230.53937
231.6173
231.57059
231.52451
231.47929
231.43507
231.39197
231.35006
231.30933
231.26973
231.23115
231.19341
231.15632
231.11964
231.08309
231.04642
231.00935
230.97161
230.93296
230.89315
230.85198
230.80925
230.76479
230.71843
230.67002
230.61943
230.56649
230.51108
231.28438
231.27224
231.25913
231.24499
231.22977
231.2134
231.19582
231.17698
231.15681
231.13526
231.11227
231.08777
231.06172
231.03405
231.00472
230.97366
230.94082
230.90615
230.86958
230.83106
230.79052
230.74789
230.7031
230.65606
230.60668
230.55486
230.50049
234.36897
234.35764
234.34492
234.3306
234.31444
234.29616
234.27543
234.25185
234.225
234.19436
234.1594
234.11951
234.07409
234.02254
233.96429
233.8989
233.82603
233.74557
233.65762
233.56255
233.46096
233.35374
233.24193
233.12672
233.00932
232.89091
232.77249
234.195
234.17805
234.15893
234.13732
234.11284
234.08509
234.05362
234.01798
233.97769
233.93231
233.88145
233.8248
233.76218
233.69356
233.6191
233.53916
233.4543
233.36523
233.27283
233.17805
233.08186
232.98519
232.88886
232.79351
232.69959
232.60733
232.51673
233.96754
233.94211
233.91336
233.88093
233.84447
233.80368
233.75835
233.70836
233.65368
233.59445
233.53094
233.46357
233.39289
233.31955
233.24428
233.16781
233.09089
233.01417
232.93819
232.86337
232.78995
232.718
232.64746
232.57812
232.50965
232.44164
232.37364
233.68837
233.65051
233.60887
233.56362
233.51502
233.46344
233.4093
233.35313
233.29546
233.23685
233.17785
233.11895
233.06059
233.00309
232.94667
232.89144
232.8374
232.78443
232.73232
232.68081
232.62958
232.57828
232.52655
232.47403
232.42038
232.36528
232.30843
233.35741
233.31081
233.26491
233.21992
233.17601
233.13331
233.09187
233.0517
233.01275
232.97491
232.938
232.90183
232.86616
232.83072
232.79524
232.75944
232.72307
232.68587
232.6476
232.60806
232.56705
232.52439
232.47992
232.43351
232.38499
232.33424
232.28111
233.02208
233.01045
232.9979
232.98436
232.96978
232.9541
232.93726
232.91921
232.8999
232.87925
232.85723
232.83376
232.8088
232.7823
232.75419
232.72444
232.69298
232.65975
232.62471
232.5878
232.54895
232.50809
232.46516
232.42008
232.37275
232.32307
232.27094
236.0402
236.02896
236.01633
236.00212
235.98607
235.96792
235.94732
235.9239
235.89722
235.86677
235.83201
235.79236
235.7472
235.69594
235.63804
235.57304
235.50065
235.42074
235.33345
235.23915
235.13849
235.03236
234.92183
234.80811
234.69242
234.57594
234.45971
235.86463
235.84776
235.82872
235.8072
235.78283
235.75519
235.72385