/*--------------------------------*- C++ -*----------------------------------*\
| =========                 |                                                 |
| \\      /  F ield         | OpenFOAM: The Open Source CFD Toolbox           |
|  \\    /   O peration     | Version:  3.0.1                                 |
|   \\  /    A nd           | Web:      www.OpenFOAM.org                      |
|    \\/     M anipulation  |                                                 |
\*---------------------------------------------------------------------------*/
FoamFile
{
    version     2.0;
    format      ascii;
    class       volScalarField;
    location    "6000/fluid";
    object      Qin;
}
// * * * * * * * * * * * * * * * * * * * * * * * * * * * * * * * * * * * * * //

dimensions      [1 0 -3 0 0 0 0];

internalField   uniform 0;

boundaryField
{
    Outterwall
    {
        type            calculated;
        value           nonuniform List<scalar> 
1800
(
545.01696
554.09677
562.71518
570.83855
578.51713
585.85947
592.98342
599.941
606.64738
612.89696
618.50974
623.44501
549.61742
558.40829
566.6806
574.43229
581.74015
588.73773
595.56362
602.27919
608.79102
614.87058
620.31775
625.08615
553.74784
562.40018
570.54912
578.18853
585.39368
592.29953
599.04649
605.69499
612.14579
618.16136
623.53432
628.21613
558.1174
566.68862
574.7788
582.37005
589.52997
596.38997
603.08914
609.68667
616.08122
622.03249
627.331
631.92763
562.7386
571.25201
579.29874
586.85109
593.9704
600.78553
607.43486
613.97731
620.31078
626.19376
631.41567
635.92694
567.50991
575.97159
583.97595
591.48759
598.56317
605.32976
611.92558
618.40961
624.67938
630.49253
635.63755
640.06439
572.34438
580.75524
588.71608
596.18488
603.21428
609.92996
616.47014
622.89402
629.09888
634.8416
639.90985
644.25314
577.17405
585.53398
593.45033
600.87499
607.85695
614.52067
621.00443
627.36767
633.50748
639.18005
644.17231
648.43335
581.95401
590.26392
598.13599
605.51645
612.45084
619.06251
625.48985
631.79259
637.86768
643.47071
648.38791
652.56809
586.64829
594.90904
602.73724
610.07374
616.96092
623.52107
629.89272
636.13586
642.14731
647.6821
652.52583
656.62705
591.23465
599.44762
607.23289
614.52625
621.36704
627.87659
634.19352
640.37815
646.3272
651.79516
656.5671
660.59133
595.69419
603.8604
611.60359
618.8547
625.65014
632.11031
638.37394
644.50163
650.39001
655.79308
660.49539
664.44507
600.01627
608.13702
615.83929
623.04931
629.80066
636.21282
642.42464
648.49699
654.32641
659.66646
664.3012
668.17867
604.19085
612.26715
619.92952
627.09961
633.80824
640.17396
646.3357
652.35459
658.12709
663.40632
667.97592
671.78381
608.2134
616.24651
623.87023
631.00172
637.66909
643.98996
650.10334
656.0706
661.78814
667.00867
671.51543
675.25629
612.07879
620.06978
627.656
634.75021
641.37783
647.65555
653.72244
659.64008
665.30484
670.46903
674.91554
678.59215
615.78607
623.7363
631.28636
638.34471
644.93412
651.17038
657.19259
663.06256
668.67658
673.78662
678.17522
681.79017
619.33315
627.24385
634.75903
641.78291
648.33568
654.53222
660.51165
666.33598
671.90145
676.95974
681.29304
684.84912
622.72135
630.59405
638.07578
645.06667
651.58441
657.74297
663.68151
669.46221
674.98127
679.99004
684.27042
687.77021
625.95046
633.78656
641.23619
648.19554
654.67982
660.80214
666.70164
672.4407
677.9155
682.87709
687.10711
690.55336
629.02333
636.82448
644.24351
651.17278
657.62518
663.71296
669.57528
675.27468
680.7073
685.62391
689.80592
693.20115
631.94119
639.70893
647.09876
653.99941
660.42148
666.47642
672.30337
677.96505
683.35758
688.23149
692.36796
695.71484
634.7079
642.44396
649.8061
656.67957
663.07285
669.09661
674.88998
680.51586
685.87033
690.70369
694.79689
698.09784
637.32574
645.03174
652.36763
659.21536
665.58136
671.57558
677.33713
682.92907
688.24749
693.04247
697.09478
700.35233
639.79929
647.47699
654.78809
661.61148
667.95167
673.91793
679.64938
685.20923
690.49354
695.25219
699.26577
702.48226
642.13156
649.7826
657.07034
663.87077
670.1866
676.12646
681.82947
687.35898
692.61107
697.33544
701.31253
704.49034
644.3276
651.95368
659.21948
665.99828
672.29114
678.2061
683.88231
689.38326
694.605
699.29706
703.23973
706.38108
646.39105
653.99379
661.23901
667.99748
674.26874
680.16027
685.81123
691.28525
696.47841
701.14009
705.05043
708.15754
648.32734
655.90836
663.13433
669.87372
676.12466
681.99416
687.6214
693.07013
698.23643
702.86953
706.74946
709.82439
650.14071
657.70156
664.90958
671.63114
677.86306
683.7119
689.31686
694.74185
699.88293
704.48925
708.3407
711.38551
651.83673
659.37893
666.57025
673.27511
679.4892
685.31869
690.90281
696.30558
701.42308
706.00432
709.8291
712.8457
653.41986
660.94486
668.12066
674.80998
681.00743
686.81881
692.38341
697.76537
702.86079
707.41859
711.21847
714.20874
654.89573
662.40492
669.56635
676.24118
682.42308
688.21756
693.76395
699.1265
704.20134
708.73726
712.51389
715.47959
656.26894
663.76362
670.91178
677.57316
683.74058
689.51929
695.04867
700.3931
705.44872
709.96425
713.71924
716.66209
657.54502
665.02646
672.16238
678.81126
684.96521
690.72926
696.24284
701.57042
706.60817
711.10472
714.83956
717.76112
658.72867
666.19805
673.32272
679.96005
686.10152
691.85193
697.3508
702.6627
707.68382
712.16274
715.87886
718.78069
659.82511
667.28353
674.39786
681.0245
687.15438
692.89215
698.37738
703.67476
708.68048
713.14306
716.84184
719.72536
660.839
668.28751
675.39237
682.00915
688.12829
693.85432
699.32688
704.61075
709.60218
714.04962
717.73237
720.59898
661.77519
669.21473
676.31093
682.91862
689.02785
694.74304
700.20391
705.47532
710.45354
714.88696
718.55485
721.40581
662.63835
670.06982
677.15813
683.75748
689.85757
695.56274
701.01279
706.27268
711.23867
715.65915
719.31333
722.14985
663.43293
670.85713
677.93824
684.52992
690.62157
696.31752
701.75762
707.0069
711.96167
716.37025
720.0118
722.83503
664.16349
671.5812
678.65577
685.24042
691.32431
697.01174
702.44262
707.68208
712.62646
717.02406
720.654
723.46501
664.83436
672.2463
679.31494
685.89315
691.96993
697.64954
703.07199
708.30247
713.23733
717.62483
721.24407
724.04382
665.44965
672.85645
679.91972
686.49206
692.5623
698.23471
703.64938
708.87156
713.79765
718.17586
721.78529
724.57471
666.01327
673.41552
680.47395
687.0409
693.10515
698.77097
704.1785
709.3931
714.31115
718.68086
722.28128
725.06124
666.529
673.92726
680.98133
687.54339
693.60214
699.26189
704.66286
709.87047
714.78113
719.14305
722.73525
725.50654
667.0004
674.39516
681.44533
688.00295
694.05669
699.71092
705.10592
710.30716
715.21108
719.56585
723.15049
725.91386
667.43075
674.82245
681.86912
688.42271
694.47188
700.12105
705.51056
710.70595
715.60367
719.9519
723.52962
726.28573
667.82314
675.21217
682.25569
688.8056
694.8506
700.49514
705.87966
711.06972
715.96182
720.30408
723.87551
726.62501
668.18056
675.56728
682.60797
689.15455
695.19574
700.83605
706.21598
711.40117
716.28811
720.62495
724.19064
726.93413
668.5058
675.89052
682.9287
689.47225
695.50997
701.14644
706.52221
711.70297
716.58524
720.91713
724.4776
727.21559
668.80144
676.18445
683.22038
689.7612
695.79576
701.42871
706.80067
711.97737
716.85534
721.1827
724.7384
727.47139
669.06996
676.45151
683.48546
690.02382
696.05553
701.68529
707.0538
712.22683
717.10092
721.42418
724.97556
727.70401
669.31349
676.6938
683.72599
690.26214
696.29125
701.91812
707.28349
712.45316
717.32371
721.64324
725.19068
727.91504
669.53414
676.91337
683.944
690.47814
696.50492
702.12918
707.49172
712.65837
717.52571
721.84185
725.38573
728.10634
669.73381
677.11212
684.14131
690.67362
696.69825
702.32011
707.68005
712.84396
717.70841
722.0215
725.56215
728.27937
669.91453
677.29206
684.32
690.85067
696.87335
702.49305
707.85066
713.01209
717.87394
722.18427
725.72201
728.43618
670.07791
677.4548
684.48164
691.01082
697.03174
702.64946
708.00492
713.16406
718.0235
722.33131
725.86641
728.57782
670.22558
677.60195
684.62783
691.1557
697.17506
702.79102
708.14455
713.30164
718.15891
722.46443
725.99712
728.70602
670.35882
677.73476
684.75978
691.28647
697.3044
702.91875
708.27055
713.42578
718.28109
722.58456
726.11509
728.82174
670.47899
677.85457
684.87883
691.40445
697.4211
703.03402
708.38426
713.53785
718.3914
722.69302
726.22159
728.9262
670.58728
677.96255
684.98612
691.51076
697.52622
703.13781
708.48661
713.63868
718.49065
722.79058
726.31739
729.02016
670.68491
678.05995
685.08293
691.60671
697.62112
703.23153
708.57905
713.72974
718.58026
722.87868
726.40391
729.10503
670.7728
678.14766
685.17013
691.69314
697.70661
703.31593
708.66228
713.81173
718.66094
722.95801
726.48181
729.18146
670.8519
678.22663
685.24865
691.77098
697.78363
703.39202
708.73736
713.88572
718.73378
723.0296
726.55211
729.25041
670.92295
678.29755
685.31915
691.84084
697.85271
703.46023
708.80461
713.95197
718.79897
723.0937
726.61505
729.31216
670.98686
678.36137
685.38262
691.90375
697.91492
703.52167
708.86521
714.01168
718.85775
723.1515
726.67182
729.36787
671.04427
678.4187
685.43962
691.96025
697.97079
703.57681
708.91958
714.06523
718.91044
723.20329
726.72269
729.41777
671.09587
678.47025
685.49091
692.01109
698.02108
703.62649
708.96859
714.11351
718.95794
723.24998
726.76854
729.46278
671.14219
678.51652
685.53691
692.05667
698.06615
703.67098
709.01245
714.15671
719.00046
723.29178
726.80959
729.50307
671.18384
678.55814
685.57831
692.09771
698.10674
703.71107
709.052
714.19568
719.03883
723.32951
726.84666
729.53947
671.22122
678.59547
685.61542
692.13449
698.14309
703.74692
709.08733
714.23047
719.07305
723.36316
726.87972
729.57194
671.2549
678.62914
685.64892
692.16771
698.17596
703.7794
709.11937
714.26204
719.10412
723.3937
726.90972
729.60142
671.28516
678.65935
685.67896
692.19748
698.2054
703.80846
709.14801
714.29025
719.13187
723.42099
726.93654
729.62777
671.31239
678.68654
685.706
692.22428
698.23191
703.83465
709.17387
714.31574
719.15698
723.44569
726.96082
729.65165
671.33685
678.71091
685.73021
692.24825
698.25559
703.85801
709.19687
714.33839
719.17926
723.4676
726.98237
729.67288
671.35894
678.73293
685.75209
692.26993
698.27705
703.87921
709.2178
714.35901
719.19956
723.48757
727.00202
729.69226
671.37884
678.75271
685.77171
692.28937
698.29625
703.89815
709.23646
714.37738
719.21764
723.50536
727.01954
729.70955
671.39684
678.77058
685.78943
692.30691
698.3136
703.9153
709.25339
714.39407
719.23408
723.52155
727.03549
729.72533
671.41312
678.78666
685.80533
692.32262
698.32911
703.93058
709.26843
714.40888
719.24865
723.5359
727.04965
729.73937
671.42798
678.8013
685.81981
692.33695
698.34328
703.94458
709.28225
714.4225
719.26207
723.54912
727.06272
729.75238
671.44148
678.81453
685.83283
692.34981
698.35597
703.9571
709.29458
714.43465
719.27403
723.56091
727.07439
729.76402
671.45382
678.82652
685.84462
692.36144
698.36748
703.96849
709.30584
714.44576
719.28499
723.57172
727.08511
729.77478
671.46505
678.83731
685.85514
692.37178
698.37766
703.97852
709.31572
714.45548
719.29457
723.58119
727.09453
729.78429
671.47537
678.8471
685.86464
692.38112
698.38688
703.98762
709.32471
714.46436
719.30334
723.58987
727.10321
729.79314
671.4848
678.85586
685.87305
692.38933
698.39495
703.99556
709.33252
714.47205
719.31093
723.5974
727.11078
729.80096
671.49343
678.8637
685.88048
692.39657
698.40209
704.00263
709.33951
714.47897
719.31777
723.60421
727.11767
729.80817
671.50122
678.87048
685.88676
692.40261
698.408
704.00844
709.34524
714.48461
719.32336
723.60981
727.12341
729.81432
671.50819
678.87622
685.8919
692.40749
698.41277
704.01315
709.34991
714.48925
719.32799
723.61449
727.1283
729.81976
671.51419
678.88068
685.89562
692.41089
698.41604
704.01635
709.35306
714.49238
719.33114
723.61775
727.13187
729.82401
671.51905
678.88364
685.89766
692.41257
698.41759
704.01787
709.35459
714.49395
719.33279
723.61959
727.13414
729.82716
671.52242
678.88463
685.89751
692.41195
698.4168
704.01702
709.35375
714.49318
719.33219
723.6193
727.13446
729.82864
671.52356
678.88291
685.89441
692.40831
698.41299
704.01322
709.35005
714.48967
719.329
723.61664
727.13271
729.82845
671.5201
678.87646
685.8865
692.39982
698.40436
704.00465
709.34169
714.48168
719.32159
723.61012
727.12758
729.82549
671.50324
678.85911
685.86896
692.38238
698.38722
703.98798
709.32566
714.46654
719.30762
723.59777
727.11749
729.81864
671.43431
678.80449
685.82256
692.34081
698.34887
703.95219
709.29229
714.43573
719.27974
723.57337
727.09735
729.80379
671.14216
678.58607
685.6505
692.19812
698.2261
703.84433
709.19675
714.35129
719.20596
723.51012
727.04456
729.76143
669.94717
677.63723
684.87619
691.54886
697.67039
703.36233
708.77579
713.98347
718.88633
723.23445
726.807
729.55402
665.72649
673.95655
681.63992
688.68121
695.11386
701.07208
706.71675
712.13029
717.22255
721.74618
725.47208
728.33675
654.35803
663.14765
671.43045
679.0847
686.12103
692.65191
698.82341
704.71792
710.26139
715.224
719.37056
722.60592
627.76815
631.38122
634.39782
636.78678
638.37144
638.81549
629.22149
632.66148
635.52135
637.78391
639.30797
639.81042
632.2381
635.56293
638.30964
640.47512
641.94838
642.49239
635.84533
639.06401
641.70824
643.7899
645.22752
645.82803
639.74526
642.86259
645.40923
647.41228
648.82074
649.48682
643.78732
646.80689
649.25909
651.18618
652.56823
653.30402
647.88351
650.80805
653.16822
655.02125
656.37852
657.18583
651.97373
654.80578
657.07621
658.857
660.19061
661.06972
656.02077
658.76271
660.94563
662.65593
663.96679
664.9172
659.99461
662.649
664.74682
666.38854
667.67742
668.69792
663.8763
666.44579
668.46101
670.03612
671.30377
672.39281
667.65029
670.13772
672.07303
673.58365
674.83079
675.98644
671.30689
673.71512
675.57328
677.0216
678.24897
679.46919
674.83801
677.17006
678.95393
680.34224
681.55058
682.83312
678.23931
680.49817
682.21064
683.54126
684.73131
686.07387
681.50707
683.6958
685.33983
686.6151
687.78762
689.18782
684.63984
686.76147
688.33999
689.56227
690.71802
692.17348
687.63659
689.69417
691.21013
692.38179
693.52151
695.02982
690.49827
692.49475
693.95103
695.07439
696.19882
697.75758
693.22497
695.16335
696.56284
697.64023
698.75011
700.35693
695.81904
697.70217
699.04768
700.08136
701.17743
702.82998
698.28185
700.11262
701.40694
702.39916
703.48212
705.17809
700.61659
702.39773
703.64354
704.59649
705.66702
707.40413
702.82551
704.55976
705.75973
706.67554
707.73433
709.51037
704.91234
706.60231
707.75898
708.63972
709.68745
711.50028
706.87987
708.52813
709.64402
710.49173
711.52903
713.37656
708.73239
710.34138
711.41888
712.23549
713.26297
715.14314
710.47299
712.04512
713.08656
713.87398
714.89224
716.8031
712.10617
713.6437
714.65133
715.41136
716.42099
718.36064
713.63579
715.14095
716.11693
716.85133
717.85289
719.81954
715.06649
716.54137
717.48773
718.19815
719.19215
721.18403
716.40204
717.84868
718.76743
719.45548
720.44243
722.45787
717.64724
719.06753
719.96053
720.62773
721.60812
723.64553
718.80589
720.20168
721.07073
721.71855
722.69285
724.75073
719.88273
721.25575
722.10253
722.73232
723.70095
725.77783
720.88173
722.23363
723.05978
723.67286
724.63623
726.73075
721.80733
723.13967
723.94668
724.54428
725.50279
727.61365
722.66334
723.97758
724.76692
725.35021
726.30424
728.43024
723.45388
724.75141
725.52442
726.09449
727.04436
729.18432
724.18292
725.46504
726.22299
726.78088
727.72694
729.87978
724.85427
726.12221
726.8663
727.41297
728.3555
730.52021
725.47155
726.72645
727.45779
727.99416
728.93348
731.10912
726.03866
727.28158
728.00121
728.52811
729.46445
731.65011
726.55885
727.79077
728.49966
729.01787
729.95149
732.14636
727.03555
728.2574
728.95645
729.4667
730.39783
732.60113
727.47188
728.68451
729.37455
729.87752
730.80639
733.01743
727.87096
729.07516
729.75696
730.25326
731.18004
733.39814
728.23534
729.43184
730.10613
730.59634
731.52122
733.74577
728.56777
729.75725
730.42467
730.90934
731.83247
734.06291
728.87067
730.05375
730.71491
731.19453
732.1161
734.35193
729.14645
730.3237
730.97916
731.45418
732.3743
734.615
729.3971
730.56907
731.21936
731.69018
732.609
734.85414
729.62504
730.79219
731.43778
731.90479
732.82242
735.0716
729.83183
730.99462
731.63594
732.0995
733.01607
735.26894
730.01927
731.17811
731.81555
732.27599
733.19157
735.44775
730.18883
731.34409
731.97803
732.43563
733.35033
735.60951
730.34249
731.49452
732.12529
732.58032
733.49421
735.75612
730.48131
731.63042
732.25833
732.71105
733.62423
735.88862
730.60695
731.75342
732.37874
732.82936
733.74188
736.00848
730.72036
731.86444
732.48743
732.93614
733.84807
736.11668
730.82274
731.96468
732.58556
733.03257
733.94396
736.21438
730.91484
732.05487
732.67386
733.11933
734.03026
736.30233
730.99804
732.13635
732.75363
733.19773
734.10821
736.38175
731.07299
732.20975
732.82551
733.26835
734.17844
736.4533
731.1406
732.27597
732.89035
733.33207
734.24181
736.51787
731.20116
732.3353
732.94846
733.38919
734.29863
736.57576
731.25581
732.38886
733.00094
733.44076
734.34991
736.628
731.3048
732.43688
733.04798
733.487
734.3959
736.67484
731.34898
732.48021
733.09046
733.52878
734.43745
736.71716
731.38856
732.51905
733.12854
733.56623
734.47471
736.75513
731.42435
732.5542
733.16303
733.60015
734.50846
736.78948
731.45631
732.58561
733.19387
733.6305
734.53865
736.82021
731.48535
732.61419
733.22195
733.65816
734.56617
736.84822
731.51134
732.63981
733.24716
733.68301
734.59091
736.8734
731.53496
732.66312
733.27014
733.70567
734.61347
736.89634
731.556
732.68396
733.29071
733.72598
734.63369
736.91689
731.57526
732.7031
733.30966
733.74473
734.65236
736.93586
731.59252
732.72031
733.32676
733.76168
734.66927
736.95303
731.60835
732.73619
733.34259
733.7774
734.68495
736.96892
731.62254
732.75051
733.35695
733.7917
734.69923
736.98336
731.63578
732.76399
733.37053
733.80529
734.7128
736.99709
731.64776
732.7763
733.38304
733.81786
734.72539
737.00979
731.65897
732.78795
733.39498
733.82991
734.73747
737.02195
731.66905
732.79862
733.40603
733.84114
734.74875
737.03325
731.67863
732.80892
733.41685
733.85221
734.75988
737.0444
731.68732
732.81852
733.42708
733.86277
734.77055
737.05505
731.6956
732.82789
733.43724
733.87336
734.78126
737.0657
731.70305
732.83665
733.44696
733.88362
734.79169
737.076
731.71005
732.84524
733.45674
733.89407
734.80235
737.08653
731.71619
732.8533
733.46625
733.90443
734.81301
737.09702
731.72164
732.8611
733.47584
733.91511
734.8241
737.10789
731.72596
732.86834
733.48535
733.92604
734.83562
737.1192
731.72941
732.87551
733.49549
733.93814
734.84862
737.13204
731.73124
732.88227
733.50632
733.95178
734.86369
737.1471
731.73104
732.88897
733.51888
733.96859
734.88283
737.16645
731.72601
732.89423
733.53309
733.98941
734.90734
737.19132
731.69935
732.88462
733.53814
734.00506
734.92828
737.2116
731.52245
732.74427
733.42746
733.91407
734.84455
737.12148
730.39645
731.7355
732.51274
733.06242
734.01706
736.27447
724.98038
726.68989
727.79638
728.60996
729.72853
732.00817
)
;
    }
    symmetryleft
    {
        type            symmetry;
    }
    symmetryrigt
    {
        type            symmetry;
    }
    Outlet
    {
        type            calculated;
        value           nonuniform List<scalar> 
1620
(
783.26962
780.85821
779.15336
778.06411
777.30845
776.66722
783.32212
780.88086
779.15105
778.0432
777.27867
776.66865
783.38032
780.90566
779.14805
778.02039
777.25064
776.67018
783.44489
780.9328
779.14432
777.99597
777.22464
776.6718
783.51657
780.96251
779.13986
777.97037
777.2009
776.67351
783.59621
780.99506
779.13477
777.94407
777.17959
776.67529
783.68475
781.03078
779.12923
777.91765
777.16086
776.67713
783.78329
781.07008
779.12358
777.89177
777.14476
776.67898
783.89309
781.11353
779.11831
777.86712
777.13132
776.68083
784.01561
781.16183
779.11409
777.84441
777.12049
776.68259
784.15254
781.21593
779.11179
777.82435
777.11217
776.68419
784.30591
781.27705
779.11246
777.80761
777.1062
776.68553
784.47813
781.34678
779.11739
777.79481
777.1024
776.68644
784.67208
781.42715
779.12806
777.7865
777.10053
776.68673
784.89127
781.52069
779.14611
777.78314
777.1003
776.68613
785.13993
781.63052
779.1734
777.78511
777.10141
776.68428
785.42321
781.76046
779.21195
777.79273
777.10351
776.68071
785.74734
781.91509
779.26398
777.80624
777.10617
776.67481
786.11981
782.09987
779.33194
777.82588
777.10893
776.66576
786.5496
782.32128
779.41859
777.85189
777.11121
776.65249
787.04739
782.58694
779.52711
777.88455
777.11229
776.63362
787.62574
782.90588
779.66123
777.92429
777.11131
776.60733
788.2994
783.28879
779.82551
777.97166
777.10713
776.57128
789.08544
783.74844
780.02556
778.02748
777.09833
776.52243
790.00353
784.30017
780.2685
778.0929
777.08308
776.4569
791.07607
784.96254
780.56337
778.16951
777.05907
776.3697
792.32828
785.75817
780.92181
778.25951
777.02336
776.25457
766.39957
782.3169
794.95415
802.60045
806.59049
808.5093
766.13976
782.431
795.11315
802.72094
806.66673
808.55384
765.51611
782.47918
795.2733
802.8487
806.74785
808.60114
764.4156
782.39924
795.42025
802.98162
806.83351
808.65111
762.79099
782.11972
795.53024
803.11502
806.92292
808.70353
760.67596
781.57311
795.56948
803.24039
807.01438
808.75799
758.18192
780.71115
795.49566
803.3438
807.10477
808.81377
755.47742
779.51773
795.26236
803.40479
807.18861
808.86959
752.75752
778.01718
794.82551
803.39604
807.25721
808.92331
750.2104
776.27413
794.15124
803.28408
807.29743
808.97138
747.98929
774.3862
793.22341
803.03179
807.29096
809.00818
746.19549
772.47019
792.04875
802.60212
807.21376
809.02523
744.87506
770.64612
790.65883
801.96296
807.03652
809.01023
744.02771
769.02233
789.10753
801.09226
806.72603
808.94636
743.6226
767.68502
787.46547
799.98243
806.24781
808.81176
743.61621
766.69344
785.81154
798.643
805.56959
808.57971
743.96683
766.08023
784.22414
797.1012
804.66552
808.21963
744.64352
765.85499
782.77284
795.39987
803.52031
807.6991
745.63098
766.00953
781.5119
793.59335
802.13263
806.98688
746.93099
766.52257
780.47608
791.74171
800.51717
806.05668
748.56336
767.36329
779.67864
789.90456
798.70482
804.89124
750.56711
768.49262
779.11131
788.13514
796.74084
803.48609
753.00335
769.86213
778.74592
786.47589
794.68141
801.85231
755.95927
771.40926
778.53706
784.95603
792.58878
800.01755
759.55525
773.04844
778.4261
783.59154
790.52622
798.02521
763.95462
774.65554
778.34699
782.38759
788.55299
795.93141
769.37869
776.04336
778.2359
781.34295
786.72034
793.80032
721.7955
721.50082
721.15803
720.75947
720.29856
719.77412
719.23791
719.08111
720.65408
739.56605
750.85233
754.51232
721.77408
721.4815
721.13846
720.73708
720.27172
719.75882
719.37118
719.86233
722.17102
731.5257
745.80077
752.91312
721.75022
721.45991
721.11653
720.71228
720.24618
719.77305
719.62482
720.69699
722.97279
727.2476
740.4731
750.35498
721.72362
721.43573
721.09198
720.68553
720.22666
719.83165
719.98615
721.47362
723.38772
725.2005
735.67895
747.01113
721.69389
721.40863
721.06465
720.65803
720.21994
719.94709
720.43003
722.14073
723.59692
724.33926
731.81216
743.19294
721.66063
721.37825
721.0346
720.63209
720.23456
720.1275
720.92551
722.68267
723.69839
724.02954
728.95908
739.26389
721.62333
721.34425
721.00231
720.61143
720.28019
720.37541
721.44094
723.10389
723.74421
723.93669
727.01696
735.56323
721.58143
721.30641
720.96898
720.60143
720.36658
720.68714
721.94765
723.41892
723.76156
723.91226
725.79582
732.34955
721.5343
721.26478
720.93683
720.60916
720.5023
721.05318
722.42231
723.64616
723.76441
723.903
725.08985
729.77173
721.48122
721.21987
720.9095
720.64312
720.69333
721.4591
722.84819
723.8042
723.75987
723.89617
724.71887
727.86643
721.42141
721.17302
720.89233
720.71258
720.9418
721.88723
723.21537
723.90989
723.75159
723.8901
724.54503
726.57704
721.35406
721.12668
720.89246
720.82656
721.24512
722.31864
723.5201
723.97739
723.74136
723.88438
724.47429
725.78646
721.27823
721.08481
720.91867
720.99246
721.59564
722.73513
723.76382
724.01797
723.73013
723.87921
724.45054
725.35458
721.19281
721.05305
720.98071
721.21459
721.98104
723.12107
723.9517
724.04021
723.71839
723.87475
724.44517
725.15061
721.0962
721.03852
721.08811
721.4928
722.38546
723.46471
724.09123
724.05038
723.7064
723.87112
724.44602
725.0731
720.98582
721.04903
721.24845
721.82154
722.79122
723.75886
724.19092
724.05286
723.69421
723.86828
724.44945
725.05624
720.85727
721.09145
721.46531
722.18963
723.18074
724.00096
724.25934
724.05074
723.68219
723.86693
724.45657
725.06528
720.7032
721.1692
721.73604
722.58087
723.53857
724.1925
724.30429
724.04602
723.67027
723.86669
724.46588
725.08376
720.51215
721.27901
722.05006
722.97554
723.85289
724.33813
724.33244
724.03989
723.65828
723.86738
724.47719
725.10669
720.26759
721.40756
722.38784
723.35234
724.11646
724.44444
724.34913
724.03311
723.64629
723.8693
724.49109
725.13332
719.94806
721.52913
722.72118
723.69065
724.32661
724.51887
724.35841
724.02605
723.63402
723.87196
724.50663
725.1616
719.52879
721.60532
723.01493
723.97217
724.48457
724.56863
724.36303
724.01857
723.6208
723.87444
724.52259
725.18985
718.98568
721.58821
723.23001
724.18197
724.59403
724.59988
724.36459
724.01016
723.60567
723.87566
724.53768
725.21634
718.30114
721.42717
723.32752
724.30832
724.65931
724.61698
724.36346
723.99967
723.58715
723.87398
724.54998
725.23861
717.47114
721.07882
723.2732
724.3417
724.68337
724.62211
724.35896
723.98553
723.56347
723.86761
724.55755
725.2543
716.51165
720.51771
723.04146
724.27312
724.6659
724.61468
724.34915
723.96547
723.53227
723.85421
724.55781
725.26037
715.46352
719.74445
722.61779
724.09232
724.60188
724.59121
724.33106
723.93685
723.4911
723.83145
724.54827
725.25383
760.22841
754.27816
736.32031
718.40539
723.04731
723.99038
723.83215
723.48205
723.10309
722.73029
722.37839
722.05045
757.79483
746.45
723.76636
714.78228
720.94914
723.446
723.71331
723.43674
723.07082
722.7021
722.35218
722.02517
753.86361
738.1727
717.07704
712.84974
718.76252
722.60185
723.50093
723.37186
723.03279
722.67039
722.32298
721.99709
748.70026
730.71161
713.86833
711.82945
716.74663
721.49553
723.15916
723.27341
722.98589
722.63434
722.29034
721.96588
742.78654
724.68459
712.51069
711.29208
715.01826
720.19383
722.65919
723.12251
722.92483
722.59261
722.25372
721.93112
736.68706
720.22973
712.01355
711.00524
713.60916
718.77624
721.9839
722.89632
722.84128
722.54296
722.21232
721.89232
730.92987
717.18924
711.85328
710.84522
712.50359
717.32281
721.13083
722.56992
722.72318
722.48165
722.16493
721.84884
725.9186
715.26815
711.79686
710.7472
711.66232
715.90498
720.1133
722.11902
722.5543
722.40279
722.10965
721.79985
721.88618
714.14517
711.75869
710.67741
711.03733
714.57996
718.95939
721.52338
722.31438
722.2974
722.04336
721.74411
718.89071
713.53881
711.71882
710.61854
710.58071
713.38775
717.70906
720.77034
721.98003
722.15263
721.96114
721.67978
716.84486
713.23367
711.67467
710.56161
710.24932
712.35093
716.40976
719.8579
721.52674
721.95116
721.85528
721.60391
715.5662
713.08167
711.62387
710.50171
710.00687
711.47622
715.11121
718.79672
720.93173
721.67103
721.71431
721.5119
714.83563
712.99372
711.56564
710.43598
709.82439
710.75728
713.86015
717.61062
720.17753
721.28659
721.522
721.39653
714.44803
712.92386
711.49933
710.36262
709.67963
710.17841
712.69573
716.33509
719.25585
720.77033
721.25666
721.24699
714.24216
712.84952
711.42427
710.28031
709.55613
709.71811
711.6462
715.01396
718.17085
720.09623
720.89135
721.04769
714.11177
712.76218
711.34004
710.18801
709.442
709.35244
710.72725
713.69459
716.9411
719.24416
720.39532
720.77758
714.01062
712.67455
711.24787
710.08572
709.32923
709.05768
709.94213
712.42248
715.59941
718.20476
719.73734
720.41015
713.90886
712.58144
711.14824
709.97341
709.2125
708.81228
709.28328
711.23591
714.19024
716.98398
718.89081
719.91508
713.80598
712.48604
711.04293
709.8518
709.08872
708.59798
708.73496
710.16188
712.76475
715.60583
717.84044
719.26186
713.71932
712.39401
710.93579
709.72313
708.95701
708.40058
708.27661
709.21387
711.37422
714.11228
716.58916
718.4259
713.64572
712.30961
710.83066
709.59054
708.81837
708.2102
707.88612
708.39189
710.06311
712.55956
715.16325
717.39612
713.58974
712.23742
710.73197
709.45811
708.67565
708.02135
707.54304
707.6847
708.86341
711.01092
713.61339
716.1826
713.55365
712.18094
710.64401
709.33063
708.53343
707.8329
707.23117
707.07403
707.79148
709.52698
712.00954
714.82099
713.53665
712.14149
710.56986
709.21274
708.39754
707.64781
706.94072
706.54009
706.84906
708.15613
710.42868
713.36999
713.53478
712.1174
710.51015
709.10757
708.2738
707.47221
706.66955
706.06798
706.02887
706.92847
708.93699
711.89733
713.54167
712.10401
710.46212
709.01505
708.1659
707.31311
706.42263
705.65349
705.32568
705.85863
707.57186
710.44829
713.55013
712.09457
710.41979
708.93077
708.07266
707.1742
706.20796
705.3053
704.7509
704.96631
706.34039
708.98188
766.99252
766.48359
765.77608
764.86366
763.74815
762.37058
766.99705
766.48586
765.7722
764.84256
763.646
761.82079
767.00177
766.48769
765.76525
764.80012
763.41006
760.6775
767.00659
766.48859
765.75144
764.71194
762.93858
758.75924
767.01138
766.48747
765.72315
764.53852
762.11423
755.98562
767.01583
766.48208
765.66677
764.22427
760.82494
752.40185
767.01929
766.46812
765.56033
763.69971
758.98726
748.17337
767.02051
766.43799
765.37175
762.8883
756.56712
743.55469
767.01709
766.37927
765.0581
761.71645
753.59222
738.84101
767.00477
766.27301
764.56691
760.12593
750.15263
734.31636
766.97638
766.09236
763.8397
758.08547
746.38904
730.20929
766.92059
765.80185
762.81814
755.59938
742.47171
726.66591
766.82047
765.3579
761.45141
752.71061
738.57538
723.74394
766.65228
764.71099
759.70453
749.49763
734.85623
721.42574
766.38458
763.80942
757.56516
746.06583
731.43535
719.64187
765.9784
762.60497
755.04847
742.5352
728.39125
718.29775
765.38848
761.05903
752.19801
739.02727
725.76149
717.29911
764.56627
759.14929
749.08321
735.65311
723.54836
716.55974
763.46416
756.87471
745.79327
732.50424
721.72865
716.01133
762.04124
754.25903
742.42894
729.64784
720.26427
715.60628
760.26921
751.35074
739.09292
727.12521
719.10919
715.30773
758.13812
748.22048
735.88113
724.9532
718.21556
715.08989
755.6605
744.9553
732.87506
723.12799