/*--------------------------------*- C++ -*----------------------------------*\
| =========                 |                                                 |
| \\      /  F ield         | OpenFOAM: The Open Source CFD Toolbox           |
|  \\    /   O peration     | Version:  3.0.1                                 |
|   \\  /    A nd           | Web:      www.OpenFOAM.org                      |
|    \\/     M anipulation  |                                                 |
\*---------------------------------------------------------------------------*/
FoamFile
{
    version     2.0;
    format      ascii;
    class       volScalarField;
    location    "6000/fluid";
    object      Qr;
}
// * * * * * * * * * * * * * * * * * * * * * * * * * * * * * * * * * * * * * //

dimensions      [1 0 -3 0 0 0 0];

internalField   uniform 0;

boundaryField
{
    Outterwall
    {
        type            calculated;
        value           nonuniform List<scalar> 
1800
(
76.477722
70.86378
65.344405
59.953058
54.735735
49.74451
45.027239
40.616646
36.525337
32.754273
29.311535
26.226924
77.123911
71.371496
65.694871
60.133936
54.738874
49.565004
44.662598
40.065551
35.786301
31.825455
28.193056
24.924192
77.376842
71.51462
65.716872
60.022434
54.481761
49.151791
44.085302
39.319134
34.869011
30.739398
26.944925
23.524075
77.458889
71.496284
65.592704
59.785884
54.121589
48.660715
43.458404
38.554154
33.967775
29.707773
25.790532
22.255794
77.441027
71.383165
65.38162
59.471514
53.703246
48.136768
42.829662
37.824178
33.141314
28.790008
24.787484
21.174137
77.383119
71.23379
65.143165
59.145889
53.292018
47.641419
42.251038
37.162201
32.404818
27.98162
23.910473
20.243766
77.322439
71.083162
64.907682
58.828402
52.895065
47.168596
41.708166
36.557816
31.740075
27.264842
23.150152
19.435819
77.281418
70.95666
64.701751
58.547154
52.542701
46.749803
41.228226
36.020289
31.147066
26.617302
22.448414
18.683194
77.253484
70.841809
64.508014
58.281501
52.21066
46.356289
40.778157
35.520774
30.606768
26.04586
21.855639
18.075276
77.261112
70.766138
64.356609
58.060479
51.924867
46.009687
40.373862
35.061284
30.094581
25.48495
21.253123
17.44049
77.268369
70.693026
64.210738
57.84846
51.653077
45.684927
40.003702
34.653954
29.658231
25.026418
20.775984
16.94517
77.304761
70.651448
64.09896
57.672981
51.419396
45.397774
39.667024
34.270737
29.230549
24.555628
20.265168
16.404368
77.334854
70.606126
63.985513
57.497864
51.18892
45.118584
39.346371
33.916511
28.851018
24.158874
19.856877
15.983117
77.386871
70.585372
63.899401
57.352676
50.990066
44.870842
39.053865
33.582546
28.477967
23.748449
19.411646
15.511378
77.425897
70.554308
63.805264
57.20168
50.788235
44.624512
38.769986
33.268768
28.142477
23.399554
19.055577
15.147331
77.481334
70.542288
63.732826
57.074831
50.61223
44.404106
38.509424
32.971595
27.811288
23.03609
18.662909
14.732313
77.51911
70.515514
63.64827
56.938468
50.429881
44.181896
38.254029
32.690221
27.511632
22.725988
18.347801
14.412266
77.569549
70.504041
63.581618
56.822389
50.269369
43.981399
38.017478
32.421036
27.212597
22.399191
17.992417
14.065712
77.599855
70.475402
63.500582
56.69475
50.100777
43.77782
37.785369
32.167456
26.944938
22.124521
17.719856
13.76434
77.639379
70.458483
63.433592
56.58319
49.949547
43.591429
37.567946
31.922454
26.675134
21.832443
17.409556
13.440496
77.658494
70.424175
63.352183
56.460293
49.790604
43.402135
37.354493
31.691413
26.433387
21.586577
17.163172
13.194859
77.68518
70.399958
63.283116
56.351623
49.647034
43.227964
37.153585
31.467166
26.188536
21.323975
16.88698
12.911148
77.692144
70.358961
63.200257
56.232338
49.496601
43.051882
36.957751
31.25782
25.972026
21.105843
16.670283
12.695457
77.705353
70.32664
63.128141
56.125436
49.359406
42.888525
36.771962
31.052967
25.751014
20.871439
16.42657
12.44902
77.70054
70.279154
63.043854
56.009625
49.21718
42.725171
36.593097
30.864452
25.558586
20.679761
16.238254
12.262171
77.700991
70.239247
62.969018
55.904648
49.086397
42.572506
36.422004
30.677863
25.359773
20.473631
16.027702
12.0514
77.685522
70.18609
62.883784
55.792443
48.952174
42.421356
36.259246
30.508779
25.189188
20.304391
15.862332
11.889198
77.674338
70.139467
62.806802
55.6896
48.827601
42.278914
36.102512
30.341006
25.012588
20.120798
15.677295
11.708353
77.649598
70.08165
62.721184
55.58102
48.700744
42.138507
35.95343
30.188105
24.860382
19.972901
15.533707
11.567116
77.628748
70.029923
62.643279
55.48111
48.582551
42.005336
35.808318
30.034708
24.702762
19.814415
15.376158
11.415706
77.597033
69.969475
62.55907
55.377766
48.464576
41.877269
35.674608
29.898938
24.568223
19.684028
15.251547
11.294138
77.568497
69.914292
62.481593
55.2819
48.35397
41.755353
35.544478
29.762882
24.427625
19.543994
15.116211
11.170803
77.531631
69.85258
62.399607
55.183906
48.244083
41.637672
35.423146
29.642099
24.31095
19.431152
15.007903
11.06182
77.497612
69.795733
62.323901
55.092936
48.141185
41.525922
35.305298
29.520876
24.189705
19.31137
14.894317
10.959446
77.457278
69.734055
62.245096
55.000975
48.039902
41.41909
35.196599
29.413894
24.087136
19.214899
14.801172
10.867048
77.419673
69.677022
62.172115
54.915117
47.943968
41.315856
35.088848
29.304141
23.977915
19.110372
14.704419
10.781222
77.378968
69.618238
62.099194
54.831798
47.853759
41.221837
34.993728
29.21071
23.888644
19.026167
14.625499
10.70441
77.33842
69.561414
62.029403
54.752189
47.767481
41.132697
34.902219
29.119988
23.8007
18.943122
14.549018
10.638761
77.295077
69.50267
61.958729
54.672865
47.68239
41.045048
34.81665
29.037928
23.722917
18.868744
14.477986
10.569038
77.254363
69.448101
61.892972
54.598406
47.601834
40.959596
34.729005
28.950387
23.639005
18.792853
14.412714
10.516358
77.214589
69.395417
61.830539
54.529105
47.528198
40.8839
34.653502
28.877302
23.569423
18.727031
14.350437
10.454815
77.173908
69.343592
61.770294
54.463115
47.459411
40.81441
34.585344
28.811964
23.507973
18.670117
14.297814
10.412161
77.133426
69.29214
61.71048
54.397667
47.390753
40.745785
34.518603
28.748963
23.44957
18.615951
14.248558
10.36352
77.095019
69.244121
61.654904
54.336264
47.325237
40.677484
34.449701
28.681296
23.386504
18.561678
14.205525
10.335542
77.059065
69.199224
61.603463
54.280466
47.267236
40.619564
34.393275
28.627054
23.334342
18.511153
14.156358
10.283244
77.020485
69.153436
61.552693
54.22647
47.211643
40.564436
34.340878
28.578648
23.289648
18.46953
14.116315
10.25334
76.984173
69.109746
61.50361
54.174193
47.157725
40.509918
34.287
28.528247
23.245472
18.432695
14.086642
10.220957
76.950224
69.068569
61.456848
54.123836
47.106276
40.459211
34.237806
28.480675
23.201455
18.396831
14.065948
10.218229
76.919826
69.031873
61.415396
54.079174
47.060012
40.413224
34.193961
28.439235
23.161023
18.355143
14.019641
10.166034
76.888479
68.995938
61.376251
54.037847
47.017591
40.371032
34.1537
28.403754
23.131601
18.331178
13.997921
10.152626
76.857365
68.960588
61.338309
53.998576
46.977533
40.330557
34.113677
28.365054
23.096134
18.299746
13.971319
10.122567
76.826321
68.925247
61.300441
53.959991
46.939682
40.294397
34.078556
28.330199
23.062224
18.272954
13.959118
10.12834
76.799789
68.89444
61.266808
53.925037
46.905205
40.262254
34.049773
28.304802
23.039116
18.247796
13.927386
10.088415
76.774466
68.8649
61.233714
53.889434
46.868633
40.226626
34.018447
28.28071
23.023016
18.236503
13.915951
10.083856
76.753496
68.84035
61.206191
53.859454
46.83657
40.192427
33.982287
28.244441
22.991613
18.213052
13.898539
10.061431
76.731146
68.815778
61.180356
53.832882
46.809383
40.164493
33.953186
28.213035
22.957387
18.182046
13.884387
10.063908
76.709374
68.792338
61.156452
53.809774
46.788134
40.145883
33.937548
28.200376
22.94545
18.165797
13.857089
10.037322
76.686667
68.767509
61.130801
53.784634
46.764778
40.125349
33.919255
28.185637
22.932537
18.153454
13.841959
10.022581
76.670111
68.747742
61.108535
53.760847
46.740587
40.102411
33.900874
28.170402
22.92094
18.145185
13.839218
10.013895
76.655178
68.730426
61.088802
53.738793
46.716546
40.077108
33.874864
28.14623
22.901894
18.134836
13.83959
10.031475
76.642312
68.716368
61.074277
53.724121
46.702392
40.063481
33.861271
28.132124
22.88588
18.115343
13.818111
10.005387
76.62514
68.699184
61.05766
53.708561
46.687783
40.049788
33.848655
28.120548
22.875123
18.104478
13.802319
9.9915417
76.609164
68.682091
61.040655
53.692533
46.673586
40.037171
33.837758
28.112195
22.869994
18.102064
13.804016
9.9874158
76.59601
68.666593
61.02294
53.673466
46.654208
40.018592
33.821956
28.098081
22.858496
18.097759
13.809723
10.005403
76.588561
68.657485
61.012413
53.661666
46.641236
40.004948
33.809556
28.086627
22.846516
18.081181
13.79091
9.9915087
76.578973
68.647451
61.002085
53.650878
46.630005
39.993096
33.794474
28.072592
22.833925
18.068975
13.778385
9.9825115
76.569017
68.637925
60.993494
53.643639
46.624232
39.98918
33.792967
28.071821
22.83468
18.073468
13.783363
9.9725319
76.556701
68.624458
60.979448
53.629783
46.611558
39.978208
33.785702
28.065767
22.831704
18.071725
13.776179
9.973006
76.552908
68.618809
60.972173
53.621251
46.601926
39.968172
33.776022
28.05746
22.823375
18.064466
13.776479
9.9690702
76.547507
68.613097
60.966177
53.614789
46.59504
39.960732
33.764971
28.04458
22.810738
18.057312
13.768509
9.9649309
76.539901
68.606241
60.960673
53.611028
46.59286
39.959826
33.765986
28.04748
22.81375
18.0568
13.770799
9.9635229
76.528698
68.594576
60.949143
53.600443
46.583787
39.954122
33.762168
28.043614
22.809035
18.050296
13.759924
9.9601004
76.525949
68.589854
60.942511
53.592312
46.575479
39.94533
33.756519
28.040531
22.807946
18.051632
13.767159
9.9613282
76.523796
68.587278
60.93903
53.587146
46.567624
39.934326
33.742849
28.028165
22.798733
18.045922
13.762732
9.9631997
76.52048
68.584469
60.937472
53.587083
46.568827
39.936793
33.745062
28.029318
22.79866
18.044733
13.76165
9.9571636
76.510984
68.575425
60.929252
53.580268
46.563898
39.933755
33.742357
28.025998
22.794174
18.038713
13.751321
9.9538806
76.509793
68.572616
60.924861
53.57496
46.558529
39.929874
33.740616
28.025766
22.79519
18.041913
13.760311
9.9568964
76.509148
68.57134
60.922394
53.570597
46.551811
39.920593
33.731191
28.01832
22.791542
18.038374
13.749324
9.9516189
76.507343
68.570098
60.922246
53.57137
46.553304
39.922253
33.731866
28.017725
22.789253
18.03735
13.755978
9.9531312
76.499418
68.563279
60.91693
53.567961
46.551359
39.920856
33.730321
28.015406
22.784938
18.031373
13.746525
9.949604
76.496747
68.559759
60.912975
53.564398
46.548907
39.920829
33.731588
28.01715
22.787801
18.036123
13.755536
9.9533062
76.497182
68.558332
60.909262
53.558202
46.541489
39.912816
33.724925
28.013323
22.784428
18.031218
13.743508
9.9474155
76.499208
68.560477
60.911269
53.559719
46.541911
39.911892
33.723416
28.011594
22.784066
18.032993
13.753473
9.9520311
76.496439
68.558365
60.910051
53.559148
46.541291
39.910385
33.720374
28.005731
22.779152
18.028109
13.744423
9.9486403
76.492168
68.555009
60.908229
53.55904
46.542842
39.913093
33.723295
28.009664
22.782133
18.031225
13.750951
9.9492878
76.487729
68.549499
60.901688
53.552277
46.536931
39.908778
33.722076
28.008811
22.778804
18.029491
13.742885
9.9470069
76.491014
68.551249
60.901901
53.550969
46.534294
39.906217
33.719303
28.007463
22.77921
18.028166
13.74834
9.9458624
76.49243
68.552516
60.902806
53.551046
46.533219
39.902859
33.713398
28.002081
22.776873
18.023748
13.741108
9.9453732
76.492063
68.552716
60.903943
53.553238
46.536102
39.906223
33.716889
28.003928
22.777088
18.027803
13.749046
9.9485002
76.487079
68.547541
60.898876
53.548494
46.531829
39.902942
33.714439
28.002469
22.774607
18.024315
13.744535
9.9444492
76.490702
68.549663
60.89968
53.5482
46.530635
39.901278
33.712294
28.001252
22.774235
18.023915
13.745585
9.9458359
76.490048
68.549285
60.899395
53.54787
46.530016
39.899496
33.710472
27.996736
22.768292
18.016118
13.735568
9.9459236
76.48778
68.547024
60.897949
53.547797
46.531491
39.902644
33.714417
28.001716
22.774083
18.023491
13.742627
9.9360664
76.483798
68.541363
60.891407
53.540916
46.52481
39.896421
33.709438
27.998274
22.770827
18.020008
13.741037
9.9381111
76.482169
68.539573
60.889465
53.538542
46.522176
39.892665
33.703963
27.992337
22.766896
18.018144
13.740648
9.941925
76.465834
68.527226
60.879415
53.530314
46.514296
39.886779
33.698695
27.98611
22.759073
18.008183
13.729893
9.9386176
76.400067
68.481312
60.846003
53.50452
46.494886
39.871056
33.686943
27.980839
22.758445
18.011788
13.735348
9.9384019
76.138599
68.285104
60.695564
53.387356
46.400896
39.794678
33.623966
27.925299
22.71165
17.976677
13.713832
9.929203
75.225013
67.533068
60.07176
52.866
45.965144
39.431012
33.320349
27.672641
22.498311
17.789515
13.548538
9.7918826
72.769321
65.331407
58.110364
51.126247
44.424829
38.066702
32.111345
26.601422
21.552563
16.959938
12.818884
9.1343707
23.553324
21.29463
19.465067
18.082919
17.148546
16.640374
22.072769
19.658376
17.69433
16.204896
15.198293
14.661703
20.52598
17.983131
15.910565
14.33632
13.27356
12.715309
19.150489
16.516583
14.370467
12.74149
11.644754
11.076963
17.994842
15.296814
13.097742
11.429651
10.310181
9.7395073
17.012473
14.269319
12.032928
10.336636
9.2009928
8.6305552
16.164354
13.387402
11.123077
9.4062418
8.2601776
7.6932024
15.393637
12.594879
10.317104
8.5923595
7.4402841
6.8790373
14.747059
11.923026
9.6208481
7.8760111
6.7166021
6.1597302
14.111032
11.27829
8.9671825
7.2155692
6.0549307
5.5066123
13.575417
10.716888
8.3872779
6.6234115
5.4573013
4.9134361
13.036452
10.171417
7.8334286
6.0632761
4.8961564
4.3604004
12.578788
9.6911953
7.3377264
5.5561883
4.383252
3.8513244
12.11062
9.2187365
6.8592519
5.0725306
3.8984241
3.373732
11.714717
8.8018334
6.4271543
4.6302529
3.4519686
2.9317094
11.303783
8.3875874
6.0077029
4.2063092
3.0274278
2.5142553
10.957625
8.0239468
5.6313417
3.8212287
2.6385778
2.1294024
10.598474
7.6606356
5.2642423
3.4512911
2.2690056
1.7668932
10.294212
7.3448996
4.9385077
3.1181179
1.9325717
1.4340715
9.9784221
7.0294728
4.6211129
2.798748
1.6138885
1.1218903
9.7156909
6.7556232
4.3390839
2.5110213
1.3239059
0.83561734
9.4418355
6.4823296
4.0646179
2.2355227
1.0496758
0.56771493
9.2126632
6.2461275
3.8228936
1.9895914
0.80202668
0.32337911
8.9778299
6.0122183
3.5883568
1.7545511
0.56848412
0.095777916
8.7799981
5.8102354
3.3827771
1.5458546
0.35849939
-0.11120195
8.5804764
5.611901
3.1844066
1.3474761
0.16180813
-0.30232673
8.4107271
5.4398127
3.0097659
1.1708402
-0.015242634
-0.47638205
8.2424467
5.2731939
2.843576
1.0052146
-0.17887886
-0.6347917
8.0959734
5.1273724
2.6976177
0.85836914
-0.32591457
-0.77913242
7.9568087
4.9894267
2.5601463
0.72154369
-0.46088418
-0.90955191
7.8317716
4.866281
2.4374064
0.59847908
-0.58372434
-1.0297443
7.7178204
4.7525504
2.3242114
0.48600301
-0.69443351
-1.1362504
7.6101321
4.6493548
2.2225242
0.38479065
-0.7949486
-1.2343442
7.5190888
4.5581707
2.1315081
0.29458756
-0.88338562
-1.3191119
7.4264878
4.471365
2.0476824
0.21168337
-0.96574327
-1.3993543
7.3519714
4.3975437
1.9751549
0.14035851
-1.0352707
-1.4655899
7.2750802
4.3249306
1.9038806
0.069980893
-1.104495
-1.5324805
7.2198775
4.269459
1.848641
0.015062651
-1.158604
-1.5839076
7.1512273
4.2080847
1.7913411
-0.040237042
-1.2125673
-1.636104
7.107899
4.163773
1.7468632
-0.084443044
-1.2557039
-1.6769588
7.0482143
4.1104735
1.6967248
-0.13276564
-1.3027086
-1.7220622
7.0178414
4.0781967
1.6641865
-0.16502482
-1.3341152
-1.751408
6.9664876
4.0344757
1.6243711
-0.20281186
-1.3705279
-1.7862114
6.9467004
4.0117171
1.6009776
-0.22678013
-1.3943425
-1.8085468
6.8967935
3.9709526
1.5649851
-0.25945667
-1.4249776
-1.8375587
6.8814856
3.9527532
1.5455016
-0.27909309
-1.4437543
-1.8544823
6.8425208
3.9210169
1.5175238
-0.30527877
-1.4689324
-1.8786023
6.8426117
3.9142075
1.5073717
-0.31725876
-1.4816277
-1.8905676
6.7969125
3.8809047
1.4808317
-0.33982443
-1.5019441
-1.9095278
6.794759
3.8733236
1.4706735
-0.35088448
-1.512821
-1.9192035
6.761948
3.8497798
1.4505398
-0.36922433
-1.5301804
-1.9358275
6.7670898
3.8483017
1.4473742
-0.37344399
-1.5348799
-1.9400781
6.7313416
3.8221442
1.4263554
-0.39143913
-1.5509764
-1.9549768
6.738888
3.8231909
1.4240953
-0.39520143
-1.5551046
-1.9584604
6.7098844
3.8039301
1.4092512
-0.40751462
-1.5660725
-1.9687003
6.7157955
3.8035857
1.4073711
-0.41043751
-1.5691003
-1.970979
6.6866512
3.7836218
1.392007
-0.42317914
-1.5806019
-1.9819218
6.6929108
3.786334
1.393141
-0.42271794
-1.5802767
-1.9811637
6.6729469
3.7740772
1.3835386
-0.43128009
-1.588145
-1.9886199
6.6875414
3.778967
1.386377
-0.4304255
-1.5879892
-1.9877127
6.6631593
3.763945
1.3748266
-0.43876887
-1.5949733
-1.9947262
6.6697428
3.7684877
1.3779226
-0.43618923
-1.5922607
-1.9920462
6.6511675
3.756706
1.3697003
-0.44367001
-1.599306
-1.9983218
6.6704095
3.7639112
1.3724828
-0.44215932
-1.5982314
-1.9968122
6.6501996
3.7517041
1.363606
-0.4488321
-1.6038432
-2.0022253
6.6551342
3.7552386
1.3667332
-0.44597473
-1.600982
-1.9990412
6.6431546
3.7495798
1.361918
-0.45040515
-1.6052995
-2.0033786
6.6570647
3.7563578
1.3664378
-0.44717172
-1.602563
-2.0004792
6.6395987
3.7458646
1.3593353
-0.4525483
-1.6071671
-2.004989
6.647592
3.7496935
1.3619775
-0.45004806
-1.6043746
-2.0016795
6.6370768
3.7449934
1.3580808
-0.45387182
-1.6084025
-2.0059212
6.6470919
3.750422
1.3627647
-0.45020961
-1.6050901
-2.0026261
6.6360147
3.7444079
1.3573507
-0.45457345
-1.6091811
-2.0065821
6.642985
3.7466095
1.3599804
-0.45184029
-1.6059515
-2.0028128
6.6325679
3.7439964
1.3569927
-0.45578746
-1.6101269
-2.0070734
6.6421122
3.7468906
1.3604524
-0.45164863
-1.6057953
-2.0028655
6.632513
3.7414646
1.3553476
-0.45606756
-1.6102236
-2.0072596
6.6402073
3.7447598
1.3585552
-0.45290639
-1.6066519
-2.0032886
6.6304928
3.7407196
1.35519
-0.45683919
-1.6107408
-2.0076312
6.6390675
3.7445866
1.358349
-0.45319136
-1.607078
-2.0038373
6.6293153
3.7411966
1.3550854
-0.45742764
-1.611099
-2.0079133
6.637895
3.7433694
1.3577674
-0.45338214
-1.6070248
-2.0036671
6.6286521
3.7410373
1.3547558
-0.4566596
-1.6109333
-2.0076742
6.6363435
3.743484
1.3582509
-0.45240718
-1.6060062
-2.0025026
6.6278456
3.7412533
1.35584
-0.45629083
-1.6101954
-2.0069892
6.6374272
3.7437763
1.3585645
-0.45278116
-1.6064635
-2.0032414
6.6280463
3.7412822
1.3554603
-0.45633691
-1.6106067
-2.0073189
6.6324361
3.7419332
1.3577623
-0.45244951
-1.605824
-2.0023339
6.6269973
3.7407577
1.3559729
-0.45558011
-1.60977
-2.0063187
6.6325342
3.7424669
1.358406
-0.45160799
-1.6052419
-2.0020699
6.6253928
3.7404347
1.3560273
-0.45520512
-1.6091609
-2.0059622
6.6339266
3.7426993
1.3589496
-0.45074807
-1.6042231
-2.0009048
6.6283792
3.7428216
1.3577357
-0.45360577
-1.6071162
-2.0041288
6.6280439
3.743177
1.3605818
-0.44869055
-1.6026336
-1.9997249
6.6234461
3.7417431
1.3596497
-0.45090165
-1.6046237
-2.0014973
6.6267385
3.7426624
1.3619857
-0.4456123
-1.5985076
-1.9952455
6.6234282
3.7415666
1.3621998
-0.44640212
-1.599275
-1.9959919
6.6072795
3.7275896
1.3511247
-0.45352721
-1.6038986
-2.0011971
6.4926191
3.6223178
1.2565813
-0.54048125
-1.6880857
-2.0866704
5.8859154
3.068325
0.74849882
-1.0126586
-2.1373413
-2.5305143
)
;
    }
    symmetryleft
    {
        type            symmetry;
    }
    symmetryrigt
    {
        type            symmetry;
    }
    Outlet
    {
        type            calculated;
        value           nonuniform List<scalar> 
1620
(
-3.5634652
-3.8039514
-3.9738184
-4.0821871
-4.1572368
-4.2207848
-3.5369521
-3.7801466
-3.9519874
-4.0614405
-4.1363324
-4.1953372
-3.5092141
-3.7554519
-3.9295069
-4.0401016
-4.1143795
-4.1688864
-3.4801289
-3.7297912
-3.9063227
-4.018077
-4.0912833
-4.1413589
-3.4495615
-3.7030807
-3.8823698
-3.9952577
-4.0669469
-4.1126775
-3.4173628
-3.6752278
-3.8575708
-3.9715211
-4.0412743
-4.0827624
-3.3833675
-3.6461294
-3.8318331
-3.9467323
-4.0141704
-4.0515319
-3.3473916
-3.6156686
-3.8050459
-3.9207449
-3.9855425
-4.0189028
-3.3092297
-3.5837113
-3.7770782
-3.8934043
-3.9553005
-3.9847917
-3.2686505
-3.5501016
-3.7477759
-3.8645494
-3.9233573
-3.9491158
-3.2253926
-3.5146563
-3.7169609
-3.8340165
-3.8896293
-3.9117943
-3.1791573
-3.4771591
-3.6844302
-3.8016418
-3.8540368
-3.8727504
-3.1296011
-3.4373536
-3.6499561
-3.7672647
-3.8165046
-3.8319135
-3.0763253
-3.3949364
-3.613287
-3.73073
-3.7769628
-3.7892217
-3.0188635
-3.3495499
-3.5741488
-3.6918906
-3.7353482
-3.7446255
-2.9568084
-3.3006301
-3.532247
-3.6506081
-3.691606
-3.6980923
-2.8894017
-3.2478
-3.4872712
-3.6067544
-3.6456928
-3.6496113
-2.8158944
-3.1904796
-3.4388893
-3.5602108
-3.5975801
-3.5992011
-2.7354044
-3.1279978
-3.3867474
-3.5108683
-3.5472595
-3.5469175
-2.6468966
-3.0595811
-3.3304639
-3.4586261
-3.4947487
-3.492865
-2.5491616
-2.9843369
-3.2696203
-3.4033908
-3.4400999
-3.4372098
-2.4407923
-2.901233
-3.203747
-3.3450745
-3.3834094
-3.3801978
-2.3201599
-2.8090672
-3.1323032
-3.2835935
-3.3248306
-3.3221756
-2.1853884
-2.7064285
-3.0546504
-3.2188655
-3.2645886
-3.2636186
-2.0343294
-2.5916437
-2.9700158
-3.1508076
-3.2029989
-3.2051663
-1.8645363
-2.4627092
-2.8774477
-3.0793327
-3.1404881
-3.1476676
-1.6732454
-2.3172037
-2.7757554
-3.0043457
-3.0776177
-3.0922417
-3.8290431
-2.2376369
-0.97420588
-0.20996858
0.18859204
0.38024891
-3.8454496
-2.2174208
-0.94995033
-0.18985927
0.20409674
0.39248446
-3.8987324
-2.204395
-0.92622853
-0.16969765
0.21940098
0.40430215
-4.000236
-2.2048318
-0.90453815
-0.14976207
0.23440346
0.41562218
-4.1547466
-2.2259354
-0.88732261
-0.13059188
0.24894724
0.42634693
-4.3589744
-2.2745194
-0.87803469
-0.11312102
0.26278172
0.43635213
-4.6018805
-2.3554861
-0.88098466
-0.098828177
0.27550225
0.4454736
-4.8667249
-2.470533
-0.90090177
-0.089853178
0.28646498
0.45348416
-5.1341327
-2.6173278
-0.94228789
-0.089030367
0.29469077
0.46005989
-5.385424
-2.7895253
-1.0086349
-0.099816468
0.29875219
0.464727
-5.6054181
-2.9774931
-1.1016764
-0.12604457
0.29668956
0.46679534
-5.7841311
-3.1696966
-1.2208708
-0.17155111
0.28596184
0.46527297
-5.917099
-3.3542891
-1.3632104
-0.23969237
0.26348767
0.45877737
-6.0044993
-3.5206034
-1.5234699
-0.33283216
0.22578357
0.44545527
-6.0495655
-3.6601923
-1.6947683
-0.45190895
0.16921868
0.42293564
-6.0568056
-3.7673152
-1.869414
-0.59616484
0.090368296
0.38834274
-6.0305433
-3.8388962
-2.039781
-0.76309876
-0.013574057
0.33839329
-5.9740428
-3.8741795
-2.1991456
-0.94866869
-0.14438444
0.26959477
-5.888992
-3.874192
-2.3423294
-1.1477131
-0.3024727
0.17854167
-5.7753741
-3.8412809
-2.4661273
-1.3545235
-0.48668214
0.062288203
-5.6313306
-3.778751
-2.5695028
-1.5634745
-0.69427911
-0.081251619
-5.4531249
-3.6907497
-2.6535959
-1.7696126
-0.92113796
-0.25293685
-5.2347069
-3.5823542
-2.7215648
-1.9691087
-1.1621059
-0.45213937
-4.9674816
-3.4600745
-2.7783203
-2.1595081
-1.411486
-0.67664802
-4.6393645
-3.3326988
-2.8301245
-2.3397421
-1.6635724
-0.92278014
-4.2340438
-3.2128737
-2.8840124
-2.5098934
-1.9131585
-1.1857012
-3.7296122
-3.1195442
-2.9468327
-2.6707791
-2.1559811
-1.4599295
-8.2600358
-8.2917341
-8.3280909
-8.3699243
-8.4179961
-8.4725091
-8.5283051
-8.5462363
-8.3910088
-6.5040491
-5.3794415
-5.0164939
-8.2408443
-8.2747687
-8.3129025
-8.3562902
-8.4057159
-8.4597255
-8.5011341
-8.4545828
-8.226108
-7.2945049
-5.8722984
-5.1656089
-8.2213301
-8.2576791
-8.2977571
-8.3428168
-8.3933071
-8.4440421
-8.4620076
-8.3577319
-8.1330545
-7.7095822
-6.3930743
-5.4109233
-8.2014884
-8.2404716
-8.2826675
-8.3294561
-8.3803018
-8.423988
-8.4122248
-8.2668676
-8.0789853
-7.9022066
-6.8609724
-5.7351946
-8.1813203
-8.2231567
-8.2676386
-8.3160851
-8.3660248
-8.3983225
-8.3543186
-8.1871712
-8.0457856
-7.9767671
-7.2367138
-6.1073931
-8.1608332
-8.2057468
-8.2526537
-8.3024737
-8.3496306
-8.3662511
-8.2914091
-8.1202359
-8.023672
-7.996644
-7.5117287
-6.4912914
-8.140042
-8.1882517
-8.2376531
-8.2882483
-8.3301569
-8.3275301
-8.2266813
-8.0656414
-8.0074605
-7.9952897
-7.6963317
-6.8530929
-8.1189707
-8.1706706
-8.2225087
-8.272873
-8.3066411
-8.2825475
-8.1630321
-8.0219639
-7.9944658
-7.987579
-7.8095557
-7.1670606
-8.0976523
-8.1529774
-8.2069869
-8.2556393
-8.2782332
-8.2322735
-8.1028205
-7.9873931
-7.9833314
-7.9788747
-7.8720148
-7.4184183
-8.0761304
-8.1351
-8.1907178
-8.2357043
-8.2443532
-8.1781779
-8.0477528
-7.9601035
-7.9733913
-7.9705187
-7.9017801
-7.6036095
-8.0544575
-8.1168885
-8.173161
-8.2121441
-8.2048003
-8.1220509
-7.9988547
-7.9384457
-7.9643268
-7.9627281
-7.9126895
-7.7283932
-8.0326979
-8.0980839
-8.1536011
-8.1840705
-8.1598592
-8.0658192
-7.9565365
-7.9210457
-7.9560142
-7.9556172
-7.9142212
-7.8045792
-8.0109284
-8.0782784
-8.1311569
-8.1507493
-8.1103141
-8.0113322
-7.9206917
-7.9068191
-7.9484146
-7.9492322
-7.9120606
-7.8462744
-7.9892557
-8.0569096
-8.104865
-8.1117734
-8.0574293
-7.9601925
-7.8908463
-7.8949588
-7.9415448
-7.9436487
-7.9091862
-7.8666785
-7.9678387
-8.0332684
-8.0737816
-8.0671765
-8.0028197
-7.9136137
-7.8662941
-7.8848878
-7.9354379
-7.9389219
-7.9068994
-7.8760521
-7.9469504
-8.0065953
-8.0371773
-8.0175523
-7.9482997
-7.872362
-7.8462357
-7.8762296
-7.9301623
-7.9351484
-7.9056827
-7.8811139
-7.9270498
-7.9762227
-7.9947205
-7.964051
-7.895667
-7.8367409
-7.8298637
-7.8687289
-7.9257467
-7.9323393
-7.9055182
-7.8854479
-7.9089149
-7.941863
-7.9467313
-7.9083529
-7.8465295
-7.8066596
-7.8164573
-7.8622556
-7.9222815
-7.9306396
-7.9067101
-7.8908798
-7.893743
-7.9038992
-7.8943252
-7.8524904
-7.8021273
-7.7817131
-7.8054082
-7.8567478
-7.9198427
-7.9301342
-7.9093433
-7.8979929
-7.8832778
-7.8637618
-7.839553
-7.7986845
-7.7632734
-7.7613206
-7.7962583
-7.8522059
-7.9185088
-7.9308913
-7.9134804
-7.9069981
-7.8797701
-7.8241238
-7.7853337
-7.7490966
-7.7303195
-7.7448104
-7.7886596
-7.8486421
-7.9183527
-7.9330121
-7.9192712
-7.9181421
-7.8858708
-7.7889952
-7.7353457
-7.7057027
-7.7032722
-7.7315697
-7.782427
-7.8461486
-7.9195253
-7.9366877
-7.9269582
-7.9317395
-7.904206
-7.7633519
-7.6936719
-7.6701578
-7.6818939
-7.7210781
-7.777461
-7.8448064
-7.9221248
-7.9420136
-7.9366268
-7.9478756
-7.9368885
-7.7525342
-7.6644657
-7.6438726
-7.6659517
-7.713049
-7.773831
-7.8448009
-7.9263574
-7.9492131
-7.9485222
-7.9668415
-7.9848059
-7.7611818
-7.6514417
-7.6280623
-7.655353
-7.7073968
-7.7716561
-7.8462737
-7.9323311
-7.9583599
-7.9626529
-7.9884734
-8.0471921
-7.792279
-7.6575844
-7.624021
-7.6504484
-7.7044053
-7.7712591
-7.8495088
-7.9402948
-7.9697497
-7.9805292
-8.011543
-8.1211417
-7.8460789
-7.6847837
-7.6332576
-7.6521496
-7.7046966
-7.7730649
-7.8547729
-7.9504223
-7.9835412
-8.001004
-8.03693
-4.391752
-4.99038
-6.7917538
-8.5919426
-8.1297822
-8.0361112
-8.0521741
-8.0873847
-8.1255831
-8.1633415
-8.1992253
-8.2328407
-4.5928657
-5.7372067
-8.0162565
-8.9228303
-8.3110077
-8.0641106
-8.0389493
-8.0676255
-8.105043
-8.1427575
-8.178738
-8.2123924
-4.9414735
-6.5269082
-8.651253
-9.0836709
-8.4997986
-8.1209133
-8.0340824
-8.0489314
-8.0842495
-8.1217436
-8.1578066
-8.1915057
-5.4107795
-7.2324964
-8.9355564
-9.1519331
-8.6701713
-8.2026726
-8.0410645
-8.0326248
-8.0634473
-8.1003216
-8.1364198
-8.170169
-5.9522666
-7.7918567
-9.0322644
-9.1703039
-8.8103936
-8.3026271
-8.0626793
-8.0205088
-8.0430937
-8.0785601
-8.114575
-8.1483757
-6.5091199
-8.1909446
-9.0404757
-9.1618044
-8.9171696
-8.4127403
-8.1005384
-8.0147748
-8.0239411
-8.0566151
-8.0922901
-8.1261271
-7.0281503
-8.4453521
-9.0124845
-9.1386093
-8.9919314
-8.5249125
-8.1547827
-8.0178184
-8.0071113
-8.0347849
-8.0696222
-8.1034386
-7.4686481
-8.5844043
-8.9714421
-9.1070115
-9.0384429
-8.6318935
-8.223974
-8.0319632
-7.994137
-8.0135836
-8.0466967
-8.0803479
-7.8069879
-8.6400538
-8.9257192
-9.0701948
-9.0613347
-8.7278444
-8.3051947
-8.0591237
-7.986949
-7.9938255
-8.0237556
-8.0569318
-8.0370587
-8.6402477
-8.8770892
-9.0296887
-9.0652141
-8.8086299
-8.3943341
-8.1004542
-7.9877815
-7.9767091
-8.0012245
-8.0333326
-8.167311
-8.6062986
-8.8255865
-8.9861828
-9.0541992
-8.8718471
-8.4865273
-8.1560377
-7.9989795
-7.9638778
-7.9798027
-8.0098016
-8.2157118
-8.5527576
-8.7712081
-8.9399443
-9.0317075
-8.9166615
-8.5766759
-8.2246873
-8.0227088
-7.9574302
-7.9605664
-7.9867637
-8.2038935
-8.4882565
-8.7138104
-8.8910115
-9.000406
-8.9435326
-8.6599685
-8.3038996
-8.0606029
-7.9598367
-7.9450691
-7.9649044
-8.1520767
-8.4170832
-8.653023
-8.8393638
-8.9623944
-8.9538454
-8.7323444
-8.3900018
-8.1133726
-7.9737476
-7.935408
-7.9452781
-8.0760788
-8.3411798
-8.5885457
-8.7849031
-8.9191442
-8.9495511
-8.7908225
-8.4784817
-8.1804866
-8.0016645
-7.9342091
-7.9294155
-7.9861996
-8.2610732
-8.5202865
-8.7274091
-8.8715069
-8.9328388
-8.8336665
-8.5644701
-8.2599732
-8.0455034
-7.9444809
-7.9194053
-7.8867338
-8.1751728
-8.4478062
-8.6666248
-8.8200487
-8.9058617
-8.8603716
-8.6432808
-8.3484382
-8.1061041
-7.9692857
-7.9178827
-7.7803262
-8.0836655
-8.3707559
-8.6022669
-8.7650406
-8.87055
-8.8715073
-8.710941
-8.4413214
-8.1827854
-8.0112288
-7.9278788
-7.6666987
-7.9859093
-8.2886598
-8.5339761
-8.7065243
-8.8284975
-8.8684492
-8.7645983
-8.5333972
-8.2730628
-8.07179
-7.9524414
-7.5438018
-7.8810159
-8.2008139
-8.4612435
-8.6443308
-8.7808861
-8.853052
-8.8027465
-8.6194258
-8.3726661
-8.1506405
-7.9940537
-7.4116589
-7.7682795
-8.1063475
-8.383527
-8.5781907
-8.7284587
-8.8273158
-8.8252208
-8.6948451
-8.4759025
-8.2451219
-8.0538479
-7.2695643
-7.6470082
-8.0046651
-8.3000851
-8.5074551
-8.6715125
-8.7930751
-8.8329738
-8.7563418
-8.5763868
-8.35015
-8.1308743
-7.1170743
-7.5166983
-7.8951232
-8.2101669
-8.4313375
-8.6099013
-8.751736
-8.8276607
-8.8021565
-8.6679883
-8.4587053
-8.2216255
-6.954075
-7.3770886
-7.7774841
-8.1130008
-8.3487951
-8.5430648
-8.7040665
-8.811086
-8.8319947
-8.7458013
-8.563069
-8.3203319
-6.7807802
-7.2282276
-7.6510749
-8.0084791
-8.259219
-8.4701274
-8.6500758
-8.7845707
-8.846454
-8.8067318
-8.6565624
-8.4203065
-6.5975957
-7.0704733
-7.5201427
-7.8952708
-8.1595475
-8.3901128
-8.5890701
-8.7483723
-8.8459377
-8.8492204
-8.7353486
-8.5171287
-6.4048087
-6.9040064
-7.3827529
-7.7754025
-8.0512327
-8.3024747
-8.5200672
-8.7014683
-8.8291829
-8.8711731
-8.7985031
-8.6149275
-3.7164974
-3.7671723