/*--------------------------------*- C++ -*----------------------------------*\
| =========                 |                                                 |
| \\      /  F ield         | OpenFOAM: The Open Source CFD Toolbox           |
|  \\    /   O peration     | Version:  3.0.1                                 |
|   \\  /    A nd           | Web:      www.OpenFOAM.org                      |
|    \\/     M anipulation  |                                                 |
\*---------------------------------------------------------------------------*/
FoamFile
{
    version     2.0;
    format      ascii;
    class       volScalarField;
    location    "6000/fluid";
    object      rho;
}
// * * * * * * * * * * * * * * * * * * * * * * * * * * * * * * * * * * * * * //

dimensions      [1 -3 0 0 0 0 0];

internalField   nonuniform List<scalar> 
162000
(
1.0901265
1.0908768
1.0916994
1.0926007
1.0935876
1.0946672
1.0958468
1.0971339
1.098536
1.1000602
1.1017132
1.1035005
1.1054263
1.1074929
1.1096994
1.1120413
1.1145093
1.1170879
1.1197541
1.1224757
1.1252093
1.1278986
1.1304718
1.132839
1.1348883
1.1364812
1.1374457
1.0901432
1.0909261
1.0917846
1.0927252
1.093755
1.0948814
1.096112
1.0974545
1.0989165
1.1005053
1.1022275
1.1040888
1.1060931
1.1082422
1.1105349
1.112966
1.1155251
1.1181958
1.1209538
1.1237654
1.1265863
1.1293592
1.1320121
1.1344557
1.1365803
1.1382519
1.1393054
1.0901748
1.0910211
1.0919489
1.0929655
1.0940782
1.0952951
1.096624
1.098073
1.0996501
1.1013627
1.1032173
1.1052193
1.1073722
1.1096769
1.1121309
1.1147274
1.117454
1.1202918
1.1232137
1.1261836
1.1291546
1.1320677
1.1348507
1.1374163
1.1396603
1.1414587
1.1426635
1.0902196
1.0911564
1.0921835
1.0933086
1.0945397
1.0958853
1.0973539
1.0989539
1.1006934
1.1025797
1.1046192
1.1068164
1.1091737
1.11169
1.1143607
1.1171759
1.1201197
1.1231689
1.1262921
1.1294488
1.1325882
1.135649
1.1385585
1.141233
1.1435766
1.1454813
1.1468249
1.0902747
1.0913248
1.0924757
1.093736
1.0951142
1.0966195
1.0982607
1.1000463
1.1019845
1.1040821
1.1063443
1.1087743
1.111372
1.1141336
1.1170504
1.1201077
1.1232841
1.1265502
1.1298683
1.1331914
1.1364635
1.1396197
1.1425868
1.1452848
1.1476282
1.1495271
1.15089
1.0903368
1.0915163
1.0928085
1.0942227
1.0957682
1.0974545
1.0992905
1.1012847
1.1034446
1.1057758
1.1082819
1.1109633
1.1138162
1.1168323
1.1199971
1.123289
1.1266789
1.1301289
1.1335924
1.1370141
1.1403305
1.1434714
1.1463614
1.1489223
1.1510755
1.1527441
1.1538559
1.0878658
1.0882268
1.0886223
1.0890553
1.0895295
1.0900485
1.0906165
1.0912376
1.0919164
1.0926576
1.093466
1.0943466
1.0953039
1.0963422
1.0974651
1.0986748
1.0999715
1.1013527
1.1028119
1.1043369
1.105908
1.1074956
1.1090576
1.1105512
1.1118963
1.1129721
1.1136468
1.0878774
1.0882596
1.0886784
1.089137
1.0896393
1.0901892
1.090791
1.0914492
1.0921687
1.0929546
1.0938119
1.0947459
1.0957615
1.0968635
1.0980554
1.09934
1.1007174
1.1021853
1.1037368
1.1053592
1.1070324
1.1087254
1.1104269
1.1120632
1.1135197
1.114709
1.1155001
1.087899
1.0883221
1.0887857
1.0892936
1.0898499
1.090459
1.0911258
1.0918553
1.0926529
1.0935242
1.094475
1.095511
1.096638
1.0978609
1.099184
1.1006102
1.1021398
1.1037702
1.1054938
1.107297
1.1091576
1.1110895
1.1130228
1.1148378
1.1164878
1.1178683
1.1188511
1.0879287
1.0884096
1.0889366
1.089514
1.0901465
1.0908392
1.0915974
1.092427
1.0933341
1.094325
1.0954063
1.0965844
1.0978657
1.0992558
1.1007593
1.1023788
1.1041145
1.1059624
1.1079135
1.1099512
1.1121069
1.1143123
1.1164356
1.1184662
1.1203194
1.1218904
1.1230579
1.0879641
1.0885153
1.0891193
1.0897811
1.090506
1.0912997
1.0921686
1.093119
1.094158
1.0952927
1.0965305
1.0978785
1.0993435
1.1009313
1.1026465
1.1044907
1.1064623
1.1085543
1.1107524
1.1130931
1.1155102
1.1178581
1.1201544
1.1223277
1.1242877
1.1259293
1.1271392
1.0880013
1.0886286
1.0893159
1.0900689
1.0908935
1.0917964
1.0927845
1.0938652
1.0950462
1.0963357
1.0977417
1.0992721
1.1009341
1.1027341
1.1046763
1.1067625
1.1089906
1.111354
1.1138332
1.1163359
1.1187771
1.1211884
1.1235009
1.1256285
1.1274733
1.1289299
1.1298964
1.0850181
1.0852437
1.0854904
1.0857601
1.0860549
1.0863771
1.086729
1.0871132
1.0875323
1.0879892
1.0884867
1.0890276
1.0896146
1.0902503
1.0909367
1.0916752
1.092466
1.0933079
1.0941973
1.0951276
1.0960877
1.097061
1.098023
1.0989398
1.0997655
1.1004398
1.1008869
1.0850269
1.085268
1.0855317
1.0858201
1.0861354
1.08648
1.0868566
1.0872678
1.0877167
1.0882061
1.0887393
1.0893192
1.089949
1.0906314
1.0913688
1.0921629
1.0930141
1.0939215
1.0948816
1.0958877
1.0969287
1.0979873
1.0990383
1.1000464
1.1009632
1.1017254
1.1022531
1.0850432
1.085314
1.0856103
1.0859344
1.086289
1.0866767
1.0871005
1.0875635
1.088069
1.0886206
1.0892218
1.0898762
1.0905873
1.0913586
1.0921928
1.0930921
1.0940576
1.0950885
1.0961815
1.0973297
1.0985216
1.0997389
1.1009546
1.1021303
1.1032147
1.1041408
1.1048243
1.0850651
1.0853775
1.0857194
1.0860935
1.0865028
1.0869505
1.0874399
1.0879748
1.0885589
1.0891965
1.0898916
1.0906485
1.0914713
1.0923642
1.0933305
1.094373
1.0954929
1.0966897
1.0979597
1.0992956
1.1006842
1.102105
1.1035274
1.1049096
1.1061961
1.1073157
1.1082423
1.0850904
1.0854522
1.0858482
1.0862815
1.0867555
1.0872739
1.0878407
1.0884601
1.0891365
1.0898746
1.0906793
1.0915553
1.0925076
1.0935406
1.0946582
1.0958632
1.0971568
1.0985376
1.1000009
1.1015369
1.1031292
1.1047522
1.1063709
1.1079386
1.109395
1.1107396
1.1118508
1.0851159
1.0855291
1.0859814
1.0864762
1.0870174
1.0876092
1.0882561
1.0889627
1.0897341
1.0905755
1.0914923
1.0924897
1.0935729
1.0947465
1.0960143
1.0973783
1.0988384
1.100391
1.1020275
1.1037328
1.1054837
1.1072485
1.1089841
1.1106361
1.1121312
1.1133104
1.114045
1.0818973
1.0820581
1.0822336
1.0824252
1.0826344
1.0828628
1.0831119
1.0833836
1.0836797
1.0840021
1.0843528
1.0847336
1.0851466
1.0855934
1.0860754
1.0865936
1.0871483
1.0877386
1.0883623
1.0890151
1.08969
1.0903762
1.091058
1.0917135
1.0923129
1.0928173
1.0931765
1.0819041
1.0820762
1.0822641
1.0824693
1.0826936
1.0829384
1.0832056
1.0834971
1.083815
1.0841613
1.0845381
1.0849478
1.0853923
1.0858736
1.0863934
1.0869529
1.0875526
1.088192
1.0888689
1.0895792
1.0903159
1.0910682
1.09182
1.0925492
1.0932254
1.093809
1.0942499
1.0819168
1.0821115
1.0823243
1.0825568
1.0828106
1.0830877
1.0833904
1.0837208
1.0840813
1.0844743
1.0849024
1.0853679
1.0858736
1.0864216
1.0870141
1.0876528
1.0883383
1.0890705
1.0898473
1.0906646
1.091515
1.0923868
1.093263
1.0941192
1.0949225
1.0956299
1.0961876
1.0819343
1.0821612
1.0824092
1.0826802
1.0829764
1.0833001
1.0836536
1.0840396
1.0844608
1.0849201
1.0854203
1.0859645
1.0865557
1.0871966
1.0878896
1.0886367
1.0894388
1.0902956
1.0912047
1.0921611
1.0931559
1.0941753
1.0951989
1.0961978
1.0971333
1.0979548
1.0985998
1.0819552
1.082222
1.0825135
1.0828322
1.0831805
1.0835609
1.0839764
1.0844299
1.0849244
1.0854633
1.0860499
1.0866876
1.0873794
1.0881286
1.0889373
1.0898075
1.0907394
1.0917318
1.0927806
1.0938784
1.0950127
1.0961649
1.0973084
1.0984066
1.0994114
1.1002622
1.1008838
1.0819781
1.0822902
1.0826312
1.0830038
1.0834106
1.0838547
1.0843391
1.0848671
1.0854421
1.0860675
1.0867468
1.0874831
1.0882794
1.0891381
1.0900608
1.0910475
1.0920966
1.0932037
1.0943606
1.0955547
1.096767
1.0979711
1.099132
1.1002049
1.1011348
1.1018585
1.1023101
1.078682
1.0788111
1.0789517
1.0791049
1.0792719
1.0794539
1.0796521
1.0798679
1.0801028
1.080358
1.0806352
1.0809357
1.0812609
1.081612
1.08199
1.0823954
1.0828283
1.0832879
1.0837724
1.0842784
1.0848005
1.0853308
1.0858579
1.086366
1.0868343
1.0872355
1.0875353
1.0786875
1.0788254
1.0789757
1.0791396
1.0793182
1.079513
1.0797253
1.0799565
1.0802081
1.0804818
1.0807791
1.0811017
1.0814509
1.0818282
1.0822347
1.082671
1.0831375
1.0836334
1.0841568
1.0847046
1.0852711
1.0858482
1.086424
1.0869822
1.0875007
1.0879507
1.0882954
1.0786972
1.0788521
1.0790211
1.0792055
1.0794066
1.0796259
1.0798651
1.0801257
1.0804096
1.0807185
1.0810543
1.0814188
1.0818137
1.0822408
1.0827014
1.0831963
1.0837262
1.0842902
1.0848869
1.0855126
1.0861617
1.0868254
1.0874911
1.088141
1.0887515
1.0892914
1.0897215
1.0787102
1.078889
1.0790841
1.0792971
1.0795295
1.0797831
1.0800598
1.0803613
1.0806899
1.0810475
1.0814363
1.0818586
1.0823162
1.0828113
1.0833454
1.0839197
1.0845347
1.0851899
1.0858834
1.0866113
1.0873671
1.0881409
1.0889182
1.0896792
1.0903972
1.0910379
1.0915585
1.0787249
1.0789319
1.0791579
1.0794047
1.0796742
1.0799686
1.0802897
1.0806392
1.0810208
1.081436
1.0818859
1.0823746
1.0829043
1.0834771
1.0840947
1.0847582
1.0854681
1.0862233
1.0870211
1.0878566
1.0887214
1.0896034
1.0904852
1.0913435
1.0921482
1.0928617
1.0934401
1.0787398
1.0789765
1.0792349
1.079517
1.0798247
1.0801602
1.080526
1.0809251
1.0813588
1.0818305
1.0823442
1.0829009
1.0835033
1.0841535
1.084853
1.0856026
1.0864018
1.0872484
1.0881381
1.0890632
1.0900124
1.0909696
1.0919129
1.0928149
1.0936424
1.0943593
1.0949307
1.0754705
1.0755807
1.0757006
1.0758312
1.0759734
1.0761281
1.0762966
1.0764798
1.076679
1.0768955
1.0771304
1.0773849
1.0776602
1.0779573
1.0782771
1.07862
1.0789862
1.0793751
1.0797853
1.0802141
1.0806573
1.0811088
1.0815598
1.0820002
1.0824141
1.0827772
1.0830618
1.0754751
1.0755925
1.0757204
1.0758596
1.0760113
1.0761764
1.0763562
1.0765519
1.0767648
1.0769961
1.0772472
1.0775193
1.0778139
1.0781318
1.0784742
1.0788415
1.0792338
1.0796507
1.0800905
1.0805505
1.081026
1.08151
1.082004
1.0824948
1.0829518
1.0833604
1.0836925
1.0754833
1.0756148
1.0757581
1.0759142
1.0760844
1.0762698
1.0764717
1.0766916
1.0769309
1.077191
1.0774736
1.07778
1.0781118
1.0784703
1.0788565
1.0792714
1.0797151
1.0801874
1.0806869
1.0812111
1.0817558
1.0823149
1.0828613
1.0834009
1.0839437
1.084431
1.0848342
1.0754943
1.0756455
1.0758105
1.0759905
1.0761869
1.0764012
1.0766345
1.0768879
1.0771638
1.0774638
1.0777897
1.0781431
1.0785257
1.0789389
1.079384
1.0798618
1.0803725
1.0809155
1.0814889
1.0820889
1.0827095
1.0833408
1.084013
1.0846911
1.0852909
1.0858303
1.0862745
1.0755069
1.0756821
1.075873
1.0760812
1.0763081
1.0765554
1.0768254
1.0771204
1.0774414
1.07779
1.0781683
1.0785777
1.0790203
1.0794979
1.0800118
1.0805632
1.0811522
1.0817784
1.0824398
1.0831329
1.0838516
1.0845869
1.0853201
1.0860208
1.0866631
1.0872183
1.0876491
1.0755202
1.0757216
1.0759413
1.0761808
1.0764418
1.0767262
1.0770356
1.077372
1.0777376
1.0781349
1.0785658
1.079033
1.079538
1.0800824
1.0806673
1.0812932
1.0819596
1.0826647
1.0834051
1.0841754
1.0849677
1.0857722
1.0865205
1.0871697
1.0877516
1.0882297
1.0885645
1.0723175
1.0724174
1.0725259
1.0726439
1.0727723
1.0729119
1.0730637
1.0732287
1.073408
1.0736025
1.0738135
1.074042
1.0742889
1.0745551
1.0748415
1.0751484
1.0754759
1.0758235
1.07619
1.0765732
1.0769697
1.077374
1.077779
1.0781704
1.0785383
1.078865
1.0791281
1.0723216
1.0724277
1.072543
1.0726684
1.0728049
1.0729534
1.0731149
1.0732905
1.0734813
1.0736885
1.0739131
1.0741564
1.0744194
1.074703
1.0750081
1.0753352
1.0756842
1.0760548
1.0764457
1.0768544
1.0772773
1.0777088
1.0781408
1.0785669
1.0789688
1.0793281
1.0796211
1.0723285
1.072446
1.072574
1.0727133
1.0728649
1.07303
1.0732097
1.0734052
1.0736177
1.0738485
1.074099
1.0743703
1.0746638
1.0749806
1.0753215
1.0756872
1.0760779
1.0764931
1.0769316
1.0773909
1.0778674
1.0783551
1.0788459
1.0793286
1.0797882
1.0802046
1.0805529
1.0723375
1.0724714
1.0726172
1.0727761
1.0729491
1.0731375
1.0733427
1.0735659
1.0738087
1.0740724
1.0743587
1.0746688
1.0750043
1.0753663
1.075756
1.076174
1.0766206
1.0770952
1.0775964
1.0781215
1.0786662
1.0792242
1.0797865
1.0803404
1.0808688
1.0813509
1.0817614
1.0723478
1.0725012
1.0726684
1.0728506
1.0730491
1.0732653
1.0735007
1.0737568
1.0740353
1.0743378
1.0746659
1.0750213
1.0754054
1.0758196
1.0762649
1.0767421
1.077251
1.0777909
1.0783599
1.0789543
1.0795688
1.0801953
1.0808225
1.0814355
1.0820156
1.0825408
1.0829859
1.0723582
1.0725323
1.072722
1.0729289
1.0731542
1.0733996
1.0736667
1.0739572
1.0742728
1.0746154
1.0749866
1.0753882
1.0758216
1.0762881
1.0767887
1.0773234
1.0778919
1.0784923
1.0791215
1.0797743
1.0804429
1.0811162
1.081779
1.0824127
1.082996
1.083504
1.0839097
1.0692508
1.0693433
1.0694437
1.0695528
1.0696714
1.0698002
1.0699403
1.0700925
1.0702577
1.0704371
1.0706314
1.0708418
1.0710692
1.0713144
1.0715781
1.0718608
1.0721625
1.072483
1.072821
1.0731748
1.0735411
1.0739153
1.0742908
1.0746584
1.075006
1.0753177
1.0755733
1.0692545
1.0693523
1.0694587
1.0695743
1.0697
1.0698368
1.0699854
1.0701469
1.0703224
1.0705128
1.0707194
1.070943
1.0711847
1.0714455
1.071726
1.0720269
1.0723482
1.0726895
1.0730499
1.0734274
1.0738187
1.074219
1.0746213
1.0750162
1.0753912
1.0757306
1.076014
1.0692608
1.0693692
1.069487
1.0696153
1.0697548
1.0699065
1.0700716
1.0702511
1.0704461
1.0706579
1.0708876
1.0711363
1.0714054
1.0716957
1.0720081
1.0723433
1.0727015
1.0730823
1.0734848
1.0739072
1.0743463
1.0747982
1.0752452
1.0756839
1.0761031
1.0764866
1.0768143
1.0692693
1.0693926
1.0695268
1.0696727
1.0698316
1.0700045
1.0701926
1.0703971
1.0706194
1.0708606
1.0711222
1.0714054
1.0717115
1.0720415
1.0723965
1.0727769
1.0731828
1.0736138
1.0740684
1.0745443
1.0750374
1.0755431
1.0760487
1.0765473
1.0770251
1.0774636
1.0778401
1.0692784
1.069419
1.069572
1.0697386
1.06992
1.0701175
1.0703322
1.0705657
1.0708194
1.0710946
1.0713929
1.0717156
1.0720641
1.0724393
1.0728423
1.0732733
1.0737323
1.0742183
1.0747291
1.0752613
1.0758092
1.0763641
1.0769326
1.0774922
1.0780253
1.0785121
1.078931
1.0692874
1.069446
1.0696188
1.0698069
1.0700118
1.0702348
1.0704773
1.0707408
1.071027
1.0713373
1.0716733
1.0720364
1.0724279
1.0728488
1.0732999
1.0737812
1.0742921
1.0748312
1.0753956
1.075981
1.0765811
1.0771874
1.0777889
1.0783698
1.0789093
1.0793848
1.0797698
1.0662867
1.0663743
1.0664695
1.0665728
1.066685
1.0668069
1.0669392
1.067083
1.0672389
1.0674081
1.0675914
1.0677897
1.0680039
1.0682349
1.0684824
1.0687477
1.0690307
1.0693312
1.0696481
1.0699799
1.0703235
1.070675
1.0710283
1.0713755
1.0717059
1.0720056
1.0722574
1.0662901
1.0663826
1.066483
1.0665921
1.0667106
1.0668393
1.0669792
1.0671311
1.0672959
1.0674747
1.0676684
1.067878
1.0681043
1.0683481
1.068611
1.0688928
1.0691934
1.0695126
1.0698495
1.0702022
1.0705679
1.0709422
1.0713191
1.0716902
1.0720443
1.0723672
1.0726404
1.0662957
1.0663975
1.066508
1.0666282
1.0667589
1.066901
1.0670555
1.0672233
1.0674055
1.0676032
1.0678176
1.0680496
1.0683003
1.0685707
1.0688616
1.0691733
1.0695062
1.0698598
1.0702332
1.0706245
1.0710306
1.0714468
1.0718668
1.0722815
1.0726795
1.0730455
1.0733608
1.0663031
1.0664179
1.0665427
1.0666786
1.0668264
1.0669871
1.0671619
1.0673518
1.0675581
1.067782
1.0680248
1.0682875
1.0685714
1.0688774
1.0692064
1.069559
1.0699353
1.0703348
1.0707564
1.0711979
1.0716559
1.0721253
1.072599
1.0730674
1.0735182
1.0739357
1.0743005
1.0663114
1.0664419
1.0665839
1.0667384
1.0669066
1.0670896
1.0672885
1.0675048
1.0677396
1.0679943
1.0682703
1.0685688
1.0688911
1.0692382
1.069611
1.0700097
1.0704345
1.0708847
1.0713585
1.0718533
1.0723648
1.072887
1.0734118
1.0739283
1.0744228
1.0748782
1.0752749
1.0663198
1.0664671
1.0666275
1.0668021
1.066992
1.0671987
1.0674233
1.0676673
1.0679321
1.0682192
1.0685299
1.0688655
1.0692272
1.069616
1.0700325
1.0704769
1.0709485
1.0714462
1.0719674
1.0725082
1.073063
1.0736237
1.0741801
1.0747186
1.0752225
1.0756718
1.0760434
1.0634313
1.0635147
1.0636052
1.0637034
1.0638099
1.0639256
1.0640512
1.0641875
1.0643353
1.0644956
1.0646693
1.0648572
1.0650601
1.0652788
1.0655139
1.065766
1.0660351
1.0663209
1.0666227
1.0669388
1.0672668
1.0676029
1.0679415
1.0682751
1.0685937
1.0688844
1.0691309
1.0634346
1.0635226
1.0636181
1.0637219
1.0638345
1.0639568
1.0640896
1.0642338
1.0643903
1.0645601
1.064744
1.064943
1.065158
1.0653898
1.065639
1.0659062
1.0661915
1.0664946
1.0668149
1.0671507
1.0674995
1.0678575
1.0682192
1.0685758
1.0689119
1.0692212
1.0694866
1.0634401
1.0635371
1.0636424
1.0637568
1.0638812
1.0640163
1.0641631
1.0643226
1.0644958
1.0646837
1.0648874
1.065108
1.0653464
1.0656037
1.0658807
1.0661748
1.0664889
1.0668228
1.0671754
1.0675452
1.0679292
1.0683234
1.0687217
1.069116
1.0694931
1.0698434
1.0701495
1.0634472
1.0635565
1.0636753
1.0638044
1.0639447
1.0640973
1.064263
1.0644431
1.0646386
1.0648506
1.0650802
1.0653287
1.0655969
1.065886
1.0661968
1.0665287
1.0668832
1.0672594
1.0676561
1.0680713
1.0685015
1.0689418
1.0693855
1.0698253
1.0702591
1.0706611
1.0710145
1.0634549
1.0635785
1.063713
1.0638593
1.0640183
1.0641912
1.0643791
1.0645831
1.0648045
1.0650445
1.0653042
1.0655849
1.0658875
1.0662128
1.0665614
1.0669383
1.0673394
1.0677641
1.0682108
1.0686771
1.069159
1.0696511
1.0701463
1.070635
1.0711043
1.0715382
1.0719185
1.0634626
1.0636018
1.0637533
1.0639182
1.0640974
1.0642923
1.0645041
1.0647341
1.0649836
1.065254
1.0655464
1.0658623
1.0662026
1.0665684
1.0669602
1.0673784
1.0678222
1.0682905
1.0687808
1.0692897
1.0698118
1.0703399
1.0708644
1.071373
1.0718504
1.0722779
1.0726344
1.0606893
1.0607696
1.0608567
1.0609511
1.0610535
1.0611646
1.0612851
1.0614159
1.0615577
1.0617113
1.0618777
1.0620576
1.0622519
1.0624612
1.0626863
1.0629275
1.063184
1.0634565
1.0637442
1.0640458
1.0643588
1.0646799
1.065004
1.0653245
1.0656323
1.0659159
1.0661607
1.0606924
1.0607769
1.0608686
1.060968
1.0610759
1.061193
1.0613201
1.061458
1.0616075
1.0617695
1.0619449
1.0621346
1.0623394
1.0625601
1.0627971
1.063051
1.063323
1.0636118
1.0639168
1.0642364
1.0645683
1.0649089
1.065253
1.0655937
1.0659216
1.0662245
1.0664872
1.0606974
1.0607899
1.0608904
1.0609994
1.0611179
1.0612465
1.0613862
1.0615378
1.0617023
1.0618807
1.0620739
1.0622829
1.0625087
1.062752
1.0630136
1.063294
1.0635933
1.0639114
1.0642474
1.0645997
1.0649658
1.0653419
1.0657224
1.0661001
1.066465
1.0668046
1.0671029
1.0607038
1.0608077
1.0609206
1.0610432
1.0611765
1.0613213
1.0614786
1.0616494
1.0618348
1.0620358
1.0622536
1.0624891
1.0627435
1.0630176
1.0633121
1.0636277
1.0639643
1.0643218
1.0646991
1.0650944
1.0655049
1.0659263
1.0663526
1.0667759
1.0671858
1.0675691
1.0679095
1.0607111
1.0608287
1.0609566
1.0610955
1.0612466
1.0614108
1.0615891
1.0617828
1.061993
1.0622209
1.0624676
1.0627343
1.063022
1.0633317
1.0636641
1.0640197
1.0643984
1.0647996
1.065222
1.0656632
1.0661198
1.0665865
1.0670566
1.0675208
1.0679676
1.0683829
1.0687502
1.0607186
1.060851
1.060995
1.0611516
1.0613218
1.0615068
1.0617078
1.0619259
1.0621625
1.0624187
1.0626959
1.0629951
1.0633173
1.0636635
1.0640342
1.0644294
1.0648489
1.0652914
1.0657549
1.066236
1.0667299
1.06723
1.0677274
1.068211
1.0686668
1.0690782
1.0694259
1.0580605
1.0581377
1.0582213
1.0583119
1.0584101
1.0585165
1.058632
1.0587572
1.058893
1.05904
1.0591992
1.0593713
1.0595571
1.0597574
1.0599726
1.0602033
1.0604497
1.0607116
1.0609883
1.0612785
1.0615802
1.0618901
1.0622036
1.062514
1.0628131
1.0630899
1.0633303
1.0580635
1.0581447
1.0582328
1.0583283
1.0584319
1.0585442
1.0586661
1.0587983
1.0589417
1.059097
1.0592652
1.0594471
1.0596436
1.0598553
1.0600829
1.0603269
1.0605875
1.0608646
1.0611576
1.0614651
1.0617853
1.0621149
1.0624494
1.0627755
1.0630907
1.063384
1.0636409
1.0580685
1.0581577
1.0582544
1.0583594
1.0584733
1.058597
1.0587313
1.058877
1.0590351
1.0592066
1.0593923
1.0595933
1.0598105
1.0600448
1.0602946
1.0605625
1.0608485
1.0611526
1.0614739
1.0618111
1.0621618
1.0625224
1.0628886
1.0632493
1.0636001
1.0639287
1.0642208
1.0580748
1.0581749
1.0582835
1.0584014
1.0585294
1.0586685
1.0588194
1.0589833
1.059161
1.0593536
1.0595621
1.0597875
1.0600308
1.060293
1.060574
1.0608752
1.0611964
1.0615373
1.0618968
1.0622732
1.0626634
1.063063
1.0634657
1.0638759
1.0642731
1.0646452
1.0649771
1.0580816
1.0581944
1.0583169
1.05845
1.0585946
1.0587516
1.0589221
1.0591071
1.0593077
1.059525
1.05976
1.0600137
1.0602871
1.0605809
1.0608992
1.0612392
1.0616012
1.0619844
1.0623877
1.0628089
1.0632447
1.0636905
1.0641402
1.0645858
1.0650153
1.0654157
1.0657712
1.0580886
1.0582153
1.0583531
1.0585027
1.0586654
1.0588421
1.059034
1.0592423
1.059468
1.0597124
1.0599767
1.060262
1.0605693
1.0608994
1.061253
1.06163
1.0620301
1.0624523
1.0628944
1.0633535
1.063825
1.0643028
1.0647786
1.0652417
1.065679
1.0660748
1.0664106
1.055546
1.0556208
1.0557018
1.0557894
1.0558843
1.0559872
1.0560987
1.0562195
1.0563505
1.0564922
1.0566456
1.0568114
1.0569903
1.0571831
1.0573903
1.0576123
1.0578493
1.0581002
1.0583655
1.0586439
1.0589335
1.0592313
1.059533
1.0598331
1.0601236
1.0603948
1.060634
1.0555489
1.0556274
1.0557125
1.0558046
1.0559045
1.0560127
1.0561301
1.0562572
1.056395
1.0565443
1.0567057
1.0568802
1.0570685
1.0572712
1.0574891
1.0577225
1.0579717
1.0582374
1.058518
1.0588125
1.0591188
1.0594338
1.0597532
1.0600709
1.060379
1.060667
1.0609217
1.0555534
1.0556391
1.055732
1.0558327
1.0559419
1.0560604
1.0561889
1.0563283
1.0564795
1.0566432
1.0568204
1.0570121
1.0572189
1.0574418
1.0576814
1.0579381
1.0582123
1.0585037
1.0588117
1.0591349
1.0594713
1.0598175
1.0601688
1.060519
1.0608594
1.0611793
1.0614648
1.0555593
1.0556551
1.0557591
1.0558719
1.0559943
1.0561272
1.0562715
1.056428
1.0565977
1.0567816
1.0569807
1.0571959
1.0574282
1.0576785
1.0579473
1.0582353
1.0585426
1.0588689
1.0592134
1.0595747
1.0599502
1.0603363
1.060728
1.0611182
1.0614981
1.061856
1.0621779
1.0555659
1.055674
1.0557913
1.0559187
1.0560571
1.0562073
1.0563704
1.0565474
1.0567393
1.0569472
1.0571721
1.0574152
1.0576773
1.0579593
1.0582619
1.0585856
1.0589302
1.0592954
1.05968
1.0600821
1.0604984
1.0609248
1.061355
1.0617813
1.0621937
1.0625797
1.0629253
1.0555726
1.0556941
1.055826
1.0559692
1.0561249
1.0562939
1.0564773
1.0566762
1.0568918
1.0571252
1.0573775
1.0576498
1.0579429
1.0582576
1.0585946
1.0589538
1.059335
1.0597372
1.0601586
1.0605964
1.0610463
1.0615026
1.0619577
1.0624017
1.0628227
1.063206
1.063535
1.0531442
1.0532164
1.0532945
1.053379
1.0534704
1.0535694
1.0536767
1.0537929
1.0539187
1.054055
1.0542023
1.0543615
1.0545333
1.0547184
1.0549174
1.0551306
1.0553583
1.0556005
1.0558566
1.0561256
1.0564058
1.0566943
1.0569873
1.0572791
1.0575624
1.0578279
1.0580634
1.053147
1.0532228
1.0533049
1.0533938
1.05349
1.0535943
1.0537073
1.0538298
1.0539624
1.0541061
1.0542615
1.0544294
1.0546108
1.0548061
1.0550161
1.0552412
1.0554816
1.0557372
1.0560077
1.0562921
1.0565885
1.0568944
1.0572062
1.0575129
1.0578105
1.0580901
1.0583397
1.0531516
1.0532345
1.0533243
1.0534217
1.0535272
1.0536416
1.0537657
1.0539003
1.0540461
1.0542041
1.0543751
1.0545601
1.0547598
1.0549752
1.055207
1.0554531
1.055716
1.0559955
1.0562911
1.0566016
1.0569251
1.0572584
1.0575979
1.0579345
1.0582628
1.0585733
1.0588535
1.0531574
1.0532501
1.0533506
1.0534596
1.0535778
1.053706
1.0538451
1.0539958
1.0541593
1.0543363
1.0545277
1.0547346
1.0549579
1.0551981
1.0554564
1.0557321
1.0560265
1.0563391
1.056669
1.0570146
1.0573734
1.0577415
1.058113
1.0584905
1.0588598
1.059209
1.0595244
1.0531635
1.0532677
1.0533808
1.0535034
1.0536365
1.0537809
1.0539375
1.0541074
1.0542914
1.0544906
1.0547059
1.0549383
1.0551886
1.0554576
1.0557455
1.0560568
1.056388
1.0567388
1.0571079
1.0574936
1.0578931
1.0583022
1.0587156
1.0591264
1.0595249
1.0598989
1.0602348
1.0531698
1.0532866
1.0534133
1.053551
1.0537004
1.0538625
1.0540385
1.0542292
1.0544359
1.0546595
1.0549011
1.0551618
1.0554425
1.0557439
1.0560665
1.0564107
1.0567761
1.0571616
1.0575656
1.0579853
1.058417
1.0588551
1.0592924
1.0597198
1.0601257
1.0604962
1.060815
1.0508547
1.050925
1.0510009
1.0510829
1.0511717
1.0512677
1.0513716
1.0514841
1.0516059
1.0517376
1.05188
1.0520339
1.0521998
1.0523785
1.0525706
1.0527765
1.0529964
1.0532293
1.0534756
1.0537344
1.0540041
1.0542822
1.054565
1.0548478
1.0551238
1.0553845
1.0556191
1.0508574
1.0509311
1.0510106
1.0510967
1.0511899
1.0512907
1.0513999
1.0515181
1.051646
1.0517845
1.0519341
1.0520958
1.0522701
1.0524578
1.0526594
1.0528752
1.0531056
1.0533515
1.0536115
1.0538846
1.0541692
1.0544626
1.0547611
1.0550596
1.055351
1.0556265
1.0558746
1.0508616
1.0509415
1.0510281
1.0511219
1.0512234
1.0513335
1.0514527
1.0515818
1.0517217
1.0518731
1.0520369
1.0522139
1.0524048
1.0526104
1.0528314
1.0530682
1.053321
1.0535899
1.0538742
1.0541729
1.0544842
1.0548052
1.055132
1.055459
1.0557789
1.0560822
1.056357
1.0508669
1.0509561
1.0510526
1.0511572
1.0512706
1.0513936
1.0515269
1.0516714
1.0518279
1.0519974
1.0521808
1.0523789
1.0525927
1.0528228
1.05307
1.0533347
1.0536172
1.0539172
1.0542342
1.0545668
1.0549129
1.0552694
1.0556319
1.0559943
1.0563489
1.0566856
1.0569921
1.0508729
1.0509731
1.0510817
1.0511995
1.0513273
1.0514658
1.0516161
1.051779
1.0519556
1.0521466
1.0523533
1.0525764
1.0528169
1.0530756
1.0533531
1.0536499
1.0539659
1.0543008
1.0546537
1.0550229
1.0554056
1.0557981
1.0561951
1.0565898
1.0569733
1.057335
1.0576622
1.0508791
1.0509913
1.0511131
1.0512453
1.0513887
1.0515443
1.051713
1.0518958
1.0520938
1.052308
1.0525394
1.052789
1.0530575
1.0533458
1.0536544
1.0539833
1.0543324
1.0547008
1.0550871
1.0554886
1.0559018
1.0563216
1.0567413
1.0571524
1.0575443
1.0579042
1.0582172
1.0486752
1.0487433
1.0488168
1.0488961
1.0489819
1.0490747
1.049175
1.0492836
1.049401
1.049528
1.0496652
1.0498134
1.0499732
1.0501453
1.0503302
1.0505284
1.0507401
1.0509653
1.0512037
1.0514544
1.051716
1.0519861
1.0522614
1.0525372
1.052807
1.0530628
1.0532941
1.0486778
1.0487492
1.0488262
1.0489095
1.0489996
1.0490971
1.0492026
1.0493167
1.0494402
1.0495739
1.0497183
1.0498744
1.0500427
1.0502239
1.0504188
1.0506276
1.0508507
1.051088
1.0513392
1.0516034
1.0518793
1.0521645
1.0524558
1.0527487
1.05303
1.0532977
1.0535411
1.048682
1.0487597
1.0488437
1.0489346
1.049033
1.0491395
1.0492549
1.0493798
1.0495151
1.0496615
1.0498199
1.049991
1.0501757
1.0503748
1.0505888
1.0508183
1.0510639
1.0513218
1.0515949
1.0518822
1.0521819
1.0524914
1.0528071
1.0531244
1.0534327
1.0537276
1.0539976
1.0486873
1.0487739
1.0488675
1.048969
1.0490788
1.0491978
1.0493267
1.0494664
1.0496176
1.0497812
1.0499581
1.0501491
1.050355
1.0505766
1.0508145
1.0510691
1.051341
1.0516285
1.0519327
1.0522517
1.0525835
1.0529248
1.053271
1.0536158
1.0539629
1.054293
1.0545945
1.048693
1.0487899
1.0488949
1.0490087
1.0491321
1.0492658
1.0494106
1.0495675
1.0497374
1.0499211
1.0501196
1.0503338
1.0505643
1.050812
1.0510773
1.0513605
1.0516612
1.0519845
1.0523248
1.0526804
1.0530488
1.0534267
1.0538092
1.0541902
1.0545621
1.0549137
1.0552329
1.0486987
1.048807
1.0489244
1.0490518
1.0491899
1.0493396
1.0495019
1.0496777
1.0498679
1.0500737
1.0502958
1.0505353
1.050793
1.0510696
1.0513655
1.0516811
1.0520162
1.0523701
1.0527413
1.0531273
1.0535248
1.0539289
1.0543334
1.0547303
1.0551094
1.0554583
1.0557627
1.0466047
1.0466712
1.0467429
1.0468202
1.0469037
1.046994
1.0470915
1.047197
1.0473109
1.0474341
1.0475671
1.0477107
1.0478655
1.0480321
1.0482111
1.048403
1.0486071
1.0488242
1.0490541
1.049296
1.0495484
1.0498095
1.050076
1.0503439
1.0506074
1.0508593
1.0510903
1.0466072
1.0466767
1.0467517
1.0468326
1.0469201
1.0470146
1.0471169
1.0472274
1.0473468
1.047476
1.0476154
1.0477659
1.0479282
1.0481027
1.0482901
1.0484908
1.0487058
1.0489345
1.0491765
1.049431
1.0496967
1.0499712
1.0502516
1.0505333
1.0508103
1.051075
1.0513176
1.046611
1.0466863
1.0467676
1.0468555
1.0469505
1.0470533
1.0471646
1.0472849
1.0474151
1.0475559
1.0477081
1.0478724
1.0480495
1.0482402
1.0484451
1.0486646
1.048899
1.0491483
1.049412
1.0496894
1.0499788
1.050278
1.0505834
1.0508903
1.0511925
1.0514816
1.0517475
1.0466159
1.0466994
1.0467897
1.0468874
1.0469931
1.0471075
1.0472315
1.0473656
1.0475109
1.0476679
1.0478377
1.0480211
1.0482187
1.0484314
1.0486598
1.0489043
1.0491652
1.0494424
1.0497354
1.0500431
1.0503637
1.0506945
1.0510317
1.05137
1.0517028
1.0520212
1.0523145
1.0466214
1.0467149
1.046816
1.0469256
1.0470443
1.0471729
1.0473122
1.047463
1.0476263
1.0478028
1.0479936
1.0481995
1.0484213
1.0486597
1.0489155
1.0491888
1.0494799
1.0497885
1.0501139
1.0504544
1.0508079
1.051171
1.0515392
1.0519064
1.052265
1.0526055
1.0529169
1.046627
1.0467315
1.0468447
1.0469673
1.0471003
1.0472443
1.0474004
1.0475693
1.0477521
1.0479497
1.048163
1.0483928
1.0486401
1.0489055
1.0491893
1.0494919
1.0498131
1.0501522
1.0505078
1.0508778
1.0512591
1.0516472
1.0520363
1.0524189
1.0527855
1.0531251
1.0534244
1.0446401
1.0447048
1.0447744
1.0448495
1.0449305
1.045018
1.0451124
1.0452144
1.0453246
1.0454436
1.0455721
1.0457108
1.0458602
1.046021
1.0461937
1.0463787
1.0465765
1.0467869
1.0470098
1.0472446
1.04749
1.047744
1.0480041
1.0482661
1.0485247
1.0487728
1.0490011
1.0446425
1.0447101
1.044783
1.0448617
1.0449465
1.0450382
1.0451373
1.0452443
1.04536
1.045485
1.04562
1.0457656
1.0459227
1.0460917
1.0462733
1.0464679
1.0466758
1.0468972
1.0471316
1.0473784
1.0476364
1.0479035
1.0481769
1.0484528
1.0487258
1.0489892
1.0492264
1.0446464
1.0447197
1.0447989
1.0448843
1.0449767
1.0450765
1.0451844
1.0453011
1.0454274
1.0455638
1.0457112
1.0458703
1.0460419
1.0462267
1.0464253
1.0466382
1.0468658
1.0471084
1.0473661
1.0476339
1.0479128
1.0482013
1.0484965
1.048794
1.049088
1.0493718
1.0496316
1.0446513
1.0447327
1.0448207
1.0449157
1.0450185
1.0451297
1.04525
1.0453801
1.0455208
1.0456729
1.0458373
1.0460146
1.0462056
1.0464111
1.0466317
1.0468677
1.0471194
1.0473868
1.0476697
1.0479654
1.0482736
1.0485918
1.0489161
1.0492413
1.0495606
1.0498649
1.050156
1.0446565
1.0447474
1.0448457
1.044952
1.0450671
1.0451917
1.0453265
1.0454724
1.0456301
1.0458006
1.0459847
1.0461832
1.0463968
1.0466263
1.0468721
1.0471344
1.0474132
1.0477079
1.0480169
1.0483453
1.0486871
1.0490384
1.0493946
1.0497499
1.0500974
1.0504287
1.050734
1.0446617
1.0447629
1.0448725
1.0449912
1.0451196
1.0452588
1.0454094
1.0455724
1.0457486
1.045939
1.0461444
1.0463657
1.0466036
1.0468587
1.0471316
1.0474224
1.0477309
1.0480566
1.0483985
1.0487547
1.0491224
1.0494969
1.0498728
1.0502428
1.0505982
1.0509284
1.0512207
1.04278
1.0428435
1.0429117
1.0429852
1.0430645
1.0431499
1.043242
1.0433415
1.0434489
1.0435648
1.0436898
1.0438246
1.0439698
1.044126
1.0442937
1.0444734
1.0446653
1.0448688
1.0450843
1.0453114
1.045549
1.0457953
1.0460478
1.0463029
1.0465559
1.0468004
1.0470287
1.0427823
1.0428485
1.0429198