/*--------------------------------*- C++ -*----------------------------------*\
| =========                 |                                                 |
| \\      /  F ield         | OpenFOAM: The Open Source CFD Toolbox           |
|  \\    /   O peration     | Version:  3.0.1                                 |
|   \\  /    A nd           | Web:      www.OpenFOAM.org                      |
|    \\/     M anipulation  |                                                 |
\*---------------------------------------------------------------------------*/
FoamFile
{
    version     2.0;
    format      ascii;
    class       volScalarField;
    location    "6000/fluid";
    object      T;
}
// * * * * * * * * * * * * * * * * * * * * * * * * * * * * * * * * * * * * * //

dimensions      [0 0 0 1 0 0 0];

internalField   nonuniform List<scalar> 
162000
(
323.74529
323.52263
323.27886
323.01217
322.72067
322.4024
322.05535
321.67753
321.26696
320.82182
320.34048
319.82163
319.26444
318.6687
318.03508
317.36531
316.66252
315.93155
315.1793
314.41512
313.65128
312.90342
312.19117
311.53881
310.97626
310.54039
310.27706
323.74034
323.50799
323.25362
322.97537
322.67128
322.33932
321.97743
321.58356
321.15573
320.69208
320.191
319.65122
319.072
318.45325
317.7958
317.10163
316.37416
315.61853
314.84199
314.05426
313.26789
312.49873
311.76639
311.09486
310.51332
310.05731
309.77062
323.73094
323.47983
323.20497
322.90437
322.57595
322.21758
321.82711
321.40241
320.94147
320.44243
319.90373
319.32425
318.70343
318.04151
317.33973
316.60056
315.82805
315.02804
314.20852
313.37991
312.55536
311.75107
310.98657
310.2851
309.67414
309.18623
308.86023
323.71766
323.43971
323.13555
322.80303
322.43995
322.04403
321.61304
321.14479
320.63727
320.08871
319.49772
318.86346
318.18581
317.46558
316.70473
315.90667
315.07645
314.22107
313.34973
312.47395
311.6078
310.76797
309.97381
309.2474
308.61363
308.10047
307.73951
323.70129
323.38982
323.04912
322.6769
322.27079
321.82843
321.34751
320.82587
320.2616
319.65316
318.99953
318.30042
317.55642
316.76929
315.94217
315.07981
314.18884
313.27793
312.35793
311.44193
310.54523
309.68518
308.88098
308.15332
307.5241
307.01608
306.65252
323.68284
323.33308
322.95075
322.53336
322.07844
321.58356
321.04646
320.4651
319.83783
319.16353
318.44183
317.67326
316.85956
316.00385
315.11093
314.18746
313.24215
312.2859
311.33176
310.39485
309.49214
308.64203
307.86394
307.17771
306.60312
306.15929
305.86429
324.41761
324.30998
324.19217
324.06326
323.92223
323.76799
323.59939
323.41521
323.21415
322.9949
322.75609
322.49639
322.21453
321.90936
321.57999
321.22593
320.84725
320.44487
320.02087
319.57896
319.12495
318.66746
318.21865
317.79067
317.40623
317.09943
316.90732
324.41416
324.3002
324.17547
324.03895
323.88958
323.72621
323.54762
323.35249
323.13946
322.90713
322.65404
322.37877
322.07995
321.75638
321.4071
321.03156
320.62981
320.20281
319.75271
319.28336
318.80082
318.314
317.82626
317.35859
316.94349
316.60535
316.38079
324.40772
324.2816
324.14352
323.99238
323.827
323.6461
323.44832
323.23222
322.99627
322.73892
322.45855
322.1536
321.82255
321.46407
321.0771
320.66105
320.21601
319.74303
319.2445
318.72463
318.18995
317.6367
317.08498
316.56876
316.10091
315.71055
315.43324
324.39884
324.25551
324.09859
323.92683
323.73889
323.53332
323.30859
323.06307
322.79505
322.50275
322.18441
321.83826
321.46264
321.05612
320.61761
320.14658
319.64332
319.10923
318.54728
317.96246
317.34613
316.71805
316.11568
315.54179
315.01982
314.57869
314.25166
324.38831
324.22404
324.04422
323.84744
323.63217
323.39678
323.13952
322.85855
322.55197
322.21781
321.85409
321.45891
321.03053
320.56751
320.06888
319.53445
318.96506
318.36312
317.73312
317.06496
316.37794
315.71345
315.06622
314.45613
313.90792
313.45025
313.11377
324.37721
324.1903
323.98574
323.76195
323.5172
323.24967
322.95739
322.63832
322.29034
321.91127
321.49897
321.05139
320.5667
320.04346
319.48076
318.87856
318.23787
317.56111
316.85429
316.14393
315.4541
314.77566
314.12776
313.53401
313.02101
312.61712
312.34972
325.26878
325.20115
325.12724
325.04648
324.95825
324.86188
324.75669
324.64192
324.51679
324.38051
324.23226
324.07122
323.89662
323.70777
323.5041
323.28527
323.05125
322.80249
322.54009
322.2661
321.98381
321.69817
321.41632
321.14816
320.90703
320.7104
320.58016
325.26613
325.19386
325.11486
325.02852
324.93417
324.83111
324.71856
324.59574
324.46179
324.31586
324.15704
323.98446
323.79726
323.59466
323.37601
323.14091
322.88924
322.62141
322.3385
322.04256
321.73696
321.42677
321.11937
320.82509
320.55795
320.33619
320.18282
325.26125
325.18009
325.09133
324.99429
324.88822
324.77231
324.64571
324.50749
324.35671
324.19237
324.01344
323.81889
323.60774
323.37905
323.13206
322.86619
322.58127
322.2776
321.95627
321.61937
321.27043
320.91481
320.56046
320.21849
319.90373
319.63541
319.43768
325.25467
325.16105
325.05866
324.94669
324.82428
324.69051
324.54437
324.38482
324.21074
324.02097
323.81432
323.5896
323.34564
323.08135
322.79579
322.48831
322.15863
321.80708
321.43483
321.04423
320.63919
320.22583
319.81308
319.41301
319.04153
318.71896
318.45248
325.24709
325.13868
325.02012
324.89048
324.74877
324.59392
324.4248
324.24019
324.03882
323.81936
323.58046
323.32076
323.03893
322.73377
322.40428
322.04977
321.67006
321.26574
320.83838
320.39098
319.92853
319.45853
318.99112
318.53976
318.12158
317.7365
317.41893
325.23946
325.11564
324.98025
324.83224
324.67051
324.49384
324.30097
324.09053
323.8611
323.61123
323.33943
323.04423
322.72425
322.37827
322.00539
321.60514
321.1778
320.72464
320.24836
319.75356
319.24712
318.73831
318.23945
317.7661
317.33892
317.00277
316.79376
326.20657
326.1581
326.10522
326.04751
325.98449
325.91574
325.84077
325.75906
325.67005
325.57319
325.46791
325.35362
325.2298
325.09595
324.95167
324.79669
324.63098
324.45481
324.26887
324.07448
323.87377
323.66996
323.46771
323.27349
323.09608
322.94697
322.84083
326.20453
326.15265
326.09602
326.0342
325.96668
325.89299
325.8126
325.72494
325.62941
325.5254
325.41227
325.2894
325.15619
325.01206
324.85655
324.68933
324.51029
324.31964
324.11802
323.90672
323.68786
323.46469
323.24194
323.0262
322.82639
322.65416
322.52416
326.20071
326.14201
326.07789
326.00785
325.93146
325.84805
325.75701
325.65768
325.54939
325.43142
325.30303
325.16349
325.01208
324.84813
324.67105
324.48042
324.27603
324.05803
323.82704
323.58437
323.33228
323.07422
322.81531
322.56269
322.32602
322.11791
321.95405
326.19542
326.12703
326.05232
325.9707
325.88154
325.78418
325.67789
325.56192
325.43548
325.29772
325.1478
324.98485
324.80803
324.61656
324.40977
324.18714
323.94846
323.69389
323.42422
323.141
322.84692
322.54613
322.24468
321.95103
321.67651
321.43584
321.24713
326.18912
326.10873
326.02089
325.92494
325.82015
325.70574
325.58091
325.44477
325.29642
325.13491
324.9593
324.76862
324.56198
324.33854
324.09764
323.83887
323.56217
323.26806
322.9578
322.63369
322.29948
321.96069
321.62519
321.30364
321.00996
320.76173
320.58062
326.18221
326.08816
325.98545
325.87331
325.75094
325.61748
325.47201
325.31359
325.14126
324.95403
324.75093
324.53105
324.29359
324.0379
323.76363
323.47081
323.16008
322.83282
322.49152
322.14003
321.78397
321.43106
321.09157
320.77846
320.50754
320.29705
320.16583
327.17863
327.1395
327.09686
327.05041
326.9998
326.94468
326.88465
326.81932
326.74827
326.67106
326.58727
326.49648
326.39828
326.29233
326.17835
326.05617
325.92582
325.78754
325.6419
325.48994
325.33328
325.17433
325.01649
324.86445
324.72447
324.60465
324.51519
327.17697
327.13516
327.08958
327.03991
326.98577
326.92677
326.8625
326.79252
326.71639
326.63363
326.54378
326.44636
326.34094
326.22713
326.1046
325.97316
325.83278
325.68368
325.52643
325.36206
325.19221
325.01939
324.84712
324.68029
324.52549
324.39126
324.28853
327.17401
327.12704
327.07581
327.01994
326.95901
326.89258
326.82018
326.74132
326.65547
326.5621
326.46066
326.35063
326.23148
326.10275
325.96404
325.81508
325.6558
325.48638
325.30737
325.11985
324.92556
324.72713
324.52837
324.33453
324.15268
323.992
323.86413
327.17007
327.11587
327.05672
326.99218
326.92178
326.84499
326.76128
326.67007
326.57075
326.46272
326.34534
326.21797
326.08003
325.93094
325.77026
325.59765
325.41301
325.21653
325.00883
324.79112
324.56537
324.33458
324.10305
323.87671
323.66345
323.47338
323.31908
327.16561
327.10286
327.03436
326.95959
326.87795
326.78884
326.69173
326.58606
326.47078
326.34543
326.20972
326.06243
325.90294
325.73066
325.5451
325.34596
325.1332
324.90715
324.66867
324.41933
324.16162
323.89923
323.63731
323.38278
323.14453
322.93353
322.76273
327.16111
327.08935
327.01102
326.92558
326.83242
326.7309
326.62026
326.4997
326.36874
326.22643
326.0716
325.90396
325.72277
325.52744
325.31754
325.09291
324.85376
324.60079
324.3354
324.05989
323.77769
323.49363
323.21414
322.94737
322.70301
322.49163
322.32332
328.15521
328.12158
328.08499
328.04517
328.00183
327.95466
327.90334
327.84752
327.78686
327.72098
327.64952
327.57211
327.48843
327.39816
327.30107
327.197
327.08595
326.96811
326.84391
326.71417
326.58016
326.44377
326.30764
326.17483
326.05011
325.94077
325.85513
328.1538
328.11798
328.07898
328.03652
327.99028
327.93995
327.88516
327.82556
327.76076
327.69037
327.61399
327.53123
327.44173
327.34516
327.24125
327.12984
327.01091
326.88464
326.75153
326.61245
326.46879
326.32268
326.17369
326.02581
325.88823
325.7653
325.66547
328.15128
328.11117
328.06747
328.01987
327.968
327.91151
327.84999
327.78303
327.7102
327.63106
327.54515
327.45202
327.35124
327.24244
327.12527
326.99953
326.86514
326.72223
326.57121
326.41289
326.24853
326.08001
325.91546
325.75314
325.59
325.44371
325.32274
328.14795
328.10181
328.0515
327.99662
327.93675
327.87146
327.80043
327.72327
327.63933
327.5481
327.44907
327.34174
327.22563
327.1003
326.96541
326.82074
326.66624
326.50215
326.32905
326.1481
325.96115
325.7712
325.56918
325.36567
325.18584
325.0243
324.89141
328.14408
328.09065
328.03242
327.96897
327.89983
327.82449
327.7423
327.65255
327.55494
327.44899
327.33409
327.20985
327.07563
326.93093
326.77534
326.6086
326.43066
326.24172
326.04238
325.83375
325.61768
325.39692
325.17711
324.9673
324.77521
324.60938
324.48079
328.14003
328.0786
328.01162
327.93862
327.85908
327.77251
327.67833
327.57603
327.46491
327.34424
327.21345
327.07178
326.91876
326.75398
326.57713
326.3881
326.18708
325.97465
325.75186
325.52043
325.2827
325.04169
324.81783
324.62387
324.45021
324.30766
324.20791
329.11978
329.08915
329.05585
329.01964
328.98027
328.93746
328.89092
328.84036
328.78544
328.72585
328.66127
328.59136
328.51584
328.43444
328.34694
328.25322
328.15326
328.04723
327.9355
327.81877
327.6981
327.5751
327.45201
327.33315
327.22149
327.1224
327.04265
329.11852
329.08598
329.0506
329.01212
328.97026
328.92473
328.87523
328.82142
328.76298
328.69955
328.63079
328.55637
328.47595
328.38925
328.29605
328.1962
328.0897
327.9767
327.85762
327.73317
327.60451
327.47336
327.34213
327.21283
327.09093
326.98204
326.8933
329.11643
329.08035
329.04109
328.99836
328.95185
328.90124
328.84617
328.78629
328.72121
328.65055
328.57392
328.49093
328.40122
328.30445
328.20037
328.08879
327.96968
327.84318
327.7097
327.56996
327.42517
327.27709
327.12821
326.9819
326.84273
326.71672
326.61142
329.11365
329.07257
329.02783
328.97911
328.92606
328.8683
328.80544
328.73707
328.66274
328.58204
328.4945
328.3997
328.29721
328.18668
328.0678
327.94037
327.80435
327.65992
327.50752
327.348
327.18269
327.01353
326.84325
326.67567
326.51596
326.37038
326.24655
329.11049
329.06342
329.01213
328.95625
328.8954
328.82915
328.75704
328.67862
328.59339
328.50088
328.40059
328.29203
328.17477
328.04842
327.91267
327.76737
327.61251
327.4484
327.27564
327.09533
326.90915
326.71955
326.52995
326.34486
326.16988
326.01166
325.87767
329.10731
329.05389
328.99567
328.93226
328.86319
328.78801
328.70622
328.61731
328.52076
328.41603
328.30262
328.18003
328.04781
327.90561
327.75319
327.5905
327.41774
327.23545
327.04464
326.84692
326.64466
326.44124
326.24122
326.05023
325.87463
325.72185
325.59992
330.0633
330.03477
330.00378
329.97012
329.93354
329.89379
329.8506
329.80369
329.75277
329.69753
329.63768
329.57291
329.50294
329.42753
329.34645
329.2596
329.16694
329.06859
328.9649
328.85646
328.74424
328.62969
328.51482
328.40245
328.29628
328.20112
328.12312
330.06217
330.03198
329.99915
329.96348
329.92469
329.88253
329.83671
329.78692
329.73286
329.67419
329.61061
329.54178
329.46742
329.38723
329.301
329.20859
329.10996
329.00523
328.89472
328.77907
328.65925
328.53677
328.41378
328.29317
328.17867
328.07513
327.98872
330.06021
330.02677
329.9904
329.95084
329.90782
329.86102
329.81014
329.75483
329.69475
329.62954
329.55884
329.48229
329.39955
329.31032
329.21435
329.11144
329.00156
328.8848
328.76148
328.63218
328.49785
328.35973
328.22325
328.08937
327.96157
327.84472
327.74496
330.05761
330.01953
329.97815
329.93311
329.88411
329.8308
329.77284
329.70983
329.6414
329.56714
329.48665
329.39956
329.30547
329.20409
329.09513
328.97844
328.85401
328.72199
328.58284
328.43732
328.28667
328.13233
327.97815
327.82624
327.68082
327.54746
327.43304
330.05478
330.01141
329.96419
329.91279
329.85686
329.796
329.72983
329.65791
329.57982
329.49513
329.40339
329.3042
329.19717
329.08197
328.95837
328.82626
328.6857
328.53701
328.38085
328.21832
328.05116
327.88205
327.70895
327.53876
327.37679
327.22902
327.10196
330.05202
330.00306
329.94976
329.89173
329.82857
329.75986
329.68515
329.604
329.51594
329.42049
329.31721
329.20567
329.08549
328.95637
328.81813
328.67074
328.51442
328.34965
328.17732
327.99877
327.81595
327.63144
327.4486
327.27221
327.10854
326.96444
326.84787
330.98053
330.95332
330.92379
330.89174
330.85693
330.81914
330.7781
330.73355
330.68521
330.63281
330.57605
330.51465
330.44835
330.3769
330.30036
330.21838
330.13096
330.03819
329.94039
329.83811
329.7322
329.62397
329.51523
329.40844
329.3069
329.21481
329.1375
330.97948
330.95077
330.91961
330.88576
330.849
330.80907
330.7657
330.71862
330.66754
330.61216
330.55219
330.48732
330.4173
330.34188
330.2606
330.17356
330.08073
329.98221
329.87831
329.76959
329.65694
329.54172
329.42578
329.31171
329.20292
329.10381
329.01998
330.97773
330.94615
330.91183
330.87454
330.834
330.78995
330.74207
330.69006
330.63361
330.57237
330.50601
330.43421
330.35666
330.27306
330.1832
330.08692
329.98419
329.87512
329.76002
329.6395
329.51452
329.3865
329.25746
329.1301
329.00801
328.89577
328.79916
330.97544
330.93981
330.90106
330.85892
330.8131
330.76326
330.70909
330.65024
330.58633
330.51701
330.4419
330.36063
330.27287
330.17831
330.0767
329.96789
329.85185
329.72873
329.5989
329.46305
329.32224
329.17806
329.03269
328.88905
328.75094
328.62315
328.51157
330.97286
330.93236
330.8883
330.84036
330.78821
330.73149
330.66984
330.60286
330.53016
330.45132
330.36595
330.27365
330.17406
330.06688
329.95186
329.82889
329.698
329.55942
329.41367
329.26161
329.10456
328.94437
328.78355
328.6254
328.47417
328.33499
328.21386
330.97024
330.92452
330.87477
330.82062
330.76173
330.69769
330.62809
330.55253
330.47056
330.38175
330.28569
330.18198
330.07028
329.9503
329.82187
329.68497
329.53976
329.38669
329.22654
329.06053
328.89042
328.71863
328.54837
328.38375
328.22985
328.09277
327.97947
331.8688
331.84277
331.81454
331.78392
331.75069
331.71462
331.67547
331.63299
331.58692
331.53698
331.48291
331.42443
331.36129
331.29325
331.22014
331.14181
331.05823
330.96949
330.87585
330.7778
330.67614
330.57205
330.46723
330.36402
330.26554
330.17572
330.0996
331.86778
331.84031
331.81051
331.77816
331.74303
331.7049
331.66349
331.61855
331.56979
331.51692
331.45966
331.39772
331.33083
331.25875
331.18126
331.09825
331.00966
330.91557
330.81624
330.71214
330.60407
330.49322
330.38134
330.27108
330.16723
330.07172
329.98981
331.86606
331.8358
331.80294
331.76725
331.72847
331.68635
331.64058
331.59088
331.53693
331.47842
331.41501
331.34638
331.27222
331.19224
331.10618
331.01484
330.91734
330.81378
330.70446
330.58992
330.47103
330.34911
330.22599
330.10418
329.98782
329.87975
329.7854
331.86384
331.82974
331.79269
331.75242
331.70866
331.6611
331.60944
331.55335
331.49247
331.42648
331.35501
331.27774
331.19434
331.10454
331.00801
330.90499
330.79504
330.67844
330.55556
330.42708
330.29405
330.158
330.021
329.88532
329.75162
329.6278
329.51905
331.86145
331.82287
331.78091
331.7353
331.68572
331.63183
331.57329
331.50974
331.44081
331.36613
331.28534
331.19808
331.10407
331.00304
330.89486
330.77796
330.65364
330.52214
330.38392
330.23978
330.09092
329.93905
329.78637
329.63585
329.49143
329.358
329.24114
331.85904
331.81559
331.76834
331.71694
331.66106
331.60032
331.53434
331.46273
331.38507
331.30098
331.21004
331.11189
331.00619
330.89268
330.77116
330.64158
330.50415
330.35928
330.20771
330.05058
329.88951
329.72674
329.56524
329.40877
329.26207
329.13078
329.02139
332.72643
332.70123
332.67393
332.64433
332.61222
332.5774
332.53963
332.49866
332.45425
332.40614
332.35406
332.29776
332.23699
332.17152
332.10117
332.0258
331.94569
331.86064
331.77087
331.67685
331.57931
331.47932
331.37843
331.27875
331.18305
331.09493
331.01891
332.72547
332.69895
332.6702
332.63902
332.60519
332.56849
332.52867
332.48547
332.43865
332.38791
332.33301
332.27365
332.2096
332.14062
332.06653
331.98723
331.90232
331.81219
331.71707
331.61745
331.51406
331.40803
331.30096
331.19504
331.09317
330.9991
330.91757
332.7239
332.69486
332.66336
332.62916
332.59204
332.55173
332.50797
332.46047
332.40896
332.35312
332.29266
332.22727
332.15668
332.08063
331.99891
331.91136
331.81795
331.71874
331.61402
331.50428
331.39032
331.27334
331.15505
331.03774
330.92446
330.81912
330.72665
332.72186
332.68927
332.65388
332.61543
332.57367
332.52829
332.47902
332.42552
332.36749
332.30457
332.23645
332.16279
332.08329
331.99767
331.9057
331.80723
331.70224
331.59084
331.47333
331.3503
331.22265
331.09171
330.95935
330.82802
330.70094
330.5822
330.47685
332.71957
332.68269
332.64261
332.59904
332.5517
332.50026
332.44439
332.38375
332.31796
332.24668
332.16953
332.08618
331.99629
331.89959
331.79586
331.68499
331.56699
331.44206
331.31063
331.17345
331.03163
330.88676
330.74101
330.59718
330.45887
330.3304
330.21687
332.71723
332.6757
332.63055
332.58147
332.52813
332.47017
332.40724
332.33896
332.26494
332.1848
332.09817
332.0047
331.90408
331.79605
331.68047
331.5573
331.4267
331.28903
331.14496
330.99555
330.84229
330.68726
330.53319
330.38355
330.24264
330.11557
330.00824
333.55268
333.52834
333.502
333.47345
333.44251
333.40896
333.3726
333.33317
333.29044
333.24417
333.19409
333.13995
333.08153
333.01859
332.95096
332.8785
332.80117
332.71901
332.63225
332.54127
332.44676
332.34974
332.25166
332.15458
332.06111
331.97466
331.89959
333.55174
333.52612
333.49836
333.46827
333.43564
333.40025
333.36187
333.32024
333.27512
333.22623
333.17332
333.11611
333.05435
332.98782
332.91632
332.8397
332.75792
332.67101
332.57917
332.4828
332.38255
332.27941
332.17478
332.07288
331.9744
331.88284
331.80267
333.55016
333.52204
333.49155
333.45848
333.42258
333.38362
333.34134
333.29546
333.2457
333.19176
333.13335
333.07016
333.0019
332.9283
332.84984
332.76578
332.67606
332.58073
332.48005
332.37447
332.26474
332.15196
332.03754
331.92488
331.81541
331.71292
331.6219
333.54815
333.51661
333.48239
333.44523
333.4049
333.36111
333.31358
333.26202
333.20611
333.14553
333.07997
333.00913
332.9327
332.85037
332.76217
332.6677
332.567
332.46021
332.34764
332.22989
332.1079
331.98305
331.85733
331.72941
331.60559
331.48968
331.38637
333.546
333.51045
333.47184
333.42991
333.38438
333.33493
333.28126
333.22305
333.15995
333.09163
333.01777
332.93805
332.8522
332.75999
332.66018
332.55357
332.44019
332.32023
332.19407
332.06243
331.92632
331.78721
331.64699
331.50819
331.37448
331.24997
331.13946
333.54381
333.50387
333.46047
333.41331
333.36208
333.30644
333.24604
333.18054
333.10955
333.03271
332.94967
332.86008
332.76364
332.66009
332.54927
332.43116
332.30592
332.17389
332.03571
331.89236
331.74525
331.59634
331.44817
331.30406
331.1681
331.04517
330.94091
334.34693
334.32324
334.29761
334.26986
334.23981
334.20724
334.17196
334.13373
334.09232
334.0475
333.99901
333.94661
333.89008
333.8292
333.76378
333.69371
333.61897
333.53984
333.45624
333.36854
333.27738
333.18369
333.08879
332.99449
332.90322
332.81809
332.74303
334.34603
334.32115
334.29421
334.26504
334.23343
334.19917
334.16204
334.1218
334.07822
334.03104
333.98
333.92486
333.86539
333.80136
333.73259
333.65896
333.58036
333.49661
333.40819
333.31546
333.21908
333.11999
333.01959
332.91977
332.82305
332.73268
332.65279
334.34458
334.31744
334.28803
334.25615
334.22157
334.18408
334.14341
334.09932
334.05152
333.99976
333.94375
333.88321
333.81787
333.74751
333.67192
333.59094
333.50452
333.41271
333.31573
333.21399
333.1082
332.99939
332.88903
332.77912
332.67232
332.57204
332.48259
334.34273
334.31238
334.27946
334.24375
334.205
334.16294
334.11731
334.06781
334.01415
333.95603
333.89312
333.82514
333.7518
333.67283
333.58804
333.49726
333.40046
333.29772
333.1893
333.07569
332.95769
332.83644
332.71356
332.5912
332.47218
332.3601
332.25937
334.34064
334.30641
334.26926
334.22892
334.18513
334.13759
334.086
334.03004
333.96939
333.9037
333.83265
333.75592
333.67321
333.58426
333.48887
333.38691
333.27841
333.16351
333.04258
332.91628
332.78557
332.65184
332.51699
332.38348
332.25446
332.13373
332.02577
334.33851
334.30005
334.25829
334.21294
334.16369
334.11022
334.05222
333.98932
333.92118
333.84746
333.7678
333.68189
333.58944
333.49022
333.38408
333.27099
333.15106
333.02461
332.89223
332.75483
332.61373
332.47075
332.32829
332.18939
332.05782
331.9381
331.83543
335.10904
335.08606
335.06123
335.03436
335.00527
334.97378
334.93968
334.90275
334.86276
334.81949
334.77269
334.72214
334.6676
334.60887
334.54577
334.47816
334.40598
334.32927
334.24817
334.16303
334.07442
333.9832
333.89063
333.79847
333.70904
333.6253
333.55105
335.10816
335.08402
335.05791
335.02964
334.99903
334.96587
334.92995
334.89103
334.84888
334.80325
334.7539
334.70057
334.64303
334.58106
334.51446
334.44311
334.36694
334.28596
334.20033
334.11038
334.01665
333.91997
333.82148
333.72466
333.63078
333.54261
333.46395
335.1067
335.0803
335.05173
335.02076
334.98721
334.95083
334.91139
334.86863
334.82231
334.77213
334.71782
334.65912
334.59573
334.52742
334.45394
334.37596
334.2927
334.20421
334.11068
334.01249
333.91028
333.805
333.69785
333.59169
333.48818
333.39036
333.30215
335.10485
335.07535
335.04338
335.00872
334.97113
334.93037
334.88617
334.83826
334.78636
334.73016
334.66937
334.60372
334.53293
334.45675
334.37491
334.28758
334.19439
334.0955
333.99121
333.882
333.7687
333.65255
333.5354
333.41644
333.30017
333.19028
333.0911
335.10288
335.06974
335.03378
334.99478
334.95246
334.90656
334.85679
334.80283
334.7444
334.68117
334.61284
334.53912
334.45976
334.37454
334.28333
334.1848
334.08002
333.96915
333.85252
333.73075
333.60474
333.47577
333.34555
333.21626
333.09093
332.97341
332.86792
335.10088
335.06374
335.02342
334.97965
334.93215
334.88062
334.82472
334.76414
334.69853
334.62757
334.55091
334.46826
334.37932
334.28386
334.18173
334.07284
333.95736
333.83557
333.70805
333.57564
333.43961
333.30165
333.16403
333.02966
332.90215
332.78587
332.68586
335.83881
335.81635
335.79211
335.7659
335.73756
335.70689
335.67371
335.63779
335.59893
335.55689
335.51146
335.4624
335.4095
335.35253
335.29134
335.22577
335.15575
335.08164
335.0033
334.92102
334.83533
334.74702
334.65723
334.56753
334.48001
334.39738
334.32305
335.83796
335.81442
335.789
335.7615
335.73175
335.69955
335.66469
335.62696
335.58612
335.54195
335.49421
335.44267
335.3871
335.32729
335.26308
335.19433
335.12101
335.04278
334.96011
334.87329
334.78289
334.68973
334.59501
334.50036
334.40799
334.32072
334.24218
335.83662
335.81108
335.78341
335.75346
335.72102
335.68589
335.64783
335.60661
335.56198
335.51367
335.46144
335.40502
335.34417
335.27866
335.20829
335.13292
335.05247
334.96697
334.8766
334.78171
334.68288
334.58103
334.47741
334.37379
334.27247
334.17646
334.08953
335.83492
335.80644
335.77559
335.74218
335.70596
335.6667
335.62414
335.57803
335.52809
335.47402
335.41556
335.35241
335.28432
335.21103
335.13234
335.04812
334.9583
334.86294
334.76226
334.65668
334.54687
334.43385
334.31902
334.20427
334.09209
333.98563
333.88877
335.833
335.801
335.7663
335.72867
335.68788
335.64363
335.59567
335.54368
335.48738
335.42645
335.36059
335.2895
335.2129
335.13055
335.04226
334.9479
334.84747
334.74109
334.62909
334.512
334.3907
334.26639
334.14074
334.01593
333.89473
333.78052
333.67725
335.83105
335.79517
335.75626
335.71404
335.66825
335.61859
335.56475
335.50642
335.44328
335.37501
335.30128
335.2218
335.13631
335.04458
334.94647
334.84194
334.73107
334.61414
334.49165
334.3644
334.23356
334.10073
333.96802
333.83814
333.71444
333.60093
333.50224
336.53639
336.51454
336.49097
336.46551
336.43799
336.40824
336.37607
336.34127
336.30364
336.26295
336.21899
336.17153
336.12036
336.06528
336.00612
335.94273
335.87504
335.80306
335.72691
335.64686
335.56339
335.47722
335.38945
335.30156
335.21563
335.13421
335.0606
336.53556
336.51266
336.48793
336.46121
336.43231
336.40106
336.36724
336.33065
336.29106
336.24824
336.20197
336.152
336.09812
336.04011
335.97778
335.911
335.83969
335.76387
335.68365
335.5993
335.51128
335.42033
335.32749
335.23419
335.14464
335.05948
334.98207
336.53421
336.50927
336.48232
336.45316
336.4216
336.38744
336.35046
336.31041
336.26706
336.22015
336.16943
336.11464
336.05553
335.99186
335.92342
335.85003
335.77157
335.68918
335.602
335.51036
335.4148
335.31615
335.21559
335.1146
335.01654
334.92278
334.83696
336.5325
336.50473
336.47468
336.44214
336.40691
336.36876
336.32743
336.28268
336.23423
336.18183
336.1252
336.06406
335.99817
335.9273
335.85125
335.76989
335.68307
335.59128
335.49426
335.39254
335.28682
335.17813
335.06795
334.95832
334.84798
334.74315
334.64746
336.53069
336.49958
336.46589
336.42939
336.38984
336.34698
336.30055
336.25027
336.19586
336.13703
336.07349
336.00497
335.93122
335.85204
335.76727
335.67685
335.58087
335.47772
335.36925
335.25596
335.13865
335.01844
334.89685
334.77578
334.65773
334.54621
334.44501
336.52886
336.4941
336.45643
336.41558
336.3713
336.32331
336.2713
336.21499
336.15406
336.0882
336.01711
335.94051
335.85813
335.76975
335.67524
335.57452
335.46763
335.35479
335.23655
335.11367
334.98725
334.8588
334.73032
334.60437
334.48416
334.37359
334.27716
337.20186
337.18044
337.15735
337.13244
337.10554
337.07649
337.04509
337.01115
336.97448
336.93485
336.89206
336.84589
336.79614
336.74259
336.68509
336.62348
336.55795
336.48827
336.41453
336.337
336.25609
336.17248
336.08715
336.00144
335.91715
335.83663
335.76284
337.20106
337.17867
337.15451
337.12844
337.10027
337.06983
337.03693
337.00137
336.96292
336.92138
336.87653
336.82814
336.776
336.71991
336.65971
336.59528
336.52626
336.45289
336.37528
336.29371
336.20861
336.12069
336.03097
335.94087
335.85229
335.7677
335.69022
337.19982
337.17556
337.14937
337.12107
337.09047
337.05738
337.02158
336.98285
336.94095
336.89567
336.84673
336.79392
336.73699
336.67573
336.60995
336.53949
336.46429
336.38435
336.2998
336.21093
336.11825
336.02251
335.92483
335.82671
335.73019
335.63786
335.55303
337.19824
337.17135
337.14227
337.11082
337.07678
337.03993
337.00005
336.95687
336.91016
336.85964
336.80506
336.74615
336.68265
336.61435
336.54104
336.46258
336.37891
336.29006
336.1962
336.09768
335.99509
335.8893
335.78155
335.6735
335.56729
335.46572
335.37221
337.19649
337.16637
337.13378
337.0985
337.06028
337.01889
336.97408
336.92555
336.87305
336.81628
336.75496
336.68882
336.61759
336.54105
336.45901
336.37135
336.27804
336.17918
336.07503
335.96608
335.85306
335.73704
335.61949
335.50233
335.388
335.2795
335.18033
337.19468
337.16102
337.12456
337.08506
337.04227
336.99591
336.9457
336.89136
336.83259
336.76909
336.70056
336.62673
336.54735
336.46221
336.37118
336.27419
336.17131
336.06277
335.94901
335.83071
335.70891
335.58502
335.4609
335.33896
335.22217
335.11409
335.01888
337.8356
337.81468
337.79216
337.76788
337.7417
337.71344
337.68292
337.64996
337.61437
337.57593
337.53444
337.48969
337.44148
337.38961
337.33392
337.27425
337.21053
337.14274
337.07096
336.9954
336.91646
336.83475
336.75118
336.66702
336.58399
336.50436
336.4311
337.83482
337.81294
337.78937
337.76395
337.73652
337.70689
337.67488
337.6403
337.60294
337.56258
337.519
337.47198
337.42132
337.3668
337.30825
337.24552
337.17852
337.10724
337.03176
336.95233
336.86937
336.78351
336.69564
336.60705
336.51942
336.43493
336.35886
337.83356
337.80984
337.78425
337.75662
337.72678
337.69452
337.65965
337.62195
337.58119
337.53713
337.48955
337.4382
337.38285
337.32327
337.25926
337.19066
337.11734
337.03923
336.95632
336.87017
336.78049
336.6878
336.59303
336.49756
336.40323
336.31228
336.22903
337.83197
337.80564
337.77721
337.74649
337.71327
337.67734
337.63848
337.59645
337.55101
337.5019
337.44887
337.39167
337.33006
337.26382
337.19275
337.11673
337.03568
336.94965
336.85867
336.76361
336.66459
336.56245
336.45839
336.35409
336.25175
336.15431
336.06112
337.83029
337.8009
337.76912
337.73475
337.69756
337.65731
337.61376
337.56665
337.51572
337.46069
337.4013
337.33729
337.26842
337.19448
337.11532
337.03086
336.94114
336.84638
336.74704
336.64157
336.53185
336.41914
336.30496
336.19112
336.07989
335.97389
335.87626
337.82861
337.79588
337.76045
337.7221
337.68058
337.63563
337.58699
337.53437
337.47749
337.41606
337.34981
337.27847
337.2018
337.11961
337.03176
336.9382
336.83898
336.73429
336.6245
336.51014
336.39221
336.27216
336.15178
336.03335
335.91966
335.81412
335.72075
338.43792
338.41731
338.39516
338.37131
338.34561
338.31791
338.28802
338.25576
338.22096
338.1834
338.14289
338.09922
338.0522
338.00163
337.94735
337.88922
337.82712
337.76135
337.69168
337.61831
337.5416
337.46211
337.38066
337.29839
337.21687
337.13808
337.06458
338.43716
338.41567