/*--------------------------------*- C++ -*----------------------------------*\
| =========                 |                                                 |
| \\      /  F ield         | OpenFOAM: The Open Source CFD Toolbox           |
|  \\    /   O peration     | Version:  3.0.1                                 |
|   \\  /    A nd           | Web:      www.OpenFOAM.org                      |
|    \\/     M anipulation  |                                                 |
\*---------------------------------------------------------------------------*/
FoamFile
{
    version     2.0;
    format      ascii;
    class       surfaceScalarField;
    location    "2169";
    object      phi;
}
// * * * * * * * * * * * * * * * * * * * * * * * * * * * * * * * * * * * * * //

dimensions      [1 0 -1 0 0 0 0];

internalField   nonuniform List<scalar> 
7860
(
5.2316178e-10
9.2152206e-09
1.3221037e-09
2.6987101e-08
1.8458327e-09
4.6205324e-08
1.9080535e-09
6.6129279e-08
1.5895997e-09
8.6416583e-08
1.0767698e-09
1.0710215e-07
5.4398334e-10
1.2847736e-07
1.0319651e-10
1.5095719e-07
-1.9951571e-10
1.749853e-07
-3.6462141e-10
2.0098772e-07
-4.1924223e-10
2.2935436e-07
-4.0145345e-10
2.6044376e-07
-3.496768e-10
2.9459921e-07
-2.9746759e-10
3.3216704e-07
-2.7156865e-10
3.735145e-07
-2.9220001e-10
4.1904662e-07
-3.7410507e-10
4.6922175e-07
-5.2772208e-10
5.2456596e-07
-7.6018601e-10
5.8568621e-07
-1.0760203e-09
6.5328152e-07
-1.4773293e-09
7.2815075e-07
-1.9640387e-09
8.1119431e-07
-2.533551e-09
9.0340588e-07
-3.1806002e-09
1.005848e-06
-3.8967831e-09
1.1196028e-06
-4.670252e-09
1.2456863e-06
-5.4849652e-09
1.3849081e-06
-6.3202728e-09
1.5376545e-06
-7.150404e-09
1.703564e-06
-7.9438257e-09
1.8810543e-06
-8.6628674e-09
2.0666529e-06
-9.2639461e-09
2.2540693e-06
-9.6973188e-09
2.4329478e-06
-9.9089097e-09
2.5872219e-06
-9.8366743e-09
2.6930228e-06
-9.4150163e-09
2.7160141e-06
-8.5394463e-09
2.6081293e-06
-7.0464079e-09
2.3031502e-06
-4.4113019e-09
1.7107914e-06
7.063433e-07
-6.9722703e-10
9.9124491e-09
-2.5961298e-09
2.8886002e-08
-5.5009569e-09
4.9110153e-08
-9.0409594e-09
6.966928e-08
-1.2752368e-08
9.012799e-08
-1.6193442e-08
1.1054323e-07
-1.90389e-08
1.3132281e-07
-2.1119288e-08
1.5303758e-07
-2.2408523e-08
1.7627453e-07
-2.2980891e-08
2.0156009e-07
-2.2965873e-08
2.2933935e-07
-2.2511285e-08
2.5998917e-07
-2.1757897e-08
2.9384582e-07
-2.0825878e-08
3.3123502e-07
-1.9810262e-08
3.7249888e-07
-1.8782029e-08
4.1801839e-07
-1.7792e-08
4.6823172e-07
-1.6875433e-08
5.2364942e-07
-1.6056307e-08
5.8486709e-07
-1.535038e-08
6.5257558e-07
-1.4767281e-08
7.2756769e-07
-1.4311927e-08
8.1073894e-07
-1.3984615e-08
9.0307857e-07
-1.3781272e-08
1.0056446e-06
-1.3692803e-08
1.1195144e-06
-1.3704948e-08
1.2456984e-06
-1.379688e-08
1.385e-06
-1.3940997e-08
1.5377986e-06
-1.4101794e-08
1.7037248e-06
-1.4235371e-08
1.8811879e-06
-1.4289166e-08
2.0667067e-06
-1.4202888e-08
2.2539831e-06
-1.390964e-08
2.4326547e-06
-1.3340919e-08
2.5866531e-06
-1.2426364e-08
2.6921084e-06
-1.1103853e-08
2.7146914e-06
-9.291829e-09
2.6063174e-06
-6.8732712e-09
2.3007319e-06
-3.5386055e-09
1.7074564e-06
7.028049e-07
-7.6677819e-10
1.0679226e-08
-3.0297229e-09
3.1148948e-08
-6.7539947e-09
5.2834425e-08
-1.16311e-08
7.4546382e-08
-1.7135328e-08
9.5632222e-08
-2.265298e-08
1.1606088e-07
-2.7629426e-08
1.3629926e-07
-3.1673932e-08
1.5708208e-07
-3.4595878e-08
1.7919648e-07
-3.6383011e-08
2.0334721e-07
-3.7149938e-08
2.3010629e-07
-3.7081517e-08
2.5992075e-07
-3.6385002e-08
2.9314931e-07
-3.5257209e-08
3.3010722e-07
-3.3866224e-08
3.711079e-07
-3.2344903e-08
4.1649707e-07
-3.0791917e-08
4.6667874e-07
-2.9276968e-08
5.2213447e-07
-2.7847186e-08
5.8343729e-07
-2.6532977e-08
6.5126139e-07
-2.5352864e-08
7.2638756e-07
-2.4316328e-08
8.0970242e-07
-2.3425856e-08
9.0218807e-07
-2.2677437e-08
1.0048962e-06
-2.2060799e-08
1.1188978e-06
-2.1559027e-08
1.2451966e-06
-2.1147638e-08
1.3845886e-06
-2.0793974e-08
1.537445e-06
-2.0456327e-08
1.7033872e-06
-2.0083454e-08
1.880815e-06
-1.9614262e-08
2.0662375e-06
-1.8979216e-08
2.253348e-06
-1.8102193e-08
2.4317777e-06
-1.6905418e-08
2.5854563e-06
-1.5312099e-08
2.690515e-06
-1.3253344e-08
2.7126328e-06
-1.064944e-08
2.6037134e-06
-7.3957632e-09
2.2974782e-06
-3.384268e-09
1.7034452e-06
6.9942045e-07
-6.894756e-10
1.1368703e-08
-2.8315403e-09
3.3291011e-08
-6.5569485e-09
5.6559832e-08
-1.1740898e-08
7.9730332e-08
-1.7983935e-08
1.0187526e-07
-2.4688933e-08
1.2276588e-07
-3.1203543e-08
1.4281386e-07
-3.6963868e-08
1.6284241e-07
-4.1587361e-08
1.8381998e-07
-4.4899383e-08
2.0665923e-07
-4.6907898e-08
2.3211481e-07
-4.7751359e-08
2.607642e-07
-4.7640991e-08
2.9303894e-07
-4.681149e-08
3.2927772e-07
-4.5485766e-08
3.6978219e-07
-4.385472e-08
4.1486602e-07
-4.2069289e-08
4.6489331e-07
-4.0241216e-08
5.2030641e-07
-3.8448574e-08
5.8164465e-07
-3.6742922e-08
6.4955572e-07
-3.5156011e-08
7.2480068e-07
-3.3705361e-08
8.0825175e-07
-3.2397512e-08
9.0088022e-07
-3.1230334e-08
1.003729e-06
-3.0193797e-08
1.1178612e-06
-2.9269701e-08
1.2442726e-06
-2.843173e-08
1.3837506e-06
-2.7643888e-08
1.5366571e-06
-2.6860289e-08
1.7026036e-06
-2.6024259e-08
1.879979e-06
-2.5068685e-08
2.0652819e-06
-2.3916655e-08
2.2521961e-06
-2.2484792e-08
2.4303457e-06
-2.068714e-08
2.5836587e-06
-1.8440477e-08
2.6882683e-06
-1.5669332e-08
2.7098615e-06
-1.229321e-08
2.6003373e-06
-8.2263512e-09
2.2934113e-06
-3.5408737e-09
1.6987598e-06
6.9587963e-07
-6.1407782e-10
1.1982781e-08
-2.5722203e-09
3.5249153e-08
-6.0858938e-09
6.0073508e-08
-1.116629e-08
8.4810726e-08
-1.7562566e-08
1.0827153e-07
-2.4781442e-08
1.2998476e-07
-3.2189081e-08
1.502215e-07
-3.9150571e-08
1.698039e-07
-4.5150812e-08
1.8982021e-07
-4.9862612e-08
2.1137102e-07
-5.3158419e-08
2.3541062e-07
-5.5080911e-08
2.6268669e-07
-5.5792689e-08
2.9375073e-07
-5.552232e-08
3.2900734e-07
-5.4517521e-08
3.6877739e-07
-5.3011382e-08
4.1335989e-07
-5.1202441e-08
4.6308438e-07
-4.9246784e-08
5.1835076e-07
-4.7258861e-08
5.796567e-07
-4.5317e-08
6.4761388e-07
-4.3471068e-08
7.2295478e-07
-4.1749431e-08
8.0653008e-07
-4.0164304e-08
8.9929508e-07
-3.8715599e-08
1.0022803e-06
-3.7392811e-08
1.1165384e-06
-3.6175886e-08
1.2430556e-06
-3.503496e-08
1.3826096e-06
-3.3929689e-08
1.5355519e-06
-3.2808682e-08
1.7014826e-06
-3.1609075e-08
1.8787794e-06
-3.025632e-08
2.0639291e-06
-2.8665855e-08
2.2506056e-06
-2.6745779e-08
2.4284257e-06
-2.4402035e-08
2.581315e-06
-2.1543633e-08
2.6854099e-06
-1.8087977e-08
2.7064058e-06
-1.3954094e-08
2.5962035e-06
-9.0841616e-09
2.2885415e-06
-3.7263534e-09
1.6934022e-06
6.9215296e-07
-5.5514871e-10
1.2537929e-08
-2.3509457e-09
3.7044952e-08
-5.6329454e-09
6.3355504e-08
-1.049479e-08
8.9672574e-08
-1.680236e-08
1.145791e-07
-2.4176044e-08
1.3735844e-07
-3.2051165e-08
1.5809663e-07
-3.9793494e-08
1.7754623e-07
-4.6822492e-08
1.9684921e-07
-5.2702029e-08
2.1725056e-07
-5.7182167e-08
2.3989076e-07
-6.0196412e-08
2.6570093e-07
-6.182876e-08
2.9538308e-07
-6.2266254e-08
3.2944484e-07
-6.1749747e-08
3.682609e-07
-6.053167e-08
4.121418e-07
-5.8845201e-08
4.6139789e-07
-5.6886322e-08
5.1639191e-07
-5.4807172e-08
5.7757754e-07
-5.2717104e-08
6.4552383e-07
-5.0688904e-08
7.2092654e-07
-4.8765878e-08
8.0460709e-07
-4.6969287e-08
8.9749844e-07
-4.5302983e-08
1.000614e-06
-4.3757589e-08
1.114993e-06
-4.2311351e-08
1.2416094e-06
-4.0931417e-08
1.3812297e-06
-3.9573082e-08
1.5341935e-06
-3.8179349e-08
1.7000889e-06
-3.6680592e-08
1.8772807e-06
-3.4994897e-08
2.0622434e-06
-3.30293e-08
2.24864e-06
-3.0683198e-08
2.4260796e-06
-2.7853559e-08
2.5784853e-06
-2.4440837e-08
2.6819972e-06
-2.0354969e-08
2.70232e-06
-1.5515842e-08
2.5913643e-06
-9.9014625e-09
2.2829271e-06
-3.9274475e-09
1.6874282e-06
6.8822556e-07
-5.0790089e-10
1.304583e-08
-2.1663508e-09
3.8703401e-08
-5.2341846e-09
6.6423337e-08
-9.8543353e-09
9.4292728e-08
-1.5976695e-08
1.2070146e-07
-2.332006e-08
1.447018e-07
-3.1400851e-08
1.6617742e-07
-3.9621715e-08
1.8576709e-07
-4.7384385e-08
2.0461188e-07
-5.4187845e-08
2.2405402e-07
-5.9688881e-08
2.4539179e-07
-6.3721276e-08
2.6973333e-07
-6.628196e-08
2.9794378e-07
-6.7496153e-08
3.3065902e-07
-6.7572935e-08
3.6833767e-07
-6.6761059e-08
4.1132993e-07
-6.5311499e-08
4.5994833e-07
-6.3450549e-08
5.1453097e-07
-6.1364664e-08
5.7549164e-07
-5.9195319e-08
6.4335449e-07
-5.7041338e-08
7.1877256e-07
-5.4965079e-08
8.0253084e-07
-5.2999796e-08
8.9553316e-07
-5.1156175e-08
9.9877041e-07
-4.9427099e-08
1.1132639e-06
-4.7790542e-08
1.239973e-06
-4.6211173e-08
1.3796503e-06
-4.4640139e-08
1.5326224e-06
-4.3015113e-08
1.6984638e-06
-4.1260053e-08
1.8755256e-06
-3.9285515e-08
2.0602689e-06
-3.6990384e-08
2.2463449e-06
-3.4265257e-08
2.4233544e-06
-3.0998024e-08
2.5752181e-06
-2.7080803e-08
2.67808e-06
-2.2416331e-08
2.6976554e-06
-1.6926925e-08
2.5858751e-06
-1.063334e-08
2.2766334e-06
-4.1085905e-09
1.6809033e-06
6.8411714e-07
-4.694254e-10
1.3515256e-08
-2.0123122e-09
4.024629e-08
-4.8907995e-09
6.9301819e-08
-9.2775334e-09
9.8679463e-08
-1.5182151e-08
1.2660608e-07
-2.2403023e-08
1.5192268e-07
-3.0533834e-08
1.7430823e-07
-3.9028432e-08
1.942617e-07
-4.7299138e-08
2.1288257e-07
-5.4813441e-08
2.3156834e-07
-6.116426e-08
2.5174261e-07
-6.6104365e-08
2.7467343e-07
-6.9548835e-08
3.0138825e-07
-7.155385e-08
3.3266404e-07
-7.2281276e-08
3.6906509e-07
-7.1957623e-08
4.1100631e-07
-7.0834682e-08
4.5882535e-07
-6.915645e-08
5.1285277e-07
-6.7136896e-08
5.7347208e-07
-6.4947435e-08
6.4116503e-07
-6.2714222e-08
7.1653932e-07
-6.0521243e-08
8.0033787e-07
-5.8417087e-08
8.9342896e-07
-5.6421607e-08
9.9677498e-07
-5.4532437e-08
1.1113747e-06
-5.2728536e-08
1.238169e-06
-5.0972876e-08
1.3778947e-06
-4.9213376e-08
1.5308629e-06
-4.7382681e-08
1.6966332e-06
-4.539895e-08
1.8735418e-06
-4.3165473e-08
2.0580354e-06
-4.0573172e-08
2.2437527e-06
-3.750435e-08
2.4202856e-06
-3.3837953e-08
2.5715518e-06
-2.945801e-08
2.6736999e-06
-2.4260841e-08
2.6924584e-06
-1.8174746e-08
2.5797889e-06
-1.1266675e-08
2.2697253e-06
-4.2582526e-09
1.6738951e-06
6.7985877e-07
-4.3740742e-10
1.3952663e-08
-1.8820877e-09
4.1690971e-08
-4.594524e-09
7.2014258e-08
-8.7654087e-09
1.0285034e-07
-1.4447203e-08
1.3228788e-07
-2.1501438e-08
1.5897691e-07
-2.9590227e-08
1.8239701e-07
-3.8221858e-08
2.0289333e-07
-4.6834137e-08
2.2149486e-07
-5.4885642e-08
2.3961984e-07
-6.1929317e-08
2.5878629e-07
-6.7656768e-08
2.8040087e-07
-7.1912787e-08
3.0564428e-07
-7.4686393e-08
3.3543764e-07
-7.6085335e-08
3.7046404e-07
-7.6301395e-08
4.1122236e-07
-7.5572601e-08
4.5809654e-07
-7.4148084e-08
5.1142826e-07
-7.2260109e-08
5.7158411e-07
-7.0105368e-08
6.390103e-07
-6.7836193e-08
7.1427012e-07
-6.5559535e-08
7.9806125e-07
-6.3341632e-08
8.9121104e-07
-6.1214263e-08
9.9464761e-07
-5.9181612e-08
1.109342e-06
-5.7225321e-08
1.2362128e-06
-5.5308048e-08
1.3759774e-06
-5.3375127e-08
1.5289299e-06
-5.1355084e-08
1.6946132e-06
-4.9160401e-08
1.8713471e-06
-4.6688041e-08
2.0555631e-06
-4.3821598e-08
2.2408862e-06
-4.0435212e-08
2.4168991e-06
-3.6399853e-08
2.5675164e-06
-3.1591556e-08
2.6688916e-06
-2.5902274e-08
2.686769e-06
-1.9267913e-08
2.5731546e-06
-1.1806259e-08
2.2622638e-06
-4.3781155e-09
1.6664666e-06
6.7548075e-07
-4.1029495e-10
1.4362959e-08
-1.7705625e-09
4.3051237e-08
-4.3371394e-09
7.4580837e-08
-8.3115053e-09
1.0682471e-07
-1.377726e-08
1.3775363e-07
-2.0645999e-08
1.6584565e-07
-2.8638776e-08
1.9038979e-07
-3.731643e-08
2.1157098e-07
-4.6149263e-08
2.3032769e-07
-5.4601001e-08
2.4807158e-07
-6.2202482e-08
2.6638777e-07
-6.8601405e-08
2.8679979e-07
-7.3585541e-08
3.1062841e-07
-7.7083417e-08
3.3893551e-07
-7.9148113e-08
3.7252873e-07
-7.9929815e-08
4.1200406e-07
-7.9642299e-08
4.5780903e-07
-7.8528423e-08
5.1031437e-07
-7.6829121e-08
5.6988483e-07
-7.4759955e-08
6.3694112e-07
-7.2496368e-08
7.1200654e-07
-7.0168123e-08
7.9573301e-07
-6.7860355e-08
8.889033e-07
-6.5618904e-08
9.9240613e-07
-6.3456567e-08
1.1071797e-06
-6.1359529e-08
1.2341157e-06
-5.9291078e-08
1.373909e-06
-5.7195147e-08
1.5268339e-06
-5.4996766e-08
1.6924148e-06
-5.2603531e-08
1.868954e-06
-4.9906679e-08
2.0528662e-06
-4.6782846e-08
2.2377624e-06
-4.309896e-08
2.4132152e-06
-3.8718365e-08
2.5631359e-06
-3.3510344e-08
2.6636836e-06
-2.7363443e-08
2.6806221e-06
-2.0224529e-08
2.5660157e-06
-1.2264202e-08
2.2543037e-06
-4.4716063e-09
1.658674e-06
6.710092e-07
-3.8699562e-10
1.4749954e-08
-1.6738985e-09
4.4338141e-08
-4.1116687e-09
7.7018608e-08
-7.9079614e-09
1.10621e-07
-1.3169276e-08
1.4301495e-07
-1.9847156e-08
1.7252353e-07
-2.7712883e-08
1.9825552e-07
-3.6375917e-08
2.2023401e-07
-4.5341529e-08
2.3929331e-07
-5.4087088e-08
2.5681713e-07
-6.2133809e-08
2.744345e-07
-6.9099386e-08
2.9376536e-07
-7.4726985e-08
3.1625601e-07
-7.8893245e-08
3.4310179e-07
-8.1599868e-08
3.7523535e-07
-8.2953166e-08
4.1335736e-07
-8.3136011e-08
4.5799189e-07
-8.2375923e-08
5.0955427e-07
-8.0913609e-08
5.684225e-07
-7.8976218e-08
6.3500371e-07
-7.6757964e-08
7.0978832e-07
-7.4409768e-08
7.9338478e-07
-7.2036052e-08
8.8652959e-07
-6.9697948e-08
9.9006806e-07
-6.7418989e-08
1.1049008e-06
-6.5191133e-08
1.2318878e-06
-6.2980175e-08
1.371698e-06
-6.0729144e-08
1.524583e-06
-5.8360783e-08
1.6900464e-06
-5.5778356e-08
1.8663716e-06
-5.28678e-08
2.0499556e-06
-4.9499597e-08
2.2343943e-06
-4.553408e-08
2.4092497e-06
-4.0827761e-08
2.5584296e-06
-3.5243799e-08
2.6580997e-06
-2.8669129e-08
2.6740474e-06
-2.1063864e-08
2.5584104e-06
-1.265349e-08
2.2458932e-06
-4.5444386e-09
1.6505651e-06
6.6646459e-07
-3.6671989e-10
1.5116674e-08
-1.5892283e-09
4.5560649e-08
-3.9125318e-09
7.9341911e-08
-7.547459e-09
1.1425593e-07
-1.2617522e-08
1.4808501e-07
-1.9106376e-08
1.7901239e-07
-2.6828063e-08
2.059772e-07
-3.5436085e-08
2.2884203e-07
-4.4470733e-08
2.4832796e-07
-5.3427818e-08
2.6577421e-07
-6.1827515e-08
2.8283419e-07
-6.9268086e-08
3.0120594e-07
-7.545881e-08
3.2244672e-07
-8.0233186e-08
3.4787617e-07
-8.3546739e-08
3.785489e-07
-8.5462802e-08
4.1527343e-07
-8.6129995e-08
4.5865907e-07
-8.5754005e-08
5.091783e-07
-8.4567756e-08
5.6723621e-07
-8.2802856e-08
6.3323885e-07
-8.0667347e-08
7.0765278e-07
-7.8330128e-08
7.9104759e-07
-7.5914488e-08
8.8411394e-07
-7.3497663e-08
9.8765119e-07
-7.1114957e-08
1.1025181e-06
-6.8766064e-08
1.2295389e-06
-6.6420286e-08
1.3693522e-06
-6.4021201e-08
1.5221839e-06
-6.1489616e-08
1.6875149e-06
-5.8725582e-08
1.8636075e-06
-5.560992e-08
2.04684e-06
-5.200812e-08
2.2307924e-06
-4.7774039e-08
2.4050156e-06
-4.2758147e-08
2.5534137e-06
-3.6818663e-08
2.6521603e-06
-2.9842242e-08
2.6670709e-06
-2.1804369e-08
2.5503727e-06
-1.2985962e-08
2.2370746e-06
-4.6014845e-09
1.6421807e-06
6.6186327e-07
-3.4888847e-10
1.5465563e-08
-1.5143669e-09
4.6726127e-08
-3.7353024e-09
8.1562844e-08
-7.2236865e-09
1.1774431e-07
-1.2115757e-08
1.5297708e-07
-1.8421217e-08
1.8531785e-07
-2.5990548e-08
2.1354653e-07
-3.4516812e-08
2.373683e-07
-4.3574061e-08
2.5738521e-07
-5.2679047e-08
2.7487921e-07
-6.1356659e-08
2.915118e-07
-6.9193661e-08
3.0904294e-07
-7.5874091e-08
3.2912714e-07
-8.1196392e-08
3.5319848e-07
-8.5075851e-08
3.8242835e-07
-8.7535552e-08
4.1773314e-07
-8.8689014e-08
4.5981251e-07
-8.8716154e-08
5.0920547e-07
-8.7836035e-08
5.6635606e-07
-8.6278524e-08
6.3168133e-07
-8.4259763e-08
7.0563404e-07
-8.1963469e-08
7.887513e-07
-7.9529924e-08
8.8168041e-07
-7.7052469e-08
9.8517374e-07
-7.4579496e-08
1.1000451e-06
-7.2119334e-08
1.2270787e-06
-6.9646304e-08
1.3668792e-06
-6.7105566e-08
1.5196431e-06
-6.4416867e-08
1.6848262e-06
-6.14776e-08
1.8606681e-06
-5.8164477e-08
2.0435269e-06
-5.4337907e-08
2.2269658e-06
-4.9846423e-08
2.4005241e-06
-4.4534972e-08
2.5481022e-06
-3.8257517e-08
2.6458829e-06
-3.0901918e-08
2.6597153e-06
-2.2461642e-08
2.5419325e-06
-1.3272084e-08
2.2278849e-06
-4.6461989e-09
1.6335547e-06
6.5721707e-07
-3.3306272e-10
1.5798626e-08
-1.4476341e-09
4.7840699e-08
-3.5764622e-09
8.3691671e-08
-6.9313533e-09
1.210992e-07
-1.1658094e-08
1.5770382e-07
-1.7787668e-08
1.9144743e-07
-2.5201758e-08
2.2096061e-07
-3.3628769e-08
2.4579532e-07
-4.2674715e-08
2.6643116e-07
-5.1878337e-08
2.8408282e-07
-6.0772956e-08
3.0040643e-07
-6.8939702e-08
3.1720968e-07
-7.6044286e-08
3.3623173e-07
-8.185709e-08
3.5901128e-07
-8.6258977e-08
3.8683024e-07
-8.9236581e-08
4.2071074e-07
-9.0869116e-08
4.6144505e-07
-9.1308821e-08
5.0964518e-07
-9.0756524e-08
5.6580375e-07
-8.9434983e-08
6.3035979e-07
-8.756338e-08
7.0376246e-07
-8.5336176e-08
7.8652408e-07
-8.2908409e-08
8.7925266e-07
-8.0388881e-08
9.8265421e-07
-7.7839293e-08
1.0974955e-06
-7.5278009e-08
1.2245174e-06
-7.2685343e-08
1.3642866e-06
-7.0009145e-08
1.5169669e-06
-6.7169106e-08
1.6819862e-06
-6.4060401e-08
1.8575593e-06
-6.0556461e-08
2.040023e-06
-5.6512976e-08
2.2229224e-06
-5.1773778e-08
2.3957849e-06
-4.6178875e-08
2.5425073e-06
-3.9578987e-08
2.639283e-06
-3.1864609e-08
2.6520008e-06
-2.3048634e-08
2.5331165e-06
-1.3520207e-08
2.2183565e-06
-4.6815797e-09
1.6247161e-06
6.5253549e-07
-3.1890626e-10
1.6117531e-08
-1.3877174e-09
4.8909514e-08
-3.4332049e-09
8.5737155e-08
-6.666064e-09
1.2433206e-07
-1.1239247e-08
1.6227701e-07
-1.7201253e-08
1.9740943e-07
-2.4460587e-08
2.2821994e-07
-3.277725e-08
2.5411198e-07
-4.1787094e-08
2.7544099e-07
-5.1051017e-08
2.9334675e-07
-6.0113257e-08
3.0946866e-07
-6.8553458e-08
3.2564988e-07
-7.6024489e-08
3.4370278e-07
-8.227448e-08
3.6526127e-07
-8.7155336e-08
3.917111e-07
-9.0621222e-08
4.2417663e-07
-9.2719133e-08
4.6354294e-07
-9.3572987e-08
5.1049904e-07
-9.3362745e-08
5.6559351e-07
-9.2299765e-08
6.2929681e-07
-9.0601649e-08
7.0206434e-07
-8.8469436e-08
7.8439187e-07
-8.6070308e-08
8.7685354e-07
-8.3527232e-08
9.801111e-07
-8.09152e-08
1.0948835e-06
-7.8263233e-08
1.2218655e-06
-7.5558726e-08
1.3615821e-06
-7.2753274e-08
1.5141615e-06
-6.9767366e-08
1.6790003e-06
-6.649466e-08
1.8542866e-06
-6.280575e-08
2.0363341e-06
-5.8552608e-08
2.2186692e-06
-5.3574391e-08
2.3908066e-06
-4.7706792e-08
2.5366398e-06
-4.0798418e-08
2.6323746e-06
-3.2743445e-08
2.6439458e-06
-2.3575491e-08
2.5239486e-06
-1.373683e-08
2.2085177e-06
-4.709789e-09
1.6156891e-06
6.4782565e-07
-3.0615195e-10
1.6423684e-08
-1.3335811e-09
4.9936941e-08
-3.3032632e-09
8.7706837e-08
-6.4241662e-09
1.2745297e-07
-1.0854596e-08
1.6670744e-07
-1.6657554e-08
2.0321239e-07
-2.3764723e-08
2.3532711e-07
-3.196434e-08
2.623116e-07
-4.0919967e-08
2.8439662e-07
-5.0214334e-08
3.0264112e-07
-5.9404022e-08
3.1865835e-07
-6.8070278e-08
3.3431614e-07
-7.585738e-08
3.5148986e-07
-8.2495937e-08
3.7189984e-07
-8.7813749e-08
3.9702891e-07
-9.173653e-08
4.2809941e-07
-9.4281545e-08
4.6608796e-07
-9.5545128e-08
5.1176261e-07
-9.5684741e-08
5.6573315e-07
-9.4897278e-08
6.2850934e-07
-9.3394694e-08
7.0056176e-07
-9.1380902e-08
7.8237805e-07
-8.9032099e-08
8.7450476e-07
-8.6483666e-08
9.775627e-07
-8.3823598e-08
1.0922234e-06
-8.1091687e-08
1.2191336e-06
-7.8283463e-08
1.3587739e-06
-7.5354986e-08
1.511233e-06
-7.2228528e-08
1.6758738e-06
-6.8796977e-08
1.8508551e-06
-6.4928797e-08
2.0324659e-06
-6.0472239e-08
2.2142127e-06
-5.526275e-08
2.3855971e-06
-4.9132531e-08
2.5305095e-06
-4.1928102e-08
2.6251702e-06
-3.3548997e-08
2.6355668e-06
-2.40509e-08
2.5144505e-06
-1.3926979e-08
2.1983938e-06
-4.7325784e-09
1.6064943e-06
6.4309335e-07
-2.9459435e-10
1.6718277e-08
-1.2843786e-09
5.0926726e-08
-3.1847858e-09
8.9607243e-08
-6.2026202e-09
1.304708e-07
-1.0500138e-08
1.7100495e-07
-1.6152431e-08
2.0886468e-07
-2.3111294e-08
2.4228597e-07
-3.1190252e-08
2.7039056e-07
-4.007851e-08
2.9328488e-07
-4.9379945e-08
3.1194256e-07
-5.8664344e-08
3.2794274e-07
-6.7516772e-08
3.4316857e-07
-7.5576075e-08
3.5954917e-07
-8.255943e-08
3.7888318e-07
-8.8274516e-08
4.02744e-07
-9.2622426e-08
4.3244733e-07
-9.5593555e-08
4.6905907e-07
-9.725777e-08
5.1342681e-07
-9.7749704e-08
5.6622511e-07
-9.7249584e-08
6.280092e-07
-9.5960505e-08
6.9927269e-07
-9.4085664e-08
7.8050322e-07
-9.1807418e-08
8.722265e-07
-8.9271454e-08
9.7502673e-07
-8.6577582e-08
1.0895295e-06
-8.3776853e-08
1.2163328e-06
-8.0873108e-08
1.3558701e-06
-7.7828074e-08
1.5081879e-06
-7.4566294e-08
1.672612e-06
-7.0980944e-08
1.8472698e-06
-6.693853e-08
2.0284235e-06
-6.2284711e-08
2.2095588e-06
-5.6851074e-08
2.3801635e-06
-5.0466914e-08
2.5241253e-06
-4.297808e-08
2.6176814e-06
-3.4290124e-08
2.6268788e-06
-2.4481479e-08
2.5046418e-06
-1.4094874e-08
2.1880071e-06
-4.7500941e-09
1.5971498e-06
6.3834299e-07
-2.8405991e-10
1.7002338e-08
-1.2394375e-09
5.1882103e-08
-3.0762562e-09
9.1444062e-08
-5.998886e-09
1.3339343e-07
-1.0172439e-08
1.7517851e-07
-1.5682125e-08
2.1437437e-07
-2.2497278e-08
2.4910113e-07
-3.0454112e-08
2.7834739e-07
-3.9265535e-08
3.0209631e-07
-4.8555737e-08
3.2123276e-07
-5.7908072e-08
3.3729508e-07
-6.6913029e-08
3.5217353e-07
-7.5206547e-08
3.6784269e-07
-8.2495478e-08
3.8617211e-07
-8.8570956e-08
4.088195e-07
-9.3312876e-08
4.3718925e-07
-9.6687468e-08
4.7243366e-07
-9.8739946e-08
5.1547929e-07
-9.9582366e-08
5.6706753e-07
-9.9376871e-08
6.2780371e-07
-9.8315372e-08
6.982112e-07
-9.6597268e-08
7.7878509e-07
-9.4407951e-08
8.7003719e-07
-9.1901371e-08
9.7252014e-07
-8.9187993e-08
1.0868162e-06
-8.6329573e-08
1.2134744e-06
-8.3338843e-08
1.3528795e-06
-8.0183695e-08
1.5050328e-06
-7.679201e-08
1.6692203e-06
-7.305762e-08
1.8435354e-06
-6.8845993e-08
2.0242119e-06
-6.4000229e-08
2.204713e-06
-5.8349161e-08
2.3745124e-06
-5.1719388e-08
2.5174955e-06
-4.3956574e-08
2.6099187e-06
-3.4973818e-08
2.617896e-06
-2.4872666e-08
2.4945406e-06
-1.4243359e-08
2.1773779e-06
-4.7643963e-09
1.5876708e-06
6.3357883e-07
-2.7441525e-10
1.7276753e-08
-1.1981979e-09
5.2805886e-08
-2.976419e-09
9.3222282e-08
-5.8108202e-09
1.3622783e-07
-9.8685251e-09
1.7923622e-07
-1.5243251e-08
2.1974909e-07
-2.1919674e-08
2.5577755e-07
-2.9754429e-08
2.8618214e-07
-3.8482324e-08
3.108242e-07
-4.7746891e-08
3.3049733e-07
-5.7145238e-08
3.4669342e-07
-6.6274308e-08
3.613026e-07
-7.4769102e-08
3.7633748e-07
-8.2328686e-08
3.937317e-07
-8.8730661e-08
4.1522147e-07
-9.3836636e-08
4.4229523e-07
-9.7591473e-08
4.7618848e-07
-1.0001759e-07
5.1790542e-07
-1.0120519e-07
5.6825513e-07
-1.0129786e-07
6.2789639e-07
-1.0047444e-07
6.9738776e-07
-9.8927885e-08
7.7723855e-07
-9.6844072e-08
8.679534e-07
-9.4382835e-08
9.7005889e-07
-9.1663853e-08
1.0840972e-06
-8.8758872e-08
1.2105694e-06
-8.5689919e-08
1.3498104e-06
-8.2431195e-08
1.5017742e-06
-7.8915004e-08
1.6657041e-06
-7.5036272e-08
1.8396568e-06
-7.0660083e-08
2.0198357e-06
-6.5627669e-08
2.1996806e-06
-5.9765245e-08
2.36865e-06
-5.2897474e-08
2.5106277e-06
-4.4870713e-08
2.601892e-06
-3.5606008e-08
2.6086314e-06
-2.5228914e-08
2.4841634e-06
-1.4374981e-08
2.166524e-06
-4.7749779e-09
1.5780708e-06
6.2880361e-07
-2.6554247e-10
1.7542295e-08
-1.1601966e-09
5.3700542e-08
-2.8842173e-09
9.4946303e-08
-5.6366142e-09
1.3898022e-07
-9.5858495e-09
1.8318545e-07
-1.483279e-08
2.2499603e-07
-2.1375634e-08
2.6232039e-07
-2.9089402e-08
2.9389591e-07
-3.7729153e-08
3.1946395e-07
-4.6956829e-08
3.39725e-07
-5.6383133e-08
3.5611972e-07
-6.5612266e-08
3.7053173e-07
-7.4279779e-08
3.8500499e-07
-8.2079019e-08
4.0153094e-07
-8.8776456e-08
4.2191892e-07
-9.4218146e-08
4.4773692e-07
-9.8330034e-08
4.8030035e-07
-1.0111374e-07
5.2068914e-07
-1.0263867e-07
5.6978005e-07
-1.0302981e-07
6.2828753e-07
-1.0245166e-07
6.9680961e-07
-1.0108883e-07
7.7587572e-07
-9.9125143e-08
8.6598972e-07
-9.6724075e-08
9.6765779e-07
-9.4012755e-08
1.0813859e-06
-9.107247e-08
1.2076291e-06
-8.7933866e-08
1.3466719e-06
-8.4578596e-08
1.4984189e-06
-8.0943041e-08
1.6620686e-06
-7.692479e-08
1.8356385e-06
-7.2388573e-08
2.0152995e-06
-6.7174237e-08
2.1944663e-06
-6.1106236e-08
2.362582e-06
-5.40076e-08
2.503529e-06
-4.5726113e-08
2.5936105e-06
-3.6191925e-08
2.5990971e-06
-2.5553796e-08
2.4735255e-06
-1.4491989e-08
2.1554619e-06
-4.7828109e-09
1.5683622e-06
6.240206e-07
-2.5735052e-10
1.7799645e-08
-1.1250506e-09
5.4568243e-08
-2.7987726e-09
9.6620023e-08
-5.4747275e-09
1.4165618e-07
-9.3221936e-09
1.8703291e-07
-1.4448077e-08
2.3012192e-07
-2.0862491e-08
2.687348e-07
-2.8457106e-08
3.0149053e-07
-3.7005687e-08
3.2801253e-07
-4.6187613e-08
3.4890694e-07
-5.5627006e-08
3.6555912e-07
-6.4935809e-08
3.7984053e-07
-7.3751233e-08
3.9382041e-07
-8.176261e-08
4.0954232e-07
-8.8727347e-08
4.2888367e-07
-9.4478193e-08
4.5348777e-07
-9.8924447e-08
4.8474658e-07
-1.0204887e-07
5.2381357e-07
-1.0390136e-07
5.7163254e-07
-1.0458864e-07
6.289748e-07
-1.0426022e-07
6.9648119e-07
-1.030907e-07
7.7470618e-07
-1.0125971e-07
8.6415877e-07
-9.8932313e-08
9.6533037e-07
-9.6241571e-08
1.0786952e-06
-9.3276801e-08
1.2046643e-06
-9.0077492e-08
1.3434725e-06
-8.6632341e-08
1.4949737e-06
-8.2883079e-08
1.6583193e-06
-7.872969e-08
1.8314851e-06
-7.4037772e-08
2.0106076e-06
-6.8646435e-08
2.1890748e-06
-6.2378157e-08
2.3563138e-06
-5.5055389e-08
2.4962062e-06
-4.652789e-08
2.585083e-06
-3.6735255e-08
2.5893045e-06
-2.5850902e-08
2.4626411e-06
-1.4595607e-08
2.1442065e-06
-4.7883901e-09
1.5585551e-06
6.1923209e-07
-2.4975725e-10
1.8049402e-08
-1.0924283e-09
5.5410915e-08
-2.7193211e-09
9.8246917e-08
-5.323843e-09
1.442607e-07
-9.0756337e-09
1.907847e-07
-1.4086737e-08
2.3513302e-07
-2.0377788e-08
2.7502586e-07
-2.7855571e-08
3.0896831e-07
-3.6311153e-08
3.3646812e-07
-4.5440444e-08
3.5803623e-07
-5.4880646e-08
3.7499931e-07
-6.4251746e-08
3.8921164e-07
-7.3193535e-08
4.0276219e-07
-8.1392636e-08
4.1774143e-07
-8.8599162e-08
4.3609018e-07
-9.4634442e-08
4.5952307e-07
-9.9393179e-08
4.8950531e-07
-1.0284116e-07
5.2726155e-07
-1.050101e-07
5.7380149e-07
-1.0598914e-07
6.2995381e-07
-1.0591243e-07
6.9640448e-07
-1.0494339e-07
7.7373717e-07
-1.0325588e-07
8.6247125e-07
-1.0101433e-07
9.6308884e-07
-9.8356153e-08
1.076037e-06
-9.5377644e-08
1.2016858e-06
-9.212631e-08
1.3402212e-06
-8.8598239e-08
1.4914457e-06
-8.4740684e-08
1.6544617e-06
-8.0456927e-08
1.8272013e-06
-7.5613576e-08
2.0057643e-06
-7.0049472e-08
2.1835107e-06
-6.3586199e-08
2.3498505e-06
-5.6045575e-08
2.4886656e-06
-4.7280312e-08
2.5763177e-06
-3.7240168e-08
2.5792643e-06
-2.6122349e-08
2.4515235e-06
-1.4687482e-08
2.1327715e-06
-4.7916984e-09
1.5486594e-06
6.1444032e-07
-2.4269682e-10
1.8292098e-08
-1.0620566e-09
5.6230274e-08
-2.6452325e-09
9.9830094e-08
-5.1828208e-09
1.4679829e-07
-8.844507e-09
1.9444638e-07
-1.3746659e-08
2.4003518e-07
-1.9919283e-08
2.8119848e-07
-2.7282877e-08
3.1633191e-07
-3.5644566e-08
3.448298e-07
-4.4715864e-08
3.6710753e-07
-5.4146697e-08
3.8443014e-07
-6.3565298e-08
3.9863024e-07
-7.2614683e-08
4.1181158e-07
-8.0979898e-08
4.2610664e-07
-8.8405065e-08
4.4351535e-07
-9.4701926e-08
4.6581993e-07
-9.9752289e-08
4.9455569e-07
-1.0350672e-07
5.3101597e-07
-1.0598016e-07
5.7627493e-07
-1.0724486e-07
6.3121851e-07
-1.0741983e-07
6.9657943e-07
-1.0665646e-07
7.7297381e-07
-1.0512122e-07
8.6093602e-07
-1.0297642e-07
9.6094406e-07
-1.0036197e-07
1.0734224e-06
-9.7379906e-08
1.1987038e-06
-9.4085226e-08
1.3369265e-06
-9.0481306e-08
1.4878418e-06
-8.6520969e-08
1.6505014e-06
-8.2111395e-08
1.8227917e-06
-7.7120841e-08
2.0007737e-06
-7.138825e-08
2.1777781e-06
-6.4734803e-08
2.3431971e-06
-5.6982449e-08
2.4809132e-06
-4.7987071e-08
2.5673224e-06
-3.770955e-08
2.5689868e-06
-2.6370879e-08
2.4401849e-06
-1.4768899e-08
2.1211692e-06
-4.7928307e-09
1.5386836e-06
6.0964733e-07
-2.3611092e-10
1.852821e-08
-1.0336941e-09
5.7027857e-08
-2.5759482e-09
1.0137235e-07
-5.0506886e-09
1.4927303e-07
-8.627349e-09
1.9802304e-07
-1.3425988e-08
2.4483382e-07
-1.9484939e-08
2.8725742e-07
-2.6737197e-08
3.2358417e-07
-3.5004769e-08
3.5309738e-07
-4.401398e-08
3.7611674e-07
-5.3427019e-08
3.9384319e-07
-6.2880483e-08
4.080837e-07
-7.2021083e-08
4.2095218e-07
-8.0533167e-08
4.3461872e-07
-8.8156135e-08
4.5113832e-07
-9.4693486e-08
4.7235728e-07
-1.0001576e-07
4.9987797e-07
-1.0405982e-07
5.3506003e-07
-1.0682526e-07
5.7904037e-07
-1.0836841e-07
6.3276166e-07
-1.0879324e-07
6.9700427e-07
-1.0823878e-07
7.7241936e-07
-1.0686298e-07
8.5956024e-07
-1.0482448e-07
9.5890554e-07
-1.0226392e-07
1.0708619e-06
-9.9288192e-08
1.1957281e-06
-9.5958821e-08
1.3335971e-06
-9.2285845e-08
1.4841689e-06
-8.8228417e-08
1.6464439e-06
-8.3697537e-08
1.8182608e-06
-7.8563923e-08
1.9956401e-06
-7.2667012e-08
2.1718812e-06
-6.5828092e-08
2.3363581e-06
-5.7869739e-08
2.4729548e-06
-4.865175e-08
2.5581045e-06
-3.8146467e-08
2.5584814e-06
-2.6598448e-08
2.4286369e-06
-1.4840378e-08
2.1094113e-06
-4.7923618e-09
1.5286355e-06
6.0485485e-07
-2.2995352e-10
1.8758163e-08
-1.0071389e-09
5.7805043e-08
-2.5109922e-09
1.028762e-07
-4.9265806e-09
1.5168862e-07
-8.4228861e-09
2.0151934e-07
-1.3123059e-08
2.49534e-07
-1.9072881e-08
2.9320725e-07
-2.6216774e-08
3.3072806e-07
-3.439057e-08
3.6127118e-07
-4.3334564e-08
3.8506072e-07
-5.2722844e-08
4.0323147e-07
-6.2200307e-08
4.1756117e-07
-7.1417826e-08
4.3016969e-07
-8.00597e-08
4.432606e-07
-8.7861615e-08
4.5894024e-07
-9.4620041e-08
4.791157e-07
-1.001957e-07
5.0545361e-07
-1.0451308e-07
5.3937745e-07
-1.0755781e-07
5.8208509e-07
-1.0937123e-07
6.3457508e-07
-1.1004278e-07
6.9767583e-07
-1.0969885e-07
7.7207542e-07
-1.0848806e-07
8.5834946e-07
-1.0656402e-07
9.5698148e-07
-1.0406684e-07
1.0683648e-06
-1.0110671e-07
1.192768e-06
-9.7750778e-08
1.3302411e-06
-9.4015914e-08
1.4804341e-06
-8.9866901e-08
1.6422949e-06
-8.5219395e-08
1.8136133e-06
-7.9946667e-08
1.9903675e-06
-7.3889611e-08
2.1658241e-06
-6.6869637e-08
2.3293382e-06
-5.8710801e-08
2.4647959e-06
-4.9277278e-08
2.548671e-06
-3.8553272e-08
2.5477573e-06
-2.6806625e-08
2.4168902e-06
-1.4903517e-08
2.0975082e-06
-4.7903321e-09
1.5185222e-06
6.0006454e-07
-2.2417777e-10
1.8982342e-08
-9.8221493e-10
5.856308e-08
-2.4499517e-09
1.0434393e-07
-4.8097601e-09
1.5404843e-07
-8.2299732e-09
2.0493956e-07
-1.2836393e-08
2.5414042e-07
-1.8681437e-08
2.9905229e-07
-2.5719971e-08
3.3776659e-07
-3.3800725e-08
3.6935193e-07
-4.2677185e-08
3.9393718e-07
-5.2034931e-08
4.1258922e-07
-6.1527121e-08
4.2705334e-07
-7.080899e-08
4.3945157e-07
-7.9565474e-08
4.5201708e-07
-8.7529306e-08
4.6690407e-07
-9.4491016e-08
4.860774e-07
-1.0030262e-07
5.1126522e-07
-1.048777e-07
5.4395254e-07
-1.08189e-07
5.8539636e-07
-1.1026388e-07
6.3664998e-07
-1.1117789e-07
6.9858983e-07
-1.1104472e-07
7.7194224e-07
-1.1000305e-07
8.5730781e-07
-1.0820037e-07
9.5517882e-07
-1.0577514e-07
1.0659394e-06
-1.0283925e-07