/*--------------------------------*- C++ -*----------------------------------*\
| =========                 |                                                 |
| \\      /  F ield         | OpenFOAM: The Open Source CFD Toolbox           |
|  \\    /   O peration     | Version:  3.0.1                                 |
|   \\  /    A nd           | Web:      www.OpenFOAM.org                      |
|    \\/     M anipulation  |                                                 |
\*---------------------------------------------------------------------------*/
FoamFile
{
    version     2.0;
    format      ascii;
    class       volScalarField;
    location    "2169";
    object      Qin;
}
// * * * * * * * * * * * * * * * * * * * * * * * * * * * * * * * * * * * * * //

dimensions      [1 0 -3 0 0 0 0];

internalField   uniform 0;

boundaryField
{
    LeftWedge
    {
        type            wedge;
    }
    RightWedge
    {
        type            wedge;
    }
    Inlet
    {
        type            calculated;
        value           uniform 0;
    }
    Outlet
    {
        type            calculated;
        value           nonuniform List<scalar> 
40
(
9.7151714e-30
9.7151714e-30
9.7151714e-30
9.7151714e-30
9.7151714e-30
9.7151714e-30
9.7151714e-30
9.7151714e-30
9.7151714e-30
9.7151714e-30
9.7151714e-30
9.7151714e-30
9.7151714e-30
9.7151714e-30
9.7151714e-30
9.7151714e-30
9.7151714e-30
9.7151714e-30
9.7151714e-30
9.7151714e-30
9.7151714e-30
9.7151714e-30
9.7151714e-30
9.7151714e-30
9.7151714e-30
9.7151714e-30
9.7151714e-30
9.7151714e-30
9.7151714e-30
9.7151714e-30
9.7151714e-30
9.7151714e-30
9.7151714e-30
9.7151714e-30
9.7151714e-30
9.7151714e-30
9.7151714e-30
9.7151714e-30
9.7151714e-30
9.7151714e-30
)
;
    }
    Outterwall
    {
        type            calculated;
        value           nonuniform List<scalar> 
100
(
644.08001
697.43104
724.04844
741.11521
753.46212
763.0286
770.78061
777.26291
782.81143
787.64692
791.92173
795.74512
799.19794
802.34158
805.22369
807.88193
810.34657
812.64226
814.78933
816.80475
818.70278
820.49557
822.19348
823.80548
825.33934
826.80186
828.19898
829.53597
830.8175
832.04772
833.23035
834.36872
835.46583
836.52441
837.54692
838.53558
839.49246
840.4194
841.31813
842.19021
843.03708
843.8601
844.66047
845.43936
846.19782
846.93683
847.65732
848.36013
849.04607
849.71588
850.37026
851.00988
851.63533
852.24721
852.84606
853.43239
854.00669
854.56942
855.121
855.66185
856.19235
856.71287
857.22376
857.72536
858.21797
858.7019
859.17743
859.64483
860.10436
860.55628
861.00081
861.43818
861.8686
862.29229
862.70944
863.12023
863.52486
863.9235
864.3163
864.70343
865.08505
865.46131
865.83234
866.19828
866.55927
866.91543
867.26688
867.61375
867.95615
868.29421
868.62806
868.95792
869.2843
869.60847
869.93544
870.27898
870.69237
871.23907
872.35514
873.71731
)
;
    }
    Innerwall
    {
        type            calculated;
        value           nonuniform List<scalar> 
100
(
421.91927
421.91842
421.91757
421.91673
421.91588
421.91504
421.9142
421.91336
421.91252
421.91168
421.91084
421.91
421.90916
421.90832
421.90748
421.90664
421.9058
421.90496
421.90412
421.90328
421.90245
421.90161
421.90077
421.89993
421.89909
421.89825
421.89741
421.89658
421.89574
421.8949
421.89406
421.89322
421.89238
421.89155
421.89071
421.88987
421.88903
421.8882
421.88736
421.88652
421.88569
421.88485
421.88402
421.88318
421.88235
421.88151
421.88068
421.87985
421.87902
421.87819
421.87736
421.87654
421.87571
421.87489
421.87407
421.87325
421.87244
421.87163
421.87082
421.87001
421.86921
421.86842
421.86763
421.86684
421.86606
421.86528
421.86451
421.86375
421.86299
421.86225
421.86151
421.86077
421.86005
421.85934
421.85864
421.85794
421.85726
421.85659
421.85594
421.85529
421.85466
421.85405
421.85345
421.85286
421.8523
421.85175
421.85121
421.8507
421.85021
421.84973
421.84928
421.84885
421.84844
421.84806
421.8477
421.84737
421.84706
421.84679
421.84654
421.84636
)
;
    }
}


// ************************************************************************* //
