/*--------------------------------*- C++ -*----------------------------------*\
| =========                 |                                                 |
| \\      /  F ield         | OpenFOAM: The Open Source CFD Toolbox           |
|  \\    /   O peration     | Version:  3.0.1                                 |
|   \\  /    A nd           | Web:      www.OpenFOAM.org                      |
|    \\/     M anipulation  |                                                 |
\*---------------------------------------------------------------------------*/
FoamFile
{
    version     2.0;
    format      ascii;
    class       volScalarField;
    location    "2169";
    object      Qr;
}
// * * * * * * * * * * * * * * * * * * * * * * * * * * * * * * * * * * * * * //

dimensions      [1 0 -3 0 0 0 0];

internalField   uniform 0;

boundaryField
{
    LeftWedge
    {
        type            wedge;
    }
    RightWedge
    {
        type            wedge;
    }
    Inlet
    {
        type            calculated;
        value           uniform -6.3277868e-30;
    }
    Outlet
    {
        type            calculated;
        value           nonuniform List<scalar> 
40
(
9.7151714e-30
9.7151714e-30
9.7151714e-30
9.7151714e-30
9.7151714e-30
9.7151714e-30
9.7151714e-30
9.7151714e-30
9.7151714e-30
9.7151714e-30
9.7151714e-30
9.7151714e-30
9.7151714e-30
9.7151714e-30
9.7151714e-30
9.7151714e-30
9.7151714e-30
9.7151714e-30
9.7151714e-30
9.7151714e-30
9.7151714e-30
9.7151714e-30
9.7151714e-30
9.7151714e-30
9.7151714e-30
9.7151714e-30
9.7151714e-30
9.7151714e-30
9.7151714e-30
9.7151714e-30
9.7151714e-30
9.7151714e-30
9.7151714e-30
9.7151714e-30
9.7151714e-30
9.7151714e-30
9.7151714e-30
9.7151714e-30
9.7151714e-30
9.7151714e-30
)
;
    }
    Outterwall
    {
        type            calculated;
        value           nonuniform List<scalar> 
100
(
222.16074
275.51263
302.13087
319.19849
331.54623
341.11356
348.86642
355.34955
360.89891
365.73524
370.01089
373.83512
377.28878
380.43326
383.31621
385.97529
388.44077
390.7373
392.88521
394.90146
396.80034
398.59396
400.29271
401.90555
403.44025
404.9036
406.30156
407.63939
408.92176
410.15282
411.33629
412.47549
413.57345
414.63287
415.65621
416.64571
417.60342
418.53121
419.43077
420.30368
421.1514
421.97525
422.77646
423.55618
424.31547
425.05532
425.77664
426.48028
427.16705
427.83769
428.4929
429.13334
429.75962
430.37232
430.97199
431.55914
432.13425
432.69779
433.25018
433.79183
434.32313
434.84445
435.35614
435.85852
436.35191
436.83662
437.31292
437.78108
438.24137
438.69403
439.1393
439.5774
440.00855
440.43295
440.8508
441.26229
441.6676
442.0669
442.46036
442.84814
443.23039
443.60726
443.97889
444.34542
444.70697
445.06368
445.41567
445.76305
446.10595
446.44447
446.77878
447.10907
447.43586
447.76041
448.08774
448.43161
448.84531
449.39228
450.5086
451.87095
)
;
    }
    Innerwall
    {
        type            calculated;
        value           nonuniform List<scalar> 
100
(
-222.16074
-275.51263
-302.13087
-319.19849
-331.54623
-341.11356
-348.86642
-355.34955
-360.89891
-365.73524
-370.01089
-373.83512
-377.28878
-380.43326
-383.31621
-385.97529
-388.44077
-390.7373
-392.88521
-394.90146
-396.80034
-398.59396
-400.29271
-401.90555
-403.44025
-404.9036
-406.30156
-407.63939
-408.92176
-410.15282
-411.33629
-412.47549
-413.57345
-414.63287
-415.65621
-416.64571
-417.60342
-418.53121
-419.43077
-420.30368
-421.1514
-421.97525
-422.77646
-423.55618
-424.31547
-425.05532
-425.77664
-426.48028
-427.16705
-427.83769
-428.4929
-429.13334
-429.75962
-430.37232
-430.97199
-431.55914
-432.13425
-432.69779
-433.25018
-433.79183
-434.32313
-434.84445
-435.35614
-435.85852
-436.35191
-436.83662
-437.31292
-437.78108
-438.24137
-438.69403
-439.1393
-439.5774
-440.00855
-440.43295
-440.8508
-441.26229
-441.6676
-442.0669
-442.46036
-442.84814
-443.23039
-443.60726
-443.97889
-444.34542
-444.70697
-445.06368
-445.41567
-445.76305
-446.10595
-446.44447
-446.77878
-447.10907
-447.43586
-447.76041
-448.08774
-448.43161
-448.84531
-449.39228
-450.5086
-451.87095
)
;
    }
}


// ************************************************************************* //
