/*--------------------------------*- C++ -*----------------------------------*\
| =========                 |                                                 |
| \\      /  F ield         | OpenFOAM: The Open Source CFD Toolbox           |
|  \\    /   O peration     | Version:  3.0.1                                 |
|   \\  /    A nd           | Web:      www.OpenFOAM.org                      |
|    \\/     M anipulation  |                                                 |
\*---------------------------------------------------------------------------*/
FoamFile
{
    version     2.0;
    format      ascii;
    class       volScalarField;
    location    "2169";
    object      rho;
}
// * * * * * * * * * * * * * * * * * * * * * * * * * * * * * * * * * * * * * //

dimensions      [1 -3 0 0 0 0 0];

internalField   nonuniform List<scalar> 
4000
(
1.0988922
1.1334119
1.1594095
1.1770289
1.1880379
1.1944882
1.1980748
1.1999825
1.2009583
1.2014396
1.2016688
1.2017745
1.2018215
1.2018417
1.2018501
1.2018535
1.2018548
1.2018553
1.2018554
1.2018555
1.2018555
1.2018555
1.2018555
1.2018555
1.2018555
1.2018555
1.2018555
1.2018555
1.2018555
1.2018555
1.2018555
1.2018555
1.2018555
1.2018555
1.2018555
1.2018555
1.2018555
1.2018555
1.2018555
1.2018555
1.0740533
1.1061738
1.134325
1.1569499
1.1736269
1.1849949
1.1922379
1.1965946
1.1990877
1.2004525
1.2011695
1.2015318
1.2017078
1.2017902
1.2018272
1.2018432
1.2018498
1.2018525
1.2018535
1.2018538
1.201854
1.201854
1.201854
1.201854
1.201854
1.201854
1.201854
1.201854
1.201854
1.201854
1.201854
1.201854
1.201854
1.201854
1.201854
1.201854
1.201854
1.201854
1.201854
1.201854
1.0625777
1.0925725
1.1199484
1.1434758
1.1623216
1.1763762
1.1861797
1.1926195
1.1966305
1.1990122
1.2003655
1.2011031
1.201489
1.201683
1.2017766
1.2018199
1.2018391
1.2018472
1.2018505
1.2018518
1.2018523
1.2018525
1.2018525
1.2018525
1.2018525
1.2018525
1.2018525
1.2018525
1.2018525
1.2018525
1.2018525
1.2018525
1.2018525
1.2018525
1.2018525
1.2018525
1.2018525
1.2018525
1.2018525
1.2018525
1.0555069
1.0840759
1.1105635
1.1340486
1.1537188
1.1692003
1.1806564
1.1886585
1.1939615
1.1973116
1.1993364
1.2005098
1.2011626
1.2015113
1.20169
1.2017778
1.2018192
1.2018378
1.2018458
1.201849
1.2018503
1.2018508
1.201851
1.201851
1.201851
1.201851
1.201851
1.201851
1.201851
1.201851
1.201851
1.201851
1.201851
1.201851
1.201851
1.201851
1.201851
1.201851
1.201851
1.201851
1.050523
1.0780605
1.1037981
1.1270196
1.1469979
1.1632751
1.1758125
1.1849595
1.1913047
1.1955064
1.1981712
1.1997935
1.2007425
1.201276
1.201564
1.2017131
1.2017871
1.2018222
1.2018381
1.201845
1.2018478
1.2018489
1.2018493
1.2018495
1.2018495
1.2018495
1.2018495
1.2018495
1.2018495
1.2018495
1.2018495
1.2018495
1.2018495
1.2018495
1.2018495
1.2018495
1.2018495
1.2018495
1.2018495
1.2018495
1.046734
1.0734783
1.0985952
1.1215097
1.1415778
1.1583225
1.171594
1.1815913
1.1887686
1.1936966
1.1969424
1.1989978
1.2002504
1.2009851
1.2013997
1.2016243
1.201741
1.2017991
1.2018266
1.2018391
1.2018445
1.2018467
1.2018476
1.2018479
1.201848
1.201848
1.201848
1.201848
1.201848
1.201848
1.201848
1.201848
1.201848
1.201848
1.201848
1.201848
1.201848
1.201848
1.201848
1.201848
1.0437087
1.0698157
1.0944123
1.1170255
1.1370827
1.1541129
1.1679022
1.178546
1.1863936
1.1919368
1.1956992
1.1981583
1.199708
1.2006498
1.2012012
1.2015119
1.20168
1.2017672
1.2018104
1.2018309
1.2018401
1.201844
1.2018456
1.2018462
1.2018464
1.2018465
1.2018465
1.2018465
1.2018465
1.2018465
1.2018465
1.2018465
1.2018465
1.2018465
1.2018465
1.2018465
1.2018465
1.2018465
1.2018465
1.2018465
1.0412091
1.0667875
1.0909403
1.1132716
1.133269
1.1504766
1.1646435
1.1757911
1.1841863
1.1902531
1.1944718
1.1973013
1.1991342
1.2002812
1.2009743
1.201378
1.2016043
1.2017261
1.2017888
1.2018197
1.2018342
1.2018406
1.2018433
1.2018444
1.2018448
1.201845
1.201845
1.201845
1.201845
1.201845
1.201845
1.201845
1.201845
1.201845
1.201845
1.201845
1.201845
1.201845
1.201845
1.201845
1.0390908
1.0642204
1.0879886
1.1100601
1.1299731
1.1472908
1.1617404
1.1732894
1.182139
1.1886549
1.1932774
1.1964444
1.1985433
1.1998895
1.2007248
1.2012255
1.2015149
1.2016757
1.2017615
1.2018052
1.2018265
1.2018363
1.2018407
1.2018424
1.2018431
1.2018434
1.2018435
1.2018435
1.2018435
1.2018435
1.2018435
1.2018435
1.2018435
1.2018435
1.2018435
1.2018435
1.2018435
1.2018435
1.2018435
1.2018435
1.0372605
1.0620017
1.0854319
1.1072649
1.1270817
1.1444655
1.1591311
1.1710061
1.1802382
1.1871433
1.1921246
1.195599
1.1979461
1.1994831
1.2004585
1.2010576
1.2014132
1.2016166
1.2017284
1.2017872
1.2018169
1.201831
1.2018375
1.2018403
1.2018414
1.2018418
1.201842
1.201842
1.201842
1.201842
1.201842
1.201842
1.201842
1.201842
1.201842
1.201842
1.201842
1.201842
1.201842
1.201842
1.0356544
1.0600544
1.0831844
1.1047981
1.1245136
1.1419338
1.1567673
1.168911
1.1784695
1.1857149
1.191017
1.1947718
1.1973501
1.1990684
1.2001801
1.2008774
1.201301
1.2015493
1.2016896
1.2017656
1.201805
1.2018245
1.2018337
1.2018378
1.2018395
1.2018402
1.2018404
1.2018405
1.2018405
1.2018405
1.2018405
1.2018405
1.2018405
1.2018405
1.2018405
1.2018405
1.2018405
1.2018405
1.2018405
1.2018405
1.0342273
1.0583241
1.0811844
1.1025959
1.1222089
1.1396449
1.1546104
1.1669789
1.1768188
1.1843646
1.1899552
1.1939667
1.1967601
1.1986503
1.1998935
1.2006877
1.2011798
1.2014748
1.2016455
1.2017404
1.201791
1.2018167
1.2018292
1.2018349
1.2018374
1.2018384
1.2018388
1.201839
1.201839
1.201839
1.201839
1.201839
1.201839
1.201839
1.201839
1.201839
1.201839
1.201839
1.201839
1.201839
1.032946
1.0567704
1.0793867
1.1006113
1.1201224
1.1375598
1.1526299
1.1651885
1.1752735
1.1830865
1.1889382
1.1931855
1.1961796
1.1982323
1.199602
1.2004909
1.2010514
1.201394
1.2015964
1.2017116
1.2017746
1.2018075
1.2018239
1.2018317
1.2018352
1.2018366
1.2018372
1.2018374
1.2018375
1.2018375
1.2018375
1.2018375
1.2018375
1.2018375
1.2018375
1.2018375
1.2018375
1.2018375
1.2018375
1.2018375
1.0317855
1.0553633
1.0777569
1.098808
1.1182194
1.1356476
1.1508013
1.163522
1.1738224
1.1818747
1.187964
1.1924289
1.1956105
1.1978171
1.199308
1.200289
1.2009172
1.2013077
1.2015428
1.2016795
1.2017559
1.2017969
1.2018178
1.201828
1.2018327
1.2018347
1.2018355
1.2018359
1.201836
1.201836
1.201836
1.201836
1.201836
1.201836
1.201836
1.201836
1.201836
1.201836
1.201836
1.201836
1.0307267
1.0540793
1.0762687
1.097158
1.1164723
1.1338838
1.1491044
1.1619647
1.1724557
1.1807238
1.1870303
1.1916968
1.195054
1.1974063
1.1990133
1.2000838
1.2007784
1.2012169
1.2014853
1.2016443
1.201735
1.2017847
1.2018108
1.2018238
1.2018299
1.2018327
1.2018338
1.2018343
1.2018345
1.2018345
1.2018345
1.2018345
1.2018345
1.2018345
1.2018345
1.2018345
1.2018345
1.2018345
1.2018345
1.2018345
1.0297543
1.0529002
1.0749012
1.0956392
1.1148595
1.1322486
1.1475228
1.1605041
1.1711649
1.1796285
1.1861347
1.1909886
1.1945107
1.1970013
1.1987195
1.1998764
1.2006363
1.2011223
1.2014244
1.2016063
1.201712
1.2017712
1.2018028
1.201819
1.2018269
1.2018305
1.201832
1.2018327
1.2018329
1.201833
1.201833
1.201833
1.201833
1.201833
1.201833
1.201833
1.201833
1.201833
1.201833
1.201833
1.0288563
1.0518114
1.0736376
1.0942338
1.1133631
1.1307259
1.1460428
1.1591295
1.1699424
1.1785842
1.1852748
1.1903034
1.1939808
1.1966027
1.1984276
1.1996681
1.2004916
1.2010247
1.2013605
1.2015657
1.2016871
1.2017562
1.201794
1.2018137
1.2018235
1.2018281
1.2018302
1.201831
1.2018314
1.2018315
1.2018315
1.2018315
1.2018315
1.2018315
1.2018315
1.2018315
1.2018315
1.2018315
1.2018315
1.2018315
1.028023
1.050801
1.0724644
1.0929272
1.1119686
1.129302
1.144653
1.1578321
1.168782
1.1775868
1.1844481
1.1896402
1.1934643
1.1962112
1.1981383
1.1994597
1.2003453
1.2009246
1.201294
1.2015229
1.2016603
1.2017399
1.2017842
1.2018078
1.2018198
1.2018256
1.2018282
1.2018293
1.2018298
1.20183
1.20183
1.20183
1.20183
1.20183
1.20183
1.20183
1.20183
1.20183
1.20183
1.20183
1.0272463
1.0498593
1.0713704
1.0917073
1.1106641
1.1279659
1.1433437
1.1566041
1.1676778
1.1766325
1.1836524
1.188998
1.1929609
1.1958269
1.1978521
1.1992518
1.2001978
1.2008227
1.2012255
1.2014781
1.2016318
1.2017223
1.2017735
1.2018013
1.2018157
1.2018228
1.2018261
1.2018276
1.2018282
1.2018284
1.2018285
1.2018285
1.2018285
1.2018285
1.2018285
1.2018285
1.2018285
1.2018285
1.2018285
1.2018285
1.0265195
1.0489781
1.0703464
1.0905643
1.1094393
1.126708
1.1421066
1.1554388
1.1666251
1.1757178
1.1828857
1.1883757
1.1924702
1.19545
1.1975696
1.1990449
1.2000498
1.2007194
1.2011551
1.2014315
1.2016018
1.2017035
1.2017619
1.2017942
1.2018113
1.2018199
1.2018239
1.2018258
1.2018266
1.2018269
1.201827
1.201827
1.201827
1.201827
1.201827
1.201827
1.201827
1.201827
1.201827
1.201827
1.0258371
1.0481508
1.0693846
1.0894897
1.1082859
1.1255203
1.1409346
1.1543306
1.1656193
1.1748399
1.1821461
1.1877723
1.1919918
1.1950805
1.1972909
1.1988393
1.1999016
1.200615
1.2010834
1.2013834
1.2015705
1.2016835
1.2017495
1.2017866
1.2018065
1.2018167
1.2018216
1.2018239
1.2018249
1.2018253
1.2018255
1.2018255
1.2018255
1.2018255
1.2018255
1.2018255
1.2018255
1.2018255
1.2018255
1.2018255
1.0251943
1.0473715
1.0684785
1.0884763
1.1071964
1.1243959
1.1398217
1.1532742
1.1646568
1.1739959
1.1814317
1.1871867
1.1915253
1.1947182
1.1970161
1.1986355
1.1997537
1.2005099
1.2010105
1.2013341
1.2015379
1.2016626
1.2017363
1.2017783
1.2018013
1.2018133
1.2018192
1.201822
1.2018232
1.2018237
1.2018239
1.201824
1.201824
1.201824
1.201824
1.201824
1.201824
1.201824
1.201824
1.201824
1.0245871
1.0466355
1.0676223
1.087518
1.1061647
1.1233288
1.1387625
1.1522655
1.163734
1.1731834
1.1807411
1.186618
1.1910702
1.1943632
1.1967455
1.1984336
1.1996061
1.2004044
1.2009366
1.2012836
1.2015042
1.2016406
1.2017223
1.2017695
1.2017957
1.2018096
1.2018166
1.20182
1.2018215
1.2018221
1.2018224
1.2018225
1.2018225
1.2018225
1.2018225
1.2018225
1.2018225
1.2018225
1.2018225
1.2018225
1.0240121
1.0459385
1.0668113
1.0866096
1.1051854
1.1223139
1.1377524
1.1513003
1.162848
1.1724002
1.1800727
1.1860654
1.1906261
1.1940151
1.1964789
1.1982337
1.1994593
1.2002987
1.2008621
1.2012322
1.2014696
1.2016179
1.2017077
1.2017602
1.2017898
1.2018057
1.2018139
1.2018179
1.2018197
1.2018205
1.2018208
1.201821
1.201821
1.201821
1.201821
1.201821
1.201821
1.201821
1.201821
1.201821
1.0234662
1.0452768
1.0660413
1.0857466
1.1042537
1.1213465
1.1367872
1.1503755
1.161996
1.1716444
1.1794251
1.1855279
1.1901924
1.1936739
1.1962165
1.198036
1.1993133
1.2001929
1.2007871
1.2011801
1.2014342
1.2015943
1.2016923
1.2017504
1.2017835
1.2018016
1.201811
1.2018157
1.2018179
1.2018189
1.2018193
1.2018195
1.2018195
1.2018195
1.2018195
1.2018195
1.2018195
1.2018195
1.2018195
1.2018195
1.0229468
1.0446474
1.0653086
1.0849248
1.1033657
1.1204228
1.1358635
1.1494877
1.1611756
1.1709141
1.1787972
1.1850047
1.1897687
1.1933393
1.1959581
1.1978406
1.1991682
1.2000873
1.2007116
1.2011273
1.201398
1.20157
1.2016764
1.20174
1.2017768
1.2017972
1.201808
1.2018134
1.2018161
1.2018172
1.2018177
1.2018179
1.201818
1.201818
1.201818
1.201818
1.201818
1.201818
1.201818
1.201818
1.0224517
1.0440473
1.06461
1.0841408
1.1025175
1.1195391
1.1349779
1.1486344
1.1603847
1.1702077
1.1781877
1.1844952
1.1893546
1.1930111
1.1957037
1.1976474
1.1990243
1.199982
1.200636
1.201074
1.2013612
1.2015451
1.2016598
1.2017292
1.2017698
1.2017926
1.2018048
1.2018111
1.2018141
1.2018155
1.2018161
1.2018164
1.2018165
1.2018165
1.2018165
1.2018165
1.2018165
1.2018165
1.2018165
1.2018165
1.0219788
1.0434743
1.0639428
1.0833916
1.1017061
1.1186925
1.1341277
1.1478131
1.1596212
1.1695237
1.1775957
1.1839986
1.1889496
1.192689
1.1954532
1.1974565
1.1988814
1.199877
1.2005602
1.2010203
1.2013238
1.2015197
1.2016428
1.201718
1.2017624
1.2017877
1.2018015
1.2018086
1.2018122
1.2018138
1.2018146
1.2018149
1.201815
1.201815
1.201815
1.201815
1.201815
1.201815
1.201815
1.201815
1.0215265
1.0429261
1.0633043
1.0826744
1.1009287
1.11788
1.1333102
1.1470216
1.1588835
1.1688607
1.1770201
1.1835143
1.1885535
1.192373
1.1952066
1.1972678
1.1987398
1.1997725
1.2004844
1.2009662
1.201286
1.2014937
1.2016253
1.2017064
1.2017548
1.2017826
1.201798
1.2018061
1.2018101
1.2018121
1.2018129
1.2018133
1.2018135
1.2018135
1.2018135
1.2018135
1.2018135
1.2018135
1.2018135
1.2018135
1.021093
1.0424009
1.0626925
1.0819868
1.1001826
1.1170993
1.1325233
1.146258
1.1581698
1.1682177
1.1764601
1.1830417
1.1881657
1.1920627
1.1949638
1.1970815
1.1985994
1.1996685
1.2004086
1.2009119
1.2012478
1.2014673
1.2016074
1.2016944
1.2017468
1.2017773
1.2017943
1.2018034
1.201808
1.2018103
1.2018113
1.2018118
1.2018119
1.201812
1.201812
1.201812
1.201812
1.201812
1.201812
1.201812
1.020677
1.0418968
1.0621053
1.0813265
1.0994656
1.1163481
1.1317647
1.1455203
1.1574787
1.1675933
1.1759149
1.1825802
1.187786
1.191758
1.1947246
1.1968974
1.1984602
1.199565
1.2003329
1.2008575
1.2012093
1.2014405
1.201589
1.201682
1.2017385
1.2017717
1.2017905
1.2018006
1.2018059
1.2018085
1.2018097
1.2018102
1.2018104
1.2018105
1.2018105
1.2018105
1.2018105
1.2018105
1.2018105
1.2018105
1.0202772
1.0414125
1.061541
1.0806917
1.0987757
1.1156244
1.1310327
1.144807
1.1568089
1.1669865
1.1753836
1.1821294
1.187414
1.1914586
1.194489
1.1967156
1.1983224
1.1994622
1.2002574
1.2008029
1.2011705
1.2014133
1.2015703
1.2016693
1.20173
1.2017659
1.2017865
1.2017978
1.2018037
1.2018066
1.201808
1.2018086
1.2018089
1.201809
1.201809
1.201809
1.201809
1.201809
1.201809
1.201809
1.0198925
1.0409465
1.060998
1.0800806
1.0981111
1.1149264
1.1303256
1.1441166
1.1561592
1.1663965
1.1748656
1.1816886
1.1870493
1.1911644
1.1942568
1.196536
1.1981858
1.19936
1.2001821
1.2007483
1.2011314
1.2013858
1.2015513
1.2016563
1.2017212
1.20176
1.2017824
1.2017948
1.2018014
1.2018047
1.2018063
1.201807
1.2018073
1.2018075
1.2018075
1.2018075
1.2018075
1.2018075
1.2018075
1.2018075
1.0195219
1.0404975
1.0604748
1.0794916
1.0974701
1.1142524
1.1296419
1.1434477
1.1555284
1.1658223
1.1743603
1.1812575
1.1866918
1.1908752
1.194028
1.1963585
1.1980505
1.1992585
1.2001071
1.2006936
1.2010922
1.2013581
1.201532
1.201643
1.2017121
1.2017538
1.2017781
1.2017917
1.201799
1.2018028
1.2018046
1.2018054
1.2018058
1.2018059
1.201806
1.201806
1.201806
1.201806
1.201806
1.201806
1.0191644
1.0400645
1.0599701
1.0789233
1.0968511
1.113601
1.12898
1.1427991
1.1549154
1.1652631
1.173867
1.1808357
1.186341
1.1905908
1.1938025
1.1961831
1.1979164
1.1991577
1.2000324
1.200639
1.2010528
1.2013302
1.2015124
1.2016295
1.2017028
1.2017474
1.2017737
1.2017885
1.2017966
1.2018008
1.2018029
1.2018038
1.2018042
1.2018044
1.2018045
1.2018045
1.2018045
1.2018045
1.2018045
1.2018045
1.0188193
1.0396464
1.0594828
1.0783743
1.0962529
1.1129707
1.1283388
1.1421697
1.1543194
1.1647182
1.1733852
1.1804227
1.1859968
1.1903111
1.1935802
1.1960098
1.1977837
1.1990575
1.1999579
1.2005844
1.2010133
1.201302
1.2014926
1.2016157
1.2016933
1.2017409
1.2017691
1.2017853
1.2017941
1.2017988
1.2018011
1.2018022
1.2018027
1.2018029
1.201803
1.201803
1.201803
1.201803
1.201803
1.201803
1.0184857
1.0392424
1.0590118
1.0778435
1.0956741
1.1123604
1.1277171
1.1415584
1.1537394
1.1641869
1.1729143
1.1800181
1.1856589
1.1900359
1.1933609
1.1958385
1.1976522
1.1989581
1.1998838
1.2005299
1.2009738
1.2012737
1.2014725
1.2016017
1.2016836
1.2017342
1.2017644
1.2017819
1.2017916
1.2017967
1.2017993
1.2018005
1.2018011
1.2018014
1.2018015
1.2018015
1.2018015
1.2018015
1.2018015
1.2018015
1.0181629
1.0388515
1.0585561
1.0773299
1.0951136
1.1117688
1.1271137
1.1409643
1.1531747
1.1636684
1.1724539
1.1796217
1.1853271
1.189765
1.1931447
1.1956692
1.1975219
1.1988594
1.19981
1.2004755
1.2009342
1.2012452
1.2014523
1.2015875
1.2016737
1.2017273
1.2017596
1.2017784
1.2017889
1.2017946
1.2017975
1.2017989
1.2017995
1.2017998
1.2017999
1.2018
1.2018
1.2018
1.2018
1.2018
1.0178504
1.038473
1.0581149
1.0768323
1.0945704
1.111195
1.1265277
1.1403864
1.1526245
1.1631623
1.1720035
1.179233
1.185001
1.1894983
1.1929313
1.1955019
1.1973928
1.1987614
1.1997366
1.2004212
1.2008945
1.2012166
1.2014319
1.2015731
1.2016636
1.2017203
1.2017546
1.2017748
1.2017862
1.2017924
1.2017956
1.2017972
1.201798
1.2017983
1.2017984
1.2017985
1.2017985
1.2017985
1.2017985
1.2017985
1.0175475
1.0381062
1.0576872
1.07635
1.0940436
1.1106379
1.1259582
1.139824
1.152088
1.1626679
1.1715626
1.1788518
1.1846806
1.1892357
1.1927208
1.1953364
1.197265
1.1986641
1.1996636
1.2003671
1.2008549
1.2011878
1.2014113
1.2015585
1.2016534
1.2017131
1.2017495
1.2017711
1.2017835
1.2017902
1.2017938
1.2017955
1.2017964
1.2017967
1.2017969
1.201797
1.201797
1.201797
1.201797
1.201797
1.0172536
1.0377504
1.0572723
1.075882
1.0935321
1.1100967
1.1254043
1.1392762
1.1515647
1.1621847
1.1711309
1.1784778
1.1843656
1.1889769
1.192513
1.1951728
1.1971383
1.1985675
1.1995909
1.2003131
1.2008152
1.201159
1.2013906
1.2015438
1.201643
1.2017057
1.2017443
1.2017674
1.2017806
1.201788
1.2017919
1.2017938
1.2017948
1.2017952
1.2017954
1.2017955
1.2017955
1.2017955
1.2017955
1.2017955
1.0169684
1.037405
1.0568696
1.0754275
1.0930353
1.1095706
1.1248653
1.1387424
1.1510539
1.1617123
1.170708
1.1781107
1.1840558
1.188722
1.1923079
1.1950109
1.1970128
1.1984716
1.1995187
1.2002593
1.2007756
1.2011302
1.2013698
1.2015289
1.2016324
1.2016983
1.201739
1.2017635
1.2017777
1.2017857
1.2017899
1.2017921
1.2017931
1.2017936
1.2017939
1.2017939
1.201794
1.201794
1.201794
1.201794
1.0166913
1.0370695
1.0564784
1.074986
1.0925523
1.1090588
1.1243404
1.1382218
1.1505551
1.1612501
1.1702936
1.1777503
1.183751
1.1884707
1.1921054
1.1948509
1.1968885
1.1983765
1.1994468
1.2002056
1.200736
1.2011013
1.2013489
1.2015139
1.2016217
1.2016907
1.2017336
1.2017596
1.2017748
1.2017833
1.2017879
1.2017903
1.2017915
1.2017921
1.2017923
1.2017924
1.2017925
1.2017925
1.2017925
1.2017925
1.0164219
1.0367434
1.0560981
1.0745567
1.0920825
1.1085605
1.1238289
1.137714
1.1500677
1.1607978
1.1698872
1.1773962
1.1834511
1.188223
1.1919054
1.1946925
1.1967652
1.198282
1.1993753
1.2001522
1.2006964
1.2010723
1.2013279
1.2014988
1.2016109
1.2016829
1.2017281
1.2017555
1.2017717
1.2017809
1.2017859
1.2017886
1.2017899
1.2017905
1.2017908
1.2017909
1.201791
1.201791
1.201791
1.201791
1.0161599
1.0364262
1.0557282
1.0741389
1.0916251
1.1080752
1.1233302
1.1372183
1.1495912
1.160355
1.1694887
1.1770484
1.1831558
1.1879788
1.1917078
1.1945358
1.1966431
1.1981882
1.1993042
1.2000989
1.2006569
1.2010433
1.2013068
1.2014835
1.2016
1.2016751
1.2017224
1.2017514
1.2017686
1.2017785
1.2017839
1.2017868
1.2017882
1.2017889
1.2017893
1.2017894
1.2017895
1.2017895
1.2017895
1.2017895
1.0159048
1.0361174
1.055368
1.0737322
1.0911797
1.1076022
1.1228436
1.1367341
1.1491252
1.1599211
1.1690976
1.1767065
1.1828652
1.1877379
1.1915126
1.1943808
1.196522
1.1980951
1.1992335
1.2000458
1.2006175
1.2010143
1.2012856
1.2014682
1.2015889
1.2016672
1.2017167
1.2017472
1.2017654
1.201776
1.2017818
1.201785
1.2017866
1.2017874
1.2017877
1.2017879
1.2017879
1.201788
1.201788
1.201788
1.0156564
1.0358167
1.0550173
1.073336
1.0907455
1.1071409
1.1223688
1.136261
1.1486693
1.159496
1.1687138
1.1763703
1.1825789
1.1875002
1.1913197
1.1942273
1.196402
1.1980026
1.1991632
1.199993
1.2005782
1.2009852
1.2012644
1.2014528
1.2015778
1.2016591
1.2017109
1.2017429
1.2017622
1.2017734
1.2017797
1.2017831
1.2017849
1.2017858
1.2017862
1.2017864
1.2017864
1.2017865
1.2017865
1.2017865
1.0154142
1.0355236
1.0546755
1.0729498
1.0903222
1.1066908
1.1219051
1.1357985
1.148223
1.1590793
1.1683369
1.1760396
1.1822969
1.1872657
1.1911291
1.1940754
1.1962831
1.1979108
1.1990933
1.1999403
1.2005389
1.2009562
1.2012431
1.2014373
1.2015665
1.201651
1.2017049
1.2017386
1.2017589
1.2017709
1.2017776
1.2017813
1.2017832
1.2017842
1.2017846
1.2017848
1.2017849
1.201785
1.201785
1.201785
1.0151781
1.0352378
1.0543421
1.0725732
1.0899092
1.1062515
1.121452
1.1353461
1.1477859
1.1586706
1.1679668
1.1757144
1.182019
1.1870343
1.1909407
1.193925
1.1961651
1.1978196
1.1990237
1.1998878
1.2004997
1.2009272
1.2012217
1.2014217
1.2015552
1.2016427
1.2016989
1.2017341
1.2017556
1.2017682
1.2017754
1.2017794
1.2017815
1.2017826
1.2017831
1.2017833
1.2017834
1.2017834
1.2017835
1.2017835
1.0149478
1.034959
1.0540169
1.0722056
1.0895061
1.1058223
1.1210092
1.1349035
1.1473577
1.1582696
1.1676031
1.1753943
1.1817451
1.1868058
1.1907544
1.1937761
1.1960481
1.1977291
1.1989546
1.1998356
1.2004606
1.2008981
1.2012003
1.201406
1.2015438
1.2016344
1.2016928
1.2017296
1.2017522
1.2017656
1.2017732
1.2017775
1.2017798
1.2017809
1.2017815
1.2017818
1.2017819
1.2017819
1.201782
1.201782
1.0147229
1.0346869
1.0536995
1.0718468
1.0891123
1.105403
1.1205761
1.1344702
1.1469381
1.1578762
1.1672456
1.1750792
1.181475
1.1865802
1.1905701
1.1936287
1.1959321
1.1976392
1.1988858
1.1997835
1.2004216
1.2008691
1.2011789
1.2013903
1.2015323
1.201626
1.2016867
1.201725
1.2017487
1.2017628
1.201771
1.2017756
1.201778
1.2017793
1.2017799
1.2017802
1.2017804
1.2017804
1.2017804
1.2017805
1.0145033
1.0344211
1.0533895
1.0714963
1.0887276
1.1049931
1.1201525
1.134046
1.1465266
1.1574899
1.1668942
1.174769
1.1812088
1.1863574
1.1903879
1.1934826
1.1958171
1.19755
1.1988174
1.1997317
1.2003827
1.2008402
1.2011575
1.2013745
1.2015207
1.2016175
1.2016804
1.2017204
1.2017452
1.2017601
1.2017687
1.2017736
1.2017763
1.2017777
1.2017784
1.2017787
1.2017788
1.2017789
1.2017789
1.2017789
1.0142887
1.0341615
1.0530866
1.0711538
1.0883516
1.1045922
1.1197378
1.1336303
1.1461231
1.1571105
1.1665486
1.1744635
1.1809461
1.1861373
1.1902077
1.1933379
1.195703
1.1974613
1.1987494
1.1996801
1.2003438
1.2008112
1.201136
1.2013587
1.2015091
1.201609
1.2016741
1.2017157
1.2017416
1.2017573
1.2017664
1.2017717
1.2017745
1.201776
1.2017768
1.2017771
1.2017773
1.2017774
1.2017774
1.2017774
1.0140789
1.0339077
1.0527905
1.070819
1.0879838
1.1041999
1.1193318
1.1332229
1.1457272
1.1567379
1.1662087
1.1741626
1.1806871
1.1859199
1.1900294
1.1931946
1.1955898
1.1973732
1.1986817
1.1996287
1.2003051
1.2007823
1.2011145
1.2013428
1.2014974
1.2016004
1.2016678
1.2017109
1.2017379
1.2017544
1.2017641
1.2017697
1.2017727
1.2017744
1.2017752
1.2017756
1.2017758
1.2017759
1.2017759
1.2017759
1.0138738
1.0336594
1.052501
1.0704915
1.087624
1.1038159
1.1189341
1.1328236
1.1453387
1.1563717
1.1658742
1.173866
1.1804314
1.1857051
1.189853
1.1930526
1.1954775
1.1972858
1.1986144
1.1995775
1.2002665
1.2007534
1.201093
1.2013268
1.2014856
1.2015917
1.2016613
1.2017061
1.2017343
1.2017515
1.2017618
1.2017676
1.2017709
1.2017727
1.2017736
1.201774
1.2017743
1.2017744
1.2017744
1.2017744
1.013673
1.0334166
1.0522177
1.070171
1.0872719
1.1034399
1.1185444
1.1324319
1.1449573
1.1560118
1.165545
1.1735738
1.1801791
1.1854928
1.1896784
1.1929119
1.1953661
1.1971989
1.1985475
1.1995265
1.200228
1.2007245
1.2010715
1.2013109
1.2014738
1.2015829
1.2016548
1.2017012
1.2017305
1.2017486
1.2017594
1.2017656
1.2017691
1.201771
1.201772
1.2017725
1.2017727
1.2017728
1.2017729
1.2017729
1.0134766
1.0331789
1.0519404
1.0698573
1.086927
1.1030716
1.1181624
1.1320477
1.1445827
1.155658
1.165221
1.1732857
1.1799301
1.185283
1.1895056
1.1927725
1.1952555
1.1971125
1.198481
1.1994757
1.2001896
1.2006957
1.20105
1.2012949
1.2014619
1.2015741
1.2016482
1.2016963
1.2017267
1.2017456
1.2017569
1.2017635
1.2017673
1.2017693
1.2017704
1.2017709
1.2017712
1.2017713
1.2017714
1.2017714
1.0132842
1.0329462
1.0516689
1.0695502
1.0865893
1.1027106
1.1177878
1.1316706
1.1442147
1.15531
1.1649019
1.1730017
1.1796842
1.1850755
1.1893345
1.1926343
1.1951458
1.1970267
1.1984147
1.1994251
1.2001513
1.2006669
1.2010284
1.2012788
1.20145
1.2015652
1.2016416
1.2016913
1.2017229
1.2017426
1.2017545
1.2017614
1.2017654
1.2017676
1.2017688
1.2017694
1.2017696
1.2017698
1.2017698
1.2017699
1.0130957
1.0327182
1.051403
1.0692492
1.0862583
1.1023568
1.1174204
1.1313004
1.1438531
1.1549676
1.1645876
1.1727216
1.1794414
1.1848704
1.1891652
1.1924973
1.1950369
1.1969415
1.1983489
1.1993748
1.2001131
1.2006381
1.2010069
1.2012628
1.201438
1.2015563
1.2016349
1.2016862
1.201719
1.2017395
1.201752
1.2017593
1.2017635
1.2017659
1.2017671
1.2017678
1.2017681
1.2017683
1.2017683
1.2017683
1.0129111
1.0324949
1.0511424
1.0689543
1.0859339
1.1020098
1.1170599
1.1309369
1.1434977
1.1546308
1.1642779
1.1724452
1.1792016
1.1846675
1.1889975
1.1923615
1.1949289
1.1968568
1.1982833
1.1993246
1.2000751
1.2006094
1.2009854
1.2012467
1.201426
1.2015473
1.2016282
1.2016811
1.2017151
1.2017364
1.2017494
1.2017572
1.2017616
1.2017641
1.2017655
1.2017662
1.2017666
1.2017667
1.2017668
1.2017668
1.0127301
1.032276
1.050887
1.0686652
1.0856157
1.1016694
1.116706
1.1305799
1.1431483
1.1542992
1.1639729
1.1721727
1.1789647
1.1844669
1.1888314
1.1922268
1.1948216
1.1967727
1.1982182
1.1992746
1.2000371
1.2005808
1.2009638
1.2012306
1.2014139
1.2015383
1.2016214
1.201676
1.2017111
1.2017333
1.2017469
1.201755
1.2017597
1.2017624
1.2017638
1.2017646
1.201765
1.2017652
1.2017653
1.2017653
1.0125526
1.0320613
1.0506365
1.0683817
1.0853037
1.1013354
1.1163586
1.130229
1.1428046
1.1539729
1.1636722
1.1719037
1.1787307
1.1842684
1.1886669
1.1920933
1.1947151
1.196689
1.1981533
1.1992249
1.1999992
1.2005521
1.2009423
1.2012144
1.2014018
1.2015292
1.2016146
1.2016708
1.2017071
1.2017301
1.2017443
1.2017528
1.2017578
1.2017606
1.2017622
1.201763
1.2017634
1.2017636
1.2017637
1.2017638
1.0123785
1.0318507
1.0503908
1.0681036
1.0849975
1.1010076
1.1160174
1.1298842
1.1424666
1.1536515
1.1633758
1.1716382
1.1784994
1.184072
1.188504
1.1919609
1.1946094
1.1966059
1.1980888
1.1991753
1.1999615
1.2005236
1.2009208
1.2011983
1.2013897
1.2015201
1.2016077
1.2016655
1.201703
1.2017269
1.2017417
1.2017506
1.2017559
1.2017589
1.2017605
1.2017614
1.2017619
1.2017621
1.2017622
1.2017622
1.0122076
1.0316441
1.0501498
1.0678307
1.084697
1.1006857
1.1156822
1.1295453
1.142134
1.153335
1.1630835
1.1713761
1.1782709
1.1838777
1.1883426
1.1918295
1.1945044
1.1965233
1.1980246
1.1991259
1.1999238
1.2004951
1.2008993
1.2011821
1.2013775
1.201511
1.2016007
1.2016602
1.2016989
1.2017236
1.201739
1.2017484
1.2017539
1.2017571
1.2017588
1.2017598
1.2017603
1.2017606
1.2017607
1.2017607
1.0120399
1.0314413
1.0499132
1.0675628
1.084402
1.1003696
1.1153528
1.129212
1.1418067
1.1530231
1.1627953
1.1711174
1.178045
1.1836855
1.1881827
1.1916993
1.1944002
1.1964411
1.1979607
1.1990768
1.1998863
1.2004666
1.2008778
1.2011659
1.2013654
1.2015018
1.2015938
1.2016549
1.2016948
1.2017203
1.2017363
1.2017461
1.2017519
1.2017553
1.2017572
1.2017582
1.2017587
1.201759
1.2017591
1.2017591
1.0118753
1.0312422
1.049681
1.0672998
1.0841123
1.100059
1.1150291
1.1288841
1.1414845
1.1527159
1.162511
1.1708619
1.1778216
1.1834951
1.1880243
1.19157
1.1942967
1.1963595
1.1978971
1.1990278
1.1998489
1.2004382
1.2008563
1.2011497
1.2013531
1.2014925
1.2015867
1.2016495
1.2016906
1.201717
1.2017336
1.2017438
1.2017499
1.2017535
1.2017555
1.2017566
1.2017572
1.2017574
1.2017576
1.2017576
1.0117136
1.0310467
1.0494529
1.0670415
1.0838276
1.0997537
1.1147108
1.1285616
1.1411672
1.1524131
1.1622305
1.1706096
1.1776008
1.1833067
1.1878672
1.1914418
1.1941939
1.1962783
1.1978338
1.198979
1.1998116
1.2004098
1.2008348
1.2011334
1.2013409
1.2014832
1.2015797
1.2016441
1.2016864
1.2017136
1.2017308
1.2017415
1.2017479
1.2017516
1.2017538
1.2017549
1.2017556
1.2017559
1.201756
1.201756
1.0115547
1.0308546
1.0492288
1.0667877
1.0835479
1.0994537
1.1143977
1.1282442
1.1408548
1.1521146
1.1619538
1.1703603
1.1773824
1.1831202
1.1877116
1.1913146
1.1940918
1.1961976
1.1977709
1.1989304
1.1997743
1.2003815
1.2008134
1.2011172
1.2013286
1.2014739
1.2015726
1.2016386
1.2016821
1.2017102
1.2017281
1.2017391
1.2017458
1.2017498
1.201752
1.2017533
1.201754
1.2017543
1.2017545
1.2017545
1.0113986
1.0306659
1.0490086
1.0665383
1.083273
1.0991588
1.1140898
1.1279318
1.140547
1.1518204
1.1616807
1.1701141
1.1771664
1.1829356
1.1875574
1.1911884
1.1939904
1.1961174
1.1977082
1.198882
1.1997372
1.2003532
1.2007919
1.201101
1.2013163
1.2014646
1.2015654
1.2016331
1.2016778
1.2017068
1.2017253
1.2017368
1.2017438
1.2017479
1.2017503
1.2017516
1.2017524
1.2017527
1.2017529
1.2017529
1.0112452
1.0304804
1.0487922
1.0662932
1.0830028
1.0988687
1.1137869
1.1276242
1.1402438
1.1515302
1.1614111
1.1698708
1.1769528
1.1827527
1.1874044
1.1910632
1.1938896
1.1960376
1.1976459
1.1988337
1.1997002
1.200325
1.2007705
1.2010847
1.201304
1.2014552
1.2015583
1.2016276
1.2016734
1.2017033
1.2017224
1.2017344
1.2017417
1.201746
1.2017486
1.20175
1.2017508
1.2017512
1.2017513
1.2017514
1.0110943
1.0302981
1.0485794
1.0660521
1.082737
1.0985833
1.1134887
1.1273214
1.139945
1.151244
1.161145
1.1696303
1.1767414
1.1825716
1.1872528
1.1909389
1.1937896
1.1959583
1.1975838
1.1987857
1.1996633
1.2002968
1.2007491
1.2010685
1.2012916
1.2014458
1.2015511
1.201622
1.2016691
1.2016998
1.2017196
1.201732
1.2017396
1.2017441
1.2017468
1.2017483
1.2017492
1.2017496
1.2017498
1.2017498
1.0109459
1.0301187
1.0483702
1.0658151
1.0824756
1.0983025
1.1131952
1.1270231
1.1396505
1.1509617
1.1608822
1.1693927
1.1765323
1.1823922
1.1871025
1.1908155
1.1936901
1.1958794
1.197522
1.1987378
1.1996265
1.2002687
1.2007277
1.2010522
1.2012792
1.2014364
1.2015438
1.2016164
1.2016647
1.2016963
1.2017167
1.2017295
1.2017374
1.2017422
1.201745
1.2017466
1.2017475
1.201748
1.2017482
1.2017482
1.0108
1.0299423
1.0481644
1.0655819
1.0822184
1.0980262
1.1129062
1.1267292
1.1393601
1.1506831
1.1606226
1.1691577
1.1763253
1.1822145
1.1869535
1.1906931
1.1935913
1.195801
1.1974605
1.1986901
1.1995898
1.2002406
1.2007063
1.2010359
1.2012669
1.2014269
1.2015365
1.2016107
1.2016602
1.2016927
1.2017137
1.2017271
1.2017353
1.2017403
1.2017433
1.201745
1.2017459
1.2017464
1.2017466
1.2017466
1.0106564
1.0297688
1.0479619
1.0653525
1.0819653
1.0977542
1.1126217
1.1264397
1.1390739
1.1504082
1.1603663
1.1689254
1.1761205
1.1820385
1.1868056
1.1905715
1.1934932
1.1957229
1.1973993
1.1986426
1.1995532
1.2002126
1.2006849
1.2010196
1.2012544
1.2014174
1.2015292
1.201605
1.2016557
1.2016892
1.2017108
1.2017246
1.2017331
1.2017384
1.2017415
1.2017433
1.2017443
1.2017448
1.201745
1.2017451
1.0105151
1.029598
1.0477627
1.0651267
1.0817161