/*--------------------------------*- C++ -*----------------------------------*\
| =========                 |                                                 |
| \\      /  F ield         | OpenFOAM: The Open Source CFD Toolbox           |
|  \\    /   O peration     | Version:  3.0.1                                 |
|   \\  /    A nd           | Web:      www.OpenFOAM.org                      |
|    \\/     M anipulation  |                                                 |
\*---------------------------------------------------------------------------*/
FoamFile
{
    version     2.0;
    format      ascii;
    class       volScalarField;
    location    "2169";
    object      T;
}
// * * * * * * * * * * * * * * * * * * * * * * * * * * * * * * * * * * * * * //

dimensions      [0 0 0 1 0 0 0];

internalField   nonuniform List<scalar> 
4000
(
321.21876
311.43557
304.45222
299.89475
297.11578
295.51133
294.62668
294.15828
293.91927
293.80154
293.74548
293.71966
293.70817
293.70322
293.70117
293.70035
293.70003
293.69992
293.69988
293.69986
293.69986
293.69986
293.69986
293.69986
293.69986
293.69986
293.69986
293.69986
293.69986
293.69986
293.69986
293.69986
293.69986
293.69986
293.69986
293.69986
293.69986
293.69986
293.69986
293.69987
328.6468
319.10373
311.18433
305.09893
300.76353
297.87823
296.06857
294.99062
294.37727
294.0426
293.86707
293.77848
293.73544
293.71532
293.70627
293.70236
293.70073
293.70009
293.69984
293.69976
293.69972
293.69971
293.69971
293.69971
293.69971
293.69971
293.69971
293.69971
293.69971
293.69971
293.69971
293.69971
293.69971
293.69971
293.69971
293.69971
293.69971
293.69971
293.69972
293.69972
332.19552
323.07565
315.17841
308.69353
303.68837
300.06009
297.58018
295.97332
294.98124
294.39531
294.0634
293.88283
293.78842
293.741
293.71812
293.70754
293.70285
293.70086
293.70005
293.69974
293.69962
293.69958
293.69957
293.69956
293.69956
293.69956
293.69956
293.69956
293.69956
293.69956
293.69956
293.69956
293.69956
293.69956
293.69956
293.69957
293.69957
293.69957
293.69957
293.69957
334.42031
325.60723
317.8413
311.2591
305.95232
301.90118
298.97178
296.9591
295.64015
294.81294
294.31522
294.02755
293.86775
293.78247
293.73877
293.71731
293.7072
293.70266
293.70071
293.6999
293.69959
293.69948
293.69944
293.69942
293.69942
293.69942
293.69942
293.69942
293.69942
293.69942
293.69942
293.69942
293.69942
293.69942
293.69942
293.69942
293.69942
293.69942
293.69942
293.69943
336.0063
327.42348
319.78886
313.19981
307.74454
303.4384
300.20292
297.88555
296.29895
295.25759
294.60091
294.20257
293.97004
293.8395
293.76907
293.73261
293.71452
293.70594
293.70206
293.70038
293.69969
293.69942
293.69932
293.69929
293.69928
293.69927
293.69927
293.69927
293.69927
293.69927
293.69927
293.69927
293.69927
293.69927
293.69927
293.69927
293.69927
293.69928
293.69928
293.69928
337.22198
328.82054
321.30279
314.73799
309.20514
304.73525
301.28331
298.73419
296.93054
295.70472
294.90284
294.39731
294.09007
293.91015
293.80874
293.75381
293.72528
293.71109
293.70435
293.7013
293.69999
293.69945
293.69924
293.69916
293.69914
293.69913
293.69913
293.69912
293.69912
293.69912
293.69912
293.69913
293.69913
293.69913
293.69913
293.69913
293.69913
293.69913
293.69913
293.69913
338.19886
329.94572
322.53028
316.00094
310.42692
305.84625
302.23515
299.50558
297.52445
296.14078
295.20895
294.60306
294.22251
293.99173
293.85677
293.78078
293.73968
293.71837
293.70781
293.70281
293.70056
293.6996
293.69921
293.69906
293.699
293.69899
293.69898
293.69898
293.69898
293.69898
293.69898
293.69898
293.69898
293.69898
293.69898
293.69898
293.69898
293.69898
293.69899
293.69899
339.01019
330.88172
323.55619
317.06591
311.47105
306.8124
303.08028
300.20679
298.0785
296.55919
295.51178
294.81342
294.3628
294.08149
293.91178
293.81301
293.75767
293.72791
293.71257
293.70503
293.70149
293.69991
293.69925
293.69898
293.69888
293.69885
293.69884
293.69883
293.69883
293.69883
293.69883
293.69883
293.69883
293.69883
293.69883
293.69883
293.69884
293.69884
293.69884
293.69884
339.70069
331.6793
324.43344
317.98266
312.379
307.66382
303.83713
300.84638
298.59422
296.9574
295.80706
295.02404
294.50739
294.17697
293.97232
293.84979
293.77902
293.7397
293.71874
293.70805
293.70285
293.70044
293.69939
293.69895
293.69878
293.69872
293.6987
293.69869
293.69869
293.69869
293.69869
293.69869
293.69869
293.69869
293.69869
293.69869
293.69869
293.69869
293.69869
293.69869
340.29952
332.37165
325.19704
318.78482
313.17983
308.42281
304.52055
301.43247
299.07458
297.335
296.09259
295.23214
294.65369
294.27613
294.03703
293.89035
293.80337
293.75364
293.72632
293.71193
293.70469
293.70123
293.69965
293.69898
293.6987
293.6986
293.69856
293.69855
293.69854
293.69854
293.69854
293.69854
293.69854
293.69854
293.69854
293.69854
293.69854
293.69855
293.69855
293.69855
340.82666
332.98161
325.87124
319.49607
313.89451
309.10605
305.14231
301.9722
299.52293
297.69267
296.36743
295.43603
294.79986
294.37739
294.10473
293.93394
293.83031
293.76957
293.73528
293.7167
293.70707
293.70231
293.70007
293.69907
293.69865
293.69849
293.69843
293.6984
293.6984
293.69839
293.69839
293.69839
293.69839
293.6984
293.6984
293.6984
293.6984
293.6984
293.6984
293.6984
341.29637
333.52546
326.47347
320.13361
314.53861
309.72631
305.7118
302.47163
299.94254
298.03155
296.63136
295.63473
294.94467
294.47956
294.17446
293.97987
293.85943
293.78728
293.74556
293.72236
293.71
293.7037
293.70065
293.69925
293.69864
293.69839
293.6983
293.69826
293.69825
293.69825
293.69825
293.69825
293.69825
293.69825
293.69825
293.69825
293.69825
293.69825
293.69825
293.69826
341.71913
334.01522
327.01664
320.71034
315.12396
310.2935
306.23654
302.93588
300.33639
298.353
296.88458
295.82777
295.0873
294.58177
294.24543
294.02755
293.89034
293.80654
293.75705
293.72888
293.71349
293.70544
293.70143
293.69953
293.69868
293.69832
293.69818
293.69813
293.69811
293.6981
293.6981
293.6981
293.6981
293.6981
293.6981
293.6981
293.69811
293.69811
293.69811
293.69811
342.10286
334.45999
327.51056
321.23611
315.6597
310.81543
306.72262
303.36924
300.70714
298.65838
297.12752
296.01495
295.22725
294.68338
294.31706
294.07649
293.92267
293.82713
293.76963
293.73622
293.71754
293.70753
293.70241
293.69993
293.69878
293.69828
293.69808
293.698
293.69797
293.69796
293.69796
293.69796
293.69796
293.69796
293.69796
293.69796
293.69796
293.69796
293.69796
293.69796
342.45371
334.86681
327.96285
321.71863
316.15308
311.29836
307.17503
303.77529
301.05715
298.94899
297.3607
296.19629
295.36421
294.78395
294.38886
294.12628
293.95612
293.84883
293.78317
293.7443
293.72213
293.70998
293.70362
293.70044
293.69894
293.69827
293.69798
293.69787
293.69783
293.69782
293.69781
293.69781
293.69781
293.69781
293.69781
293.69781
293.69781
293.69782
293.69782
293.69782
342.77648
335.24122
328.37954
322.16403
316.60991
311.74739
307.59786
304.1571
301.38845
299.22604
297.5847
296.3719
295.49803
294.88319
294.46051
294.17658
293.99042
293.87146
293.79756
293.75309
293.72723
293.71278
293.70504
293.70109
293.69917
293.69829
293.69791
293.69775
293.69769
293.69767
293.69767
293.69766
293.69766
293.69766
293.69767
293.69767
293.69767
293.69767
293.69767
293.69767
343.07505
335.58767
328.76544
322.57725
317.03489
312.16668
307.99455
304.51725
301.70283
299.49064
297.8001
296.542
295.62865
294.98089
294.53172
294.22715
294.02533
293.89483
293.81268
293.76249
293.73282
293.71593
293.7067
293.70188
293.69948
293.69835
293.69785
293.69764
293.69756
293.69753
293.69752
293.69752
293.69752
293.69752
293.69752
293.69752
293.69752
293.69752
293.69752
293.69752
343.35255
335.90977
329.12452
322.96235
317.43191
312.55972
308.36797
304.85795
302.00185
299.74378
298.00743
296.70679
295.75608
295.07693
294.60233
294.27777
294.06066
293.9188
293.82842
293.77245
293.73886
293.71941
293.70858
293.70281
293.69988
293.69846
293.69782
293.69755
293.69743
293.69739
293.69738
293.69737
293.69737
293.69737
293.69737
293.69737
293.69738
293.69738
293.69738
293.69738
343.61157
336.2105
329.46001
323.32265
317.8042
312.92941
308.72057
305.18109
302.28689
299.98637
298.20724
296.86653
295.88037
295.17124
294.67218
294.32828
294.09628
293.94323
293.84468
293.78289
293.74531
293.7232
293.71068
293.70388
293.70036
293.69862
293.69781
293.69746
293.69731
293.69726
293.69724
293.69723
293.69723
293.69723
293.69723
293.69723
293.69723
293.69723
293.69723
293.69723
343.85425
336.49234
329.77463
323.66096
318.15448
313.27823
309.05443
305.48834
302.55915
300.21922
298.4
297.02147
296.00161
295.26379
294.74119
294.37855
294.13204
293.96802
293.86137
293.79377
293.75212
293.72728
293.71299
293.7051
293.70093
293.69883
293.69783
293.69739
293.6972
293.69712
293.69709
293.69708
293.69708
293.69708
293.69708
293.69708
293.69708
293.69709
293.69709
293.69709
344.08239
336.75735
330.07064
323.97964
318.48505
313.60826
309.37135
305.78111
302.81968
300.44305
298.58618
297.17185
296.11988
295.35457
294.80929
294.4285
294.16784
293.99306
293.87841
293.80501
293.75928
293.73164
293.71551
293.70646
293.70159
293.6991
293.69789
293.69733
293.69709
293.69699
293.69695
293.69694
293.69694
293.69694
293.69694
293.69694
293.69694
293.69694
293.69694
293.69694
344.29753
337.0073
330.34999
324.28071
318.79788
313.92132
309.67288
306.06065
303.06942
300.65852
298.76619
297.3179
296.2353
295.4436
294.87644
294.47806
294.20361
294.01828
293.89574
293.81657
293.76673
293.73625
293.71823
293.70796
293.70235
293.69942
293.69797
293.69729
293.69699
293.69686
293.69681
293.6968
293.69679
293.69679
293.69679
293.69679
293.69679
293.69679
293.69679
293.69679
344.50096
337.24371
330.61433
324.56588
319.09465
314.21898
309.96037
306.32806
303.30921
300.86621
298.94042
297.45987
296.34797
295.53091
294.94262
294.52716
294.23928
294.04361
293.91329
293.8284
293.77445
293.7411
293.72113
293.7096
293.70319
293.6998
293.69809
293.69727
293.6969
293.69674
293.69668
293.69665
293.69665
293.69664
293.69664
293.69665
293.69665
293.69665
293.69665
293.69665
344.69382
337.46787
330.86509
324.83664
319.37685
314.5026
310.23502
306.58431
303.53978
301.06667
299.10923
297.59796
296.45801
295.61654
295.00781
294.57577
294.27479
294.06899
293.93102
293.84046
293.7824
293.74616
293.72421
293.71136
293.70413
293.70024
293.69824
293.69726
293.69682
293.69662
293.69654
293.69651
293.6965
293.6965
293.6965
293.6965
293.6965
293.6965
293.6965
293.6965
344.87707
337.68089
331.1035
325.09429
319.64575
314.77336
310.49787
306.83027
303.76181
301.26036
299.27293
297.73236
296.56552
295.70053
295.07202
294.62387
294.3101
294.09439
293.94888
293.8527
293.79055
293.7514
293.72744
293.71326
293.70516
293.70074
293.69843
293.69728
293.69675
293.69651
293.69641
293.69637
293.69636
293.69635
293.69635
293.69635
293.69635
293.69636
293.69636
293.69636
345.05156
337.88378
331.33065
325.33997
319.90247
315.03233
310.74984
307.06669
303.97589
301.44774
299.43183
297.86328
296.67061
295.78293
295.13526
294.67143
294.34518
294.11976
293.96683
293.8651
293.79889
293.75682
293.73083
293.71527
293.70628
293.7013
293.69866
293.69732
293.69669
293.6964
293.69628
293.69623
293.69621
293.69621
293.69621
293.69621
293.69621
293.69621
293.69621
293.69621
345.21805
338.07737
331.54749
325.57465
320.148
315.28043
310.99176
307.29427
304.18255
301.62918
299.5862
297.99089
296.77338
295.86379
295.19753
294.71845
294.38001
294.14506
293.98484
293.87763
293.80738
293.7624
293.73435
293.71739
293.70748
293.70192
293.69892
293.69739
293.69664
293.6963
293.69615
293.69609
293.69607
293.69606
293.69606
293.69606
293.69606
293.69606
293.69606
293.69607
345.37717
338.26244
331.75484
325.79923
320.38322
315.51849
311.22436
307.51361
304.38228
301.80506
299.73629
298.11535
296.87394
295.94316
295.25886
294.76493
294.41457
294.17028
294.00289
293.89027
293.816
293.76811
293.73801
293.71962
293.70877
293.70259
293.69923
293.69748
293.69661
293.69621
293.69603
293.69596
293.69593
293.69592
293.69592
293.69592
293.69592
293.69592
293.69592
293.69592
345.52952
338.43964
331.95345
326.01449
320.60892
315.74725
311.44831
307.72527
304.57552
301.9757
299.88234
298.23682
296.97238
296.02109
295.31927
294.81085
294.44885
294.1954
294.02094
293.90298
293.82474
293.77395
293.74177
293.72195
293.71013
293.70333
293.69957
293.69759
293.6966
293.69612
293.69591
293.69582
293.69579
293.69577
293.69577
293.69577
293.69577
293.69577
293.69577
293.69577
345.6756
338.60959
332.14399
326.22112
320.82578
315.96736
311.66418
307.92976
304.76268
302.14141
300.02456
298.35544
297.06878
296.09762
295.37877
294.85622
294.48282
294.22039
294.03899
293.91575
293.83357
293.77989
293.74565
293.72438
293.71157
293.70412
293.69995
293.69773
293.69659
293.69605
293.6958
293.69569
293.69565
293.69563
293.69563
293.69562
293.69563
293.69563
293.69563
293.69563
345.81589
338.7728
332.32703
326.41974
321.03443
316.17943
311.87252
308.12752
304.9441
302.30246
300.16316
298.47134
297.16323
296.17282
295.43739
294.90105
294.5165
294.24525
294.05701
293.92856
293.84248
293.78594
293.74962
293.72689
293.71308
293.70496
293.70037
293.69789
293.69661
293.69598
293.69569
293.69556
293.69551
293.69549
293.69548
293.69548
293.69548
293.69548
293.69548
293.69548
345.95079
338.92977
332.50312
326.61091
321.23543
316.38398
312.07381
308.31897
305.12013
302.4591
300.2983
298.58466
297.25581
296.24672
295.49515
294.94535
294.54987
294.26996
294.075
293.94141
293.85147
293.79207
293.75368
293.72948
293.71465
293.70586
293.70083
293.69808
293.69664
293.69592
293.69558
293.69543
293.69537
293.69534
293.69534
293.69533
293.69533
293.69533
293.69534
293.69534
346.08067
339.08092
332.67272
326.79514
321.4293
316.58151
312.26849
308.50448
305.29107
302.61157
300.43017
298.69551
297.3466
296.31937
295.55207
294.98912
294.58294
294.29452
294.09293
293.95427
293.8605
293.79827
293.75782
293.73214
293.71629
293.70681
293.70133
293.69829
293.69668
293.69587
293.69548
293.69531
293.69523
293.6952
293.69519
293.69519
293.69519
293.69519
293.69519
293.69519
346.20587
339.22663
332.83627
326.97287
321.61649
316.77245
312.45697
308.6844
305.45721
302.76008
300.55892
298.80399
297.43567
296.39081
295.60819
295.03237
294.61569
294.31892
294.11081
293.96714
293.86959
293.80454
293.76203
293.73488
293.71799
293.7078
293.70186
293.69853
293.69675
293.69583
293.69539
293.69519
293.6951
293.69506
293.69505
293.69504
293.69504
293.69504
293.69504
293.69504
346.32669
339.36727
332.99415
327.14454
321.79742
316.9572
312.63959
308.85905
305.61879
302.90484
300.6847
298.91022
297.52309
296.46108
295.66351
295.0751
294.64814
294.34316
294.12861
293.98
293.87871
293.81086
293.7663
293.73768
293.71975
293.70884
293.70243
293.6988
293.69683
293.6958
293.6953
293.69507
293.69496
293.69492
293.6949
293.6949
293.6949
293.6949
293.6949
293.6949
346.44342
339.50314
333.14672
327.3105
321.97247
317.13614
312.81671
309.02871
305.77606
303.04603
300.80765
299.01428
297.60892
296.53023
295.71807
295.11735
294.68029
294.36722
294.14635
293.99285
293.88785
293.81724
293.77064
293.74053
293.72156
293.70993
293.70303
293.69909
293.69692
293.69579
293.69522
293.69495
293.69483
293.69478
293.69476
293.69475
293.69475
293.69475
293.69475
293.69475
346.55629
339.63455
333.29431
327.47111
322.14198
317.3096
312.98863
309.19365
305.92923
303.18382
300.92788
299.11627
297.69321
296.5983
295.77189
295.1591
294.71213
294.39112
294.164
294.00569
293.89702
293.82366
293.77502
293.74344
293.72342
293.71106
293.70367
293.6994
293.69704
293.69578
293.69514
293.69484
293.6947
293.69464
293.69462
293.69461
293.69461
293.69461
293.69461
293.69461
346.66554
339.76175
333.4372
327.62667
322.30628
317.47788
313.15563
309.35412
306.07852
303.31837
301.04553
299.21627
297.77604
296.66531
295.82498
295.20038
294.74368
294.41485
294.18157
294.0185
293.9062
293.83011
293.77946
293.74641
293.72533
293.71223
293.70434
293.69974
293.69717
293.69578
293.69508
293.69473
293.69457
293.6945
293.69448
293.69446
293.69446
293.69446
293.69446
293.69446
346.77139
339.885
333.57568
327.77748
322.46567
317.64127
313.31798
309.51034
306.2241
303.44982
301.1607
299.31437
297.85745
296.73131
295.87737
295.24119
294.77493
294.4384
294.19906
294.03128
293.91539
293.8366
293.78394
293.74941
293.72728
293.71344
293.70504
293.7001
293.69731
293.6958
293.69502
293.69463
293.69445
293.69437
293.69433
293.69432
293.69432
293.69432
293.69432
293.69432
346.87401
340.0045
333.70998
327.9238
322.6204
317.80003
313.4759
309.66253
306.36615
303.57832
301.2735
299.41063
297.9375
296.79633
295.92908
295.28154
294.80589
294.46179
294.21646
294.04403
293.92459
293.84311
293.78845
293.75246
293.72927
293.71468
293.70577
293.70049
293.69748
293.69583
293.69496
293.69453
293.69432
293.69423
293.69419
293.69418
293.69417
293.69417
293.69417
293.69417
346.9736
340.12048
333.84034
328.06587
322.77072
317.95441
313.62964
309.81088
306.50484
303.704
301.38403
299.50513
298.01622
296.86039
295.98012
295.32145
294.83657
294.485
294.23376
294.05674
293.93378
293.84964
293.793
293.75555
293.7313
293.71596
293.70653
293.7009
293.69766
293.69586
293.69491
293.69443
293.6942
293.6941
293.69405
293.69403
293.69403
293.69402
293.69402
293.69402
347.07031
340.23311
333.96696
328.20392
322.91688
318.10462
313.77938
309.95557
306.64032
303.82698
301.49237
299.59793
298.09368
296.92354
296.03052
295.36093
294.86696
294.50805
294.25098
294.06941
293.94297
293.85619
293.79758
293.75867
293.73337
293.71728
293.70731
293.70133
293.69785
293.69591
293.69488
293.69434
293.69408
293.69396
293.69391
293.69389
293.69388
293.69388
293.69388
293.69388
347.1643
340.34258
334.09004
328.33816
323.05907
318.25087
313.92533
310.09678
306.77274
303.94737
301.59861
299.6891
298.16991
296.98579
296.0803
295.39998
294.89709
294.53092
294.2681
294.08204
293.95215
293.86276
293.80218
293.76183
293.73547
293.71862
293.70813
293.70178
293.69807
293.69598
293.69484
293.69426
293.69397
293.69383
293.69377
293.69375
293.69374
293.69373
293.69373
293.69373
347.25569
340.44905
334.20977
328.46877
323.19749
318.39336
314.06766
310.23465
306.90221
304.06527
301.70284
299.77869
298.24495
297.04718
296.12947
295.43862
294.92694
294.55363
294.28512
294.09463
293.96132
293.86933
293.80681
293.76501
293.7376
293.71999
293.70897
293.70226
293.6983
293.69605
293.69482
293.69418
293.69386
293.6937
293.69364
293.69361
293.69359
293.69359
293.69359
293.69359
347.34464
340.55265
334.3263
328.59594
323.33233
318.53225
314.20655
310.36935
307.02887
304.18079
301.80513
299.86677
298.31885
297.10774
296.17805
295.47686
294.95653
294.57618
294.30206
294.10717
293.97047
293.87591
293.81146
293.76823
293.73976
293.7214
293.70983
293.70275
293.69854
293.69613
293.69481
293.6941
293.69375
293.69358
293.6935
293.69346
293.69345
293.69344
293.69344
293.69344
347.43124
340.65355
334.4398
328.71983
323.46376
318.66773
314.34214
310.501
307.15284
304.29403
301.90556
299.95338
298.39164
297.16748
296.22605
295.5147
294.98586
294.59856
294.3189
294.11966
293.97961
293.8825
293.81612
293.77146
293.74195
293.72283
293.71072
293.70326
293.69881
293.69623
293.6948
293.69403
293.69364
293.69345
293.69336
293.69332
293.69331
293.6933
293.6933
293.6933
347.51562
340.75186
334.5504
328.8406
323.59194
318.79995
314.47458
310.62974
307.27422
304.40506
302.00418
300.03857
298.46335
297.22643
296.27349
295.55216
295.01493
294.62078
294.33564
294.13211
293.98874
293.88909
293.82081
293.77473
293.74416
293.72428
293.71163
293.7038
293.69908
293.69634
293.6948
293.69397
293.69354
293.69333
293.69323
293.69318
293.69316
293.69316
293.69315
293.69315
347.59788
340.8477
334.65825
328.95839
323.71701
318.92904
314.60401
310.75569
307.39312
304.51398
302.10107
300.1224
298.53402
297.28462
296.32039
295.58924
295.04375
294.64284
294.35229
294.14451
293.99784
293.89568
293.8255
293.77801
293.7464
293.72576
293.71257
293.70435
293.69937
293.69646
293.69481
293.69391
293.69344
293.69321
293.69309
293.69304
293.69302
293.69301
293.69301
293.69301
347.67812
340.9412
334.76346
329.07333
323.83911
319.05515
314.73056
310.87896
307.50964
304.62086
302.19629
300.20491
298.60369
297.34207
296.36676
295.62596
295.07234
294.66475
294.36885
294.15685
294.00693
293.90228
293.83021
293.78131
293.74866
293.72726
293.71352
293.70492
293.69968
293.69659
293.69482
293.69386
293.69334
293.69309
293.69296
293.6929
293.69288
293.69287
293.69286
293.69286
347.75643
341.03244
334.86616
329.18556
323.95837
319.17841
314.85434
310.99966
307.62387
304.72577
302.28989
300.28614
298.67238
297.39879
296.41261
295.66232
295.10068
294.68651
294.38531
294.16915
294.01599
293.90887
293.83493
293.78462
293.75094
293.72878
293.7145
293.70551
293.7
293.69673
293.69485
293.69381
293.69325
293.69297
293.69283
293.69277
293.69274
293.69272
293.69272
293.69272
347.83289
341.12154
334.96646
329.29519
324.07492
319.29893
314.97547
311.11789
307.73588
304.8288
302.38194
300.36613
298.74012
297.45482
296.45796
295.69833
295.12878
294.70811
294.40168
294.1814
294.02504
293.91545
293.83965
293.78796
293.75324
293.73032
293.71549
293.70611
293.70034
293.69688
293.69488
293.69376
293.69316
293.69286
293.6927
293.69263
293.6926
293.69258
293.69258
293.69258
347.90758
341.20859
335.06445
329.40232
324.18886
319.41682
315.09406
311.23375
307.84578
304.92999
302.47247
300.44492
298.80694
297.51016
296.50282
295.73399
295.15666
294.72956
294.41797
294.19359
294.03405
293.92203
293.84439
293.7913
293.75555
293.73188
293.7165
293.70674
293.70069
293.69704
293.69492
293.69373
293.69308
293.69274
293.69257
293.69249
293.69246
293.69244
293.69243
293.69243
347.98058
341.29367
335.16024
329.50707
324.30031
319.5322
315.21019
311.34733
307.95362
305.02943
302.56155
300.52255
298.87287
297.56483
296.5472
295.76933
295.18431
294.75087
294.43416
294.20574
294.04305
293.92861
293.84913
293.79466
293.75789
293.73346
293.71753
293.70737
293.70105
293.69722
293.69497
293.6937
293.693
293.69263
293.69245
293.69236
293.69232
293.6923
293.69229
293.69229
348.05195
341.37686
335.25392
329.60953
324.40937
319.64516
315.32398
311.4587
308.05949
305.12716
302.64921
300.59905
298.93793
297.61886
296.59111
295.80434
295.21174
294.77204
294.45026
294.21783
294.05202
293.93518
293.85387
293.79804
293.76024
293.73505
293.71858
293.70803
293.70142
293.6974
293.69503
293.69367
293.69292
293.69253
293.69232
293.69222
293.69218
293.69216
293.69215
293.69214
348.12177
341.45824
335.34557
329.7098
324.51612
319.75579
315.4355
311.56796
308.16346
305.22324
302.73551
300.67446
299.00215
297.67227
296.63457
295.83903
295.23896
294.79306
294.46628
294.22987
294.06097
293.94174
293.85862
293.80142
293.7626
293.73667
293.71964
293.70869
293.70181
293.6976
293.6951
293.69365
293.69285
293.69242
293.6922
293.69209
293.69204
293.69201
293.692
293.692
348.1901
341.53788
335.43527
329.80795
324.62067
319.86419
315.54485
311.67517
308.26558
305.31774
302.82049
300.74881
299.06554
297.72506
296.67759
295.8734
295.26596
294.81394
294.4822
294.24187
294.06989
293.9483
293.86337
293.80481
293.76498
293.73829
293.72072
293.70938
293.70221
293.69781
293.69517
293.69364
293.69278
293.69232
293.69208
293.69196
293.6919
293.69187
293.69186
293.69186
348.25699
341.61586
335.5231
329.90408
324.72309
319.97044
315.6521
311.78042
308.36593
305.41069
302.90418
300.82213
299.12814
297.77725
296.72017
295.90748
295.29276
294.83469
294.49805
294.25381
294.07878
293.95484
293.86813
293.80821
293.76737
293.73994
293.72182
293.71007
293.70263
293.69802
293.69525
293.69363
293.69272
293.69222
293.69196
293.69183
293.69176
293.69173
293.69172
293.69172
348.3225
341.69222
335.60913
329.99825
324.82346
320.07462
315.75732
311.88376
308.46456
305.50216
302.98663
300.89444
299.18997
297.82886
296.76233
295.94125
295.31935
294.8553
294.5138
294.26571
294.08765
293.96138
293.87288
293.81162
293.76977
293.74159
293.72292
293.71078
293.70305
293.69825
293.69534
293.69363
293.69266
293.69213
293.69184
293.6917
293.69163
293.69159
293.69158
293.69158
348.38668
341.76705
335.69343
330.09055
324.92186
320.1768
315.86059
311.98527
308.56154
305.59218
303.06786
300.96579
299.25104
297.8799
296.80408
295.97474
295.34574
294.87578
294.52948
294.27755
294.0965
293.9679
293.87764
293.81504
293.77219
293.74326
293.72404
293.71151
293.70349
293.69848
293.69544
293.69364
293.69261
293.69204
293.69173
293.69157
293.69149
293.69146
293.69144
293.69144
348.44959
341.84039
335.77606
330.18104
325.01837
320.27705
315.96198
312.085
308.6569
305.6808
303.14793
301.03619
299.31137
297.93039
296.84542
296.00793
295.37193
294.89613
294.54507
294.28934
294.10531
293.97442
293.88239
293.81846
293.77461
293.74494
293.72518
293.71224
293.70394
293.69873
293.69554
293.69365
293.69256
293.69195
293.69162
293.69145
293.69136
293.69132
293.6913
293.6913
348.51126
341.91229
335.85709
330.26978
325.11304
320.37544
316.06154
312.18302
308.75071
305.76806
303.22686
301.10567
299.37098
297.98033
296.88637
296.04085
295.39794
294.91636
294.56058
294.30109
294.1141
293.98092
293.88715
293.82189
293.77705
293.74664
293.72633
293.71299
293.7044
293.69898
293.69566
293.69367
293.69251
293.69186
293.69151
293.69132
293.69123
293.69118
293.69116
293.69116
348.57175
341.98282
335.93657
330.35685
325.20595
320.47204
316.15935
312.27938
308.84301
305.85401
303.30468
301.17426
299.4299
298.02975
296.92693
296.07349
295.42375
294.93646
294.57601
294.31279
294.12287
293.98742
293.8919
293.82533
293.77949
293.74834
293.72748
293.71375
293.70487
293.69925
293.69578
293.69369
293.69247
293.69178
293.6914
293.6912
293.69109
293.69104
293.69102
293.69102
348.63109
342.05201
336.01455
330.44229
325.29715
320.56691
316.25546
312.37413
308.93384
305.93868
303.38143
301.24197
299.48814
298.07866
296.96711
296.10587
295.44938
294.95643
294.59136
294.32444
294.13161
293.9939
293.89665
293.82877
293.78194
293.75006
293.72866
293.71452
293.70535
293.69952
293.69591
293.69372
293.69243
293.6917
293.69129
293.69108
293.69096
293.69091
293.69089
293.69088
348.68932
342.11991
336.09109
330.52616
325.3867
320.6601
316.34992
312.46732
309.02327
306.0221
303.45714
301.30884
299.54571
298.12706
297.00692
296.13798
295.47483
294.97628
294.60664
294.33605
294.14032
294.00037
293.90141
293.83221
293.7844
293.75179
293.72984
293.7153
293.70584
293.69981
293.69604
293.69376
293.6924
293.69162
293.69119
293.69096
293.69083
293.69077
293.69075
293.69074
348.74649
342.18658
336.16623
330.60852
325.47466
320.75167
316.44279
312.55901
309.11131
306.10433
303.53182
301.37488
299.60263
298.17497
297.04638
296.16984
295.5001
294.99602
294.62183
294.3476
294.14901
294.00683
293.90615
293.83566
293.78687
293.75352
293.73103
293.71609
293.70634
293.7001
293.69619
293.6938
293.69238
293.69155
293.69109
293.69084
293.69071
293.69064
293.69061
293.69061
348.80263
342.25204
336.24003
330.68942
325.56108
320.84167
316.53412
312.64923
309.19803
306.18538
303.60552
301.44012
299.65892
298.2224
297.08548
296.20144
295.52519
295.01564
294.63696
294.35911
294.15767
294.01328
293.9109
293.83912
293.78935
293.75527
293.73223
293.71689
293.70685
293.7004
293.69634
293.69385
293.69235
293.69148
293.69099
293.69072
293.69058
293.69051
293.69048
293.69047
348.85777
342.31634
336.31253
330.7689
325.64601
320.93016
316.62396
312.73804
309.28345
306.26529
303.67825
301.50457
299.71459
298.26936
297.12423
296.23279
295.55012
295.03514
294.652
294.37058
294.16631
294.01971
293.91564
293.84257
293.79183
293.75702
293.73345
293.71771
293.70737
293.70071
293.6965
293.6939
293.69234
293.69142
293.6909
293.69061
293.69046
293.69038
293.69035
293.69034
348.91195
342.37953
336.38376
330.84701
325.7295
321.01717
316.71235
312.82547
309.36761
306.3441
303.75005
301.56825
299.76966
298.31585
297.16264
296.2639
295.57487
295.05453
294.66698
294.382
294.17492
294.02614
293.92038
293.84603
293.79432
293.75879
293.73467
293.71853
293.7079
293.70102
293.69666
293.69396
293.69232
293.69136
293.69081
293.6905
293.69033
293.69025
293.69021
293.69021
348.96519
342.44162
336.45378
330.9238
325.81159
321.10276
316.79933
312.91157
309.45055
306.42183
303.82093
301.63119
299.82414
298.3619
297.20072
296.29478
295.59946
295.0738
294.68188
294.39337
294.18351
294.03255
293.92512
293.84949
293.79682
293.76056
293.7359
293.71936
293.70844
293.70135
293.69684
293.69403
293.69232
293.6913
293.69072
293.69039
293.69021
293.69012
293.69008
293.69007
349.01753
342.50267
336.52262
330.9993
325.89233
321.18697
316.88495
312.99637
309.5323
306.49852
303.89092
301.6934
299.87805
298.40751
297.23848
296.32542
295.62389
295.09297
294.69671
294.40471
294.19207
294.03895
293.92986
293.85295
293.79932
293.76234
293.73714
293.7202
293.70899
293.70168
293.69702
293.6941
293.69231
293.69125
293.69063
293.69028
293.69009
293.69
293.68995
293.68994
349.069
342.56269
336.59031
331.07356
325.97175
321.26984
316.96925
313.07991
309.6129
306.57418
303.96005
301.75489
299.93139
298.45269
297.27592
296.35583
295.64815
295.11203
294.71147
294.41599
294.20061
294.04533
293.93459
293.85642
293.80183
293.76413
293.73839
293.72106
293.70954
293.70203
293.6972
293.69418
293.69231
293.6912
293.69055
293.69018
293.68997
293.68987
293.68983
293.68981
349.11961
342.62173
336.6569
331.14662
326.04991
321.35141
317.05227
313.16223
309.69237
306.64884
304.02832
301.8157
299.98418
298.49745
297.31304
296.38601
295.67226
295.13098
294.72616
294.42724
294.20912
294.05171
293.93931
293.85989
293.80434
293.76592
293.73965
293.72192
293.71011
293.70238
293.6974
293.69426
293.69232
293.69115
293.69047
293.69007
293.68986
293.68975
293.6897
293.68969
349.16941
342.67982
336.72241
331.2185
326.12683
321.43171
317.13403
313.24336
309.77075
306.72254
304.09578
301.87582
300.03643
298.54179
297.34986
296.41598
295.69622
295.14983
294.74078
294.43844
294.2176
294.05807
293.94403
293.86336
293.80686
293.76773
293.74092
293.72278
293.71068
293.70273
293.6976
293.69435
293.69233
293.69111
293.69039
293.68997
293.68974
293.68963
293.68957
293.68956
349.21841
342.73697
336.78688
331.28925
326.20255
321.51079
317.21459
313.32333
309.84806
306.7953
304.16242
301.93528
300.08815
298.58573
297.38637
296.44572
295.72002
295.16857
294.75533
294.4496
294.22607
294.06442
293.94875
293.86683
293.80939
293.76953
293.74219