/*--------------------------------*- C++ -*----------------------------------*\
| =========                 |                                                 |
| \\      /  F ield         | OpenFOAM: The Open Source CFD Toolbox           |
|  \\    /   O peration     | Version:  3.0.1                                 |
|   \\  /    A nd           | Web:      www.OpenFOAM.org                      |
|    \\/     M anipulation  |                                                 |
\*---------------------------------------------------------------------------*/
FoamFile
{
    version     2.0;
    format      ascii;
    class       volVectorField;
    location    "2169";
    object      U;
}
// * * * * * * * * * * * * * * * * * * * * * * * * * * * * * * * * * * * * * //

dimensions      [0 1 -1 0 0 0 0];

internalField   nonuniform List<vector> 
4000
(
(8.1672572e-05 -1.0618803e-18 0.04336967)
(0.0001405723 -2.3919066e-18 0.098296052)
(0.00023771228 -3.6582822e-18 0.13331809)
(0.00023383284 -4.8906804e-18 0.15412552)
(0.00018613606 -5.2273703e-18 0.16518953)
(0.00012164501 -5.5324418e-18 0.16983376)
(6.3589829e-05 -5.8572151e-18 0.17041068)
(2.0995365e-05 -6.2205209e-18 0.1685109)
(-5.068865e-06 -5.9067421e-18 0.16516517)
(-1.7771105e-05 -5.6617008e-18 0.16101979)
(-2.1377816e-05 -5.4461294e-18 0.15646235)
(-1.9867328e-05 -5.2700401e-18 0.15171898)
(-1.6258721e-05 -5.1425584e-18 0.14692113)
(-1.256735e-05 -5.068326e-18 0.14214648)
(-9.9628903e-06 -5.0518252e-18 0.13744329)
(-9.007261e-06 -5.0971368e-18 0.13284416)
(-9.8664953e-06 -5.2217794e-18 0.12837335)
(-1.2471635e-05 -6.3405315e-18 0.12405028)
(-1.6625818e-05 -7.539376e-18 0.11989081)
(-2.2073014e-05 -8.8269843e-18 0.1159074)
(-2.8532822e-05 -1.0234147e-17 0.11210852)
(-3.5720606e-05 -1.1773465e-17 0.10849769)
(-4.3356891e-05 -1.2073623e-17 0.10507231)
(-5.1169173e-05 -9.9562178e-18 0.10182229)
(-5.8896472e-05 -9.3976821e-18 0.098728463)
(-6.628444e-05 -7.8561512e-18 0.095760909)
(-7.3093687e-05 -6.4916163e-18 0.092877019)
(-7.908342e-05 -6.4873592e-18 0.090019405)
(-8.404156e-05 -6.635663e-18 0.087113629)
(-8.7731357e-05 -6.9656618e-18 0.084065802)
(-8.9994205e-05 -6.449298e-18 0.080760261)
(-9.0569637e-05 -4.2577279e-18 0.077057449)
(-8.943522e-05 -2.3421183e-18 0.072792628)
(-8.6222417e-05 -6.3576194e-19 0.067775381)
(-8.1258173e-05 9.020767e-19 0.06179131)
(-7.3744772e-05 2.293084e-18 0.054604059)
(-6.4871652e-05 2.274531e-18 0.045960503)
(-5.2066332e-05 1.3108668e-18 0.035589089)
(-3.8592968e-05 1.0977417e-18 0.023198256)
(-1.2425176e-05 3.4780292e-19 0.0084315964)
(-2.2997664e-05 -1.383872e-18 0.047274777)
(-0.00025511042 -2.8709423e-18 0.10642175)
(-0.00055960836 -4.2920866e-18 0.14276611)
(-0.00087549147 -5.8359622e-18 0.16283576)
(-0.0011407531 -5.5959344e-18 0.17212041)
(-0.001328297 -5.639628e-18 0.17475877)
(-0.0014289553 -5.7947957e-18 0.1735758)
(-0.0014501006 -5.9865193e-18 0.17034206)
(-0.0014081015 -5.9681617e-18 0.16608912)
(-0.0013223315 -5.7834855e-18 0.16138116)
(-0.0012108025 -5.6716687e-18 0.15650833)
(-0.0010881253 -5.7862589e-18 0.15161198)
(-0.000964863 -5.3158667e-18 0.14675931)
(-0.00084784606 -5.0914e-18 0.14198396)
(-0.00074092424 -4.958473e-18 0.13730636)
(-0.00064580815 -4.7486923e-18 0.13274281)
(-0.00056281116 -4.931459e-18 0.12830871)
(-0.00049141986 -6.3861686e-18 0.12401909)
(-0.00043068941 -7.8478449e-18 0.11988802)
(-0.0003794912 -8.9778119e-18 0.11592745)
(-0.00033665749 -1.0381908e-17 0.112146)
(-0.00030105591 -1.2113978e-17 0.10854765)
(-0.00027162069 -1.2147653e-17 0.10513033)
(-0.00024736268 -1.0041513e-17 0.10188449)
(-0.00022736955 -9.6554825e-18 0.098791501)
(-0.00021079758 -7.9120722e-18 0.095821938)
(-0.00019687045 -6.5025566e-18 0.092933643)
(-0.00018486161 -6.5067042e-18 0.09006965)
(-0.00017411173 -6.6495045e-18 0.087155909)
(-0.00016398598 -6.923594e-18 0.084098908)
(-0.00015395179 -6.17651e-18 0.080783339)
(-0.00014344531 -4.0137508e-18 0.077070034)
(-0.00013214428 -2.3233904e-18 0.072794611)
(-0.00011952019 -6.4035628e-19 0.0677671)
(-0.00010568633 8.9600907e-19 0.061773368)
(-8.9950015e-05 2.253995e-18 0.054577466)
(-7.3346009e-05 2.1853826e-18 0.045925743)
(-5.3883632e-05 1.3898431e-18 0.035545934)
(-3.4619323e-05 1.0966394e-18 0.023140893)
(-6.6856686e-06 3.1734319e-19 0.0083608015)
(-2.4342079e-05 -9.9595725e-19 0.051817441)
(-0.00028550948 -2.5045233e-18 0.11663854)
(-0.00067651004 -3.7234828e-18 0.1556897)
(-0.0011132982 -4.7361619e-18 0.17588732)
(-0.001517452 -5.3179751e-18 0.18352176)
(-0.0018393942 -5.5059228e-18 0.18364427)
(-0.0020523421 -5.7552319e-18 0.17982635)
(-0.0021525006 -6.04381e-18 0.17429711)
(-0.0021525882 -5.9454197e-18 0.16827844)
(-0.0020745018 -5.6944209e-18 0.1623417)
(-0.0019427039 -5.2599995e-18 0.15669125)
(-0.0017797394 -5.5090709e-18 0.15135376)
(-0.0016038548 -5.3701278e-18 0.14628852)
(-0.001428303 -5.1511344e-18 0.1414431)
(-0.0012617142 -5.0594056e-18 0.13677636)
(-0.001108985 -5.0665821e-18 0.1322642)
(-0.00097229321 -5.4221268e-18 0.1278975)
(-0.0008520161 -6.5377851e-18 0.12367762)
(-0.00074745105 -7.927835e-18 0.1196117)
(-0.00065732262 -9.3697427e-18 0.11570871)
(-0.00058011404 -1.0039373e-17 0.11197641)
(-0.00051425614 -1.1472276e-17 0.10841894)
(-0.00045822708 -1.1268375e-17 0.1050349)
(-0.00041059872 -1.0136439e-17 0.10181553)
(-0.00037004974 -9.3962317e-18 0.098743039)
(-0.00033536464 -7.9528474e-18 0.095788767)
(-0.0003054297 -6.7500574e-18 0.092911283)
(-0.00027921692 -6.5533342e-18 0.090054275)
(-0.00025579262 -6.6378623e-18 0.087144289)
(-0.00023428407 -6.7563846e-18 0.084088362)
(-0.0002139367 -5.8612774e-18 0.080771706)
(-0.00019401198 -3.7658089e-18 0.07705566)
(-0.00017400801 -2.2775457e-18 0.072776335)
(-0.00015330619 -6.3910111e-19 0.067744283)
(-0.00013185963 8.7510093e-19 0.061745805)
(-0.00010903037 2.1227426e-18 0.05454541)
(-8.560479e-05 2.0248726e-18 0.045889383)
(-6.0053611e-05 1.4423855e-18 0.03550525)
(-3.4469848e-05 1.1427895e-18 0.023095406)
(-5.4570922e-06 3.4306587e-19 0.008328056)
(-2.0582954e-05 -6.7365715e-19 0.055879331)
(-0.00026055945 -2.0335512e-18 0.12633494)
(-0.00064656828 -3.1214148e-18 0.1687996)
(-0.0011084822 -3.7956557e-18 0.19016004)
(-0.0015726489 -4.9540643e-18 0.19704575)
(-0.0019806536 -5.7891225e-18 0.19514052)
(-0.002290883 -5.8261317e-18 0.18871889)
(-0.0024839027 -5.9570158e-18 0.18058448)
(-0.0025602917 -5.9391017e-18 0.1723165)
(-0.0025351726 -5.7882367e-18 0.16463719)
(-0.0024314938 -5.4704569e-18 0.15775553)
(-0.0022741874 -4.9133109e-18 0.15162293)
(-0.0020860877 -5.1560831e-18 0.14609464)
(-0.001885732 -5.2732679e-18 0.14101698)
(-0.00168668 -5.2539065e-18 0.13626533)
(-0.0014978337 -5.4644912e-18 0.131754)
(-0.0013242802 -6.097085e-18 0.12743235)
(-0.0011682872 -6.7416705e-18 0.12327592)
(-0.0010302305 -7.730213e-18 0.11927706)
(-0.00090933655 -9.1875952e-18 0.11543714)
(-0.00080421608 -1.0052406e-17 0.11176051)
(-0.00071321597 -1.0687586e-17 0.10825028)
(-0.00063462349 -1.0630178e-17 0.10490513)
(-0.00056677333 -1.0248057e-17 0.10171695)
(-0.00050810081 -9.0241856e-18 0.098668774)
(-0.00045715396 -7.9747093e-18 0.095732794)
(-0.00041259665 -7.1277251e-18 0.092868397)
(-0.00037319742 -6.6361677e-18 0.090020028)
(-0.00033783164 -6.5982038e-18 0.087114928)
(-0.00030545631 -6.5104372e-18 0.084060784)
(-0.00027515663 -5.6963719e-18 0.080743422)
(-0.00024606362 -3.8481088e-18 0.077024783)
(-0.00021753693 -2.2463623e-18 0.072741568)
(-0.00018888687 -6.3815531e-19 0.067704933)
(-0.00015992981 8.2893049e-19 0.061701712)
(-0.00013007634 1.8381648e-18 0.054496899)
(-9.9870293e-05 1.9600895e-18 0.045836788)
(-6.8201017e-05 1.4521469e-18 0.035448763)
(-3.6623902e-05 9.7841562e-19 0.02303643)
(-5.2003844e-06 3.5511413e-19 0.00828631)
(-1.7901974e-05 -7.8712254e-19 0.059435115)
(-0.00023418771 -1.9804426e-18 0.1350992)
(-0.00059513518 -2.983088e-18 0.18110803)
(-0.001045318 -3.8932962e-18 0.20419494)
(-0.0015224816 -4.6061192e-18 0.21107019)
(-0.0019703204 -5.3127967e-18 0.20778279)
(-0.0023417391 -5.8643013e-18 0.19914549)
(-0.0026069326 -5.9458588e-18 0.18850258)
(-0.0027550652 -5.9624092e-18 0.17785014)
(-0.0027918172 -5.9558929e-18 0.16815794)
(-0.0027342606 -6.0147244e-18 0.15973029)
(-0.0026052116 -5.4873794e-18 0.1525073)
(-0.0024284307 -5.4075297e-18 0.14627427)
(-0.002225313 -5.465608e-18 0.14078633)
(-0.0020131049 -5.6172695e-18 0.13583042)
(-0.0018043722 -5.8723069e-18 0.13124729)
(-0.0016073202 -6.2665822e-18 0.12693134)
(-0.0014265688 -6.8991101e-18 0.12282052)
(-0.0012640782 -7.811277e-18 0.11888361)
(-0.0011200154 -8.8204409e-18 0.11510834)
(-0.00099345746 -1.0301091e-17 0.11149205)
(-0.00088290394 -1.0620683e-17 0.1080347)
(-0.0007866077 -1.074033e-17 0.10473408)
(-0.00070277455 -1.0048854e-17 0.10158223)
(-0.00062966746 -9.0076745e-18 0.098562845)
(-0.000565653 -7.9924905e-18 0.095648944)
(-0.00050921874 -7.1744971e-18 0.092800768)
(-0.00045896717 -6.7027791e-18 0.089963581)
(-0.00041362258 -6.5559372e-18 0.087065393)
(-0.00037200844 -6.3428356e-18 0.084014611)
(-0.00033308445 -5.5844658e-18 0.08069775)
(-0.00029588408 -4.0774734e-18 0.076977427)
(-0.00025966234 -2.2421167e-18 0.07269101)
(-0.00022368457 -6.4126413e-19 0.067650329)
(-0.00018766319 7.8485051e-19 0.061642826)
(-0.00015106551 1.7539227e-18 0.054434025)
(-0.00011424651 1.9592805e-18 0.045770373)
(-7.6465619e-05 1.436669e-18 0.035379481)
(-3.9075214e-05 8.5249661e-19 0.022968184)
(-5.0315774e-06 3.0331855e-19 0.0082432033)
(-1.6053177e-05 -1.0925644e-18 0.06261778)
(-0.00021305732 -2.3358583e-18 0.14307518)
(-0.00054865809 -3.4176836e-18 0.1925532)
(-0.00097782265 -4.418852e-18 0.21762308)
(-0.0014486215 -4.5712166e-18 0.22496686)
(-0.0019103677 -4.6868486e-18 0.2208299)
(-0.0023161067 -5.3904722e-18 0.21041086)
(-0.0026310921 -5.8647169e-18 0.19751095)
(-0.0028366147 -6.0556968e-18 0.1845338)
(-0.0029300205 -6.0429796e-18 0.17273768)
(-0.00292153 -6.0863179e-18 0.16258296)
(-0.0028296199 -6.0365611e-18 0.15405591)
(-0.0026763866 -5.7148563e-18 0.14691402)
(-0.0024837882 -5.6961586e-18 0.14084535)
(-0.0022711151 -5.8166274e-18 0.13555704)
(-0.0020536733 -6.060793e-18 0.13081436)
(-0.0018424591 -6.3572907e-18 0.12644938)
(-0.0016445139 -7.1250482e-18 0.12235351)
(-0.0014636545 -8.1651448e-18 0.1184637)
(-0.0013013167 -9.0756423e-18 0.11474773)
(-0.0011573411 -1.0181838e-17 0.11119146)
(-0.0010306104 -1.0859528e-17 0.10778906)
(-0.00091951006 -1.0763478e-17 0.10453582)
(-0.00082222634 -9.7263587e-18 0.1014232)
(-0.00073692355 -9.1801129e-18 0.09843519)
(-0.00066183434 -7.998404e-18 0.095545531)
(-0.00059530116 -7.0023113e-18 0.092715313)
(-0.00053578707 -6.7149434e-18 0.089890655)
(-0.00048188323 -6.5325292e-18 0.087000391)
(-0.00043229321 -6.2736902e-18 0.083953707)
(-0.00038586547 -5.4319091e-18 0.080637864)
(-0.0003415464 -3.8910747e-18 0.076916209)
(-0.00029849825 -2.2240905e-18 0.072626831)
(-0.00025594615 -6.4456271e-19 0.067582278)
(-0.00021351272 7.5376289e-19 0.061570655)
(-0.00017071191 1.8179912e-18 0.054358042)
(-0.00012775879 1.8967121e-18 0.045691179)
(-8.4233706e-05 1.4336923e-18 0.035298362)
(-4.1544757e-05 9.4315408e-19 0.022891323)
(-4.9568523e-06 2.6593486e-19 0.0081977862)
(-1.4633307e-05 -7.7015281e-19 0.065506797)
(-0.00019587708 -1.4766278e-18 0.15039517)
(-0.00050881482 -2.7694809e-18 0.20320642)
(-0.00091568276 -3.8080773e-18 0.23036396)
(-0.0013726522 -4.5381232e-18 0.23847747)
(-0.0018349168 -4.879237e-18 0.2338899)
(-0.0022579937 -5.3604809e-18 0.2220729)
(-0.0026055682 -5.9910308e-18 0.20720022)
(-0.0028542175 -6.0140819e-18 0.19204646)
(-0.0029950372 -5.9831444e-18 0.17816465)
(-0.0030320914 -5.9818052e-18 0.16620344)
(-0.0029789815 -6.1129632e-18 0.15623625)
(-0.0028548112 -6.0391763e-18 0.14803032)
(-0.0026804912 -5.9462801e-18 0.14123421)
(-0.002475879 -6.0968887e-18 0.1354912)
(-0.0022579254 -6.3059073e-18 0.13049694)
(-0.0020397813 -6.6253351e-18 0.12601984)
(-0.0018306725 -7.1179419e-18 0.12189961)
(-0.0016363069 -7.6513168e-18 0.11803498)
(-0.0014595672 -8.7381012e-18 0.11436782)
(-0.0013012789 -1.0279663e-17 0.11086793)
(-0.0011609116 -1.0593397e-17 0.10752043)
(-0.0010371398 -1.0504124e-17 0.10431616)
(-0.00092824245 -9.7040431e-18 0.10124485)
(-0.0008323572 -9.0006916e-18 0.098290239)
(-0.00074762889 -8.0041776e-18 0.095426555)
(-0.00067228771 -7.107066e-18 0.092615658)
(-0.0006046765 -6.7437965e-18 0.089804531)
(-0.00054326871 -6.579661e-18 0.08692287)
(-0.00048666191 -6.1600578e-18 0.083880696)
(-0.00043360246 -5.069933e-18 0.080566071)
(-0.00038295589 -3.8276106e-18 0.07684313)
(-0.00033380302 -2.1981455e-18 0.072550741)
(-0.00028532867 -6.4520765e-19 0.067502219)
(-0.00023707887 7.2934824e-19 0.061486385)
(-0.00018860369 1.7968007e-18 0.054269923)
(-0.0001400203 1.7673786e-18 0.045600029)
(-9.1193864e-05 1.4165676e-18 0.03520621)
(-4.3763838e-05 9.0931658e-19 0.022806498)
(-4.8764497e-06 2.8001971e-19 0.0081499848)
(-1.3506706e-05 -9.3416039e-20 0.068161531)
(-0.00018174407 -1.042017e-18 0.15717276)
(-0.00047499607 -1.6866423e-18 0.21316802)
(-0.00086077209 -1.9417952e-18 0.24244145)
(-0.00130148 -3.5880856e-18 0.25151416)
(-0.0017575492 -4.4648373e-18 0.24676873)
(-0.0021876955 -5.0143862e-18 0.23387007)
(-0.0025558366 -5.7034722e-18 0.21729316)
(-0.0028360196 -5.9267208e-18 0.20014079)
(-0.0030149877 -5.8230863e-18 0.18424974)
(-0.0030918292 -5.7324261e-18 0.17046998)
(-0.0030755985 -5.62284e-18 0.15898784)
(-0.0029819878 -5.9986786e-18 0.14960904)
(-0.0028299541 -6.2095291e-18 0.14196771)
(-0.0026388418 -6.4885526e-18 0.13566137)
(-0.0024262605 -7.0032278e-18 0.13032623)
(-0.0022067845 -7.4600414e-18 0.12567046)
(-0.0019914006 -7.4727055e-18 0.12148064)
(-0.0017875586 -7.805502e-18 0.11761329)
(-0.0015996262 -8.7748921e-18 0.11397959)
(-0.0014295484 -9.7262644e-18 0.11052893)
(-0.0012775438 -9.5791035e-18 0.10723398)
(-0.0011427215 -9.6141758e-18 0.10407883)
(-0.0010235635 -9.703892e-18 0.10105005)
(-0.00091826092 -8.53059e-18 0.098130341)
(-0.00082492326 -7.9677931e-18 0.095294031)
(-0.00074169856 -7.4090868e-18 0.092503592)
(-0.00066683283 -6.7946067e-18 0.089706835)
(-0.00059869538 -6.5371594e-18 0.086834335)
(-0.00053578724 -5.9185104e-18 0.083796982)
(-0.00047676323 -5.0031767e-18 0.080483694)
(-0.00042041194 -4.0163919e-18 0.07675944)
(-0.00036573844 -2.197643e-18 0.07246392)
(-0.00031188812 -6.5329544e-19 0.067411265)
(-0.00025834084 6.8062426e-19 0.061391063)
(-0.0002046708 1.5643147e-18 0.054170664)
(-0.00015093644 1.6985377e-18 0.04549791)
(-9.7265586e-05 1.3786823e-18 0.035104077)
(-4.563481e-05 8.0599201e-19 0.022714679)
(-4.7687105e-06 2.989468e-19 0.0081002177)
(-1.2581236e-05 -9.4221184e-19 0.070624052)
(-0.00016989269 -2.4006317e-18 0.16349523)
(-0.00044606103 -3.0238887e-18 0.22252908)
(-0.00081257052 -3.9097472e-18 0.25390774)
(-0.0012366868 -4.1938442e-18 0.26405957)
(-0.0016832854 -4.6828277e-18 0.25937205)
(-0.0021143302 -4.8712311e-18 0.2456472)
(-0.0024948558 -4.761652e-18 0.22760408)
(-0.0027977582 -5.3177573e-18 0.20863286)
(-0.0030068714 -5.7221275e-18 0.19083613)
(-0.003117455 -5.9961331e-18 0.17526696)
(-0.0031346572 -6.4496751e-18 0.16223922)
(-0.0030708494 -6.3297765e-18 0.15161736)
(-0.0029426597 -6.4597248e-18 0.14304153)
(-0.002768249 -6.5899052e-18 0.13608044)
(-0.0025651232 -6.6980844e-18 0.13032271)
(-0.0023486008 -7.1525224e-18 0.12542254)
(-0.0021309395 -7.9039884e-18 0.12111502)
(-0.0019210601 -8.9252137e-18 0.1172128)
(-0.0017247339 -9.420499e-18 0.11359314)
(-0.0015450705 -9.42999e-18 0.11018129)
(-0.0013831445 -9.9042723e-18 0.10693427)
(-0.0012386212 -9.6242502e-18 0.10382692)
(-0.0011102926 -9.472247e-18 0.10084098)
(-0.00099648128 -8.873239e-18 0.097957161)
(-0.00089531672 -7.9857839e-18 0.095149317)
(-0.00080490311 -7.3701554e-18 0.092380297)
(-0.00072341037 -6.801613e-18 0.089598641)
(-0.00064912196 -6.3919107e-18 0.086735788)
(-0.00058045137 -5.8097932e-18 0.083703527)
(-0.00051596985 -4.8907384e-18 0.080391663)
(-0.00045439694 -3.651728e-18 0.076666051)
(-0.00039466733 -2.1593419e-18 0.072367264)
(-0.00033588723 -6.6083491e-19 0.0673103)
(-0.00027747848 6.221605e-19 0.061285561)
(-0.00021903355 1.3819094e-18 0.05406114)
(-0.00016058031 1.6181865e-18 0.045385729)
(-0.00010249822 1.4232465e-18 0.034992952)
(-4.716705e-05 8.2551417e-19 0.022616764)
(-4.6436262e-06 2.4304317e-19 0.0080488582)
(-1.180338e-05 -1.0740997e-18 0.07292567)
(-0.00015979475 -1.6182085e-18 0.16943052)
(-0.000421055 -3.1061698e-18 0.231367)
(-0.00077016325 -4.4984879e-18 0.26482007)
(-0.0011782371 -4.6682897e-18 0.27612667)
(-0.0016138869 -4.8457455e-18 0.27165792)
(-0.0020421183 -5.006987e-18 0.25731281)
(-0.0024294769 -5.4838414e-18 0.23800926)
(-0.0027485504 -5.5744171e-18 0.21738865)
(-0.0029812883 -5.8269654e-18 0.19779935)
(-0.0031200694 -6.0467326e-18 0.18049336)
(-0.0031668193 -6.4694378e-18 0.16591936)
(-0.0031309069 -6.5791509e-18 0.15401412)
(-0.0030265821 -6.5991133e-18 0.14443946)
(-0.0028704777 -6.7804068e-18 0.13674989)
(-0.002679477 -6.9335852e-18 0.13049794)
(-0.0024690876 -7.0814264e-18 0.1252915)
(-0.0022523652 -7.7729978e-18 0.12081781)
(-0.0020393752 -8.3109901e-18 0.11684608)
(-0.0018371258 -9.001832e-18 0.11321786)
(-0.0016498584 -9.8269433e-18 0.10983155)
(-0.0014795552 -1.0229155e-17 0.10662562)
(-0.001326526 -1.013964e-17 0.10356321)
(-0.0011899641 -9.2441529e-18 0.1006195)
(-0.0010684024 -8.8796282e-18 0.097771979)
(-0.00096004686 -7.9802016e-18 0.094993379)
(-0.00086299558 -7.1138801e-18 0.092246563)
(-0.00077536832 -6.7809847e-18 0.089480647)
(-0.00069537927 -6.5175074e-18 0.086627887)
(-0.00062136624 -5.8706303e-18 0.083600971)
(-0.00055182615 -4.8176426e-18 0.080290622)
(-0.00048541407 -3.5662627e-18 0.076563617)
(-0.00042100056 -2.1146588e-18 0.072261448)
(-0.00035765435 -6.6039527e-19 0.067200017)
(-0.00029474851 5.9739862e-19 0.061170594)
(-0.00023188668 1.5348874e-18 0.053942096)
(-0.00016909297 1.566062e-18 0.0452643)
(-0.00010699637 1.2762062e-18 0.034873727)
(-4.8404054e-05 8.8844061e-19 0.022513564)
(-4.5076704e-06 2.6422776e-19 0.0079962465)
(-1.1137407e-05 -1.5991921e-19 0.075090268)
(-0.00015107134 -1.1954585e-18 0.17503212)
(-0.00039922378 -1.9805818e-18 0.23974609)
(-0.00073264912 -2.1665271e-18 0.27523254)
(-0.0011255758 -3.7672452e-18 0.28774071)
(-0.0015497558 -4.6746566e-18 0.28361215)
(-0.0019729522 -4.8693901e-18 0.26881363)
(-0.0023633592 -5.1986371e-18 0.24842611)
(-0.0026937628 -5.6107248e-18 0.2263109)
(-0.0029449408 -5.7683891e-18 0.20504238)
(-0.0031071268 -5.9365763e-18 0.18606432)
(-0.0031796337 -5.884348e-18 0.16996288)
(-0.0031692181 -6.4943393e-18 0.15675599)
(-0.0030878773 -6.8271521e-18 0.14613869)
(-0.0029505917 -7.1651287e-18 0.13766317)
(-0.0027733097 -7.6690122e-18 0.1308563)
(-0.0025713175 -8.0707135e-18 0.12528744)
(-0.0023580591 -8.0898875e-18 0.12060076)
(-0.0021444139 -8.3115131e-18 0.11652393)
(-0.0019384149 -8.9330006e-18 0.11286243)
(-0.0017453412 -9.4508853e-18 0.10948601)
(-0.001568082 -9.2820875e-18 0.10631229)
(-0.0014076455 -9.2358044e-18 0.1032905)
(-0.0012636985 -9.3744205e-18 0.10038738)
(-0.001135054 -8.3026099e-18 0.09757595)
(-0.0010200511 -7.9231668e-18 0.094827016)
(-0.00091682308 -7.3290877e-18 0.092102998)
(-0.00082346592 -6.7747324e-18 0.089353366)
(-0.00073814216 -6.3844171e-18 0.086511102)
(-0.00065912711 -5.6711596e-18 0.083489775)
(-0.00058485065 -4.7575538e-18 0.080181044)
(-0.00051390967 -3.6921378e-18 0.076452634)
(-0.00044511752 -2.0968685e-18 0.072146994)
(-0.00037750667 -6.6324683e-19 0.067080971)
(-0.00031040802 5.5240278e-19 0.061046753)
(-0.00024343585 1.3191289e-18 0.053814177)
(-0.00017663067 1.5074836e-18 0.04513434)
(-0.0001108703 1.2413052e-18 0.034747199)
(-4.9399089e-05 7.8482946e-19 0.022405783)
(-4.3702539e-06 2.8233596e-19 0.0079426602)
(-1.0558813e-05 -6.0479467e-19 0.07713653)
(-0.00014344674 -2.1663456e-18 0.18034279)
(-0.00037998654 -2.5284508e-18 0.24771977)
(-0.00069925415 -2.9730526e-18 0.2851938)
(-0.0010780344 -3.7290168e-18 0.29893103)
(-0.0014907384 -4.4435668e-18 0.29523535)
(-0.0019075939 -4.747679e-18 0.28011969)
(-0.0022984541 -4.9894476e-18 0.25879937)
(-0.0026366008 -5.4035971e-18 0.23532889)
(-0.0029021314 -5.7230928e-18 0.2124901)
(-0.0030836919 -5.9778331e-18 0.19191001)
(-0.0031784929 -6.2100463e-18 0.17431213)
(-0.0031910592 -6.6885722e-18 0.15980102)
(-0.0031313392 -7.0697732e-18 0.14811344)
(-0.0030126717 -7.3879714e-18 0.13880865)
(-0.0028499092 -7.7663264e-18 0.13139674)
(-0.0026578399 -8.1392258e-18 0.1254159)
(-0.0024499691 -8.4885236e-18 0.12047241)
(-0.0022376885 -9.0693827e-18 0.11625527)
(-0.0020298279 -9.3983871e-18 0.11253458)
(-0.0018325736 -9.1716957e-18 0.10915064)
(-0.0016496765 -9.2852398e-18 0.1059985)
(-0.0014828599 -9.1553348e-18 0.10301155)
(-0.0013323184 -9.1115391e-18 0.10014639)
(-0.0011972037 -8.3915729e-18 0.097370207)
(-0.0010760403 -7.8704219e-18 0.094650978)
(-0.00096703705 -7.3257251e-18 0.091950138)
(-0.00086829658 -6.7558083e-18 0.089217222)
(-0.00077794723 -6.1118111e-18 0.086385809)
(-0.00069421449 -5.6008249e-18 0.083370303)
(-0.0006154702 -4.9919992e-18 0.0800633)
(-0.00054025913 -3.6185528e-18 0.076333496)
(-0.0004673438 -2.074552e-18 0.072024327)
(-0.00039572117 -6.6897506e-19 0.066953622)
(-0.00032468813 4.9619291e-19 0.06091454)
(-0.00025387011 1.153677e-18 0.053677938)
(-0.00018333974 1.5493039e-18 0.044996484)
(-0.00011422354 1.2327665e-18 0.034614066)
(-5.0201969e-05 7.5489877e-19 0.022294018)
(-4.2381253e-06 2.5303245e-19 0.0078883155)
(-1.0050223e-05 -1.4257968e-18 0.079079373)
(-0.00013671511 -2.5744903e-18 0.18539729)
(-0.00036289125 -3.6796518e-18 0.25533264)
(-0.00066933759 -5.1640582e-18 0.29474665)
(-0.0010349692 -4.5243763e-18 0.30972735)
(-0.001436465 -4.5978143e-18 0.30653596)
(-0.0018462484 -4.7296239e-18 0.29121538)
(-0.0022357739 -5.0615871e-18 0.26909215)
(-0.0025789902 -5.5723112e-18 0.24439106)
(-0.0028556544 -5.9339689e-18 0.22008443)
(-0.0030532438 -6.3459413e-18 0.19797351)
(-0.00316728 -6.9993836e-18 0.17891738)
(-0.0032003966 -6.961535e-18 0.16311047)
(-0.003160717 -7.1939815e-18 0.15033736)
(-0.0030600238 -7.4229488e-18 0.14017174)
(-0.0029120182 -7.419602e-18 0.13211431)
(-0.0027308173 -7.7273483e-18 0.1256787)
(-0.002529748 -8.5933745e-18 0.12043844)
(-0.0023204566 -9.2826522e-18 0.11604712)
(-0.002112351 -9.4152726e-18 0.11224103)
(-0.0019123713 -9.4525973e-18 0.10883097)
(-0.0017250533 -9.9751597e-18 0.10568836)
(-0.0015528262 -9.8149142e-18 0.1027292)
(-0.0013964384 -8.9126699e-18 0.099898364)
(-0.0012554283 -8.7993554e-18 0.097155911)
(-0.0011285542 -7.8964334e-18 0.094466008)
(-0.0010141394 -7.1643119e-18 0.09178849)
(-0.0009103218 -6.6932622e-18 0.089072599)
(-0.00081521591 -6.1286961e-18 0.086252333)
(-0.00072700988 -5.633739e-18 0.083242862)
(-0.00064402833 -4.8010802e-18 0.079937701)
(-0.00056476864 -3.3680346e-18 0.076206532)
(-0.00048794699 -2.0281938e-18 0.071893802)
(-0.0004125302 -6.7259664e-19 0.066818359)
(-0.0003377845 4.5918391e-19 0.060774385)
(-0.00026334864 1.2208708e-18 0.053533865)
(-0.0001893437 1.4676476e-18 0.04485129)
(-0.0001171449 1.2081203e-18 0.034474936)
(-5.085563e-05 7.9259143e-19 0.022178772)
(-4.1139794e-06 2.2230273e-19 0.0078333773)
(-9.5987128e-06 -8.9551301e-19 0.080930921)
(-0.00013072043 -2.2164199e-18 0.19022423)
(-0.00034758591 -3.31378e-18 0.2626222)
(-0.00064237605 -4.2109728e-18 0.30392856)
(-0.00099580544 -4.51682e-18 0.32015805)
(-0.0013865031 -4.6760411e-18 0.31752638)
(-0.0017888457 -4.9106277e-18 0.30209406)
(-0.0021758038 -5.3559959e-18 0.27928002)
(-0.0025220851 -5.7673828e-18 0.25345965)
(-0.0028073417 -6.067038e-18 0.22778034)
(-0.0030181964 -6.4374187e-18 0.20420862)
(-0.0031488124 -7.0131063e-18 0.18373636)
(-0.0032002249 -7.2837752e-18 0.16664952)
(-0.0031789508 -7.4464902e-18 0.15278494)
(-0.003095335 -7.6394366e-18 0.14173647)
(-0.0029619362 -7.7904075e-18 0.13300153)
(-0.0027921096 -8.0550063e-18 0.12607485)
(-0.0025988339 -8.6013141e-18 0.120502)
(-0.0023938059 -9.1959711e-18 0.11590471)
(-0.0021868128 -9.4483395e-18 0.11198739)
(-0.0019853923 -9.5249322e-18 0.10853197)
(-0.0017947718 -9.8022478e-18 0.10538576)
(-0.0016180461 -9.7626598e-18 0.10244623)
(-0.0014565266 -8.9907147e-18 0.099645172)
(-0.0013101699 -8.6054389e-18 0.096934261)
(-0.0011780084 -7.9099657e-18 0.094272873)
(-0.0010585186 -7.1800279e-18 0.09161856)
(-0.00094990211 -6.6518048e-18 0.088919862)
(-0.00085028025 -6.1064603e-18 0.086110971)
(-0.00075781752 -5.5304167e-18 0.083107723)
(-0.00067079984 -4.5758964e-18 0.079804518)
(-0.00058768379 -3.3129318e-18 0.076072027)
(-0.00050714557 -1.9790081e-18 0.071755729)
(-0.0004281227 -6.7380445e-19 0.066675523)
(-0.00034985721 4.2572311e-19 0.060626664)
(-0.0002720054 1.1496948e-18 0.053382387)
(-0.00019474802 1.3782188e-18 0.044699253)
(-0.00011970732 1.170988e-18 0.03433034)
(-5.1390794e-05 7.8146845e-19 0.022060468)
(-3.9974474e-06 2.3969057e-19 0.0077779697)
(-9.1944243e-06 -4.5900346e-19 0.08270117)
(-0.00012534113 -1.7240203e-18 0.19484748)
(-0.00033379107 -2.6506315e-18 0.26962026)
(-0.00061794235 -3.0340215e-18 0.31277222)
(-0.00096004576 -4.2787567e-18 0.33024953)
(-0.0013404214 -5.3750155e-18 0.32822082)
(-0.001735187 -5.1133021e-18 0.31275475)
(-0.0021187317 -5.4378334e-18 0.28934709)
(-0.0024665654 -5.862612e-18 0.26250694)
(-0.0027583974 -6.0873077e-18 0.2355428)
(-0.0029802363 -6.3410583e-18 0.21057784)
(-0.0031251487 -6.4685002e-18 0.18873329)
(-0.0031928177 -7.1894469e-18 0.17038736)
(-0.0031883526 -7.5448869e-18 0.15543229)
(-0.0031207896 -7.8469685e-18 0.14348659)
(-0.0030015937 -8.1353219e-18 0.13404932)
(-0.0028433204 -8.5839319e-18 0.12660123)
(-0.0026584914 -8.7541091e-18 0.12066425)
(-0.0024586973 -9.0073107e-18 0.11583162)
(-0.0022539361 -9.3727488e-18 0.11177818)
(-0.0020521952 -9.450728e-18 0.10825801)
(-0.001859286 -9.3453206e-18 0.10509434)
(-0.0016789148 -9.2511008e-18 0.10216536)
(-0.0015129446 -9.1764026e-18 0.099388698)
(-0.0013617694 -8.3628103e-18 0.096706493)
(-0.0012247273 -7.9167536e-18 0.094072364)
(-0.0011004804 -7.4464762e-18 0.091440868)
(-0.00098732222 -6.6504519e-18 0.088759375)
(-0.00088340348 -6.0313643e-18 0.085962009)
(-0.00078687849 -5.2343728e-18 0.082965137)
(-0.00069600361 -4.4931226e-18 0.079663996)
(-0.00060920248 -3.2264758e-18 0.075930236)
(-0.00052511501 -1.9420777e-18 0.071610381)
(-0.00044265222 -6.756871e-19 0.066525411)
(-0.0003610383 3.7825692e-19 0.060471714)
(-0.00027994935 9.8387121e-19 0.05322389)
(-0.00019963637 1.3074008e-18 0.044540818)
(-0.00012196771 1.1310352e-18 0.034180746)
(-5.1832809e-05 6.9521718e-19 0.021939462)
(-3.8902935e-06 2.5985732e-19 0.007722189)
(-8.8294495e-06 -1.0736913e-18 0.084398476)
(-0.00012048211 -2.1850225e-18 0.19928715)
(-0.00032128397 -3.2591719e-18 0.27635399)
(-0.00059568581 -4.4691119e-18 0.32130628)
(-0.00092726548 -4.6399441e-18 0.34002595)
(-0.0012978183 -5.0199009e-18 0.33863404)
(-0.0016850188 -5.0429459e-18 0.32319992)
(-0.0020645768 -5.0815536e-18 0.2992834)
(-0.0024128152 -5.7470908e-18 0.27151257)
(-0.0027096151 -6.2494416e-18 0.24334447)
(-0.0029405513 -6.7069483e-18 0.21705065)
(-0.0030978037 -7.4175713e-18 0.19387805)
(-0.0031799096 -7.4474237e-18 0.17429703)
(-0.0031907453 -7.7518921e-18 0.15825751)
(-0.0031381664 -7.9236792e-18 0.14540617)
(-0.003032611 -7.903381e-18 0.13524782)
(-0.0028858343 -8.2754083e-18 0.12725327)
(-0.0027098372 -8.8063329e-18 0.12092468)
(-0.0025159915 -9.2509734e-18 0.11583001)
(-0.0023143679 -9.4100758e-18 0.11161685)
(-0.002113268 -9.4760774e-18 0.10801281)
(-0.0019189802 -9.5914637e-18 0.1048174)
(-0.0017357557 -9.2430712e-18 0.1018892)
(-0.001565982 -9.0430424e-18 0.099130815)
(-0.0014104967 -8.6796488e-18 0.096473868)
(-0.0012689659 -7.9402231e-18 0.0938653)
(-0.001140266 -7.3831989e-18 0.091255944)
(-0.0010228099 -6.641171e-18 0.088591501)
(-0.00091479702 -5.9700838e-18 0.08580572)
(-0.00081438689 -5.1567301e-18 0.082815339)
(-0.00071981749 -4.1439428e-18 0.079516359)
(-0.00062948421 -2.9446487e-18 0.075781387)
(-0.00054199625 -1.8784291e-18 0.071458003)
(-0.00045624303 -6.7628715e-19 0.066368293)
(-0.00037143375 3.3872359e-19 0.060309836)
(-0.00028726772 9.3606678e-19 0.05305872)
(-0.0002040779 1.1694111e-18 0.044376385)
(-0.00012397261 1.1730751e-18 0.034026566)
(-5.2200239e-05 6.9591974e-19 0.021816055)
(-3.7923059e-06 2.0143545e-19 0.0076661115)
(-8.4983589e-06 -8.3750834e-19 0.086029901)
(-0.00011606686 -2.0835518e-18 0.20356037)
(-0.00030988273 -3.0975991e-18 0.28284679)
(-0.00057531718 -3.9116838e-18 0.32955587)
(-0.0008971019 -4.3271594e-18 0.34950933)
(-0.0012583297 -4.1868523e-18 0.34878067)
(-0.0016380727 -5.045029e-18 0.33343426)
(-0.0020132643 -5.7494667e-18 0.30908312)
(-0.0023610338 -6.0543897e-18 0.2804616)
(-0.0026615124 -6.4785893e-18 0.25116394)
(-0.0028999802 -6.860122e-18 0.22360221)
(-0.0030678996 -7.4597635e-18 0.19914528)
(-0.0031628307 -7.7509051e-18 0.17835507)
(-0.0031875711 -7.9595104e-18 0.1612408)
(-0.003148915 -8.2227107e-18 0.1474801)
(-0.0030563467 -8.5773069e-18 0.13658685)
(-0.0029208456 -8.5380697e-18 0.12802546)
(-0.0027538604 -8.8014934e-18 0.12128158)
(-0.0025664652 -9.2276398e-18 0.11590084)
(-0.0023686946 -9.4220841e-18 0.11150592)
(-0.0021690488 -9.4734685e-18 0.10779944)
(-0.0019741892 -9.513684e-18 0.1045579)
(-0.0017888399 -9.4831661e-18 0.10162019)
(-0.0016158763 -8.7262482e-18 0.098873354)
(-0.0014565691 -8.4761854e-18 0.096237659)
(-0.0013109287 -7.8901148e-18 0.093652524)
(-0.0011780702 -7.0961688e-18 0.091064338)
(-0.001056548 -6.5720976e-18 0.088416611)
(-0.00094463119 -5.9357084e-18 0.085642378)
(-0.00084050045 -5.3178365e-18 0.082658556)
(-0.00074238473 -4.3617e-18 0.079361816)
(-0.00064865888 -3.1783653e-18 0.075625691)
(-0.00055790614 -1.8508204e-18 0.071298817)
(-0.00046899591 -6.7532604e-19 0.066204412)
(-0.00038112923 3.172653e-19 0.060141305)
(-0.00029403339 1.0234686e-18 0.052887196)
(-0.00020812807 1.2922222e-18 0.044206316)
(-0.00012575871 1.0411333e-18 0.033868166)
(-5.250506e-05 7.4066486e-19 0.021690507)
(-3.6987602e-06 2.2278292e-19 0.0076097958)
(-8.1958795e-06 -4.547639e-19 0.087601472)
(-0.00011203396 -1.6340223e-18 0.20768188)
(-0.00029943992 -2.512098e-18 0.28911897)
(-0.0005565964 -2.9163265e-18 0.33754312)
(-0.0008692478 -4.2026905e-18 0.35871962)
(-0.001221634 -5.2507111e-18 0.35867488)