/*--------------------------------*- C++ -*----------------------------------*\
| =========                 |                                                 |
| \\      /  F ield         | OpenFOAM: The Open Source CFD Toolbox           |
|  \\    /   O peration     | Version:  4.0                                   |
|   \\  /    A nd           | Web:      www.OpenFOAM.org                      |
|    \\/     M anipulation  |                                                 |
\*---------------------------------------------------------------------------*/
FoamFile
{
    version     2.0;
    format      ascii;
    class       volScalarField;
    location    "4000/cilcen";
    object      T;
}
// * * * * * * * * * * * * * * * * * * * * * * * * * * * * * * * * * * * * * //

dimensions      [0 0 0 1 0 0 0];

internalField   nonuniform List<scalar> 
1000
(
430.25957
430.21698
430.15051
430.08041
430.01512
429.95798
429.90981
429.87015
429.83803
429.81232
437.24093
437.2072
437.15457
437.09909
437.04744
437.00225
436.96416
436.93282
436.90744
436.88712
442.59279
442.55877
442.50568
442.44972
442.3976
442.35199
442.31354
442.2819
442.25627
442.23576
446.5911
446.55665
446.50289
446.44621
446.39342
446.34723
446.30829
446.27624
446.25028
446.22951
449.65785
449.62312
449.56894
449.51181
449.45859
449.41204
449.37279
449.34048
449.31432
449.29338
452.05982
452.0249
451.97041
451.91296
451.85945
451.81263
451.77316
451.74068
451.71437
451.69331
453.98619
453.95114
453.89644
453.83878
453.78507
453.73808
453.69846
453.66586
453.63945
453.61831
455.5634
455.52825
455.47341
455.41559
455.36174
455.31463
455.27491
455.24221
455.21573
455.19454
456.88236
456.84715
456.79221
456.73429
456.68034
456.63313
456.59334
456.56059
456.53406
456.51283
458.0054
457.97015
457.91513
457.85713
457.80311
457.75584
457.716
457.6832
457.65664
457.63538
458.97796
458.94267
458.8876
458.82955
458.77548
458.72817
458.68828
458.65545
458.62887
458.60759
459.83209
459.79678
459.74168
459.68358
459.62947
459.58213
459.54222
459.50937
459.48276
459.46147
460.59175
460.55642
460.50129
460.44316
460.38903
460.34166
460.30173
460.26886
460.24224
460.22094
461.27445
461.23911
461.18395
461.12581
461.07165
461.02426
460.98432
460.95144
460.92481
460.90349
461.89365
461.8583
461.80313
461.74496
461.69079
461.64339
461.60343
461.57054
461.5439
461.52258
462.45958
462.42421
462.36903
462.31085
462.25666
462.20925
462.16929
462.13639
462.10975
462.08842
462.98031
462.94494
462.88974
462.83156
462.77736
462.72994
462.68996
462.65706
462.63041
462.60908
463.46221
463.42683
463.37163
463.31343
463.25923
463.2118
463.17182
463.13891
463.11226
463.09092
463.91044
463.87506
463.81985
463.76164
463.70743
463.66
463.62001
463.5871
463.56045
463.53911
464.32918
464.2938
464.23859
464.18038
464.12616
464.07872
464.03873
464.00581
463.97916
463.95782
464.72192
464.68654
464.63132
464.5731
464.51888
464.47144
464.43144
464.39852
464.37187
464.35052
465.09154
465.05615
465.00093
464.94271
464.88849
464.84104
464.80105
464.76812
464.74146
464.72012
465.44049
465.4051
465.34988
465.29165
465.23742
465.18998
465.14998
465.11705
465.09039
465.06905
465.77085
465.73546
465.68023
465.622
465.56777
465.52032
465.48032
465.44739
465.42073
465.39938
466.0844
466.049
465.99377
465.93554
465.88131
465.83386
465.79385
465.76093
465.73426
465.71291
466.38267
466.34728
466.29204
466.23381
466.17958
466.13212
466.09212
466.05919
466.03252
466.01118
466.66702
466.63162
466.57639
466.51816
466.46392
466.41646
466.37646
466.34353
466.31686
466.29551
466.93862
466.90322
466.84798
466.78975
466.73551
466.68805
466.64804
466.61511
466.58845
466.5671
467.19849
467.16309
467.10785
467.04962
466.99538
466.94792
466.90791
466.87498
466.84831
466.82696
467.44756
467.41216
467.35692
467.29868
467.24444
467.19698
467.15697
467.12404
467.09737
467.07602
467.68664
467.65124
467.596
467.53776
467.48351
467.43605
467.39604
467.36311
467.33644
467.31509
467.91645
467.88105
467.82581
467.76757
467.71332
467.66586
467.62585
467.59292
467.56625
467.54489
468.13764
468.10224
468.047
467.98876
467.93451
467.88705
467.84704
467.8141
467.78743
467.76608
468.35081
468.31541
468.26016
468.20192
468.14767
468.10021
468.0602
468.02726
468.00059
467.97924
468.55647
468.52107
468.46583
468.40758
468.35333
468.30587
468.26586
468.23292
468.20625
468.1849
468.75512
468.71971
468.66447
468.60622
468.55197
468.50451
468.4645
468.43156
468.40489
468.38354
468.94717
468.91177
468.85652
468.79828
468.74403
468.69657
468.65655
468.62362
468.59694
468.57559
469.13304
469.09764
469.04239
468.98415
468.9299
468.88243
468.84242
468.80948
468.78281
468.76146
469.31308
469.27768
469.22243
469.16419
469.10994
469.06247
469.02246
468.98952
468.96285
468.9415
469.48763
469.45223
469.39698
469.33873
469.28448
469.23702
469.197
469.16407
469.13739
469.11604
469.65699
469.62159
469.56634
469.50809
469.45384
469.40638
469.36636
469.33343
469.30675
469.2854
469.82145
469.78604
469.73079
469.67255
469.6183
469.57083
469.53081
469.49788
469.4712
469.44985
469.98126
469.94585
469.8906
469.83235
469.7781
469.73064
469.69062
469.65768
469.63101
469.60966
470.13665
470.10125
470.046
469.98775
469.9335
469.88603
469.84602
469.81308
469.78641
469.76505
470.28787
470.25246
470.19721
470.13896
470.08471
470.03724
469.99723
469.96429
469.93762
469.91626
470.4351
470.39969
470.34444
470.2862
470.23194
470.18448
470.14446
470.11152
470.08485
470.06349
470.57855
470.54314
470.48789
470.42964
470.37539
470.32792
470.2879
470.25496
470.22829
470.20694
470.71838
470.68297
470.62772
470.56947
470.51522
470.46775
470.42774
470.3948
470.36812
470.34677
470.85477
470.81936
470.76411
470.70586
470.65161
470.60414
470.56413
470.53119
470.50451
470.48316
470.98787
470.95247
470.89722
470.83897
470.78471
470.73724
470.69723
470.66429
470.63761
470.61626
471.11783
471.08243
471.02717
470.96893
470.91467
470.8672
470.82719
470.79425
470.76757
470.74622
471.24479
471.20938
471.15413
471.09588
471.04162
470.99415
470.95414
470.9212
470.89452
470.87317
471.36886
471.33345
471.2782
471.21995
471.16569
471.11823
471.07821
471.04527
471.0186
470.99724
471.49017
471.45476
471.39951
471.34126
471.28701
471.23954
471.19952
471.16658
471.13991
471.11855
471.60884
471.57343
471.51818
471.45993
471.40567
471.3582
471.31819
471.28525
471.25857
471.23722
471.72496
471.68956
471.6343
471.57605
471.5218
471.47433
471.43431
471.40137
471.3747
471.35334
471.83865
471.80324
471.74799
471.68974
471.63548
471.58801
471.548
471.51506
471.48838
471.46703
471.94999
471.91458
471.85933
471.80108
471.74682
471.69935
471.65933
471.62639
471.59972
471.57836
472.05907
472.02366
471.96841
471.91016
471.8559
471.80843
471.76841
471.73547
471.7088
471.68744
472.16598
472.13057
472.07532
472.01706
471.96281
471.91534
471.87532
471.84238
471.81571
471.79435
472.27079
472.23538
472.18013
472.12188
472.06762
472.02015
471.98013
471.94719
471.92052
471.89917
472.37359
472.33818
472.28293
472.22467
472.17042
472.12295
472.08293
472.04999
472.02332
472.00196
472.47444
472.43903
472.38378
472.32552
472.27127
472.2238
472.18378
472.15084
472.12417
472.10281
472.57341
472.538
472.48275
472.4245
472.37024
472.32277
472.28275
472.24981
472.22314
472.20178
472.67057
472.63516
472.57991
472.52165
472.4674
472.41993
472.37991
472.34697
472.32029
472.29894
472.76597
472.73056
472.67531
472.61706
472.5628
472.51533
472.47531
472.44237
472.4157
472.39434
472.85969
472.82428
472.76902
472.71077
472.65651
472.60905
472.56903
472.53609
472.50941
472.48806
472.95176
472.91635
472.8611
472.80284
472.74859
472.70112
472.6611
472.62816
472.60148
472.58013
473.04225
473.00684
472.95158
472.89333
472.83907
472.79161
472.75159
472.71865
472.69197
472.67062
473.1312
473.09579
473.04054
472.98228
472.92803
472.88056
472.84054
472.8076
472.78092
472.75957
473.21866
473.18325
473.128
473.06975
473.01549
472.96802
472.928
472.89506
472.86839
472.84703
473.30469
473.26928
473.21403
473.15577
473.10152
473.05405
473.01403
472.98109
472.95441
472.93306
473.38932
473.35391
473.29865
473.2404
473.18614
473.13867
473.09865
473.06571
473.03904
473.01768
473.47259
473.43718
473.38193
473.32367
473.26942
473.22195
473.18193
473.14899
473.12231
473.10096
473.55455
473.51914
473.46388
473.40563
473.35137
473.3039
473.26389
473.23094
473.20427
473.18291
473.63523
473.59982
473.54457
473.48631
473.43206
473.38459
473.34457
473.31163
473.28495
473.2636
473.71467
473.67926
473.62401
473.56576
473.5115
473.46403
473.42401
473.39107
473.36439
473.34304
473.79291
473.7575
473.70225
473.64399
473.58974
473.54227
473.50225
473.46931
473.44263
473.42128
473.86998
473.83457
473.77932
473.72106
473.6668
473.61933
473.57931
473.54637
473.5197
473.49834
473.94591
473.9105
473.85525
473.79699
473.74274
473.69526
473.65525
473.6223
473.59563
473.57427
474.02073
473.98532
473.93007
473.87182
473.81756
473.77009
473.73007
473.69713
473.67045
473.6491
474.09448
474.05907
474.00382
473.94556
473.89131
473.84384
473.80382
473.77088
473.7442
473.72285
474.16718
474.13177
474.07652
474.01827
473.96401
473.91654
473.87652
473.84358
473.8169
473.79555
474.23887
474.20346
474.1482
474.08995
474.03569
473.98822
473.9482
473.91526
473.88858
473.86723
474.30956
474.27415
474.21889
474.16064
474.10638
474.05891
474.01889
473.98595
473.95928
473.93792
474.37929
474.34388
474.28862
474.23037
474.17611
474.12864
474.08862
474.05568
474.02901
474.00765
474.44809
474.41268
474.35742
474.29917
474.24491
474.19744
474.15742
474.12448
474.0978
474.07645
474.51599
474.48058
474.42532
474.36707
474.31281
474.26534
474.22532
474.19238
474.16571
474.14435
474.58304
474.54763
474.49238
474.43412
474.37986
474.33239
474.29237
474.25943
474.23276
474.2114
474.64931
474.6139
474.55864
474.50039
474.44613
474.39866
474.35864
474.3257
474.29902
474.27767
474.7149
474.67949
474.62423
474.56598
474.51172
474.46425
474.42423
474.39129
474.36461
474.34325
474.78001
474.74459
474.68934
474.63108
474.57683
474.52935
474.48933
474.45639
474.42971
474.40836
474.84499
474.80958
474.75433
474.69607
474.64181
474.59434
474.55432
474.52137
474.4947
474.47334
474.91056
474.87515
474.81989
474.76163
474.70737
474.6599
474.61987
474.58693
474.56025
474.53889
474.97806
474.94264
474.88738
474.82911
474.77485
474.72737
474.68734
474.6544
474.62772
474.60636
475.05017
475.01475
474.95948
474.90121
474.84693
474.79945
474.75941
474.72646
474.69978
474.67842
475.13178
475.09635
475.04106
474.98277
474.92848
474.88098
474.84094
474.80798
474.78129
474.75992
475.23351
475.19807
475.14277
475.08447
475.03016
474.98265
474.94259
474.90962
474.88293
474.86155
475.36439
475.3289
475.27352
475.21513
475.16075
475.11317
475.07305
475.04004
475.0133
474.99189
475.57268
475.53748
475.48256
475.42466
475.37073
475.32355
475.28377
475.25103
475.22451
475.20329
)
;

boundaryField
{
    cilcentop
    {
        type            zeroGradient;
    }
    cilcenbot
    {
        type            zeroGradient;
    }
    leftcenWedge
    {
        type            symmetry;
    }
    rigtcenWedge
    {
        type            symmetry;
    }
    cilcen_to_fluid
    {
        type            compressible::turbulentTemperatureRadCoupledMixed;
        refValue        nonuniform List<scalar> 
100
(
425.80187
434.32886
439.78431
443.8341
446.95046
449.39497
451.35971
452.97051
454.31981
455.46995
456.46716
457.34365
458.12381
458.82531
459.4619
460.04393
460.57967
461.07558
461.53695
461.96806
462.37246
462.75311
463.11252
463.45281
463.77582
464.08312
464.3761
464.65595
464.92375
465.18043
465.42682
465.66367
465.89166
466.11138
466.32337
466.52813
466.72612
466.91773
467.10334
467.28329
467.45789
467.62745
467.79221
467.95244
468.10835
468.26016
468.40807
468.55226
468.6929
468.83016
468.96417
469.09509
469.22303
469.34814
469.47052
469.59027
469.70752
469.82234
469.93484
470.0451
470.1532
470.25922
470.36323
470.46531
470.56552
470.66393
470.76058
470.85555
470.94888
471.04063
471.13085
471.21958
471.30688
471.39277
471.47731
471.56054
471.64249
471.72319
471.80269
471.88102
471.9582
472.03428
472.10928
472.18322
472.25615
472.32808
472.39905
472.4691
472.53826
472.60661
472.67425
472.74137
472.80832
472.87577
472.94502
473.01871
473.10136
473.20503
473.33276
473.58969
)
;
        refGradient     nonuniform List<scalar> 
100
(
-96.837787
-105.19831
-111.7922
-116.87427
-120.86672
-124.05159
-126.64318
-128.78995
-130.60264
-132.15862
-133.5155
-134.71438
-135.78635
-136.7543
-137.63598
-138.44494
-139.19194
-139.88551
-140.53257
-141.13879
-141.70885
-142.24669
-142.75564
-143.23853
-143.6978
-144.13558
-144.5537
-144.95379
-145.33727
-145.7054
-146.05933
-146.40006
-146.72848
-147.04543
-147.35164
-147.64778
-147.93447
-148.21225
-148.48165
-148.74312
-148.9971
-149.24399
-149.48415
-149.71793
-149.94563
-150.16755
-150.38396
-150.59512
-150.80127
-151.00261
-151.19937
-151.39174
-151.57989
-151.764
-151.94424
-152.12075
-152.29367
-152.46315
-152.62931
-152.79228
-152.95216
-153.10907
-153.26311
-153.41437
-153.56296
-153.70896
-153.85245
-153.99352
-154.13224
-154.26868
-154.40292
-154.53502
-154.66505
-154.79307
-154.91913
-155.04329
-155.16561
-155.28614
-155.40492
-155.522
-155.63744
-155.75127
-155.86354
-155.97428
-156.08355
-156.19137
-156.29781
-156.4029
-156.50672
-156.60937
-156.71101
-156.81195
-156.91273
-157.01444
-157.11917
-157.23106
-157.35767
-157.51564
-157.71834
-158.0476
)
;
        valueFraction   nonuniform List<scalar> 
100
(
0.0019215056
0.00194366
0.0019602771
0.0019726151
0.0019820408
0.0019894
0.0019952879
0.0020000991
0.0020041161
0.0020075319
0.0020104866
0.0020130789
0.0020153824
0.0020174509
0.0020193257
0.002021038
0.0020226126
0.002024069
0.0020254229
0.0020266872
0.0020278723
0.0020289873
0.0020300394
0.0020310352
0.0020319799
0.0020328783
0.0020337344
0.0020345519
0.0020353339
0.0020360831
0.0020368021
0.0020374931
0.0020381579
0.0020387985
0.0020394164
0.002040013
0.0020405898
0.0020411478
0.0020416883
0.0020422121
0.0020427203
0.0020432136
0.002043693
0.002044159
0.0020446124
0.0020450537
0.0020454837
0.0020459028
0.0020463114
0.0020467102
0.0020470995
0.0020474797
0.0020478513
0.0020482145
0.0020485698
0.0020489174
0.0020492577
0.0020495909
0.0020499173
0.0020502371
0.0020505507
0.0020508582
0.0020511598
0.0020514558
0.0020517463
0.0020520315
0.0020523117
0.0020525869
0.0020528574
0.0020531232
0.0020533846
0.0020536416
0.0020538945
0.0020541433
0.0020543881
0.0020546291
0.0020548663
0.0020551
0.0020553301
0.0020555568
0.0020557802
0.0020560004
0.0020562174
0.0020564314
0.0020566424
0.0020568505
0.0020570558
0.0020572584
0.0020574584
0.0020576561
0.0020578518
0.002058046
0.0020582398
0.0020584353
0.0020586365
0.0020588514
0.0020590944
0.0020593975
0.002059786
0.0020604163
)
;
        value           nonuniform List<scalar> 
100
(
429.8008
436.87802
442.22657
446.22021
449.28401
451.68389
453.60886
455.18507
456.50334
457.62588
458.59808
459.45195
460.21142
460.89397
461.51306
462.07889
462.59955
463.0814
463.52958
463.94829
464.341
464.71059
465.05952
465.38986
465.70339
466.00165
466.28598
466.55757
466.81743
467.0665
467.30556
467.53537
467.75656
467.96972
468.17538
468.37401
468.56607
468.75193
468.93197
469.10652
469.27588
469.44033
469.60013
469.75553
469.90674
470.05397
470.19742
470.33725
470.47364
470.60674
470.7367
470.86365
470.98773
471.10904
471.22771
471.34383
471.45752
471.56885
471.67794
471.78484
471.88966
471.99245
472.0933
472.19228
472.28943
472.38484
472.47855
472.57063
472.66111
472.75007
472.83753
472.92356
473.00819
473.09146
473.17342
473.2541
473.33354
473.41178
473.48885
473.56478
473.63961
473.71336
473.78606
473.85774
473.92843
473.99816
474.06696
474.13487
474.20192
474.26818
474.33377
474.39888
474.46386
474.52941
474.59688
474.66894
474.75044
474.85207
474.9824
475.19388
)
;
        Tnbr            T;
        QrNbr           Qr;
        Qr              none;
        thicknessLayers 0();
        kappaLayers     0();
        kappaMethod     solidThermo;
        kappa           none;
        alphaAni        Anialpha;
    }
}


// ************************************************************************* //
