/*--------------------------------*- C++ -*----------------------------------*\
| =========                 |                                                 |
| \\      /  F ield         | OpenFOAM: The Open Source CFD Toolbox           |
|  \\    /   O peration     | Version:  3.0.1                                 |
|   \\  /    A nd           | Web:      www.OpenFOAM.org                      |
|    \\/     M anipulation  |                                                 |
\*---------------------------------------------------------------------------*/
FoamFile
{
    version     2.0;
    format      ascii;
    class       surfaceScalarField;
    location    "2409";
    object      phi;
}
// * * * * * * * * * * * * * * * * * * * * * * * * * * * * * * * * * * * * * //

dimensions      [1 0 -1 0 0 0 0];

internalField   nonuniform List<scalar> 
7860
(
4.3353162e-09
1.5040536e-08
1.2523926e-08
4.6840988e-08
2.0466352e-08
8.3815804e-08
2.6129559e-08
1.2346477e-07
2.9384607e-08
1.6434637e-07
3.0965595e-08
2.0645014e-07
3.165547e-08
2.506682e-07
3.1979523e-08
2.9810826e-07
3.2208122e-08
3.4969823e-07
3.2448039e-08
4.060741e-07
3.272274e-08
4.6760143e-07
3.3020908e-08
5.3442885e-07
3.3320096e-08
6.065341e-07
3.3596449e-08
6.8375589e-07
3.3828752e-08
7.6581514e-07
3.4005866e-08
8.5232852e-07
3.4128957e-08
9.4283426e-07
3.4157123e-08
1.0368749e-06
3.4066024e-08
1.1339091e-06
3.3837112e-08
1.2334207e-06
3.3455214e-08
1.3349495e-06
3.2908844e-08
1.43813e-06
3.2190617e-08
1.5427232e-06
3.1296927e-08
1.6486399e-06
3.0230654e-08
1.7559231e-06
2.900129e-08
1.8647041e-06
2.7624783e-08
1.9750915e-06
2.6123767e-08
2.0869776e-06
2.4526847e-08
2.1997265e-06
2.2867877e-08
2.3117132e-06
2.1184367e-08
2.4196762e-06
1.951456e-08
2.5178624e-06
1.7890773e-08
2.5969577e-06
1.6331491e-08
2.6428545e-06
1.4822784e-08
2.6353421e-06
1.3298062e-08
2.5469244e-06
1.1573549e-08
2.3418964e-06
9.2716489e-09
1.9759891e-06
5.5382995e-09
1.3962457e-06
5.405316e-07
-5.848692e-10
1.5625406e-08
-1.9633415e-09
4.821946e-08
-4.0255432e-09
8.5878006e-08
-6.6852746e-09
1.261245e-07
-9.5418238e-09
1.6720292e-07
-1.1992665e-08
2.0890098e-07
-1.3576045e-08
2.5225158e-07
-1.4133681e-08
2.986659e-07
-1.3750413e-08
3.4931496e-07
-1.2622992e-08
4.0494668e-07
-1.096145e-08
4.6593989e-07
-8.9430983e-09
5.3241049e-07
-6.7028153e-09
6.0429383e-07
-4.3398964e-09
6.8139297e-07
-1.9276684e-09
7.6340291e-07
4.8099621e-10
8.4991987e-07
2.84533e-09
9.4046992e-07
5.105712e-09
1.0346145e-06
7.2110395e-09
1.1318038e-06
9.1184101e-09
1.2315133e-06
1.0792079e-08
1.3332759e-06
1.2207687e-08
1.4367144e-06
1.3381681e-08
1.5415492e-06
1.4261248e-08
1.6477603e-06
1.4831151e-08
1.7553533e-06
1.509841e-08
1.8644368e-06
1.5084433e-08
1.9751055e-06
1.4822948e-08
2.0872391e-06
1.435855e-08
2.2001909e-06
1.3745159e-08
2.3123266e-06
1.3044329e-08
2.420377e-06
1.2319745e-08
2.518587e-06
1.1627039e-08
2.5976504e-06
1.1000795e-08
2.6434808e-06
1.042824e-08
2.6359148e-06
9.8124748e-09
2.54754e-06
8.8902348e-09
2.3428188e-06
7.1333314e-09
1.9777459e-06
3.751241e-09
1.3996281e-06
5.4428253e-07
-9.1019359e-10
1.65356e-08
-3.5677961e-09
5.0877063e-08
-7.8602994e-09
9.017051e-08
-1.3371986e-08
1.3163619e-07
-1.9351341e-08
1.7318227e-07
-2.4845053e-08
2.1439469e-07
-2.9051585e-08
2.5645811e-07
-3.158706e-08
3.0120137e-07
-3.2480882e-08
3.5020878e-07
-3.2007598e-08
4.044734e-07
-3.0515299e-08
4.6444759e-07
-2.8321474e-08
5.3021667e-07
-2.5674239e-08
6.016466e-07
-2.2752726e-08
6.7847146e-07
-1.9683355e-08
7.6033353e-07
-1.6562598e-08
8.4679911e-07
-1.3476076e-08
9.3738341e-07
-1.0468423e-08
1.0316069e-06
-7.5928931e-09
1.1289283e-06
-4.8980793e-09
1.2288185e-06
-2.4250202e-09
1.3308028e-06
-2.021352e-10
1.4344915e-06
1.7674742e-09
1.5395795e-06
3.4401226e-09
1.6460877e-06
4.7927326e-09
1.7540007e-06
5.8239622e-09
1.8634055e-06
6.5492444e-09
1.9743803e-06
7.008293e-09
2.08678e-06
7.2396179e-09
2.1999596e-06
7.280395e-09
2.3122858e-06
7.1940225e-09
2.4204633e-06
7.0501994e-09
2.5187309e-06
6.9118386e-09
2.5977887e-06
6.8188428e-09
2.6435737e-06
6.7608701e-09
2.6359728e-06
6.6312887e-09
2.5476695e-06
6.1499051e-09
2.3433002e-06
4.8123555e-09
1.9790835e-06
2.2082504e-09
1.4022323e-06
5.4649078e-07
-8.5032118e-10
1.7385921e-08
-3.542455e-09
5.3569196e-08
-8.2719053e-09
9.4899962e-08
-1.4850396e-08
1.3821468e-07
-2.2578788e-08
1.8091067e-07
-3.0341037e-08
2.2215695e-07
-3.6991463e-08
2.6310854e-07
-4.1768772e-08
3.0597868e-07
-4.4443415e-08
3.5288343e-07
-4.5199296e-08
4.0522927e-07
-4.4423144e-08
4.6367144e-07
-4.2534049e-08
5.2832757e-07
-3.9891941e-08
5.990045e-07
-3.6770252e-08
6.7534977e-07
-3.3364556e-08
7.5692783e-07
-2.9816483e-08
8.4325106e-07
-2.6234923e-08
9.3380185e-07
-2.2690525e-08
1.0280625e-06
-1.9247401e-08
1.1254851e-06
-1.596296e-08
1.2255341e-06
-1.2886316e-08
1.3277261e-06
-1.0057701e-08
1.4316629e-06
-7.5326055e-09
1.5370544e-06
-5.3122545e-09
1.6438673e-06
-3.4109537e-09
1.7520993e-06
-1.8331438e-09
1.8618277e-06
-5.6725507e-10
1.9731144e-06
4.1958829e-10
2.0857932e-06
1.1636419e-09
2.1992155e-06
1.7034811e-09
2.311746e-06
2.099197e-09
2.4200676e-06
2.4193643e-09
2.5184107e-06
2.7271075e-09
2.597481e-06
3.0644693e-09
2.6432363e-06
3.446908e-09
2.6355904e-06
3.7672284e-09
2.5473491e-06
3.747981e-09
2.3433195e-06
2.9625352e-09
1.9798689e-06
1.2625506e-09
1.403932e-06
5.4775369e-07
-7.5488291e-10
1.8140803e-08
-3.2383033e-09
5.6052616e-08
-7.8088419e-09
9.94705e-08
-1.4524206e-08
1.4493004e-07
-2.2919612e-08
1.8930607e-07
-3.1968711e-08
2.3120605e-07
-4.0384495e-08
2.7152432e-07
-4.709393e-08
3.1268811e-07
-5.1544552e-08
3.5733406e-07
-5.3709116e-08
4.0739384e-07
-5.3903482e-08
4.6386581e-07
-5.2579587e-08
5.2700368e-07
-5.0180341e-08
5.9660525e-07
-4.7070322e-08
6.7223975e-07
-4.3522145e-08
7.5337965e-07
-3.9732334e-08
8.3946124e-07
-3.5842987e-08
9.299125e-07
-3.1951324e-08
1.0241708e-06
-2.8135103e-08
1.1216689e-06
-2.4460296e-08
1.2218593e-06
-2.0982989e-08
1.3242488e-06
-1.7751165e-08
1.4284311e-06
-1.4817015e-08
1.5341203e-06
-1.2193978e-08
1.6412443e-06
-9.8965457e-09
1.7498019e-06
-7.9299342e-09
1.8598611e-06
-6.2842422e-09
1.9714687e-06
-4.9399431e-09
2.0844489e-06
-3.8567361e-09
2.1981322e-06
-2.9757777e-09
2.3108651e-06
-2.2359337e-09
2.4193278e-06
-1.5695086e-09
2.5177443e-06
-9.1361771e-10
2.596825e-06
-2.2511083e-10
2.6425479e-06
5.0521186e-10
2.63486e-06
1.1790113e-09
2.5466753e-06
1.5561134e-09
2.3429424e-06
1.3308223e-09
1.9800942e-06
5.0367053e-10
1.4047591e-06
5.482574e-07
-6.8275791e-10
1.8823561e-08
-2.9678336e-09
5.8337691e-08
-7.2760572e-09
1.0377872e-07
-1.3819542e-08
1.5147353e-07
-2.2356464e-08
1.97843e-07
-3.2049891e-08
2.4089947e-07
-4.163886e-08
2.8111329e-07
-4.987667e-08
3.2092592e-07
-5.5931234e-08
3.6338862e-07
-5.9521494e-08
4.109841e-07
-6.0813221e-08
4.6515753e-07
-6.0219026e-08
5.2640948e-07
-5.8219367e-08
5.946056e-07
-5.5251389e-08
6.6927177e-07
-5.1663559e-08
7.4979182e-07
-4.7714334e-08
8.3551201e-07
-4.3589081e-08
9.2578724e-07
-3.9416605e-08
1.0199983e-06
-3.5293334e-08
1.1175456e-06
-3.12966e-08
1.2178625e-06
-2.7490335e-08
1.3204426e-06
-2.392916e-08
1.4248699e-06
-2.0664537e-08
1.5308557e-06
-1.7718586e-08
1.6382983e-06
-1.5107089e-08
1.7471904e-06
-1.2835995e-08
1.85759e-06
-1.0896474e-08
1.9695292e-06
-9.2674246e-09
2.0828199e-06
-7.907178e-09
2.196772e-06
-6.755467e-09
2.3097133e-06
-5.7459081e-09
2.4183183e-06
-4.8061005e-09
2.5168044e-06
-3.8674948e-09
2.5958865e-06
-2.8832152e-09
2.6415636e-06
-1.8673732e-09
2.6338442e-06
-9.0470307e-10
2.5457125e-06
-1.8441919e-10
2.3422222e-06
8.0016212e-11
1.9798298e-06
-3.0035117e-11
1.404869e-06
5.4822733e-07
-6.2483785e-10
1.94484e-08
-2.7378976e-09
6.045075e-08
-6.7805039e-09
1.0782133e-07
-1.3053694e-08
1.5774672e-07
-2.1485163e-08
2.0627446e-07
-3.1435028e-08
2.5084934e-07
-4.1753788e-08
2.9143205e-07
-5.1138962e-08
3.303111e-07
-5.8561305e-08
3.7081096e-07
-6.3501359e-08
4.1592415e-07
-6.5937639e-08
4.675938e-07
-6.6187144e-08
5.2665899e-07
-6.4719345e-08
5.9313779e-07
-6.2014366e-08
6.665668e-07
-5.8485179e-08
7.4626264e-07
-5.4452756e-08
8.3147958e-07
-5.0151951e-08
9.2148643e-07
-4.5748436e-08
1.0155948e-06
-4.1362262e-08
1.1131595e-06
-3.7085418e-08
1.2135857e-06
-3.2991335e-08
1.3163485e-06
-2.9141241e-08
1.4210199e-06
-2.5588116e-08
1.5273025e-06
-2.2360477e-08
1.6350707e-06
-1.9476275e-08
1.7443062e-06
-1.6942239e-08
1.855056e-06
-1.4750222e-08
1.9673371e-06
-1.2877583e-08
2.0809473e-06
-1.1281525e-08
2.1951759e-06
-9.8998798e-09
2.3083317e-06
-8.6622099e-09
2.4170806e-06
-7.491412e-09
2.5156336e-06
-6.3141712e-09
2.5947092e-06
-5.0795164e-09
2.6403288e-06
-3.793691e-09
2.6325585e-06
-2.534809e-09
2.5444535e-06
-1.4717892e-09
2.3411592e-06
-7.861068e-10
1.9791441e-06
-3.765844e-10
1.4044597e-06
5.4785064e-07
-5.7781532e-10
2.0026214e-08
-2.5449907e-09
6.2417927e-08
-6.3447294e-09
1.1162107e-07
-1.2328094e-08
1.6373008e-07
-2.0544193e-08
2.1449056e-07
-3.0525811e-08
2.6083096e-07
-4.1265098e-08
3.0217133e-07
-5.1480892e-08
3.405269e-07
-6.0026804e-08
3.7935687e-07
-6.6188134e-08
4.2208548e-07
-6.9753085e-08
4.7115876e-07
-7.0909564e-08
5.2781546e-07
-7.0074682e-08
5.9230291e-07
-6.773871e-08
6.6423084e-07
-6.4360587e-08
7.4288451e-07
-6.0317998e-08
8.27437e-07
-5.5897533e-08
9.1706595e-07
-5.1305783e-08
1.0110031e-06
-4.6691349e-08
1.1085451e-06
-4.2164334e-08
1.2090587e-06
-3.7809942e-08
1.3119941e-06
-3.3696799e-08
1.4169067e-06
-2.9880933e-08
1.5234867e-06
-2.6396445e-08
1.6315862e-06
-2.3263886e-08
1.7411736e-06
-2.0491002e-08
1.8522831e-06
-1.8070066e-08
1.9649162e-06
-1.5977469e-08
2.0788547e-06
-1.4169099e-08
2.1933675e-06
-1.2581396e-08
2.3067439e-06
-1.1139895e-08
2.4156392e-06
-9.7634411e-09
2.5142572e-06
-8.3744101e-09
2.5933201e-06
-6.9172744e-09
2.6388718e-06
-5.3918205e-09
2.631033e-06
-3.8687846e-09
2.5429305e-06
-2.5003953e-09
2.3397909e-06
-1.438134e-09
1.9780818e-06
-6.1512262e-10
1.4036367e-06
5.4723563e-07
-5.3874417e-10
2.0564959e-08
-2.3815195e-09
6.4260703e-08
-5.9649558e-09
1.152045e-07
-1.1667489e-08
1.6943262e-07
-1.9624074e-08
2.2244715e-07
-2.9509732e-08
2.7071662e-07
-4.0460277e-08
3.1312187e-07
-5.1259138e-08
3.5132576e-07
-6.070552e-08
3.8880326e-07
-6.7938957e-08
4.2931893e-07
-7.2574866e-08
4.7579466e-07
-7.4659143e-08
5.2989974e-07
-7.4527333e-08
5.9217109e-07
-7.2649435e-08
6.6235294e-07
-6.9508337e-08
7.3974342e-07
-6.5527659e-08
8.2345631e-07
-6.1043478e-08
9.1258177e-07
-5.6305635e-08
1.0062652e-06
-5.1494965e-08
1.1037344e-06
-4.6743516e-08
1.2043072e-06
-4.2150604e-08
1.3074012e-06
-3.7793694e-08
1.4125498e-06
-3.37334e-08
1.5194264e-06
-3.0009062e-08
1.6278618e-06
-2.6644024e-08
1.7378086e-06
-2.3647467e-08
1.8492866e-06
-2.1012183e-08
1.9622809e-06
-1.8713786e-08
2.0765563e-06
-1.6707234e-08
2.1913609e-06
-1.4927388e-08
2.3049641e-06
-1.3296754e-08
2.4140086e-06
-1.1730628e-08
2.512691e-06
-1.0147134e-08
2.5917367e-06
-8.4875849e-09
2.6372121e-06
-6.7449284e-09
2.6292906e-06
-4.9837672e-09
2.5411692e-06
-3.3408214e-09
2.338148e-06
-1.947692e-09
1.9766886e-06
-7.8180088e-10
1.4024713e-06
5.4645346e-07
-5.0567855e-10
2.1070637e-08
-2.2413224e-09
6.5996347e-08
-5.6331606e-09
1.1859634e-07
-1.1073583e-08
1.7487304e-07
-1.8758315e-08
2.3013188e-07
-2.8476988e-08
2.8043529e-07
-3.9498847e-08
3.2414373e-07
-5.0692929e-08
3.6251984e-07
-6.0848251e-08
3.9895858e-07
-6.9003659e-08
4.3747433e-07
-7.4628366e-08
4.8141937e-07
-7.7628324e-08
5.328997e-07
-7.8240641e-08
5.9278341e-07
-7.6890595e-08
6.6100289e-07
-7.4063091e-08
7.3691591e-07
-7.0213513e-08
8.1960675e-07
-6.5721746e-08
9.0809e-07
-6.0880519e-08
1.001424e-06
-5.5905573e-08
1.0987595e-06
-5.0954079e-08
1.1993558e-06
-4.6142211e-08
1.3025893e-06
-4.1557958e-08
1.4079655e-06
-3.7268031e-08
1.5151365e-06
-3.3316975e-08
1.6239108e-06
-2.973159e-08
1.7342232e-06
-2.6522488e-08
1.8460775e-06
-2.3683202e-08
1.9594416e-06
-2.1188812e-08
2.074062e-06
-1.89935e-08
2.1891656e-06
-1.7031046e-08
2.3030015e-06
-1.5221066e-08
2.4121987e-06
-1.3475959e-08
2.5109458e-06
-1.1710403e-08
2.5899712e-06
-9.8621504e-09
2.6353638e-06
-7.919414e-09
2.6273479e-06
-5.9394879e-09
2.5391892e-06
-4.0463897e-09
2.336255e-06
-2.3596022e-09
1.9750016e-06
-9.0706638e-10
1.4010188e-06
5.4554636e-07
-4.7726478e-10
2.1547902e-08
-2.1196981e-09
6.7638779e-08
-5.3415236e-09
1.2181817e-07
-1.0540944e-08
1.8007246e-07
-1.795692e-08
2.3754786e-07
-2.7470812e-08
2.8994918e-07
-3.8471018e-08
3.3514393e-07
-4.9919779e-08
3.7396861e-07
-6.0625212e-08
4.0966401e-07
-6.9562301e-08
4.4641142e-07
-7.6082559e-08
4.8793963e-07
-7.9962928e-08
5.3678006e-07
-8.1335575e-08
5.9415606e-07
-8.0563736e-08
6.6023106e-07
-7.8114823e-08
7.34467e-07
-7.4460733e-08
8.1595266e-07
-7.0016553e-08
9.0364582e-07
-6.5115217e-08
9.9652266e-07
-6.0008449e-08
1.0936527e-06
-5.4881197e-08
1.1942285e-06
-4.9868938e-08
1.297577e-06
-4.5072255e-08
1.4031689e-06
-4.0565469e-08
1.5106297e-06
-3.6398898e-08
1.6197442e-06
-3.2602932e-08
1.7304273e-06
-2.9190149e-08
1.8426647e-06
-2.6154874e-08
1.9564063e-06
-2.3472051e-08
2.0713792e-06
-2.1095162e-08
2.1867888e-06
-1.8956914e-08
2.3008632e-06
-1.6974833e-08
2.4102167e-06
-1.5058445e-08
2.5090294e-06
-1.311969e-08
2.5880325e-06
-1.1093367e-08
2.6333374e-06
-8.9629187e-09
2.6252175e-06
-6.7791814e-09
2.5370056e-06
-4.6550914e-09
2.3341308e-06
-2.7039351e-09
1.9730504e-06
-1.0055376e-09
1.3993208e-06
5.4454057e-07
-4.5253498e-10
2.2000438e-08
-2.0130851e-09
6.9199329e-08
-5.0833912e-09
1.2488847e-07
-1.0062434e-08
1.8505151e-07
-1.7220013e-08
2.4470543e-07
-2.6511018e-08
2.9924019e-07
-3.7428159e-08
3.4606107e-07
-4.9027109e-08
3.8556756e-07
-6.0153358e-08
4.2079026e-07
-6.9746585e-08
4.5600465e-07
-7.7067051e-08
4.9526008e-07
-8.1777878e-08
5.414909e-07
-8.3907341e-08
5.9628552e-07
-8.3746114e-08
6.6006984e-07
-8.1728361e-08
7.3244924e-07
-7.832762e-08
8.1255192e-07
-7.3984022e-08
8.9930222e-07
-6.9065956e-08
9.9160459e-07
-6.3860533e-08
1.0884473e-06
-5.8582086e-08
1.1889501e-06
-5.3387811e-08
1.2923828e-06
-4.8392873e-08
1.3981739e-06
-4.3680853e-08
1.5059177e-06
-3.9308526e-08
1.6153719e-06
-3.5310377e-08
1.7264291e-06
-3.1701327e-08
1.8390556e-06
-2.8476698e-08
1.9531817e-06
-2.5611497e-08
2.068514e-06
-2.3058773e-08
2.1842359e-06
-2.0750022e-08
2.2985546e-06
-1.8601388e-08
2.408068e-06
-1.6519668e-08
2.5069476e-06
-1.441456e-08
2.5859274e-06
-1.2218009e-08
2.6311408e-06
-9.9092178e-09
2.6229087e-06
-7.532943e-09
2.5346293e-06
-5.1925899e-09
2.3317904e-06
-3.0003815e-09
1.9708583e-06
-1.0881848e-09
1.3974082e-06
5.4345262e-07
-4.3078062e-10
2.2431218e-08
-1.9187722e-09
7.0687322e-08
-4.8533307e-09
1.2782303e-07
-9.6310653e-09
1.8982924e-07
-1.6543758e-08
2.5161813e-07
-2.5605447e-08
3.0830188e-07
-3.639941e-08
3.5685503e-07
-4.8070999e-08
3.9723915e-07
-5.9513903e-08
4.3223316e-07
-6.9653731e-08
4.6614448e-07
-7.7682386e-08
5.0328874e-07
-8.3165735e-08
5.4697425e-07
-8.6033819e-08
5.991536e-07
-8.6500014e-08
6.6053604e-07
-8.495361e-08
7.3090281e-07
-8.18565e-08
8.0945482e-07
-7.7663185e-08
8.9510891e-07
-7.2771145e-08
9.8671254e-07
-6.7500709e-08
1.0831768e-06
-6.2096253e-08
1.1835456e-06
-5.6738538e-08
1.287025e-06
-5.1559256e-08
1.3929947e-06
-4.6652904e-08
1.5010113e-06
-4.2083696e-08
1.6108027e-06
-3.7890836e-08
1.7222363e-06
-3.4091877e-08
1.8352567e-06
-3.0683542e-08
1.9497733e-06
-2.7641052e-08
2.0654715e-06
-2.4917022e-08
2.1815119e-06
-2.2442348e-08
2.2960799e-06
-2.0131415e-08
2.4057571e-06
-1.7889072e-08
2.5047053e-06
-1.5622841e-08
2.5836612e-06
-1.3261947e-08
2.6287799e-06
-1.0782101e-08
2.6204288e-06
-8.2218211e-09
2.5320691e-06
-5.6768608e-09
2.3292454e-06
-3.2627649e-09
1.9684442e-06
-1.1593142e-09
1.3953049e-06
5.4229317e-07
-4.1146354e-10
2.2842681e-08
-1.8346668e-09
7.2110524e-08
-4.6469502e-09
1.3063531e-07
-9.2405831e-09
1.9442287e-07
-1.5922929e-08
2.5830047e-07
-2.4755828e-08
3.1713478e-07
-3.5400935e-08
3.6750014e-07
-4.7087663e-08
4.0892588e-07
-5.8763645e-08
4.4390915e-07
-6.9355946e-08
4.7673678e-07
-7.800715e-08
5.1193994e-07
-8.4201795e-08
5.5316889e-07
-8.778012e-08
6.0273192e-07
-8.8877707e-08
6.6163362e-07
-8.7831222e-08
7.2985633e-07
-8.5080011e-08
8.0670361e-07
-8.1082452e-08
8.9111134e-07
-7.6257809e-08
9.818879e-07
-7.0956189e-08
1.0778752e-06
-6.5451545e-08
1.178041e-06
-5.9949334e-08
1.2815228e-06
-5.4599662e-08
1.387645e-06
-4.9509597e-08
1.4959213e-06
-4.475179e-08
1.6060449e-06
-4.0370917e-08
1.7178554e-06
-3.6387734e-08
1.8312735e-06
-3.2800509e-08
1.9461861e-06
-2.9584979e-08
2.062256e-06
-2.6693525e-08
2.1786205e-06
-2.4056548e-08
2.2934429e-06
-2.1586936e-08
2.4032875e-06
-1.918771e-08
2.5023061e-06
-1.6764391e-08
2.5812379e-06
-1.4243974e-08
2.6262595e-06
-1.1598247e-08
2.6177832e-06
-8.8608265e-09
2.5293316e-06
-6.1205631e-09
2.3265052e-06
-3.4996085e-09
1.9658231e-06
-1.2234593e-09
1.3930289e-06
5.4106956e-07
-3.9417573e-10
2.3236857e-08
-1.7591219e-09
7.347547e-08
-4.4606908e-09
1.3333688e-07
-8.8855951e-09
1.9884778e-07
-1.5352061e-08
2.6476694e-07
-2.3960777e-08
3.2574349e-07
-3.4441204e-08
3.7798056e-07
-4.6100456e-08
4.2058513e-07
-5.7942613e-08
4.557513e-07
-6.8907224e-08
4.8770139e-07
-7.8103006e-08
5.2113573e-07
-8.4947713e-08
5.6001359e-07
-8.9201334e-08
6.0698555e-07
-9.0924089e-08
6.6335637e-07
-9.0395827e-08
7.2932806e-07
-8.8024684e-08
8.0433248e-07
-8.4263461e-08
8.8735011e-07
-7.9545553e-08
9.7717e-07
-7.4246288e-08
1.0725759e-06
-6.8667736e-08
1.1724624e-06
-6.3040594e-08
1.2758957e-06
-5.7534773e-08
1.3821392e-06
-5.2271487e-08
1.490658e-06
-4.7333026e-08
1.6011064e-06
-4.2770384e-08
1.7132927e-06
-3.8607966e-08
1.8271111e-06
-3.4846134e-08
1.9424242e-06
-3.1461216e-08
2.0588711e-06
-2.8405689e-08
2.1755649e-06
-2.5609303e-08
2.2906466e-06
-2.2983858e-08
2.400662e-06
-2.0430787e-08
2.499753e-06
-1.7853656e-08
2.5786609e-06
-1.5177294e-08
2.6235831e-06
-1.2370131e-08
2.614976e-06
-9.4604446e-09
2.5264219e-06
-6.5328965e-09
2.3235776e-06
-3.717069e-09
1.9630074e-06
-1.2826272e-09
1.3905943e-06
5.3978701e-07
-3.7859576e-10
2.3615453e-08
-1.6908382e-09
7.4787712e-08
-4.2916675e-09
1.3593771e-07
-8.5615113e-09
2.0311762e-07
-1.4825969e-08
2.710314e-07
-2.3217435e-08
3.3413496e-07
-3.3524119e-08
3.8828725e-07
-4.5124379e-08
4.3218539e-07
-5.7079104e-08
4.6770603e-07
-6.8348112e-08
4.989704e-07
-7.8018523e-08
5.3080614e-07
-8.54541e-08
5.6744917e-07
-9.034434e-08
6.1187579e-07
-9.2678382e-08
6.6569041e-07
-9.2677708e-08
7.2932739e-07
-9.0713111e-08
8.0236788e-07
-8.722356e-08
8.8386056e-07
-8.2649088e-08
9.7259552e-07
-7.7385034e-08
1.0673119e-06
-7.1759175e-08
1.1668365e-06
-6.6027204e-08
1.2701637e-06
-6.0379868e-08
1.3764919e-06
-5.4953954e-08
1.485232e-06
-4.9842672e-08
1.5959951e-06
-4.5104119e-08
1.7085542e-06
-4.0767201e-08
1.8227742e-06
-3.6834377e-08
1.9384915e-06
-3.3283309e-08
2.05532e-06
-3.0066429e-08
2.1723481e-06
-2.7113221e-08
2.2876933e-06
-2.4334196e-08
2.3978831e-06
-2.1629634e-08
2.4970484e-06
-1.8901264e-08
2.5759325e-06
-1.6071768e-08
2.6207535e-06
-1.310629e-08
2.6120106e-06
-1.0028688e-08
2.5233442e-06
-6.9198772e-09
2.3204688e-06
-3.9198031e-09
1.9600074e-06
-1.3377033e-09
1.3880122e-06
5.3844931e-07
-3.6446823e-10
2.3979921e-08
-1.628765e-09
7.6052009e-08
-4.1375145e-09
1.3844646e-07
-8.2644464e-09
2.0724456e-07
-1.4339912e-08
2.7710686e-07
-2.2522307e-08
3.4231735e-07
-3.2650832e-08
3.9841577e-07
-4.4168908e-08
4.4370346e-07
-5.619324e-08
4.7973036e-07
-6.7709208e-08
5.1048637e-07
-7.7792082e-08
5.4088901e-07
-8.5762627e-08
5.7541972e-07
-9.1249099e-08
6.1736227e-07
-9.4175022e-08
6.6861633e-07
-9.4703906e-08
7.2985627e-07
-9.3165197e-08
8.0082916e-07
-8.9977339e-08
8.806727e-07
-8.5579904e-08
9.6819808e-07
-8.0382731e-08
1.0621147e-06
-7.4736142e-08
1.1611899e-06
-6.8919961e-08
1.2643475e-06
-6.3146327e-08
1.3707182e-06
-5.7568675e-08
1.4796544e-06
-5.2292373e-08
1.5907188e-06
-4.7383682e-08
1.7036455e-06
-4.2876474e-08
1.8182669e-06
-3.8776162e-08
1.9343912e-06
-3.5061666e-08
2.0516054e-06
-3.1685793e-08
2.1689722e-06
-2.8577636e-08
2.2845852e-06
-2.5647151e-08
2.3949525e-06
-2.2792802e-08
2.4941941e-06
-1.9915221e-08
2.5730548e-06
-1.6934707e-08
2.617773e-06
-1.3813523e-08
2.6088894e-06
-1.0571144e-08
2.5201018e-06
-7.2865745e-09
2.3171842e-06
-4.110628e-09
1.9568315e-06
-1.3899811e-09
1.3852915e-06
5.3705937e-07
-3.5158778e-10
2.4331509e-08
-1.5720531e-09
7.7272475e-08
-3.9962787e-09
1.4087069e-07
-7.9911078e-09
2.1123938e-07
-1.3889664e-08
2.8300542e-07
-2.187172e-08
3.5029941e-07
-3.1820897e-08
4.0836495e-07
-4.3239833e-08
4.5512239e-07
-5.5299284e-08
4.9178981e-07
-6.7013714e-08
5.222008e-07
-7.7454125e-08
5.5132941e-07
-8.5907601e-08
5.8387321e-07
-9.1949778e-08
6.2340444e-07
-9.5444363e-08
6.7211091e-07
-9.6498809e-08
7.3091072e-07
-9.5398946e-08
7.997293e-07
-9.2537544e-08
8.7781129e-07
-8.834736e-08
9.6400789e-07
-8.3247212e-08
1.0570146e-06
-7.7606248e-08
1.155549e-06
-7.1726852e-08
1.2584682e-06
-6.5842578e-08
1.3648339e-06
-6.01245e-08
1.4739363e-06
-5.4691179e-08
1.5852855e-06
-4.9617973e-08
1.6985723e-06
-4.4944643e-08
1.8135936e-06
-4.0679945e-08
1.9301265e-06
-3.6804354e-08
2.0477299e-06
-3.3271449e-08
2.1654393e-06
-3.0010178e-08
2.2813239e-06
-2.6929487e-08
2.3918719e-06
-2.3927137e-08
2.4911916e-06
-2.0901596e-08
2.5700294e-06
-1.7771736e-08
2.6146431e-06
-1.4496785e-08
2.6056144e-06
-1.1092367e-08
2.5166974e-06
-7.6364382e-09
2.3137283e-06
-4.2917778e-09
1.9534868e-06
-1.439825e-09
1.3824395e-06
5.3561974e-07
-3.3978754e-10
2.4671296e-08
-1.5200013e-09
7.8452689e-08
-3.8663364e-09
1.4321702e-07
-7.7387013e-09
2.1511175e-07
-1.3471485e-08
2.887382e-07
-2.1262096e-08
3.5809002e-07
-3.1032929e-08
4.1813578e-07
-4.2340506e-08
4.6642997e-07
-5.4407374e-08
5.0385668e-07
-6.627927e-08
5.340727e-07
-7.7028861e-08
5.62079e-07
-8.5917395e-08
5.9276175e-07
-9.2475566e-08
6.2996261e-07
-9.6513187e-08
6.7614854e-07
-9.8084498e-08
7.3248201e-07
-9.7430911e-08
7.9907574e-07
-9.4915755e-08
8.7529612e-07
-9.09595e-08
9.6005163e-07
-8.5984564e-08
1.0520397e-06
-8.0375013e-08
1.1499394e-06
-7.4453623e-08
1.2525468e-06
-6.8474892e-08
1.3588552e-06
-6.2628123e-08
1.4680896e-06
-5.7046028e-08
1.5797034e-06
-5.1814099e-08
1.6933404e-06
-4.6978639e-08
1.8087581e-06
-4.2552421e-08
1.9257003e-06
-3.8517967e-08
2.0436954e-06
-3.4829751e-08
2.1617511e-06
-3.1416549e-08
2.2779107e-06
-2.8187049e-08
2.3886423e-06
-2.5037436e-08
2.4880421e-06
-2.1865401e-08
2.5668573e-06
-1.8587417e-08
2.6113652e-06
-1.5159945e-08
2.602187e-06
-1.1595782e-08
2.5131331e-06
-7.9722151e-09
2.3101049e-06
-4.4648778e-09
1.9499795e-06
-1.4873866e-09
1.379462e-06
5.3413218e-07
-3.2892965e-10
2.5000225e-08
-1.4720291e-09
7.9595789e-08
-3.7463306e-09
1.4549132e-07
-7.504848e-09
2.1887027e-07
-1.3082096e-08
2.9431545e-07
-2.069004e-08
3.6569797e-07
-3.028504e-08
4.2773078e-07
-4.1472623e-08
4.7761756e-07
-5.352465e-08
5.159087e-07
-6.5519338e-08
5.4606738e-07
-7.6535625e-08
5.7309529e-07
-8.5815443e-08
6.0204156e-07
-9.2851404e-08
6.3699856e-07
-9.7405129e-08
6.8070228e-07
-9.9481001e-08
7.3455786e-07
-9.9276442e-08
7.9887119e-07
-9.712264e-08
8.7314231e-07
-9.3423409e-08
9.563524e-07
-8.8599792e-08
1.0472161e-06
-8.3046535e-08
1.1443862e-06
-7.7104437e-08
1.2466047e-06
-7.1047853e-08
1.3527986e-06
-6.5084595e-08
1.4621263e-06
-5.9362324e-08
1.5739811e-06
-5.3977539e-08
1.6879556e-06
-4.8984027e-08
1.8037646e-06
-4.4399068e-08
1.9211154e-06
-4.0207765e-08
2.0395041e-06
-3.6365554e-08
2.1579089e-06
-3.2801708e-08
2.2743469e-06
-2.9424074e-08
2.3852647e-06
-2.6128255e-08
2.4847462e-06
-2.2810241e-08
2.5635394e-06
-1.9385039e-08
2.6079399e-06
-1.5806368e-08
2.5986083e-06
-1.2083929e-08
2.5094107e-06
-8.2962751e-09
2.3063173e-06
-4.6313798e-09
1.9463146e-06
-1.5336896e-09
1.3763642e-06
5.3259868e-07
-3.1889766e-10
2.5319123e-08
-1.4276507e-09
8.0704542e-08
-3.6351099e-09
1.4769878e-07
-7.2875134e-09
2.2252267e-07
-1.2718609e-08
2.9974655e-07
-2.0152411e-08
3.7313177e-07
-2.9575082e-08
4.3715345e-07
-4.0636789e-08
4.8867927e-07
-5.2656066e-08
5.2792798e-07
-6.4744183e-08
5.581555e-07
-7.5989884e-08
5.8434098e-07
-8.5621182e-08
6.1167286e-07
-9.3098619e-08
6.4447601e-07
-9.8141047e-08
6.8574471e-07
-1.0070655e-07
7.3712336e-07
-1.0094977e-07
7.991144e-07
-9.9168276e-08
8.7136083e-07
-9.5745647e-08
9.5292977e-07
-9.1097073e-08
1.0425675e-06
-8.5624015e-08
1.1389131e-06
-7.9682182e-08
1.2406629e-06
-7.3564731e-08
1.3466811e-06
-6.7497665e-08
1.4560593e-06
-6.1644218e-08
1.5681277e-06
-5.6112757e-08
1.6824241e-06
-5.0965265e-08
1.7986171e-06
-4.6224326e-08
1.9163744e-06
-4.1877929e-08
2.0351578e-06
-3.7883105e-08
2.1539141e-06
-3.4169396e-08
2.2706331e-06
-3.0644371e-08
2.3817397e-06
-2.7202826e-08
2.4813047e-06
-2.3739533e-08
2.5600761e-06
-2.0167405e-08
2.6043679e-06
-1.6438346e-08
2.5948791e-06
-1.2559164e-08
2.5055316e-06
-8.6102752e-09
2.3023684e-06
-4.7919953e-09
1.9424966e-06
-1.5784441e-09
1.3731502e-06
5.3102049e-07
-3.0959792e-10
2.5628721e-08
-1.3864533e-09
8.1781398e-08
-3.5317037e-09
1.4984403e-07
-7.0849443e-09
2.2607591e-07
-1.23785e-08
3.050401e-07
-1.9646324e-08
3.8039959e-07
-2.8900839e-08
4.4640797e-07
-3.9832868e-08
4.9961129e-07
-5.180503e-08
5.3990014e-07
-6.3961679e-08
5.7031215e-07
-7.540404e-08
5.9578335e-07
-8.5350755e-08
6.2161958e-07
-9.3235517e-08
6.5236077e-07
-9.8739304e-08
6.9124849e-07
-1.0177767e-07
7.4016174e-07
-1.024642e-07
7.9980091e-07
-1.0106225e-07
8.6995889e-07
-9.793243e-08
9.4979995e-07
-9.3480236e-08
1.0381153e-06
-8.8109854e-08
1.1335427e-06
-8.2189064e-08
1.2347421e-06
-7.6027836e-08
1.3405199e-06
-6.9870081e-08
1.4499015e-06
-6.3894867e-08
1.5621525e-06
-5.8223133e-08
1.6767524e-06
-5.2925924e-08
1.7933199e-06
-4.8031719e-08
1.9114803e-06
-4.3532168e-08
2.0306581e-06
-3.9385767e-08
2.1497678e-06
-3.5522846e-08
2.2667702e-06
-3.1851005e-08
2.3780678e-06
-2.8263953e-08
2.4777177e-06
-2.4655583e-08
2.5564677e-06
-2.0937137e-08
2.6006494e-06
-1.7057968e-08
2.5909998e-06
-1.302326e-08
2.501497e-06
-8.9154274e-09
2.2982605e-06
-4.9480373e-09
1.9385292e-06
-1.621579e-09
1.3698237e-06
5.293989e-07
-3.0094623e-10
2.5929668e-08
-1.3480928e-09
8.2828544e-08
-3.4352743e-09
1.5193121e-07
-6.895633e-09
2.2953627e-07
-1.2059543e-08
3.1020401e-07
-1.9169165e-08
3.8750922e-07
-2.8260103e-08
4.5549891e-07
-3.9060256e-08
5.1041144e-07
-5.097379e-08
5.5181367e-07
-6.3177821e-08
5.8251619e-07
-7.4788106e-08
6.0739363e-07
-8.5017609e-08
6.3184908e-07
-9.3277744e-08
6.606209e-07
-9.9216077e-08
6.9718683e-07
-1.0270938e-07
7.4365503e-07
-1.0383212e-07
8.0092367e-07
-1.0281367e-07
8.6894043e-07
-9.9989696e-08
9.4697599e-07
-9.5752772e-08
1.0338783e-06
-9.0506122e-08
1.1282961e-06
-8.4626468e-08
1.2288624e-06
-7.8438688e-08
1.3343321e-06
-7.22037e-08
1.4436665e-06
-6.6116547e-08
1.5560653e-06
-6.0311337e-08
1.6709472e-06
-5.4868906e-08
1.7878775e-06
-4.9824291e-08
1.9064357e-06
-4.5173184e-08
2.026007e-06
-4.0876356e-08
2.1454709e-06
-3.6864897e-08
2.2627588e-06
-3.3046407e-08
2.3742493e-06
-2.9314133e-08
2.4739854e-06
-2.5560712e-08
2.5527143e-06
-2.1696007e-08
2.5967847e-06
-1.766699e-08
2.5869709e-06
-1.3477821e-08
2.4973077e-06
-9.2130968e-09
2.2939958e-06
-5.0995815e-09
1.9344159e-06
-1.663919e-09
1.3663877e-06
5.2773513e-07
-2.9287482e-10
2.6222543e-08
-1.3122668e-09
8.3847935e-08
-3.3451041e-09
1.5396405e-07
-6.7182655e-09
2.3290943e-07
-1.1759781e-08
3.1524553e-07
-1.8718562e-08
3.9446799e-07
-2.7650726e-08
4.6443107e-07
-3.8318025e-08
5.2107875e-07
-5.0163748e-08
5.6365939e-07
-6.239718e-08
5.9474962e-07
-7.4150125e-08
6.1914658e-07
-8.463296e-08
6.4233192e-07
-9.3238712e-08
6.6922666e-07
-9.9585649e-08
7.0353376e-07
-1.0351515e-07
7.4758455e-07
-1.0506508e-07
8.024736e-07
-1.0443124e-07
8.6830659e-07
-1.0192324e-07
9.44468e-07
-9.7917999e-08
1.0298731e-06
-9.2814579e-08
1.1231926e-06
-8.699543e-08
1.2230433e-06
-8.0798256e-08
1.328135e-06
-7.4499795e-08
1.4373681e-06
-6.8310961e-08
1.5498765e-06
-6.2379423e-08
1.6650156e-06
-5.679648e-08
1.7822945e-06
-5.1604471e-08
1.9012437e-06
-4.6803494e-08
2.0212061e-06
-4.235722e-08
2.1410246e-06
-3.819767e-08
2.2585993e-06
-3.4232755e-08
2.3702843e-06
-3.0355208e-08
2.4701078e-06
-2.6456704e-08
2.5488158e-06
-2.2445591e-08
2.5927735e-06
-1.8266928e-08
2.5827923e-06
-1.3923887e-08
2.4929646e-06
-9.5041702e-09
2.289576e-06
-5.2477119e-09
1.9301594e-06
-1.7049829e-09
1.3628449e-06
5.2603018e-07
-2.8532445e-10
2.6507866e-08
-1.2787187e-09
8.4841331e-08
-3.2605744e-09
1.5594591e-07
-6.5517007e-09
2.3620056e-07
-1.1477487e-08
3.2017131e-07
-1.8292368e-08
4.0128288e-07
-2.7070667e-08
4.7320937e-07
-3.7605093e-08
5.3161317e-07
-4.9375701e-08
5.7543e-07
-6.1623228e-08
6.0699714e-07
-7.3496594e-08
6.3101995e-07
-8.4206171e-08
6.530415e-07
-9.3129968e-08
6.7815046e-07
-9.9860568e-08
7.1026435e-07
-1.0420731e-07
7.519313e-07
-1.0617378e-07
8.0444005e-07
-1.0592326e-07
8.6805609e-07
-1.0373873e-07
9.4228345e-07
-9.9979273e-08
1.0261136e-06
-9.503681e-08
1.1182502e-06
-8.9296712e-08
1.2173032e-06
-8.3107034e-08
1.3219453e-06
-7.6759109e-08
1.4310201e-06
-7.0479213e-08
1.5435966e-06
-6.4428856e-08
1.6589653e-06
-5.8710358e-08
1.776576e-06
-5.3374053e-08
1.8959074e-06
-4.8425171e-08
2.0162572e-06
-4.3830318e-08
2.1364297e-06
-3.9523131e-08
2.2542921e-06
-3.5411865e-08
2.366173e-06
-3.1388877e-08
2.4660849e-06
-2.7345056e-08
2.5447719e-06
-2.3187285e-08
2.5886157e-06
-1.8859129e-08
2.5784641e-06
-1.4362613e-08
2.4884681e-06
-9.7895581e-09
2.2850029e-06
-5.3923141e-09
1.9257624e-06
-1.7453854e-09
1.3591978e-06
5.2428495e-07
-2.7824068e-10
2.6786106e-08
-1.2472276e-09
8.5810318e-08
-3.1811441e-09
1.5787982e-07
-6.3949368e-09
2.3941435e-07
-1.1211131e-08
3.2498751e-07
-1.7888657e-08
4.079604e-07
-2.6518006e-08
4.8183872e-07
-3.6920242e-08
5.4201541e-07
-4.8610004e-08
5.8711976e-07
-6.0858567e-08
6.1924571e-07
-7.2832787e-08
6.4299416e-07
-8.3745093e-08
6.6395381e-07
-9.2961438e-08
6.873668e-07
-1.000519e-07
7.1735482e-07
-1.047969e-07
7.566763e-07
-1.0716812e-07
8.0681128e-07
-1.072977e-07
8.6818567e-07
-1.0544166e-07
9.4042741e-07
-1.0193985e-07
1.0226118e-06
-9.7174429e-08
1.1134848e-06
-9.153086e-08
1.2116596e-06
-8.5365248e-08
1.3157797e-06
-7.8981953e-08
1.4246368e-06
-7.2621929e-08
1.5372365e-06
-6.6460664e-08
1.6528041e-06
-6.0611956e-08
1.7707273e-06
-5.5134641e-08
1.89043e-06
-5.0039797e-08
2.0111623e-06
-4.5297363e-08