/*--------------------------------*- C++ -*----------------------------------*\
| =========                 |                                                 |
| \\      /  F ield         | OpenFOAM: The Open Source CFD Toolbox           |
|  \\    /   O peration     | Version:  3.0.1                                 |
|   \\  /    A nd           | Web:      www.OpenFOAM.org                      |
|    \\/     M anipulation  |                                                 |
\*---------------------------------------------------------------------------*/
FoamFile
{
    version     2.0;
    format      ascii;
    class       volScalarField;
    location    "2409";
    object      rho;
}
// * * * * * * * * * * * * * * * * * * * * * * * * * * * * * * * * * * * * * //

dimensions      [1 -3 0 0 0 0 0];

internalField   nonuniform List<scalar> 
4000
(
0.922177
1.0183919
1.0943335
1.1445822
1.1736711
1.1888848
1.196229
1.1995443
1.2009543
1.2015215
1.2017378
1.201816
1.2018429
1.2018517
1.2018544
1.2018552
1.2018555
1.2018555
1.2018555
1.2018555
1.2018555
1.2018555
1.2018555
1.2018555
1.2018555
1.2018555
1.2018555
1.2018555
1.2018555
1.2018555
1.2018555
1.2018555
1.2018555
1.2018555
1.2018555
1.2018555
1.2018555
1.2018555
1.2018555
1.2018555
0.86690633
0.94728863
1.0261134
1.0926181
1.1404541
1.1702554
1.1867637
1.1950978
1.1990001
1.2007128
1.2014213
1.2016983
1.2018008
1.2018368
1.2018487
1.2018525
1.2018536
1.2018539
1.201854
1.201854
1.201854
1.201854
1.201854
1.201854
1.201854
1.201854
1.201854
1.201854
1.201854
1.201854
1.201854
1.201854
1.201854
1.201854
1.201854
1.201854
1.201854
1.201854
1.201854
1.201854
0.84526512
0.91577831
0.98841614
1.0560467
1.1112313
1.1504262
1.1749545
1.1887547
1.1958688
1.1992752
1.2008031
1.201448
1.2017048
1.2018014
1.2018357
1.2018473
1.201851
1.2018521
1.2018524
1.2018525
1.2018525
1.2018525
1.2018525
1.2018525
1.2018525
1.2018525
1.2018525
1.2018525
1.2018525
1.2018525
1.2018525
1.2018525
1.2018525
1.2018525
1.2018525
1.2018525
1.2018525
1.2018525
1.2018525
1.2018525
0.83294001
0.8975683
0.96503867
1.0305978
1.0879397
1.1323096
1.1627051
1.1813763
1.1918288
1.197236
1.1998455
1.2010272
1.2015308
1.2017332
1.2018099
1.2018374
1.2018468
1.2018498
1.2018507
1.2018509
1.201851
1.201851
1.201851
1.201851
1.201851
1.201851
1.201851
1.201851
1.201851
1.201851
1.201851
1.201851
1.201851
1.201851
1.201851
1.201851
1.201851
1.201851
1.201851
1.201851
0.8246276
0.88527887
0.94886015
1.0119749
1.0694773
1.1165604
1.1509978
1.1736466
1.1872117
1.1947052
1.1985602
1.2004184
1.2012607
1.2016202
1.201765
1.20182
1.2018398
1.2018465
1.2018486
1.2018493
1.2018495
1.2018495
1.2018495
1.2018495
1.2018495
1.2018495
1.2018495
1.2018495
1.2018495
1.2018495
1.2018495
1.2018495
1.2018495
1.2018495
1.2018495
1.2018495
1.2018495
1.2018495
1.2018495
1.2018495
0.81849703
0.87622832
0.93681309
0.99768379
1.0545956
1.1030422
1.1402223
1.1660028
1.182309
1.1918236
1.1969932
1.199625
1.200885
1.2014532
1.2016948
1.2017917
1.2018284
1.2018416
1.201846
1.2018474
1.2018479
1.201848
1.201848
1.201848
1.201848
1.201848
1.201848
1.201848
1.201848
1.201848
1.201848
1.201848
1.201848
1.201848
1.201848
1.201848
1.201848
1.201848
1.201848
1.201848
0.81371067
0.86917566
0.92737361
0.98628352
1.0423375
1.0914058
1.1304532
1.1586748
1.1773305
1.188722
1.1952048
1.1986649
1.2004031
1.2012263
1.2015942
1.2017493
1.201811
1.2018342
1.2018425
1.2018453
1.2018462
1.2018464
1.2018465
1.2018465
1.2018465
1.2018465
1.2018465
1.2018465
1.2018465
1.2018465
1.2018465
1.2018465
1.2018465
1.2018465
1.2018465
1.2018465
1.2018465
1.2018465
1.2018465
1.2018465
0.80982511
0.86346102
0.91970215
0.97691051
1.0320335
1.0813061
1.1216338
1.1517624
1.1724106
1.1855052
1.1932555
1.1975636
1.199821
1.2009377
1.2014595
1.2016898
1.2017858
1.2018236
1.2018377
1.2018426
1.2018443
1.2018448
1.201845
1.201845
1.201845
1.201845
1.201845
1.201845
1.201845
1.201845
1.201845
1.201845
1.201845
1.201845
1.201845
1.201845
1.201845
1.201845
1.201845
1.201845
0.80657959
0.85869605
0.91329486
0.96901936
1.023218
1.0724542
1.1136637
1.1452931
1.1676281
1.1822503
1.1911982
1.1963492
1.1991491
1.2005887
1.2012889
1.201611
1.2017511
1.2018087
1.2018311
1.2018393
1.2018422
1.2018431
1.2018434
1.2018435
1.2018435
1.2018435
1.2018435
1.2018435
1.2018435
1.2018435
1.2018435
1.2018435
1.2018435
1.2018435
1.2018435
1.2018435
1.2018435
1.2018435
1.2018435
1.2018435
0.80380914
0.85463506
0.90782908
0.96224891
1.0155621
1.0646209
1.1064366
1.1392575
1.1630247
1.1790106
1.1890763
1.1950482
1.1984001
1.2001831
1.201082
1.2015114
1.2017055
1.2017886
1.2018222
1.201835
1.2018397
1.2018413
1.2018418
1.201842
1.201842
1.201842
1.201842
1.201842
1.201842
1.201842
1.201842
1.201842
1.201842
1.201842
1.201842
1.201842
1.201842
1.201842
1.201842
1.201842
0.80140343
0.85111382
0.90308743
0.95635015
1.0088285
1.0576271
1.0998544
1.1336297
1.1586188
1.1758212
1.1869231
1.1936844
1.197587
1.1997261
1.2008398
1.2013901
1.201648
1.2017624
1.2018104
1.2018295
1.2018367
1.2018393
1.2018401
1.2018404
1.2018405
1.2018405
1.2018405
1.2018405
1.2018405
1.2018405
1.2018405
1.2018405
1.2018405
1.2018405
1.2018405
1.2018405
1.2018405
1.2018405
1.2018405
1.2018405
0.79928537
0.84801775
0.89891738
0.95114529
1.0028419
1.0513323
1.0938315
1.1283773
1.1544149
1.1727041
1.1847634
1.1922774
1.1967222
1.199224
1.2005643
1.2012471
1.2015776
1.2017293
1.2017953
1.2018225
1.2018331
1.201837
1.2018384
1.2018388
1.201839
1.201839
1.201839
1.201839
1.201839
1.201839
1.201839
1.201839
1.201839
1.201839
1.201839
1.201839
1.201839
1.201839
1.201839
1.201839
0.79739922
0.84526401
0.89520828
0.94650372
0.99747004
1.045626
1.0882949
1.123467
1.1504095
1.1696723
1.1826153
1.1908436
1.1958172
1.1986829
1.200258
1.2010829
1.2014941
1.2016888
1.2017763
1.2018136
1.2018286
1.2018344
1.2018365
1.2018372
1.2018374
1.2018375
1.2018375
1.2018375
1.2018375
1.2018375
1.2018375
1.2018375
1.2018375
1.2018375
1.2018375
1.2018375
1.2018375
1.2018375
1.2018375
1.2018375
0.79570348
0.84279104
0.8918776
0.94232703
0.9926113
1.0404199
1.0831829
1.1188666
1.1465947
1.1667326
1.1804917
1.1893957
1.1948816
1.1981092
1.1999239
1.2008984
1.2013973
1.2016404
1.201753
1.2018025
1.2018232
1.2018313
1.2018344
1.2018355
1.2018359
1.201836
1.201836
1.201836
1.201836
1.201836
1.201836
1.201836
1.201836
1.201836
1.201836
1.201836
1.201836
1.201836
1.201836
1.201836
0.79416652
0.84055192
0.88886236
0.93853951
0.98818612
1.0356431
1.0784436
1.1145469
1.1429606
1.1638876
1.1784012
1.1879437
1.193924
1.1975084
1.1995653
1.2006948
1.2012875
1.201584
1.2017252
1.2017891
1.2018166
1.2018278
1.2018321
1.2018337
1.2018343
1.2018345
1.2018345
1.2018345
1.2018345
1.2018345
1.2018345
1.2018345
1.2018345
1.2018345
1.2018345
1.2018345
1.2018345
1.2018345
1.2018345
1.2018345
0.7927637
0.83851019
0.8861135
0.93508179
0.98413126
1.0312378
1.074033
1.1104813
1.1394961
1.1611374
1.1763498
1.1864953
1.1929514
1.1968857
1.1991851
1.2004737
1.201165
1.2015193
1.2016925
1.201773
1.2018086
1.2018236
1.2018296
1.2018318
1.2018326
1.2018329
1.201833
1.201833
1.201833
1.201833
1.201833
1.201833
1.201833
1.201833
1.201833
1.201833
1.201833
1.201833
1.201833
1.201833
0.79147552
0.83663699
0.88359217
0.9319066
0.98039579
1.0271566
1.0699139
1.1066461
1.1361903
1.1584803
1.1743411
1.1850564
1.1919695
1.1962457
1.1987865
1.2002366
1.2010305
1.2014465
1.2016548
1.2017541
1.2017992
1.2018187
1.2018267
1.2018298
1.2018309
1.2018313
1.2018315
1.2018315
1.2018315
1.2018315
1.2018315
1.2018315
1.2018315
1.2018315
1.2018315
1.2018315
1.2018315
1.2018315
1.2018315
1.2018315
0.79028631
0.83490913
0.8812671
0.92897575
0.97693812
1.02336
1.0660544
1.1030203
1.1330326
1.1559135
1.1723773
1.1836313
1.190983
1.1955924
1.1983722
1.1999852
1.2008847
1.2013657
1.2016119
1.2017322
1.2017881
1.2018129
1.2018234
1.2018276
1.2018292
1.2018298
1.20183
1.20183
1.20183
1.20183
1.20183
1.20183
1.20183
1.20183
1.20183
1.20183
1.20183
1.20183
1.20183
1.20183
0.78918328
0.83330775
0.87911284
0.92625799
0.97372397
1.0198151
1.0624276
1.0995851
1.1300128
1.1534337
1.1704594
1.1822231
1.1899957
1.1949291
1.1979447
1.199721
1.2007283
1.2012772
1.2015639
1.2017071
1.2017753
1.2018063
1.2018197
1.2018252
1.2018273
1.2018281
1.2018284
1.2018285
1.2018285
1.2018285
1.2018285
1.2018285
1.2018285
1.2018285
1.2018285
1.2018285
1.2018285
1.2018285
1.2018285
1.2018285
0.7881559
0.83181727
0.87710838
0.92372745
0.97072474
1.0164941
1.05901
1.096324
1.1271214
1.1510372
1.1685875
1.1808342
1.1890107
1.1942587
1.1975063
1.1994456
1.2005623
1.2011813
1.2015108
1.2016787
1.2017606
1.2017986
1.2018154
1.2018225
1.2018254
1.2018264
1.2018268
1.201827
1.201827
1.201827
1.201827
1.201827
1.201827
1.201827
1.201827
1.201827
1.201827
1.201827
1.201827
1.201827
0.78719536
0.83042475
0.87523622
0.92136254
0.96791639
1.0133733
1.0557814
1.0932224
1.1243497
1.1487202
1.1667613
1.1794662
1.1880303
1.1935838
1.1970591
1.1991604
1.2003875
1.2010785
1.2014527
1.2016472
1.2017439
1.2017898
1.2018106
1.2018196
1.2018233
1.2018247
1.2018253
1.2018255
1.2018255
1.2018255
1.2018255
1.2018255
1.2018255
1.2018255
1.2018255
1.2018255
1.2018255
1.2018255
1.2018255
1.2018255
0.78629429
0.82911929
0.87348164
0.91914504
0.96527853
1.0104324
1.0527242
1.090267
1.1216897
1.146479
1.1649801
1.1781201
1.1870565
1.1929063
1.1966048
1.1988668
1.2002047
1.2009691
1.2013898
1.2016123
1.2017251
1.2017798
1.2018052
1.2018164
1.2018211
1.2018229
1.2018237
1.2018239
1.201824
1.201824
1.201824
1.201824
1.201824
1.201824
1.201824
1.201824
1.201824
1.201824
1.201824
1.201824
0.7854464
0.82789165
0.87183216
0.91705947
0.96279373
1.0076539
1.049823
1.0874464
1.1191338
1.1443098
1.1632428
1.1767967
1.1860908
1.192228
1.196145
1.1985659
1.2000148
1.2008536
1.2013222
1.2015742
1.2017043
1.2017687
1.2017991
1.2018128
1.2018187
1.2018211
1.201822
1.2018224
1.2018225
1.2018225
1.2018225
1.2018225
1.2018225
1.2018225
1.2018225
1.2018225
1.2018225
1.2018225
1.2018225
1.2018225
0.78464634
0.82673394
0.87027712
0.91509255
0.96044699
1.0050228
1.0470643
1.0847501
1.1166752
1.142209
1.1615483
1.1754961
1.1851342
1.1915503
1.1956812
1.1982589
1.1998185
1.2007324
1.2012502
1.2015329
1.2016814
1.2017562
1.2017922
1.2018088
1.2018161
1.2018191
1.2018203
1.2018208
1.201821
1.201821
1.201821
1.201821
1.201821
1.201821
1.201821
1.201821
1.201821
1.201821
1.201821
1.201821
0.78388947
0.82563935
0.86880731
0.91323285
0.95822534
1.0025256
1.0444363
1.0821687
1.1143078
1.1401731
1.1598952
1.1742186
1.1841877
1.1908743
1.1952144
1.1979468
1.1996165
1.2006062
1.201174
1.2014886
1.2016564
1.2017424
1.2017846
1.2018044
1.2018133
1.2018171
1.2018186
1.2018192
1.2018194
1.2018195
1.2018195
1.2018195
1.2018195
1.2018195
1.2018195
1.2018195
1.2018195
1.2018195
1.2018195
1.2018195
0.7831718
0.824602
0.86741478
0.91147043
0.95611745
1.0001509
1.0419284
1.0796939
1.1120258
1.138199
1.1582822
1.172964
1.1832519
1.1902012
1.1947456
1.1976304
1.1994096
1.2004752
1.2010939
1.2014412
1.2016293
1.2017272
1.2017762
1.2017995
1.2018102
1.2018149
1.2018168
1.2018176
1.2018179
1.201818
1.201818
1.201818
1.201818
1.201818
1.201818
1.201818
1.201818
1.201818
1.201818
1.201818
0.78248983
0.82361677
0.86609259
0.90979665
0.95411342
0.99788845
1.0395312
1.0773182
1.1098238
1.1362834
1.1567079
1.1717321
1.1823273
1.1895315
1.1942759
1.1973106
1.1991984
1.2003399
1.2010101
1.201391
1.2016002
1.2017107
1.2017669
1.2017942
1.2018069
1.2018126
1.201815
1.201816
1.2018163
1.2018165
1.2018165
1.2018165
1.2018165
1.2018165
1.2018165
1.2018165
1.2018165
1.2018165
1.2018165
1.2018165
0.78184049
0.82267914
0.86483467
0.90820388
0.95220454
0.99572915
1.0372363
1.0750347
1.1076972
1.1344236
1.155171
1.1705226
1.1814142
1.1888661
1.1938058
1.1969881
1.1989834
1.2002008
1.2009228
1.201338
1.201569
1.2016929
1.2017568
1.2017884
1.2018034
1.2018102
1.2018131
1.2018143
1.2018148
1.201815
1.201815
1.201815
1.201815
1.201815
1.201815
1.201815
1.201815
1.201815
1.201815
1.201815
0.7812211
0.82178517
0.86363566
0.90668544
0.95038309
0.99366499
1.0350363
1.0728372
1.1056414
1.1326168
1.15367
1.1693352
1.1805128
1.1882054
1.1933361
1.1966635
1.1987652
1.2000583
1.2008324
1.2012825
1.2015359
1.2016736
1.2017458
1.201782
1.2017995
1.2018076
1.2018111
1.2018126
1.2018132
1.2018134
1.2018135
1.2018135
1.2018135
1.2018135
1.2018135
1.2018135
1.2018135
1.2018135
1.2018135
1.2018135
0.78062925
0.82093135
0.86249082
0.90523538
0.94864222
0.99168878
1.0329245
1.0707202
1.1036524
1.1308603
1.1522036
1.1681692
1.1796232
1.1875498
1.1928673
1.1963373
1.1985442
1.1999126
1.2007391
1.2012245
1.2015008
1.201653
1.2017338
1.2017751
1.2017953
1.2018048
1.201809
1.2018109
1.2018116
1.2018119
1.201812
1.201812
1.201812
1.201812
1.201812
1.201812
1.201812
1.201812
1.201812
1.201812
0.78006282
0.82011457
0.86139594
0.90384842
0.94697584
0.98979412
1.0308946
1.0686786
1.1017264
1.1291518
1.1507706
1.1670244
1.1787454
1.1868996
1.1923999
1.1960101
1.198321
1.1997642
1.2006431
1.2011641
1.201464
1.2016311
1.2017211
1.2017676
1.2017908
1.2018018
1.2018069
1.2018091
1.20181
1.2018103
1.2018105
1.2018105
1.2018105
1.2018105
1.2018105
1.2018105
1.2018105
1.2018105
1.2018105
1.2018105
0.77951993
0.81933204
0.86034727
0.90251985
0.94537846
0.98797521
1.0289414
1.0667077
1.0998599
1.127489
1.1493697
1.1659001
1.1778794
1.1862552
1.1919342
1.1956823
1.1980958
1.1996134
1.2005447
1.2011017
1.2014254
1.2016079
1.2017074
1.2017596
1.2017859
1.2017987
1.2018046
1.2018072
1.2018083
1.2018088
1.201809
1.201809
1.201809
1.201809
1.201809
1.201809
1.201809
1.201809
1.201809
1.201809
0.77899886
0.81858128
0.85934145
0.90124543
0.94384519
0.98622685
1.0270597
1.0648032
1.0980497
1.1258698
1.1479997
1.1647959
1.1770252
1.1856167
1.1914706
1.1953542
1.1978691
1.1994605
1.2004441
1.2010372
1.2013852
1.2015835
1.2016928
1.2017509
1.2017807
1.2017953
1.2018022
1.2018053
1.2018067
1.2018072
1.2018074
1.2018075
1.2018075
1.2018075
1.2018075
1.2018075
1.2018075
1.2018075
1.2018075
1.2018075
0.77849809
0.81786005
0.85837544
0.90002138
0.9423716
0.98454433
1.025245
1.0629614
1.0962928
1.1242922
1.1466594
1.1637112
1.1761827
1.1849843
1.1910093
1.1950261
1.1976412
1.1993057
1.2003415
1.2009708
1.2013434
1.2015578
1.2016773
1.2017417
1.2017751
1.2017917
1.2017997
1.2018034
1.201805
1.2018056
1.2018059
1.201806
1.201806
1.201806
1.201806
1.201806
1.201806
1.201806
1.201806
1.201806
0.77801624
0.81716634
0.85744652
0.89884424
0.94095368
0.98292337
1.0234933
1.0611785
1.0945866
1.1227543
1.1453477
1.1626454
1.1753516
1.184358
1.1905506
1.1946984
1.1974123
1.1991493
1.200237
1.2009027
1.2013001
1.2015309
1.201661
1.2017318
1.2017691
1.2017879
1.2017971
1.2018013
1.2018032
1.201804
1.2018044
1.2018045
1.2018045
1.2018045
1.2018045
1.2018045
1.2018045
1.2018045
1.2018045
1.2018045
0.77755206
0.81649831
0.85655222
0.89771092
0.93958782
0.98136009
1.0218006
1.0594513
1.0929283
1.1212543
1.1440636
1.1615982
1.1745319
1.1837379
1.1900947
1.1943713
1.1971827
1.1989916
1.200131
1.200833
1.2012554
1.2015029
1.2016438
1.2017214
1.2017627
1.2017839
1.2017943
1.2017992
1.2018014
1.2018024
1.2018028
1.201803
1.201803
1.201803
1.201803
1.201803
1.201803
1.201803
1.201803
1.201803
0.77710442
0.81585432
0.85569031
0.8966186
0.9382707
0.97985094
1.0201637
1.0577767
1.0913157
1.1197906
1.1428061
1.1605688
1.1737233
1.1831241
1.1896418
1.194045
1.1969526
1.1988326
1.2000235
1.2007619
1.2012094
1.2014739
1.2016258
1.2017104
1.201756
1.2017796
1.2017914
1.201797
1.2017996
1.2018008
1.2018012
1.2018014
1.2018015
1.2018015
1.2018015
1.2018015
1.2018015
1.2018015
1.2018015
1.2018015
0.77667229
0.81523286
0.85485876
0.89556471
0.93699933
0.97839268
1.0185792
1.056152
1.0897466
1.1183617
1.1415741
1.159557
1.1729258
1.1825166
1.1891919
1.1937197
1.1967223
1.1986728
1.1999147
1.2006895
1.2011622
1.2014438
1.201607
1.2016988
1.2017488
1.2017751
1.2017883
1.2017948
1.2017978
1.2017991
1.2017997
1.2017999
1.2018
1.2018
1.2018
1.2018
1.2018
1.2018
1.2018
1.2018
0.77625472
0.81463254
0.85405569
0.89454691
0.93577096
0.97698233
1.0170443
1.0545746
1.0882188
1.116966
1.1403668
1.158562
1.172139
1.1819153
1.1887451
1.1933955
1.1964918
1.1985121
1.1998048
1.2006158
1.2011138
1.2014127
1.2015874
1.2016867
1.2017413
1.2017703
1.2017851
1.2017924
1.2017959
1.2017974
1.2017981
1.2017984
1.2017985
1.2017985
1.2017985
1.2017985
1.2017985
1.2017985
1.2017985
1.2017985
0.77585086
0.81405212
0.85327942
0.89356305
0.93458306
0.97561718
1.0155563
1.0530421
1.0867305
1.1156022
1.1391834
1.1575835
1.1713627
1.1813202
1.1883017
1.1930726
1.1962615
1.1983508
1.1996939
1.200541
1.2010644
1.2013807
1.2015671
1.2016739
1.2017333
1.2017652
1.2017817
1.20179
1.2017939
1.2017957
1.2017965
1.2017968
1.201797
1.201797
1.201797
1.201797
1.201797
1.201797
1.201797
1.201797
0.77545992
0.81349043
0.85252839
0.89261117
0.93343333
0.97429471
1.0141127
1.0515521
1.0852798
1.114269
1.1380228
1.1566211
1.1705969
1.1807314
1.1878615
1.1927511
1.1960313
1.198189
1.1995822
1.2004652
1.201014
1.2013478
1.201546
1.2016607
1.201725
1.2017599
1.2017782
1.2017874
1.2017919
1.201794
1.2017949
1.2017953
1.2017954
1.2017955
1.2017955
1.2017955
1.2017955
1.2017955
1.2017955
1.2017955
0.77508116
0.81294643
0.85180116
0.89168947
0.93231964
0.9730126
1.0127111
1.0501027
1.0838651
1.1129652
1.1368845
1.1556741
1.1698411
1.1801487
1.1874246
1.1924311
1.1958015
1.1980268
1.1994697
1.2003885
1.2009627
1.2013141
1.2015243
1.2016468
1.2017162
1.2017543
1.2017745
1.2017848
1.2017898
1.2017922
1.2017933
1.2017937
1.2017939
1.201794
1.201794
1.201794
1.201794
1.201794
1.201794
1.201794
0.77471393
0.81241914
0.85109643
0.89079627
0.93124002
0.97176871
1.0113495
1.0486919
1.0824848
1.1116896
1.1357675
1.1547422
1.1690953
1.179572
1.1869912
1.1921127
1.1955721
1.1978644
1.1993566
1.200311
1.2009105
1.2012796
1.2015019
1.2016325
1.2017071
1.2017484
1.2017706
1.201782
1.2017877
1.2017904
1.2017916
1.2017922
1.2017924
1.2017925
1.2017925
1.2017925
1.2017925
1.2017925
1.2017925
1.2017925
0.7743576
0.81190766
0.85041297
0.88993005
0.93019267
0.97056106
1.0100258
1.0473179
1.0811373
1.1104411
1.1346712
1.1538251
1.1683592
1.1790014
1.1865611
1.191796
1.1953432
1.1977018
1.1992429
1.2002328
1.2008576
1.2012444
1.2014789
1.2016177
1.2016976
1.2017423
1.2017665
1.2017791
1.2017855
1.2017885
1.20179
1.2017906
1.2017909
1.201791
1.201791
1.201791
1.201791
1.201791
1.201791
1.201791
0.7740116
0.81141115
0.84974966
0.88908938
0.92917591
0.96938781
1.0087383
1.045979
1.0798214
1.1092187
1.1335949
1.1529221
1.1676327
1.1784367
1.1861344
1.1914809
1.195115
1.1975392
1.1991288
1.200154
1.200804
1.2012086
1.2014553
1.2016024
1.2016878
1.2017359
1.2017623
1.2017761
1.2017832
1.2017867
1.2017883
1.201789
1.2017893
1.2017895
1.2017895
1.2017895
1.2017895
1.2017895
1.2017895
1.2017895
0.77367541
0.81092884
0.84910547
0.88827296
0.92818818
0.96824727
1.0074851
1.0446737
1.0785357
1.1080214
1.132538
1.152033
1.1669154
1.1778778
1.1857112
1.1911677
1.1948875
1.1973766
1.1990143
1.2000746
1.2007497
1.2011721
1.2014312
1.2015866
1.2016776
1.2017293
1.2017578
1.201773
1.2017809
1.2017847
1.2017866
1.2017874
1.2017878
1.2017879
1.201788
1.201788
1.201788
1.201788
1.201788
1.201788
0.77334854
0.81046003
0.84847943
0.88747955
0.92722803
0.96713783
1.0062647
1.0434004
1.077279
1.1068483
1.1314997
1.1511574
1.1662073
1.1773248
1.1852914
1.1908562
1.1946607
1.1972141
1.1988996
1.1999947
1.2006949
1.201135
1.2014065
1.2015704
1.201667
1.2017224
1.2017532
1.2017698
1.2017785
1.2017828
1.2017848
1.2017858
1.2017862
1.2017864
1.2017865
1.2017865
1.2017865
1.2017865
1.2017865
1.2017865
0.77303052
0.81000405
0.84787064
0.88670803
0.92629414
0.96605802
1.0050756
1.0421578
1.0760501
1.1056985
1.1304795
1.1502949
1.165508
1.1767774
1.1848749
1.1905466
1.1944348
1.1970518
1.1987846
1.1999143
1.2006395
1.2010974
1.2013813
1.2015537
1.2016561
1.2017152
1.2017484
1.2017665
1.201776
1.2017808
1.2017831
1.2017842
1.2017847
1.2017849
1.201785
1.201785
1.201785
1.201785
1.201785
1.201785
0.77272094
0.80956028
0.84727828
0.88595735
0.92538523
0.96500647
1.0039164
1.0409446
1.0748479
1.1045712
1.1294769
1.1494452
1.1648174
1.1762356
1.1844618
1.1902388
1.1942097
1.1968897
1.1986695
1.1998336
1.2005837
1.2010593
1.2013556
1.2015367
1.2016448
1.2017078
1.2017435
1.201763
1.2017734
1.2017787
1.2017813
1.2017826
1.2017831
1.2017834
1.2017835
1.2017835
1.2017835
1.2017835
1.2017835
1.2017835
0.7724194
0.80912814
0.84670155
0.88522652
0.92450016
0.96398187
1.0027857
1.0397595
1.0736714
1.1034655
1.1284912
1.1486078
1.1641354
1.1756993
1.1840521
1.1899329
1.1939855
1.196728
1.1985543
1.1997526
1.2005274
1.2010207
1.2013296
1.2015193
1.2016333
1.2017002
1.2017383
1.2017595
1.2017708
1.2017766
1.2017795
1.2017809
1.2017815
1.2017818
1.201782
1.201782
1.201782
1.201782
1.201782
1.201782
0.77212552
0.80870709
0.84613975
0.88451461
0.92363782
0.96298302
1.0016824
1.0386014
1.0725196
1.1023808
1.1275219
1.1477825
1.1634616
1.1751684
1.1836457
1.1896289
1.1937623
1.1965665
1.1984391
1.1996713
1.2004708
1.2009817
1.2013031
1.2015015
1.2016214
1.2016923
1.201733
1.2017557
1.201768
1.2017744
1.2017777
1.2017792
1.20178
1.2017803
1.2017804
1.2017805
1.2017805
1.2017805
1.2017805
1.2017805
0.77183897
0.80829665
0.84559219
0.88382078
0.92279719
0.9620088
1.0006052
1.0374693
1.0713916
1.1013162
1.1265686
1.146969
1.162796
1.1746428
1.1832426
1.1893268
1.19354
1.1964054
1.1983238
1.1995898
1.2004138
1.2009424
1.2012762
1.2014833
1.2016093
1.2016842
1.2017275
1.2017519
1.2017652
1.2017722
1.2017758
1.2017776
1.2017784
1.2017788
1.2017789
1.201779
1.201779
1.201779
1.201779
1.201779
0.77155942
0.80789632
0.84505823
0.88314422
0.92197733
0.96105813
0.99955314
1.036362
1.0702865
1.1002712
1.1256308
1.1461668
1.1621384
1.1741225
1.1828427
1.1890266
1.1933188
1.1962448
1.1982086
1.1995082
1.2003565
1.2009027
1.201249
1.2014648
1.2015968
1.2016758
1.2017219
1.201748
1.2017623
1.20177
1.2017739
1.2017758
1.2017768
1.2017772
1.2017774
1.2017775
1.2017775
1.2017775
1.2017775
1.2017775
0.77128657
0.80750568
0.84453729
0.88248417
0.92117732
0.96013003
0.99852513
1.0352787
1.0692034
1.0992451
1.124708
1.1453759
1.1614885
1.1736073
1.1824461
1.1887283
1.1930985
1.1960846
1.1980935
1.1994264
1.200299
1.2008626
1.2012214
1.201446
1.2015841
1.2016672
1.201716
1.2017439
1.2017594
1.2017677
1.201772
1.2017741
1.2017752
1.2017757
1.2017759
1.201776
1.201776
1.201776
1.201776
1.201776
0.77102014
0.80712431
0.8440288
0.88183993
0.92039634
0.95922356
0.99752022
1.0342184
1.0681417
1.0982373
1.1237997
1.1445957
1.1608462
1.1730972
1.1820526
1.1884318
1.1928794
1.1959249
1.1979786
1.1993445
1.2002413
1.2008223
1.2011935
1.201427
1.2015712
1.2016584
1.20171
1.2017397
1.2017563
1.2017653
1.20177
1.2017724
1.2017735
1.2017741
1.2017743
1.2017745
1.2017745
1.2017745
1.2017745
1.2017745
0.77075984
0.80675182
0.84353224
0.88121083
0.91963359
0.95833782
0.99653749
1.0331802
1.0671006
1.0972471
1.1229056
1.1438262
1.1602114
1.172592
1.1816623
1.1881373
1.1926612
1.1957657
1.1978638
1.1992626
1.2001833
1.2007817
1.2011654
1.2014076
1.201558
1.2016494
1.2017038
1.2017354
1.2017532
1.2017629
1.201768
1.2017706
1.2017719
1.2017725
1.2017728
1.2017729
1.201773
1.201773
1.201773
1.201773
0.77050544
0.80638785
0.84304711
0.88059626
0.91888831
0.957472
0.99557608
1.0321634
1.0660792
1.0962741
1.1220252
1.1430669
1.1595839
1.1720918
1.1812752
1.1878447
1.1924441
1.195607
1.1977491
1.1991806
1.2001252
1.2007409
1.201137
1.201388
1.2015445
1.2016403
1.2016975
1.201731
1.2017499
1.2017604
1.201766
1.2017688
1.2017703
1.201771
1.2017713
1.2017714
1.2017715
1.2017715
1.2017715
1.2017715
0.7702567
0.80603204
0.84257296
0.87999561
0.91815982
0.95662531
0.99463519
1.0311671
1.0650771
1.0953177
1.1211582
1.1423177
1.1589635
1.1715963
1.1808911
1.187554
1.1922281
1.1954489
1.1976347
1.1990986
1.200067
1.2006999
1.2011083
1.2013682
1.2015309
1.2016309
1.2016911
1.2017264
1.2017466
1.2017578
1.2017639
1.201767
1.2017686
1.2017694
1.2017697
1.2017699
1.20177
1.20177
1.20177
1.20177
0.77001339
0.80568409
0.84210935
0.87940834
0.91744745
0.955797
0.99371404
1.0301906
1.0640935
1.0943773
1.1203041
1.1415783
1.15835
1.1711055
1.18051
1.1872651
1.1920132
1.1952913
1.1975205
1.1990166
1.2000087
1.2006587
1.2010795
1.2013481
1.201517
1.2016213
1.2016844
1.2017217
1.2017432
1.2017552
1.2017618
1.2017652
1.2017669
1.2017678
1.2017682
1.2017684
1.2017685
1.2017685
1.2017685
1.2017685
0.7697753
0.80534367
0.84165585
0.87883392
0.91675056
0.95498637
0.9928119
1.0292333
1.0631277
1.0934525
1.1194627
1.1408484
1.1577434
1.1706193
1.1801319
1.186978
1.1917994
1.1951343
1.1974066
1.1989347
1.1999503
1.2006174
1.2010504
1.2013278
1.2015029
1.2016116
1.2016777
1.201717
1.2017397
1.2017526
1.2017596
1.2017633
1.2017652
1.2017662
1.2017666
1.2017668
1.2017669
1.201767
1.201767
1.201767
0.76954223
0.8050105
0.84121209
0.87827185
0.91606858
0.95419277
0.99192808
1.0282945
1.0621793
1.0925429
1.1186335
1.1401279
1.1571434
1.1701377
1.1797568
1.1866929
1.1915866
1.1949779
1.1972929
1.1988529
1.1998918
1.2005759
1.2010212
1.2013074
1.2014887
1.2016017
1.2016707
1.2017121
1.2017362
1.2017499
1.2017574
1.2017614
1.2017635
1.2017646
1.2017651
1.2017653
1.2017654
1.2017655
1.2017655
1.2017655
0.769314
0.8046843
0.84077769
0.87772168
0.91540093
0.95341557
0.99106193
1.0273735
1.0612477
1.0916479
1.1178163
1.1394165
1.15655
1.1696606
1.1793846
1.1864095
1.191375
1.1948221
1.1971796
1.1987711
1.1998333
1.2005343
1.2009918
1.2012867
1.2014742
1.2015916
1.2016637
1.2017071
1.2017325
1.2017471
1.2017552
1.2017595
1.2017618
1.2017629
1.2017635
1.2017638
1.2017639
1.201764
1.201764
1.201764
0.76909042
0.80436483
0.84035231
0.87718295
0.9147471
0.95265416
0.99021283
1.0264697
1.0603324
1.0907671
1.1170107
1.1387139
1.155963
1.1691878
1.1790152
1.1861279
1.1911644
1.1946669
1.1970665
1.1986894
1.1997747
1.2004926
1.2009622
1.2012659
1.2014597
1.2015814
1.2016565
1.2017019
1.2017288
1.2017442
1.2017529
1.2017576
1.2017601
1.2017613
1.2017619
1.2017622
1.2017624
1.2017625
1.2017625
1.2017625
0.76887132
0.80405182
0.83993561
0.87665525
0.91410658
0.95190799
0.98938018
1.0255826
1.0594328
1.0899002
1.1162164
1.1380201
1.1553822
1.1687193
1.1786487
1.1858481
1.1909549
1.1945124
1.1969537
1.1986079
1.1997161
1.2004508
1.2009326
1.2012449
1.2014449
1.201571
1.2016492
1.2016967
1.201725
1.2017413
1.2017506
1.2017556
1.2017583
1.2017597
1.2017604
1.2017607
1.2017609
1.2017609
1.201761
1.201761
0.76865656
0.80374505
0.83952728
0.87613818
0.91347888
0.95117651
0.98856343
1.0247116
1.0585484
1.0890467
1.1154332
1.1373347
1.1548076
1.1682551
1.178285
1.1855701
1.1907465
1.1943584
1.1968413
1.1985265
1.1996576
1.2004089
1.2009028
1.2012238
1.20143
1.2015605
1.2016418
1.2016914
1.2017211
1.2017384
1.2017482
1.2017536
1.2017565
1.201758
1.2017588
1.2017592
1.2017593
1.2017594
1.2017595
1.2017595
0.76844596
0.80344431
0.83912702
0.87563136
0.91286357
0.95045923
0.98776204
1.0238562
1.0576788
1.0882063
1.1146607
1.1366576
1.154239
1.167795
1.177924
1.1852939
1.1905391
1.1942051
1.1967292
1.1984452
1.1995991
1.200367
1.2008729
1.2012026
1.201415
1.2015499
1.2016342
1.201686
1.2017171
1.2017354
1.2017458
1.2017516
1.2017547
1.2017564
1.2017572
1.2017576
1.2017578
1.2017579
1.2017579
1.2017579
0.76823939
0.80314936
0.83873455
0.87513443
0.9122602
0.94975565
0.98697549
1.0230159
1.0568236
1.0873786
1.1138987
1.1359886
1.1536763
1.167339
1.1775658
1.1850194
1.1903329
1.1940524
1.1966174
1.1983641
1.1995406
1.200325
1.2008429
1.2011813
1.2013998
1.2015391
1.2016266
1.2016805
1.2017131
1.2017323
1.2017433
1.2017495
1.2017529
1.2017547
1.2017556
1.2017561
1.2017563
1.2017564
1.2017564
1.2017564
0.76803671
0.80286003
0.83834961
0.87464705
0.91166838
0.94906532
0.98620331
1.0221902
1.0559823
1.0865633
1.1131469
1.1353274
1.1531194
1.166887
1.1772102
1.1847465
1.1901276
1.1939004
1.196506
1.1982832
1.1994821
1.200283
1.2008128
1.2011598
1.2013846
1.2015283
1.2016188
1.2016749
1.2017089
1.2017291
1.2017408
1.2017474
1.2017511
1.201753
1.201754
1.2017545
1.2017547
1.2017549
1.2017549
1.2017549
0.76783779
0.80257612
0.83797193
0.8741689
0.91108771
0.94838779
0.98544503
1.0213788
1.0551546
1.0857599
1.1124051
1.1346741
1.1525681
1.1664389
1.1768572
1.1844754
1.1899235
1.1937489
1.196395
1.1982024
1.1994237
1.200241
1.2007827
1.2011383
1.2013692
1.2015173
1.201611
1.2016692
1.2017047
1.201726
1.2017383
1.2017453
1.2017492
1.2017513
1.2017524
1.2017529
1.2017532
1.2017533
1.2017534
1.2017534
0.76764251
0.80229744
0.83760127
0.87369967
0.91051782
0.94772265
0.98470021
1.020581
1.0543399
1.0849683
1.111673
1.1340282
1.1520224
1.1659947
1.1765068
1.184206
1.1897204
1.1935981
1.1962843
1.1981218
1.1993654
1.2001989
1.2007525
1.2011167
1.2013537
1.2015062
1.201603
1.2016634
1.2017005
1.2017227
1.2017357
1.2017432
1.2017473
1.2017496
1.2017507
1.2017514
1.2017517
1.2017518
1.2017519
1.2017519
0.76745074
0.80202383
0.83723741
0.87323907
0.90995836
0.94706949
0.98396843
1.0197966
1.0535381
1.084188
1.1109503
1.1333898
1.1514821
1.1655543
1.176159
1.1839382
1.1895183
1.193448
1.1961739
1.1980414
1.1993071
1.2001569
1.2007223
1.2010949
1.2013381
1.2014951
1.201595
1.2016576
1.2016961
1.2017194
1.2017331
1.201741
1.2017454
1.2017478
1.2017491
1.2017498
1.2017501
1.2017503
1.2017503
1.2017503
0.76726237
0.80175512
0.83688011
0.87278681
0.90940899
0.94642795
0.98324928
1.0190252
1.0527486
1.0834189
1.110237
1.1327586
1.1509472
1.1651177
1.1758137
1.183672
1.1893173
1.1932985
1.196064
1.1979612
1.199249
1.2001149
1.200692
1.2010732
1.2013225
1.2014838
1.2015868
1.2016516
1.2016917
1.201716
1.2017304
1.2017388
1.2017435
1.2017461
1.2017475
1.2017482
1.2017486
1.2017487
1.2017488
1.2017488
0.7670773
0.80149116
0.83652918
0.87234262
0.90886939
0.94579764
0.98254239
1.0182663
1.0519712
1.0826605
1.1095326
1.1321345
1.1504174
1.1646847
1.1754709
1.1834075
1.1891173
1.1931496
1.1959544
1.1978812
1.1991909
1.2000729
1.2006617
1.2010513
1.2013068
1.2014724
1.2015786
1.2016456
1.2016873
1.2017126
1.2017277
1.2017365
1.2017415
1.2017443
1.2017458
1.2017466
1.201747
1.2017472
1.2017473
1.2017473
0.76689542
0.8012318
0.8361844
0.87190626
0.90833926
0.94517824
0.98184737
1.0175196
1.0512055
1.0819127
1.1088371
1.1315173