/*--------------------------------*- C++ -*----------------------------------*\
| =========                 |                                                 |
| \\      /  F ield         | OpenFOAM: The Open Source CFD Toolbox           |
|  \\    /   O peration     | Version:  3.0.1                                 |
|   \\  /    A nd           | Web:      www.OpenFOAM.org                      |
|    \\/     M anipulation  |                                                 |
\*---------------------------------------------------------------------------*/
FoamFile
{
    version     2.0;
    format      ascii;
    class       volScalarField;
    location    "2409";
    object      T;
}
// * * * * * * * * * * * * * * * * * * * * * * * * * * * * * * * * * * * * * //

dimensions      [0 0 0 1 0 0 0];

internalField   nonuniform List<scalar> 
4000
(
382.77337
346.60996
322.55688
308.39621
300.75275
296.90411
295.08128
294.26574
293.92026
293.78151
293.72864
293.70951
293.70294
293.70079
293.70013
293.69993
293.69987
293.69986
293.69986
293.69985
293.69985
293.69985
293.69985
293.69985
293.69986
293.69986
293.69986
293.69986
293.69986
293.69986
293.69986
293.69986
293.69986
293.69986
293.69986
293.69986
293.69986
293.69986
293.69986
293.69987
407.17684
372.62579
344.00113
323.06273
309.51195
301.63004
297.43426
295.36008
294.39878
293.97885
293.80549
293.73776
293.71271
293.70393
293.70101
293.70009
293.69982
293.69974
293.69972
293.69971
293.69971
293.69971
293.69971
293.69971
293.69971
293.69971
293.69971
293.69971
293.69971
293.69971
293.69971
293.69971
293.69971
293.69971
293.69971
293.69971
293.69971
293.69971
293.69972
293.69972
417.60101
385.44652
357.12039
334.24995
317.65084
306.82851
300.42318
296.93557
295.16914
294.33073
293.95623
293.79844
293.73567
293.71206
293.70367
293.70084
293.69994
293.69967
293.69959
293.69957
293.69956
293.69956
293.69956
293.69956
293.69956
293.69956
293.69956
293.69956
293.69956
293.69956
293.69956
293.69956
293.69956
293.69956
293.69956
293.69957
293.69957
293.69957
293.69957
293.69957
423.77955
393.26583
365.77078
342.5031
324.45084
311.73713
303.58768
298.7896
296.16918
294.83156
294.19033
293.90088
293.77769
293.72822
293.70946
293.70274
293.70046
293.69973
293.69951
293.69944
293.69942
293.69942
293.69942
293.69942
293.69942
293.69942
293.69942
293.69942
293.69942
293.69942
293.69942
293.69942
293.69942
293.69942
293.69942
293.69942
293.69942
293.69942
293.69942
293.69943
428.05059
398.72445
372.0067
348.80543
330.05125
316.13366
306.67508
300.75693
297.32047
295.4556
294.50531
294.04941
293.84325
293.75531
293.71993
293.70649
293.70166
293.70002
293.6995
293.69933
293.69929
293.69927
293.69927
293.69927
293.69927
293.69927
293.69927
293.69927
293.69927
293.69927
293.69927
293.69927
293.69927
293.69927
293.69927
293.69927
293.69927
293.69928
293.69928
293.69928
431.25595
402.84216
376.7899
353.80119
334.70814
320.00746
309.57273
302.72802
298.55284
296.16943
294.89033
294.24337
293.93466
293.79565
293.73658
293.71289
293.70392
293.70071
293.69962
293.69927
293.69917
293.69914
293.69913
293.69912
293.69912
293.69912
293.69912
293.69912
293.69912
293.69912
293.69912
293.69912
293.69912
293.69913
293.69913
293.69913
293.69913
293.69913
293.69913
293.69913
433.7919
406.1102
380.62448
357.89009
338.64378
323.41874
312.24743
304.64207
299.81479
296.94168
295.33105
294.47855
294.05215
293.85062
293.76066
293.72275
293.70766
293.70198
293.69997
293.69929
293.69907
293.699
293.69898
293.69898
293.69898
293.69898
293.69898
293.69898
293.69898
293.69898
293.69898
293.69898
293.69898
293.69898
293.69898
293.69898
293.69898
293.69898
293.69898
293.69899
435.87249
408.79724
383.79869
361.32325
342.02426
326.439
314.70207
306.46987
301.07241
297.74689
295.813
294.74883
294.19429
293.92073
293.79307
293.73677
293.71331
293.70407
293.70063
293.69942
293.69901
293.69889
293.69885
293.69884
293.69883
293.69883
293.69883
293.69883
293.69883
293.69883
293.69883
293.69883
293.69883
293.69883
293.69883
293.69883
293.69884
293.69884
293.69884
293.69884
437.62559
411.06497
386.49059
364.26503
344.97036
329.13282
316.95372
308.20048
302.30505
298.56611
296.32336
295.04753
294.35861
294.00566
293.83428
293.75551
293.72127
293.7072
293.70173
293.69972
293.69902
293.69879
293.69872
293.69869
293.69869
293.69869
293.69869
293.69869
293.69869
293.69869
293.69869
293.69869
293.69869
293.69869
293.69869
293.69869
293.69869
293.69869
293.69869
293.69869
439.13316
413.01752
388.81686
366.82738
347.57033
331.55393
319.02347
309.83272
303.50109
299.386
296.85164
295.36821
294.54207
294.10451
293.88438
293.77936
293.7319
293.7116
293.7034
293.70025
293.69911
293.69872
293.6986
293.69856
293.69854
293.69854
293.69854
293.69854
293.69854
293.69854
293.69854
293.69854
293.69854
293.69854
293.69854
293.69854
293.69854
293.69854
293.69855
293.69855
440.45062
414.72553
390.85766
369.08933
349.88964
333.74584
320.93214
311.37031
304.65468
300.19755
297.38965
295.70517
294.74154
294.21601
293.94315
293.8085
293.74546
293.7175
293.70576
293.70109
293.69933
293.6987
293.69849
293.69842
293.6984
293.6984
293.69839
293.69839
293.69839
293.69839
293.69839
293.69839
293.69839
293.69839
293.6984
293.6984
293.6984
293.6984
293.6984
293.6984
441.61702
416.23895
392.67015
371.10841
351.97774
335.74352
322.69871
312.81913
305.76357
300.99496
297.93124
296.0536
294.95401
294.3387
294.0101
293.84296
293.76215
293.72507
293.70894
293.7023
293.69971
293.69875
293.69841
293.6983
293.69826
293.69825
293.69825
293.69825
293.69825
293.69825
293.69825
293.69825
293.69825
293.69825
293.69825
293.69825
293.69825
293.69825
293.69825
293.69825
442.66083
417.59426
394.2964
372.92765
353.87269
337.57519
324.33985
314.18584
306.82762
301.77461
298.47187
296.40955
295.17674
294.47103
294.08462
293.88263
293.78206
293.73446
293.71307
293.70396
293.70028
293.69887
293.69836
293.69818
293.69813
293.69811
293.6981
293.6981
293.6981
293.6981
293.6981
293.6981
293.6981
293.6981
293.6981
293.6981
293.6981
293.69811
293.69811
293.69811
443.60342
418.81887
395.76819
374.57992
355.60424
339.26377
325.86996
315.47709
307.8479
302.53444
299.00828
296.76986
295.40733
294.61154
294.16598
293.92728
293.80521
293.74576
293.71824
293.70614
293.7011
293.6991
293.69835
293.69809
293.698
293.69797
293.69796
293.69796
293.69795
293.69795
293.69795
293.69795
293.69796
293.69796
293.69796
293.69796
293.69796
293.69796
293.69796
293.69796
444.46116
419.93381
397.11005
376.0909
357.19604
340.828
327.30146
316.69925
308.8262
303.27341
299.53819
297.13207
295.64374
294.75883
294.25341
293.9766
293.83156
293.75905
293.72453
293.70891
293.7022
293.69946
293.6984
293.69801
293.69787
293.69783
293.69781
293.69781
293.69781
293.69781
293.69781
293.69781
293.69781
293.69781
293.69781
293.69781
293.69781
293.69781
293.69781
293.69781
445.24687
420.9556
398.34125
377.48094
358.66715
342.28337
328.64498
317.85817
309.7646
303.9912
300.06003
297.49427
295.88427
294.91166
294.34617
294.03023
293.86101
293.77435
293.73201
293.71233
293.70362
293.69997
293.69851
293.69796
293.69776
293.69769
293.69767
293.69766
293.69766
293.69766
293.69766
293.69766
293.69766
293.69766
293.69766
293.69767
293.69767
293.69767
293.69767
293.69767
445.97076
421.89736
399.47722
378.76643
360.0331
343.64279
329.90968
318.95918
310.66532
304.68792
300.57275
297.85497
296.1275
295.06893
294.44353
294.08779
293.89341
293.79164
293.74072
293.71644
293.70542
293.70066
293.69871
293.69795
293.69766
293.69756
293.69753
293.69752
293.69752
293.69752
293.69752
293.69752
293.69752
293.69752
293.69752
293.69752
293.69752
293.69752
293.69752
293.69752
446.64107
422.76975
400.53047
379.96075
361.30673
344.91707
331.10347
320.0071
311.5306
305.36397
301.0757
298.21308
296.37226
295.22966
294.54482
294.1489
293.92858
293.81088
293.75069
293.72129
293.70761
293.70155
293.699
293.69797
293.69758
293.69744
293.69739
293.69738
293.69737
293.69737
293.69737
293.69737
293.69737
293.69737
293.69737
293.69737
293.69737
293.69737
293.69738
293.69738
447.26455
423.58145
401.51126
381.07494
362.49873
346.1154
332.23318
321.00626
312.36258
306.01994
301.56853
298.56776
296.61763
295.39302
294.64942
294.21316
293.96633
293.83202
293.76191
293.72691
293.71024
293.70267
293.69939
293.69805
293.69752
293.69733
293.69726
293.69723
293.69723
293.69722
293.69722
293.69722
293.69722
293.69723
293.69723
293.69723
293.69723
293.69723
293.69723
293.69723
447.84679
424.3397
402.42814
382.11822
363.61811
347.24559
333.30477
321.96055
313.16333
306.65655
302.05106
298.91841
296.86285
295.55831
294.75677
294.2802
294.00647
293.85496
293.77439
293.73332
293.71332
293.70403
293.69992
293.69818
293.69749
293.69722
293.69713
293.69709
293.69708
293.69708
293.69708
293.69708
293.69708
293.69708
293.69708
293.69708
293.69708
293.69708
293.69708
293.69708
448.39247
425.05052
403.28824
383.09836
364.67248
348.31437
334.32344
322.87345
313.93477
307.27453
302.52329
299.26459
297.1073
295.72492
294.86638
294.34967
294.04877
293.87961
293.78808
293.74053
293.71689
293.70567
293.70058
293.69839
293.69749
293.69713
293.697
293.69695
293.69694
293.69693
293.69693
293.69693
293.69693
293.69693
293.69693
293.69693
293.69694
293.69694
293.69694
293.69694
448.90554
425.71903
404.09763
384.02194
365.6684
349.32754
335.29377
323.74808
314.67871
307.87468
302.98531
299.606
297.35051
295.89236
294.9778
294.42126
294.09304
293.90587
293.80295
293.74854
293.72096
293.70759
293.7014
293.69867
293.69752
293.69706
293.69688
293.69682
293.6968
293.69679
293.69679
293.69679
293.69679
293.69679
293.69679
293.69679
293.69679
293.69679
293.69679
293.69679
449.38934
426.34956
404.86146
384.89461
366.61149
350.29014
336.21977
324.58725
315.39683
308.45777
303.43728
299.94243
297.5921
296.06019
295.09067
294.49465
294.13908
293.93363
293.81897
293.75734
293.72553
293.70981
293.70238
293.69903
293.69759
293.697
293.69677
293.69668
293.69665
293.69664
293.69664
293.69664
293.69664
293.69664
293.69664
293.69664
293.69664
293.69664
293.69664
293.69664
449.84678
426.94586
405.58418
385.72123
367.50662
351.2066
337.105
325.3935
316.09067
309.02457
303.87943
300.27375
297.83178
296.22806
295.20464
294.56959
294.18669
293.96276
293.83607
293.76692
293.73062
293.71235
293.70354
293.69949
293.69771
293.69697
293.69667
293.69655
293.69651
293.6965
293.6965
293.69649
293.69649
293.69649
293.6965
293.6965
293.6965
293.6965
293.6965
293.6965
450.28033
427.51113
406.26962
386.50604
368.35804
352.08079
337.95264
326.16912
316.76168
309.57581
304.31198
300.59992
298.06931
296.39568
295.31942
294.64583
294.2357
293.99317
293.85419
293.77725
293.73622
293.7152
293.70489
293.70005
293.69788
293.69695
293.69658
293.69643
293.69638
293.69636
293.69635
293.69635
293.69635
293.69635
293.69635
293.69635
293.69635
293.69635
293.69635
293.69635
450.69217
428.04819
406.92112
387.25271
369.16949
352.91613
338.7655
326.91617
317.41117
310.11221
304.73523
300.92092
298.30452
296.5628
295.43477
294.72314
294.28595
294.02473
293.87328
293.78832
293.74233
293.71839
293.70644
293.70072
293.69811
293.69697
293.6965
293.69631
293.69624
293.69621
293.6962
293.6962
293.6962
293.6962
293.6962
293.6962
293.6962
293.69621
293.69621
293.69621
451.08418
428.55949
407.54162
387.96448
369.94425
353.71567
339.54612
327.63652
318.04037
310.63445
305.14944
301.23676
298.53728
296.72923
295.55046
294.80135
294.33728
294.05735
293.89328
293.80009
293.74895
293.72192
293.70819
293.70151
293.6984
293.69702
293.69644
293.6962
293.69611
293.69607
293.69606
293.69606
293.69606
293.69606
293.69606
293.69606
293.69606
293.69606
293.69606
293.69606
451.45802
429.04718
408.13369
388.64419
370.68523
354.4821
340.29676
328.33189
318.65041
311.14317
305.55491
301.54749
298.7675
296.8948
295.66631
294.88026
294.38954
294.09092
293.91411
293.81253
293.75605
293.72577
293.71015
293.70243
293.69876
293.69711
293.69639
293.69609
293.69598
293.69593
293.69592
293.69591
293.69591
293.69591
293.69591
293.69591
293.69591
293.69591
293.69591
293.69591
451.81518
429.51316
408.6996
389.29438
371.39502
355.21786
341.01947
329.00383
319.24234
311.63899
305.95192
301.85319
298.99511
297.05938
295.78217
294.95974
294.44262
294.12534
293.93572
293.8256
293.76364
293.72996
293.71233
293.70347
293.6992
293.69723
293.69636
293.696
293.69585
293.69579
293.69577
293.69577
293.69576
293.69576
293.69576
293.69577
293.69577
293.69577
293.69577
293.69577
452.15694
429.95913
409.24138
389.9173
372.07592
355.9251
341.71611
329.65374
319.81712
312.12249
306.34075
302.15393
299.22008
297.22286
295.8979
295.03964
294.49638
294.16053
293.95805
293.83928
293.77169
293.73448
293.71473
293.70465
293.69971
293.69739
293.69636
293.69591
293.69573
293.69566
293.69563
293.69562
293.69562
293.69562
293.69562
293.69562
293.69562
293.69562
293.69562
293.69562
452.48447
430.38659
409.76083
390.51494
372.73001
356.60579
342.38835
330.28294
320.37567
312.59421
306.72169
302.44982
299.44237
297.38514
296.01338
295.11984
294.55073
294.1964
293.98104
293.85353
293.78018
293.73932
293.71734
293.70596
293.7003
293.6976
293.69637
293.69584
293.69561
293.69552
293.69549
293.69548
293.69547
293.69547
293.69547
293.69547
293.69547
293.69547
293.69547
293.69548
452.79882
430.7969
410.25957
391.08913
373.35915
357.2617
343.03772
330.89262
320.91879
313.05467
307.095
302.74094
299.66199
297.54617
296.12852
295.20024
294.60557
294.23287
294.00462
293.8683
293.7891
293.74448
293.72018
293.70742
293.70098
293.69786
293.69641
293.69577
293.6955
293.69539
293.69535
293.69533
293.69533
293.69533
293.69533
293.69533
293.69533
293.69533
293.69533
293.69533
453.1009
431.19125
410.73904
391.64147
373.96502
357.89442
343.66561
331.48385
321.44728
313.50435
307.46096
303.02741
299.87894
297.7059
296.24323
295.28076
294.66081
294.26988
294.02876
293.88357
293.79843
293.74995
293.72323
293.70902
293.70174
293.69817
293.69648
293.69572
293.6954
293.69526
293.69521
293.69519
293.69518
293.69518
293.69518
293.69518
293.69518
293.69518
293.69518
293.69518
453.39157
431.57074
411.20057
392.17343
374.54914
358.50541
344.27328
332.05766
321.96185
313.94372
307.8198
303.30934
300.09324
297.86427
296.35744
295.3613
294.71638
294.30734
294.05338
293.89929
293.80814
293.75572
293.7265
293.71076
293.7026
293.69853
293.69658
293.69569
293.6953
293.69514
293.69507
293.69505
293.69504
293.69503
293.69503
293.69503
293.69504
293.69504
293.69504
293.69504
453.67158
431.93636
411.64533
392.68634
375.11289
359.096
344.86192
332.61498
322.46317
314.3732
308.17179
303.58684
300.3049
298.02126
296.4711
295.4418
294.7722
294.34521
294.07845
293.91544
293.81821
293.76177
293.72998
293.71265
293.70355
293.69895
293.69671
293.69568
293.69521
293.69502
293.69494
293.6949
293.69489
293.69489
293.69489
293.69489
293.69489
293.69489
293.69489
293.69489
453.94161
432.28899
412.07439
393.1814
375.65753
359.6674
345.43258
333.15665
322.95186
314.79321
308.51714
303.86002
300.51396
298.17685
296.58415
295.5222
294.82822
294.38342
294.10393
293.93198
293.82863
293.7681
293.73366
293.71469
293.7046
293.69942
293.69688
293.69568
293.69513
293.6949
293.6948
293.69476
293.69475
293.69474
293.69474
293.69474
293.69474
293.69474
293.69474
293.69474
454.20231
432.62947
412.48874
393.65971
376.18421
360.22073
345.98626
333.68348
323.4285
315.20412
308.85609
304.12898
300.72046
298.33102
296.69656
295.60245
294.88437
294.42193
294.12976
293.94888
293.83937
293.7747
293.73755
293.71687
293.70574
293.69996
293.69708
293.6957
293.69506
293.69479
293.69467
293.69462
293.6946
293.6946
293.6946
293.6946
293.6946
293.6946
293.6946
293.6946
454.45423
432.95851
412.88926
394.12228
376.69397
360.757
346.52386
334.1962
323.89365
315.60631
309.18886
304.39385
300.92442
298.48377
296.80829
295.68249
294.94062
294.46068
294.15591
293.96611
293.85041
293.78154
293.74164
293.71919
293.70697
293.70056
293.69731
293.69574
293.69501
293.69468
293.69454
293.69448
293.69446
293.69445
293.69445
293.69445
293.69445
293.69445
293.69445
293.69445
454.69789
433.27681
413.27678
394.57002
377.1878
361.27714
347.04621
334.69551
324.3478
316.00012
309.51565
304.65472
301.12589
298.6351
296.91931
295.7623
294.99691
294.49965
294.18234
293.98363
293.86173
293.78863
293.74591
293.72165
293.70831
293.70122
293.69759
293.6958
293.69496
293.69458
293.69441
293.69435
293.69432
293.69431
293.69431
293.69431
293.69431
293.69431
293.69431
293.69431
454.93379
433.58498
413.65204
395.00377
377.66656
361.78204
347.55411
335.18203
324.79145
316.38586
309.83666
304.91171
301.32491
298.785
297.02961
295.84183
295.0532
294.53877
294.20902
294.00143
293.87331
293.79594
293.75037
293.72425
293.70974
293.70194
293.6979
293.69589
293.69493
293.69449
293.69429
293.69421
293.69418
293.69416
293.69416
293.69416
293.69416
293.69416
293.69416
293.69416
455.16235
433.8836
414.01572
395.42431
378.13108
362.27248
348.04826
335.65636
325.22502
316.76385
310.15208
305.16491
301.52153
298.93349
297.13916
295.92105
295.10946
294.57803
294.23591
294.01948
293.88513
293.80347
293.755
293.72698
293.71126
293.70273
293.69826
293.696
293.69491
293.6944
293.69417
293.69408
293.69404
293.69402
293.69402
293.69401
293.69401
293.69401
293.69401
293.69401
455.38397
434.17318
414.36846
395.83235
378.58211
362.7492
348.52934
336.11907
325.64896
317.13438
310.4621
305.41442
301.71579
299.08057
297.24795
295.99994
295.16567
294.6174
294.26299
294.03775
293.89718
293.8112
293.7598
293.72984
293.71288
293.70358
293.69865
293.69614
293.6949
293.69432
293.69406
293.69394
293.6939
293.69388
293.69387
293.69387
293.69387
293.69387
293.69387
293.69387
455.59904
434.45422
414.71085
396.22856
379.02035
363.21289
348.99797
336.57066
326.06364
317.49772
310.76687
305.66035
301.90774
299.22626
297.35598
296.07848
295.22178
294.65683
294.29024
294.05622
293.90943
293.81912
293.76476
293.73283
293.7146
293.7045
293.69909
293.6963
293.69491
293.69425
293.69395
293.69381
293.69376
293.69373
293.69373
293.69372
293.69372
293.69372
293.69372
293.69372
455.8079
434.72716
415.04342
396.61354
379.44645
363.6642
349.45473
337.01163
326.46944
317.85414
311.06658
305.90279
302.09742
299.37056
297.46324
296.15666
295.27779
294.69631
294.31761
294.07487
293.92187
293.82722
293.76987
293.73594
293.7164
293.70548
293.69957
293.69649
293.69494
293.69419
293.69384
293.69368
293.69362
293.69359
293.69358
293.69358
293.69358
293.69358
293.69358
293.69358
456.01085
434.99241
415.36668
396.98786
379.861
364.1037
349.90017
337.44242
326.86672
318.20387
311.36138
306.14183
302.28487
299.51349
297.56972
296.23445
295.33366
294.73582
294.34511
294.09368
293.93448
293.83548
293.77513
293.73917
293.7183
293.70653
293.7001
293.6967
293.69498
293.69413
293.69374
293.69356
293.69348
293.69345
293.69344
293.69343
293.69343
293.69343
293.69343
293.69343
456.20821
435.25037
415.68108
397.35205
380.26457
364.53196
350.33478
337.86347
327.2558
318.54715
311.65143
306.37756
302.47015
299.65508
297.67542
296.31184
295.38938
294.77532
294.37269
294.11262
293.94725
293.84389
293.78052
293.74252
293.72029
293.70764
293.70067
293.69695
293.69504
293.69409
293.69364
293.69344
293.69335
293.69331
293.69329
293.69329
293.69328
293.69328
293.69328
293.69328
456.40024
435.50138
415.98706
397.70658
380.65767
364.94949
350.75906
338.27518
327.637
318.88422
311.93686
306.61007
302.65329
299.79532
297.78034
296.38882
295.44493
294.81481
294.40035
294.13169
293.96016
293.85245
293.78605
293.74597
293.72236
293.70881
293.70128
293.69722
293.69511
293.69406
293.69355
293.69332
293.69321
293.69317
293.69315
293.69314
293.69314
293.69314
293.69314
293.69314
456.5872
435.74578
416.28502
398.05193
381.04078
365.35678
351.17343
338.67793
328.01061
319.21527
312.21781
306.83943
302.83434
299.93426
297.88448
296.46539
295.50031
294.85427
294.42807
294.15087
293.97321
293.86114
293.79169
293.74953
293.72451
293.71005
293.70194
293.69753
293.69521
293.69404
293.69347
293.6932
293.69308
293.69303
293.69301
293.693
293.69299
293.69299
293.69299
293.69299
456.76933
435.98388
416.57533
398.38851
381.41437
365.75426
351.57832
339.07207
328.37691
319.5405
312.49443
307.06573
303.01335
300.07189
297.98785
296.54153
295.55549
294.89369
294.45583
294.17014
293.98636
293.86995
293.79745
293.75318
293.72674
293.71135
293.70264
293.69786
293.69532
293.69403
293.69339
293.69309
293.69295
293.69289
293.69286
293.69285
293.69285
293.69285
293.69285
293.69285
456.94685
436.21597
416.85835
398.71672
381.77886
366.14238
351.97412
339.45794
328.73617
319.86012
312.76683
307.28906
303.19035
300.20824
298.09044
296.61724
295.61046
294.93304
294.48362
294.18949
293.99963
293.87887
293.80332
293.75693
293.72906
293.71271
293.70338
293.69822
293.69546
293.69403
293.69332
293.69298
293.69282
293.69275
293.69272
293.69271
293.6927
293.6927
293.6927
293.6927
457.11997
436.44231
417.1344
399.03693
382.13463
366.52151
352.36119
339.83585
329.08863
320.17431
313.03515
307.50947
303.36539
300.34334
298.19228
296.69253
295.66523
294.97232
294.51143
294.20891
294.01299
293.8879
293.80929
293.76077
293.73144
293.71412
293.70417
293.69861
293.69561
293.69404
293.69325
293.69287
293.69269
293.69261
293.69258
293.69256
293.69256
293.69256
293.69256
293.69256
457.28888
436.66317
417.40379
399.34949
382.48207
366.89205
352.7399
340.20611
329.43454
320.48323
313.29949
307.72705
303.53852
300.47719
298.29335
296.76737
295.71977
295.01151
294.53923
294.22838
294.02643
293.89702
293.81535
293.7647
293.7339
293.7156
293.705
293.69904
293.69578
293.69407
293.6932
293.69277
293.69257
293.69248
293.69244
293.69242
293.69241
293.69241
293.69241
293.69241
457.45377
436.87878
417.6668
399.65473
382.82152
367.25433
353.11055
340.56899
329.77411
320.78705
313.55997
307.94187
303.70976
300.60983
298.39366
296.84178
295.77408
295.05062
294.56704
294.2479
294.03994
293.90622
293.8215
293.7687
293.73643
293.71713
293.70587
293.69949
293.69598
293.69411
293.69315
293.69268
293.69245
293.69234
293.6923
293.69228
293.69227
293.69227
293.69226
293.69226
457.6148
437.08937
417.9237
399.95295
383.15332
367.6087
353.47347
340.92477
330.10757
321.08593
313.8167
308.15399
303.87916
300.74126
298.49323
296.91576
295.82816
295.08962
294.59482
294.26745
294.05352
293.91551
293.82773
293.77278
293.73902
293.71871
293.70679
293.69997
293.69619
293.69416
293.69311
293.69258
293.69233
293.69221
293.69216
293.69213
293.69212
293.69212
293.69212
293.69212
457.77213
437.29513
418.17475
400.24444
383.47777
367.95545
353.82895
341.27371
330.43511
321.38003
314.06979
308.36349
304.04676
300.87151
298.59206
296.98929
295.882
295.12851
294.62258
294.28703
294.06715
293.92486
293.83403
293.77693
293.74168
293.72035
293.70774
293.70048
293.69643
293.69423
293.69308
293.6925
293.69221
293.69208
293.69202
293.69199
293.69198
293.69198
293.69197
293.69197
457.92593
437.49627
418.42019
400.52948
383.79516
368.29488
354.17726
341.61603
330.75694
321.66948
314.31932
308.57041
304.21259
301.00061
298.69016
297.06239
295.9356
295.16729
294.6503
294.30662
294.08083
293.93428
293.8404
293.78115
293.74439
293.72203
293.70873
293.70103
293.69668
293.69431
293.69306
293.69242
293.6921
293.69195
293.69188
293.69185
293.69184
293.69183
293.69183
293.69183
458.07632
437.69298
418.66023
400.80831
384.10577
368.62728
354.51866
341.95197
331.07323
321.95442
314.5654
308.77484
304.37669
301.12856
298.78754
297.13505
295.98896
295.20595
294.67799
294.32623
294.09455
293.94375
293.84684
293.78543
293.74717
293.72377
293.70977
293.7016
293.69696
293.69441
293.69304
293.69234
293.69199
293.69182
293.69174
293.69171
293.69169
293.69169
293.69168
293.69168
458.22345
437.88542
418.8951
401.08119
384.40986
368.9529
354.85341
342.28176
331.38417
322.235
314.80811
308.97681
304.5391
301.25538
298.88421
297.20728
296.04207
295.24448
294.70562
294.34584
294.10831
293.95328
293.85333
293.78977
293.74999
293.72555
293.71084
293.7022
293.69726
293.69451
293.69304
293.69227
293.69188
293.6917
293.69161
293.69157
293.69155
293.69154
293.69154
293.69154
458.36744
438.07377
419.12499
401.34833
384.70767
369.272
355.18173
342.60558
331.68992
322.51132
315.04756
309.1764
304.69985
301.38111
298.98016
297.27908
296.09493
295.28289
294.73321
294.36545
294.1221
293.96285
293.85988
293.79417
293.75287
293.72737
293.71194
293.70283
293.69757
293.69464
293.69304
293.69221
293.69178
293.69157
293.69147
293.69143
293.69141
293.6914
293.69139
293.69139
458.50842
438.25818
419.35008
401.60996
384.99944
369.5848
355.50385
342.92365
331.99064
322.78352
315.28381
309.37365
304.85897
301.50574
299.07543
297.35045
296.14754
295.32116
294.76074
294.38504
294.1359
293.97246
293.86648
293.79861
293.7558
293.72924
293.71309
293.70348
293.69791
293.69478
293.69306
293.69215
293.69168
293.69145
293.69134
293.69129
293.69126
293.69125
293.69125
293.69125
458.64648
438.4388
419.57057
401.86627
385.28539
369.89154
355.81999
343.23615
332.28648
323.05171
315.51696
309.56863
305.0165
301.62931
299.17
297.42139
296.1999
295.3593
294.78821
294.40463
294.14973
293.98211
293.87312
293.80311
293.75877
293.73115
293.71426
293.70416
293.69827
293.69493
293.69308
293.6921
293.69159
293.69133
293.69121
293.69115
293.69112
293.69111
293.69111
293.6911
458.78175
438.61576
419.78661
402.11747
385.56572
370.19242
356.13034
343.54325
332.57759
323.316
315.74707
309.76138
305.17247
301.75183
299.26389
297.49191
296.252
295.39729
294.81561
294.4242
294.16356
293.99179
293.8798
293.80764
293.76179
293.7331
293.71547
293.70487
293.69865
293.69509
293.69312
293.69205
293.6915
293.69122
293.69108
293.69101
293.69098
293.69097
293.69096
293.69096
458.91432
438.78921
419.99837
402.36373
385.84064
370.48765
356.4351
343.84513
332.86412
323.5765
315.97424
309.95195
305.32691
301.87332
299.35712
297.56201
296.30386
295.43515
294.84294
294.44374
294.1774
294.00149
293.88651
293.81222
293.76484
293.73508
293.71672
293.70561
293.69905
293.69528
293.69316
293.69202
293.69141
293.6911
293.69095
293.69087
293.69084
293.69082
293.69082
293.69082
459.04429
438.95926
420.20601
402.60523
386.11033
370.77742
356.73444
344.14195
333.14619
323.83331
316.19852
310.14039
305.47985
301.9938
299.44969
297.63169
296.35546
295.47286
294.8702
294.46326
294.19125
294.01121
293.89326
293.81683
293.76793
293.7371
293.71799
293.70637
293.69947
293.69547
293.69322
293.69198
293.69133
293.69099
293.69082
293.69074
293.6907
293.69068
293.69068
293.69067
459.17175
439.12603
420.40965
402.84213
386.37497
371.06191
357.02855
344.43387
333.42394
324.08653
316.42
310.32675
305.63131
302.11328
299.5416
297.70097
296.40682
295.51043
294.89739
294.48275
294.20509
294.02096
293.90004
293.82148
293.77106
293.73915
293.71929
293.70716
293.69991
293.69568
293.69328
293.69196
293.69125
293.69088
293.6907
293.6906
293.69056
293.69054
293.69053
293.69053
459.29678
439.28964
420.60945
403.0746
386.63473
371.34129
357.3176
344.72103
333.69748
324.33625
316.63873
310.51107
305.78134
302.23178
299.63287
297.76983
296.45792
295.54785
294.9245
294.5022
294.21893
294.03071
293.90684
293.82616
293.77422
293.74124
293.72062
293.70797
293.70037
293.69591
293.69336
293.69194
293.69118
293.69078
293.69057
293.69047
293.69042
293.6904
293.69039
293.69039
459.41948
439.45019
420.80553
403.30277
386.88977
371.61573
357.60173
345.00358
333.96693
324.58257
316.85479
310.69339
305.92995
302.34932
299.72351
297.83829
296.50878
295.58513
294.95153
294.52162
294.23277
294.04048
293.91367
293.83087
293.77742
293.74336
293.72198
293.7088
293.70084
293.69615
293.69345
293.69193
293.69111
293.69067
293.69045
293.69034
293.69028
293.69026
293.69025
293.69025
459.53991
439.60779
420.99802
403.5268
387.14025
371.88539
357.8811
345.28165
334.23242
324.82557
317.06823
310.87377
306.07717
302.4659
299.81352
297.90636
296.55939
295.62226
294.97848
294.541
294.24659
294.05026
293.92051
293.8356
293.78064
293.7455
293.72336
293.70966
293.70134
293.6964
293.69354
293.69193
293.69105
293.69058
293.69033
293.69021
293.69015
293.69012
293.69011
293.6901
459.65816
439.76254
421.18703
403.74681
387.38631
372.15041
358.15586
345.55536
334.49404
325.06533
317.27912
311.05224
306.22304
302.58156
299.90292
297.97402
296.60975
295.65924
295.00534
294.56034
294.2604
294.06004
293.92738
293.84036
293.78389
293.74767
293.72477
293.71054
293.70185
293.69667
293.69365
293.69194
293.69099
293.69048
293.69021
293.69008
293.69001
293.68998
293.68997
293.68996
459.77429
439.91452
421.37268
403.96295
387.6281
372.41095
358.42614
345.82486
334.7519
325.30195
317.48752
311.22884
306.36756
302.6963
299.99171
298.0413
296.65987
295.69608
295.03212
294.57964
294.2742
294.06982
293.93425
293.84514
293.78716
293.74987
293.72621
293.71144
293.70238
293.69695
293.69377
293.69195
293.69094
293.69039
293.6901
293.68995
293.68987
293.68984
293.68983
293.68982
459.88838
440.06383
421.55507
404.17532
387.86574
372.66714
358.69207
346.09025
335.0061
325.53549
317.69348
311.40361
306.51078
302.81014
300.0799
298.10819
296.70975
295.73277
295.05882
294.5989
294.28798
294.07961
293.94114
293.84994
293.79045
293.75208
293.72766
293.71235
293.70293
293.69725
293.6939
293.69197
293.69089
293.6903
293.68998
293.68982
293.68974
293.6897
293.68969
293.68968
460.00048
440.21055
421.73432
404.38405
388.09937
372.9191
358.95379
346.35165
335.25674
325.76603
317.89706
311.57658
306.65271
302.9231
300.1675
298.1747
296.75938
295.76931
295.08543
294.61811
294.30174
294.08939
293.94804
293.85476
293.79377
293.75433
293.72914
293.71329
293.70349
293.69756
293.69403
293.692
293.69085
293.69021
293.68987
293.6897
293.68961
293.68956
293.68955
293.68954
460.11066
440.35476
421.9105
404.58925
388.32911
373.16697
359.21142
346.60917
335.50391
325.99365
318.0983
311.7478
306.79337
303.03518
300.25453
298.24083
296.80878
295.80571
295.11196
294.63727
294.31548
294.09917
293.95495
293.85959
293.7971
293.75659
293.73064
293.71425
293.70408
293.69788
293.69418
293.69203
293.69081
293.69013
293.68977
293.68957
293.68948
293.68943
293.68941
293.6894
460.21898
440.49653
422.08373
404.79102
388.55507
373.41087
359.46506
346.86292
335.7477
326.21841
318.29728
311.9173
306.9328
303.14641
300.34097
298.3066
296.85794
295.84196
295.1384
294.65639
294.3292
294.10895
293.96186
293.86443
293.80046
293.75887
293.73215
293.71523