/*--------------------------------*- C++ -*----------------------------------*\
| =========                 |                                                 |
| \\      /  F ield         | OpenFOAM: The Open Source CFD Toolbox           |
|  \\    /   O peration     | Version:  3.0.1                                 |
|   \\  /    A nd           | Web:      www.OpenFOAM.org                      |
|    \\/     M anipulation  |                                                 |
\*---------------------------------------------------------------------------*/
FoamFile
{
    version     2.0;
    format      ascii;
    class       volVectorField;
    location    "2409";
    object      U;
}
// * * * * * * * * * * * * * * * * * * * * * * * * * * * * * * * * * * * * * //

dimensions      [0 1 -1 0 0 0 0];

internalField   nonuniform List<vector> 
4000
(
(0.00056408609 -1.4359208e-18 0.08629908)
(0.0014287132 -3.0902087e-18 0.19472168)
(0.0025289263 -4.0690321e-18 0.26183498)
(0.0029120551 -5.2733297e-18 0.30069782)
(0.0029327928 -6.2405076e-18 0.32156415)
(0.0027515309 -7.0645075e-18 0.33145171)
(0.0025109928 -7.8513532e-18 0.33476838)
(0.0022714154 -8.6314892e-18 0.33409492)
(0.0020571456 -7.985511e-18 0.3308505)
(0.0018713472 -7.2960477e-18 0.32577629)
(0.0017108245 -6.5774676e-18 0.3192507)
(0.001570602 -5.9521357e-18 0.31147627)
(0.0014463344 -5.305694e-18 0.3025819)
(0.0013345281 -4.6942027e-18 0.29267452)
(0.0012326896 -4.1826901e-18 0.28186308)
(0.0011388204 -3.7761289e-18 0.27026813)
(0.0010524209 -3.3968555e-18 0.25802416)
(0.00097209744 -4.7837992e-18 0.24527806)
(0.00089608032 -6.4861802e-18 0.23218421)
(0.0008240182 -8.4828661e-18 0.21890116)
(0.00075526527 -1.089321e-17 0.20558669)
(0.00068963298 -1.4055676e-17 0.19239261)
(0.00062691252 -1.5390124e-17 0.17945919)
(0.00056707178 -1.2537433e-17 0.16691025)
(0.00051010434 -1.1981445e-17 0.15484708)
(0.00045613115 -9.9756676e-18 0.14334428)
(0.00040528841 -8.042962e-18 0.13244562)
(0.00035774504 -7.9255263e-18 0.12216079)
(0.00031367621 -8.1714199e-18 0.11246277)
(0.00027321591 -8.7620478e-18 0.10328631)
(0.00023651044 -8.5220444e-18 0.094527679)
(0.00020356286 -6.379722e-18 0.086046568)
(0.00017443957 -4.3634902e-18 0.077670523)
(0.00014880213 -2.5112505e-18 0.069203431)
(0.00012659537 -7.8206006e-19 0.060437906)
(0.00010664684 8.8713029e-19 0.051172933)
(8.8850497e-05 1.2713199e-18 0.041232717)
(6.9662408e-05 6.1737635e-19 0.030488135)
(4.9333172e-05 6.0495724e-19 0.018867436)
(1.4834203e-05 1.9666774e-19 0.0063698198)
(-4.9689809e-06 -1.8093101e-18 0.093450972)
(-0.00026432152 -3.5830048e-18 0.21040523)
(-0.00045152223 -5.3057345e-18 0.28025048)
(-0.00067604937 -7.4661354e-18 0.3168777)
(-0.00086870459 -7.088668e-18 0.33315452)
(-0.0010009081 -7.2716379e-18 0.33847054)
(-0.0010434465 -7.7195845e-18 0.33835815)
(-0.0010027979 -8.1621848e-18 0.33552604)
(-0.0009015281 -7.896822e-18 0.3310928)
(-0.00076643963 -7.3033233e-18 0.32544438)
(-0.00061893532 -6.7668129e-18 0.31869002)
(-0.000473378 -6.5348402e-18 0.31086433)
(-0.00033793418 -5.4482307e-18 0.30200287)
(-0.00021663257 -4.7176495e-18 0.29216445)
(-0.00011089 -4.0924981e-18 0.28143355)
(-2.0826474e-05 -3.2177661e-18 0.26991463)
(5.4722863e-05 -2.9569892e-18 0.25773339)
(0.00011642307 -4.8090329e-18 0.2450588)
(0.0001647386 -6.8083524e-18 0.2320323)
(0.00020085318 -8.6093883e-18 0.21880907)
(0.00022587612 -1.1080394e-17 0.20554592)
(0.00024098486 -1.4646095e-17 0.19239441)
(0.0002481342 -1.549521e-17 0.17949498)
(0.00024851973 -1.2611773e-17 0.16697196)
(0.00024252199 -1.2277307e-17 0.15492703)
(0.00023156204 -1.0014029e-17 0.14343541)
(0.00021686784 -8.0580525e-18 0.13254176)
(0.00019968824 -7.9550789e-18 0.12225668)
(0.00018116106 -8.1952324e-18 0.11255419)
(0.0001622893 -8.7519375e-18 0.10337001)
(0.00014398085 -8.2943058e-18 0.094601424)
(0.00012691599 -6.1845185e-18 0.08610911)
(0.00011168447 -4.3510304e-18 0.07772171)
(9.8386507e-05 -2.5177888e-18 0.069244234)
(8.7153444e-05 -7.8941118e-19 0.060470667)
(7.6960867e-05 8.7534031e-19 0.051201411)
(6.7279145e-05 1.1608269e-18 0.041263056)
(5.4333249e-05 6.9180621e-19 0.030529431)
(3.6890448e-05 5.9858009e-19 0.018934226)
(6.4120595e-06 1.647044e-19 0.0064529311)
(-2.4241916e-05 -1.2954941e-18 0.10157071)
(-0.00041248536 -3.3613229e-18 0.22925729)
(-0.0008998499 -5.0621732e-18 0.30406988)
(-0.0013992793 -6.3972372e-18 0.33993118)
(-0.0018136689 -6.9601365e-18 0.35153284)
(-0.0020981115 -7.3150087e-18 0.35084766)
(-0.0022270667 -7.7697654e-18 0.3453735)
(-0.0022101128 -8.1327107e-18 0.33865363)
(-0.002080589 -7.8255134e-18 0.33180201)
(-0.0018803634 -7.1281948e-18 0.32484209)
(-0.0016464062 -6.0657273e-18 0.31748438)
(-0.0014055299 -6.1865494e-18 0.30945815)
(-0.0011743008 -5.4582628e-18 0.30060363)
(-0.00096154184 -4.7272029e-18 0.29086836)
(-0.00077099062 -4.1060623e-18 0.28027854)
(-0.00060359009 -3.4674796e-18 0.26891189)
(-0.00045913945 -3.4314626e-18 0.25688389)
(-0.0003362253 -4.9409315e-18 0.24434639)
(-0.00023289682 -6.8823831e-18 0.23144497)
(-0.00014760136 -9.1581487e-18 0.21833355)
(-7.8582752e-05 -1.0756508e-17 0.20516822)
(-2.4229903e-05 -1.3965636e-17 0.19209966)
(1.7773677e-05 -1.4444362e-17 0.17926171)
(4.901151e-05 -1.2763243e-17 0.1667987)
(7.0356602e-05 -1.2033439e-17 0.15480496)
(8.351762e-05 -1.003162e-17 0.14335425)
(8.9947077e-05 -8.2792988e-18 0.13249196)
(9.1291715e-05 -8.0082009e-18 0.12222987)
(8.9048995e-05 -8.2032899e-18 0.11254326)
(8.4283309e-05 -8.6029094e-18 0.10336911)
(7.8067713e-05 -8.1480265e-18 0.094605849)
(7.1429811e-05 -5.9315101e-18 0.086115395)
(6.5208677e-05 -4.3126446e-18 0.077727646)
(5.9766582e-05 -2.5198403e-18 0.069248892)
(5.5360848e-05 -8.1135013e-19 0.06047452)
(5.1167252e-05 6.9375851e-19 0.051206532)
(4.6437651e-05 9.5188607e-19 0.041273683)
(3.785545e-05 7.1744827e-19 0.03055182)
(2.3454577e-05 6.2741234e-19 0.018972043)
(2.1482622e-06 1.8690888e-19 0.0064793181)
(-2.2805157e-05 -8.0431701e-19 0.10891426)
(-0.00039494664 -2.6903692e-18 0.24719094)
(-0.00093603167 -4.2047743e-18 0.32840782)
(-0.0015467527 -4.9358629e-18 0.36573105)
(-0.0021107285 -6.6967858e-18 0.37438553)
(-0.0025502784 -7.9993168e-18 0.3681869)
(-0.0028144156 -7.8952979e-18 0.3567453)
(-0.0028939888 -7.9526797e-18 0.34501972)
(-0.0028153112 -7.6852746e-18 0.3346267)
(-0.0026237998 -7.0398994e-18 0.32547799)
(-0.0023665077 -6.1605023e-18 0.3169301)
(-0.0020818046 -5.4472428e-18 0.30835208)
(-0.0017961255 -5.3311244e-18 0.29931151)
(-0.0015252652 -4.7218827e-18 0.28958055)
(-0.0012772788 -4.1736686e-18 0.2790847)
(-0.0010553676 -3.8751188e-18 0.26784963)
(-0.00086032107 -4.2109451e-18 0.25596537)
(-0.00069108893 -5.1546183e-18 0.24356518)
(-0.00054575041 -6.7125309e-18 0.23079182)
(-0.00042255422 -9.0328393e-18 0.21779698)
(-0.00031950119 -1.0833101e-17 0.2047353)
(-0.0002345441 -1.2999623e-17 0.19175679)
(-0.00016597012 -1.3706779e-17 0.17899926)
(-0.0001117855 -1.298659e-17 0.16660065)
(-6.9804991e-05 -1.1601683e-17 0.15466013)
(-3.8270104e-05 -1.0034667e-17 0.14325237)
(-1.5493072e-05 -8.6529392e-18 0.13242345)
(3.1327101e-07 -8.0912671e-18 0.12218501)
(1.0811426e-05 -8.1877516e-18 0.11251544)
(1.7253447e-05 -8.3072396e-18 0.10335388)
(2.0875331e-05 -7.9084843e-18 0.09459807)
(2.2848302e-05 -5.9123673e-18 0.086110993)
(2.4145726e-05 -4.2810819e-18 0.077723932)
(2.5253902e-05 -2.5206153e-18 0.069244646)
(2.6641704e-05 -8.5670615e-19 0.06047014)
(2.7805688e-05 3.9891617e-19 0.051204276)
(2.7745018e-05 8.5996576e-19 0.041278002)
(2.3706399e-05 7.0664301e-19 0.030568468)
(1.3902524e-05 4.8896086e-19 0.019001482)
(5.1588694e-07 1.9810977e-19 0.0065004242)
(-2.0514198e-05 -1.0778472e-18 0.11516374)
(-0.00035655064 -2.7249073e-18 0.2630443)
(-0.0008792524 -4.1859411e-18 0.35096733)
(-0.0015081065 -5.4460235e-18 0.39115527)
(-0.0021366085 -6.5622473e-18 0.39860635)
(-0.0026758203 -7.5797542e-18 0.38812734)
(-0.0030541023 -7.9429393e-18 0.37107166)
(-0.0032388546 -7.8652398e-18 0.35398205)
(-0.003239025 -7.5596394e-18 0.33936104)
(-0.0030928366 -7.1338345e-18 0.32732605)
(-0.0028493797 -6.8862775e-18 0.31703908)
(-0.0025542834 -5.7645866e-18 0.30754213)
(-0.002242527 -5.3409914e-18 0.29809911)
(-0.0019372345 -4.8183122e-18 0.28825895)
(-0.0016517013 -4.3002469e-18 0.27780524)
(-0.0013923585 -4.0922463e-18 0.26668291)
(-0.0011616046 -4.4271292e-18 0.25493893)
(-0.00095921351 -5.364254e-18 0.24268167)
(-0.00078362503 -6.8520114e-18 0.23004492)
(-0.00063300619 -8.5880429e-18 0.2171761)
(-0.00050526431 -1.1260373e-17 0.20422762)
(-0.00039813892 -1.2864607e-17 0.19134878)
(-0.0003097668 -1.3747614e-17 0.17867933)
(-0.00023796701 -1.287783e-17 0.16635345)
(-0.00018031131 -1.1538738e-17 0.1544733)
(-0.00013491479 -1.0043055e-17 0.14311476)
(-9.9817375e-05 -8.749827e-18 0.13232475)
(-7.3209639e-05 -8.1662834e-18 0.12211645)
(-5.336789e-05 -8.1738566e-18 0.11246886)
(-3.8626718e-05 -8.2160043e-18 0.10332217)
(-2.7500543e-05 -7.7274106e-18 0.094575894)
(-1.8789482e-05 -6.1562915e-18 0.086094183)
(-1.1443979e-05 -4.2809795e-18 0.077709659)
(-4.892998e-06 -2.5239834e-18 0.069231438)
(1.327637e-06 -8.9980736e-19 0.060457022)
(6.8594808e-06 3.2010219e-19 0.051193606)
(1.0686114e-05 8.7608279e-19 0.041274342)
(1.08077e-05 6.9219002e-19 0.030576226)
(5.9956362e-06 4.0559322e-19 0.019018537)
(-4.5878575e-07 1.5384743e-19 0.0065103404)
(-1.9214261e-05 -1.6644557e-18 0.1206937)
(-0.00032622456 -3.4290699e-18 0.27728832)
(-0.00081999233 -5.1344634e-18 0.37174086)
(-0.0014358323 -6.8397324e-18 0.41545391)
(-0.0020833492 -6.6037155e-18 0.42292076)
(-0.0026768433 -6.8594717e-18 0.40935913)
(-0.0031361481 -7.6343373e-18 0.38739302)
(-0.0034111881 -7.7831604e-18 0.36504033)
(-0.0034924477 -7.6546593e-18 0.34586706)
(-0.0034054816 -7.2215168e-18 0.33045052)
(-0.0031949997 -6.8500065e-18 0.31794827)
(-0.0029089913 -6.5331004e-18 0.30716536)
(-0.0025883413 -5.5752941e-18 0.29707669)
(-0.0022627292 -4.9237305e-18 0.28698494)
(-0.0019509475 -4.3709506e-18 0.27649937)
(-0.0016632937 -4.2062514e-18 0.26545622)
(-0.001404433 -4.3236229e-18 0.25384034)
(-0.0011754154 -5.5674376e-18 0.24172544)
(-0.00097531396 -7.2263206e-18 0.22922962)
(-0.0008024191 -8.8611267e-18 0.216493)
(-0.00065462704 -1.1226489e-17 0.20366458)
(-0.00052959382 -1.3148829e-17 0.19089239)
(-0.00042523966 -1.3844604e-17 0.17831691)
(-0.00033923592 -1.254105e-17 0.16606987)
(-0.00026905392 -1.1707224e-17 0.15425534)
(-0.00021261442 -1.0047853e-17 0.14295051)
(-0.00016777315 -8.6328691e-18 0.13220333)
(-0.00013258118 -8.2095677e-18 0.12202833)
(-0.00010517733 -8.1739317e-18 0.11240542)
(-8.3734152e-05 -8.2723218e-18 0.10327592)
(-6.6634078e-05 -7.5444209e-18 0.094541008)
(-5.2556413e-05 -6.079381e-18 0.086066133)
(-4.0355623e-05 -4.2706989e-18 0.077685315)
(-2.9308387e-05 -2.526697e-18 0.069209139)
(-1.9082443e-05 -9.2624837e-19 0.0604371)
(-1.0045833e-05 3.9074951e-19 0.051177567)
(-3.0011662e-06 7.9746624e-19 0.04126499)
(6.5194817e-07 6.8059109e-19 0.030575566)
(2.6294577e-07 4.8640433e-19 0.019023887)
(-9.3559264e-07 1.1912884e-19 0.0065122408)
(-1.8077175e-05 -1.1654016e-18 0.12567516)
(-0.00030127614 -1.966814e-18 0.29024602)
(-0.00076633715 -4.1920159e-18 0.39093103)
(-0.0013595361 -5.7044591e-18 0.43845498)
(-0.0020046246 -6.4645132e-18 0.44673838)
(-0.0026239716 -7.022734e-18 0.43107381)
(-0.003136909 -7.5696897e-18 0.40495962)
(-0.0034831708 -7.8348949e-18 0.37767923)
(-0.0036380754 -7.7255048e-18 0.35389088)
(-0.0036134518 -7.2454823e-18 0.33479121)
(-0.0034459453 -6.7008369e-18 0.31970055)
(-0.0031818343 -6.3619094e-18 0.30729808)
(-0.0028649044 -5.6641276e-18 0.29631627)
(-0.0025298494 -5.088902e-18 0.28581328)
(-0.0022005686 -4.605301e-18 0.27520478)
(-0.0018914641 -4.3785498e-18 0.26419504)
(-0.0016099516 -4.6283884e-18 0.25268782)
(-0.0013587651 -5.6162068e-18 0.24071042)
(-0.0011378925 -6.6551485e-18 0.22835749)
(-0.00094597124 -8.6183e-18 0.21575792)
(-0.0007809925 -1.1542074e-17 0.20305539)
(-0.00064060473 -1.2923032e-17 0.1903959)
(-0.00052255779 -1.34771e-17 0.17791968)
(-0.00042440272 -1.2486158e-17 0.16575676)
(-0.00034353812 -1.1559041e-17 0.1540125)
(-0.00027769797 -1.0048793e-17 0.14276538)
(-0.0002246016 -8.744995e-18 0.13206442)
(-0.00018215678 -8.2728327e-18 0.12192553)
(-0.00014836413 -8.3310692e-18 0.11232958)
(-0.00012127958 -8.1205011e-18 0.10321909)
(-9.9170948e-05 -7.1373086e-18 0.094496899)
(-8.0594399e-05 -5.986729e-18 0.086029873)
(-6.4325484e-05 -4.2485658e-18 0.077653492)
(-4.9531281e-05 -2.5281403e-18 0.069179911)
(-3.5845938e-05 -9.4630363e-19 0.060410523)
(-2.3560511e-05 4.0538052e-19 0.051155069)
(-1.3411496e-05 6.3738218e-19 0.041249149)
(-6.603625e-06 6.4766791e-19 0.030568228)
(-3.4884793e-06 4.5595569e-19 0.019021672)
(-1.1459633e-06 1.3637968e-19 0.0065098263)
(-1.7112949e-05 9.7370305e-20 0.13022945)
(-0.000280647 -1.4181469e-18 0.30216856)
(-0.00071963428 -2.4599317e-18 0.40877039)
(-0.0012881118 -2.4959955e-18 0.4602017)
(-0.0019210075 -5.318048e-18 0.46982163)
(-0.0025494054 -6.5974236e-18 0.45281256)
(-0.0030961168 -7.313785e-18 0.42325306)
(-0.0034961908 -7.8227901e-18 0.39147218)
(-0.0037139973 -7.7049137e-18 0.36316887)
(-0.0037489704 -7.146049e-18 0.34023895)
(-0.0036283409 -6.4227782e-18 0.32229114)
(-0.0033939722 -5.5155361e-18 0.30798547)
(-0.0030898786 -5.5732806e-18 0.2958744)
(-0.002753938 -5.2683468e-18 0.28479253)
(-0.0024143095 -4.8746455e-18 0.27395659)
(-0.0020893692 -5.1094766e-18 0.26292259)
(-0.0017895445 -5.7176883e-18 0.25149642)
(-0.0015195834 -5.9007228e-18 0.23964648)
(-0.0012806622 -6.7382108e-18 0.22743544)
(-0.0010719894 -8.7063734e-18 0.21497606)
(-0.00089177738 -1.1113339e-17 0.20240427)
(-0.0007377367 -1.1734663e-17 0.18986275)
(-0.00060750866 -1.233091e-17 0.17749064)
(-0.00049855049 -1.2534889e-17 0.16541663)
(-0.00040819808 -1.0934208e-17 0.15374691)
(-0.00033402386 -1.0010932e-17 0.14256117)
(-0.00027363042 -9.0687375e-18 0.13190957)
(-0.0002247909 -8.3442646e-18 0.12180934)
(-0.00018537878 -8.245986e-18 0.11224244)
(-0.00015334905 -7.8328396e-18 0.10315267)
(-0.00012686365 -7.1081296e-18 0.094444501)
(-0.00010436585 -6.1072876e-18 0.085986287)
(-8.4554506e-05 -4.2441741e-18 0.077615053)
(-6.6513263e-05 -2.5330863e-18 0.069144607)
(-4.9825376e-05 -9.8961732e-19 0.060378218)
(-3.4703014e-05 1.2411444e-19 0.051127042)
(-2.1833961e-05 5.8075653e-19 0.041227642)
(-1.2234598e-05 6.0648387e-19 0.030554558)
(-6.1350013e-06 3.3652694e-19 0.019013046)
(-1.2410553e-06 1.5451925e-19 0.0065035986)
(-1.6272051e-05 -1.3979083e-18 0.13443918)
(-0.00026326437 -3.6421919e-18 0.31323946)
(-0.00067904181 -4.2824907e-18 0.42545776)
(-0.0012233671 -5.5737888e-18 0.480797)
(-0.0018398702 -5.7615612e-18 0.49209302)
(-0.0024675838 -6.4645156e-18 0.47431888)
(-0.003034383 -7.0216006e-18 0.44192357)
(-0.0034741562 -7.0762073e-18 0.40608575)
(-0.0037439984 -7.3693371e-18 0.37345883)
(-0.0038331333 -7.0858225e-18 0.34666367)
(-0.0037595099 -6.5815842e-18 0.32568216)
(-0.0035591482 -6.3795485e-18 0.30924556)
(-0.0032742739 -5.6586942e-18 0.29579175)
(-0.0029441929 -5.3316978e-18 0.2839646)
(-0.0026002346 -5.0528085e-18 0.27278841)
(-0.0022643264 -4.8149966e-18 0.26166252)
(-0.0019499424 -5.311111e-18 0.25028179)
(-0.0016640626 -6.2466061e-18 0.23854378)
(-0.001409293 -7.9781713e-18 0.22647029)
(-0.001185624 -9.3212168e-18 0.21415229)
(-0.00099163181 -1.0561738e-17 0.20171488)
(-0.00082516466 -1.2058076e-17 0.18929581)
(-0.00068382462 -1.2209959e-17 0.17703221)
(-0.00056500516 -1.227115e-17 0.16505145)
(-0.00046598472 -1.1202596e-17 0.15346021)
(-0.00038420213 -1.0011548e-17 0.14233926)
(-0.00031715532 -9.0628251e-18 0.13173993)
(-0.00026249478 -8.3712503e-18 0.12168075)
(-0.00021797849 -8.0164497e-18 0.11214487)
(-0.00018146745 -7.7528609e-18 0.10307741)
(-0.00015102706 -7.0188929e-18 0.094384472)
(-0.00012500027 -5.7492173e-18 0.085935985)
(-0.00010201117 -4.2071245e-18 0.077570575)
(-8.1073746e-05 -2.5379719e-18 0.069103767)
(-6.1716692e-05 -1.0409796e-18 0.060340702)
(-4.4079798e-05 -7.2914888e-20 0.051093993)
(-2.8803218e-05 5.2622386e-19 0.041201057)
(-1.6741565e-05 6.6086017e-19 0.030535481)
(-8.0615041e-06 3.6560883e-19 0.018999398)
(-1.2577576e-06 1.1009648e-19 0.0064951707)
(-1.5529421e-05 -1.5542437e-18 0.13836379)
(-0.00024838373 -2.1469449e-18 0.323596)
(-0.00064355562 -4.4585504e-18 0.44115504)
(-0.0011651968 -6.586305e-18 0.50035349)
(-0.0017637828 -6.3878526e-18 0.5135485)
(-0.002385211 -6.6793446e-18 0.49545285)
(-0.002962805 -7.190652e-18 0.46073765)
(-0.0034313632 -7.6919866e-18 0.42126683)
(-0.0037434988 -7.4792867e-18 0.38455222)
(-0.0038804512 -7.1206488e-18 0.35393278)
(-0.0038517643 -6.5426921e-18 0.32981581)
(-0.0036871293 -6.2932307e-18 0.31107459)
(-0.0034256631 -5.8382919e-18 0.2960932)
(-0.0031066228 -5.3916332e-18 0.2833628)
(-0.0027633763 -5.1677895e-18 0.2717304)
(-0.0024207884 -4.9809876e-18 0.26043769)
(-0.0020952183 -5.1904283e-18 0.24905961)
(-0.0017959719 -6.3327646e-18 0.23741254)
(-0.0015272696 -7.3961204e-18 0.22546864)
(-0.0012900753 -8.9301726e-18 0.21329104)
(-0.0010834726 -1.103492e-17 0.20099037)
(-0.00090553579 -1.2420769e-17 0.18869744)
(-0.00075389689 -1.2806327e-17 0.17654628)
(-0.00062591778 -1.1884845e-17 0.16466272)
(-0.00051883147 -1.1379843e-17 0.1531536)
(-0.00042996941 -1.0022115e-17 0.14210064)
(-0.00035673174 -8.8316622e-18 0.13155631)
(-0.00029665769 -8.3887e-18 0.12154045)
(-0.00024740103 -8.2015427e-18 0.11203745)
(-0.00020673514 -7.8642832e-18 0.10299381)
(-0.00017263571 -6.9537074e-18 0.094317279)
(-0.00014335548 -5.7089706e-18 0.08587941)
(-0.00011744848 -4.1739026e-18 0.077520497)
(-9.3864537e-05 -2.5386282e-18 0.069057831)
(-7.2080496e-05 -1.0571056e-18 0.060298425)
(-5.217087e-05 1.7841198e-19 0.051056375)
(-3.4718923e-05 4.9161219e-19 0.041169874)
(-2.0456445e-05 5.1933947e-19 0.030511612)
(-9.5358822e-06 4.4840873e-19 0.018981539)
(-1.2465866e-06 1.2656654e-19 0.0064850521)
(-1.4867192e-05 5.817121e-20 0.1420477)
(-0.00023547315 -1.598188e-18 0.33334342)
(-0.00061229754 -2.7378015e-18 0.45599313)
(-0.0011129615 -2.7874784e-18 0.51897698)
(-0.0016934173 -5.2936623e-18 0.53421705)
(-0.0023053876 -6.4497548e-18 0.51614206)
(-0.0028874817 -7.141925e-18 0.47954004)
(-0.0033765484 -7.6677879e-18 0.43682588)
(-0.0037227143 -7.5623965e-18 0.39627583)
(-0.0039011733 -7.131274e-18 0.36192171)
(-0.003914214 -6.3681757e-18 0.33462485)
(-0.0037853054 -5.4343308e-18 0.31345336)
(-0.0035497211 -5.6625693e-18 0.29678999)
(-0.0032455539 -5.5036667e-18 0.28301167)
(-0.0029071672 -5.3941657e-18 0.27080851)
(-0.0025616644 -5.7958604e-18 0.25926955)
(-0.0022279799 -6.361825e-18 0.24784538)
(-0.0019177177 -6.6367388e-18 0.23626309)
(-0.0016368304 -7.3418633e-18 0.22443714)
(-0.0013874147 -8.9637077e-18 0.21239663)
(-0.0011692009 -1.0736499e-17 0.20023367)
(-0.00098058417 -1.1281423e-17 0.18806971)
(-0.00081929721 -1.1883306e-17 0.17603442)
(-0.00068270932 -1.2045986e-17 0.16425163)
(-0.00056802293 -1.0773599e-17 0.15282802)
(-0.00047248309 -9.9756222e-18 0.14184604)
(-0.00039340252 -9.1081638e-18 0.1313593)
(-0.00032821995 -8.4269153e-18 0.12138891)
(-0.00027449345 -8.1369087e-18 0.11192058)
(-0.00022991226 -7.6185323e-18 0.10290222)
(-0.00019237055 -6.8901962e-18 0.094243237)
(-0.00016003832 -5.8863072e-18 0.085816868)
(-0.0001314022 -4.1632727e-18 0.077465123)
(-0.00010535619 -2.5430457e-18 0.069007113)
(-8.1324568e-05 -1.0978439e-18 0.060251719)
(-5.9321141e-05 -7.1536705e-20 0.051014533)
(-3.9869841e-05 4.3267766e-19 0.041134473)
(-2.3608556e-05 4.8033658e-19 0.03048346)
(-1.0714942e-05 3.1935997e-19 0.018960112)
(-1.2258843e-06 1.2547332e-19 0.0064736403)
(-1.427169e-05 -9.5544898e-19 0.14552509)
(-0.00022414368 -3.3139933e-18 0.34256424)
(-0.00058455141 -3.6220607e-18 0.47007847)
(-0.0010659282 -4.1034714e-18 0.53676187)
(-0.0016286833 -5.2916343e-18 0.55414137)
(-0.0022294674 -6.3814529e-18 0.53635342)
(-0.0028117919 -7.1273403e-18 0.4982279)
(-0.0033151314 -7.7193164e-18 0.45262169)
(-0.0036885053 -7.4703031e-18 0.40848852)
(-0.0039026388 -7.0928861e-18 0.37051861)
(-0.0039537291 -6.3216192e-18 0.34003974)
(-0.0038594495 -5.6091685e-18 0.31635274)
(-0.00365093 -5.6639408e-18 0.29788246)
(-0.0033643317 -5.5886714e-18 0.28292755)
(-0.0030341368 -5.5958732e-18 0.27004399)
(-0.0026889838 -5.9270102e-18 0.25817756)
(-0.0023499798 -6.4090912e-18 0.24665411)
(-0.0020308964 -6.9648583e-18 0.23510585)
(-0.0017394634 -8.2107722e-18 0.22338262)
(-0.0014790304 -9.5365018e-18 0.21147345)
(-0.0012501007 -1.0257348e-17 0.19944761)
(-0.0010514875 -1.1236195e-17 0.18741455)
(-0.00088109784 -1.1758757e-17 0.17549804)
(-0.00073635063 -1.1787233e-17 0.16381924)
(-0.00061443718 -1.0772041e-17 0.15248425)
(-0.00051253714 -9.9278782e-18 0.14157608)
(-0.00042788548 -9.112143e-18 0.13114938)
(-0.00035783038 -8.4383833e-18 0.12122653)
(-0.00029984145 -7.919744e-18 0.11179457)
(-0.00025152782 -7.5614085e-18 0.1028029)
(-0.00021070722 -7.0251887e-18 0.094162585)
(-0.00017547466 -5.7869912e-18 0.085748584)
(-0.00014425304 -4.1433717e-18 0.077404683)
(-0.00011588197 -2.5501345e-18 0.068951846)
(-8.9736258e-05 -1.1497779e-18 0.060200828)
(-6.5774235e-05 -2.4756568e-19 0.050968723)
(-4.4455664e-05 4.5924391e-19 0.041095146)
(-2.6351377e-05 4.5495807e-19 0.030451428)
(-1.1701827e-05 2.9381838e-19 0.0189356)
(-1.2093531e-06 1.0609936e-19 0.0064611758)
(-1.3732948e-05 -2.3158053e-18 0.14882293)
(-0.00021410487 -3.870981e-18 0.35132446)
(-0.00055974427 -5.3688606e-18 0.48349852)
(-0.0010234109 -7.657222e-18 0.55379072)
(-0.0015691973 -6.5401593e-18 0.57336857)
(-0.0021579387 -6.6174724e-18 0.55607694)
(-0.0027375956 -7.102659e-18 0.51673362)
(-0.0032505102 -7.526761e-18 0.46854907)
(-0.0036455319 -7.5588505e-18 0.42107637)
(-0.0038901543 -7.1973016e-18 0.3796257)
(-0.0039755441 -6.6442852e-18 0.34599295)
(-0.0039141484 -6.2429359e-18 0.31973802)
(-0.0037329414 -5.6744751e-18 0.29936274)
(-0.0034656791 -5.6465452e-18 0.28311955)
(-0.003146275 -5.5998684e-18 0.26945333)
(-0.002804255 -5.4679207e-18 0.25717881)
(-0.0024624544 -5.7948512e-18 0.24549997)
(-0.0021366042 -7.1373338e-18 0.23395115)
(-0.0018361847 -8.6381664e-18 0.22231201)
(-0.0015658759 -9.6105087e-18 0.21052596)
(-0.0013270623 -1.0508468e-17 0.19863507)
(-0.0011190696 -1.2111826e-17 0.18673385)
(-0.00094005196 -1.2321653e-17 0.17493845)
(-0.00078752468 -1.1430238e-17 0.16336648)
(-0.00065869312 -1.1218701e-17 0.15212299)
(-0.00055069131 -9.9404488e-18 0.14129128)
(-0.00046068684 -8.9165772e-18 0.13092696)
(-0.00038594656 -8.4231293e-18 0.12105363)
(-0.00032385789 -7.9443998e-18 0.1116597)
(-0.0002719549 -7.6555138e-18 0.10269608)
(-0.00022798273 -6.9036305e-18 0.094075514)
(-0.00018996627 -5.4801599e-18 0.085674738)
(-0.00015626847 -4.0957309e-18 0.07733935)
(-0.00012567731 -2.554028e-18 0.068892206)
(-9.751918e-05 -1.1814904e-18 0.060145939)
(-7.1699947e-05 -1.3007705e-19 0.05091914)
(-4.8615712e-05 3.8879786e-19 0.041052124)
(-2.8792396e-05 4.4164543e-19 0.030415837)
(-1.2557566e-05 3.6098089e-19 0.018908364)
(-1.1954767e-06 1.0017713e-19 0.0064478123)
(-1.3241818e-05 -1.4087973e-18 0.15196292)
(-0.00020513459 -3.5159444e-18 0.35967776)
(-0.00053741806 -5.2583412e-18 0.49632588)
(-0.00098480798 -6.6001696e-18 0.57013527)
(-0.0015144854 -6.6826013e-18 0.59194568)
(-0.0020908589 -6.7876916e-18 0.57531615)
(-0.0026658865 -7.2315972e-18 0.53501337)
(-0.003184828 -7.663797e-18 0.48452958)
(-0.0035969888 -7.6202215e-18 0.4339478)
(-0.0038675856 -7.3023513e-18 0.38915885)
(-0.0039836738 -6.7052328e-18 0.35242139)
(-0.0039530779 -6.173405e-18 0.32357205)
(-0.0037987798 -5.7679541e-18 0.30121719)
(-0.0035518838 -5.7030147e-18 0.28359077)
(-0.003245229 -5.7233299e-18 0.26904853)
(-0.0029086699 -5.7280194e-18 0.25628777)
(-0.0025663236 -6.142169e-18 0.24439602)
(-0.0022356196 -7.2625182e-18 0.23280903)
(-0.0019277049 -8.6257845e-18 0.2212323)
(-0.0016486213 -9.6639696e-18 0.20955872)
(-0.0014007172 -1.0602999e-17 0.19779895)
(-0.0011839188 -1.1820915e-17 0.18602947)
(-0.00099670187 -1.2058284e-17 0.17435689)
(-0.00083672561 -1.1439351e-17 0.16289423)
(-0.0007012383 -1.1051074e-17 0.15174487)
(-0.00058734965 -9.9223467e-18 0.14099212)
(-0.00049217111 -8.9570833e-18 0.13069238)
(-0.00041289702 -8.4187035e-18 0.12087047)
(-0.00034683924 -7.9493075e-18 0.11151617)
(-0.00029146075 -7.5792185e-18 0.10258192)
(-0.00024443793 -6.8598951e-18 0.093982177)
(-0.00020372918 -5.4332944e-18 0.085595471)
(-0.00016764031 -4.0526817e-18 0.077269264)
(-0.00013491057 -2.5550099e-18 0.068828334)
(-0.00010481813 -1.211772e-18 0.060087193)
(-7.7218721e-05 -1.9895235e-19 0.050865935)
(-5.2448681e-05 3.3210912e-19 0.04100559)
(-3.1005606e-05 4.1940305e-19 0.030376946)
(-1.3322629e-05 3.4446601e-19 0.018878685)
(-1.1874294e-06 1.0616409e-19 0.0064336504)
(-1.2792306e-05 -6.4559058e-19 0.15496282)
(-0.00019706045 -2.6971631e-18 0.36766846)
(-0.00051720265 -4.1949528e-18 0.50862146)
(-0.00094960445 -4.8036448e-18 0.58585786)
(-0.0014640679 -6.6285799e-18 0.60991754)
(-0.0020280724 -8.0609293e-18 0.59408234)
(-0.0025971552 -7.5470031e-18 0.55303963)
(-0.0031194343 -7.6894015e-18 0.50050467)
(-0.0035450827 -7.6609283e-18 0.44702928)
(-0.0038377701 -7.3363296e-18 0.39904634)
(-0.0039812137 -6.6451632e-18 0.3592675)
(-0.0039791985 -5.5072493e-18 0.32781739)
(-0.0038509727 -5.6057369e-18 0.30342841)
(-0.0036249035 -5.7598372e-18 0.28433951)
(-0.0033324107 -5.826971e-18 0.26883751)
(-0.0030032193 -6.0476571e-18 0.25551628)
(-0.0026623076 -6.8339022e-18 0.24335401)
(-0.0023285173 -7.44698e-18 0.23168913)
(-0.0020145306 -8.3724802e-18 0.22015046)
(-0.0017277412 -9.645299e-18 0.20857641)
(-0.0014715181 -1.0562214e-17 0.19694225)
(-0.0012464639 -1.1124489e-17 0.18530331)
(-0.0010514457 -1.1487816e-17 0.17375459)
(-0.00088431812 -1.1551911e-17 0.16240329)
(-0.00074240417 -1.0686115e-17 0.15135044)
(-0.00062281116 -9.8839188e-18 0.14067899)
(-0.00052260776 -9.1759179e-18 0.13044596)
(-0.00043892472 -8.4350013e-18 0.1206773)
(-0.00036900415 -7.9218611e-18 0.11136418)
(-0.00031024153 -7.4012969e-18 0.10246058)
(-0.00026024815 -6.7067414e-18 0.093882699)
(-0.00021692014 -5.3710437e-18 0.085510896)
(-0.0001785077 -4.0184818e-18 0.077194533)
(-0.00014370276 -2.554829e-18 0.068760334)
(-0.00011173747 -1.2557774e-18 0.0600247)
(-8.2418036e-05 -3.6265305e-19 0.050809223)
(-5.6025716e-05 2.6096323e-19 0.040955692)
(-3.3043434e-05 3.7920116e-19 0.030334963)
(-1.402219e-05 2.5380704e-19 0.018846774)
(-1.1846818e-06 9.8420204e-20 0.0064187625)
(-1.2378489e-05 -1.742858e-18 0.15783737)
(-0.00018974631 -3.3440183e-18 0.37533363)
(-0.00049879984 -4.9785033e-18 0.52043684)
(-0.00091736569 -6.8448018e-18 0.60101273)
(-0.001417496 -6.9508256e-18 0.62732595)
(-0.0019693287 -7.4605624e-18 0.61239116)
(-0.0025316012 -7.449631e-18 0.57079603)
(-0.003055172 -7.1217961e-18 0.5164306)
(-0.0034913456 -7.4671506e-18 0.46026165)
(-0.0038028014 -7.3605839e-18 0.40922727)
(-0.0039705607 -6.8685701e-18 0.36647957)
(-0.0039949016 -6.3449383e-18 0.3324377)
(-0.0038916407 -5.7117849e-18 0.30597678)
(-0.0036864324 -5.8049306e-18 0.28536047)
(-0.0034090594 -5.8638549e-18 0.26882471)
(-0.0030887605 -5.7746947e-18 0.25487365)
(-0.0027509998 -6.4441775e-18 0.24238425)
(-0.0024157399 -7.605524e-18 0.23060044)
(-0.0020970338 -8.7939749e-18 0.21907335)
(-0.001803579 -9.7178541e-18 0.20758378)
(-0.0015397942 -1.0607195e-17 0.19606803)
(-0.0013070198 -1.1462371e-17 0.18455731)
(-0.0011045801 -1.1483378e-17 0.17313278)
(-0.00093057669 -1.1431111e-17 0.16189446)
(-0.00078244114 -1.0862444e-17 0.15094025)
(-0.00065730265 -9.8761018e-18 0.14035226)
(-0.0005522012 -9.1439618e-18 0.13018795)
(-0.00046421276 -8.445071e-18 0.12047431)
(-0.00039051658 -7.8882643e-18 0.11120386)
(-0.00032844465 -7.2817876e-18 0.10233217)
(-0.00027554552 -6.2938606e-18 0.09377718)
(-0.00022965611 -5.0551205e-18 0.085421105)
(-0.00018897365 -3.958259e-18 0.077115242)
(-0.00015214343 -2.5530316e-18 0.06868829)
(-0.00011835246 -1.2951431e-18 0.059958543)
(-8.7360836e-05 -4.2785176e-19 0.050749097)
(-5.9397114e-05 1.012473e-19 0.040902553)
(-3.4942096e-05 4.1604374e-19 0.030290063)
(-1.4673412e-05 2.2947136e-19 0.018812799)
(-1.1860813e-06 5.1560828e-20 0.0064032)
(-1.199625e-05 -1.2983037e-18 0.16059898)
(-0.0001830826 -3.2324504e-18 0.38270461)
(-0.00048196397 -4.876305e-18 0.53181614)
(-0.00088772412 -6.1748079e-18 0.61564733)
(-0.0013743639 -6.5100072e-18 0.64420935)
(-0.001914339 -5.9836337e-18 0.63026046)
(-0.0024692514 -7.2021527e-18 0.58827392)
(-0.0029925544 -7.9470507e-18 0.53227472)
(-0.0034368445 -7.6306066e-18 0.47359729)
(-0.0037642344 -7.4558109e-18 0.41965007)
(-0.0039535788 -6.9127014e-18 0.37401157)
(-0.0040021248 -6.4257806e-18 0.33739854)
(-0.0039225667 -5.8901605e-18 0.30884164)
(-0.0037379405 -5.844206e-18 0.28664567)
(-0.0034762755 -6.097406e-18 0.26901159)
(-0.0031660557 -6.4767919e-18 0.25436679)
(-0.0028329109 -6.7638704e-18 0.24149556)
(-0.0024976435 -7.7036466e-18 0.2295513)
(-0.0021754933 -8.8450783e-18 0.21800762)
(-0.0018763827 -9.787277e-18 0.20658557)
(-0.0016057828 -1.0632999e-17 0.19517948)
(-0.0013658188 -1.1403318e-17 0.18379348)
(-0.0011563281 -1.174205e-17 0.17249272)
(-0.00097570976 -1.1136563e-17 0.16136855)
(-0.00082154201 -1.071745e-17 0.1505148)
(-0.00069099906 -9.8350394e-18 0.14001228)
(-0.00058110824 -8.9330705e-18 0.12991859)
(-0.00048890241 -8.4216876e-18 0.12026167)
(-0.00041150319 -7.864507e-18 0.11103536)
(-0.00034618235 -7.331009e-18 0.1021968)
(-0.00029043005 -6.5380537e-18 0.093665703)
(-0.00024202545 -5.3427643e-18 0.085326169)
(-0.00019911508 -3.9363022e-18 0.077031458)
(-0.00016029979 -2.5510421e-18 0.068612267)
(-0.00012472085 -1.3128618e-18 0.059888787)
(-9.2093963e-05 -3.5138629e-19 0.050685631)
(-6.2601006e-05 1.866891e-19 0.040846274)
(-3.6730036e-05 2.7990583e-19 0.030242387)
(-1.5286933e-05 2.647684e-19 0.018776892)
(-1.1905502e-06 7.9193615e-20 0.0063870015)
(-1.1641334e-05 -6.2765146e-19 0.16325818)
(-0.00017698093 -2.6112098e-18 0.38980818)
(-0.00046649326 -4.0061172e-18 0.54279738)
(-0.00086036826 -4.5271357e-18 0.62980326)
(-0.0013343111 -6.3331739e-18 0.66060291)
(-0.0018628094 -7.6291654e-18 0.647709)
(-0.0024100357 -7.4254514e-18 0.60547)
(-0.0029318797 -7.8689602e-18 0.54801279)
(-0.003382321 -7.7369749e-18 0.48699772)