/*--------------------------------*- C++ -*----------------------------------*\
| =========                 |                                                 |
| \\      /  F ield         | OpenFOAM: The Open Source CFD Toolbox           |
|  \\    /   O peration     | Version:  3.0.1                                 |
|   \\  /    A nd           | Web:      www.OpenFOAM.org                      |
|    \\/     M anipulation  |                                                 |
\*---------------------------------------------------------------------------*/
FoamFile
{
    version     2.0;
    format      ascii;
    class       volScalarField;
    location    "6000/ciltop";
    object      p;
}
// * * * * * * * * * * * * * * * * * * * * * * * * * * * * * * * * * * * * * //

dimensions      [1 -1 -2 0 0 0 0];

internalField   uniform 101325;

boundaryField
{
    ciltoptop
    {
        type            fixedValue;
        value           uniform 101325;
    }
    cilbottop
    {
        type            fixedValue;
        value           uniform 101325;
    }
    symmetrytop1
    {
        type            symmetry;
    }
    ciltop_to_fluid
    {
        type            fixedValue;
        value           uniform 101325;
    }
}


// ************************************************************************* //
