/*--------------------------------*- C++ -*----------------------------------*\
| =========                 |                                                 |
| \\      /  F ield         | OpenFOAM: The Open Source CFD Toolbox           |
|  \\    /   O peration     | Version:  3.0.1                                 |
|   \\  /    A nd           | Web:      www.OpenFOAM.org                      |
|    \\/     M anipulation  |                                                 |
\*---------------------------------------------------------------------------*/
FoamFile
{
    version     2.0;
    format      ascii;
    class       volScalarField;
    location    "6000/ciltop";
    object      T;
}
// * * * * * * * * * * * * * * * * * * * * * * * * * * * * * * * * * * * * * //

dimensions      [0 0 0 1 0 0 0];

internalField   nonuniform List<scalar> 
18000
(
323.26882
323.24555
323.22279
323.20734
323.19782
323.26906
323.24587
323.22305
323.20754
323.19798
323.26933
323.24626
323.22341
323.20783
323.19823
323.26962
323.24673
323.22388
323.20824
323.19859
323.26995
323.24727
323.22446
323.2088
323.1991
323.27031
323.2479
323.22519
323.20954
323.19983
323.27069
323.24861
323.22606
323.21049
323.20081
323.27109
323.24939
323.22709
323.21163
323.20203
323.27152
323.25026
323.22826
323.21298
323.20348
323.27196
323.25118
323.22956
323.21452
323.20515
323.27241
323.25217
323.23098
323.21622
323.20702
323.27287
323.25319
323.2325
323.21806
323.20904
323.78364
323.76533
323.74882
323.73796
323.73138
323.78401
323.76582
323.74921
323.73825
323.7316
323.78443
323.76641
323.74974
323.73868
323.73196
323.7849
323.76711
323.75044
323.7393
323.73251
323.78541
323.76793
323.75131
323.74014
323.7333
323.78597
323.76887
323.75239
323.74124
323.73439
323.78657
323.76995
323.75368
323.74261
323.73579
323.78721
323.77115
323.7552
323.74428
323.73753
323.78788
323.77247
323.75695
323.74625
323.73961
323.78858
323.7739
323.75892
323.74852
323.74205
323.78931
323.77543
323.76109
323.7511
323.74486
323.79005
323.77703
323.76344
323.75395
323.74801
324.51507
324.49825
324.48377
324.4744
324.46876
324.51551
324.49881
324.48418
324.47466
324.46892
324.51601
324.49949
324.48477
324.4751
324.46925
324.51656
324.50031
324.48555
324.47577
324.46983
324.51718
324.50127
324.48655
324.47672
324.4707
324.51784
324.50238
324.48781
324.47799
324.47196
324.51856
324.50365
324.48934
324.47962
324.47362
324.51933
324.50508
324.49115
324.48162
324.47572
324.52014
324.50665
324.49324
324.484
324.47826
324.52098
324.50835
324.4956
324.48675
324.48124
324.52185
324.51018
324.4982
324.48984
324.48462
324.52274
324.51209
324.50099
324.49322
324.48836
325.35059
325.33467
325.3213
325.31275
325.30763
325.35104
325.33519
325.32163
325.31288
325.30762
325.35155
325.33585
325.32213
325.31318
325.30778
325.35213
325.33664
325.32283
325.31373
325.3082
325.35277
325.33759
325.32377
325.31458
325.30897
325.35346
325.3387
325.32498
325.31576
325.31011
325.35422
325.33999
325.32647
325.31732
325.31168
325.35502
325.34144
325.32828
325.31927
325.3137
325.35587
325.34305
325.33039
325.32165
325.31621
325.35675
325.34482
325.3328
325.32444
325.31922
325.35767
325.34673
325.3355
325.32764
325.32271
325.35862
325.34875
325.33843
325.33118
325.32663
326.2397
326.22465
326.21221
326.20431
326.19959
326.24014
326.22515
326.21248
326.20435
326.19949
326.24065
326.22577
326.21291
326.20457
326.19955
326.24122
326.22652
326.21354
326.20501
326.19985
326.24185
326.22744
326.21441
326.20575
326.20047
326.24253
326.22852
326.21555
326.20684
326.20149
326.24328
326.22977
326.21699
326.20833
326.20298
326.24407
326.23119
326.21876
326.21024
326.20497
326.24491
326.23279
326.22085
326.2126
326.20748
326.2458
326.23454
326.22324
326.21539
326.2105
326.24671
326.23643
326.22592
326.21858
326.21399
326.24765
326.23843
326.22884
326.22212
326.2179
327.14993
327.1356
327.12382
327.11636
327.11192
327.15035
327.13604
327.12401
327.11631
327.11171
327.15084
327.13661
327.12436
327.11642
327.11165
327.15139
327.13731
327.1249
327.11676
327.11184
327.15199
327.13816
327.12567
327.11739
327.11233
327.15266
327.13917
327.12672
327.11836
327.11322
327.15338
327.14036
327.12806
327.11972
327.11457
327.15415
327.14172
327.12973
327.12151
327.11641
327.15496
327.14325
327.13172
327.12375
327.11879
327.15582
327.14494
327.13402
327.12643
327.12169
327.15671
327.14677
327.13661
327.12952
327.12508
327.15763
327.14872
327.13945
327.13296
327.1289
328.06335
328.04968
328.03847
328.03138
328.02716
328.06375
328.05009
328.03863
328.0313
328.02692
328.06421
328.05061
328.03892
328.03136
328.02683
328.06474
328.05126
328.0394
328.03163
328.02694
328.06531
328.05206
328.04011
328.03217
328.02733
328.06595
328.05302
328.04108
328.03305
328.02812
328.06663
328.05414
328.04234
328.03432
328.02936
328.06737
328.05543
328.04391
328.03602
328.03112
328.06815
328.05688
328.04581
328.03816
328.0334
328.06897
328.05849
328.04801
328.04073
328.03619
328.06983
328.06024
328.05049
328.04369
328.03945
328.07071
328.06211
328.0532
328.04699
328.0431
328.96679
328.95363
328.94283
328.93599
328.93193
328.96718
328.95399
328.94292
328.93584
328.93161
328.96761
328.95446
328.94315
328.93583
328.93143
328.96811
328.95506
328.94356
328.93602
328.93145
328.96866
328.9558
328.94419
328.93646
328.93175
328.96926
328.9567
328.94507
328.93724
328.93244
328.96992
328.95775
328.94624
328.93841
328.93357
328.97062
328.95897
328.94772
328.94
328.9352
328.97137
328.96035
328.94951
328.94202
328.93736
328.97216
328.96189
328.95161
328.94448
328.94002
328.97298
328.96356
328.95398
328.94731
328.94315
328.97383
328.96535
328.95658
328.95047
328.94666
329.85339
329.84072
329.83032
329.82373
329.81981
329.85375
329.84106
329.8304
329.82358
329.81951
329.85417
329.84151
329.83061
329.82356
329.81933
329.85464
329.84207
329.83098
329.82371
329.81931
329.85517
329.84276
329.83155
329.8241
329.81955
329.85574
329.84361
329.83238
329.82482
329.82016
329.85637
329.8446
329.83348
329.82591
329.82122
329.85704
329.84576
329.83487
329.82741
329.82277
329.85775
329.84707
329.83657
329.82933
329.82482
329.8585
329.84853
329.83856
329.83166
329.82735
329.85929
329.85012
329.84081
329.83435
329.83033
329.8601
329.85182
329.84329
329.83736
329.83366
330.71644
330.70415
330.69404
330.68763
330.68382
330.71678
330.70446
330.69408
330.68744
330.68347
330.71718
330.70486
330.69424
330.68736
330.68323
330.71763
330.70538
330.69455
330.68745
330.68316
330.71812
330.70602
330.69506
330.68777
330.68332
330.71867
330.7068
330.6958
330.6884
330.68384
330.71927
330.70774
330.69682
330.68938
330.68478
330.71991
330.70883
330.69812
330.69077
330.6862
330.72059
330.71007
330.69972
330.69258
330.68812
330.72131
330.71145
330.7016
330.69478
330.69052
330.72206
330.71297
330.70375
330.69734
330.69335
330.72284
330.7146
330.7061
330.70021
330.69654
331.55309
331.54118
331.53136
331.52513
331.52143
331.55341
331.54146
331.53139
331.52494
331.52109
331.55379
331.54184
331.53152
331.52485
331.52086
331.55422
331.54232
331.5318
331.52491
331.52075
331.55469
331.54293
331.53227
331.52518
331.52085
331.55522
331.54367
331.53296
331.52574
331.5213
331.55579
331.54455
331.5339
331.52666
331.52217
331.5564
331.54558
331.53513
331.52796
331.5235
331.55705
331.54676
331.53664
331.52965
331.52531
331.55774
331.54807
331.53842
331.53174
331.52757
331.55846
331.54951
331.54045
331.53417
331.53026
331.5592
331.55107
331.54269
331.53689
331.53328
332.36004
332.34842
332.33881
332.33271
332.32908
332.36035
332.34868
332.33881
332.33249
332.32872
332.36071
332.34902
332.33891
332.33237
332.32845
332.36111
332.34946
332.33914
332.33238
332.3283
332.36156
332.35002
332.33954
332.33258
332.32833
332.36206
332.3507
332.34016
332.33305
332.32868
332.36261
332.35153
332.34102
332.33386
332.32943
332.36319
332.3525
332.34215
332.33505
332.33063
332.36382
332.35361
332.34356
332.33663
332.33231
332.36448
332.35486
332.34525
332.33859
332.33445
332.36517
332.35623
332.34718
332.3409
332.33699
332.36588
332.35772
332.34932
332.3435
332.33988
333.13645
333.12513
333.11574
333.10978
333.10623
333.13675
333.12537
333.11573
333.10956
333.10589
333.13709
333.12568
333.11581
333.10943
333.10561
333.13748
333.1261
333.11601
333.1094
333.10542
333.13791
333.12662
333.11637
333.10955
333.10539
333.13839
333.12726
333.11693
333.10997
333.10568
333.13891
333.12804
333.11773
333.11071
333.10636
333.13947
333.12896
333.11879
333.11181
333.10747
333.14007
333.13002
333.12012
333.1133
333.10905
333.14071
333.1312
333.12172
333.11515
333.11106
333.14137
333.13252
333.12355
333.11734
333.11348
333.14206
333.13394
333.12559
333.11981
333.11622
333.88078
333.86969
333.86047
333.85461
333.85112
333.88106
333.8699
333.86043
333.85437
333.85075
333.88139
333.87019
333.86047
333.8542
333.85044
333.88176
333.87056
333.86063
333.85413
333.85021
333.88218
333.87104
333.86093
333.85421
333.85012
333.88263
333.87164
333.86142
333.85455
333.85031
333.88313
333.87237
333.86215
333.85519
333.85088
333.88367
333.87323
333.86313
333.85619
333.85187
333.88424
333.87423
333.86437
333.85756
333.85332
333.88485
333.87536
333.86587
333.8593
333.85521
333.88549
333.87662
333.86761
333.86138
333.8575
333.88616
333.87798
333.86956
333.86374
333.86012
334.59322
334.58236
334.57331
334.56757
334.56414
334.59349
334.58255
334.57326
334.56732
334.56378
334.5938
334.58282
334.57329
334.56714
334.56346
334.59416
334.58317
334.57341
334.56703
334.56319
334.59455
334.58362
334.57368
334.56708
334.56305
334.59499
334.58418
334.57412
334.56735
334.56318
334.59547
334.58487
334.57479
334.56794
334.56369
334.59599
334.58568
334.57571
334.56886
334.56461
334.59654
334.58663
334.57688
334.57015
334.56596
334.59713
334.58771
334.5783
334.5718
334.56774
334.59775
334.58891
334.57996
334.57377
334.56991
334.59839
334.59022
334.58182
334.57602
334.57241
335.27313
335.26246
335.25354
335.24787
335.24448
335.27339
335.26263
335.25347
335.2476
335.2441
335.27369
335.26287
335.25346
335.24739
335.24377
335.27403
335.26319
335.25355
335.24726
335.24347
335.27441
335.2636
335.25377
335.24725
335.24327
335.27483
335.26412
335.25415
335.24745
335.24333
335.27529
335.26476
335.25475
335.24794
335.24373
335.27579
335.26553
335.25559
335.24877
335.24453
335.27632
335.26643
335.25668
335.24995
335.24576
335.27689
335.26746
335.25802
335.25149
335.24743
335.27749
335.26861
335.2596
335.25336
335.24949
335.27811
335.26986
335.26138
335.25552
335.25187
335.92127
335.91079
335.90201
335.89644
335.89311
335.92152
335.91095
335.90194
335.89618
335.89274
335.92181
335.91117
335.90191
335.89595
335.89239
335.92214
335.91146
335.90197
335.89578
335.89206
335.9225
335.91185
335.90216
335.89573
335.89181
335.92291
335.91234
335.9025
335.89589
335.89181
335.92335
335.91295
335.90305
335.89632
335.89215
335.92383
335.91368
335.90384
335.89709
335.89289
335.92435
335.91453
335.90487
335.8982
335.89405
335.9249
335.91552
335.90614
335.89966
335.89562
335.92548
335.91662
335.90764
335.90143
335.89758
335.92608
335.91783
335.90935
335.90349
335.89985
336.53755
336.5272
336.51852
336.51299
336.50968
336.53778
336.52734
336.51843
336.51273
336.50932
336.53806
336.52754
336.51839
336.51249
336.50897
336.53837
336.52781
336.51842
336.5123
336.50862
336.53873
336.52817
336.51857
336.51221
336.50834
336.53912
336.52863
336.51886
336.51231
336.50828
336.53955
336.52919
336.51936
336.51267
336.50853
336.54001
336.52988
336.52007
336.51334
336.50916
336.54051
336.5307
336.52103
336.51436
336.5102
336.54104
336.53163
336.52223
336.51572
336.51166
336.5416
336.53269
336.52366
336.5174
336.51351
336.54218
336.53386
336.52529
336.51937
336.5157
337.12306
337.11288
337.10433
337.09888
337.09564
337.12329
337.11301
337.10423
337.09861
337.09527
337.12355
337.11319
337.10417
337.09836
337.0949
337.12386
337.11344
337.10417
337.09813
337.09451
337.1242
337.11377
337.10428
337.098
337.09417
337.12457
337.1142
337.10454
337.09805
337.09406
337.12499
337.11474
337.10499
337.09836
337.09426
337.12543
337.11539
337.10566
337.09899
337.09484
337.12592
337.11616
337.10656
337.09994
337.09582
337.12643
337.11706
337.1077
337.10123
337.0972
337.12697
337.11808
337.10906
337.10283
337.09896
337.12754
337.1192
337.11063
337.10471
337.10104
337.67792
337.66786
337.65939
337.65398
337.65075
337.67814
337.66798
337.65927
337.65371
337.65039
337.6784
337.66814
337.6592
337.65345
337.65002
337.67869
337.66837
337.65918
337.6532
337.64962
337.67902
337.66867
337.65926
337.65304
337.64925
337.67938
337.66907
337.65948
337.65304
337.64908
337.67978
337.66957
337.65987
337.65328
337.64921
337.68021
337.67019
337.66048
337.65382
337.64968
337.68068
337.67093
337.66132
337.65469
337.65056
337.68118
337.67179
337.66239
337.65589
337.65184
337.68171
337.67276
337.66369
337.65741
337.6535
337.68226
337.67385
337.6652
337.65922
337.6555
338.20343
338.19351
338.18513
338.1798
338.17662
338.20364
338.19361
338.18502
338.17953
338.17626
338.20389
338.19376
338.18493
338.17925
338.17588
338.20417
338.19397
338.18489
338.17899
338.17544
338.20449
338.19426
338.18494
338.17878
338.17503
338.20484
338.19463
338.18513
338.17874
338.17482
338.20523
338.19511
338.18549
338.17895
338.1749
338.20565
338.19569
338.18605
338.17944
338.17533
338.2061
338.1964
338.18684
338.18026
338.17616
338.20658
338.19722
338.18786
338.1814
338.17738
338.2071
338.19816
338.18911
338.18285
338.17896
338.20763
338.19921
338.19055
338.18457
338.18087
338.69991
338.69009
338.68177
338.67647
338.67329
338.70012
338.69018
338.68165
338.6762
338.67295
338.70036
338.69032
338.68156
338.67593
338.67258
338.70063
338.69051
338.6815
338.67565
338.67214
338.70093
338.69078
338.68153
338.67542
338.67171
338.70127
338.69112
338.68168
338.67534
338.67145
338.70165
338.69157
338.68199
338.67549
338.67147
338.70206
338.69212
338.6825
338.67591
338.67182
338.7025
338.69279
338.68323
338.67664
338.67254
338.70297
338.69358
338.68419
338.6777
338.67366
338.70347
338.69449
338.68538
338.67907
338.67515
338.70399
338.6955
338.68677
338.68073
338.67698
339.16872
339.15901
339.15078
339.14553
339.1424
339.16892
339.15909
339.15065
339.14526
339.14206
339.16915
339.15922
339.15055
339.14498
339.14168
339.16941
339.1594
339.15048
339.14468
339.14122
339.16971
339.15964
339.15048
339.14443
339.14074
339.17004
339.15997
339.1506
339.14431
339.14045
339.1704
339.1604
339.15089
339.14442
339.14043
339.1708
339.16093
339.15136
339.14481
339.14074
339.17122
339.16157
339.15206
339.14551
339.14143
339.17168
339.16232
339.15297
339.14652
339.1425
339.17217
339.16319
339.15411
339.14783
339.14393
339.17268
339.16417
339.15544
339.14941
339.14567
339.61032
339.6007
339.59251
339.58729
339.58416
339.61051
339.60077
339.59239
339.58703
339.58384
339.61074
339.60089
339.59228
339.58675
339.58347
339.61099
339.60105
339.5922
339.58645
339.58302
339.61128
339.60128
339.59218
339.58617
339.58253
339.6116
339.60159
339.59227
339.58603
339.5822
339.61195
339.60198
339.59251
339.58609
339.58212
339.61234
339.60248
339.59294
339.58641
339.58236
339.61275
339.6031
339.59358
339.58703
339.58296
339.6132
339.60382
339.59444
339.58796
339.58393
339.61367
339.60466
339.59552
339.5892
339.58527
339.61417
339.6056
339.5968
339.59072
339.58694
340.02608
340.01655
340.00844
340.00327
340.00018
340.02627
340.01662
340.00832
340.00301
339.99986
340.02648
340.01673
340.0082
340.00272
339.99948
340.02673
340.01688
340.0081
340.0024
339.999
340.02701
340.01709
340.00806
340.0021
339.99848
340.02732
340.01738
340.00813
340.00193
339.99812
340.02766
340.01776
340.00835
340.00196
339.99801
340.02804
340.01824
340.00875
340.00225
339.99822
340.02844
340.01883
340.00936
340.00284
339.99879
340.02888
340.01953
340.01018
340.00374
339.99973
340.02934
340.02034
340.01122
340.00492
340.00102
340.02983
340.02125
340.01245
340.00638
340.00262
340.41655
340.40709
340.39902
340.39386
340.39077
340.41673
340.40715
340.3989
340.39362
340.39048
340.41694
340.40725
340.39877
340.39334
340.39012
340.41718
340.40739
340.39867
340.39302
340.38965
340.41745
340.40759
340.39862
340.39271
340.38912
340.41775
340.40786
340.39867
340.39251
340.38873
340.41809
340.40822
340.39885
340.3925
340.38857
340.41845
340.40867
340.39921
340.39273
340.38872
340.41884
340.40923
340.39977
340.39326
340.38921
340.41927
340.4099
340.40054
340.39408
340.39006
340.41972
340.41069
340.40153
340.3952
340.39126
340.4202
340.41157
340.40271
340.39659
340.3928
340.78307
340.77369
340.76568
340.76057
340.75752
340.78325
340.77375
340.76556
340.76033
340.75722
340.78345
340.77384
340.76543
340.76005
340.75686
340.78368
340.77398
340.76532
340.75971
340.75636
340.78395
340.77416
340.76525
340.75937
340.75581
340.78424
340.77442
340.76527
340.75915
340.75538
340.78456
340.77476
340.76544
340.75911
340.7552
340.78492
340.77519
340.76577
340.75932
340.75532
340.7853
340.77573
340.7663
340.75982
340.75579
340.78572
340.77638
340.76704
340.76061
340.75661
340.78616
340.77713
340.76799
340.76169
340.75777
340.78662
340.77799
340.76914
340.76303
340.75924
341.12627
341.11695
341.10897
341.10386
341.10081
341.12644
341.11701
341.10885
341.10364
341.10054
341.12664
341.11709
341.10872
341.10337
341.10019
341.12686
341.11721
341.1086
341.10303
341.09971
341.12712
341.11739
341.10853
341.10269
341.09915
341.12741
341.11763
341.10853
341.10244
341.09871
341.12772
341.11795
341.10866
341.10237
341.09849
341.12807
341.11836
341.10896
341.10254
341.09855
341.12844
341.11888
341.10946
341.10298
341.09895
341.12885
341.1195
341.11015
341.10371
341.0997
341.12928
341.12023
341.11105
341.10472
341.10079
341.12973
341.12106
341.11215
341.10601
341.10219
341.44744
341.43819
341.43025
341.42518
341.42215
341.44761
341.43824
341.43014
341.42496
341.42189
341.4478
341.43832
341.43001
341.42469
341.42154
341.44802
341.43844
341.42988
341.42435
341.42105
341.44827
341.4386
341.42979
341.42399
341.42047
341.44855
341.43883
341.42978
341.42372
341.42
341.44886
341.43914
341.4299
341.42363
341.41976
341.4492
341.43954
341.43018
341.42378
341.4198
341.44957
341.44003
341.43065
341.42419
341.42018
341.44996
341.44063
341.43131
341.42489
341.4209
341.45039
341.44134
341.43218
341.42587
341.42196
341.45083
341.44215
341.43325
341.42711
341.42331
341.74734
341.73814
341.73023
341.72517
341.72214
341.74751
341.73819
341.73012
341.72497
341.72191
341.7477
341.73827
341.73
341.72471
341.72158
341.74791
341.73838
341.72987
341.72437
341.7211
341.74816
341.73853
341.72977
341.72401
341.72051
341.74843
341.73875
341.72974
341.72372
341.72003
341.74873
341.73904
341.72984
341.72361
341.71975
341.74906
341.73942
341.73009
341.72371
341.71975
341.74942
341.73989
341.73052
341.72408
341.72007
341.74981
341.74047
341.73115
341.72472
341.72073
341.75022
341.74116
341.73198
341.72565
341.72171
341.75066
341.74194
341.733
341.72683
341.72301
342.02721
342.01806
342.01019
342.00516
342.00216
342.02737
342.01811
342.01009
342.00497
342.00192
342.02756
342.01818
342.00996
342.0047
342.00159
342.02777
342.01829
342.00982
342.00435
342.0011
342.02801
342.01843
342.00971
342.00398
342.00049
342.02827
342.01864
342.00968
342.00368
341.99999
342.02857
342.01892
342.00975
342.00354
341.9997
342.02889
342.01928
342.00999
342.00363
341.99968
342.02924
342.01974
342.0104
342.00398
341.99999
342.02962
342.02031
342.011
342.0046
342.00062
342.03003
342.02097
342.0118
342.00549
342.00157
342.03046
342.02174
342.01279
342.00663
342.00282
342.28777
342.27867
342.27081
342.26579
342.26278
342.28793
342.27872
342.27072
342.26561
342.26257
342.28811
342.27878
342.27059
342.26536
342.26227
342.28832
342.27888
342.27046
342.26502
342.26178
342.28855
342.27902
342.27034
342.26464
342.26118
342.28881
342.27922
342.27029
342.26433
342.26067
342.2891
342.27948
342.27035
342.26417
342.26035
342.28942
342.27983
342.27056
342.26422
342.26029
342.28976
342.28028
342.27094
342.26453
342.26055
342.29014
342.28082
342.27151
342.2651
342.26112
342.29053
342.28146
342.27228
342.26595
342.26202
342.29095
342.28221
342.27323
342.26704
342.26321
342.53024
342.52118
342.51336
342.50835
342.50536
342.53039
342.52122
342.51326
342.50818
342.50516
342.53057
342.52129
342.51314
342.50793
342.50485
342.53077
342.52138
342.513
342.50758
342.50436
342.531
342.52152
342.51287
342.50719
342.50375
342.53125
342.5217
342.51281
342.50687
342.50322
342.53154
342.52196
342.51286
342.5067
342.50288
342.53185
342.5223
342.51305
342.50674
342.50282
342.53219
342.52272
342.51342
342.50702
342.50305
342.53255
342.52325
342.51397
342.50758
342.50361
342.53294
342.52388
342.51471
342.50839
342.50448
342.53336
342.5246
342.51563
342.50945
342.50563
342.75533
342.7463
342.73848
342.73347
342.73048
342.75548
342.74634
342.7384
342.73332
342.73031
342.75565
342.74641
342.73828
342.73309
342.73002
342.75585
342.7465
342.73814
342.73275
342.72955
342.75607
342.74663
342.73802
342.73237
342.72894
342.75632
342.74681
342.73795
342.73204
342.72841
342.7566
342.74705
342.73798
342.73185
342.72805
342.75691
342.74738
342.73816
342.73186
342.72796
342.75724
342.74779
342.7385
342.73212
342.72815
342.7576
342.7483
342.73902
342.73263
342.72866
342.75798
342.74891
342.73973
342.7334
342.72948
342.75839
342.74961
342.74062
342.73442
342.73059
342.96418
342.95519
342.9474
342.94241
342.93943
342.96433
342.95523
342.94732
342.94227
342.93927
342.9645
342.9553
342.9472
342.94203
342.93899
342.96469
342.95538
342.94706
342.94169
342.9385
342.96491
342.95551
342.94693
342.9413
342.93788
342.96516
342.95568
342.94685
342.94096
342.93734
342.96543
342.95591
342.94688
342.94075
342.93697
342.96573
342.95623
342.94703
342.94076
342.93686
342.96606
342.95663
342.94736
342.94099
342.93704
342.96641
342.95712
342.94786
342.94149
342.93753
342.96679
342.95772
342.94855
342.94224
342.93833
342.96719
342.95841
342.94941
342.94322
342.93939
343.15755
343.14859
343.14081
343.13583
343.13285
343.1577
343.14864
343.14074
343.1357
343.13271
343.15787
343.1487
343.14063
343.13548
343.13244
343.15806
343.14878
343.1405
343.13515
343.13197
343.15828
343.1489
343.14036
343.13475
343.13136
343.15852
343.14907
343.14028
343.13441
343.13081
343.15879
343.1493
343.14029
343.13419
343.13043
343.15908
343.1496
343.14043
343.13417
343.13029
343.1594
343.14999
343.14073
343.13438
343.13044
343.15975
343.15047
343.14121
343.13485
343.13089
343.16012
343.15105
343.14187
343.13556
343.13165
343.16051
343.15172
343.14271
343.13651
343.13268
343.33646
343.32753
343.31977
343.3148
343.31184
343.3366
343.32757
343.3197
343.31468
343.3117
343.33676
343.32763
343.31959
343.31446
343.31143
343.33695
343.32771
343.31945
343.31412
343.31096
343.33717
343.32783
343.31931
343.31372
343.31033
343.3374
343.32799
343.31922
343.31336
343.30977
343.33767
343.32821
343.31922
343.31314
343.30938
343.33796
343.3285
343.31935
343.31311
343.30923
343.33827
343.32888
343.31964
343.3133
343.30937
343.33861
343.32935
343.3201
343.31375
343.30981
343.33898
343.32991
343.32074
343.31444
343.31053
343.33937
343.33057
343.32156
343.31536
343.31152
343.50164
343.49273
343.48497
343.47999
343.47702
343.50178
343.49277
343.48491
343.47989
343.4769
343.50194
343.49284
343.48481
343.47968
343.47666
343.50213
343.49292
343.48468
343.47936
343.47621
343.50234
343.49303
343.48454
343.47897
343.4756
343.50257
343.49318
343.48445
343.47861
343.47504
343.50283
343.4934
343.48444
343.47838
343.47464
343.50312
343.49368
343.48456
343.47834
343.47447
343.50343
343.49405
343.48484
343.47851
343.47459
343.50377
343.49451
343.48528
343.47893
343.475
343.50413
343.49506
343.4859
343.4796
343.4757
343.50451
343.49571
343.48669
343.48049
343.47666
343.65398
343.6451
343.63736
343.63239
343.62943
343.65412
343.64515
343.6373
343.6323
343.62933
343.65428
343.64521
343.6372
343.6321
343.62909
343.65447
343.64528
343.63707
343.63177
343.62863
343.65467
343.64539
343.63693
343.63137
343.62801
343.65491
343.64554
343.63683
343.63101
343.62744
343.65516
343.64575
343.63681
343.63077
343.62703
343.65544
343.64603
343.63692
343.63071
343.62685
343.65575
343.64638
343.63718
343.63087
343.62695
343.65608
343.64683
343.63761
343.63127
343.62734
343.65644
343.64737
343.63821
343.63191
343.62801
343.65682
343.648
343.63898
343.63277
343.62894
343.7943
343.78543
343.77769
343.77273
343.76976
343.79443
343.78548
343.77765
343.77265
343.76969
343.79459
343.78554
343.77755
343.77246
343.76946
343.79477
343.78562
343.77743
343.77215
343.76902
343.79498
343.78572
343.77729
343.77175
343.7684
343.79521
343.78587
343.77719
343.77139
343.76783
343.79546
343.78607
343.77717
343.77114
343.76741
343.79574
343.78634
343.77726
343.77107
343.76723
343.79604
343.78669
343.77751
343.77122
343.76731
343.79637
343.78713
343.77792
343.7716
343.76767
343.79672
343.78766
343.77851
343.77222
343.76832
343.79709
343.78828
343.77926
343.77305
343.76923
343.92333
343.91448
343.90676
343.9018
343.89885
343.92346
343.91453
343.90671
343.90173
343.89877
343.92362
343.91459
343.90662
343.90154
343.89855
343.9238
343.91466
343.90649
343.90122
343.8981
343.924
343.91477
343.90635
343.90082
343.89747
343.92422
343.91491
343.90624
343.90045
343.8969
343.92447
343.9151
343.90621
343.90019
343.89647
343.92475
343.91537
343.9063
343.90011
343.89627
343.92504
343.91571
343.90653
343.90024
343.89634
343.92537
343.91613
343.90693
343.90061
343.89669
343.92571
343.91665
343.90749
343.9012
343.89731
343.92608
343.91726
343.90822
343.90201
343.89818
344.04185
344.03301
344.02528
344.02031
344.01734
344.04198
344.03306
344.02525
344.02026
344.01729
344.04214
344.03312
344.02516
344.02009
344.0171
344.04231
344.0332
344.02504
344.01979
344.01667
344.04251
344.0333
344.0249
344.0194
344.01606
344.04274
344.03344
344.0248
344.01903
344.01549
344.04298
344.03363
344.02476
344.01876
344.01506
344.04325
344.03389
344.02484
344.01867
344.01484
344.04355
344.03423
344.02507
344.01879
344.01489
344.04387
344.03464
344.02545
344.01914
344.01522
344.04421
344.03515
344.026
344.01971
344.01582
344.04458
344.03575
344.02671
344.0205
344.01667
344.15063
344.14181
344.1341
344.12916
344.1262
344.15076
344.14187
344.13407
344.1291
344.12615
344.15091
344.14193
344.13399
344.12893
344.12595
344.15109
344.142
344.13386
344.12862
344.12551
344.15129
344.1421
344.13372
344.12822
344.1249
344.15151
344.14223
344.13361
344.12785
344.12431
344.15175
344.14242
344.13357
344.12758
344.12387
344.15202
344.14267
344.13364
344.12748
344.12365
344.15231
344.143
344.13385
344.12758
344.12369
344.15262
344.1434
344.13422
344.12791
344.124
344.15296
344.1439
344.13475
344.12847
344.12458
344.15332
344.14449
344.13544
344.12923
344.1254
344.25032
344.24151
344.2338
344.22884
344.22588
344.25045
344.24157
344.23377
344.2288
344.22585
344.2506
344.24163
344.2337
344.22864
344.22567
344.25078
344.2417
344.23358
344.22834
344.22524
344.25097
344.2418
344.23344
344.22795
344.22463
344.25119
344.24193
344.23332
344.22758
344.22405
344.25143
344.24212
344.23328
344.22731
344.22361
344.25169
344.24236
344.23335
344.2272
344.22339
344.25198
344.24268
344.23355
344.22729
344.22341
344.2523
344.24309
344.23391
344.22761
344.22371
344.25263
344.24358
344.23443
344.22815
344.22427
344.25299
344.24415
344.23511
344.2289
344.22507
344.34159
344.3328
344.32509
344.32014
344.31719
344.34172
344.33285
344.32507
344.32011
344.31717
344.34187
344.33291
344.325
344.31995
344.31699
344.34204
344.33299
344.32488
344.31966
344.31656
344.34223
344.33308
344.32474
344.31926
344.31595
344.34245
344.33321
344.32462
344.31888
344.31536
344.34269
344.33339
344.32457
344.31861
344.31492
344.34295
344.33363
344.32463
344.31849
344.31468
344.34323
344.33395
344.32483
344.31858
344.3147
344.34354
344.33434
344.32518
344.31889
344.31499
344.34388
344.33482
344.32568
344.31941
344.31553
344.34423
344.33539
344.32635
344.32014
344.31631
344.42507
344.41628
344.40857
344.4036
344.40064
344.4252
344.41634
344.40855
344.40358
344.40063
344.42535
344.4164
344.40849
344.40344
344.40047
344.42552
344.41648
344.40838
344.40316
344.40007
344.42571
344.41657
344.40824
344.40278
344.39947
344.42592
344.4167
344.40812
344.4024
344.39889
344.42616
344.41688
344.40807
344.40212
344.39845
344.42642
344.41712
344.40813
344.402
344.39821
344.4267
344.41742
344.40832
344.40208
344.39821
344.42701
344.41781
344.40866
344.40237
344.39848
344.42734
344.41829
344.40915
344.40288
344.39901
344.42769
344.41885
344.40981
344.4036
344.39977
344.50137
344.4926
344.4849
344.47995
344.477
344.5015
344.49266
344.48489
344.47993
344.47699
344.50164
344.49272
344.48483
344.47979
344.47684
344.50181
344.49279
344.48471
344.47951
344.47642
344.502
344.49289
344.48457
344.47912
344.47582
344.50221
344.49301
344.48445
344.47874
344.47523
344.50245
344.49319
344.4844
344.47845
344.47478
344.5027
344.49342
344.48444
344.47833
344.47453
344.50298
344.49372
344.48462
344.4784
344.47453
344.50329
344.4941
344.48495
344.47868
344.47479
344.50361
344.49456
344.48543
344.47917
344.4753
344.50396
344.49512
344.48607
344.47986
344.47604
344.571
344.56223
344.55453
344.54958
344.54663
344.57112
344.5623
344.55453
344.54958
344.54665
344.57127
344.56236
344.55447
344.54945
344.54649
344.57144
344.56243
344.55436
344.54917
344.54609
344.57163
344.56253
344.55423
344.54878
344.54549
344.57183
344.56265
344.55411
344.5484
344.54491
344.57207
344.56282
344.55405
344.54812
344.54445
344.57232
344.56305
344.55409
344.54798
344.5442
344.5726
344.56335
344.55426
344.54804
344.54418
344.5729
344.56372
344.55458
344.54831
344.54443
344.57322
344.56418
344.55505
344.54879
344.54492
344.57357
344.56473
344.55568
344.54947
344.54565
344.63446
344.62571
344.61802
344.61308
344.61013
344.63459
344.62577
344.61802
344.61308
344.61014
344.63473
344.62584
344.61797
344.61295
344.61
344.6349
344.62591
344.61786
344.61267
344.6096
344.63509
344.626
344.61772
344.61228
344.60899
344.63529
344.62613
344.61759
344.6119
344.60841
344.63552
344.62629
344.61753
344.61161
344.60795
344.63578
344.62652
344.61757
344.61147
344.60769
344.63605
344.62681
344.61774
344.61152
344.60767
344.63635
344.62718
344.61805
344.61178
344.6079
344.63667
344.62763
344.61851
344.61225
344.60839
344.63701
344.62817
344.61912
344.61292
344.60909
344.69226
344.68352
344.67582
344.67086
344.6679