/*--------------------------------*- C++ -*----------------------------------*\
| =========                 |                                                 |
| \\      /  F ield         | OpenFOAM: The Open Source CFD Toolbox           |
|  \\    /   O peration     | Version:  4.0                                   |
|   \\  /    A nd           | Web:      www.OpenFOAM.org                      |
|    \\/     M anipulation  |                                                 |
\*---------------------------------------------------------------------------*/
FoamFile
{
    version     2.0;
    format      ascii;
    class       surfaceScalarField;
    location    "669";
    object      phi;
}
// * * * * * * * * * * * * * * * * * * * * * * * * * * * * * * * * * * * * * //

dimensions      [1 0 -1 0 0 0 0];

internalField   nonuniform List<scalar> 
9850
(
4.934261e-12
9.9027637e-11
2.009459e-11
3.302414e-10
4.6884281e-11
6.2583143e-10
8.6782377e-11
9.9820414e-10
1.4103551e-10
1.4614136e-09
2.1049416e-10
2.0310341e-09
2.9542329e-10
2.7240536e-09
3.9528963e-10
3.5586978e-09
5.0853908e-10
4.5542018e-09
6.3238683e-10
5.7305674e-09
7.6264042e-10
7.1083679e-09
8.9357258e-10
8.708698e-09
1.0178874e-09
1.0553391e-08
1.1267857e-09
1.2665663e-08
1.2101269e-09
1.5071337e-08
1.2567075e-09
1.7800836e-08
1.2546169e-09
2.0892073e-08
1.1916354e-09
2.4394349e-08
1.0555836e-09
2.8373307e-08
8.345832e-10
3.2916883e-08
5.1708986e-10
3.8142101e-08
9.1548924e-11
4.4202392e-08
-4.5428811e-10
5.1295379e-08
-1.1329964e-09
5.9672713e-08
-1.9620405e-09
6.9645624e-08
-2.9651853e-09
8.1591373e-08
-4.1754023e-09
9.5961523e-08
-5.6378187e-09
1.1329078e-07
-7.4118652e-09
1.3420872e-07
-9.5723144e-09
1.5945621e-07
-1.2208342e-08
1.8990843e-07
-1.5421232e-08
2.2660598e-07
-1.9320648e-08
2.7079499e-07
-2.4021072e-08
3.2397675e-07
-2.9638176e-08
3.8796738e-07
-3.6290148e-08
4.6496835e-07
-4.4089697e-08
5.5764979e-07
-5.3172936e-08
6.6924634e-07
-6.3631858e-08
8.0368622e-07
-7.5694653e-08
9.6568373e-07
-8.9324483e-08
1.1610544e-06
-1.0506454e-07
1.3964961e-06
-1.2234808e-07
1.6808627e-06
-1.4256351e-07
2.0230487e-06
-1.635312e-07
2.4373502e-06
-1.8844982e-07
2.9337276e-06
-2.1096442e-07
3.5368098e-06
-2.3591428e-07
4.2498889e-06
-2.3438039e-07
5.0860321e-06
5.5219313e-06
-8.0273621e-12
1.0705562e-10
-3.6521155e-11
3.5873557e-10
-9.3834484e-11
6.8314538e-10
-1.9127641e-10
1.0956466e-09
-3.4376996e-10
1.613907e-09
-5.706959e-10
2.2579598e-09
-8.9676088e-10
3.0501176e-09
-1.3527714e-09
4.0147069e-09
-1.9761506e-09
5.1775793e-09
-2.810955e-09
6.5653716e-09
-3.9071159e-09
8.204527e-09
-5.3185744e-09
1.0120155e-08
-7.1000853e-09
1.2334903e-08
-9.3025621e-09
1.4868142e-08
-1.1967122e-08
1.7735896e-08
-1.5118325e-08
2.0952039e-08
-1.8757563e-08
2.4531306e-08
-2.2857751e-08
2.849453e-08
-2.7360673e-08
3.2876223e-08
-3.2177983e-08
3.7734191e-08
-3.7196334e-08
4.3160452e-08
-4.2286447e-08
4.9292509e-08
-4.7315106e-08
5.6324051e-08
-5.2154953e-08
6.4512559e-08
-5.6696373e-08
7.4187045e-08
-6.0857936e-08
8.575295e-08
-6.4593114e-08
9.9696712e-08
-6.7893499e-08
1.1659117e-07
-7.0788743e-08
1.3710397e-07
-7.334382e-08
1.6201127e-07
-7.5654348e-08
1.922189e-07
-7.7841496e-08
2.287931e-07
-8.0048315e-08
2.7300176e-07
-8.2438207e-08
3.2636662e-07
-8.5196933e-08
3.9072611e-07
-8.8536761e-08
4.6830814e-07
-9.2701808e-08
5.6181482e-07
-9.7973051e-08
6.7451749e-07
-1.0466578e-07
8.1037892e-07
-1.1314728e-07
9.7416503e-07
-1.2377948e-07
1.1716866e-06
-1.3706525e-07
1.4097814e-06
-1.5331183e-07
1.6971093e-06
-1.7335205e-07
2.0430882e-06
-1.9717735e-07
2.4611756e-06
-2.2634604e-07
2.9628951e-06
-2.5941972e-07
3.5698833e-06
-2.9306902e-07
4.2835365e-06
-2.8294067e-07
5.0759038e-06
5.2389858e-06
-1.3196202e-11
1.2025133e-10
-5.7962863e-11
4.035018e-10
-1.4416657e-10
7.6934849e-10
-2.8405905e-10
1.2355392e-09
-4.927133e-10
1.8225622e-09
-7.885174e-10
2.5537639e-09
-1.1936826e-09
3.4552824e-09
-1.7347369e-09
4.5557601e-09
-2.4429228e-09
5.8857644e-09
-3.3544037e-09
7.4768532e-09
-4.5101263e-09
9.36025e-09
-5.9551264e-09
1.1565156e-08
-7.7370502e-09
1.4116827e-08
-9.9036186e-09
1.7034711e-08
-1.2498824e-08
2.0331103e-08
-1.5557787e-08
2.4011004e-08
-1.9100461e-08
2.8073983e-08
-2.312477e-08
3.2518844e-08
-2.7600193e-08
3.7351653e-08
-3.2463203e-08
4.2597202e-08
-3.7616051e-08
4.8313308e-08
-4.2930146e-08
5.4606613e-08
-4.8254129e-08
6.1648038e-08
-5.3427832e-08
6.9686261e-08
-5.8298443e-08
7.905765e-08
-6.2739029e-08
9.0193538e-08
-6.6665675e-08
1.0362338e-07
-7.0051298e-08
1.1997682e-07
-7.2933818e-08
1.3998651e-07
-7.5417332e-08
1.6449476e-07
-7.7665551e-08
1.9446711e-07
-7.9888608e-08
2.3101618e-07
-8.2325327e-08
2.7543851e-07
-8.5224742e-08
3.2926611e-07
-8.8831465e-08
3.9433288e-07
-9.3378418e-08
4.7285517e-07
-9.9088337e-08
5.6752494e-07
-1.061892e-07
6.8161852e-07
-1.1492323e-07
8.191132e-07
-1.2560587e-07
9.8484771e-07
-1.385669e-07
1.1846479e-06
-1.5440441e-07
1.4256189e-06
-1.7352458e-07
1.7162301e-06
-1.9723123e-07
2.0667948e-06
-2.2574964e-07
2.4896948e-06
-2.6174023e-07
2.9988853e-06
-3.0318422e-07
3.6113284e-06
-3.4408206e-07
4.3244332e-06
-3.2024898e-07
5.0520733e-06
4.9187321e-06
-1.2607195e-11
1.3285907e-10
-5.5541271e-11
4.4643637e-10
-1.3840781e-10
8.5221559e-10
-2.7313524e-10
1.370266e-09
-4.7446526e-10
2.023892e-09
-7.6048608e-10
2.8397844e-09
-1.1531995e-09
3.8479955e-09
-1.6791037e-09
5.0816634e-09
-2.3697327e-09
6.5763929e-09
-3.262078e-09
8.3691986e-09
-4.3987596e-09
1.0496934e-08
-5.8277889e-09
1.2994188e-08
-7.6016884e-09
1.5890729e-08
-9.7757233e-09
1.9208746e-08
-1.2404981e-08
2.2960361e-08
-1.5540118e-08
2.7146147e-08
-1.9221746e-08
3.1755615e-08
-2.3473674e-08
3.6770778e-08
-2.8295737e-08
4.2173718e-08
-3.3657201e-08
4.7958663e-08
-3.9492154e-08
5.4148264e-08
-4.5698339e-08
6.0812802e-08
-5.2140564e-08
6.8090252e-08
-5.8659016e-08
7.62047e-08
-6.5082452e-08
8.5481061e-08
-7.1243784e-08
9.6354863e-08
-7.6997432e-08
1.0937701e-07
-8.2235547e-08
1.2521493e-07
-8.6901584e-08
1.4465251e-07
-9.0998994e-08
1.6859213e-07
-9.459457e-08
1.9806266e-07
-9.7816044e-08
2.3423759e-07
-1.0084476e-07
2.7846713e-07
-1.0390583e-07
3.3232707e-07
-1.072585e-07
3.9768547e-07
-1.1118968e-07
4.7678627e-07
-1.1601224e-07
5.7234744e-07
-1.2206795e-07
6.8767419e-07
-1.2973598e-07
8.2678126e-07
-1.3944302e-07
9.9455465e-07
-1.5167723e-07
1.1968822e-06
-1.6702561e-07
1.4409671e-06
-1.8614872e-07
1.7353535e-06
-2.0997591e-07
2.0906216e-06
-2.393464e-07
2.5190659e-06
-2.7534398e-07
3.0348822e-06
-3.1621648e-07
3.6522021e-06
-3.4899343e-07
4.3572084e-06
-3.0637885e-07
5.0094617e-06
4.6123523e-06
-9.8492468e-12
1.4270745e-10
-4.3493024e-11
4.8007987e-10
-1.0867691e-10
9.1739983e-10
-2.1515904e-10
1.4767483e-09
-3.751606e-10
2.1838938e-09
-6.0390024e-10
3.0685239e-09
-9.2019998e-10
4.1642956e-09
-1.3471586e-09
5.5086226e-09
-1.9128512e-09
7.1420871e-09
-2.6510048e-09
9.1073552e-09
-3.6015464e-09
1.1447479e-08
-4.810868e-09
1.4203514e-08
-6.3316084e-09
1.7411474e-08
-8.2216645e-09
2.1098805e-08
-1.0542116e-08
2.5280817e-08
-1.3353778e-08
2.995781e-08
-1.6712137e-08
3.5113978e-08
-2.0660762e-08
4.0719402e-08
-2.522352e-08
4.6736473e-08
-3.0396544e-08
5.3131697e-08
-3.6141325e-08
5.9893054e-08
-4.2380436e-08
6.7051926e-08
-4.8997589e-08
7.4707414e-08
-5.584301e-08
8.3050119e-08
-6.2744343e-08
9.2382381e-08
-6.9522262e-08
1.0313278e-07
-7.6009312e-08
1.1586405e-07
-8.2069515e-08
1.3127513e-07
-8.7616517e-08
1.5019949e-07
-9.2627373e-08
1.7360298e-07
-9.7150043e-08
2.0258533e-07
-1.0130279e-07
2.383903e-07
-1.052653e-07
2.8242964e-07
-1.0926408e-07
3.3632579e-07
-1.1355495e-07
4.0197639e-07
-1.1840969e-07
4.8164098e-07
-1.2410973e-07
5.7804751e-07
-1.3095149e-07
6.9451594e-07
-1.3926292e-07
8.3509266e-07
-1.4942297e-07
1.0047146e-06
-1.6189517e-07
1.2093544e-06
-1.7724221e-07
1.4563138e-06
-1.9616335e-07
1.7542749e-06
-2.1949375e-07
2.1139516e-06
-2.4811301e-07
2.5476856e-06
-2.8239954e-07
3.0691676e-06
-3.1925315e-07
3.689057e-06
-3.4276024e-07
4.3807135e-06
-2.8645985e-07
4.9531632e-06
4.3258914e-06
-8.860933e-12
1.5156874e-10
-3.9150892e-11
5.103701e-10
-9.7853014e-11
9.761028e-10
-1.9376095e-10
1.5726569e-09
-3.3789762e-10
2.3280307e-09
-5.4400885e-10
3.2746343e-09
-8.291335e-10
4.4494191e-09
-1.2142521e-09
5.8937407e-09
-1.7249937e-09
7.6528286e-09
-2.3923603e-09
9.7747211e-09
-3.2533972e-09
1.2308517e-08
-4.3517082e-09
1.5301826e-08
-5.7376211e-09
1.8797386e-08
-7.4677732e-09
2.2828954e-08
-9.6038122e-09
2.7416854e-08
-1.2209879e-08
3.2563876e-08
-1.5348548e-08
3.8252649e-08
-1.9075097e-08
4.4445952e-08
-2.3430214e-08
5.1091586e-08
-2.8431739e-08
5.8133227e-08
-3.4066608e-08
6.5527928e-08
-4.0284396e-08
7.3269717e-08
-4.6994247e-08
8.1417276e-08
-5.4066627e-08
9.0122505e-08
-6.1340524e-08
9.9656283e-08
-6.8636053e-08
1.1042832e-07
-7.5771336e-08
1.2299933e-07
-8.2581822e-08
1.3808561e-07
-8.8940038e-08
1.565577e-07
-9.4773378e-08
1.7943629e-07
-1.0007758e-07
2.078895e-07
-1.0492402e-07
2.4323668e-07
-1.0945893e-07
2.8696451e-07
-1.1389505e-07
3.4076185e-07
-1.1849691e-07
4.065782e-07
-1.2356431e-07
4.8670838e-07
-1.2941903e-07
5.8390226e-07
-1.3639897e-07
7.0149585e-07
-1.4486363e-07
8.4355731e-07
-1.5520638e-07
1.0150573e-06
-1.6788401e-07
1.2220321e-06
-1.8342783e-07
1.4718576e-06
-2.0250064e-07
1.773348e-06
-2.2582334e-07
2.1372739e-06
-2.5412236e-07
2.5759853e-06
-2.8723098e-07
3.1022752e-06
-3.2047524e-07
3.7223026e-06
-3.3575165e-07
4.3959882e-06
-2.6910954e-07
4.8865223e-06
4.0567802e-06
-7.7733262e-12
1.5934074e-10
-3.437021e-11
5.3696623e-10
-8.5977692e-11
1.0277099e-09
-1.7041728e-10
1.6570961e-09
-2.9753243e-10
2.4551449e-09
-4.7965062e-10
3.4567518e-09
-7.3213264e-10
4.7019003e-09
-1.0740005e-09
6.2356082e-09
-1.5286464e-09
8.1074729e-09
-2.1245805e-09
1.0370655e-08
-2.8961897e-09
1.3080126e-08
-3.884389e-09
1.6290026e-08
-5.1370425e-09
2.0050037e-08
-6.708915e-09
2.4400826e-08
-8.6609194e-09
2.9368856e-08
-1.1058264e-08
3.4961218e-08
-1.3967203e-08
4.1161584e-08
-1.7450093e-08
4.792884e-08
-2.1558758e-08
5.5200247e-08
-2.6326462e-08
6.2900935e-08
-3.1759427e-08
7.0960898e-08
-3.7829158e-08
7.9339457e-08
-4.4467364e-08
8.8055492e-08
-5.1565032e-08
9.7220175e-08
-5.8976798e-08
1.0706806e-07
-6.653099e-08
1.1798252e-07
-7.4044553e-08
1.3051292e-07
-8.1341619e-08
1.4538268e-07
-8.8273504e-08
1.6348958e-07
-9.4738186e-08
1.8590094e-07
-1.0069668e-07
2.1384797e-07
-1.0618424e-07
2.4872419e-07
-1.1131401e-07
2.9209422e-07
-1.1627244e-07
3.4572023e-07
-1.2130725e-07
4.1161295e-07
-1.2671107e-07
4.9211219e-07
-1.3280658e-07
5.8999775e-07
-1.3993768e-07
7.0862695e-07
-1.4847199e-07
8.5209166e-07
-1.5881124e-07
1.0253966e-06
-1.7141629e-07
1.2346373e-06
-1.8681388e-07
1.4872551e-06
-2.0564329e-07
1.7921777e-06
-2.2854259e-07
2.1601727e-06
-2.5600115e-07
2.6034446e-06
-2.8733037e-07
3.1336033e-06
-3.1652766e-07
3.7515011e-06
-3.2394553e-07
4.4034047e-06
-2.5043716e-07
4.8130154e-06
3.8063418e-06
-7.087155e-12
1.6642649e-10
-3.1345303e-11
5.6122377e-10
-7.8430172e-11
1.0747949e-09
-1.5549735e-10
1.7341631e-09
-2.7156062e-10
2.5712082e-09
-4.3792724e-10
3.6231179e-09
-6.6871028e-10
4.9326821e-09
-9.8142863e-10
6.5483252e-09
-1.3976898e-09
8.5237334e-09
-1.9439396e-09
1.0916905e-08
-2.6522363e-09
1.3788423e-08
-3.5609781e-09
1.719877e-08
-4.7154746e-09
2.1204537e-08
-6.1681615e-09
2.5853515e-08
-7.9782178e-09
3.1178913e-08
-1.0210267e-08
3.7193265e-08
-1.2931795e-08
4.3883109e-08
-1.6208975e-08
5.1206024e-08
-2.0100754e-08
5.9092036e-08
-2.4651335e-08
6.7451523e-08
-2.9881682e-08
7.619125e-08
-3.5781262e-08
8.5239033e-08
-4.2301526e-08
9.4575757e-08
-4.9352949e-08
1.0427161e-07
-5.6806923e-08
1.1452203e-07
-6.4503144e-08
1.2567873e-07
-7.226237e-08
1.3827212e-07
-7.9903352e-08
1.5302366e-07
-8.7262417e-08
1.708486e-07
-9.4213388e-08
1.928519e-07
-1.0068633e-07
2.2032089e-07
-1.0668195e-07
2.5471984e-07
-1.1228032e-07
2.9769257e-07
-1.1764092e-07
3.510808e-07
-1.2299443e-07
4.169664e-07
-1.2862738e-07
4.9774515e-07
-1.3486476e-07
5.9623512e-07
-1.4205597e-07
7.1581813e-07
-1.505707e-07
8.606064e-07
-1.6080522e-07
1.0356311e-06
-1.7320268e-07
1.2470349e-06
-1.8826029e-07
1.5023127e-06
-2.0656022e-07
1.810478e-06
-2.2864764e-07
2.1822596e-06
-2.5474194e-07
2.6295397e-06
-2.8365585e-07
3.1625164e-06
-3.0848686e-07
3.7763331e-06
-3.0878757e-07
4.4037041e-06
-2.3103061e-07
4.73526e-06
3.5753101e-06
-6.4886548e-12
1.7291477e-10
-2.8711447e-11
5.8344649e-10
-7.1867584e-11
1.117951e-09
-1.425438e-10
1.8048389e-09
-2.4905005e-10
2.6777144e-09
-4.018289e-10
3.7758967e-09
-6.1394089e-10
5.1447945e-09
-9.0163994e-10
6.8360243e-09
-1.2850312e-09
8.9071243e-09
-1.7888074e-09
1.142068e-08
-2.4430291e-09
1.4442644e-08
-3.2838986e-09
1.8039642e-08
-4.3544209e-09
2.2275062e-08
-5.7047934e-09
2.7203888e-08
-7.3922939e-09
3.2866414e-08
-9.4803925e-09
3.9281361e-08
-1.2036702e-08
4.6439412e-08
-1.5129436e-08
5.4298755e-08
-1.8822173e-08
6.2784766e-08
-2.3166855e-08
7.1796202e-08
-2.8195589e-08
8.1219981e-08
-3.3912099e-08
9.0955541e-08
-4.0284368e-08
1.0094802e-07
-4.7240095e-08
1.1122733e-07
-5.4666579e-08
1.2194852e-07
-6.2415959e-08
1.334281e-07
-7.0315791e-08
1.4617196e-07
-7.81844e-08
1.6089226e-07
-8.5849386e-08
1.7851355e-07
-9.3167453e-08
2.0016998e-07
-1.0004406e-07
2.2719751e-07
-1.0645004e-07
2.6112582e-07
-1.1243353e-07
3.03676e-07
-1.1812434e-07
3.567716e-07
-1.2373024e-07
4.2257224e-07
-1.2952421e-07
5.0353909e-07
-1.3582732e-07
6.0253819e-07
-1.4299172e-07
7.229825e-07
-1.5139103e-07
8.6900565e-07
-1.6142037e-07
1.0456604e-06
-1.735101e-07
1.2591248e-06
-1.8812939e-07
1.5169319e-06
-2.0579477e-07
1.8281437e-06
-2.2694785e-07
2.2034122e-06
-2.5153977e-07
2.6541324e-06
-2.7788419e-07
3.18886e-06
-2.9847713e-07
3.796927e-06
-2.9263177e-07
4.3978574e-06
-2.1223105e-07
4.6548609e-06
3.3630779e-06
-6.020748e-12
1.7893418e-10
-2.6644374e-11
6.0406949e-10
-6.6705191e-11
1.1580117e-09
-1.3233239e-10
1.8704661e-09
-2.3126634e-10
2.7766483e-09
-3.7324339e-10
3.9178735e-09
-5.7045642e-10
5.3420082e-09
-8.3810543e-10
7.103674e-09
-1.1950291e-09
9.2640492e-09
-1.6644238e-09
1.1890077e-08
-2.2746225e-09
1.5052845e-08
-3.0598813e-09
1.8824904e-08
-4.0611031e-09
2.3276286e-08
-5.3263465e-09
2.8469131e-08
-6.9109206e-09
3.4450988e-08
-8.8768057e-09
4.1247246e-08
-1.1291036e-08
4.8853644e-08
-1.4222722e-08
5.7230435e-08
-1.7738361e-08
6.6300398e-08
-2.1895451e-08
7.595328e-08
-2.6734597e-08
8.6059113e-08
-3.2270982e-08
9.6491907e-08
-3.8486427e-08
1.0716345e-07
-4.5323753e-08
1.1806464e-07
-5.2685011e-08
1.2930978e-07
-6.0434796e-08
1.4117789e-07
-6.8408931e-08
1.5414608e-07
-7.642806e-08
1.6891137e-07
-8.4314975e-08
1.8640043e-07
-9.191399e-08
2.0776896e-07
-9.9110681e-08
2.3439417e-07
-1.0585001e-07
2.6786509e-07
-1.1215048e-07
3.0997643e-07
-1.1811248e-07
3.6273353e-07
-1.2391799e-07
4.2837773e-07
-1.2982184e-07
5.0944291e-07
-1.3613544e-07
6.0885177e-07
-1.4320854e-07
7.3005559e-07
-1.5141528e-07
8.7721242e-07
-1.6114896e-07
1.055394e-06
-1.7282832e-07
1.2708042e-06
-1.868972e-07
1.5310007e-06
-2.038088e-07
1.8450557e-06
-2.2389626e-07
2.2234994e-06
-2.4686823e-07
2.677105e-06
-2.705716e-07
3.2125627e-06
-2.8710484e-07
3.8134612e-06
-2.7602915e-07
4.3867804e-06
-1.9430116e-07
4.5731347e-06
3.1687755e-06
-5.6208474e-12
1.8455552e-10
-2.4884982e-11
6.2333398e-10
-6.2315565e-11
1.1954434e-09
-1.2365355e-10
1.931805e-09
-2.161532e-10
2.8691497e-09
-3.4895146e-10
4.0506725e-09
-5.3350237e-10
5.5265595e-09
-7.841024e-10
7.3542753e-09
-1.1185042e-09
9.5984533e-09
-1.5586166e-09
1.2330189e-08
-2.1312616e-09
1.5625491e-08
-2.8689845e-09
1.9562625e-08
-3.8107993e-09
2.4218101e-08
-5.0027933e-09
2.9661126e-08
-6.498381e-09
3.5946575e-08
-8.3579499e-09
4.3106814e-08
-1.0647608e-08
5.11433e-08
-1.3436634e-08
6.0019461e-08
-1.6793352e-08
6.9657118e-08
-2.0779244e-08
7.9939175e-08
-2.5441484e-08
9.0721343e-08
-3.080447e-08
1.0185488e-07
-3.6861633e-08
1.132206e-07
-4.3568941e-08
1.2477193e-07
-5.0841816e-08
1.3658264e-07
-5.8556809e-08
1.4889287e-07
-6.6558523e-08
1.6214779e-07
-7.4671696e-08
1.770245e-07
-8.2717081e-08
1.9444579e-07
-9.0530243e-08
2.1558211e-07
-9.7981089e-08
2.4184498e-07
-1.0499253e-07
2.7487648e-07
-1.1155655e-07
3.1654035e-07
-1.1774495e-07
3.6892187e-07
-1.2371313e-07
4.3434582e-07
-1.2969426e-07
5.1542397e-07
-1.3598563e-07
6.1514311e-07
-1.4293002e-07
7.3699994e-07
-1.5089825e-07
8.8518072e-07
-1.6027897e-07
1.0647747e-06
-1.7147722e-07
1.2820024e-06
-1.8490874e-07
1.5444322e-06
-2.0096297e-07
1.8611103e-06
-2.198576e-07
2.2423936e-06
-2.410848e-07
2.6983328e-06
-2.6209495e-07
3.2335722e-06
-2.7475242e-07
3.8261195e-06
-2.5925213e-07
4.3712788e-06
-1.773111e-07
4.4911956e-06
2.991463e-06
-5.2826317e-12
1.8983993e-10
-2.339504e-11
6.414478e-10
-5.8597266e-11
1.2306468e-09
-1.1629706e-10
1.989506e-09
-2.0333443e-10
2.9561887e-09
-3.2833018e-10
4.1756689e-09
-5.0210222e-10
5.7003317e-09
-7.3816955e-10
7.5903421e-09
-1.053341e-09
9.9136243e-09
-1.4683944e-09
1.2745242e-08
-2.0088286e-09
1.6165924e-08
-2.7056627e-09
2.0259459e-08
-3.5962173e-09
2.5108652e-08
-4.7247643e-09
3.0789671e-08
-6.1429069e-09
3.7364715e-08
-7.9094227e-09
4.4873326e-08
-1.0089281e-08
5.3323157e-08
-1.2751496e-08
6.2681675e-08
-1.596544e-08
7.2871069e-08
-1.9795461e-08
8.3769206e-08
-2.429382e-08
9.5219699e-08
-2.9492416e-08
1.0705348e-07
-3.5394446e-08
1.1912262e-07
-4.1967319e-08
1.3134479e-07
-4.9138471e-08
1.4375379e-07
-5.6795697e-08
1.5655009e-07
-6.4792464e-08
1.7014456e-07
-7.2958489e-08
1.8519051e-07
-8.1114435e-08
2.0260173e-07
-8.9089757e-08
2.235574e-07
-9.6741759e-08
2.4949694e-07
-1.0397467e-07
2.8210933e-07
-1.1075661e-07
3.2332226e-07
-1.1713274e-07
3.7529794e-07
-1.2323163e-07
4.4044456e-07
-1.29263e-07
5.2145525e-07
-1.3550683e-07
6.213869e-07
-1.422952e-07
7.4378835e-07
-1.4999296e-07
8.9287853e-07
-1.5898223e-07
1.073764e-06
-1.6965347e-07
1.2926738e-06
-1.8239323e-07
1.5571719e-06
-1.9752862e-07
1.8762459e-06
-2.1515951e-07
2.2600241e-06
-2.3458203e-07
2.717756e-06
-2.5292839e-07
3.2519178e-06
-2.6195518e-07
3.8351473e-06
-2.4272887e-07
4.3520513e-06
-1.6138846e-07
4.4098571e-06
2.8300734e-06
-4.9951236e-12
1.9483314e-10
-2.2115357e-11
6.5856668e-10
-5.5391929e-11
1.2639225e-09
-1.0994517e-10
2.0440587e-09
-1.9225486e-10
3.0384981e-09
-3.1049223e-10
4.2939056e-09
-4.7491914e-10
5.8647588e-09
-6.9837336e-10
7.8137975e-09
-9.9683877e-10
1.021209e-08
-1.3900985e-09
1.3138501e-08
-1.9024758e-09
1.6678301e-08
-2.5636271e-09
2.092061e-08
-3.4093346e-09
2.5954363e-08
-4.4822177e-09
3.1862556e-08
-5.8321731e-09
3.8714675e-08
-7.5163988e-09
4.6557555e-08
-9.5986357e-09
5.5405397e-08
-1.2147342e-08
6.5230383e-08
-1.5232423e-08
7.5956148e-08
-1.8920263e-08
8.7457049e-08
-2.3267095e-08
9.9566525e-08
-2.831097e-08
1.1209734e-07
-3.4063358e-08
1.2487499e-07
-4.0501619e-08
1.3778303e-07
-4.7564018e-08
1.5081618e-07
-5.5148818e-08
1.6413486e-07
-6.311819e-08
1.7811388e-07
-7.1307334e-08
1.9337964e-07
-7.9538166e-08
2.1083252e-07
-8.7635993e-08
2.3165515e-07
-9.5448082e-08
2.5730899e-07
-1.0286281e-07
2.8952401e-07
-1.0982716e-07
3.3028659e-07
-1.1636142e-07
3.8183212e-07
-1.2256786e-07
4.4665094e-07
-1.2863196e-07
5.2751928e-07
-1.3481394e-07
6.2756879e-07
-1.4143201e-07
7.5040648e-07
-1.4884215e-07
9.0028873e-07
-1.5741819e-07
1.08234e-06
-1.6753576e-07
1.3027915e-06
-1.7955168e-07
1.5691877e-06
-1.9373349e-07
1.890428e-06
-2.1006773e-07
2.2763582e-06
-2.2767385e-07
2.7353627e-06
-2.4343861e-07
3.267682e-06
-2.4911304e-07
3.8408227e-06
-2.2676362e-07
4.3297008e-06
-1.4660131e-07
4.3296969e-06
2.6834709e-06
-4.7393367e-12
1.995723e-10
-2.0989805e-11
6.7481719e-10
-5.2582417e-11
1.2955153e-09
-1.043856e-10
2.0958613e-09
-1.8256238e-10
3.1166737e-09
-2.9488832e-10
4.4062302e-09
-4.5113666e-10
6.0210068e-09
-6.6354434e-10
8.0262055e-09
-9.4736029e-10
1.0495906e-08
-1.3214828e-09
1.3512626e-08
-1.8091909e-09
1.716601e-08
-2.4389161e-09
2.1550337e-08
-3.245053e-09
2.6760502e-08
-4.268688e-09
3.2886194e-08
-5.5581399e-09
4.0004126e-08
-7.1690657e-09
4.8168483e-08
-9.1639391e-09
5.7400271e-08
-1.1610479e-08
6.7676923e-08
-1.4578734e-08
7.8924409e-08
-1.8136552e-08
9.1014867e-08
-2.2343267e-08
1.0377324e-07
-2.7242006e-08
1.1699608e-07
-3.2851298e-08
1.3048428e-07
-3.9157238e-08
1.4408896e-07
-4.6107836e-08
1.5776675e-07
-5.3611018e-08
1.7163799e-07
-6.1537358e-08
1.8604017e-07
-6.972792e-08
2.0157016e-07
-7.8006697e-08
2.1911124e-07
-8.6196385e-08
2.3984476e-07
-9.413638e-08
2.6524891e-07
-1.017016e-07
2.9708913e-07
-1.0882032e-07
3.3740524e-07
-1.1548989e-07
3.8850163e-07
-1.2178756e-07
4.5294854e-07
-1.2787412e-07
5.3360578e-07
-1.3398846e-07
6.3368308e-07
-1.4043266e-07
7.5685069e-07
-1.47551e-07
9.0740713e-07
-1.5570712e-07
1.0904962e-06
-1.6526113e-07
1.3123456e-06
-1.7653964e-07
1.5804661e-06
-1.8975299e-07
1.9036416e-06
-2.047821e-07
2.291387e-06
-2.2058893e-07
2.7511702e-06
-2.3387926e-07
3.2809719e-06
-2.3648375e-07
3.8434282e-06
-2.1153285e-07
4.3047487e-06
-1.3296848e-07
4.2511348e-06
2.5505015e-06
-4.5170131e-12
2.0408737e-10
-2.0001958e-11
6.9030154e-10
-5.0109322e-11
1.3256225e-09
-9.9484415e-11
2.1452357e-09
-1.7400868e-10
3.1911981e-09
-2.8110881e-10
4.5133304e-09
-4.3012491e-10
6.1700227e-09
-6.3275849e-10
8.2288383e-09
-9.0360115e-10
1.0766751e-08
-1.2607667e-09
1.3869792e-08
-1.7265837e-09
1.7631829e-08
-2.3283813e-09
2.2152136e-08
-3.0992885e-09
2.7531412e-08
-4.0789925e-09
3.38659e-08
-5.3143168e-09
4.1239456e-08
-6.859472e-09
4.971364e-08
-8.7756444e-09
5.9316447e-08
-1.1129705e-08
7.0030987e-08
-1.39916e-08
8.1786303e-08
-1.7430148e-08
9.4453417e-08
-2.1507154e-08
1.0785025e-07
-2.626995e-08
1.2175888e-07
-3.1743116e-08
1.3595744e-07
-3.7920432e-08
1.5026627e-07
-4.4758678e-08
1.6460498e-07
-5.2174741e-08
1.7905403e-07
-6.0047259e-08
1.9391265e-07
-6.822325e-08
2.0974612e-07
-7.6529451e-08
2.2741739e-07
-8.4787147e-08
2.481024e-07
-9.2829578e-08
2.7329125e-07
-1.0052023e-07
3.0477966e-07
-1.077709e-07
3.446558e-07
-1.1455802e-07
3.9528867e-07
-1.2093506e-07
4.5932552e-07
-1.2703854e-07
5.3970919e-07
-1.3308507e-07
6.3972956e-07
-1.3935872e-07
7.631243e-07
-1.4618997e-07
9.1423842e-07
-1.5393042e-07
1.0982367e-06
-1.6292395e-07
1.3213393e-06
-1.7346716e-07
1.5910093e-06
-1.8571584e-07
1.9158906e-06
-1.9945377e-07
2.3051248e-06
-2.1350535e-07
2.7652224e-06
-2.2444915e-07
3.2919152e-06
-2.2426283e-07
3.8432429e-06
-1.9715939e-07
4.2776442e-06
-1.2048506e-07
4.1744627e-06
2.4300157e-06
-4.3155424e-12
2.0840321e-10
-1.9117615e-11
7.0510441e-10
-4.7903075e-11
1.3544082e-09
-9.5116155e-11
2.192449e-09
-1.6638943e-10
3.2624714e-09
-2.6883601e-10
4.6157767e-09
-4.1140621e-10
6.312593e-09
-6.0532231e-10
8.4227539e-09
-8.645904e-10
1.1026018e-08
-1.2066069e-09
1.4211809e-08
-1.6528522e-09
1.8078073e-08
-2.2296499e-09
2.2728934e-08
-2.9689739e-09
2.8270734e-08
-3.9092185e-09
3.4806141e-08
-5.0958261e-09
4.242606e-08
-6.5816027e-09
5.1199417e-08
-8.4264914e-09
6.1161333e-08
-1.0696432e-08
7.2300931e-08
-1.3461074e-08
8.4550945e-08
-1.6789886e-08
9.7782229e-08
-2.0746608e-08
1.1180697e-07
-2.538209e-08
1.2639437e-07
-3.0726119e-08
1.4130148e-07
-3.6779285e-08
1.5631944e-07
-4.3506297e-08
1.7133198e-07
-5.0832343e-08
1.8638004e-07
-5.8643727e-08
2.0172401e-07
-6.6793479e-08
2.1789584e-07
-7.5111493e-08
2.3573537e-07
-8.3418631e-08
2.5640949e-07
-9.1543304e-08
2.8141586e-07
-9.933936e-08
3.1257563e-07
-1.0670412e-07
3.5202047e-07
-1.1359508e-07
4.0217953e-07
-1.2004347e-07
4.6577378e-07
-1.2616202e-07
5.4582764e-07
-1.3214475e-07
6.4571222e-07
-1.3825637e-07
7.6923587e-07
-1.4481193e-07
9.2079394e-07
-1.5214939e-07
1.1055742e-06
-1.6059558e-07
1.3297857e-06
-1.7041815e-07
1.6008319e-06
-1.8172073e-07
1.9271935e-06
-1.9419962e-07
2.3176035e-06
-2.0656144e-07
2.7775849e-06
-2.1530082e-07
3.3006542e-06
-2.1259305e-07
3.840536e-06
-1.8372037e-07
4.2487705e-06
-1.0912272e-07
4.0998675e-06
2.3208922e-06
-4.1368481e-12
2.1254057e-10
-1.8328327e-11
7.192967e-10
-4.5927958e-11
1.3820094e-09
-9.1202136e-11
2.2377248e-09
-1.595583e-10
3.3308292e-09
-2.578281e-10
4.7140478e-09
-3.9461201e-10
6.449378e-09
-5.8069921e-10
8.6088409e-09
-8.2956332e-10
1.1274883e-08
-1.1579581e-09
1.4540202e-08
-1.5865865e-09
1.85067e-08
-2.1408565e-09
2.3283201e-08
-2.8516811e-09
2.8981555e-08
-3.756258e-09
3.5710715e-08
-4.8987427e-09
4.3568539e-08
-6.33062e-09
5.2631293e-08
-8.1106057e-09
6.2941312e-08
-1.030369e-08
7.4494007e-08
-1.2979074e-08
8.7226322e-08
-1.6206617e-08
1.0100976e-07
-2.0051579e-08
1.1565192e-07
-2.4567764e-08
1.3091054e-07
-2.9789494e-08
1.4652319e-07
-3.5723372e-08
1.6225331e-07
-4.2341297e-08
1.779499e-07
-4.9576165e-08
1.9361489e-07
-5.7321595e-08
2.0946943e-07
-6.5436534e-08
2.2601076e-07
-7.3754467e-08
2.4405327e-07
-8.2096539e-08
2.647515e-07
-9.0287441e-08
2.8960672e-07
-9.8172994e-08
3.2046113e-07
-1.056378e-07
3.594852e-07
-1.1262222e-07
4.0916385e-07
-1.1913668e-07
4.7228814e-07
-1.252713e-07
5.5196213e-07
-1.3119743e-07
6.5163826e-07
-1.3715958e-07
7.751979e-07
-1.4345579e-07
9.2709013e-07
-1.5040923e-07
1.1125276e-06
-1.5832916e-07
1.3377058e-06
-1.674549e-07
1.6099576e-06
-1.7784126e-07
1.9375802e-06
-1.8910605e-07
2.3288682e-06
-1.9985724e-07
2.7883368e-06
-2.0654065e-07
3.3073372e-06
-2.0156496e-07
3.8355613e-06
-1.712488e-07
4.2184534e-06
-9.8835511e-08
4.0274566e-06
2.2220559e-06
-3.9769975e-12
2.1651702e-10
-1.7618885e-11
7.3293834e-10
-4.4151747e-11
1.4085421e-09
-8.7679367e-11
2.2812526e-09
-1.5340586e-10
3.3965557e-09
-2.4790752e-10
4.8085493e-09
-3.7946781e-10
6.5809377e-09
-5.5848089e-10
8.7878537e-09
-7.9793902e-10
1.1514342e-08
-1.114006e-09
1.485627e-08
-1.5266785e-09
1.8919372e-08
-2.0605236e-09
2.3817048e-08
-2.7454805e-09
2.9666513e-08
-3.6176396e-09
3.6582877e-08
-4.7199484e-09
4.4670851e-08
-6.1026506e-09
5.4013995e-08
-7.8232625e-09
6.4661922e-08
-9.9458069e-09
7.661655e-08
-1.2538952e-08
8.9819467e-08
-1.5672745e-08
1.0414354e-07
-1.941363e-08
1.193928e-07
-2.3817909e-08
1.353148e-07
-2.8923844e-08
1.516291e-07
-3.4743425e-08
1.6807286e-07
-4.1255082e-08
1.8446154e-07
-4.8398861e-08
2.0075864e-07
-5.6075337e-08
2.1714588e-07
-6.4149295e-08
2.3408469e-07
-7.245801e-08
2.5236193e-07
-8.0823529e-08
2.7311696e-07
-8.9067921e-08
2.9785103e-07
-9.7030197e-08
3.2842332e-07
-1.0458386e-07
3.6703875e-07
-1.1165378e-07
4.1623367e-07
-1.1823128e-07
4.7886553e-07
-1.2438479e-07
5.581155e-07
-1.3026346e-07
6.5751682e-07
-1.3609104e-07
7.8102536e-07
-1.4214766e-07
9.3314671e-07
-1.4874029e-07
1.1191203e-06
-1.5616033e-07
1.345126e-06
-1.6461974e-07
1.618417e-06
-1.7412777e-07
1.9470886e-06
-1.8423248e-07
2.3389728e-06
-1.934607e-07
2.7975655e-06
-1.9823749e-07
3.3121137e-06
-1.912291e-07
3.8285538e-06
-1.5974651e-07
4.1869699e-06
-8.9566203e-08
3.9572788e-06
2.1324887e-06
-3.8305828e-12
2.2034755e-10
-1.6972757e-11
7.4608051e-10
-4.2536858e-11
1.4341055e-09
-8.4478868e-11
2.323194e-09
-1.4781721e-10
3.4598937e-09
-2.3889685e-10
4.8996281e-09
-3.6571148e-10
6.7077511e-09
-5.3829675e-10
8.9604382e-09
-7.6920582e-10
1.1745249e-08
-1.074063e-09
1.5161125e-08
-1.4722152e-09
1.9317522e-08
-1.9874571e-09
2.433229e-08
-2.6488251e-09
3.0327881e-08
-3.4913853e-09
3.7425439e-08
-4.5569538e-09
4.5736422e-08
-5.8945929e-09
5.5351635e-08
-7.5606702e-09
6.6328001e-08
-9.6182417e-09
7.867412e-08
-1.2135377e-08
9.23366e-08
-1.5182133e-08
1.071903e-07
-1.8825899e-08
1.2303655e-07
-2.3125058e-08
1.3961395e-07
-2.812133e-08
1.5662536e-07
-3.3831545e-08
1.7378305e-07
-4.0240109e-08
1.9087007e-07
-4.7293686e-08
2.0781218e-07
-5.4899456e-08
2.2475164e-07
-6.2927951e-08
2.4211317e-07
-7.122043e-08
2.6065435e-07
-7.9600317e-08
2.8149677e-07
-8.7887844e-08
3.0613848e-07
-9.5916418e-08
3.3645182e-07
-1.0354984e-07
3.7467209e-07
-1.106992e-07
4.2338292e-07
-1.1733813e-07
4.8550432e-07
-1.2351451e-07
5.6429179e-07
-1.2935598e-07
6.6335818e-07
-1.3506534e-07
7.867346e-07
-1.4090391e-07
9.389853e-07
-1.4716183e-07
1.1253783e-06
-1.5411202e-07
1.3520763e-06
-1.6193989e-07
1.6262449e-06
-1.7061287e-07
1.9557619e-06
-1.7961716e-07
2.3479771e-06
-1.8741426e-07
2.8053632e-06
-1.9043127e-07
3.3151303e-06
-1.8160615e-07
3.8197295e-06
-1.4919195e-07
4.1545549e-06
-8.1249813e-08
3.889339e-06
2.0512382e-06
-3.6964542e-12
2.2404506e-10
-1.6382835e-11
7.587673e-10
-4.1061952e-11
1.4587849e-09
-8.1557032e-11
2.3636886e-09
-1.4271731e-10
3.5210526e-09
-2.306742e-10
4.9875835e-09
-3.5315647e-10
6.8302318e-09
-5.198712e-10
9.1271523e-09
-7.4296609e-10
1.1968343e-08
-1.0375734e-09
1.5455731e-08
-1.4224406e-09
1.9702388e-08
-1.9206535e-09
2.48305e-08
-2.5604122e-09
3.0967635e-08
-3.3758261e-09
3.8240849e-08
-4.407652e-09
4.6768245e-08
-5.7038278e-09
5.664781e-08
-7.3196259e-09
6.7943798e-08
-9.3171415e-09
8.0671628e-08
-1.176379e-08
9.4783243e-08
-1.4729537e-08
1.1015603e-07
-1.828247e-08
1.2658948e-07
-2.248276e-08
1.4381423e-07
-2.7375164e-08
1.6151773e-07
-3.298083e-08
1.7938868e-07
-3.9289641e-08
1.9717885e-07
-4.6254465e-08
2.1477697e-07
-5.3788782e-08
2.3228592e-07
-6.1768685e-08
2.5009303e-07
-7.003948e-08
2.689251e-07
-7.842646e-08
2.8988367e-07
-8.6748702e-08
3.1446064e-07
-9.4835095e-08
3.4453809e-07
-1.0254093e-07
3.8237784e-07
-1.0976497e-07
4.306068e-07
-1.1646457e-07
4.9220382e-07
-1.2266854e-07
5.7049563e-07
-1.284835e-07
6.6917303e-07
-1.3409143e-07
7.9234249e-07
-1.3973451e-07
9.4462842e-07
-1.4568508e-07
1.1313289e-06
-1.5219726e-07
1.3585886e-06
-1.5943108e-07
1.6334787e-06
-1.6731522e-07
1.9636465e-06
-1.7528193e-07
2.3559437e-06
-1.8174099e-07
2.8118228e-06
-1.831393e-07
3.3165283e-06
-1.7269358e-07
3.8092847e-06
-1.395463e-07
4.1214069e-06
-7.3814956e-08
3.8236101e-06
1.9774224e-06
-3.5762465e-12
2.2762074e-10
-1.5846315e-11
7.7103691e-10
-3.9716689e-11
1.4826544e-09
-7.8885714e-11
2.4028572e-09
-1.3804767e-10
3.5802142e-09
-2.2313927e-10
5.0726751e-09
-3.4164769e-10
6.948739e-09
-5.0297764e-10
9.288481e-09
-7.1890142e-10
1.2184267e-08
-1.0040955e-09
1.5740925e-08
-1.3767573e-09
2.0075049e-08
-1.8593097e-09
2.5313052e-08
-2.4791766e-09
3.1587502e-08
-3.2695817e-09
3.9031251e-08
-4.2702814e-09
4.7768945e-08
-5.5281628e-09
5.7905688e-08
-7.0974383e-09
6.9513065e-08
-9.0392452e-09
8.2613427e-08
-1.1420339e-08
9.7164325e-08
-1.4310478e-08
1.1304616e-07
-1.7778284e-08
1.3005728e-07
-2.1885426e-08
1.4792136e-07
-2.6679329e-08
1.6631163e-07
-3.2185069e-08