/*--------------------------------*- C++ -*----------------------------------*\
| =========                 |                                                 |
| \\      /  F ield         | OpenFOAM: The Open Source CFD Toolbox           |
|  \\    /   O peration     | Version:  4.0                                   |
|   \\  /    A nd           | Web:      www.OpenFOAM.org                      |
|    \\/     M anipulation  |                                                 |
\*---------------------------------------------------------------------------*/
FoamFile
{
    version     2.0;
    format      ascii;
    class       volScalarField;
    location    "669";
    object      rho;
}
// * * * * * * * * * * * * * * * * * * * * * * * * * * * * * * * * * * * * * //

dimensions      [1 -3 0 0 0 0 0];

internalField   nonuniform List<scalar> 
5000
(
1.1490574
1.151451
1.1540002
1.1566972
1.1595298
1.1624802
1.1655251
1.1686354
1.1717767
1.1749104
1.1779948
1.1809869
1.1838448
1.1865297
1.1890086
1.1912556
1.1932535
1.1949946
1.1964804
1.1977207
1.1987325
1.1995378
1.2001624
1.2006329
1.2009766
1.2012194
1.2013846
1.2014927
1.2015602
1.2016004
1.2016231
1.2016351
1.2016411
1.2016439
1.2016451
1.2016456
1.2016457
1.2016458
1.2016458
1.2016458
1.2016458
1.2016458
1.2016458
1.2016458
1.2016458
1.2016458
1.2016458
1.2016458
1.2016458
1.2016458
1.1392577
1.1413866
1.143666
1.1460993
1.1486882
1.1514313
1.1543241
1.157358
1.1605189
1.163787
1.1671357
1.1705315
1.1739342
1.1772972
1.1805702
1.1837008
1.1866384
1.1893376
1.1917617
1.1938861
1.1956999
1.1972063
1.1984216
1.1993725
1.200093
1.2006207
1.2009935
1.2012468
1.201412
1.2015149
1.2015759
1.2016102
1.2016283
1.2016373
1.2016415
1.2016433
1.201644
1.2016442
1.2016443
1.2016443
1.2016443
1.2016443
1.2016443
1.2016443
1.2016443
1.2016443
1.2016443
1.2016443
1.2016443
1.2016443
1.1350659
1.1370797
1.139237
1.1415423
1.1439993
1.1466098
1.1493735
1.1522874
1.1553446
1.1585337
1.1618381
1.1652343
1.1686923
1.1721744
1.1756362
1.1790273
1.1822942
1.1853827
1.1882423
1.1908304
1.1931156
1.1950808
1.1967242
1.1980584
1.1991085
1.1999083
1.2004967
1.2009139
1.2011982
1.2013837
1.2014993
1.2015676
1.2016057
1.2016257
1.2016355
1.2016399
1.2016418
1.2016425
1.2016427
1.2016428
1.2016428
1.2016428
1.2016428
1.2016428
1.2016428
1.2016428
1.2016428
1.2016428
1.2016428
1.2016427
1.1326353
1.1345825
1.1366685
1.1388983
1.1412761
1.1438046
1.1464851
1.1493166
1.1522951
1.1554131
1.1586584
1.1620135
1.1654543
1.1689501
1.1724624
1.1759463
1.179351
1.1826223
1.1857063
1.1885527
1.1911197
1.1933774
1.1953105
1.1969194
1.198219
1.1992362
1.2000063
1.2005692
1.2009654
1.2012332
1.2014064
1.201513
1.2015752
1.2016094
1.201627
1.2016354
1.2016391
1.2016405
1.2016411
1.2016413
1.2016413
1.2016413
1.2016413
1.2016413
1.2016413
1.2016413
1.2016413
1.2016413
1.2016413
1.2016412
1.1308949
1.1327945
1.1348293
1.1370046
1.1393247
1.1417928
1.1444109
1.147179
1.1500947
1.1531526
1.1563432
1.1596527
1.1630612
1.1665425
1.1700636
1.1735841
1.1770573
1.1804313
1.1836522
1.1866669
1.1894278
1.1918969
1.1940493
1.1958749
1.1973794
1.1985822
1.1995136
1.200211
1.2007148
1.201065
1.2012984
1.2014469
1.2015368
1.2015881
1.2016156
1.2016293
1.2016356
1.2016383
1.2016393
1.2016397
1.2016398
1.2016398
1.2016398
1.2016398
1.2016398
1.2016398
1.2016398
1.2016398
1.2016398
1.2016397
1.1295714
1.1314347
1.1334307
1.1355646
1.1378407
1.1402626
1.1428326
1.1455514
1.1484176
1.151427
1.154572
1.1578409
1.1612167
1.1646768
1.1681917
1.171725
1.1752334
1.1786682
1.1819764
1.1851048
1.1880027
1.1906272
1.1929465
1.1949427
1.1966137
1.1979719
1.1990424
1.1998593
1.2004615
1.2008895
1.2011818
1.201373
1.2014921
1.2015624
1.2016014
1.2016217
1.2016314
1.2016357
1.2016374
1.2016381
1.2016383
1.2016383
1.2016383
1.2016383
1.2016383
1.2016383
1.2016383
1.2016383
1.2016383
1.2016381
1.1284987
1.1303327
1.1322972
1.1343975
1.1366379
1.1390221
1.1415527
1.1442309
1.1470558
1.1500242
1.1531298
1.1563625
1.1597076
1.1631447
1.1666475
1.1701825
1.1737098
1.1771832
1.1805516
1.1837621
1.186763
1.1895079
1.1919602
1.1940961
1.1959068
1.1973986
1.1985914
1.1995157
1.2002086
1.2007101
1.2010595
1.2012931
1.2014423
1.2015328
1.2015847
1.2016125
1.2016263
1.2016327
1.2016354
1.2016364
1.2016367
1.2016368
1.2016368
1.2016369
1.2016369
1.2016369
1.2016368
1.2016368
1.2016367
1.2016366
1.1276035
1.129413
1.1313513
1.1334234
1.135634
1.1379867
1.1404843
1.1431282
1.1459181
1.1488515
1.151923
1.1551237
1.1584404
1.161855
1.1653431
1.1688742
1.1724109
1.1759092
1.1793203
1.182592
1.1856721
1.1885126
1.191073
1.193325
1.1952543
1.1968618
1.1981627
1.1991837
1.1999598
1.2005301
1.2009341
1.2012093
1.2013887
1.2015001
1.2015656
1.2016017
1.2016204
1.2016292
1.2016331
1.2016346
1.2016351
1.2016353
1.2016354
1.2016354
1.2016354
1.2016354
1.2016353
1.2016353
1.2016352
1.2016351
1.1268357
1.1286243
1.1305401
1.1325882
1.1347731
1.1370987
1.1395679
1.1421822
1.1449417
1.1478445
1.1508859
1.1540579
1.1573488
1.1607417
1.1642145
1.1677386
1.1712789
1.1747937
1.178236
1.1815547
1.1846978
1.1876159
1.1902663
1.1926167
1.1946483
1.1963575
1.1977548
1.1988636
1.1997164
1.2003511
1.2008071
1.2011226
1.201332
1.2014647
1.2015444
1.2015896
1.2016135
1.2016253
1.2016306
1.2016327
1.2016335
1.2016338
1.2016338
1.2016339
1.2016339
1.2016339
1.2016338
1.2016338
1.2016337
1.2016336
1.1261653
1.1279356
1.1298317
1.1318589
1.1340214
1.1363233
1.1387676
1.1413559
1.1440887
1.1469644
1.1499789
1.1531252
1.1563923
1.1597648
1.1632221
1.1667375
1.1702778
1.1738034
1.1772689
1.1806244
1.1838185
1.1868011
1.1895274
1.1919623
1.1940834
1.1958825
1.1973666
1.1985554
1.1994792
1.2001742
1.2006798
1.2010343
1.2012731
1.2014271
1.2015215
1.2015762
1.2016059
1.2016208
1.2016278
1.2016307
1.2016318
1.2016322
1.2016323
1.2016324
1.2016324
1.2016324
1.2016323
1.2016323
1.2016322
1.2016321
1.125571
1.1273251
1.1292039
1.1312124
1.1333551
1.135636
1.138058
1.1406233
1.1433323
1.1461837
1.149174
1.1522968
1.155542
1.1588953
1.1623374
1.1658432
1.1693812
1.1729136
1.1763966
1.1797816
1.1830177
1.1860544
1.1888458
1.1913543
1.1935542
1.1954339
1.1969965
1.1982587
1.1992483
1.2000001
1.2005528
1.2009448
1.2012125
1.2013877
1.201497
1.2015615
1.2015974
1.2016159
1.2016248
1.2016286
1.2016301
1.2016307
1.2016308
1.2016309
1.2016309
1.2016309
1.2016308
1.2016308
1.2016307
1.2016305
1.1250379
1.1267774
1.1286406
1.1306324
1.1327574
1.1350194
1.1374216
1.139966
1.1426535
1.145483
1.1484513
1.1515525
1.1547775
1.1581128
1.1615402
1.165036
1.1685701
1.1721065
1.1756028
1.1790116
1.1822827
1.1853656
1.1882133
1.1907865
1.1930566
1.1950088
1.196643
1.197973
1.1990239
1.1998291
1.2004266
1.2008549
1.2011508
1.2013469
1.2014711
1.2015458
1.2015881
1.2016105
1.2016215
1.2016264
1.2016284
1.2016291
1.2016293
1.2016294
1.2016294
1.2016294
1.2016293
1.2016293
1.2016291
1.201629
1.1245549
1.1262813
1.1281304
1.1301071
1.132216
1.1344609
1.136845
1.1393706
1.1420384
1.1448479
1.1477961
1.1508776
1.1540837
1.157402
1.1608152
1.1643008
1.1678301
1.1713684
1.1748747
1.178303
1.1816036
1.1847263
1.1876234
1.1902538
1.1925869
1.1946049
1.1963048
1.1976974
1.1988057
1.1996614
1.2003017
1.2007648
1.2010881
1.2013049
1.2014441
1.2015291
1.2015782
1.2016046
1.2016179
1.201624
1.2016265
1.2016275
1.2016278
1.2016279
1.2016279
1.2016279
1.2016278
1.2016277
1.2016276
1.2016275
1.1241138
1.1258282
1.1276645
1.1296274
1.1317215
1.1339508
1.1363184
1.1388267
1.1414766
1.1442677
1.1471973
1.1502605
1.1534491
1.1567514
1.1601509
1.1636263
1.16715
1.1706887
1.1742027
1.177647
1.1809728
1.18413
1.1870706
1.1897522
1.1921422
1.1942203
1.1959806
1.1974314
1.1985935
1.1994971
1.2001781
1.2006749
1.2010248
1.201262
1.2014162
1.2015116
1.2015675
1.2015983
1.201614
1.2016214
1.2016246
1.2016258
1.2016262
1.2016264
1.2016264
1.2016264
1.2016263
1.2016262
1.2016261
1.201626
1.1237082
1.1254116
1.1272359
1.1291862
1.1312668
1.1334817
1.1358341
1.1383265
1.1409599
1.1437339
1.1466463
1.1496924
1.1528647
1.1561518
1.1595383
1.1630035
1.1665212
1.1700592
1.1735789
1.1770364
1.1803839
1.1835714
1.1865506
1.1892782
1.1917198
1.193853
1.1956693
1.1971744
1.1983872
1.199336
1.2000561
1.2005853
1.2009612
1.2012184
1.2013873
1.2014933
1.2015563
1.2015915
1.2016099
1.2016187
1.2016226
1.2016241
1.2016247
1.2016248
1.2016249
1.2016249
1.2016248
1.2016247
1.2016246
1.2016245
1.1233329
1.1250261
1.1268395
1.128778
1.1308461
1.1330477
1.1353861
1.1378637
1.1404818
1.14324
1.1461364
1.1491666
1.1523234
1.1555962
1.1589701
1.1624254
1.1659368
1.1694731
1.172997
1.1764656
1.1798317
1.183046
1.1860597
1.188829
1.1913177
1.1935015
1.1953698
1.1969259
1.1981864
1.1991783
1.1999358
1.2004963
1.2008973
1.2011742
1.2013578
1.2014743
1.2015444
1.2015843
1.2016055
1.2016159
1.2016205
1.2016224
1.2016231
1.2016233
1.2016234
1.2016233
1.2016233
1.2016232
1.2016231
1.201623
1.1229839
1.1246676
1.1264709
1.1283985
1.1304549
1.1326442
1.1349695
1.1374334
1.1400371
1.1427806
1.145662
1.1486773
1.1518196
1.1550787
1.1584406
1.1618861
1.165391
1.1689251
1.1724519
1.1759298
1.1793121
1.18255
1.1855949
1.1884019
1.1909339
1.1931646
1.1950813
1.1966852
1.1979908
1.1990238
1.1998171
1.2004078
1.2008334
1.2011295
1.2013277
1.2014546
1.2015321
1.2015767
1.2016008
1.2016129
1.2016184
1.2016207
1.2016215
1.2016218
1.2016219
1.2016218
1.2016218
1.2016217
1.2016216
1.2016215
1.1226579
1.1243328
1.1261265
1.1280439
1.1300895
1.1322672
1.1345804
1.1370314
1.1396217
1.1423514
1.1452187
1.1482199
1.1513485
1.1545947
1.157945
1.1613811
1.1648794
1.1684106
1.1719394
1.175425
1.1788215
1.1820806
1.1851535
1.187995
1.1905668
1.192841
1.194803
1.1964518
1.1978004
1.1988725
1.1997002
1.2003201
1.2007696
1.2010845
1.201297
1.2014345
1.2015193
1.2015688
1.2015959
1.2016097
1.2016162
1.2016189
1.2016199
1.2016203
1.2016203
1.2016203
1.2016203
1.2016202
1.2016201
1.20162
1.1223521
1.1240187
1.1258036
1.1277115
1.1297469
1.1319138
1.1342154
1.1366544
1.1392322
1.1419488
1.1448029
1.1477908
1.1509064
1.1541403
1.1574795
1.1609063
1.1643979
1.1679259
1.171456
1.1749479
1.1783569
1.1816349
1.1847333
1.1876064
1.190215
1.1925297
1.1945341
1.1962255
1.1976147
1.1987242
1.1995851
1.2002332
1.2007059
1.2010393
1.2012659
1.2014138
1.201506
1.2015605
1.2015907
1.2016064
1.2016138
1.2016171
1.2016183
1.2016187
1.2016188
1.2016188
1.2016188
1.2016187
1.2016186
1.2016185
1.1220644
1.1237232
1.1254996
1.1273986
1.1294244
1.1315811
1.133872
1.1362996
1.1388655
1.1415699
1.1444115
1.1473868
1.15049
1.1537122
1.1570407
1.1604584
1.1639434
1.1674679
1.1709985
1.1744958
1.1779158
1.1812107
1.1843324
1.1872345
1.1898772
1.1922298
1.1942741
1.1960057
1.1974336
1.198579
1.1994717
1.2001471
1.2006424
1.2009939
1.2012345
1.2013927
1.2014923
1.2015518
1.2015853
1.2016029
1.2016114
1.2016152
1.2016167
1.2016172
1.2016173
1.2016173
1.2016173
1.2016172
1.2016171
1.201617
1.1217927
1.1234441
1.1252127
1.1271032
1.1291199
1.131267
1.1335477
1.1359646
1.1385193
1.1412121
1.1440418
1.1470052
1.1500967
1.1533076
1.1566258
1.1600348
1.1635131
1.1670339
1.1705645
1.1740663
1.1774958
1.1808062
1.183949
1.1868781
1.1895525
1.1919405
1.1940224
1.195792
1.1972569
1.1984366
1.19936
1.2000619
1.2005792
1.2009484
1.2012027
1.2013713
1.2014783
1.2015429
1.2015797
1.2015993
1.2016089
1.2016133
1.201615
1.2016156
1.2016158
1.2016158
1.2016158
1.2016157
1.2016155
1.2016155
1.1215354
1.1231799
1.124941
1.1268235
1.1288317
1.1309697
1.1332407
1.1356475
1.1381915
1.1408733
1.1436918
1.1466438
1.149724
1.1529242
1.1562325
1.1596329
1.1631047
1.1666216
1.1701517
1.1736572
1.1770953
1.1804195
1.1835818
1.1865357
1.1892397
1.191661
1.1937784
1.1955842
1.1970843
1.198297
1.19925
1.1999776
1.2005164
1.2009029
1.2011708
1.2013495
1.2014639
1.2015336
1.2015738
1.2015955
1.2016063
1.2016113
1.2016133
1.2016141
1.2016143
1.2016143
1.2016142
1.2016142
1.201614
1.201614
1.1212912
1.1229291
1.1246831
1.126558
1.1285581
1.1306874
1.1329493
1.1353464
1.1378804
1.1405517
1.1433594
1.1463006
1.1493701
1.15256
1.1558587
1.1592509
1.1627162
1.166229
1.1697582
1.1732667
1.1767124
1.1800493
1.1832295
1.1862065
1.1889381
1.1913907
1.1935417
1.1953819
1.1969157
1.1981601
1.1991418
1.1998942
1.2004539
1.2008574
1.2011386
1.2013275
1.2014492
1.2015241
1.2015677
1.2015915
1.2016036
1.2016092
1.2016116
1.2016125
1.2016128
1.2016128
1.2016127
1.2016126
1.2016125
1.2016125
1.1210588
1.1226905
1.1244377
1.1263053
1.1282977
1.1304188
1.132672
1.1350599
1.1375843
1.1402457
1.1430432
1.145974
1.1490332
1.1522132
1.1555027
1.1588868
1.1623457
1.1658544
1.1693824
1.1728934
1.1763458
1.1796942
1.1828909
1.1858893
1.1886469
1.191129
1.1933119
1.1951849
1.196751
1.1980258
1.1990351
1.1998118
1.2003919
1.200812
1.2011063
1.2013052
1.2014343
1.2015144
1.2015614
1.2015875
1.2016008
1.2016072
1.2016099
1.2016109
1.2016112
1.2016113
1.2016112
1.2016111
1.201611
1.201611
1.1208373
1.1224629
1.1242037
1.1260644
1.1280495
1.1301627
1.1324076
1.1347868
1.137302
1.1399539
1.1427415
1.1456625
1.1487119
1.1518823
1.1551629
1.1585392
1.1619917
1.1654963
1.1690228
1.1725357
1.1759942
1.179353
1.182565
1.1855835
1.1883654
1.1908753
1.1930885
1.1949928
1.1965899
1.197894
1.1989301
1.1997303
1.2003303
1.2007667
1.201074
1.2012827
1.2014191
1.2015044
1.201555
1.2015832
1.201598
1.201605
1.2016081
1.2016093
1.2016097
1.2016098
1.2016097
1.2016096
1.2016095
1.2016095
1.1206256
1.1222455
1.1239802
1.1258343
1.1278123
1.1299181
1.1321551
1.1345259
1.1370323
1.139675
1.1424534
1.1453648
1.1484048
1.151566
1.154838
1.1582066
1.161653
1.1651533
1.1686781
1.1721926
1.1756563
1.1790248
1.182251
1.1852881
1.1880929
1.1906293
1.1928712
1.1948054
1.1964322
1.1977647
1.1988267
1.1996497
1.2002692
1.2007216
1.2010415
1.2012601
1.2014037
1.2014942
1.2015483
1.2015789
1.201595
1.2016028
1.2016063
1.2016077
1.2016081
1.2016082
1.2016082
1.2016081
1.201608
1.201608
1.1204229
1.1220374
1.1237662
1.125614
1.1275853
1.1296839
1.1319133
1.1342761
1.1367741
1.1394082
1.1421775
1.1450798
1.1481107
1.1512631
1.1545268
1.1578879
1.1613282
1.1648242
1.1683472
1.1718628
1.1753313
1.1787085
1.1819479
1.1850026
1.187829
1.1903903
1.1926597
1.1946225
1.1962779
1.1976378
1.1987249
1.1995701
1.2002086
1.2006766
1.201009
1.2012373
1.2013882
1.2014838
1.2015415
1.2015744
1.201592
1.2016006
1.2016045
1.2016061
1.2016066
1.2016067
1.2016067
1.2016066
1.2016065
1.2016065
1.1202286
1.1218378
1.123561
1.1254029
1.1273677
1.1294595
1.1316815
1.1340367
1.1365267
1.1391523
1.141913
1.1448066
1.1478287
1.1509725
1.1542282
1.1575821
1.1610163
1.1645081
1.1680291
1.1715455
1.1750182
1.1784035
1.1816551
1.1847262
1.187573
1.1901581
1.1924536
1.1944439
1.1961268
1.1975131
1.1986246
1.1994914
1.2001484
1.2006318
1.2009766
1.2012143
1.2013724
1.2014732
1.2015345
1.2015698
1.2015888
1.2015983
1.2016026
1.2016044
1.201605
1.2016052
1.2016052
1.2016051
1.201605
1.201605
1.1200421
1.1216462
1.123364
1.1252001
1.1271587
1.1292439
1.131459
1.1338067
1.136289
1.1389066
1.141659
1.1445441
1.1475578
1.1506934
1.1539412
1.1572881
1.1607164
1.1642039
1.1677227
1.1712397
1.1747161
1.1781089
1.1813719
1.1844585
1.1873246
1.1899323
1.1922528
1.1942694
1.1959788
1.1973906
1.1985258
1.1994137
1.2000888
1.2005872
1.2009441
1.2011913
1.2013565
1.2014625
1.2015274
1.2015651
1.2015856
1.201596
1.2016008
1.2016028
1.2016035
1.2016037
1.2016037
1.2016036
1.2016035
1.2016035
1.1198627
1.121462
1.1231746
1.1250051
1.1269578
1.1290366
1.131245
1.1335857
1.1360605
1.1386703
1.1414147
1.1442917
1.1472973
1.1504249
1.1536651
1.1570051
1.1604277
1.1639109
1.1674274
1.1709447
1.1744244
1.177824
1.1810977
1.1841989
1.1870833
1.1897124
1.1920568
1.1940988
1.1958337
1.1972702
1.1984284
1.1993368
1.2000297
1.2005429
1.2009117
1.2011682
1.2013405
1.2014516
1.2015201
1.2015602
1.2015823
1.2015936
1.2015989
1.2016011
1.2016019
1.2016022
1.2016022
1.2016021
1.201602
1.201602
1.1196899
1.1212846
1.1229922
1.1248173
1.1267643
1.128837
1.131039
1.1333728
1.1358404
1.1384428
1.1411795
1.1440487
1.1470463
1.1501662
1.1533991
1.1567324
1.1601493
1.1636282
1.1671424
1.1706597
1.1741424
1.1775483
1.180832
1.1839469
1.1868487
1.1894983
1.1918656
1.1939318
1.1956914
1.1971519
1.1983324
1.1992609
1.199971
1.2004988
1.2008793
1.2011451
1.2013243
1.2014406
1.2015127
1.2015553
1.2015789
1.2015911
1.2015969
1.2015994
1.2016003
1.2016006
1.2016007
1.2016006
1.2016005
1.2016005
1.1195233
1.1211135
1.1228163
1.1246363
1.1265777
1.1286446
1.1308403
1.1331675
1.1356283
1.1382235
1.1409528
1.1438143
1.1468043
1.1499167
1.1531425
1.1564693
1.1598806
1.1633553
1.166867
1.1703842
1.1738695
1.1772812
1.1805742
1.1837021
1.1866204
1.1892896
1.1916788
1.1937685
1.1955519
1.1970356
1.1982378
1.1991858
1.1999129
1.2004549
1.200847
1.2011219
1.2013081
1.2014294
1.2015052
1.2015502
1.2015754
1.2015886
1.2015949
1.2015977
1.2015988
1.2015991
1.2015991
1.2015991
1.201599
1.201599
1.1193625
1.1209484
1.1226465
1.1244615
1.1263977
1.1284589
1.1306486
1.1329694
1.1354235
1.1380117
1.1407338
1.1435881
1.1465707
1.1496759
1.1528947
1.1562151
1.1596209
1.1630914
1.1666007
1.1701174
1.1736051
1.1770222
1.180324
1.1834641
1.1863981
1.189086
1.1914963
1.1936085
1.1954149
1.1969212
1.1981445
1.1991116
1.1998554
1.2004113
1.2008148
1.2010987
1.2012917
1.2014182
1.2014976
1.2015451
1.2015719
1.201586
1.2015929
1.201596
1.2015972
1.2015976
1.2015976
1.2015976
1.2015975
1.2015975
1.1192072
1.1207889
1.1224825
1.1242927
1.1262237
1.1282794
1.1304633
1.132778
1.1352256
1.1378071
1.1405223
1.1433694
1.1463449
1.149443
1.1526551
1.1559693
1.1593697
1.162836
1.1663427
1.169859
1.1733487
1.1767708
1.1800808
1.1832326
1.1861815
1.1888873
1.1913178
1.1934518
1.1952805
1.1968086
1.1980525
1.1990383
1.1997983
1.200368
1.2007827
1.2010754
1.2012753
1.2014068
1.2014899
1.2015398
1.2015683
1.2015834
1.2015909
1.2015942
1.2015956
1.201596
1.2015961
1.2015961
1.201596
1.201596
1.1190568
1.1206345
1.1223238
1.1241293
1.1260554
1.1281058
1.130284
1.1325929
1.1350342
1.1376092
1.1403177
1.1431579
1.1461265
1.1492177
1.1524233
1.1557314
1.1591265
1.1625887
1.1660928
1.1696085
1.1730999
1.1765267
1.1798444
1.1830072
1.1859703
1.1886933
1.1911432
1.1932981
1.1951485
1.1966978
1.1979617
1.1989657
1.1997417
1.2003249
1.2007507
1.2010522
1.2012588
1.2013953
1.201482
1.2015345
1.2015646
1.2015808
1.2015888
1.2015925
1.201594
1.2015945
1.2015946
1.2015946
1.2015945
1.2015945
1.1189113
1.120485
1.1221701
1.1239712
1.1258924
1.1279377
1.1301105
1.1324136
1.1348489
1.1374176
1.1401195
1.1429531
1.1459149
1.1489995
1.1521986
1.1555008
1.1588908
1.1623489
1.1658503
1.1693653
1.1728583
1.1762893
1.1796143
1.1827876
1.1857643
1.1885037
1.1909724
1.1931475
1.1950188
1.1965887
1.1978722
1.198894
1.1996857
1.2002821
1.2007188
1.2010289
1.2012422
1.2013838
1.2014741
1.2015291
1.2015608
1.2015781
1.2015867
1.2015907
1.2015924
1.2015929
1.2015931
1.201593
1.201593
1.201593
1.1187702
1.1203402
1.1220212
1.1238179
1.1257344
1.1277748
1.1299423
1.1322398
1.1346693
1.1372319
1.1399274
1.1427545
1.1457099
1.148788
1.1519809
1.1552773
1.1586622
1.1621162
1.165615
1.169129
1.1726234
1.1760584
1.1793902
1.1825735
1.1855632
1.1883183
1.190805
1.1929998
1.1948913
1.1964813
1.1977839
1.1988231
1.1996301
1.2002396
1.200687
1.2010057
1.2012256
1.2013722
1.2014661
1.2015236
1.201557
1.2015753
1.2015846
1.2015889
1.2015907
1.2015914
1.2015915
1.2015915
1.2015915
1.2015915
1.1186334
1.1201996
1.1218767
1.1236692
1.1255812
1.1276168
1.1297792
1.1320713
1.1344951
1.1370517
1.1397411
1.1425619
1.1455109
1.1485828
1.1517696
1.1550603
1.1584402
1.1618902
1.1653863
1.1688994
1.1723949
1.1758335
1.1791719
1.1823646
1.1853667
1.188137
1.1906411
1.1928548
1.194766
1.1963756
1.1976968
1.198753
1.199575
1.2001974
1.2006553
1.2009825
1.201209
1.2013605
1.201458
1.201518
1.2015531
1.2015725
1.2015824
1.2015871
1.2015891
1.2015898
1.20159
1.20159
1.20159
1.20159
1.1185005
1.1200632
1.1217365
1.1235248
1.1254325
1.1274633
1.1296208
1.1319077
1.1343259
1.1368768
1.1395603
1.142375
1.1453178
1.1483835
1.1515643
1.1548495
1.1582245
1.1616705
1.1651639
1.168676
1.1721725
1.1756145
1.178959
1.1821607
1.1851747
1.1879596
1.1904805
1.1927125
1.1946428
1.1962714
1.1976107
1.1986837
1.1995204
1.2001554
1.2006238
1.2009593
1.2011923
1.2013487
1.2014498
1.2015123
1.2015492
1.2015696
1.2015802
1.2015853
1.2015875
1.2015883
1.2015885
1.2015885
1.2015885
1.2015885
1.1183714
1.1199307
1.1216002
1.1233846
1.125288
1.1273143
1.1294669
1.1317487
1.1341616
1.1367069
1.1393846
1.1421933
1.1451301
1.1481898
1.1513649
1.1546446
1.1580148
1.1614569
1.1649476
1.1684585
1.1719559
1.175401
1.1787513
1.1819616
1.184987
1.1877858
1.1903229
1.1925727
1.1945215
1.1961687
1.1975258
1.1986151
1.1994663
1.2001137
1.2005924
1.2009362
1.2011756
1.2013369
1.2014415
1.2015066
1.2015452
1.2015667
1.201578
1.2015834
1.2015858
1.2015867
1.201587
1.201587
1.201587
1.2015869
1.1182459
1.1198018
1.1214677
1.1232482
1.1251474
1.1271694
1.1293173
1.1315941
1.1340018
1.1365417
1.1392137
1.1420166
1.1449475
1.1480015
1.1511709
1.1544453
1.1578108
1.161249
1.164737
1.1682467
1.1717447
1.1751928
1.1785485
1.181767
1.1848033
1.1876157
1.1901684
1.1924354
1.1944023
1.1960674
1.1974419
1.1985472
1.1994127
1.2000723
1.2005611
1.200913
1.2011589
1.201325
1.2014332
1.2015008
1.2015411
1.2015638
1.2015757
1.2015816
1.2015841
1.2015851
1.2015854
1.2015855
1.2015855
1.2015854
1.1181237
1.1196763
1.1213388
1.1231155
1.1250107
1.1270284
1.1291718
1.1314437
1.1338464
1.1363809
1.1390474
1.1418447
1.1447699
1.1478182
1.1509821
1.1542513
1.1576121
1.1610465
1.1645317
1.1680402
1.1715388
1.1749896
1.1783505
1.1815767
1.1846236
1.1874489
1.1900168
1.1923005
1.1942848
1.1959676
1.1973591
1.19848
1.1993595
1.2000311
1.2005299
1.20089
1.2011421
1.201313
1.2014248
1.201495
1.201537
1.2015608
1.2015734
1.2015797
1.2015824
1.2015835
1.2015839
1.201584
1.201584
1.2015839
1.1180048
1.1195542
1.1212132
1.1229863
1.1248776
1.1268911
1.12903
1.1312973
1.133695
1.1362244
1.1388856
1.1416774
1.144597
1.1476397
1.1507982
1.1540623
1.1574186
1.1608491
1.1643316
1.1678388
1.1713378
1.1747911
1.1781569
1.1813906
1.1844476
1.1872854
1.1898679
1.1921678
1.1941692
1.1958692
1.1972772
1.1984136
1.1993068
1.1999902
1.2004989
1.2008669
1.2011253
1.201301
1.2014163
1.201489
1.2015328
1.2015578
1.2015711
1.2015778
1.2015808
1.201582
1.2015824
1.2015825
1.2015825
1.2015824
1.1178889
1.1194352
1.1210909
1.1228604
1.1247479
1.1267573
1.1288919
1.1311547
1.1335476
1.1360719
1.1387279
1.1415143
1.1444285
1.1474657
1.1506189
1.1538781
1.1572299
1.1606567
1.1641365
1.1676422
1.1711416
1.1745972
1.1779676
1.1812085
1.1842751
1.1871251
1.1897218
1.1920374
1.1940554
1.1957721
1.1971964
1.1983478
1.1992545
1.1999496
1.200468
1.200844
1.2011086
1.201289
1.2014078
1.201483
1.2015286
1.2015547
1.2015688
1.2015758
1.2015791
1.2015804
1.2015808
1.2015809
1.2015809
1.2015809
1.1177759
1.1193192
1.1209716
1.1227377
1.1246215
1.1266269
1.1287573
1.1310156
1.1334038
1.1359233
1.1385741
1.1413553
1.1442642
1.1472962
1.1504442
1.1536985
1.1570458
1.1604689
1.163946
1.1674503
1.1709499
1.1744077
1.1777825
1.1810302
1.1841061
1.1869678
1.1895782
1.191909
1.1939433
1.1956764
1.1971165
1.1982827
1.1992026
1.1999092
1.2004373
1.200821
1.2010918
1.2012769
1.2013993
1.201477
1.2015243
1.2015516
1.2015664
1.2015739
1.2015773
1.2015788
1.2015793
1.2015794
1.2015794
1.2015794
1.1176657
1.1192061
1.1208553
1.1226179
1.1244981
1.1264997
1.128626
1.1308799
1.1332636
1.1357783
1.1384242
1.1412003
1.144104
1.1471307
1.1502737
1.1535232
1.1568662
1.1602856
1.16376
1.1672628
1.1707625
1.1742223
1.1776013
1.1808556
1.1839405
1.1868134
1.1894371
1.1917828
1.1938327
1.1955819
1.1970375
1.1982182
1.1991512
1.1998691
1.2004067
1.2007981
1.201075
1.2012648
1.2013906
1.2014709
1.2015199
1.2015484
1.201564
1.2015719
1.2015756
1.2015772
1.2015777
1.2015779
1.2015779
1.2015779
1.1175581
1.1190956
1.1207418
1.1225011
1.1243777
1.1263755
1.1284979
1.1307476
1.1331267
1.1356367
1.1382778
1.1410489
1.1439475
1.1469692
1.1501072
1.153352
1.1566907
1.1601066
1.1635782
1.1670796
1.1705793
1.174041
1.1774239
1.1806845
1.183778
1.1866618
1.1892984
1.1916585
1.1937238
1.1954886
1.1969594
1.1981544
1.1991002
1.1998293
1.2003762
1.2007753
1.2010582
1.2012527
1.201382
1.2014647
1.2015155
1.2015452
1.2015615
1.2015699
1.2015739
1.2015756
1.2015762
1.2015764
1.2015764
1.2015764
1.117453
1.1189877
1.1206309
1.122387
1.1242602
1.1262543
1.1283727
1.1306183
1.1329931
1.1354985
1.1381349
1.1409011
1.1437948
1.1468115
1.1499447
1.1531848
1.1565193
1.1599316
1.1634006
1.1669004
1.1704001
1.1738635
1.1772502
1.1805167
1.1836185
1.1865129
1.189162
1.1915361
1.1936165
1.1953965
1.1968822
1.1980912
1.1990497
1.1997897
1.2003459
1.2007525
1.2010414
1.2012405
1.2013732
1.2014585
1.2015111
1.2015419
1.201559
1.2015679
1.2015721
1.2015739
1.2015746
1.2015749
1.2015749
1.2015749
1.1173504
1.1188823
1.1205226
1.1222755
1.1241453
1.1261358
1.1282504
1.130492
1.1328625
1.1353635
1.1379952
1.1407567
1.1436455
1.1466574
1.1497858
1.1530214
1.1563518
1.1597605
1.1632268
1.1667251
1.1702246
1.1736896
1.1770799
1.1803522
1.183462
1.1863666
1.1890278
1.1914156
1.1935106
1.1953055
1.1968059
1.1980286
1.1989995
1.1997503
1.2003157
1.2007298
1.2010246
1.2012283
1.2013645
1.2014523
1.2015066
1.2015386
1.2015565
1.2015658
1.2015703
1.2015723
1.2015731
1.2015733
1.2015734
1.2015734
1.11725
1.1187793
1.1204167
1.1221665
1.124033
1.1260201
1.1281309
1.1303685
1.1327349
1.1352315
1.1378587
1.1406155
1.1434996
1.1465067
1.1496305
1.1528617
1.156188
1.1595932
1.1630568
1.1665535
1.1700528
1.1735193
1.176913
1.1801908
1.1833083
1.1862228
1.1888958
1.1912969
1.1934061
1.1952157
1.1967304
1.1979666
1.1989497
1.1997113
1.2002856
1.2007072
1.2010079
1.2012161
1.2013557
1.201446
1.2015021
1.2015353
1.201554
1.2015638
1.2015686
1.2015707
1.2015715
1.2015718
1.2015719
1.2015719
1.1171519
1.1186786
1.1203131
1.1220599
1.1239232
1.1259068
1.128014
1.1302478
1.1326101
1.1351025
1.1377252
1.1404775
1.1433569
1.1463594
1.1494785
1.1527054
1.1560277
1.1594294
1.1628904
1.1663855
1.1698845
1.1733523
1.1767493
1.1800324
1.1831574
1.1860814
1.1887659
1.19118
1.1933031
1.195127
1.1966557
1.1979052
1.1989003
1.1996724
1.2002557
1.2006846
1.2009911
1.2012038
1.2013468
1.2014396
1.2014975
1.201532
1.2015514
1.2015617
1.2015668
1.201569
1.20157
1.2015703
1.2015704
1.2015704
1.1170559
1.11858
1.1202118
1.1219557
1.1238158
1.125796
1.1278997
1.1301296
1.132488
1.1349762
1.1375946
1.1403424
1.1432173
1.1462152
1.1493299
1.1525524
1.1558708
1.1592691
1.1627275
1.1662209
1.1697196
1.1731887
1.1765887
1.1798769
1.1830091
1.1859424
1.188638
1.1910647
1.1932015
1.1950393
1.1965819
1.1978443
1.1988513
1.1996338
1.2002259
1.200662
1.2009744
1.2011916
1.201338
1.2014333
1.2014929
1.2015286
1.2015488
1.2015596
1.201565
1.2015674
1.2015684
1.2015687
1.2015688
1.2015689
1.1169619
1.1184835
1.1201126
1.1218536
1.1237106
1.1256876
1.1277878
1.130014
1.1323685
1.1348526
1.1374668
1.1402102
1.1430806
1.146074
1.1491843
1.1524026
1.1557171
1.1591121
1.1625678
1.1660596
1.1695579
1.1730281
1.176431
1.1797241
1.1828634
1.1858057
1.1885121
1.1909511
1.1931012
1.1949527
1.1965088
1.197784
1.1988027
1.1995955
1.2001963
1.2006395
1.2009576
1.2011793
1.2013291
1.2014268
1.2014882
1.2015251
1.2015462
1.2015575
1.2015631
1.2015657
1.2015668
1.2015672
1.2015673
1.2015674
1.1168698
1.1183889
1.1200154
1.1217536
1.1236077
1.1255814
1.1276781
1.1299008
1.1322514
1.1347316
1.1373416
1.1400807
1.1429467
1.1459358
1.1490417
1.1522559
1.1555666
1.1589583
1.1624114
1.1659015
1.1693994
1.1728706
1.1762763
1.1795741
1.1827201
1.1856711
1.1883881
1.1908391
1.1930021
1.1948671
1.1964364
1.1977243
1.1987545
1.1995573
1.2001668
1.2006171
1.2009409
1.201167
1.2013201
1.2014203
1.2014835
1.2015216
1.2015435
1.2015553
1.2015613
1.2015641
1.2015652
1.2015657
1.2015658
1.2015658
1.1167796
1.1182964
1.1199202
1.1216557
1.1235068
1.1254774
1.1275708
1.1297898
1.1321368
1.134613
1.1372189
1.1399539
1.1428156
1.1458004
1.1489021
1.1521122
1.1554191
1.1588075
1.162258
1.1657465
1.1692438
1.172716
1.1761244
1.1794267
1.1825792
1.1855387
1.1882659
1.1907286
1.1929043
1.1947824
1.1963648
1.1976651
1.1987066
1.1995194
1.2001374
1.2005948
1.2009242
1.2011547
1.2013111
1.2014138
1.2014788
1.2015181
1.2015408
1.2015532
1.2015594
1.2015624
1.2015637
1.2015641
1.2015643
1.2015643
1.1166912
1.1182056
1.119827
1.1215597
1.1234079
1.1253754
1.1274655
1.1296811
1.1320244
1.1344968
1.1370987
1.1398295
1.1426871
1.1456676
1.1487652
1.1519713
1.1552744
1.1586596
1.1621075
1.1655943
1.1690912
1.1725642
1.1759751
1.1792818
1.1824405
1.1854083
1.1881455
1.1906196
1.1928078
1.1946988
1.1962939
1.1976064
1.198659
1.1994818
1.2001081
1.2005725
1.2009075
1.2011424
1.2013021
1.2014073
1.201474
1.2015146
1.2015381
1.201551
1.2015576
1.2015607
1.2015621
1.2015626
1.2015628
1.2015628
1.1166045
1.1181166
1.1197355
1.1214656
1.123311
1.1252754
1.1273624
1.1295746
1.1319143
1.1343829
1.1369809
1.1397077
1.1425611
1.1455375
1.1486309
1.1518331
1.1551326
1.1585146
1.1619599
1.165445
1.1689413
1.1724152
1.1758284
1.1791393
1.1823042
1.1852799
1.1880268
1.1905121
1.1927124
1.194616
1.1962238
1.1975482
1.1986119
1.1994443
1.200079
1.2005503
1.2008908
1.20113
1.2012931
1.2014007
1.2014692
1.201511
1.2015354
1.2015488
1.2015557
1.201559
1.2015605
1.201561
1.2015612
1.2015613
1.1165195
1.1180294
1.1196458
1.1213733
1.1232159
1.1251774
1.1272612
1.12947
1.1318062
1.1342712
1.1368654
1.1395882
1.1424376
1.1454099
1.1484993
1.1516976
1.1549935
1.1583723
1.1618151
1.1652985
1.1687941
1.1722687
1.1756842
1.1789992
1.1821699
1.1851534
1.1879098
1.190406
1.1926182
1.1945342
1.1961543
1.1974905
1.198565
1.1994071
1.20005
1.2005281
1.2008741
1.2011177
1.201284
1.2013941
1.2014643
1.2015074
1.2015326
1.2015465
1.2015538
1.2015573
1.2015589
1.2015595
1.2015597
1.2015597
1.1164361
1.1179437
1.1195578
1.1212828
1.1231226
1.1250812
1.1271619
1.1293675
1.1317002
1.1341616
1.136752
1.1394709
1.1423163
1.1452846
1.1483701
1.1515645
1.1548569
1.1582326
1.1616728
1.1651545
1.1686495
1.1721248
1.1755425
1.1788613
1.1820378
1.1850288
1.1877945
1.1903013
1.1925251
1.1944533
1.1960855
1.1974333
1.1985185
1.1993701
1.2000212
1.200506
1.2008575
1.2011053
1.2012749
1.2013874
1.2014594
1.2015037
1.2015298
1.2015443