/*--------------------------------*- C++ -*----------------------------------*\
| =========                 |                                                 |
| \\      /  F ield         | OpenFOAM: The Open Source CFD Toolbox           |
|  \\    /   O peration     | Version:  4.0                                   |
|   \\  /    A nd           | Web:      www.OpenFOAM.org                      |
|    \\/     M anipulation  |                                                 |
\*---------------------------------------------------------------------------*/
FoamFile
{
    version     2.0;
    format      ascii;
    class       surfaceScalarField;
    location    "669";
    object      snGradRho;
}
// * * * * * * * * * * * * * * * * * * * * * * * * * * * * * * * * * * * * * //

dimensions      [1 -4 0 0 0 0 0];

internalField   nonuniform List<scalar> 
9850
(
24.228921
-0.65331278
23.455024
-0.67096556
22.558472
-0.68894557
21.536923
-0.70652286
20.392025
-0.72277552
19.130199
-0.73659846
17.763217
-0.7467341
16.308467
-0.75182983
14.788769
-0.75052484
13.231669
-0.74156501
11.668163
-0.72393897
10.130914
-0.69702186
8.652128
-0.66070706
7.2613029
-0.61550168
5.9831694
-0.5625619
4.8360871
-0.50364946
3.8311244
-0.44100303
2.9719159
-0.37713482
2.2552611
-0.31458029
1.6723053
-0.25564207
1.2100661
-0.20217299
0.85305517
-0.15543489
0.58419735
-0.11605212
0.38790767
-0.084025329
0.24907426
-0.058904467
0.15414359
-0.039909846
0.091599456
-0.026076875
0.05205111
-0.016389578
0.028156498
-0.0098814701
0.014429239
-0.0057007013
0.0069696405
-0.0031432115
0.0031561924
-0.0016607421
0.0013325976
-0.00085103576
0.00052159933
-0.00043689213
0.00018815735
-0.00023983925
6.2167771e-05
-0.00015321838
1.8682952e-05
-0.00011828777
5.0509025e-06
-0.00010545614
1.2019428e-06
-0.0001011904
2.1560352e-07
-9.9914981e-05
1.2985348e-08
-9.9573111e-05
-5.2467022e-08
-9.9493329e-05
-2.4029949e-08
-9.9479613e-05
-7.060605e-08
-9.9483259e-05
-1.4892079e-08
-9.9496111e-05
-9.7755569e-08
-9.9513532e-05
-5.7757533e-08
-9.9567869e-05
-3.5479821e-07
-9.9722118e-05
-1.2446897e-06
-0.00010032116
-0.0001019604
21.548655
-0.27945481
20.973437
-0.28712158
20.35318
-0.29526616
19.683334
-0.30380266
18.958966
-0.31259321
18.175008
-0.32143403
17.326681
-0.33004129
16.410091
-0.33803922
15.423026
-0.34495359
14.365888
-0.35021486
13.242679
-0.35317575
12.061903
-0.35314729
10.83719
-0.34945573
9.5874318
-0.34151857
8.336252
-0.32893304
7.1106891
-0.31156408
5.9391371
-0.28961454
4.8487553
-0.26365861
3.8627412
-0.23462345
2.9979645
-0.20371374
2.2634367
-0.17228698
1.6599146
-0.14170102
1.1806646
-0.11316315
0.81320208
-0.087609592
0.54140061
-0.065638577
0.34766777
-0.047497962
0.21479785
-0.033121484
0.12728958
-0.022198101
0.072092891
-0.014256046
0.038861592
-0.0087457734
0.019843844
-0.0051109424
0.0095483217
-0.0028416165
0.0043046227
-0.0015077907
0.0018070867
-0.00077414359
0.0007018356
-0.00039897538
0.00025047133
-0.00022183718
8.1563716e-05
-0.00014516505
2.405355e-05
-0.00011496158
6.3667721e-06
-0.00010420935
1.4740907e-06
-0.0001007724
2.7996221e-07
-9.9789169e-05
-1.0741017e-08
-9.9536325e-05
-3.4112616e-08
-9.9474284e-05
-1.029144e-07
-9.9457769e-05
-5.4701e-08
-9.9453734e-05
-2.106276e-07
-9.9463668e-05
-3.490284e-07
-9.9532752e-05
-1.38309e-06
-9.979023e-05
-3.802598e-06
-0.00010059645
-0.00010222007
20.38459
-0.16203619
19.849329
-0.16647957
19.282169
-0.17122883
18.680785
-0.17626403
18.042415
-0.1815462
17.363854
-0.18701077
16.641521
-0.19255965
15.871644
-0.19805238
15.050585
-0.20329718
14.175358
-0.20804331
13.244344
-0.21197713
12.258197
-0.21472483
11.220843
-0.2158656
10.140429
-0.21495852
9.0300035
-0.21158475
7.9076453
-0.20540356
6.7958301
-0.19621572
5.7199045
-0.18402293
4.705772
-0.16906842
3.7771283
-0.15184458
2.952775
-0.13305916
2.2445877
-0.11356168
1.6565742
-0.094243258
1.1851698
-0.075930726
0.82058385
-0.059297461
0.54879565
-0.044806666
0.35371619
-0.032693087
0.21910554
-0.022979136
0.13000126
-0.015515029
0.07358606
-0.010030784
0.039551343
-0.0061896566
0.020078049
-0.003635848
0.0095695056
-0.002032423
0.0042545211
-0.0010875239
0.0017522989
-0.00056847263
0.00066379457
-0.00030467293
0.00022957439
-0.00018160405
7.1951638e-05
-0.00012932733
2.0284775e-05
-0.00010927103
5.0935474e-06
-0.00010237379
1.1260664e-06
-0.00010025872
1.7798619e-07
-9.9680649e-05
1.155565e-08
-9.9532438e-05
-9.2771784e-08
-9.9496648e-05
-7.740052e-08
-9.9483759e-05
-3.541333e-07
-9.9510755e-05
-8.3522809e-07
-9.9612021e-05
-2.7670133e-06
-9.9966552e-05
-6.3361343e-06
-0.00010078867
-0.00010200151
19.709941
-0.11602612
19.19384
-0.1192057
18.650441
-0.12261407
18.078362
-0.12624699
17.475889
-0.13009041
16.840923
-0.13411648
16.170975
-0.13827857
15.463213
-0.14250527
14.714611
-0.14669359
13.92222
-0.15070193
13.083618
-0.15434399
12.197538
-0.15738515
11.264688
-0.1595439
10.28867
-0.16050115
9.2768927
-0.15992018
8.2412424
-0.15747888
7.1982613
-0.15291332
6.1685885
-0.14606779
5.1755346
-0.13694198
4.2428754
-0.12572333
3.3922039
-0.11279255
2.6403762
-0.098695527
1.997627
-0.084083933
1.4667698
-0.069635663
1.0435965
-0.05597299
0.71826542
-0.043595831
0.47725355
-0.032841834
0.30539607
-0.023876341
0.18763609
-0.016707501
0.11028133
-0.011217652
0.061729374
-0.0072018729
0.032736095
-0.0044066821
0.016350399
-0.0025646063
0.0076405862
-0.0014222041
0.0033166814
-0.0007601094
0.0013272329
-0.00040424667
0.00048575389
-0.00022830841
0.00016129672
-0.00014897277
4.8215294e-05
-0.00011662376
1.287949e-05
-0.00010479805
3.0605071e-06
-0.0001009525
6.2883928e-07
-9.984728e-05
1.1052509e-07
-9.9564706e-05
-6.0370962e-08
-9.9503991e-05
-1.3908914e-07
-9.9500155e-05
-5.6448977e-07
-9.9554524e-05
-1.5046945e-06
-9.9714665e-05
-4.1782321e-06
-0.00010014075
-8.2286805e-06
-0.00010095579
-0.00010190966
19.227177
-0.088237053
18.723419
-0.090651953
18.194645
-0.093241692
17.640027
-0.096005059
17.058495
-0.098934823
16.448683
-0.1020153
15.808885
-0.10521923
15.137054
-0.10850392
14.430864
-0.11180665
13.687857
-0.11503953
12.905725
-0.11808439
12.08275
-0.12078834
11.218418
-0.12296176
10.314197
-0.12438039
9.3744032
-0.12479398
8.4070111
-0.12394361
7.4242029
-0.12158886
6.4423925
-0.11754341
5.4815117
-0.11171469
4.5634686
-0.1041394
3.7099187
-0.095004779
2.939733
-0.084646592
2.2667117
-0.073519841
1.6980779
-0.062145941
1.2340805
-0.051047495
0.86871456
-0.040685625
0.59127238
-0.031413146
0.38827309
-0.023451024
0.24532982
-0.016888105
0.1486451
-0.011698538
0.086003639
-0.0077690338
0.047278141
-0.0049289489
0.024548637
-0.0029786042
0.011959804
-0.0017135992
0.0054270152
-0.00094414935
0.0022756789
-0.0005087564
0.00087453429
-0.00028155136
0.00030540234
-0.00017319821
9.6103751e-05
-0.00012641032
2.7035671e-05
-0.0001082843
6.7589497e-06
-0.00010203933
1.4884212e-06
-0.00010014131
2.7841884e-07
-9.963576e-05
-5.0728609e-08
-9.9525794e-05
-2.6332761e-07
-9.9526946e-05
-8.9714415e-07
-9.9608779e-05
-2.3092695e-06
-9.9823292e-05
-5.577297e-06
-0.0001002984
-9.7171296e-06
-0.00010108186
-0.00010185027
18.860516
-0.071511061
18.365986
-0.073466374
17.847946
-0.075564635
17.305892
-0.077806499
16.739135
-0.08018845
16.146742
-0.082701049
15.527495
-0.085326654
14.879859
-0.088036576
14.202011
-0.090787634
13.491924
-0.093518209
12.747558
-0.096144056
11.967181
-0.098554403
11.149846
-0.10060924
10.296025
-0.10213912
9.4083685
-0.10294923
8.4925088
-0.10282949
7.5577258
-0.10157237
6.6172731
-0.098998298
5.6881199
-0.094986841
4.7899433
-0.089508505
3.9433687
-0.082649591
3.1676937
-0.074621774
2.4785393
-0.065750367
1.8859738
-0.056440599
1.3935492
-0.047127987
0.99843716
-0.038224008
0.69253082
-0.030069465
0.46414522
-0.022904667
0.29986784
-0.016859648
0.18618466
-0.011961864
0.11066778
-0.0081552818
0.062674903
-0.005324321
0.033626711
-0.0033177039
0.01697936
-0.0019695858
0.0080089784
-0.0011170556
0.0035004933
-0.00061368948
0.0014055136
-0.0003386823
0.000513829
-0.00020098101
0.00016950544
-0.00013840721
5.0024583e-05
-0.00011285543
1.3110388e-05
-0.00010356938
3.0262783e-06
-0.00010059406
5.8250721e-07
-9.9763288e-05
-5.362415e-08
-9.9574626e-05
-4.5032595e-07
-9.9573322e-05
-1.3427435e-06
-9.9678548e-05
-3.2064214e-06
-9.9932343e-05
-6.9221561e-06
-0.00010042652
-1.091618e-05
-0.0001011405
-0.00010172255
18.563636
-0.059684658
18.076385
-0.061315008
17.566676
-0.063064901
17.034235
-0.064935545
16.478647
-0.066925094
15.899303
-0.069027357
15.295343
-0.0712301
14.665625
-0.073512915
14.008717
-0.075844576
13.322953
-0.078179951
12.606564
-0.080456581
11.857918
-0.082591275
11.075897
-0.084477308
10.260429
-0.085983174
9.4131509
-0.086954186
8.5381531
-0.087218477
7.6426848
-0.086598861
6.7376298
-0.084931312
5.837536
-0.082089288
4.9599964
-0.078010874
4.1242975
-0.072723243
3.3494477
-0.066357411
2.6519245
-0.059146914
2.0436356
-0.051407491
1.530581
-0.04350026
1.1125198
-0.035786284
0.78364928
-0.028583053
0.53403005
-0.022132377
0.35133947
-0.016584791
0.22254991
-0.01200031
0.13525268
-0.0083612872
0.078515901
-0.0055915611
0.043301231
-0.0035768194
0.022540897
-0.0021830961
0.010994035
-0.0012722593
0.004982999
-0.00071440914
0.002080312
-0.00039714255
0.00079257739
-0.00023124268
0.00027297791
-0.00015230451
8.4208238e-05
-0.00011848247
2.3066836e-05
-0.00010556793
5.5534739e-06
-0.00010121888
1.1042102e-06
-9.9945284e-05
-5.0345893e-08
-9.9641354e-05
-6.9077926e-07
-9.9628203e-05
-1.869942e-06
-9.9752817e-05
-4.1395836e-06
-0.0001000333
-8.1477407e-06
-0.00010052688
-1.1824433e-05
-0.00010116091
-0.00010157867
18.316096
-0.051183285
17.834866
-0.052580216
17.33198
-0.054079911
16.80733
-0.055683909
16.2607
-0.057391391
15.691715
-0.059198164
15.099781
-0.061095333
14.48405
-0.063067599
13.843398
-0.065091158
13.176454
-0.067131195
12.481695
-0.069139058
11.757631
-0.071049332
11.003109
-0.072777232
10.217764
-0.074216993
9.4025946
-0.075242264
8.5606504
-0.075709752
7.6977233
-0.075467416
6.8228998
-0.074368185
5.9487706
-0.072289088
5.0910926
-0.069154035
4.2677689
-0.064956291
3.4971736
-0.059774998
2.7960636
-0.053779756
2.1775045
-0.047219327
1.6492988
-0.040394725
1.2132934
-0.03362185
0.86568589
-0.027192269
0.5981642
-0.021341078
0.39951853
-0.016227975
0.25731443
-0.011933043
0.1593058
-0.0084646904
0.094421037
-0.0057748619
0.053303028
-0.0037766544
0.028482801
-0.0023608575
0.014302193
-0.0014099086
0.0066933162
-0.00080910417
0.0028932961
-0.00045531157
0.0011442243
-0.00026309693
0.00040994096
-0.00016778065
0.00013174906
-0.00012511237
3.762028e-05
-0.00010805872
9.4277044e-06
-0.00010204092
1.9446622e-06
-0.00010019415
-1.7289114e-08
-9.972921e-05
-9.7553435e-07
-9.9690031e-05
-2.4525695e-06
-9.9827775e-05
-5.0716299e-06
-0.00010012458
-9.2360807e-06
-0.00010060523
-1.2476327e-05
-0.00010116197
-0.00010144409
18.103997
-0.04469375
17.62788
-0.045912564
17.130739
-0.047221199
16.612594
-0.048621302
16.073387
-0.050112641
15.512924
-0.051692295
14.930823
-0.053353572
14.326468
-0.05508464
13.698985
-0.056866805
13.04725
-0.058672435
12.369954
-0.060462588
11.665752
-0.06218447
10.933517
-0.063769049
10.172714
-0.065129322
9.3839222
-0.066160034
8.5694493
-0.066739852
7.7340042
-0.066737156
6.8852795
-0.066020428
6.034276
-0.064473494
5.1951673
-0.062014654
4.3845435
-0.058616849
3.6200019
-0.054324367
2.9182451
-0.049260738
2.2930445
-0.043623574
1.753533
-0.037665179
1.3032437
-0.031662089
0.94009853
-0.025880325
0.65727539
-0.020544445
0.44465468
-0.015816842
0.29044848
-0.011790031
0.18266507
-0.0084906629
0.11019564
-0.0058914664
0.063463233
-0.0039264918
0.034686379
-0.0025061004
0.017865077
-0.0015297627
0.0086005375
-0.00089627999
0.0038352345
-0.00051177314
0.0015688311
-0.00029567436
0.00058272703
-0.00018445865
0.0001945267
-0.0001326435
5.7757952e-05
-0.00011104167
1.5045498e-05
-0.00010307796
3.2303648e-06
-0.00010052181
8.1197396e-08
-9.9843201e-05
-1.2902942e-06
-9.9759827e-05
-3.0691038e-06
-9.990195e-05
-5.9792551e-06
-0.00010020511
-1.0191763e-05
-0.00010066238
-1.2916549e-05
-0.00010114298
-0.00010130557
17.918941
-0.039620635
17.447263
-0.040700276
16.955078
-0.0418596
16.442509
-0.043100291
15.90962
-0.044422494
15.356364
-0.045824145
14.782527
-0.047300078
14.187685
-0.048840885
13.571167
-0.050431476
12.932055
-0.052049329
12.269232
-0.053662466
11.581494
-0.055227237
10.867766
-0.056686159
10.127426
-0.057966191
9.3607631
-0.058978084
8.5695471
-0.059617627
7.7576603
-0.059769813
6.9316925
-0.05931683
6.1013384
-0.058150384
5.2794091
-0.056187808
4.4812863
-0.053389989
3.7237436
-0.049777484
3.0232317
-0.045440185
2.3939197
-0.040536304
1.8459203
-0.035278682
1.384131
-0.029910069
1.0079577
-0.024672644
0.71192993
-0.019778861
0.48697311
-0.01539004
0.32196818
-0.011606196
0.20523727
-0.0084669778
0.1257079
-0.0059607764
0.073656409
-0.0040379194
0.041055582
-0.0026243261
0.02162175
-0.0016334279
0.010673333
-0.00097564409
0.0048942161
-0.00056571448
0.0020642653
-0.00032831772
0.00079255356
-0.0002019936
0.00027404699
-0.00014095677
8.4407333e-05
-0.00011449999
2.2821235e-05
-0.00010433941
5.1069042e-06
-0.00010093617
2.9077912e-07
-9.9985724e-05
-1.6150612e-06
-9.9836811e-05
-3.6988551e-06
-9.9973282e-05
-6.8427221e-06
-0.00010027406
-1.1016744e-05
-0.00010070055
-1.317026e-05
-0.00010110641
-0.00010116226
17.755016
-0.035541603
17.287254
-0.036509383
16.799418
-0.037548667
16.291714
-0.038661123
15.764308
-0.039847137
15.217271
-0.041105244
14.65053
-0.042431376
14.06382
-0.043817899
13.45664
-0.045252388
12.828251
-0.04671613
12.177701
-0.048182368
11.503918
-0.049614356
10.805894
-0.050963404
10.082964
-0.052167211
9.3352185
-0.053149003
8.5640215
-0.053818187
7.7726113
-0.054073351
6.9666897
-0.053808535
6.1548656
-0.052923282
5.3487755
-0.051336326
4.562704
-0.04900147
3.8126045
-0.045922769
3.1145617
-0.042165061
2.4829309
-0.037855747
1.928543
-0.03317544
1.4574029
-0.028337984
1.0701945
-0.023563824
0.7626679
-0.019052933
0.52673816
-0.014963344
0.35195793
-0.011399335
0.22700186
-0.0084099165
0.14088766
-0.0059955493
0.083800799
-0.0041194818
0.047519771
-0.0027202306
0.025522534
-0.0017227573
0.012883177
-0.0010474046
0.0060575673
-0.00061669904
0.0026270031
-0.00036054929
0.0010397235
-0.00022009006
0.00037143924
-0.00014993194
0.00011840817
-0.00011840844
3.3173815e-05
-0.00010583085
7.7351474e-06
-0.00010144482
6.6510846e-07
-0.0001001599
-1.9269122e-06
-9.9921078e-05
-4.3236455e-06
-0.00010004108
-7.6480684e-06
-0.00010033215
-1.1713425e-05
-0.00010072375
-1.3257423e-05
-0.00010105833
-0.00010102199
17.608076
-0.032196832
17.143813
-0.033072922
16.659846
-0.034013793
16.156451
-0.03502108
15.633876
-0.036095324
15.092295
-0.03723549
14.531751
-0.038438325
13.952111
-0.039697528
13.353024
-0.041002692
12.7339
-0.042338012
12.093937
-0.04368074
11.432185
-0.044999473
10.747706
-0.046252365
10.039825
-0.047385555
9.3084899
-0.048332197
8.5547568
-0.049012697
7.7813518
-0.049336905
6.9932501
-0.049209074
6.1981482
-0.048536168
5.4066636
-0.047239547
4.6320909
-0.045269039
3.889591
-0.042617105
3.1948184
-0.039329637
2.5621682
-0.035509673
2.0029912
-0.031311301
1.5241937
-0.026923582
1.1275618
-0.022547393
0.80994653
-0.018370428
0.56419293
-0.014546171
0.38051661
-0.011180963
0.24796894
-0.0083305846
0.15569805
-0.0060049236
0.093842267
-0.0041776664
0.054026854
-0.0027976635
0.029527504
-0.0017994886
0.015205019
-0.0011119478
0.0073128166
-0.0006644864
0.0032527088
-0.00039200244
0.0013238302
-0.00023848644
0.00048748304
-0.00015944656
0.00016049721
-0.00012273322
4.6515999e-05
-0.00010755313
1.1288299e-05
-0.00010205434
1.2654518e-06
-0.00010036941
-2.201128e-06
-0.00010001358
-4.9282681e-06
-0.00010010555
-8.3875357e-06
-0.0001003805
-1.2287749e-05
-0.00010073496
-1.3200723e-05
-0.00010100249
-0.00010088742
17.475057
-0.029405935
17.013954
-0.030205542
16.533469
-0.031064314
16.033936
-0.031983833
15.515673
-0.032964743
14.978939
-0.034006327
14.423879
-0.035105952
13.850473
-0.036258341
13.258498
-0.03745466
12.647497
-0.038681376
12.016797
-0.039918898
11.365564
-0.041140044
10.692932
-0.042308422
9.9982303
-0.043376941
9.2813094
-0.044286793
8.5429853
-0.044967411
7.7855709
-0.045338066
7.0134395
-0.045311824
6.2335122
-0.044802474
5.4555184
-0.04373459
4.6918595
-0.042056022
3.9569434
-0.03975101
3.2659614
-0.036850942
2.6332463
-0.033439345
2.070518
-0.02964829
1.5854169
-0.025645537
1.1806825
-0.021614412
0.85415773
-0.017730874
0.59955845
-0.014143135
0.40774701
-0.010958101
0.26816567
-0.0082364294
0.17012312
-0.0059954623
0.1037456
-0.0042174271
0.060538513
-0.0028597923
0.033604753
-0.0018652261
0.017617189
-0.0011697776
0.0086481109
-0.00070899405
0.0039365787
-0.00042241359
0.0016439038
-0.00025696067
0.00062263159
-0.00016938199
0.00021129511
-0.00012743441
6.3243176e-05
-0.00010950245
1.5947588e-05
-0.00010276953
2.1599338e-06
-0.00010061768
-2.4112956e-06
-0.00010011543
-5.4994085e-06
-0.00010016711
-9.056874e-06
-0.00010042016
-1.2746975e-05
-0.00010073628
-1.302117e-05
-0.00010094107
-0.00010075909
17.353651
-0.027043759
16.895428
-0.027778652
16.418104
-0.028567949
15.922064
-0.029413177
15.407689
-0.030315046
14.875309
-0.031273078
14.325157
-0.032285117
13.757312
-0.033346696
13.17166
-0.034450225
12.567864
-0.035583982
11.945366
-0.036730908
11.303437
-0.037867221
10.641284
-0.038960944
9.9582522
-0.039970505
9.2541241
-0.040843704
8.5295273
-0.041517481
7.786437
-0.041919067
7.0287217
-0.041969165
6.2626377
-0.041587786
5.4971351
-0.040702945
4.7438093
-0.039261806
4.0163589
-0.03724276
3.329499
-0.034665964
2.6974286
-0.031599151
2.1321202
-0.028155995
1.6418126
-0.024485862
1.2300714
-0.020756358
0.8956346
-0.017132376
0.63303051
-0.013756534
0.43374783
-0.010735246
0.2876269
-0.0081326376
0.1841596
-0.0059719903
0.11348842
-0.0042426115
0.067026631
-0.0029092315
0.037728895
-0.0019214164
0.020101176
-0.0012214523
0.010052484
-0.00075025242
0.0046736241
-0.00045160568
0.0019985555
-0.00027533092
0.00077704836
-0.00017962826
0.00027130171
-0.00013246905
8.3724543e-05
-0.0001116714
2.1898054e-05
-0.00010359369
3.4224647e-06
-0.000100908
-2.5293916e-06
-0.00010022808
-6.0250716e-06
-0.00010022653
-9.6538075e-06
-0.00010045241
-1.3098501e-05
-0.00010072977
-1.2737207e-05
-0.00010087635
-0.00010063894
17.24207
-0.025019565
16.786489
-0.02569902
16.31206
-0.026428793
15.819208
-0.027210356
15.308367
-0.028044461
14.779934
-0.028930809
14.234214
-0.029867625
13.671376
-0.030851085
13.091402
-0.031874604
12.49406
-0.032927931
11.878898
-0.033996067
11.24528
-0.035058013
10.592485
-0.036085423
9.9198846
-0.037041289
9.2272121
-0.037878919
8.5149464
-0.038541571
7.7847835
-0.038963257
7.0401643
-0.039071338
6.2867708
-0.038791447
5.5328653
-0.038055077
4.789314
-0.036809536
4.0691513
-0.035029082
3.3866154
-0.03272509
2.755721
-0.029952412
2.1886034
-0.026809213
1.6939886
-0.023428908
1.2761595
-0.01996503
0.9346618
-0.016572114
0.66478172
-0.013387062
0.45861121
-0.010515085
0.3063906
-0.008022708
0.19781197
-0.0059379767
0.12305717
-0.0042561213
0.073470708
-0.0029480591
0.041879816
-0.0019692883
0.022641315
-0.0012675047
0.011515988
-0.00078834547
0.0054588777
-0.00047945898
0.0023861054
-0.00029344681
0.00095065008
-0.00019008371
0.00034089791
-0.00013779221
0.00010829673
-0.00011404943
2.9324746e-05
-0.00010452865
5.1316017e-06
-0.00010124352
-2.5258347e-06
-0.00010035333
-6.4942919e-06
-0.0001002849
-1.0177541e-05
-0.00010047862
-1.3350124e-05
-0.00010071729
-1.2366741e-05
-0.00010081041
-0.00010052879
17.138907
-0.023266418
16.685767
-0.023897871
16.214003
-0.024576101
15.724079
-0.025302523
15.216477
-0.026077914
14.691647
-0.026902117
14.149964
-0.027773656
13.591671
-0.028689235
13.016838
-0.029643086
12.425327
-0.030626169
11.816779
-0.031625186
11.190649
-0.03262145
10.546282
-0.033589638
9.8830798
-0.034496566
9.2007444
-0.03530018
8.4996355
-0.035949108
7.7812162
-0.0363832
7.0485619
-0.03653564
6.3068545
-0.036337149
5.563746
-0.03572262
4.8294414
-0.03464004
4.1163546
-0.033060764
3.4382538
-0.030989267
2.8089351
-0.028469797
2.2406261
-0.025587362
1.7424485
-0.022461479
1.319309
-0.019233064
0.97148333
-0.016047031
0.6949638
-0.013034583
0.48242153
-0.01029922
0.32449502
-0.0079090599
0.21108918
-0.0058959762
0.13244424
-0.0042601872
0.079855783
-0.0029779414
0.046041526
-0.0020098832
0.025224361
-0.0013084297
0.013029671
-0.00082338843
0.0062875088
-0.00050589581
0.0028046764
-0.00031118431
0.0011431447
-0.00020065511
0.00042034956
-0.00014335802
0.00013725867
-0.00011662321
3.8409063e-05
-0.00010557468
7.3693163e-06
-0.00010162702
-2.3694674e-06
-0.00010049309
-6.8966914e-06
-0.00010034347
-1.0628238e-05
-0.00010050008
-1.3509971e-05
-0.00010070041
-1.1927283e-05
-0.00010074481
-0.00010042949
17.043032
-0.021733863
16.592158
-0.022323364
16.122864
-0.022956544
15.635647
-0.023634765
15.13103
-0.024358815
14.609513
-0.025128645
14.071529
-0.025943026
13.517391
-0.026799092
12.947247
-0.027691755
12.361041
-0.028612982
11.758503
-0.029550898
11.139167
-0.030488752
10.502445
-0.031403773
9.8477697
-0.032266013
9.1748249
-0.033037371
8.4838743
-0.033671076
7.7761848
-0.034112042
7.0545173
-0.034298575
6.3236152
-0.03416599
5.5905864
-0.033652444
4.8650347
-0.032706963
4.1587947
-0.031298913
3.4851764
-0.029427297
2.8577345
-0.027127568
2.2887333
-0.024473506
1.7876142
-0.021572465
1.3598274
-0.018554034
1.0063094
-0.015554193
0.72371019
-0.012698571
0.50525534
-0.010088617
0.34197724
-0.0077934126
0.22400272
-0.0058479099
0.14164604
-0.0042565663
0.086170974
-0.0030002442
0.050201279
-0.002044094
0.027839116
-0.0013446848
0.014585528
-0.00085551774
0.0071548928
-0.00053087345
0.0032522667
-0.00032844375
0.0013540658
-0.00021125872
0.00050981359
-0.00014912093
0.00017086801
-0.00011937727
4.9325436e-05
-0.00010673055
1.0219745e-05
-0.00010206085
-2.0275647e-06
-0.00010064933
-7.2220261e-06
-0.00010040354
-1.1006508e-05
-0.00010051804
-1.3586201e-05
-0.00010068039
-1.1435242e-05
-0.00010068076
-0.00010034143
16.953526
-0.020383167
16.504767
-0.020935704
16.037773
-0.021529187
15.553071
-0.022164927
15.05122
-0.022843715
14.532765
-0.023565589
13.998192
-0.02432952
13.447876
-0.025133
12.882034
-0.025971512
12.300687
-0.026837869
11.703643
-0.027721401
11.090512
-0.028607
10.460767
-0.029474063
9.8138769
-0.030295409
9.1495135
-0.031036332
8.4678635
-0.031654046
7.7700282
-0.032097877
7.0584953
-0.032310671
6.3376216
-0.032231893
5.6140277
-0.031802799
4.8967689
-0.030973664
4.1971396
-0.029712534
3.5280066
-0.028014066
2.9026676
-0.025906394
2.3333802
-0.023453655
1.8298423
-0.020752513
1.3979779
-0.017922348
1.0393225
-0.015090873
0.75113862
-0.012378308
0.52718201
-0.0098838313
0.35887256
-0.0076770045
0.23656539
-0.0057952569
0.1506618
-0.0042466571
0.092408483
-0.0030160943
0.054348908
-0.0020726915
0.030476113
-0.0013766919
0.016176432
-0.00088488195
0.0080566592
-0.00055437573
0.0037268099
-0.00034514635
0.0015828064
-0.00022182008
0.00060934627
-0.00015503665
0.00020933899
-0.00012229456
6.2238468e-05
-0.0001079937
1.3767956e-05
-0.00010254685
-1.4659129e-06
-0.00010082402
-7.4598546e-06
-0.00010046651
-1.1313082e-05
-0.00010053364
-1.3586842e-05
-0.00010065836
-1.0905741e-05
-0.00010061925
-0.00010026475
16.869633
-0.019184108
16.422855
-0.019703838
15.958011
-0.020262087
15.475656
-0.020860116
14.976381
-0.021498715
14.460771
-0.02217799
13.92936
-0.022897078
13.382578
-0.02365377
12.820705
-0.024444034
12.243832
-0.025261401
11.65184
-0.026096228
11.044407
-0.026934812
10.421066
-0.027758415
9.7813213
-0.02854224
9.1248407
-0.029254521
8.4517486
-0.029855943
7.7630048
-0.030299711
7.0608588
-0.030532701
6.3493248
-0.030498145
5.6345845
-0.030140208
4.9251919
-0.029410559
4.2319372
-0.02827643
3.5672599
-0.026729012
2.9441923
-0.024790283
2.3749506
-0.022516076
1.8694365
-0.01999361
1.4339873
-0.017333068
1.0706817
-0.014654502
0.7773535
-0.012072935
0.5482644
-0.009685121
0.37521422
-0.007560723
0.24879063
-0.0057391552
0.15949271
-0.0042315797
0.098562832
-0.0030264258
0.058476319
-0.0020963386
0.033127356
-0.001404835
0.017796061
-0.00091163453
0.0089887163
-0.00057640752
0.0042262222
-0.00036123156
0.0018286484
-0.00023227394
0.00071891278
-0.00016106276
0.00025284179
-0.00012535687
7.7300531e-05
-0.00010936032
1.8098741e-05
-0.00010308635
-6.489688e-07
-0.00010101904
-7.5992921e-06
-0.00010053377
-1.1548604e-05
-0.00010054799
-1.3519704e-05
-0.00010063529
-1.0352566e-05
-0.00010056104
-0.0001001992
16.790721
-0.018112786
16.345806
-0.018603209
15.882981
-0.019129983
15.402825
-0.01969432
14.905959
-0.020297005
14.393004
-0.020938198
13.864537
-0.021617174
13.321038
-0.02233198
12.762845
-0.023078992
12.190112
-0.023852361
11.602787
-0.024643326
11.000613
-0.025439398
10.383179
-0.026223451
9.7500243
-0.026972759
9.1008187
-0.027658124
8.435636
-0.028243273
7.7553148
-0.028684839
7.0618956
-0.028933301
6.3590871
-0.028935306
5.6526747
-0.028637758
4.9507526
-0.027993773
4.2636401
-0.026970145
3.6033668
-0.025555304
2.9826945
-0.023766045
2.4137713
-0.021650994
1.9066576
-0.019289018
1.468052
-0.016781978
1.1005265
-0.01424283
0.80244743
-0.011781617
0.56855931
-0.0094925886
0.39103325
-0.007445221
0.260692
-0.0056804981
0.16814127
-0.004212249
0.10463032
-0.0030320238
0.062577067
-0.0021156122
0.035786096
-0.0014294633
0.019438825
-0.00093592988
0.0099472637
-0.0005969893
0.0047484388
-0.00037665459
0.0020907899
-0.00024256407
0.00083839716
-0.00016715936
0.00030150285
-0.00012854542
9.4649827e-05
-0.00011082553
2.3295453e-05
-0.00010368009
4.5992467e-07
-0.00010123614
-7.6288321e-06
-0.0001006067
-1.171345e-05
-0.00010056212
-1.3392253e-05
-0.00010061198
-9.7879385e-06
-0.00010050668
-0.00010014421
16.716259
-0.01715006
16.273101
-0.017614152
15.812178
-0.018112646
15.33409
-0.018646708
14.839485
-0.019217114
14.329017
-0.019824069
13.803301
-0.020466962
13.262865
-0.021144058
12.708099
-0.021852088
12.139214
-0.022585736
11.55622
-0.023337005
10.958922
-0.024094463
10.34696
-0.024842389
9.7199099
-0.025559869
9.0774467
-0.026219956
8.4196034
-0.026789064
7.7471141
-0.027226869
7.0618355
-0.027487078
6.3672025
-0.027519452
5.668641
-0.027273456
4.9738229
-0.026703683
4.2926268
-0.02577678
3.63669
-0.024478971
3.0185021
-0.022822667
2.450122
-0.020850207
1.9417313
-0.018633031
1.5003437
-0.016265453
1.1289799
-0.013853869
0.82650321
-0.01150357
0.58811834
-0.0093062682
0.40635863
-0.0073310106
0.27228291
-0.0056200274
0.17661094
-0.0041894406
0.11060859
-0.0030335725
0.06664606
-0.0021310315
0.03844663
-0.0014509068
0.021099787
-0.00095792651
0.010928792
-0.00061615646
0.0052914411
-0.00039138536
0.0023683685
-0.00025264298
0.00096761292
-0.00017328959
0.00035540625
-0.00013184122
0.00011440897
-0.00011238354
2.9438948e-05
-0.00010432827
1.8982687e-06
-0.0001014769
-7.5362379e-06
-0.00010068663
-1.1807604e-05
-0.00010057699
-1.3211486e-05
-0.00010058915
-9.2223325e-06
-0.00010045653
-0.00010009901
16.645795
-0.016280415
16.204299
-0.016720728
15.745173
-0.01719368
15.269036
-0.017700396
14.77656
-0.018241642
14.26843
-0.018817654
13.745296
-0.019427924
13.207728
-0.020070901
12.656164
-0.020743623
12.090871
-0.021441239
11.511913
-0.022156417
10.919152
-0.022878651
10.31228
-0.023593452
9.6909063
-0.024281502
9.0547154
-0.024917843
8.4037073
-0.02547127
7.7385258
-0.025904181
7.0608642
-0.026173187
6.3739117
-0.026230888
5.6827674
-0.026029143
4.9947132
-0.025524023
4.3192158
-0.024682232
3.667537
-0.023488242
3.0518957
-0.02195074
2.4842443
-0.020106583
1.9748538
-0.01802058
1.531013
-0.015780199
1.1561511
-0.013485737
0.84959503
-0.011237967
0.60698848
-0.0091260495
0.42121731
-0.0072184338
0.28357651
-0.0055583142
0.18490581
-0.0041637908
0.11649637
-0.0030316491
0.070679329
-0.0021430464
0.041104183
-0.0014694644
0.022774614
-0.00097778009
0.011930083
-0.0006339552
0.0058532813
-0.0004054063
0.0026604829
-0.00026247181
0.0011063137
-0.00017942003
0.00041459596
-0.00013522559
0.00013668403
-0.00011402789
3.660662e-05
-0.00010503057
3.7041022e-06
-0.00010174268
-7.3084879e-06
-0.00010077487
-1.1830559e-05
-0.00010059352
-1.2983842e-05
-0.00010056741
-8.6644364e-06
-0.00010041085
-0.0001000627
16.578941
-0.015491157
16.139023
-0.015909891
15.681599
-0.016359665
15.207307
-0.016841565
14.716843
-0.017356342
14.210918
-0.017904262
13.690214
-0.018484898
13.155341
-0.019096864
12.606781
-0.019737464
12.04485
-0.020402252
11.469666
-0.021084485
10.881144
-0.021774467
10.279022
-0.022458799
9.662946
-0.023119574
9.0326103
-0.023733601
8.387989
-0.024271801
7.729647
-0.02469901
7.0591329
-0.024974465
6.3794141
-0.025053359
5.6952908
-0.02488979
5.0136852
-0.024441284
4.3436778
-0.023674766
3.6961715
-0.022573317
3.0831172
-0.021142451
2.5163477
-0.019414215
2.0061969
-0.017447488
1.5601929
-0.01532349
1.182137
-0.013136877
0.87178952
-0.010984125
0.62521242
-0.008951865
0.43563428
-0.0071077998
0.29458541
-0.0054958543
0.19303042
-0.0041358467
0.12229323
-0.0030267639
0.074673799
-0.0021520678
0.043754749
-0.0014854168
0.024459511
-0.00099564584
0.012948203
-0.00065044074
0.0064320975
-0.00041871105
0.0029662117
-0.00027201961
0.0012542037
-0.00018552085
0.00047907878
-0.00013868045
0.00016156413
-0.0001157516
4.4871579e-05
-0.00010578617
5.9156653e-06
-0.00010203466
-6.9317802e-06
-0.00010087262
-1.1781252e-05
-0.00010061256
-1.2715107e-05
-0.0001005473
-8.1211661e-06
-0.00010036976
-0.00010003432
16.515364
-0.014771784
16.076945
-0.015170854
15.621138
-0.015599507
15.148598
-0.016058789
14.660039
-0.01654944
14.156198
-0.017071747
13.637789
-0.017625355
13.105455
-0.018209019
12.559721
-0.018820277
12.000949
-0.019455039
11.429305
-0.020107082
10.844755
-0.020767427
10.247083
-0.021423644
9.6359662
-0.022059082
9.0111135
-0.022652123
8.3724776
-0.023175596
7.7205555
-0.023596529
7.0567659
-0.023876542
6.3838753
-0.023973211
5.7064107
-0.023842721
5.0309608
-0.023444015
4.3662439
-0.022744367
3.7228199
-0.021725764
3.1123761
-0.020391
2.5466156
-0.018767892
2.0359118
-0.016909994
1.5880012
-0.014892835
1.2070244
-0.012805824
0.89314688
-0.010741351
0.64282924
-0.0087835589
0.4496329
-0.0069993022
0.30532182
-0.0054330384
0.20098954
-0.004106068
0.12799937
-0.003019355
0.078627166
-0.0021584568
0.046395001
-0.0014990213
0.026151172