/*--------------------------------*- C++ -*----------------------------------*\
| =========                 |                                                 |
| \\      /  F ield         | OpenFOAM: The Open Source CFD Toolbox           |
|  \\    /   O peration     | Version:  4.0                                   |
|   \\  /    A nd           | Web:      www.OpenFOAM.org                      |
|    \\/     M anipulation  |                                                 |
\*---------------------------------------------------------------------------*/
FoamFile
{
    version     2.0;
    format      ascii;
    class       volScalarField;
    location    "669";
    object      T;
}
// * * * * * * * * * * * * * * * * * * * * * * * * * * * * * * * * * * * * * //

dimensions      [0 0 0 1 0 0 0];

internalField   nonuniform List<scalar> 
5000
(
307.14149
306.503
305.82596
305.11287
304.36751
303.59501
302.80188
301.99599
301.18639
300.38307
299.59657
298.83753
298.11612
297.44151
296.8214
296.26154
295.76549
295.33456
294.96781
294.66235
294.41365
294.21598
294.06287
293.94763
293.86351
293.80412
293.7637
293.73729
293.72078
293.71095
293.70542
293.70247
293.70101
293.70033
293.70003
293.69992
293.69987
293.69986
293.69986
293.69986
293.69986
293.69986
293.69986
293.69986
293.69986
293.69986
293.69986
293.69986
293.69986
293.69986
309.78292
309.20513
308.58887
307.93368
307.23968
306.50773
305.73959
304.93814
304.10758
303.2536
302.3835
301.50625
300.63235
299.77357
298.94249
298.15185
297.41375
296.73879
296.1352
295.60826
295.15984
294.78844
294.4895
294.25601
294.07935
293.9501
293.85886
293.79689
293.7565
293.73134
293.71643
293.70805
293.70361
293.70141
293.7004
293.69997
293.6998
293.69973
293.69971
293.69971
293.69971
293.69971
293.69971
293.69971
293.69971
293.69971
293.69971
293.69971
293.69971
293.69972
310.92642
310.37574
309.78802
309.16241
308.49842
307.79606
307.05595
306.27947
305.46902
304.62813
303.76175
302.87639
301.98023
301.08315
300.19659
299.33315
298.50605
297.7283
297.01178
296.36628
295.79864
295.31222
294.90669
294.57827
294.3203
294.12413
293.97997
293.87784
293.80828
293.7629
293.73466
293.71796
293.70863
293.70374
293.70135
293.70027
293.69981
293.69964
293.69958
293.69957
293.69956
293.69956
293.69956
293.69956
293.69956
293.69956
293.69956
293.69956
293.69957
293.69958
311.5931
311.05833
310.48748
309.87959
309.23399
308.55039
307.82899
307.07062
306.27688
305.45037
304.59482
303.71537
302.81869
301.91312
301.00867
300.1169
299.25049
298.4227
297.64652
296.9337
296.29378
295.73324
295.25495
294.85807
294.53827
294.28845
294.09959
293.9617
293.86471
293.79919
293.75684
293.73077
293.71557
293.70722
293.70292
293.70087
293.69997
293.6996
293.69947
293.69943
293.69942
293.69941
293.69941
293.69941
293.69941
293.69941
293.69941
293.69942
293.69942
293.69944
312.07208
311.54878
310.99014
310.39516
309.76308
309.09349
308.38638
307.64226
306.86233
306.04861
305.20413
304.33313
303.44125
302.53568
301.62526
300.72045
299.83311
298.97609
298.16254
297.40507
296.71472
296.10004
295.56631
295.1151
294.74428
294.4485
294.21986
294.0489
293.92553
293.83983
293.78275
293.74642
293.72446
293.71192
293.7052
293.70184
293.70029
293.69964
293.69939
293.6993
293.69927
293.69927
293.69926
293.69926
293.69926
293.69926
293.69927
293.69927
293.69928
293.6993
312.4372
311.92266
311.37335
310.78825
310.16655
309.50775
308.81173
308.07881
307.30992
306.50674
305.67182
304.80883
303.92269
303.01978
302.10805
301.19707
300.29789
299.4228
298.58473
297.79656
297.07013
296.41529
295.83903
295.3448
294.93238
294.59799
294.33497
294.1346
293.98704
293.88226
293.81074
293.76399
293.73487
293.71769
293.70814
293.70319
293.70081
293.69976
293.69934
293.69918
293.69913
293.69912
293.69912
293.69912
293.69912
293.69912
293.69912
293.69913
293.69914
293.69917
312.73363
312.22622
311.68451
311.10745
310.49424
309.8443
309.15743
308.43382
307.67423
306.88007
306.05357
305.19797
304.31766
303.41839
302.50741
301.59355
300.68718
299.79999
298.94457
298.1338
297.37994
296.6937
296.08329
295.55369
295.1062
294.73854
294.44522
294.21833
294.04847
293.92566
293.84015
293.783
293.74652
293.7244
293.71173
293.70493
293.70154
293.69998
293.69933
293.69909
293.699
293.69898
293.69897
293.69897
293.69897
293.69897
293.69897
293.69898
293.699
293.69903
312.98138
312.47993
311.94457
311.37427
310.76816
310.12567
309.44652
308.7308
307.97915
307.19278
306.37369
305.52476
304.65001
303.75468
302.84547
301.93059
301.0198
300.12426
299.25618
298.42828
297.65302
296.94166
296.30332
295.74415
295.26679
294.87021
294.55006
294.29927
294.10892
293.96922
293.87032
293.803
293.75913
293.73189
293.71588
293.70704
293.70248
293.70032
293.69938
293.69901
293.69888
293.69883
293.69882
293.69882
293.69882
293.69882
293.69883
293.69884
293.69886
293.69889
313.19408
312.69776
312.16786
311.60335
311.00338
310.36731
309.69483
308.98597
308.24125
307.46174
306.64923
305.80637
304.93683
304.04547
303.13853
302.2237
301.31021
300.40872
299.53106
298.68975
297.8973
297.16532
296.50362
295.91928
295.41603
294.994
294.64986
294.37734
294.16808
294.01254
293.90088
293.82368
293.77247
293.74003
293.72054
293.70949
293.70364
293.70077
293.69948
293.69895
293.69876
293.6987
293.69868
293.69867
293.69867
293.69868
293.69868
293.69869
293.69871
293.69874
313.37998
312.88813
312.36302
311.80359
311.20898
310.57855
309.91194
309.20912
308.47052
307.69712
306.89054
306.05321
305.18853
304.30106
303.39662
302.48249
301.56742
300.66164
299.7766
298.92457
298.11803
297.36884
296.68729
296.08121
295.55529
295.11064
294.74487
294.45251
294.22575
294.05535
293.93154
293.84479
293.78636
293.74871
293.72563
293.71226
293.705
293.70134
293.69964
293.69893
293.69865
293.69856
293.69853
293.69853
293.69853
293.69853
293.69854
293.69855
293.69857
293.6986
313.5449
313.05703
312.53616
311.98125
311.39141
310.76599
310.1046
309.40718
308.67408
307.90618
307.10496
306.2727
305.41257
304.52884
303.62701
302.71398
301.7981
300.88919
299.99835
299.1376
298.31933
297.55553
296.85687
296.23181
295.68581
295.22088
294.83549
294.5249
294.28188
294.0975
293.96213
293.86615
293.80066
293.75783
293.73111
293.71533
293.70657
293.70203
293.69987
293.69893
293.69856
293.69843
293.69839
293.69838
293.69838
293.69838
293.69839
293.69841
293.69843
293.69846
313.69293
313.20864
312.69158
312.14072
311.55518
310.93427
310.27759
309.58503
308.85691
308.094
307.29769
306.4701
305.61422
304.73407
303.83488
302.9232
302.00705
301.09586
300.2004
299.33245
298.50427
297.72792
297.01436
296.37255
295.80863
295.32538
294.92206
294.59465
294.33645
294.1389
293.9925
293.88765
293.81526
293.76729
293.73692
293.71866
293.70831
293.70284
293.70017
293.69897
293.69848
293.69831
293.69825
293.69824
293.69823
293.69824
293.69825
293.69826
293.69829
293.69832
313.8271
313.34605
312.83246
312.28527
311.70362
311.08681
310.43441
309.74629
309.0227
308.26437
307.47257
306.64931
305.79741
304.92068
304.0241
303.11395
302.19791
301.28507
300.38591
299.51193
298.67529
297.88805
297.16139
296.50466
295.92461
295.4247
295.00492
294.66191
294.38951
294.17951
294.0226
293.90918
293.83008
293.77704
293.743
293.72222
293.71024
293.70377
293.70053
293.69904
293.69842
293.69819
293.69811
293.69809
293.69809
293.69809
293.6981
293.69812
293.69815
293.69818
313.94969
313.47161
312.96118
312.41736
311.83926
311.22621
310.57773
309.89368
309.17426
308.42014
307.63252
306.81329
305.96512
305.09166
304.19766
303.28913
302.37346
301.45947
300.5573
299.67826
298.83431
298.03753
297.29924
296.62915
296.03449
295.51935
295.08438
294.72685
294.4411
294.21931
294.05235
293.93068
293.84504
293.78702
293.74933
293.726
293.71233
293.7048
293.70096
293.69915
293.69837
293.69808
293.69798
293.69795
293.69794
293.69795
293.69796
293.69798
293.698
293.69803
314.06248
313.58712
313.0796
312.53888
311.96407
311.35446
310.70961
310.02931
309.31375
308.56353
307.7798
306.96433
306.11969
305.24934
304.35785
303.451
302.53592
301.62114
300.71654
299.83318
298.98289
298.17768
297.42901
296.74685
296.13888
295.60975
295.1607
294.7896
294.49128
294.2583
294.08173
293.9521
293.8601
293.79718
293.75586
293.72996
293.71456
293.70595
293.70145
293.69929
293.69835
293.69797
293.69784
293.6978
293.6978
293.6978
293.69781
293.69783
293.69786
293.69789
314.16686
313.69403
313.1892
312.65134
312.07957
311.47317
310.83167
310.15486
309.44288
308.69631
307.9162
307.10427
306.26295
305.39557
304.50653
303.60139
302.68704
301.77177
300.86519
299.97814
299.12228
298.30959
297.55159
296.85848
296.23833
295.69628
295.23413
294.85031
294.54012
294.29649
294.11071
293.97339
293.87521
293.80748
293.76257
293.7341
293.71694
293.70719
293.70202
293.69948
293.69834
293.69788
293.69771
293.69766
293.69765
293.69766
293.69767
293.69769
293.69772
293.69775
314.26394
313.79346
313.29114
312.75596
312.18701
311.5836
310.94522
310.27166
309.56303
308.81986
308.04316
307.23455
306.39638
305.53185
304.64518
303.74176
302.82826
301.91272
301.00453
300.11431
299.25355
298.43417
297.66773
296.96464
296.33328
295.77926
295.30489
294.9091
294.58768
294.33389
294.13928
293.99454
293.89034
293.81789
293.76943
293.73839
293.71945
293.70853
293.70265
293.6997
293.69835
293.69779
293.69759
293.69752
293.69751
293.69751
293.69752
293.69755
293.69757
293.6976
314.35466
313.88637
313.3864
312.85371
312.2874
311.68678
311.05132
310.38081
309.67532
308.93535
308.16185
307.35639
306.5212
305.65939
304.77503
303.87333
302.96075
302.04513
301.13563
300.24267
299.37758
298.55218
297.77808
297.06584
296.42414
295.85898
295.37316
294.96609
294.63401
294.37053
294.16742
294.01551
293.90545
293.82839
293.77642
293.7428
293.72207
293.70997
293.70334
293.69996
293.69839
293.69772
293.69747
293.69738
293.69736
293.69737
293.69738
293.6974
293.69743
293.69746
314.43974
313.97352
313.47574
312.94539
312.38158
311.78357
311.15087
310.48321
309.78068
309.04372
308.27325
307.47076
306.63842
305.77921
304.89708
303.99708
303.0855
302.16995
301.25939
300.36404
299.49509
298.66427
297.88317
297.16252
296.51124
295.93569
295.43912
295.0214
294.67918
294.40642
294.19515
294.03629
293.92053
293.83895
293.78351
293.74734
293.7248
293.71149
293.70409
293.70026
293.69844
293.69766
293.69735
293.69725
293.69722
293.69722
293.69724
293.69726
293.69729
293.69731
314.51983
314.05555
313.55985
313.0317
312.47023
311.87469
311.24457
310.57962
309.87987
309.14576
308.37815
307.57849
306.74886
305.89215
305.01218
304.11387
303.20332
302.28796
301.37656
300.47914
299.60674
298.77099
297.9835
297.25508
296.59488
296.00962
295.50292
295.0751
294.72323
294.44159
294.22245
294.05687
293.93555
293.84954
293.79069
293.75198
293.72764
293.71309
293.7049
293.7006
293.69852
293.6976
293.69724
293.69711
293.69708
293.69708
293.69709
293.69711
293.69714
293.69717
314.59546
314.13301
313.63926
313.1132
312.55393
311.96073
311.33306
310.67066
309.97356
309.24214
308.47725
307.68028
306.85323
305.99892
305.12106
304.2244
303.31491
302.39985
301.48778
300.58855
299.71306
298.87283
298.07946
297.34384
296.67534
296.08095
295.5647
295.12731
294.76622
294.47606
294.24934
294.07724
293.95051
293.86015
293.79794
293.75671
293.73055
293.71477
293.70577
293.70098
293.69862
293.69756
293.69713
293.69698
293.69694
293.69693
293.69695
293.69697
293.697
293.69702
314.66707
314.20635
313.71446
313.19038
312.6332
312.04221
311.41686
310.75688
310.06228
309.33343
308.57113
307.77672
306.95215
306.10015
305.22431
304.32929
303.42089
302.50619
301.59361
300.6928
299.81452
298.9702
298.17141
297.42911
296.75284
296.14988
295.6246
295.17809
294.80819
294.50985
294.2758
294.09738
293.96538
293.87078
293.80524
293.76152
293.73355
293.71651
293.70669
293.70139
293.69874
293.69753
293.69703
293.69685
293.6968
293.69679
293.6968
293.69683
293.69685
293.69688
314.73505
314.27598
313.78586
313.26364
312.70846
312.11956
311.49642
310.83874
310.14653
309.42012
308.66029
307.86832
307.04613
306.19634
305.32248
304.42906
303.52176
302.6075
301.69453
300.79234
299.91155
299.06348
298.25967
297.51115
296.8276
296.21655
295.68271
295.22752
294.8492
294.54299
294.30186
294.1173
293.98017
293.88139
293.81259
293.7664
293.73663
293.71832
293.70767
293.70184
293.69889
293.69751
293.69694
293.69672
293.69666
293.69665
293.69666
293.69668
293.69671
293.69673
314.79974
314.34224
313.85379
313.33336
312.78006
312.19317
311.57213
310.91665
310.2267
309.50262
308.74515
307.95553
307.13562
306.28797
305.41601
304.52417
303.61797
302.70421
301.79095
300.88756
300.0045
299.15298
298.34453
297.59019
296.89981
296.28112
295.73915
295.27568
294.88928
294.57549
294.32752
294.137
293.99485
293.89199
293.81998
293.77133
293.73977
293.7202
293.70869
293.70233
293.69906
293.69751
293.69685
293.6966
293.69652
293.69651
293.69652
293.69654
293.69657
293.69658
314.86142
314.40542
313.91857
313.39984
312.84835
312.26336
311.64433
310.99094
310.30317
309.58132
308.8261
308.03873
307.221
306.37542
305.50532
304.61501
303.70992
302.7967
301.88326
300.97881
300.09368
299.239
298.42622
297.66645
296.96962
296.34371
295.794
295.32263
294.92847
294.60737
294.35278
294.15647
294.00942
293.90256
293.82738
293.77632
293.74296
293.72213
293.70976
293.70285
293.69925
293.69752
293.69677
293.69648
293.69638
293.69636
293.69637
293.6964
293.69642
293.69644
314.92035
314.46578
313.98046
313.46336
312.91359
312.33043
311.71331
311.06193
310.37623
309.65651
308.90346
308.11825
307.30263
306.45904
305.59074
304.70194
303.79796
302.88531
301.97177
301.0664
300.17939
299.32179
298.50498
297.7401
297.0372
296.40444
295.84737
295.36843
294.96681
294.63866
294.37765
294.1757
294.02388
293.9131
293.83481
293.78135
293.74621
293.72411
293.71087
293.7034
293.69946
293.69754
293.69669
293.69636
293.69625
293.69622
293.69623
293.69625
293.69628
293.69629
314.97676
314.52356
314.03969
313.52415
312.97604
312.39462
311.77934
311.12988
310.44617
309.7285
308.97753
308.1944
307.3808
306.53914
305.67258
304.78527
303.88239
302.97034
302.05677
301.1506
300.26188
299.40157
298.58101
297.81133
297.10269
296.46342
295.89932
295.41313
295.00434
294.66938
294.40215
294.19472
294.03822
293.9236
293.84224
293.78641
293.74951
293.72613
293.71202
293.70398
293.69969
293.69758
293.69662
293.69624
293.69611
293.69608
293.69609
293.69611
293.69613
293.69615
315.03084
314.57895
314.09649
313.58244
313.03591
312.45617
311.84265
311.19503
310.51324
309.79753
309.04856
308.26742
307.45579
306.61598
305.75113
304.86527
303.96349
303.05206
302.13852
301.23164
300.34138
299.47855
298.65447
297.88028
297.1662
296.52074
295.94993
295.45679
295.04109
294.69955
294.42627
294.2135
294.05244
293.93405
293.84967
293.7915
293.75285
293.7282
293.71322
293.70459
293.69995
293.69762
293.69656
293.69613
293.69598
293.69594
293.69594
293.69596
293.69599
293.696
315.08276
314.63213
314.15102
313.6384
313.0934
312.51526
311.90344
311.25759
310.57764
309.86383
309.11678
308.33757
307.52782
306.68983
305.82662
304.94218
304.04149
303.13071
302.21725
301.30976
300.41807
299.55292
298.72554
297.94709
297.22786
296.57651
295.99928
295.49945
295.0771
294.72918
294.45004
294.23206
294.06654
293.94445
293.8571
293.79662
293.75623
293.73031
293.71444
293.70524
293.70022
293.69768
293.69651
293.69602
293.69585
293.6958
293.6958
293.69582
293.69584
293.69585
315.13269
314.68328
314.20346
313.69222
313.14868
312.57209
311.9619
311.31775
310.63957
309.92758
309.18239
308.40504
307.59713
306.76087
305.89928
305.01622
304.11661
303.2065
302.29317
301.38515
300.49217
299.62484
298.79437
298.01189
297.28776
296.63079
296.04741
295.54116
295.11238
294.7583
294.47345
294.2504
294.08051
293.95479
293.86452
293.80176
293.75964
293.73246
293.71571
293.70591
293.70052
293.69776
293.69647
293.69592
293.69572
293.69566
293.69566
293.69567
293.6957
293.69571
315.18076
314.73252
314.25394
313.74404
313.20191
312.62681
312.01819
311.37568
310.69921
309.98898
309.24557
308.47002
307.66388
306.82933
305.9693
305.0876
304.18906
303.27962
302.36646
301.45799
300.56381
299.69447
298.86109
298.07479
297.34602
296.68367
296.0944
295.58197
295.14698
294.78692
294.49653
294.26852
294.09436
293.96508
293.87192
293.80691
293.76307
293.73464
293.717
293.7066
293.70083
293.69785
293.69643
293.69582
293.69559
293.69552
293.69551
293.69553
293.69555
293.69556
315.22711
314.77999
314.30262
313.79399
313.25322
312.67956
312.07245
311.43153
310.75671
310.04817
309.3065
308.53269
307.72826
306.89536
306.03685
305.15648
304.259
303.35025
302.43729
301.52844
300.63317
299.76194
298.92581
298.13591
297.4027
296.73522
296.14029
295.62191
295.18092
294.81505
294.51927
294.28643
294.10809
293.9753
293.87931
293.81207
293.76654
293.73686
293.71833
293.70732
293.70116
293.69795
293.6964
293.69572
293.69546
293.69538
293.69537
293.69539
293.69541
293.69542
315.27184
314.82581
314.3496
313.84221
313.30275
312.73048
312.12483
311.48544
310.81221
310.10532
309.36532
308.59319
307.79043
306.95912
306.1021
305.22304
304.3266
303.41854
302.50582
301.59664
300.70037
299.82738
298.98867
298.19534
297.45791
296.78551
296.18514
295.66101
295.21422
294.84272
294.54168
294.30412
294.12169
293.98547
293.88668
293.81723
293.77002
293.7391
293.71968
293.70807
293.70152
293.69806
293.69637
293.69563
293.69534
293.69524
293.69523
293.69524
293.69526
293.69527
315.31506
314.87008
314.39499
313.8888
313.35061
312.77968
312.17544
311.53754
310.86584
310.16054
309.42216
308.65167
307.85051
307.02076
306.16519
305.28741
304.392
303.48464
302.57219
301.66273
300.76555
299.89091
299.04975
298.25317
297.5117
296.83459
296.22899
295.69932
295.24691
294.86994
294.56379
294.32161
294.13517
293.99557
293.89403
293.82241
293.77353
293.74136
293.72106
293.70884
293.70189
293.69818
293.69636
293.69554
293.69522
293.69511
293.69509
293.6951
293.69512
293.69512
315.35686
314.9129
314.4389
313.93386
313.3969
312.82727
312.2244
311.58792
310.91772
310.21396
309.47715
308.70824
307.90865
307.08042
306.22626
305.34973
304.45534
303.54868
302.63651
301.72683
300.82881
299.95262
299.10916
298.30948
297.56416
296.88253
296.27189
295.73687
295.27901
294.89673
294.58558
294.3389
294.14852
294.0056
293.90136
293.82758
293.77705
293.74365
293.72246
293.70963
293.70228
293.69832
293.69635
293.69546
293.6951
293.69497
293.69495
293.69495
293.69497
293.69498
315.39734
314.95436
314.48141
313.97749
313.44172
312.87334
312.2718
311.63671
310.96795
310.26568
309.5304
308.76302
307.96496
307.1382
306.28542
305.41011
304.51673
303.61078
302.69892
301.78906
300.89026
300.01263
299.16698
298.36435
297.61534
296.92937
296.31388
295.77368
295.31054
294.92309
294.60708
294.35599
294.16175
294.01557
293.90865
293.83275
293.78058
293.74596
293.72389
293.71044
293.70268
293.69847
293.69635
293.69538
293.69498
293.69484
293.6948
293.69481
293.69482
293.69483
315.43656
314.99453
314.5226
314.01977
313.48515
312.91799
312.31773
311.68399
311.01663
310.31581
309.58201
308.81613
308.01954
307.19422
306.34278
305.46868
304.57629
303.67104
302.75952
301.84951
300.95001
300.07102
299.22329
298.41785
297.66531
296.97517
296.355
295.8098
295.34153
294.94904
294.62829
294.37288
294.17487
294.02548
293.91592
293.83792
293.78413
293.7483
293.72534
293.71128
293.7031
293.69863
293.69636
293.69531
293.69486
293.6947
293.69466
293.69467
293.69468
293.69469
315.4746
315.0335
314.56255
314.06077
313.52727
312.9613
312.36229
311.72985
311.06385
310.36443
309.63207
308.86764
308.0725
307.24857
306.39845
305.52553
304.63412
303.72958
302.8184
301.90829
301.00813
300.12787
299.27818
298.47005
297.71412
297.01997
296.39528
295.84523
295.37199
294.97461
294.64922
294.38959
294.18786
294.03532
293.92316
293.84309
293.78769
293.75064
293.72681
293.71213
293.70354
293.69881
293.69638
293.69524
293.69475
293.69457
293.69452
293.69452
293.69453
293.69454
315.51152
315.07132
314.60134
314.10058
313.56816
313.00334
312.40554
311.77437
311.10969
310.41164
309.68067
308.91765
308.12392
307.30136
306.45252
305.58076
304.69032
303.78648
302.87566
301.96547
301.06472
300.18325
299.3317
298.521
297.76183
297.06381
296.43476
295.88002
295.40195
294.99979
294.66987
294.40611
294.20073
294.04509
293.93037
293.84825
293.79125
293.75301
293.7283
293.713
293.70399
293.69899
293.6964
293.69517
293.69464
293.69444
293.69438
293.69438
293.69439
293.6944
315.54739
315.10806
314.63901
314.13925
313.60788
313.04418
312.44755
311.81762
311.15422
310.4575
309.72789
308.96625
308.17388
307.35265
306.50508
305.63445
304.74496
303.84182
302.93138
302.02115
301.11985
300.23725
299.38392
298.57077
297.80848
297.10674
296.47347
295.91418
295.43141
295.0246
294.69026
294.42244
294.21349
294.05479
293.93755
293.8534
293.79483
293.75539
293.7298
293.71389
293.70446
293.69919
293.69644
293.69511
293.69453
293.69431
293.69424
293.69424
293.69425
293.69425
315.58226
315.14378
314.67564
314.17684
313.6465
313.08388
312.4884
311.85966
311.19752
310.50209
309.77381
309.0135
308.22247
307.40254
306.5562
305.68668
304.79813
303.8957
302.98563
302.07539
301.17359
300.28993
299.43491
298.61941
297.85413
297.14879
296.51145
295.94774
295.4604
295.04905
294.71038
294.4386
294.22614
294.06443
293.9447
293.85855
293.79841
293.75779
293.73133
293.71479
293.70494
293.6994
293.69648
293.69506
293.69443
293.69418
293.69411
293.69409
293.6941
293.6941
315.61619
315.17853
314.71127
314.21341
313.68407
313.12251
312.52814
311.90057
311.23964
310.54547
309.81848
309.05948
308.26975
307.45109
306.60595
305.73753
304.84991
303.94817
303.0385
302.12826
301.22601
300.34134
299.48471
298.66697
297.8988
297.19
296.54871
295.98072
295.48893
295.07316
294.73026
294.45459
294.23867
294.074
293.95181
293.86368
293.80199
293.76019
293.73287
293.71571
293.70544
293.69962
293.69653
293.69501
293.69433
293.69406
293.69397
293.69395
293.69396
293.69396
315.64922
315.21236
314.74596
314.24902
313.72065
313.16011
312.56683
311.94039
311.28065
310.5877
309.86197
309.10425
308.31579
307.49837
306.65441
305.78706
304.90036
303.99931
303.09004
302.17984
301.27716
300.39155
299.53339
298.7135
297.94255
297.2304
296.58529
296.01313
295.51701
295.09692
294.74989
294.47041
294.25109
294.08351
293.95889
293.8688
293.80558
293.76261
293.73442
293.71665
293.70595
293.69985
293.69658
293.69496
293.69423
293.69393
293.69383
293.69381
293.69381
293.69381
315.68139
315.24532
314.77975
314.2837
313.75628
313.19674
312.60451
311.97919
311.3206
310.62885
309.90434
309.14787
308.36065
307.54444
306.70164
305.83534
304.94954
304.04919
303.14033
302.23018
301.32712
300.44061
299.58099
298.75903
297.98541
297.27003
296.62121
296.04501
295.54467
295.12037
294.76928
294.48606
294.26341
294.09295
293.96594
293.87392
293.80917
293.76504
293.73599
293.7176
293.70647
293.70009
293.69665
293.69492
293.69413
293.69381
293.69369
293.69367
293.69367
293.69367
315.71275
315.27744
314.81269
314.3175
313.79101
313.23245
312.64125
312.01701
311.35955
310.66896
309.94565
309.19039
308.40438
307.58937
306.74769
305.88243
304.99752
304.09785
303.18941
302.27933
301.37592
300.48858
299.62756
298.80361
298.02742
297.30891
296.6565
296.07637
295.57192
295.14349
294.78844
294.50154
294.27562
294.10233
293.97296
293.87902
293.81277
293.76748
293.73757
293.71856
293.70701
293.70034
293.69672
293.69489
293.69404
293.69368
293.69356
293.69353
293.69352
293.69353
315.74333
315.30877
314.84481
314.35047
313.82488
313.26727
312.67708
312.05389
311.39753
310.70808
309.98594
309.23186
308.44704
307.63319
306.79262
305.92838
305.04435
304.14536
303.23734
302.32735
301.42362
300.53549
299.67313
298.84728
298.06861
297.34707
296.69117
296.10722
295.59876
295.16631
294.80738
294.51687
294.28772
294.11165
293.97994
293.8841
293.81636
293.76993
293.73917
293.71954
293.70756
293.7006
293.6968
293.69486
293.69395
293.69356
293.69342
293.69338
293.69338
293.69338
315.77317
315.33934
314.87616
314.38265
313.85793
313.30126
312.71204
312.08988
311.43459
310.74626
310.02526
309.27234
308.48868
307.67597
306.83649
305.97325
305.09008
304.19177
303.28418
302.37429
301.47028
300.58139
299.71776
298.89008
298.109
297.38454
296.72526
296.13758
295.62522
295.18883
294.82609
294.53205
294.29972
294.1209
293.98689
293.88918
293.81995
293.77239
293.74077
293.72053
293.70812
293.70087
293.69688
293.69483
293.69386
293.69344
293.69329
293.69324
293.69324
293.69324
315.80231
315.36918
314.90676
314.41406
313.8902
313.33443
312.74618
312.12502
311.47078
310.78354
310.06365
309.31187
308.52935
307.71775
306.87933
306.01707
305.13476
304.23712
303.32996
302.4202
301.51592
300.62632
299.76148
298.93203
298.14864
297.42134
296.75877
296.16748
295.65129
295.21106
294.84459
294.54707
294.31162
294.13009
293.9938
293.89424
293.82355
293.77485
293.74239
293.72154
293.70869
293.70115
293.69698
293.69481
293.69378
293.69333
293.69316
293.6931
293.69309
293.69309
315.83077
315.39834
314.93666
314.44475
313.92172
313.36685
312.77952
312.15935
311.50614
310.81995
310.10116
309.35049
308.56908
307.75857
306.9212
306.05991
305.17843
304.28147
303.37474
302.46511
301.5606
300.67033
299.80432
298.97318
298.18755
297.4575
296.79174
296.19691
295.67701
295.233
294.86288
294.56195
294.32343
294.13922
294.00069
293.89929
293.82714
293.77732
293.74402
293.72256
293.70928
293.70144
293.69708
293.6948
293.6937
293.69321
293.69302
293.69296
293.69295
293.69295
315.85859
315.42683
314.96588
314.47473
313.95253
313.39852
312.81211
312.1929
311.54069
310.85554
310.13782
309.38823
308.60791
307.79847
306.96213
306.10179
305.22115
304.32484
303.41855
302.50907
301.60435
300.71344
299.84632
299.01354
298.22575
297.49304
296.82417
296.22591
295.70236
295.25467
294.88097
294.57668
294.33513
294.14829
294.00753
293.90432
293.83073
293.7798
293.74566
293.72358
293.70987
293.70174
293.69719
293.69479
293.69362
293.6931
293.69289
293.69283
293.69281
293.69281
315.88578
315.45469
314.99445
314.50406
313.98266
313.42949
312.84398
312.22571
311.57448
310.89035
310.17367
309.42515
308.64589
307.8375
307.00217
306.14276
305.26294
304.36729
303.46144
302.55212
301.64721
300.7557
299.88751
299.05316
298.26328
297.52797
296.85609
296.25447
295.72738
295.27608
294.89885
294.59127
294.34674
294.1573
294.01435
293.90934
293.83432
293.78228
293.74731
293.72462
293.71048
293.70205
293.6973
293.69478
293.69355
293.69299
293.69276
293.69269
293.69267
293.69266
315.91239
315.48195
315.02239
314.53274
314.01212
313.45979
312.87515
312.2578
311.60753
310.92439
310.20874
309.46126
308.68305
307.87569
307.04135
306.18286
305.30385
304.40885
303.50344
302.59429
301.68921
300.79713
299.92792
299.09205
298.30015
297.56233
296.88751
296.28263
295.75205
295.29722
294.91654
294.60572
294.35826
294.16626
294.02113
293.91434
293.8379
293.78477
293.74897
293.72567
293.71109
293.70237
293.69742
293.69478
293.69348
293.69288
293.69263
293.69255
293.69252
293.69252
315.93843
315.50862
315.04974
314.56081
314.04096
313.48944
312.90566
312.28921
311.63987
310.95772
310.24306
309.4966
308.71942
307.91307
307.0797
306.22212
305.3439
304.44956
303.54459
302.63561
301.73039
300.83777
299.96758
299.13025
298.33638
297.59613
296.91845
296.31037
295.77641
295.31811
294.93405
294.62003
294.36968
294.17515
294.02788
293.91933
293.84149
293.78726
293.75063
293.72673
293.71172
293.7027
293.69756
293.69479
293.69341
293.69277
293.69251
293.69241
293.69238
293.69238
315.96392
315.53473
315.07652
314.5883
314.0692
313.51847
312.93553
312.31995
311.67154
310.99034
310.27667
309.53121
308.75503
307.94968
307.11726
306.26057
305.38314
304.48944
303.58492
302.67613
301.77077
300.87765
300.00651
299.16777
298.372
297.62938
296.94892
296.33773
295.80044
295.33876
294.95137
294.63421
294.38102
294.18399
294.0346
293.9243
293.84507
293.78975
293.75231
293.7278
293.71236
293.70304
293.69769
293.6948
293.69334
293.69267
293.69238
293.69228
293.69224
293.69224
315.98888
315.56031
315.10274
314.61521
314.09685
313.5469
312.96478
312.35007
311.70256
311.0223
310.30959
309.56511
308.78992
307.98554
307.15406
306.29825
305.4216
304.52853
303.62445
302.71586
301.81039
300.91679
300.04475
299.20464
298.40704
297.66211
296.97893
296.36471
295.82417
295.35916
294.9685
294.64827
294.39226
294.19277
294.04129
293.92926
293.84864
293.79225
293.75399
293.72888
293.713
293.70338
293.69784
293.69482
293.69329
293.69256
293.69226
293.69214
293.6921
293.69209
316.01335
315.58537
315.12844
314.64159
314.12394
313.57476
312.99345
312.37958
311.73296
311.05361
310.34185
309.59833
308.8241
308.02068
307.19013
306.33518
305.4593
304.56686
303.66323
302.75484
301.84928
300.95522
300.08231
299.24089
298.4415
297.69433
297.00851
296.39132
295.8476
295.37933
294.98546
294.66219
294.40342
294.20149
294.04794
293.93421
293.85222
293.79476
293.75568
293.72997
293.71366
293.70374
293.69799
293.69484
293.69323
293.69246
293.69213
293.692
293.69196
293.69195
316.03732
315.60993
315.15362
314.66744
314.1505
313.60207
313.02155
312.40851
311.76275
311.0843
310.37347
309.63089
308.85762
308.05514
307.2255
306.37139
305.49627
304.60446
303.70127
302.7931
301.88745
300.99296
300.11922
299.27652
298.4754
297.72606
297.03766
296.41757
295.87074
295.39927
295.00225
294.67599
294.4145
294.21016
294.05456
293.93913
293.85578
293.79726
293.75738
293.73107
293.71432
293.7041
293.69815
293.69487
293.69318
293.69237
293.69201
293.69187
293.69182
293.69181
316.06083
315.63401
315.17832
314.69279
314.17655
313.62885
313.0491
312.43687
311.79197
311.1144
310.40447
309.66283
308.89048
308.08893
307.26018
306.40691
305.53254
304.64135
303.73861
302.83065
301.92494
301.03004
300.1555
299.31157
298.50877
297.75732
297.0664
296.44347
295.8936
295.41899
295.01887
294.68967
294.42549
294.21878
294.06115
293.94405
293.85935
293.79977
293.75908
293.73217
293.715
293.70447
293.69831
293.6949
293.69313
293.69227
293.69189
293.69174
293.69169
293.69167
316.08389
315.65763
315.20254
314.71765
314.20209
313.65511
313.07612
312.4647
311.82062
311.14392
310.43489
309.69415
308.92273
308.12208
307.29421
306.44177
305.56814
304.67757
303.77527
302.86753
301.96176
301.06648
300.19117
299.34605
298.54162
297.7881
297.09473
296.46904
295.91618
295.43849
295.03533
294.70323
294.43639
294.22734
294.06771
293.94894
293.86291
293.80228
293.76079
293.73329
293.71568
293.70485
293.69849
293.69494
293.69308
293.69218
293.69177