/*--------------------------------*- C++ -*----------------------------------*\
| =========                 |                                                 |
| \\      /  F ield         | OpenFOAM: The Open Source CFD Toolbox           |
|  \\    /   O peration     | Version:  4.0                                   |
|   \\  /    A nd           | Web:      www.OpenFOAM.org                      |
|    \\/     M anipulation  |                                                 |
\*---------------------------------------------------------------------------*/
FoamFile
{
    version     2.0;
    format      ascii;
    class       volVectorField;
    location    "669";
    object      U;
}
// * * * * * * * * * * * * * * * * * * * * * * * * * * * * * * * * * * * * * //

dimensions      [0 1 -1 0 0 0 0];

internalField   nonuniform List<vector> 
5000
(
(3.1537709e-06 -2.4743035e-21 0.003241196)
(4.1498803e-07 -7.6492203e-21 0.0095077099)
(9.1681195e-06 -1.2940083e-20 0.015822355)
(1.5812183e-05 -1.8747354e-20 0.022117474)
(2.4455782e-05 -2.4233721e-20 0.028316896)
(3.5002987e-05 -2.8194866e-20 0.034337423)
(4.7091747e-05 -3.8858206e-20 0.040091155)
(6.0183832e-05 -4.466386e-20 0.045488637)
(7.3763354e-05 -5.0906741e-20 0.050442774)
(8.7184212e-05 -5.8647627e-20 0.054873337)
(9.9706514e-05 -7.1196926e-20 0.058711799)
(0.00011054141 -8.4945619e-20 0.061906084)
(0.00011889746 -1.0018849e-19 0.064424782)
(0.00012402998 -1.121207e-19 0.066260314)
(0.0001252912 -1.2146765e-19 0.067430602)
(0.00012217576 -1.2813433e-19 0.067978917)
(0.00011435618 -1.3208709e-19 0.067971751)
(0.00010170338 -1.374763e-19 0.067494795)
(8.4290884e-05 -1.6232079e-19 0.066647317)
(6.2400326e-05 -2.274211e-19 0.065535424)
(3.6665105e-05 -3.1173254e-19 0.064264804)
(9.4063013e-06 -2.9475763e-19 0.062933571)
(-6.8770114e-07 -2.9350223e-19 0.061626395)
(-2.8588653e-05 -2.9588398e-19 0.060412908)
(-6.351056e-05 -2.9887798e-19 0.059339096)
(-0.00010105166 -3.0100613e-19 0.058429157)
(-0.00014069289 -2.8055236e-19 0.057687684)
(-0.00018251975 -1.7815831e-19 0.057103514)
(-0.00022692795 -2.0956544e-19 0.056654794)
(-0.00027452036 -2.0487696e-19 0.056314394)
(-0.00032599746 -2.3415373e-19 0.056054765)
(-0.00038199546 -2.165518e-19 0.055851532)
(-0.0004430344 -1.9175357e-19 0.055685505)
(-0.00050907951 -1.6252818e-19 0.055543163)
(-0.00058060256 -1.6021651e-19 0.055416092)
(-0.00065525754 -1.8283895e-19 0.055299558)
(-0.00073690676 -2.3215952e-19 0.055191884)
(-0.00081411709 -2.3651647e-19 0.055091267)
(-0.00090755938 -1.7440267e-19 0.055000286)
(-0.00097551037 -1.6484721e-19 0.054912722)
(-0.0010882579 -2.8388708e-19 0.054840774)
(-0.0011297736 -2.6868732e-19 0.054759723)
(-0.0012748729 -2.1237683e-19 0.054710667)
(-0.0012705346 -1.9918123e-19 0.05462109)
(-0.0014601208 -7.2080749e-20 0.054599283)
(-0.0013913628 -8.5006107e-20 0.054475014)
(-0.0016254497 -9.3805641e-20 0.054478034)
(-0.001469207 -9.3336309e-20 0.054244704)
(-0.0017052115 -9.4227538e-20 0.05393441)
(-0.0013951568 -8.9237268e-20 0.049511776)
(5.9662528e-06 -5.415854e-21 0.0035263035)
(-7.0502831e-07 -1.6295621e-20 0.0104058)
(-6.9448598e-06 -2.8151842e-20 0.017412401)
(-1.7688289e-05 -4.0717739e-20 0.024484909)
(-3.4876433e-05 -5.0434644e-20 0.031550735)
(-6.0343115e-05 -5.9610069e-20 0.038525839)
(-9.6156438e-05 -6.9429914e-20 0.045315266)
(-0.00014465441 -8.0984445e-20 0.0518145)
(-0.00020838867 -8.7725135e-20 0.057911866)
(-0.0002900009 -9.5818349e-20 0.063492172)
(-0.00039202605 -9.2296634e-20 0.068441762)
(-0.00051661693 -1.0839665e-19 0.072654969)
(-0.00066519759 -1.3700837e-19 0.076041801)
(-0.00083807162 -1.6245187e-19 0.078536342)
(-0.0010340314 -1.850285e-19 0.080105054)
(-0.0012500387 -2.0418712e-19 0.080753773)
(-0.0014810621 -2.3568369e-19 0.080532007)
(-0.0017201195 -2.6133169e-19 0.079533192)
(-0.0019584928 -1.4345317e-19 0.077889954)
(-0.0021864503 4.2917737e-21 0.075764286)
(-0.0023949502 -1.7287341e-19 0.073333633)
(-0.0025783254 -3.953817e-19 0.070774901)
(-0.0027136869 -3.5296228e-19 0.068248831)
(-0.0028180612 -3.5711571e-19 0.065886574)
(-0.0028764394 -3.9958246e-19 0.063782345)
(-0.0028912652 -4.3034587e-19 0.061990494)
(-0.0028658245 -4.7630325e-19 0.060528146)
(-0.0028052217 -2.7672902e-19 0.059381532)
(-0.0027159656 -1.4743948e-19 0.058514789)
(-0.0026053241 -2.3918215e-19 0.057879459)
(-0.0024806943 -2.1211238e-19 0.057423225)
(-0.0023490704 -1.1859667e-19 0.057096839)
(-0.002216712 -1.5538079e-19 0.056858635)
(-0.0020888318 -1.4696531e-19 0.056676574)
(-0.0019700267 -1.2836693e-19 0.056528179)
(-0.0018628553 -1.8037259e-19 0.056399108)
(-0.0017723312 -2.5408837e-19 0.056280956)
(-0.0016947055 -2.6330303e-19 0.056169455)
(-0.0016440026 -1.716392e-19 0.056062167)
(-0.0015958362 -1.4962103e-19 0.055958397)
(-0.0015968209 -2.6159899e-19 0.055857014)
(-0.0015679356 -2.8077518e-19 0.055756688)
(-0.0016336573 -2.2326437e-19 0.055658521)
(-0.0016062168 -1.7119611e-19 0.055552621)
(-0.0017488701 -6.9589811e-20 0.055452011)
(-0.0017037831 -8.5389308e-20 0.055315919)
(-0.0019337869 -9.1672635e-20 0.05518213)
(-0.0018373742 -9.27181e-20 0.054835616)
(-0.0021493759 -9.1733948e-20 0.053737526)
(-0.0015406714 -8.4594611e-20 0.04585305)
(1.1344416e-06 -1.8080583e-20 0.0039744711)
(-2.5623182e-06 -5.3923098e-20 0.011746767)
(-1.1464237e-05 -9.2490388e-20 0.019683654)
(-2.7541868e-05 -1.29026e-19 0.027718864)
(-5.2253663e-05 -1.6973181e-19 0.035772919)
(-8.7096396e-05 -2.1288579e-19 0.043752737)
(-0.0001336512 -2.5420697e-19 0.051551829)
(-0.00019356192 -2.9512371e-19 0.059051278)
(-0.00026848726 -3.254077e-19 0.066121791)
(-0.00036002933 -3.2561101e-19 0.072627068)
(-0.00046963479 -3.2924438e-19 0.078428753)
(-0.00059846287 -3.7250643e-19 0.083393099)
(-0.00074721664 -2.9116536e-19 0.087399361)
(-0.00091593776 -2.244784e-19 0.090349596)
(-0.001103771 -1.6078134e-19 0.092179182)
(-0.0013087169 -1.0232602e-19 0.092866927)
(-0.0015274066 -7.0589294e-20 0.09244317)
(-0.0017549504 -6.172657e-20 0.090994063)
(-0.001984908 8.368833e-20 0.088660344)
(-0.0022094369 2.6287095e-19 0.08562955)
(-0.0024197328 2.0119293e-19 0.082121788)
(-0.002607051 -1.4639798e-19 0.078370618)
(-0.0027621537 -2.5480001e-19 0.074601793)
(-0.0028785043 -3.1940962e-19 0.071012624)
(-0.0029510377 -3.8701348e-19 0.067757312)
(-0.0029777841 -4.4381835e-19 0.064938532)
(-0.0029599472 -4.9788404e-19 0.062605686)
(-0.0029017996 -3.9051188e-19 0.060760159)
(-0.0028102206 -2.0345563e-19 0.059365286)
(-0.0026939353 -3.0124862e-19 0.058358798)
(-0.0025625681 -2.3787318e-19 0.057665582)
(-0.0024256466 7.0052075e-20 0.057208956)
(-0.0022917162 -9.842037e-20 0.056919251)
(-0.0021676174 -1.1295926e-19 0.056739067)
(-0.0020583404 -7.7790533e-20 0.056625239)
(-0.0019662944 -7.7951701e-20 0.056548137)
(-0.0018938886 -4.7725701e-20 0.056489132)
(-0.0018377067 -2.654775e-19 0.056437763)
(-0.0018047924 -3.1108105e-19 0.056388088)
(-0.0017779127 -6.9973435e-20 0.056338196)
(-0.0017879885 3.784858e-20 0.056285147)
(-0.0017790199 -2.5849407e-19 0.056230521)
(-0.0018436407 -2.449703e-19 0.056170124)
(-0.0018405703 -2.4502112e-19 0.056105838)
(-0.0019800793 -6.9520027e-20 0.056034006)
(-0.0019709376 -6.6325933e-20 0.055938855)
(-0.0022209367 2.6461909e-20 0.055805475)
(-0.0021474075 -6.5000511e-20 0.055345494)
(-0.0025334194 7.7075337e-20 0.053524069)
(-0.0017429503 -7.6892017e-20 0.043066135)
(9.5930279e-07 -4.1489159e-20 0.0044024347)
(-2.4745332e-06 -1.2419643e-19 0.013028577)
(-1.101827e-05 -2.0900636e-19 0.021857092)
(-2.6508962e-05 -3.0262022e-19 0.030817713)
(-5.0368747e-05 -4.0571019e-19 0.039825421)
(-8.4079163e-05 -4.8850112e-19 0.048779765)
(-0.00012922454 -5.4523132e-19 0.057564723)
(-0.00018747648 -5.7486675e-19 0.066049361)
(-0.00026055561 -5.994587e-19 0.074089549)
(-0.00035017278 -6.2923095e-19 0.081531066)
(-0.00045794608 -6.8777304e-19 0.088214386)
(-0.00058528893 -7.5616271e-19 0.093981413)
(-0.000733265 -8.29019e-19 0.098684272)
(-0.00090240762 -8.9399687e-19 0.102196)
(-0.0010925068 -8.3618696e-19 0.10442261)
(-0.0013023749 -8.1217271e-19 0.10531544)
(-0.0015296131 -7.8930457e-19 0.10488225)
(-0.0017704117 -7.6807357e-19 0.10319488)
(-0.0020194357 -7.0555437e-19 0.1003915)
(-0.0022698495 -4.2422671e-19 0.09667144)
(-0.0025135301 -4.3625626e-19 0.092282122)
(-0.0027415397 -4.0008522e-19 0.087498914)
(-0.0029447086 -4.2621864e-19 0.08260047)
(-0.0031145189 -4.5949079e-19 0.077843427)
(-0.0032439011 -5.6716251e-19 0.073440743)
(-0.0033279943 -6.9636581e-19 0.069546954)
(-0.0033646623 -8.6952182e-19 0.066252001)
(-0.0033547137 -8.7959939e-19 0.06358362)
(-0.0033017917 -5.9761709e-19 0.061516656)
(-0.0032119618 -4.7304981e-19 0.059986782)
(-0.0030930668 -4.2012191e-19 0.058905957)
(-0.0029539552 -1.225628e-19 0.058177231)
(-0.0028036896 -1.1682174e-19 0.057707089)
(-0.0026508139 -9.7505737e-20 0.057414196)
(-0.0025029018 -4.8482073e-20 0.057234116)
(-0.0023658808 2.5509482e-21 0.057120297)
(-0.0022451548 9.8986468e-20 0.057042131)
(-0.0021420424 -3.4913863e-19 0.056981582)
(-0.002063666 -2.0557861e-19 0.056928777)
(-0.0020001866 -3.8331468e-20 0.05687991)
(-0.0019745382 2.0341953e-19 0.05683172)
(-0.0019455443 -1.4313458e-19 0.056786225)
(-0.0019841058 -2.3403978e-20 0.056738588)
(-0.0019763427 -2.182608e-19 0.056694052)
(-0.0020978334 -6.282492e-20 0.056643)
(-0.0020851784 6.7139918e-20 0.056571121)
(-0.0023339311 1.1524417e-20 0.056422733)
(-0.0022102164 -5.9587168e-20 0.055779621)
(-0.0025593274 4.2520345e-20 0.053153823)
(-0.0017468853 -5.4563476e-20 0.040579682)
(8.1543553e-07 -2.4541893e-20 0.0047359113)
(-1.9202456e-06 -7.3585787e-20 0.014032295)
(-8.6296241e-06 -1.2477191e-19 0.023566765)
(-2.0834081e-05 -1.8674426e-19 0.033267548)
(-3.9725208e-05 -2.573273e-19 0.043047145)
(-6.6571773e-05 -3.3525069e-19 0.052801381)
(-0.00010276684 -3.94385e-19 0.062408964)
(-0.00014982835 -4.2868225e-19 0.071731766)
(-0.0002093826 -4.4950216e-19 0.080616116)
(-0.00028313177 -4.9660833e-19 0.088895448)
(-0.00037280106 -5.2394031e-19 0.096394651)
(-0.00048005853 -5.2785017e-19 0.10293646)
(-0.00060640113 -6.5809536e-19 0.10835013)
(-0.00075300067 -8.1364771e-19 0.11248239)
(-0.00092050563 -8.4747426e-19 0.11521038)
(-0.0011088029 -8.2953769e-19 0.11645559)
(-0.001316752 -7.9505866e-19 0.11619748)
(-0.0015419205 -7.1883038e-19 0.11448446)
(-0.0017803652 -6.1625945e-19 0.11143984)
(-0.0020265179 -5.2303041e-19 0.10726036)
(-0.0022732441 -5.3981475e-19 0.10220573)
(-0.0025121266 -6.397391e-19 0.096579331)
(-0.0027339883 -6.3623532e-19 0.090702032)
(-0.0029296367 -6.6858079e-19 0.084883013)
(-0.0030907339 -7.3209571e-19 0.07939245)
(-0.003210668 -8.1709401e-19 0.074440444)
(-0.0032852854 -9.3000003e-19 0.07016515)
(-0.0033133645 -1.0436078e-18 0.066630948)
(-0.0032967547 -1.0526643e-18 0.063835485)
(-0.0032401614 -8.2406326e-19 0.061723124)
(-0.0031506091 -5.214938e-19 0.060201815)
(-0.0030366589 -3.7920245e-19 0.059160534)
(-0.0029074914 -2.181896e-19 0.058485027)
(-0.0027719861 -9.6686191e-20 0.058070178)
(-0.0026380017 -4.8311618e-20 0.057828075)
(-0.0025117039 -2.8066735e-20 0.057691578)
(-0.0023980975 -4.6347304e-20 0.057613901)
(-0.0022989838 -3.4265618e-19 0.057565546)
(-0.0022195901 -1.2520125e-20 0.057529543)
(-0.002153329 9.0806566e-20 0.0574979)
(-0.0021175782 1.0565494e-19 0.057465875)
(-0.0020813567 -7.2375066e-20 0.057434462)
(-0.0021026331 1.51526e-19 0.05739923)
(-0.0020854896 1.4618873e-20 0.057364985)
(-0.0021901232 -4.3903668e-20 0.057319499)
(-0.0021573926 1.2297506e-20 0.057235943)
(-0.0023969832 -1.0639156e-19 0.057011154)
(-0.0022343541 -7.3144708e-20 0.056086439)
(-0.0024877639 -1.5216755e-19 0.052535972)
(-0.0016637646 -5.4210892e-20 0.0380247)
(7.2237865e-07 -5.8653826e-21 0.0050362426)
(-1.7320897e-06 -1.7608855e-20 0.014936239)
(-7.7794066e-06 -3.297383e-20 0.025106518)
(-1.8785062e-05 -5.0207236e-20 0.035474065)
(-3.5824328e-05 -6.8875353e-20 0.045949339)
(-6.004477e-05 -1.130368e-19 0.056425151)
(-9.270986e-05 -1.7709738e-19 0.066775988)
(-0.00013520239 -2.3056609e-19 0.076858025)
(-0.0001890146 -2.575277e-19 0.086510099)
(-0.00025572621 -3.0550251e-19 0.095555994)
(-0.00033696658 -3.3813068e-19 0.10380841)
(-0.00043435625 -3.5777418e-19 0.11107497)
(-0.00054942145 -3.8386794e-19 0.11716668)
(-0.00068347367 -4.2281657e-19 0.12190879)
(-0.00083744912 -4.5475461e-19 0.12515408)
(-0.0010117064 -4.2221934e-19 0.12679775)
(-0.0012057862 -3.6229373e-19 0.12679269)
(-0.001418151 -2.6974356e-19 0.12516297)
(-0.0016459353 1.2351831e-20 0.122013)
(-0.0018847583 -4.5765519e-20 0.11752961)
(-0.0021286622 -8.8029434e-20 0.11197474)
(-0.0023702393 -3.4947131e-19 0.10566812)
(-0.0026009878 -5.0140713e-19 0.098961089)
(-0.0028119045 -5.9661693e-19 0.092205183)
(-0.0029942582 -6.9319567e-19 0.085720494)
(-0.003140441 -7.6931675e-19 0.079769067)
(-0.0032447684 -7.9999346e-19 0.07453739)
(-0.0033040978 -7.7016966e-19 0.070129866)
(-0.0033181722 -8.0832286e-19 0.066572782)
(-0.0032896448 -7.7120577e-19 0.063826495)
(-0.0032237896 -4.9488394e-19 0.061802708)
(-0.0031279435 -3.4049836e-19 0.060383614)
(-0.0030107521 -2.9068728e-19 0.059440231)
(-0.0028813123 -1.1503222e-19 0.058847868)
(-0.0027483561 -6.5948122e-20 0.058497383)
(-0.0026194514 -6.1171331e-20 0.058301566)
(-0.0025009526 -6.6380237e-20 0.058196782)
(-0.0023964485 -1.9074806e-19 0.058140839)
(-0.0023111279 -7.9617193e-20 0.058108301)
(-0.0022409294 2.8087946e-20 0.058085826)
(-0.0021994465 4.4850949e-20 0.058066075)
(-0.0021614351 -5.4151137e-20 0.058047786)
(-0.0021762902 6.2266808e-20 0.058026228)
(-0.0021556094 -7.2558067e-20 0.058002602)
(-0.0022558616 -4.0618533e-20 0.057961706)
(-0.0022103589 -1.34755e-19 0.057856409)
(-0.0024351551 -1.0274436e-19 0.057523956)
(-0.0022613574 -8.2523413e-20 0.05627582)
(-0.002416563 -1.4207975e-19 0.051805602)
(-0.0015671904 -5.2875397e-20 0.035612365)
(6.4877339e-07 1.2113744e-20 0.0052995708)
(-1.5173844e-06 3.6382556e-20 0.015730006)
(-6.8335825e-06 5.9275039e-20 0.026460502)
(-1.6519048e-05 8.7774925e-20 0.037417359)
(-3.1537496e-05 1.2563455e-19 0.048509735)
(-5.2923882e-05 1.3994291e-19 0.059628353)
(-8.182645e-05 1.2431694e-19 0.070644638)
(-0.0001195136 7.8867915e-20 0.08141048)
(-0.00016736953 3.841092e-20 0.091758927)
(-0.00022688 4.515684e-20 0.10150613)
(-0.00029960568 2.6666347e-20 0.11045495)
(-0.00038713813 4.6889728e-21 0.11840059)
(-0.00049103188 -1.2438655e-20 0.12513872)
(-0.0006127057 -4.4017603e-20 0.13047617)
(-0.00075330715 -1.9941712e-19 0.13424434)
(-0.00091353568 -1.0476811e-19 0.13631462)
(-0.0010934237 1.7816803e-20 0.13661484)
(-0.0012920871 -2.2231082e-20 0.13514476)
(-0.0015074679 5.3310923e-20 0.13198789)
(-0.0017361104 1.7825534e-19 0.12731685)
(-0.0019730292 1.8369974e-19 0.12138931)
(-0.0022117301 -1.1720825e-19 0.11453317)
(-0.0024444427 -2.9740069e-19 0.10712143)
(-0.0026625853 -4.0495851e-19 0.099539694)
(-0.0028574404 -4.563013e-19 0.092151422)
(-0.0030209597 -4.3540809e-19 0.085266581)
(-0.0031465827 -3.1613437e-19 0.079118837)
(-0.0032299373 -1.3542535e-19 0.07385415)
(-0.0032693146 -2.7275542e-19 0.069531118)
(-0.0032658495 -5.5355529e-19 0.066131185)
(-0.0032233918 -4.9882615e-19 0.063575505)
(-0.0031480911 -1.9731483e-19 0.061745036)
(-0.0030477512 -2.2830563e-19 0.060500784)
(-0.0029310317 -1.9043522e-20 0.059701844)
(-0.0028066249 2.1400946e-19 0.059219577)
(-0.0026824405 2.203064e-20 0.058946886)
(-0.0025653063 4.1218346e-23 0.058802298)
(-0.0024597567 4.617425e-20 0.058729403)
(-0.0023710669 -2.3100627e-19 0.058692789)
(-0.002297132 -8.5604052e-20 0.058672792)
(-0.0022496963 -3.6243192e-20 0.058658954)
(-0.0022073396 -1.086769e-19 0.0586478)
(-0.002215898 -2.3087229e-19 0.058634537)
(-0.0021885768 -2.0840696e-19 0.058616176)
(-0.002283311 -5.811745e-20 0.058572978)
(-0.0022293004 -2.2622216e-19 0.058435862)
(-0.0024271907 8.278517e-21 0.057972305)
(-0.0022483316 -6.4490711e-20 0.056373864)
(-0.0023257071 4.1806642e-20 0.05103494)
(-0.0014618479 -4.6184128e-20 0.033425541)
(5.9305924e-07 7.2634246e-21 0.0055397374)
(-1.3842677e-06 2.1610884e-20 0.01645419)
(-6.237194e-06 3.7620654e-20 0.027696174)
(-1.5081768e-05 6.1779722e-20 0.039191483)
(-2.8801741e-05 8.6559147e-20 0.050848234)
(-4.8348175e-05 1.1675897e-19 0.062555457)
(-7.4779001e-05 1.4689626e-19 0.074182061)
(-0.00010926666 1.3836331e-19 0.085576403)
(-0.00015309648 1.2726688e-19 0.096566737)
(-0.00020765732 1.7885626e-19 0.10696288)
(-0.00027442183 2.4256026e-19 0.11655948)
(-0.0003549118 3.0928147e-19 0.12514133)
(-0.00045064407 3.7006657e-19 0.13249112)
(-0.0005630501 2.9385298e-19 0.13839993)
(-0.00069336177 6.697817e-20 0.14268057)
(-0.00084245867 -1.5480773e-19 0.1451833)
(-0.001010674 -3.0267442e-19 0.14581312)
(-0.001197564 -5.4574463e-19 0.14454671)
(-0.0014016586 -8.7196214e-19 0.14144649)
(-0.001620225 -7.5493399e-19 0.13666885)
(-0.0018490918 -4.9406575e-19 0.13046318)
(-0.0020825971 -3.3722074e-19 0.12315978)
(-0.0023137195 -3.3300417e-19 0.11514637)
(-0.0025344305 -3.3590366e-19 0.1068355)
(-0.0027362673 -3.5834581e-19 0.098627608)
(-0.0029110662 -3.5884054e-19 0.090875839)
(-0.003051757 -3.1381502e-19 0.083858409)
(-0.0031530983 -1.5024886e-19 0.077762435)
(-0.0032122364 5.4158183e-20 0.072680428)
(-0.0032290078 -1.2797516e-19 0.06861806)
(-0.0032059531 -1.8213077e-19 0.065510104)
(-0.0031480509 -9.1040525e-20 0.063240892)
(-0.0030622076 -1.0673893e-19 0.061665914)
(-0.0029565621 -3.1542805e-20 0.060631891)
(-0.0028396923 1.7133642e-19 0.059993425)
(-0.0027197858 2.3024157e-19 0.059624932)
(-0.0026041375 3.6291644e-19 0.059427207)
(-0.0024980532 3.1185812e-19 0.059328767)
(-0.0024069717 0 0.059282847)
(-0.0023299994 8.1228038e-20 0.059262088)
(-0.0022777753 -5.0659229e-20 0.059251668)
(-0.0022304886 3.1464099e-20 0.059245064)
(-0.0022330984 -6.0206211e-19 0.059236503)
(-0.002197946 -2.7722407e-19 0.059218248)
(-0.0022827075 -8.1923288e-20 0.059162598)
(-0.0022226806 -1.7430244e-19 0.058977943)
(-0.0023878574 -2.1979983e-20 0.058358632)
(-0.0022000987 -5.9695027e-20 0.056381494)
(-0.0022158883 1.6063491e-20 0.050217497)
(-0.0013507342 -2.6053124e-20 0.03140783)
(5.4757603e-07 -2.7750662e-20 0.005759682)
(-1.2672206e-06 -8.1987203e-20 0.017117773)
(-5.7164922e-06 -1.3689658e-19 0.028829045)
(-1.3829188e-05 -1.9571896e-19 0.040818961)
(-2.6421447e-05 -2.6263392e-19 0.05299486)
(-4.4373759e-05 -3.1059858e-19 0.065244426)
(-6.8668476e-05 -3.3612431e-19 0.077434514)
(-0.00010039848 -3.9262579e-19 0.089410548)
(-0.00014076759 -4.5920169e-19 0.10099676)
(-0.00019108424 -5.3950941e-19 0.11199758)
(-0.00025274646 -5.9562044e-19 0.12220066)
(-0.00032721453 -6.7229038e-19 0.1313818)
(-0.00041596669 -8.0092059e-19 0.13931245)
(-0.00052043118 -7.7215512e-19 0.14576988)
(-0.0006418881 -6.2387524e-19 0.15055042)
(-0.00078133568 -8.3783298e-19 0.15348535)
(-0.00093931697 -1.0809021e-18 0.15445871)
(-0.0011157075 -1.1981654e-18 0.15342544)
(-0.0013094775 -1.4584133e-18 0.15042726)
(-0.0015184527 -1.6119536e-18 0.14560335)
(-0.0017391156 -1.396144e-18 0.13919231)
(-0.0019665056 -9.2324422e-19 0.13152284)
(-0.0021942747 -6.2457929e-19 0.12299218)
(-0.0024149493 -4.2013655e-19 0.11403407)
(-0.0026204084 -2.6993624e-19 0.10508048)
(-0.0028025457 -4.2102972e-19 0.096523293)
(-0.0029540262 -5.4312145e-19 0.088682399)
(-0.003069028 -3.4538962e-19 0.08178497)
(-0.003143852 1.7667099e-19 0.075958004)
(-0.0031773067 1.0471581e-19 0.07123335)
(-0.0031708307 1.6645723e-19 0.067562329)
(-0.0031283423 1.3900545e-20 0.064836123)
(-0.0030558425 -3.317151e-20 0.0629083)
(-0.0029608183 -3.1363488e-20 0.061616503)
(-0.0028515207 -1.057868e-19 0.060801182)
(-0.0027361668 1.8538368e-19 0.060319901)
(-0.0026223398 4.1100752e-19 0.060056303)
(-0.002515956 1.0945912e-19 0.059923522)
(-0.0024227797 5.3441008e-20 0.059862569)
(-0.0023428431 -1.8372484e-20 0.059837385)
(-0.002286539 -3.363687e-19 0.059827795)
(-0.0022344819 -9.8589666e-20 0.05982354)
(-0.0022317901 -4.2768653e-19 0.05981673)
(-0.0021905851 -2.8933459e-19 0.059794531)
(-0.0022635126 -8.6945344e-20 0.059717895)
(-0.0021996361 -3.4185017e-20 0.059471036)
(-0.0023335899 -1.3829283e-19 0.058677712)
(-0.0021347706 -7.2019111e-20 0.056305912)
(-0.0020989326 -1.735343e-19 0.049363128)
(-0.0012408032 -2.6618301e-20 0.029540821)
(5.1005275e-07 -2.3715823e-20 0.0059637805)
(-1.1761551e-06 -6.9908957e-20 0.017733741)
(-5.3079603e-06 -1.1887239e-19 0.029880936)
(-1.2843723e-05 -1.7035988e-19 0.042330605)
(-2.4544572e-05 -2.2513442e-19 0.054989464)
(-4.1232906e-05 -2.8328904e-19 0.067744076)
(-6.382787e-05 -3.3994832e-19 0.080459557)
(-9.3354502e-05 -3.9632628e-19 0.092978817)
(-0.00013094544 -4.575118e-19 0.10512262)
(-0.00017783682 -5.206027e-19 0.11669074)
(-0.0002353571 -5.6901781e-19 0.12746472)
(-0.00030490477 -6.5273524e-19 0.13721253)
(-0.00038791109 -7.7415194e-19 0.1456957)
(-0.00048578248 -9.1953162e-19 0.15267931)
(-0.00059981539 -1.0104785e-18 0.15794497)
(-0.00073107835 -1.0187958e-18 0.1613068)
(-0.00088025636 -1.0562289e-18 0.16262965)
(-0.0010474571 -1.0901737e-18 0.16184808)
(-0.0012319856 -1.106329e-18 0.15898382)
(-0.0014321084 -1.1836758e-18 0.15415858)
(-0.0016448442 -1.0891043e-18 0.14759861)
(-0.0018658288 -9.0156772e-19 0.13962814)
(-0.0020893165 -7.5634843e-19 0.13064996)
(-0.0023083662 -6.1783605e-19 0.12111435)
(-0.0025152393 -4.5884158e-19 0.11148007)
(-0.0027019887 -3.1743866e-19 0.10217366)
(-0.002861172 -3.5669796e-19 0.093553713)
(-0.0029865807 -4.0511755e-19 0.085885911)
(-0.003073878 -1.90621e-19 0.07933161)
(-0.0031210461 3.7178257e-20 0.073949952)
(-0.0031285893 7.1916745e-20 0.069710855)
(-0.0030994799 2.759458e-20 0.066515022)
(-0.00303886 4.1772088e-23 0.064217053)
(-0.0029535407 -6.2382294e-21 0.062648409)
(-0.0028513527 1.7568974e-20 0.061637892)
(-0.0027403938 1.3560089e-19 0.061028008)
(-0.0026283884 2.7428311e-19 0.06068616)
(-0.0025216856 1.9509785e-19 0.060510141)
(-0.0024263957 5.3178667e-20 0.060428131)
(-0.0023431833 -5.6617932e-20 0.060394482)
(-0.0022827035 -2.9405037e-19 0.060382728)
(-0.0022255998 -2.298989e-19 0.060378229)
(-0.0022169121 -3.7320824e-19 0.060369874)
(-0.0021706159 -2.5551631e-19 0.060339431)
(-0.0022306208 -9.1064087e-20 0.060234426)
(-0.0021627775 -4.9851622e-20 0.059912798)
(-0.0022680825 -1.2777397e-19 0.058932981)
(-0.0020583763 -8.2122349e-20 0.056163552)
(-0.0019792544 -1.5743864e-19 0.048495668)
(-0.0011353269 -2.9177265e-20 0.027833248)
(4.7844054e-07 -3.0571951e-20 0.0061544197)
(-1.0981693e-06 -9.0833053e-20 0.018309265)
(-4.9598865e-06 -1.5467537e-19 0.030864044)
(-1.2005059e-05 -2.2059412e-19 0.043743856)
(-2.294788e-05 -2.8349326e-19 0.056854919)
(-3.8561217e-05 -3.4673527e-19 0.070082859)
(-5.9710486e-05 -4.1053288e-19 0.083291298)
(-8.7362493e-05 -4.4546299e-19 0.09632097)
(-0.00012258838 -4.8012722e-19 0.1089896)
(-0.00016656168 -4.5796938e-19 0.12109287)
(-0.00022054913 -3.4404714e-19 0.13240694)
(-0.00028589251 -2.2313929e-19 0.14269281)
(-0.00036397721 -3.8369093e-20 0.1517032)
(-0.00045618207 -1.9854428e-19 0.15919223)
(-0.00056380564 -4.8175946e-19 0.16492825)
(-0.00068796069 -5.5914929e-19 0.16870976)
(-0.00082943331 -5.8261975e-19 0.17038391)
(-0.00098850454 -2.0139434e-19 0.16986618)
(-0.0011647386 -3.6336685e-20 0.16715912)
(-0.0013567547 2.2802788e-19 0.16236703)
(-0.0015620125 -3.5980708e-19 0.15570291)
(-0.0017766539 -6.0995958e-19 0.14748447)
(-0.0019954619 -7.5985616e-19 0.13811699)
(-0.0022119882 -9.022157e-19 0.12806347)
(-0.0024188798 -1.12889e-18 0.11780549)
(-0.002608402 -8.9736858e-19 0.10780055)
(-0.0027731026 -3.1465608e-19 0.09844311)
(-0.0029065238 -1.7782128e-19 0.090035647)
(-0.0030038505 -5.4489761e-19 0.08277336)
(-0.0030624001 -1.3265984e-19 0.076743254)
(-0.0030818933 4.998327e-20 0.071935286)
(-0.0030644727 6.8655807e-20 0.068261718)
(-0.003014489 1.0492505e-19 0.065580566)
(-0.0029380837 2.0475302e-19 0.063719572)
(-0.0028426139 3.7226775e-19 0.062498151)
(-0.0027359555 2.3213922e-19 0.06174555)
(-0.0026258534 3.5238569e-19 0.061314036)
(-0.0025189442 6.231549e-19 0.061086403)
(-0.0024216791 2.4007914e-19 0.060977675)
(-0.0023351358 -5.483996e-21 0.060931889)
(-0.002270394 -2.0896195e-20 0.060915381)
(-0.0022082343 -2.4562477e-19 0.060908426)
(-0.0021927634 -4.7322204e-19 0.060895589)
(-0.002141537 -2.6693876e-19 0.060852563)
(-0.0021881291 -9.9831447e-20 0.060712367)
(-0.0021151945 -6.306851e-20 0.060304961)
(-0.0021936993 -1.2015167e-19 0.059129153)
(-0.0019739362 -8.669921e-20 0.055965882)
(-0.0018588007 -1.4185626e-19 0.047628041)
(-0.001035344 -3.2208184e-20 0.026278433)
(4.5132917e-07 -1.5392552e-20 0.0063336692)
(-1.0322125e-06 -4.5750941e-20 0.018850534)
(-4.665067e-06 -7.9128945e-20 0.031788849)
(-1.1294288e-05 -1.1665055e-19 0.045073628)
(-2.1593794e-05 -1.4805704e-19 0.058610691)
(-3.6293795e-05 -1.816637e-19 0.072284863)
(-5.6213002e-05 -2.1309662e-19 0.085958469)
(-8.2267755e-05 -2.4558713e-19 0.099470324)
(-0.00011547543 -2.8438958e-19 0.11263546)
(-0.00015695351 -3.3040501e-19 0.12524593)
(-0.00020791288 -3.894247e-19 0.13707306)
(-0.00026964281 -3.7064647e-19 0.14787162)
(-0.00034348415 -3.5217912e-19 0.15738639)
(-0.00043078532 -3.4555053e-19 0.16536159)
(-0.00053283656 -3.4147575e-19 0.17155349)
(-0.00065077617 -2.9906916e-19 0.1757463)
(-0.00078546199 -2.3873512e-19 0.17777078)
(-0.00093730699 -3.3595271e-19 0.17752452)
(-0.0011060804 -3.1780395e-19 0.17499175)
(-0.0012906877 -2.2293224e-19 0.17025961)
(-0.001488955 -3.4996728e-19 0.16352733)
(-0.0016974565 -5.0075122e-19 0.15510466)
(-0.0019114407 -5.4814399e-19 0.14539693)
(-0.0021249097 -5.2078362e-19 0.13487682)
(-0.0023308855 -5.6444247e-19 0.12404525)
(-0.0025218723 -6.4522544e-19 0.11338741)
(-0.002690473 -5.698266e-19 0.10333097)
(-0.0028300749 -2.6083482e-19 0.094213404)
(-0.0029355024 -5.2571893e-20 0.086263012)
(-0.0030035371 -8.7764885e-20 0.079594869)
(-0.0030332351 2.8365712e-20 0.074219961)
(-0.0030260112 7.5013659e-20 0.070063687)
(-0.0029854954 9.7825441e-20 0.066989408)
(-0.002917189 1.2345421e-19 0.064823234)
(-0.0028279583 2.4888627e-19 0.063377212)
(-0.0027253914 2.9554435e-19 0.062469049)
(-0.0026171681 3.6564041e-19 0.061937074)
(-0.002510094 5.0352854e-19 0.061649623)
(-0.0024109388 2.5927172e-19 0.061508482)
(-0.0023210876 2.1667601e-20 0.06144683)
(-0.0022519953 -1.0079614e-19 0.061422992)
(-0.0021849296 -2.3883763e-19 0.061411425)
(-0.0021623104 -3.8044762e-19 0.061391396)
(-0.0021061339 -2.6358404e-19 0.06133159)
(-0.0021395008 -1.0850853e-19 0.061149937)
(-0.0020607448 -7.3892027e-20 0.060647587)
(-0.002114186 -1.1544686e-19 0.059269143)
(-0.0018854892 -9.3474253e-20 0.055720175)
(-0.0017400422 -1.2935046e-19 0.046766156)
(-0.00094161791 -3.8413979e-20 0.024862423)
(4.2746015e-07 -8.3726065e-21 0.0065030737)
(-9.7633918e-07 -2.4754351e-20 0.019362183)
(-4.4117217e-06 -4.1881495e-20 0.032663215)
(-1.068122e-05 -5.9018721e-20 0.046331152)
(-2.0423901e-05 -8.7044315e-20 0.060271487)
(-3.4332756e-05 -1.1497792e-19 0.074368356)
(-5.3185524e-05 -1.3966213e-19 0.088482943)
(-7.7854024e-05 -2.0587723e-19 0.10245236)
(-0.0001093083 -2.6835348e-19 0.11608922)
(-0.00014861634 -3.3074573e-19 0.12918232)
(-0.0001969388 -4.5981476e-19 0.14149863)
(-0.00025551665 -5.9673717e-19 0.15278726)
(-0.0003256478 -7.6897428e-19 0.1627858)
(-0.00040864928 -7.6957323e-19 0.17122943)
(-0.000505798 -5.0339897e-19 0.17786338)
(-0.00061824546 -4.5440739e-19 0.18245866)
(-0.00074690143 -3.7768029e-19 0.18483081)
(-0.00089228101 -6.0847321e-19 0.18486063)
(-0.001054318 -5.5320814e-19 0.18251482)
(-0.0012321528 -6.3989807e-19 0.17786379)
(-0.0014239193 -3.0573587e-19 0.17109272)
(-0.001626563 -3.5226163e-19 0.16250232)
(-0.0018357431 -3.4708663e-19 0.15249614)
(-0.0020458706 -2.7267332e-19 0.14155393)
(-0.0022503241 -1.1525894e-19 0.13019305)
(-0.0024418588 -1.5716756e-19 0.11892345)
(-0.0026131745 -6.6998239e-19 0.10820351)
(-0.0027575719 -4.9476614e-19 0.098403956)
(-0.0028696041 0 0.089785288)
(-0.0029456168 1.4589187e-20 0.082490608)
(-0.0029841017 7.746129e-20 0.07655261)
(-0.0029858354 6.7760449e-20 0.071911038)
(-0.0029537962 8.4271677e-20 0.068436175)
(-0.0028928815 7.9801333e-20 0.065954257)
(-0.0028094624 -4.0319757e-20 0.064271744)
(-0.0027108005 1.5512171e-19 0.063196392)
(-0.002604448 2.2142474e-19 0.062553803)
(-0.0024972811 1.7909322e-19 0.062198536)
(-0.0023963348 0 0.062019229)
(-0.0023032653 -8.107213e-20 0.061937834)
(-0.0022297592 -4.07857e-19 0.061903961)
(-0.0021578996 -2.2802181e-19 0.061885505)
(-0.0021280091 -8.402614e-20 0.061855611)
(-0.002066748 -2.4458101e-19 0.061775009)
(-0.00208727 -1.1637776e-19 0.061546219)
(-0.0020023516 -8.1577164e-20 0.060941656)
(-0.0020324331 -1.1068671e-19 0.059356892)
(-0.001796203 -9.3371664e-20 0.055433992)
(-0.0016249737 -1.1941297e-19 0.04591609)
(-0.00085465743 -4.2075279e-20 0.023575178)
(4.0681119e-07 -1.7084814e-20 0.006663889)
(-9.2644989e-07 -5.127222e-20 0.019847976)
(-4.1887621e-06 -8.6861653e-20 0.033493536)
(-1.0143659e-05 -1.2357326e-19 0.047525554)
(-1.9399501e-05 -1.6530584e-19 0.061849256)
(-3.2616367e-05 -2.095066e-19 0.076348182)
(-5.0535864e-05 -2.5570313e-19 0.0908825)
(-7.3990477e-05 -3.0633836e-19 0.10528779)
(-0.00010390778 -3.6451905e-19 0.1193745)
(-0.00014131095 -4.2533975e-19 0.13292844)
(-0.00018731537 -4.6188507e-19 0.14571264)
(-0.00024311802 -5.3473364e-19 0.15747106)
(-0.00030997675 -5.5422838e-19 0.16793467)
(-0.00038917674 -5.9259487e-19 0.1768304)
(-0.00048197783 -6.1726401e-19 0.18389327)
(-0.00058953677 -6.0340307e-19 0.18888208)
(-0.00071279982 -5.7730772e-19 0.19159818)
(-0.00085236182 -5.9683162e-19 0.19190653)
(-0.0010082895 -6.4122087e-19 0.18975713)
(-0.0011799195 -7.3989278e-19 0.18520407)
(-0.0013656473 -5.1199458e-19 0.17841843)
(-0.0015627396 -3.5040107e-19 0.1696911)
(-0.0017672187 -2.9287442e-19 0.15942239)
(-0.0019738679 -2.4303573e-19 0.14809697)
(-0.0021764026 -1.8547916e-19 0.1362461)
(-0.0023678299 -1.3647259e-19 0.12440192)
(-0.0025409721 -2.9202945e-19 0.11305121)
(-0.0026890948 -3.7004056e-19 0.10259624)
(-0.0028065491 -1.6269159e-19 0.093328728)
(-0.002889323 -1.4353216e-20 0.085419597)
(-0.0029354279 6.2936979e-20 0.078923681)
(-0.0029450811 7.4031012e-20 0.073796014)
(-0.0029206715 7.7351684e-20 0.06991509)
(-0.0028665314 6.1056332e-20 0.067108765)
(-0.0027885487 3.4410926e-20 0.065179461)