/*--------------------------------*- C++ -*----------------------------------*\
| =========                 |                                                 |
| \\      /  F ield         | OpenFOAM: The Open Source CFD Toolbox           |
|  \\    /   O peration     | Version:  4.0                                   |
|   \\  /    A nd           | Web:      www.OpenFOAM.org                      |
|    \\/     M anipulation  |                                                 |
\*---------------------------------------------------------------------------*/
FoamFile
{
    version     2.0;
    format      ascii;
    class       surfaceScalarField;
    location    "2000";
    object      phi;
}
// * * * * * * * * * * * * * * * * * * * * * * * * * * * * * * * * * * * * * //

dimensions      [1 0 -1 0 0 0 0];

internalField   nonuniform List<scalar> 
9850
(
3.5636032e-11
2.7478405e-10
1.4001267e-10
9.1808998e-10
3.1834044e-10
1.7406101e-09
5.7675868e-10
2.774024e-09
9.1867808e-10
4.0545802e-09
1.3438553e-09
5.6214531e-09
1.847582e-09
7.5163245e-09
2.4201443e-09
9.7830319e-09
3.0466964e-09
1.2467498e-08
3.7076712e-09
1.5618227e-08
4.3797817e-09
1.9287709e-08
5.0375763e-09
2.353505e-08
5.6554079e-09
2.8430111e-08
6.2095975e-09
3.4059284e-08
6.680525e-09
4.0532884e-08
7.0543661e-09
4.7993944e-08
7.3242551e-09
5.6628078e-08
7.4906452e-09
6.6673987e-08
7.5607993e-09
7.8434251e-08
7.5473215e-09
9.2286215e-08
7.4658916e-09
1.0869311e-07
7.33247e-09
1.2821603e-07
7.1607012e-09
1.5152796e-07
6.9578969e-09
1.7943344e-07
6.7246571e-09
2.1288591e-07
6.4565788e-09
2.5302334e-07
6.1433491e-09
3.0120758e-07
5.7717235e-09
3.5907408e-07
5.3272037e-09
4.2859336e-07
4.7961305e-09
5.121446e-07
4.1668577e-09
6.1260336e-07
3.4306204e-09
7.3344627e-07
2.5821452e-09
8.788765e-07
1.6200785e-09
1.0539753e-06
5.4694102e-10
1.2648851e-06
-6.2593059e-10
1.5190212e-06
-1.8658509e-09
1.8253525e-06
-3.1476891e-09
2.1947355e-06
-4.4343904e-09
2.6402961e-06
-5.683557e-09
3.1778992e-06
-6.839053e-09
3.8267406e-06
-7.8417855e-09
4.6100213e-06
-8.6142835e-09
5.5558266e-06
-9.0812976e-09
6.6980936e-06
-9.1437395e-09
8.0779233e-06
-8.714087e-09
9.7449669e-06
-7.6781783e-09
1.1759388e-05
-5.9483085e-09
1.4193838e-05
-3.4340945e-09
1.7136427e-05
2.0693217e-05
5.5354044e-11
2.1943002e-10
2.3403734e-10
7.3940681e-10
5.584315e-10
1.4162159e-09
1.0469034e-09
2.2855523e-09
1.7124122e-09
3.389071e-09
2.559101e-09
4.7747641e-09
3.5784702e-09
6.4969553e-09
4.7455796e-09
8.6159226e-09
6.0159545e-09
1.1197123e-08
7.3240857e-09
1.4310096e-08
8.5845259e-09
1.8027269e-08
9.6964547e-09
2.2423122e-08
1.0552194e-08
2.7574373e-08
1.1049408e-08
3.3562071e-08
1.1105694e-08
4.0476597e-08
1.0673191e-08
4.8426449e-08
9.7499697e-09
5.7551297e-08
8.3849091e-09
6.8039049e-08
6.673518e-09
8.0145643e-08
4.74434e-09
9.4215392e-08
2.7381335e-09
1.1069931e-07
7.8468951e-10
1.3016947e-07
-1.0163978e-09
1.5332905e-07
-2.6057803e-09
1.8102282e-07
-3.9722419e-09
2.1425238e-07
-5.1396677e-09
2.5419076e-07
-6.1516794e-09
3.022196e-07
-7.057275e-09
3.5997969e-07
-7.8993262e-09
4.2943542e-07
-8.7082563e-09
5.1295351e-07
-9.5005528e-09
6.1339564e-07
-1.0280781e-08
7.342265e-07
-1.1044867e-08
8.7964059e-07
-1.178246e-08
1.0547129e-06
-1.2478871e-08
1.2655815e-06
-1.3128177e-08
1.5196705e-06
-1.3729998e-08
1.8259543e-06
-1.4271196e-08
2.1952767e-06
-1.4732691e-08
2.6407576e-06
-1.5091518e-08
3.178258e-06
-1.5315548e-08
3.8269647e-06
-1.5364229e-08
4.61007e-06
-1.5182709e-08
5.555645e-06
-1.4704888e-08
6.6976158e-06
-1.384802e-08
8.0770664e-06
-1.2515044e-08
9.743634e-06
-1.0602804e-08
1.1757476e-05
-7.9708641e-09
1.4191206e-05
-4.548481e-09
1.7133005e-05
2.0688668e-05
-1.0395629e-11
2.2982577e-10
-4.4776261e-11
7.7378751e-10
-1.0916955e-10
1.4806091e-09
-2.1044805e-10
2.3868307e-09
-3.5662102e-10
3.535244e-09
-5.5721918e-10
4.9753622e-09
-8.2389117e-10
6.763627e-09
-1.1712334e-09
8.9632642e-09
-1.617787e-09
1.1643676e-08
-2.187e-09
1.4879309e-08
-2.9077775e-09
1.8748047e-08
-3.8140581e-09
2.3329402e-08
-4.9427697e-09
2.8703084e-08
-6.3296469e-09
3.4948948e-08
-8.002752e-09
4.21497e-08
-9.9742286e-09
5.0397925e-08
-1.2231677e-08
5.9808748e-08
-1.4731242e-08
7.0538617e-08
-1.7394825e-08
8.2809227e-08
-2.0113464e-08
9.6934029e-08
-2.2757717e-08
1.1334357e-07
-2.5194308e-08
1.3260606e-07
-2.7306821e-08
1.5544156e-07
-2.9013811e-08
1.8272981e-07
-3.0277243e-08
2.1551582e-07
-3.1107287e-08
2.5502081e-07
-3.1554857e-08
3.0266717e-07
-3.1695353e-08
3.6012019e-07
-3.1610626e-08
4.293507e-07
-3.1374335e-08
5.1271722e-07
-3.1043647e-08
6.1306496e-07
-3.0657452e-08
7.3384033e-07
-3.0238954e-08
8.7922211e-07
-2.9799898e-08
1.0542739e-06
-2.9343568e-08
1.2651252e-06
-2.8866103e-08
1.5191931e-06
-2.8357022e-08
1.8254452e-06
-2.7804008e-08
2.1947237e-06
-2.7185261e-08
2.6401389e-06
-2.6473411e-08
3.1775462e-06
-2.5630571e-08
3.8261218e-06
-2.4613e-08
4.6090525e-06
-2.336139e-08
5.5543935e-06
-2.180905e-08
6.6960635e-06
-1.9869697e-08
8.0751271e-06
-1.7440883e-08
9.7412052e-06
-1.4416441e-08
1.1754451e-05
-1.0626486e-08
1.4187416e-05
-5.9923689e-09
1.7128371e-05
2.0682676e-05
-1.329926e-11
2.4312494e-10
-5.837448e-11
8.1886273e-10
-1.4502132e-10
1.5672561e-09
-2.8526606e-10
2.5270755e-09
-4.9370647e-10
3.7436846e-09
-7.8785748e-10
5.2695128e-09
-1.188456e-09
7.1642259e-09
-1.719688e-09
9.4944965e-09
-2.4092536e-09
1.2333242e-08
-3.2881759e-09
1.5758231e-08
-4.3901923e-09
1.9850063e-08
-5.750501e-09
2.4689712e-08
-7.4035699e-09
3.0356151e-08
-9.3796495e-09
3.6925029e-08
-1.1699788e-08
4.4469838e-08
-1.4369309e-08
5.3067445e-08
-1.7370408e-08
6.2809844e-08
-2.0655144e-08
7.3823355e-08
-2.414096e-08
8.6295046e-08
-2.7711039e-08
1.0050411e-07
-3.1221482e-08
1.16854e-07
-3.4515731e-08
1.3590031e-07
-3.7444328e-08
1.5837016e-07
-3.9886324e-08
1.851718e-07
-4.1767913e-08
2.1739741e-07
-4.3072892e-08
2.5632578e-07
-4.384034e-08
3.0343463e-07
-4.4151308e-08
3.6043115e-07
-4.4107831e-08
4.2930721e-07
-4.3811109e-08
5.124205e-07
-4.3345003e-08
6.1259886e-07
-4.2768053e-08
7.3326338e-07
-4.2113594e-08
8.7856764e-07
-4.1394989e-08
1.0535553e-06
-4.0612175e-08
1.2643424e-06
-3.9757715e-08
1.5183386e-06
-3.8821057e-08
1.8245086e-06
-3.7786531e-08
2.1936891e-06
-3.6632981e-08
2.6389853e-06
-3.5333659e-08
3.1762469e-06
-3.3853921e-08
3.8246421e-06
-3.2150717e-08
4.6073493e-06
-3.0168927e-08
5.5524117e-06
-2.7838443e-08
6.693733e-06
-2.5077936e-08
8.0723666e-06
-2.1769635e-08
9.737897e-06
-1.7812913e-08
1.1750495e-05
-1.3003339e-08
1.4182607e-05
-7.2256994e-09
1.7122593e-05
2.067545e-05
-1.3615554e-11
2.567405e-10
-5.9976784e-11
8.6522395e-10
-1.4945892e-10
1.6567382e-09
-2.9492027e-10
2.672537e-09
-5.1218514e-10
3.9609494e-09
-8.2053798e-10
5.5778658e-09
-1.243213e-09
7.5869011e-09
-1.8078136e-09
1.0059098e-08
-2.5465742e-09
1.3072002e-08
-3.4963109e-09
1.6707968e-08
-4.6978821e-09
2.1051635e-08
-6.194887e-09
2.6186716e-08
-8.0312974e-09
3.2192561e-08
-1.0247719e-08
3.9141451e-08
-1.2876038e-08
4.7098157e-08
-1.5932452e-08
5.6123861e-08
-1.9409358e-08
6.6286751e-08
-2.3267188e-08
7.7681183e-08
-2.7428035e-08
9.0455892e-08
-3.1773441e-08
1.0484952e-07
-3.6148561e-08
1.2122913e-07
-4.0374004e-08
1.4012576e-07
-4.4264893e-08
1.6226104e-07
-4.7654434e-08
1.8856135e-07
-5.0417536e-08
2.2016051e-07
-5.248861e-08
2.5839686e-07
-5.3868481e-08
3.048145e-07
-5.4617841e-08
3.6118051e-07
-5.4838792e-08
4.2952817e-07
-5.4649927e-08
5.1223164e-07
-5.4162541e-08
6.1211149e-07
-5.3464526e-08
7.3256538e-07
-5.2614412e-08
8.7771753e-07
-5.1643932e-08
1.0525849e-06
-5.0565006e-08
1.2632635e-06
-4.9375692e-08
1.5171493e-06
-4.8066095e-08
1.823199e-06
-4.6621076e-08
2.1922441e-06
-4.5019647e-08
2.6373839e-06
-4.32343e-08
3.1744616e-06
-4.1229415e-08
3.8226372e-06
-3.8959407e-08
4.6050793e-06
-3.6367638e-08
5.54982e-06
-3.3377877e-08
6.6907433e-06
-2.9906956e-08
8.0688957e-06
-2.5823239e-08
9.7338133e-06
-2.1017347e-08
1.1745689e-05
-1.5268897e-08
1.4176858e-05
-8.411425e-09
1.7115736e-05
2.0667039e-05
-1.2132726e-11
2.6887322e-10
-5.3586831e-11
9.0667815e-10
-1.338933e-10
1.7370446e-09
-2.6500933e-10
2.8036528e-09
-4.6183914e-10
4.1577792e-09
-7.4281591e-10
5.8588431e-09
-1.1305293e-09
7.9746143e-09
-1.6523465e-09
1.0580915e-08
-2.3409585e-09
1.3760614e-08
-3.2347072e-09
1.7601716e-08
-4.3774953e-09
2.2194422e-08
-5.8179956e-09
2.7627216e-08
-7.6078027e-09
3.3982367e-08
-9.7980947e-09
4.1331742e-08
-1.2434453e-08
4.9734517e-08
-1.5549672e-08
5.9239079e-08
-1.9154774e-08
6.9891854e-08
-2.3229233e-08
8.1755643e-08
-2.7712123e-08
9.4938781e-08
-3.2496674e-08
1.0963407e-07
-3.7430937e-08
1.2616339e-07
-4.2326484e-08
1.4502131e-07
-4.6975712e-08
1.6691026e-07
-5.1175888e-08
1.9276152e-07
-5.4756122e-08
2.2374074e-07
-5.7601479e-08
2.6124222e-07
-5.9668283e-08
3.068813e-07
-6.0985825e-08
3.6249806e-07
-6.1643331e-08
4.3018567e-07
-6.1765254e-08
5.1235357e-07
-6.1482485e-08
6.1182871e-07
-6.0907816e-08
7.3199072e-07
-6.0122186e-08
8.7693189e-07
-5.9172324e-08
1.051635e-06
-5.8077005e-08
1.2621682e-06
-5.6834963e-08
1.5159073e-06
-5.5432318e-08
1.8217964e-06
-5.3848221e-08
2.1906601e-06
-5.205632e-08
2.6355921e-06
-5.0023858e-08
3.1724292e-06
-4.7710985e-08
3.8203244e-06
-4.5067551e-08
4.602436e-06
-4.2034216e-08
5.5467867e-06
-3.8528682e-08
6.6872378e-06
-3.4465145e-08
8.0648323e-06
-2.9703397e-08
9.7290516e-06
-2.4120567e-08
1.1740106e-05
-1.7493258e-08
1.4170231e-05
-9.6073507e-09
1.710785e-05
2.0657431e-05
-1.1164551e-11
2.8003802e-10
-4.936536e-11
9.448788e-10
-1.2346862e-10
1.8111481e-09
-2.446432e-10
2.9248274e-09
-4.2687798e-10
4.3400141e-09
-6.8758018e-10
6.1195452e-09
-1.0482407e-09
8.3352753e-09
-1.5351464e-09
1.106782e-08
-2.1800669e-09
1.4405534e-08
-3.0208223e-09
1.8442472e-08
-4.1015545e-09
2.3275154e-08
-5.4724246e-09
2.8998086e-08
-7.1883919e-09
3.5698335e-08
-9.3066091e-09
4.3449959e-08
-1.1881953e-08
5.2309859e-08
-1.4960322e-08
6.2317448e-08
-1.8569694e-08
7.3501229e-08
-2.2709548e-08
8.5895497e-08
-2.7340133e-08
9.9569364e-08
-3.2374024e-08
1.1466796e-07
-3.7672893e-08
1.3146225e-07
-4.3052112e-08
1.5040053e-07
-4.8294651e-08
1.721528e-07
-5.3173574e-08
1.9764044e-07
-5.7480048e-08
2.2804722e-07
-6.1051811e-08
2.6481398e-07
-6.3795711e-08
3.096252e-07
-6.569852e-08
3.6440088e-07
-6.6822037e-08
4.313092e-07
-6.7282927e-08
5.1281447e-07
-6.7222817e-08
6.1176859e-07
-6.677749e-08
7.3154541e-07
-6.6054499e-08
8.7620892e-07
-6.5123428e-08
1.0507039e-06
-6.4018138e-08
1.2610629e-06
-6.274479e-08
1.514634e-06
-6.1290714e-08
1.8203423e-06
-5.9631954e-08
2.1890013e-06
-5.7736486e-08
2.6336966e-06
-5.5564188e-08
3.1702569e-06
-5.3067308e-08
3.8178276e-06
-5.0186088e-08
4.5995548e-06
-4.6852844e-08
5.5434535e-06
-4.2974498e-08
6.6833595e-06
-3.8455713e-08
8.0603135e-06
-3.3147908e-08
9.7237439e-06
-2.6907747e-08
1.1733866e-05
-1.9511214e-08
1.4162835e-05
-1.0699895e-08
1.7099039e-05
2.0646732e-05
-1.0256687e-11
2.9029482e-10
-4.5390712e-11
9.8001282e-10
-1.1362425e-10
1.8793819e-09
-2.2535069e-10
3.036554e-09
-3.9363964e-10
4.5083029e-09
-6.348293e-10
6.3607349e-09
-9.6920621e-10
8.6696527e-09
-1.4217537e-09
1.1520368e-08
-2.0229225e-09
1.5006703e-08
-2.8093469e-09
1.9228897e-08
-3.8243555e-09
2.4290162e-08
-5.1180398e-09
3.0291772e-08
-6.7465599e-09
3.7326856e-08
-8.7702123e-09
4.5473612e-08
-1.1249752e-08
5.4789401e-08
-1.4240475e-08
6.5308172e-08
-1.7783798e-08
7.704455e-08
-2.1896635e-08
9.0008332e-08
-2.6559717e-08
1.0423245e-07
-3.1706998e-08
1.1981524e-07
-3.7219083e-08
1.3697434e-07
-4.292379e-08
1.5610523e-07
-4.8606002e-08
1.7783501e-07
-5.4027154e-08
2.030616e-07
-5.895236e-08
2.3297242e-07
-6.3180745e-08
2.6904237e-07
-6.6573241e-08
3.130177e-07
-6.9071072e-08
3.6689871e-07
-7.0699624e-08
4.3293775e-07
-7.1555291e-08
5.1367015e-07
-7.1778119e-08
6.1199143e-07
-7.1517982e-08
7.3128527e-07
-7.0904753e-08
8.7559569e-07
-7.0030552e-08
1.0498298e-06
-6.8946236e-08
1.2599786e-06
-6.7667747e-08
1.5133555e-06
-6.6186048e-08
1.8188607e-06
-6.4476498e-08
2.1872918e-06
-6.2504015e-08
2.6317241e-06
-6.0223913e-08
3.1679769e-06
-5.7583079e-08
3.8151868e-06
-5.4514661e-08
4.5964864e-06
-5.0943438e-08
5.5398823e-06
-4.6767234e-08
6.6791833e-06
-4.1878121e-08
8.0554245e-06
-3.6120373e-08
9.7179862e-06
-2.9326523e-08
1.1727072e-05
-2.1269668e-08
1.4154778e-05
-1.165128e-08
1.7089421e-05
2.063508e-05
-9.5223155e-12
2.998172e-10
-4.2164536e-11
1.0126551e-09
-1.0560508e-10
1.9428225e-09
-2.0956989e-10
3.1405186e-09
-3.6631917e-10
4.6650522e-09
-5.9122772e-10
6.5856432e-09
-9.0345535e-10
8.9818801e-09
-1.3267054e-09
1.1943618e-08
-1.8900389e-09
1.5570036e-08
-2.6286717e-09
1.996753e-08
-3.5846474e-09
2.5246138e-08
-4.8071742e-09
3.1514298e-08
-6.3523249e-09
3.8872005e-08
-8.2816713e-09
4.740296e-08
-1.0659343e-08
5.7167072e-08
-1.3546907e-08
6.8195736e-08
-1.6995716e-08
8.049336e-08
-2.1036693e-08
9.4049312e-08
-2.5668381e-08
1.0886413e-07
-3.0845014e-08
1.2499187e-07
-3.6467466e-08
1.4259679e-07
-4.2380239e-08
1.6201801e-07
-4.8377306e-08
1.8383208e-07
-5.421794e-08
2.0890223e-07
-5.9651566e-08
2.3840605e-07
-6.4448216e-08
2.7383902e-07
-6.8429258e-08
3.1699874e-07
-7.1491883e-08
3.6996135e-07
-7.3621188e-08
4.3506705e-07
-7.4885164e-08
5.1493412e-07
-7.5412608e-08
6.125189e-07
-7.5359662e-08
7.3123231e-07
-7.4874577e-08
8.7511063e-07
-7.4072251e-08
1.0490274e-06
-7.3023101e-08
1.2589295e-06
-7.1755934e-08
1.5120883e-06
-7.0267477e-08
1.8173722e-06
-6.8533409e-08
2.1855578e-06
-6.6515624e-08
2.6297064e-06
-6.4164556e-08
3.1656258e-06
-6.1421326e-08
3.8124436e-06
-5.8212231e-08
4.5932774e-06
-5.4454306e-08
5.5361244e-06
-5.0037972e-08
6.6747671e-06
-4.4842295e-08
8.0502289e-06
-3.8706255e-08
9.7118502e-06
-3.1439626e-08
1.1719806e-05
-2.2811239e-08
1.414615e-05
-1.248995e-08
1.70791e-05
2.062259e-05
-8.8979286e-12
3.0871523e-10
-3.9416953e-11
1.0431742e-09
-9.8764542e-11
2.0021698e-09
-1.9608374e-10
3.2378377e-09
-3.4292373e-10
4.811892e-09
-5.5379875e-10
6.7965181e-09
-8.468485e-10
9.2749295e-09
-1.2445912e-09
1.2341361e-08
-1.7747521e-09
1.6100197e-08
-2.4711162e-09
2.0663894e-08
-3.3742994e-09
2.6149321e-08
-4.5322762e-09
3.2672275e-08
-6.0003829e-09
4.0340112e-08
-7.8404083e-09
4.9242985e-08
-1.0118255e-08
5.944492e-08
-1.2899599e-08
7.0977079e-08
-1.6243003e-08
8.3836765e-08
-2.0190358e-08
9.7996668e-08
-2.4755068e-08
1.1342884e-07
-2.9909472e-08
1.3014628e-07
-3.5574034e-08
1.4826135e-07
-4.1611478e-08
1.6805545e-07
-4.7828971e-08
1.9004958e-07
-5.3990277e-08
2.1506353e-07
-5.9837595e-08
2.4425336e-07
-6.5120718e-08
2.7912214e-07
-6.9628945e-08
3.2150697e-07
-7.3219702e-08
3.7355209e-07
-7.5837219e-08
4.3768456e-07
-7.7515734e-08
5.1661263e-07
-7.8364433e-08
6.133676e-07
-7.8536911e-08
7.314048e-07
-7.8193877e-08
8.747676e-07
-7.7470721e-08
1.0483043e-06
-7.6458827e-08
1.2579176e-06
-7.5202908e-08
1.5108324e-06
-7.370881e-08
1.8158782e-06
-7.1955137e-08
2.1838041e-06
-6.9902737e-08
2.6276541e-06
-6.7498443e-08
3.1632216e-06
-6.4678094e-08
3.8096233e-06
-6.1361727e-08
4.5899611e-06
-5.7457788e-08
5.5322205e-06
-5.284997e-08
6.6701593e-06
-4.74034e-08
8.0447824e-06
-4.0951674e-08
9.7053986e-06
-3.32839e-08
1.1712138e-05
-2.4162414e-08
1.4137028e-05
-1.3230593e-08
1.7068168e-05
2.060936e-05
-8.3682803e-12
3.1708334e-10
-3.7082266e-11
1.071888e-09
-9.2942166e-11
2.0580298e-09
-1.8458638e-10
3.3294822e-09
-3.2294117e-10
4.9502471e-09
-5.2176246e-10
6.9953393e-09
-7.9827729e-10
9.5514439e-09
-1.1739272e-09
1.2717011e-08
-1.6752004e-09
1.6601471e-08
-2.3345103e-09
2.1323203e-08
-3.1910333e-09
2.7005844e-08
-4.291372e-09
3.3772615e-08
-5.6897911e-09
4.1738532e-08
-7.4476598e-09
5.1000855e-08
-9.6316363e-09
6.1628896e-08
-1.2309975e-08
7.3655418e-08
-1.5546429e-08
8.7073218e-08
-1.9391372e-08
1.0184161e-07
-2.3870406e-08
1.1790787e-07
-2.8971568e-08
1.3524744e-07
-3.4633348e-08
1.5392313e-07
-4.0736647e-08
1.7415875e-07
-4.7103874e-08
1.964168e-07
-5.3507507e-08
2.2146717e-07
-5.9688829e-08
2.5043468e-07
-6.5384955e-08
2.8481828e-07
-7.0360592e-08
3.2648262e-07
-7.443895e-08
3.7763045e-07
-7.7525585e-08
4.4077121e-07
-7.9618827e-08
5.1870588e-07
-8.0802181e-08
6.1455098e-07
-8.1219032e-08
7.3182167e-07
-8.1035629e-08
8.7458421e-07
-8.0403905e-08
1.0476726e-06
-7.9435615e-08
1.2569494e-06
-7.8192826e-08
1.5095896e-06
-7.6692733e-08
1.8143781e-06
-7.4919099e-08
2.1820305e-06
-7.2833364e-08
2.6255684e-06
-7.0380151e-08
3.1607684e-06
-6.7491217e-08
3.8067344e-06
-6.4081886e-08
4.5865518e-06
-6.0052887e-08
5.5281916e-06
-5.5282388e-08
6.6653889e-06
-4.9622643e-08
8.0391227e-06
-4.2901363e-08
9.6986774e-06
-3.4889776e-08
1.1704126e-05
-2.5341123e-08
1.412748e-05
-1.3878558e-08
1.7056706e-05
2.0595481e-05
-7.9089477e-12
3.2499223e-10
-3.5056034e-11
1.0990354e-09
-8.7886734e-11
2.1108605e-09
-1.7459517e-10
3.4161907e-09
-3.0555767e-10
5.0812098e-09
-4.9385633e-10
7.183638e-09
-7.559022e-10
9.8134897e-09
-1.112165e-09
1.3073273e-08
-1.5879978e-09
1.7077303e-08
-2.2145281e-09
2.1949734e-08
-3.0295466e-09
2.7820863e-08
-4.0782594e-09
3.4821328e-08
-5.413697e-09
4.3073969e-08
-7.0964508e-09
5.2683608e-08
-9.1932679e-09
6.3725715e-08
-1.1773955e-08
7.6236106e-08
-1.4905958e-08
9.020522e-08
-1.8646202e-08
1.0558186e-07
-2.3030242e-08
1.2229192e-07
-2.8059522e-08
1.4027672e-07
-3.3688726e-08
1.5955233e-07
-3.981605e-08
1.8028608e-07
-4.6279762e-08
2.0288051e-07
-5.2863616e-08
2.2805102e-07
-5.93124e-08
2.5688346e-07
-6.5356523e-08
2.9086241e-07
-7.0742674e-08
3.3186877e-07
-7.5265782e-08
3.8215356e-07
-7.8796394e-08
4.4430182e-07
-8.1297057e-08
5.2120653e-07
-8.2822056e-08
6.1607598e-07
-8.3498332e-08
7.3249794e-07
-8.3491101e-08
8.74577e-07
-8.2964327e-08
1.0471458e-06
-8.2048243e-08
1.2560333e-06
-8.0823039e-08
1.5083644e-06
-7.931905e-08
1.8128741e-06
-7.7526968e-08
2.1802385e-06
-7.5410109e-08
2.6234516e-06
-7.2911945e-08
3.1582702e-06
-6.9960794e-08
3.8037833e-06
-6.6468235e-08
4.5830593e-06
-6.2328082e-08
5.5240515e-06
-5.7413997e-08
6.6604748e-06
-5.1567238e-08
8.0332761e-06
-4.4609518e-08
9.6917198e-06
-3.6297681e-08
1.1695815e-05
-2.6374263e-08
1.4117556e-05
-1.4446702e-08
1.7044778e-05
2.0581035e-05
-7.5072353e-12
3.3249942e-10
-3.3283184e-11
1.1248113e-09
-8.3458594e-11
2.1610362e-09
-1.6583544e-10
3.4985679e-09
-2.903027e-10
5.205677e-09
-4.693405e-10
7.3626758e-09
-7.1862724e-10
1.0062777e-08
-1.057754e-09
1.34124e-08
-1.5110368e-09
1.7530586e-08
-2.1084138e-09
2.254711e-08
-2.8863568e-09
2.8598807e-08
-3.888702e-09
3.5823672e-08
-5.1671857e-09
4.4352453e-08
-6.7814115e-09
5.4297834e-08
-8.7978024e-09
6.5742105e-08
-1.1286981e-08
7.8725286e-08
-1.4318993e-08
9.3237234e-08
-1.795583e-08
1.0921869e-07
-2.2241146e-08
1.2657723e-07
-2.7187789e-08
1.4522336e-07
-3.2764787e-08
1.6512933e-07
-3.8886399e-08
1.864077e-07
-4.540659e-08
2.094007e-07
-5.2121697e-08
2.3476613e-07
-5.8782998e-08
2.6354476e-07
-6.511872e-08
2.9719813e-07
-7.0863065e-08
3.3761313e-07
-7.5788274e-08
3.8707877e-07
-7.9734152e-08
4.482477e-07
-8.262916e-08
5.2410155e-07
-8.4496705e-08
6.1794354e-07
-8.544275e-08
7.3344399e-07
-8.5625662e-08
8.7475993e-07
-8.5216338e-08
1.0467365e-06
-8.4360976e-08
1.2551779e-06
-8.3157722e-08
1.5071612e-06
-8.1651476e-08
1.8113679e-06
-7.984164e-08
2.1784287e-06
-7.7694934e-08
2.6213049e-06
-7.5154679e-08
3.15573e-06
-7.2146442e-08
3.8007751e-06
-6.857869e-08
4.5794916e-06
-6.4339242e-08
5.5198121e-06
-5.929742e-08
6.6554331e-06
-5.3285359e-08
8.027264e-06
-4.611828e-08
9.6845528e-06
-3.754181e-08
1.1687238e-05
-2.7287012e-08
1.4107302e-05
-1.4949074e-08
1.703244e-05
2.0566086e-05
-7.1526588e-12
3.3965202e-10
-3.1716955e-11
1.1493755e-09
-7.9545098e-11
2.2088645e-09
-1.5808955e-10
3.577112e-09
-2.7680209e-10
5.3243896e-09
-4.4762486e-10
7.5334985e-09
-6.8557658e-10
1.0300729e-08
-1.0094509e-09
1.3736274e-08
-1.4426166e-09
1.7963752e-08
-2.0139117e-09
2.3118405e-08
-2.7585744e-09
2.9343469e-08
-3.7191169e-09
3.6784215e-08
-4.9459778e-09
4.5579313e-08
-6.4976599e-09
5.5849516e-08
-8.4399819e-09
6.7684427e-08
-1.0843889e-08
8.1129193e-08
-1.3781213e-08
9.6174558e-08
-1.7317845e-08
1.1275533e-07
-2.1504058e-08
1.3076344e-07
-2.6362398e-08
1.500817e-07
-3.1874502e-08
1.7064143e-07
-3.7969351e-08
1.9250254e-07
-4.4515999e-08
2.1594735e-07
-5.1323918e-08
2.4157405e-07
-5.8152801e-08
2.7037365e-07
-6.4732053e-08
3.0377737e-07
-7.0787878e-08
3.4366895e-07
-7.6074759e-08
3.9236564e-07
-8.0406195e-08
4.5257913e-07
-8.3679192e-08
5.2737455e-07
-8.5886128e-08
6.2015048e-07
-8.7108911e-08
7.3466678e-07
-8.7494152e-08
8.7514518e-07
-8.7214768e-08
1.0464571e-06
-8.6429558e-08
1.2543927e-06
-8.5253752e-08
1.5059854e-06
-8.3747591e-08
1.8098618e-06
-8.1920741e-08
2.1766019e-06
-7.9744662e-08
2.6191288e-06
-7.7163658e-08
3.153149e-06
-7.4101358e-08
3.7977128e-06
-7.0463713e-08
4.575854e-06
-6.6133472e-08
5.515482e-06
-6.0975861e-08
6.6502755e-06
-5.4815576e-08
8.0211038e-06
-4.7461108e-08
9.6771984e-06
-3.8649139e-08
1.1678426e-05
-2.8099102e-08
1.4096752e-05
-1.5396349e-08
1.7019738e-05
2.0550689e-05
-6.8369596e-12
3.4648897e-10
-3.0322017e-11
1.1728605e-09
-7.6057815e-11
2.2546002e-09
-1.5118274e-10
3.6522369e-09
-2.6475758e-10
5.4379642e-09
-4.2823786e-10
7.6969786e-09
-6.5604588e-10
1.0528537e-08
-9.6625013e-10
1.4046477e-08
-1.3813528e-09
1.8378854e-08
-1.9291764e-09
2.3666229e-08
-2.6438047e-09
3.0058097e-08
-3.5664945e-09
3.7706905e-08
-4.7464018e-09
4.675922e-08
-6.2408816e-09
5.7343997e-08
-8.1149741e-09
6.9558521e-08
-1.0439582e-08
8.3453801e-08
-1.3287728e-08
9.9022704e-08
-1.6728306e-08
1.161959e-07
-2.0816995e-08
1.3485214e-07
-2.5584582e-08
1.5484929e-07
-3.1023811e-08
1.7608066e-07
-3.7077021e-08
1.9855576e-07
-4.3627551e-08
2.2249788e-07
-5.0498038e-08
2.4844453e-07
-5.7457782e-08
2.773334e-07
-6.4239757e-08
3.1055935e-07
-7.0565763e-08
3.4999496e-07
-7.617679e-08
3.9797667e-07
-8.0864214e-08
4.5726657e-07
-8.4496684e-08
5.3100702e-07
-8.7036499e-08
6.226903e-07
-8.8539797e-08
7.361701e-07
-8.9137556e-08
8.7574295e-07
-8.9000095e-08
1.0463197e-06
-8.8295271e-08
1.2536879e-06
-8.7153788e-08
1.5048439e-06
-8.5651401e-08
1.8083594e-06
-8.3809363e-08
2.1747598e-06
-8.1605036e-08
2.6169245e-06
-7.8984759e-08
3.1505288e-06
-7.5870923e-08
3.794599e-06
-7.2167373e-08
4.5721504e-06
-6.7752762e-08
5.5110674e-06
-6.2488317e-08
6.6450112e-06
-5.6192893e-08
8.0148085e-06
-4.866812e-08
9.6696737e-06
-3.9643812e-08
1.1669402e-05
-2.8827899e-08
1.4085936e-05
-1.5797497e-08
1.7006707e-05
2.0534892e-05
-6.5538323e-12
3.5304273e-10
-2.9069998e-11
1.1953766e-09
-7.2926249e-11
2.2984568e-09
-1.4497871e-10
3.7242891e-09
-2.5393295e-10
5.5469183e-09
-4.108045e-10
7.8538499e-09
-6.294729e-10
1.0747205e-08
-9.2734471e-10
1.4344349e-08
-1.3261276e-09
1.8777637e-08
-1.8527066e-09
2.4192808e-08
-2.540088e-09
3.0745479e-08
-3.4283382e-09
3.8595156e-08
-4.5653748e-09
4.7896257e-08
-6.0073855e-09
5.8786007e-08
-7.8185214e-09
7.1369659e-08
-1.0069397e-08
8.5704675e-08
-1.2833764e-08
1.0178707e-07
-1.6182822e-08
1.1954496e-07
-2.0176681e-08
1.38846e-07
-2.4853154e-08
1.5952576e-07
-3.0214741e-08
1.8144225e-07
-3.6215868e-08
2.0455688e-07
-4.275324e-08
2.2903525e-07
-4.9662392e-08
2.5535369e-07
-5.6722886e-08
2.843939e-07
-6.3672998e-08
3.1750946e-07
-7.0232886e-08
3.5655485e-07
-7.6133619e-08
4.038774e-07
-8.114828e-08
4.6228124e-07
-8.5120382e-08
5.3497914e-07
-8.7983805e-08
6.2555372e-07
-8.9768299e-08
7.3795459e-07
-9.0586322e-08
8.7656097e-07
-9.0601562e-08
1.0463349e-06
-8.9987306e-08
1.2530737e-06
-8.8887615e-08
1.5037442e-06
-8.7393588e-08
1.8068654e-06
-8.5538777e-08
2.172905e-06
-8.3307832e-08
2.6146936e-06
-8.0649969e-08
3.1478709e-06
-7.7487089e-08
3.7914362e-06
-7.3721296e-08
4.5683847e-06
-6.922788e-08
5.506574e-06
-6.3864157e-08
6.6396475e-06
-5.7444414e-08
8.0083888e-06
-4.9763426e-08
9.6619928e-06
-4.0545558e-08
1.1660184e-05
-2.9487861e-08
1.4074878e-05
-1.6160379e-08
1.699338e-05
2.0518732e-05
-6.2980702e-12
3.5934077e-10
-2.7938933e-11
1.2170175e-09
-7.0097241e-11
2.3406149e-09
-1.3937069e-10
3.7935627e-09
-2.441439e-10
5.6516915e-09
-3.9503061e-10
8.004737e-09
-6.0541535e-10
1.095759e-08
-8.9209923e-10
1.4631032e-08
-1.276057e-09
1.9161595e-08
-1.7833078e-09
2.4700058e-08
-2.4458521e-09
3.1408024e-08
-3.3026332e-09
3.9451936e-08
-4.4003764e-09
4.8994e-08
-5.7941089e-09
6.017974e-08
-7.5470319e-09
7.3122583e-08
-9.7292829e-09
8.7886928e-08
-1.2415013e-08
1.044728e-07
-1.5677165e-08
1.2280711e-07
-1.9579494e-08
1.4274833e-07
-2.4165808e-08
1.6411207e-07
-2.9447188e-08
1.8672363e-07
-3.5388994e-08
2.1049869e-07
-4.1900352e-08
2.3554661e-07
-4.8829245e-08
2.6228259e-07
-5.5965804e-08
2.9153045e-07
-6.3054766e-08
3.2459842e-07
-6.9816781e-08
3.6331686e-07
-7.5975975e-08
4.1003659e-07
-8.1290529e-08
4.6759579e-07
-8.5581949e-08
5.3927057e-07
-8.8757738e-08
6.2872951e-07
-9.0821465e-08
7.4001832e-07
-9.186513e-08
8.7760463e-07
-9.2042385e-08
1.0465122e-06
-9.152841e-08
1.2525597e-06
-9.0478221e-08
1.5026941e-06
-8.8997575e-08
1.8053848e-06
-8.7132876e-08
2.1710404e-06
-8.4877173e-08
2.6124379e-06
-8.218338e-08
3.1451772e-06
-7.8973794e-08
3.7882266e-06
-7.5149006e-08
4.5645599e-06
-7.0581668e-08
5.5020067e-06
-6.5125239e-08
6.6341911e-06
-5.8590263e-08
8.0018538e-06
-5.0765072e-08
9.6541676e-06
-4.1369416e-08
1.1650789e-05
-3.0090279e-08
1.4063599e-05
-1.6491291e-08
1.6979781e-05
2.050224e-05
-6.0659792e-12
3.6540658e-10
-2.6911937e-11
1.2378633e-09
-6.7526336e-11
2.3812293e-09
-1.3427336e-10
3.8603097e-09
-2.3524275e-10
5.7526611e-09
-3.8068205e-10
8.1501761e-09
-5.835206e-10
1.1160428e-08
-8.6000181e-10
1.4907513e-08
-1.2304267e-09
1.9532019e-08
-1.7200072e-09
2.5189639e-08
-2.3598099e-09
3.2047826e-08
-3.1877169e-09
4.0279843e-08
-4.249312e-09
5.0055596e-08
-5.5984877e-09
6.1528915e-08
-7.2974555e-09
7.4821551e-08
-9.4157553e-09
9.0005228e-08
-1.202767e-08
1.0708472e-07
-1.520745e-08
1.2598689e-07
-1.9021844e-08
1.4656272e-07
-2.3519801e-08
1.6861003e-07
-2.8719959e-08
1.9192379e-07
-3.459755e-08
2.1637628e-07
-4.1073212e-08
2.4202227e-07
-4.8006847e-08
2.6921622e-07
-5.5199137e-08
2.9872274e-07
-6.2402136e-08
3.3180142e-07
-6.9338595e-08
3.7025332e-07
-7.5728106e-08
4.164261e-07
-8.1316887e-08
4.7318457e-07
-8.5907413e-08
5.438611e-07
-8.9383074e-08
6.3220516e-07
-9.1721983e-08
7.4235723e-07
-9.2994587e-08
8.7887724e-07
-9.3341802e-08
1.0468594e-06
-9.2937286e-08
1.2521552e-06
-9.1944484e-08
1.5017013e-06
-9.0482674e-08
1.803923e-06
-8.8611475e-08
2.1691692e-06
-8.63331e-08
2.6101596e-06
-8.3605171e-08
3.1424493e-06
-8.0351041e-08
3.7849725e-06
-7.6470147e-08
4.5606791e-06
-7.1833047e-08
5.4973697e-06
-6.6289501e-08
6.6286476e-06
-5.9647029e-08
7.9952114e-06
-5.1687814e-08
9.6462084e-06
-4.2127641e-08
1.1641229e-05
-3.0644217e-08
1.4052116e-05
-1.679528e-08
1.6965932e-05
2.0485445e-05
-5.8537644e-12
3.712604e-10
-2.5973441e-11
1.2579829e-09
-6.5177541e-11
2.4204335e-09
-1.2961552e-10
3.9247476e-09
-2.2710706e-10
5.8501528e-09
-3.6756229e-10
8.2906315e-09
-5.6349211e-10
1.1356358e-08
-8.3062685e-10
1.5174647e-08
-1.1886413e-09
1.9890034e-08
-1.6620018e-09
2.5662999e-08
-2.2808955e-09
3.2666719e-08
-3.082208e-09
4.1081155e-08
-4.1104346e-09
5.1083823e-08
-5.4183591e-09
6.2836839e-08
-7.0671929e-09
7.6470386e-08
-9.1257864e-09
9.2063825e-08
-1.1668363e-08
1.0962729e-07
-1.4770124e-08
1.2908866e-07
-1.8500279e-08
1.5029288e-07
-2.2912192e-08
1.7302194e-07
-2.8031179e-08
1.9704278e-07
-3.3841381e-08
2.2218648e-07
-4.0274089e-08
2.4845498e-07
-4.7200517e-08
2.7614265e-07
-5.4431808e-08
3.0595402e-07
-6.1727789e-08
3.390974e-07
-6.8814588e-08
3.7734012e-07
-7.5409183e-08
4.2302069e-07
-8.124836e-08
4.7902375e-07
-8.61183e-08
5.4873103e-07
-8.9880529e-08
6.3596739e-07
-9.2488939e-08
7.4496564e-07
-9.3991913e-08
8.803802e-07
-9.4515444e-08
1.047383e-06
-9.4228822e-08
1.2518686e-06
-9.3301255e-08
1.5007738e-06
-9.1864133e-08
1.8024859e-06
-8.999015e-08
2.1672952e-06
-8.7691574e-08
2.607861e-06
-8.4931431e-08
3.1396892e-06
-8.1634871e-08
3.781676e-06
-7.770055e-08
4.5567448e-06
-7.29974e-08
5.4926665e-06
-6.7371689e-08
6.623022e-06
-6.0628358e-08
7.9884681e-06
-5.2543818e-08
9.6381239e-06
-4.283039e-08
1.1631515e-05
-3.1157176e-08
1.4040443e-05
-1.7076493e-08
1.6951852e-05
2.0468369e-05
-5.6593849e-12
3.7691976e-10
-2.5112729e-11
1.2774363e-09
-6.3022762e-11
2.4583434e-09
-1.2534092e-10
3.9870656e-09
-2.1963812e-10
5.9444502e-09
-3.5551385e-10
8.4265071e-09
-5.4509262e-10
1.1545937e-08
-8.0362705e-10
1.5433182e-08
-1.1502139e-09
2.0236621e-08
-1.6086225e-09
2.6121407e-08
-2.208218e-09
3.3266315e-08
-2.9849457e-09
4.1857883e-08
-3.9822669e-09
5.2081144e-08
-5.2518887e-09
6.4106461e-08
-6.8540255e-09
7.8072521e-08
-8.8567786e-09
9.4066579e-08
-1.1334147e-08
1.1210466e-07
-1.4362021e-08
1.3211653e-07
-1.8011618e-08
1.5394248e-07
-2.2340099e-08
1.7735042e-07
-2.7378691e-08
2.0208137e-07
-3.3119607e-08
2.279274e-07
-3.950397e-08
2.5483934e-07
-4.6413701e-08
2.8305238e-07
-5.3670135e-08
3.1321046e-07
-6.1041214e-08
3.4646848e-07
-6.825731e-08
3.8455621e-07
-7.5034415e-08
4.297978e-07
-8.1101995e-08
4.8509135e-07
-8.6232377e-08
5.5386142e-07
-9.0267511e-08
6.4000253e-07
-9.3138473e-08
7.4783659e-07
-9.4871566e-08
8.8211328e-07
-9.5576384e-08
1.0480878e-06
-9.5415178e-08
1.2517074e-06
-9.4560426e-08
1.499919e-06
-9.3153971e-08
1.8010794e-06
-9.1281275e-08
2.1654226e-06
-8.8965057e-08
2.6055448e-06
-8.6174674e-08
3.1368988e-06
-8.2837791e-08
3.7783391e-06
-7.8852616e-08
4.5527596e-06
-7.4086766e-08
5.4879007e-06
-6.8383337e-08
6.6173186e-06
-6.154491e-08
7.9816297e-06
-5.3342691e-08
9.6299217e-06
-4.348567e-08
1.1621658e-05
-3.1635188e-08
1.4028592e-05
-1.7338269e-08
1.6937555e-05
2.045103e-05
-5.4801736e-12
3.824e-10
-2.431958e-11
1.2962758e-09
-6.103669e-11
2.4950605e-09
-1.2140048e-10
4.0474293e-09
-2.1275242e-10
6.0358018e-09
-3.4440268e-10
8.5581574e-09
-5.2811799e-10
1.1729652e-08
-7.7870963e-10
1.5683773e-08
-1.1147334e-09
2.0572645e-08
-1.5593083e-09
2.6565981e-08
-2.1410301e-09
3.3848037e-08
-2.8949587e-09
4.261181e-08
-3.8635656e-09
5.3049751e-08
-5.0975232e-09
6.5340419e-08
-6.6560514e-09
7.9631049e-08
-8.6064699e-09
9.6016999e-08
-1.1022443e-08
1.1452063e-07
-1.3980306e-08
1.350744e-07
-1.7552931e-08
1.575151e-07
-2.1800749e-08
1.8159824e-07
-2.6760235e-08
2.0704086e-07
-3.24309e-08
2.3359806e-07
-3.876295e-08
2.6117139e-07
-4.5648416e-08
2.8993784e-07
-5.2918528e-08
3.2048058e-07
-6.0349447e-08