/*--------------------------------*- C++ -*----------------------------------*\
| =========                 |                                                 |
| \\      /  F ield         | OpenFOAM: The Open Source CFD Toolbox           |
|  \\    /   O peration     | Version:  4.0                                   |
|   \\  /    A nd           | Web:      www.OpenFOAM.org                      |
|    \\/     M anipulation  |                                                 |
\*---------------------------------------------------------------------------*/
FoamFile
{
    version     2.0;
    format      ascii;
    class       volScalarField;
    location    "2000";
    object      rho;
}
// * * * * * * * * * * * * * * * * * * * * * * * * * * * * * * * * * * * * * //

dimensions      [1 -3 0 0 0 0 0];

internalField   nonuniform List<scalar> 
5000
(
1.0852523
1.0919494
1.099123
1.1067267
1.114691
1.1229221
1.1313027
1.1396954
1.1479484
1.1559048
1.1634125
1.1703357
1.1765655
1.1820278
1.1866877
1.19055
1.193655
1.1960721
1.1978902
1.1992085
1.2001272
1.2007408
1.201132
1.2013691
1.2015051
1.2015786
1.2016157
1.2016333
1.2016409
1.201644
1.2016451
1.2016455
1.2016456
1.2016457
1.2016457
1.2016457
1.2016457
1.2016457
1.2016457
1.2016457
1.2016457
1.2016457
1.2016457
1.2016457
1.2016457
1.2016457
1.2016457
1.2016457
1.2016457
1.2016457
1.0601089
1.0657771
1.0718958
1.0784746
1.0855141
1.0930017
1.1009084
1.1091849
1.1177583
1.1265304
1.1353776
1.1441541
1.1526977
1.1608394
1.1684154
1.1752807
1.1813221
1.1864697
1.1907031
1.1940524
1.1965929
1.1984337
1.1997034
1.2005322
1.2010427
1.2013385
1.2014991
1.2015802
1.2016181
1.2016344
1.2016409
1.2016431
1.2016439
1.2016441
1.2016442
1.2016442
1.2016442
1.2016442
1.2016442
1.2016442
1.2016442
1.2016442
1.2016442
1.2016442
1.2016442
1.2016442
1.2016442
1.2016442
1.2016442
1.2016442
1.0484107
1.0536003
1.0592065
1.0652482
1.0717405
1.0786917
1.086101
1.0939548
1.1022222
1.1108512
1.1197641
1.1288546
1.1379874
1.1470005
1.1557129
1.1639366
1.1714925
1.1782287
1.1840373
1.1888663
1.1927244
1.1956768
1.1978333
1.1993307
1.2003151
1.2009251
1.2012796
1.2014717
1.2015682
1.2016129
1.2016318
1.2016391
1.2016416
1.2016424
1.2016426
1.2016427
1.2016427
1.2016427
1.2016427
1.2016427
1.2016427
1.2016427
1.2016427
1.2016427
1.2016427
1.2016427
1.2016427
1.2016427
1.2016427
1.2016427
1.0416925
1.0466087
1.0519185
1.0576423
1.0637979
1.0703992
1.0774541
1.0849616
1.0929085
1.1012653
1.109982
1.1189833
1.1281654
1.1373945
1.1465086
1.1553249
1.1636511
1.1713028
1.1781225
1.183998
1.1888751
1.1927631
1.1957297
1.1978882
1.1993801
1.200355
1.2009543
1.201299
1.2014832
1.201574
1.2016151
1.201632
1.2016383
1.2016404
1.201641
1.2016411
1.2016412
1.2016412
1.2016412
1.2016412
1.2016412
1.2016412
1.2016412
1.2016412
1.2016412
1.2016412
1.2016412
1.2016412
1.2016412
1.2016412
1.0371742
1.0419073
1.0470183
1.0525274
1.0584535
1.0648124
1.0716154
1.0788671
1.0865627
1.0946843
1.1031972
1.1120449
1.1211455
1.1303882
1.1396325
1.1487116
1.1574395
1.1656253
1.17309
1.1796867
1.1853175
1.189945
1.1935945
1.1963471
1.1983251
1.1996735
1.2005413
1.2010654
1.2013606
1.2015145
1.2015883
1.2016205
1.2016333
1.2016377
1.2016392
1.2016396
1.2016396
1.2016397
1.2016397
1.2016397
1.2016397
1.2016397
1.2016397
1.2016397
1.2016397
1.2016397
1.2016397
1.2016397
1.2016397
1.2016397
1.0337913
1.0383879
1.0433502
1.0486986
1.0544519
1.0606267
1.0672363
1.0742882
1.0817823
1.0897078
1.0980394
1.106733
1.115722
1.1249127
1.1341827
1.1433812
1.1523339
1.1608528
1.1687519
1.1758653
1.1820663
1.1872824
1.191503
1.1947771
1.1972038
1.1989152
1.2000584
1.2007776
1.201201
1.2014327
1.2015495
1.2016034
1.2016258
1.2016343
1.2016371
1.2016379
1.2016381
1.2016382
1.2016382
1.2016382
1.2016382
1.2016382
1.2016382
1.2016382
1.2016382
1.2016382
1.2016382
1.2016382
1.2016382
1.2016382
1.0311169
1.0356058
1.040451
1.0456724
1.051289
1.0573177
1.0637727
1.0706634
1.0779928
1.0857545
1.0939295
1.1024826
1.1113577
1.1204743
1.1297243
1.1389711
1.1480521
1.1567866
1.1649879
1.1724807
1.1791199
1.1848074
1.1895035
1.1932292
1.19606
1.1981123
1.1995257
1.2004457
1.2010081
1.2013287
1.2014977
1.2015795
1.2016154
1.2016296
1.2016346
1.2016361
1.2016365
1.2016366
1.2016367
1.2016367
1.2016367
1.2016367
1.2016367
1.2016367
1.2016367
1.2016367
1.2016367
1.2016367
1.2016367
1.2016367
1.0289157
1.0333161
1.0380652
1.0431823
1.0486863
1.0545944
1.0609213
1.0676778
1.0748687
1.0824909
1.09053
1.098957
1.107724
1.1167606
1.1259701
1.1352279
1.1443826
1.1532614
1.1616805
1.1694605
1.1764444
1.1825156
1.1876111
1.1917281
1.1949203
1.1972876
1.1989599
1.2000798
1.2007865
1.2012039
1.2014328
1.2015482
1.2016013
1.2016233
1.2016315
1.2016342
1.2016349
1.2016351
1.2016352
1.2016352
1.2016352
1.2016352
1.2016352
1.2016352
1.2016352
1.2016352
1.2016352
1.2016352
1.2016352
1.2016352
1.0270537
1.0313796
1.0360473
1.0410764
1.0464852
1.0522913
1.0585095
1.0651515
1.0722237
1.0797252
1.087645
1.095959
1.1046257
1.1135826
1.1227423
1.1319905
1.1411856
1.1501629
1.158743
1.1667455
1.1740058
1.1803938
1.1858283
1.1902859
1.1938009
1.1964573
1.1983741
1.1996888
1.2005414
1.2010605
1.201355
1.2015093
1.2015832
1.2016152
1.2016277
1.2016319
1.2016332
1.2016336
1.2016337
1.2016337
1.2016337
1.2016337
1.2016337
1.2016337
1.2016337
1.2016337
1.2016337
1.2016337
1.2016337
1.2016337
1.0254455
1.029707
1.0343048
1.0392578
1.0445846
1.0503024
1.0564265
1.0629691
1.0699378
1.0773333
1.0851474
1.0933598
1.1019339
1.1108139
1.11992
1.1291467
1.1383611
1.1474063
1.1561079
1.1642861
1.1717722
1.1784257
1.1841508
1.1889069
1.1927111
1.1956321
1.1977781
1.1992804
1.2002775
1.2009009
1.2012652
1.2014626
1.2015607
1.201605
1.2016229
1.2016294
1.2016314
1.201632
1.2016321
1.2016322
1.2016322
1.2016322
1.2016322
1.2016322
1.2016322
1.2016322
1.2016322
1.2016322
1.2016322
1.2016322
1.024034
1.0282391
1.0327754
1.0376619
1.0429167
1.048557
1.0545985
1.0610535
1.0679306
1.075232
1.0829515
1.0910718
1.0995607
1.1083675
1.1174191
1.1266173
1.1358373
1.1449291
1.1537236
1.1620432
1.1697162
1.1765949
1.1825717
1.1875913
1.1916554
1.194819
1.1971792
1.1988607
1.1999992
1.2007276
1.2011646
1.2014085
1.2015338
1.2015924
1.2016172
1.2016264
1.2016295
1.2016304
1.2016306
1.2016307
1.2016307
1.2016307
1.2016307
1.2016307
1.2016307
1.2016307
1.2016307
1.2016307
1.2016307
1.2016307
1.0227788
1.0269339
1.0314157
1.036243
1.0414338
1.0470054
1.0529732
1.0593502
1.0661454
1.0733623
1.0809964
1.0890329
1.0974431
1.1061806
1.1151782
1.1243441
1.1335603
1.1426835
1.15155
1.1599845
1.1678144
1.1748864
1.1810832
1.1863371
1.1906361
1.1940222
1.1965825
1.1984344
1.1997102
1.200543
1.2010543
1.2013472
1.2015023
1.2015774
1.2016102
1.201623
1.2016274
1.2016287
1.2016291
1.2016292
1.2016292
1.2016292
1.2016292
1.2016292
1.2016292
1.2016292
1.2016292
1.2016292
1.2016292
1.2016292
1.0216508
1.0257609
1.0301939
1.0349681
1.0401015
1.0456112
1.0515128
1.0578195
1.0645409
1.0716813
1.0792377
1.0871974
1.0955345
1.1042068
1.1131516
1.1222829
1.131489
1.1406327
1.1495553
1.1580845
1.1660474
1.1732867
1.1796774
1.1851409
1.1896532
1.1932444
1.1959915
1.1980051
1.1994136
1.2003492
1.2009356
1.2012795
1.2014665
1.2015597
1.2016019
1.201619
1.2016251
1.201627
1.2016275
1.2016277
1.2016277
1.2016277
1.2016277
1.2016277
1.2016277
1.2016277
1.2016277
1.2016277
1.2016277
1.2016277
1.0206281
1.0246974
1.0290861
1.0338123
1.0388936
1.0443473
1.0501889
1.0564318
1.063086
1.0701565
1.0776418
1.0855307
1.0938
1.1024107
1.1113044
1.1204001
1.1295917
1.1387477
1.1477141
1.1563219
1.1643987
1.1717843
1.1783471
1.1839993
1.1887061
1.1924867
1.1954087
1.1975755
1.1991118
1.2001483
1.2008096
1.2012057
1.2014264
1.2015395
1.2015922
1.2016143
1.2016225
1.2016252
1.201626
1.2016261
1.2016262
1.2016262
1.2016262
1.2016262
1.2016262
1.2016262
1.2016262
1.2016262
1.2016262
1.2016262
1.0196937
1.023726
1.0280742
1.0327565
1.0377904
1.0431929
1.0489797
1.0551642
1.0617568
1.0687633
1.0761829
1.0840064
1.0922124
1.1007649
1.1096094
1.1186692
1.1278432
1.1370052
1.1460059
1.1546795
1.1628546
1.1703688
1.1770854
1.1829085
1.1877935
1.1917496
1.1948355
1.1971478
1.1988069
1.1999416
1.2006775
1.2011266
1.2013822
1.2015166
1.2015811
1.2016089
1.2016197
1.2016233
1.2016243
1.2016246
1.2016247
1.2016247
1.2016247
1.2016247
1.2016247
1.2016247
1.2016247
1.2016247
1.2016247
1.2016247
1.0188347
1.0228327
1.0271439
1.0317859
1.0367762
1.0421317
1.047868
1.0539988
1.0605347
1.067482
1.074841
1.0826034
1.0907502
1.0992478
1.1080449
1.1170689
1.1262233
1.1353866
1.144414
1.153143
1.1614034
1.1690316
1.1758864
1.181865
1.1869139
1.1910331
1.194273
1.1967234
1.1985003
1.1997308
1.2005402
1.2010427
1.2013344
1.2014913
1.2015685
1.2016028
1.2016165
1.2016213
1.2016227
1.2016231
1.2016232
1.2016232
1.2016232
1.2016232
1.2016232
1.2016232
1.2016232
1.2016232
1.2016232
1.2016232
1.0180403
1.0220069
1.0262837
1.0308885
1.0358385
1.0411506
1.0468403
1.0529213
1.0594047
1.0662971
1.0735996
1.0813052
1.0893964
1.097842
1.1065935
1.1155821
1.1247155
1.1338764
1.1429244
1.1517002
1.1600353
1.1677649
1.1747446
1.1808653
1.1860655
1.190337
1.1937217
1.1963034
1.1981934
1.1995168
1.2003987
1.2009545
1.201283
1.2014634
1.2015544
1.2015959
1.2016129
1.2016191
1.201621
1.2016215
1.2016217
1.2016217
1.2016217
1.2016217
1.2016217
1.2016217
1.2016217
1.2016217
1.2016217
1.2016217
1.0173023
1.0212396
1.0254846
1.0300548
1.0349674
1.0402391
1.0458855
1.0519204
1.0583549
1.0651961
1.0724459
1.0800982
1.088137
1.0965332
1.105241
1.1141948
1.1233061
1.1324619
1.1415256
1.1503411
1.1587417
1.1665622
1.1736552
1.1799063
1.1852468
1.1896606
1.193182
1.1958885
1.1978872
1.1993007
1.2002538
1.2008627
1.2012285
1.2014332
1.2015387
1.2015882
1.201609
1.2016167
1.2016193
1.20162
1.2016201
1.2016202
1.2016202
1.2016202
1.2016202
1.2016202
1.2016202
1.2016202
1.2016202
1.2016202
1.0166135
1.0205235
1.0247388
1.0292768
1.0341546
1.0393887
1.0449947
1.0509864
1.0573752
1.0641686
1.0713689
1.0789711
1.0869605
1.0953098
1.1039756
1.1128953
1.121984
1.1311324
1.1402077
1.1490571
1.1575154
1.1654176
1.1726139
1.1789851
1.1844561
1.1890032
1.1926538
1.1954793
1.1975824
1.1990833
1.200106
1.2007677
1.2011711
1.2014008
1.2015216
1.2015796
1.2016046
1.2016142
1.2016175
1.2016184
1.2016186
1.2016187
1.2016187
1.2016187
1.2016187
1.2016187
1.2016187
1.2016187
1.2016187
1.2016187
1.0159683
1.0198527
1.0240403
1.0285481
1.0333932
1.0385921
1.0441602
1.0501116
1.0564575
1.063206
1.0703598
1.0779148
1.0858574
1.094162
1.1027875
1.1116739
1.1207396
1.1298789
1.1389625
1.1478406
1.1563501
1.1643262
1.1716169
1.178099
1.1836917
1.1883642
1.1921372
1.1950761
1.1972795
1.1988651
1.199956
1.2006699
1.2011111
1.2013663
1.2015031
1.2015702
1.2015999
1.2016115
1.2016156
1.2016168
1.2016171
1.2016172
1.2016172
1.2016172
1.2016172
1.2016172
1.2016172
1.2016172
1.2016172
1.2016172
1.0153617
1.0192222
1.0233836
1.0278631
1.0326776
1.0378434
1.043376
1.0492893
1.055595
1.0623011
1.069411
1.0769213
1.0848195
1.0930816
1.1016683
1.1105223
1.1195648
1.1286936
1.1377827
1.1466854
1.1552404
1.1632833
1.1706607
1.1772458
1.1829521
1.1877427
1.1916318
1.1946791
1.1969791
1.1986468
1.1998044
1.2005697
1.2010486
1.2013298
1.2014832
1.2015599
1.2015946
1.2016086
1.2016136
1.2016152
1.2016156
1.2016157
1.2016157
1.2016157
1.2016157
1.2016157
1.2016157
1.2016157
1.2016157
1.2016157
1.0147897
1.0186276
1.0227645
1.0272173
1.0320029
1.0371375
1.0426365
1.048514
1.0547817
1.0614479
1.0685163
1.0759842
1.0838402
1.0920616
1.100611
1.1094333
1.1184527
1.1275699
1.1366623
1.1455858
1.1541813
1.1622851
1.1697423
1.176423
1.1822359
1.1871381
1.1911375
1.1942885
1.1966815
1.1984287
1.1996514
1.2004676
1.2009841
1.2012915
1.2014619
1.2015487
1.2015889
1.2016055
1.2016116
1.2016135
1.201614
1.2016142
1.2016142
1.2016142
1.2016142
1.2016142
1.2016142
1.2016142
1.2016142
1.2016142
1.0142489
1.0180654
1.022179
1.0266066
1.0313649
1.03647
1.0419374
1.047781
1.0540127
1.060641
1.0676701
1.0750978
1.0829136
1.091096
1.0996095
1.1084011
1.1173974
1.1265022
1.1355959
1.1445371
1.1531689
1.1613281
1.168859
1.1756289
1.1815418
1.1865495
1.1906539
1.1939043
1.1963869
1.1982113
1.1994976
1.2003638
1.2009177
1.2012516
1.2014393
1.2015367
1.2015827
1.2016021
1.2016094
1.2016118
1.2016125
1.2016127
1.2016127
1.2016127
1.2016127
1.2016127
1.2016127
1.2016127
1.2016127
1.2016127
1.0137361
1.0175324
1.021624
1.0260277
1.0307601
1.0358373
1.0412747
1.0470862
1.0532837
1.0598761
1.0668678
1.0742572
1.0820346
1.0901798
1.0986587
1.1074203
1.1163937
1.1254854
1.1345787
1.143535
1.1521992
1.1604091
1.1680083
1.1748614
1.1808686
1.1859762
1.1901808
1.1935265
1.1960955
1.1979948
1.1993431
1.2002586
1.2008497
1.20121
1.2014155
1.2015238
1.201576
1.2015985
1.2016072
1.2016101
1.2016109
1.2016111
1.2016112
1.2016112
1.2016112
1.2016112
1.2016112
1.2016112
1.2016112
1.2016112
1.0132489
1.0170259
1.0210967
1.0254777
1.0301855
1.0352362
1.040645
1.046426
1.0525911
1.0591493
1.0661054
1.0734582
1.081199
1.0893084
1.0977539
1.1064863
1.115437
1.1245152
1.1336068
1.1425758
1.1512691
1.1595254
1.1671879
1.174119
1.1802151
1.1854176
1.1897178
1.1931551
1.1958074
1.1977794
1.1991884
1.2001522
1.2007801
1.2011671
1.2013905
1.2015102
1.2015688
1.2015947
1.2016048
1.2016083
1.2016094
1.2016096
1.2016097
1.2016097
1.2016097
1.2016097
1.2016097
1.2016097
1.2016097
1.2016097
1.0127849
1.0165436
1.0205945
1.0249539
1.0296384
1.0346638
1.0400455
1.0457974
1.0519316
1.0584572
1.0653793
1.0726972
1.0804029
1.0884779
1.0968911
1.1055952
1.1145236
1.1235878
1.1326765
1.141656
1.1503755
1.1586745
1.1663959
1.1734002
1.1795802
1.1848729
1.1892646
1.1927898
1.1955228
1.1975654
1.1990335
1.2000449
1.2007093
1.2011228
1.2013645
1.2014957
1.2015611
1.2015905
1.2016024
1.2016065
1.2016078
1.2016081
1.2016082
1.2016082
1.2016082
1.2016082
1.2016082
1.2016082
1.2016082
1.2016082
1.0123421
1.0160834
1.0201153
1.0244542
1.0291163
1.0341177
1.0394735
1.0451977
1.0513024
1.0577969
1.0646865
1.071971
1.0796429
1.0876849
1.096067
1.1047435
1.1136497
1.1226997
1.1317845
1.1407729
1.1495159
1.1578542
1.1656305
1.1727035
1.178963
1.1843415
1.1888209
1.1924307
1.1952416
1.1973528
1.1988788
1.1999368
1.2006373
1.2010773
1.2013374
1.2014805
1.2015529
1.2015861
1.2015997
1.2016046
1.2016062
1.2016066
1.2016067
1.2016067
1.2016067
1.2016067
1.2016067
1.2016067
1.2016067
1.2016067
1.0119189
1.0156435
1.0196573
1.0239765
1.0286174
1.0335957
1.0389268
1.0446245
1.050701
1.0571657
1.0640242
1.0712767
1.0789163
1.0869264
1.0952784
1.103928
1.1128125
1.121848
1.130928
1.1399237
1.1486878
1.1570624
1.1648899
1.1720276
1.1783624
1.1838229
1.1883862
1.1920776
1.1949639
1.1971419
1.1987243
1.1998282
1.2005643
1.2010307
1.2013093
1.2014645
1.2015442
1.2015814
1.201597
1.2016027
1.2016046
1.2016051
1.2016052
1.2016052
1.2016052
1.2016052
1.2016052
1.2016052
1.2016052
1.2016052
1.0115137
1.0152223
1.0192188
1.0235191
1.0281396
1.033096
1.0384034
1.0440758
1.0501252
1.0565614
1.06339
1.0706118
1.0782202
1.0861997
1.0945226
1.103146
1.1120091
1.12103
1.1301045
1.139106
1.1478892
1.1562972
1.1641726
1.1713714
1.1777778
1.1833165
1.1879603
1.1917304
1.1946898
1.1969326
1.1985703
1.1997192
1.2004905
1.2009832
1.2012803
1.2014478
1.2015351
1.2015765
1.2015941
1.2016007
1.2016029
1.2016035
1.2016037
1.2016037
1.2016037
1.2016037
1.2016037
1.2016037
1.2016037
1.2016037
1.011125
1.0148184
1.0187982
1.0230806
1.0276815
1.0326168
1.0379015
1.0435495
1.0495731
1.0559819
1.0627819
1.069974
1.0775525
1.0855024
1.093797
1.102395
1.111237
1.1202433
1.1293116
1.1383177
1.1471181
1.1555571
1.1634774
1.1707339
1.1772082
1.1828217
1.1875429
1.1913888
1.1944191
1.1967251
1.1984167
1.1996099
1.200416
1.2009347
1.2012505
1.2014305
1.2015254
1.2015712
1.2015911
1.2015987
1.2016012
1.201602
1.2016022
1.2016022
1.2016022
1.2016022
1.2016022
1.2016022
1.2016022
1.2016022
1.0107517
1.0144305
1.0183943
1.0226594
1.0272416
1.0321566
1.0374195
1.0430442
1.0490429
1.0554254
1.0621978
1.0693615
1.0769111
1.0848324
1.0930996
1.1016727
1.1104941
1.1194856
1.1285473
1.1375569
1.1463728
1.1548405
1.1628029
1.1701139
1.176653
1.182338
1.1871337
1.1910529
1.1941519
1.1965194
1.1982638
1.1995004
1.2003408
1.2008855
1.2012199
1.2014124
1.2015154
1.2015657
1.2015879
1.2015966
1.2015996
1.2016004
1.2016006
1.2016007
1.2016007
1.2016007
1.2016007
1.2016007
1.2016007
1.2016007
1.0103928
1.0140574
1.0180059
1.0222543
1.0268185
1.0317141
1.036956
1.0425583
1.048533
1.0548902
1.0616361
1.0687724
1.0762941
1.0841877
1.0924284
1.1009773
1.1097783
1.1187551
1.1278097
1.1368219
1.1456517
1.154146
1.1621479
1.1695106
1.1761114
1.181865
1.1867323
1.1907224
1.1938881
1.1963155
1.1981115
1.1993908
1.2002651
1.2008355
1.2011885
1.2013938
1.2015048
1.2015599
1.2015846
1.2015944
1.2015978
1.2015989
1.2015991
1.2015992
1.2015992
1.2015992
1.2015992
1.2015992
1.2015992
1.2015992
1.0100471
1.0136981
1.0176319
1.0218643
1.0264111
1.031288
1.0365098
1.0420904
1.0480421
1.0543749
1.0610952
1.068205
1.0756998
1.0835667
1.0917816
1.1003069
1.1090879
1.11805
1.1270972
1.136111
1.1449534
1.1534723
1.1615115
1.1689232
1.1755828
1.1814022
1.1863385
1.1903972
1.1936277
1.1961135
1.19796
1.1992812
1.2001889
1.2007849
1.2011565
1.2013746
1.2014938
1.2015538
1.2015811
1.2015922
1.2015961
1.2015973
1.2015976
1.2015977
1.2015977
1.2015977
1.2015977
1.2015977
1.2015977
1.2015977
1.0097138
1.0133518
1.0172713
1.0214883
1.0260184
1.0308772
1.0360796
1.0416394
1.0475689
1.0538781
1.0605738
1.067658
1.0751268
1.0829677
1.0911576
1.0996599
1.1084212
1.1173687
1.126408
1.1354227
1.1442764
1.1528184
1.1608926
1.1683508
1.1750666
1.1809491
1.1859521
1.1900772
1.1933706
1.1959134
1.1978094
1.1991718
1.2001124
1.2007337
1.2011238
1.2013548
1.2014824
1.2015474
1.2015774
1.2015898
1.2015943
1.2015957
1.2015961
1.2015962
1.2015962
1.2015962
1.2015962
1.2015962
1.2015962
1.2015962
1.0093921
1.0130175
1.0169233
1.0211254
1.0256394
1.0304808
1.0356644
1.0412041
1.0471122
1.0533987
1.0600705
1.0671301
1.0745736
1.0823893
1.090555
1.0990348
1.1077768
1.1167098
1.125741
1.1347558
1.1436197
1.152183
1.1602903
1.1677927
1.1745623
1.1805055
1.1855726
1.1897621
1.1931167
1.1957152
1.1976596
1.1990624
1.2000356
1.2006819
1.2010905
1.2013345
1.2014706
1.2015407
1.2015736
1.2015874
1.2015925
1.2015941
1.2015946
1.2015947
1.2015947
1.2015947
1.2015947
1.2015947
1.2015947
1.2015947
1.0090813
1.0126945
1.0165871
1.0207748
1.0252732
1.0300978
1.0352633
1.0407836
1.0466709
1.0529355
1.0595843
1.0666199
1.074039
1.0818304
1.0899724
1.0984303
1.1071534
1.1160718
1.1250946
1.1341091
1.1429821
1.1515653
1.1597037
1.1672483
1.1740693
1.1800708
1.1852001
1.1894519
1.1928661
1.1955189
1.1975107
1.1989533
1.1999585
1.2006297
1.2010567
1.2013137
1.2014584
1.2015338
1.2015696
1.2015849
1.2015907
1.2015925
1.2015931
1.2015932
1.2015932
1.2015932
1.2015932
1.2015932
1.2015932
1.2015932
1.0087808
1.0123821
1.0162619
1.0204357
1.0249191
1.0297274
1.0348755
1.0403769
1.0462443
1.0524876
1.0591141
1.0661265
1.073522
1.0812896
1.0894086
1.0978451
1.1065496
1.1154536
1.1244679
1.1334814
1.1423625
1.1509642
1.1591322
1.1667168
1.1735872
1.1796448
1.1848341
1.1891464
1.1926186
1.1953245
1.1973628
1.1988445
1.1998813
1.200577
1.2010224
1.2012924
1.2014458
1.2015266
1.2015655
1.2015823
1.2015888
1.2015909
1.2015915
1.2015917
1.2015917
1.2015917
1.2015917
1.2015917
1.2015917
1.2015917
1.0084898
1.0120797
1.0159471
1.0201075
1.0245763
1.0293689
1.0345
1.0399833
1.0458313
1.052054
1.0586589
1.0656489
1.0730213
1.080766
1.0888625
1.0972782
1.1059643
1.1148541
1.1238597
1.1328717
1.1417601
1.1503791
1.1585749
1.1661978
1.1731154
1.1792272
1.1844744
1.1888455
1.1923743
1.195132
1.1972158
1.1987359
1.1998039
1.200524
1.2009877
1.2012706
1.2014329
1.2015192
1.2015612
1.2015797
1.2015869
1.2015893
1.20159
1.2015902
1.2015902
1.2015902
1.2015902
1.2015902
1.2015902
1.2015902
1.0082078
1.0117867
1.0156421
1.0197894
1.0242442
1.0290216
1.0341363
1.039602
1.0454311
1.051634
1.0582179
1.0651861
1.0725362
1.0802585
1.0883332
1.0967284
1.1053966
1.1142722
1.123269
1.132279
1.1411739
1.149809
1.1580313
1.1656906
1.1726536
1.1788175
1.1841209
1.1885491
1.1921329
1.1949413
1.1970698
1.1986277
1.1997265
1.2004707
1.2009525
1.2012485
1.2014195
1.2015115
1.2015568
1.2015769
1.2015849
1.2015876
1.2015885
1.2015887
1.2015887
1.2015887
1.2015887
1.2015887
1.2015887
1.2015887
1.0079344
1.0115026
1.0153463
1.0194811
1.0239222
1.0286848
1.0337835
1.0392322
1.0450431
1.0512267
1.0577902
1.0647373
1.0720657
1.0797662
1.0878197
1.0961949
1.1048455
1.113707
1.1226948
1.1317025
1.1406031
1.1492533
1.1575006
1.1651947
1.1722013
1.1784155
1.1837733
1.188257
1.1918945
1.1947525
1.1969248
1.1985199
1.199649
1.2004171
1.2009169
1.2012259
1.2014059
1.2015035
1.2015521
1.2015741
1.2015829
1.201586
1.2015869
1.2015872
1.2015872
1.2015872
1.2015872
1.2015872
1.2015872
1.2015872
1.007669
1.0112268
1.0150593
1.0191818
1.0236096
1.0283579
1.0334413
1.0388734
1.0446666
1.0508314
1.0573752
1.0643017
1.0716091
1.0792883
1.087321
1.0956767
1.10431
1.1131577
1.1221364
1.1311413
1.1400471
1.1487113
1.1569823
1.1647097
1.1717582
1.178021
1.1834315
1.1879691
1.191659
1.1945655
1.1967808
1.1984124
1.1995715
1.2003633
1.200881
1.201203
1.2013919
1.2014953
1.2015474
1.2015712
1.2015808
1.2015843
1.2015854
1.2015856
1.2015857
1.2015857
1.2015857
1.2015857
1.2015857
1.2015857
1.0074113
1.010959
1.0147805
1.0188911
1.0233061
1.0280405
1.0331089
1.0385249
1.044301
1.0504475
1.0569722
1.0638787
1.0711656
1.0788241
1.0868366
1.0951731
1.1037894
1.1126233
1.1215929
1.1305948
1.139505
1.1481824
1.1564759
1.1642351
1.1713238
1.1776336
1.1830952
1.1876853
1.1914264
1.1943803
1.1966378
1.1983054
1.1994941
1.2003092
1.2008447
1.2011797
1.2013776
1.2014868
1.2015424
1.2015681
1.2015787
1.2015826
1.2015838
1.2015841
1.2015842
1.2015842
1.2015842
1.2015842
1.2015842
1.2015842
1.0071607
1.0106987
1.0145096
1.0186086
1.0230111
1.027732
1.0327858
1.0381862
1.0439456
1.0500745
1.0565805
1.0634675
1.0707344
1.0783729
1.0863655
1.0946834
1.1032829
1.1121032
1.1210636
1.1300621
1.1389762
1.1476659
1.1559807
1.1637705
1.170898
1.1772531
1.1827643
1.1874055
1.1911965
1.1941969
1.1964958
1.1981989
1.1994167
1.200255
1.2008082
1.2011561
1.201363
1.2014781
1.2015373
1.201565
1.2015766
1.2015809
1.2015822
1.2015826
1.2015827
1.2015827
1.2015827
1.2015827
1.2015827
1.2015827
1.0069171
1.0104455
1.014246
1.0183339
1.0227242
1.027432
1.0324716
1.0378569
1.0436
1.0497117
1.0561995
1.0630677
1.0703151
1.0779339
1.0859072
1.0942067
1.1027898
1.1115967
1.1205478
1.1295428
1.1384602
1.1471613
1.1554965
1.1633154
1.1704803
1.1768793
1.1824386
1.1871296
1.1909693
1.1940153
1.1963548
1.1980928
1.1993394
1.2002006
1.2007713
1.2011322
1.2013481
1.2014692
1.2015321
1.2015618
1.2015744
1.2015791
1.2015807
1.2015811
1.2015812
1.2015812
1.2015812
1.2015812
1.2015812
1.2015812
1.0066799
1.0101991
1.0139896
1.0180665
1.022445
1.02714
1.0321659
1.0375363
1.0432637
1.0493586
1.0558287
1.0626785
1.0699069
1.0775066
1.085461
1.0937426
1.1023095
1.111103
1.1200449
1.129036
1.1379563
1.1466681
1.1550226
1.1628696
1.1700704
1.1765118
1.1821179
1.1868574
1.1907448
1.1938354
1.1962149
1.1979872
1.1992622
1.2001461
1.2007342
1.2011079
1.201333
1.2014601
1.2015267
1.2015585
1.2015722
1.2015774
1.2015791
1.2015796
1.2015797
1.2015797
1.2015797
1.2015797
1.2015797
1.2015797
1.006449
1.0099591
1.0137398
1.0178061
1.0221731
1.0268556
1.0318681
1.0372242
1.0429362
1.0490148
1.0554677
1.0622995
1.0695094
1.0770903
1.0850263
1.0932903
1.1018414
1.1106217
1.1195544
1.1285413
1.137464
1.1461859
1.1545588
1.1624326
1.1696681
1.1761506
1.1818022
1.1865889
1.1905229
1.1936572
1.196076
1.1978821
1.1991852
1.2000915
1.2006969
1.2010835
1.2013175
1.2014507
1.2015211
1.2015551
1.2015699
1.2015756
1.2015775
1.2015781
1.2015782
1.2015782
1.2015782
1.2015782
1.2015782
1.2015782
1.0062239
1.0097253
1.0134964
1.0175523
1.0219081
1.0265786
1.031578
1.0369201
1.0426172
1.0486798
1.0551159
1.0619302
1.0691221
1.0766847
1.0846026
1.0928494
1.1013849
1.1101522
1.1190755
1.1280582
1.1369829
1.1457141
1.1541045
1.1620041
1.1692731
1.1757955
1.1814911
1.186324
1.1903035
1.1934807
1.195938
1.1977775
1.1991083
1.2000368
1.2006594
1.2010587
1.2013019
1.2014412
1.2015154
1.2015516
1.2015676
1.2015738
1.2015759
1.2015765
1.2015767
1.2015767
1.2015767
1.2015767
1.2015767
1.2015767
1.0060045
1.0094973
1.0132591
1.017305
1.0216498
1.0263085
1.0312952
1.0366236
1.0423061
1.0483532
1.054773
1.0615701
1.0687444
1.0762892
1.0841894
1.0924193
1.1009394
1.1096939
1.1186079
1.1275861
1.1365124
1.1452524
1.1536594
1.1615837
1.1688851
1.1754461
1.1811847
1.1860625
1.1900866
1.1933059
1.1958011
1.1976734
1.1990316
1.199982
1.2006217
1.2010337
1.201286
1.2014314
1.2015095
1.201548
1.2015652
1.201572
1.2015743
1.201575
1.2015752
1.2015752
1.2015752
1.2015752
1.2015752
1.2015752
1.0057905
1.0092749
1.0130276
1.0170636
1.0213979
1.026045
1.0310193
1.0363344
1.0420026
1.0480346
1.0544384
1.0612189
1.0683759
1.0759032
1.0837862
1.0919996
1.1005046
1.1092463
1.118151
1.1271246
1.1360521
1.1448003
1.1532232
1.1611713
1.1685039
1.1751023
1.1808828
1.1858044
1.1898722
1.1931327
1.1956652
1.1975699
1.198955
1.1999273
1.2005838
1.2010085
1.2012698
1.2014215
1.2015035
1.2015444
1.2015628
1.2015701
1.2015727
1.2015735
1.2015737
1.2015737
1.2015737
1.2015737
1.2015737
1.2015737
1.0055815
1.0090578
1.0128017
1.0168281
1.0211519
1.0257878
1.0307501
1.0360522
1.0417065
1.0477237
1.0541119
1.0608761
1.0680163
1.0755265
1.0833926
1.0915897
1.1000798
1.1088089
1.1177044
1.1266733
1.1356017
1.1443575
1.1527955
1.1607665
1.1681292
1.174764
1.1805851
1.1855497
1.1896601
1.1929611
1.1955303
1.1974668
1.1988787
1.1998724
1.2005458
1.2009831
1.2012535
1.2014113
1.2014974
1.2015406
1.2015603
1.2015682
1.2015711
1.2015719
1.2015722
1.2015722
1.2015722
1.2015722
1.2015722
1.2015722
1.0053775
1.0088458
1.0125811
1.0165981
1.0209118
1.0255367
1.0304872
1.0357766
1.0414173
1.0474201
1.0537931
1.0605413
1.0676651
1.0751586
1.0830081
1.0911893
1.0996648
1.1083815
1.1172677
1.1262316
1.1351606
1.1439236
1.152376
1.160369
1.1677609
1.174431
1.1802917
1.1852981
1.1894503
1.1927911
1.1953964
1.1973643
1.1988025
1.1998176
1.2005077
1.2009575
1.2012369
1.201401
1.2014911
1.2015367
1.2015577
1.2015663
1.2015694
1.2015704
1.2015707
1.2015707
1.2015707
1.2015707
1.2015707
1.2015707
1.0051781
1.0086387
1.0123655
1.0163734
1.0206772
1.0252914
1.0302303
1.0355073
1.0411349
1.0471235
1.0534816
1.0602143
1.067322
1.0747992
1.0826324
1.0907979
1.099259
1.1079634
1.1168405
1.1257993
1.1347286
1.1434982
1.1519644
1.1599786
1.1673987
1.174103
1.1800024
1.1850497
1.1892429
1.1926226
1.1952634
1.1972624
1.1987266
1.1997628
1.2004694
1.2009317
1.2012202
1.2013905
1.2014847
1.2015328
1.2015551
1.2015644
1.2015678
1.2015689
1.2015692
1.2015692
1.2015692
1.2015692
1.2015692
1.2015692
1.0049833
1.0084363
1.0121548
1.0161538
1.0204479
1.0250516
1.0299793
1.0352442
1.0408588
1.0468336
1.0531772
1.0598946
1.0669866
1.0744477
1.082265
1.0904152
1.0988621
1.1075544
1.1164223
1.125376
1.1343053
1.1430811
1.1515605
1.159595
1.1670425
1.1737801
1.1797171
1.1848043
1.1890376
1.1924557
1.1951315
1.197161
1.198651
1.1997081
1.200431
1.2009057
1.2012032
1.2013799
1.2014782
1.2015288
1.2015525
1.2015625
1.2015661
1.2015673
1.2015676
1.2015677
1.2015677
1.2015677
1.2015677
1.2015677
1.0047927
1.0082383
1.0119488
1.015939
1.0202236
1.0248172
1.0297338
1.0349869
1.0405888
1.0465502
1.0528796
1.0595821
1.0666586
1.0741041
1.0819057
1.0900408
1.0984738
1.1071541
1.1160128
1.1249613
1.1338904
1.142672
1.1511639
1.1592181
1.166692
1.1734619
1.1794356
1.1845619
1.1888345
1.1922902
1.1950004
1.1970601
1.1985755
1.1996533
1.2003925
1.2008796
1.2011861
1.2013691
1.2014715
1.2015246
1.2015498
1.2015605
1.2015645
1.2015658
1.2015661
1.2015662
1.2015662
1.2015662
1.2015662
1.2015662
1.0046063
1.0080446
1.0117472
1.0157289
1.0200043
1.0245878
1.0294937
1.0347352
1.0403247
1.0462729
1.0525884
1.0592763
1.0663377
1.0737678
1.0815542
1.0896744
1.0980937
1.1067621
1.1156117
1.1245549
1.1334836
1.1422705
1.1507744
1.1588475
1.1663471
1.1731484
1.1791579
1.1843223
1.1886336
1.1921263
1.1948703
1.1969598
1.1985003
1.1995986
1.200354
1.2008533
1.2011688
1.2013581
1.2014647
1.2015204
1.201547
1.2015585
1.2015628
1.2015642
1.2015646
1.2015647
1.2015647
1.2015647
1.2015647
1.2015647
1.0044238
1.007855
1.01155
1.0155233
1.0197896
1.0243634
1.0292587
1.0344889
1.0400663
1.0460016
1.0523034
1.0589771
1.0660237
1.0734387
1.0812101
1.0893157
1.0977215
1.1063782
1.1152187
1.1241566
1.1330845
1.1418765
1.1503918
1.1584831
1.1660075
1.1728395
1.1788839
1.1840857
1.1884347
1.1919637
1.1947412
1.19686
1.1984254
1.199544
1.2003154
1.2008269
1.2011514
1.2013469
1.2014578
1.2015161
1.2015442
1.2015564
1.2015611
1.2015627
1.2015631
1.2015632
1.2015632
1.2015632
1.2015632
1.2015632
1.0042452
1.0076694
1.0113568
1.0153219
1.0195794
1.0241436
1.0290286
1.0342477
1.0398132
1.045736
1.0520244
1.0586841
1.0657162
1.0731165
1.0808731
1.0889644
1.0973569
1.106002
1.1148335
1.1237659
1.1326929
1.1414896
1.1500158
1.1581248
1.1656732
1.1725349
1.1786134
1.1838518
1.1882379
1.1918027
1.194613
1.1967608
1.1983507
1.1994894
1.2002767
1.2008003
1.2011338
1.2013357
1.2014507
1.2015117
1.2015414
1.2015544
1.2015594
1.2015611
1.2015616
1.2015617
1.2015617
1.2015617
1.2015617
1.2015617
1.0040702
1.0074876
1.0111676
1.0151248
1.0193735
1.0239284
1.0288032
1.0340115
1.0395654
1.0454758
1.0517512
1.0583971
1.0654151
1.0728009
1.0805429
1.0886202
1.0969996
1.1056332
1.1144558
1.1233826
1.1323086
1.1411095
1.1496463
1.1577722
1.165344
1.1722346
1.1783464
1.1836206
1.1880431
1.191643
1.1944857
1.1966621
1.1982763
1.1994349
1.2002379
1.2007737
1.2011161
1.2013243
1.2014436
1.2015072
1.2015384
1.2015523
1.2015577
1.2015595
1.2015601
1.2015602
1.2015602
1.2015602
1.2015602
1.2015602
1.0038987
1.0073095
1.0109823
1.0149315
1.0191718
1.0237175
1.0285825
1.0337801
1.0393226
1.0452209
1.0514835
1.058116
1.06512
1.0724916
1.0802194
1.0882828
1.0966493
1.1052716
1.1140853
1.1230065
1.1319313
1.1407362
1.1492829
1.1574252
1.1650197
1.1719385
1.1780827
1.183392
1.1878502
1.1914847
1.1943593
1.1965639
1.1982022
1.1993805
1.2001992
1.2007469
1.2010982
1.2013127