/*--------------------------------*- C++ -*----------------------------------*\
| =========                 |                                                 |
| \\      /  F ield         | OpenFOAM: The Open Source CFD Toolbox           |
|  \\    /   O peration     | Version:  4.0                                   |
|   \\  /    A nd           | Web:      www.OpenFOAM.org                      |
|    \\/     M anipulation  |                                                 |
\*---------------------------------------------------------------------------*/
FoamFile
{
    version     2.0;
    format      ascii;
    class       surfaceScalarField;
    location    "2000";
    object      snGradRho;
}
// * * * * * * * * * * * * * * * * * * * * * * * * * * * * * * * * * * * * * //

dimensions      [1 -4 0 0 0 0 0];

internalField   nonuniform List<scalar> 
9850
(
67.789874
-1.6762224
66.005988
-1.7448185
63.598541
-1.8151479
60.554463
-1.8834699
56.889453
-1.9451262
52.653125
-1.994693
47.931603
-2.0262862
42.846338
-2.0340306
37.548295
-2.0126749
32.207401
-1.9582957
26.998259
-1.8689916
22.084113
-1.745441
17.601776
-1.5911892
13.650177
-1.4125611
10.284432
-1.2181544
7.5160482
-1.0179541
5.318519
-0.82219476
3.6365623
-0.64016066
2.3968939
-0.47914203
1.5186198
-0.34373785
0.92190996
-0.23562487
0.53428155
-0.15380546
0.29437689
-0.095237179
0.15350385
-0.055790724
0.075384655
-0.030826172
0.034681664
-0.016002
0.014863674
-0.0077795023
0.0058989575
-0.0035409711
0.0021544117
-0.0015218414
0.00071936435
-0.0006383258
0.00021811925
-0.00028548905
5.963739e-05
-0.00015774649
1.4594161e-05
-0.00011610587
3.1666343e-06
-0.00010396889
5.9721274e-07
-0.00010082713
8.6713872e-08
-0.00010010865
5.2077362e-10
-9.9962597e-05
-1.1548336e-08
-9.9934891e-05
-1.138978e-08
-9.9928396e-05
-1.0285616e-08
-9.9925319e-05
-8.3870767e-09
-9.9922848e-05
-7.277291e-09
-9.9920704e-05
-5.5818516e-09
-9.9918813e-05
-4.7586991e-09
-9.9917242e-05
-3.3776013e-09
-9.9915915e-05
-2.8243229e-09
-9.9914891e-05
-1.7590918e-09
-9.991405e-05
-1.3732427e-09
-9.9913495e-05
-8.4216379e-10
-9.9913047e-05
-9.9913275e-05
57.374761
-0.77988313
56.299178
-0.81179031
55.026684
-0.84595443
53.522663
-0.88176066
51.750733
-0.91824193
49.675756
-0.9540025
47.268166
-0.98716182
44.509382
-1.0153438
41.397745
-1.0357404
37.954034
-1.0452782
34.225357
-1.0409016
30.286236
-1.0199647
26.236001
-0.98068748
22.192243
-0.92259434
18.280837
-0.84683312
14.623791
-0.75627147
11.326676
-0.65530788
8.4676449
-0.54939999
6.0899051
-0.44438733
4.1990656
-0.34574221
2.7659338
-0.25789964
1.7342063
-0.18379378
1.0290281
-0.12467568
0.57615194
-0.08010088
0.30352798
-0.04850512
0.14971496
-0.027562341
0.068767278
-0.014631845
0.029241571
-0.0072303376
0.011439424
-0.0033238699
0.004090104
-0.0014342139
0.0013274735
-0.00060189697
0.00038836422
-0.00027036153
0.00010169298
-0.00015177226
2.3662078e-05
-0.00011395009
4.8579225e-06
-0.00010326931
8.7407818e-07
-0.00010061596
1.3629274e-07
-0.00010003879
1.7385216e-08
-9.9928355e-05
1.0703171e-09
-9.9908886e-05
-1.1894615e-09
-9.9904952e-05
-1.2097169e-09
-9.9903535e-05
-1.5248138e-09
-9.9902653e-05
-1.239288e-09
-9.9902015e-05
-1.4237695e-09
-9.9901525e-05
-1.036712e-09
-9.9901165e-05
-1.0776516e-09
-9.9900887e-05
-7.1106096e-10
-9.9900681e-05
-6.0435586e-10
-9.9900538e-05
-1.1972174e-09
-9.9900448e-05
-9.9900793e-05
52.530214
-0.44787907
51.583873
-0.46610867
50.534342
-0.48586494
49.362034
-0.50706387
48.043342
-0.52950593
46.550794
-0.55282987
44.853899
-0.57645893
42.921022
-0.59954437
40.722574
-0.62091664
38.235666
-0.63906091
35.450057
-0.65213962
32.374749
-0.65808716
29.044011
-0.65479633
25.521127
-0.64039957
21.898054
-0.61361782
18.289634
-0.57411462
14.822236
-0.52276332
11.618366
-0.46173148
8.7803504
-0.39431896
6.3769469
-0.32455243
4.4361118
-0.25661543
2.9453956
-0.19424604
1.8591896
-0.14024115
1.1110659
-0.096165135
0.62583639
-0.062337181
0.33061346
-0.038008786
0.16289609
-0.0216843
0.074403188
-0.011516347
0.031298132
-0.0056717049
0.01204144
-0.0025913118
0.0042066256
-0.0011130121
0.001324553
-0.00047170867
0.00037311678
-0.00022210118
9.3338851e-05
-0.00013559251
2.0592743e-05
-0.00010909506
3.9854963e-06
-0.00010197491
6.7748157e-07
-0.00010030839
1.0411195e-07
-9.9970983e-05
1.7001167e-08
-9.9912347e-05
4.0251403e-09
-9.9903775e-05
1.7416832e-09
-9.9902864e-05
4.1585421e-10
-9.990297e-05
1.1604894e-10
-9.9903192e-05
-5.1760583e-10
-9.9903433e-05
-4.0277112e-10
-9.9903665e-05
-6.4823298e-10
-9.9903887e-05
-4.4198821e-10
-9.9904079e-05
-4.497857e-10
-9.9904233e-05
-1.7356996e-09
-9.9904434e-05
-9.9904822e-05
49.762368
-0.30121781
48.85713
-0.31342105
47.874669
-0.32667935
46.802554
-0.34098753
45.625289
-0.35628958
44.323972
-0.37245536
42.876235
-0.38925067
41.256688
-0.40630114
39.438159
-0.42305236
37.394063
-0.4387316
35.102156
-0.45232161
32.549734
-0.46256171
29.739897
-0.46799593
26.697894
-0.46708697
23.475892
-0.45840582
20.154126
-0.44088596
16.836633
-0.41410129
13.640961
-0.37849791
10.683161
-0.33549822
8.0613094
-0.28741591
5.8417764
-0.23717282
4.0518272
-0.18787393
2.6800618
-0.14234463
1.6837708
-0.10274294
1.0002493
-0.070330921
0.5589941
-0.045429114
0.29220724
-0.027536693
0.14197151
-0.015572728
0.063670494
-0.0081724229
0.026164014
-0.0039668153
0.0097758948
-0.0017871968
0.0032950494
-0.00076509037
0.00099393024
-0.00033488854
0.00026619666
-0.00017368247
6.281659e-05
-0.00012033226
1.2969389e-05
-0.00010485996
2.3309153e-06
-0.00010095638
3.6531658e-07
-0.00010010487
5.1715048e-08
-9.9944551e-05
7.3778981e-09
-9.9917947e-05
1.3874023e-09
-9.9913447e-05
-2.5793318e-10
-9.991219e-05
-5.5208184e-10
-9.9911461e-05
-1.0997729e-09
-9.9910923e-05
-9.1108065e-10
-9.9910519e-05
-1.045795e-09
-9.9910213e-05
-7.3297589e-10
-9.9910018e-05
-7.9544046e-10
-9.9909844e-05
-2.3413997e-09
-9.990985e-05
-9.9910061e-05
47.90952
-0.22552738
47.027229
-0.23463287
46.079528
-0.24453755
45.05738
-0.2552568
43.94934
-0.26677764
42.741168
-0.2790444
41.415569
-0.29193968
39.952211
-0.30526046
38.328241
-0.31868967
36.519559
-0.33176532
34.503161
-0.34385208
32.260777
-0.35412358
29.783833
-0.36156804
27.079336
-0.36503287
24.175671
-0.36332277
21.126639
-0.3553577
18.011746
-0.34037898
14.931091
-0.31816692
11.994558
-0.28921056
9.3069867
-0.25476461
6.9528615
-0.21675041
4.9846143
-0.17750514
3.4176041
-0.13943576
2.2325039
-0.10466516
1.383487
-0.074754799
0.80931025
-0.050554755
0.44435921
-0.032193192
0.22752444
-0.01918706
0.10786792
-0.010636816
0.046986466
-0.0054565236
0.01865217
-0.002586645
0.006691226
-0.0011450062
0.0021507957
-0.00049403748
0.00061423023
-0.00023211558
0.00015457033
-0.0001390184
3.4012738e-05
-0.00011003076
6.5036874e-06
-0.00010218668
1.0795082e-06
-0.00010035531
1.5944793e-07
-9.9988402e-05
2.3943389e-08
-9.9925142e-05
5.594885e-09
-9.9915229e-05
1.9592655e-09
-9.9913279e-05
9.3485913e-10
-9.9912397e-05
-8.4990059e-11
-9.9911704e-05
-2.1192249e-10
-9.9911133e-05
-6.3983833e-10
-9.9910622e-05
-4.0360914e-10
-9.9910262e-05
-8.0664635e-10
-9.990991e-05
-2.669774e-09
-9.9909801e-05
-9.9909912e-05
46.52701
-0.17829397
45.660193
-0.18547185
44.734664
-0.19328213
43.743447
-0.20174418
42.677614
-0.21085958
41.525907
-0.22060258
40.274415
-0.23090729
38.906431
-0.24165107
37.402628
-0.25263405
35.741787
-0.26355546
33.90233
-0.27398924
31.864928
-0.28336361
29.616356
-0.29095269
27.154477
-0.29589115
24.493812
-0.29722504
21.670495
-0.29400883
18.74487
-0.28544961
15.799876
-0.2710817
12.934036
-0.25093403
10.249473
-0.2256378
7.8373607
-0.19642549
5.7645654
-0.16499999
4.0651721
-0.13329584
2.7388842
-0.10319214
1.7559245
-0.076249589
1.0661897
-0.053527915
0.60976495
-0.035509251
0.32637149
-0.022124458
0.16230848
-0.012862543
0.074403148
-0.0069339961
0.03117179
-0.0034520611
0.01183022
-0.001592315
0.0040304298
-0.00069735322
0.0012215558
-0.0003129569
0.00032647255
-0.00016696362
7.6298536e-05
-0.00011837347
1.5478203e-05
-0.00010432255
2.7139937e-06
-0.00010082019
4.1562016e-07
-0.00010007278
6.0436992e-08
-9.9936711e-05
1.2121095e-08
-9.9915286e-05
4.6403205e-09
-9.9911987e-05
2.85288e-09
-9.9911155e-05
1.3480822e-09
-9.991063e-05
9.5749049e-10
-9.9910233e-05
1.0648597e-10
-9.9909833e-05
2.6188891e-10
-9.9909579e-05
-6.1985607e-10
-9.9909278e-05
-2.8424616e-09
-9.9909229e-05
-9.9909335e-05
45.437175
-0.14674792
44.582225
-0.15264198
43.672993
-0.15905641
42.70385
-0.16601112
41.667532
-0.17351376
40.554783
-0.18155292
39.354026
-0.19008873
38.051147
-0.1990407
36.629512
-0.2082722
35.070383
-0.21757211
33.353975
-0.22663479
31.46139
-0.23504115
29.377649
-0.24224633
27.095867
-0.24758162
24.622274
-0.2502811
21.981267
-0.24954296
19.219093
-0.24463077
16.404372
-0.2350087
13.623965
-0.2204878
10.973734
-0.20134431
8.5456201
-0.17836553
6.4141081
-0.15279248
4.6258236
-0.12616053
3.1950197
-0.10007505
2.1056101
-0.075980604
1.3182721
-0.054978016
0.77998632
-0.037720551
0.43344598
-0.024394467
0.22461256
-0.014772063
0.10766696
-0.00831876
0.047322377
-0.0043319434
0.018895388
-0.002083964
0.0067889787
-0.00093846851
0.0021739525
-0.00041625759
0.00061462139
-0.00020539391
0.00015204407
-0.00013070653
3.2641351e-05
-0.00010771426
6.0434934e-06
-0.00010161477
9.666475e-07
-0.00010023093
1.3930633e-07
-9.9963892e-05
2.3161762e-08
-9.9919926e-05
7.1703442e-09
-9.9913377e-05
4.3053951e-09
-9.9912161e-05
2.3444456e-09
-9.9911591e-05
1.8734421e-09
-9.9911217e-05
6.339959e-10
-9.9910825e-05
8.296643e-10
-9.9910605e-05
-5.3607869e-10
-9.9910322e-05
-3.0081502e-09
-9.9910305e-05
-9.9910397e-05
44.542266
-0.1241297
43.69691
-0.12910531
42.800438
-0.13452039
41.848186
-0.14039396
40.834092
-0.14673616
39.75036
-0.15354309
38.587136
-0.16078972
37.332258
-0.16842046
35.97118
-0.17633716
34.487209
-0.18438441
32.862244
-0.192333
31.078264
-0.19986325
29.119761
-0.20655187
26.977254
-0.21186814
24.651757
-0.21518739
22.159622
-0.21583066
19.536675
-0.21313726
16.840046
-0.20656942
14.146084
-0.1958357
11.543447
-0.1810049
9.1219785
-0.16257285
6.9597335
-0.1414494
5.11164
-0.11885502
3.6029369
-0.096147665
2.4288389
-0.074625342
1.5597051
-0.055354047
0.94946106
-0.039055208
0.54468799
-0.026062895
0.29243139
-0.01634327
0.14575404
-0.0095620786
0.066844497
-0.0051854595
0.027938364
-0.0025970208
0.010536529
-0.0012086084
0.0035495355
-0.00054037596
0.0010575318
-0.00025487045
0.00027599053
-0.00014770403
6.2531586e-05
-0.00011271234
1.2208113e-05
-0.00010286454
2.0480305e-06
-0.00010049545
3.011563e-07
-0.00010001157
4.5076902e-08
-9.9927872e-05
1.0868497e-08
-9.9915304e-05
5.8818186e-09
-9.9913363e-05
3.2852156e-09
-9.9912719e-05
2.7672375e-09
-9.9912346e-05
1.0920424e-09
-9.9911941e-05
1.3642598e-09
-9.9911713e-05
-5.0683157e-10
-9.9911418e-05
-3.1527033e-09
-9.9911391e-05
-9.9911461e-05
43.786806
-0.10721284
42.949524
-0.11150288
42.063524
-0.11617177
41.124868
-0.12123733
40.1284
-0.12671064
39.067432
-0.132592
37.933432
-0.13886539
36.715756
-0.14549096
35.401523
-0.15239533
33.975725
-0.15945974
32.421762
-0.16650613
30.722606
-0.17328262
28.862792
-0.1794509
26.831409
-0.18457971
24.626063
-0.18815089
22.257415
-0.18958552
19.753451
-0.18829687
17.162093
-0.18377219
14.550579
-0.17567589
12.000433
-0.16395379
9.5980531
-0.14890768
7.4226386
-0.13120895
5.5345419
-0.11183433
3.9673083
-0.091933009
2.7254233
-0.072659099
1.787727
-0.055013717
1.1146911
-0.039731599
0.65705395
-0.027226594
0.36369606
-0.017591764
0.187565
-0.010641509
0.089323266
-0.0059836838
0.038899019
-0.0031110502
0.015331975
-0.0014979117
0.0054120495
-0.00068232327
0.0016930491
-0.00031526203
0.00046462331
-0.00016983516
0.00011079027
-0.00011964842
2.276173e-05
-0.00010471055
4.0074976e-06
-0.0001009099
6.0928116e-07
-0.00010008962
8.7136423e-08
-9.9940218e-05
1.6771285e-08
-9.9917062e-05
7.6624637e-09
-9.991377e-05
4.2225621e-09
-9.9913023e-05
3.6940813e-09
-9.9912687e-05
1.565925e-09
-9.9912315e-05
1.9202671e-09
-9.991211e-05
-4.6109323e-10
-9.9911837e-05
-3.2615916e-09
-9.9911817e-05
-9.9911882e-05
43.13544
-0.094103505
42.305127
-0.097863174
41.427986
-0.10195469
40.500647
-0.10639459
39.518664
-0.11119413
38.476223
-0.11635609
37.365839
-0.12187022
36.178088
-0.12770716
34.90144
-0.13381048
33.522296
-0.14008679
32.025371
-0.146394
30.394617
-0.15252865
28.614884
-0.15821409
26.674495
-0.16309296
24.568761
-0.16672877
22.304204
-0.16862329
19.902791
-0.16825581
17.405008
-0.1651479
14.870288
-0.15894967
12.373472
-0.14953323
9.9969423
-0.13706841
7.8195784
-0.12205221
5.9051843
-0.10527215
4.2936143
-0.087704812
2.9969849
-0.070374115
2.0015248
-0.054207768
1.2737237
-0.039926401
0.76843961
-0.027982999
0.43673745
-0.018551502
0.23206239
-0.011553149
0.11427007
-0.0067088733
0.051633747
-0.0036096487
0.021184895
-0.0017966955
0.0078065976
-0.00083826534
0.0025554581
-0.00038581355
0.00073516942
-0.0001973222
0.00018399256
-0.00012880359
3.9692555e-05
-0.00010729842
7.3292203e-06
-0.00010152643
1.1592706e-06
-0.00010021269
1.6462374e-07
-9.9960758e-05
2.6786279e-08
-9.9920009e-05
9.7279301e-09
-9.9914256e-05
5.0682951e-09
-9.991325e-05
4.5442744e-09
-9.9912916e-05
1.9920226e-09
-9.9912575e-05
2.4344292e-09
-9.9912391e-05
-4.2551897e-10
-9.9912151e-05
-3.3632038e-09
-9.9912144e-05
-9.9912212e-05
42.5646
-0.083676322
41.740418
-0.087014776
40.870946
-0.090647699
39.953267
-0.094590402
38.98351
-0.098854004
37.956566
-0.10344274
36.865805
-0.10835022
35.702801
-0.11355436
34.457147
-0.11901075
33.116433
-0.12464426
31.666525
-0.130339
30.092301
-0.1359272
28.379058
-0.14117837
26.51474
-0.1457914
24.49309
-0.14939356
22.317547
-0.15155191
20.00537
-0.15180297
17.590975
-0.14970444
15.127111
-0.14490774
12.682512
-0.13724109
10.335373
-0.12678298
8.1633619
-0.11390081
6.2323586
-0.099233953
4.5870217
-0.083616777
3.2457843
-0.067958984
2.2013221
-0.053115709
1.4256142
-0.039780687
0.87747461
-0.028422392
0.5102843
-0.01926526
0.27834099
-0.012306021
0.14118465
-0.0073530897
0.065945888
-0.0040812102
0.028062891
-0.0020964859
0.010758197
-0.0010040899
0.0036732478
-0.00046531114
0.0011045388
-0.00023014364
0.00028937758
-0.00014038721
6.5405119e-05
-0.00011076679
1.2649257e-05
-0.0001024012
2.0866614e-06
-0.00010039744
3.0098392e-07
-9.9993428e-05
4.4287009e-08
-9.9925036e-05
1.251114e-08
-9.9915169e-05
5.9068463e-09
-9.991368e-05
5.3230599e-09
-9.991331e-05
2.3737486e-09
-9.991299e-05
2.8885209e-09
-9.9912814e-05
-4.1347454e-10
-9.9912599e-05
-3.4693203e-09
-9.9912598e-05
-9.9912666e-05
42.057714
-0.075199812
41.239005
-0.078196313
40.376284
-0.08145691
39.467011
-0.08499581
38.507784
-0.088823798
37.494081
-0.092945977
36.419981
-0.097358618
35.277892
-0.10204488
34.058356
-0.10696915
32.749982
-0.11206987
31.339643
-0.11725084
29.813077
-0.12237137
28.156081
-0.12723642
26.356465
-0.13158869
24.406881
-0.13510605
22.308431
-0.13740894
20.074633
-0.13808286
17.734892
-0.13672034
15.336212
-0.1329822
12.9418
-0.12667112
10.625708
-0.11780146
8.4638509
-0.10664286
6.523213
-0.0937173
4.8521071
-0.07974154
3.4742216
-0.065526106
2.3878799
-0.051858124
1.5700635
-0.0393992
0.98333773
-0.028619809
0.5834201
-0.019775294
0.32565761
-0.012915394
0.16959863
-0.0079151109
0.081614056
-0.0045183216
0.035902268
-0.0023903679
0.014272955
-0.0011757818
0.0050678358
-0.00055224236
0.0015883968
-0.0002680592
0.00043453101
-0.00015452639
0.00010267141
-0.00011523968
2.0763511e-05
-0.00010359254
3.5739168e-06
-0.00010066285
5.2984778e-07
-0.00010004272
7.4301326e-08
-9.9932808e-05
1.6628646e-08
-9.9916409e-05
6.8355599e-09
-9.9914104e-05
6.0548267e-09
-9.9913661e-05
2.7389927e-09
-9.9913361e-05
3.2955962e-09
-9.9913192e-05
-4.1182288e-10
-9.9913001e-05
-3.5755523e-09
-9.9913003e-05
-9.9913071e-05
41.602748
-0.068184063
40.78898
-0.070897883
39.932285
-0.073850682
39.030435
-0.07705567
38.080427
-0.08052322
37.078231
-0.084258936
36.018522
-0.088260969
34.894422
-0.092516336
33.697281
-0.096996061
32.416591
-0.10164894
31.040117
-0.10639391
29.554385
-0.11111135
27.945708
-0.11563403
26.201914
-0.11973947
24.314899
-0.12314635
22.283962
-0.12551915
20.119604
-0.12648536
17.847048
-0.12566973
15.50834
-0.12274646
13.161705
-0.11750435
10.877198
-0.10991223
8.7286648
-0.10016493
6.7834977
-0.088690389
5.0927734
-0.076107407
3.6845712
-0.063140562
2.5621811
-0.050514697
1.7071506
-0.038857852
1.0855868
-0.028634897
0.65551192
-0.020119539
0.37342659
-0.013398776
0.19909735
-0.0083979634
0.098412931
-0.0049169217
0.044618521
-0.0026730322
0.018340655
-0.0013496643
0.0067530961
-0.00064493915
0.0022004282
-0.0003106464
0.00062705357
-0.00017126208
0.0001545561
-0.00012081982
3.2627349e-05
-0.00010515874
5.8567131e-06
-0.00010103026
8.9766791e-07
-0.00010011439
1.2418546e-07
-9.9944494e-05
2.3002087e-08
-9.9918136e-05
7.9496962e-09
-9.9914502e-05
6.7405558e-09
-9.9913919e-05
3.0898767e-09
-9.9913631e-05
3.6565495e-09
-9.9913467e-05
-4.163713e-10
-9.9913299e-05
-3.6812299e-09
-9.9913306e-05
-9.9913374e-05
41.190701
-0.062289215
40.381437
-0.06476578
39.530179
-0.067460242
38.634967
-0.070384916
37.693135
-0.073549733
36.701076
-0.07696057
35.653977
-0.080616925
34.54557
-0.084508731
33.367908
-0.088612112
32.111257
-0.092883924
30.76417
-0.09725503
29.313898
-0.10162249
27.747267
-0.10584131
26.052219
-0.10971712
24.220125
-0.11300206
22.24888
-0.11539729
20.146524
-0.11656635
17.934756
-0.11616335
15.651313
-0.11387757
13.349937
-0.10949144
11.09688
-0.10294121
8.9637509
-0.094363826
7.0178433
-0.084111046
5.3123011
-0.072719489
3.8788827
-0.060839056
2.7252611
-0.04913809
1.8371613
-0.038211511
1.1840305
-0.028514383
0.72614153
-0.020330725
0.42120063
-0.013773863
0.22932775
-0.0088072701
0.11612705
-0.0052755653
0.054115425
-0.0029407111
0.022937976
-0.0015225677
0.0087355158
-0.00074171075
0.0029518196
-0.00035734867
0.00087424341
-0.00019055296
0.00022432176
-0.00012758353
4.9345702e-05
-0.00010715516
9.2281793e-06
-0.00010152261
1.4662128e-06
-0.00010021525
2.0436683e-07
-9.9961675e-05
3.3049264e-08
-9.992069e-05
9.4164818e-09
-9.991499e-05
7.3984796e-09
-9.9914168e-05
3.4306749e-09
-9.9913877e-05
3.9731698e-09
-9.9913714e-05
-4.278313e-10
-9.9913566e-05
-3.7874156e-09
-9.9913575e-05
-9.9913642e-05
40.814678
-0.057272452
40.00955
-0.059547306
39.163241
-0.062022136
38.274024
-0.064708455
37.339525
-0.067615748
36.356498
-0.070750016
35.320577
-0.074111742
34.226025
-0.077693094
33.065511
-0.081474196
31.82998
-0.085418302
30.508696
-0.089465807
29.089568
-0.093527221
27.559924
-0.097475623
25.907881
-0.10113969
24.124455
-0.10429926
22.206433
-0.10668643
20.159826
-0.10799582
18.003337
-0.107908
15.77094
-0.10612789
13.512337
-0.10243632
11.290195
-0.096746292
9.1738059
-0.089149406
7.2299998
-0.079935169
5.513436
-0.069570712
4.05896
-0.058640813
2.8781247
-0.047762735
1.9604847
-0.037499592
1.2786396
-0.028294393
0.79504869
-0.020436271
0.46864776
-0.014057301
0.25999812
-0.0091499896
0.13455927
-0.0055947003
0.064292469
-0.0031909924
0.028031948
-0.0016919023
0.011014856
-0.00084094625
0.00385098
-0.00040752514
0.001182822
-0.00021228513
0.0003153243
-0.00013557814
7.2154826e-05
-0.00010963177
1.4040813e-05
-0.00010216355
2.3147539e-06
-0.00010035292
3.2904204e-07
-9.998619e-05
4.881137e-08
-9.9924421e-05
1.1482663e-08
-9.9915629e-05
8.0627289e-09
-9.9914432e-05
3.7700586e-09
-9.9914122e-05
4.2532001e-09
-9.9913957e-05
-4.4409382e-10
-9.9913825e-05
-3.8922617e-09
-9.9913836e-05
-9.9913901e-05
40.469281
-0.052955455
39.667976
-0.055056896
38.826209
-0.057342908
37.942452
-0.059824286
37.014587
-0.062510083
36.039686
-0.065406326
35.013773
-0.06851422
33.931577
-0.071827678
32.786311
-0.075330011
31.569527
-0.078989627
30.271123
-0.082754665
28.879617
-0.08654664
27.382817
-0.090253512
25.769052
-0.093723089
24.029106
-0.096758454
22.158891
-0.099117959
20.162724
-0.10052321
18.056746
-0.10067856
15.871624
-0.099304368
13.65341
-0.09618301
11.461411
-0.091210908
9.3625838
-0.084443911
7.4230275
-0.076120163
5.6984784
-0.066647639
4.2263731
-0.056554065
3.0217068
-0.046410542
2.077552
-0.036750056
1.3694852
-0.028002455
0.86208634
-0.020458587
0.51552856
-0.014263981
0.29087331
-0.0094334769
0.15353506
-0.0058760083
0.075050411
-0.003422554
0.033583216
-0.0018556496
0.013585126
-0.00094117843
0.0049034778
-0.0004604938
0.0015587209
-0.00023628464
0.00043090799
-0.00014482151
0.00010239751
-0.00011263121
2.070608e-05
-0.00010297675
3.5419693e-06
-0.00010053581
5.1694231e-07
-0.0001000202
7.3121474e-08
-9.9929738e-05
1.449207e-08
-9.9916467e-05
8.7725762e-09
-9.99147e-05
4.1121482e-09
-9.9914346e-05
4.5024823e-09
-9.9914178e-05
-4.6274489e-10
-9.991406e-05
-3.9937121e-09
-9.9914072e-05
-9.9914134e-05
40.150214
-0.049204575
39.352462
-0.051155472
38.514889
-0.053277572
37.636142
-0.055581024
36.714326
-0.058074468
35.746795
-0.060763891
34.729918
-0.063651035
33.658838
-0.066731192
32.527251
-0.069990247
31.32725
-0.073400818
30.049312
-0.076917419
28.68251
-0.08047068
27.21511
-0.083960966
25.635681
-0.087252151
23.934863
-0.090166996
22.107868
-0.092486377
20.157597
-0.093955413
18.097976
-0.094299811
15.956756
-0.093254826
13.776683
-0.090606417
11.613924
-0.086239303
9.5331176
-0.080180933
7.5994439
-0.072626757
5.8693619
-0.063934069
4.3824815
-0.054580387
3.1568576
-0.045095017
2.1887998
-0.035982618
1.4566978
-0.027659428
0.92718647
-0.020415754
0.5616756
-0.014406847
0.32176742
-0.0096649357
0.17290356
-0.0061219134
0.086295011
-0.0036349166
0.039548828
-0.0020123171
0.016435677
-0.0010411215
0.006112142
-0.0005155679
0.0020069314
-0.00026233149
0.00057430658
-0.00015530312
0.00014149346
-0.00011618737
2.9691605e-05
-0.00010398507
5.2673925e-06
-0.00010077293
7.921204e-07
-0.00010006622
1.0982147e-07
-9.9937176e-05
1.8932168e-08
-9.9917589e-05
9.5831247e-09
-9.9914983e-05
4.460849e-09
-9.991455e-05
4.7257965e-09
-9.9914376e-05
-4.8414027e-10
-9.9914269e-05
-4.090589e-09
-9.9914282e-05
-9.9914341e-05
39.854005
-0.045917809
39.059572
-0.047736895
38.225892
-0.049715483
37.351769
-0.051863142
36.435507
-0.054188117
35.474709
-0.056696318
34.46605
-0.059389885
33.405044
-0.062265211
32.28582
-0.065310284
31.10096
-0.068501203
29.841464
-0.07179779
28.496919
-0.075138311
27.056026
-0.078433585
25.507605
-0.081561111
23.842222
-0.084360468
22.05453
-0.086631986
20.14623
-0.088141398
18.129329
-0.088633613
16.028989
-0.087858031
13.884957
-0.085605474
11.750466
-0.081752582
9.6878847
-0.076304106
7.7613366
-0.069419776
6.0277191
-0.061413198
4.5284609
-0.052717508
3.2843407
-0.043824112
2.2946501
-0.035211116
1.54044
-0.027281083
0.99033507
-0.020322268
0.60697629
-0.014496964
0.35253608
-0.0098511209
0.19253685
-0.006335239
0.097939295
-0.0038282289
0.045884486
-0.0021608755
0.019552311
-0.0011396886
0.0074772861
-0.00057208497
0.0025314187
-0.0002901738
0.00074855604
-0.00016698664
0.00019090691
-0.00012032444
4.1516104e-05
-0.00010520993
7.6322691e-06
-0.00010107368
1.184681e-06
-0.00010012712
1.6398599e-07
-9.994738e-05
2.5481054e-08
-9.9919113e-05
1.0573461e-08
-9.9915305e-05
4.8226185e-09
-9.9914746e-05
4.9282859e-09
-9.9914561e-05
-5.0726354e-10
-9.9914462e-05
-4.1821532e-09
-9.9914476e-05
-9.9914531e-05
39.577808
-0.043016017
38.786489
-0.044718817
37.956441
-0.046570802
37.086609
-0.048581012
36.175475
-0.050757326
35.220865
-0.053105547
34.219729
-0.055628109
33.167913
-0.058322295
32.059937
-0.061177832
30.888828
-0.064173725
29.64606
-0.06727426
28.321697
-0.070424167
26.904853
-0.073543156
25.384604
-0.076520383
23.751493
-0.079209924
21.999725
-0.081429021
20.129984
-0.082961578
18.152599
-0.083569801
16.090425
-0.083016399
13.980482
-0.08109785
11.873262
-0.077685404
9.8289282
-0.072765605
7.9104512
-0.066468115
6.1749365
-0.059068678
4.6653299
-0.050961023
3.4048371
-0.042602109
2.3955004
-0.034445197
1.620889
-0.026879337
1.0515542
-0.020189704
0.65135921
-0.014543676
0.38306904
-0.0099981834
0.21232814
-0.0065189556
0.10990475
-0.0040030826
0.052546266
-0.0023006847
0.022918308
-0.0012359921
0.0089970097
-0.00062942778
0.0031350914
-0.00031954122
0.00095642279
-0.00017981347
0.00025211345
-0.00012505657
5.6742391e-05
-0.00010667056
1.0799797e-05
-0.00010144765
1.7314365e-06
-0.00010020602
2.421507e-07
-9.9961104e-05
3.505412e-08
-9.992118e-05
1.1851524e-08
-9.9915687e-05
5.2068659e-09
-9.9914938e-05
5.1145068e-09
-9.9914736e-05
-5.313778e-10
-9.9914644e-05
-4.2674113e-09
-9.9914658e-05
-9.9914708e-05
39.319268
-0.040436852
38.530879
-0.042036368
37.704235
-0.043775908
36.838404
-0.045664035
35.932029
-0.047708283
34.983136
-0.049914332
33.988926
-0.052284833
32.945542
-0.054817795
31.847861
-0.057504391
30.689312
-0.060326077
29.461806
-0.06325093
28.155849
-0.066229198
26.760945
-0.069188215
25.266428
-0.072027195
23.662858
-0.074612793
21.94408
-0.07677706
20.109909
-0.078319995
18.169203
-0.079019409
16.142751
-0.078650485
14.065087
-0.077015791
11.984143
-0.073983223
9.9579488
-0.069524676
8.0482584
-0.063744358
6.3121986
-0.056885031
4.7939732
-0.049305313
3.5189528
-0.041430776
2.4917194
-0.033691442
1.698226
-0.026463139
1.1108892
-0.020027255
0.69478347
-0.014554802
0.41328368
-0.010111609
0.2321894
-0.0066760139
0.12212169
-0.0041603639
0.059491858
-0.00243142
0.026515351
-0.0013293328
0.010667543
-0.00068703762
0.0038198204
-0.00035015641
0.0012003491
-0.00019370665
0.00032656798
-0.00013038796
7.5968897e-05
-0.00010838361
1.4954727e-05
-0.00010190438
2.4764635e-06
-0.00010030633
3.5255368e-07
-9.9979219e-05
4.8862177e-08
-9.9923955e-05
1.3563073e-08
-9.9916152e-05
5.6257373e-09
-9.9915128e-05
5.288792e-09
-9.9914901e-05
-5.5620356e-10
-9.9914813e-05
-4.3456243e-09
-9.9914828e-05
-9.9914873e-05
39.07641
-0.038130598
38.290789
-0.039637818
37.467345
-0.041276881
36.605261
-0.043055915
35.703322
-0.044982132
34.759738
-0.047061076
33.771934
-0.049295559
32.736328
-0.051684183
31.648117
-0.05421934
30.5011
-0.056884569
29.287592
-0.059651193
27.998508
-0.062474199
26.623719
-0.06528752
25.152819
-0.067999101
23.576413
-0.070486594
21.888058
-0.072595089
20.086824
-0.074138907
18.180272
-0.07490998
16.187336
-0.074695124
14.140273
-0.073303231
12.084629
-0.070600361
10.076374
-0.066546595
8.1760066
-0.061224506
6.4405227
-0.054848005
4.9151619
-0.047744311
3.6272266
-0.040310315
2.5836455
-0.03295429
1.7726296
-0.026039227
1.1684001
-0.019842236
0.73723042
-0.01453686
0.44311941
-0.010196228
0.2520489
-0.0068092391
0.13452914
-0.0043011369
0.066681396
-0.0025530033
0.030324283
-0.0014191816
0.012483598
-0.00074442156
0.0045864948
-0.00038174451
0.0014824157
-0.00020857504
0.00041567507
-0.00013631332
9.9820129e-05
-0.00011036265
2.0302343e-05
-0.00010245313
3.4715338e-06
-0.00010043166
5.0537618e-07
-0.00010000271
6.8475605e-08
-9.9927641e-05
1.5903049e-08
-9.9916734e-05
6.0972829e-09
-9.9915322e-05
5.4550267e-09
-9.9915057e-05
-5.8143587e-10
-9.9914972e-05
-4.4165842e-09
-9.9914986e-05
-9.9915027e-05
38.847565
-0.036057114
38.064567
-0.037481405
37.244143
-0.039030191
36.385579
-0.040711203
35.487793
-0.042531351
34.549159
-0.044496042
33.567307
-0.0466082
32.538906
-0.048866918
31.459448
-0.051265619
30.32307
-0.053789625
29.12246
-0.056413057
27.848913
-0.059095016
26.492651
-0.061775173
25.04352
-0.064369111
23.492195
-0.066764149
21.832005
-0.06881692
20.061375
-0.070354549
18.186718
-0.071181771
16.225299
-0.071096253
14.207285
-0.069913257
12.175991
-0.067498167
10.185411
-0.063801544
8.2947626
-0.058887481
6.5607877
-0.052944552
5.0295708
-0.04627179
3.7301379
-0.039239827
2.6715879
-0.032236585
1.8442713
-0.025612621
1.2241552
-0.019640434
0.77869759
-0.014495246
0.47253303
-0.010256242
0.27184881
-0.0069212696
0.14707429
-0.0044265592
0.074077956
-0.0026655446
0.034325739
-0.0015051594
0.014438714
-0.00080115528
0.0054351033
-0.00041404088
0.001804321
-0.0002243174
0.00052076286
-0.0001428187
0.00012893653
-0.00011261802
2.706686e-05
-0.00010310269
4.7763906e-06
-0.00010058577
7.1297184e-07
-0.00010003269
9.5892602e-08
-9.9932477e-05
1.9129649e-08
-9.9917473e-05
6.6467789e-09
-9.9915526e-05
5.6172642e-09
-9.9915208e-05
-6.064649e-10
-9.9915121e-05
-4.4802449e-09
-9.9915135e-05
-9.9915171e-05
38.631311
-0.034183692
37.850805
-0.035533099
37.033239
-0.03700037
36.177994
-0.03859287
35.284108
-0.04031723
34.350107
-0.042178714
33.373809
-0.044180327
32.352111
-0.046321567
31.280776
-0.048596736
30.154255
-0.050992697
28.965579
-0.053485998
27.706399
-0.056039326
26.36727
-0.058597379
24.938284
-0.061082457
23.410203
-0.063390428
21.776175
-0.065388195
20.034072
-0.066914372
18.189284
-0.067785344
16.257564
-0.067808876
14.267163
-0.06680655
12.259305
-0.06464395
10.286088
-0.061263978
8.4054438
-0.056714882
6.6737571
-0.051162899
5.1377924
-0.04488169
3.8281137
-0.038217803
2.7558283
-0.031540078
1.9133141
-0.025187069
1.2782268
-0.019426446
0.81919388
-0.014434439
0.50149491
-0.010295294
0.291543
-0.0070145317
0.15971189
-0.0045378226
0.081647805
-0.0027692926
0.038500617
-0.0015870152
0.016525566
-0.00085688202
0.0063648339
-0.00044679658
0.0021673745
-0.00024082613
0.00064306114
-0.00014988246
0.00016396422
-0.00011515666
3.5489328e-05
-0.00010386119
6.4588673e-06
-0.00010077251
9.9007853e-07
-0.00010007035
1.3361007e-07
-9.993874e-05
2.3577045e-08
-9.9918416e-05
7.3087262e-09
-9.9915748e-05
5.7804521e-09
-9.9915353e-05
-6.3098573e-10
-9.9915263e-05
-4.5364676e-09
-9.9915277e-05
-9.9915308e-05
38.426427
-0.032483392
37.648293
-0.033764873
36.83344
-0.035158206
35.981333
-0.036670421
35.091123
-0.038307886
34.161474
-0.040075726
33.190375
-0.041976995
32.174935
-0.044011532
31.111168
-0.046174391
29.993813
-0.048453773
28.816222
-0.050828344
27.570379
-0.053263938
26.24715
-0.055709681
24.836874
-0.058093815
23.330408
-0.060319803
21.720762
-0.062263728
20.005325
-0.063774559
18.188578
-0.0646793
16.284901
-0.064795119
14.32078
-0.063949801
12.335482
-0.062009787
10.379288
-0.058911821
8.508844
-0.054690544
6.7800975
-0.049492427
5.2403493
-0.043568229
3.9215355
-0.037242343
2.8366229
-0.030865716
1.9799111
-0.024765344
1.3306886
-0.019203916
0.85873619
-0.014358136
0.52998602
-0.010316518
0.31109508
-0.0070912207
0.17240342
-0.0046361035
0.08936047
-0.002864591
0.042830446
-0.0016646036
0.01873625
-0.00091130886
0.0073741821
-0.00047978209
0.0025725025
-0.00025799062
0.00078368397
-0.00015747641