/*--------------------------------*- C++ -*----------------------------------*\
| =========                 |                                                 |
| \\      /  F ield         | OpenFOAM: The Open Source CFD Toolbox           |
|  \\    /   O peration     | Version:  4.0                                   |
|   \\  /    A nd           | Web:      www.OpenFOAM.org                      |
|    \\/     M anipulation  |                                                 |
\*---------------------------------------------------------------------------*/
FoamFile
{
    version     2.0;
    format      ascii;
    class       volScalarField;
    location    "2000";
    object      T;
}
// * * * * * * * * * * * * * * * * * * * * * * * * * * * * * * * * * * * * * //

dimensions      [0 0 0 1 0 0 0];

internalField   nonuniform List<scalar> 
5000
(
325.19917
323.20465
321.09522
318.88916
316.61074
314.28995
311.96171
309.66444
307.43814
305.32197
303.35168
301.55718
299.96046
298.57431
297.40186
296.43706
295.66594
295.06844
294.6206
294.29674
294.07143
293.92116
293.82544
293.76746
293.7342
293.71624
293.70715
293.70287
293.701
293.70024
293.69997
293.69988
293.69985
293.69984
293.69984
293.69984
293.69984
293.69984
293.69984
293.69984
293.69984
293.69984
293.69984
293.69984
293.69984
293.69984
293.69984
293.69984
293.69984
293.69984
332.91157
331.14101
329.25078
327.2423
325.12016
322.89292
320.57391
318.18186
315.74135
313.28273
310.84154
308.45716
306.17093
304.02356
302.05227
300.28787
298.75215
297.45598
296.39842
295.56703
294.93952
294.48647
294.1748
293.97172
293.84677
293.77441
293.73516
293.71534
293.70606
293.70207
293.7005
293.69994
293.69976
293.69971
293.6997
293.69969
293.69969
293.69969
293.69969
293.69969
293.69969
293.69969
293.69969
293.69969
293.69969
293.69969
293.69969
293.69969
293.69969
293.69969
336.62563
334.96754
333.19463
331.30485
329.29792
327.17588
324.9439
322.61106
320.19125
317.70403
315.17523
312.63716
310.12814
307.69116
305.37161
303.21403
301.25835
299.53599
298.06655
296.85585
295.89561
295.16496
294.63357
294.26571
294.02438
293.87504
293.78832
293.74134
293.71774
293.70682
293.7022
293.70042
293.6998
293.69961
293.69956
293.69955
293.69955
293.69955
293.69955
293.69955
293.69955
293.69955
293.69955
293.69955
293.69955
293.69955
293.69955
293.69955
293.69955
293.69955
338.79604
337.20463
335.50251
333.68683
331.75596
329.70996
327.5511
325.28459
322.91935
320.46891
317.95227
315.3946
312.82761
310.28926
307.82262
305.47364
303.2879
301.30663
299.56247
298.07592
296.85312
295.88548
295.1514
294.61955
294.25309
294.0141
293.86737
293.78306
293.73802
293.71581
293.70576
293.70164
293.70011
293.6996
293.69945
293.69941
293.6994
293.6994
293.6994
293.6994
293.6994
293.6994
293.6994
293.6994
293.6994
293.6994
293.6994
293.6994
293.6994
293.6994
340.27135
338.72558
337.07212
335.30781
333.43048
331.4393
329.33521
327.12155
324.80471
322.39493
319.90716
317.3619
314.7858
312.21193
309.67936
307.23175
304.915
302.77369
300.84705
299.16474
297.74357
296.5857
295.67887
294.99856
294.51163
294.1806
293.96797
293.83969
293.76748
293.72984
293.7118
293.70393
293.70082
293.69972
293.69938
293.69928
293.69926
293.69925
293.69925
293.69925
293.69925
293.69925
293.69925
293.69925
293.69925
293.69925
293.69925
293.69925
293.69925
293.69925
341.38424
339.87306
338.25656
336.53145
334.69527
332.74671
330.68596
328.51526
326.23944
323.86668
321.40929
318.88454
316.31542
313.73107
311.16685
308.66351
306.26546
304.01793
301.9632
300.13648
298.56199
297.2503
296.19738
295.38569
294.78696
294.36615
294.08575
293.9096
293.80599
293.74934
293.72078
293.70761
293.70212
293.70006
293.69937
293.69917
293.69912
293.69911
293.69911
293.69911
293.69911
293.69911
293.69911
293.69911
293.69911
293.69911
293.69911
293.69911
293.69911
293.69911
342.26909
340.78551
339.19852
337.50478
335.70165
333.78751
331.76209
329.62688
327.38571
325.04534
322.61624
320.1134
317.55703
314.97326
312.3943
309.85812
307.40716
305.08605
302.9383
301.00235
299.30751
297.87072
296.69474
295.76835
295.06834
294.56291
294.21582
293.99034
293.85268
293.77426
293.73292
293.71294
293.70416
293.7007
293.69947
293.69909
293.69899
293.69897
293.69896
293.69896
293.69896
293.69896
293.69896
293.69896
293.69896
293.69896
293.69896
293.69896
293.69896
293.69896
343.00073
341.54003
339.97753
338.30984
336.53423
334.64887
332.65315
330.54806
328.33667
326.02474
323.62137
321.13981
318.59816
316.02013
313.43534
310.87926
308.39233
306.01806
303.80024
301.77917
299.98767
298.44751
297.16699
296.14039
295.34925
294.76529
294.35415
294.07947
293.90639
293.80426
293.7483
293.72007
293.70709
293.70171
293.69972
293.69906
293.69887
293.69883
293.69882
293.69882
293.69881
293.69881
293.69881
293.69881
293.69881
293.69881
293.69881
293.69881
293.69881
293.69881
343.62195
342.18073
340.63908
338.99359
337.24146
335.38073
333.41053
331.33147
329.14607
326.8593
324.47922
322.01771
319.49122
316.92146
314.3359
311.76783
309.25575
306.84194
304.56987
302.4809
300.61027
298.98345
297.61325
296.49869
295.62568
294.96933
294.49753
294.17479
293.96589
293.83883
293.7668
293.72908
293.71101
293.70318
293.70014
293.69909
293.69877
293.69869
293.69867
293.69867
293.69867
293.69867
293.69867
293.69867
293.69867
293.69867
293.69867
293.69867
293.69867
293.69867
344.16025
342.73593
341.21238
339.58619
337.8545
336.01523
334.06734
332.01114
329.84872
327.58442
325.22548
322.78268
320.2711
317.71083
315.12749
312.55248
310.02253
307.57857
305.26355
303.11929
301.18276
299.48227
298.03434
296.84208
295.8953
295.1724
294.64355
294.27445
294.03
293.87738
293.78824
293.73998
293.71599
293.70517
293.70078
293.6992
293.6987
293.69856
293.69853
293.69852
293.69852
293.69852
293.69852
293.69852
293.69852
293.69852
293.69852
293.69852
293.69852
293.69852
344.63405
343.22463
341.71705
340.10788
338.39423
336.57395
334.64583
332.60997
330.46809
328.22404
325.88437
323.45897
320.96179
318.41153
315.83224
313.25363
310.71086
308.24353
305.89387
303.70385
301.71163
299.94774
298.43178
297.17039
296.1569
295.37276
294.79043
294.37697
294.09768
293.91928
293.81234
293.7527
293.72207
293.70773
293.70168
293.69941
293.69866
293.69844
293.69839
293.69838
293.69838
293.69838
293.69838
293.69838
293.69838
293.69838
293.69838
293.69838
293.69838
293.69838
345.05638
343.66027
342.16694
340.57297
338.87545
337.07215
335.16177
333.14419
331.02085
328.79519
326.47319
324.06399
321.58057
319.04045
316.46634
313.88645
311.33445
308.84874
306.47072
304.2423
302.20243
300.3834
298.80737
297.48406
296.40994
295.56934
294.93692
294.48118
294.168
293.96396
293.83881
293.76716
293.72924
293.7109
293.70288
293.69974
293.69866
293.69834
293.69825
293.69823
293.69823
293.69823
293.69823
293.69823
293.69823
293.69823
293.69823
293.69823
293.69823
293.69823
345.43675
344.05264
342.57216
340.99191
339.30895
337.52101
335.62667
333.62567
331.5192
329.31037
327.00466
324.61056
322.14024
319.6102
317.04194
314.46237
311.90382
309.40349
307.00198
304.74094
302.65986
300.79241
299.16292
297.78378
296.65432
295.7615
295.08215
294.58619
294.24024
294.01089
293.86735
293.78322
293.7375
293.7147
293.70439
293.70021
293.69872
293.69825
293.69812
293.69809
293.69808
293.69808
293.69808
293.69808
293.69808
293.69808
293.69808
293.69808
293.69808
293.69808
345.7823
344.40911
342.94033
341.37256
339.70285
337.92889
336.04919
334.06334
331.97234
329.77898
327.48835
325.10839
322.65052
320.13036
317.56837
314.99026
312.42716
309.91513
307.49395
305.20492
303.08787
301.17756
299.50015
298.07038
296.89016
295.94891
295.22551
294.69133
294.31378
294.05961
293.89766
293.80074
293.74679
293.71913
293.70624
293.70084
293.69883
293.69818
293.69799
293.69795
293.69794
293.69794
293.69794
293.69794
293.69794
293.69794
293.69794
293.69794
293.69794
293.69794
346.09854
344.73534
343.27728
341.72094
340.06339
338.30226
336.436
334.46409
332.38735
330.20831
327.93171
325.56499
323.11895
320.60843
318.05293
315.4771
312.91097
310.38953
307.95174
305.6385
303.4898
301.54128
299.82065
298.34472
297.11774
296.13144
295.36662
294.79611
294.38814
294.10973
293.92948
293.81959
293.75706
293.7242
293.70845
293.70164
293.69902
293.69813
293.69787
293.69781
293.69779
293.69779
293.69779
293.69779
293.69779
293.69779
293.69779
293.69779
293.69779
293.69779
346.38977
345.03579
343.5876
342.04181
340.39546
338.64617
336.79233
334.83332
332.76979
330.60408
328.34058
325.98631
323.55152
321.05035
318.50144
315.9285
313.3605
310.83148
308.37957
306.04522
303.86849
301.88569
300.12585
298.60763
297.33742
296.30905
295.50522
294.90014
294.46292
294.16091
293.96257
293.83961
293.76825
293.7299
293.71102
293.70262
293.69928
293.69812
293.69776
293.69767
293.69765
293.69765
293.69765
293.69765
293.69765
293.69765
293.69765
293.69765
293.69765
293.69765
346.65943
345.314
343.87496
342.33895
340.703
338.96469
337.12238
335.17535
333.12414
330.97086
328.71964
326.37711
323.95304
321.46091
318.91862
316.349
313.78006
311.24493
308.78094
306.42807
304.22634
302.21261
300.41703
298.85991
297.54956
296.48183
295.64116
295.00317
294.53782
294.21287
293.99671
293.86066
293.78029
293.73619
293.71396
293.70379
293.69964
293.69814
293.69766
293.69754
293.69751
293.6975
293.6975
293.6975
293.6975
293.6975
293.6975
293.6975
293.6975
293.6975
346.91033
345.57285
344.14235
342.61544
340.98917
339.2611
337.42954
335.49371
333.45401
331.31238
329.07271
326.74128
324.32742
321.84403
319.30833
316.74233
314.17319
311.63314
309.15878
306.78957
304.56544
302.52366
300.69536
299.10229
297.75457
296.64989
295.77438
295.105
294.61261
294.26537
294.03171
293.88262
293.79311
293.74305
293.71726
293.70517
293.70009
293.69819
293.69758
293.6974
293.69736
293.69735
293.69735
293.69735
293.69735
293.69735
293.69735
293.69735
293.69735
293.69735
347.14476
345.81472
344.39219
342.8738
341.25658
339.5381
337.71661
335.79126
333.76237
331.63171
329.40292
327.08202
324.67789
322.20296
319.67378
317.11163
314.54286
311.99888
309.51557
307.13188
304.88757
302.82024
300.96186
299.33548
297.95284
296.81338
295.90485
295.2055
294.68708
294.31822
294.0674
293.90536
293.80665
293.75047
293.72093
293.70676
293.70064
293.69829
293.69751
293.69728
293.69722
293.69721
293.69721
293.69721
293.69721
293.69721
293.69721
293.69721
293.69721
293.69721
347.36463
346.04157
344.62652
343.11612
341.50741
339.79793
337.9859
336.07042
334.0517
331.93138
329.7129
327.40199
325.00717
322.5404
320.01764
317.45949
314.89156
312.34449
309.85343
307.45684
305.19428
303.10359
301.21744
299.56008
298.14473
296.97247
296.03258
295.30458
294.76111
294.37126
294.10364
293.92879
293.82082
293.75839
293.72495
293.70855
293.7013
293.69844
293.69745
293.69716
293.69708
293.69706
293.69706
293.69706
293.69706
293.69706
293.69706
293.69706
293.69706
293.69706
347.57153
346.25504
344.84704
343.34417
341.74347
340.04247
338.23936
336.33319
334.32408
332.21355
330.00484
327.70344
325.31753
322.85863
320.34219
317.78816
315.22144
312.67195
310.17418
307.76605
305.48692
303.37479
301.46294
299.77668
298.33061
297.12733
296.15761
295.40218
294.83457
294.42437
294.14031
293.95279
293.83558
293.7668
293.72931
293.71056
293.70207
293.69864
293.69742
293.69704
293.69694
293.69692
293.69692
293.69691
293.69691
293.69691
293.69691
293.69691
293.69691
293.69691
347.76682
346.45655
345.0552
343.55944
341.96631
340.27332
338.47865
336.58129
334.58128
332.48002
330.28061
327.98828
325.61091
323.15962
320.64936
318.09952
315.53432
312.98299
310.47938
308.06091
305.76669
303.6348
301.6991
299.9858
298.51081
297.27815
296.28
295.49828
294.90739
294.47742
294.17729
293.97729
293.85085
293.77565
293.734
293.71278
293.70296
293.69889
293.6974
293.69693
293.6968
293.69678
293.69677
293.69677
293.69677
293.69677
293.69677
293.69677
293.69677
293.69677
347.95167
346.64727
345.25223
343.76321
342.17724
340.49185
338.70517
336.81616
334.8248
332.73236
330.5418
328.25813
325.88896
323.44503
320.94083
318.39521
315.83177
313.27909
310.77041
308.34264
306.03461
303.88449
301.92657
300.18793
298.68565
297.4251
296.39981
295.59285
294.97949
294.53034
294.21451
294.0022
293.86658
293.78492
293.73901
293.7152
293.70396
293.6992
293.69742
293.69683
293.69667
293.69663
293.69662
293.69662
293.69662
293.69662
293.69662
293.69662
293.69662
293.69662
348.12705
346.82824
345.43919
343.95656
342.3774
340.69922
338.92015
337.03908
335.05594
332.97191
330.78979
328.51442
326.15312
323.7163
321.21804
318.67665
316.11517
313.56157
311.04847
308.6123
306.29163
304.12462
302.14595
300.38349
298.85541
297.56835
296.51711
295.6859
295.05084
294.58306
294.25188
294.02746
293.88273
293.79456
293.74432
293.71783
293.70509
293.69957
293.69745
293.69674
293.69654
293.69649
293.69648
293.69648
293.69648
293.69648
293.69648
293.69648
293.69648
293.69648
348.29385
347.00036
345.61699
344.14045
342.56778
340.89646
339.12462
337.25112
335.27582
333.19982
331.02578
328.75835
326.40463
323.9747
321.48223
318.94508
316.38573
313.83155
311.31461
308.87086
306.53856
304.35586
302.35778
300.5729
299.02037
297.70806
296.63198
295.77745
295.1214
294.63552
294.28934
294.05301
293.89923
293.80456
293.74991
293.72066
293.70633
293.7
293.69752
293.69666
293.69641
293.69635
293.69633
293.69633
293.69633
293.69633
293.69633
293.69633
293.69633
293.69633
348.45282
347.16439
345.78645
344.31572
342.74922
341.08446
339.31952
337.45325
335.48544
333.41711
331.2508
328.99101
326.64458
324.22131
321.73452
319.20158
316.64449
314.09004
311.56977
309.11915
306.77613
304.57884
302.56256
300.75651
299.18079
297.84439
296.74451
295.8675
295.19115
294.68766
294.32683
294.07878
293.91606
293.81488
293.75577
293.72368
293.7077
293.7005
293.69761
293.6966
293.69629
293.69621
293.69619
293.69618
293.69618
293.69618
293.69618
293.69618
293.69618
293.69618
348.6046
347.32101
345.94827
344.48308
342.92248
341.26398
339.50564
337.64628
335.68564
333.62466
331.46578
329.21332
326.87393
324.45712
321.97586
319.44712
316.89239
314.33794
311.81478
309.35792
307.00501
304.7941
302.76073
300.93467
299.33691
297.97749
296.85476
295.95609
295.26007
294.73946
294.3643
294.10475
293.93317
293.82549
293.76189
293.72689
293.70919
293.70107
293.69774
293.69654
293.69616
293.69607
293.69604
293.69604
293.69604
293.69604
293.69604
293.69604
293.69604
293.69604
348.7498
347.47084
346.10306
344.64317
343.08823
341.43572
339.6837
337.83096
335.87719
333.82327
331.67152
329.42611
327.09351
324.68298
322.20713
319.68255
317.13025
314.57604
312.05037
309.58784
307.22578
305.00215
302.95268
301.10768
299.48893
298.10751
296.96282
296.04324
295.32817
294.79089
294.40172
294.13086
293.95052
293.83637
293.76824
293.73029
293.7108
293.7017
293.6979
293.6965
293.69605
293.69593
293.6959
293.69589
293.69589
293.69589
293.69589
293.69589
293.69589
293.69589
348.88891
347.61439
346.25137
344.79657
343.24705
341.60029
339.85433
338.00794
336.06077
334.01362
331.86873
329.63013
327.30409
324.89964
322.42907
319.90861
317.35883
314.80504
312.27722
309.80953
307.43899
305.20344
303.1388
301.27582
299.63708
298.23457
297.06876
296.12898
295.39542
294.84192
294.43905
294.15708
293.96808
293.84749
293.77481
293.73385
293.71252
293.7024
293.69809
293.69647
293.69594
293.69579
293.69575
293.69575
293.69575
293.69575
293.69575
293.69575
293.69575
293.69575
349.0224
347.75215
346.3937
344.94378
343.39946
341.75822
340.01808
338.17779
336.23697
334.19634
332.05806
329.82602
327.50633
325.10778
322.64238
320.12599
317.57877
315.02558
312.49592
310.02353
307.64511
305.39839
303.31941
301.43937
299.78153
298.35881
297.17265
296.21335
295.46185
294.89253
294.47627
294.18337
293.98582
293.85883
293.78159
293.73758
293.71436
293.70317
293.69832
293.69646
293.69583
293.69565
293.69561
293.6956
293.6956
293.6956
293.6956
293.6956
293.6956
293.6956
349.15068
347.88453
346.53047
345.08525
343.54593
341.90999
340.17546
338.34104
336.40632
334.37198
332.24007
330.01437
327.70083
325.30801
322.84766
320.33529
317.79068
315.23823
312.70701
310.23033
307.84458
305.58737
303.49483
301.59855
299.92247
298.48035
297.27458
296.29638
295.52745
294.94271
294.51334
294.20971
294.00372
293.87037
293.78857
293.74148
293.71632
293.70401
293.69858
293.69646
293.69573
293.69552
293.69547
293.69546
293.69545
293.69545
293.69545
293.69545
293.69545
293.69545
349.27412
348.01191
346.66208
345.22139
343.68688
342.05605
340.32691
338.49815
336.56932
334.54103
332.41527
330.19571
327.88812
325.50088
323.04546
320.53707
317.99509
315.44351
312.91098
310.43038
308.03781
305.77072
303.66534
301.7536
300.06005
298.59929
297.3746
296.3781
295.59224
294.99246
294.55025
294.23608
294.02176
293.88209
293.79573
293.74552
293.71838
293.70492
293.69889
293.69648
293.69564
293.69539
293.69532
293.69531
293.69531
293.69531
293.69531
293.69531
293.69531
293.69531
349.39305
348.13464
346.78889
345.35255
343.82269
342.19678
340.47284
338.64954
336.72638
334.70395
332.58413
330.37051
328.06869
325.68687
323.23628
320.73181
318.19249
315.6419
313.10826
310.62409
308.22516
305.94876
303.8312
301.90472
300.19445
298.71575
297.47279
296.45855
295.65621
295.04176
294.58698
294.26244
294.0399
293.89397
293.80305
293.74971
293.72055
293.7059
293.69923
293.69652
293.69556
293.69526
293.69518
293.69516
293.69516
293.69516
293.69516
293.69516
293.69516
293.69516
349.50776
348.25302
346.9112
345.47907
343.95369
342.33254
340.61362
338.79558
336.87791
334.86113
332.74707
330.53919
328.24298
325.86644
323.42056
320.91996
318.38331
315.8338
313.29927
310.81183
308.40696
306.12179
303.99265
302.0521
300.32579
298.82982
297.56921
296.53776
295.71939
295.09061
294.62352
294.2888
294.05814
293.90599
293.81053
293.75403
293.72283
293.70694
293.69961
293.69658
293.69548
293.69513
293.69504
293.69502
293.69502
293.69501
293.69501
293.69501
293.69501
293.69501
349.61853
348.36734
347.02932
345.60124
344.08019
342.46363
340.74956
338.93662
337.02426
335.01295
332.90446
330.70215
328.41139
326.03998
323.59872
321.10193
318.56795
316.01963
313.48438
310.99395
308.58352
306.29006
304.14992
302.19593
300.45421
298.9416
297.66392
296.61577
295.78179
295.13901
294.65985
294.31512
294.07645
293.91815
293.81815
293.75849
293.7252
293.70806
293.70002
293.69665
293.69541
293.69501
293.6949
293.69487
293.69487
293.69487
293.69487
293.69487
293.69487
293.69487
349.72561
348.47784
347.14349
345.71934
344.20247
342.59036
340.88098
339.07297
337.16574
335.15973
333.05664
330.85974
328.57427
326.20787
323.77113
321.27809
318.74679
316.19972
313.66391
311.17076
308.75513
306.45383
304.30322
302.33636
300.57985
299.05119
297.75697
296.69261
295.84342
295.18695
294.69597
294.34139
294.09482
293.93042
293.82591
293.76306
293.72767
293.70924
293.70048
293.69675
293.69535
293.69489
293.69476
293.69473
293.69472
293.69472
293.69472
293.69472
293.69472
293.69472
349.82921
348.58475
347.25397
345.83362
344.3208
342.71299
341.00815
339.20491
337.30266
335.30178
333.20393
331.01228
328.73195
326.37044
323.93812
321.44877
318.92016
316.3744
313.83819
311.34254
308.92205
306.61332
304.45273
302.47355
300.70282
299.15866
297.84844
296.76831
295.90429
295.23445
294.73187
294.3676
294.11324
293.94279
293.83379
293.76776
293.73024
293.71048
293.70098
293.69687
293.69529
293.69477
293.69462
293.69458
293.69458
293.69458
293.69458
293.69458
293.69458
293.69458
349.92954
348.6883
347.36096
345.94429
344.4354
342.83175
341.13132
339.3327
337.43527
335.43938
333.34661
331.16007
328.88475
326.528
324.1
321.61431
319.08837
316.54398
314.00749
311.50956
309.0845
306.76875
304.59864
302.60764
300.82322
299.2641
297.93835
296.8429
295.96442
295.2815
294.76754
294.39375
294.13169
293.95526
293.84178
293.77256
293.7329
293.7118
293.70152
293.69701
293.69525
293.69466
293.69448
293.69444
293.69443
293.69443
293.69443
293.69443
293.69443
293.69443
350.02679
348.78867
347.46466
346.05157
344.54648
342.94688
341.25072
339.45659
337.56384
335.57278
333.48495
331.30337
329.03293
326.68084
324.25707
321.77496
319.25169
316.70873
314.17207
311.67207
309.24273
306.9203
304.74111
302.73878
300.94117
299.36758
298.02678
296.91642
296.02382
295.3281
294.80298
294.41981
294.15016
293.9678
293.84987
293.77747
293.73564
293.71317
293.7021
293.69717
293.69522
293.69455
293.69435
293.6943
293.69429
293.69428
293.69428
293.69428
293.69428
293.69428
350.12113
348.88603
347.56527
346.15564
344.65425
343.05856
341.36655
339.57678
337.68857
335.70222
333.61919
331.44244
329.17675
326.8292
324.40958
321.93101
319.41039
316.8689
314.3322
311.8303
309.39694
307.06817
304.88029
302.86708
301.05676
299.46917
298.11377
296.98889
296.08251
295.37426
294.83818
294.44579
294.16865
293.98041
293.85807
293.78247
293.73847
293.7146
293.70271
293.69735
293.6952
293.69444
293.69421
293.69415
293.69414
293.69414
293.69414
293.69414
293.69414
293.69414
350.21272
348.98056
347.66295
346.25669
344.75888
343.167
341.47901
339.69347
337.80969
335.82791
333.74955
331.5775
329.31645
326.97333
324.55778
322.08269
319.56472
317.02473
314.48807
311.98445
309.54731
307.21252
305.01634
302.99267
301.17009
299.56895
298.19936
297.06034
296.14051
295.41998
294.87314
294.47167
294.18713
293.99309
293.86635
293.78757
293.74137
293.7161
293.70337
293.69755
293.69518
293.69434
293.69408
293.69401
293.69399
293.69399
293.69399
293.69399
293.69399
293.69399
350.30171
349.07241
347.75785
346.35486
344.86054
343.27236
341.58829
339.80687
337.92738
335.95004
333.87623
331.70877
329.45224
327.11345
324.70189
322.23023
319.71488
317.17643
314.63992
312.13472
309.69403
307.35352
305.14938
303.11566
301.28123
299.66697
298.2836
297.13081
296.19782
295.46526
294.90787
294.49745
294.20561
294.00582
293.87471
293.79275
293.74436
293.71765
293.70406
293.69778
293.69518
293.69424
293.69395
293.69387
293.69385
293.69385
293.69385
293.69385
293.69385
293.69385
350.38823
349.1617
347.85012
346.45031
344.95938
343.37481
341.69454
339.91712
338.04181
336.06881
333.99943
331.83643
329.58432
327.24977
324.84212
322.37383
319.8611
317.32421
314.78792
312.2813
309.83726
307.4913
305.27954
303.23614
301.39028
299.7633
298.36653
297.2003
296.25446
295.51012
294.94235
294.52312
294.22408
294.01859
293.88314
293.79801
293.74741
293.71927
293.7048
293.69803
293.69519
293.69415
293.69381
293.69372
293.6937
293.6937
293.6937
293.6937
293.6937
293.6937
350.47241
349.24858
347.9399
346.54318
345.05555
343.47448
341.79792
340.0244
338.15317
336.18438
334.11932
331.96068
329.71287
327.38247
324.97865
322.5137
320.00355
317.46826
314.93226
312.42435
309.97717
307.62601
305.40695
303.35423
301.49731
299.858
298.44819
297.26887
296.31045
295.55456
294.97658
294.54869
294.24253
294.0314
293.89164
293.80335
293.75054
293.72093
293.70557
293.6983
293.69521
293.69406
293.69369
293.69358
293.69356
293.69355
293.69355
293.69355
293.69355
293.69355
350.55436
349.33316
348.02729
346.6336
345.14918
343.57152
341.89858
340.12885
338.26158
336.29691
334.23606
332.08167
329.83808
327.51174
325.11167
322.64999
320.14242
317.60874
315.07311
312.56403
310.11388
307.75778
305.53171
303.47001
301.6024
299.95112
298.52863
297.33652
296.3658
295.59858
295.01058
294.57414
294.26095
294.04424
293.90021
293.80877
293.75373
293.72265
293.70638
293.69859
293.69525
293.69398
293.69356
293.69344
293.69341
293.69341
293.69341
293.69341
293.69341
293.69341
350.63419
349.41555
348.11243
346.72167
345.24039
343.66606
341.99663
340.23061
338.36721
336.40654
334.34981
332.19957
329.9601
327.63773
325.24135
322.7829
320.27788
317.74583
315.21062
312.70049
310.24755
307.88673
305.65393
303.58357
301.70561
300.04271
298.60787
297.40328
296.42053
295.64219
295.04433
294.59947
294.27934
294.05711
293.90883
293.81424
293.75699
293.72442
293.70722
293.69891
293.69529
293.6939
293.69343
293.6933
293.69327
293.69326
293.69326
293.69326
293.69326
293.69326
350.712
349.49586
348.19542
346.80753
345.32929
343.75821
342.09221
340.3298
338.47017
336.51342
334.4607
332.31452
330.07907
327.76059
325.36783
322.91256
320.41008
317.87967
315.34495
312.83387
310.3783
308.01297
305.77371
303.69499
301.80701
300.13282
298.68595
297.46918
296.47464
295.68539
295.07784
294.62468
294.2977
294.07
293.9175
293.81979
293.76031
293.72625
293.70811
293.69925
293.69535
293.69383
293.69331
293.69316
293.69312
293.69312
293.69312
293.69312
293.69312
293.69312
350.78788
349.57418
348.27636
346.89125
345.416
343.84808
342.18543
340.42654
338.5706
336.61767
334.56886
332.42665
330.19514
327.88047
325.49127
323.03913
320.53916
318.01041
315.47622
312.96429
310.50624
308.13662
305.89115
303.80435
301.90667
300.22151
298.76292
297.53423
296.52816
295.7282
295.1111
294.64977
294.31602
294.0829
293.92622
293.82539
293.76369
293.72812
293.70903
293.69961
293.69542
293.69376
293.69319
293.69302
293.69298
293.69297
293.69297
293.69297
293.69297
293.69297
350.86193
349.65061
348.35533
346.97296
345.50061
343.93578
342.2764
340.52094
338.6686
336.7194
334.67443
332.53609
330.30844
327.99751
325.61179
323.16275
320.66526
318.13817
315.60457
313.09189
310.6315
308.25776
306.00632
303.91173
302.00463
300.30881
298.83879
297.59847
296.58108
295.77061
295.14413
294.67473
294.3343
294.09581
293.93497
293.83104
293.76712
293.73004
293.70998
293.7
293.6955
293.6937
293.69307
293.69288
293.69284
293.69282
293.69282
293.69282
293.69282
293.69282
350.93422
349.72522
348.43244
347.05272
345.58321
344.0214
342.36521
340.61312
338.76429
336.81873
334.77751
332.64297
330.41909
328.11182
325.72953
323.28353
320.78851
318.26309
315.73012
313.21677
310.75418
308.37651
306.11931
304.01719
302.10097
300.39477
298.91361
297.6619
296.63344
295.81264
295.17693
294.69957
294.35252
294.10873
293.94377
293.83675
293.77061
293.73201
293.71097
293.70041
293.6956
293.69365
293.69296
293.69275
293.69269
293.69268
293.69268
293.69268
293.69268
293.69268
351.00483
349.7981
348.50775
347.13063
345.6639
344.10503
342.45196
340.70315
338.85776
336.91577
334.87821
332.74738
330.5272
328.22352
325.84461
323.4016
320.90903
318.38529
315.85299
313.33905
310.87438
308.49295
306.23021
304.1208
302.19572
300.47943
298.98739
297.72456
296.68523
295.85429
295.20948
294.72428
294.3707
294.12165
293.9526
293.8425
293.77414
293.73402
293.71199
293.70084
293.69571
293.6936
293.69284
293.69261
293.69255
293.69253
293.69253
293.69253
293.69253
293.69253
351.07383
349.86932
348.58134
347.20677
345.74275
344.18676
342.53674
340.79114
338.94911
337.01061
334.97663
332.84944
330.63288
328.33272
325.95712
323.51707
321.02692
318.50486
315.97327
313.45882
310.99219
308.60716
306.33909
304.22263
302.28895
300.56283
299.06018
297.78645
296.73647
295.89556
295.2418
294.74886
294.38883
294.13457
293.96146
293.8483
293.77773
293.73607
293.71305
293.70129
293.69583
293.69356
293.69273
293.69247
293.6924
293.69239
293.69239
293.69238
293.69238
293.69238
351.14128
349.93894
348.6533
347.28121
345.81984
344.26667
342.61963
340.87717
339.03843
337.10334
335.07287
332.94924
330.73623
328.43953
326.06719
323.63005
321.1423
318.62193
316.09108
313.57618
311.1077
308.71922
306.44601
304.32272
302.38069
300.64501
299.13199
297.84761
296.78718
295.93647
295.27389
294.77332
294.4069
294.14749
293.97035
293.85415
293.78136
293.73816
293.71413
293.70177
293.69596
293.69353
293.69263
293.69234
293.69226
293.69224
293.69224
293.69224
293.69224
293.69224
351.20726
350.00705
348.72367
347.35402
345.89524
344.34483
342.70071
340.96132
339.1258
337.19405
335.16701
333.04688
330.83735
328.54405
326.1749
323.74064
321.25527
318.73658
316.2065
313.69123
311.22099
308.82922
306.55105
304.42115
302.47101
300.72599
299.20286
297.90804
296.83736
295.97702
295.30575
294.79764
294.42492
294.1604
293.97925
293.86003
293.78503
293.7403
293.71525
293.70226
293.69611
293.6935
293.69252
293.6922
293.69212
293.6921
293.69209
293.69209
293.69209
293.69209
351.27182
350.07368
348.79254
347.42527
345.96903
344.42131
342.78005
341.04367
339.21129
337.28282
335.25915
333.14243
330.93632
328.64635
326.28036
323.84892
321.36591
318.8489
316.31962
313.80404
311.33216
308.93722
306.65427
304.51796
302.55993
300.80583
299.2728
297.96777
296.88703
296.01721
295.33739
294.82184
294.44287
294.1733
293.98818
293.86594
293.78874
293.74247
293.7164
293.70278
293.69627
293.69348
293.69242
293.69207
293.69197
293.69195
293.69195
293.69195
293.69195
293.69195
351.33502
350.13891
348.85995
347.49501
346.04126
344.49618
342.85771
341.12428
339.29499
337.36972
335.34935
333.23599
331.03323
328.74654
326.38364
323.955
321.47431
318.95899
316.43054
313.9147
311.44127
309.0433
306.75572
304.61321
302.64751
300.88454
299.34185
298.0268
296.93619
296.05705
295.36879
294.8459
294.46077
294.18618
293.99713
293.87189
293.79249
293.74468
293.71758
293.70332
293.69645
293.69346
293.69232
293.69194
293.69183
293.69181
293.6918
293.6918
293.6918
293.6918
351.39691
350.20279
348.92596
347.56331
346.11199
344.56951
342.93377
341.20323
339.37696
337.45483
335.4377
333.32763
331.12816
328.84468
326.48483
324.05894
321.58057
319.06693
316.53933
314.02329
311.54839
309.14751
306.85547
304.70694
302.73378
300.96217
299.41002
298.08517
296.98485
296.09655
295.39998
294.86984
294.47861
294.19906
294.00609
293.87788
293.79628
293.74692
293.71879
293.70388
293.69663
293.69346
293.69223
293.69181
293.69169
293.69166
293.69166
293.69165
293.69165
293.69165
351.45754
350.26537
348.99063
347.63022
346.18128
344.64134
343.00829
341.28057
339.45727
337.53822
335.52426
333.41741
331.22117
328.94086
326.58401
324.16084
321.68475
319.1728
316.64606
314.12987
311.65359
309.24992
306.95358
304.79921
302.81878
301.03874
299.47734
298.14288
297.03303
296.13571
295.43095
294.89364
294.49638
294.21191
294.01507
293.88389
293.80011
293.7492
293.72003
293.70446
293.69683
293.69346
293.69213
293.69168
293.69155
293.69152
293.69151
293.69151
293.69151
293.69151
351.51695
350.3267
349.05401
347.69579
346.24919
344.71173
343.08132
341.35637
339.53597
337.61995
335.6091
333.50542
331.31236
329.03515
326.68125
324.26076
321.78694
319.27666
316.75082
314.23452
311.75694
309.3506
307.05009
304.89004
302.90255
301.11427
299.54384
298.19994
297.08074
296.17454
295.46169
294.91732
294.51409
294.22475
294.02405
293.88992
293.80397
293.75151
293.7213
293.70507
293.69705
293.69347
293.69205
293.69155
293.69141
293.69137