/*--------------------------------*- C++ -*----------------------------------*\
| =========                 |                                                 |
| \\      /  F ield         | OpenFOAM: The Open Source CFD Toolbox           |
|  \\    /   O peration     | Version:  4.0                                   |
|   \\  /    A nd           | Web:      www.OpenFOAM.org                      |
|    \\/     M anipulation  |                                                 |
\*---------------------------------------------------------------------------*/
FoamFile
{
    version     2.0;
    format      ascii;
    class       volVectorField;
    location    "2000";
    object      U;
}
// * * * * * * * * * * * * * * * * * * * * * * * * * * * * * * * * * * * * * //

dimensions      [0 1 -1 0 0 0 0];

internalField   nonuniform List<vector> 
5000
(
(8.1374855e-06 -1.378587e-20 0.0096003476)
(2.9741076e-05 -4.2946771e-20 0.028008766)
(6.215865e-05 -7.4551025e-20 0.046363539)
(0.0001089499 -1.0984577e-19 0.064424243)
(0.00016642629 -1.3628975e-19 0.081931219)
(0.00023254347 -1.6882054e-19 0.098616371)
(0.00030457787 -2.1100036e-19 0.11421683)
(0.00037920339 -2.3978808e-19 0.12849088)
(0.00045271668 -2.7836571e-19 0.1412347)
(0.00052138728 -3.0894765e-19 0.15229823)
(0.0005817464 -2.9695131e-19 0.16159802)
(0.00063087563 -3.3628922e-19 0.169125)
(0.00066665119 -3.5227e-19 0.17494588)
(0.00068790579 -3.6266245e-19 0.17919733)
(0.00069448726 -3.6692527e-19 0.18207349)
(0.00068720935 -3.8202162e-19 0.18380807)
(0.00066770524 -3.9801326e-19 0.18465346)
(0.00063820399 -4.1172388e-19 0.18485926)
(0.00060125876 -4.7837334e-19 0.18465311)
(0.00055945938 -5.7753859e-19 0.18422598)
(0.00051515393 -6.3797118e-19 0.18372347)
(0.00047012118 -5.4966819e-19 0.18324378)
(0.00042433708 -5.7256711e-19 0.18284184)
(0.00038805664 -5.925399e-19 0.18253877)
(0.00034194661 -6.4027372e-19 0.18232788)
(0.0003050059 -7.289334e-19 0.18219198)
(0.00026737846 -7.8405198e-19 0.18210931)
(0.0002317709 -7.3339793e-19 0.18206027)
(0.0001969109 -7.7373017e-19 0.18202984)
(0.00016314238 -7.5053641e-19 0.1820082)
(0.00013025679 -9.7068493e-19 0.18198969)
(9.8498612e-05 -7.9305239e-19 0.18197162)
(6.8026199e-05 -6.8024258e-19 0.18195296)
(3.9162056e-05 -7.0765836e-19 0.18193357)
(1.2513548e-05 -7.6225497e-19 0.18191361)
(-6.7184064e-07 -7.7918928e-19 0.18189247)
(-1.3250743e-05 -5.617224e-19 0.18187101)
(-3.4450009e-05 -7.5463771e-19 0.18184958)
(-5.3568145e-05 -7.3272965e-19 0.18182915)
(-6.8498622e-05 -6.3217972e-19 0.18180971)
(-8.070132e-05 -6.9139329e-19 0.18179193)
(-8.8162379e-05 -6.088962e-19 0.18177541)
(-9.2802583e-05 -5.6533536e-19 0.18176095)
(-9.2498751e-05 -5.0850136e-19 0.18174777)
(-8.9470383e-05 -4.25753e-19 0.18173686)
(-8.1652343e-05 -3.7314642e-19 0.18172711)
(-7.1417673e-05 -3.2155237e-19 0.18171975)
(-5.6917772e-05 -2.8761764e-19 0.18171333)
(-4.0573239e-05 -2.8157003e-19 0.18170953)
(-2.112541e-05 -2.8392851e-19 0.18170462)
(1.8220884e-05 -7.4078134e-21 0.0077624354)
(4.2440696e-05 -2.2126199e-20 0.022960201)
(0.00011241828 -3.8084641e-20 0.038502708)
(0.00020265422 -6.0613662e-20 0.054264531)
(0.00031755448 -7.7641052e-20 0.070091783)
(0.00045359551 -1.123184e-19 0.085801046)
(0.00060472936 -1.4618634e-19 0.10118063)
(0.00076244835 -1.5653709e-19 0.1159949)
(0.00091657608 -1.9985657e-19 0.12999258)
(0.001055648 -2.7120858e-19 0.14291924)
(0.0011679105 -3.0301089e-19 0.15453399)
(0.0012426046 -3.5791303e-19 0.16462903)
(0.0012713635 -3.5467551e-19 0.17305018)
(0.0012495077 -3.5474295e-19 0.17971562)
(0.0011769888 -3.5865118e-19 0.18462985)
(0.0010587408 -3.7257298e-19 0.18788956)
(0.00090427468 -3.7182367e-19 0.18967951)
(0.00072649729 -3.4224709e-19 0.19025697)
(0.00053991401 -2.8666816e-19 0.18992569)
(0.00035856866 -4.3124936e-19 0.1890026)
(0.00019435383 -4.5118832e-19 0.18778245)
(5.7719065e-05 -5.1077119e-19 0.18650728)
(-1.8068701e-05 -5.7474183e-19 0.18534648)
(-7.0076706e-05 -6.2438316e-19 0.18439657)
(-0.00014594453 -6.7204129e-19 0.18368581)
(-0.00020269829 -7.1945724e-19 0.18319278)
(-0.00024121458 -7.6648248e-19 0.18287114)
(-0.00026561458 -7.894443e-19 0.18266899)
(-0.00028025417 -7.5293509e-19 0.18254126)
(-0.00028825704 -7.5673914e-19 0.18245484)
(-0.00029177144 -8.4111811e-19 0.18238873)
(-0.00029199001 -9.9709878e-19 0.18233138)
(-0.00028962651 -7.282147e-19 0.18227737)
(-0.00028444087 -7.1963398e-19 0.18222463)
(-0.00028029381 -7.5764958e-19 0.18217278)
(-0.00027199036 -7.6183176e-19 0.18212166)
(-0.0002592343 -5.5033989e-19 0.18207114)
(-0.00024745901 -7.4584579e-19 0.1820223)
(-0.00023545276 -7.2913797e-19 0.18197579)
(-0.00022185503 -6.0335431e-19 0.18193202)
(-0.00020812616 -7.2275729e-19 0.18189149)
(-0.00019259774 -6.1031077e-19 0.1818542)
(-0.00017699339 -5.6811099e-19 0.18182065)
(-0.00015926007 -4.8858664e-19 0.18179057)
(-0.00014130452 -4.2832407e-19 0.18176455)
(-0.00012085913 -3.739974e-19 0.18174198)
(-0.00010007688 -3.2141359e-19 0.18172379)
(-7.6403154e-05 -2.8817137e-19 0.18170873)
(-5.2918252e-05 -2.8088407e-19 0.18169889)
(-2.5556317e-05 -2.8400005e-19 0.18168762)
(1.3199657e-05 -3.7634938e-20 0.0082264203)
(-3.9355175e-07 -1.1173787e-19 0.024315756)
(-9.2169424e-06 -1.9055534e-19 0.040748478)
(-2.2310438e-05 -2.6258953e-19 0.057388847)
(-4.1359217e-05 -3.416677e-19 0.074074554)
(-6.7106609e-05 -4.2318195e-19 0.090616458)
(-0.00010013035 -5.0900696e-19 0.10679975)
(-0.00014101984 -6.0902277e-19 0.12238717)
(-0.0001904603 -7.0115717e-19 0.13712474)
(-0.00024929349 -7.6031919e-19 0.15075091)
(-0.0003185356 -8.7332573e-19 0.1630094)
(-0.00039931208 -9.4463057e-19 0.17366593)
(-0.00049266969 -7.7622369e-19 0.18252843)
(-0.00059924761 -6.1369415e-19 0.18946892)
(-0.00071882864 -4.7180223e-19 0.19444438)
(-0.00084984531 -3.4179656e-19 0.19751249)
(-0.00098897015 -1.8040465e-19 0.19883789)
(-0.0011309203 -2.4630128e-19 0.19868486)
(-0.0012685138 -7.7659921e-20 0.19739482)
(-0.0013932969 4.2050478e-20 0.19535045)
(-0.0014973137 1.0369776e-19 0.19293164)
(-0.0015773989 -3.4167971e-19 0.19047223)
(-0.0016140998 -5.0204317e-19 0.18822631)
(-0.0016202521 -6.0379874e-19 0.18635038)
(-0.0015923289 -6.7459896e-19 0.18490643)
(-0.0015352308 -7.2685202e-19 0.18387671)
(-0.0014555782 -7.6895138e-19 0.18319407)
(-0.0013609247 -7.503052e-19 0.1827704)
(-0.0012585437 -7.0507805e-19 0.18252006)
(-0.0011543969 -7.6900101e-19 0.1823738)
(-0.0010527855 -7.8616828e-19 0.18228335)
(-0.00095632689 -6.183868e-19 0.18221937)
(-0.00086666291 -6.7973595e-19 0.18216634)
(-0.00078303422 -7.1388645e-19 0.18211715)
(-0.00070727647 -7.5221529e-19 0.1820692)
(-0.00063859121 -7.4032878e-19 0.18202237)
(-0.00057460135 -4.1540918e-19 0.18197667)
(-0.00051609322 -7.5935551e-19 0.18193205)
(-0.00046291888 -9.3909328e-19 0.18188887)
(-0.00041334565 -6.8850993e-19 0.18184757)
(-0.00036803643 -2.326682e-19 0.18180861)
(-0.00032494877 -5.8954659e-19 0.18177214)
(-0.00028521334 -5.7268403e-19 0.18173864)
(-0.0002464641 -7.3853414e-19 0.18170803)
(-0.00021030349 -4.3378475e-19 0.18168102)
(-0.00017389774 -3.70367e-19 0.18165707)
(-0.0001397871 -1.7767359e-19 0.1816376)
(-0.00010361865 -2.8303038e-19 0.18162071)
(-7.1124151e-05 -7.8884211e-20 0.18161025)
(-3.2904491e-05 -2.8173339e-19 0.18159559)
(1.4812931e-06 -6.9769324e-20 0.008758129)
(-2.7809057e-06 -2.0989819e-19 0.025903405)
(-1.2512594e-05 -3.5699522e-19 0.043431237)
(-2.9920512e-05 -5.1993592e-19 0.061197126)
(-5.6455536e-05 -6.9269819e-19 0.079027053)
(-9.3516876e-05 -8.3390317e-19 0.096716812)
(-0.00014249604 -9.0918364e-19 0.11403286)
(-0.00020473445 -9.3726277e-19 0.13071527)
(-0.00028145319 -9.6500907e-19 0.14648357)
(-0.00037366395 -1.022713e-18 0.16104594)
(-0.00048206227 -1.0580224e-18 0.17411264)
(-0.00060690066 -1.1280859e-18 0.18541364)
(-0.00074783752 -1.2511589e-18 0.19472026)
(-0.00090375636 -1.4322471e-18 0.20186939)
(-0.0010725563 -1.2616342e-18 0.20678781)
(-0.0012509275 -1.1137365e-18 0.20951262)
(-0.0014341547 -1.0218328e-18 0.21020289)
(-0.0016160318 -1.0062167e-18 0.20913768)
(-0.001788961 -1.0593853e-18 0.20669708)
(-0.001944296 -6.7001069e-19 0.20332625)
(-0.0020730455 -6.9293005e-19 0.19948696)
(-0.0021680372 -6.0221046e-19 0.19560497)
(-0.0022220182 -6.096698e-19 0.19202409)
(-0.0022327443 -6.474763e-19 0.18897527)
(-0.0022006786 -7.6366498e-19 0.18656839)
(-0.0021301077 -8.9849628e-19 0.18480497)
(-0.0020282694 -1.0964179e-18 0.18360734)
(-0.0019041118 -1.3507951e-18 0.18285478)
(-0.0017668539 -1.213246e-18 0.18241747)
(-0.0016246708 -9.9719833e-19 0.18218105)
(-0.0014838862 -1.175645e-18 0.18205913)
(-0.0013486014 -6.3702251e-19 0.18199477)
(-0.0012215133 -6.5709221e-19 0.18195522)
(-0.0011029147 -7.1200423e-19 0.18192413)
(-0.00099316747 -7.371669e-19 0.18189445)
(-0.00089244545 -6.964628e-19 0.18186434)
(-0.00079949618 -3.1295162e-19 0.18183369)
(-0.00071371944 -1.0466475e-18 0.18180242)
(-0.00063516385 -8.8161757e-19 0.1817709)
(-0.000562257 -7.0734808e-19 0.1817397)
(-0.00049551423 7.7547888e-20 0.18170938)
(-0.00043293123 -5.4048464e-19 0.18168024)
(-0.00037554834 -3.0681573e-19 0.18165285)
(-0.00032078278 -6.275008e-19 0.18162721)
(-0.00027052212 -4.2693922e-19 0.18160426)
(-0.00022091751 -2.0768808e-19 0.1815832)
(-0.00017606743 -1.9341544e-19 0.18156632)
(-0.00012855196 -2.7897474e-19 0.18155053)
(-8.8135115e-05 -1.1235466e-19 0.18154162)
(-4.0395005e-05 -2.7999932e-19 0.18152567)
(1.3530999e-06 -4.0431513e-20 0.0092902104)
(-2.8844264e-06 -1.2170843e-19 0.02749585)
(-1.2920298e-05 -2.0745464e-19 0.046128766)
(-3.0984313e-05 -3.1847915e-19 0.065037903)
(-5.865446e-05 -4.2934482e-19 0.084040167)
(-9.7512139e-05 -5.5292474e-19 0.1029192)
(-0.00014918933 -6.3706764e-19 0.12142566)
(-0.00021533218 -6.590006e-19 0.13927956)
(-0.00029753165 -6.5881658e-19 0.15617557)
(-0.00039722559 -7.7405246e-19 0.17179193)
(-0.00051556943 -8.1706573e-19 0.18580394)
(-0.00065327273 -8.3801024e-19 0.19790219)
(-0.00081039932 -1.0909101e-18 0.20781581)
(-0.00098613527 -1.3492402e-18 0.21533934)
(-0.0011785356 -1.3401511e-18 0.22036093)
(-0.0013842717 -1.2841043e-18 0.22288795)
(-0.0015984207 -1.2583114e-18 0.22306446)
(-0.0018143619 -1.0150702e-18 0.2211749)
(-0.0020238632 -8.0716229e-19 0.21762927)
(-0.0022174346 -6.5835479e-19 0.21292822)
(-0.0023849707 -6.7694046e-19 0.20761135)
(-0.0025169187 -8.071525e-19 0.20219691)
(-0.0026051934 -7.660104e-19 0.19712446)
(-0.0026446297 -8.0759276e-19 0.19271183)
(-0.0026337361 -9.3600857e-19 0.18913502)
(-0.0025751032 -1.1127803e-18 0.1864333)
(-0.0024750755 -1.442172e-18 0.18453585)
(-0.0023427499 -1.9621072e-18 0.18330158)
(-0.0021885236 -1.7335044e-18 0.18256156)
(-0.002022536 -1.2589807e-18 0.18215451)
(-0.0018534354 -1.1010229e-18 0.1819492)
(-0.0016875219 -1.023558e-18 0.18185273)
(-0.0015290916 -7.3489461e-19 0.1818075)
(-0.001380186 -7.0405207e-19 0.18178237)
(-0.0012414845 -7.2263418e-19 0.18176276)
(-0.0011132645 -6.7434485e-19 0.18174329)
(-0.00099503106 -5.0538441e-19 0.18172259)
(-0.00088584425 -1.1848529e-18 0.18170036)
(-0.00078566236 -6.5177068e-19 0.18167684)
(-0.0006929381 -6.2751547e-19 0.18165264)
(-0.00060805184 -3.0249222e-20 0.18162834)
(-0.0005288793 -4.8408187e-19 0.1816043)
(-0.00045653895 -1.5024596e-20 0.1815812)
(-0.00038787168 -2.6256952e-19 0.18155898)
(-0.00032562076 -4.1069299e-19 0.18153895)
(-0.0002640966 -2.4376323e-19 0.18151981)
(-0.00020998954 -3.4406817e-19 0.18150492)
(-0.00015203465 -2.8146442e-19 0.18148986)
(-0.00010403962 -3.3727185e-19 0.18148195)
(-4.7736851e-05 -2.8074564e-19 0.18146483)
(1.2179561e-06 -1.1627037e-20 0.0097613648)
(-2.5717415e-06 -3.3315206e-20 0.028911428)
(-1.1574345e-05 -5.7792252e-20 0.048535488)
(-2.7844885e-05 -8.500172e-20 0.068478711)
(-5.2886428e-05 -1.2093462e-19 0.088552299)
(-8.8247117e-05 -1.9703355e-19 0.10853175)
(-0.00013557464 -3.1652436e-19 0.12815652)
(-0.00019659711 -4.3610832e-19 0.14713166)
(-0.00027307446 -5.5545874e-19 0.16513232)
(-0.0003667226 -5.9692251e-19 0.18181202)
(-0.00047910341 -6.7652892e-19 0.19681547)
(-0.000611473 -7.468065e-19 0.20979683)
(-0.00076458215 -7.9144498e-19 0.22044351)
(-0.00093842565 -8.6017622e-19 0.2285049)
(-0.0011319459 -9.0503403e-19 0.23382384)
(-0.0013427126 -8.3280108e-19 0.23636713)
(-0.0015666181 -7.0020713e-19 0.23624937)
(-0.0017976568 -4.8475833e-19 0.23374351)
(-0.0020278819 -5.7758403e-20 0.22927206)
(-0.0022476375 -5.4052448e-20 0.22337557)
(-0.002446137 -3.0783317e-20 0.2166601)
(-0.0026124324 -4.823535e-19 0.20973105)
(-0.002736628 -7.0650964e-19 0.20312557)
(-0.002811223 -8.5988712e-19 0.19725693)
(-0.0028322601 -1.0399039e-18 0.19238165)
(-0.0028000332 -1.2434838e-18 0.18859463)
(-0.002719135 -1.4545998e-18 0.18585039)
(-0.0025977687 -1.6547703e-18 0.18400318)
(-0.002446439 -1.6980298e-18 0.18285522)
(-0.0022763052 -1.329933e-18 0.18220174)
(-0.0020976442 -1.0663129e-18 0.18186427)
(-0.0019186171 -9.2114183e-19 0.18170778)
(-0.001744978 -7.768258e-19 0.1816428)
(-0.0015801081 -7.0901925e-19 0.18161747)
(-0.00142546 -7.1347399e-19 0.18160565)
(-0.0012814458 -6.7160026e-19 0.18159627)
(-0.001147944 -6.1225161e-19 0.18158565)
(-0.0010240165 -1.1057722e-18 0.18157276)
(-0.00090959023 -7.1536817e-19 0.18155767)
(-0.00080316594 -5.8018361e-19 0.1815409)
(-0.00070520417 -9.2476539e-20 0.18152307)
(-0.00061341002 -4.4010797e-19 0.18150457)
(-0.00052942022 -7.2189291e-20 0.18148621)
(-0.00044914435 -2.2994989e-19 0.18146777)
(-0.00037697122 -4.0174296e-19 0.18145107)
(-0.00030473227 -4.1986594e-19 0.18143415)
(-0.00024237367 -3.3129447e-19 0.18142145)
(-0.00017486739 -2.8292597e-19 0.18140752)
(-0.00011948188 -3.1714674e-19 0.18140057)
(-5.5065874e-05 -2.8080256e-19 0.18138251)
(1.1120878e-06 1.4019278e-20 0.010193396)
(-2.373285e-06 4.26975e-20 0.030211082)
(-1.0690693e-05 6.8875827e-20 0.050747816)
(-2.5748941e-05 1.0673965e-19 0.071646076)
(-4.8966015e-05 1.4014268e-19 0.092712836)
(-8.181845e-05 1.3334403e-19 0.11371742)
(-0.00012589714 7.6422843e-20 0.13439062)
(-0.00018289811 -3.3774234e-20 0.15442573)
(-0.00025458835 -1.3114546e-19 0.17348236)
(-0.00034274812 -9.7728332e-20 0.19119382)
(-0.00044908418 -1.8334227e-19 0.20717938)
(-0.00057510394 -2.3984892e-19 0.22106185)
(-0.00072194117 -2.8015766e-19 0.23249152)
(-0.00089012633 -3.0863087e-19 0.24117564)
(-0.0010792986 -5.8830848e-19 0.24691217)
(-0.0012878702 -4.3151047e-19 0.24962412)
(-0.0015126742 -2.0959542e-19 0.24938895)
(-0.0017486554 -2.4269461e-19 0.24645607)
(-0.0019886918 -1.0323981e-19 0.24124502)
(-0.00222366 7.6761692e-20 0.23431931)
(-0.0024428467 1.2638386e-19 0.22633564)
(-0.0026347604 -3.5699543e-19 0.21797466)
(-0.0027882995 -6.3723305e-19 0.2098652)
(-0.0028941291 -8.3848154e-19 0.20251693)
(-0.0029460126 -9.8912075e-19 0.19627463)
(-0.0029418148 -1.1028585e-18 0.19130187)
(-0.0028839224 -1.0787512e-18 0.18759454)
(-0.0027789369 -8.8101187e-19 0.18501836)
(-0.0026366525 -9.684107e-19 0.18335978)
(-0.0024685025 -1.2675617e-18 0.18237851)
(-0.0022858657 -1.3353247e-18 0.18185085)
(-0.0020985497 -6.1249794e-19 0.1815969)
(-0.0019139404 -7.3128038e-19 0.18149002)
(-0.0017368308 -6.1637501e-19 0.18145208)
(-0.0015697334 -2.8644462e-19 0.18144106)
(-0.0014135124 -6.1416007e-19 0.18143757)
(-0.0012683421 -6.3828183e-19 0.1814342)
(-0.0011333496 -8.0378e-19 0.18142863)
(-0.0010084201 -1.0051092e-18 0.18142049)
(-0.00089192867 -3.6824228e-19 0.18141018)
(-0.0007844698 -1.3534528e-19 0.1813983)
(-0.00068323802 -4.2536316e-19 0.18138514)
(-0.00059070495 -4.5190553e-19 0.18137169)
(-0.00050128666 -5.5239206e-19 0.18135737)
(-0.0004215507 -4.0833708e-19 0.18134454)
(-0.00034045203 -5.5869955e-19 0.1813305)
(-0.00027122445 -2.5253838e-19 0.18132053)
(-0.00019559685 -2.7761071e-19 0.18130845)
(-0.00013355277 -8.8275822e-20 0.18130282)
(-6.1971485e-05 -2.7795273e-19 0.18128433)
(1.0239827e-06 9.787045e-22 0.010589534)
(-2.1836326e-06 2.6532265e-21 0.031404213)
(-9.8502727e-06 3.8382339e-21 0.052781173)
(-2.3749502e-05 1.6285179e-20 0.074561022)
(-4.5212669e-05 3.9648088e-20 0.096547604)
(-7.5637559e-05 7.0301481e-20 0.11850549)
(-0.00011654423 1.0560655e-19 0.14015864)
(-0.00016957239 7.5267122e-20 0.16119092)
(-0.00023645726 6.2761137e-20 0.18124919)
(-0.00031898573 1.179253e-19 0.19995005)
(-0.00041892695 1.9176016e-19 0.21689121)
(-0.0005379279 3.2812764e-19 0.23166852)
(-0.00067736451 4.6648859e-19 0.24389947)
(-0.00083813764 3.7770878e-19 0.25325305)
(-0.001020407 2.3258344e-20 0.25948481)
(-0.001223266 -2.5395205e-19 0.26247409)
(-0.0014443774 -3.7402905e-19 0.26225805)
(-0.0016796156 -7.5770403e-19 0.25905539)
(-0.0019227961 -1.1435918e-18 0.25327161)
(-0.0021656022 -1.0589984e-18 0.24547922)
(-0.0023978239 -7.1813805e-19 0.23637066)
(-0.0026079959 -6.0326031e-19 0.2266884)
(-0.0027844381 -7.0330565e-19 0.21714343)
(-0.0029165902 -8.1785511e-19 0.2083379)
(-0.002996422 -9.6106109e-19 0.20070706)
(-0.0030196395 -1.0407138e-18 0.19449101)
(-0.0029864126 -1.0458252e-18 0.18973914)
(-0.0029014289 -8.196098e-19 0.18634256)
(-0.0027732049 -4.3433776e-19 0.18408522)
(-0.0026127517 -9.1755935e-19 0.18270123)
(-0.002431886 -9.2116721e-19 0.18192677)
(-0.0022415468 -3.8426041e-19 0.18153727)
(-0.0020505509 -6.394566e-19 0.18136558)
(-0.0018650496 -5.8609276e-19 0.18130257)
(-0.0016886756 -3.4230009e-19 0.18128592)
(-0.0015229592 -4.8787958e-19 0.18128489)
(-0.0013684582 -2.0365209e-19 0.18128663)
(-0.0012244542 -4.1625211e-19 0.1812867)
(-0.0010909351 -8.6246251e-19 0.18128405)
(-0.00096610042 -1.8016314e-19 0.18127886)
(-0.00085091314 -1.4427877e-19 0.18127175)
(-0.00074179104 -7.2835296e-20 0.18126292)
(-0.00064243092 -9.2133643e-19 0.18125358)
(-0.00054534547 -7.8716416e-19 0.18124278)
(-0.00045954149 -4.1970767e-19 0.18123335)
(-0.00037108084 -5.1470753e-19 0.18122205)
(-0.00029607825 -2.2870672e-19 0.18121458)
(-0.000213695 -2.7282473e-19 0.18120447)
(-0.00014578434 -9.9586176e-20 0.18120011)
(-6.8161724e-05 -2.7530349e-19 0.18118141)
(9.5142994e-07 -4.2170547e-20 0.010956868)
(-2.030426e-06 -1.2456691e-19 0.032511421)
(-9.1668933e-06 -2.0624651e-19 0.054669462)
(-2.2116579e-05 -2.8959283e-19 0.077270232)
(-4.213312e-05 -3.8595347e-19 0.10011514)
(-7.0539789e-05 -4.4517456e-19 0.12296494)
(-0.00010878428 -4.6222601e-19 0.14553802)
(-0.00015844003 -5.4537642e-19 0.16751043)
(-0.00022118936 -6.4854534e-19 0.18851838)
(-0.00029878952 -7.8775967e-19 0.20816431)
(-0.00039301645 -8.296448e-19 0.22602749)
(-0.00050557841 -8.7168814e-19 0.24168039)
(-0.00063798847 -9.3674408e-19 0.2547116)
(-0.00079138526 -7.8727425e-19 0.26475568)
(-0.00096629335 -3.9475507e-19 0.27152902)
(-0.0011623189 -8.7305935e-19 0.27486906)
(-0.0013777924 -1.2977499e-18 0.27477215)
(-0.0016093942 -1.5219788e-18 0.2714226)
(-0.001851828 -1.9485862e-18 0.26520463)
(-0.0020976448 -2.0588918e-18 0.25668924)
(-0.0023373362 -1.8077125e-18 0.24659204)
(-0.0025598043 -1.2168039e-18 0.23570461)
(-0.0027532467 -9.8285418e-19 0.22480945)
(-0.002906394 -9.0645467e-19 0.21459444)
(-0.0030099202 -9.2637926e-19 0.20558367)
(-0.0030577651 -1.2190589e-18 0.19809743)
(-0.0030480908 -1.5272049e-18 0.19224665)
(-0.002983641 -1.1104334e-18 0.18795899)
(-0.0028713873 -2.429038e-19 0.18502783)
(-0.0027214746 -5.9302045e-19 0.1831722)
(-0.0025456571 -3.4886046e-19 0.18209517)
(-0.0023555591 -4.536472e-19 0.18153019)
(-0.0021611697 -6.1042894e-19 0.18126838)
(-0.0019699242 -6.4444797e-19 0.18116606)
(-0.0017865932 -8.0283853e-19 0.18113659)
(-0.0016134848 -4.6903259e-19 0.18113463)
(-0.0014516181 6.3395118e-20 0.18113985)
(-0.0013004295 -6.7184941e-19 0.18114461)
(-0.0011600949 -6.7644581e-19 0.18114673)
(-0.0010284977 -2.8088884e-19 0.181146)
(-0.00090717044 -5.606222e-19 0.18114308)
(-0.00079148368 -1.8044494e-19 0.18113799)
(-0.00068664674 -8.5076995e-19 0.18113219)
(-0.00058309139 -7.194065e-19 0.18112444)
(-0.0004922467 -4.2335055e-19 0.18111791)
(-0.00039761369 -3.251082e-19 0.18110903)
(-0.00031759926 -3.0010113e-19 0.18110367)
(-0.00022956179 -2.7457716e-19 0.18109539)
(-0.00015642363 -3.2238715e-19 0.18109203)
(-7.3652349e-05 -2.7558211e-19 0.18107311)
(8.9042268e-07 -3.1828259e-20 0.011299845)
(-1.8997626e-06 -9.5294054e-20 0.033545834)
(-8.5831118e-06 -1.6177476e-19 0.056434612)
(-2.0719012e-05 -2.3055007e-19 0.079804413)
(-3.9492121e-05 -3.1029452e-19 0.10345471)
(-6.6157976e-05 -3.9262577e-19 0.12714313)
(-0.00010209628 -4.7640068e-19 0.15058342)
(-0.00014881523 -5.6401186e-19 0.17344499)
(-0.00020793936 -6.5786213e-19 0.19535497)
(-0.00028118312 -7.6199014e-19 0.21590359)
(-0.00037030497 -8.3346255e-19 0.23465414)
(-0.00047703446 -9.4591575e-19 0.25115855)
(-0.00060296275 -1.0358574e-18 0.26497977)
(-0.0007493851 -1.1252256e-18 0.27572132)
(-0.0009170851 -1.1728083e-18 0.2830636)
(-0.0011060545 -1.2026211e-18 0.28680457)
(-0.0013151526 -1.2565861e-18 0.28690054)
(-0.0015417299 -1.4542659e-18 0.28349987)
(-0.0017812737 -1.6031596e-18 0.27696097)
(-0.0020271611 -1.7940017e-18 0.26784574)
(-0.00227064 -1.6494848e-18 0.25688296)
(-0.0025011508 -1.3794417e-18 0.24490225)
(-0.0027070573 -1.2034631e-18 0.23274728)
(-0.0028767626 -1.1018155e-18 0.2211839)
(-0.0030000683 -1.0608047e-18 0.21082115)
(-0.0030695428 -1.1027581e-18 0.2020601)
(-0.0030816291 -1.2177356e-18 0.1950781)
(-0.0030372487 -1.1364057e-18 0.18984749)
(-0.0029417409 -6.6667583e-19 0.1861811)
(-0.0028040994 -5.1905883e-19 0.18379273)
(-0.0026356142 -4.6030478e-19 0.18236022)
(-0.0024481755 -5.0906344e-19 0.18157937)
(-0.0022526299 -6.048906e-19 0.18120023)
(-0.0020575542 -6.5686045e-19 0.18104237)
(-0.0018688458 -7.454368e-19 0.18099146)
(-0.0016896765 -4.655425e-19 0.18098435)
(-0.0015216501 -9.6362495e-20 0.18099101)
(-0.0013643885 -5.9454608e-19 0.18099931)
(-0.0012183865 -6.2847287e-19 0.18100542)
(-0.0010810918 -3.4425067e-19 0.18100851)
(-0.00095478418 -5.1977209e-19 0.1810092)
(-0.00083358911 -3.1832885e-19 0.18100737)
(-0.00072433009 -8.8666165e-19 0.18100466)
(-0.00061538891 -6.7211155e-19 0.18099962)
(-0.0005203312 -4.2605657e-19 0.18099559)
(-0.00042059757 -3.4197053e-19 0.18098894)
(-0.00033621867 -3.2994941e-19 0.1809854)
(-0.00024347207 -2.7657083e-19 0.18097883)
(-0.00016570819 -3.1085196e-19 0.18097632)
(-7.8508565e-05 -2.7566214e-19 0.18095713)
(8.3830784e-07 -5.1458662e-20 0.011622221)
(-1.7888657e-06 -1.5310512e-19 0.034518557)
(-8.0860413e-06 -2.6192915e-19 0.058095214)
(-1.9526749e-05 -3.7881015e-19 0.082189673)
(-3.7234932e-05 -4.8205125e-19 0.10659984)
(-6.2405387e-05 -5.9421392e-19 0.13108072)
(-9.6355523e-05 -7.109285e-19 0.15534209)
(-0.0001405315 -7.7063918e-19 0.17904766)
(-0.00019649999 -8.3361778e-19 0.20181669)
(-0.00026592722 -8.0078786e-19 0.22322873)
(-0.00035054074 -6.4169049e-19 0.24283297)
(-0.00045206751 -4.4046998e-19 0.26016315)
(-0.00057213925 -1.6249266e-19 0.27475929)
(-0.00071215316 -3.9969383e-19 0.28619683)
(-0.00087307797 -1.0044811e-18 0.29412311)
(-0.0010551964 -1.0516978e-18 0.2982991)
(-0.0012577845 -1.080366e-18 0.29864252)
(-0.0014787448 -6.3814887e-19 0.29526545)
(-0.0017142379 -4.3309008e-19 0.2884978)
(-0.0019583917 -1.831083e-19 0.278887)
(-0.002203195 -9.1986182e-19 0.26716719)
(-0.0024386976 -1.1743044e-18 0.2541967)
(-0.0026536013 -1.3335567e-18 0.24087097)
(-0.002836245 -1.516187e-18 0.22802598)
(-0.002975886 -1.8423207e-18 0.21635073)
(-0.0030640678 -1.6506952e-18 0.20632567)
(-0.003095819 -8.4636758e-19 0.19819698)
(-0.0030704347 -9.1963481e-19 0.19198738)
(-0.0029916623 -1.4162902e-18 0.18753705)
(-0.0028672106 -7.6515456e-19 0.18456333)
(-0.0027076249 -5.2556677e-19 0.18272663)
(-0.0025247125 -5.3832442e-19 0.18169045)
(-0.0023298582 -5.7422546e-19 0.18116587)
(-0.0021325769 -5.297722e-19 0.18093487)
(-0.0019398238 -2.6586215e-19 0.18085278)
(-0.0017556564 -4.1548725e-19 0.18083569)
(-0.0015823636 -4.2475701e-19 0.18084151)
(-0.0014197763 -1.0325514e-19 0.18085221)
(-0.0012688448 -3.9349554e-19 0.18086156)
(-0.0011265006 -5.4722237e-19 0.18086788)
(-0.0009959038 -1.2105448e-19 0.18087162)
(-0.00086988063 -3.6837519e-19 0.18087256)
(-0.00075681878 -1.098856e-18 0.18087244)
(-0.00064328291 -6.5862423e-19 0.18086975)
(-0.00054454529 -4.301563e-19 0.18086783)
(-0.00044055296 -3.5014232e-19 0.18086318)
(-0.000352318 -3.3949979e-19 0.18086118)
(-0.0002556214 -2.783506e-19 0.18085618)
(-0.00017378418 -3.0450141e-19 0.18085436)
(-8.2774596e-05 -2.7569474e-19 0.18083487)
(7.9318128e-07 -3.016801e-20 0.011926794)
(-1.6924639e-06 -8.918025e-20 0.035437904)
(-7.6538183e-06 -1.521821e-19 0.059665256)
(-1.8489305e-05 -2.1816437e-19 0.084445771)
(-3.5268901e-05 -2.8612631e-19 0.10957606)
(-5.9132834e-05 -3.5344067e-19 0.13480892)
(-9.1341799e-05 -4.1808208e-19 0.15985068)
(-0.00013328454 -4.8234748e-19 0.18436009)
(-0.00018647225 -5.4589074e-19 0.20794944)
(-0.00025252179 -5.9427218e-19 0.23018886)
(-0.00033312407 -5.9841677e-19 0.250615)
(-0.00042999085 -6.1792803e-19 0.26874532)
(-0.00054477129 -6.2242684e-19 0.28409911)
(-0.00067892873 -6.7364735e-19 0.29622631)
(-0.00083356556 -7.8297323e-19 0.3047438)
(-0.001009187 -8.805678e-19 0.30937797)
(-0.0012054009 -1.0958326e-18 0.31000963)
(-0.0014205637 -8.6583297e-19 0.30671501)
(-0.0016514104 -7.0555091e-19 0.299794)
(-0.0018927346 -5.350551e-19 0.28977578)
(-0.0021372194 -7.8448961e-19 0.2773938)
(-0.0023755381 -1.0746892e-18 0.26352738)
(-0.0025968206 -1.2266375e-18 0.24911549)
(-0.0027895161 -1.2997451e-18 0.23505675)
(-0.0029425812 -1.3863728e-18 0.22211467)
(-0.0030468165 -1.4387276e-18 0.21084661)
(-0.0030961115 -1.1912218e-18 0.20156822)
(-0.0030883543 -1.0141082e-18 0.19435632)
(-0.0030258117 -1.0243149e-18 0.18908454)
(-0.002914877 -8.338474e-19 0.18548113)
(-0.0027651804 -6.0565571e-19 0.18319635)
(-0.00258818 -5.7476472e-19 0.18186718)
(-0.0023955119 -5.7113538e-19 0.18116885)
(-0.0021974104 -5.0424814e-19 0.18084605)
(-0.0020017835 -2.8436193e-19 0.18072203)
(-0.0018135547 -3.1598815e-19 0.18068951)
(-0.0016357763 -2.6766254e-19 0.18069202)
(-0.0014685028 -9.634295e-20 0.18070402)
(-0.0013132499 -4.0334661e-19 0.18071604)
(-0.0011663946 -4.5670001e-19 0.18072518)
(-0.0010320224 -1.7450944e-19 0.18073162)
(-0.00090172563 -3.3073333e-19 0.180735)
(-0.00078526889 -9.8264404e-19 0.18073712)
(-0.00066775519 -6.5577077e-19 0.18073651)
(-0.00056568639 -4.3568845e-19 0.18073636)
(-0.00045806756 -3.539746e-19 0.18073348)
(-0.00036636254 -3.4122081e-19 0.18073277)
(-0.00026628609 -2.7993954e-19 0.18072917)
(-0.00018083827 -3.0114064e-19 0.18072792)
(-8.6517612e-05 -2.7604478e-19 0.18070805)
(7.5366803e-07 -1.1112084e-20 0.012215824)
(-1.6081123e-06 -3.2537334e-20 0.036310608)
(-7.2749554e-06 -5.4279465e-20 0.061156088)
(-1.757884e-05 -7.5586635e-20 0.08658877)
(-3.3541733e-05 -1.2070571e-19 0.1124042)
(-5.6254807e-05 -1.6824427e-19 0.13835325)
(-8.6927139e-05 -2.2292009e-19 0.16413926)
(-0.0001268945 -3.4809791e-19 0.18941659)
(-0.00017761578 -4.8026446e-19 0.21379133)
(-0.00024065953 -5.9404449e-19 0.23682519)
(-0.00031767726 -8.0887706e-19 0.25804355)
(-0.00041035754 -1.0487883e-18 0.27694914)
(-0.00052035253 -1.2791444e-18 0.29304248)
(-0.00064916745 -1.2180196e-18 0.30585012)
(-0.00079800221 -8.7350344e-19 0.31496086)
(-0.00096753397 -8.8639776e-19 0.3200687)
(-0.0011576364 -7.7488956e-19 0.32101932)
(-0.0013670421 -9.5736676e-19 0.31785388)
(-0.0015929752 -9.3460001e-19 0.31084155)
(-0.0018308148 -1.0344486e-18 0.30049062)
(-0.0020738807 -6.3610009e-19 0.28752917)
(-0.0023134533 -9.0720796e-19 0.27285117)
(-0.0025391333 -1.0313335e-18 0.25743192)
(-0.0027395906 -1.0050857e-18 0.24222578)
(-0.0029036556 -7.6426261e-19 0.22806537)
(-0.0030216078 -7.7493382e-19 0.21558175)
(-0.0030864351 -1.3388985e-18 0.20515964)
(-0.0030948298 -1.212119e-18 0.19693217)
(-0.0030477209 -7.6356326e-19 0.19081091)
(-0.0029502214 -7.1635887e-19 0.18654108)
(-0.0028109587 -6.0411132e-19 0.18376936)
(-0.0026408506 -5.7357631e-19 0.18211189)
(-0.0024515447 -5.6405664e-19 0.18121183)
(-0.0022537771 -5.5343432e-19 0.18077784)
(-0.0020562801 -7.0272423e-19 0.18060014)
(-0.0018647929 -3.5786463e-19 0.180546)
(-0.0016831843 -1.2390621e-19 0.1805423)
(-0.0015117535 -3.2223039e-19 0.18055436)
(-0.0013526628 -6.7088856e-19 0.18056849)
(-0.0012017556 -3.9659809e-19 0.18058014)
(-0.0010640033 -5.1525527e-19 0.18058901)
(-0.00092992535 -3.5122758e-19 0.18059462)
(-0.00081038759 -6.2637696e-19 0.18059872)
(-0.00068942656 -6.5228734e-19 0.1806)
(-0.00058431185 -4.4198919e-19 0.18060139)
(-0.00047357345 -3.5665603e-19 0.18060011)
(-0.00037873043 -3.4046238e-19 0.18060051)
(-0.00027571786 -2.8165551e-19 0.18059815)
(-0.00018705616 -2.9939965e-19 0.18059735)
(-8.9817283e-05 -2.7618866e-19 0.18057704)
(7.1872556e-07 -2.9443865e-20 0.012491155)
(-1.533538e-06 -8.8041314e-20 0.037142169)
(-6.9397715e-06 -1.508924e-19 0.062576992)
(-1.6772925e-05 -2.206755e-19 0.088631835)
(-3.2011738e-05 -2.8531322e-19 0.11510135)
(-5.3703041e-05 -3.5658326e-19 0.14173475)
(-8.3009098e-05 -4.2558085e-19 0.16823271)
(-0.00012121683 -4.9948133e-19 0.19424567)
(-0.0001697361 -5.980405e-19 0.2193742)
(-0.00023008898 -7.0071546e-19 0.24317236)
(-0.00030388714 -7.7985873e-19 0.26515536)
(-0.00039279152 -8.9541397e-19 0.28481252)
(-0.00049844756 -9.6779347e-19 0.3016272)
(-0.00062238564 -9.8556976e-19 0.31510444)
(-0.00076587656 -9.417705e-19 0.32480698)
(-0.00092973196 -7.959282e-19 0.33039852)
(-0.0011140412 -6.051863e-19 0.33169132)
(-0.0013178492 -8.4878869e-19 0.32869248)
(-0.0015387985 -9.7398468e-19 0.32164026)
(-0.0017727829 -1.1755886e-18 0.31102023)
(-0.0020136991 -9.3558341e-19 0.2975515)
(-0.0022534031 -8.903847e-19 0.28213745)
(-0.0024819803 -9.5646621e-19 0.26578349)
(-0.0026883886 -9.4909967e-19 0.24949351)
(-0.0028614575 -8.8900413e-19 0.23416394)
(-0.0029911162 -8.9609193e-19 0.22049613)
(-0.0030696477 -1.1007217e-18 0.20894265)
(-0.0030927394 -1.0835444e-18 0.1996941)
(-0.0030601328 -8.2415905e-19 0.19270325)
(-0.0029757348 -7.1382726e-19 0.18773717)
(-0.0028471424 -6.1764818e-19 0.18444458)
(-0.0026846048 -5.8189133e-19 0.18242626)
(-0.0024995889 -5.7167479e-19 0.18129732)
(-0.002303131 -5.7960528e-19 0.18073239)
(-0.0021046457 -6.6140227e-19 0.18048847)
(-0.0019106144 -4.7495408e-19 0.18040577)
(-0.001725744 -5.863962e-19 0.18039253)
(-0.0015506065 -4.2195543e-19 0.18040319)
(-0.0013880535 -5.866089e-19 0.1804188)
(-0.0012334723 -3.7457655e-19 0.18043264)