/*--------------------------------*- C++ -*----------------------------------*\
| =========                 |                                                 |
| \\      /  F ield         | OpenFOAM: The Open Source CFD Toolbox           |
|  \\    /   O peration     | Version:  4.0                                   |
|   \\  /    A nd           | Web:      www.OpenFOAM.org                      |
|    \\/     M anipulation  |                                                 |
\*---------------------------------------------------------------------------*/
FoamFile
{
    version     2.0;
    format      ascii;
    class       surfaceScalarField;
    location    "2000/fluid";
    object      phi;
}
// * * * * * * * * * * * * * * * * * * * * * * * * * * * * * * * * * * * * * //

dimensions      [1 0 -1 0 0 0 0];

internalField   nonuniform List<scalar> 
41040
(
2.7823295e-12
6.5463179e-12
4.061375e-11
1.4976111e-11
2.4831132e-11
1.6131015e-10
4.404261e-11
5.3841726e-11
3.6691581e-10
1.0044794e-10
9.7304863e-11
6.9952287e-10
1.9786771e-10
1.5969442e-10
1.2167984e-09
3.51416e-10
2.4663611e-10
1.9964161e-09
5.7205937e-10
3.660109e-10
3.1411629e-09
8.5450277e-10
5.2984578e-10
4.7851759e-09
1.1562219e-09
7.5629906e-10
7.1026228e-09
1.3720591e-09
1.0655061e-09
1.0321513e-08
1.2089936e-09
1.5708709e-09
1.4743357e-08
2.428692e-09
2.0699344e-08
1.6799246e-10
5.7194918e-12
1.0345078e-11
4.1640128e-11
2.8089307e-11
4.0200863e-11
1.6511706e-10
7.7306782e-11
8.8956789e-11
3.7494193e-10
1.6650565e-10
1.6397208e-10
7.1352873e-10
3.1144996e-10
2.744108e-10
1.2387902e-09
5.2878867e-10
4.3130345e-10
2.0286318e-09
8.3109621e-10
6.4876679e-10
3.1862325e-09
1.2156379e-09
9.4673958e-10
4.846704e-09
1.64265e-09
1.3548466e-09
7.1863368e-09
1.9154872e-09
1.9938908e-09
1.0437076e-08
1.7999467e-09
2.9142245e-09
1.4904478e-08
4.4514708e-09
2.0904726e-08
8.0433769e-10
9.1876909e-12
1.1349969e-11
4.4955097e-11
4.5411111e-11
4.431878e-11
1.777627e-10
1.2510495e-10
9.9059641e-11
4.0240401e-10
2.6889428e-10
1.851679e-10
7.6296515e-10
5.0124546e-10
3.1473317e-10
1.3187609e-09
8.4835834e-10
5.0194783e-10
2.1482469e-09
1.3322443e-09
7.6450652e-10
3.3532061e-09
1.9562135e-09
1.1289012e-09
5.0636384e-09
2.6652111e-09
1.6504452e-09
7.4443093e-09
3.3551017e-09
2.4340599e-09
1.0705776e-08
3.5673111e-09
3.7734045e-09
1.5120641e-08
5.972531e-09
2.0959038e-08
2.7951114e-09
1.0944306e-11
1.1791968e-11
5.0784702e-11
5.4301502e-11
4.5921188e-11
2.0009438e-10
1.5083091e-10
1.0208127e-10
4.5116077e-10
3.2810154e-10
1.8932299e-10
8.5133829e-10
6.2057911e-10
3.187783e-10
1.4629129e-09
1.0674682e-09
5.0257454e-10
2.3659061e-09
1.7062507e-09
7.5503398e-10
3.6601292e-09
2.5592182e-09
1.0980769e-09
5.4665074e-09
3.6110642e-09
1.5809896e-09
7.9287442e-09
4.7495019e-09
2.3281798e-09
1.1220093e-08
5.6172315e-09
3.7572066e-09
1.5563346e-08
6.1233522e-09
2.1180964e-08
5.8312809e-09
1.69933e-11
7.9641709e-12
5.956967e-11
8.379117e-11
3.0984988e-11
2.3380727e-10
2.3146145e-10
6.8555967e-11
5.2496096e-10
5.0080712e-10
1.2600893e-10
9.8557987e-10
9.4227541e-10
2.0949778e-10
1.6826827e-09
1.6122744e-09
3.2446581e-10
2.6986165e-09
2.5641414e-09
4.7648312e-10
4.1293801e-09
3.8328526e-09
6.7512702e-10
6.0801257e-09
5.4128994e-09
9.5208681e-10
8.6602667e-09
7.2202e-09
1.4187767e-09
1.1988732e-08
9.1900234e-09
2.3472128e-09
1.6230694e-08
4.4035852e-09
2.1605592e-08
1.0789043e-08
2.3782952e-11
7.265366e-11
1.1693883e-10
2.8407778e-10
3.214092e-10
6.3489433e-10
6.900907e-10
1.1847967e-09
1.2848694e-09
2.006147e-09
2.1679434e-09
3.1809583e-09
3.3879073e-09
4.7925672e-09
4.9637523e-09
6.9122828e-09
6.884459e-09
9.5873027e-09
9.1712382e-09
1.285206e-08
1.2035162e-08
1.6807286e-08
2.1772057e-08
1.6358625e-08
4.2748585e-12
6.337826e-12
3.0002546e-11
2.022416e-11
2.4458678e-11
1.2090642e-10
5.4343071e-11
5.3444883e-11
2.7936056e-10
1.1371869e-10
9.6452998e-11
5.4371073e-10
2.025752e-10
1.5657419e-10
9.7139846e-10
3.1621892e-10
2.3614389e-10
1.6466845e-09
4.309224e-10
3.3596235e-10
2.6905972e-09
4.907832e-10
4.5363688e-10
4.2718435e-09
4.004683e-10
5.7852869e-10
6.6146605e-09
-2.0699457e-11
7.2803784e-10
1.0015056e-08
-9.2814126e-10
8.8838235e-10
1.4763544e-08
9.2020031e-10
2.1018171e-08
-2.165731e-09
4.8020267e-12
1.1803578e-11
3.1377179e-11
2.1722495e-11
4.6321252e-11
1.2634647e-10
5.5517925e-11
1.029781e-10
2.9163609e-10
1.0909636e-10
1.8951332e-10
5.6693143e-10
1.7887746e-10
3.1410762e-10
1.0115486e-09
2.4776352e-10
4.837625e-10
1.7122519e-09
2.7443335e-10
7.0252653e-10
2.7931825e-09
1.7904411e-10
9.696296e-10
4.4263893e-09
-1.6564879e-10
1.2727697e-09
6.8374118e-09
-8.6475097e-10
1.5482773e-09
1.0316884e-08
-2.071526e-09
1.8091413e-09
1.519208e-08
1.9829229e-09
2.1499034e-08
-3.7266113e-09
6.3180996e-12
1.5756039e-11
3.4690493e-11
2.9161408e-11
6.1785123e-11
1.3947077e-10
7.5884041e-11
1.3743681e-10
3.2125041e-10
1.5231648e-10
2.5324707e-10
6.2284895e-10
2.5731311e-10
4.2015718e-10
1.1078024e-09
3.7432638e-10
6.4692652e-10
1.868218e-09
4.587862e-10
9.3693541e-10
3.0345838e-09
4.228783e-10
1.2832621e-09
4.786274e-09
1.1470291e-10
1.6657528e-09
7.3600425e-09
-6.6307117e-10
2.0413729e-09
1.0991557e-08
-2.1792966e-09
2.4037304e-09
1.6044023e-08
2.8176403e-09
2.2529534e-08
-4.5823237e-09
8.4105367e-12
1.791308e-11
4.0224405e-11
3.9174859e-11
6.9751952e-11
1.6138191e-10
1.032173e-10
1.5394265e-10
3.7064673e-10
2.1107767e-10
2.8082688e-10
7.1595884e-10
3.6595839e-10
4.6070444e-10
1.2675906e-09
5.5291229e-10
7.0028934e-10
2.1257665e-09
7.2118581e-10
9.994589e-10
3.4296187e-09
7.5759478e-10
1.3485558e-09
5.3652265e-09
4.5301205e-10
1.7313364e-09
8.1683888e-09
-5.032321e-10
2.1114072e-09
1.2107539e-08
-2.1602328e-09
2.2709835e-09
1.7354998e-08
2.9624651e-09
2.4098748e-08
-5.220445e-09
1.6301324e-11
1.2785202e-11
4.8405624e-11
7.6303911e-11
4.9849389e-11
1.9373119e-10
2.0167973e-10
1.1016457e-10
4.4340599e-10
4.1404501e-10
2.0149244e-10
8.5262383e-10
7.2698156e-10
3.2966168e-10
1.5009159e-09
1.1284183e-09
4.9867164e-10
2.499005e-09
1.5560895e-09
7.0570808e-10
3.9957867e-09
1.8645809e-09
9.3815464e-10
6.1825414e-09
1.7962634e-09
1.1703463e-09
9.2903096e-09
9.4848982e-10
1.3741326e-09
1.3574874e-08
-9.6812681e-10
1.3127374e-09
1.9107587e-08
2.2195499e-09
2.6115171e-08
-4.7322563e-09
2.5624268e-11
5.9823377e-11
1.2075879e-10
2.3881365e-10
3.2144805e-10
5.4440648e-10
6.6657287e-10
1.0412281e-09
1.1822486e-09
1.8202412e-09
1.8579705e-09
3.0040847e-09
2.6056711e-09
4.7508494e-09
3.2038754e-09
7.2526386e-09
3.2375486e-09
1.0724526e-08
2.087714e-09
1.5376727e-08
-1.1516831e-09
2.136051e-08
2.8555487e-08
-5.7140701e-09
2.1109214e-12
3.5263376e-12
2.4366724e-11
1.2058967e-11
1.3522724e-11
9.7439851e-11
3.6916907e-11
3.0155567e-11
2.2435525e-10
8.7211979e-11
5.732144e-11
4.3610993e-10
1.7834408e-10
1.0126144e-10
7.7903457e-10
3.3106638e-10
1.7190578e-10
1.3221108e-09
5.6958564e-10
2.8506306e-10
2.1671119e-09
9.1344342e-10
4.6607079e-10
3.4620824e-09
1.352207e-09
7.5893784e-10
5.4172384e-09
1.8066973e-09
1.2450639e-09
8.3159441e-09
2.0641167e-09
2.0130096e-09
1.2493988e-08
3.0531949e-09
1.8157985e-08
1.8724304e-09
4.8701065e-12
4.3359526e-12
2.5702077e-11
2.464946e-11
1.7416519e-11
1.0268531e-10
6.9459564e-11
4.0777104e-11
2.3622625e-10
1.5285566e-10
8.2080377e-11
4.588159e-10
2.9227227e-10
1.5446378e-10
8.1899961e-10
5.0864977e-10
2.7878043e-10
1.3891192e-09
8.2473547e-10
4.8627503e-10
2.276082e-09
1.2617318e-09
8.1992264e-10
3.635856e-09
1.7944475e-09
1.3735887e-09
5.6905316e-09
2.3953677e-09
2.2212661e-09
8.7404881e-09
2.7533666e-09
3.7043347e-09
1.314398e-08
5.7261324e-09
1.9118205e-08
2.4630755e-09
7.0552293e-12
3.016371e-12
2.8960508e-11
3.5643567e-11
1.2802434e-11
1.1551112e-10
9.9591496e-11
3.2839397e-11
2.6526671e-10
2.1608524e-10
7.427396e-11
5.1420934e-10
4.0787315e-10
1.5481792e-10
9.1574391e-10
7.0602261e-10
3.0013181e-10
1.5488589e-09
1.1435141e-09
5.5438264e-10
2.5292177e-09
1.715104e-09
1.0111534e-09
4.0238227e-09
2.4483824e-09
1.7336213e-09
6.2673003e-09
3.1598805e-09
2.9298755e-09
9.5722938e-09
3.7730819e-09
4.831069e-09
1.4305459e-08
7.9095846e-09
2.0689721e-08
3.4314976e-09
1.042219e-11
-1.4725306e-12
3.4298468e-11
5.2049533e-11
-4.0056124e-12
1.3658169e-10
1.4552097e-10
-3.1477733e-12
3.1319594e-10
2.642237e-10
6.5620678e-11
6.0596768e-10
4.7254784e-10
1.3831075e-10
1.0758734e-09
7.9861999e-10
2.876953e-10
1.812298e-09
1.2842171e-09
5.5472807e-10
2.9439466e-09
1.9823024e-09
1.0258796e-09
4.6528384e-09
2.9093711e-09
1.7869993e-09
7.1885847e-09
4.072544e-09
3.0001851e-09
1.0875001e-08
5.3510246e-09
4.8265587e-09
1.6082542e-08
8.056047e-09
2.3046637e-08
6.2589493e-09
5.7910816e-12
-1.2164092e-12
4.2369086e-11
3.1589785e-11
-4.2046649e-12
1.6815714e-10
9.4348906e-11
-6.5256568e-12
3.8406911e-10
2.7564272e-10
-3.2118859e-12
7.4023615e-10
5.5420349e-10
5.1769383e-11
1.3090173e-09
9.9819325e-10
1.5079513e-10
2.192111e-09
1.6777707e-09
3.366489e-10
3.5345965e-09
2.6938434e-09
6.5805228e-10
5.5347695e-09
4.140751e-09
1.1765226e-09
8.4545952e-09
6.1214363e-09
1.9756608e-09
1.261978e-08
8.4120744e-09
3.2543535e-09
1.8390857e-08
5.7151998e-09
2.6006002e-08
1.0864515e-08
5.0337031e-12
5.3583257e-11
2.7818903e-11
2.1184738e-10
8.418707e-11
4.8155043e-10
2.0049151e-10
9.2177374e-10
4.561294e-10
1.6164751e-09
9.2689814e-10
2.6842768e-09
1.7307521e-09
4.2839027e-09
3.0193979e-09
6.6224276e-09
4.9651309e-09
9.9558542e-09
7.7387771e-09
1.4579449e-08
1.1556549e-08
2.0797976e-08
2.8811885e-08
1.7016497e-08
8.1842229e-13
-7.568518e-13
2.4305291e-11
3.2757575e-12
-3.2766522e-12
9.8259581e-11
8.3013696e-12
-8.5874197e-12
2.2791785e-10
1.713391e-11
-1.8743786e-11
4.4602277e-10
3.0640847e-11
-3.7234484e-11
8.0276535e-10
4.7757126e-11
-6.880425e-11
1.3738048e-09
6.4570559e-11
-1.2107967e-10
2.2713894e-09
5.6902603e-11
-1.8848835e-10
3.6582576e-09
6.5314229e-13
-2.8637322e-10
5.7598932e-09
-1.2073456e-10
-4.2421569e-10
8.8616217e-09
-3.3309064e-10
-6.1511905e-10
1.3321622e-08
-7.9146469e-10
1.9210364e-08
-5.9379675e-10
3.4199291e-12
-4.4285934e-12
2.5954377e-11
1.5222064e-11
-1.7278918e-11
1.0488668e-10
3.8163549e-11
-3.8450038e-11
2.4314969e-10
7.4170714e-11
-7.1412778e-11
4.7548192e-10
1.2138117e-10
-1.2042083e-10
8.54983e-10
1.7088753e-10
-1.9055058e-10
1.4613726e-09
2.0272148e-10
-2.8897563e-10
2.4121672e-09
1.7510068e-10
-4.1486576e-10
3.8898883e-09
1.2821999e-11
-5.6635035e-10
6.1328435e-09
-3.8677562e-10
-7.3647919e-10
9.4524737e-09
-9.6634973e-10
-1.0588183e-09
1.4167466e-08
-1.322609e-09
2.0384955e-08
-1.7016845e-09
1.6232901e-12
-6.7952124e-12
2.9704414e-11
6.1086435e-12
-2.6155035e-11
1.1990337e-10
1.3156355e-11
-5.7705554e-11
2.7747733e-10
2.0722974e-11
-1.0609075e-10
5.4132562e-10
2.2874969e-11
-1.7725645e-10
9.7043523e-10
-2.4856828e-12
-2.7442349e-10
1.6581055e-09
-9.9145524e-11
-3.988279e-10
2.7357616e-09
-3.3855542e-10
-5.5369653e-10
4.4021162e-09
-8.1499649e-10
-7.427659e-10
6.9202432e-09
-1.6439876e-09
-9.6630934e-10
1.0631255e-08
-2.8047719e-09
-1.4006079e-09
1.5808269e-08
-1.7480847e-09
2.2630934e-08
-4.3201982e-09
1.7331762e-12
-9.9370971e-12
3.5707907e-11
5.7278267e-12
-3.7920946e-11
1.4435473e-10
8.7812544e-12
-8.1535195e-11
3.3397499e-10
1.6956192e-12
-1.4436579e-10
6.5133309e-10
-3.934766e-11
-2.2768834e-10
1.167361e-09
-1.6050167e-10
-3.3070275e-10
1.9897524e-09
-4.378484e-10
-4.5159911e-10
3.2741009e-09
-9.6915509e-10
-5.8826315e-10
5.2187728e-09
-1.8950975e-09
-7.4517311e-10
8.1170335e-09
-3.3632584e-09
-9.3281373e-10
1.2309825e-08
-5.4448168e-09
-1.3583685e-09
1.8122127e-08
-1.8548759e-09
2.5685797e-08
-7.9768317e-09
-2.5881844e-12
-9.9432158e-12
4.4964522e-11
-1.8645549e-11
-3.5008783e-11
1.8130472e-10
-6.3910122e-11
-7.0576034e-11
4.1837905e-10
-1.6423583e-10
-1.1736846e-10
8.1357256e-10
-3.6076363e-10
-1.7548304e-10
1.4533543e-09
-7.1256558e-10
-2.4199956e-10
2.4552349e-09
-1.3110598e-09
-3.1305374e-10
3.9945883e-09
-2.282814e-09
-3.8553514e-10
6.3038649e-09
-3.7909264e-09
-4.6086129e-10
9.678507e-09
-6.0043226e-09
-5.5253651e-10
1.4453073e-08
-9.0824106e-09
-8.1122046e-10
2.0922071e-08
-1.4915538e-09
2.917951e-08
-1.2618881e-08
-1.437558e-11
5.8016801e-11
-6.991304e-11
2.3237804e-10
-1.9214984e-10
5.3321496e-10
-4.1707405e-10
1.0293363e-09
-7.9701046e-10
1.8209404e-09
-1.40332e-09
3.0486078e-09
-2.3347745e-09
4.902339e-09
-3.7237943e-09
7.6259682e-09
-5.7385621e-09
1.1509845e-08
-8.5714556e-09
1.6859922e-08
-1.2513056e-08
2.3928517e-08
3.2811742e-08
-1.8004232e-08
-7.9902248e-13
2.5602868e-12
2.2545496e-11
-2.7674198e-12
9.8815706e-12
9.0349637e-11
-5.0546182e-12
2.1924142e-11
2.0828755e-10
-6.2151161e-12
4.191587e-11
4.0528236e-10
-2.7009866e-12
7.4707845e-11
7.2457297e-10
1.2707011e-11
1.2786404e-10
1.230573e-09
5.6880428e-11
2.1163025e-10
2.0156602e-09
1.4848265e-10
3.488129e-10
3.2179713e-09
3.1076909e-10
5.6585518e-10
5.0319652e-09
5.3977177e-10
9.1260701e-10
7.7203482e-09
8.248495e-10
1.4431175e-09
1.1594084e-08
2.2962045e-09
1.6844234e-08
8.9576468e-10
8.9446686e-13
3.5006732e-12
2.412318e-11
5.4652614e-12
1.3802908e-11
9.6404036e-11
1.6386884e-11
3.2293581e-11
2.2187593e-10
3.8908514e-11
6.3894116e-11
4.3101323e-10
8.088558e-11
1.1854406e-10
7.6922434e-10
1.5625624e-10
2.0998903e-10
1.30397e-09
2.7610122e-10
3.6654323e-10
2.1375621e-09
4.6517949e-10
6.3429803e-10
3.4155679e-09
7.5808873e-10
1.0583195e-09
5.3478426e-09
1.1780298e-09
1.7258196e-09
8.2198709e-09
1.731242e-09
2.6845273e-09
1.2373765e-08
4.3243518e-09
1.8026113e-08
2.0632919e-09
2.4430753e-12
3.1977709e-12
2.7568769e-11
1.2996041e-11
1.3030393e-11
1.1013452e-10
3.8279509e-11
3.1301223e-11
2.5320734e-10
8.7211744e-11
6.5055789e-11
4.9126961e-10
1.7345242e-10
1.2725494e-10
8.7554955e-10
3.1486738e-10
2.4480364e-10
1.4819874e-09
5.4136269e-10
4.5373942e-10
2.4222514e-09
9.4603343e-10
7.7370394e-10
3.8583251e-09
1.5911432e-09
1.3138138e-09
6.0200743e-09
2.5382656e-09
2.1930161e-09
9.2175756e-09
3.6477026e-09
3.5636461e-09
1.3820737e-08
6.0262032e-09
2.0076051e-08
4.5022488e-09
2.3237507e-12
3.3493626e-12
3.3238028e-11
1.3415147e-11
1.3702715e-11
1.326051e-10
4.180148e-11
3.2511905e-11
3.0440354e-10
1.0179985e-10
6.6893942e-11
5.8954192e-10
2.1740333e-10
1.3082031e-10
1.0482706e-09
4.4604933e-10
2.3711837e-10
1.7689228e-09
8.6643612e-10
4.280289e-10
2.8796357e-09
1.5608998e-09
7.3497227e-10
4.563368e-09
2.6108487e-09
1.3065347e-09
7.0748541e-09
4.1790653e-09
2.1845367e-09
1.07508e-08
6.249737e-09
3.6282582e-09
1.5987961e-08
6.2759846e-09
2.3064786e-08
8.6226169e-09
6.0801809e-12
7.3485478e-13
4.1505915e-11
3.2264801e-11
3.6348511e-12
1.6520586e-10
9.3795016e-11
1.1141737e-11
3.7825098e-10
2.1645322e-10
2.7536584e-11
7.3032731e-10
4.4616638e-10
6.0841357e-11
1.2937141e-09
8.4262446e-10
1.2328272e-10
2.1727651e-09
1.5062177e-09
2.4342337e-10
3.5158402e-09
2.5539801e-09
4.6192034e-10
5.5295183e-09
4.1967948e-09
8.50362e-10
8.4924063e-09
6.660644e-09
1.414607e-09
1.2759947e-08
9.9898629e-09
2.4857325e-09
1.8736615e-08
4.5319082e-09
2.6709396e-08
1.4205776e-08
6.029381e-12
5.2728874e-11
3.288155e-11
2.0917643e-10
1.0026721e-10
4.7699837e-10
2.4068316e-10
9.1650423e-10
5.0874423e-10
1.6138003e-09
9.9042227e-10
2.6903414e-09
1.822967e-09
4.3134169e-09
3.2047825e-09
6.7063636e-09
5.4109085e-09
1.0154483e-08
8.6868863e-09
1.4999071e-08
1.350373e-08
2.1598035e-08
3.0181562e-08
2.066661e-08
3.0637873e-15
1.2305224e-12
2.131116e-11
-5.5914716e-13
4.7410018e-12
8.6169188e-11
-2.5154435e-12
1.0315329e-11
1.9992499e-10
-6.6126096e-12
1.8188882e-11
3.9118403e-10
-1.4704935e-11
2.8716416e-11
7.0393598e-10
-3.0893009e-11
4.2110231e-11
1.2046275e-09
-6.493851e-11
5.7406835e-11
1.9922572e-09
-1.2745154e-10
6.9240868e-11
3.2111709e-09
-2.2898361e-10
6.9251879e-11
5.0641248e-09
-3.6689651e-10
4.3652424e-11
7.8143978e-09
-4.2226252e-10
-9.7171359e-11
1.1746178e-08
-2.5542054e-10
1.6975611e-08
-2.9878094e-10
4.3039831e-14
2.360278e-12
2.2948953e-11
-7.0323673e-13
9.2887487e-12
9.2597172e-11
-3.5184865e-12
2.0372413e-11
2.1462419e-10
-1.0161808e-11
3.6272117e-11
4.1955577e-10
-2.3415471e-11
5.7132664e-11
7.5402994e-10
-4.8270961e-11
8.1716097e-11
1.2891644e-09
-8.8595936e-11
1.0436748e-10
2.1308341e-09
-1.4842122e-10
1.1283759e-10
3.4316475e-09
-2.3005422e-10
9.1117997e-11
5.4073727e-09
-3.3100862e-10
2.6125811e-11
8.3379807e-09
-3.9620898e-10
-1.8867352e-10
1.2529849e-08
-4.3414888e-10
1.8121122e-08
-3.1323283e-10
3.4604275e-13
3.1145857e-12
2.6466017e-11
7.6665773e-13
1.2092031e-11
1.0690431e-10
1.034077e-12
2.6022214e-11
2.4728042e-10
1.5634961e-13
4.5764962e-11
4.8263819e-10
-3.6124824e-12
7.0444989e-11
8.6596478e-10
-1.3806384e-11
9.695604e-11
1.4768721e-09
-3.537934e-11
1.1638254e-10
2.4316974e-09
-7.1369589e-11
1.145627e-10
3.8924132e-09
-1.2892121e-10
6.2414071e-11
6.1060532e-09
-2.3647073e-10
-3.7448045e-11
9.3882676e-09
-4.6945462e-10
-2.3532869e-10
1.4099688e-08
-5.883905e-10
2.0343931e-08
-5.8394938e-10
1.2144002e-12
3.1057539e-12
3.202951e-11
4.7733904e-12
1.1985289e-11
1.2914525e-10
1.0897768e-11
2.5849307e-11
2.9843826e-10
1.9595792e-11
4.5144318e-11
5.8143995e-10
2.8014416e-11
6.8627627e-11
1.0416266e-09
2.9930671e-11
9.2150034e-11
1.7717487e-09
1.3346721e-11
1.0630828e-10
2.906193e-09
-4.1659677e-11
9.9071609e-11
4.6336512e-09
-1.410548e-10
2.5914678e-11
7.210427e-09
-3.5722862e-10
-5.809628e-11
1.0987139e-08
-7.0929668e-10
-2.6117662e-10
1.6365133e-08
-6.1483801e-10
2.3461354e-08
-1.0803467e-09
2.351006e-12
2.2967516e-12
3.9960105e-11
9.8174868e-12
8.8295029e-12
1.6088546e-10
2.4066121e-11
1.8898633e-11
3.7093593e-10
4.6553538e-11
3.2518071e-11
7.2043646e-10
7.5838797e-11
4.8189354e-11
1.2848167e-09
1.0457943e-10
6.1654358e-11
2.1744378e-09
1.1433491e-10
6.4768931e-11
3.5475046e-09
7.2243241e-11
4.4030224e-11
5.6264679e-09
-9.9642418e-11
1.873705e-11
8.6711089e-09
-4.8356548e-10
-4.626556e-11
1.3131533e-08
-1.1175295e-09
-1.2759336e-10
1.9236274e-08
-3.405108e-10
2.7089648e-08
-1.7730018e-09
4.6594866e-12
5.0362652e-11
2.0235839e-11
2.0242117e-10
5.077718e-11
4.6534113e-10
9.9459715e-11
9.0031462e-10
1.6361387e-10
1.5977932e-09
2.2749979e-10
2.6880413e-09
2.5001421e-10
4.3555704e-09
1.3905235e-10
6.8612116e-09
-2.3422598e-10
1.054624e-08
-9.1362503e-10
1.5631888e-08
-1.7606895e-09
2.2317114e-08
3.0749004e-08
-2.6691959e-09
-1.2675493e-12
2.7551786e-12
1.9823943e-11
-5.3320333e-12
1.0758166e-11
7.947641e-11
-1.3140511e-11
2.4573372e-11
1.8316179e-10
-2.533907e-11
4.7341863e-11
3.5604437e-10
-4.1972835e-11
8.4858603e-11
6.3571767e-10
-6.0815586e-11
1.4560195e-10
1.0778809e-09
-7.5115562e-11
2.4209712e-10
1.7644822e-09
-7.1847448e-11
3.931854e-10
2.814759e-09
-3.4520101e-11
6.2810584e-10
4.3987597e-09
4.816819e-11
9.837229e-10
6.7480675e-09
2.1930221e-10
1.4568932e-09
1.011831e-08
2.1973911e-09
1.4687662e-08
3.1009742e-10
-1.0297231e-13
4.5174822e-12
2.1290617e-11
1.47133e-14
1.8121603e-11
8.5118554e-11
1.9698687e-12
4.138836e-11
1.9585872e-10
7.2383687e-12
8.1429469e-11
3.8020811e-10
1.9830587e-11
1.482896e-10
6.7802139e-10
4.6824404e-11
2.5936923e-10
1.1484281e-09
1.0073696e-10
4.4036358e-10
1.8786955e-09
2.0181615e-10
7.2750236e-10
2.9963136e-09
3.8273436e-10
1.171119e-09
4.6835349e-09
6.8998126e-10
1.8269715e-09
7.1876209e-09
1.0678699e-09
2.7833945e-09
1.0825683e-08
4.2648601e-09
1.577997e-08
1.3418761e-09
6.5857429e-13
5.83377e-12
2.4492431e-11
5.1760697e-12
2.2867228e-11
9.7644496e-11
1.7291874e-11
5.240874e-11
2.2415005e-10
4.4278314e-11
1.0274855e-10
4.3434307e-10
9.8398254e-11
1.8719889e-10
7.7295365e-10
2.050505e-10
3.2321649e-10
1.3064026e-09
4.0476974e-10
5.3996922e-10
2.1324208e-09
7.4050265e-10
8.91023e-10
3.3932334e-09
1.276734e-09
1.4496542e-09
5.2913966e-09
2.1061962e-09
2.2832571e-09
8.1026774e-09
3.1257965e-09
3.7015919e-09
1.2162137e-08
5.9426346e-09
1.7697723e-08
4.0945878e-09
2.1493791e-12
6.2001621e-12
2.951528e-11
1.213559e-11
2.4365239e-11
1.1766486e-10
3.7694963e-11
5.5465424e-11
2.6982928e-10
9.2572197e-11
1.0740749e-10
5.2191611e-10
2.0196912e-10
1.92636e-10
9.26814e-10
4.0574358e-10
3.2900758e-10
1.5622181e-09
7.6672867e-10
5.4399894e-10
2.5412338e-09
1.3767134e-09
8.8843281e-10
4.0263401e-09
2.4071339e-09
1.3844417e-09
6.2453409e-09
3.9369677e-09
2.2374318e-09
9.503302e-09
6.1365539e-09
3.7010678e-09
1.4166333e-08
6.2011338e-09
2.0502443e-08
8.8373443e-09
6.0648279e-12
3.3851455e-12
3.6712246e-11
3.1645705e-11
1.3586311e-11
1.4608843e-10
9.223561e-11
3.1472106e-11
3.3434805e-10
2.1282507e-10
6.197681e-11
6.4529279e-10
4.3448056e-10
1.130316e-10
1.1427907e-09
8.2228305e-10
1.9628203e-10
1.9194013e-09
1.4784538e-09
3.2796374e-10
3.1074307e-09
2.5732154e-09
5.2768786e-10
4.8925424e-09
4.2698576e-09
8.3118037e-10
7.5278595e-09
6.842819e-09
1.4545182e-09
1.1341672e-08
1.0587135e-08
2.4785826e-09
1.6714725e-08
4.4750063e-09
2.3926875e-08
1.5476419e-08
7.4753354e-12
4.6274278e-11
3.9767448e-11
1.8371965e-10
1.1725465e-10
4.1933348e-10
2.7291182e-10
8.0664697e-10
5.6142881e-10
1.422329e-09
1.0708656e-09
2.3749199e-09
1.9395934e-09
3.8148566e-09
3.3833316e-09
5.945232e-09
5.7306768e-09
9.0301698e-09
9.4261556e-09
1.3391046e-08
1.4850898e-08
1.9371093e-08
2.7193758e-08
2.2881321e-08
-4.5513081e-13
1.7728425e-12
1.8504756e-11
-2.4336246e-12
6.7410665e-12
7.4710526e-11
-6.6426296e-12
1.4476484e-11
1.728876e-10
-1.36131e-11
2.5514885e-11
3.3748702e-10
-2.3740692e-11
4.0169577e-11
6.0565104e-10
-3.8980864e-11
5.9742117e-11
1.0333335e-09
-6.1857018e-11
8.3523543e-11
1.7037533e-09
-9.6504563e-11
1.108987e-10
2.7383665e-09
-1.4820962e-10
1.4188272e-10
4.3083427e-09
-2.0543699e-10
1.6740538e-10
6.6374872e-09
-2.385237e-10
1.8529592e-10
9.9652949e-09
1.5863245e-10
1.4381409e-08
-9.1898373e-11
1.3601755e-13
3.014066e-12
1.9910204e-11
-3.8834518e-15
1.1768323e-11
8.0223505e-11
-1.3272821e-12
2.6142076e-11
1.854966e-10
-5.5434915e-12
4.8008971e-11
3.618945e-10
-1.5351463e-11
7.875269e-11
6.4918252e-10
-3.4103451e-11
1.1951049e-10
1.1073006e-09
-6.589944e-11
1.6844834e-10
1.8253786e-09
-1.1619488e-10
2.2395695e-10
2.9332446e-09
-1.8721274e-10
2.8307673e-10
4.6128872e-09
-2.5960468e-10
3.290642e-10
7.0976099e-09
-2.8250192e-10
3.7527878e-10
1.0657413e-08
4.1038787e-10
1.5361191e-08
-1.1688225e-10
8.7402728e-13
3.6948806e-12
2.2932894e-11
2.9574966e-12
1.4871245e-11
9.2446038e-11
6.75119e-12
3.2695418e-11
2.1378093e-10
1.201149e-11
6.0542343e-11
4.1650957e-10
1.8123947e-11
9.9590968e-11
7.4593313e-10
2.3168792e-11
1.510689e-10
1.269681e-09
2.3801366e-11
2.1249515e-10
2.0875484e-09
1.7011142e-11
2.7997592e-10
3.3437245e-09
4.6589255e-12
3.4753864e-10
5.2388309e-09
1.0985746e-12
4.0527221e-10
8.0291446e-09
1.8785197e-11
5.1530567e-10
1.2003352e-08
5.3872983e-10
1.7281242e-08
3.0531332e-10
1.1840233e-12
4.1963314e-12
2.7824003e-11
5.5412108e-12
1.6154168e-11
1.120099e-10
1.4432165e-11
3.5185442e-11
2.584212e-10
3.061784e-11
6.3763978e-11
5.024609e-10
5.6042143e-11
1.0332867e-10
8.9756913e-10
9.1488584e-11
1.5473884e-10
1.5229632e-09
1.3457218e-10
2.1624243e-10
2.4941806e-09
1.8107691e-10
2.8361841e-10
3.975844e-09
2.2913297e-10
3.502232e-10
6.1940807e-09
2.9288152e-10
4.0112712e-10
9.4429471e-09
4.6283509e-10
5.1330572e-10
1.3997185e-08
5.1097508e-10
2.0110608e-08
8.8063358e-10
3.2377071e-12
2.9026352e-12
3.4760859e-11
1.445758e-11
1.1261158e-11
1.3974284e-10
3.7527774e-11
2.4702561e-11
3.217275e-10
7.7957738e-11
4.4718002e-11
6.2385043e-10
1.4103335e-10
7.2429883e-11
1.1105154e-09
2.3127319e-10
1.0803e-10
1.8757101e-09
3.5076551e-10
1.5013814e-10
3.0537909e-09
4.9911763e-10
1.9593446e-10
4.8314894e-09
6.759372e-10
2.4307451e-10
7.4576144e-09
8.8011881e-10
2.9745512e-10
1.1240316e-08
1.228323e-09
3.7634425e-10
1.6502142e-08
4.2009477e-10
2.3454985e-08
1.7891964e-09
5.302794e-12
4.3867222e-11
2.4220935e-11
1.7604622e-10
6.4095308e-11
4.0413311e-10
1.3478876e-10
7.8062223e-10
2.4681287e-10
1.3826515e-09
4.0920102e-10
2.3204266e-09
6.2656348e-10
3.7474225e-09
8.9702632e-10
5.8703962e-09
1.21506e-09
8.9547833e-09
1.5882733e-09
1.331473e-08
2.0744922e-09
1.9260531e-08
2.6949845e-08
2.7376199e-09
-9.4796751e-13
1.7028913e-12
1.7749889e-11
-3.9928042e-12
6.6384714e-12
7.1117122e-11
-9.9874676e-12
1.5158833e-11
1.6372376e-10
-1.9917653e-11
2.9507994e-11
3.1790999e-10
-3.4463153e-11
5.3263594e-11
5.66934e-10
-5.2887296e-11
9.149215e-11
9.6026702e-10
-7.1776482e-11
1.5342638e-10
1.5692192e-09
-7.9238479e-11
2.4724201e-10
2.4985908e-09
-5.8040694e-11
3.9083029e-10
3.8963203e-09
-4.197371e-12
6.1883972e-10
5.9648083e-09
8.0536889e-11
9.4236319e-10
8.9382009e-09
1.3992383e-09
1.2952729e-08
1.0998083e-10
-3.2333391e-13
2.8942024e-12
1.9042428e-11
-1.2672096e-12
1.1565762e-11
7.6240458e-11
-2.5151324e-12
2.6751963e-11
1.7515217e-10
-3.203258e-12
5.2467449e-11
3.3962486e-10
-1.1739699e-12
9.5471897e-11
6.0494774e-10
7.7026147e-12
1.6621663e-10
1.0237028e-09
3.8018483e-11
2.7657761e-10
1.6719164e-09
1.021868e-10
4.5414859e-10
2.6621762e-09
2.1929023e-10
7.3232132e-10
4.1542995e-09
4.2209763e-10
1.1477837e-09
6.3658648e-09
6.8006968e-10
1.7761922e-09
9.5656167e-09
2.7115697e-09
1.3927351e-08
8.0157993e-10
-7.4687303e-14
3.8984727e-12
2.2003671e-11
9.2286344e-13
1.5296065e-11
8.7718743e-11
5.4545367e-12
3.4853212e-11
2.0114909e-10
1.7406462e-11
6.7872106e-11
3.8915489e-10
4.5388068e-11
1.2228915e-10
6.9113734e-10
1.0689613e-10
2.0966214e-10
1.164732e-09
2.2366029e-10
3.497842e-10
1.8975842e-09
4.3592688e-10
5.7175923e-10
3.0138552e-09
7.8834864e-10
9.262156e-10
4.6925226e-09
1.3074179e-09
1.4824406e-09
7.1754251e-09
2.0148574e-09
2.3175694e-09
1.0754537e-08
3.82532e-09
1.5631716e-08
2.5506277e-09
1.1115387e-12
4.0748135e-12
2.6536435e-11
7.1004247e-12
1.5856434e-11
1.0546144e-10
2.2325193e-11
3.621645e-11
2.4183454e-10
5.5415627e-11
6.9938674e-11
4.6730626e-10
1.2149502e-10
1.2512102e-10
8.2866157e-10
2.4589177e-10
2.1384982e-10
1.3943845e-09
4.7118609e-10
3.5471456e-10
2.2639634e-09
8.6193378e-10
5.7669924e-10
3.5801651e-09
1.5126578e-09
9.2628691e-10
5.5432928e-09
2.538846e-09
1.4782669e-09
8.4209372e-09
3.9476519e-09
2.3724957e-09
1.2533447e-08
4.0009807e-09
1.8116652e-08
5.7659279e-09
3.5643432e-12
2.280731e-12
3.2991026e-11
1.8813957e-11
9.1475889e-12
1.3120315e-10
5.5561517e-11
2.1184602e-11
3.0001351e-10
1.2943811e-10
4.1594994e-11
5.783203e-10
2.6670428e-10
7.5705811e-11
1.0226689e-09
5.1009592e-10
1.3148634e-10
1.7146879e-09
9.2682875e-10
2.2117316e-10
2.7706073e-09
1.6185616e-09
3.6347328e-10
4.3529904e-09
2.7304953e-09
5.8888887e-10
6.6830841e-09
4.4501605e-09
9.5129141e-10
1.0047624e-08
6.972582e-09
1.5710653e-09
1.4781135e-08
2.8096912e-09
2.1132283e-08
1.0486537e-08
4.5130985e-12
4.1635247e-11
2.4509742e-11
1.6519808e-10
7.3148279e-11
3.7668066e-10
1.7177807e-10
7.235899e-10
3.5644928e-10
1.2736897e-09
6.8595551e-10
2.1224112e-09
1.2532816e-09
3.4012747e-09
2.2003092e-09
5.2868458e-09
3.7360606e-09
8.007921e-09
6.1573118e-09
1.1844764e-08
9.8862864e-09
1.7102607e-08
2.3981836e-08
1.5663961e-08
-3.2166744e-13
1.4918059e-12
1.6578666e-11
-1.7644904e-12
5.7347721e-12
6.682255e-11
-4.9626764e-12
1.2520193e-11
1.5439657e-10
-1.0431876e-11
2.2694188e-11
3.0067523e-10
-1.8618246e-11
3.7070593e-11
5.380308e-10
-2.9251941e-11
5.6029844e-11
9.148364e-10
-4.0009363e-11
7.7602077e-11
1.5023131e-09
-5.4697436e-11
1.0796488e-10
2.4052084e-09
-7.9746428e-11
1.49361e-10
3.7718293e-09
-1.1730266e-10
2.0508783e-10
5.7969752e-09
-1.3638462e-10
2.6646504e-10
8.6902114e-09
3.2324129e-10
1.2533267e-08
-4.0915393e-11
2.1847708e-13
2.5174601e-12
1.7795518e-11
8.6592382e-13
9.7388156e-12
7.1581642e-11
1.7914891e-12
2.1470177e-11
1.6526323e-10
2.661363e-12
3.9742058e-11
3.2168288e-10
2.8488318e-12
6.6308859e-11
5.7548488e-10
1.6719429e-12
1.0231228e-10
9.7853639e-10
-9.8087265e-12
1.535372e-10
1.6073167e-09
-3.0067598e-11
2.157444e-10
2.5744247e-09
-5.6508002e-11
2.9091786e-10
4.0388208e-09
-7.247144e-11
3.7865393e-10
6.2076992e-09
-3.3871813e-11
4.9000928e-10
9.3025735e-09
6.7879535e-10
1.3418547e-08
1.1831189e-10
1.0123017e-12
3.0262263e-12
2.047914e-11
4.2844953e-12
1.1798291e-11
8.2378244e-11
9.9199702e-12
2.6960469e-11
1.9000712e-10
2.0074566e-11
4.934961e-11
3.6936384e-10
3.5132667e-11
8.257261e-11
6.5976441e-10
5.2290907e-11
1.2982233e-10
1.1199766e-09
7.3224489e-11
1.9247806e-10
1.8375671e-09
9.3131521e-11
2.7274507e-10
2.9367227e-09
1.2134039e-10
3.6444076e-10
4.5904476e-09
1.7050675e-10
4.7918401e-10
7.0252262e-09
2.8131761e-10
6.4502565e-10
1.0487897e-08
9.0408372e-10
1.5111031e-08
5.7549152e-10
1.3348731e-12
3.3745852e-12
2.4849002e-11
5.4957358e-12
1.3239131e-11
9.9848964e-11
1.5035296e-11
2.929487e-11
2.2994114e-10
3.2360551e-11
5.3183898e-11
4.4611205e-10
6.1394849e-11
8.7270698e-11
7.9486872e-10
1.0621724e-10
1.3438876e-10
1.3448945e-09
1.713413e-10
1.9493159e-10
2.1962224e-09
2.6244186e-10
2.7010961e-10
3.4914449e-09
3.8200457e-10
3.6143778e-10
5.4263471e-09
5.5451197e-10
4.7467442e-10
8.2523751e-09
8.4431925e-10
6.4353513e-10
1.2244228e-08
9.2049326e-10
1.7571743e-08
1.3714591e-09
3.0707107e-12
2.2398667e-12
3.1049677e-11
1.4175558e-11
8.7295553e-12
1.2459428e-10
3.7767372e-11
1.9346377e-11
2.8634599e-10
7.9532065e-11
3.5593679e-11
5.5410358e-10
1.4645878e-10
5.8977946e-11
9.839634e-10
2.470923e-10
9.0903297e-11
1.6574228e-09
3.9006953e-10
1.3174022e-10
2.6906371e-09
5.8556037e-10
1.8242346e-10
4.2449024e-09
8.487272e-10
2.4540172e-10
6.5355262e-09
1.2097352e-09
3.3002117e-10
9.8306332e-09
1.7496163e-09
4.6827735e-10
1.4415497e-08
7.0660091e-10
2.0474939e-08
2.6194055e-09
4.6563984e-12
3.921376e-11
2.1501854e-11
1.5707038e-10
5.7583405e-11
3.5992477e-10
1.2295538e-10
6.9377593e-10
2.2982572e-10
1.2257367e-09
3.9192913e-10
2.051112e-09
6.2283358e-10
3.3019563e-09
9.3627245e-10
5.1556024e-09
1.349535e-09
7.8397407e-09
1.8985077e-09
1.1625392e-08
2.6841816e-09
1.6784686e-08
2.3463888e-08
3.9080528e-09
-6.9163186e-13
9.2127973e-13
1.6348237e-11
-2.9421233e-12
3.5992192e-12
6.5472113e-11
-7.294612e-12
8.1356867e-12
1.5060975e-10
-1.4332067e-11
1.5602632e-11
2.921033e-10
-2.4072018e-11
2.7652649e-11
5.2010511e-10
-3.5237976e-11
4.6810648e-11
8.7916754e-10
-4.5655015e-11
7.7962941e-11
1.4347219e-09
-5.0209198e-11
1.2752003e-10
2.2821627e-09
-4.3410514e-11
2.1147391e-10
3.5534086e-09
-1.2208648e-11
3.3750828e-10
5.428027e-09
2.6326285e-11
5.2704618e-10
8.1242388e-09
7.7473184e-10
1.175525e-08
2.9015534e-11
-3.7744945e-13
1.609099e-12
1.7482583e-11