/*--------------------------------*- C++ -*----------------------------------*\
| =========                 |                                                 |
| \\      /  F ield         | OpenFOAM: The Open Source CFD Toolbox           |
|  \\    /   O peration     | Version:  4.0                                   |
|   \\  /    A nd           | Web:      www.OpenFOAM.org                      |
|    \\/     M anipulation  |                                                 |
\*---------------------------------------------------------------------------*/
FoamFile
{
    version     2.0;
    format      ascii;
    class       volScalarField;
    location    "2000/fluid";
    object      rho;
}
// * * * * * * * * * * * * * * * * * * * * * * * * * * * * * * * * * * * * * //

dimensions      [1 -3 0 0 0 0 0];

internalField   nonuniform List<scalar> 
14400
(
0.94634346
0.94926446
0.95284339
0.95722066
0.96254817
0.96897301
0.9766048
0.98545719
0.99535113
1.0057646
1.0156084
1.0228947
0.94637908
0.94938364
0.9530663
0.95757118
0.9630536
0.96966276
0.97750765
0.98659677
0.99674017
1.007401
1.0174815
1.0250183
0.94645118
0.94962425
0.95351646
0.95827911
0.96407373
0.97105218
0.97931927
0.98886851
0.99948212
1.0105877
1.0210689
1.0290297
0.94656023
0.94998635
0.95419269
0.95934058
0.96559891
0.97312009
0.98199661
0.99219031
1.0034287
1.01507
1.0259502
1.0342357
0.94670435
0.95046225
0.95507935
0.96072842
0.96758451
0.97579441
0.98542443
0.9963802
1.008299
1.0204272
1.0315116
1.0397499
0.9468789
0.95103693
0.95614802
0.96239619
0.96995878
0.97896714
0.98944287
1.0012062
1.0137635
1.026198
1.0371054
1.044625
0.94139776
0.94247375
0.94375558
0.94528984
0.94713119
0.94934066
0.95197977
0.95509559
0.95868882
0.96271886
0.96682536
0.97034447
0.94141359
0.94252656
0.94385435
0.94544566
0.94735757
0.9496538
0.95239811
0.95563813
0.95936708
0.96352588
0.96792216
0.97157283
0.94144402
0.94262836
0.94404541
0.94574832
0.9477997
0.95026964
0.95322906
0.95673326
0.96078778
0.96512325
0.96979273
0.97376288
0.9414876
0.94277369
0.9443176
0.94617841
0.94842563
0.95113665
0.95438855
0.95823847
0.96268289
0.96757104
0.97231931
0.97665597
0.94154188
0.94295403
0.94465474
0.94671017
0.94919765
0.95220212
0.95580568
0.96006385
0.96496026
0.97033531
0.97528121
0.97972583
0.9416037
0.94315884
0.94503712
0.94731198
0.95006812
0.95339605
0.95737758
0.96205455
0.96737131
0.97308336
0.97864597
0.98221638
0.93613262
0.93676399
0.93749816
0.93835802
0.93937028
0.94056488
0.94197289
0.94362125
0.94552131
0.94764613
0.94988752
0.95198784
0.93614172
0.93679462
0.9375553
0.93844768
0.93949969
0.94074265
0.94220901
0.94392687
0.94590798
0.94812402
0.95046278
0.95265341
0.93615846
0.93685127
0.93766139
0.93861479
0.93974183
0.94107647
0.94265379
0.94450394
0.94663871
0.94902514
0.95154207
0.95390219
0.93618215
0.93693165
0.93781285
0.9388538
0.94008655
0.94155001
0.94328246
0.94531584
0.9476602
0.9502739
0.95301297
0.95557054
0.93621183
0.93703066
0.93799667
0.93914405
0.94050965
0.94212912
0.94404774
0.94629726
0.94888128
0.95174022
0.95469348
0.95739103
0.93624627
0.93714486
0.93820824
0.93947091
0.94097506
0.94276845
0.94488948
0.94736619
0.95018899
0.95326826
0.95637019
0.95904347
0.93074209
0.93121069
0.93174911
0.93237293
0.93310025
0.9339514
0.93494779
0.93610928
0.93744673
0.93894918
0.94063463
0.94232539
0.93074839
0.93123198
0.93178882
0.93243514
0.93318981
0.93407399
0.93510944
0.93633617
0.93775451
0.93935994
0.94110569
0.94286174
0.93076077
0.93127389
0.93186727
0.93255857
0.93336815
0.93433041
0.93546165
0.93679556
0.93833997
0.9400964
0.94194562
0.94380417
0.93078073
0.93134243
0.93199641
0.9327634
0.93366699
0.93473771
0.9360019
0.93745554
0.93913481
0.94101922
0.94302732
0.94498668
0.93080812
0.93143183
0.93216155
0.93302073
0.93403643
0.93522143
0.93661409
0.93823307
0.94007949
0.94211415
0.9442247
0.94618925
0.930842
0.93153866
0.93235648
0.93331989
0.93445516
0.93578819
0.93734052
0.93912015
0.94110621
0.94322511
0.94532089
0.94713527
0.92542352
0.92583195
0.92630161
0.92684638
0.92748239
0.92822796
0.92909706
0.93011113
0.93128206
0.93260826
0.93406137
0.93556412
0.92542933
0.92585047
0.92633541
0.92689826
0.92755523
0.92832419
0.92922918
0.93028418
0.93150099
0.93287686
0.93438001
0.93592721
0.92543892
0.92588399
0.9263985
0.92699772
0.92769932
0.92852296
0.92948906
0.9306159
0.93191459
0.93337964
0.9349729
0.93660175
0.92545306
0.92593214
0.92648844
0.92713867
0.92790203
0.92879956
0.92985254
0.93107923
0.93248883
0.9340708
0.93577795
0.93750388
0.92547072
0.92599176
0.92659949
0.92731229
0.92815102
0.92913805
0.93029519
0.93163959
0.93317622
0.93488542
0.93670461
0.93850776
0.92549095
0.92605943
0.92672526
0.92750847
0.92843133
0.92951704
0.93078697
0.93225532
0.93391978
0.93574666
0.93765063
0.9394737
0.92027027
0.92063029
0.92104495
0.92152592
0.92208751
0.92274596
0.92351889
0.92442358
0.92547381
0.92667346
0.92800797
0.92942149
0.92027589
0.920648
0.92107692
0.92157429
0.92215406
0.92283733
0.92363979
0.92457849
0.92566867
0.92691442
0.92830359
0.9297774
0.92028582
0.9206822
0.92113898
0.92167046
0.92229127
0.92302009
0.9238717
0.9248586
0.92602404
0.92736481
0.92886806
0.93041755
0.92029892
0.92072683
0.92122448
0.92180739
0.92249379
0.9232946
0.9242311
0.92531458
0.92655825
0.92801749
0.92962287
0.93124826
0.92031546
0.92078247
0.92132824
0.92196988
0.92272687
0.92361994
0.9246693
0.92589012
0.92724927
0.92887728
0.9305307
0.93213455
0.92033518
0.92084829
0.92145106
0.92216303
0.92300679
0.92400783
0.92519476
0.92660153
0.92822437
0.92980148
0.93139237
0.93286985
0.91537598
0.91571103
0.91609715
0.91654578
0.91707057
0.91768693
0.91841148
0.91926068
0.92024818
0.92138033
0.92262079
0.92394229
0.91538088
0.91572666
0.91612574
0.91658991
0.91713311
0.91777092
0.91851978
0.91939522
0.92040816
0.92155757
0.92284666
0.9242064
0.91538774
0.91575084
0.91617141
0.91666253
0.91723878
0.91791649
0.91871279
0.91964371
0.9207207
0.92194456
0.92329579
0.92471217
0.91539859
0.91578818
0.91624124
0.91677161
0.91739522
0.91812959
0.91899266
0.92000051
0.921163
0.92247673
0.92391292
0.92539958
0.91541235
0.91583482
0.91632815
0.9169075
0.91759009
0.91839454
0.91933928
0.92043957
0.92170194
0.92311607
0.92463947
0.92618398
0.91542839
0.91588861
0.91642817
0.91706356
0.9178132
0.91869648
0.91973176
0.92093246
0.92229987
0.92381046
0.92540359
0.92696809
0.91078251
0.91109056
0.91144495
0.9118572
0.91233908
0.91290475
0.91356956
0.9143489
0.91525585
0.91629715
0.91746725
0.91872853
0.91078755
0.91110667
0.91147443
0.91190265
0.91240339
0.91299106
0.91368103
0.91448814
0.91542364
0.91648902
0.91771692
0.91899357
0.91079521
0.91113342
0.91152501
0.91197974
0.91251246
0.91313824
0.91387304
0.91473195
0.91572584
0.91685193
0.91811616
0.91941553
0.91080428
0.91116474
0.91158342
0.91207296
0.91264796
0.91332463
0.91411991
0.91504975
0.91612624
0.91735412
0.91864225
0.92005434
0.91081642
0.91120609
0.91166056
0.91219369
0.91282125
0.9135604
0.91442843
0.91544025
0.91660384
0.91791207
0.91932715
0.92078542
0.91083082
0.91125447
0.91175054
0.91233407
0.91302186
0.91383175
0.91478089
0.91588259
0.91714069
0.91854014
0.92003265
0.92151893
0.90653404
0.90682776
0.90716532
0.90755672
0.90801376
0.90854997
0.90917626
0.90990993
0.91076429
0.9117486
0.91284003
0.91402018
0.90653815
0.90684163
0.90718989
0.90759399
0.90806587
0.90861934
0.9092653
0.91002053
0.91089556
0.9118923
0.91301691
0.91422546
0.90654427
0.90686172
0.9072274
0.90765232
0.90814838
0.90872866
0.90941503
0.91021636
0.91114369
0.91220003
0.91337422
0.91462658
0.90655243
0.90688964
0.90728175
0.9077391
0.90827506
0.90890456
0.90964331
0.9105055
0.91150088
0.91262921
0.91387158
0.9151788
0.9065635
0.90692868
0.90735356
0.90785081
0.90843484
0.90912136
0.90992616
0.91086284
0.91193878
0.91314858
0.91446403
0.91582114
0.90657673
0.90697322
0.9074364
0.90797997
0.90861928
0.90937054
0.91024933
0.91126773
0.91242935
0.9137213
0.91510225
0.91648578
0.90264191
0.90292156
0.90324145
0.90361051
0.90403914
0.90453912
0.90512315
0.9058098
0.90660998
0.90753207
0.9085762
0.90972927
0.90264586
0.9029343
0.90326484
0.90364673
0.90409072
0.90460889
0.90521384
0.90592357
0.9067473
0.9076908
0.90874857
0.90989525
0.9026512
0.90295366
0.9033016
0.90370508
0.90417593
0.9047278
0.90537609
0.90612524
0.90699056
0.90797552
0.90906764
0.91022222
0.90265892
0.90298069
0.90335221
0.9037842
0.90428904
0.90488046
0.90557271
0.90637851
0.90730689
0.90835937
0.90952091
0.91075192
0.90266897
0.90301527
0.90341677
0.9038851
0.90443353
0.90507649
0.90582858
0.90670255
0.90770594
0.90883558
0.91006892
0.9113522
0.90268107
0.90305617
0.90349289
0.9040038
0.90460298
0.90530535
0.90612539
0.90707467
0.90815761
0.90936459
0.91066124
0.91197251
0.89911604
0.89938755
0.89969712
0.90005326
0.90046602
0.90094702
0.90150928
0.90216682
0.90292469
0.90379558
0.90478297
0.90584753
0.89911956
0.8993996
0.89971955
0.90008661
0.90051202
0.90100738
0.90158552
0.90226028
0.90303577
0.90392176
0.90491148
0.90600551
0.89912484
0.89941709
0.89975168
0.90013706
0.90058427
0.90110471
0.90171026
0.90241113
0.90323096
0.90416583
0.90520865
0.90633463
0.89913131
0.89943973
0.89979388
0.90020592
0.90068549
0.90124517
0.90189809
0.90265684
0.90353178
0.90452517
0.90562385
0.90679276
0.89914041
0.89947242
0.8998558
0.90030133
0.90082125
0.90142886
0.90213768
0.90295971
0.90390241
0.90496348
0.90612296
0.90733327
0.89915169
0.89951071
0.89992709
0.90041243
0.90097968
0.9016426
0.9024145
0.90330613
0.90432178
0.90545309
0.90666967
0.90790575
0.89595237
0.89621637
0.8965159
0.89685881
0.89725429
0.89771291
0.89824637
0.89886689
0.89958603
0.90041249
0.90134887
0.90238777
0.89595558
0.89622683
0.89653509
0.8968884
0.89729618
0.89776913
0.89831896
0.89895767
0.89969593
0.90054037
0.90148842
0.90251881
0.89595972
0.8962424
0.89656466
0.896935
0.89736332
0.89786077
0.89843938
0.89911113
0.89988623
0.90077
0.90175788
0.90282871
0.89596618
0.89626553
0.89660817
0.89700323
0.89746129
0.89799409
0.89861403
0.89933296
0.90016011
0.90109838
0.90213858
0.9032512
0.89597469
0.89629524
0.89666378
0.89709022
0.89758589
0.89816315
0.89883456
0.89961147
0.90050124
0.90150288
0.90260022
0.90375234
0.89598511
0.89633081
0.89673005
0.89719355
0.89773329
0.89836194
0.89909191
0.89993336
0.90089093
0.90195831
0.90310982
0.90428783
0.8931473
0.89340547
0.89369722
0.89402998
0.89441252
0.89485493
0.89536838
0.89596504
0.89665701
0.8974413
0.898329
0.89931233
0.89315033
0.89341595
0.89371673
0.8940604
0.89445612
0.89491457
0.89544149
0.89605317
0.89676178
0.89756443
0.89847089
0.89946848
0.89315509
0.8934328
0.89374821
0.89410735
0.89452086
0.89499937
0.89555086
0.89618826
0.89691758
0.89776507
0.89871127
0.89973955
0.89316082
0.89345224
0.89378406
0.89416419
0.89460248
0.89510856
0.8957027
0.8963888
0.89717608
0.89806986
0.89906153
0.9001251
0.89316803
0.89347793
0.89383229
0.89424295
0.89471843
0.89527035
0.89591088
0.89665037
0.89749595
0.89844741
0.89949056
0.9005891
0.89317771
0.89351226
0.89389709
0.89434228
0.89485898
0.89545908
0.89615421
0.89695392
0.89786275
0.89887538
0.89996898
0.90109235
0.8906944
0.89094739
0.89123203
0.89155527
0.89192524
0.89235135
0.8928441
0.89341472
0.89407428
0.89483216
0.89569316
0.89663611
0.8906971
0.89095632
0.89124844
0.89158054
0.8919609
0.89239896
0.89290509
0.89349003
0.89416361
0.89493243
0.89579703
0.89676453
0.89070057
0.89096978
0.89127412
0.89162101
0.89201915
0.89247833
0.89300918
0.89362247
0.89432781
0.89513158
0.89603332
0.89701998
0.89070603
0.89098983
0.89131195
0.89168036
0.89210431
0.89259405
0.89316053
0.89381435
0.89456422
0.89541413
0.89635884
0.89737716
0.89071332
0.89101574
0.89136056
0.89175643
0.89221321
0.89274166
0.8933528
0.89405672
0.89486045
0.89576453
0.89675756
0.89780866
0.89072246
0.89104724
0.89141934
0.89184806
0.89234379
0.89291751
0.89358004
0.89434041
0.89520334
0.8961649
0.89720587
0.89828146
0.88858905
0.88883683
0.88911463
0.88942908
0.88978796
0.89020032
0.8906763
0.89122684
0.89186259
0.8925945
0.89341373
0.89432631
0.88859164
0.88884595
0.88913163
0.88945552
0.88982569
0.89025143
0.8907433
0.89131339
0.89195988
0.89270364
0.89353561
0.89445937
0.88859578
0.88886089
0.88915963
0.88949922
0.88988806
0.89033549
0.89084557
0.89143462
0.8921037
0.8928614
0.8937302
0.89468236
0.88860113
0.88888013
0.88919421
0.88955174
0.88996102
0.8904315
0.8909704
0.89158732
0.89230927
0.89312417
0.89403135
0.89501387
0.88860727
0.88890197
0.88923545
0.88961654
0.89005387
0.89055703
0.89114497
0.8918196
0.89258989
0.89345566
0.89440783
0.89541966
0.88861514
0.88892858
0.88928849
0.88970188
0.89017843
0.89072872
0.89136334
0.89209092
0.89291633
0.89383631
0.89483412
0.89587006
0.88682805
0.88707097
0.88734235
0.8876484
0.8879964
0.88839481
0.88885315
0.88938168
0.88999089
0.89069044
0.89148781
0.8923877
0.88683054
0.8870793
0.88735765
0.8876719
0.88802947
0.88843888
0.88890957
0.88945156
0.89007454
0.89078637
0.8915901
0.89247802
0.88683342
0.88709096
0.88737999
0.88770716
0.88808021
0.8885079
0.88899982
0.88956585
0.89021512
0.89095432
0.89178502
0.89270013
0.88683804
0.88710836
0.88741294
0.88775889
0.88815437
0.88860854
0.88913116
0.8897319
0.8904191
0.89119746
0.89206485
0.89300737
0.88684432
0.88713111
0.88745574
0.88782587
0.88825021
0.8887383
0.88929997
0.8899444
0.89067844
0.89150391
0.89241341
0.89338435
0.88685241
0.88715925
0.88750833
0.88790786
0.88836697
0.88889536
0.88950263
0.89019706
0.89098353
0.89186018
0.8928131
0.89380786
0.88541089
0.88564895
0.88591415
0.88621247
0.88655098
0.88693791
0.8873826
0.88789518
0.88848679
0.88916903
0.88993589
0.89080614
0.88541316
0.88565708
0.88592932
0.88623606
0.88658458
0.88698348
0.88744273
0.88796492
0.88856585
0.88925588
0.89002652
0.89088474
0.88541679
0.88567049
0.88595465
0.88627409
0.88663681
0.88705118
0.88752685
0.88806894
0.8886887
0.88938796
0.89019471
0.89108358
0.88542108
0.88568554
0.88598236
0.88631779
0.88669947
0.88713522
0.8876326
0.88821239
0.88887325
0.88962098
0.8904578
0.89137081
0.88542622
0.88570464
0.88601827
0.88637629
0.88678595
0.88725603
0.88779588
0.88841502
0.88911984
0.88991269
0.89078826
0.8917272
0.88543371
0.88573196
0.88607021
0.88645625
0.88689882
0.88740712
0.88799035
0.88865664
0.88941106
0.8902526
0.89116968
0.89213225
0.88433879
0.88457204
0.88483106
0.88512149
0.88544997
0.88582424
0.88625314
0.88674649
0.88731492
0.88796989
0.88870778
0.88954566
0.88434082
0.88457892
0.8848437
0.88514086
0.88547707
0.88586004
0.88629837
0.88680122
0.8873776
0.88803463
0.88879068
0.88963883
0.8843432
0.88458899
0.88486311
0.88517151
0.88552114
0.8859199
0.88637656
0.88690032
0.88750024
0.88818423
0.88895765
0.8898179
0.8843471
0.88460414
0.88489192
0.88521675
0.88558595
0.88600774
0.88649099
0.88704469
0.88767703
0.88839381
0.88919594
0.89007555
0.8843525
0.88462412
0.88492961
0.88527576
0.88567034
0.88612186
0.8866392
0.88723084
0.8879036
0.88866061
0.88949812
0.89040082
0.88435967
0.8846493
0.88497672
0.8853492
0.88577483
0.88626225
0.88682005
0.88745592
0.88817501
0.88897738
0.88985389
0.89077936
0.88361576
0.88384398
0.88409677
0.88437953
0.8846987
0.88506181
0.88547762
0.88595614
0.88650225
0.88713173
0.88785716
0.88866974
0.88361777
0.88385076
0.88410912
0.88439831
0.88472473
0.88509585
0.88552016
0.88600744
0.88656185
0.88719682
0.88791701
0.88874471
0.88362028
0.88386034
0.88412716
0.88442628
0.88476411
0.88514787
0.88558529
0.88608381
0.88666295
0.88732156
0.88806624
0.88890104
0.88362332
0.88387343
0.88415249
0.88446644
0.88482212
0.88522724
0.88569021
0.88621983
0.88682478
0.88751073
0.88828014
0.88912893
0.88362822
0.88389181
0.88418724
0.8845209
0.88490004
0.88533265
0.88582711
0.88639155
0.8870328
0.88775459
0.88855496
0.88942254
0.88363488
0.88391538
0.88423139
0.88458972
0.88499791
0.88546403
0.88599616
0.88660164
0.8872857
0.8880493
0.88888569
0.88977463
0.88324822
0.8834714
0.88371774
0.88399225
0.88430087
0.88465056
0.88504936
0.88550642
0.88603197
0.88663734
0.88733503
0.88813936
0.88324941
0.88347633
0.88372709
0.88400673
0.88432124
0.88467756
0.88508365
0.88554842
0.88608163
0.88669362
0.88739496
0.88819576
0.88325118
0.88348422
0.88374231
0.88403069
0.88435546
0.88472362
0.88514305
0.88562236
0.88617056
0.88679663
0.88750875
0.88831347
0.88325394
0.88349578
0.88376451
0.88406558
0.88440532
0.88479085
0.88522996
0.8857308
0.88630139
0.88694879
0.88767791
0.88848965
0.88325802
0.88351158
0.88379449
0.88411255
0.88447234
0.88488113
0.88534655
0.88587614
0.88647661
0.88715275
0.88790558
0.88872958
0.8832639
0.88353267
0.88383406
0.8841742
0.88455989
0.88499837
0.88549692
0.88606233
0.88669994
0.88741225
0.88819638
0.88903956
0.95749658
0.96017326
0.96342139
0.96736107
0.97212413
0.9778443
0.98464084
0.99259269
1.0017073
1.0118956
1.0229804
1.0347836
0.95752112
0.96025868
0.96358172
0.96761142
0.97247959
0.97831975
0.98524693
0.99333094
1.0025625
1.0128237
1.0238826
1.0354279
0.95757331
0.96043807
0.96391697
0.96813489
0.97322599
0.97932122
0.98652768
0.99489946
1.0044053
1.0149115
1.0262073
1.0381367
0.95765414
0.96071292
0.9644296
0.96893373
0.97436076
0.98083619
0.98845084
0.99722863
1.007097
1.017921
1.0295056
1.0417928
0.95776505
0.96108533
0.96512147
0.97000748
0.97587651
0.98283883
0.99094854
1.0001605
1.0102827
1.0216013
1.0335367
1.0471768
0.95792086
0.96160068
0.96607366
0.97147867
0.97794559
0.98557008
0.99438194
1.0043227
1.0152418
1.0263659
1.0388303
1.0529175
0.9534649
0.95499719
0.95683128
0.95903748
0.96170045
0.96492043
0.96881436
0.97351188
0.97914492
0.98583951
0.99369873
1.0027876
0.95348459
0.95506458
0.95695783
0.95923728
0.96199137
0.96532615
0.96936032
0.97422309
0.98005783
0.98699873
0.9951732
1.0047414
0.95352289
0.95519522
0.9572019
0.95961881
0.96254123
0.96608416
0.97037077
0.97554093
0.98174044
0.98910552
0.99773764
1.007674
0.95357466
0.95537362
0.95753919
0.96015723
0.96332603
0.96715531
0.97178048
0.97734672
0.9839995
0.99186948
1.0010537
1.0115857
0.953645
0.95561071
0.95798045
0.96084585
0.96431063
0.96849686
0.97353879
0.97957525
0.98673547
0.99512285
1.004803
1.0158151
0.95373472
0.95591365
0.95854451
0.961722
0.96555803
0.97017542
0.97570272
0.98226115
0.98994593
0.99880799
1.0088459
1.0199331
0.94846471
0.94957527
0.95089203
0.95245934
0.95433718
0.95659317
0.95930539
0.96256059
0.96644906
0.97105412
0.97643563
0.98261609
0.94847617
0.94961285
0.95096061
0.95257167
0.95450175
0.95681971
0.95960446
0.9629423
0.96691924
0.97160372
0.97701115
0.98341579
0.9484941
0.94968344
0.95109717
0.95278672
0.95481369
0.95725057
0.96018035
0.96369382
0.96788113
0.97280786
0.97850587
0.98513599
0.94852854
0.94980417
0.95132351
0.95314209
0.95532589
0.95795267
0.96111268
0.96491039
0.9694732
0.9746711
0.98071007
0.98753922
0.94858009
0.94997368
0.95163601
0.9536262
0.95601311
0.95887539
0.9622992
0.96637269
0.97119871
0.97676704
0.98307558
0.99013485
0.94863276
0.95015272
0.95196989
0.95414706
0.95675587
0.95987493
0.96358374
0.96794776
0.97297998
0.97900799
0.98584991
0.99286489
0.94296202
0.94375695
0.9446888
0.94578925
0.94709609
0.94865361
0.95051253
0.95272869
0.95535971
0.95845844
0.96206142
0.96617153
0.94297136
0.94378951
0.94474988
0.94588516
0.94723432
0.94884303
0.95076346
0.95305302
0.95577085
0.95897121
0.96269232
0.96694059
0.94298888
0.94385092
0.94486541
0.94606707
0.9474972
0.94920405
0.95124247
0.95367237
0.9565549
0.95994538
0.96388245
0.9683752
0.94301508
0.94394186
0.94503608
0.94633531
0.94788408
0.94973399
0.95194304
0.95457349
0.95768716
0.96133744
0.96556012
0.97036762
0.94305027
0.94406246
0.94526161
0.94668874
0.94839194
0.95042602
0.95285109
0.9557293
0.95911893
0.96306586
0.96759635
0.97272302
0.94309703
0.94421986
0.94555365
0.9471427
0.94903775
0.95129498
0.9539735
0.95713067
0.96081424
0.96505238
0.96984179
0.97514358
0.93736367
0.93800681
0.93875818
0.93964322
0.94069239
0.94194159
0.94343234
0.94521127
0.94732877
0.94983734
0.95272603
0.95602724
0.93737205
0.93803543
0.93881137
0.93972608
0.94081068
0.9421016
0.9436403
0.94547192
0.94764151
0.95018488
0.95317229
0.95658594
0.93738808
0.93809032
0.93891382
0.93988645
0.94104108
0.94241595
0.94405428
0.94600304
0.94830991
0.9510186
0.95416635
0.95776381
0.93741174
0.93817076
0.93906371
0.9401207
0.94137683
0.94287261
0.94465319
0.94676644
0.94925919
0.95217088
0.95553082
0.95937469
0.93744292
0.93827593
0.93925974
0.94042853
0.94181086
0.94345745
0.94541428
0.94772834
0.95044161
0.9535773
0.9570957
0.96127205
0.93747752
0.93839102
0.93947117
0.94075194
0.94228293
0.9441018
0.94625521
0.94879206
0.95175992
0.95520963
0.95918057
0.96335568
0.93185733
0.93240595
0.9330457
0.93379766
0.93468669
0.93574651
0.9370099
0.93851601
0.94028626
0.94237028
0.94479443
0.94756518
0.93186416
0.93242974
0.93309044
0.93386828
0.93479042
0.93588413
0.93718468
0.93872691
0.94056551
0.94272585
0.94523697
0.94810908
0.93187667
0.93247347
0.93317245
0.93399681
0.93497464
0.93613867
0.93752454
0.93917223
0.94112387
0.94341766
0.94608342
0.94913398
0.93189507
0.93253776
0.93329386
0.93418934
0.93525298
0.93651734
0.93802339
0.93981293
0.94192826
0.9444079
0.94728113
0.95056311
0.93192053
0.93262463
0.93345551
0.93444095
0.93561331
0.93700939
0.93866968
0.94063643
0.94295048
0.94564667
0.94874879
0.95226889
0.93195404
0.93273735
0.93366448
0.9347655
0.93607475
0.93763024
0.93947221
0.94164057
0.94417065
0.94708683
0.95039288
0.95405377
0.92656702
0.92705282
0.92761951
0.92828604
0.92907492
0.9300126
0.93112933
0.93245861
0.93403555
0.93589384
0.93806035
0.94054658
0.92657394
0.92707628
0.92766312
0.92835408
0.92917238
0.93014516
0.93130334
0.93268083
0.93431297
0.93623326
0.93846844
0.94103285
0.92658694
0.92712054
0.92774568
0.9284833
0.92935805
0.93039846
0.93163649
0.93310552
0.93484081
0.93687427
0.93923059
0.94194729
0.92660632
0.92718616
0.92786798
0.92867482
0.92963378
0.9307768
0.93214247
0.93373177
0.93560564
0.93778185
0.94024072
0.94320666
0.92663094
0.927269
0.92802214
0.92891624
0.92997244
0.93122646
0.9327175
0.93447366
0.93654081
0.93894006
0.94165342
0.94472777
0.92665622
0.92735332
0.92817684
0.92915227
0.93031679
0.93169904
0.93332627
0.93528345
0.93757043
0.94023971
0.94339254
0.94673618
0.92158947
0.92203747
0.92256061
0.92317553
0.92390484
0.92477207
0.92580564
0.92703727
0.92850043
0.93022837
0.93225054
0.93458042
0.9215964
0.92206147
0.92260432
0.92324309
0.9240011
0.92490247
0.92597558
0.92725116
0.92876161
0.93053791
0.93261766
0.93501957
0.9216076
0.92210043
0.92267863
0.92336203
0.92416932
0.92512827
0.92626765
0.92761831
0.92921057
0.93109623
0.93329954
0.935772
0.92162208
0.92215089
0.9227728
0.92350843
0.92438186
0.9254205
0.92665494
0.92811623
0.92986417
0.93193544
0.93429116
0.93698977
0.92164227
0.92222027
0.92290234
0.92371083
0.92467141
0.92581212
0.92717749
0.9288241
0.93075333
0.9329648
0.93551181
0.93840861
0.92166959
0.92231287
0.92307522
0.92398229
0.92506463
0.92635812
0.92789008
0.92967865
0.93176455
0.93416469
0.93688712
0.93990244
0.91696435
0.91738634
0.9178788
0.91845814
0.91914396
0.91995931
0.92093069
0.92208756
0.92346088
0.92507987
0.92696282
0.92912371
0.91697069
0.91740779
0.91791876
0.91852075
0.91923423
0.92008327
0.92109567
0.92230228
0.92373791
0.9254401
0.92736623
0.92957868
0.91698249
0.91744797
0.9179938
0.91863852
0.91940432
0.92031777
0.92141114
0.92269407
0.92421525
0.92599944
0.92803857
0.93037777
0.91699958
0.91750581
0.91810146
0.918802
0.91963294
0.92062005
0.92179383
0.9231752
0.92479669
0.92666224
0.92889837
0.93143251
0.91701781
0.91756643
0.91821306
0.91897851
0.91988675
0.92096242
0.92222926
0.92374932
0.92552658
0.92760581
0.93001787
0.93276183
0.91703748
0.91763557
0.91834256
0.91918606
0.92018893
0.9213801
0.92279087
0.92445546
0.92640759
0.92868055
0.9312943
0.93426512
0.91272066
0.91312341
0.91359355
0.91414597
0.91479899
0.91557406
0.91649587
0.91759173
0.91889088
0.92042288
0.92221643
0.9242887
0.91272778
0.91314623
0.9136352
0.91420974
0.91488814
0.91569074
0.91665056
0.91778794
0.91913256
0.92071435
0.92257072
0.92471011
0.91273918
0.9131862
0.91370813
0.91432307
0.91505097
0.91591409
0.91694303
0.91816225
0.91960295
0.92129479
0.92326576
0.9255165
0.91275227
0.91323206
0.91379618
0.91446367
0.9152575
0.91620558
0.91732325
0.9186531
0.92022581
0.92207021
0.92419119
0.9266018
0.91276956
0.91329198
0.91390821
0.9146387
0.91550738
0.91654159
0.91777125
0.91922866
0.92094546
0.922947
0.92524725
0.92786378
0.91279088
0.91336505
0.91404442
0.91485121
0.91581107
0.91695285
0.91830799
0.91990913
0.92178759
0.92396927
0.92647093
0.92930155
0.90886896
0.90926421
0.90972466
0.91026542
0.91090453
0.91166323
0.91256603
0.91364086
0.91491917
0.91641114
0.91815219
0.92016981
0.90887478
0.90928404
0.90976164
0.91032338
0.91098827
0.91177913
0.91271212
0.91381943
0.91513341
0.91666391
0.91844126
0.92046918
0.90888472
0.90931805
0.909823
0.91041722
0.91111981
0.91195367
0.91293898
0.91410448
0.91547255
0.91710231
0.91899405
0.92116242
0.90889542
0.90935465
0.90989253
0.91052656
0.9112763
0.91216375
0.91323066
0.91450146
0.91601329
0.91778197
0.91981199
0.92214197
0.90891064
0.90940807
0.90999554
0.91069029
0.9115146
0.91249382
0.91365613
0.91503015
0.9166396
0.91853849
0.9208047
0.9233627
0.90893244
0.90948388
0.91013498
0.91090633
0.9118216
0.91290743
0.91419249
0.91570618
0.91747674
0.91953253
0.92189265
0.92458875
0.90540184
0.90578299
0.90622561
0.90674506
0.9073575
0.90808301
0.90894503
0.90996977
0.91118566
0.91262169
0.91430486
0.91625607
0.90540777
0.90580211
0.90626045
0.90679819
0.90743127
0.90817922
0.90907491
0.91013853
0.91139882
0.91288479
0.91462308
0.91663417
0.9054175
0.90583761
0.90632816
0.90690219
0.90757956
0.90838084
0.9093355
0.91046993
0.91181198
0.91339001
0.91522935
0.91734936
0.90543183
0.90588627
0.90641906
0.90704786
0.90779373
0.90868176
0.90972319
0.91095822
0.91241383
0.91411739
0.91608944
0.91833822
0.90544875
0.9059437
0.90652619
0.90721521
0.90803291
0.90900411
0.91015526
0.91151042
0.91310084
0.91495302
0.91708571
0.9195046
0.90546692
0.90600774
0.90664596
0.90740189
0.90829891
0.90936309
0.91062214
0.91210413
0.91383826
0.91584926
0.91815737
0.92077677
0.90232461
0.9027047
0.903146
0.90366258
0.90427124
0.90499196
0.9058481
0.9068667
0.90807851
0.9094948
0.91112915
0.91302396
0.90232978
0.90272256
0.90317938
0.90371495
0.9043428
0.90508534
0.90596551
0.90700908
0.90824468
0.9096778
0.91137792
0.91334101
0.90233813
0.90275044
0.9032306
0.90379386
0.9044562
0.90523945
0.9061661
0.90726046
0.90854595
0.9100887
0.9118858
0.91395973
0.90234819
0.9027861
0.90329745
0.90389789
0.90461215
0.90545841
0.90646174
0.9076496
0.90905147
0.91069971
0.91261929
0.91483457
0.9023627
0.90283883
0.90339764
0.90405696
0.90483775
0.90576374
0.90686113
0.90815776
0.90968163
0.91145872
0.91351036
0.91585337
0.90238334
0.90290939
0.9035288
0.90426077
0.90512726
0.90615264
0.90736295
0.9087845
0.91044138
0.91235011
0.91451942
0.91693448
0.89962017
0.89998816
0.90041478
0.90091288
0.90149839
0.90219007
0.90300969
0.90398192
0.90513384
0.90649393
0.90809029
0.90994785
0.89962495
0.90000371
0.90044308
0.90095837
0.90156448
0.90228063
0.90312893
0.90413431
0.90532408
0.90672711
0.90837172
0.91028373
0.89963371
0.90003515
0.90050217
0.90104973
0.90169411
0.90245544
0.90335644
0.90442237
0.90568074
0.90716426
0.90889746
0.91091273
0.8996475
0.90008299
0.90059184
0.90118583
0.90188564
0.90271183
0.90368682
0.90483273
0.90616507
0.90777555
0.90963094
0.91178727
0.89966287
0.90013681
0.90068986
0.90134094
0.90210995
0.90301948
0.90409444
0.90536119
0.90683864
0.9085766
0.91053281
0.91286753
0.89967942
0.90019458
0.90080048
0.90151609
0.9023634
0.90336769
0.90455796
0.90596905
0.90764997
0.90953398
0.91173666
0.9140951
0.89729552
0.89766288
0.89808782
0.89858352
0.89916574
0.89985318
0.90066774
0.90163455
0.90278182
0.9041395
0.90571609
0.90751656
0.89730044
0.89767992
0.89811966
0.89863101
0.89923156
0.89994014
0.90077853
0.90177124
0.90294457
0.90432584
0.90591578
0.90779479
0.89730786
0.89770509
0.89816619
0.89870437
0.89933711
0.90008342
0.90096505
0.90200581
0.90323052
0.90466376
0.90637487
0.9083512
0.89731667
0.89773693
0.89822604
0.89880245
0.89948152
0.90028395
0.90123313
0.90235485
0.90367672
0.90522807
0.90703828
0.90912927
0.89732982
0.8977853
0.89831798
0.89894447
0.89968408
0.90055886
0.90159322
0.90281325
0.90424544
0.90591494
0.90784306
0.91004687
0.89734824
0.89784889
0.89843635
0.89912842
0.89994545
0.90091011
0.9020467
0.90337993
0.90493257
0.90672098
0.90874909
0.91098997
0.89533665
0.89569194
0.89610231
0.89657973
0.89713906
0.89779795
0.89857708
0.89950057
0.90059491
0.90188841
0.90340972
0.90518576
0.89534159
0.89570806
0.89613172
0.8966246
0.89720154
0.89787971
0.89867847
0.89963566
0.90076768
0.90210309
0.90367031
0.90549776
0.89534983
0.89573794
0.89618608
0.89670843
0.89732047
0.89803998
0.89888627
0.89990662
0.90110596
0.90251548
0.90416078
0.90608001
0.89536054
0.89577637
0.89626039
0.89682771
0.89749641
0.89828803
0.89922711
0.90032217
0.90160848
0.90311211
0.90484725
0.90684166
0.89537413
0.89582463
0.89635127
0.89697071
0.8977027
0.89857023
0.89959872
0.9007884
0.90218695
0.90381121
0.90566321
0.90790959
0.89538958
0.89587885
0.89645241
0.89712782
0.89792531
0.89886758
0.89997914
0.9012859
0.90281718
0.90460852
0.90670353
0.90896146
0.89375579
0.89411031
0.89451911
0.89499461
0.8955517
0.89620811
0.8969847
0.89790578
0.89899967
0.90027895
0.90178387
0.90350283
0.89376031
0.89412521
0.89454639
0.89503651
0.89561064
0.89628653
0.89708483
0.89802913
0.89914702
0.90044857
0.90196512
0.9037578
0.89376691
0.8941486
0.8945902
0.89510482
0.89570799
0.89641773
0.8972543
0.89823942
0.8993936
0.90077386
0.90238884
0.90426595
0.89377474
0.89417905
0.89464851
0.8951973
0.89584216
0.89660251
0.89750038
0.89856021
0.89980849
0.90127474
0.90298643
0.90496776
0.89378653
0.89422173
0.894729
0.89532372
0.89602388
0.89685001
0.89782497
0.89897327
0.90032023
0.9018905
0.90370605
0.90578489
0.89380289
0.89427883
0.89483545
0.89548917
0.89625882
0.89716532
0.89823116
0.89947941
0.90093185
0.90260581
0.90450723
0.90661027
0.8925459
0.89288966
0.8932847
0.89374243
0.89427641
0.89490248
0.89563883
0.8965057
0.89754092
0.89876888
0.90021759
0.90191385
0.89254981
0.89290282
0.89330907