/*--------------------------------*- C++ -*----------------------------------*\
| =========                 |                                                 |
| \\      /  F ield         | OpenFOAM: The Open Source CFD Toolbox           |
|  \\    /   O peration     | Version:  4.0                                   |
|   \\  /    A nd           | Web:      www.OpenFOAM.org                      |
|    \\/     M anipulation  |                                                 |
\*---------------------------------------------------------------------------*/
FoamFile
{
    version     2.0;
    format      ascii;
    class       surfaceScalarField;
    location    "2000/fluid";
    object      snGradRho;
}
// * * * * * * * * * * * * * * * * * * * * * * * * * * * * * * * * * * * * * //

dimensions      [1 -4 0 0 0 0 0];

internalField   nonuniform List<scalar> 
41040
(
-0.041811856
-117.87891
-0.00013398944
-4.4935209e-15
-1.6092332e-14
-0.00013398944
1.0047786e-15
-7.7896442e-14
-0.00013398944
1.2886463e-16
7.1746446e-14
-0.00013398944
-1.2979354e-17
-3.4181422e-14
-0.00013398944
2.7893108e-15
4.043254e-14
-0.00013398944
4.7794452e-15
-1.7473321e-14
-0.00013398944
4.5581532e-15
9.1959614e-15
-0.00013398944
1.06165e-14
4.0308384e-14
-0.00013398944
5.8224984e-15
-3.7081817e-14
-0.00013398944
-5.7012058e-15
-1.7862653e-14
-0.00013398944
2.5085198e-14
-0.00013398944
1.2713782e-19
-0.33266275
-195.59837
-0.00013398944
1.0595954e-14
-1.1578706e-13
-0.00013398944
7.1417772e-15
-5.6994013e-14
-0.00013398944
-2.1407666e-14
1.4213382e-13
-0.00013398944
-2.4708872e-14
-2.5015344e-14
-0.00013398944
-3.3164075e-14
4.2101245e-14
-0.00013398944
-2.6177307e-14
6.3436461e-14
-0.00013398944
9.3265662e-15
1.1889653e-14
-0.00013398944
1.8343664e-14
7.4560174e-14
-0.00013398944
-1.6396774e-14
-4.9492276e-14
-0.00013398944
-2.8458234e-14
-1.6054158e-14
-0.00013398944
5.159701e-14
-0.00013398944
-1.2442993e-19
-0.72150713
-213.79814
-0.00013398944
-5.9450581e-14
2.8492245e-14
-0.00013398944
3.9305096e-14
-1.170555e-13
-0.00013398944
7.8676525e-15
1.4281454e-13
-0.00013398944
1.8024968e-14
3.9800568e-14
-0.00013398944
9.232721e-15
-2.301987e-14
-0.00013398944
2.4748192e-14
5.419719e-14
-0.00013398944
-2.0343372e-14
3.1784436e-14
-0.00013398944
-3.2157842e-14
-1.8034172e-14
-0.00013398944
2.7193885e-14
2.0374529e-15
-0.00013398944
4.2726672e-14
7.2194128e-14
-0.00013398944
1.61926e-19
-0.00013398944
1.1936752e-19
-0.96531991
-177.24473
-0.00013398944
1.7829223e-14
8.0712647e-14
-0.00013398944
2.3036224e-15
-2.1463047e-13
-0.00013398944
-3.4673725e-14
1.655575e-13
-0.00013398944
-5.5830928e-14
1.9189722e-14
-0.00013398944
-2.2521426e-14
-6.0393856e-14
-0.00013398944
6.2900514e-16
-4.5276315e-14
-0.00013398944
-3.5637077e-15
4.1889963e-14
-0.00013398944
9.1521429e-15
-5.2491973e-14
-0.00013398944
-7.5228787e-14
-2.7015145e-15
-0.00013398944
-1.1177849e-13
8.6784688e-14
-0.00013398944
-8.8157789e-14
-0.00013398944
0
-0.90989007
-103.98955
-0.00013398944
4.2777758e-14
7.4256183e-14
-0.00013398944
-5.6678298e-14
-1.3858116e-13
-0.00013398944
-2.122357e-14
3.9660764e-14
-0.00013398944
7.8079512e-14
2.5284612e-14
-0.00013398944
-2.8109208e-14
-1.9178407e-14
-0.00013398944
1.5134664e-14
-2.2649357e-15
-0.00013398944
5.9411097e-14
-2.4671423e-14
-0.00013398944
-3.8414067e-14
-1.3906728e-14
-0.00013398944
7.3802984e-14
3.0063691e-15
-0.00013398944
8.7375382e-14
1.1025265e-13
-0.00013398944
-8.6981731e-14
-0.00013398944
1.0465824e-19
-0.52583377
-0.00013398944
1.1829947e-14
-0.00013398944
2.928577e-14
-0.00013398944
-9.496262e-15
-0.00013398944
-3.6679768e-14
-0.00013398944
-3.1960874e-14
-0.00013398944
-2.3574101e-14
-0.00013398944
-3.0001099e-14
-0.00013398944
4.2732121e-15
-0.00013398944
-3.7585421e-15
-0.00013398944
2.9688948e-14
-0.00013398944
-0.00013398944
-9.6325247e-20
-0.041811766
-117.87866
-0.00013398929
-1.2718587e-15
3.4267536e-14
-0.00013398929
4.6466361e-16
-3.2367253e-14
-0.00013398929
-9.158375e-17
1.5353664e-14
-0.00013398929
9.5637926e-18
-3.7939495e-14
-0.00013398929
3.3782806e-15
5.0544002e-15
-0.00013398929
4.8508658e-15
-2.2018663e-14
-0.00013398929
-3.0018202e-16
2.1326726e-14
-0.00013398929
3.714982e-15
2.1397408e-14
-0.00013398929
-9.1819272e-16
-2.9532238e-14
-0.00013398929
-9.8781021e-15
1.4114909e-14
-0.00013398929
3.2234939e-15
-0.00013398929
-5.0855084e-19
-0.33266203
-195.59795
-0.00013398929
2.061205e-14
-5.0769549e-14
-0.00013398929
1.3339103e-14
-1.0343746e-13
-0.00013398929
2.1195465e-14
5.5743968e-14
-0.00013398929
6.0547128e-15
-9.3870308e-14
-0.00013398929
1.6583644e-14
6.8878459e-14
-0.00013398929
7.0083789e-15
2.0919759e-14
-0.00013398929
-2.359894e-14
3.0218499e-15
-0.00013398929
2.3776501e-15
4.9295194e-14
-0.00013398929
4.2143253e-16
-1.7629745e-14
-0.00013398929
3.2574949e-14
-3.4713889e-14
-0.00013398929
6.0890636e-14
-0.00013398929
2.2053222e-28
-0.72150558
-213.79769
-0.00013398929
-2.7675731e-14
3.6385681e-14
-0.00013398929
2.0685347e-14
-6.137503e-14
-0.00013398929
3.7256353e-14
9.162496e-14
-0.00013398929
-9.370254e-15
-9.7511228e-14
-0.00013398929
-5.7468856e-14
1.1142181e-13
-0.00013398929
4.6665601e-14
9.5979876e-14
-0.00013398929
8.2115262e-14
-1.0911144e-13
-0.00013398929
-4.3780838e-17
1.4323095e-13
-0.00013398929
-2.2164017e-14
-6.9280712e-14
-0.00013398929
8.4691241e-16
-2.0930106e-14
-0.00013398929
5.8440303e-14
-0.00013398929
4.7746968e-19
-0.96531784
-177.24435
-0.00013398929
-7.678504e-14
1.4774022e-13
-0.00013398929
-3.9532662e-14
-7.4187752e-14
-0.00013398929
-7.1189635e-15
8.5871052e-14
-0.00013398929
-5.7384894e-15
-1.0233527e-13
-0.00013398929
2.0821765e-14
7.3663468e-14
-0.00013398929
-6.0932945e-14
1.2724537e-13
-0.00013398929
-4.5225035e-14
-1.9923906e-14
-0.00013398929
3.8017625e-14
-2.0289028e-14
-0.00013398929
4.2032724e-14
-4.3368421e-14
-0.00013398929
1.9425027e-14
4.735327e-14
-0.00013398929
-4.8642817e-14
-0.00013398929
1.7999122e-28
-0.90988812
-103.98933
-0.00013398929
-9.9137001e-15
1.3319782e-13
-0.00013398929
3.8192555e-14
-9.6326777e-14
-0.00013398929
3.0322716e-14
5.1154943e-14
-0.00013398929
8.4366985e-14
-1.5728198e-14
-0.00013398929
-7.4978784e-14
-9.97076e-15
-0.00013398929
-4.4182011e-14
8.3512376e-14
-0.00013398929
1.2183873e-14
3.2603851e-14
-0.00013398929
-3.0198549e-14
-1.282655e-13
-0.00013398929
-4.6378693e-14
1.1875846e-13
-0.00013398929
-1.291041e-13
-6.5057342e-14
-0.00013398929
1.4718932e-14
-0.00013398929
0
-0.52583264
-0.00013398929
5.8607029e-15
-0.00013398929
1.1661181e-14
-0.00013398929
-4.0907019e-16
-0.00013398929
-2.0734855e-14
-0.00013398929
-4.8832974e-14
-0.00013398929
3.05307e-14
-0.00013398929
-7.4556766e-16
-0.00013398929
1.2851462e-14
-0.00013398929
1.0326671e-13
-0.00013398929
1.7698192e-13
-0.00013398929
-0.00013398929
-1.155902e-18
-0.041811676
-117.87841
-0.00013398914
-6.1982129e-16
8.4357786e-14
-0.00013398914
-2.616582e-15
-4.2796916e-14
-0.00013398914
-2.5940453e-15
2.789898e-14
-0.00013398914
3.0234337e-16
-2.4198285e-14
-0.00013398914
-3.7182866e-15
4.7934294e-14
-0.00013398914
-4.6405027e-15
-4.7418784e-14
-0.00013398914
3.1192258e-16
8.9487273e-15
-0.00013398914
7.8766936e-17
-2.8896674e-14
-0.00013398914
-9.0511225e-17
-1.0806576e-14
-0.00013398914
1.1495218e-14
3.4297676e-15
-0.00013398914
3.0065685e-14
-0.00013398914
1.0171005e-18
-0.33266132
-195.59754
-0.00013398914
-2.2165744e-14
7.088204e-14
-0.00013398914
1.015264e-14
-1.1583466e-13
-0.00013398914
-1.7388446e-14
1.4503559e-13
-0.00013398914
-4.3741025e-15
3.1167475e-14
-0.00013398914
-1.4369478e-14
2.4361286e-14
-0.00013398914
-1.6812114e-14
-2.1943017e-13
-0.00013398914
1.1791302e-14
9.2586271e-14
-0.00013398914
2.1887217e-14
-6.6716366e-14
-0.00013398914
2.0868778e-14
-1.2206624e-14
-0.00013398914
2.6972449e-14
3.747456e-14
-0.00013398914
2.8535446e-15
-0.00013398914
0
-0.72150403
-213.79723
-0.00013398914
-3.9293314e-15
-2.7368718e-14
-0.00013398914
-4.5793878e-15
2.5242912e-14
-0.00013398914
4.3194076e-14
1.1677368e-13
-0.00013398914
2.1742011e-14
4.9408728e-15
-0.00013398914
2.1506447e-14
-3.8401024e-14
-0.00013398914
1.0660879e-14
-2.026933e-13
-0.00013398914
-4.4024582e-15
1.5143708e-13
-0.00013398914
3.1413423e-15
-1.3576693e-13
-0.00013398914
-4.8324348e-15
1.0654511e-13
-0.00013398914
1.7089066e-15
-1.8384924e-14
-0.00013398914
-6.932173e-14
-0.00013398914
-2.8648148e-18
-0.96531577
-177.24397
-0.00013398914
-4.8170891e-14
1.6359732e-13
-0.00013398914
-7.9479041e-14
6.8171313e-14
-0.00013398914
-4.3840404e-16
-7.0575867e-14
-0.00013398914
-2.2046681e-14
-7.6848017e-14
-0.00013398914
-5.8465581e-14
5.6484137e-14
-0.00013398914
-3.3973715e-14
-1.1683595e-13
-0.00013398914
-5.9384301e-15
1.1428805e-13
-0.00013398914
-3.5675252e-14
-1.6529825e-13
-0.00013398914
-6.5144171e-14
8.3546921e-14
-0.00013398914
1.2623761e-15
-1.0151085e-13
-0.00013398914
7.2488278e-14
-0.00013398914
-8.9995609e-29
-0.90988617
-103.98911
-0.00013398914
-8.5302608e-14
1.402822e-13
-0.00013398914
5.8335959e-14
-1.9633493e-14
-0.00013398914
8.7375642e-14
-4.376835e-14
-0.00013398914
-3.6227237e-14
1.1621828e-16
-0.00013398914
-3.966067e-14
7.9379038e-15
-0.00013398914
2.7800121e-14
2.17652e-14
-0.00013398914
-1.5621518e-15
1.7995278e-14
-0.00013398914
-1.3376049e-14
-1.3428851e-14
-0.00013398914
2.8940667e-14
5.0977355e-14
-0.00013398914
-5.7952136e-14
-1.3580222e-13
-0.00013398914
1.0316708e-13
-0.00013398914
-8.3726427e-19
-0.52583151
-0.00013398914
2.2220488e-14
-0.00013398914
6.3872297e-15
-0.00013398914
-2.5111229e-14
-0.00013398914
-2.6717466e-14
-0.00013398914
-1.5738655e-14
-0.00013398914
-8.0411221e-14
-0.00013398914
-4.4723822e-15
-0.00013398914
1.1562728e-15
-0.00013398914
-6.4016499e-14
-0.00013398914
-3.4600733e-14
-0.00013398914
-0.00013398914
2.6287025e-28
-0.041811587
-117.87816
-0.00013398899
4.8578111e-15
-7.1623551e-14
-0.00013398899
-1.9165347e-15
9.0397795e-14
-0.00013398899
4.4236747e-17
5.728713e-14
-0.00013398899
1.0169496e-15
-1.0008877e-14
-0.00013398899
6.6895414e-15
-4.7848825e-14
-0.00013398899
1.3767887e-14
1.4982931e-14
-0.00013398899
1.217747e-14
1.4035134e-14
-0.00013398899
1.4636695e-14
3.0258421e-15
-0.00013398899
1.160803e-14
4.286955e-15
-0.00013398899
-5.7238566e-15
4.0893661e-15
-0.00013398899
2.6694467e-14
-0.00013398899
-2.0341987e-18
-0.33266061
-195.59712
-0.00013398899
-3.3582406e-14
7.9643653e-14
-0.00013398899
-1.3990643e-14
-4.2116652e-14
-0.00013398899
-8.251923e-16
3.0345704e-14
-0.00013398899
-8.8037371e-16
5.8493893e-14
-0.00013398899
-1.5236677e-14
-4.1801585e-14
-0.00013398899
-3.9301555e-14
5.9423567e-14
-0.00013398899
-2.1996462e-14
-8.8645156e-15
-0.00013398899
6.974022e-18
-3.8325738e-14
-0.00013398899
-2.0374928e-14
3.8902347e-14
-0.00013398899
-1.2601205e-14
1.4694783e-14
-0.00013398899
-3.98161e-14
-0.00013398899
1.9908726e-18
-0.72150249
-213.79677
-0.00013398899
1.2105533e-14
-2.1502373e-14
-0.00013398899
3.3686743e-14
1.164221e-14
-0.00013398899
6.3226955e-14
1.2997014e-14
-0.00013398899
5.439127e-14
4.0164223e-14
-0.00013398899
-1.0113069e-14
3.3218705e-14
-0.00013398899
-9.3622072e-14
4.3660108e-14
-0.00013398899
-7.771582e-14
-9.4311471e-14
-0.00013398899
-6.1255216e-14
1.9635504e-14
-0.00013398899
-5.2779972e-14
-3.3352545e-14
-0.00013398899
2.688766e-15
5.6827373e-14
-0.00013398899
-7.4675809e-14
-0.00013398899
3.8197487e-18
-0.9653137
-177.24359
-0.00013398899
-3.2667884e-14
-7.3105428e-14
-0.00013398899
-4.7836698e-14
5.2680255e-14
-0.00013398899
3.2852826e-14
6.3307409e-14
-0.00013398899
-1.0332079e-14
8.1433982e-15
-0.00013398899
-9.7822123e-15
7.7236782e-14
-0.00013398899
7.8622964e-14
-6.3634705e-14
-0.00013398899
3.5636998e-14
-8.0025411e-14
-0.00013398899
-7.2890808e-14
1.039687e-13
-0.00013398899
3.5814235e-15
-6.3271771e-14
-0.00013398899
-5.4973502e-15
2.7734533e-14
-0.00013398899
8.0038138e-14
-0.00013398899
-1.8007774e-18
-0.90988422
-103.98888
-0.00013398899
-8.6499018e-14
7.2829162e-14
-0.00013398899
4.6158937e-14
-1.3177526e-13
-0.00013398899
1.9667373e-14
3.8416616e-14
-0.00013398899
-2.8673562e-14
2.9501465e-14
-0.00013398899
1.7719601e-14
1.4192466e-14
-0.00013398899
-1.381867e-14
3.8834437e-14
-0.00013398899
1.1042368e-13
1.101956e-14
-0.00013398899
1.0158718e-13
1.1526259e-13
-0.00013398899
-3.8799245e-14
4.539421e-14
-0.00013398899
-5.907654e-14
-2.394777e-14
-0.00013398899
3.7824363e-14
-0.00013398899
3.3490533e-18
-0.52583039
-0.00013398899
-1.990913e-14
-0.00013398899
3.7174094e-14
-0.00013398899
-6.105011e-14
-0.00013398899
2.2389585e-14
-0.00013398899
8.8453754e-14
-0.00013398899
1.6890429e-14
-0.00013398899
7.4632287e-16
-0.00013398899
5.6736529e-14
-0.00013398899
6.0330131e-14
-0.00013398899
-2.673205e-15
-0.00013398899
-0.00013398899
-5.0744913e-30
-0.041811497
-117.8779
-0.00013398883
2.0822237e-15
1.6953499e-14
-0.00013398883
5.574498e-15
7.2079123e-14
-0.00013398883
3.4606532e-15
-8.0555912e-15
-0.00013398883
-6.5134842e-16
-7.2467694e-15
-0.00013398883
3.0416147e-17
4.6154909e-15
-0.00013398883
3.6981678e-16
3.6041823e-15
-0.00013398883
4.7037259e-15
-6.2554108e-15
-0.00013398883
1.0700141e-14
-1.3402244e-14
-0.00013398883
5.8756213e-15
-2.351096e-15
-0.00013398883
6.9319531e-17
-2.2211425e-14
-0.00013398883
2.8354681e-14
-0.00013398883
-2.0341964e-18
-0.33265989
-195.5967
-0.00013398883
-5.0600967e-15
1.6299892e-13
-0.00013398883
2.4698265e-16
-9.4917996e-14
-0.00013398883
6.1375108e-15
-4.855811e-14
-0.00013398883
2.8130088e-14
2.2310598e-14
-0.00013398883
-2.3899155e-14
2.9352715e-14
-0.00013398883
-1.5521975e-14
4.8123017e-14
-0.00013398883
1.5340712e-15
-5.8673355e-14
-0.00013398883
1.483279e-15
2.962599e-15
-0.00013398883
-1.9025933e-14
2.0271021e-14
-0.00013398883
-1.231533e-14
-3.610217e-14
-0.00013398883
8.9294174e-15
-0.00013398883
1.9908703e-18
-0.72150094
-213.79631
-0.00013398883
-5.1284857e-15
1.0980506e-13
-0.00013398883
1.1263811e-14
-7.5684421e-14
-0.00013398883
3.6153496e-14
-1.5618656e-14
-0.00013398883
2.0094849e-14
1.450802e-13
-0.00013398883
1.3169541e-14
6.7586835e-14
-0.00013398883
2.0399553e-14
-1.0682554e-13
-0.00013398883
-2.6415244e-14
-8.7642344e-14
-0.00013398883
-6.2679494e-15
6.9995669e-14
-0.00013398883
-9.8439083e-16
-1.7784172e-14
-0.00013398883
2.8097469e-15
2.5059535e-14
-0.00013398883
-6.932173e-14
-0.00013398883
6.3164878e-30
-0.96531163
-177.24321
-0.00013398883
2.1947928e-14
3.841981e-14
-0.00013398883
-3.1179125e-14
1.2769209e-13
-0.00013398883
-6.3135819e-14
5.1940593e-14
-0.00013398883
-2.8241345e-15
-1.5473502e-14
-0.00013398883
1.7283939e-14
3.8552856e-14
-0.00013398883
-7.825323e-15
-1.2466815e-13
-0.00013398883
2.1474177e-14
2.5065063e-14
-0.00013398883
3.5393369e-14
2.2510985e-14
-0.00013398883
1.9445531e-15
2.7159888e-14
-0.00013398883
-3.7812937e-15
-5.4316758e-14
-0.00013398883
-1.5672761e-14
-0.00013398883
-5.402326e-18
-0.90988227
-103.98866
-0.00013398883
-3.8244931e-14
1.0726857e-13
-0.00013398883
-4.5745728e-14
-9.2084275e-14
-0.00013398883
-5.4202428e-14
3.9516677e-15
-0.00013398883
-2.6811983e-14
-2.9910296e-14
-0.00013398883
1.3288159e-14
4.4439558e-14
-0.00013398883
2.9682887e-14
2.817971e-14
-0.00013398883
6.5631504e-14
6.8296342e-14
-0.00013398883
1.0204624e-13
-1.2697472e-14
-0.00013398883
-1.528543e-15
7.9373415e-14
-0.00013398883
-2.4292584e-14
-1.4102353e-13
-0.00013398883
-5.9462177e-14
-0.00013398883
1.6745247e-18
-0.52582926
-0.00013398883
2.9410389e-14
-0.00013398883
3.987322e-14
-0.00013398883
-6.1840837e-14
-0.00013398883
2.56728e-14
-0.00013398883
7.100184e-14
-0.00013398883
1.2534414e-14
-0.00013398883
3.0001288e-14
-0.00013398883
4.273365e-15
-0.00013398883
-3.7336343e-14
-0.00013398883
-6.0597864e-14
-0.00013398883
-0.00013398883
-1.5411974e-18
-0.041811407
-117.87765
-0.00013398868
6.9423422e-15
4.8817771e-14
-0.00013398868
4.9268268e-15
-7.2498385e-14
-0.00013398868
4.4487032e-15
-2.2222337e-15
-0.00013398868
5.4104001e-15
-4.1413804e-15
-0.00013398868
2.7940946e-15
2.2503013e-14
-0.00013398868
4.4647742e-15
4.752557e-14
-0.00013398868
1.6772412e-16
-4.6464302e-14
-0.00013398868
4.0101911e-15
5.3369752e-15
-0.00013398868
5.8666888e-15
-2.3223109e-14
-0.00013398868
5.7702467e-15
1.5433503e-14
-0.00013398868
-2.6696945e-14
-0.00013398868
-2.0341941e-18
-0.33265918
-195.59628
-0.00013398868
8.2349578e-15
-1.2540048e-14
-0.00013398868
1.5689685e-15
-3.1118043e-15
-0.00013398868
-1.5044161e-14
4.1828121e-14
-0.00013398868
-1.100022e-14
-9.9647541e-15
-0.00013398868
2.157521e-14
-2.9082844e-14
-0.00013398868
1.2514813e-14
7.8040032e-14
-0.00013398868
2.566291e-14
-1.0574037e-13
-0.00013398868
8.9250264e-16
5.7036305e-14
-0.00013398868
1.1858107e-16
-2.6989179e-14
-0.00013398868
-1.6766081e-14
3.8417691e-14
-0.00013398868
-1.0067741e-13
-0.00013398868
1.9908681e-18
-0.72149939
-213.79585
-0.00013398868
-4.1422825e-14
-3.2437323e-14
-0.00013398868
-4.9666728e-14
1.9141141e-13
-0.00013398868
2.5917244e-14
-7.389092e-14
-0.00013398868
3.5493263e-14
1.0741615e-13
-0.00013398868
-8.6656518e-15
-7.0764945e-14
-0.00013398868
-1.6167594e-14
-5.2965029e-14
-0.00013398868
-3.0517583e-14
-3.839363e-14
-0.00013398868
-2.4885149e-14
4.9047725e-14
-0.00013398868
4.4062476e-15
1.476498e-13
-0.00013398868
7.1107169e-14
-5.3208511e-14
-0.00013398868
6.4376544e-15
-0.00013398868
1.90987e-18
-0.96530956
-177.24283
-0.00013398868
2.701355e-14
4.7421452e-14
-0.00013398868
2.4295569e-14
5.6643638e-14
-0.00013398868
-1.72521e-14
-7.2134921e-14
-0.00013398868
-9.6649296e-15
1.098754e-13
-0.00013398868
6.3168185e-15
-1.1891581e-15
-0.00013398868
-5.9681093e-15
-3.4499787e-14
-0.00013398868
5.9159938e-14
1.4678739e-15
-0.00013398868
1.0442554e-13
-5.1264669e-14
-0.00013398868
1.0946087e-13
1.929289e-13
-0.00013398868
-4.459009e-16
-1.0379887e-13
-0.00013398868
1.3685699e-13
-0.00013398868
0
-0.90988032
-103.98844
-0.00013398868
2.0841906e-14
-3.9068972e-14
-0.00013398868
7.1035614e-14
-1.3506059e-13
-0.00013398868
-1.4710438e-14
9.6716101e-14
-0.00013398868
-1.0205137e-14
9.6843619e-14
-0.00013398868
-7.355496e-15
2.930829e-16
-0.00013398868
-3.8348314e-15
4.274827e-14
-0.00013398868
-9.7590964e-15
-3.3544374e-15
-0.00013398868
-3.2518904e-14
-2.8916718e-14
-0.00013398868
-3.803992e-14
3.0049567e-15
-0.00013398868
-9.4754575e-14
-1.7519268e-13
-0.00013398868
1.9584012e-13
-0.00013398868
1.6745228e-18
-0.52582813
-0.00013398868
3.9732635e-14
-0.00013398868
9.2093756e-14
-0.00013398868
-3.1357396e-14
-0.00013398868
-5.1848225e-14
-0.00013398868
3.6690362e-14
-0.00013398868
1.2523172e-14
-0.00013398868
5.1227907e-14
-0.00013398868
3.8125314e-14
-0.00013398868
-2.3325551e-14
-0.00013398868
-2.3681849e-14
-0.00013398868
-0.00013398868
2.374978e-28
-0.041811318
-117.8774
-0.00013398853
3.4059616e-15
-5.0888694e-14
-0.00013398853
6.4073889e-15
1.3975103e-14
-0.00013398853
3.1971932e-15
4.5535721e-14
-0.00013398853
5.5321039e-16
-3.9278344e-14
-0.00013398853
-2.5359437e-16
6.7539086e-14
-0.00013398853
-1.5155204e-16
-1.1149609e-14
-0.00013398853
-9.1797683e-15
-2.8219289e-15
-0.00013398853
-1.3316236e-14
-3.947979e-14
-0.00013398853
-8.4246805e-17
2.9573028e-14
-0.00013398853
6.7621278e-17
3.5729968e-15
-0.00013398853
-2.6745257e-14
-0.00013398853
-2.8795667e-29
-0.33265847
-195.59586
-0.00013398853
-1.1311684e-15
-1.0502051e-13
-0.00013398853
6.4235543e-15
2.3718552e-14
-0.00013398853
7.151404e-15
7.6353669e-14
-0.00013398853
-6.1216748e-15
-2.3816726e-14
-0.00013398853
-2.496087e-14
7.2780171e-14
-0.00013398853
-2.1495189e-14
-2.0582598e-15
-0.00013398853
1.576522e-14
-4.3833729e-14
-0.00013398853
8.6722039e-15
-1.6179596e-14
-0.00013398853
-3.7550055e-14
-4.7941829e-14
-0.00013398853
-2.8264329e-14
8.0655269e-14
-0.00013398853
-2.8541757e-15
-0.00013398853
3.9817316e-18
-0.72149785
-213.79539
-0.00013398853
5.5183135e-14
-2.5839918e-13
-0.00013398853
-9.4094201e-15
1.3644995e-13
-0.00013398853
-2.6388532e-14
-1.963151e-14
-0.00013398853
-1.3972443e-14
-4.5782998e-14
-0.00013398853
2.9734757e-15
-5.7451612e-14
-0.00013398853
-2.3924076e-15
3.284527e-14
-0.00013398853
-1.6621608e-14
-5.8774082e-15
-0.00013398853
-2.4324949e-14
1.6004027e-15
-0.00013398853
3.1025331e-15
1.2689089e-14
-0.00013398853
-4.2657641e-15
1.5058269e-14
-0.00013398853
8.0203481e-14
-0.00013398853
0
-0.96530749
-177.24245
-0.00013398853
-3.2002759e-14
-1.2354524e-13
-0.00013398853
-7.0997374e-14
1.8977436e-13
-0.00013398853
2.4153611e-14
-2.2627993e-13
-0.00013398853
6.9034067e-14
1.1318034e-13
-0.00013398853
5.1652947e-14
-6.5331772e-14
-0.00013398853
-2.9513855e-14
4.7590849e-14
-0.00013398853
-1.9655263e-14
1.8986294e-14
-0.00013398853
2.4420027e-14
-7.9362349e-14
-0.00013398853
-8.7780681e-15
2.3959384e-13
-0.00013398853
3.5202325e-14
-5.042508e-14
-0.00013398853
-7.0855079e-14
-0.00013398853
0
-0.90987837
-103.98822
-0.00013398853
3.0586413e-15
7.6897259e-14
-0.00013398853
-5.3222076e-15
-7.1708865e-14
-0.00013398853
-1.1570999e-14
-1.243192e-13
-0.00013398853
-9.1924362e-14
1.7798919e-13
-0.00013398853
3.4878837e-14
-1.3435335e-14
-0.00013398853
2.7014093e-14
4.6658811e-14
-0.00013398853
4.1244898e-14
3.6009284e-14
-0.00013398853
3.4679246e-14
-1.2766087e-13
-0.00013398853
1.9837134e-14
1.0482605e-13
-0.00013398853
2.8302542e-14
6.5522121e-14
-0.00013398853
-1.4414144e-13
-0.00013398853
3.3490418e-18
-0.525827
-0.00013398853
-1.1320778e-15
-0.00013398853
7.1328075e-14
-0.00013398853
-2.4851174e-14
-0.00013398853
-9.0984515e-14
-0.00013398853
5.5698476e-16
-0.00013398853
-2.3516129e-14
-0.00013398853
1.0862163e-14
-0.00013398853
-1.5538908e-14
-0.00013398853
-9.5319469e-16
-0.00013398853
-1.8109072e-15
-0.00013398853
-0.00013398853
5.3249342e-44
-0.041811228
-117.87714
-0.00013398837
8.3610358e-15
-6.3471346e-14
-0.00013398837
6.761576e-15
9.7373419e-14
-0.00013398837
-6.4545286e-16
-5.1753879e-14
-0.00013398837
1.7882058e-15
-3.0834865e-14
-0.00013398837
9.6242099e-15
9.2477177e-15
-0.00013398837
-2.2891814e-16
-1.5585839e-15
-0.00013398837
8.4031222e-18
2.2309049e-14
-0.00013398837
3.6216353e-15
3.2856415e-14
-0.00013398837
-1.0560981e-15
-2.0336418e-14
-0.00013398837
-9.7780505e-15
1.4640536e-15
-0.00013398837
1.6094239e-15
-0.00013398837
0
-0.33265775
-195.59544
-0.00013398837
-2.2814064e-14
2.2961882e-14
-0.00013398837
-2.8996762e-14
1.2537744e-13
-0.00013398837
-5.712067e-15
-1.3313053e-13
-0.00013398837
9.7719407e-16
-4.6114384e-15
-0.00013398837
2.9154921e-15
-3.7067244e-14
-0.00013398837
3.0585999e-17
-2.79651e-14
-0.00013398837
7.3522054e-15
2.1659119e-14
-0.00013398837
2.0458792e-14
6.7369177e-14
-0.00013398837
2.103356e-14
-5.3845621e-14
-0.00013398837
4.4069933e-14
8.9676898e-15
-0.00013398837
3.359914e-16
-0.00013398837
3.2956297e-30
-0.7214963
-213.79494
-0.00013398837
9.764284e-15
1.8569461e-13
-0.00013398837
3.0239323e-14
-1.6055516e-13
-0.00013398837
-1.1588418e-14
-8.9206136e-14
-0.00013398837
-1.7570259e-14
5.4898064e-14
-0.00013398837
5.494702e-15
-6.3789123e-14
-0.00013398837
-1.9579082e-14
6.5414819e-14
-0.00013398837
-6.7830704e-14
-1.2663142e-13
-0.00013398837
-4.7812448e-14
1.0281285e-13
-0.00013398837
2.5812283e-14
1.1300249e-13
-0.00013398837
-2.3749041e-14
-1.0114235e-13
-0.00013398837
-9.1127798e-16
-0.00013398837
5.7001629e-29
-0.96530542
-177.24207
-0.00013398837
-4.7009875e-14
5.6549689e-14
-0.00013398837
4.7035403e-15
-7.9733151e-14
-0.00013398837
2.0444753e-14
2.6278573e-14
-0.00013398837
-2.2505437e-14
4.9598259e-15
-0.00013398837
-9.1444084e-15
-1.0003158e-14
-0.00013398837
-4.1742951e-14
2.2529768e-14
-0.00013398837
2.8737862e-14
-1.1433998e-13
-0.00013398837
1.4854457e-14
5.2160798e-14
-0.00013398837
2.9931493e-14
1.1695035e-13
-0.00013398837
8.9829192e-14
-1.4719121e-13
-0.00013398837
5.8455381e-14
-0.00013398837
1.7999122e-28
-0.90987642
-103.98799
-0.00013398838
4.8634319e-14
1.0907716e-14
-0.00013398837
7.9747742e-14
-1.4212333e-13
-0.00013398837
5.8898648e-15
1.1822724e-13
-0.00013398837
6.5928635e-14
-4.8919693e-15
-0.00013398837
-2.5152827e-14
-1.3268175e-14
-0.00013398837
-2.6611997e-14
4.9571816e-14
-0.00013398837
4.1027073e-14
-7.0115019e-14
-0.00013398837
-7.9899458e-15
1.196915e-14
-0.00013398837
-1.4154344e-13
-2.2512982e-14
-0.00013398837
-1.8883951e-13
-7.3502276e-14
-0.00013398837
4.1391296e-14
-0.00013398837
0
-0.52582588
-0.00013398837
4.7537248e-15
-0.00013398837
8.4410527e-14
-0.00013398837
-3.1443477e-14
-0.00013398837
-1.2543762e-14
-0.00013398837
-1.3113713e-14
-0.00013398837
-4.90701e-14
-0.00013398837
-6.1462014e-14
-0.00013398837
8.8860189e-15
-0.00013398837
1.1344529e-13
-0.00013398837
6.1027378e-14
-0.00013398837
-0.00013398837
0
-0.041811138
-117.87689
-0.00013398822
8.4066607e-16
-4.3237621e-14
-0.00013398822
2.2172803e-15
4.5377384e-15
-0.00013398822
5.9453e-16
5.4634014e-15
-0.00013398822
-1.9364016e-15
-2.7611952e-15
-0.00013398822
8.0404112e-15
-6.6435353e-14
-0.00013398822
4.0628522e-15
2.7914494e-14
-0.00013398822
1.3969953e-17
-5.8910752e-15
-0.00013398822
3.8875769e-15
-9.7006062e-15
-0.00013398822
5.7516242e-15
1.4722638e-14
-0.00013398822
3.8953873e-17
-2.274249e-14
-0.00013398822
2.7544391e-14
-0.00013398822
6.7262326e-44
-0.33265704
-195.59502
-0.00013398822
6.0349715e-15
1.1033057e-13
-0.00013398822
-1.6819474e-14
-9.428431e-14
-0.00013398822
-1.058898e-14
1.0473315e-13
-0.00013398822
3.2138424e-14
5.1019553e-14
-0.00013398822
1.4354546e-14
-1.3100857e-13
-0.00013398822
-2.7755134e-14
2.280349e-14
-0.00013398822
-7.1728231e-15
-2.7942459e-14
-0.00013398822
1.9943958e-14
1.9033616e-14
-0.00013398822
4.2415329e-16
-2.6332342e-14
-0.00013398822
-2.9240365e-16
3.6958907e-14
-0.00013398822
2.5243219e-18
-0.00013398822
3.9817225e-18
-0.72149475
-213.79448
-0.00013398822
-1.7285333e-14
2.2944373e-13
-0.00013398822
6.5548894e-14
-9.9377044e-14
-0.00013398822
2.0278822e-14
-4.437438e-14
-0.00013398822
-5.0639263e-15
4.997264e-14
-0.00013398822
-2.1299004e-14
-7.6908909e-14
-0.00013398822
-3.6752714e-14
-4.5240152e-14
-0.00013398822
-4.0497211e-14
-7.2045421e-15
-0.00013398822
-4.2315563e-14
4.0766739e-14
-0.00013398822
-5.6790199e-15
5.8859086e-14
-0.00013398822
-4.4554613e-14
-1.6175639e-14
-0.00013398822
7.4846811e-14
-0.00013398822
-7.639454e-18
-0.96530335
-177.24169
-0.00013398822
-9.4265291e-16
2.1498037e-13
-0.00013398822
2.240269e-14
-6.8525152e-14
-0.00013398822
-4.9228307e-14
-5.1873366e-14
-0.00013398822
-2.5327587e-14
1.5749278e-14
-0.00013398822
4.879175e-14
-3.6514096e-14
-0.00013398822
1.3697707e-14
-2.6568308e-14
-0.00013398822
2.0282408e-14
-4.023814e-14
-0.00013398822
2.3135801e-14
1.527374e-14
-0.00013398822
3.2413013e-14
5.3324347e-14
-0.00013398822
8.5598107e-14
-1.4766622e-13
-0.00013398822
1.3848952e-13
-0.00013398822
1.7999122e-28
-0.90987447
-103.98777
-0.00013398822
-1.1471024e-13
7.3283894e-14
-0.00013398822
8.2160131e-14
-8.6678541e-14
-0.00013398822
2.1460047e-14
1.2511093e-14
-0.00013398822
3.1896356e-14
8.9298325e-14
-0.00013398822
-8.8639876e-14
1.9852678e-15
-0.00013398822
-4.4685494e-14
-3.5635346e-14
-0.00013398822
-1.0644791e-14
-1.8231461e-14
-0.00013398822
-3.1276681e-14
-6.2177882e-14
-0.00013398822
-2.5918305e-14
-2.5106272e-15
-0.00013398822
-1.2618566e-13
-3.3586891e-14
-0.00013398822
1.1704276e-13
-0.00013398822
-2.3309697e-28
-0.52582475
-0.00013398822
1.4082273e-14
-0.00013398822
5.2545346e-14
-0.00013398822
-4.3807929e-14
-0.00013398822
-8.7643042e-14
-0.00013398822
4.090844e-14
-0.00013398822
-4.4341048e-14
-0.00013398822
-8.5217464e-14
-0.00013398822
-1.9477877e-14
-0.00013398822
1.3773599e-13
-0.00013398822
1.1223405e-13
-0.00013398822
-0.00013398822
3.0823807e-18
-0.041811049
-117.87664
-0.00013398807
3.324323e-15
-4.5181444e-14
-0.00013398807
3.7594874e-15
1.8875929e-14
-0.00013398807
-3.7951603e-15
4.4476739e-15
-0.00013398807
-5.7060189e-15
-4.0435132e-14
-0.00013398807
2.6352452e-15
9.3865465e-14
-0.00013398807
-5.0266257e-16
-5.3366671e-15
-0.00013398807
-1.2187027e-14
-5.082588e-14
-0.00013398807
-6.7468577e-15
-1.6278137e-14
-0.00013398807
-1.0911489e-16
7.4239011e-15
-0.00013398807
-5.7171687e-15
2.1826906e-14
-0.00013398807
-5.3267877e-17
-0.00013398807
-8.1367393e-18
-0.33265633
-195.5946
-0.00013398807
-3.3898269e-16
-5.3620861e-14
-0.00013398807
-3.1401037e-14
3.4324714e-14
-0.00013398807
-7.0366106e-15
-5.9988018e-14
-0.00013398807
4.3425894e-15
-1.613797e-14
-0.00013398807
3.3309341e-15
6.8795017e-14
-0.00013398807
1.7979601e-15
6.294084e-14
-0.00013398807
1.9256345e-14
-1.0726534e-13
-0.00013398807
8.9776672e-15
-3.8610422e-14
-0.00013398807
-1.7032518e-14
-5.4036952e-14
-0.00013398807
1.5706475e-14
1.024635e-13
-0.00013398807
6.0714552e-15
-0.00013398807
7.9634359e-18
-0.72149321
-213.79402
-0.00013398807
-3.3499219e-14
-1.012469e-13
-0.00013398807
-4.2570575e-14
1.1476925e-13
-0.00013398807
2.2971037e-14
-1.1389748e-13
-0.00013398807
-3.058108e-14
-1.5509439e-14
-0.00013398807
-4.3092574e-14
-9.7573856e-15
-0.00013398807
-1.6513826e-14
2.7360362e-14
-0.00013398807
2.0227697e-14
-4.6415366e-14
-0.00013398807
-2.1446767e-14
-3.8297792e-14
-0.00013398807
-3.0029422e-14
-5.0994328e-15
-0.00013398807
-4.6756293e-14
6.238186e-14
-0.00013398807
-6.3959878e-14
-0.00013398807
7.6394453e-18
-0.96530128
-177.24131
-0.00013398807
2.9159299e-14
-7.3533832e-14
-0.00013398807
9.2257545e-15
1.3726513e-13
-0.00013398807
-6.3310304e-15
-9.6008168e-14
-0.00013398807
-4.2834563e-15
6.6084555e-14
-0.00013398807
-3.6140967e-14
-5.0852743e-14
-0.00013398807
-3.7188128e-14
1.4695933e-14
-0.00013398807
2.6988181e-14
4.0289282e-14
-0.00013398807
2.880632e-14
-1.6274906e-13
-0.00013398807
3.2145732e-14
2.6674929e-13
-0.00013398807
5.886962e-14
-1.2773376e-13
-0.00013398807
-8.0042138e-14
-0.00013398807
-3.6015301e-18
-0.90987251
-103.98755
-0.00013398807
-3.9037412e-15
9.7093378e-14
-0.00013398807
3.8407718e-14
-1.1590073e-13
-0.00013398807
3.4217046e-15
-4.0828626e-15
-0.00013398807
-1.6544634e-14
1.5666576e-13
-0.00013398807
4.8570914e-14
-8.3646781e-14
-0.00013398807
-4.9329855e-14
3.5763016e-15
-0.00013398807
-2.528821e-14
1.6990709e-13
-0.00013398807
6.1826591e-15
-2.4845908e-13
-0.00013398807
-2.275045e-14
2.0665769e-13
-0.00013398807
8.9343295e-15
-9.635017e-14
-0.00013398807
-1.9329692e-14
-0.00013398807
3.3490304e-18
-0.52582362
-0.00013398807
5.9938155e-15
-0.00013398807
5.2566999e-14
-0.00013398807
-6.5969142e-14
-0.00013398807
-5.8540701e-14
-0.00013398807