/*--------------------------------*- C++ -*----------------------------------*\
| =========                 |                                                 |
| \\      /  F ield         | OpenFOAM: The Open Source CFD Toolbox           |
|  \\    /   O peration     | Version:  4.0                                   |
|   \\  /    A nd           | Web:      www.OpenFOAM.org                      |
|    \\/     M anipulation  |                                                 |
\*---------------------------------------------------------------------------*/
FoamFile
{
    version     2.0;
    format      ascii;
    class       volScalarField;
    location    "2000/fluid";
    object      T;
}
// * * * * * * * * * * * * * * * * * * * * * * * * * * * * * * * * * * * * * //

dimensions      [0 0 0 1 0 0 0];

internalField   nonuniform List<scalar> 
14400
(
372.93369
371.78613
370.38968
368.69593
366.65528
364.22414
361.37787
358.1316
354.57172
350.90056
347.49946
345.02413
372.91966
371.73946
370.30305
368.56097
366.46285
363.96506
361.04409
357.71794
354.0776
350.33057
346.85973
344.30933
372.89125
371.64527
370.12823
368.28869
366.07507
363.44428
360.37621
356.89615
353.10623
349.22588
345.64107
342.96713
372.84829
371.50362
369.86592
367.8812
365.49685
362.67195
359.39367
355.70128
351.71744
347.68376
343.99657
341.24073
372.79153
371.3176
369.52256
367.34977
364.74681
361.67799
358.14351
354.20552
350.01855
345.85844
342.14192
339.43101
372.72281
371.09323
369.10955
366.71317
363.85398
360.50583
356.68897
352.49819
348.13187
343.91352
340.29654
337.84694
374.89244
374.46444
373.95583
373.34888
372.62304
371.75581
370.72521
369.51579
368.13082
366.58979
365.03273
363.70888
374.88614
374.44346
373.9167
373.28735
372.534
371.63322
370.56237
369.30601
367.87056
366.28274
364.61909
363.24905
374.87402
374.40302
373.84102
373.16789
372.36022
371.39238
370.23934
368.88328
367.32659
365.67651
363.9158
362.43208
374.85667
374.3453
373.73327
372.99826
372.11447
371.05384
369.78954
368.30384
366.60349
364.75141
362.97017
361.35847
374.83506
374.27371
373.59989
372.78875
371.81182
370.63864
369.24127
367.60357
365.73828
363.71231
361.86784
360.22619
374.81045
374.19243
373.44872
372.55193
371.47116
370.1745
368.63502
366.84292
364.82672
362.68517
360.62367
359.31278
377.00068
376.74658
376.45155
376.10659
375.7013
375.22413
374.66326
374.00878
373.2572
372.42028
371.5415
370.72179
376.99702
376.73427
376.42861
376.07066
375.64955
375.15322
374.56937
373.88769
373.10462
372.23256
371.31663
370.46279
376.99028
376.71149
376.38602
376.0037
375.55276
375.02015
374.39263
373.65925
372.81661
371.87912
370.89546
369.9778
376.98074
376.67917
376.32523
375.90798
375.41504
374.83153
374.14311
373.33833
372.41475
371.39043
370.32301
369.33185
376.96879
376.63937
376.25148
375.7918
375.24616
374.60113
373.83982
372.95113
371.9355
370.81824
369.67115
368.62956
376.95492
376.59347
376.16663
375.66106
375.06056
374.3471
373.50679
372.53033
371.42362
370.22384
369.02304
367.99441
379.18367
378.99286
378.77386
378.52043
378.22539
377.88069
377.47798
377.00962
376.47174
375.86934
375.19584
374.52265
379.18111
378.9842
378.75772
378.49518
378.18909
377.8311
377.41273
376.91827
376.34818
375.70498
375.00805
374.3096
379.17606
378.96714
378.72583
378.44508
378.11683
377.72741
377.27063
376.73343
376.11336
375.41065
374.67365
373.93584
379.16793
378.93925
378.67335
378.36198
377.9958
377.56282
377.05287
376.4682
375.79504
375.04251
374.24388
373.46791
379.15677
378.90288
378.60627
378.25762
377.84629
377.36753
376.80642
376.15622
375.41741
374.60663
373.7693
372.99325
379.14297
378.85943
378.52711
378.13638
377.67698
377.13898
376.5144
375.80091
375.00784
374.1654
373.33588
372.6207
381.36263
381.19439
381.00112
380.77718
380.51606
380.21042
379.85477
379.44062
378.96354
378.42464
377.83593
377.22903
381.36023
381.18677
380.98721
380.75586
380.48618
380.17101
379.80076
379.37004
378.87447
378.31568
377.70708
377.08269
381.35628
381.17297
380.96127
380.71501
380.42708
380.08963
379.69457
379.23481
378.70632
378.1119
377.46757
376.81111
381.35046
381.15315
380.92429
380.65713
380.34397
379.97644
379.54614
379.0461
378.47311
377.83212
377.14283
376.44852
381.34318
381.1286
380.87863
380.58586
380.24194
379.83801
379.36555
378.81811
378.19432
377.50289
376.76973
376.04585
381.33484
381.10075
380.82694
380.50537
380.12714
379.68314
379.16511
378.56791
377.89321
377.15544
376.3896
375.65921
383.4977
383.34772
383.17514
382.97515
382.7419
382.46879
382.14868
381.77469
381.34145
380.84778
380.3001
379.72172
383.49535
383.34035
383.16184
382.95505
382.71428
382.43092
382.09866
381.71073
381.26118
380.74877
380.179
379.57637
383.49122
383.32611
383.13602
382.91509
382.65735
382.3552
382.00275
381.59512
381.11487
380.56386
379.94797
379.31521
383.48576
383.30753
383.10047
382.85821
382.57334
382.24152
381.8542
381.40708
380.89513
380.2962
379.63946
378.97684
383.47887
383.28437
383.05732
382.79074
382.4767
382.10687
381.67324
381.16999
380.61128
379.94419
379.26909
378.61651
383.47065
383.25697
383.00626
382.71056
382.36071
381.94647
381.45647
380.87734
380.21144
379.56654
378.91821
378.31808
385.54787
385.40681
385.24437
385.05579
384.83545
384.57698
384.27358
383.91859
383.50661
383.03538
382.52039
381.97328
385.54581
385.40023
385.23234
385.03726
384.8092
384.54178
384.22827
383.86241
383.43996
382.96171
382.42677
381.86412
385.54292
385.39005
385.21314
385.00675
384.76487
384.4808
384.14755
383.75869
383.30979
382.80096
382.24074
381.65526
385.53835
385.37434
385.18378
384.96094
384.69926
384.39156
384.03056
383.60986
383.12575
382.58013
381.98542
381.37176
385.53256
385.35471
385.14724
384.90389
384.61756
384.28066
383.88576
383.42687
382.90173
382.31516
381.68527
381.04876
385.5258
385.33208
385.10521
384.83839
384.52407
384.15437
383.72195
383.22166
382.65349
382.02778
381.37011
380.72644
387.49192
387.3609
387.21028
387.03523
386.8308
386.59111
386.30978
385.98052
385.59804
385.15983
384.66862
384.14053
387.48977
387.35405
387.19776
387.01594
386.80354
386.55456
386.26265
385.92175
385.52736
385.0792
384.56396
384.02974
387.48651
387.34268
387.17628
386.98322
386.7573
386.49225
386.1815
385.81888
385.40013
384.92678
384.39674
383.85349
387.48265
387.32936
387.15147
386.94367
386.69988
386.41338
386.0772
385.68489
385.23169
384.71605
384.1766
383.58697
387.47749
387.31179
387.11871
386.89246
386.62647
386.31366
385.94695
385.52036
385.03096
384.48221
383.89039
383.28241
387.47136
387.29122
387.0805
386.83293
386.54152
386.19895
385.79824
385.33417
384.80559
384.21931
383.59602
382.97733
389.30759
389.18149
389.03668
388.8689
388.67317
388.44378
388.17619
387.86321
387.49936
387.08102
386.61821
386.11903
389.30582
389.17554
389.02614
388.85293
388.65086
388.41412
388.13818
387.81607
387.44352
387.02003
386.54331
386.03233
389.3032
389.16692
389.01006
388.82794
388.61555
388.36739
388.07428
387.73263
387.33801
386.88946
386.3921
385.86303
389.29969
389.15494
388.98675
388.79077
388.56135
388.29224
387.97689
387.6095
387.18622
386.70752
386.18181
385.6302
389.29494
389.13819
388.95597
388.74293
388.493
388.19964
387.85629
387.45744
387.0003
386.48758
385.93162
385.35973
389.28926
389.11907
388.92046
388.68763
388.41415
388.09327
387.71859
387.28528
386.79223
386.24532
385.66246
385.08026
390.98583
390.86473
390.72631
390.56672
390.38154
390.16576
389.91401
389.61843
389.27455
388.87903
388.43214
387.9398
390.98412
390.85922
390.71619
390.55107
390.35927
390.13567
389.87494
389.5695
389.2156
388.81103
388.35846
387.86904
390.9818
390.85084
390.70029
390.52585
390.32248
390.08439
389.80508
389.4828
389.11121
388.68911
388.22215
387.72971
390.97846
390.83914
390.6784
390.49166
390.27366
390.01858
389.72044
389.37397
388.97555
388.52486
388.02868
387.5042
390.97411
390.82417
390.65048
390.44807
390.21131
389.93411
389.61036
389.23481
388.80455
388.32128
387.79502
387.24896
390.96887
390.80647
390.61757
390.3968
390.13822
389.83554
389.48274
389.07513
388.61117
388.09538
387.54279
386.98556
392.51876
392.40026
392.26525
392.11003
391.9303
391.72105
391.47674
391.19141
390.86306
390.48643
390.06029
389.60189
392.51722
392.39501
392.25547
392.0955
391.91027
391.69481
391.44363
391.15089
390.81499
390.43192
390.0049
389.53396
392.51492
392.38738
392.24146
392.07353
391.87883
391.6525
391.38948
391.08551
390.73053
390.32653
389.87687
389.39251
392.51209
392.3775
392.22307
392.04354
391.83479
391.59146
391.30797
390.97905
390.60044
390.17147
389.69812
389.19578
392.50812
392.36324
392.19607
392.00199
391.77574
391.51166
391.20405
390.84791
390.44028
389.98249
389.48347
388.96393
392.5032
392.34654
392.16501
391.95362
391.70685
391.41885
391.08404
390.69802
390.25922
389.77162
389.24862
388.71867
393.90435
393.78832
393.65675
393.50624
393.3328
393.13185
392.89838
392.62714
392.31327
391.95318
391.54599
391.09522
393.90295
393.78373
393.64833
393.49326
393.31444
393.10724
392.86663
392.5875
392.26535
391.89752
391.48538
391.03843
393.90112
393.77689
393.63535
393.47282
393.28501
393.06711
392.81397
392.52049
392.1824
391.79762
391.3684
390.90421
393.89828
393.76672
393.61625
393.44289
393.24208
393.00876
392.73763
392.42367
392.06307
391.65484
391.20324
390.72136
393.89454
393.75367
393.59183
393.40473
393.18748
392.93478
392.64127
392.30218
391.91455
391.4791
391.00316
390.5047
393.88996
393.73805
393.56275
393.35942
393.12293
392.84783
392.52888
392.16186
391.74502
391.28143
390.78253
390.27346
395.14115
395.02697
394.89801
394.75103
394.58219
394.38711
394.16095
393.89846
393.59448
393.25051
392.86191
392.43235
395.13981
395.02233
394.88939
394.73759
394.56296
394.36083
394.12877
393.85972
393.5485
393.19656
392.79987
392.36422
395.1377
395.01488
394.87548
394.71687
394.5344
394.32347
394.08064
393.80035
393.48014
393.10869
392.69481
392.24601
395.13517
395.00629
394.85964
394.69178
394.49841
394.27536
394.01383
393.71225
393.36676
392.97528
392.54182
392.078
395.13198
394.99493
394.83833
394.65701
394.44728
394.20411
393.92228
393.5974
393.22657
392.81014
392.35459
391.876
395.1277
394.97975
394.80971
394.61318
394.38533
394.12103
393.81532
393.4642
393.06592
392.62312
392.14602
391.65714
396.22893
396.11642
395.98991
395.84634
395.68214
395.4932
395.27493
395.02247
394.73106
394.39675
394.01763
393.60326
396.22773
396.11245
395.98262
395.83512
395.66633
395.4721
395.24793
394.98918
394.69163
394.35256
393.97194
393.54689
396.22619
396.10646
395.97121
395.81715
395.64049
395.43693
395.20186
394.93064
394.61916
394.26482
393.86804
393.43482
396.22376
396.09755
395.9544
395.79081
395.60272
395.38566
395.1349
394.84586
394.51487
394.14041
393.72501
393.27822
396.22052
396.08603
395.93281
395.75705
395.55443
395.32029
395.04985
394.73882
394.38428
393.98623
393.54995
393.0892
396.21645
396.07203
395.9067
395.71639
395.49655
395.24243
394.94939
394.6136
394.23322
393.81021
393.3533
392.88231
397.16739
397.05668
396.93262
396.79229
396.63224
396.44852
396.23665
395.99188
395.70961
395.38514
395.02258
394.6195
397.16624
397.0526
396.92503
396.78049
396.61543
396.42576
396.20685
395.95343
395.66645
395.3368
394.9687
394.56079
397.16439
397.04593
396.91253
396.76099
396.58763
396.38833
396.16136
395.89958
395.60266
395.26694
394.8827
394.46245
397.16199
397.03733
396.89709
396.73757
396.55512
396.34559
396.10586
395.83178
395.51152
395.15065
394.74969
394.31634
397.15925
397.02758
396.87869
396.70867
396.51375
396.28972
396.02827
395.72868
395.38718
395.00404
394.58353
394.13764
397.15573
397.01569
396.85502
396.67062
396.45827
396.21334
395.93125
395.60833
395.24263
394.83582
394.39555
393.9395
397.95567
397.84669
397.72501
397.58788
397.43207
397.25383
397.04899
396.81304
396.54141
396.22997
395.87557
395.47637
397.95455
397.84295
397.71816
397.57736
397.41727
397.23413
397.02379
396.78186
396.50415
396.1873
395.83015
395.43635
397.95325
397.83772
397.70814
397.56156
397.39456
397.20327
396.98348
396.73089
396.44153
396.11261
395.74363
395.33796
397.95118
397.82992
397.69337
397.5384
397.36138
397.15829
396.92484
396.65684
396.35072
396.00454
395.61949
395.20194
397.94836
397.81972
397.67419
397.50841
397.31851
397.1003
396.8495
396.56213
396.23531
395.86842
395.46498
395.03518
397.94473
397.8071
397.65063
397.4717
397.26629
397.03014
396.75908
396.44958
396.09963
395.71028
395.28793
394.848
398.59228
398.48514
398.36585
398.23175
398.0797
397.90604
397.70664
397.47704
397.21238
396.9076
396.56558
396.17817
398.59126
398.48148
398.35903
398.22116
398.06461
397.88559
397.67969
397.44582
397.17703
396.86884
396.5252
396.14322
398.58963
398.47545
398.34764
398.20407
398.04117
397.85522
397.64199
397.39927
397.12213
396.8099
396.45029
396.05482
398.5877
398.46868
398.33519
398.18443
398.01303
397.81754
397.59462
397.33509
397.03968
396.70596
396.33315
395.9272
398.58538
398.46008
398.31904
398.15815
397.97422
397.76337
397.5215
397.24446
396.92956
396.57593
396.18612
395.76896
398.58201
398.4478
398.29569
398.12224
397.92357
397.69565
397.43444
397.13645
396.7996
396.42451
396.01656
395.58927
399.07511
398.96988
398.85309
398.72222
398.5743
398.4059
398.21309
397.99154
397.73658
397.44321
397.11321
396.73917
399.0742
398.96678
398.84739
398.71349
398.5621
398.3898
398.19277
397.96698
397.70849
397.41423
397.07618
396.69762
399.07312
398.96224
398.83864
398.69969
398.54227
398.36288
398.15765
397.92251
397.65353
397.3473
397.00159
396.61778
399.07137
398.95541
398.82566
398.67931
398.5131
398.32338
398.10625
397.85775
397.57433
397.25356
396.8952
396.50297
399.06892
398.94639
398.80867
398.65274
398.47513
398.27209
398.0397
397.77428
397.47288
397.13429
396.76037
396.35813
399.06569
398.93504
398.78744
398.61967
398.42812
398.209
397.95853
397.67339
397.35142
396.99278
396.60174
396.18969
399.40132
399.29819
399.18402
399.05639
398.91242
398.74876
398.56151
398.34624
398.10085
397.81837
397.49333
397.12987
399.40041
399.29512
399.17844
399.04792
398.90068
398.73343
398.54237
398.32318
398.07409
397.78919
397.46654
397.09637
399.39928
399.2908
399.17029
399.03529
398.88293
398.70999
398.51306
398.28885
398.0287
397.73327
397.39975
397.02654
399.3979
399.28489
399.15886
399.01718
398.85678
398.67424
398.46585
398.22772
397.95607
397.64849
397.30405
396.92477
399.39569
399.27658
399.14317
398.99261
398.82166
398.62678
398.40427
398.15057
397.86274
397.53926
397.18117
396.79374
399.39268
399.26594
399.12324
398.96157
398.77755
398.56763
398.32825
398.05622
397.74934
397.40733
397.03339
396.63673
399.56714
399.4662
399.35485
399.23083
399.0915
398.93375
398.75399
398.54817
398.31177
398.03981
397.72685
397.36665
399.5666
399.46397
399.35062
399.22429
399.08231
398.92157
398.73854
398.52927
398.28945
398.01455
397.69999
397.34142
399.5658
399.46041
399.34374
399.21347
399.06687
398.9008
398.71178
398.496
398.24948
397.96832
397.649
397.28877
399.56455
399.45518
399.33371
399.19772
399.04437
398.87049
398.67264
398.44721
398.19069
397.90004
397.57322
397.20999
399.56271
399.44803
399.32016
399.17651
399.01413
398.8298
398.62014
398.38184
398.11198
397.80857
397.47127
397.10275
399.56005
399.4385
399.30229
399.14868
398.97464
398.77697
398.55245
398.29813
398.01171
397.69224
397.34114
396.9643
368.58968
367.56216
366.32294
364.83106
363.04351
360.91979
358.42852
355.55708
352.32185
348.77447
344.99523
341.06005
368.58023
367.52947
366.26199
364.73666
362.91081
360.74439
358.20803
355.29283
352.02132
348.45489
344.69123
340.84782
368.56015
367.46082
366.13461
364.53945
362.63248
360.37548
357.74299
354.73269
351.37545
347.73805
343.91041
339.95847
368.52903
367.35569
365.93999
364.2389
362.21015
359.81886
357.04695
353.90416
350.43631
346.70998
342.80859
338.76539
368.48636
367.21334
365.67765
363.8357
361.64756
359.08569
356.14701
352.86672
349.33129
345.46095
341.47154
337.02366
368.42642
367.01654
365.31723
363.28472
360.8824
358.09057
354.9173
351.40435
347.62493
343.85724
339.73149
335.18613
370.14776
369.55386
368.84549
367.99698
366.97799
365.75337
364.28331
362.52552
360.4399
357.99224
355.16086
351.94184
370.14012
369.52779
368.79671
367.92034
366.86701
365.59965
364.07814
362.26086
360.10416
357.57178
354.63465
351.25743
370.12525
369.47725
368.70267
367.77406
366.65744
365.31279
363.69902
361.77149
359.48697
356.81016
353.72315
350.23518
370.10516
369.40825
368.5728
367.56782
366.35873
364.9082
363.17142
361.10307
358.66167
355.81587
352.5514
348.88086
370.07786
369.31661
368.40303
367.30439
365.98467
364.40273
362.5155
360.28156
357.66719
354.6526
351.23592
347.42828
370.04305
369.19957
368.18625
366.96977
365.51185
363.77226
361.71151
359.29641
356.50725
353.34409
349.82836
346.02554
372.09885
371.66366
371.149
370.53826
369.80915
368.93701
367.89393
366.64978
365.17458
363.4428
361.43973
359.16634
372.09435
371.64896
371.12224
370.49456
369.74539
368.84966
367.77927
366.50444
364.997
363.23721
361.22681
358.87427
372.08732
371.62133
371.06895
370.41094
369.6246
368.68364
367.55868
366.21863
364.63427
362.7876
360.67502
358.24762
372.07381
371.5741
370.98066
370.27284
369.42642
368.41343
367.20213
365.75689
364.03546
362.09407
359.86439
357.37581
372.05359
371.5078
370.85884
370.08487
369.16086
368.05891
366.74937
365.20344
363.38869
361.31709
358.99847
356.43895
372.03293
371.43779
370.72877
369.88284
368.87427
367.67564
366.26046
364.60917
362.72342
360.49003
357.98819
355.45886
374.26979
373.95455
373.58568
373.151
372.63611
372.02431
371.29674
370.43306
369.4129
368.21858
366.83957
365.27904
374.26609
373.94165
373.56152
373.11316
372.58173
371.95004
371.19874
370.307
369.25399
368.02169
366.59917
364.98851
374.25913
373.91732
373.51585
373.04142
372.47836
371.80857
371.01182
370.06651
368.95133
367.64821
366.14652
364.44779
374.24874
373.88129
373.44839
372.93568
372.32633
371.60111
370.73878
369.71716
368.51512
367.11584
365.51033
363.69948
374.23477
373.83353
373.35929
372.79645
372.12695
371.33053
370.38547
369.27005
367.96501
366.45698
364.74115
362.8188
374.21622
373.77121
373.24397
372.61777
371.87372
370.99134
369.94969
368.72939
367.31575
365.70264
363.89667
361.91819
376.50483
376.24668
375.94553
375.59144
375.17253
374.67498
374.08294
373.3789
372.54432
371.56041
370.43382
369.1547
376.50146
376.2352
375.92423
375.55832
375.12536
374.61134
374.0005
373.27597
372.42137
371.4245
370.26039
368.93909
376.49502
376.21319
375.88322
375.49424
375.03352
374.48639
373.8365
373.0664
372.15887
371.09889
369.87465
368.48536
376.48552
376.18093
375.82322
375.40068
374.89976
374.30502
373.59949
372.76559
371.78671
370.6498
369.34648
367.86664
376.473
376.13876
375.74478
375.2778
374.72699
374.07299
373.29873
372.38725
371.32418
370.10313
368.74259
367.14055
376.4591
376.09263
375.66022
375.14879
374.53925
373.81768
372.96698
371.96975
370.80984
369.47067
367.94109
366.34646
378.72914
378.5063
378.24678
377.94219
377.58271
377.15506
376.64653
376.0421
375.33413
374.50409
373.54319
372.45092
378.72637
378.49664
378.22864
377.91361
377.5408
377.0996
376.57629
375.95761
375.2227
374.36284
373.36831
372.23726
378.72128
378.47889
378.1954
377.8616
377.46642
376.99706
376.43978
375.77935
375.00008
374.08832
373.03426
371.83531
378.7138
378.4528
378.1462
377.78373
377.35408
376.84463
376.23958
375.52317
374.67984
373.69608
372.56261
371.27627
378.70346
378.41755
378.08072
377.682
377.20875
376.64673
375.98053
375.19441
374.27366
373.20655
371.98628
370.61121
378.68984
378.37182
377.9961
377.55087
377.0228
376.39734
375.65936
374.79431
373.78998
372.63904
371.34277
369.91786
380.89124
380.69165
380.45908
380.1859
379.86308
379.48009
379.02497
378.48464
377.84564
377.0954
376.22448
375.22997
380.8884
380.68201
380.44119
380.15804
379.82324
379.426
378.95415
378.39446
377.73345
376.95869
376.06087
375.03607
380.88305
380.66384
380.40734
380.10513
379.74736
379.32271
378.81863
378.22224
377.52017
376.70077
375.75571
374.67199
380.87509
380.6369
380.35719
380.02674
379.63472
379.16852
378.613
377.96857
377.21156
376.33621
375.35203
374.17172
380.86497
380.60289
380.29401
379.92797
379.49648
378.98543
378.37959
377.6685
376.8349
375.87198
374.78891
373.56927
380.85458
380.56829
380.23063
379.83146
379.35601
378.7932
378.13279
377.3415
376.42107
375.35243
374.098
372.77678
382.94801
382.76195
382.5449
382.29009
381.98832
381.6301
381.20405
380.69759
380.09768
379.39163
378.56868
377.62492
382.94513
382.75198
382.52678
382.26212
381.94852
381.57629
381.13409
380.60977
379.99079
379.26543
378.41966
377.44756
382.94048
382.73581
382.49597
382.21288
381.879
381.48316
381.01391
380.45913
379.80719
379.038
378.14318
377.14407
382.93446
382.71487
382.45694
382.15228
381.7912
381.36269
380.85466
380.25502
379.54023
378.69668
377.74184
376.65391
382.92608
382.68608
382.40325
382.06855
381.67164
381.20138
380.64002
379.96522
379.17765
378.27885
377.24896
376.08442
382.91472
382.64766
382.33163
381.9563
381.5094
380.9767
380.3477
379.61596
378.76614
377.79297
376.69517
375.48669
384.87928
384.70224
384.49584
384.25331
383.9666
383.62629
383.22165
382.74086
382.17166
381.50282
380.72787
379.8424
384.87662
384.69324
384.4791
384.22712
383.92889
383.57461
383.15301
382.65175
382.05705
381.35432
380.56225
379.65649
384.87167
384.6764
384.44767
384.17786
383.85787
383.47687
383.02183
382.48927
381.85972
381.12397
380.28654
379.33041
384.86449
384.65215
384.40259
384.1095
383.76244
383.35096
382.86282
382.28993
381.61964
380.85137
379.93455
378.90086
384.85684
384.62673
384.35587
384.03573
383.65655
383.20845
382.68205
382.05233
381.31869
380.46396
379.4772
378.36087
384.84859
384.59776
384.30167
383.94901
383.53057
383.03473
382.44915
381.7605
380.95606
380.02366
378.95709
377.75207
386.66835
386.49781
386.29891
386.06547
385.78988
385.46329
385.07559
384.61571
384.07193
383.43266
382.68695
381.82896
386.66534
386.48815
386.2813
386.03854
385.75229
385.41418
385.01061
384.53348
383.97094
383.31128
382.53999
381.65495
386.6605
386.47123
386.25047
385.99069
385.68365
385.32019
384.88781
384.37672
383.77453
383.06978
382.25201
381.32242
386.65496
386.45182
386.21325
385.93135
385.59662
385.1976
384.72828
384.17134
383.51477
382.74764
381.86925
380.87579
386.64764
386.42647
386.16591
385.85749
385.49137
385.05639
384.54048
383.9308
383.21509
382.38403
381.43339
380.35777
386.6386
386.39555
386.10836
385.76786
385.36354
384.88369
384.31572
383.6468
382.86498
381.96097
380.92959
379.76929
388.30671
388.13791
387.94146
387.711
387.43897
387.11654
386.73356
386.2786
385.7389
385.11089
384.38063
383.53781
388.30422
388.12945
387.92569
387.68631
387.40335
387.06733
386.67166
386.20312
385.64859
385.0047
384.25965
383.41307
388.29997
388.11493
387.89953
387.64635
387.34743
386.99325
386.57558
386.08269
385.50573
384.82066
384.02851
383.12452
388.2954
388.09931
387.86989
387.5998
387.28091
386.90412
386.4521
385.91509
385.27816
384.53568
383.68701
382.71755
388.2889
388.07651
387.82598
387.53011
387.17966
386.76417
386.27214
385.69212
385.01491
384.21897
383.27336
382.21157
388.27959
388.04416
387.76656
387.4382
387.0493
386.58894
386.04552
385.40737
384.66361
383.80362
382.82105
381.70474
389.79326
389.62924
389.43894
389.21584
388.95313
388.64238
388.2738
387.83655
387.31902
386.70957
385.99766
385.17566
389.79071
389.62102
389.42397
389.19304
388.92151
388.60121
388.21833
387.76464
387.22844
386.59812
385.86336
385.01678
389.78652
389.60575
389.39487
389.1484
388.85796
388.51495
388.10707
387.6235
387.05298
386.38428
385.60776
384.71661
389.78036
389.58482
389.35582
389.08591
388.76622
388.38629
387.94168
387.41573
386.79767
386.07682
385.24572
384.30235
389.77307
389.56013
389.30981
389.01413
388.66382
388.24856
387.75751
387.18103
386.50664
385.72422
384.82721
383.81487
389.76525
389.53259
389.25838
388.9341
388.55
388.0953
387.55871
386.929
386.19475
385.34676
384.37805
383.28458
391.12227
390.95759
390.76655
390.54317
390.2803
389.96949
389.60092
389.16332
388.64399
388.03878
387.34273
386.53887
391.12003
390.94985
390.75212
390.52054
390.24942
389.92925
389.55043
389.10222
388.57288
387.96072
387.237
386.40469
391.11641
390.93778
390.72996
390.48644
390.20049
389.86287
389.4642
388.99441
388.44403
387.78556
387.02133
386.14311
391.11205
390.92234
390.70104
390.4415
390.13322
389.76859
389.33717
388.82764
388.22802
387.52538
386.71027
385.77385
391.10576
390.89951
390.65771
390.37281
390.03595
389.63721
389.1657
388.61007
387.95908
387.20267
386.33306
385.34471
391.09682
390.86896
390.601
390.28482
389.9112
389.46998
388.95048
388.34207
387.63534
386.82436
385.90679
384.89037
392.29767
392.13726
391.95146
391.73476
391.48034
391.1802
390.82514
390.40481
389.90796
389.32295
388.63855
387.84518
392.29558
392.13048
391.93914
391.71498
391.45164
391.14094
390.77354
390.33901
389.82603
389.22283
388.51814
387.70208
392.29176
392.11678
391.91343
391.67526
391.39536
391.06517
390.67513
390.21469
389.67251
389.03527
388.29341
387.43436
392.28575
392.09595
391.8744
391.61611
391.31224
390.9541
390.5323
390.03772
389.46424
388.77329
387.98031
387.06275
392.27904
392.0725
391.83176
391.54872
391.21494
390.8209
390.35622
389.81005
389.17496
388.43053
387.59602
386.60471
392.27183
392.04734
391.78364
391.47265
391.10506
390.67026
390.1562
389.54851
388.82708
388.02166
387.08424
386.08553
393.31367
393.15272
392.96669
392.74991
392.4956
392.19575
391.84105
391.42089
390.92347
390.33645
389.65698
388.88392
393.31152
393.14525
392.95276
392.72916
392.46687
392.15786
391.79286
391.36156
390.85301
390.25601
389.57109
388.76473
393.30826
393.13423
392.9324
392.6971
392.42081
392.09543
391.71175
391.25978
390.72926
390.11024
389.37377
388.52659
393.3044
393.12029
392.90622
392.65424
392.35781
392.0081
391.59523
391.10844
390.53634
389.86705
389.08898
388.19408
393.29864
393.09911
392.866
392.59221
392.26947
391.88843
391.43883
390.90986
390.29071
389.57145
388.74406
387.80266
393.29057
393.07126
392.81425
392.51189
392.15554
391.73564
391.24205
390.66464
389.99436
389.22514
388.35648
387.40119
394.17379
394.01744
393.837
393.62729
393.38187
393.09317
392.75234
392.34911
391.87235
391.31032
390.65137
389.88488
394.17162
394.01035
393.82407
393.60759
393.35448
393.05738
392.70802
392.29019
391.79719
391.2172
390.53872
389.75054
394.16799
393.99721
393.80019
393.57079
393.30235
392.98723
392.61724
392.17207
391.65011
391.03844
390.32687
389.50009
394.16328
393.9803
393.76753
393.51845
393.22524
392.87871
392.46842
391.99107
391.43182
390.7801
390.03074
389.17295
394.15729
393.95908
393.72761
393.45571
393.13488
392.75533
392.3063
391.78818
391.18084
390.47784
389.67934
388.71519
394.15049
393.93524
393.68319
393.38681
393.03742
392.6254
392.14047
391.57191
390.90777
390.13367
389.23224
388.26536
394.87067
394.7141
394.53371
394.3241
394.07881
393.79017
393.44924
393.04564
392.56738
392.00955
391.35536
390.61078
394.86867
394.70752
394.52168
394.30564
394.05287
393.75572
393.40532
392.99165
392.50305
391.93571
391.27671
390.50058
394.86576
394.6972
394.50236
394.27555
394.01005
393.69809
393.33102
392.89964
392.39544
391.79417
391.09299
390.28114
394.8623
394.68376
394.47665
394.23482
393.95104
393.61695
393.22317
392.75938
392.21451
391.57643
390.83416
389.97847
394.85709
394.66492
394.44116
394.17915
393.87114
393.50833
393.08101
392.57891
391.99158
391.30909
390.52294
389.62667
394.84986
394.63972
394.39424
394.10632
393.76789
393.37003
392.90325
392.358
391.72546
390.99898
390.17703
389.27195
395.40555
395.25332
395.07853
394.87619
394.6404
394.36431
394.04009
393.65907
393.20503
392.6678
392.03589
391.29857
395.40382
395.24749
395.06775
394.85944
394.61652
394.33201
393.9981
393.60681
393.136
392.58022
391.92915
391.17164
395.40107
395.23712
395.04798
394.82817
394.57119
394.26948
393.91428
393.49589
392.99596
392.41197
391.72855
390.93368
395.39667
395.22116
395.01777
394.78043
394.50195
394.17388
393.78634
393.32838
392.80038
392.19239
391.45322
390.59344
395.39121
395.2015
394.98072
394.72215
394.41785
394.0586
393.63381
393.13207
392.56055
391.8979
391.12972
390.27328
395.3851
395.17981
394.94016
394.65908
394.32834
393.93865
393.47981
392.94098
392.30992
391.57196
390.76619
389.85387
395.76953
395.61808
395.44418
395.24275
395.00777
394.73211
394.40746
394.02431
393.57186
393.03785
392.42188
391.70469
395.76783
395.61236
395.43365
395.22656
394.98498
394.70177
394.36871
393.97665
393.51578
392.9766
392.3382
391.59861
395.76577
395.60403
395.41763
395.20115
394.94819
394.65126
394.30178
393.89008
393.40558
392.83694
392.17176
391.39938
395.76248
395.59147
395.39374
395.16352
394.894
394.57727
394.20438
393.76539
393.24963
392.64596
391.94298
391.12924
395.75803
395.57495
395.36249
395.11446
394.82362
394.48173
394.07964
393.60751
393.05521
392.41267
391.67031
390.81876
395.7519
395.55309
395.32166
395.05106
394.73381
394.36162
393.92558
393.41654
392.82574
392.14588
391.3732
390.51197
395.95917
395.81151
395.64238
395.44697
395.21955
394.95338
394.64058
394.27214
393.83791
393.32673
392.72678
392.02632
395.95804
395.80708
395.63396
395.43376
395.20065
394.92772
394.60695
394.22917
393.78403
393.26013
392.64526
391.92699
395.95613
395.79936
395.61915
395.41037
395.16692
394.88165
394.54626
394.15128
393.68612
393.13905
392.49744
391.74794
395.95342
395.78853
395.59842
395.37769
395.11988
394.81752
394.462
394.0436
393.55152
392.97384
392.29753
391.50837
395.94996
395.77499
395.57262
395.3371
395.06166
394.73852
394.3589
393.91299
393.39002
392.77807
392.06387
391.23413
395.94544
395.75802
395.54071
395.28748
394.99141
394.64467
394.23855
393.76338
393.20851
392.56195
391.81076
390.95769
368.42479
367.01243
365.31797
363.29464
360.90884
358.14552
355.01177
351.60741
347.95936
344.16727
340.2192
335.97445
368.49628
367.24337
365.73131
363.92568
361.78957
359.30234
356.47399
353.29981
349.92595
346.4608
342.57468
338.55553
368.55839
367.43705
366.08772
364.47266
362.55646
360.31293
357.73391
354.84081
351.69081
348.35267
344.83768
341.09019
368.60681
367.58952
366.36761
364.90561
363.16926
361.13109
358.77902
356.12634
353.21768
350.1217
346.88203
343.3434
368.64364
367.70388
366.57619
365.22721
363.62389
361.73828
359.55499
357.10154
354.40585
351.54372
348.59694
345.43318
368.66549
367.77403
366.7062
365.43108
363.91836