/*--------------------------------*- C++ -*----------------------------------*\
| =========                 |                                                 |
| \\      /  F ield         | OpenFOAM: The Open Source CFD Toolbox           |
|  \\    /   O peration     | Version:  4.0                                   |
|   \\  /    A nd           | Web:      www.OpenFOAM.org                      |
|    \\/     M anipulation  |                                                 |
\*---------------------------------------------------------------------------*/
FoamFile
{
    version     2.0;
    format      ascii;
    class       volVectorField;
    location    "2000/fluid";
    object      U;
}
// * * * * * * * * * * * * * * * * * * * * * * * * * * * * * * * * * * * * * //

dimensions      [0 1 -1 0 0 0 0];

internalField   nonuniform List<vector> 
14400
(
(-2.5113131e-08 1.757645e-05 0.0020957798)
(8.2211254e-07 5.3349497e-05 0.0065704003)
(4.7894548e-06 9.243959e-05 0.011741904)
(1.4022682e-05 0.00013341408 0.017505232)
(3.031892e-05 0.00017479534 0.023690239)
(5.5768133e-05 0.00021544793 0.030060815)
(9.081726e-05 0.00025485302 0.03632314)
(0.00013265725 0.00029314949 0.042146805)
(0.00017245859 0.00033054627 0.047203575)
(0.0001930509 0.00036671547 0.051222713)
(0.0001679562 0.00041640047 0.054036254)
(3.674174e-05 0.00048274854 0.055510165)
(-2.1473998e-06 2.7088383e-05 0.002075596)
(-4.7215223e-06 8.3967369e-05 0.0064995009)
(-2.7033138e-06 0.00014888367 0.011600335)
(7.0199788e-06 0.0002206578 0.017269607)
(2.6735647e-05 0.00029749567 0.023336549)
(5.910489e-05 0.00037750237 0.029568915)
(0.00010492992 0.00045913549 0.03568212)
(0.00016206074 0.00054181677 0.041359198)
(0.00022566553 0.00062588111 0.046285346)
(0.00023923993 0.00071790905 0.050195946)
(0.00023227922 0.00082889448 0.05291168)
(0.0001126551 0.00097066774 0.054258205)
(-3.6644808e-06 2.7037884e-05 0.0020996155)
(-8.4357176e-06 8.5133892e-05 0.0065615183)
(-6.2917926e-06 0.00015418149 0.011682899)
(7.6677032e-06 0.00023442531 0.017340585)
(3.6994964e-05 0.00032461377 0.023347265)
(8.6237423e-05 0.00042266747 0.029453787)
(0.00015737682 0.00052603076 0.035360287)
(0.00024802299 0.00063348154 0.04073847)
(0.00034639736 0.00074901803 0.045269431)
(0.00043467449 0.00088267215 0.048696873)
(0.00043375757 0.0010338226 0.050869475)
(0.00035720908 0.0012322726 0.051672101)
(-5.2714342e-06 2.5770596e-05 0.0021701228)
(-1.2623525e-05 8.1155584e-05 0.0067641453)
(-1.1646869e-05 0.00014776171 0.012005827)
(3.9975634e-06 0.00022672356 0.017749334)
(3.9551647e-05 0.00031776551 0.023779023)
(0.00010177709 0.00042001011 0.029812797)
(0.00019477061 0.00053204967 0.035515555)
(0.00031814089 0.00065363858 0.040526173)
(0.0004631865 0.0007886441 0.044505427)
(0.00061155197 0.00095112442 0.047207943)
(0.00068742712 0.0011694704 0.04855322)
(0.0007212337 0.0014455617 0.048574062)
(-2.3539611e-06 1.6210313e-05 0.0022914803)
(-2.3238729e-06 5.2587839e-05 0.0071222685)
(1.0502769e-05 9.9704275e-05 0.012598331)
(4.490875e-05 0.00016042613 0.018544113)
(0.00010732345 0.00023579898 0.024702669)
(0.00020636196 0.00032702328 0.030739217)
(0.00034663867 0.00043396273 0.036258167)
(0.00052737403 0.00055636832 0.040840774)
(0.00073827649 0.00069617388 0.044116104)
(0.00095811509 0.00086497926 0.045871183)
(0.0011675469 0.0010907797 0.046168394)
(0.0013097854 0.0013865474 0.045334199)
(1.1731841e-06 9.6275196e-06 0.0024937009)
(1.0251507e-05 3.274512e-05 0.0077286248)
(3.7161433e-05 6.6898106e-05 0.013616872)
(9.2624215e-05 0.00011694884 0.019934242)
(0.00018326803 0.00018478396 0.026353422)
(0.00031745073 0.00027324428 0.032450975)
(0.00049703108 0.00038226771 0.037736857)
(0.00071726233 0.00051023811 0.041718089)
(0.00096585264 0.00065564794 0.044011558)
(0.0012337572 0.00082558206 0.044508314)
(0.0015379306 0.0010502307 0.043545187)
(0.0019521711 0.0013570176 0.041950825)
(2.7537971e-07 1.7327087e-05 0.0015873563)
(1.9155518e-06 5.3480744e-05 0.0050304704)
(6.7539359e-06 9.3512256e-05 0.0091368404)
(1.6640828e-05 0.00013516872 0.013952378)
(3.1561103e-05 0.00017570744 0.019495218)
(5.0527319e-05 0.0002120351 0.025739478)
(6.8708115e-05 0.00024070851 0.032593095)
(7.657257e-05 0.00025789154 0.039868122)
(5.9490811e-05 0.00025954127 0.047241933)
(-5.0306348e-07 0.00025086772 0.054327187)
(-6.4674553e-05 0.0002316188 0.060358278)
(-0.00014415254 0.00018028602 0.064218967)
(-2.8563982e-06 3.0721043e-05 0.0016057694)
(-7.5186726e-06 9.6384285e-05 0.0050856663)
(-9.5721142e-06 0.00017159209 0.0092311984)
(-7.4129297e-06 0.0002531533 0.014087505)
(-1.534841e-06 0.00033622503 0.019672084)
(5.8850727e-06 0.00041437358 0.025958594)
(8.4195333e-06 0.00047983006 0.032854403)
(-4.1441606e-06 0.00052458822 0.040169754)
(-2.2085003e-05 0.00054160726 0.047571015)
(-6.0756383e-05 0.00052091571 0.0546468)
(-0.00015044831 0.00046584212 0.060816994)
(-0.00030674248 0.00036289823 0.064550124)
(-6.611045e-06 3.7437445e-05 0.0016672708)
(-1.8521461e-05 0.00011779927 0.0052736437)
(-2.7054951e-05 0.00021071361 0.0095582071)
(-2.9232483e-05 0.00031268147 0.014561286)
(-2.4289942e-05 0.00041761359 0.020292985)
(-1.3263238e-05 0.00051683872 0.026716577)
(-2.4448463e-06 0.00059897401 0.033726899)
(-4.4974038e-06 0.00065052255 0.041124807)
(-3.7424413e-05 0.00065972012 0.048594306)
(-7.9968026e-05 0.0006228227 0.055410531)
(-0.00014188714 0.00055893803 0.061317793)
(-0.00032741828 0.0004457635 0.064791079)
(-9.7480453e-06 3.8202608e-05 0.0017743636)
(-2.7184709e-05 0.00011983853 0.0056022258)
(-3.972276e-05 0.00021415219 0.010132027)
(-4.2760289e-05 0.00031756982 0.015395599)
(-3.4250259e-05 0.00042407627 0.021388523)
(-1.4268087e-05 0.00052471631 0.028051791)
(1.0138192e-05 0.0006070713 0.035249032)
(2.2074337e-05 0.00065613527 0.042739197)
(-5.0979963e-06 0.00065790515 0.050150563)
(-4.5815363e-05 0.00061399809 0.056940791)
(-0.00012163215 0.00050708549 0.06215067)
(-0.00034229261 0.00041787351 0.065215718)
(-6.1507991e-06 2.4974951e-05 0.0019296966)
(-1.4397458e-05 7.9869065e-05 0.0060788932)
(-1.2637587e-05 0.0001469162 0.010964083)
(5.6532042e-06 0.00022620331 0.01660351)
(4.3091393e-05 0.00031272602 0.022968951)
(9.9197055e-05 0.00040036038 0.02996417)
(0.00016396029 0.00047692646 0.037400402)
(0.00021434543 0.00052418253 0.04497323)
(0.00021199225 0.00051802665 0.052252508)
(0.00011194763 0.00044165687 0.058701911)
(1.9370156e-06 0.00030021121 0.063209289)
(-0.00018153431 0.00026706696 0.065617807)
(3.8600787e-07 1.1846324e-05 0.0021367285)
(7.6734396e-06 4.0296181e-05 0.0067137008)
(3.1429868e-05 8.0960873e-05 0.012067531)
(8.0533407e-05 0.00013815416 0.018193736)
(0.00015653526 0.00021159272 0.025024897)
(0.00025880399 0.00029606951 0.032406371)
(0.00037131192 0.00037780504 0.040071916)
(0.00045848536 0.00043268798 0.047627862)
(0.00045886078 0.0004236284 0.054560402)
(0.00029674533 0.00030796954 0.060272336)
(0.00010476287 0.00013109712 0.064148646)
(-0.00021610936 -2.6240528e-05 0.065373303)
(1.4800869e-07 9.549674e-06 0.0012649131)
(1.2889673e-06 2.9463406e-05 0.00400822)
(5.134087e-06 5.281599e-05 0.0072767864)
(1.3885517e-05 8.0742569e-05 0.011102864)
(2.9726995e-05 0.00011476452 0.015499195)
(5.5922626e-05 0.00015682053 0.020452046)
(9.5402259e-05 0.00020916444 0.025910483)
(0.00014943995 0.00027440502 0.031768799)
(0.00021398997 0.00035642649 0.03783778)
(0.00027802254 0.00046044794 0.043790696)
(0.00027374256 0.00057777317 0.049054744)
(0.00027139579 0.00068998784 0.052552149)
(-3.5516661e-07 1.1701324e-05 0.0012888358)
(4.2603916e-07 3.7661419e-05 0.0040824365)
(5.214588e-06 7.1188592e-05 0.0074087178)
(1.6747009e-05 0.00011618261 0.011300763)
(3.7088136e-05 0.0001771685 0.015772851)
(6.9533369e-05 0.00025891198 0.020813927)
(0.00011694503 0.00036533389 0.026376989)
(0.00018070211 0.0004991105 0.032360964)
(0.00025198104 0.00067065522 0.038579084)
(0.00035418002 0.00088254857 0.044700593)
(0.00035543989 0.0011371179 0.050136721)
(0.00034433585 0.0013870051 0.053771064)
(7.3764128e-08 7.5047144e-06 0.0013608436)
(1.9845426e-06 2.6192768e-05 0.0043074146)
(8.7540617e-06 5.530555e-05 0.0078102825)
(2.3305099e-05 0.00010222247 0.011901208)
(4.8153842e-05 0.00017300534 0.016590612)
(8.8890002e-05 0.00027271891 0.021860322)
(0.00015313415 0.00040841658 0.027652336)
(0.00021761536 0.00058559276 0.033850643)
(0.00032868674 0.00081017934 0.040249262)
(0.00041510135 0.0010738953 0.046497136)
(0.00050585418 0.0014051668 0.051995172)
(0.00046386794 0.0017485722 0.055660011)
(5.0812177e-07 6.6442197e-06 0.0014747972)
(4.0176145e-06 2.3655391e-05 0.0046662056)
(1.390782e-05 5.128911e-05 0.0084579031)
(2.9939618e-05 9.4150592e-05 0.012878816)
(5.5256452e-05 0.00015991386 0.017923254)
(8.7448848e-05 0.00026017894 0.023558229)
(0.00015750907 0.0004116318 0.029701987)
(0.00024337136 0.00061310081 0.036205006)
(0.00036969563 0.00086187828 0.042821135)
(0.0005223791 0.001164354 0.049163603)
(0.00071577241 0.0015197268 0.054627427)
(0.00082659961 0.0019659054 0.058231601)
(2.997729e-06 -2.1020547e-06 0.0016404799)
(6.9313593e-06 -4.4735727e-06 0.0051797201)
(2.0263504e-05 4.2493754e-06 0.0093621202)
(4.3193598e-05 3.0736189e-05 0.014217735)
(8.4221297e-05 8.7874042e-05 0.019734864)
(0.00014128105 0.00017839121 0.025829816)
(0.00023401396 0.00030651925 0.032388855)
(0.00037411516 0.00048317862 0.039209371)
(0.00057562792 0.00070991195 0.045984915)
(0.00084334759 0.00098588092 0.052278741)
(0.0011471339 0.0013095854 0.057495316)
(0.0014469107 0.0017486882 0.060804186)
(2.9699705e-06 -1.2896561e-06 0.0018516233)
(6.2710153e-06 -4.8273297e-06 0.0058314883)
(1.9487434e-05 3.0752951e-07 0.010501501)
(3.6931317e-05 1.3753658e-05 0.015857225)
(7.5526406e-05 4.5683304e-05 0.021857227)
(0.00014534947 0.00010733188 0.02841708)
(0.00026411735 0.00020851025 0.035348419)
(0.00045195687 0.00035903098 0.0423709)
(0.00072892674 0.00056868706 0.049095231)
(0.0011073289 0.00084551617 0.055031764)
(0.0015975281 0.0011950476 0.059618231)
(0.0022422947 0.00162437 0.062223417)
(6.4790118e-07 -4.2387826e-06 0.0013026969)
(3.4480027e-07 -1.2670544e-05 0.0041421828)
(2.9598009e-06 -2.1736711e-05 0.007557312)
(4.2625775e-06 -3.1235266e-05 0.011614564)
(7.1219463e-06 -4.1085499e-05 0.016368596)
(8.1329334e-06 -5.1770025e-05 0.021850289)
(1.8240785e-05 -6.2926168e-05 0.028047643)
(9.0379498e-06 -7.0431898e-05 0.034876359)
(3.4688083e-06 -7.5484324e-05 0.042122868)
(-1.1479151e-05 -7.7383641e-05 0.049352048)
(-1.6871384e-05 -7.8337767e-05 0.056048221)
(-5.4318089e-05 -7.4967001e-05 0.060511948)
(9.8209865e-07 -1.7608325e-06 0.0013453196)
(3.8957961e-06 -6.3438531e-06 0.0042771431)
(9.0377436e-06 -1.3269979e-05 0.0078022935)
(1.6992112e-05 -2.3093504e-05 0.011989207)
(2.6872377e-05 -3.6625135e-05 0.016893262)
(3.678408e-05 -5.4216254e-05 0.022544027)
(4.261078e-05 -7.6648555e-05 0.028924044)
(3.8148635e-05 -9.7598533e-05 0.036061991)
(1.1616383e-05 -0.00012228222 0.043689309)
(-2.3264879e-05 -0.00014631462 0.051389401)
(-5.0031127e-05 -0.00017686834 0.058354101)
(-0.00015147566 -0.00019131797 0.063066214)
(2.8095166e-06 -1.1687838e-05 0.0014454942)
(8.7525944e-06 -3.5947913e-05 0.0045922285)
(1.5330962e-05 -6.3600787e-05 0.0083684589)
(2.1866325e-05 -9.4401786e-05 0.012841295)
(2.6528093e-05 -0.00012801989 0.018061278)
(2.7354043e-05 -0.00016338419 0.024128761)
(2.4089658e-05 -0.00019925869 0.030997168)
(1.3207598e-05 -0.00023149246 0.038639892)
(-2.7723496e-05 -0.00026156405 0.046782664)
(-0.00011578929 -0.00029094952 0.054985775)
(-0.0002207182 -0.00035126923 0.062119396)
(-0.00042212604 -0.00038881528 0.066989959)
(4.8213242e-06 -1.5183509e-05 0.0015941336)
(1.5377503e-05 -4.6841833e-05 0.0050742831)
(2.5093204e-05 -8.3317484e-05 0.0092523173)
(3.3646016e-05 -0.00012302461 0.014209543)
(4.0847263e-05 -0.00016461378 0.02001003)
(4.2158893e-05 -0.00020514214 0.026715432)
(2.4361786e-05 -0.00024547919 0.034300523)
(-2.4844166e-05 -0.00028810384 0.042466337)
(-0.00011554706 -0.00033804221 0.051024194)
(-0.00027516172 -0.0004047213 0.05940602)
(-0.00046586933 -0.00052252171 0.066687236)
(-0.00080814391 -0.00064045949 0.07148298)
(8.1658024e-06 -2.1084383e-05 0.0018129437)
(2.4879037e-05 -6.3376371e-05 0.0057583729)
(3.8682517e-05 -0.00011011506 0.010481685)
(4.506461e-05 -0.00015984481 0.016070563)
(3.9096341e-05 -0.00020945896 0.022591399)
(1.0412652e-05 -0.00025899196 0.029952993)
(-4.9321083e-05 -0.0003103599 0.038115516)
(-0.00015330222 -0.00036887525 0.046849223)
(-0.00031611219 -0.00044359604 0.055745457)
(-0.00056070839 -0.00054864531 0.064147437)
(-0.00085821296 -0.00071413699 0.071105345)
(-0.0013219945 -0.00092720668 0.07534951)
(9.5562547e-06 -1.6515204e-05 0.0020941339)
(2.1652626e-05 -4.9305024e-05 0.0066095735)
(2.5169442e-05 -8.4294259e-05 0.011972337)
(1.3731182e-05 -0.00012145194 0.018242089)
(-1.9363964e-05 -0.00016233153 0.025429522)
(-8.2984117e-05 -0.00020877188 0.033465615)
(-0.00018716708 -0.00026562799 0.042166465)
(-0.00034354555 -0.00034091151 0.051191908)
(-0.00056647097 -0.00044663049 0.060012498)
(-0.00086974431 -0.00059764833 0.067902152)
(-0.0012537069 -0.00082477387 0.073980808)
(-0.0018028048 -0.0012127217 0.077309106)
(9.2508654e-07 7.0581207e-06 0.0011835275)
(-9.5128669e-07 2.141745e-05 0.0037596839)
(-2.124623e-06 3.8002164e-05 0.0068362397)
(-3.2211032e-06 5.7886557e-05 0.01044473)
(-5.030109e-06 8.2145019e-05 0.014598506)
(-2.7870741e-06 0.00011216595 0.019286623)
(7.6207379e-06 0.00014908833 0.024430529)
(1.994784e-05 0.00019597893 0.029953843)
(4.5556652e-05 0.00025446308 0.035680028)
(7.3087925e-05 0.00032648087 0.041306446)
(0.00013068853 0.00041440997 0.046292559)
(0.00011446054 0.00051410722 0.049607889)
(-9.7237711e-07 9.4535071e-06 0.0012234989)
(-1.8715663e-06 2.9876124e-05 0.0038776947)
(-4.5644337e-06 5.501482e-05 0.0070425133)
(-1.5331721e-06 8.8272765e-05 0.010747749)
(1.7492909e-06 0.00013159677 0.015004443)
(1.1469774e-05 0.00018886173 0.019798898)
(2.7528488e-05 0.00026578863 0.02511784)
(5.5355886e-05 0.00037034129 0.030847812)
(9.7142148e-05 0.00049987823 0.036821554)
(0.00015262924 0.00065820467 0.042736561)
(0.00025144995 0.00084047223 0.048036228)
(0.00027511205 0.0010707109 0.051647902)
(-1.0562458e-06 7.6847214e-06 0.0013105387)
(-2.5417153e-06 2.5440451e-05 0.0041558807)
(-2.2259322e-06 4.9898396e-05 0.0075465091)
(1.739875e-06 8.4425038e-05 0.011514045)
(1.1917566e-05 0.00013483819 0.016070725)
(2.4548612e-05 0.00020671967 0.021203683)
(4.8977026e-05 0.00030824577 0.026865977)
(0.00012490165 0.00044376186 0.032957908)
(0.00020409378 0.00061033906 0.039299011)
(0.00034449033 0.00083408432 0.045570914)
(0.00049947964 0.0010862945 0.051202541)
(0.00061109071 0.0014397305 0.055132464)
(-1.7154793e-06 7.5322414e-06 0.0014462986)
(-4.416409e-06 2.4797739e-05 0.0045855197)
(-4.9716715e-06 4.8264547e-05 0.0083232578)
(-1.3039209e-06 8.2066543e-05 0.01269195)
(7.9695543e-06 0.00013222555 0.017699481)
(4.5236745e-05 0.00020918486 0.023321887)
(9.6224727e-05 0.00031360448 0.02949285)
(0.00020837181 0.00045959801 0.036086074)
(0.00034261975 0.00066566374 0.042886672)
(0.00057684791 0.00094410161 0.049540228)
(0.00086326665 0.0012961252 0.055459683)
(0.0011633892 0.0017764929 0.059632936)
(1.8944835e-07 1.6835429e-06 0.0016266912)
(5.3727627e-06 9.4234281e-06 0.0051519781)
(1.0991675e-05 2.1385889e-05 0.0093379818)
(2.9672819e-05 4.6378108e-05 0.014213633)
(6.2500557e-05 8.658014e-05 0.019775922)
(0.00012271656 0.00014938612 0.025980314)
(0.00022060391 0.00025076928 0.032727868)
(0.00037717182 0.00040163509 0.039846466)
(0.00061597925 0.00062676893 0.04706344)
(0.00095342113 0.00089514288 0.05396574)
(0.0013976832 0.001276304 0.05993937)
(0.0019260557 0.0017972445 0.064051599)
(-6.0508313e-08 1.4850447e-06 0.0018446595)
(5.670585e-06 9.117585e-06 0.0058304097)
(1.184551e-05 1.9253505e-05 0.010537139)
(3.4266652e-05 4.2682178e-05 0.015980287)
(7.4140139e-05 8.1011788e-05 0.022133534)
(0.00014906059 0.00014416449 0.028916717)
(0.00027731968 0.0002419788 0.036179392)
(0.0004893628 0.0003875493 0.043681025)
(0.00082526832 0.00058986152 0.051069323)
(0.0012631589 0.00087171243 0.057861186)
(0.0019170654 0.0013115102 0.063419335)
(0.0027868047 0.0018530862 0.066908168)
(-2.4230089e-07 3.442153e-06 0.001155965)
(-3.7962575e-07 1.0601743e-05 0.0036759312)
(-8.4717322e-07 1.8316665e-05 0.0067087647)
(-1.0480396e-06 2.5738868e-05 0.010310505)
(-4.8973473e-06 3.2151026e-05 0.014531173)
(-1.6584936e-06 3.7675991e-05 0.019401844)
(-6.5743014e-06 3.9962797e-05 0.02491982)
(-1.3968329e-05 3.7204401e-05 0.031022642)
(-1.8050697e-05 2.7807524e-05 0.037544797)
(-4.6648793e-05 9.8713989e-06 0.044139609)
(-5.584838e-05 -7.0273906e-06 0.05015435)
(-6.8355391e-05 -2.0497074e-05 0.054296653)
(-7.7035772e-07 6.1833774e-06 0.001203743)
(-3.071709e-06 1.9270682e-05 0.0038209652)
(-4.6428711e-06 3.3974366e-05 0.0069694933)
(-6.4582569e-06 4.827787e-05 0.010707555)
(-8.6980684e-06 6.045169e-05 0.0150829)
(-1.1707785e-05 6.8917798e-05 0.020138851)
(-1.5819456e-05 6.9578396e-05 0.025881684)
(-2.1309219e-05 5.8594607e-05 0.032240015)
(-2.8676643e-05 3.5278314e-05 0.039057246)
(-3.9762941e-05 -2.3409009e-07 0.045988513)
(-5.0732775e-05 -3.3727475e-05 0.05238984)
(-6.3699204e-05 -6.8070484e-05 0.05693755)
(-1.5669672e-06 7.5188275e-06 0.0013031683)
(-4.752416e-06 2.3306964e-05 0.0041428003)
(-7.6388997e-06 4.0170065e-05 0.0075467027)
(-1.0654626e-05 5.6308385e-05 0.011587574)
(-1.2701002e-05 6.9137617e-05 0.01631531)
(-1.3888528e-05 7.5627154e-05 0.021762614)
(-1.3868173e-05 7.1896408e-05 0.027910385)
(-1.4387438e-05 5.4474994e-05 0.034629042)
(-1.5183727e-05 2.1636072e-05 0.041862783)
(-2.0661664e-05 -1.7038714e-05 0.04927559)
(-3.7205695e-05 -6.0804107e-05 0.05624711)
(-6.9981386e-05 -0.00011256589 0.061154421)
(-1.8223205e-06 6.7694402e-06 0.0014467966)
(-5.1970947e-06 2.0976047e-05 0.0045934433)
(-8.0439201e-06 3.6433611e-05 0.0083668456)
(-9.7617746e-06 5.1417495e-05 0.012839271)
(-1.0117662e-05 6.3163218e-05 0.018076918)
(-9.4964359e-06 6.8516681e-05 0.024092724)
(-9.6710959e-06 6.3045537e-05 0.030849745)
(-9.4872479e-06 4.5844138e-05 0.038223339)
(-8.9833604e-06 1.0626794e-05 0.04597508)
(-2.5280071e-05 -1.8907656e-05 0.053811186)
(-5.131463e-05 -8.0406805e-05 0.06113717)
(-0.00010440102 -0.00015940251 0.066293398)
(-1.2729743e-06 4.4913149e-06 0.0016304894)
(-3.2884634e-06 1.4085399e-05 0.0051711466)
(-4.0652412e-06 2.4824016e-05 0.0094058615)
(-2.6509835e-06 3.5538238e-05 0.014406965)
(1.1886159e-06 4.4133519e-05 0.020225287)
(6.6641682e-06 4.7872635e-05 0.026873522)
(1.0974024e-05 4.2554975e-05 0.034304991)
(8.6250958e-06 2.4653911e-05 0.042396006)
(6.3836108e-07 -5.2071701e-06 0.050665854)
(-2.0349012e-05 -3.4881587e-05 0.059139462)
(-6.8615179e-05 -9.4117094e-05 0.06635616)
(-0.00016458241 -0.00018189625 0.071011736)
(-5.5822115e-07 3.3253621e-06 0.0018406229)
(-4.5282946e-07 1.0529884e-05 0.0058285521)
(2.4045935e-06 1.8972308e-05 0.010578283)
(9.3126601e-06 2.8098895e-05 0.016157749)
(1.9784335e-05 3.6253743e-05 0.022602994)
(3.1333201e-05 4.0877387e-05 0.029901149)
(3.6889445e-05 3.7548723e-05 0.037976538)
(2.3265506e-05 2.1226971e-05 0.046701046)
(-2.5912871e-07 2.1688538e-06 0.055760671)
(-4.2485018e-05 -3.2777069e-05 0.063862333)
(-0.00013116179 -0.00010029148 0.070019631)
(-0.00025456936 -0.00020755675 0.073537916)
(-2.1516634e-07 7.6404804e-06 0.0010520853)
(-1.2180529e-06 2.3798898e-05 0.0033437998)
(-2.9228316e-06 4.3120752e-05 0.0060785857)
(-5.315968e-06 6.6173258e-05 0.0092789208)
(-8.646862e-06 9.4246093e-05 0.012953575)
(-1.2740825e-05 0.00012844577 0.017087143)
(-1.7127239e-05 0.00016979042 0.021634313)
(-1.9474665e-05 0.00021930131 0.026508637)
(-2.2442623e-05 0.00027827186 0.031561997)
(-4.71072e-06 0.000346549 0.036540854)
(3.4712613e-05 0.00041238274 0.040893366)
(3.8656369e-05 0.00048952156 0.043788292)
(-1.6207295e-06 1.2053517e-05 0.0010917372)
(-5.7530113e-06 3.8290991e-05 0.0034617404)
(-6.0815186e-06 7.1206329e-05 0.0062862321)
(-1.1737464e-05 0.00011119543 0.0095878352)
(-1.2720861e-05 0.00016289115 0.013376222)
(-1.1474711e-05 0.00022904021 0.017638388)
(-7.5739049e-06 0.00031237179 0.022333847)
(5.8206638e-06 0.00041630892 0.027381799)
(3.4860897e-05 0.0005428735 0.032635237)
(8.395138e-05 0.00068970183 0.037825532)
(0.00014070748 0.00085131996 0.042546686)
(0.00018757472 0.0010497089 0.045779532)
(-2.8379829e-06 1.3968149e-05 0.0011772651)
(-8.0363308e-06 4.4123978e-05 0.0037256876)
(-1.2756202e-05 8.1247571e-05 0.0067555166)
(-1.5466648e-05 0.00012855639 0.010295225)
(-1.5068225e-05 0.00018894794 0.014350166)
(-1.1087783e-06 0.00026746116 0.018908572)
(2.6343274e-05 0.00036642592 0.023930206)
(7.1337655e-05 0.00049259653 0.029332372)
(0.00015531174 0.00065635861 0.034964273)
(0.0002841426 0.00085170771 0.040558924)
(0.00041995989 0.0011107231 0.045632798)
(0.00057329331 0.001431906 0.049236308)
(-3.6626457e-06 1.3775261e-05 0.0012986195)
(-1.0184105e-05 4.3491178e-05 0.0041143882)
(-1.4799896e-05 8.0419351e-05 0.0074610377)
(-1.4892017e-05 0.00012763214 0.011363991)
(-6.1835593e-06 0.0001890686 0.015829133)
(1.8935348e-05 0.00026885012 0.020837508)
(7.0220553e-05 0.00037354171 0.026336773)
(0.00015649465 0.00051584523 0.032226256)
(0.00032985477 0.00070831297 0.038330481)
(0.00054676584 0.00096129153 0.04435337)
(0.0008512762 0.0013230634 0.049790896)
(0.0012133388 0.0018032483 0.053734041)
(-1.2656818e-06 6.997125e-06 0.0014547923)
(-1.9588833e-06 2.3429243e-05 0.0046066798)
(2.6143132e-06 4.6385492e-05 0.0083472198)
(1.7326936e-05 7.9554547e-05 0.012702057)
(4.8354142e-05 0.00012744416 0.017671283)
(0.00010665754 0.00019664101 0.023221449)
(0.00020801558 0.00029550583 0.029274556)
(0.00037590664 0.0004342122 0.035691841)
(0.00063103126 0.00062168083 0.042249203)
(0.0010066222 0.0009340527 0.048600393)
(0.0015156698 0.001350409 0.054205513)
(0.0021170603 0.0018979075 0.058199308)
(2.9904163e-07 3.3748813e-06 0.0016365801)
(3.4509952e-06 1.2061496e-05 0.0051776247)
(1.3918716e-05 2.6324486e-05 0.0093673877)
(3.7995958e-05 5.0184202e-05 0.014225265)
(8.3789338e-05 8.8603198e-05 0.019734032)
(0.00016550202 0.00014995241 0.025829178)
(0.00030337365 0.00024642003 0.032386522)
(0.00052593491 0.00039780305 0.039207677)
(0.00086560465 0.00063987721 0.046001728)
(0.0014190579 0.0010058561 0.052353376)
(0.0021377611 0.0014580171 0.057677602)
(0.003119413 0.0020465569 0.061162522)
(-2.0885088e-07 4.9517058e-06 0.0010136431)
(-7.9321857e-07 1.5072857e-05 0.0032192836)
(-1.4739367e-06 2.5835386e-05 0.0058608421)
(-2.7368894e-06 3.6227876e-05 0.008986967)
(-4.3306163e-06 4.5420323e-05 0.012632228)
(-6.4094778e-06 5.332755e-05 0.016817298)
(-9.3195694e-06 5.8943489e-05 0.02153628)
(-1.1710796e-05 6.1832009e-05 0.026737118)
(-2.2873981e-05 6.187807e-05 0.032285839)
(-2.1739946e-05 5.8470867e-05 0.037899626)
(-3.5004343e-05 4.9295624e-05 0.043017413)
(-4.2026527e-05 3.4562453e-05 0.046508277)
(-8.1107631e-07 8.1445224e-06 0.0010546609)
(-3.3137245e-06 2.5079794e-05 0.0033437958)
(-5.0179013e-06 4.4437432e-05 0.006085247)
(-8.0200529e-06 6.4867377e-05 0.0093311996)
(-8.9846419e-06 8.4983747e-05 0.013120372)
(-1.5339401e-05 0.00010246005 0.01747863)
(-1.7762944e-05 0.00011534974 0.022405091)
(-2.2368178e-05 0.00012162179 0.027850304)
(-2.98446e-05 0.00012049272 0.033675913)
(-3.8129928e-05 0.00011032675 0.039571383)
(-4.9172371e-05 9.6684417e-05 0.045046296)
(-2.9821793e-05 8.14279e-05 0.048800741)
(-1.4980156e-06 9.1502233e-06 0.0011403376)
(-6.732268e-06 2.8512201e-05 0.0036187047)
(-7.3794773e-06 5.1983849e-05 0.006591068)
(-1.2532627e-05 7.6044228e-05 0.010103065)
(-1.3742541e-05 0.00010078287 0.014199886)
(-1.5304856e-05 0.00012192412 0.018905333)
(-1.4794366e-05 0.00013755538 0.024212746)
(-1.4180124e-05 0.00014508307 0.030062027)
(-1.2980785e-05 0.0001445607 0.036299744)
(-1.3233401e-05 0.00013414631 0.042597658)
(-5.1181186e-06 0.00013294767 0.048412982)
(3.7378253e-05 0.00012769725 0.052532698)
(-2.5308594e-06 9.167093e-06 0.0012691352)
(-7.2290128e-06 2.8475699e-05 0.0040240556)
(-1.1023269e-05 4.9850563e-05 0.0073189892)
(-1.3279747e-05 7.3390446e-05 0.011209873)
(-1.2609985e-05 9.6734057e-05 0.01573948)
(-8.6915597e-06 0.00011838095 0.020928036)
(-1.233972e-06 0.00013560803 0.026757853)
(8.7375543e-06 0.00014631346 0.03314836)
(2.0563128e-05 0.00014966513 0.039918822)
(3.5754818e-05 0.00014541774 0.046748865)
(6.1202912e-05 0.00016016784 0.05287335)
(0.0001178797 0.00016130627 0.057458345)
(-1.5568039e-06 5.808954e-06 0.0014321292)
(-3.8832264e-06 1.8419939e-05 0.0045366105)
(-4.2845415e-06 3.3470576e-05 0.0082413052)
(-1.1867764e-06 5.0872473e-05 0.012604293)
(6.6034423e-06 6.9856647e-05 0.017663995)
(2.0203014e-05 8.9402972e-05 0.023426473)
(3.9990302e-05 0.00010804343 0.029846681)
(6.5370811e-05 0.00012448653 0.036801149)
(9.5225253e-05 0.00013825929 0.044050553)
(0.00012885009 0.0001501257 0.05118935)
(0.00017428949 0.00017906344 0.05756511)
(0.00024617345 0.00020234728 0.062155338)
(-1.9031775e-07 3.0173201e-06 0.0016186685)
(7.8207115e-07 1.0070486e-05 0.0051196984)
(5.2007846e-06 1.9676813e-05 0.0092804612)
(1.5381748e-05 3.2699905e-05 0.014154445)
(3.2813815e-05 4.9264094e-05 0.019764554)
(5.9127077e-05 6.9499608e-05 0.026086917)
(9.4502821e-05 9.2777259e-05 0.033029536)
(0.00013769621 0.0001180951 0.040405088)
(0.00018621635 0.00014454344 0.047898862)
(0.0002391457 0.00017305098 0.055032352)
(0.00030162558 0.00020759565 0.061116636)
(0.00038216652 0.00024650805 0.065144676)
(-9.4986079e-08 4.7291602e-06 0.00095223322)
(-8.2935376e-07 1.4729929e-05 0.0030237184)
(-1.9537392e-06 2.6752746e-05 0.0054905511)
(-3.725349e-06 4.1402903e-05 0.0083726208)
(-5.9397145e-06 5.9382218e-05 0.011675583)
(-9.9438241e-06 8.1109619e-05 0.01538841)
(-1.3648337e-05 0.00010794424 0.019454496)
(-1.7171611e-05 0.00013887707 0.023800594)
(-1.7884497e-05 0.00017482146 0.02828789)
(-8.8404265e-06 0.00021959053 0.032697447)
(1.4122945e-05 0.00026943828 0.036591069)
(1.9870848e-05 0.00031832069 0.039140399)
(-8.3816757e-07 7.9206557e-06 0.00098707107)
(-2.8213535e-06 2.5072316e-05 0.003133557)
(-6.5653396e-06 4.6031304e-05 0.005680852)
(-9.2918433e-06 7.2364597e-05 0.0086552402)
(-1.3272448e-05 0.00010535219 0.012062835)
(-1.3967472e-05 0.00014720072 0.015894953)
(-6.3396883e-06 0.00019978372 0.020098838)
(-2.4652537e-06 0.00026237889 0.024609812)
(1.4132375e-05 0.00034121175 0.029294968)
(5.3272443e-05 0.00043965695 0.033921426)
(9.3642726e-05 0.00055007769 0.038090358)
(0.00011372387 0.00067334885 0.040967317)
(-2.3756819e-06 9.3155906e-06 0.0010692649)
(-6.1846132e-06 2.9606508e-05 0.0033827178)
(-9.5051133e-06 5.4432166e-05 0.0061266282)
(-1.248558e-05 8.5243967e-05 0.0093226532)
(-1.2498585e-05 0.00012419905 0.012970178)
(-6.4503841e-06 0.00017333122 0.017044079)
(8.3303326e-06 0.00023496604 0.021535682)
(4.0425496e-05 0.00031628731 0.026356699)
(9.4258437e-05 0.00042288133 0.031382187)
(0.00017147583 0.00055466889 0.036371139)
(0.0002880734 0.00071741476 0.040887167)
(0.00035209961 0.0009278666 0.044093364)
(-2.5279595e-06 9.0453969e-06 0.0011805044)
(-6.6070781e-06 2.8561441e-05 0.003727228)
(-1.039861e-05 5.2541938e-05 0.0067582542)
(-1.0475571e-05 8.3418863e-05 0.010284278)
(-5.7221598e-06 0.00012308578 0.014307193)
(9.3196816e-06 0.00017544762 0.018806113)
(4.1321731e-05 0.00024515317 0.023731662)
(0.00010071781 0.00033877924 0.028993558)
(0.00020024332 0.00046514227 0.034438123)
(0.00035344258 0.0006346268 0.039803094)
(0.00055960181 0.00085960405 0.044639433)
(0.0007958212 0.001180404 0.048140288)
(-9.5914522e-07 4.6747718e-06 0.0013219865)
(-1.7635626e-06 1.5612826e-05 0.0041821522)
(6.296086e-07 3.0850262e-05 0.0075706446)
(9.4058927e-06 5.2531162e-05 0.011507301)
(2.850365e-05 8.3774961e-05 0.015988274)
(6.5201938e-05 0.0001290392 0.020978879)
(0.00012989672 0.00019463033 0.026404349)
(0.00023741421 0.0002892624 0.032136592)
(0.00040661889 0.00042469975 0.037974467)
(0.00065837367 0.00061574683 0.043611794)
(0.0010077325 0.00088182619 0.048579147)
(0.0014484783 0.0012639723 0.052116735)
(1.0927627e-07 2.2113385e-06 0.0014892781)
(1.9586377e-06 7.9006224e-06 0.0047067069)
(8.4785963e-06 1.7241066e-05 0.0085060662)
(2.3750249e-05 3.2890259e-05 0.012900457)
(5.3210241e-05 5.8251489e-05 0.017868751)
(0.00010646908 9.902778e-05 0.0233461)
(0.00019747149 0.00016335977 0.02921351)
(0.00034629218 0.00026298551 0.035286389)
(0.00057967222 0.00041408303 0.041301878)
(0.00093135544 0.00063827482 0.046901483)
(0.0014426752 0.00096313197 0.051595585)
(0.0021636772 0.0014099221 0.054669558)
(-1.5796474e-07 4.2034993e-06 0.00091502112)
(-6.0878798e-07 1.2900286e-05 0.0029025483)
(-1.2864609e-06 2.2452953e-05 0.0052770866)
(-2.2833874e-06 3.238835e-05 0.0080730018)
(-3.6624935e-06 4.2057501e-05 0.011314679)
(-5.4400929e-06 5.0502099e-05 0.0150113)
(-7.2517385e-06 5.613581e-05 0.019144976)
(-9.2076861e-06 6.124421e-05 0.023673477)
(-1.3031974e-05 6.6332975e-05 0.028488845)
(-9.9664916e-06 7.1234751e-05 0.033354697)
(-2.4923884e-05 7.1607728e-05 0.037788852)
(-1.3268552e-05 7.1928447e-05 0.040809596)
(-8.5865195e-07 6.8110798e-06 0.0009497805)
(-2.3136748e-06 2.1086266e-05 0.0030075736)
(-4.0840044e-06 3.7107846e-05 0.0054661114)
(-5.543095e-06 5.4810285e-05 0.0083630524)
(-6.9033859e-06 7.3124066e-05 0.011727107)
(-6.5643237e-06 9.0619377e-05 0.015573106)
(-1.2319892e-05 0.00010563163 0.019889113)
(-1.4302856e-05 0.00011968993 0.024639386)
(-1.6316227e-05 0.00013064486 0.029715732)
(-1.6637901e-05 0.00013829089 0.034870188)
(-2.2999301e-05 0.00014268531 0.039601073)
(4.6706581e-06 0.00015894449 0.042908023)
(-1.3583177e-06 7.482196e-06 0.0010259709)
(-3.4474974e-06 2.3578454e-05 0.0032504266)
(-8.2746597e-06 4.1934182e-05 0.0059062307)
(-5.9317044e-06 6.3873904e-05 0.0090336197)
(-8.1199909e-06 8.4972414e-05 0.012663417)
(-7.6797019e-06 0.00010714176 0.016813437)
(-4.0661206e-06 0.00012951296 0.02148668)
(-1.4781971e-07 0.00014664647 0.026614315)
(6.555872e-06 0.0001578451 0.032056393)
(1.6818999e-05 0.00016761069 0.037553638)
(3.6263031e-05 0.00018484184 0.042605719)
(7.7697212e-05 0.00022083616 0.046242319)
(-1.9820774e-06 7.5035176e-06 0.0011418371)
(-5.750917e-06 2.3659698e-05 0.0036156374)