/*--------------------------------*- C++ -*----------------------------------*\
| =========                 |                                                 |
| \\      /  F ield         | OpenFOAM: The Open Source CFD Toolbox           |
|  \\    /   O peration     | Version:  3.0.1                                 |
|   \\  /    A nd           | Web:      www.OpenFOAM.org                      |
|    \\/     M anipulation  |                                                 |
\*---------------------------------------------------------------------------*/
FoamFile
{
    version     2.0;
    format      ascii;
    class       surfaceScalarField;
    location    "2674";
    object      phi;
}
// * * * * * * * * * * * * * * * * * * * * * * * * * * * * * * * * * * * * * //

dimensions      [1 0 -1 0 0 0 0];

internalField   nonuniform List<scalar> 
229200
(
-8.848364e-10
4.8744754e-10
1.7550439e-08
-3.1029797e-09
9.8194917e-10
5.3280035e-08
-6.9098165e-09
1.6305282e-09
9.4777713e-08
-1.2108534e-08
2.1785962e-09
1.4193476e-07
-1.9143129e-08
3.3777337e-09
1.9508166e-07
-2.6847257e-08
3.6857737e-09
2.5503846e-07
-3.5911391e-08
4.8956493e-09
3.2304949e-07
-4.5794104e-08
5.6823143e-09
4.0072824e-07
-5.5798609e-08
5.8803931e-09
4.9002657e-07
-6.8357166e-08
8.286192e-09
5.9301915e-07
-8.070294e-08
8.1530181e-09
7.1249147e-07
-9.2025969e-08
7.4054018e-09
8.5101692e-07
-1.0518414e-07
8.9323116e-09
1.0108018e-06
-1.1621914e-07
7.5429051e-09
1.1958578e-06
-1.2713564e-07
7.4347105e-09
1.4075196e-06
-1.3689328e-07
7.1217404e-09
1.6494273e-06
-1.4865792e-07
8.3081443e-09
1.9221254e-06
-1.5734144e-07
6.8827049e-09
2.2324231e-06
-1.6886881e-07
7.9170516e-09
2.5767796e-06
-1.8107026e-07
8.7707005e-09
2.9663261e-06
-1.8973683e-07
7.3105417e-09
3.4043296e-06
-2.0336459e-07
9.0542132e-09
3.8823775e-06
-2.1891085e-07
9.7626022e-09
4.4213008e-06
-2.3266365e-07
9.8859841e-09
5.0328739e-06
-2.4393927e-07
7.161845e-09
5.7090646e-06
-2.6009977e-07
1.1092095e-08
6.4553569e-06
-2.6901877e-07
7.6546962e-09
7.2847163e-06
-2.827261e-07
1.0971907e-08
8.1635253e-06
-2.9224036e-07
9.131079e-09
9.1044924e-06
-2.9968753e-07
8.6046144e-09
1.0075664e-05
-3.1348773e-07
1.0997704e-08
1.1040193e-05
-3.1626058e-07
9.2204555e-09
1.2030888e-05
-3.1005168e-07
7.3066979e-09
1.2885809e-05
-3.1729262e-07
1.0313393e-08
1.3426264e-05
-3.07329e-07
7.6675205e-09
1.3740553e-05
-3.1109824e-07
6.8306438e-09
1.3467581e-05
-2.715813e-07
6.9069293e-09
1.2708518e-05
-2.6328602e-07
-8.6749334e-12
1.0517956e-05
-4.1982824e-07
2.1271805e-08
7.0885106e-06
-2.0829167e-09
4.0462802e-06
-6.2738667e-10
7.4623686e-10
1.7545975e-08
-2.2086487e-09
1.3987777e-09
5.3253858e-08
-4.819139e-09
2.1893504e-09
9.4717748e-08
-8.5707127e-09
3.0972075e-09
1.418237e-07
-1.2691946e-08
4.1260244e-09
1.9488694e-07
-1.7611365e-08
4.9775456e-09
2.5469002e-07
-2.222887e-08
5.8755758e-09
3.2241101e-07
-2.6453735e-08
6.4335127e-09
3.9956586e-07
-3.0570597e-08
6.7726629e-09
4.8791321e-07
-3.2322331e-08
7.0839495e-09
5.8938431e-07
-3.3459474e-08
6.6162126e-09
7.0607236e-07
-3.4749835e-08
6.2398094e-09
8.4008782e-07
-3.4181869e-08
6.0630401e-09
9.936123e-07
-3.4071922e-08
5.2600681e-09
1.1689262e-06
-3.3825211e-08
5.0328736e-09
1.3682474e-06
-3.3509323e-08
4.6122402e-09
1.5940214e-06
-3.1976235e-08
4.4981597e-09
1.8488209e-06
-3.1270921e-08
3.8188328e-09
2.1354346e-06
-2.9857818e-08
3.9246031e-09
2.4568062e-06
-2.7316499e-08
3.5734842e-09
2.8166492e-06
-2.5823935e-08
3.0273546e-09
3.2182113e-06
-2.3092103e-08
3.3001994e-09
3.6653856e-06
-1.9049735e-08
2.722541e-09
4.162973e-06
-1.4516115e-08
2.5698786e-09
4.7142702e-06
-1.1987615e-08
1.6597996e-09
5.3202055e-06
-6.8950779e-09
2.9265605e-09
5.9842368e-06
-3.1064806e-09
1.0689956e-09
6.7050308e-06
1.8475687e-09
2.7971686e-09
7.4778868e-06
7.4854352e-09
1.1503029e-09
8.2957457e-06
1.1179618e-08
1.8747072e-09
9.1364353e-06
1.776443e-08
1.9441333e-09
9.9810984e-06
2.4372372e-08
1.2075839e-09
1.0785533e-05
2.8015514e-08
1.1111415e-09
1.1475113e-05
3.3845423e-08
1.9920735e-09
1.1977881e-05
3.93792e-08
3.8410409e-10
1.2180418e-05
4.0407028e-08
1.3134876e-09
1.1919492e-05
4.0737627e-08
7.9846097e-10
1.1032404e-05
2.3068082e-08
5.7881682e-10
9.2914622e-06
2.013738e-08
5.3475825e-09
6.5506186e-06
-3.1240508e-09
2.549587e-06
-5.9465014e-10
1.000363e-09
1.7519964e-08
-1.8942828e-09
1.6181689e-09
5.314044e-08
-3.986213e-09
2.3779643e-09
9.4450978e-08
-6.7451491e-09
3.2395773e-09
1.4129622e-07
-9.8044375e-09
4.0969133e-09
1.9392534e-07
-1.289149e-08
4.7858358e-09
2.5300519e-07
-1.548439e-08
5.2458e-09
3.1956113e-07
-1.7412787e-08
5.367838e-09
3.9489506e-07
-1.8538536e-08
5.2213906e-09
4.8049517e-07
-1.8620587e-08
4.8231492e-09
5.7796646e-07
-1.8263547e-08
4.2191468e-09
6.889842e-07
-1.7501041e-08
3.6763975e-09
8.1526985e-07
-1.6192286e-08
3.1222529e-09
9.5859487e-07
-1.5052373e-08
2.5944131e-09
1.1207842e-06
-1.3758527e-08
2.2605031e-09
1.3037559e-06
-1.2569768e-08
1.959793e-09
1.5095264e-06
-1.1289619e-08
1.7444656e-09
1.7402341e-06
-1.0552338e-08
1.5904537e-09
1.9981165e-06
-9.7537109e-09
1.60893e-09
2.2855866e-06
-9.2435297e-09
1.5325524e-09
2.6050701e-06
-9.4137615e-09
1.6535976e-09
2.9590195e-06
-9.4810174e-09
1.8148919e-09
3.3498978e-06
-1.021561e-08
1.929812e-09
3.7797054e-06
-1.1345535e-08
2.1523085e-09
4.2499725e-06
-1.3793528e-08
2.5737695e-09
4.7614306e-06
-1.5333569e-08
2.9237371e-09
5.3139148e-06
-1.884492e-08
3.1335787e-09
5.9040942e-06
-2.1190187e-08
3.7237646e-09
6.5270398e-06
-2.4881216e-08
3.6231506e-09
7.1714703e-06
-2.8420478e-08
4.278712e-09
7.8217217e-06
-3.1344689e-08
4.1157572e-09
8.4533488e-06
-3.4813241e-08
4.1509462e-09
9.0293925e-06
-3.8101082e-08
4.265466e-09
9.502602e-06
-3.9561985e-08
3.8900499e-09
9.8100116e-06
-4.1588805e-08
3.3664569e-09
9.8673057e-06
-4.170469e-08
3.2072427e-09
9.5768628e-06
-4.016039e-08
2.1480524e-09
8.8177539e-06
-3.5881102e-08
2.021986e-09
7.4464659e-06
-1.9373862e-08
1.9304987e-10
5.2805827e-06
-1.9478111e-09
2.0538552e-06
-9.5906127e-11
7.9010366e-10
1.7437738e-08
-5.5476443e-10
1.0973072e-09
5.284124e-08
-1.3876613e-09
1.4717505e-09
9.3827699e-08
-2.4653752e-09
1.9137588e-09
1.4019358e-07
-3.5312486e-09
2.3143729e-09
1.921097e-07
-4.3404337e-09
2.5623947e-09
2.5012668e-07
-4.6909379e-09
2.6136981e-09
3.1512232e-07
-4.5509505e-09
2.4644624e-09
3.8822382e-07
-3.9555191e-09
2.1744178e-09
4.7072889e-07
-3.0558305e-09
1.8088802e-09
5.6404363e-07
-2.0826239e-09
1.4440469e-09
6.6964286e-07
-1.1022516e-09
1.1531778e-09
7.8905301e-07
-2.5916675e-10
9.3255357e-10
9.2384971e-07
3.277633e-10
7.9597719e-10
1.0756663e-06
7.0664852e-10
7.5289743e-10
1.2462076e-06
8.3187932e-10
7.4983647e-10
1.4372527e-06
7.0747845e-10
7.9948881e-10
1.6506559e-06
3.4140381e-10
8.8185229e-10
1.8883334e-06
-1.3939749e-10
9.9167004e-10
2.1522411e-06
-8.3898489e-10
1.0993509e-09
2.4443205e-06
-1.6040987e-09
1.23837e-09
2.7664605e-06
-2.3951723e-09
1.3693878e-09
3.1203591e-06
-3.2515528e-09
1.4839114e-09
3.5073775e-06
-4.120631e-09
1.6473584e-09
3.9283629e-06
-4.7444775e-09
1.7504678e-09
4.3833332e-06
-5.141722e-09
1.8148414e-09
4.8709897e-06
-5.3617817e-09
1.8083908e-09
5.3881072e-06
-5.0158124e-09
1.801794e-09
5.9288148e-06
-4.5810605e-09
1.6469231e-09
6.4833023e-06
-3.3617304e-09
1.5549214e-09
7.0368325e-06
-1.8356538e-09
1.2083088e-09
7.5675477e-06
7.4392538e-11
9.8462371e-10
8.0449515e-06
2.6092706e-09
6.162355e-10
8.4277854e-06
5.4170406e-09
2.0653471e-10
8.6627406e-06
8.1598111e-09
-9.3598198e-11
8.6811384e-06
1.0943942e-08
-3.2582922e-10
8.3970448e-06
1.2591635e-08
-4.1011929e-10
7.7048527e-06
1.3062677e-08
-2.8659723e-10
6.4749732e-06
9.3960331e-09
-2.3498163e-11
4.5515521e-06
3.2884492e-10
1.7459794e-06
5.6938542e-10
-5.5593709e-11
1.7357295e-08
8.6431695e-10
-9.5296481e-11
5.2548036e-08
8.3257023e-10
-1.1969317e-10
9.3256015e-08
6.1773388e-10
-1.3946223e-10
1.3924467e-07
3.7896048e-10
-1.5670534e-10
1.9063899e-07
2.0843318e-10
-1.7070784e-10
2.479236e-07
1.3462248e-10
-1.8028954e-10
3.1189768e-07
1.2413179e-10
-1.8449992e-10
3.8360444e-07
1.3101859e-10
-1.8276393e-10
4.6425793e-07
1.0753783e-10
-1.7485247e-10
5.5518239e-07
3.0350897e-11
-1.6075158e-10
6.5777071e-07
-8.2795933e-11
-1.4060248e-10
7.7346264e-07
-2.3162172e-10
-1.1466238e-10
9.0373826e-07
-4.0215162e-10
-8.3143692e-11
1.0501212e-06
-5.627712e-10
-4.6330691e-11
1.2141843e-06
-7.228366e-10
-4.5619601e-12
1.3975515e-06
-8.6764754e-10
4.1833531e-11
1.6018939e-06
-9.9229662e-10
9.2244555e-11
1.8289134e-06
-1.0895771e-09
1.4589381e-10
2.0803141e-06
-1.1755867e-09
2.015742e-10
2.3577543e-06
-1.2297678e-09
2.578593e-10
2.6627768e-06
-1.2648423e-09
3.1239442e-10
2.9967039e-06
-1.2975792e-09
3.631908e-10
3.3604909e-06
-1.2752613e-09
4.0734308e-10
3.7545219e-06
-1.2408349e-09
4.421555e-10
4.1783146e-06
-1.2068195e-09
4.6534372e-10
4.6301122e-06
-1.2077724e-09
4.7448183e-10
5.1063257e-06
-1.2013518e-09
4.6796918e-10
5.6008228e-06
-1.2784332e-09
4.4481493e-10
6.1039915e-06
-1.3288445e-09
4.0646439e-10
6.6016155e-06
-1.5341765e-09
3.5405788e-10
7.0734917e-06
-1.7481531e-09
2.9656866e-10
7.4918925e-06
-2.0764306e-09
2.3290866e-10
7.8199389e-06
-2.5642907e-09
1.8293944e-10
8.0098543e-06
-3.1502912e-09
1.4352849e-10
8.0011503e-06
-3.8059509e-09
1.2793469e-10
7.7186001e-06
-4.3915673e-09
1.3539193e-10
7.0695045e-06
-4.5195518e-09
1.5683616e-10
5.9393529e-06
-3.3712138e-09
1.5624947e-10
4.1838567e-06
7.5439324e-11
1.6158295e-06
5.4193236e-10
-8.7530669e-10
1.734931e-08
8.0214251e-10
-1.2592023e-09
5.2518227e-08
7.4167649e-10
-1.6897463e-09
9.3185975e-08
5.0401205e-10
-2.1772211e-09
1.3911264e-07
2.4656768e-10
-2.6156258e-09
1.9041807e-07
6.0829824e-11
-2.8936349e-09
2.475819e-07
-2.4431319e-11
-2.9661213e-09
3.1139809e-07
-4.2019229e-11
-2.8281847e-09
3.829039e-07
-3.6897418e-11
-2.5386867e-09
4.63307e-07
-5.5894171e-11
-2.1624111e-09
5.5392413e-07
-1.2163884e-10
-1.7752692e-09
6.5613911e-07
-2.160595e-10
-1.4505585e-09
7.7138087e-07
-3.3838633e-10
-1.1847635e-09
9.0111703e-07
-4.7459222e-10
-9.9174068e-10
1.0468561e-06
-5.9313951e-10
-8.8122436e-10
1.2101528e-06
-7.0347379e-10
-8.0036907e-10
1.3926098e-06
-7.912328e-10
-7.6203586e-10
1.5958726e-06
-8.5256241e-10
-7.4729492e-10
1.8216125e-06
-8.8108429e-10
-7.5210498e-10
2.071497e-06
-8.95105e-10
-7.4844725e-10
2.3471403e-06
-8.7613368e-10
-7.7240007e-10
2.6500329e-06
-8.4013294e-10
-7.8917564e-10
2.9814377e-06
-8.0678078e-10
-7.9423479e-10
3.3422431e-06
-7.2735529e-10
-8.5774825e-10
3.7327599e-06
-6.4873216e-10
-8.773797e-10
4.1524334e-06
-5.8713109e-10
-8.7893857e-10
4.5994392e-06
-5.8076035e-10
-8.3619903e-10
5.0701378e-06
-5.8929065e-10
-8.2564183e-10
5.5583771e-06
-7.0306067e-10
-7.0386174e-10
6.0545871e-06
-8.126826e-10
-6.7941196e-10
6.544673e-06
-1.0917296e-09
-4.4148356e-10
7.0086917e-06
-1.3838384e-09
-3.5482533e-10
7.4193249e-06
-1.7875865e-09
-1.4752349e-10
7.7403336e-06
-2.3407466e-09
1.158434e-10
7.924752e-06
-2.960119e-09
2.6861624e-10
7.9130651e-06
-3.6089177e-09
3.8083527e-10
7.6312941e-06
-4.1538433e-09
3.9725029e-10
6.9881613e-06
-4.2336914e-09
2.5845148e-10
5.8705499e-06
-3.1082968e-09
1.4354029e-11
4.1355008e-06
-2.956751e-10
1.5973178e-06
-1.5067396e-10
-1.0346534e-09
1.7412531e-08
-6.9384365e-10
-1.7073196e-09
5.2741381e-08
-1.6174122e-09
-2.5224857e-09
9.3605033e-08
-2.7818129e-09
-3.4358097e-09
1.3978373e-07
-3.9252748e-09
-4.339163e-09
1.9143185e-07
-4.8000362e-09
-5.0670272e-09
2.4908296e-07
-5.2019338e-09
-5.5579877e-09
3.1359643e-07
-5.0973152e-09
-5.7025647e-09
3.8607919e-07
-4.5194484e-09
-5.5696065e-09
4.6780618e-07
-3.6178745e-09
-5.1756031e-09
5.6015773e-07
-2.6216455e-09
-4.5662568e-09
6.6457879e-07
-1.5959866e-09
-4.00826e-09
7.8256052e-07
-6.8373867e-10
-3.4295811e-09
9.1563736e-07
-2.7243263e-12
-2.8670062e-09
1.0653936e-06
4.9566372e-10
-2.4884667e-09
1.2334742e-06
7.6617429e-10
-2.133283e-09
1.4215898e-06
8.1244435e-10
-1.8525806e-09
1.6315127e-06
6.4163639e-10
-1.6230327e-09
1.8650616e-06
3.7885121e-10
-1.5550188e-09
2.1240768e-06
-8.1702928e-11
-1.3827478e-09
2.4103621e-06
-5.9693158e-10
-1.3971112e-09
2.7256294e-06
-1.131845e-09
-1.447122e-09
3.0713978e-06
-1.739218e-09
-1.4425508e-09
3.4488194e-06
-2.3762209e-09
-1.5463321e-09
3.8585101e-06
-2.7985429e-09
-1.8530607e-09
4.3002518e-06
-3.0403764e-09
-2.0963112e-09
4.7725368e-06
-3.167398e-09
-2.2116628e-09
5.2719861e-06
-2.8086522e-09
-2.7261816e-09
5.7926691e-06
-2.4520751e-09
-2.5800126e-09
6.3249454e-06
-1.4147299e-09
-3.2169256e-09
6.8544666e-06
-1.7623173e-10
-3.0823883e-09
7.3602752e-06
1.3162771e-09
-3.1771682e-09
7.8132563e-06
3.4437056e-09
-3.4168019e-09
8.1747924e-06
5.7738643e-09
-3.168469e-09
8.393952e-06
8.0320465e-09
-2.8119002e-09
8.4052434e-06
1.0391795e-08
-2.8295902e-09
8.1264721e-06
1.1767501e-08
-1.9551503e-09
7.4559573e-06
1.2164576e-08
-1.9487678e-09
6.2677664e-06
8.7449615e-09
-2.1160772e-10
4.4092162e-06
1.8853794e-09
1.6937969e-06
-6.2833459e-10
-7.5060047e-10
1.7471036e-08
-2.004046e-09
-1.4241834e-09
5.2955002e-08
-4.2062843e-09
-2.2434711e-09
9.4051521e-08
-7.0985997e-09
-3.1844024e-09
1.4057809e-07
-1.030294e-08
-4.2479505e-09
1.9275419e-07
-1.3536372e-08
-5.1337542e-09
2.5121439e-07
-1.6268435e-08
-6.0639232e-09
3.1694851e-07
-1.8321692e-08
-6.6506517e-09
3.9121886e-07
-1.9552153e-08
-7.0144604e-09
4.7546867e-07
-1.9714209e-08
-7.3453547e-09
5.7125149e-07
-1.9409488e-08
-6.8907056e-09
6.801836e-07
-1.8668374e-08
-6.5213921e-09
8.0391536e-07
-1.734656e-08
-6.3465683e-09
9.4413484e-07
-1.6157013e-08
-5.5383921e-09
1.10257e-06
-1.4773687e-08
-5.3000055e-09
1.281019e-06
-1.3449114e-08
-4.8652701e-09
1.4813609e-06
-1.198499e-08
-4.7285778e-09
1.7055695e-06
-1.1013052e-08
-4.0189439e-09
1.9556926e-06
-9.9219119e-09
-4.0907768e-09
2.2339082e-06
-9.0614854e-09
-3.6963659e-09
2.5423838e-06
-8.8264218e-09
-3.0941317e-09
2.8832608e-06
-8.4283581e-09
-3.3122635e-09
3.2586348e-06
-8.6440668e-09
-2.6676232e-09
3.6701277e-06
-9.2285011e-09
-2.4255106e-09
4.1188207e-06
-1.1107504e-08
-1.4326281e-09
4.6049954e-06
-1.2057789e-08
-2.6284716e-09
5.1280015e-06
-1.5011455e-08
-6.6756561e-10
5.6843004e-06
-1.6826112e-08
-2.3296114e-09
6.2686722e-06
-2.0076759e-08
-5.9839795e-10
6.8703005e-06
-2.3298644e-08
-1.2440478e-09
7.474146e-06
-2.6018942e-08
-1.3125898e-09
8.0575336e-06
-2.9546508e-08
-4.9294827e-10
8.5863839e-06
-3.3097502e-08
-4.3128644e-10
9.0173756e-06
-3.4938338e-08
-1.3809353e-09
9.2929961e-06
-3.7572055e-08
1.9870706e-10
9.3360303e-06
-3.8422821e-08
-8.5000305e-10
9.0553882e-06
-3.7662805e-08
-4.4006314e-10
8.3378923e-06
-3.4077858e-08
-3.6480597e-10
7.0461946e-06
-1.8201788e-08
-5.3221533e-09
5.0030823e-06
3.2459856e-09
1.9497962e-06
-6.3610858e-10
-4.8587325e-10
1.7473588e-08
-2.2509752e-09
-9.8369543e-10
5.298468e-08
-4.9240584e-09
-1.6392831e-09
9.4146324e-08
-8.7669223e-09
-2.1969286e-09
1.4080739e-07
-1.3003615e-08
-3.4083623e-09
1.9323993e-07
-1.8058246e-08
-3.7287392e-09
2.5217732e-07
-2.2821941e-08
-4.9536085e-09
3.1874149e-07
-2.7198132e-08
-5.7546518e-09
3.9438462e-07
-3.1467221e-08
-5.9649646e-09
4.8079144e-07
-3.3353768e-08
-8.3946224e-09
5.7980651e-07
-3.4615588e-08
-8.2709812e-09
6.9342447e-07
-3.6021441e-08
-7.5256563e-09
8.236341e-07
-3.5537451e-08
-9.0724978e-09
9.7247004e-07
-3.5503952e-08
-7.6726398e-09
1.142047e-06
-3.5314673e-08
-7.5607298e-09
1.3343707e-06
-3.5037334e-08
-7.2425309e-09
1.5516418e-06
-3.3498409e-08
-8.4421413e-09
1.7961405e-06
-3.2785119e-08
-6.9823652e-09
2.0703312e-06
-3.1313758e-08
-8.0283416e-09
2.37674e-06
-2.866085e-08
-8.8885527e-09
2.7186339e-06
-2.705169e-08
-7.3769279e-09
3.0987611e-06
-2.4123379e-08
-9.148315e-09
3.5203707e-06
-1.9796304e-08
-9.8774484e-09
3.9876549e-06
-1.49284e-08
-9.9649887e-09
4.5032287e-06
-1.2113899e-08
-7.130631e-09
5.0673234e-06
-6.5751914e-09
-1.1172974e-08
5.6824559e-06
-2.4241724e-09
-7.587781e-09
6.3470017e-06
2.9931662e-09
-1.1010808e-08
7.0556807e-06
9.0382488e-09
-9.0850522e-09
7.8021109e-06
1.3053391e-08
-8.4843479e-09
8.565229e-06
2.0019338e-08
-1.1044609e-08
9.3283813e-06
2.6871228e-08
-9.1400465e-09
1.0052255e-05
3.0413175e-08
-7.1348396e-09
1.0668999e-05
3.6119988e-08
-1.0376987e-08
1.1115586e-05
4.1283537e-08
-7.586875e-09
1.129086e-05
4.1791295e-08
-6.8137986e-09
1.1045607e-05
4.1346409e-08
-6.8049325e-09
1.0229242e-05
2.2588895e-08
2.189747e-10
8.6266174e-06
1.9611859e-08
-2.1993007e-08
6.0961962e-06
2.1064234e-09
2.3829648e-06
-8.8560717e-10
1.7463579e-08
-3.1141439e-09
5.2958574e-08
-6.945129e-09
9.4096977e-08
-1.2182897e-08
1.4072515e-07
-1.9271342e-08
1.9311975e-07
-2.7040286e-08
2.520377e-07
-3.6178873e-08
3.1864926e-07
-4.6141544e-08
3.9448159e-07
-5.6226463e-08
4.8138476e-07
-6.8876744e-08
5.8131221e-07
-8.1308789e-08
6.9690506e-07
-9.2703221e-08
8.3056393e-07
-1.0593839e-07
9.8428819e-07
-1.1701527e-07
1.161833e-06
-1.2795039e-07
1.3642416e-06
-1.3769179e-07
1.5947875e-06
-1.4944691e-07
1.8536094e-06
-1.5804539e-07
2.1469875e-06
-1.695234e-07
2.4708665e-06
-1.8167248e-07
2.8356487e-06
-1.9018596e-07
3.2438728e-06
-2.0379773e-07
3.6864445e-06
-2.1941744e-07
4.1832078e-06
-2.3317804e-07
4.7450506e-06
-2.4440267e-07
5.3633467e-06
-2.607221e-07
6.0429179e-06
-2.6956397e-07
6.7963685e-06
-2.8346566e-07
7.5908111e-06
-2.931225e-07
8.4399238e-06
-3.0073388e-07
9.314737e-06
-3.1531339e-07
1.0183081e-05
-3.1835067e-07
1.1083654e-05
-3.1208126e-07
1.1864996e-05
-3.2029282e-07
1.2361547e-05
-3.1044047e-07
1.267131e-05
-3.1495551e-07
1.2450154e-05
-2.7361485e-07
1.1801424e-05
-2.652329e-07
9.7979406e-06
-4.2850726e-07
6.624026e-06
3.8560887e-06
-2.0573422e-09
5.6959624e-10
1.903819e-08
-7.6993464e-09
1.5172215e-09
5.7404813e-08
-1.7100459e-08
2.8964866e-09
1.0128234e-07
-2.9717111e-08
4.318364e-09
1.5023306e-07
-4.5510229e-08
6.4682211e-09
2.0440656e-07
-6.2675593e-08
7.617452e-09
2.6458637e-07
-8.1404293e-08
9.6258477e-09
3.3215236e-07
-1.0062591e-07
1.1008291e-08
4.0894156e-07
-1.1927603e-07
1.1554237e-08
4.9712243e-07
-1.3981103e-07
1.4475905e-08
5.9907825e-07
-1.5901835e-07
1.4280926e-08
7.1741786e-07
-1.7596628e-07
1.3186108e-08
8.5477874e-07
-1.9367858e-07
1.4733455e-08
1.0137806e-06
-2.0785997e-07
1.2580952e-08
1.1974582e-06
-2.2039768e-07
1.189868e-08
1.4081586e-06
-2.307011e-07
1.0990647e-08
1.6487401e-06
-2.4187353e-07
1.2006313e-08
1.9212915e-06
-2.4886693e-07
9.5096391e-09
2.2299069e-06
-2.5790953e-07
1.0451951e-08
2.5753702e-06
-2.6714409e-07
1.11106e-08
2.96445e-06
-2.7189036e-07
8.57369e-09
3.4005022e-06
-2.8194321e-07
1.0674044e-08
3.8817562e-06
-2.9436517e-07
1.1513471e-08
4.4222093e-06
-3.0449008e-07
1.1055181e-08
5.0319435e-06
-3.1056496e-07
6.8520921e-09
5.7082875e-06
-3.2287997e-07
1.225302e-08
6.4554189e-06
-3.2592242e-07
7.0836462e-09
7.2806751e-06
-3.3487846e-07
1.1747501e-08
8.1607338e-06
-3.3849363e-07
8.8564678e-09
9.0992511e-06
-3.3932219e-07
7.6343168e-09
1.0068858e-05
-3.484876e-07
1.1548489e-08
1.103781e-05
-3.4309907e-07
8.1366468e-09
1.2017363e-05
-3.2622498e-07
5.1563118e-09
1.2863778e-05
-3.2657168e-07
9.7130726e-09
1.3416898e-05
-3.0711975e-07
5.1164544e-09
1.3715984e-05
-3.0217106e-07
3.6801173e-09
1.3458953e-05
-2.4964683e-07
1.7867484e-09
1.2654207e-05
-2.4387044e-07
-6.5094959e-09
1.0518689e-05
-4.0312502e-07
2.0450179e-08
7.2273148e-06
-1.5550309e-08
3.6587057e-06
-2.008389e-09
1.1060912e-09
1.901787e-08
-7.3714861e-09
2.8064146e-09
5.7327756e-08
-1.5982983e-08
5.1046727e-09
1.0112106e-07
-2.7470459e-08
7.6751972e-09
1.4995434e-07
-4.0351825e-08
1.0285558e-08
2.0395097e-07
-5.436497e-08
1.2457451e-08
2.6386316e-07
-6.7609603e-08
1.4290357e-08
3.3099112e-07
-7.9444354e-08
1.5348739e-08
4.0706022e-07
-8.9800915e-08
1.5757907e-08
4.9406606e-07
-9.5831097e-08
1.5744928e-08
5.9414546e-07
-9.9609229e-08
1.4621308e-08
7.0951011e-07
-1.0207829e-07
1.336154e-08
8.4238145e-07
-1.009154e-07
1.2194744e-08
9.9498814e-07
-9.9327725e-08
1.0348883e-08
1.1695706e-06
-9.6686182e-08
9.098409e-09
1.3684061e-06
-9.3362322e-08
7.803191e-09
1.5938851e-06
-8.7971181e-08
6.8763081e-09
1.8485597e-06
-8.3657295e-08
5.499745e-09
2.1351307e-06
-7.8128813e-08
5.0639007e-09
2.4566656e-06
-7.1261199e-08
4.2723087e-09
2.81662e-06
-6.6144136e-08
3.3298624e-09
3.218338e-06
-5.9319091e-08
3.3905565e-09
3.6658442e-06
-5.0997492e-08
2.6444592e-09
4.1635204e-06
-4.2549259e-08
2.1902753e-09
4.7146869e-06
-3.749117e-08
1.1891084e-09
5.3208103e-06
-2.8565672e-08
2.4707729e-09
5.9850937e-06
-2.2656542e-08
5.3832979e-10
6.7056668e-06
-1.4218265e-08
2.2689932e-09
7.4789271e-06
-6.2597912e-09
5.8108724e-10
8.2960627e-06
-5.40324e-10
1.1736913e-09
9.1371764e-06
9.3457329e-09
1.4203371e-09
9.9813405e-06
1.8447319e-08
3.3304273e-10
1.0784235e-05
2.4086573e-08
1.5811422e-10
1.1474472e-05
3.3306259e-08
1.0563551e-09
1.1977317e-05
4.0996863e-08
-9.2858017e-10
1.2178773e-05
4.3837147e-08
-2.1285839e-10
1.1920544e-05
4.2849022e-08
-8.9069432e-10
1.103607e-05
2.1883172e-08
-1.105009e-09
9.3070227e-06
1.87744e-08
3.9009581e-09
6.5702769e-06
-5.8863628e-09
2.5586975e-06
-2.14528e-09
1.8043069e-09
1.896703e-08
-7.134343e-09
3.8038146e-09
5.71321e-08
-1.4570031e-08
6.2861512e-09
1.007052e-07
-2.3620943e-08
8.8087659e-09
1.4921355e-07
-3.3132795e-08
1.0997189e-08
2.0272558e-07
-4.2086291e-08
1.2530211e-08
2.6188593e-07
-4.9366876e-08
1.3293518e-08
3.2783852e-07
-5.4423419e-08
1.3209319e-08
4.0209101e-07
-5.6963622e-08
1.2428482e-08
4.8636485e-07
-5.6822313e-08
1.109614e-08
5.824739e-07
-5.4852509e-08
9.3882693e-09
6.9224744e-07
-5.141691e-08
7.6922791e-09
8.1750349e-07
-4.6734575e-08
6.0588097e-09
9.6004845e-07
-4.1872843e-08
4.5746278e-09
1.1216967e-06
-3.6805335e-08
3.4502094e-09
1.3043366e-06
-3.1953221e-08
2.5454538e-09
1.509932e-06
-2.7299546e-08
1.8830276e-09
1.7405737e-06
-2.3565975e-08
1.425848e-09
1.9984569e-06
-2.013772e-08
1.2505582e-09
2.2859716e-06
-1.7390754e-08
1.0854224e-09
2.6055099e-06
-1.5715483e-08
1.1544183e-09
2.9595199e-06
-1.4221136e-08
1.3313415e-09
3.3504627e-06
-1.3647818e-08
1.4678481e-09
3.7803086e-06
-1.3845113e-08
1.7304451e-09
4.2506296e-06
-1.5558427e-08
2.1999028e-09
4.7621332e-06
-1.6463209e-08
2.6192909e-09
5.3146708e-06
-1.9497256e-08
2.8712131e-09
5.9047954e-06
-2.1366583e-08
3.4622013e-09
6.527716e-06
-2.4675558e-08
3.4065528e-09
7.1719539e-06
-2.7812382e-08
3.9957724e-09
7.8220364e-06
-3.0145651e-08
3.8348969e-09
8.4532675e-06
-3.3142502e-08
3.7580193e-09
9.0289645e-06
-3.5857763e-08
3.7906059e-09
9.5016848e-06
-3.6490686e-08
3.3038636e-09
9.8083969e-06
-3.7895831e-08
2.6133076e-09
9.8651689e-06
-3.7363998e-08
2.2705066e-09
9.5738473e-06
-3.5212616e-08
1.1111067e-09
8.8136013e-06
-3.0169054e-08
7.3630426e-10
7.4395811e-06
-1.2875638e-08
-1.2361275e-09
5.2684258e-06
-3.3862042e-09
2.0384799e-06
-1.1514168e-09
1.5491841e-09
1.8844274e-08
-3.9735086e-09
2.7557152e-09
5.6711437e-08
-7.8874844e-09
4.1362704e-09
9.9891552e-08
-1.2218088e-08
5.4419485e-09
1.4789099e-07
-1.6233782e-08
6.4074907e-09
2.0071508e-07
-1.9339378e-08
6.8728541e-09
2.5888963e-07
-2.1130595e-08
6.816148e-09
3.2339093e-07
-2.1520023e-08
6.2972131e-09
3.9552537e-07
-2.0621358e-08
5.4587215e-09
4.7679995e-07
-1.8752224e-08
4.4550234e-09
5.6881565e-07
-1.6361123e-08
3.4413019e-09
6.7319872e-07
-1.3741825e-08
2.5539563e-09
7.9157202e-07
-1.1218747e-08
1.8323609e-09
9.2555308e-07
-9.0564785e-09
1.3033329e-09
1.0767753e-06
-7.2913415e-09
9.752314e-10
1.2469175e-06
-5.998128e-09
7.8636946e-10
1.4377185e-06
-5.1749026e-09
7.2184064e-10
1.6509939e-06
-4.7889121e-09
7.4555456e-10
1.8886278e-06
-4.6855682e-09
8.3401648e-10
2.1525543e-06
-4.9212978e-09
9.4414846e-10
2.4446974e-06
-5.3333535e-09
1.0931286e-09
2.7669339e-06
-5.8389926e-09
1.2426903e-09
3.1209534e-06
-6.4797474e-09
1.3773032e-09
3.5081088e-06
-7.1770803e-09
1.5503086e-09
3.9292404e-06
-7.6704854e-09
1.6720473e-09
4.3843543e-06
-7.9414564e-09
1.7470254e-09
4.8721331e-06
-8.0429178e-09
1.7447361e-09
5.3893351e-06
-7.5855764e-09
1.7311585e-09
5.9300887e-06
-6.9915467e-09
1.5739847e-09
6.4845405e-06
-5.5972884e-09
1.4506349e-09
7.0379838e-06
-3.8216409e-09
1.094775e-09
7.5685119e-06
-1.6230964e-09
8.1799439e-10
8.0456931e-06
1.1952895e-09
4.1709095e-10
8.4283403e-06
4.3859217e-09
-2.9709125e-11
8.6628838e-06
7.5388008e-09
-3.8773699e-10
8.680986e-06
1.065509e-08
-6.6062858e-10
8.3968605e-06
1.245519e-08
-7.7504386e-10
7.7049381e-06
1.2599266e-08
-6.3724688e-10
6.4762029e-06
8.1557722e-09
-2.4453411e-10
4.5550048e-06
2.9790465e-10
1.7504498e-06
4.2646309e-10
-2.4689512e-10
1.8726915e-08
-2.0488593e-10
-3.7389283e-10
5.6308986e-08
-1.5710162e-09
-4.0917776e-10
9.9167595e-08
-3.2563701e-09
-4.1885988e-10
1.4679082e-07
-4.9185032e-09
-4.2249513e-10
1.9913112e-07
-6.3375828e-09
-4.2331964e-10
2.5663883e-07
-7.3950888e-09
-4.2010915e-10
3.2019148e-07
-8.0725594e-09
-4.1104433e-10
3.9099016e-07
-8.4049748e-09
-3.949248e-10
4.7044396e-07
-8.4649912e-09
-3.7132352e-10
5.600688e-07
-8.3281851e-09
-3.4042639e-10
6.6141561e-07
-8.0407931e-09
-3.0278111e-10
7.7603199e-07
-7.6638256e-09
-2.5911615e-10
9.0545281e-07
-7.2406591e-09
-2.1012267e-10
1.0512115e-06
-6.7840455e-09
-1.5644149e-10
1.2148594e-06
-6.3302409e-09
-9.8705687e-11
1.3979828e-06
-5.8878284e-09
-3.7430105e-11
1.6022109e-06
-5.4638963e-09
2.6710033e-11
1.8292082e-06
-5.057486e-09
9.2969269e-11
2.0806487e-06
-4.6878989e-09
1.6026243e-10
2.3581686e-06
-4.3407198e-09
2.2727002e-10
2.6632955e-06
-4.0261455e-09
2.9182022e-10
2.9973402e-06
-3.7590259e-09
3.5193874e-10
3.3612492e-06
-3.490969e-09
4.0492874e-10
3.7553991e-06
-3.2478323e-09
4.4818321e-10
4.1792953e-06
-3.037433e-09
4.7945223e-10
4.6311694e-06
-2.8853814e-09
4.9637863e-10
5.1074221e-06
-2.7414445e-09
4.9730789e-10
5.6019127e-06
-2.6734471e-09
4.8119295e-10
6.1050165e-06
-2.5766756e-09
4.4913828e-10
6.6025201e-06
-2.5978108e-09
4.0231942e-10
7.0742054e-06
-2.6133202e-09
3.4824005e-10
7.4923781e-06
-2.705799e-09
2.8581459e-10
7.8201627e-06
-2.9336554e-09
2.3426824e-10
8.0098184e-06
-3.2562204e-09
1.9250793e-10
8.0008922e-06
-3.6396205e-09
1.7163526e-10
7.7181513e-06
-3.9460164e-09
1.7109081e-10
7.0688644e-06
-3.7665361e-09
1.8144832e-10
5.9383538e-06
-2.4022812e-09
1.6805993e-10
4.1820814e-06
7.7825315e-11
1.6136466e-06
3.2049476e-10
-1.9400125e-09
1.8721929e-08
-4.2316675e-10
-3.4018517e-09
5.6289839e-08
-1.861545e-09
-4.9010685e-09
9.911626e-08
-3.5835473e-09
-6.2610475e-09
1.4667682e-07
-5.2631035e-09
-7.2508181e-09
1.9892596e-07
-6.6904528e-09
-7.7236712e-09
2.5630958e-07
-7.7511267e-09
-7.6619953e-09
3.1970068e-07
-8.4272806e-09
-7.1261001e-09
3.9029511e-07
-8.752902e-09
-6.258055e-09
4.6949575e-07
-8.7993697e-09
-5.2117132e-09
5.58811e-07
-8.6411527e-09
-4.1422506e-09
6.5978272e-07
-8.3240055e-09
-3.1866179e-09
7.7394757e-07
-7.908675e-09
-2.3850154e-09
9.0282759e-07
-7.4384033e-09
-1.7650297e-09
1.0479408e-06
-6.9266528e-09
-1.3359465e-09
1.2108205e-06
-6.4095121e-09
-1.0370743e-09
1.3930311e-06
-5.8966241e-09
-8.540972e-10
1.5961764e-06
-5.3954167e-09
-7.5203153e-10
1.8218901e-06
-4.9067278e-09
-7.0858806e-10
2.0718097e-06
-4.451646e-09
-6.8206041e-10
2.3475275e-06
-4.0184492e-09
-6.9208312e-10
2.6505191e-06
-3.6202221e-09
-7.0476365e-10
2.982036e-06
-3.274895e-09
-7.0848483e-10
3.3429582e-06
-2.9382005e-09
-7.612437e-10
3.7335894e-06
-2.6396129e-09
-7.800988e-10
4.1533631e-06
-2.3910074e-09
-7.7392974e-10
4.600444e-06
-2.2216174e-09
-7.1809734e-10
5.071183e-06
-2.0834932e-09
-6.8475398e-10
5.5594211e-06
-2.0451895e-09
-5.4635341e-10
6.0555764e-06
-2.0028005e-09
-4.7909589e-10
6.5455586e-06
-2.0970235e-09
-2.2313657e-10
7.0094117e-06
-2.1968611e-09
-7.9698967e-11
7.4198526e-06
-2.3774957e-09
1.5921813e-10
7.740641e-06
-2.6830918e-09
4.5630779e-10
7.9248353e-06
-3.0523972e-09
6.6107847e-10
7.9129664e-06
-3.4475541e-09
8.02399e-10
7.6310585e-06
-3.7373615e-09
8.3476915e-10
6.9877875e-06
-3.5381625e-09
6.7115415e-10
5.8698612e-06
-2.2224985e-09
3.0160737e-10
4.1340515e-06
-1.9418413e-10
1.5953667e-06
-1.3673357e-09
-1.9884208e-09
1.8828274e-08
-4.4770388e-09
-4.1880257e-09
5.6637258e-08
-8.6479378e-09
-6.8319786e-09
9.9706845e-08
-1.3176518e-08
-9.4728959e-09
1.4752414e-07
-1.7330948e-08
-1.1743277e-08
2.0007874e-07
-2.0524324e-08
-1.3328628e-08
2.5788132e-07
-2.2361265e-08
-1.4120497e-08
3.2189186e-07
-2.2760959e-08
-1.4045259e-08
3.9339802e-07
-2.1841491e-08
-1.3256336e-08
4.7388502e-07
-1.9923193e-08
-1.1900725e-08
5.6492843e-07
-1.7455987e-08
-1.0155588e-08
6.6812494e-07
-1.4735106e-08
-8.409278e-09
7.8506227e-07
-1.2085459e-08
-6.7140628e-09
9.1731676e-07
-9.7724138e-09
-5.1571625e-09
1.0664727e-06
-7.8333143e-09
-3.9502451e-09
1.2341494e-06
-6.343328e-09
-2.9540081e-09
1.4220167e-06
-5.3013154e-09
-2.1908774e-09
1.6318075e-06
-4.6752141e-09
-1.6244486e-09
1.8653079e-06
-4.3111152e-09
-1.330929e-09
2.1243351e-06
-4.2662708e-09
-1.0397e-09
2.4106749e-06
-4.3886674e-09
-9.7373478e-10
2.7260335e-06
-4.6001698e-09
-1.0120998e-09
3.0719165e-06
-4.9548052e-09
-1.0037269e-09
3.4494694e-06
-5.384829e-09
-1.1230423e-09
3.8593019e-06
-5.6438006e-09
-1.4546413e-09
4.3011851e-06
-5.7284441e-09
-1.7460355e-09
4.7735937e-06
-5.7102821e-09
-1.8838436e-09
5.2731337e-06
-5.2195413e-09
-2.3817805e-09
5.7938752e-06
-4.6892805e-09
-2.2671181e-09
6.326136e-06
-3.4726726e-09
-2.8292913e-09
6.8556004e-06
-1.9931576e-09
-2.69305e-09
7.3612655e-06
-2.5200652e-10
-2.6791926e-09
7.8141144e-06
2.1430597e-09
-2.8446109e-09
8.1754014e-06
4.8331936e-09
-2.5037183e-09
8.3942218e-06
7.4477137e-09
-2.0014472e-09
8.4052914e-06
1.0083817e-08
-1.8613324e-09
8.1264999e-06
1.157466e-08
-9.1259042e-10
7.4562135e-06
1.1664617e-08
-6.7213378e-10
6.2690204e-06
7.5646244e-09
1.2124798e-09
4.4124048e-06
3.3394671e-09
1.6978281e-06
-2.2894484e-09
-1.1553342e-09
1.8927397e-08
-7.5513988e-09
-2.9452205e-09
5.6974145e-08
-1.5336441e-08
-5.3444978e-09
1.0034909e-07
-2.4763854e-08
-8.0156304e-09
1.4854823e-07
-3.4642173e-08
-1.071948e-08
2.0160869e-07
-4.3926177e-08
-1.2973507e-08
2.6014331e-07
-5.1485362e-08
-1.4874832e-08
3.2526201e-07
-5.6759056e-08
-1.5987277e-08
3.9843456e-07
-5.9449738e-08
-1.6435923e-08
4.8133893e-07
-5.9390492e-08
-1.6447272e-08
5.757388e-07
-5.7434616e-08
-1.5333534e-08
6.8340564e-07
-5.3946617e-08
-1.4069545e-08
8.0608762e-07
-4.9149199e-08
-1.288546e-08
9.4550886e-07
-4.411369e-08
-1.1010353e-08
1.1033876e-06
-3.8818264e-08
-9.7194067e-09
1.2814928e-06
-3.36846e-08
-8.3770866e-09
1.4816504e-06
-2.8699931e-08
-7.392489e-09