/*--------------------------------*- C++ -*----------------------------------*\
| =========                 |                                                 |
| \\      /  F ield         | OpenFOAM: The Open Source CFD Toolbox           |
|  \\    /   O peration     | Version:  4.0                                   |
|   \\  /    A nd           | Web:      www.OpenFOAM.org                      |
|    \\/     M anipulation  |                                                 |
\*---------------------------------------------------------------------------*/
FoamFile
{
    version     2.0;
    format      ascii;
    class       surfaceScalarField;
    location    "2000";
    object      phi;
}
// * * * * * * * * * * * * * * * * * * * * * * * * * * * * * * * * * * * * * //

dimensions      [1 0 -1 0 0 0 0];

internalField   nonuniform List<scalar> 
287000
(
3.1552759e-11
6.1654476e-12
6.3921755e-10
1.5975015e-10
-2.4202301e-11
2.1415291e-09
3.2866763e-10
3.8940482e-12
4.0687324e-09
6.191842e-10
-4.0143683e-11
6.5013748e-09
9.6276655e-10
-8.8790752e-12
9.5338238e-09
1.4790725e-09
-9.2740019e-11
1.3271613e-08
2.0845831e-09
-9.1838012e-11
1.7831938e-08
2.8651311e-09
-1.7825435e-10
2.3343669e-08
3.6796389e-09
-1.3258182e-10
2.994788e-08
4.6187659e-09
-1.8836265e-10
3.7800154e-08
5.6910294e-09
-2.7040005e-10
4.7072208e-08
6.9091306e-09
-3.877899e-10
5.7956546e-08
8.0620982e-09
-3.1971309e-10
7.0674767e-08
9.5358928e-09
-6.6569328e-10
8.548775e-08
1.0818448e-08
-5.2573566e-10
1.0270893e-07
1.2093522e-08
-6.0314568e-10
1.2272553e-07
1.3271693e-08
-6.0122004e-10
1.4602394e-07
1.4531563e-08
-8.0146234e-10
1.7321048e-07
1.5390466e-08
-5.2004976e-10
2.0505092e-07
1.6383463e-08
-7.6191186e-10
2.425025e-07
1.7364279e-08
-8.3788801e-10
2.8674131e-07
1.7465749e-08
-4.5195862e-11
3.3921496e-07
1.8239112e-08
-7.3440058e-10
4.0170473e-07
1.9227736e-08
-8.6210532e-10
4.7627941e-07
1.8915426e-08
1.5900449e-10
5.6541644e-07
1.8711395e-08
2.9386196e-10
6.7255714e-07
1.8336278e-08
5.3287841e-10
8.011587e-07
1.8053145e-08
1.9318787e-10
9.5537248e-07
1.6633571e-08
1.2888868e-09
1.1408384e-06
1.6795972e-08
-5.2100845e-10
1.3639107e-06
1.3336731e-08
2.52315e-09
1.6324843e-06
1.4095639e-08
-1.0593086e-09
1.9565899e-06
9.589526e-09
2.1376904e-09
2.3438529e-06
4.943259e-09
2.2588263e-09
2.813236e-06
2.2400429e-09
-2.0143484e-11
3.3794595e-06
-4.9403262e-09
2.4954022e-09
4.0587997e-06
-8.9976416e-09
-1.4341637e-09
4.8817709e-06
-6.7440818e-09
-8.4335614e-09
5.8747471e-06
-1.8583546e-08
3.6508656e-09
7.0688651e-06
-2.0723558e-08
-7.5069793e-09
8.5100672e-06
-2.3389063e-08
-8.9914049e-09
1.0251099e-05
-1.9908557e-08
-1.5668273e-08
1.2357918e-05
-2.4290232e-08
-1.0453632e-08
1.4891356e-05
-2.1848876e-08
-1.8236528e-08
1.7956967e-05
-2.2426592e-08
-1.7392814e-08
2.1652603e-05
-1.9059301e-08
-2.2722718e-08
2.6118192e-05
-1.7090871e-08
-2.2847584e-08
3.1511397e-05
-1.4431667e-08
-2.5079177e-08
3.8018501e-05
-8.9618983e-09
-3.0295933e-08
4.5900432e-05
-2.9125681e-08
5.5438814e-05
4.5556333e-11
-2.3201293e-12
6.3495982e-10
1.330879e-10
-1.0252577e-11
2.1274965e-09
3.2939402e-10
-2.3796787e-11
4.0424854e-09
5.7924999e-10
-4.6381728e-11
6.4600392e-09
9.7348206e-10
-7.7993118e-11
9.4742622e-09
1.4139441e-09
-1.2225384e-10
1.3190663e-08
1.9971418e-09
-1.7689989e-10
1.7726476e-08
2.6470641e-09
-2.4525399e-10
2.3210891e-08
3.5001406e-09
-3.2475161e-10
2.9785791e-08
4.4589677e-09
-4.1996837e-10
3.7607114e-08
5.4908173e-09
-5.2504843e-10
4.6847492e-08
6.5430887e-09
-6.3384161e-10
5.7701307e-08
7.7732999e-09
-7.3912165e-10
7.0391978e-08
8.7408914e-09
-8.4432289e-10
8.5182597e-08
9.8733838e-09
-9.1795348e-10
1.0239098e-07
1.091605e-08
-9.7862981e-10
1.2240797e-07
1.1898792e-08
-1.0098574e-09
1.4572135e-07
1.2572153e-08
-1.0069649e-09
1.7294226e-07
1.3359193e-08
-9.5058025e-10
2.0483673e-07
1.3720996e-08
-8.7359873e-10
2.423596e-07
1.3781089e-08
-7.413139e-10
2.8669151e-07
1.4382931e-08
-5.6494614e-10
3.3928096e-07
1.411126e-08
-4.3004131e-10
4.0189166e-07
1.3484382e-08
-2.3488864e-10
4.7664815e-07
1.3566938e-08
5.1742067e-11
5.6610954e-07
1.4537103e-08
-7.3389384e-10
6.7337198e-07
1.4533623e-08
4.3153899e-10
8.0210539e-07
1.5193734e-08
-6.6787161e-10
9.5671975e-07
1.54483e-08
6.4600449e-10
1.1425626e-06
1.5051633e-08
-7.7518117e-10
1.3660067e-06
1.5920759e-08
6.0881742e-10
1.6347699e-06
1.4566984e-08
-1.2189782e-09
1.9581824e-06
1.4648675e-08
-4.170107e-11
2.3473355e-06
1.4965642e-08
-7.956718e-10
2.8160182e-06
1.3212919e-08
-1.7360068e-09
3.3805941e-06
1.4147371e-08
-2.6763381e-09
4.0606722e-06
1.182856e-08
-4.1049235e-09
4.8804816e-06
3.3431659e-09
-5.5611257e-09
5.8684756e-06
6.7408013e-09
-6.5308967e-09
7.059871e-06
1.3272385e-09
-8.8930459e-09
8.4968442e-06
-4.282314e-09
-1.0715652e-08
1.0229988e-05
-1.4351177e-08
-1.2675492e-08
1.2320229e-05
-1.7123283e-08
-1.4713668e-08
1.4842653e-05
-2.4668509e-08
-1.6842312e-08
1.7886009e-05
-2.8295076e-08
-1.8984733e-08
2.1559219e-05
-3.314013e-08
-2.1114218e-08
2.599209e-05
-3.3844136e-08
-2.3212725e-08
3.1344025e-05
-3.0127655e-08
-2.5370712e-08
3.7804024e-05
-2.624755e-08
-2.7306102e-08
4.561124e-05
-3.042013e-08
5.5015953e-05
3.6153211e-11
-3.1196292e-12
6.2478312e-10
1.3475498e-10
-1.325123e-11
2.0942848e-09
2.992579e-10
-3.0877901e-11
3.9808633e-09
5.3621802e-10
-5.7322778e-11
6.3640189e-09
8.5190668e-10
-9.3515177e-11
9.3374114e-09
1.2478687e-09
-1.4022584e-10
1.300638e-08
1.7250416e-09
-1.9713475e-10
1.7488312e-08
2.2776786e-09
-2.6405134e-10
2.2913105e-08
2.8982806e-09
-3.403339e-10
2.9423961e-08
3.5698054e-09
-4.2511809e-10
3.7178938e-08
4.2739415e-09
-5.1544163e-10
4.6353763e-08
4.989857e-09
-6.0652498e-10
5.7146581e-08
5.6912142e-09
-6.8882017e-10
6.9785256e-08
6.3360194e-09
-7.5222849e-10
8.4537955e-08
6.9052674e-09
-7.8876615e-10
1.0172744e-07
7.3606942e-09
-7.9658048e-10
1.2174966e-07
7.6787979e-09
-7.7077263e-10
1.4509637e-07
7.8434008e-09
-7.089144e-10
1.7238186e-07
7.8650598e-09
-6.1210537e-10
2.0437344e-07
7.7334276e-09
-4.8478246e-10
2.4202555e-07
7.4831303e-09
-3.3126897e-10
2.8651685e-07
7.1710677e-09
-1.7949934e-10
3.3929172e-07
6.7525563e-09
-1.219076e-11
4.0210663e-07
7.1052082e-09
-6.5225638e-10
4.7708237e-07
6.7611621e-09
2.8020845e-10
5.6676814e-07
6.1938231e-09
-3.6485097e-10
6.7425383e-07
5.9386487e-09
3.4370746e-10
8.0322123e-07
5.0613387e-09
-3.26428e-10
9.5805125e-07
4.8341412e-09
1.2702514e-10
1.1439857e-06
3.1784632e-09
-1.5887982e-10
1.3674426e-06
2.8360862e-09
-4.4395733e-10
1.6360529e-06
6.9877682e-10
-8.8790967e-10
1.9591227e-06
-2.7943472e-10
-1.3250983e-09
2.347777e-06
-1.9343027e-09
-1.8924891e-09
2.8155721e-06
-4.2583623e-09
-2.5771361e-09
3.3787201e-06
-7.0825876e-09
-3.3845988e-09
4.0569666e-06
-1.0720357e-08
-4.2886348e-09
4.8740724e-06
-1.501404e-08
-5.2715715e-09
5.8587044e-06
-1.9164856e-08
-6.3863508e-09
7.0454878e-06
-2.4293757e-08
-7.5505897e-09
8.476197e-06
-2.9549408e-08
-8.7489886e-09
1.0201224e-05
-3.4725107e-08
-9.9731723e-09
1.2281541e-05
-3.9523994e-08
-1.1183568e-08
1.4790662e-05
-4.3620094e-08
-1.2358128e-08
1.7817513e-05
-4.6524985e-08
-1.3457118e-08
2.1469434e-05
-4.7597005e-08
-1.4442399e-08
2.5876314e-05
-4.5965956e-08
-1.5290954e-08
3.1195374e-05
-3.9958174e-08
-1.5941724e-08
3.7616288e-05
-2.8380658e-08
-1.6504532e-08
4.5373424e-05
-1.6885082e-08
5.4727974e-05
2.8383048e-11
-1.702358e-12
6.0556439e-10
9.579592e-11
-3.3623652e-12
2.0327454e-09
2.0286604e-10
-1.4058849e-11
3.8682344e-09
3.4382092e-10
-2.2977084e-11
6.1907631e-09
5.258424e-10
-4.4568228e-11
9.0936004e-09
7.4865767e-10
-7.3081934e-11
1.2682202e-08
1.0043e-09
-1.0186945e-10
1.7074776e-08
1.2835373e-09
-1.3131737e-10
2.2402933e-08
1.5792192e-09
-1.6522156e-10
2.8812652e-08
1.8692191e-09
-1.9066646e-10
3.6465914e-08
2.1684203e-09
-2.4490074e-10
4.5543459e-08
2.4487238e-09
-2.8352741e-10
5.6249358e-08
2.708586e-09
-3.2704334e-10
6.8817989e-08
2.9040198e-09
-3.2538162e-10
8.3523958e-08
3.0853666e-09
-3.6668107e-10
1.0069598e-07
3.2346365e-09
-3.8088181e-10
1.2073468e-07
3.3142579e-09
-3.423878e-10
1.4413482e-07
3.3079747e-09
-2.6761115e-10
1.7151162e-07
3.2402155e-09
-1.9471017e-10
2.0363093e-07
3.1273301e-09
-1.1511242e-10
2.4144286e-07
2.9686592e-09
-1.1832963e-11
2.8611959e-07
3.2536062e-09
-4.0007701e-10
3.3909756e-07
3.0749621e-09
1.3674297e-10
4.021242e-07
2.4886112e-09
-1.9291771e-10
4.773131e-07
2.3805211e-09
1.3727157e-10
5.6721453e-07
1.675584e-09
-3.8855647e-11
6.7484654e-07
1.4682821e-09
3.2379234e-11
8.0385222e-07
5.2681068e-10
-7.76604e-11
9.5862064e-07
-6.9457348e-11
-1.9254148e-10
1.1444308e-06
-1.0626767e-09
-3.2533244e-10
1.3676242e-06
-2.4171041e-09
-5.0875809e-10
1.6358609e-06
-4.2722486e-09
-7.3098575e-10
1.9583982e-06
-6.5907693e-09
-9.9024446e-10
2.3463876e-06
-9.4205371e-09
-1.3152804e-09
2.8132864e-06
-1.2772842e-08
-1.7044693e-09
3.375332e-06
-1.6662346e-08
-2.128395e-09
4.0521232e-06
-2.1012968e-08
-2.6190701e-09
4.8673175e-06
-2.5735779e-08
-3.1342016e-09
5.8494665e-06
-3.0769289e-08
-3.6627091e-09
7.0330345e-06
-3.590319e-08
-4.2367741e-09
8.4596343e-06
-4.0934219e-08
-4.7911522e-09
1.0179503e-05
-4.5560387e-08
-5.3747806e-09
1.2253325e-05
-4.9454244e-08
-5.9152793e-09
1.4754422e-05
-5.2221378e-08
-6.3942951e-09
1.7771436e-05
-5.3389797e-08
-6.7717867e-09
2.1411612e-05
-5.2292097e-08
-7.0911519e-09
2.5804809e-05
-4.8125345e-08
-7.2354735e-09
3.110844e-05
-3.9622348e-08
-7.2815229e-09
3.7513693e-05
-2.5029554e-08
-7.1257398e-09
4.5253282e-05
-6.5847923e-09
5.4607254e-05
1.1816039e-11
-1.4445589e-12
5.8055399e-10
2.6717544e-11
6.2003349e-12
1.9546925e-09
3.2780017e-11
1.5774737e-11
3.7263676e-09
3.5183997e-11
2.8129222e-11
5.9739979e-09
1.8392823e-11
5.0357554e-11
8.7912146e-09
1.1908288e-10
-6.3560326e-11
1.2284566e-08
2.5365429e-10
-8.6562409e-11
1.6574162e-08
4.3221556e-10
-1.1316957e-10
2.179441e-08
6.6730335e-10
-1.5186522e-10
2.8095907e-08
9.7632454e-10
-1.9735552e-10
3.5645767e-08
8.1291471e-10
2.7609427e-10
4.4628286e-08
6.2335005e-10
3.1380969e-10
5.5255154e-08
4.003836e-10
3.4321629e-10
6.776682e-08
1.9006864e-10
3.5584671e-10
8.2443682e-08
7.0057751e-10
-3.9954e-10
9.9617263e-08
1.1758865e-09
-3.8722298e-10
1.1968926e-07
1.6430523e-09
-3.6272743e-10
1.431519e-07
1.417058e-09
3.6131781e-10
1.7062484e-07
1.2577788e-09
2.9924698e-10
2.0287136e-07
1.6396833e-09
-2.4198488e-10
2.4082867e-07
1.6492598e-09
1.5060779e-10
2.8565988e-07
1.4322832e-09
-1.0468193e-10
3.3879724e-07
1.5095228e-09
3.2630707e-11
4.0197441e-07
1.1948329e-09
-1.9067739e-11
4.7728452e-07
1.0775952e-09
-5.6077369e-12
5.6724371e-07
6.7715604e-10
-2.2042982e-11
6.7488408e-07
1.6450482e-10
2.7695053e-11
8.0385148e-07
-5.321791e-10
-5.6961901e-11
9.5854659e-07
-1.6762511e-09
8.7505589e-11
1.1442498e-06
-3.1861056e-09
1.0572047e-10
1.3673058e-06
-4.8930799e-09
-1.156039e-10
1.6353626e-06
-7.0365434e-09
-1.3684285e-10
1.9576444e-06
-9.9688973e-09
1.774217e-10
2.3452826e-06
-1.3439033e-08
2.0032641e-10
2.8117154e-06
-1.7046981e-08
-2.1327769e-10
3.3731645e-06
-2.1606574e-08
2.6233014e-10
4.0491692e-06
-2.6134003e-08
-2.3342242e-10
4.8633577e-06
-3.0940999e-08
-2.4697342e-10
5.8441879e-06
-3.6419641e-08
3.381441e-10
7.0260762e-06
-4.1291199e-08
-3.0486081e-10
8.4506216e-06
-4.6575541e-08
3.7649486e-10
1.0167938e-05
-5.0736657e-08
-3.6892017e-10
1.2238659e-05
-5.4004398e-08
-4.0668545e-10
1.4735922e-05
-5.5698745e-08
-4.7642618e-10
1.7748251e-05
-5.6282649e-08
6.2891316e-10
2.1383035e-05
-5.3440833e-08
-7.3254658e-10
2.5770749e-05
-4.8338407e-08
9.1739279e-10
3.1068284e-05
-3.8119942e-08
-1.1418599e-09
3.746929e-05
-2.1815395e-08
-1.4334676e-09
4.520594e-05
2.0201815e-09
5.4564385e-05
9.5714186e-12
1.2390105e-12
5.8043655e-10
3.6281028e-11
4.2978296e-12
1.954493e-09
7.5683107e-11
1.2715043e-11
3.7261456e-09
1.3523091e-10
2.2835985e-11
5.9736249e-09
2.2443531e-10
4.0336319e-11
8.7906921e-09
2.0656639e-10
6.5716431e-11
1.2284001e-08
1.8267162e-10
8.8033612e-11
1.6573719e-08
1.5126569e-10
1.1418776e-10
2.1794885e-08
8.4414292e-11
1.6100784e-10
2.8097178e-08
-2.509528e-11
2.1132036e-10
3.5646985e-08
3.1600636e-10
2.8471075e-10
4.4632289e-08
6.779729e-10
3.4856612e-10
5.5261e-08
1.0718839e-09
3.8660977e-10
6.7772366e-08
1.5205211e-09
3.7687396e-10
8.2444321e-08
1.2466587e-09
3.5973866e-10
9.9613518e-08
9.8763323e-10
3.5119363e-10
1.1968379e-07
7.4601444e-10
3.2590962e-10
1.4315277e-07
1.2073511e-09
2.9775979e-10
1.7062733e-07
1.6027664e-09
2.423442e-10
2.0286697e-07
1.4728354e-09
1.5078984e-10
2.4082232e-07
1.7313598e-09
6.2180871e-11
2.8565843e-07
1.7329125e-09
-3.2927114e-11
3.3879512e-07
1.4545786e-09
2.8288775e-10
4.0196779e-07
1.430276e-09
-1.2338861e-10
4.7726459e-07
1.0997764e-09
8.8546094e-11
5.6721411e-07
7.7141676e-10
-5.2405632e-11
6.7485388e-07
2.4231174e-10
5.9310908e-11
8.0382818e-07
-5.8224071e-10
1.0990461e-10
9.5852704e-07
-1.6058244e-09
2.5794569e-10
1.1442362e-06
-2.94681e-09
3.778672e-10
1.3672941e-06
-4.899748e-09
5.4114617e-10
1.6353501e-06
-7.3307509e-09
7.6167451e-10
1.9576344e-06
-9.9644579e-09
1.0431424e-09
2.3452812e-06
-1.3097504e-08
1.3674969e-09
2.8117188e-06
-1.7124213e-08
1.7315912e-09
3.3731461e-06
-2.1166135e-08
2.1622677e-09
4.0491486e-06
-2.6069911e-08
2.6171826e-09
4.8633165e-06
-3.131565e-08
3.1308016e-09
5.8441837e-06
-3.6211528e-08
3.6916596e-09
7.02613e-06
-4.1648803e-08
4.2466449e-09
8.4506187e-06
-4.6117366e-08
4.8294545e-09
1.016785e-05
-5.0559312e-08
5.364487e-09
1.2238387e-05
-5.4026222e-08
5.8862389e-09
1.4735589e-05
-5.6329775e-08
6.3667338e-09
1.7748139e-05
-5.5957141e-08
6.7966784e-09
2.1383193e-05
-5.3946143e-08
7.0765569e-09
2.5770358e-05
-4.7558521e-08
7.2600799e-09
3.1068507e-05
-3.771841e-08
7.2158966e-09
3.7468149e-05
-2.3022946e-08
7.0263834e-09
4.5205641e-05
6.6084568e-09
5.4566151e-05
2.8416573e-11
2.7077244e-12
6.0552843e-10
9.7557211e-11
1.2637903e-11
2.0327076e-09
2.03954e-10
3.0427862e-11
3.8682233e-09
3.4490518e-10
5.7419002e-11
6.1907885e-09
5.2165915e-10
9.4761073e-11
9.0936891e-09
7.3400082e-10
1.4343719e-10
1.2682404e-08
9.6961789e-10
2.0320998e-10
1.7075167e-08
1.2218924e-09
2.7336042e-10
2.2403606e-08
1.5003298e-09
3.5223921e-10
2.8813716e-08
1.796667e-09
4.3759095e-10
3.6467466e-08
2.1224601e-09
5.2606506e-10
4.554556e-08
2.4582408e-09
6.1288534e-10
5.6251957e-08
2.7718446e-09
6.9143584e-10
6.8820858e-08
3.0138133e-09
7.5457448e-10
8.3526823e-08
3.1809082e-09
7.9445878e-10
1.0069871e-07
3.2863787e-09
8.0986695e-10
1.2073748e-07
3.3294049e-09
7.9036038e-10
1.4413797e-07
3.3304083e-09
7.3154829e-10
1.7151516e-07
3.2899363e-09
6.3332889e-10
2.0363453e-07
3.1944116e-09
5.0559832e-10
2.4144617e-07
3.062706e-09
3.5985121e-10
2.8612215e-07
2.8881805e-09
2.1601967e-10
3.3909783e-07
3.0685464e-09
8.7877502e-11
4.0211998e-07
2.8955555e-09
-6.1478767e-11
4.7730848e-07
2.1473016e-09
6.2249331e-10
5.6719508e-07
2.0313737e-09
-2.8170247e-10
6.7482644e-07
1.1507163e-09
4.2612014e-10
8.0385309e-07
7.9438483e-10
-2.3978771e-10
9.5863355e-07
-2.7598107e-10
4.2995982e-10
1.1444245e-06
-1.1767201e-09
1.3511075e-10
1.3676187e-06
-2.520796e-09
4.7870733e-10
1.6358591e-06
-4.3093289e-09
8.601222e-10
1.9583996e-06
-6.575193e-09
1.3305668e-09
2.3463926e-06
-9.3653888e-09
1.9106528e-09
2.8132927e-06
-1.2707343e-08
2.6024902e-09
3.3753396e-06
-1.6581634e-08
3.4140185e-09
4.0521337e-06
-2.0954588e-08
4.3216666e-09
4.8673315e-06
-2.5705153e-08
5.3070839e-09
5.8494856e-06
-3.0738278e-08
6.4243672e-09
7.0330567e-06
-3.5888892e-08
7.5941583e-09
8.4596517e-06
-4.0897752e-08
8.7946897e-09
1.017951e-05
-4.5535817e-08
1.0023073e-08
1.2253317e-05
-4.94563e-08
1.1235781e-08
1.4754403e-05
-5.2258365e-08
1.2411362e-08
1.7771408e-05
-5.3413839e-08
1.3506718e-08
2.1411561e-05
-5.2327079e-08
1.4494032e-08
2.5804706e-05
-4.8120877e-08
1.5337458e-08
3.1108279e-05
-3.961381e-08
1.5991718e-08
3.7513432e-05
-2.5070615e-08
1.6556185e-08
4.5252959e-05
1.6923167e-08
5.4606863e-05
3.5857209e-11
2.1748066e-12
6.248604e-10
1.3379033e-10
1.0235887e-11
2.0945089e-09
2.9741922e-10
2.4103233e-11
3.9812603e-09
5.3358184e-10
4.7110216e-11
6.3646323e-09
8.4896651e-10
7.9288265e-11
9.3382874e-09
1.2457619e-09
1.242391e-10
1.3007567e-08
1.7257572e-09
1.7961054e-10
1.7489859e-08
2.2836788e-09
2.4856051e-10
2.2915053e-08
2.9116962e-09
3.2832379e-10
2.9426334e-08
3.5911867e-09
4.2335686e-10
3.7181738e-08
4.3017781e-09
5.279229e-10
4.6356962e-08
5.0203311e-09
6.3620713e-10
5.7150115e-08
5.7205364e-09
7.4149601e-10
6.9789045e-08
6.3631334e-09
8.4760507e-10
8.4541921e-08
6.9318775e-09
9.2294573e-10
1.0173153e-07
7.3925878e-09
9.8563186e-10
1.2175381e-07
7.7211331e-09
1.01833e-09
1.4510045e-07
7.8993255e-09
1.0158079e-09
1.7238569e-07
7.9351518e-09
9.5828206e-10
2.0437681e-07
7.8215527e-09
8.7795514e-10
2.4202833e-07
7.6055463e-09
7.383034e-10
2.8651902e-07
7.3502849e-09
5.4790005e-10
3.3929364e-07
7.0431766e-09
3.9686967e-10
4.021098e-07
6.7339547e-09
1.7974908e-10
4.7709126e-07
6.3492073e-09
8.6409072e-10
5.6679466e-07
6.0879706e-09
-2.5173091e-10
6.7428397e-07
5.4765544e-09
7.0454479e-10
8.0322246e-07
5.2154674e-09
-4.8103319e-10
9.58035e-07
4.2159491e-09
6.695019e-10
1.14401e-06
3.7652564e-09
-4.6493407e-10
1.3674529e-06
2.0408866e-09
7.7605029e-10
1.6360935e-06
1.1190597e-09
-5.7419385e-11
1.959145e-06
-5.0408383e-11
1.9385126e-10
2.3478209e-06
-1.7739586e-09
9.0468282e-10
2.8155702e-06
-4.1397737e-09
1.8220164e-09
3.3787284e-06
-6.9861782e-09
2.7428458e-09
4.0569856e-06
-1.0630315e-08
4.1564593e-09
4.8740991e-06
-1.4912735e-08
5.6025401e-09
5.8587363e-06
-1.9055165e-08
6.571829e-09
7.0455341e-06
-2.420348e-08
8.9498157e-09
8.4762689e-06
-2.9490435e-08
1.0783549e-08
1.0201311e-05
-3.4689463e-08
1.2742856e-08
1.2281637e-05
-3.9503542e-08
1.4780148e-08
1.4790762e-05
-4.3608905e-08
1.6908899e-08
1.7817613e-05
-4.6523462e-08
1.9052217e-08
2.1469527e-05
-4.760294e-08
2.1183541e-08
2.5876397e-05
-4.5981804e-08
2.3284071e-08
3.1195433e-05
-3.998096e-08
2.5444439e-08
3.761631e-05
-2.8404579e-08
2.7381698e-08
4.5373389e-05
3.0498339e-08
5.4727825e-05
4.5451673e-11
-6.2154736e-12
6.3510816e-10
1.3293171e-10
2.4255351e-11
2.1279251e-09
3.2961378e-10
-3.9049105e-12
4.0432441e-09
5.8000907e-10
4.045075e-11
6.4612054e-09
9.751985e-10
9.3494661e-12
9.4759154e-09
1.4171815e-09
9.3372575e-11
1.3192883e-08
2.0024542e-09
9.2618966e-11
1.7729339e-08
2.6549214e-09
1.7913228e-10
2.3214464e-08
3.5107265e-09
1.3349621e-10
2.9790121e-08
4.4721094e-09
1.8924664e-10
3.7612222e-08
5.5060493e-09
2.7122936e-10
4.6853369e-08
6.5599741e-09
3.886113e-10
5.7707911e-08
7.7917496e-09
3.2065652e-10
7.0399236e-08
8.7616633e-09
6.6691355e-10
8.5190411e-08
9.8978718e-09
5.2736745e-10
1.0239923e-07
1.094598e-08
6.0516699e-10
1.2241653e-07
1.1935684e-08
6.0341065e-10
1.4573008e-07
1.2616845e-08
8.0336727e-10
1.7295106e-07
1.3411478e-08
5.2104167e-10
2.0484555e-07
1.3779136e-08
7.6121937e-10
2.4236858e-07
1.3839088e-08
8.348172e-10
2.8670112e-07
1.4427154e-08
3.9531962e-11
3.3929214e-07
1.4123333e-08
7.2638971e-10
4.01906e-07
1.3438952e-08
8.4983752e-10
4.7666764e-07
1.4087663e-08
1.6521141e-10
5.6613586e-07
1.4092169e-08
-3.4170287e-10
6.7340352e-07
1.5178157e-08
-5.3531633e-10
8.0214949e-07
1.4665539e-08
-2.225146e-10
9.5677631e-07
1.6168295e-08
-1.2599536e-09
1.1426037e-06
1.4511769e-08
5.0495362e-10
1.3660648e-06
1.6723521e-08
-2.4926189e-09
1.6348034e-06
1.4145666e-08
1.0219114e-09
1.9582286e-06
1.442843e-08
-2.1435519e-09
2.3473573e-06
1.4835534e-08
-2.2554272e-09
2.8160937e-06
1.314482e-08
3.7896739e-11
3.3806613e-06
1.4132751e-08
-2.4755138e-09
4.0607359e-06
1.187262e-08
1.4690407e-09
4.8805247e-06
3.5054765e-09
8.4754088e-09
5.8684684e-06
7.1087483e-09
-3.6101078e-09
7.0598029e-06
1.4736275e-09
7.5262108e-09
8.4971876e-06
-4.2145026e-09
9.0125512e-09
1.0230272e-05
-1.4306352e-08
1.5698438e-08
1.2320494e-05
-1.7079432e-08
1.0491358e-08
1.4842927e-05
-2.4622532e-08
1.8280589e-08
1.7886312e-05
-2.8249756e-08
1.7442713e-08
2.1559567e-05
-3.3101494e-08
2.2778081e-08
2.5992493e-05
-3.3818742e-08
2.2908302e-08
3.1344491e-05
-3.0116907e-08
2.514558e-08
3.780455e-05
-2.6258046e-08
3.0366673e-08
4.5611842e-05
2.9203843e-08
5.5016565e-05
3.1502373e-11
6.3939239e-10
1.5981739e-10
2.142048e-09
3.2887781e-10
4.0696605e-09
6.1992968e-10
6.5028041e-09
9.6429391e-10
9.5358498e-09
1.4815879e-09
1.3274333e-08
2.088285e-09
1.7835448e-08
2.8701392e-09
2.3348054e-08
3.6859865e-09
2.9953208e-08
4.6264114e-09
3.7806466e-08
5.6999041e-09
4.7079513e-08
6.9192918e-09
5.7964813e-08
8.0737192e-09
7.0683926e-08
9.5493032e-09
8.5497697e-08
1.0834161e-08
1.0271953e-07
1.2111991e-08
1.2273666e-07
1.3293141e-08
1.4603547e-07
1.4555759e-08
1.7322237e-07
1.5416102e-08
2.0506323e-07
1.6407962e-08
2.4251553e-07
1.7383741e-08
2.8675561e-07
1.747465e-08
3.3923147e-07
1.8230491e-08
4.0172482e-07
1.9189809e-08
4.7630481e-07
1.9175011e-08
5.6544867e-07
1.8891059e-08
6.7259539e-07
1.847712e-08
8.012029e-07
1.8127755e-08
9.5542142e-07
1.6704131e-08
1.14089e-06
1.6825324e-08
1.363964e-06
1.3382071e-08
1.6325385e-06
1.4098756e-08
1.9566464e-06
9.5896836e-09
2.3439138e-06
4.9497183e-09
2.8133063e-06
2.2674944e-09
3.3795388e-06
-4.8890723e-09
4.0588877e-06
-8.9070539e-09
4.8818735e-06
-6.6114867e-09
5.8748742e-06
-1.8418081e-08
7.0690239e-06
-2.0573437e-08
8.5102839e-06
-2.3255006e-08
1.0251362e-05
-1.9780458e-08
1.2358234e-05
-2.4162761e-08
1.4891739e-05
-2.1722904e-08
1.7957435e-05
-2.2305208e-08
2.1653176e-05
-1.894971e-08
2.6118896e-05
-1.6999873e-08
3.1512261e-05
-1.4363512e-08
3.8019553e-05
-8.9311385e-09
4.5901712e-05
5.5440337e-05
1.6299573e-10
-4.862623e-12
4.8108556e-10
7.4202264e-10
-6.2603335e-11
1.6251075e-09
1.7633999e-09
-7.1406687e-11
3.1187657e-09
3.4004411e-09
-1.8086971e-10
5.0452062e-09
5.6837029e-09
-2.5285795e-10
7.5034377e-09
8.8291495e-09
-4.8448752e-10
1.0610659e-08
1.2847658e-08
-6.9062916e-10
1.4504046e-08
1.7899694e-08
-1.05078e-09
1.9342369e-08
2.389061e-08
-1.3501344e-09
2.5307046e-08
3.0950412e-08
-1.8626132e-09
3.260294e-08
3.9046359e-08
-2.4822672e-09
4.1458578e-08
4.8100205e-08
-3.2240476e-09
5.2126887e-08
5.7750505e-08
-3.8619884e-09
6.4886601e-08
6.8147416e-08
-4.9545298e-09
8.0045297e-08
7.8504495e-08
-5.5940967e-09
9.7945708e-08
8.8671603e-08
-6.4190671e-09
1.1897728e-07
9.8196115e-08
-7.0936102e-09
1.4359317e-07
1.0690852e-07
-7.8373572e-09
1.7233586e-07
1.1403287e-07
-7.9466527e-09
2.0587344e-07
1.1984177e-07
-8.3508164e-09
2.450444e-07
1.2403871e-07
-8.3667618e-09
2.9091124e-07
1.257337e-07
-7.3022524e-09
3.4482268e-07
1.2641769e-07
-7.4548536e-09
4.0847575e-07
1.2559316e-07
-6.8729317e-09
4.8397681e-07
1.2213134e-07
-5.0209447e-09
5.7389962e-07
1.1684253e-07
-3.6597145e-09
6.8150695e-07
1.1008419e-07
-2.5830456e-09
8.1050129e-07
1.0240762e-07
-2.2343993e-09
9.6528389e-07
9.2254484e-08
-3.4970777e-10
1.1513412e-06
8.2760165e-08
-1.6786063e-09
1.3750849e-06
7.0326968e-08
5.5925007e-10
1.6443595e-06
5.9436898e-08
-1.2249547e-09
1.9687066e-06
4.441463e-08
1.3911844e-09
2.3574852e-06
2.8376365e-08
1.9560254e-09
2.8273189e-06
1.334351e-08
7.7427184e-10
3.3937185e-06
-4.8871089e-09
2.6766499e-09
4.074354e-06
-1.7882666e-08
-2.5114105e-09
4.8972777e-06
-2.2867855e-08
-1.0297174e-08
5.8900287e-06
-4.2508974e-08
3.7429526e-09
7.0847625e-06
-4.8060363e-08
-1.0732248e-08
8.5263509e-06
-5.2481506e-08
-1.2498416e-08
1.0268019e-05
-4.9141743e-08
-2.0045713e-08
1.2374623e-05
-5.2734153e-08
-1.4564656e-08
1.4909512e-05
-4.8085367e-08
-2.320842e-08
1.7975525e-05
-4.5734765e-08
-2.2346663e-08
2.1672596e-05
-3.8393528e-08
-2.8315878e-08
2.6139163e-05
-3.2581264e-08
-2.8393923e-08
3.1533976e-05
-2.4261385e-08
-3.1597844e-08
3.8041777e-05
-1.4883223e-08
-3.6556205e-08
4.5927606e-05
-3.9424597e-08
5.5463352e-05
1.8893628e-10
-3.1810346e-11
4.7296797e-10
7.7128025e-10
-1.1537592e-10
1.5979445e-09
1.9199359e-09
-2.4473497e-10
3.0671879e-09
3.6939815e-09
-4.5764251e-10
4.9627797e-09
6.3088447e-09
-7.7605249e-10
7.3826245e-09
9.7974907e-09
-1.2251769e-09
1.0442749e-08
1.4377349e-08
-1.8232472e-09
1.4279289e-08
2.0077456e-08
-2.5900283e-09
1.9050076e-08
2.7109375e-08
-3.532302e-09
2.4936059e-08
3.5369209e-08
-4.657446e-09
3.214214e-08
4.4757062e-08
-5.9208901e-09
4.089844e-08
5.5061151e-08
-7.2874168e-09
5.1460734e-08
6.6172022e-08
-8.69301e-09
6.4112082e-08
7.7295493e-08
-1.0061242e-08
7.9165976e-08
8.8387869e-08
-1.1267787e-08
9.6972595e-08
9.8677655e-08
-1.222839e-08
1.1792775e-07
1.0764677e-07
-1.2832124e-08
1.4249075e-07
1.1454451e-07
-1.3000913e-08
1.7120801e-07
1.1936078e-07
-1.2673906e-08
2.047476e-07
1.2130852e-07
-1.1881959e-08
2.439428e-07
1.2041606e-07
-1.0632092e-08
2.8984904e-07
1.1760492e-07
-9.0203257e-09
3.4381029e-07
1.1179915e-07
-7.2739878e-09
4.0751694e-07
1.0391341e-07
-5.4206257e-09
4.8308137e-07
9.5609171e-08
-3.7091928e-09
5.7310064e-07
8.6602672e-08
-2.0052393e-09
6.8072292e-07
7.6687942e-08
-2.8452437e-10
8.0972092e-07
7.2249427e-08
-5.6722504e-09
9.6459528e-07
6.1942636e-08
1.8542169e-09
1.1506643e-06
5.6010452e-08
-4.1403395e-09
1.374399e-06
4.5388131e-08
2.5024098e-09
1.6434478e-06
3.8620271e-08
-3.4125639e-09
1.9671372e-06
2.9239914e-08
1.5272499e-09
2.3565789e-06
2.5449766e-08
-3.6964177e-09
2.8254595e-06
1.8067611e-08
-1.3376963e-09
3.3900869e-06
1.432501e-08
-3.140862e-09
4.0702319e-06
7.8614779e-09
-5.4319799e-09
4.8898659e-06
-4.1816318e-09
-7.3257168e-09
5.8775472e-06
2.6459385e-10
-9.3865054e-09
7.0685541e-06
-7.094882e-09
-1.1772297e-08
8.5052429e-06
-1.3268719e-08
-1.4130724e-08
1.0237792e-05
-2.4308982e-08
-1.6001736e-08
1.2327224e-05
-2.6633132e-08
-1.8417356e-08
1.4848828e-05
-3.4128697e-08
-2.0566412e-08
1.789086e-05
-3.6800402e-08
-2.3027643e-08
2.1562571e-05
-4.0610239e-08
-2.5351894e-08
2.5992934e-05
-3.9466905e-08
-2.7961771e-08
3.1342447e-05
-3.2523239e-08
-3.0983019e-08
3.7796461e-05
-2.662783e-08
-3.3152181e-08
4.5601937e-05
-4.14342e-08
5.499133e-05
2.0661701e-10
-6.9915682e-11
4.5627367e-10
9.0761346e-10
-2.6468277e-10
1.5426071e-09
2.2295497e-09
-5.4884739e-10
2.9630511e-09
4.2983466e-09
-9.6055464e-10
4.7981244e-09
7.2439514e-09
-1.5285583e-09
7.1442573e-09
1.1173529e-08
-2.2647261e-09
1.0116283e-08
1.6159758e-08
-3.1708295e-09
1.3849624e-08
2.2214855e-08
-4.2342423e-09
1.8502295e-08
2.9279242e-08
-5.4291685e-09
2.4256595e-08
3.7187733e-08
-6.7073362e-09
3.1320411e-08
4.5705806e-08
-8.0135403e-09
3.9928191e-08
5.4477973e-08
-9.2548744e-09
5.0341733e-08
6.3077871e-08
-1.0358979e-08
6.285136e-08
7.1009919e-08
-1.1233751e-08
7.7778294e-08
7.78075e-08
-1.1817612e-08
9.547948e-08
8.2939268e-08
-1.1967152e-08
1.1635659e-07
8.5940983e-08
-1.1608626e-08
1.4087159e-07
8.6485399e-08
-1.0733881e-08
1.6957083e-07
8.4473733e-08
-9.4078806e-09
2.0311954e-07
8.0006163e-08
-7.7364036e-09
2.4234786e-07
7.3390253e-08
-5.8063855e-09
2.883074e-07
6.5062908e-08
-3.7360593e-09
3.423355e-07
5.5591302e-08
-1.8168109e-09
4.0612168e-07
4.5585841e-08
-1.2223824e-10
4.8179036e-07
4.1941831e-08
-5.2145156e-09
5.7191868e-07
3.8002433e-08
-3.416465e-09
6.7960507e-07
2.9537767e-08
2.8168552e-09
8.0858509e-07
1.5875979e-08
2.6929672e-09
9.6334847e-07
1.2970297e-08
-5.3323083e-10
1.1492803e-06
3.7734498e-09
-1.8193127e-10
1.3726827e-06
6.1151264e-11
9.8874718e-10
1.64128e-06
-8.146619e-09
-3.2794728e-10
1.9642467e-06
-1.0203688e-08
-1.464461e-09
2.3528271e-06
-1.6068732e-08
-2.706954e-09
2.8204493e-06
-1.8387777e-08
-3.7640196e-09
3.3834665e-06
-2.1114225e-08
-4.9260767e-09
4.0614785e-06
-2.4581934e-08
-6.1235303e-09
4.8782306e-06
-2.8251722e-08
-7.3511451e-09
5.8623992e-06
-3.2042722e-08
-8.6770945e-09
7.048569e-06
-3.6188034e-08
-9.9505676e-09
8.478521e-06
-4.045918e-08
-1.1221962e-08
1.0202586e-05
-4.4114976e-08
-1.2513729e-08
1.2281709e-05
-4.7384395e-08
-1.3797989e-08
1.478931e-05
-4.9594244e-08
-1.5074555e-08
1.781423e-05
-5.0497445e-08
-1.6342836e-08
2.1463651e-05
-4.9208794e-08
-1.7595142e-08
2.5867267e-05
-4.5089995e-08
-1.8857941e-08
3.118215e-05
-3.6517935e-08
-1.9998973e-08
3.7596731e-05
-2.301219e-08
-2.1496274e-08
4.5348262e-05
-2.3375257e-08
5.4686902e-05
2.2630425e-10
-1.1946448e-10
4.2882887e-10
9.2110632e-10
-3.8070986e-10
1.4539871e-09
2.1353556e-09
-6.9478858e-10
2.7999269e-09
3.8962978e-09
-1.0768693e-09
4.5460904e-09
6.2220269e-09
-1.5490464e-09
6.7883712e-09
9.1209476e-09
-2.1232573e-09
9.6418486e-09
1.2581678e-08
-2.7999182e-09
1.3243204e-08
1.6654094e-08
-3.656383e-09
1.7752859e-08
2.123063e-08
-4.5497648e-09
2.3356717e-08
2.5986095e-08
-5.2643555e-09
3.026735e-08
3.0869514e-08
-6.0778976e-09
3.8724703e-08
3.5450345e-08
-6.5828636e-09
4.8996295e-08
3.9121016e-08
-6.5890911e-09
6.1377597e-08
4.1599386e-08
-6.381729e-09
7.6193712e-08
4.2926153e-08
-6.2517835e-09
9.3803712e-08
4.304775e-08
-5.9647538e-09
1.1461043e-07
4.2125791e-08
-5.6285243e-09
1.3907661e-07
4.0026913e-08
-4.8728474e-09
1.6774922e-07
3.6579301e-08
-3.6256852e-09
2.0129584e-07
3.2238577e-08
-2.5046658e-09
2.4055099e-07
2.7500405e-08
-1.5210339e-09
2.8657164e-07
2.2667691e-08
-5.1273129e-10
3.4070636e-07
1.7889441e-08
4.5201496e-10
4.0463262e-07
1.6425162e-08
-1.7876102e-09
4.80441e-07
8.3924471e-09
-6.4675579e-10
5.7067778e-07
9.7041569e-10
3.8599574e-10
6.7846442e-07
-1.0280759e-09
1.1444841e-09
8.0752116e-07
-3.4285968e-09
1.4596858e-09
9.6225267e-07
-7.2849153e-09
-2.2076103e-10
1.1479736e-06
-1.0419859e-08
-4.8446938e-10
1.3710613e-06
-1.2041462e-08
-7.2966782e-10
1.6392009e-06
-1.450018e-08
-1.085978e-09
1.9616144e-06
-1.7502734e-08
-1.515294e-09
2.3494397e-06
-2.1033862e-08
-2.0085009e-09
2.8161185e-06
-2.4826113e-08
-2.5201194e-09
3.3778806e-06
-2.8863069e-08
-3.0801635e-09
4.0543136e-06
-3.3048993e-08
-3.6836225e-09
4.8690631e-06
-3.7263285e-08
-4.3378187e-09
5.8506672e-06
-4.1517526e-08
-4.9553977e-09
7.0335676e-06
-4.5654408e-08
-5.5189776e-09
8.4593398e-06
-4.9538541e-08
-6.0240759e-09
1.0178189e-05
-5.2882034e-08
-6.6045293e-09
1.2250759e-05
-5.5371287e-08
-7.2092973e-09
1.4750322e-05
-5.6586591e-08
-7.8547599e-09
1.7765432e-05
-5.6160331e-08
-8.3468463e-09
2.1403191e-05
-5.3552228e-08
-8.6904179e-09
2.5793299e-05
-4.7863926e-08
-9.1045865e-09
3.1093002e-05
-3.8147114e-08
-9.2059865e-09
3.7493187e-05
-2.308604e-08
-9.4813391e-09
4.5226208e-05
-8.9288437e-09
5.4569724e-05
2.3402226e-10
-1.6604334e-10
3.9311294e-10
9.3919208e-11
3.6985437e-10
1.344245e-09
1.355413e-09
-8.3499097e-10
2.6050656e-09
9.242074e-10
1.073009e-09
4.2553658e-09
2.5031065e-10