/*--------------------------------*- C++ -*----------------------------------*\
| =========                 |                                                 |
| \\      /  F ield         | OpenFOAM: The Open Source CFD Toolbox           |
|  \\    /   O peration     | Version:  3.0.1                                 |
|   \\  /    A nd           | Web:      www.OpenFOAM.org                      |
|    \\/     M anipulation  |                                                 |
\*---------------------------------------------------------------------------*/
FoamFile
{
    version     2.0;
    format      ascii;
    class       volScalarField;
    location    "2674";
    object      rho;
}
// * * * * * * * * * * * * * * * * * * * * * * * * * * * * * * * * * * * * * //

dimensions      [1 -3 0 0 0 0 0];

internalField   nonuniform List<scalar> 
80000
(
1.1709439
1.18026
1.1875039
1.1927543
1.1963364
1.1986509
1.2000733
1.2009065
1.2013721
1.2016204
1.2017465
1.2018075
1.2018354
1.2018476
1.2018525
1.2018545
1.2018552
1.2018554
1.2018555
1.2018555
1.2018555
1.2018555
1.2018555
1.2018555
1.2018555
1.2018555
1.2018555
1.2018555
1.2018555
1.2018555
1.2018555
1.2018555
1.2018555
1.2018555
1.2018555
1.2018555
1.2018555
1.2018555
1.2018555
1.2018555
1.1709546
1.1802518
1.1874821
1.1927254
1.1963053
1.1986223
1.2000494
1.2008881
1.201359
1.2016116
1.2017409
1.2018042
1.2018336
1.2018466
1.2018521
1.2018543
1.2018551
1.2018554
1.2018555
1.2018555
1.2018555
1.2018555
1.2018555
1.2018555
1.2018555
1.2018555
1.2018555
1.2018555
1.2018555
1.2018555
1.2018555
1.2018555
1.2018555
1.2018555
1.2018555
1.2018555
1.2018555
1.2018555
1.2018555
1.2018555
1.170975
1.1802438
1.1874554
1.1926887
1.1962666
1.1985865
1.2000196
1.2008654
1.2013429
1.2016009
1.2017344
1.2018004
1.2018316
1.2018456
1.2018516
1.2018541
1.201855
1.2018554
1.2018555
1.2018555
1.2018555
1.2018555
1.2018555
1.2018555
1.2018555
1.2018555
1.2018555
1.2018555
1.2018555
1.2018555
1.2018555
1.2018555
1.2018555
1.2018555
1.2018555
1.2018555
1.2018555
1.2018555
1.2018555
1.2018555
1.1709824
1.180216
1.187405
1.1926285
1.1962072
1.1985348
1.1999787
1.2008354
1.2013225
1.201588
1.2017266
1.201796
1.2018292
1.2018444
1.201851
1.2018538
1.2018549
1.2018553
1.2018555
1.2018555
1.2018555
1.2018555
1.2018555
1.2018555
1.2018555
1.2018555
1.2018555
1.2018555
1.2018555
1.2018555
1.2018555
1.2018555
1.2018555
1.2018555
1.2018555
1.2018555
1.2018555
1.2018555
1.2018555
1.2018555
1.1709847
1.1801864
1.1873578
1.1925767
1.1961596
1.1984958
1.1999495
1.2008151
1.2013092
1.2015798
1.2017218
1.2017934
1.2018278
1.2018437
1.2018507
1.2018537
1.2018548
1.2018553
1.2018554
1.2018555
1.2018555
1.2018555
1.2018555
1.2018555
1.2018555
1.2018555
1.2018555
1.2018555
1.2018555
1.2018555
1.2018555
1.2018555
1.2018555
1.2018555
1.2018555
1.2018555
1.2018555
1.2018555
1.2018555
1.2018555
1.1709535
1.1801638
1.1873415
1.1925651
1.1961513
1.1984901
1.1999456
1.2008125
1.2013076
1.2015787
1.2017212
1.201793
1.2018277
1.2018436
1.2018507
1.2018536
1.2018548
1.2018553
1.2018554
1.2018555
1.2018555
1.2018555
1.2018555
1.2018555
1.2018555
1.2018555
1.2018555
1.2018555
1.2018555
1.2018555
1.2018555
1.2018555
1.2018555
1.2018555
1.2018555
1.2018555
1.2018555
1.2018555
1.2018555
1.2018555
1.1708954
1.180152
1.187358
1.1925944
1.1961827
1.1985176
1.1999669
1.2008277
1.2013176
1.201585
1.2017249
1.201795
1.2018287
1.2018442
1.2018509
1.2018538
1.2018549
1.2018553
1.2018555
1.2018555
1.2018555
1.2018555
1.2018555
1.2018555
1.2018555
1.2018555
1.2018555
1.2018555
1.2018555
1.2018555
1.2018555
1.2018555
1.2018555
1.2018555
1.2018555
1.2018555
1.2018555
1.2018555
1.2018555
1.2018555
1.1708476
1.1801469
1.1873823
1.1926345
1.1962271
1.1985586
1.2000005
1.2008528
1.2013349
1.2015961
1.2017316
1.2017989
1.2018308
1.2018452
1.2018514
1.201854
1.201855
1.2018553
1.2018555
1.2018555
1.2018555
1.2018555
1.2018555
1.2018555
1.2018555
1.2018555
1.2018555
1.2018555
1.2018555
1.2018555
1.2018555
1.2018555
1.2018555
1.2018555
1.2018555
1.2018555
1.2018555
1.2018555
1.2018555
1.2018555
1.1708035
1.1801327
1.1873896
1.1926549
1.1962531
1.1985849
1.2000236
1.200871
1.2013482
1.2016051
1.2017372
1.2018022
1.2018326
1.2018461
1.2018519
1.2018542
1.2018551
1.2018554
1.2018555
1.2018555
1.2018555
1.2018555
1.2018555
1.2018555
1.2018555
1.2018555
1.2018555
1.2018555
1.2018555
1.2018555
1.2018555
1.2018555
1.2018555
1.2018555
1.2018555
1.2018555
1.2018555
1.2018555
1.2018555
1.2018555
1.1707825
1.1801301
1.187401
1.1926747
1.1962767
1.1986078
1.2000434
1.2008867
1.2013596
1.2016129
1.2017423
1.2018052
1.2018343
1.201847
1.2018523
1.2018544
1.2018551
1.2018554
1.2018555
1.2018555
1.2018555
1.2018555
1.2018555
1.2018555
1.2018555
1.2018555
1.2018555
1.2018555
1.2018555
1.2018555
1.2018555
1.2018555
1.2018555
1.2018555
1.2018555
1.2018555
1.2018555
1.2018555
1.2018555
1.2018555
1.1612031
1.1708164
1.1790914
1.1858684
1.1911225
1.1949723
1.1976412
1.1993933
1.2004838
1.2011276
1.2014879
1.2016789
1.2017747
1.20182
1.2018403
1.2018488
1.2018522
1.2018534
1.2018538
1.201854
1.201854
1.201854
1.201854
1.201854
1.201854
1.201854
1.201854
1.201854
1.201854
1.201854
1.201854
1.201854
1.201854
1.201854
1.201854
1.201854
1.201854
1.201854
1.201854
1.201854
1.1611789
1.1707719
1.1790297
1.1857943
1.1910414
1.1948925
1.1975685
1.1993322
1.2004362
1.2010928
1.2014642
1.2016639
1.2017659
1.2018153
1.2018379
1.2018477
1.2018517
1.2018532
1.2018538
1.2018539
1.201854
1.201854
1.201854
1.201854
1.201854
1.201854
1.201854
1.201854
1.201854
1.201854
1.201854
1.201854
1.201854
1.201854
1.201854
1.201854
1.201854
1.201854
1.201854
1.201854
1.1611239
1.1706825
1.178911
1.1856557
1.1908962
1.1947539
1.1974473
1.1992344
1.2003629
1.2010419
1.2014312
1.2016439
1.2017545
1.2018091
1.2018348
1.2018462
1.201851
1.2018529
1.2018537
1.2018539
1.201854
1.201854
1.201854
1.201854
1.201854
1.201854
1.201854
1.201854
1.201854
1.201854
1.201854
1.201854
1.201854
1.201854
1.201854
1.201854
1.201854
1.201854
1.201854
1.201854
1.1610197
1.1705274
1.1787134
1.1854343
1.1906746
1.1945528
1.1972805
1.1991065
1.2002718
1.2009812
1.2013933
1.2016216
1.2017421
1.2018027
1.2018316
1.2018447
1.2018504
1.2018527
1.2018535
1.2018539
1.201854
1.201854
1.201854
1.201854
1.201854
1.201854
1.201854
1.201854
1.201854
1.201854
1.201854
1.201854
1.201854
1.201854
1.201854
1.201854
1.201854
1.201854
1.201854
1.201854
1.1609289
1.170391
1.1785486
1.1852596
1.1905088
1.1944101
1.1971676
1.1990238
1.2002152
1.2009448
1.2013711
1.2016088
1.201735
1.201799
1.2018298
1.2018438
1.20185
1.2018525
1.2018535
1.2018538
1.201854
1.201854
1.201854
1.201854
1.201854
1.201854
1.201854
1.201854
1.201854
1.201854
1.201854
1.201854
1.201854
1.201854
1.201854
1.201854
1.201854
1.201854
1.201854
1.201854
1.1608978
1.170369
1.1785323
1.185247
1.1904988
1.1944021
1.1971613
1.199019
1.2002117
1.2009423
1.2013694
1.2016077
1.2017344
1.2017986
1.2018296
1.2018438
1.2018499
1.2018525
1.2018535
1.2018538
1.201854
1.201854
1.201854
1.201854
1.201854
1.201854
1.201854
1.201854
1.201854
1.201854
1.201854
1.201854
1.201854
1.201854
1.201854
1.201854
1.201854
1.201854
1.201854
1.201854
1.1609314
1.1704619
1.1786641
1.1853963
1.1906448
1.1945292
1.1972619
1.1990923
1.2002614
1.2009739
1.2013884
1.2016185
1.2017403
1.2018017
1.2018311
1.2018445
1.2018502
1.2018526
1.2018535
1.2018539
1.201854
1.201854
1.201854
1.201854
1.201854
1.201854
1.201854
1.201854
1.201854
1.201854
1.201854
1.201854
1.201854
1.201854
1.201854
1.201854
1.201854
1.201854
1.201854
1.201854
1.1609891
1.1705773
1.1788288
1.1855911
1.1908453
1.1947139
1.1974165
1.1992113
1.2003463
1.2010304
1.2014237
1.2016392
1.2017518
1.2018077
1.201834
1.2018458
1.2018509
1.2018529
1.2018536
1.2018539
1.201854
1.201854
1.201854
1.201854
1.201854
1.201854
1.201854
1.201854
1.201854
1.201854
1.201854
1.201854
1.201854
1.201854
1.201854
1.201854
1.201854
1.201854
1.201854
1.201854
1.1610124
1.1706358
1.1789183
1.1857035
1.1909683
1.1948348
1.1975243
1.1992995
1.2004131
1.2010772
1.2014543
1.201658
1.2017625
1.2018134
1.2018369
1.2018472
1.2018515
1.2018531
1.2018537
1.2018539
1.201854
1.201854
1.201854
1.201854
1.201854
1.201854
1.201854
1.201854
1.201854
1.201854
1.201854
1.201854
1.201854
1.201854
1.201854
1.201854
1.201854
1.201854
1.201854
1.201854
1.1610213
1.1706637
1.1789631
1.1857613
1.1910347
1.1949023
1.1975874
1.1993537
1.200456
1.2011092
1.2014763
1.201672
1.2017708
1.201818
1.2018393
1.2018483
1.201852
1.2018533
1.2018538
1.201854
1.201854
1.201854
1.201854
1.201854
1.201854
1.201854
1.201854
1.201854
1.201854
1.201854
1.201854
1.201854
1.201854
1.201854
1.201854
1.201854
1.201854
1.201854
1.201854
1.201854
1.1557952
1.1653841
1.1738732
1.181145
1.1871199
1.1918012
1.1952897
1.1977579
1.1994151
1.2004708
1.2011077
1.2014714
1.2016678
1.2017679
1.2018159
1.2018376
1.2018468
1.2018505
1.2018518
1.2018523
1.2018525
1.2018525
1.2018525
1.2018525
1.2018525
1.2018525
1.2018525
1.2018525
1.2018525
1.2018525
1.2018525
1.2018525
1.2018525
1.2018525
1.2018525
1.2018525
1.2018525
1.2018525
1.2018525
1.2018525
1.1557367
1.1653045
1.1737745
1.1810309
1.1869948
1.1916739
1.1951679
1.1976491
1.1993245
1.2003997
1.2010558
1.2014364
1.2016459
1.2017551
1.201809
1.2018342
1.2018452
1.2018498
1.2018516
1.2018522
1.2018524
1.2018525
1.2018525
1.2018525
1.2018525
1.2018525
1.2018525
1.2018525
1.2018525
1.2018525
1.2018525
1.2018525
1.2018525
1.2018525
1.2018525
1.2018525
1.2018525
1.2018525
1.2018525
1.2018525
1.1556118
1.1651396
1.1735712
1.1807964
1.1867436
1.1914237
1.1949369
1.1974509
1.1991662
1.2002821
1.2009744
1.2013835
1.2016137
1.2017369
1.2017993
1.2018293
1.201843
1.2018488
1.2018512
1.2018521
1.2018524
1.2018525
1.2018525
1.2018525
1.2018525
1.2018525
1.2018525
1.2018525
1.2018525
1.2018525
1.2018525
1.2018525
1.2018525
1.2018525
1.2018525
1.2018525
1.2018525
1.2018525
1.2018525
1.2018525
1.1554117
1.1648739
1.1732407
1.1804193
1.1863499
1.1910466
1.194604
1.197179
1.1989596
1.2001357
1.2008771
1.2013229
1.2015782
1.2017172
1.2017891
1.2018243
1.2018406
1.2018478
1.2018507
1.2018519
1.2018523
1.2018525
1.2018525
1.2018525
1.2018525
1.2018525
1.2018525
1.2018525
1.2018525
1.2018525
1.2018525
1.2018525
1.2018525
1.2018525
1.2018525
1.2018525
1.2018525
1.2018525
1.2018525
1.2018525
1.1552506
1.1646513
1.1729687
1.1801218
1.1860526
1.1907744
1.1943745
1.1969998
1.1988293
1.2000469
1.2008202
1.2012884
1.2015583
1.2017063
1.2017834
1.2018215
1.2018393
1.2018472
1.2018505
1.2018518
1.2018523
1.2018525
1.2018525
1.2018525
1.2018525
1.2018525
1.2018525
1.2018525
1.2018525
1.2018525
1.2018525
1.2018525
1.2018525
1.2018525
1.2018525
1.2018525
1.2018525
1.2018525
1.2018525
1.2018525
1.155225
1.1646354
1.1729603
1.180116
1.1860478
1.1907698
1.19437
1.1969955
1.1988255
1.2000437
1.2008177
1.2012866
1.2015571
1.2017056
1.201783
1.2018212
1.2018392
1.2018471
1.2018505
1.2018518
1.2018523
1.2018524
1.2018525
1.2018525
1.2018525
1.2018525
1.2018525
1.2018525
1.2018525
1.2018525
1.2018525
1.2018525
1.2018525
1.2018525
1.2018525
1.2018525
1.2018525
1.2018525
1.2018525
1.2018525
1.1553386
1.1648245
1.1732079
1.1803965
1.1863322
1.1910311
1.1945897
1.1971659
1.1989482
1.2001263
1.2008699
1.2013178
1.2015748
1.2017151
1.2017878
1.2018236
1.2018403
1.2018476
1.2018507
1.2018519
1.2018523
1.2018525
1.2018525
1.2018525
1.2018525
1.2018525
1.2018525
1.2018525
1.2018525
1.2018525
1.2018525
1.2018525
1.2018525
1.2018525
1.2018525
1.2018525
1.2018525
1.2018525
1.2018525
1.2018525
1.155493
1.1650511
1.1735056
1.1807469
1.1867047
1.1913916
1.1949095
1.1974278
1.1991472
1.2002672
1.2009633
1.2013758
1.2016087
1.2017338
1.2017976
1.2018284
1.2018425
1.2018486
1.2018511
1.201852
1.2018524
1.2018525
1.2018525
1.2018525
1.2018525
1.2018525
1.2018525
1.2018525
1.2018525
1.2018525
1.2018525
1.2018525
1.2018525
1.2018525
1.2018525
1.2018525
1.2018525
1.2018525
1.2018525
1.2018525
1.1555818
1.1651794
1.1736728
1.1809474
1.1869256
1.1916165
1.1951206
1.1976111
1.199295
1.2003778
1.2010405
1.2014262
1.2016394
1.2017513
1.201807
1.2018331
1.2018447
1.2018496
1.2018515
1.2018522
1.2018524
1.2018525
1.2018525
1.2018525
1.2018525
1.2018525
1.2018525
1.2018525
1.2018525
1.2018525
1.2018525
1.2018525
1.2018525
1.2018525
1.2018525
1.2018525
1.2018525
1.2018525
1.2018525
1.2018525
1.1556213
1.1652379
1.1737489
1.1810385
1.1870288
1.1917243
1.1952263
1.1977075
1.1993767
1.200443
1.2010887
1.2014592
1.2016604
1.2017637
1.2018137
1.2018365
1.2018463
1.2018503
1.2018518
1.2018523
1.2018525
1.2018525
1.2018525
1.2018525
1.2018525
1.2018525
1.2018525
1.2018525
1.2018525
1.2018525
1.2018525
1.2018525
1.2018525
1.2018525
1.2018525
1.2018525
1.2018525
1.2018525
1.2018525
1.2018525
1.1520928
1.1616417
1.1702013
1.1776915
1.1840346
1.1891967
1.1932175
1.1962055
1.19832
1.1997435
1.2006529
1.2012035
1.2015192
1.2016901
1.2017773
1.2018192
1.2018381
1.2018461
1.2018493
1.2018504
1.2018509
1.201851
1.201851
1.201851
1.201851
1.201851
1.201851
1.201851
1.201851
1.201851
1.201851
1.201851
1.201851
1.201851
1.201851
1.201851
1.201851
1.201851
1.201851
1.201851
1.1520061
1.1615327
1.1700712
1.1775437
1.1838726
1.1890293
1.193053
1.1960529
1.1981869
1.1996337
1.2005683
1.2011431
1.201479
1.2016652
1.2017631
1.2018117
1.2018344
1.2018444
1.2018486
1.2018502
1.2018507
1.2018509
1.201851
1.201851
1.201851
1.201851
1.201851
1.201851
1.201851
1.201851
1.201851
1.201851
1.201851
1.201851
1.201851
1.201851
1.201851
1.201851
1.201851
1.201851
1.1518275
1.1613091
1.1698014
1.1772325
1.1835339
1.1886821
1.1927198
1.1957536
1.1979354
1.1994363
1.2004233
1.2010433
1.2014146
1.2016264
1.2017411
1.2018
1.2018286
1.2018418
1.2018474
1.2018497
1.2018506
1.2018509
1.201851
1.201851
1.201851
1.201851
1.201851
1.201851
1.201851
1.201851
1.201851
1.201851
1.201851
1.201851
1.201851
1.201851
1.201851
1.201851
1.201851
1.201851
1.15156
1.1609648
1.1693736
1.1767353
1.1829978
1.1881465
1.1922233
1.1953257
1.1975915
1.199178
1.2002416
1.2009233
1.2013402
1.2015829
1.2017173
1.2017877
1.2018226
1.201839
1.2018462
1.2018492
1.2018504
1.2018508
1.201851
1.201851
1.201851
1.201851
1.201851
1.201851
1.201851
1.201851
1.201851
1.201851
1.201851
1.201851
1.201851
1.201851
1.201851
1.201851
1.201851
1.201851
1.1513534
1.160686
1.1690262
1.1763432
1.1825892
1.1877531
1.1918728
1.1950358
1.1973682
1.199017
1.2001327
1.2008538
1.2012982
1.2015589
1.2017042
1.2017809
1.2018193
1.2018374
1.2018455
1.2018489
1.2018503
1.2018508
1.201851
1.201851
1.201851
1.201851
1.201851
1.201851
1.201851
1.201851
1.201851
1.201851
1.201851
1.201851
1.201851
1.201851
1.201851
1.201851
1.201851
1.201851
1.1513359
1.1606789
1.1690279
1.1763478
1.1825937
1.1877562
1.191874
1.1950353
1.1973665
1.1990148
1.2001303
1.2008517
1.2012966
1.2015578
1.2017034
1.2017805
1.201819
1.2018373
1.2018455
1.2018489
1.2018503
1.2018508
1.2018509
1.201851
1.201851
1.201851
1.201851
1.201851
1.201851
1.201851
1.201851
1.201851
1.201851
1.201851
1.201851
1.201851
1.201851
1.201851
1.201851
1.201851
1.1515078
1.1609381
1.1693649
1.1767365
1.1830022
1.1881496
1.1922231
1.195322
1.1975854
1.1991708
1.2002346
1.2009173
1.2013355
1.2015797
1.2017151
1.2017864
1.2018219
1.2018386
1.201846
1.2018491
1.2018504
1.2018508
1.201851
1.201851
1.201851
1.201851
1.201851
1.201851
1.201851
1.201851
1.201851
1.201851
1.201851
1.201851
1.201851
1.201851
1.201851
1.201851
1.201851
1.201851
1.1517328
1.1612462
1.1697625
1.1772096
1.1835195
1.1886707
1.1927082
1.195741
1.1979222
1.1994236
1.2004121
1.2010343
1.2014079
1.2016218
1.2017382
1.2017983
1.2018277
1.2018413
1.2018472
1.2018496
1.2018505
1.2018509
1.201851
1.201851
1.201851
1.201851
1.201851
1.201851
1.201851
1.201851
1.201851
1.201851
1.201851
1.201851
1.201851
1.201851
1.201851
1.201851
1.201851
1.201851
1.1518724
1.1614288
1.1699902
1.1774795
1.1838203
1.1889852
1.1930148
1.1960197
1.1981588
1.1996107
1.2005505
1.20113
1.20147
1.2016595
1.2017596
1.2018097
1.2018334
1.2018439
1.2018483
1.2018501
1.2018507
1.2018509
1.201851
1.201851
1.201851
1.201851
1.201851
1.201851
1.201851
1.201851
1.201851
1.201851
1.201851
1.201851
1.201851
1.201851
1.201851
1.201851
1.201851
1.201851
1.1519368
1.1615126
1.1700922
1.1775977
1.1839527
1.189125
1.1931554
1.196153
1.1982773
1.1997103
1.2006284
1.2011865
1.2015081
1.2016833
1.2017734
1.2018172
1.2018371
1.2018456
1.2018491
1.2018504
1.2018508
1.201851
1.201851
1.201851
1.201851
1.201851
1.201851
1.201851
1.201851
1.201851
1.201851
1.201851
1.201851
1.201851
1.201851
1.201851
1.201851
1.201851
1.201851
1.201851
1.149279
1.1587904
1.1673781
1.1749882
1.1815519
1.1870233
1.1914112
1.1947837
1.1972615
1.1989992
1.2001588
1.2008942
1.2013367
1.2015886
1.201724
1.2017925
1.2018252
1.2018398
1.2018459
1.2018482
1.2018491
1.2018494
1.2018495
1.2018495
1.2018495
1.2018495
1.2018495
1.2018495
1.2018495
1.2018495
1.2018495
1.2018495
1.2018495
1.2018495
1.2018495
1.2018495
1.2018495
1.2018495
1.2018495
1.2018495
1.1491705
1.1586579
1.1672225
1.1748124
1.1813594
1.1868228
1.1912109
1.1945934
1.1970905
1.1988528
1.2000414
1.2008063
1.2012752
1.2015486
1.2016998
1.201779
1.2018181
1.2018363
1.2018443
1.2018476
1.2018489
1.2018493
1.2018495
1.2018495
1.2018495
1.2018495
1.2018495
1.2018495
1.2018495
1.2018495
1.2018495
1.2018495
1.2018495
1.2018495
1.2018495
1.2018495
1.2018495
1.2018495
1.2018495
1.2018495
1.1489529
1.1583914
1.1669033
1.1744435
1.1809532
1.1863982
1.1907924
1.1942048
1.196751
1.1985746
1.1998272
1.2006513
1.20117
1.2014815
1.2016597
1.2017566
1.2018064
1.2018306
1.2018417
1.2018465
1.2018484
1.2018492
1.2018494
1.2018495
1.2018495
1.2018495
1.2018495
1.2018495
1.2018495
1.2018495
1.2018495
1.2018495
1.2018495
1.2018495
1.2018495
1.2018495
1.2018495
1.2018495
1.2018495
1.2018495
1.1486414
1.1579955
1.1664102
1.1738619
1.1803113
1.1857367
1.190156
1.1936328
1.1962698
1.1981952
1.1995463
1.200456
1.2010423
1.201403
1.2016144
1.2017319
1.2017938
1.2018246
1.201839
1.2018453
1.201848
1.201849
1.2018494
1.2018495
1.2018495
1.2018495
1.2018495
1.2018495
1.2018495
1.2018495
1.2018495
1.2018495
1.2018495
1.2018495
1.2018495
1.2018495
1.2018495
1.2018495
1.2018495
1.2018495
1.1484088
1.157684
1.1660165
1.1734043
1.1798196
1.1852447
1.189698
1.1932355
1.195948
1.1979512
1.1993727
1.2003397
1.2009688
1.201359
1.2015894
1.2017184
1.2017869
1.2018212
1.2018374
1.2018446
1.2018477
1.2018489
1.2018493
1.2018495
1.2018495
1.2018495
1.2018495
1.2018495
1.2018495
1.2018495
1.2018495
1.2018495
1.2018495
1.2018495
1.2018495
1.2018495
1.2018495
1.2018495
1.2018495
1.2018495
1.1483995
1.157686
1.1660278
1.1734217
1.1798357
1.1852581
1.1897078
1.1932416
1.195951
1.1979518
1.1993719
1.2003383
1.2009672
1.2013577
1.2015884
1.2017178
1.2017865
1.201821
1.2018373
1.2018446
1.2018476
1.2018489
1.2018493
1.2018495
1.2018495
1.2018495
1.2018495
1.2018495
1.2018495
1.2018495
1.2018495
1.2018495
1.2018495
1.2018495
1.2018495
1.2018495
1.2018495
1.2018495
1.2018495
1.2018495
1.1486114
1.1579928
1.1664276
1.1738905
1.1803424
1.1857642
1.1901764
1.1936451
1.1962749
1.198195
1.199543
1.2004514
1.2010377
1.2013992
1.2016115
1.20173
1.2017926
1.2018239
1.2018386
1.2018452
1.2018479
1.201849
1.2018493
1.2018495
1.2018495
1.2018495
1.2018495
1.2018495
1.2018495
1.2018495
1.2018495
1.2018495
1.2018495
1.2018495
1.2018495
1.2018495
1.2018495
1.2018495
1.2018495
1.2018495
1.1488848
1.1583567
1.1668944
1.1744514
1.180969
1.1864145
1.1908043
1.1942104
1.1967506
1.1985698
1.19982
1.2006437
1.2011632
1.2014761
1.2016559
1.201754
1.2018049
1.2018298
1.2018413
1.2018463
1.2018483
1.2018491
1.2018494
1.2018495
1.2018495
1.2018495
1.2018495
1.2018495
1.2018495
1.2018495
1.2018495
1.2018495
1.2018495
1.2018495
1.2018495
1.2018495
1.2018495
1.2018495
1.2018495
1.2018495
1.1490612
1.1585789
1.1671665
1.1747726
1.1813299
1.1867986
1.1911889
1.1945721
1.1970698
1.1988336
1.2000246
1.2007927
1.2012649
1.2015413
1.201695
1.2017761
1.2018165
1.2018355
1.2018439
1.2018474
1.2018488
1.2018493
1.2018495
1.2018495
1.2018495
1.2018495
1.2018495
1.2018495
1.2018495
1.2018495
1.2018495
1.2018495
1.2018495
1.2018495
1.2018495
1.2018495
1.2018495
1.2018495
1.2018495
1.2018495
1.1491447
1.1586825
1.167289
1.1749121
1.181485
1.1869632
1.1913568
1.1947352
1.1972196
1.1989644
1.2001314
1.2008738
1.2013224
1.2015792
1.2017182
1.2017893
1.2018235
1.2018389
1.2018455
1.2018481
1.201849
1.2018494
1.2018495
1.2018495
1.2018495
1.2018495
1.2018495
1.2018495
1.2018495
1.2018495
1.2018495
1.2018495
1.2018495
1.2018495
1.2018495
1.2018495
1.2018495
1.2018495
1.2018495
1.2018495
1.147014
1.1564919
1.1650908
1.1727752
1.1794859
1.1851731
1.1898287
1.193495
1.1962645
1.1982676
1.1996504
1.20056
1.2011292
1.201467
1.2016567
1.2017573
1.2018075
1.201831
1.2018413
1.2018456
1.2018472
1.2018478
1.201848
1.201848
1.201848
1.201848
1.201848
1.201848
1.201848
1.201848
1.201848
1.201848
1.201848
1.201848
1.201848
1.201848
1.201848
1.201848
1.201848
1.201848
1.1468885
1.1563409
1.1649145
1.1725762
1.1792676
1.1849444
1.189598
1.1932723
1.19606
1.198088
1.1995017
1.2004447
1.2010454
1.2014101
1.2016207
1.201736
1.2017958
1.201825
1.2018385
1.2018443
1.2018467
1.2018476
1.2018479
1.201848
1.201848
1.201848
1.201848
1.201848
1.201848
1.201848
1.201848
1.201848
1.201848
1.201848
1.201848
1.201848
1.201848
1.201848
1.201848
1.201848
1.1466425
1.1560427
1.1645582
1.1721632
1.1788091
1.1844585
1.1891097
1.1928079
1.1956424
1.1977341
1.1992189
1.2002316
1.2008941
1.2013091
1.2015574
1.2016988
1.2017753
1.2018145
1.2018335
1.2018421
1.2018457
1.2018472
1.2018478
1.2018479
1.201848
1.201848
1.201848
1.201848
1.201848
1.201848
1.201848
1.201848
1.201848
1.201848
1.201848
1.201848
1.201848
1.201848
1.201848
1.201848
1.146302
1.1556127
1.164021
1.1715229
1.17809
1.1837003
1.1883596
1.1921115
1.195035
1.1972359
1.1988342
1.1999519
1.2007026
1.2011857
1.2014825
1.2016562
1.2017525
1.201803
1.201828
1.2018397
1.2018447
1.2018468
1.2018476
1.2018479
1.201848
1.201848
1.201848
1.201848
1.201848
1.201848
1.201848
1.201848
1.201848
1.201848
1.201848
1.201848
1.201848
1.201848
1.201848
1.201848
1.1460549
1.1552826
1.1635995
1.1710222
1.1775392
1.1831325
1.1878125
1.1916183
1.1946187
1.1969062
1.198589
1.1997801
1.2005891
1.2011149
1.2014407
1.2016327
1.20174
1.2017967
1.201825
1.2018383
1.2018441
1.2018466
1.2018475
1.2018479
1.201848
1.201848
1.201848
1.201848
1.201848
1.201848
1.201848
1.201848
1.201848
1.201848
1.201848
1.201848
1.201848
1.201848
1.201848
1.201848
1.1460539
1.1552938
1.1636212
1.1710517
1.1775673
1.1831572
1.1878324
1.1916329
1.1946282
1.1969115
1.1985912
1.1997804
1.2005884
1.2011138
1.2014396
1.2016319
1.2017394
1.2017963
1.2018248
1.2018382
1.2018441
1.2018465
1.2018475
1.2018479
1.201848
1.201848
1.201848
1.201848
1.201848
1.201848
1.201848
1.201848
1.201848
1.201848
1.201848
1.201848
1.201848
1.201848
1.201848
1.201848
1.1462939
1.1556339
1.1640647
1.1715795
1.1781495
1.1837548
1.1884042
1.192144
1.1950557
1.1972468
1.1988381
1.1999513
1.2006999
1.2011823
1.2014795
1.2016538
1.2017509
1.201802
1.2018275
1.2018394
1.2018446
1.2018468
1.2018476
1.2018479
1.201848
1.201848
1.201848
1.201848
1.201848
1.201848
1.201848
1.201848
1.201848
1.201848
1.201848
1.201848
1.201848
1.201848
1.201848
1.201848
1.1466012
1.1560364
1.1645798
1.1722032
1.1788571
1.1845056
1.1891493
1.1928366
1.1956598
1.1977419
1.1992198
1.2002284
1.2008892
1.2013041
1.2015532
1.2016957
1.2017733
1.2018133
1.2018328
1.2018417
1.2018456
1.2018471
1.2018477
1.2018479
1.201848
1.201848
1.201848
1.201848
1.201848
1.201848
1.201848
1.201848
1.201848
1.201848
1.201848
1.201848
1.201848
1.201848
1.201848
1.201848
1.1468047
1.1562879
1.1648849
1.1725627
1.1792634
1.1849435
1.1895962
1.1932674
1.1960515
1.1980768
1.1994895
1.200433
1.2010353
1.2014022
1.201615
1.2017323
1.2017935
1.2018238
1.2018378
1.201844
1.2018465
1.2018475
1.2018479
1.201848
1.201848
1.201848
1.201848
1.201848
1.201848
1.201848
1.201848
1.201848
1.201848
1.201848
1.201848
1.201848
1.201848
1.201848
1.201848
1.201848
1.146903
1.156407
1.1650237
1.1727195
1.179437
1.185128
1.189786
1.1934545
1.1962271
1.1982344
1.1996225
1.2005378
1.2011127
1.2014555
1.2016492
1.2017527
1.2018049
1.2018297
1.2018407
1.2018453
1.2018471
1.2018477
1.2018479
1.201848
1.201848
1.201848
1.201848
1.201848
1.201848
1.201848
1.201848
1.201848
1.201848
1.201848
1.201848
1.201848
1.201848
1.201848
1.201848
1.201848
1.1451185
1.1545665
1.1631683
1.1709024
1.1777181
1.1835653
1.188426
1.1923246
1.1953329
1.1975616
1.199142
1.2002126
1.2009044
1.2013294
1.2015771
1.2017137
1.2017847
1.2018195
1.2018354
1.2018423
1.201845
1.201846
1.2018464
1.2018465
1.2018465
1.2018465
1.2018465
1.2018465
1.2018465
1.2018465
1.2018465
1.2018465
1.2018465
1.2018465
1.2018465
1.2018465
1.2018465
1.2018465
1.2018465
1.2018465
1.14498
1.154401
1.1629752
1.170684
1.1774781
1.1833124
1.1881689
1.1920738
1.195099
1.1973522
1.1989645
1.2000711
1.2007981
1.2012546
1.2015279
1.2016834
1.2017674
1.2018102
1.2018308
1.2018401
1.2018441
1.2018457
1.2018462
1.2018464
1.2018465
1.2018465
1.2018465
1.2018465
1.2018465
1.2018465
1.2018465
1.2018465
1.2018465
1.2018465
1.2018465
1.2018465
1.2018465
1.2018465
1.2018465
1.2018465
1.1447135
1.1540795
1.1625911
1.1702375
1.1769788
1.1827779
1.1876239
1.1915459
1.1946137
1.1969302
1.198617
1.1998004
1.2005989
1.2011164
1.2014375
1.2016279
1.2017354
1.201793
1.2018222
1.2018361
1.2018423
1.2018449
1.201846
1.2018464
1.2018465
1.2018465
1.2018465
1.2018465
1.2018465
1.2018465
1.2018465
1.2018465
1.2018465
1.2018465
1.2018465
1.2018465
1.2018465
1.2018465
1.2018465
1.2018465
1.1443543
1.1536273
1.1620248
1.1695568
1.1762041
1.1819465
1.1867835
1.1907455
1.1938953
1.1963218
1.1981306
1.1994332
1.2003373
1.2009406
1.2013263
1.2015616
1.2016983
1.2017735
1.2018125
1.2018316
1.2018404
1.2018442
1.2018457
1.2018462
1.2018464
1.2018465
1.2018465
1.2018465
1.2018465
1.2018465
1.2018465
1.2018465
1.2018465
1.2018465
1.2018465
1.2018465
1.2018465
1.2018465
1.2018465
1.2018465
1.1441001
1.153288
1.1615879
1.1690297
1.1756117
1.181322
1.1861651
1.1901707
1.1933933
1.1959095
1.1978119
1.199201
1.2001777
1.2008369
1.2012626
1.2015246
1.2016778
1.2017627
1.2018072
1.2018291
1.2018392
1.2018437
1.2018455
1.2018462
1.2018464
1.2018465
1.2018465
1.2018465
1.2018465
1.2018465
1.2018465
1.2018465
1.2018465
1.2018465
1.2018465
1.2018465
1.2018465
1.2018465
1.2018465
1.2018465
1.144107
1.1533079
1.1616193
1.1690698
1.1756524
1.1813587
1.1861961
1.190195
1.1934108
1.195921
1.1978185
1.1992041
1.2001786
1.2008366
1.2012618
1.2015238
1.2016772
1.2017623
1.2018069
1.2018289
1.2018391
1.2018436
1.2018455
1.2018462
1.2018464
1.2018465
1.2018465
1.2018465
1.2018465
1.2018465
1.2018465
1.2018465
1.2018465
1.2018465
1.2018465
1.2018465
1.2018465
1.2018465
1.2018465
1.2018465
1.1443669
1.1536712
1.1620935
1.1696404
1.1762918
1.1820289
1.186854
1.1908008
1.1939348
1.1963471
1.1981447
1.1994392
1.2003383
1.200939
1.2013238
1.2015592
1.2016964
1.2017722
1.2018117
1.2018312
1.2018401
1.201844
1.2018456
1.2018462
1.2018464
1.2018465
1.2018465
1.2018465
1.2018465
1.2018465
1.2018465
1.2018465
1.2018465
1.2018465
1.2018465
1.2018465
1.2018465
1.2018465
1.2018465
1.2018465
1.1446979
1.1541007
1.1626424
1.1703089
1.1770592
1.1828568
1.1876931
1.1916005
1.1946524
1.1969542
1.1986293
1.1998045
1.2005981
1.2011133
1.2014339
1.2016247
1.201733
1.2017914
1.2018212
1.2018355
1.201842
1.2018448
1.2018459
1.2018463
1.2018465
1.2018465
1.2018465
1.2018465
1.2018465
1.2018465
1.2018465
1.2018465
1.2018465
1.2018465
1.2018465
1.2018465
1.2018465
1.2018465
1.2018465
1.2018465
1.1449215
1.1543739
1.162972
1.1706972
1.1775
1.1833363
1.1881894
1.1920878
1.1951056
1.1973521
1.1989596
1.2000636
1.20079
1.2012473
1.201522
1.2016792
1.2017645
1.2018085
1.2018299
1.2018396
1.2018439
1.2018456
1.2018462
1.2018464
1.2018465
1.2018465
1.2018465
1.2018465
1.2018465
1.2018465
1.2018465
1.2018465
1.2018465
1.2018465
1.2018465
1.2018465
1.2018465
1.2018465
1.2018465
1.2018465
1.1450311
1.1545051
1.1631239
1.1708681
1.1776886
1.1835371
1.1883971
1.1922946
1.1953026
1.1975326
1.1991157
1.2001903
1.2008867
1.2013163
1.2015681
1.2017079
1.2017813
1.2018176
1.2018344
1.2018418
1.2018448
1.2018459
1.2018463
1.2018465
1.2018465
1.2018465
1.2018465
1.2018465
1.2018465
1.2018465
1.2018465
1.2018465
1.2018465
1.2018465
1.2018465
1.2018465
1.2018465
1.2018465
1.2018465
1.2018465
1.1434895
1.1529105
1.1615106
1.1692796
1.176174
1.182145
1.1871683
1.191256
1.1944638
1.1968866
1.198642
1.1998601
1.2006684
1.2011795
1.201487
1.2016624
1.201757
1.201805
1.2018279
1.2018382
1.2018425
1.2018441
1.2018447
1.2018449
1.201845
1.201845
1.201845
1.201845
1.201845
1.201845
1.201845
1.201845
1.201845
1.201845
1.201845
1.201845
1.201845
1.201845
1.201845
1.201845
1.1433409
1.1527335
1.1613039
1.1690452
1.1759154
1.1818712
1.1868882
1.1909804
1.1942039
1.1966504
1.1984381
1.199694
1.2005404
1.2010868
1.201424
1.2016222
1.201733
1.2017917
1.201821
1.2018349
1.201841
1.2018435
1.2018445
1.2018449
1.201845
1.201845
1.201845
1.201845
1.201845
1.201845
1.201845
1.201845
1.201845
1.201845
1.201845
1.201845
1.201845
1.201845
1.201845
1.201845
1.1430594
1.1523948
1.160899
1.1685727
1.1753842
1.1812977
1.186297
1.1903994
1.1936604
1.1961679
1.1980313
1.1993684
1.2002934
1.2009096
1.2013039
1.2015456
1.201687
1.2017658
1.2018075
1.2018282
1.2018379
1.2018422
1.201844
1.2018447
1.2018449
1.201845
1.201845
1.201845
1.201845
1.201845
1.201845
1.201845
1.201845
1.201845
1.201845
1.201845
1.201845
1.201845
1.201845
1.201845
1.1426886
1.1519287
1.1603136
1.1678644
1.1745696
1.1804112
1.1853853
1.1895134
1.1928464
1.1954603
1.1974491
1.1989148
1.1999592
1.2006767
1.2011507
1.2014507
1.2016317
1.2017355
1.2017918
1.2018207
1.2018345
1.2018408
1.2018434
1.2018445
1.2018448
1.201845
1.201845
1.201845
1.201845
1.201845
1.201845
1.201845
1.201845
1.201845
1.201845
1.201845
1.201845
1.201845
1.201845
1.201845
1.1424319
1.1515859
1.1598692
1.1673218
1.1739491
1.1797451
1.1847111
1.1888708
1.1922693
1.1949717
1.1970588
1.1986204
1.1997494
1.2005356
1.2010608
1.2013965
1.2016007
1.2017187
1.2017832
1.2018164
1.2018326
1.2018399
1.2018431
1.2018443
1.2018448
1.201845
1.201845
1.201845
1.201845
1.201845
1.201845
1.201845
1.201845
1.201845