/*--------------------------------*- C++ -*----------------------------------*\
| =========                 |                                                 |
| \\      /  F ield         | OpenFOAM: The Open Source CFD Toolbox           |
|  \\    /   O peration     | Version:  3.0.1                                 |
|   \\  /    A nd           | Web:      www.OpenFOAM.org                      |
|    \\/     M anipulation  |                                                 |
\*---------------------------------------------------------------------------*/
FoamFile
{
    version     2.0;
    format      ascii;
    class       volScalarField;
    location    "2674";
    object      T;
}
// * * * * * * * * * * * * * * * * * * * * * * * * * * * * * * * * * * * * * //

dimensions      [0 0 0 1 0 0 0];

internalField   nonuniform List<scalar> 
80000
(
301.45321
299.07376
297.24938
295.94092
295.05479
294.48507
294.13603
293.93195
293.81803
293.75732
293.72649
293.7116
293.70477
293.7018
293.70059
293.70011
293.69994
293.69988
293.69986
293.69986
293.69986
293.69986
293.69986
293.69986
293.69986
293.69986
293.69986
293.69986
293.69986
293.69986
293.69986
293.69986
293.69986
293.69986
293.69986
293.69986
293.69986
293.69986
293.69986
293.69987
301.45044
299.07584
297.25483
295.94809
295.06247
294.4921
294.1419
293.93647
293.82125
293.75949
293.72786
293.7124
293.70521
293.70203
293.70069
293.70016
293.69996
293.69989
293.69987
293.69986
293.69986
293.69986
293.69986
293.69986
293.69986
293.69986
293.69986
293.69986
293.69986
293.69986
293.69986
293.69986
293.69986
293.69986
293.69986
293.69986
293.69986
293.69986
293.69986
293.69987
301.4452
299.07786
297.26152
295.95719
295.07203
294.50088
294.14918
293.94202
293.82518
293.76208
293.72946
293.71333
293.70572
293.70229
293.70082
293.70022
293.69998
293.6999
293.69987
293.69986
293.69986
293.69986
293.69986
293.69986
293.69986
293.69986
293.69986
293.69986
293.69986
293.69986
293.69986
293.69986
293.69986
293.69986
293.69986
293.69986
293.69986
293.69986
293.69986
293.69987
301.4433
299.0849
297.27415
295.97212
295.08666
294.5136
294.15922
293.94935
293.83017
293.76525
293.73136
293.7144
293.70628
293.70257
293.70095
293.70028
293.70001
293.69991
293.69987
293.69986
293.69986
293.69986
293.69986
293.69986
293.69986
293.69986
293.69986
293.69986
293.69986
293.69986
293.69986
293.69986
293.69986
293.69986
293.69986
293.69986
293.69986
293.69986
293.69987
293.69987
301.44271
299.09241
297.28595
295.98498
295.09841
294.52318
294.16639
293.95433
293.83343
293.76726
293.73253
293.71505
293.70663
293.70274
293.70103
293.70031
293.70003
293.69992
293.69988
293.69986
293.69986
293.69986
293.69986
293.69986
293.69986
293.69986
293.69986
293.69986
293.69986
293.69986
293.69986
293.69986
293.69986
293.69986
293.69986
293.69986
293.69986
293.69986
293.69987
293.69987
301.45074
299.09814
297.29003
295.98787
295.10045
294.52459
294.16734
293.95497
293.83383
293.76751
293.73267
293.71513
293.70667
293.70276
293.70104
293.70032
293.70003
293.69992
293.69988
293.69986
293.69986
293.69986
293.69986
293.69986
293.69986
293.69986
293.69986
293.69986
293.69986
293.69986
293.69986
293.69986
293.69986
293.69986
293.69986
293.69986
293.69986
293.69986
293.69987
293.69987
301.46569
299.10113
297.2859
295.98059
295.0927
294.51782
294.16211
293.95125
293.83138
293.76599
293.73179
293.71464
293.70641
293.70263
293.70098
293.70029
293.70002
293.69991
293.69987
293.69986
293.69986
293.69986
293.69986
293.69986
293.69986
293.69986
293.69986
293.69986
293.69986
293.69986
293.69986
293.69986
293.69986
293.69986
293.69986
293.69986
293.69986
293.69986
293.69987
293.69987
301.47801
299.10243
297.27982
295.97065
295.08175
294.50774
294.15386
293.9451
293.82714
293.76326
293.73014
293.7137
293.70591
293.70238
293.70086
293.70024
293.69999
293.6999
293.69987
293.69986
293.69986
293.69986
293.69986
293.69986
293.69986
293.69986
293.69986
293.69986
293.69986
293.69986
293.69986
293.69986
293.69986
293.69986
293.69986
293.69986
293.69986
293.69986
293.69986
293.69987
301.48935
299.10601
297.278
295.96558
295.07534
294.50128
294.14821
293.94063
293.82388
293.76107
293.72876
293.71289
293.70546
293.70215
293.70075
293.70018
293.69997
293.69989
293.69987
293.69986
293.69986
293.69986
293.69986
293.69986
293.69986
293.69986
293.69986
293.69986
293.69986
293.69986
293.69986
293.69986
293.69986
293.69986
293.69986
293.69986
293.69986
293.69986
293.69986
293.69987
301.49476
299.10668
297.27514
295.96066
295.06951
294.49567
294.14336
293.93681
293.82109
293.75916
293.72753
293.71216
293.70506
293.70194
293.70065
293.70014
293.69995
293.69989
293.69986
293.69986
293.69986
293.69986
293.69986
293.69986
293.69986
293.69986
293.69986
293.69986
293.69986
293.69986
293.69986
293.69986
293.69986
293.69986
293.69986
293.69986
293.69986
293.69986
293.69986
293.69987
303.98143
301.48552
299.36964
297.65881
296.34582
295.39109
294.73282
294.30227
294.03495
293.87733
293.7892
293.74252
293.71911
293.70802
293.70307
293.70099
293.70017
293.69986
293.69976
293.69972
293.69971
293.69971
293.69971
293.69971
293.69971
293.69971
293.69971
293.69971
293.69971
293.69971
293.69971
293.69971
293.69971
293.69971
293.69971
293.69971
293.69971
293.69971
293.69972
293.69972
303.98778
301.49696
299.38532
297.6774
296.36599
295.41082
294.75071
294.31727
294.04661
293.88586
293.795
293.74617
293.72125
293.70918
293.70366
293.70126
293.70029
293.69991
293.69978
293.69973
293.69971
293.69971
293.69971
293.69971
293.69971
293.69971
293.69971
293.69971
293.69971
293.69971
293.69971
293.69971
293.69971
293.69971
293.69971
293.69971
293.69971
293.69971
293.69972
293.69972
304.00216
301.52001
299.41546
297.71221
296.40213
295.4451
294.78055
294.34127
294.06454
293.89831
293.80308
293.75108
293.72404
293.71068
293.70441
293.70162
293.70044
293.69998
293.6998
293.69974
293.69972
293.69971
293.69971
293.69971
293.69971
293.69971
293.69971
293.69971
293.69971
293.69971
293.69971
293.69971
293.69971
293.69971
293.69971
293.69971
293.69971
293.69971
293.69972
293.69972
304.02945
301.55993
299.46566
297.76782
296.45731
295.49482
294.82163
294.37266
294.08686
293.91315
293.81235
293.75653
293.72707
293.71226
293.70519
293.70199
293.70061
293.70004
293.69983
293.69975
293.69972
293.69971
293.69971
293.69971
293.69971
293.69971
293.69971
293.69971
293.69971
293.69971
293.69971
293.69971
293.69971
293.69971
293.69971
293.69971
293.69971
293.69972
293.69972
293.69972
304.05323
301.59509
299.50752
297.81171
296.49859
295.53015
294.84943
294.39296
294.10073
293.92207
293.81777
293.75966
293.72879
293.71317
293.70564
293.7022
293.7007
293.70008
293.69984
293.69976
293.69972
293.69971
293.69971
293.69971
293.69971
293.69971
293.69971
293.69971
293.69971
293.69971
293.69971
293.69971
293.69971
293.69971
293.69971
293.69971
293.69971
293.69972
293.69972
293.69972
304.06138
301.60075
299.51168
297.81487
296.50107
295.53212
294.85098
294.39415
294.10161
293.92268
293.81818
293.75992
293.72894
293.71325
293.70569
293.70222
293.70071
293.70009
293.69985
293.69976
293.69972
293.69971
293.69971
293.69971
293.69971
293.69971
293.69971
293.69971
293.69971
293.69971
293.69971
293.69971
293.69971
293.69971
293.69971
293.69971
293.69971
293.69972
293.69972
293.69972
304.05256
301.57683
299.47819
297.77735
296.46473
295.50067
294.82621
294.37615
294.08942
293.91494
293.81353
293.75727
293.72751
293.71251
293.70532
293.70205
293.70064
293.70006
293.69983
293.69975
293.69972
293.69971
293.69971
293.69971
293.69971
293.69971
293.69971
293.69971
293.69971
293.69971
293.69971
293.69971
293.69971
293.69971
293.69971
293.69971
293.69971
293.69972
293.69972
293.69972
304.03747
301.54708
299.43633
297.72843
296.4148
295.45499
294.78814
294.34694
294.06862
293.90111
293.80491
293.75221
293.7247
293.71104
293.7046
293.70171
293.70049
293.69999
293.69981
293.69974
293.69972
293.69971
293.69971
293.69971
293.69971
293.69971
293.69971
293.69971
293.69971
293.69971
293.69971
293.69971
293.69971
293.69971
293.69971
293.69971
293.69971
293.69971
293.69972
293.69972
304.03136
301.53202
299.41361
297.7002
296.3842
295.4251
294.7616
294.32528
294.05226
293.88966
293.79743
293.74763
293.72208
293.70963
293.70388
293.70137
293.70034
293.69993
293.69978
293.69973
293.69972
293.69971
293.69971
293.69971
293.69971
293.69971
293.69971
293.69971
293.69971
293.69971
293.69971
293.69971
293.69971
293.69971
293.69971
293.69971
293.69971
293.69971
293.69972
293.69972
304.02902
301.52483
299.40223
297.68569
296.36767
295.4084
294.74607
294.31198
294.04174
293.88184
293.79203
293.74419
293.72004
293.70851
293.70331
293.7011
293.70022
293.69988
293.69976
293.69973
293.69971
293.69971
293.69971
293.69971
293.69971
293.69971
293.69971
293.69971
293.69971
293.69971
293.69971
293.69971
293.69971
293.69971
293.69971
293.69971
293.69971
293.69971
293.69972
293.69973
305.40322
302.89033
300.69991
298.84863
297.34449
296.17655
295.31215
294.70359
294.29641
294.03761
293.88169
293.79272
293.7447
293.72024
293.7085
293.7032
293.70096
293.70006
293.69973
293.69962
293.69958
293.69957
293.69956
293.69956
293.69956
293.69956
293.69956
293.69956
293.69956
293.69956
293.69956
293.69956
293.69956
293.69956
293.69956
293.69956
293.69957
293.69957
293.69957
293.69958
305.41867
302.91101
300.72519
298.87751
297.37584
296.2082
295.34225
294.73038
294.31866
294.05504
293.89438
293.80128
293.75008
293.72337
293.71019
293.70405
293.70135
293.70023
293.6998
293.69964
293.69959
293.69957
293.69956
293.69956
293.69956
293.69956
293.69956
293.69956
293.69956
293.69956
293.69956
293.69956
293.69956
293.69956
293.69956
293.69956
293.69957
293.69957
293.69957
293.69957
305.45168
302.95388
300.77729
298.93685
297.43877
296.27038
295.39934
294.77914
294.35749
294.08383
293.91432
293.81422
293.75793
293.72783
293.71257
293.70523
293.7019
293.70047
293.6999
293.69968
293.6996
293.69957
293.69957
293.69956
293.69956
293.69956
293.69956
293.69956
293.69956
293.69956
293.69956
293.69956
293.69956
293.69956
293.69956
293.69957
293.69957
293.69957
293.69957
293.69957
305.50458
303.02299
300.86202
299.03236
297.53748
296.3642
295.48166
294.84611
294.40822
294.11972
293.93812
293.82904
293.76662
293.73264
293.71507
293.70646
293.70247
293.70072
293.7
293.69972
293.69961
293.69958
293.69957
293.69956
293.69956
293.69956
293.69956
293.69956
293.69956
293.69956
293.69956
293.69956
293.69956
293.69956
293.69956
293.69957
293.69957
293.69957
293.69957
293.69957
305.54718
303.08089
300.93179
299.10773
297.61205
296.43194
295.53842
294.89024
294.44021
294.14147
293.95205
293.83749
293.77148
293.73529
293.71645
293.70715
293.7028
293.70087
293.70006
293.69974
293.69962
293.69958
293.69957
293.69956
293.69956
293.69956
293.69956
293.69956
293.69956
293.69956
293.69956
293.69956
293.69956
293.69956
293.69957
293.69957
293.69957
293.69957
293.69957
293.69957
305.55394
303.08505
300.93393
299.10922
297.61326
296.43307
295.53953
294.8913
294.44116
294.14226
293.95266
293.83793
293.77177
293.73548
293.71656
293.70721
293.70283
293.70088
293.70007
293.69975
293.69963
293.69958
293.69957
293.69956
293.69956
293.69956
293.69956
293.69956
293.69956
293.69956
293.69956
293.69956
293.69956
293.69956
293.69957
293.69957
293.69957
293.69957
293.69957
293.69958
305.52391
303.03584
300.87043
299.03814
297.54192
296.36804
295.48518
294.84933
294.41103
294.12202
293.93989
293.83031
293.76746
293.73316
293.71537
293.70663
293.70256
293.70076
293.70002
293.69973
293.69962
293.69958
293.69957
293.69956
293.69956
293.69956
293.69956
293.69956
293.69956
293.69956
293.69956
293.69956
293.69956
293.69956
293.69957
293.69957
293.69957
293.69957
293.69957
293.69957
305.48309
302.97689
300.79409
298.94938
297.44853
296.27838
295.40609
294.78484
294.36216
294.08748
293.91703
293.8161
293.75916
293.72859
293.713
293.70546
293.70202
293.70053
293.69992
293.69969
293.6996
293.69958
293.69957
293.69956
293.69956
293.69956
293.69956
293.69956
293.69956
293.69956
293.69956
293.69956
293.69956
293.69956
293.69956
293.69957
293.69957
293.69957
293.69957
293.69957
305.4596
302.94352
300.75125
298.89864
297.39316
296.22246
295.35392
294.73972
294.32589
294.06039
293.89815
293.80379
293.75165
293.72429
293.7107
293.70431
293.70147
293.70029
293.69982
293.69965
293.69959
293.69957
293.69956
293.69956
293.69956
293.69956
293.69956
293.69956
293.69956
293.69956
293.69956
293.69956
293.69956
293.69956
293.69956
293.69956
293.69957
293.69957
293.69957
293.69957
305.44918
302.92832
300.73176
298.87558
297.36731
296.19566
295.32781
294.716
294.30583
294.04442
293.88634
293.79572
293.74652
293.72128
293.70905
293.70348
293.70108
293.70012
293.69975
293.69962
293.69958
293.69957
293.69956
293.69956
293.69956
293.69956
293.69956
293.69956
293.69956
293.69956
293.69956
293.69956
293.69956
293.69956
293.69956
293.69956
293.69957
293.69957
293.69957
293.69958
306.38412
303.86559
301.64294
299.72445
298.11878
296.8247
295.82448
295.08554
294.56484
294.21534
293.9925
293.85773
293.78052
293.73874
293.71742
293.70719
293.70257
293.70062
293.69984
293.69956
293.69946
293.69943
293.69942
293.69942
293.69942
293.69942
293.69942
293.69942
293.69942
293.69942
293.69942
293.69942
293.69942
293.69942
293.69942
293.69942
293.69942
293.69942
293.69942
293.69943
306.40718
303.89412
301.67646
299.76209
298.15956
296.86647
295.86527
295.1232
294.59756
294.24227
294.0132
293.87251
293.79036
293.74482
293.72091
293.70904
293.70348
293.70103
293.70002
293.69963
293.69949
293.69944
293.69942
293.69942
293.69942
293.69942
293.69942
293.69942
293.69942
293.69942
293.69942
293.69942
293.69942
293.69942
293.69942
293.69942
293.69942
293.69942
293.69942
293.69942
306.4547
303.95262
301.74605
299.84131
298.2449
296.95319
295.94793
295.19706
294.65941
294.2907
294.04872
293.89694
293.8061
293.75432
293.72628
293.71188
293.70489
293.70168
293.7003
293.69974
293.69953
293.69945
293.69943
293.69942
293.69942
293.69942
293.69942
293.69942
293.69942
293.69942
293.69942
293.69942
293.69942
293.69942
293.69942
293.69942
293.69942
293.69942
293.69943
293.69943
306.52589
304.04276
301.85644
299.968
298.38005
297.08706
296.07118
295.30274
294.74403
294.35409
294.09325
293.92631
293.82431
293.76495
293.73211
293.7149
293.70636
293.70236
293.70059
293.69986
293.69957
293.69947
293.69943
293.69942
293.69942
293.69942
293.69942
293.69942
293.69942
293.69942
293.69942
293.69942
293.69942
293.69942
293.69942
293.69942
293.69942
293.69942
293.69943
293.69943
306.58088
304.11581
301.94614
300.06799
298.48314
297.18545
296.15823
295.37437
294.79901
294.39361
294.11994
293.94332
293.83457
293.77081
293.7353
293.71655
293.70717
293.70274
293.70076
293.69993
293.6996
293.69948
293.69944
293.69942
293.69942
293.69942
293.69942
293.69942
293.69942
293.69942
293.69942
293.69942
293.69942
293.69942
293.69942
293.69942
293.69942
293.69942
293.69943
293.69943
306.58555
304.11765
301.94571
300.06682
298.48202
297.18468
296.15793
295.37448
294.79942
294.39417
294.12052
293.94383
293.83496
293.77109
293.73549
293.71666
293.70723
293.70277
293.70078
293.69994
293.69961
293.69948
293.69944
293.69942
293.69942
293.69942
293.69942
293.69942
293.69942
293.69942
293.69942
293.69942
293.69942
293.69942
293.69942
293.69942
293.69942
293.69942
293.69943
293.69943
306.53977
304.04977
301.85869
299.96769
298.37895
297.08628
296.07122
295.30364
294.74553
294.35585
294.09496
293.92778
293.82544
293.76574
293.73263
293.71521
293.70653
293.70245
293.70064
293.69988
293.69958
293.69947
293.69943
293.69942
293.69942
293.69942
293.69942
293.69942
293.69942
293.69942
293.69942
293.69942
293.69942
293.69942
293.69942
293.69942
293.69942
293.69942
293.69943
293.69943
306.47988
303.96909
301.75609
299.84716
298.24853
296.95603
295.95079
295.20017
294.66266
294.29382
294.05146
293.89915
293.80774
293.75545
293.72699
293.7123
293.70512
293.7018
293.70036
293.69977
293.69954
293.69946
293.69943
293.69942
293.69942
293.69942
293.69942
293.69942
293.69942
293.69942
293.69942
293.69942
293.69942
293.69942
293.69942
293.69942
293.69942
293.69942
293.69943
293.69943
306.44276
303.9213
301.69735
299.77841
298.17273
296.8775
295.87475
295.13138
294.60448
294.24792
294.01758
293.87571
293.79256
293.74623
293.72176
293.70951
293.70373
293.70116
293.70008
293.69965
293.6995
293.69944
293.69942
293.69942
293.69942
293.69942
293.69942
293.69942
293.69942
293.69942
293.69942
293.69942
293.69942
293.69942
293.69942
293.69942
293.69942
293.69942
293.69942
293.69942
306.42563
303.89938
301.67106
299.74834
298.13941
296.8426
295.83988
295.09848
294.57534
294.22349
293.9985
293.8619
293.78324
293.74041
293.71838
293.7077
293.70282
293.70073
293.69989
293.69958
293.69947
293.69943
293.69942
293.69942
293.69942
293.69942
293.69942
293.69942
293.69942
293.69942
293.69942
293.69942
293.69942
293.69942
293.69942
293.69942
293.69942
293.69942
293.69943
293.69943
307.13371
304.61275
302.37189
300.41352
298.74467
297.36765
296.27247
295.43619
294.82475
294.39747
294.11301
293.93291
293.82465
293.76306
293.72996
293.7132
293.70522
293.70165
293.70017
293.69958
293.69937
293.6993
293.69928
293.69927
293.69927
293.69927
293.69927
293.69927
293.69927
293.69927
293.69927
293.69927
293.69927
293.69927
293.69927
293.69927
293.69927
293.69928
293.69928
293.69929
307.16273
304.64758
302.4122
300.45847
298.79334
297.4179
296.32227
295.48324
294.86688
294.43342
294.1418
293.95442
293.83968
293.77283
293.73587
293.71652
293.70695
293.70249
293.70054
293.69974
293.69943
293.69932
293.69929
293.69927
293.69927
293.69927
293.69927
293.69927
293.69927
293.69927
293.69927
293.69927
293.69927
293.69927
293.69927
293.69927
293.69927
293.69927
293.69928
293.69928
307.2209
304.71767
302.49493
300.55285
298.89613
297.52433
296.42643
295.57939
294.95051
294.50176
294.19431
293.99237
293.86543
293.78923
293.74566
293.72199
293.70981
293.70389
293.70118
293.70001
293.69954
293.69936
293.6993
293.69928
293.69927
293.69927
293.69927
293.69927
293.69927
293.69927
293.69927
293.69927
293.69927
293.69927
293.69927
293.69927
293.69927
293.69928
293.69928
293.69928
307.30422
304.82185
302.62282
300.70174
299.05868
297.69032
296.58493
295.72104
295.06916
294.59502
294.26319
294.0402
293.89667
293.80843
293.75675
293.72802
293.71289
293.70537
293.70185
293.7003
293.69965
293.69941
293.69931
293.69928
293.69927
293.69927
293.69927
293.69927
293.69927
293.69927
293.69927
293.69927
293.69927
293.69927
293.69927
293.69927
293.69927
293.69928
293.69928
293.69928
307.36645
304.90387
302.72497
300.81903
299.1833
297.81388
296.6991
295.8195
295.14855
294.65501
294.30579
294.06869
293.91466
293.81918
293.76285
293.73131
293.71458
293.7062
293.70223
293.70046
293.69972
293.69943
293.69933
293.69929
293.69928
293.69927
293.69927
293.69927
293.69927
293.69927
293.69927
293.69927
293.69927
293.69927
293.69927
293.69927
293.69928
293.69928
293.69928
293.69928
307.36893
304.90335
302.72205
300.81457
299.17922
297.81052
296.69667
295.81798
295.14783
294.65486
294.30598
294.06904
293.91504
293.81951
293.7631
293.73148
293.71468
293.70625
293.70226
293.70048
293.69973
293.69944
293.69933
293.69929
293.69928
293.69927
293.69927
293.69927
293.69927
293.69927
293.69927
293.69927
293.69927
293.69927
293.69927
293.69927
293.69928
293.69928
293.69928
293.69928
307.31224
304.82255
302.6183
300.69442
299.05078
297.68342
296.57985
295.71799
295.0679
294.59506
294.264
294.04132
293.89779
293.80936
293.75744
293.72848
293.71318
293.70553
293.70193
293.70034
293.69967
293.69941
293.69932
293.69929
293.69927
293.69927
293.69927
293.69927
293.69927
293.69927
293.69927
293.69927
293.69927
293.69927
293.69927
293.69927
293.69927
293.69928
293.69928
293.69928
307.23911
304.72681
302.49724
300.55082
298.89213
297.52025
296.42347
295.57801
294.95062
294.50295
294.19606
293.99423
293.86709
293.79055
293.7466
293.72261
293.71018
293.7041
293.70128
293.70006
293.69956
293.69937
293.6993
293.69928
293.69927
293.69927
293.69927
293.69927
293.69927
293.69927
293.69927
293.69927
293.69927
293.69927
293.69927
293.69927
293.69927
293.69928
293.69928
293.69928
307.19193
304.66836
302.42671
300.46864
298.80081
297.42396
296.32776
295.48851
294.87196
294.43812
294.1459
293.95775
293.8422
293.77461
293.73703
293.71722
293.70735
293.7027
293.70065
293.69979
293.69945
293.69933
293.69929
293.69928
293.69927
293.69927
293.69927
293.69927
293.69927
293.69927
293.69927
293.69927
293.69927
293.69927
293.69927
293.69927
293.69927
293.69927
293.69928
293.69928
307.1696
304.64112
302.39498
300.43296
298.76158
297.38271
296.28598
295.44817
294.83508
294.40602
294.11973
293.9379
293.82813
293.76534
293.73136
293.714
293.70564
293.70186
293.70026
293.69963
293.69939
293.69931
293.69928
293.69927
293.69927
293.69927
293.69927
293.69927
293.69927
293.69927
293.69927
293.69927
293.69927
293.69927
293.69927
293.69927
293.69927
293.69928
293.69928
293.69929
307.73968
305.21763
302.96498
300.97987
299.26744
297.83136
296.66598
295.75467
295.06997
294.57671
294.23716
294.01423
293.87489
293.79227
293.74589
293.72131
293.70904
293.70329
293.70076
293.69973
293.69933
293.69919
293.69914
293.69913
293.69913
293.69912
293.69912
293.69912
293.69912
293.69912
293.69912
293.69912
293.69913
293.69913
293.69913
293.69913
293.69913
293.69913
293.69913
293.69914
307.77335
305.25748
303.01084
301.03095
299.32282
297.88885
296.72353
295.80985
295.12041
294.62087
294.27363
294.04245
293.89541
293.80619
293.7547
293.7265
293.71189
293.70474
293.70145
293.70003
293.69945
293.69924
293.69916
293.69913
293.69913
293.69912
293.69912
293.69912
293.69912
293.69912
293.69912
293.69912
293.69912
293.69912
293.69913
293.69913
293.69913
293.69913
293.69913
293.69913
307.83937
305.33622
303.10354
301.137
299.43926
298.01104
296.84537
295.92503
295.22348
294.70791
294.34302
294.09468
293.93242
293.83089
293.77017
293.73559
293.71689
293.70731
293.70268
293.70058
293.69968
293.69932
293.69919
293.69915
293.69913
293.69913
293.69912
293.69912
293.69912
293.69912
293.69912
293.69912
293.69913
293.69913
293.69913
293.69913
293.69913
293.69913
293.69913
293.69913
307.93081
305.44985
303.24342
301.30158
299.62202
298.20194
297.03274
296.0979
295.37354
294.83056
294.43747
294.16323
293.9793
293.86107
293.78847
293.74602
293.72247
293.71012
293.70401
293.70117
293.69993
293.69942
293.69923
293.69916
293.69913
293.69913
293.69913
293.69912
293.69912
293.69912
293.69912
293.69913
293.69913
293.69913
293.69913
293.69913
293.69913
293.69913
293.69913
293.69913
307.99722
305.53712
303.35328
301.43043
299.76218
298.34504
297.16955
296.22044
295.47648
294.91175
294.49772
294.20534
294.00708
293.8784
293.7987
293.75175
293.72553
293.71167
293.70476
293.70151
293.70008
293.69948
293.69925
293.69917
293.69914
293.69913
293.69913
293.69912
293.69912
293.69912
293.69913
293.69913
293.69913
293.69913
293.69913
293.69913
293.69913
293.69913
293.69913
293.69913
307.99747
305.53416
303.34762
301.42283
299.75502
298.33881
297.16457
296.21682
295.47412
294.91044
294.49717
294.20528
294.00727
293.87866
293.79896
293.75196
293.72567
293.71176
293.70481
293.70154
293.70009
293.69949
293.69925
293.69917
293.69914
293.69913
293.69913
293.69912
293.69912
293.69912
293.69913
293.69913
293.69913
293.69913
293.69913
293.69913
293.69913
293.69913
293.69913
293.69913
307.93298
305.44424
303.23205
301.28704
299.6069
298.18821
297.0216
296.08982
295.36841
294.82785
294.43652
294.16337
293.97998
293.86189
293.78921
293.74659
293.72287
293.71036
293.70415
293.70124
293.69996
293.69944
293.69923
293.69916
293.69914
293.69913
293.69913
293.69912
293.69912
293.69912
293.69912
293.69913
293.69913
293.69913
293.69913
293.69913
293.69913
293.69913
293.69913
293.69913
307.85047
305.33788
303.09792
301.12674
299.42705
297.9992
296.8355
295.91791
295.21918
294.70599
294.3428
294.09545
293.93362
293.8321
293.77119
293.73634
293.71739
293.70761
293.70285
293.70067
293.69972
293.69934
293.6992
293.69915
293.69913
293.69913
293.69912
293.69912
293.69912
293.69912
293.69912
293.69912
293.69913
293.69913
293.69913
293.69913
293.69913
293.69913
293.69913
293.69913
307.79583
305.27147
303.01854
301.03441
299.32389
297.88907
296.72397
295.81108
295.12252
294.62362
294.27662
294.04532
293.89787
293.80811
293.75608
293.72741
293.71244
293.70505
293.70162
293.70011
293.69949
293.69925
293.69917
293.69914
293.69913
293.69913
293.69912
293.69912
293.69912
293.69912
293.69912
293.69912
293.69912
293.69913
293.69913
293.69913
293.69913
293.69913
293.69913
293.69913
307.76945
305.24004
302.98244
300.99416
299.27984
297.84269
296.67664
295.7647
295.07919
294.58486
294.244
294.01965
293.87893
293.79508
293.74772
293.72242
293.70966
293.70362
293.70092
293.6998
293.69936
293.6992
293.69915
293.69913
293.69913
293.69912
293.69912
293.69912
293.69912
293.69912
293.69912
293.69913
293.69913
293.69913
293.69913
293.69913
293.69913
293.69913
293.69913
293.69914
308.24854
305.72609
303.4652
301.46074
299.71612
298.23542
297.01564
296.04447
295.29942
294.74984
294.36139
294.09882
293.92939
293.82541
293.76484
293.73145
293.71408
293.70559
293.7017
293.70002
293.69935
293.6991
293.69902
293.69899
293.69898
293.69898
293.69898
293.69898
293.69898
293.69898
293.69898
293.69898
293.69898
293.69898
293.69898
293.69898
293.69898
293.69898
293.69899
293.69899
308.28582
305.76993
303.5156
301.51696
299.77722
298.29916
297.07991
296.10676
295.3572
294.80139
294.40496
294.13348
293.9554
293.84369
293.77686
293.73884
293.71833
293.70786
293.70282
293.70054
293.69957
293.69919
293.69905
293.699
293.69898
293.69898
293.69898
293.69898
293.69898
293.69898
293.69898
293.69898
293.69898
293.69898
293.69898
293.69898
293.69898
293.69898
293.69898
293.69898
308.35761
305.85511
303.61585
301.63201
299.90439
298.43396
297.21622
296.23795
295.47718
294.90534
294.4903
294.19985
294.00417
293.87752
293.79896
293.75241
293.72614
293.71207
293.70494
293.70153
293.70001
293.69937
293.69911
293.69902
293.69899
293.69898
293.69898
293.69898
293.69898
293.69898
293.69898
293.69898
293.69898
293.69898
293.69898
293.69898
293.69898
293.69898
293.69899
293.69899
308.45437
305.97498
303.76382
301.80757
300.1019
298.64389
297.4267
296.43706
295.655
295.05532
294.60986
294.28991
294.06825
293.92053
293.82617
293.76861
293.73521
293.71683
293.70729
293.70262
293.70048
293.69956
293.69919
293.69905
293.699
293.69898
293.69898
293.69898
293.69898
293.69898
293.69898
293.69898
293.69898
293.69898
293.69898
293.69898
293.69898
293.69898
293.69899
293.69899
308.52292
306.065
303.87808
301.94365
300.25313
298.80177
297.58176
296.58023
295.77936
295.15703
294.68825
294.3469
294.10736
293.9459
293.84175
293.77767
293.74021
293.71946
293.7086
293.70325
293.70076
293.69968
293.69924
293.69907
293.69901
293.69899
293.69898
293.69898
293.69898
293.69898
293.69898
293.69898
293.69898
293.69898
293.69898
293.69898
293.69898
293.69898
293.69899
293.69899
308.52107
306.05973
303.86986
301.93329
300.24273
298.79249
297.57399
296.57419
295.77502
295.15419
294.68662
294.34614
294.10714
293.94597
293.84194
293.77787
293.74038
293.71958
293.70867
293.70329
293.70078
293.69969
293.69924
293.69907
293.69901
293.69899
293.69898
293.69898
293.69898
293.69898
293.69898
293.69898
293.69898
293.69898
293.69898
293.69898
293.69898
293.69898
293.69899
293.69899
308.45097
305.96335
303.74588
301.78599
300.07953
298.62308
297.40902
296.42329
295.64521
295.04907
294.60641
294.28844
294.06801
293.92092
293.82678
293.7692
293.73567
293.71716
293.70749
293.70274
293.70054
293.69959
293.6992
293.69905
293.699
293.69899
293.69898
293.69898
293.69898
293.69898
293.69898
293.69898
293.69898
293.69898
293.69898
293.69898
293.69898
293.69898
293.69899
293.69899
308.36179
305.84948
303.60248
301.61361
299.88389
298.41406
297.19892
296.22437
295.46762
294.89942
294.48729
294.19885
294.00437
293.87828
293.79985
293.7532
293.72673
293.71246
293.70518
293.70167
293.70007
293.6994
293.69913
293.69903
293.69899
293.69898
293.69898
293.69898
293.69898
293.69898
293.69898
293.69898
293.69898
293.69898
293.69898
293.69898
293.69898
293.69898
293.69899
293.69899
308.30156
305.77709
303.51641
301.51357
299.77163
298.29313
297.07476
296.10327
295.35558
294.80142
294.40617
294.13532
293.95739
293.84549
293.7783
293.73988
293.71901
293.70828
293.70305
293.70066
293.69963
293.69922
293.69906
293.699
293.69899
293.69898
293.69898
293.69898
293.69898
293.69898
293.69898
293.69898
293.69898
293.69898
293.69898
293.69898
293.69898
293.69898
293.69898
293.69898
308.27205
305.74236
303.47679
301.46957
299.72362
298.24253
297.02286
296.0519
295.30688
294.75698
294.36784
294.10428
293.93372
293.82861
293.76705
293.73287
293.71493
293.70606
293.70194
293.70014
293.6994
293.69912
293.69902
293.69899
293.69898
293.69898
293.69898
293.69898
293.69898
293.69898
293.69898
293.69898
293.69898
293.69898
293.69898
293.69898
293.69898
293.69898
293.69899
293.69899
308.68713
306.16468
303.89776
301.8786
300.10906
298.59322
297.32977
296.3095
295.51375
294.91556
294.48367
294.18471
293.98666
293.86155
293.78635
293.74348
293.72036
293.70861
293.70301
293.7005
293.69946
293.69905
293.6989
293.69885
293.69884
293.69883
293.69883
293.69883
293.69883
293.69883
293.69883
293.69883
293.69883
293.69883
293.69883
293.69883
293.69884
293.69884
293.69884
293.69884
308.72723
306.21169
303.95185
301.93913
300.17506
298.66239
297.39993
296.37807
295.57807
294.97378
294.53377
294.22544
294.018
293.88423
293.80176
293.75329
293.72621
293.71187
293.7047
293.70132
293.69982
293.6992
293.69896
293.69887
293.69884
293.69884
293.69883
293.69883
293.69883
293.69883
293.69883
293.69883
293.69883
293.69883
293.69883
293.69883
293.69883
293.69884
293.69884
293.69884
308.80327
306.3017
304.05788
302.0612
300.31074
298.80738
297.54816
296.52272
295.71264
295.09276
294.63377
294.30532
294.07849
293.9276
293.83113
293.77203
293.73745
293.71819
293.70802
293.70294
293.70056
293.69952
293.69908
293.69892
293.69886
293.69884
293.69883
293.69883
293.69883
293.69883
293.69883
293.69883
293.69883
293.69883
293.69883
293.69883
293.69884
293.69884
293.69884
293.69884
308.90348
306.42564
304.21127
302.24439
300.51901
299.03179
297.77701
296.74359
295.91445
295.26742
294.77702