/*--------------------------------*- C++ -*----------------------------------*\
| =========                 |                                                 |
| \\      /  F ield         | OpenFOAM: The Open Source CFD Toolbox           |
|  \\    /   O peration     | Version:  4.0                                   |
|   \\  /    A nd           | Web:      www.OpenFOAM.org                      |
|    \\/     M anipulation  |                                                 |
\*---------------------------------------------------------------------------*/
FoamFile
{
    version     2.0;
    format      ascii;
    class       volScalarField;
    location    "2000";
    object      T;
}
// * * * * * * * * * * * * * * * * * * * * * * * * * * * * * * * * * * * * * //

dimensions      [0 0 0 1 0 0 0];

internalField   nonuniform List<scalar> 
100000
(
305.08259
304.41576
303.71263
302.97787
302.21776
301.44021
300.65468
299.87188
299.10343
298.36124
297.65692
297.00111
296.40271
295.86836
295.40208
295.00496
294.6754
294.40935
294.20078
294.04234
293.92599
293.84361
293.78754
293.75099
293.72825
293.7148
293.70728
293.70331
293.70136
293.70046
293.70007
293.69992
293.69987
293.69985
293.69985
293.69985
293.69985
293.69985
293.69985
293.69985
293.69985
293.69985
293.69985
293.69985
293.69985
293.69985
293.69985
293.69985
293.69985
293.69985
304.82409
304.15796
303.45704
302.72637
301.97253
301.20366
300.42932
299.66017
298.9076
298.18319
297.49802
296.86209
296.28363
295.76865
295.32051
294.93992
294.62491
294.37126
294.17291
294.0226
293.91248
293.8347
293.78191
293.74757
293.72627
293.71372
293.70672
293.70304
293.70123
293.70041
293.70005
293.69992
293.69987
293.69985
293.69985
293.69985
293.69985
293.69985
293.69985
293.69985
293.69985
293.69985
293.69985
293.69985
293.69985
293.69985
293.69985
293.69985
293.69985
293.69985
304.17051
303.47862
302.76257
302.02822
301.28257
300.53364
299.79029
299.06199
298.3584
297.68898
297.06249
296.48654
295.96706
295.50803
295.11122
294.77614
294.50021
294.27901
294.10672
293.97665
293.88169
293.81484
293.7696
293.74029
293.72216
293.71152
293.7056
293.70251
293.701
293.70031
293.70002
293.6999
293.69986
293.69985
293.69985
293.69985
293.69985
293.69985
293.69985
293.69985
293.69985
293.69985
293.69985
293.69985
293.69985
293.69985
293.69985
293.69985
293.69985
293.69985
301.74746
301.09084
300.44717
299.81888
299.20844
298.6184
298.05153
297.51077
296.99925
296.52022
296.07685
295.67204
295.30816
294.98674
294.70835
294.47238
294.27709
294.11963
293.99622
293.90245
293.83356
293.78477
293.75157
293.72994
293.7165
293.70858
293.70416
293.70184
293.70071
293.70019
293.69997
293.69989
293.69986
293.69985
293.69985
293.69985
293.69985
293.69985
293.69985
293.69985
293.69985
293.69985
293.69985
293.69985
293.69985
293.69985
293.69985
293.69985
293.69985
293.69985
292.92378
293.33034
293.68418
293.98235
294.22329
294.40699
294.53513
294.61102
294.63956
294.62703
294.58076
294.50873
294.41912
294.31981
294.2179
294.11936
294.02879
293.9493
293.88252
293.82877
293.78733
293.75678
293.73526
293.72084
293.71165
293.70612
293.70299
293.70132
293.70049
293.7001
293.69994
293.69988
293.69986
293.69985
293.69985
293.69985
293.69985
293.69985
293.69985
293.69985
293.69985
293.69985
293.69985
293.69985
293.69985
293.69985
293.69985
293.69985
293.69985
293.69985
292.92317
293.32976
293.68363
293.98184
294.22283
294.40659
294.53478
294.61073
294.63933
294.62686
294.58063
294.50864
294.41905
294.31974
294.21783
294.11932
294.02879
293.94932
293.88254
293.82878
293.78734
293.75678
293.73526
293.72084
293.71165
293.70612
293.70299
293.70132
293.70049
293.7001
293.69994
293.69988
293.69986
293.69985
293.69985
293.69985
293.69985
293.69985
293.69985
293.69985
293.69985
293.69985
293.69985
293.69985
293.69985
293.69985
293.69985
293.69985
293.69985
293.69985
301.74396
301.08783
300.44463
299.81678
299.20673
298.61705
298.0505
297.51003
296.99876
296.51993
296.07672
295.67202
295.3082
294.98681
294.70842
294.47246
294.27717
294.1197
293.99628
293.9025
293.83359
293.78479
293.75159
293.72995
293.71651
293.70858
293.70416
293.70185
293.70071
293.70019
293.69997
293.69989
293.69986
293.69985
293.69985
293.69985
293.69985
293.69985
293.69985
293.69985
293.69985
293.69985
293.69985
293.69985
293.69985
293.69985
293.69985
293.69985
293.69985
293.69985
304.17072
303.47928
302.76359
302.02953
301.28408
300.53528
299.79199
299.06368
298.36003
297.69051
297.06389
296.48778
295.96813
295.50893
295.11196
294.77674
294.50067
294.27936
294.10698
293.97683
293.88181
293.81492
293.76965
293.74032
293.72218
293.71153
293.70561
293.70251
293.701
293.70031
293.70002
293.6999
293.69986
293.69985
293.69985
293.69985
293.69985
293.69985
293.69985
293.69985
293.69985
293.69985
293.69985
293.69985
293.69985
293.69985
293.69985
293.69985
293.69985
293.69985
304.84075
304.17323
303.47094
302.73891
301.98375
301.21362
300.43806
299.66775
298.9141
298.18868
297.5026
296.86585
296.28666
295.77105
295.32237
294.94133
294.62596
294.37202
294.17344
294.02297
293.91272
293.83486
293.782
293.74763
293.7263
293.71373
293.70672
293.70304
293.70124
293.70041
293.70005
293.69992
293.69987
293.69985
293.69985
293.69985
293.69985
293.69985
293.69985
293.69985
293.69985
293.69985
293.69985
293.69985
293.69985
293.69985
293.69985
293.69985
293.69985
293.69985
305.10342
304.43513
303.7305
302.9942
302.23253
301.45343
300.66638
299.8821
299.11223
298.3687
297.66315
297.00622
296.40683
295.87161
295.40459
295.00686
294.67681
294.41035
294.20149
294.04282
293.9263
293.84381
293.78766
293.75106
293.72829
293.71482
293.70729
293.70332
293.70136
293.70046
293.70007
293.69992
293.69987
293.69985
293.69985
293.69985
293.69985
293.69985
293.69985
293.69985
293.69985
293.69985
293.69985
293.69985
293.69985
293.69985
293.69985
293.69985
293.69985
293.69985
307.76704
307.15664
306.51034
305.82906
305.11457
304.36958
303.59796
302.80482
301.99664
301.1812
300.36759
299.56595
298.78709
298.042
297.34138
296.69485
296.1105
295.59428
295.14961
294.77706
294.47447
294.23699
294.05754
293.92763
293.83791
293.77904
293.74259
293.7214
293.70992
293.70415
293.70148
293.70035
293.69991
293.69976
293.69972
293.6997
293.6997
293.6997
293.6997
293.6997
293.6997
293.6997
293.6997
293.6997
293.6997
293.6997
293.6997
293.6997
293.6997
293.6997
307.33352
306.72318
306.07814
305.39989
304.69074
303.95395
303.19381
302.41578
301.62649
300.8337
300.04617
299.27346
298.52557
297.81255
297.14398
296.52852
295.97331
295.48357
295.06221
294.70967
294.42372
294.19975
294.03107
293.90942
293.82587
293.77149
293.73814
293.71896
293.70868
293.70358
293.70124
293.70026
293.69988
293.69975
293.69971
293.6997
293.6997
293.6997
293.6997
293.6997
293.6997
293.6997
293.6997
293.6997
293.6997
293.6997
293.6997
293.6997
293.6997
293.6997
306.38037
305.72791
305.05198
304.35528
303.64104
302.91301
302.17557
301.43369
300.693
299.95975
299.24073
298.54317
297.87453
297.24228
296.65353
296.11473
295.63124
295.20692
294.8438
294.54179
294.29855
294.1096
293.96865
293.86813
293.79992
293.7561
293.72956
293.71452
293.70655
293.70262
293.70085
293.70011
293.69983
293.69974
293.69971
293.6997
293.6997
293.6997
293.6997
293.6997
293.6997
293.6997
293.6997
293.6997
293.6997
293.6997
293.6997
293.6997
293.6997
293.6997
303.37498
302.7541
302.14464
301.5469
300.96082
300.38612
299.82248
299.26976
298.72832
298.19931
297.68463
297.18693
296.70982
296.25758
295.83508
295.44707
295.0977
294.7902
294.52662
294.30738
294.13101
293.99428
293.89255
293.82032
293.77142
293.74004
293.72106
293.71027
293.70458
293.70179
293.70052
293.7
293.6998
293.69973
293.69971
293.6997
293.6997
293.6997
293.6997
293.6997
293.6997
293.6997
293.6997
293.6997
293.6997
293.6997
293.6997
293.6997
293.6997
293.6997
294.09167
294.51568
294.88404
295.19313
295.44047
295.62499
295.74701
295.80838
295.81242
295.76387
295.669
295.5351
295.37076
295.18534
294.98867
294.78956
294.59615
294.41528
294.25302
294.11338
293.99781
293.90602
293.83639
293.78605
293.75152
293.72909
293.71539
293.70754
293.70335
293.70127
293.70032
293.69992
293.69977
293.69972
293.69971
293.6997
293.6997
293.6997
293.6997
293.6997
293.6997
293.6997
293.6997
293.6997
293.6997
293.6997
293.6997
293.6997
293.6997
293.6997
294.09265
294.51666
294.88501
295.19408
295.4415
295.62612
295.74816
295.80941
295.81327
295.76461
295.66966
295.53609
295.37233
295.18732
294.99002
294.78994
294.59582
294.41525
294.25335
294.11351
293.99772
293.90598
293.83641
293.78609
293.75152
293.72909
293.71538
293.70754
293.70335
293.70127
293.70032
293.69992
293.69977
293.69972
293.69971
293.6997
293.6997
293.6997
293.6997
293.6997
293.6997
293.6997
293.6997
293.6997
293.6997
293.6997
293.6997
293.6997
293.6997
293.6997
303.37939
302.75841
302.14883
301.5509
300.96451
300.38937
299.82517
299.27186
298.73
298.20075
297.68592
297.18835
296.71154
296.25957
295.837
295.44865
295.09886
294.7911
294.52736
294.30794
294.13141
293.99457
293.89278
293.8204
293.77147
293.74005
293.72105
293.71028
293.70458
293.70179
293.70052
293.7
293.6998
293.69973
293.69971
293.6997
293.6997
293.6997
293.6997
293.6997
293.6997
293.6997
293.6997
293.6997
293.6997
293.6997
293.6997
293.6997
293.6997
293.6997
306.39001
305.73739
305.0612
304.36416
303.6495
302.921
302.18304
301.44062
300.69938
299.96557
299.24597
298.54783
297.8786
297.24574
296.65641
296.11708
295.63312
295.20841
294.84496
294.54265
294.29916
294.11001
293.9689
293.86825
293.79996
293.75617
293.72966
293.71457
293.70656
293.70263
293.70085
293.70011
293.69983
293.69974
293.69971
293.6997
293.6997
293.6997
293.6997
293.6997
293.6997
293.6997
293.6997
293.6997
293.6997
293.6997
293.6997
293.6997
293.6997
293.6997
307.35815
306.74625
306.09965
305.41983
304.70911
303.97076
303.20908
302.42954
301.63876
300.84454
300.05563
299.2816
298.53247
297.81831
297.1487
296.53231
295.9763
295.48588
295.06395
294.71093
294.42461
294.20036
294.03147
293.90968
293.82603
293.77159
293.7382
293.71899
293.7087
293.70359
293.70124
293.70026
293.69988
293.69975
293.69971
293.6997
293.6997
293.6997
293.6997
293.6997
293.6997
293.6997
293.6997
293.6997
293.6997
293.6997
293.6997
293.6997
293.6997
293.6997
307.79615
307.18414
306.53618
305.85319
305.13694
304.39015
303.61672
302.82177
302.01179
301.19459
300.37927
299.57599
298.79558
298.04906
297.34714
296.69946
296.1141
295.59703
295.15165
294.77854
294.4755
294.23769
294.058
293.92793
293.83808
293.77914
293.74265
293.72143
293.70993
293.70415
293.70148
293.70035
293.69991
293.69976
293.69972
293.6997
293.6997
293.6997
293.6997
293.6997
293.6997
293.6997
293.6997
293.6997
293.6997
293.6997
293.6997
293.6997
293.6997
293.6997
309.03414
308.4516
307.8347
307.18362
306.499
305.78213
305.03498
304.26041
303.46228
302.64561
301.81671
300.98325
300.15418
299.33977
298.55107
297.79959
297.0967
296.45283
295.87664
295.37453
294.94957
294.60128
294.32612
294.1172
293.96538
293.8603
293.7914
293.74885
293.72425
293.71103
293.70446
293.70147
293.70023
293.69977
293.69961
293.69957
293.69956
293.69955
293.69955
293.69955
293.69955
293.69955
293.69955
293.69955
293.69955
293.69955
293.69955
293.69955
293.69955
293.69955
308.54862
307.96583
307.34963
306.70078
306.02054
305.31074
304.57391
303.81336
303.03324
302.2387
301.43598
300.63239
299.83633
299.05719
298.30498
297.59015
296.92285
296.31235
295.76635
295.29038
294.88691
294.5558
294.29388
294.09493
293.95051
293.85077
293.78559
293.74551
293.72246
293.71014
293.70406
293.70131
293.70017
293.69975
293.69961
293.69957
293.69956
293.69955
293.69955
293.69955
293.69955
293.69955
293.69955
293.69955
293.69955
293.69955
293.69955
293.69955
293.69955
293.69955
307.52324
306.89429
306.24308
305.57157
304.88191
304.17648
303.45794
302.72927
301.99393
301.25589
300.51982
299.79113
299.07605
298.38158
297.71534
297.08527
296.49926
295.9646
295.48741
295.07208
294.72082
294.43327
294.2063
294.03464
293.91082
293.82592
293.7709
293.73736
293.71824
293.70812
293.70317
293.70095
293.70004
293.69971
293.6996
293.69956
293.69956
293.69955
293.69955
293.69955
293.69955
293.69955
293.69955
293.69955
293.69955
293.69955
293.69955
293.69955
293.69955
293.69955
304.39634
303.79819
303.21165
302.6361
302.07042
301.51306
300.96234
300.41667
299.87484
299.33629
298.80137
298.2716
297.74972
297.2397
296.7466
296.27644
295.83565
295.43063
295.06707
294.74932
294.47985
294.25924
294.08555
293.95447
293.86004
293.79541
293.75358
293.72813
293.71365
293.706
293.70227
293.7006
293.69992
293.69967
293.69959
293.69956
293.69955
293.69955
293.69955
293.69955
293.69955
293.69955
293.69955
293.69955
293.69955
293.69955
293.69955
293.69955
293.69955
293.69955
295.01236
295.45223
295.83607
296.15972
296.42001
296.61487
296.74352
296.80649
296.80576
296.74477
296.62851
296.46336
296.25707
296.01859
295.75769
295.48496
295.21076
294.94556
294.69782
294.47498
294.2818
294.12078
293.99215
293.89395
293.82256
293.77334
293.74131
293.72172
293.71053
293.70459
293.70168
293.70038
293.69984
293.69964
293.69958
293.69956
293.69955
293.69955
293.69955
293.69955
293.69955
293.69955
293.69955
293.69955
293.69955
293.69955
293.69955
293.69955
293.69955
293.69955
295.01393
295.4538
295.83763
296.16125
296.4215
296.61631
296.7449
296.80782
296.80704
296.74601
296.62965
296.46424
296.25761
296.01899
295.75797
295.48541
295.21155
294.94615
294.69846
294.47533
294.28192
294.12085
293.9922
293.894
293.8226
293.77336
293.74132
293.72173
293.71054
293.70459
293.70168
293.70038
293.69984
293.69964
293.69958
293.69956
293.69955
293.69955
293.69955
293.69955
293.69955
293.69955
293.69955
293.69955
293.69955
293.69955
293.69955
293.69955
293.69955
293.69955
304.40187
303.80359
303.21688
302.64114
302.07524
301.51766
300.96671
300.42083
299.8788
299.34007
298.80495
298.27488
297.7526
297.24212
296.74864
296.27815
295.83715
295.43198
295.06826
294.75033
294.48067
294.25984
294.08596
293.95472
293.86019
293.7955
293.75363
293.72815
293.71366
293.70601
293.70228
293.7006
293.69992
293.69967
293.69959
293.69956
293.69955
293.69955
293.69955
293.69955
293.69955
293.69955
293.69955
293.69955
293.69955
293.69955
293.69955
293.69955
293.69955
293.69955
307.5348
306.90568
306.25424
305.58241
304.89236
304.18647
303.46743
302.73821
302.00227
301.26359
300.52683
299.79744
299.08165
298.3865
297.7196
297.08892
296.50233
295.96715
295.48947
295.07371
294.72207
294.4342
294.20697
294.03509
293.9111
293.82611
293.77102
293.73743
293.71828
293.70814
293.70317
293.70095
293.70004
293.69971
293.6996
293.69956
293.69956
293.69955
293.69955
293.69955
293.69955
293.69955
293.69955
293.69955
293.69955
293.69955
293.69955
293.69955
293.69955
293.69955
308.57351
307.98938
307.37185
306.72164
306.04004
305.32887
304.59068
303.82876
303.04729
302.25142
301.44739
300.64253
299.84524
299.06493
298.31161
297.59575
296.9275
296.31614
295.76937
295.29274
294.88871
294.55711
294.29479
294.09555
293.95091
293.85102
293.78573
293.74559
293.7225
293.71016
293.70407
293.70131
293.70017
293.69975
293.69961
293.69957
293.69956
293.69955
293.69955
293.69955
293.69955
293.69955
293.69955
293.69955
293.69955
293.69955
293.69955
293.69955
293.69955
293.69955
309.06314
308.47923
307.86091
307.20835
306.52221
305.80377
305.05503
304.27883
303.47906
302.66075
301.83021
300.99513
300.1645
299.34858
298.55847
297.80569
297.10161
296.4567
295.87961
295.37676
294.95119
294.60242
294.32689
294.11771
293.9657
293.86049
293.79151
293.74892
293.72428
293.71104
293.70447
293.70147
293.70023
293.69977
293.69961
293.69957
293.69956
293.69955
293.69955
293.69955
293.69955
293.69955
293.69955
293.69955
293.69955
293.69955
293.69955
293.69955
293.69955
293.69955
309.78203
309.21627
308.61735
307.98528
307.32048
306.6238
305.89664
305.14104
304.35979
303.55654
302.73599
301.90392
301.06738
300.23475
299.41559
298.62057
297.86109
297.1487
296.4943
295.90739
295.39498
294.9609
294.6055
294.32525
294.11323
293.9601
293.85504
293.78695
293.74551
293.72199
293.70962
293.70364
293.701
293.69995
293.69957
293.69945
293.69942
293.69941
293.69941
293.69941
293.69941
293.69941
293.69941
293.69941
293.69941
293.69941
293.69941
293.69941
293.69941
293.69941
309.275
308.70886
308.11037
307.48013
306.81913
306.12882
305.41116
304.66864
303.90441
303.12227
302.32687
301.52378
300.71963
299.92206
299.13991
298.38279
297.66096
296.98476
296.36402
295.80715
295.32049
294.90765
294.56879
294.30087
294.09774
293.9507
293.8496
293.78395
293.74395
293.72122
293.70927
293.70349
293.70095
293.69993
293.69957
293.69945
293.69942
293.69941
293.69941
293.69941
293.69941
293.69941
293.69941
293.69941
293.69941
293.69941
293.69941
293.69941
293.69941
293.69941
308.22121
307.60743
306.97241
306.3179
305.64582
304.95814
304.25695
303.54447
302.82313
302.09569
301.36535
300.63596
299.91213
299.19939
298.50419
297.83386
297.19639
296.60002
296.05273
295.56155
295.1319
294.76694
294.46708
294.22985
294.05
293.91995
293.83074
293.77302
293.73799
293.7182
293.70785
293.70288
293.70071
293.69985
293.69954
293.69944
293.69942
293.69941
293.69941
293.69941
293.69941
293.69941
293.69941
293.69941
293.69941
293.69941
293.69941
293.69941
293.69941
293.69941
305.05304
304.46979
303.89875
303.33913
302.78949
302.24789
301.71212
301.17984
300.64892
300.11773
299.58537
299.05198
298.51893
297.98902
297.46644
296.95669
296.46635
296.00277
295.57345
295.18524
294.8437
294.55244
294.31263
294.12273
293.97879
293.87483
293.80364
293.75768
293.72987
293.7142
293.70603
293.70213
293.70042
293.69975
293.69951
293.69943
293.69941
293.69941
293.69941
293.69941
293.69941
293.69941
293.69941
293.69941
293.69941
293.69941
293.69941
293.69941
293.69941
293.69941
295.65136
296.10277
296.49858
296.83444
297.1069
297.31354
297.45308
297.52543
297.53176
297.47454
297.35759
297.18612
296.96673
296.70724
296.41667
296.10504
295.78311
295.462
295.15214
294.86325
294.60311
294.37745
294.1893
294.03894
293.92417
293.84086
293.7836
293.74653
293.72406
293.71139
293.70477
293.70161
293.70023
293.69968
293.69949
293.69943
293.69941
293.69941
293.69941
293.69941
293.69941
293.69941
293.69941
293.69941
293.69941
293.69941
293.69941
293.69941
293.69941
293.69941
295.6529
296.10431
296.50011
296.83594
297.10838
297.31499
297.4545
297.52682
297.5331
297.47585
297.35888
297.18738
296.96787
296.70815
296.4174
296.10579
295.78395
295.46271
295.15284
294.86379
294.60356
294.37776
294.18946
294.03902
293.92423
293.84089
293.78362
293.74654
293.72407
293.71139
293.70477
293.70161
293.70023
293.69968
293.69949
293.69943
293.69941
293.69941
293.69941
293.69941
293.69941
293.69941
293.69941
293.69941
293.69941
293.69941
293.69941
293.69941
293.69941
293.69941
305.05812
304.47479
303.90366
303.34394
302.79418
302.25246
301.71654
301.1841
300.653
300.12163
299.58909
299.05552
298.52227
297.99209
297.4692
296.95912
296.4685
296.00464
295.57504
295.18657
294.84478
294.55329
294.31327
294.12321
293.97911
293.87503
293.80376
293.75774
293.7299
293.71422
293.70604
293.70213
293.70042
293.69975
293.69951
293.69943
293.69941
293.69941
293.69941
293.69941
293.69941
293.69941
293.69941
293.69941
293.69941
293.69941
293.69941
293.69941
293.69941
293.69941
308.23222
307.61833
306.98314
306.32842
305.65606
304.96806
304.2665
303.5536
302.83181
302.10388
301.37302
300.64308
299.91868
299.20535
298.50955
297.83863
297.20056
296.6036
296.05574
295.56403
295.13388
294.76848
294.46825
294.2307
294.05058
293.92034
293.83098
293.77316
293.73807
293.71824
293.70787
293.70289
293.70071
293.69985
293.69954
293.69944
293.69942
293.69941
293.69941
293.69941
293.69941
293.69941
293.69941
293.69941
293.69941
293.69941
293.69941
293.69941
293.69941
293.69941
309.29831
308.73104
308.13142
307.50003
306.83789
306.14644
305.42763
304.68397
303.91859
303.1353
302.33874
301.53452
300.72925
299.93058
299.14737
298.38923
297.66644
296.98934
296.36778
295.81016
295.32286
294.90945
294.57012
294.30182
294.09839
293.95112
293.84986
293.7841
293.74403
293.72126
293.70929
293.7035
293.70095
293.69993
293.69957
293.69945
293.69942
293.69941
293.69941
293.69941
293.69941
293.69941
293.69941
293.69941
293.69941
293.69941
293.69941
293.69941
293.69941
293.69941
309.80907
309.24214
308.64201
308.0087
307.3426
306.64459
305.91608
305.1591
304.37645
303.57179
302.74981
301.91631
301.07837
300.24436
299.42385
298.62754
297.86687
297.15338
296.498
295.91024
295.3971
294.96244
294.60658
294.32598
294.11371
293.96039
293.85521
293.78705
293.74557
293.72202
293.70963
293.70365
293.701
293.69995
293.69957
293.69945
293.69942
293.69941
293.69941
293.69941
293.69941
293.69941
293.69941
293.69941
293.69941
293.69941
293.69941
293.69941
293.69941
293.69941
310.26004
309.70505
309.11764
308.49779
307.84576
307.16227
306.44847
305.70603
304.93726
304.1452
303.33375
302.50775
301.67313
300.83706
300.00786
299.19515
298.40952
297.66228
296.96469
296.32744
295.75949
295.26721
294.85387
294.5188
294.25755
294.06259
293.92399
293.83064
293.7714
293.73623
293.7168
293.70691
293.7023
293.70035
293.69961
293.69936
293.69928
293.69926
293.69926
293.69926
293.69926
293.69926
293.69926
293.69926
293.69926
293.69926
293.69926
293.69926
293.69926
293.69926
309.74317
309.18768
308.60046
307.98203
307.33327
306.65543
305.95023
305.2198
304.46681
303.6945
302.90676
302.10829
301.30472
300.5026
299.7097
298.93474
298.18731
297.47759
296.81584
296.21152
295.67272
295.20528
294.81184
294.49192
294.24163
294.05401
293.9199
293.829
293.77093
293.73619
293.71689
293.70699
293.70235
293.70038
293.69962
293.69936
293.69929
293.69927
293.69926
293.69926
293.69926
293.69926
293.69926
293.69926
293.69926
293.69926
293.69926
293.69926
293.69926
293.69926
308.68296
308.0795
307.45534
306.81217
306.15175
305.4759
304.78645
304.08529
303.3744
302.65597
301.93254
301.20713
300.48346
299.76606
299.06046
298.37314
297.71148
297.08351
296.49749
295.96133
295.48188
295.06426
294.7112
294.42266
294.19572
294.02475
293.902
293.81853
293.7651
293.73313
293.71538
293.7063
293.70206
293.70027
293.69958
293.69935
293.69928
293.69927
293.69926
293.69926
293.69926
293.69926
293.69926
293.69926
293.69926
293.69926
293.69926
293.69926
293.69926
293.69926
305.51742
304.94456
304.38445
303.8362
303.29825
302.76851
302.24449
301.72353
301.20305
300.68084
300.15529
299.62571
299.09256
298.55759
298.02402
297.49651
296.98106
296.48477
296.01535
295.58062
295.18772
294.8424
294.54835
294.30673
294.116
293.97205
293.86872
293.79859
293.75385
293.72719
293.71248
293.705
293.70153
293.70007
293.69952
293.69933
293.69928
293.69926
293.69926
293.69926
293.69926
293.69926
293.69926
293.69926
293.69926
293.69926
293.69926
293.69926
293.69926
293.69926
296.13026
296.59056
296.99579
297.3415
297.62408
297.8409
297.99041
298.07215
298.08681
298.03628
297.92364
297.75332
297.53107
297.26376
296.95945
296.62748
296.27812
295.92211
295.57051
295.23413
294.92293
294.64458
294.40451
294.20544
294.04727
293.92729
293.84095
293.7823
293.74486
293.72257
293.71027
293.70403
293.70114
293.69993
293.69947
293.69932
293.69928
293.69926
293.69926
293.69926
293.69926
293.69926
293.69926
293.69926
293.69926
293.69926
293.69926
293.69926
293.69926
293.69926
296.13141
296.5917
296.99691
297.34263
297.62523
297.84208
297.9916
298.07332
298.08792
298.03733
297.9247
297.7544
297.53206
297.26459
296.96032
296.62846
296.2792
295.92345
295.57231
295.23634
294.92483
294.64587
294.40515
294.20555
294.04711
293.92721
293.84096
293.78232
293.74489
293.72259
293.71028
293.70403
293.70114
293.69993
293.69947
293.69932
293.69928
293.69926
293.69926
293.69926
293.69926
293.69926
293.69926
293.69926
293.69926
293.69926
293.69926
293.69926
293.69926
293.69926
305.52284
304.94998
304.38985
303.84156
303.30356
302.77375
302.24963
301.72855
301.20794
300.68557
300.15986
299.6301
299.09675
298.56157
298.02778
297.50004
296.98437
296.48784
296.01816
295.58308
295.18971
294.84386
294.5493
294.30728
294.11629
293.9722
293.86881
293.79863
293.75387
293.7272
293.71248
293.705
293.70153
293.70007
293.69952
293.69933
293.69928
293.69926
293.69926
293.69926
293.69926
293.69926
293.69926
293.69926
293.69926
293.69926
293.69926
293.69926
293.69926
293.69926
308.69367
308.09019
307.46594
306.82264
306.16204
305.48597
304.79624
304.09475
303.3835
302.66467
301.94081
301.21494
300.49078
299.77288
299.06675
298.37889
297.71668
297.08816
296.50157
295.96483
295.48478
295.06657
294.71295
294.42392
294.19658
294.0253
293.90234
293.81873
293.76521
293.73319
293.71541
293.70631
293.70207
293.70027
293.69958
293.69935
293.69928
293.69927
293.69926
293.69926
293.69926
293.69926
293.69926
293.69926
293.69926
293.69926
293.69926
293.69926
293.69926
293.69926
309.76472
309.20825
308.62005
308.00063
307.35088
306.67206
305.96587
305.23445
304.48049
303.70718
302.91846
302.119
301.31445
300.51136
299.71751
298.94162
298.1933
297.48273
296.82018
296.21511
295.67563
295.20757
294.81359
294.49321
294.24254
294.05462
293.92029
293.82923
293.77106
293.73626
293.71692
293.70701
293.70236
293.70038
293.69962
293.69936
293.69929
293.69927
293.69926
293.69926
293.69926
293.69926
293.69926
293.69926
293.69926
293.69926
293.69926
293.69926
293.69926
293.69926
310.28494
309.72893
309.14048
308.51954
307.8664
307.18177
306.46679
305.72316
304.95318
304.1599
303.34721
302.51996
301.6841
300.8468
300.01639
299.2025
298.41574
297.66743
296.96888
296.33075
295.76203
295.26911
294.85524
294.51975
294.25819
294.06299
293.92424
293.83079
293.77148
293.73627
293.71682
293.70692
293.70231
293.70036
293.69961
293.69936
293.69928
293.69926
293.69926
293.69926
293.69926
293.69926
293.69926
293.69926
293.69926
293.69926
293.69926
293.69926
293.69926
293.69926
310.62282
310.07591
309.49717
308.88653
308.24424
307.57092
306.86758
306.13571
305.37733
304.59509
303.7924
302.97346
302.14343
301.3086
300.47634
299.65528
298.85517
298.08672
297.36101
296.68909
296.0809
295.54445
295.08512
294.70457
294.40069
294.16788
293.99755
293.87918
293.80145
293.75355
293.72601
293.71137
293.70422
293.70104
293.69977
293.69931
293.69917
293.69913
293.69912
293.69911
293.69911
293.69911
293.69911
293.69911
293.69911
293.69911
293.69911
293.69911
293.69911
293.69911
310.10032
309.55286
308.97417
308.36475
307.72543
307.05736
306.36212
305.64163
304.89828
304.13492
303.35496
302.56249
301.7624
300.96043
300.16349
299.37942
298.61712
297.88628
297.19707
296.55939
295.9823
295.47311
295.03634
294.67356
294.38293
294.1592
293.99444
293.87896
293.80239
293.75464
293.72687
293.71191
293.7045
293.70117
293.69982
293.69933
293.69917
293.69913
293.69912
293.69911
293.69911
293.69911
293.69911
293.69911
293.69911
293.69911
293.69911
293.69911
293.69911
293.69911
309.03586
308.44014
307.82418
307.18963
306.5382
305.87159
305.19149
304.4996
303.79761
303.08736
302.37094
301.65081
300.93005
300.21245
299.50278
298.80677
298.13117
297.48357
296.87212
296.305
295.78983
295.33292
294.93857
294.60858
294.3419
294.13466
293.98056
293.87154
293.79862
293.75281
293.72601
293.71151
293.70433
293.7011
293.69979
293.69932
293.69917
293.69913
293.69912
293.69911
293.69911
293.69911
293.69911
293.69911
293.69911
293.69911
293.69911
293.69912
293.69912
293.69912
305.87077
305.30567
304.75373
304.21405
303.68501
303.16442
302.64966
302.1379
301.6263
301.11233
300.59395
300.06995
299.54015
299.00561
298.46872
297.93338
297.40486
296.88967
296.39527
295.92963
295.50058
295.11512
294.77857
294.49408
294.2622
294.08084
293.94546
293.84956
293.7855
293.74542
293.72211
293.70962
293.70349
293.70076
293.69967
293.69928
293.69916
293.69912
293.69912
293.69911
293.69911
293.69911
293.69911
293.69911
293.69911
293.69911
293.69912
293.69912
293.69912
293.69912
296.49378
296.96086
297.37335
297.72677
298.01746
298.24271
298.40079
298.49107
298.51396
298.47104
298.36494
298.19953
297.97993
297.71221
297.40364
297.06277
296.69899
296.32264
295.94434
295.57512
295.22576
294.90626
294.62345
294.38196
294.18367
294.02757
293.91099
293.82839
293.7732
293.73874
293.71875
293.70805
293.70282
293.70051
293.69958
293.69925
293.69915
293.69912
293.69912
293.69911
293.69911
293.69911
293.69911
293.69911
293.69911
293.69912
293.69912
293.69912
293.69912
293.69912
296.49513
296.9622
297.37467
297.72806
298.01871
298.24391
298.40195
298.49218
298.51503
298.47207
298.366
298.20067
297.98105
297.71313
297.40449
297.06349
296.69975
296.32361
295.94615
295.57821
295.22988
294.90969
294.62555
294.38275
294.18365
294.02777
293.91104
293.82834
293.7732
293.73875
293.71876
293.70806
293.70282
293.70051
293.69958
293.69925
293.69915
293.69912
293.69912
293.69911
293.69911
293.69911
293.69911
293.69911
293.69911
293.69912
293.69912
293.69912
293.69912
293.69912
305.8758
305.31074
304.75884
304.21918
303.69015
303.16955
302.65477
302.14297
301.63132
301.11729
300.59884
300.07476
299.54485
299.01017
298.47315
297.93768
297.40903
296.89375
296.39926
295.93346
295.50403
295.11787
294.78047
294.49518
294.26272
294.08104
293.9455
293.84954
293.78547
293.7454
293.7221
293.70962
293.70349
293.70076
293.69967
293.69928
293.69916
293.69912
293.69912
293.69911
293.69911
293.69911
293.69911
293.69911
293.69911
293.69911
293.69912
293.69912
293.69912
293.69912
309.04576
308.45006
307.83407
307.19945
306.54791
305.88115
305.20088
304.50876
303.80652
303.09599
302.37926
301.6588
300.93768
300.21971
299.50964
298.81322
298.13718
297.48913
296.87721
296.30957
295.79382
295.33625
294.94119
294.6105
294.34321
294.13549
293.98105
293.87181
293.79875
293.75288
293.72604
293.71153
293.70434
293.7011
293.69979
293.69932
293.69917
293.69913
293.69912
293.69911
293.69911
293.69911
293.69911
293.69911
293.69911
293.69911
293.69911
293.69912
293.69912
293.69912
310.12005
309.57174
308.99221
308.38194
307.74178
307.07288
306.37679
305.65547
304.91129
304.14709
303.36629
302.57298
301.77205
300.96925
300.17148
299.38659
298.62349
297.89186
297.20192
296.56353
295.98577
295.47595
295.03859
294.67528
294.38418
294.16006
293.995
293.8793
293.80258
293.75475
293.72692
293.71193
293.70451
293.70118
293.69982
293.69933
293.69917
293.69913
293.69912
293.69911
293.69911
293.69911
293.69911
293.69911
293.69911
293.69911
293.69911
293.69911
293.69911
293.69911
310.64557
310.09778
309.51814
308.90657
308.26332