/*--------------------------------*- C++ -*----------------------------------*\
| =========                 |                                                 |
| \\      /  F ield         | OpenFOAM: The Open Source CFD Toolbox           |
|  \\    /   O peration     | Version:  3.0.1                                 |
|   \\  /    A nd           | Web:      www.OpenFOAM.org                      |
|    \\/     M anipulation  |                                                 |
\*---------------------------------------------------------------------------*/
FoamFile
{
    version     2.0;
    format      ascii;
    class       volVectorField;
    location    "2674";
    object      U;
}
// * * * * * * * * * * * * * * * * * * * * * * * * * * * * * * * * * * * * * //

dimensions      [0 1 -1 0 0 0 0];

internalField   nonuniform List<vector> 
80000
(
(-1.8681134e-05 3.9683274e-05 0.021605983)
(-8.8002277e-05 6.3237656e-05 0.052057296)
(-0.00019668213 8.0072065e-05 0.074709944)
(-0.00031463633 7.9406957e-05 0.091485428)
(-0.00046988937 0.00011381495 0.10389745)
(-0.00059306562 8.6441624e-05 0.11316228)
(-0.00072648931 0.00011344602 0.12018334)
(-0.0008515197 0.00011332091 0.12563528)
(-0.00092567905 8.8974009e-05 0.13002677)
(-0.001054235 0.00017039747 0.13362067)
(-0.0011420702 0.00013027496 0.13680718)
(-0.0011717838 7.3570382e-05 0.13966655)
(-0.0012510791 0.00010752504 0.14208185)
(-0.0012556748 3.9414112e-05 0.1444025)
(-0.0012714776 1.7580679e-05 0.14623127)
(-0.0012466006 1.3102735e-06 0.1477625)
(-0.0012660213 2.3906104e-05 0.14861254)
(-0.0012254824 -2.0101155e-05 0.14933136)
(-0.0012056137 1.3944787e-06 0.14915403)
(-0.0012207588 1.2614663e-05 0.14886763)
(-0.0011623827 -2.0876666e-05 0.14836017)
(-0.0011596662 8.8444284e-06 0.14689846)
(-0.0011481949 2.1318531e-05 0.14546194)
(-0.0011679185 8.6205995e-06 0.14418607)
(-0.0010824423 -3.0917309e-05 0.14248377)
(-0.0011354069 1.4259289e-05 0.14044354)
(-0.0010462539 -2.5078932e-05 0.13832866)
(-0.0010562651 8.2989819e-06 0.1353014)
(-0.0010096704 -1.0720835e-05 0.13183119)
(-0.00095805008 -1.9373222e-05 0.12751501)
(-0.00093816389 8.2061692e-06 0.12213028)
(-0.00091184816 -1.3736117e-05 0.11649806)
(-0.00080719323 -2.3411738e-05 0.10924286)
(-0.00078412139 2.6616828e-06 0.09958521)
(-0.00072994873 -1.5276024e-05 0.089335375)
(-0.00062836633 -1.5645021e-05 0.076647949)
(-0.00068045029 -2.7906146e-05 0.063563022)
(-0.00031030575 -2.8184028e-05 0.046003014)
(-0.00076060069 4.4108399e-05 0.026770158)
(-0.00054955784 -7.6307536e-05 0.014729244)
(-4.4835018e-05 3.7686292e-05 0.021627897)
(-9.0532869e-05 6.3483565e-05 0.052090039)
(-0.00018167311 7.4251017e-05 0.07474826)
(-0.00027662044 7.6072684e-05 0.091522026)
(-0.00039147599 9.283036e-05 0.1039294)
(-0.00046124657 7.9557438e-05 0.113164)
(-0.00055219367 9.0279123e-05 0.12012349)
(-0.00059445523 8.8567689e-05 0.12547344)
(-0.00060557918 7.41544e-05 0.12968029)
(-0.00064850667 0.00011077851 0.13306)
(-0.00058285438 8.7537703e-05 0.1358263)
(-0.00052809663 5.3901593e-05 0.13808194)
(-0.00052279777 6.6688122e-05 0.13988829)
(-0.00042643826 2.9481461e-05 0.14128277)
(-0.00040245382 1.4517382e-05 0.14225624)
(-0.00034821741 5.7723668e-06 0.14282633)
(-0.0003402091 1.599482e-05 0.14300348)
(-0.00026240361 -7.2520874e-06 0.14280657)
(-0.00026027867 3.5691476e-06 0.14224303)
(-0.00022954511 9.4062104e-06 0.1413731)
(-0.00016593123 -8.8183381e-06 0.14019118)
(-0.0001774991 6.826613e-06 0.13872283)
(-0.00012477286 1.4172855e-05 0.13702494)
(-0.00011452911 4.8478978e-06 0.13507517)
(-2.3288196e-05 -1.5942777e-05 0.13279329)
(-9.6178284e-05 7.8675218e-06 0.13021854)
(3.1359656e-05 -1.3075999e-05 0.12729201)
(-4.3013547e-05 4.8973189e-06 0.12392343)
(4.3084173e-05 -5.8938508e-06 0.12009247)
(3.7692678e-05 -1.0801047e-05 0.11558236)
(3.7623253e-05 5.2456915e-06 0.11041085)
(7.3944598e-05 -8.0748335e-06 0.10437774)
(9.6922035e-05 -1.3142944e-05 0.097178336)
(6.2489094e-05 2.0850055e-06 0.088806975)
(0.00011655021 -8.2349833e-06 0.079097672)
(9.3971657e-05 -8.560993e-06 0.067801015)
(9.2844323e-05 -1.5106606e-05 0.054990774)
(0.00011870014 -1.4206753e-05 0.040556456)
(-5.9890891e-05 2.8228261e-05 0.025050179)
(0.00015098255 -3.5202383e-05 0.0085187574)
(-8.3761317e-05 3.6740741e-05 0.021628258)
(-0.00013081949 6.6202361e-05 0.05205697)
(-0.00021793722 6.6295063e-05 0.074647935)
(-0.00030871572 6.4775147e-05 0.09131128)
(-0.00039438595 6.0845383e-05 0.10355476)
(-0.00045899087 5.4595038e-05 0.11255336)
(-0.00050094014 4.8624837e-05 0.11919579)
(-0.00050894255 4.1803735e-05 0.12413433)
(-0.00049484219 3.5222339e-05 0.12782919)
(-0.00045790023 2.8835992e-05 0.13059407)
(-0.00040092328 2.0282087e-05 0.13263562)
(-0.00035208927 1.4140151e-05 0.13408516)
(-0.00029988415 9.9977645e-06 0.13502791)
(-0.00024836367 5.700322e-06 0.13551913)
(-0.00021169332 4.2514267e-06 0.13559843)
(-0.00017726947 3.8477221e-06 0.13529791)
(-0.00014778221 3.2385325e-06 0.13464403)
(-0.00012257378 2.685113e-06 0.13365963)
(-0.00011003381 3.1943097e-06 0.13236877)
(-9.0414602e-05 2.3831853e-06 0.13078908)
(-8.3991715e-05 1.9343829e-06 0.12893429)
(-8.0007032e-05 2.2061067e-06 0.12681806)
(-7.5124558e-05 7.5319517e-07 0.12444001)
(-7.2254115e-05 -7.6559802e-07 0.12179287)
(-8.2991945e-05 -4.5352903e-07 0.11886737)
(-8.9227654e-05 -3.7069981e-07 0.11565183)
(-9.2187604e-05 -9.6336243e-07 0.11210092)
(-0.00011083277 -5.0307319e-07 0.10818352)
(-0.00010510375 -1.5329566e-06 0.10382558)
(-0.0001266101 -6.5357145e-07 0.098964206)
(-0.00012560847 -8.1858606e-07 0.09352181)
(-0.00012822628 -1.6049207e-06 0.087386559)
(-0.00013756079 -4.1198564e-07 0.080486264)
(-0.00013487275 -4.3004796e-07 0.072747804)
(-0.00012752041 -7.952868e-07 0.06408822)
(-0.00013100912 -1.6568626e-07 0.054499768)
(-0.00011023256 2.1160927e-07 0.043982304)
(-0.00011157376 1.9326902e-06 0.032572641)
(-7.1367282e-05 8.2431296e-07 0.020277887)
(-1.8586326e-05 6.4703805e-07 0.0069597101)
(-9.686324e-05 2.7262399e-05 0.021566793)
(-0.00012724877 5.3629388e-05 0.051856608)
(-0.00017441596 4.9546643e-05 0.07427559)
(-0.00022198544 4.3417519e-05 0.090722945)
(-0.00025892807 3.5573329e-05 0.10269646)
(-0.00027446349 2.7789355e-05 0.11136291)
(-0.00026639886 2.1311e-05 0.11760891)
(-0.0002364907 1.6209969e-05 0.12208882)
(-0.00019275835 1.2386785e-05 0.12527083)
(-0.00014302176 9.6769664e-06 0.12748087)
(-9.539363e-05 7.4617939e-06 0.12894082)
(-5.6641316e-05 6.0943398e-06 0.12979998)
(-2.6564481e-05 5.4115665e-06 0.13015933)
(-6.2107324e-06 4.7841056e-06 0.13008831)
(4.1291478e-06 4.4714414e-06 0.12963683)
(9.1465492e-06 4.1206195e-06 0.12884232)
(8.3293244e-06 3.6403233e-06 0.12773364)
(3.9147701e-06 2.9703914e-06 0.1263338)
(-2.9153427e-06 2.360553e-06 0.1246613)
(-1.0174816e-05 1.6126117e-06 0.12273045)
(-1.8775738e-05 8.3973816e-07 0.12055257)
(-2.6434107e-05 2.0328834e-07 0.11813413)
(-3.223988e-05 -4.5111522e-07 0.11547648)
(-3.9828149e-05 -8.2982383e-07 0.11257691)
(-4.3707453e-05 -1.082092e-06 0.10942684)
(-4.5555218e-05 -1.142054e-06 0.10600965)
(-4.3851052e-05 -1.4179463e-06 0.10229971)
(-4.1102152e-05 -1.3611276e-06 0.098263589)
(-3.3572705e-05 -1.4403768e-06 0.093856743)
(-2.7276898e-05 -1.3936569e-06 0.089027786)
(-1.3722415e-05 -1.3702942e-06 0.08371499)
(-3.5969788e-06 -1.3575524e-06 0.077852273)
(1.002129e-05 -1.3016085e-06 0.071375099)
(2.4948471e-05 -1.3731863e-06 0.064231852)
(3.7386126e-05 -1.520724e-06 0.056375356)
(4.8982247e-05 -1.6067282e-06 0.047774528)
(5.6526446e-05 -1.9116795e-06 0.038416793)
(5.9883121e-05 -2.5885407e-06 0.028298322)
(5.4586522e-05 -3.5171383e-06 0.017434975)
(3.26296e-05 -3.7371221e-06 0.0058519308)
(-4.1661919e-05 1.618158e-05 0.021502689)
(-4.5206503e-05 4.0952273e-05 0.051645077)
(-5.1335806e-05 4.0911022e-05 0.073907355)
(-6.1522155e-05 3.4346796e-05 0.090186417)
(-6.9498813e-05 2.608478e-05 0.10197233)
(-7.0882488e-05 1.9388144e-05 0.11042653)
(-6.6040659e-05 1.4995848e-05 0.11643527)
(-5.7727027e-05 1.2393825e-05 0.12065638)
(-4.9731863e-05 1.0771035e-05 0.12356432)
(-4.4478145e-05 9.4951035e-06 0.12549221)
(-4.3049799e-05 8.2316272e-06 0.12666894)
(-4.5265288e-05 7.0568788e-06 0.12724981)
(-4.9232197e-05 5.9944374e-06 0.12734012)
(-5.3617987e-05 4.9732428e-06 0.12701232)
(-5.7332148e-05 4.0803791e-06 0.12631761)
(-5.9313279e-05 3.2601201e-06 0.12529357)
(-5.9525686e-05 2.4409853e-06 0.12396867)
(-5.8019367e-05 1.6703111e-06 0.12236514)
(-5.5209795e-05 9.7764595e-07 0.12050046)
(-5.1178373e-05 3.2738418e-07 0.11838809)
(-4.6826132e-05 -2.2585364e-07 0.11603776)
(-4.218734e-05 -6.4114161e-07 0.11345539)
(-3.7799123e-05 -9.9063975e-07 0.11064279)
(-3.3496896e-05 -1.1917051e-06 0.10759722)
(-2.9444522e-05 -1.2320339e-06 0.10431081)
(-2.5713387e-05 -1.2363459e-06 0.1007694)
(-2.2807358e-05 -1.2366291e-06 0.096951801)
(-2.1194667e-05 -1.1788352e-06 0.092829701)
(-1.9867758e-05 -1.1495716e-06 0.088367655)
(-2.0091597e-05 -1.0681454e-06 0.083523754)
(-2.0768336e-05 -1.0181662e-06 0.078251629)
(-2.2859969e-05 -1.0187576e-06 0.072502288)
(-2.5608287e-05 -9.5319208e-07 0.066229417)
(-2.9905453e-05 -9.5220536e-07 0.059392527)
(-3.5413347e-05 -9.4192369e-07 0.051960973)
(-4.2096122e-05 -8.5228043e-07 0.043916625)
(-4.8189633e-05 -6.659875e-07 0.035252059)
(-5.3418671e-05 -2.5369168e-07 0.02596464)
(-5.1222841e-05 3.6134475e-07 0.016042047)
(-3.0337029e-05 6.9654135e-07 0.0054408591)
(5.1843867e-05 1.6586541e-05 0.021490799)
(6.1712527e-05 4.1514438e-05 0.051609286)
(7.0711887e-05 4.1040638e-05 0.073845028)
(8.2526628e-05 3.4282722e-05 0.090094706)
(9.1495812e-05 2.5990665e-05 0.10184903)
(9.3285146e-05 1.9336507e-05 0.11027037)
(8.8217592e-05 1.5000289e-05 0.11624587)
(7.9036834e-05 1.2442763e-05 0.12043402)
(6.9572894e-05 1.0846319e-05 0.12330989)
(6.2330787e-05 9.5803222e-06 0.12520699)
(5.8494299e-05 8.3159104e-06 0.12635431)
(5.7986248e-05 7.1333228e-06 0.12690716)
(5.9015288e-05 6.0603064e-06 0.12697083)
(6.0331869e-05 5.0281156e-06 0.12661762)
(6.092124e-05 4.1241061e-06 0.12589854)
(5.9788378e-05 3.2933807e-06 0.12485099)
(5.6950851e-05 2.4649931e-06 0.12350324)
(5.2520051e-05 1.6855175e-06 0.1218773)
(4.6966608e-05 9.8452426e-07 0.11999043)
(4.0438705e-05 3.2587088e-07 0.11785588)
(3.3894315e-05 -2.3658242e-07 0.11548316)
(2.7455448e-05 -6.6083146e-07 0.11287817)
(2.1700698e-05 -1.0185048e-06 0.11004271)
(1.6532339e-05 -1.2255497e-06 0.10697424)
(1.2146606e-05 -1.2699195e-06 0.10366528)
(8.6137699e-06 -1.2772437e-06 0.10010233)
(6.4318299e-06 -1.2805723e-06 0.096265095)
(6.0245124e-06 -1.2258532e-06 0.092126439)
(6.3211228e-06 -1.1977769e-06 0.087652521)
(8.4586631e-06 -1.11828e-06 0.082803248)
(1.1239521e-05 -1.0713138e-06 0.077534526)
(1.5340299e-05 -1.0686802e-06 0.071799593)
(2.0039569e-05 -9.9294471e-07 0.065554612)
(2.5764882e-05 -9.925606e-07 0.058760746)
(3.23229e-05 -9.8090862e-07 0.051388077)
(3.9470695e-05 -8.7452153e-07 0.043418907)
(4.5558352e-05 -6.6139704e-07 0.034845392)
(5.0541188e-05 -2.1344338e-07 0.02566278)
(4.8468479e-05 4.3901272e-07 0.015855584)
(2.8858793e-05 7.4516347e-07 0.0053776216)
(0.00010260091 2.7970053e-05 0.021530206)
(0.00013921242 5.4935965e-05 0.051745292)
(0.00019161142 5.0383853e-05 0.074082314)
(0.00024277394 4.3896536e-05 0.090440509)
(0.00028189537 3.5799236e-05 0.10231882)
(0.00029844121 2.7858944e-05 0.11088581)
(0.00029044004 2.1295023e-05 0.11703005)
(0.00025982156 1.6154933e-05 0.1214078)
(0.00021474403 1.2319974e-05 0.12448879)
(0.00016314104 9.6113509e-06 0.12660019)
(0.00011321806 7.4021391e-06 0.12796464)
(7.1838978e-05 6.0420386e-06 0.1287318)
(3.8887175e-05 5.3675953e-06 0.12900275)
(1.5470234e-05 4.7490845e-06 0.12884676)
(1.9461292e-06 4.4455391e-06 0.12831322)
(-6.2975249e-06 4.1055959e-06 0.12743928)
(-8.7173453e-06 3.6343721e-06 0.12625336)
(-7.4831979e-06 2.9723101e-06 0.12477796)
(-3.7182174e-06 2.3700288e-06 0.12303111)
(6.2526119e-07 1.6312848e-06 0.12102658)
(6.5442879e-06 8.6328742e-07 0.11877439)
(1.1854803e-05 2.3086549e-07 0.11628149)
(1.5722852e-05 -4.2054323e-07 0.11354942)
(2.1817017e-05 -8.0247103e-07 0.11057587)
(2.4770063e-05 -1.0522766e-06 0.10735338)
(2.6256051e-05 -1.1094395e-06 0.1038674)
(2.4789732e-05 -1.3872829e-06 0.10009525)
(2.2928115e-05 -1.330444e-06 0.096007145)
(1.693532e-05 -1.4114392e-06 0.091564079)
(1.2660854e-05 -1.3724017e-06 0.086720149)
(1.7284446e-06 -1.3403597e-06 0.081421445)
(-5.3917987e-06 -1.3542351e-06 0.075609075)
(-1.5915707e-05 -1.3023078e-06 0.069231988)
(-2.8110994e-05 -1.3599976e-06 0.062238063)
(-3.7875497e-05 -1.5289507e-06 0.054582837)
(-4.7198693e-05 -1.618164e-06 0.046234367)
(-5.3329068e-05 -1.9264717e-06 0.037175256)
(-5.6133555e-05 -2.590174e-06 0.027392538)
(-5.1211278e-05 -3.4811425e-06 0.016890093)
(-3.0915925e-05 -3.6381555e-06 0.0056779421)
(8.5136143e-05 3.7023484e-05 0.021561972)
(0.00013589126 6.7069882e-05 0.051859414)
(0.00022769335 6.7235249e-05 0.074309968)
(0.00032298109 6.568588e-05 0.09082282)
(0.00041257182 6.1665694e-05 0.1029063)
(0.00048024961 5.5310301e-05 0.1117371)
(0.00052434242 4.9241422e-05 0.11820613)
(0.00053358941 4.233423e-05 0.12296811)
(0.00051988198 3.5674989e-05 0.12648543)
(0.00048260027 2.922451e-05 0.12907359)
(0.00042465325 2.060346e-05 0.13094073)
(0.00037429446 1.4388167e-05 0.13221872)
(0.00032017974 1.0187931e-05 0.13299312)
(0.00026636456 5.8305523e-06 0.13331937)
(0.00022713933 4.3310705e-06 0.13323646)
(0.00018993253 3.8933732e-06 0.13277626)
(0.000157437 3.2598087e-06 0.13196468)
(0.00012909924 2.6798574e-06 0.13082431)
(0.00011326457 3.1735267e-06 0.12937819)
(9.0335081e-05 2.3531706e-06 0.12764403)
(8.0466826e-05 1.8862386e-06 0.12563518)
(7.3231332e-05 2.1556511e-06 0.1233648)
(6.4958014e-05 6.8229475e-07 0.12083381)
(5.9044023e-05 -8.6262217e-07 0.1180355)
(6.702497e-05 -5.6159548e-07 0.11496271)
(7.085427e-05 -4.6271244e-07 0.11160584)
(7.1821425e-05 -1.0626161e-06 0.10792746)
(8.8937958e-05 -6.0303261e-07 0.10390034)
(8.236716e-05 -1.6306192e-06 0.099463999)
(0.00010361153 -7.4634517e-07 0.09456457)
(0.00010319083 -8.9561953e-07 0.089140354)
(0.0001067407 -1.695969e-06 0.083095947)
(0.00011852462 -4.8391172e-07 0.076372896)
(0.00011804835 -4.7717084e-07 0.068910486)
(0.00011353607 -8.5485773e-07 0.060634304)
(0.00011986759 -2.1522602e-07 0.05152917)
(0.00010238716 2.061122e-07 0.041586582)
(0.00010595342 1.9373692e-06 0.030820697)
(6.7836022e-05 8.4894926e-07 0.019212245)
(1.6853775e-05 6.3707746e-07 0.0066072533)
(4.4786323e-05 3.7618139e-05 0.021533348)
(9.1721213e-05 6.3642809e-05 0.051811174)
(0.0001849255 7.461098e-05 0.074273844)
(0.00028243387 7.6587472e-05 0.090838571)
(0.00040002311 9.3483521e-05 0.10302313)
(0.00047244911 8.0281385e-05 0.11202227)
(0.00056580071 9.1101853e-05 0.11873554)
(0.00061003983 8.9466911e-05 0.12383091)
(0.00062273805 7.5063507e-05 0.12777708)
(0.0006668087 0.00011194911 0.13089184)
(0.00060157978 8.8686911e-05 0.13339105)
(0.00054689576 5.4868768e-05 0.13537804)
(0.00054144703 6.7830219e-05 0.13691409)
(0.000444369 3.028861e-05 0.13803755)
(0.00041949736 1.5154879e-05 0.13873811)
(0.00036446715 6.2582504e-06 0.1390331)
(0.00035537451 1.6635713e-05 0.13893247)
(0.00027601136 -7.0428485e-06 0.13845606)
(0.00027279296 3.938581e-06 0.13760991)
(0.00024054221 9.9065179e-06 0.1364555)
(0.00017488506 -8.8087828e-06 0.13498903)
(0.0001850828 7.2454823e-06 0.13323503)
(0.0001307699 1.4806218e-05 0.13125455)
(0.00011773313 5.205084e-06 0.12902839)
(2.4208267e-05 -1.6427486e-05 0.12648051)
(9.6345487e-05 8.3059519e-06 0.12365027)
(-3.4398862e-05 -1.3551554e-05 0.12049304)
(3.9622499e-05 5.2140127e-06 0.11692337)
(-4.8452676e-05 -6.1222303e-06 0.11294319)
(-4.4951672e-05 -1.1331215e-05 0.10835184)
(-4.3483222e-05 5.6010256e-06 0.10318578)
(-8.246329e-05 -8.5103985e-06 0.097276879)
(-0.00010484654 -1.394096e-05 0.090345507)
(-6.8218129e-05 2.2496293e-06 0.082406966)
(-0.0001227995 -8.7003009e-06 0.073314929)
(-9.7799648e-05 -9.1471424e-06 0.062823457)
(-9.5932757e-05 -1.6007693e-05 0.050980942)
(-0.00011950115 -1.5083697e-05 0.037645906)
(6.3425794e-05 2.9930096e-05 0.023305779)
(-0.00015174458 -3.6103225e-05 0.0079601404)
(1.8580704e-05 3.9536541e-05 0.021493775)
(8.8218049e-05 6.3157641e-05 0.051727473)
(0.00019760524 8.0146803e-05 0.074148861)
(0.00031655529 7.9632188e-05 0.090675864)
(0.00047297522 0.00011425282 0.10282089)
(0.000597339 8.6971561e-05 0.11180067)
(0.00073193283 0.00011421187 0.11851988)
(0.00085796594 0.00011425582 0.12365503)
(0.00093293601 8.9946996e-05 0.12771675)
(0.0010623781 0.00017210973 0.13096937)
(0.0011507661 0.00013191488 0.13380475)
(0.0011807341 7.4850557e-05 0.13630415)
(0.0012602685 0.00010938224 0.13835074)
(0.0012647359 4.0484725e-05 0.14029425)
(0.0012799342 1.8386119e-05 0.14173709)
(0.0012543799 1.8328122e-06 0.1428733)
(0.001273243 2.4921092e-05 0.14331898)
(0.0012313959 -2.0123296e-05 0.14362472)
(0.0012107252 1.9032305e-06 0.14302627)
(0.001225311 1.3454447e-05 0.14231239)
(0.0011656329 -2.1178698e-05 0.14137449)
(0.0011619665 9.623926e-06 0.1394826)
(0.0011512472 2.2612107e-05 0.13762239)
(0.0011707039 9.3945579e-06 0.13593736)
(0.0010841237 -3.2140102e-05 0.13385129)
(0.0011383912 1.5363081e-05 0.1314637)
(0.0010480902 -2.6246769e-05 0.12905431)
(0.0010588195 9.1265335e-06 0.12580458)
(0.001012795 -1.1175461e-05 0.1222055)
(0.00096021146 -2.0441379e-05 0.11788225)
(0.00094292565 9.0581879e-06 0.11263941)
(0.00091827894 -1.4538871e-05 0.10732633)
(0.00081090259 -2.4892431e-05 0.10059448)
(0.00079175579 3.0704824e-06 0.091683281)
(0.00073575605 -1.610076e-05 0.082388919)
(0.00063697824 -1.6555937e-05 0.070854706)
(0.00068725672 -2.9441812e-05 0.059045998)
(0.00030895172 -2.9471152e-05 0.042854302)
(0.00077523726 4.6973803e-05 0.024973418)
(0.00055897944 -7.7715976e-05 0.014112043)
(-3.5133257e-05 4.0914802e-05 0.023797363)
(-0.00020168059 7.0624197e-05 0.056674442)
(-0.00047383643 8.9124472e-05 0.08035723)
(-0.00077489457 8.7533114e-05 0.097159785)
(-0.0011097073 0.00012128425 0.10901442)
(-0.0013911023 8.5521723e-05 0.11745222)
(-0.0016533042 0.00010764075 0.12362246)
(-0.001870469 9.8480109e-05 0.12833158)
(-0.0020034581 6.037568e-05 0.13211695)
(-0.0021647969 0.00014690831 0.13531055)
(-0.0022547011 9.0532619e-05 0.13813384)
(-0.0022655117 1.309942e-05 0.14067553)
(-0.0023095404 5.0199295e-05 0.14293934)
(-0.0022638521 -4.2436896e-05 0.144981)
(-0.0022141798 -7.3590148e-05 0.1466786)
(-0.0021219255 -9.7652596e-05 0.14802281)
(-0.0020701694 -6.5222495e-05 0.14888937)
(-0.0019513804 -0.00012591322 0.14941354)
(-0.0018630873 -9.1190609e-05 0.14935302)
(-0.0018075057 -6.9733913e-05 0.14901829)
(-0.001680635 -0.000115258 0.14836168)
(-0.0016179546 -6.2826355e-05 0.14706815)
(-0.0015602746 -3.7266118e-05 0.14566718)
(-0.0015291403 -5.0205652e-05 0.14428379)
(-0.0013946485 -0.00010794977 0.1425725)
(-0.0014107739 -2.6517412e-05 0.14054505)
(-0.001277885 -8.6289542e-05 0.1383099)
(-0.0012570314 -2.3325631e-05 0.13531362)
(-0.0011764028 -5.1113861e-05 0.1317899)
(-0.001088358 -6.05867e-05 0.12744793)
(-0.0010519688 -9.1621169e-06 0.12213117)
(-0.00099503816 -4.4005419e-05 0.11636395)
(-0.00085609899 -5.786139e-05 0.10903534)
(-0.00081542407 -1.0130964e-05 0.099515604)
(-0.00073223704 -4.083665e-05 0.089140887)
(-0.00062172997 -4.3022102e-05 0.076595182)
(-0.00063199332 -6.3590192e-05 0.063213681)
(-0.00026362661 -7.2407086e-05 0.045960984)
(-0.00075034168 3.7175838e-05 0.02746294)
(-0.00044869686 -0.00016190152 0.012780051)
(-7.3237936e-05 4.2568145e-05 0.023770748)
(-0.0002410448 7.6672635e-05 0.056600077)
(-0.00052723825 8.567771e-05 0.080237456)
(-0.00083136268 8.1697082e-05 0.096995925)
(-0.0011406324 8.9776796e-05 0.10879679)
(-0.0013701237 6.2427902e-05 0.11716548)
(-0.0015751435 5.9348952e-05 0.12323383)
(-0.0016813853 4.2466754e-05 0.12779515)
(-0.0017117643 1.118338e-05 0.13136916)
(-0.0017348742 4.1389193e-05 0.13427234)
(-0.0016124332 4.4078665e-06 0.13668651)
(-0.0014805426 -4.4392382e-05 0.13869798)
(-0.0013885781 -3.2840804e-05 0.14033923)
(-0.0011946371 -8.231972e-05 0.14161611)
(-0.00107421 -0.00010124519 0.14251838)
(-0.00093396716 -0.00011115228 0.14304203)
(-0.00084369688 -9.1823983e-05 0.14318912)
(-0.0006866213 -0.0001184432 0.14296723)
(-0.00062235788 -9.5944907e-05 0.14239508)
(-0.00053401439 -7.8818718e-05 0.14150714)
(-0.00041447241 -9.7749313e-05 0.14031183)
(-0.00038827289 -6.5278392e-05 0.13883802)
(-0.00030240045 -4.5497547e-05 0.13712191)
(-0.00025031762 -5.0508644e-05 0.1351483)
(-0.00013054674 -7.727802e-05 0.13286007)
(-0.0001904079 -3.1190633e-05 0.13027833)
(-3.6830222e-05 -5.9155758e-05 0.12733388)
(-0.00010309078 -2.3646489e-05 0.12396701)
(4.4945885e-08 -3.6499355e-05 0.12011098)
(1.0027218e-05 -4.0650093e-05 0.11560641)
(6.9744763e-06 -1.0249773e-05 0.11042044)
(6.4518966e-05 -2.9195397e-05 0.10436818)
(9.5442674e-05 -3.6482979e-05 0.097179916)
(5.9167011e-05 -8.9307405e-06 0.08880673)
(0.00012827013 -2.5655827e-05 0.079089219)
(0.00010937319 -2.7447172e-05 0.067815376)
(0.00011295383 -3.9210559e-05 0.055015545)
(0.00013639594 -4.3727293e-05 0.040650215)
(-6.6411591e-05 1.9583905e-05 0.025149838)
(0.00018833507 -8.0395321e-05 0.0086004571)
(-0.00014984553 4.9264687e-05 0.023706295)
(-0.0003475926 8.7785942e-05 0.056410382)
(-0.00064493293 7.23143e-05 0.07991644)
(-0.00093294416 4.9568372e-05 0.096527214)
(-0.0011740085 2.0201061e-05 0.10814882)
(-0.001336099 -1.2560177e-05 0.11628286)
(-0.0014146196 -4.3233039e-05 0.12204289)
(-0.0014044701 -7.1011419e-05 0.12620652)
(-0.0013278434 -9.3669774e-05 0.12928427)
(-0.0011987361 -0.00011047355 0.13159166)
(-0.0010332481 -0.0001244379 0.13331223)
(-0.00087091003 -0.00013123316 0.13454759)
(-0.00071161215 -0.00013143363 0.13535208)
(-0.00056329233 -0.00012868145 0.13575539)
(-0.00044437877 -0.00012049507 0.13577979)
(-0.00034323883 -0.00010948737 0.13544305)
(-0.0002609123 -9.7861032e-05 0.13476419)
(-0.00019569748 -8.6356453e-05 0.13376085)
(-0.00015327348 -7.3951613e-05 0.13245528)
(-0.00011329203 -6.3657694e-05 0.13086248)
(-9.1615649e-05 -5.4180804e-05 0.12899654)
(-7.8903334e-05 -4.4783212e-05 0.12687067)
(-6.7123729e-05 -3.8480775e-05 0.12448289)
(-6.0964258e-05 -3.3588558e-05 0.12182896)
(-6.9888791e-05 -2.7712338e-05 0.11889668)
(-7.6599287e-05 -2.2485302e-05 0.11567582)
(-7.977817e-05 -1.9190407e-05 0.11211747)
(-9.8031792e-05 -1.5358062e-05 0.1081952)
(-9.3879342e-05 -1.3798812e-05 0.10382969)
(-0.00011442472 -1.0764193e-05 0.098963946)
(-0.00011429963 -9.0552674e-06 0.093513787)
(-0.00011550354 -8.6653727e-06 0.087374181)
(-0.00012460545 -6.38264e-06 0.080469121)
(-0.00012093998 -5.4319877e-06 0.072725831)
(-0.00011215728 -5.5101557e-06 0.064063807)
(-0.00011388585 -4.6739597e-06 0.054471795)
(-9.3753437e-05 -4.1307491e-06 0.043950853)
(-9.2587077e-05 -2.5292016e-06 0.032529312)
(-5.1248058e-05 -4.3883776e-06 0.020211372)
(3.5591873e-06 -4.4677225e-06 0.0068680381)
(-0.00019628586 3.912297e-05 0.02355847)
(-0.00035402102 6.3122421e-05 0.056011078)
(-0.00054307658 2.6517216e-05 0.07928909)
(-0.00069917352 -1.4132112e-05 0.095678235)
(-0.00079504536 -5.4166013e-05 0.10705876)
(-0.00081937594 -8.8424333e-05 0.11490514)
(-0.00077853748 -0.00011379761 0.12031296)
(-0.00068684491 -0.00012962702 0.12405382)
(-0.00056553718 -0.00013647188 0.12664386)
(-0.00043424223 -0.00013566981 0.12841241)
(-0.00030997706 -0.00012938356 0.1295614)
(-0.00020550098 -0.00011887266 0.13021175)
(-0.00012347866 -0.00010576452 0.13043588)
(-6.4793611e-05 -9.1995328e-05 0.13027957)
(-2.8248991e-05 -7.8277769e-05 0.12977506)
(-7.1238158e-06 -6.5556728e-05 0.12894716)
(1.2253817e-06 -5.4356202e-05 0.12781698)
(1.0817821e-06 -4.488562e-05 0.12640279)
(-4.5629398e-06 -3.6856131e-05 0.1247205)
(-1.2282737e-05 -3.038514e-05 0.12278256)
(-2.188925e-05 -2.5247259e-05 0.12059937)
(-3.0873367e-05 -2.1057234e-05 0.11817665)
(-3.8004636e-05 -1.7850201e-05 0.1155154)
(-4.6172403e-05 -1.5226317e-05 0.11261255)
(-5.0855241e-05 -1.3081666e-05 0.1094592)
(-5.2976279e-05 -1.1230556e-05 0.10603832)
(-5.1165175e-05 -1.0032008e-05 0.10232426)
(-4.7951911e-05 -8.8139723e-06 0.098284032)
(-3.9923203e-05 -7.9620193e-06 0.093872191)
(-3.2309122e-05 -7.136907e-06 0.089038775)
(-1.8060483e-05 -6.3951259e-06 0.083720984)
(-6.1296568e-06 -5.7745525e-06 0.077854235)
(8.6908068e-06 -5.184575e-06 0.071374025)
(2.4877299e-05 -4.7383089e-06 0.064227297)
(3.9034926e-05 -4.4178865e-06 0.056369439)
(5.1743088e-05 -4.1027423e-06 0.047769713)
(6.0240309e-05 -4.1930353e-06 0.038414622)
(6.3568412e-05 -4.9259693e-06 0.02830366)
(5.6618219e-05 -6.4742412e-06 0.01745296)
(3.3548776e-05 -5.4121553e-06 0.0058813587)
(-8.3993649e-05 1.796801e-05 0.023416806)
(-0.00012804353 2.8504922e-05 0.05563308)
(-0.00017100221 -5.2022021e-06 0.07873808)
(-0.00020488094 -4.5639811e-05 0.094974996)
(-0.00022070609 -8.1485882e-05 0.10620133)
(-0.00021695808 -0.00010738866 0.11387215)
(-0.00019852659 -0.00012239926 0.11907295)
(-0.00017227429 -0.00012776488 0.12257507)
(-0.00014505361 -0.00012563839 0.1249017)
(-0.00012143862 -0.00011831806 0.12639247)
(-0.00010377027 -0.00010787012 0.12725964)
(-9.2393477e-05 -9.5784664e-05 0.12763237)
(-8.5501682e-05 -8.3263937e-05 0.12758889)
(-8.1367489e-05 -7.1262809e-05 0.12717822)
(-7.8461664e-05 -6.0252695e-05 0.12643359)
(-7.5287386e-05 -5.0537807e-05 0.12537979)
(-7.1372256e-05 -4.2257379e-05 0.12403702)
(-6.654343e-05 -3.5318435e-05 0.1224224)
(-6.1000814e-05 -2.956167e-05 0.12055042)
(-5.4781469e-05 -2.4867328e-05 0.11843282)
(-4.8621229e-05 -2.1042769e-05 0.11607845)
(-4.2600658e-05 -1.790526e-05 0.11349264)
(-3.7082934e-05 -1.5387681e-05 0.11067685)
(-3.2002924e-05 -1.3299138e-05 0.10762818)
(-2.7426629e-05 -1.150533e-05 0.1043384)
(-2.3367205e-05 -1.0017588e-05 0.10079325)
(-2.0234967e-05 -8.7970507e-06 0.096971575)
(-1.8418908e-05 -7.7191403e-06 0.092845166)
(-1.7053915e-05 -6.7872044e-06 0.088378544)
(-1.7168744e-05 -5.8832899e-06 0.083530228)
(-1.7823683e-05 -5.0436669e-06 0.078253648)
(-1.9803028e-05 -4.2725827e-06 0.07250061)
(-2.2533049e-05 -3.4557696e-06 0.066224673)
(-2.6789207e-05 -2.7141714e-06 0.059385644)
(-3.2297693e-05 -2.0206504e-06 0.051953227)
(-3.8947063e-05 -1.3190079e-06 0.043908869)
(-4.5138969e-05 -5.8201009e-07 0.035244753)
(-5.0335919e-05 3.3919796e-07 0.025957057)
(-4.8371344e-05 1.4932593e-06 0.016031491)
(-2.9073212e-05 1.4273424e-06 0.0054265928)
(0.00012989194 1.9904725e-05 0.023409283)
(0.00019354474 3.1244189e-05 0.0556101)
(0.00023797979 -4.4333923e-06 0.078687879)
(0.0002685014 -4.5792773e-05 0.094893031)
(0.00028028912 -8.1790823e-05 0.10608497)
(0.0002726011 -0.0001075231 0.11372044)
(0.00025020786 -0.00012230811 0.11888609)
(0.00021974898 -0.00012750154 0.12235399)
(0.00018796574 -0.00012528011 0.12464773)
(0.00015944353 -0.00011793026 0.12610718)
(0.00013661417 -0.00010749702 0.12694463)
(0.00011994642 -9.5451882e-05 0.12728914)
(0.00010775989 -8.2983536e-05 0.12721885)
(9.8431681e-05 -7.1036423e-05 0.12678263)
(9.0516259e-05 -6.0077393e-05 0.12601348)
(8.2582123e-05 -5.0407603e-05 0.12493602)
(7.4201214e-05 -4.2164162e-05 0.12357026)
(6.5242248e-05 -3.5254261e-05 0.12193311)
(5.5939108e-05 -2.9519104e-05 0.12003883)
(4.6368159e-05 -2.484169e-05 0.11789898)
(3.7299305e-05 -2.1032178e-05 0.11552221)
(2.8876314e-05 -1.7908136e-05 0.11291378)
(2.1490929e-05 -1.5401682e-05 0.1100752)
(1.5124063e-05 -1.3321905e-05 0.10700373)
(9.8613748e-06 -1.1535108e-05 0.10369155)
(5.706639e-06 -1.0053494e-05 0.10012506)
(3.0547214e-06 -8.8396263e-06 0.096283972)
(2.2465592e-06 -7.7693354e-06 0.092141278)
(2.3509169e-06 -6.8452314e-06 0.087663089)
(4.271825e-06 -5.95272e-06 0.082809735)
(6.9619817e-06 -5.1296664e-06 0.077536914)
(1.0951214e-05 -4.3752534e-06 0.071798653)
(1.5693667e-05 -3.5733869e-06 0.065550962)
(2.149086e-05 -2.8555574e-06 0.058755253)
(2.8161286e-05 -2.1768235e-06 0.051381905)
(3.5433118e-05 -1.4715949e-06 0.043412931)
(4.1804981e-05 -7.2097903e-07 0.034839994)
(4.696274e-05 2.2187115e-07 0.025657149)
(4.5308815e-05 1.3969754e-06 0.015846946)
(2.7417439e-05 1.3613644e-06 0.0053649897)
(0.00022451707 4.3001497e-05 0.023533365)
(0.00040314682 6.98936e-05 0.055924627)
(0.00060536404 3.073537e-05 0.079124253)
(0.00076649424 -1.1800654e-05 0.095421389)
(0.00086230928 -5.3110172e-05 0.10670104)
(0.00088365246 -8.8097212e-05 0.11444189)
(0.00083828354 -0.00011380814 0.1197427)
(0.00074129218 -0.00012972765 0.12337729)
(0.00061432723 -0.0001365248 0.12586333)
(0.00047723165 -0.00013561305 0.12753117)
(0.00034714487 -0.00012920096 0.1285833)
(0.00023691866 -0.00011857337 0.12914082)
(0.00014928156 -0.00010536972 0.12927608)
(8.515658e-05 -9.1530725e-05 0.12903457)
(4.3387481e-05 -7.7770955e-05 0.12844799)
(1.7290377e-05 -6.5032713e-05 0.12754074)
(4.2217528e-06 -5.3839412e-05 0.12633341)
(-7.5434441e-08 -4.4395746e-05 0.12484375)
(1.4245392e-06 -3.640563e-05 0.12308712)
(5.2982632e-06 -2.9976945e-05 0.12107542)
(1.1419438e-05 -2.4888115e-05 0.11881818)
(1.7365163e-05 -2.0751468e-05 0.11632121)
(2.1962407e-05 -1.7598473e-05 0.11358577)
(2.8129698e-05 -1.5032932e-05 0.11060921)
(3.1456498e-05 -1.2940424e-05 0.10738378)
(3.285852e-05 -1.1139275e-05 0.10389449)
(3.0996194e-05 -9.9942028e-06 0.10011865)
(2.8455455e-05 -8.8279765e-06 0.096026917)
(2.1805962e-05 -8.0303012e-06 0.091579349)
(1.6145876e-05 -7.2598839e-06 0.086731484)
(4.5248132e-06 -6.5549016e-06 0.081428343)
(-4.2960273e-06 -6.0281179e-06 0.075612913)
(-1.5876358e-05 -5.4869078e-06 0.06923181)
(-2.9188892e-05 -5.0257868e-06 0.062235117)
(-4.0464729e-05 -4.7351003e-06 0.054578714)
(-5.0640924e-05 -4.4379947e-06 0.046231137)
(-5.7480573e-05 -4.5234223e-06 0.03717418)
(-6.0136267e-05 -5.2073488e-06 0.027398115)
(-5.3679572e-05 -6.6486365e-06 0.016906896)
(-3.2435454e-05 -5.4111704e-06 0.005704904)
(0.00015943397 5.1926305e-05 0.023651306)
(0.00037042619 9.3737554e-05 0.056239021)
(0.00068298308 7.8148955e-05 0.079611049)
(0.00098308156 5.4856818e-05 0.096070459)
(0.0012327873 2.4670448e-05 0.10752671)
(0.0014000504 -8.9142555e-06 0.11548573)
(0.0014807106 -4.0308274e-05 0.12106506)
(0.0014702337 -6.8670667e-05 0.12504566)
(0.0013913294 -9.178411e-05 0.12794065)
(0.0012584975 -0.00010892781 0.1300674)
(0.0010882409 -0.00012314741 0.13161084)
(0.00092040071 -0.00013014022 0.13267299)