/*--------------------------------*- C++ -*----------------------------------*\
| =========                 |                                                 |
| \\      /  F ield         | OpenFOAM: The Open Source CFD Toolbox           |
|  \\    /   O peration     | Version:  4.0                                   |
|   \\  /    A nd           | Web:      www.OpenFOAM.org                      |
|    \\/     M anipulation  |                                                 |
\*---------------------------------------------------------------------------*/
FoamFile
{
    version     2.0;
    format      ascii;
    class       surfaceScalarField;
    location    "586";
    object      phi;
}
// * * * * * * * * * * * * * * * * * * * * * * * * * * * * * * * * * * * * * //

dimensions      [1 0 -1 0 0 0 0];

internalField   nonuniform List<scalar> 
9850
(
1.9532795e-11
1.5699881e-10
8.0395277e-11
5.2158102e-10
1.8805032e-10
9.8545206e-10
3.4732771e-10
1.56637e-09
5.6166068e-10
2.2836692e-09
8.3244229e-10
3.1577507e-09
1.1583552e-09
4.2094962e-09
1.5347701e-09
5.4595308e-09
1.9532691e-09
6.9273951e-09
2.4014226e-09
8.630745e-09
2.8628846e-09
1.0584745e-08
3.3178706e-09
1.2801877e-08
3.7440205e-09
1.5292423e-08
4.1175827e-09
1.8065862e-08
4.4148263e-09
2.1133432e-08
4.6134793e-09
2.4511987e-08
4.6941131e-09
2.8229226e-08
4.6411987e-09
3.2330213e-08
4.4438139e-09
3.6885012e-08
4.0958914e-09
4.1997089e-08
3.5959927e-09
4.7812039e-08
2.9465816e-09
5.4526077e-08
2.1527279e-09
6.239375e-08
1.2202141e-09
7.1734353e-08
1.5306761e-10
8.2936609e-08
-1.0481549e-09
9.6461356e-08
-2.3840524e-09
1.1285589e-07
-3.8697335e-09
1.3275134e-07
-5.5289207e-09
1.5687268e-07
-7.3917355e-09
1.8606224e-07
-9.4905697e-09
2.213097e-07
-1.185387e-08
2.6379162e-07
-1.4500706e-08
3.1492077e-07
-1.7436887e-08
3.7640456e-07
-2.0655205e-08
4.5031234e-07
-2.4140359e-08
5.3915258e-07
-2.7878674e-08
6.4596179e-07
-3.1871706e-08
7.7440838e-07
-3.6154318e-08
9.2891484e-07
-4.0814997e-08
1.1148017e-06
-4.60205e-08
1.338457e-06
-5.2045525e-08
1.6075332e-06
-5.9319033e-08
1.931181e-06
-6.8475208e-08
2.3202787e-06
-8.0557563e-08
2.7878772e-06
-9.6895175e-08
3.3487869e-06
-1.2094419e-07
4.0228737e-06
-1.5328608e-07
4.821549e-06
-1.9670543e-07
5.7667661e-06
6.2697776e-06
-2.1472638e-11
1.7847208e-10
-9.6319665e-11
5.9642774e-10
-2.4419319e-10
1.1333252e-09
-4.907838e-10
1.8129601e-09
-8.689811e-10
2.6618668e-09
-1.4201523e-09
3.7089218e-09
-2.195168e-09
4.9845121e-09
-3.2548506e-09
6.5192119e-09
-4.6693596e-09
8.341904e-09
-6.5159884e-09
1.0477375e-08
-8.8748028e-09
1.294356e-08
-1.1821773e-08
1.5748849e-08
-1.5419471e-08
1.8890121e-08
-1.9706066e-08
2.2352454e-08
-2.4684167e-08
2.611153e-08
-3.0311767e-08
3.0139585e-08
-3.649772e-08
3.4415175e-08
-4.3103619e-08
3.8936116e-08
-4.9952658e-08
4.3734058e-08
-5.6844161e-08
4.8888598e-08
-6.3571096e-08
5.4538981e-08
-6.9937255e-08
6.0892238e-08
-7.5771212e-08
6.8227712e-08
-8.0935724e-08
7.6898872e-08
-8.5333205e-08
8.7334101e-08
-8.8910248e-08
1.0003846e-07
-9.1648147e-08
1.1559383e-07
-9.3563136e-08
1.3466634e-07
-9.4707253e-08
1.5801684e-07
-9.5164686e-08
1.8651972e-07
-9.5046129e-08
2.2119118e-07
-9.448314e-08
2.632287e-07
-9.3624068e-08
3.1406174e-07
-9.2632212e-08
3.7541276e-07
-9.1687266e-08
4.4936747e-07
-9.098876e-08
5.3845409e-07
-9.0760155e-08
6.4573322e-07
-9.12536e-08
7.7490179e-07
-9.2754929e-08
9.304161e-07
-9.5592821e-08
1.1176395e-06
-1.0015584e-07
1.3430198e-06
-1.069215e-07
1.6142987e-06
-1.1651188e-07
1.9407711e-06
-1.2973099e-07
2.3334975e-06
-1.4782903e-07
2.8059751e-06
-1.7193062e-07
3.3728873e-06
-2.0495647e-07
4.0559006e-06
-2.4281575e-07
4.8594037e-06
-2.4686563e-07
5.7708225e-06
6.0229067e-06
-2.3793954e-11
2.0226708e-10
-1.0480162e-10
6.7743587e-10
-2.6124555e-10
1.2897697e-09
-5.1581307e-10
2.0675275e-09
-8.9649085e-10
3.0425448e-09
-1.4374687e-09
4.2499001e-09
-2.1800213e-09
5.7270662e-09
-3.1732505e-09
7.5124429e-09
-4.4744766e-09
9.6431303e-09
-6.1489674e-09
1.2151867e-08
-8.2686016e-09
1.5063196e-08
-1.0908916e-08
1.8389166e-08
-1.4144028e-08
2.2125235e-08
-1.803903e-08
2.6247459e-08
-2.2639931e-08
3.0712435e-08
-2.7961917e-08
3.5461574e-08
-3.3977671e-08
4.0430935e-08
-4.0608374e-08
4.5566819e-08
-4.7720177e-08
5.0845863e-08
-5.5128439e-08
5.6296865e-08
-6.2610202e-08
6.2020744e-08
-6.9923413e-08
6.8205446e-08
-7.682979e-08
7.5134092e-08
-8.3117646e-08
8.3186731e-08
-8.8621211e-08
9.2837652e-08
-9.32335e-08
1.0465073e-07
-9.6915464e-08
1.1927579e-07
-9.969706e-08
1.3744793e-07
-1.016747e-07
1.5999447e-07
-1.0300175e-07
1.8784679e-07
-1.0387391e-07
2.2206336e-07
-1.0451035e-07
2.6386519e-07
-1.0513401e-07
3.1468549e-07
-1.0595496e-07
3.7623376e-07
-1.0716096e-07
4.5057357e-07
-1.089189e-07
5.4021221e-07
-1.1138713e-07
6.4820165e-07
-1.1473728e-07
7.7825213e-07
-1.1918301e-07
9.348621e-07
-1.2501347e-07
1.1234702e-06
-1.3262973e-07
1.3506363e-06
-1.4258513e-07
1.6242543e-06
-1.5565176e-07
1.9538381e-06
-1.7282935e-07
2.3506751e-06
-1.9573378e-07
2.8288806e-06
-2.2579153e-07
3.4029439e-06
-2.6567505e-07
4.0957876e-06
-3.1028486e-07
4.9040091e-06
-3.037273e-07
5.7642727e-06
5.7191714e-06
-2.0667266e-11
2.229343e-10
-9.1270808e-11
7.4803941e-10
-2.2797237e-10
1.4264716e-09
-4.5096817e-10
2.2905236e-09
-7.8536609e-10
3.3769426e-09
-1.2621275e-09
4.7266621e-09
-1.9190732e-09
6.3840112e-09
-2.8018555e-09
8.3952253e-09
-3.9647835e-09
1.0806058e-08
-5.4712483e-09
1.3658333e-08
-7.3934317e-09
1.6985381e-08
-9.8108332e-09
2.0806568e-08
-1.2807057e-08
2.5121461e-08
-1.6464331e-08
2.9904737e-08
-2.0855359e-08
3.5103467e-08
-2.6032639e-08
4.0638855e-08
-3.2016126e-08
4.6414427e-08
-3.8781173e-08
5.2331869e-08
-4.6249379e-08
5.8314069e-08
-5.4285256e-08
6.433274e-08
-6.2700774e-08
7.0436259e-08
-7.1268101e-08
7.6772771e-08
-7.9738846e-08
8.3604835e-08
-8.786649e-08
9.1314365e-08
-9.5428247e-08
1.0039941e-07
-1.0224361e-07
1.1146611e-07
-1.0818762e-07
1.252198e-07
-1.1319896e-07
1.4245927e-07
-1.1728154e-07
1.6407703e-07
-1.2050234e-07
1.9106754e-07
-1.2298523e-07
2.245462e-07
-1.2490175e-07
2.6578164e-07
-1.264596e-07
3.1624331e-07
-1.2789157e-07
3.776657e-07
-1.2944666e-07
4.521286e-07
-1.3138611e-07
5.4215161e-07
-1.3398562e-07
6.5080111e-07
-1.3754344e-07
7.8180995e-07
-1.4239435e-07
9.3971299e-07
-1.4892929e-07
1.1300052e-06
-1.57624e-07
1.3593311e-06
-1.6907487e-07
1.6357052e-06
-1.8407648e-07
1.9688399e-06
-2.0360123e-07
2.3701994e-06
-2.2917417e-07
2.8544548e-06
-2.621037e-07
3.4358711e-06
-3.0260735e-07
4.1362948e-06
-3.4153393e-07
4.9429306e-06
-3.0887516e-07
5.7316194e-06
5.4102921e-06
-1.6305945e-11
2.3924052e-10
-7.2185354e-11
8.0391894e-10
-1.8076825e-10
1.5350548e-09
-3.5867396e-10
2.4684293e-09
-6.2682016e-10
3.6450886e-09
-1.0113683e-09
5.11121e-09
-1.5447927e-09
6.9174348e-09
-2.2670282e-09
9.11746e-09
-3.2266098e-09
1.176564e-08
-4.481636e-09
1.4913358e-08
-6.1002776e-09
1.8604023e-08
-8.1604388e-09
2.2866728e-08
-1.0748008e-08
2.7709027e-08
-1.3953068e-08
3.3109796e-08
-1.7863468e-08
3.9013869e-08
-2.2555411e-08
4.53308e-08
-2.808137e-08
5.1940386e-08
-3.4456593e-08
5.8707097e-08
-4.1646566e-08
6.5504045e-08
-4.9558426e-08
7.2244605e-08
-5.8039371e-08
7.8917203e-08
-6.6883731e-08
8.5617126e-08
-7.584854e-08
9.2569633e-08
-8.4675263e-08
1.001411e-07
-9.3114263e-08
1.0883842e-07
-1.0094817e-07
1.1930002e-07
-1.0801154e-07
1.3228318e-07
-1.1420495e-07
1.4865268e-07
-1.1950236e-07
1.6937446e-07
-1.2395231e-07
1.9551748e-07
-1.2767244e-07
2.282663e-07
-1.3083828e-07
2.6894744e-07
-1.3366758e-07
3.1907263e-07
-1.3640332e-07
3.8040143e-07
-1.3929854e-07
4.5502387e-07
-1.4260868e-07
5.4546178e-07
-1.4659315e-07
6.5478563e-07
-1.5152796e-07
7.8674476e-07
-1.5772649e-07
9.459116e-07
-1.6556647e-07
1.1378453e-06
-1.7552058e-07
1.3692854e-06
-1.8818365e-07
1.6483682e-06
-2.0433795e-07
1.9849945e-06
-2.2489786e-07
2.3907585e-06
-2.5107509e-07
2.8806336e-06
-2.8388686e-07
3.4686801e-06
-3.2088153e-07
4.1732928e-06
-3.4962575e-07
4.9716702e-06
-2.9858315e-07
5.6805804e-06
5.1117065e-06
-1.4322269e-11
2.5356182e-10
-6.3432672e-11
8.5302894e-10
-1.5890875e-10
1.63053e-09
-3.1541566e-10
2.6249357e-09
-5.5145017e-10
3.8811226e-09
-8.9021081e-10
5.4499702e-09
-1.3606083e-09
7.387832e-09
-1.9983934e-09
9.7552446e-09
-2.8473453e-09
1.2614592e-08
-3.9604113e-09
1.6026425e-08
-5.4005887e-09
2.0044201e-08
-7.2412307e-09
2.4707371e-08
-9.5653021e-09
3.0033101e-08
-1.2462984e-08
3.6007478e-08
-1.6026932e-08
4.2577817e-08
-2.0344659e-08
4.9648529e-08
-2.5487879e-08
5.7083608e-08
-3.1499488e-08
6.4718702e-08
-3.837988e-08
7.2384436e-08
-4.6075439e-08
7.994016e-08
-5.447228e-08
8.7314039e-08
-6.3397927e-08
9.4542769e-08
-7.2631854e-08
1.0180355e-07
-8.1923702e-08
1.0943294e-07
-9.1016294e-08
1.17931e-07
-9.9669726e-08
1.2795345e-07
-1.076834e-07
1.4029687e-07
-1.1491369e-07
1.5588296e-07
-1.2128601e-07
1.7574676e-07
-1.2680109e-07
2.0103252e-07
-1.3153516e-07
2.3300034e-07
-1.3563438e-07
2.7304661e-07
-1.3930355e-07
3.2274177e-07
-1.4279108e-07
3.8388894e-07
-1.463727e-07
4.5860547e-07
-1.5033803e-07
5.4942708e-07
-1.5498408e-07
6.5943172e-07
-1.6061857e-07
7.9237935e-07
-1.6757312e-07
9.5286632e-07
-1.7622522e-07
1.1464975e-06
-1.8702747e-07
1.3800879e-06
-2.0053328e-07
1.6618739e-06
-2.1745531e-07
2.0019173e-06
-2.3863562e-07
2.4119378e-06
-2.6493658e-07
2.9069366e-06
-2.9708528e-07
3.5008261e-06
-3.3067354e-07
4.2068842e-06
-3.5015131e-07
4.9911445e-06
-2.8638678e-07
5.6168186e-06
4.8253175e-06
-1.2603614e-11
2.6616629e-10
-5.5865862e-11
8.9629127e-10
-1.4005472e-10
1.7147192e-09
-2.7822072e-10
2.7631023e-09
-4.8687694e-10
4.089779e-09
-7.8681216e-10
5.7499058e-09
-1.2040507e-09
7.8050715e-09
-1.7709498e-09
1.0322144e-08
-2.5273925e-09
1.3371035e-08
-3.5220102e-09
1.7021042e-08
-4.813259e-09
2.1335451e-08
-6.4701127e-09
2.6364225e-08
-8.5719433e-09
3.2134933e-08
-1.1207057e-08
3.8642595e-08
-1.4469219e-08
4.5839983e-08
-1.845149e-08
5.3630801e-08
-2.3236986e-08
6.1869111e-08
-2.8886822e-08
7.0368541e-08
-3.5426361e-08
7.8923978e-08
-4.2832189e-08
8.734599e-08
-5.1022852e-08
9.5504697e-08
-5.9856394e-08
1.033763e-07
-6.9136541e-08
1.1108369e-07
-7.8627384e-08
1.1892377e-07
-8.807434e-08
1.2737794e-07
-9.7228082e-08
1.3710716e-07
-1.0586788e-07
1.4893664e-07
-1.1382183e-07
1.6383689e-07
-1.2098229e-07
1.8290716e-07
-1.2731554e-07
2.0736574e-07
-1.3286588e-07
2.3855063e-07
-1.3775303e-07
2.7793372e-07
-1.4216367e-07
3.2715238e-07
-1.4633755e-07
3.8806283e-07
-1.5055098e-07
4.6281888e-07
-1.5510116e-07
5.5397724e-07
-1.6029655e-07
6.6462711e-07
-1.6645656e-07
7.9853934e-07
-1.7392148e-07
9.6033134e-07
-1.8307198e-07
1.155648e-06
-1.9435538e-07
1.3913716e-06
-2.0830774e-07
1.6758261e-06
-2.2558704e-07
2.0191974e-06
-2.4698361e-07
2.4333334e-06
-2.7303351e-07
2.9329884e-06
-3.0398871e-07
3.531779e-06
-3.3405377e-07
4.2369519e-06
-3.4486069e-07
5.0019488e-06
-2.7174949e-07
5.5437098e-06
4.5535659e-06
-1.1415002e-11
2.7758301e-10
-5.0614903e-11
9.3549226e-10
-1.2692775e-10
1.7910329e-09
-2.5222131e-10
2.8883961e-09
-4.4153046e-10
4.2790889e-09
-7.1381951e-10
6.0221953e-09
-1.0928804e-09
8.1841334e-09
-1.6083811e-09
1.0837646e-08
-2.2970369e-09
1.405969e-08
-3.2038371e-09
1.7927843e-08
-4.3832344e-09
2.2514846e-08
-5.9000449e-09
2.7881033e-08
-7.8297535e-09
3.4064641e-08
-1.0257726e-08
4.1070566e-08
-1.3276667e-08
4.8858925e-08
-1.6981693e-08
5.7335829e-08
-2.1462422e-08
6.6349839e-08
-2.6792022e-08
7.569814e-08
-3.3013994e-08
8.5145951e-08
-4.0128563e-08
9.4460556e-08
-4.8081485e-08
1.0345762e-07
-5.6758507e-08
1.1205332e-07
-6.5987812e-08
1.2031299e-07
-7.555118e-08
1.2848711e-07
-8.5202367e-08
1.3702911e-07
-9.4689904e-08
1.4659468e-07
-1.0378067e-07
1.5802734e-07
-1.122813e-07
1.7233746e-07
-1.2005586e-07
1.9068168e-07
-1.2703858e-07
2.1434838e-07
-1.3324099e-07
2.4475295e-07
-1.3875345e-07
2.8344612e-07
-1.4374038e-07
3.3213926e-07
-1.4842919e-07
3.927516e-07
-1.5309453e-07
4.6748423e-07
-1.5804121e-07
5.5892392e-07
-1.6359006e-07
6.7017594e-07
-1.7007209e-07
8.0502135e-07
-1.7783338e-07
9.6809273e-07
-1.8725071e-07
1.1650654e-06
-1.987557e-07
1.4028769e-06
-2.128575e-07
1.6899276e-06
-2.3014644e-07
2.0364872e-06
-2.5133643e-07
2.4545223e-06
-2.7668051e-07
2.9583342e-06
-3.0580422e-07
3.5609007e-06
-3.3200495e-07
4.2631547e-06
-3.3495744e-07
5.004899e-06
-2.5530555e-07
5.4640602e-06
4.2982586e-06
-1.044744e-11
2.8803105e-10
-4.6336179e-11
9.7138099e-10
-1.162285e-10
1.8609254e-09
-2.3103148e-10
3.0031989e-09
-4.0458115e-10
4.4526385e-09
-6.5435657e-10
6.2719702e-09
-1.0023301e-09
8.5321062e-09
-1.4759671e-09
1.1311282e-08
-2.1093581e-09
1.4693082e-08
-2.9444516e-09
1.8762935e-08
-4.0322683e-09
2.3602664e-08
-5.4339622e-09
2.9282727e-08
-7.2213879e-09
3.5852067e-08
-9.4767864e-09
4.3325965e-08
-1.229097e-08
5.1673112e-08
-1.5759359e-08
6.0804217e-08
-1.9975191e-08
7.0565672e-08
-2.5019699e-08
8.074265e-08
-3.0949624e-08
9.1075872e-08
-3.7783522e-08
1.0129445e-07
-4.548947e-08
1.1116356e-07
-5.3977228e-08
1.2054106e-07
-6.3097635e-08
1.2943338e-07
-7.2650619e-08
1.3804008e-07
-8.2401e-08
1.4677948e-07
-9.2099753e-08
1.562934e-07
-1.0150716e-07
1.6743471e-07
-1.1041499e-07
1.8124526e-07
-1.186655e-07
1.9893215e-07
-1.2616607e-07
2.2184886e-07
-1.3289886e-07
2.5148564e-07
-1.3892536e-07
2.8947251e-07
-1.4438481e-07
3.375986e-07
-1.4948632e-07
3.9785304e-07
-1.544953e-07
4.7249317e-07
-1.5971635e-07
5.6414493e-07
-1.65477e-07
6.7593655e-07
-1.7211742e-07
8.1166181e-07
-1.7999036e-07
9.7596578e-07
-1.8947152e-07
1.1745465e-06
-2.0097854e-07
1.4143841e-06
-2.1499445e-07
1.7039433e-06
-2.3204294e-07
2.0535366e-06
-2.5273415e-07
2.4752126e-06
-2.770905e-07
2.9826921e-06
-3.0406639e-07
3.5878749e-06
-3.2634023e-07
4.2854303e-06
-3.2250429e-07
5.001061e-06
-2.3841922e-07
5.3799773e-06
4.0598375e-06
-9.6698772e-12
2.977007e-10
-4.2893635e-11
1.0046049e-09
-1.0761333e-10
1.9256453e-09
-2.1395102e-10
3.1095373e-09
-3.747616e-10
4.6134493e-09
-6.0630048e-10
6.5035092e-09
-9.290332e-10
8.8548381e-09
-1.3685855e-09
1.1750834e-08
-1.9568425e-09
1.5281338e-08
-2.7331535e-09
1.9539245e-08
-3.7455729e-09
2.4615083e-08
-5.0519982e-09
3.058915e-08
-6.7209312e-09
3.7520998e-08
-8.8315098e-09
4.5436543e-08
-1.1472252e-08
5.4313853e-08
-1.4737847e-08
6.4069816e-08
-1.8723376e-08
7.45512e-08
-2.3515456e-08
8.5534732e-08
-2.918059e-08
9.6741006e-08
-3.5751727e-08
1.0786559e-07
-4.3215334e-08
1.1862716e-07
-5.1501893e-08
1.2882761e-07
-6.0482858e-08
1.3841433e-07
-6.9975824e-08
1.4753303e-07
-7.9757886e-08
1.5656152e-07
-8.9585105e-08
1.6612061e-07
-9.9215067e-08
1.7706464e-07
-1.0842912e-07
1.9045928e-07
-1.170523e-07
2.0755529e-07
-1.2496929e-07
2.2976581e-07
-1.321361e-07
2.5865238e-07
-1.3858675e-07
2.9592309e-07
-1.4443477e-07
3.4344652e-07
-1.4986824e-07
4.0328641e-07
-1.5513874e-07
4.7776358e-07
-1.6054531e-07
5.6955141e-07
-1.6641702e-07
6.8180821e-07
-1.7309946e-07
8.1834425e-07
-1.809499e-07
9.8381626e-07
-1.9034289e-07
1.1839395e-06
-2.0168366e-07
1.4257252e-06
-2.1543053e-07
1.7176898e-06
-2.3204876e-07
2.0701557e-06
-2.5202653e-07
2.4951895e-06
-2.7519062e-07
3.0058574e-06
-2.9986312e-07
3.6125461e-06
-3.1825187e-07
4.3038207e-06
-3.0859425e-07
4.9914015e-06
-2.2169607e-07
5.2930815e-06
3.8381396e-06
-9.0184039e-12
3.0671982e-10
-4.0013746e-11
1.0356008e-09
-1.0040672e-10
1.9860382e-09
-1.9966129e-10
3.2087918e-09
-3.498055e-10
4.7635927e-09
-5.6606275e-10
6.7197662e-09
-8.6762372e-10
9.1563982e-09
-1.2785535e-09
1.2161763e-08
-1.828851e-09
1.5831635e-08
-2.5556291e-09
2.0266023e-08
-3.5043567e-09
2.5563812e-08
-4.7300461e-09
3.1814839e-08
-6.2981507e-09
3.9089104e-08
-8.2848576e-09
4.7423254e-08
-1.0776258e-08
5.6805259e-08
-1.3865777e-08
6.7159336e-08
-1.7649177e-08
7.8334603e-08
-2.2216667e-08
9.0102223e-08
-2.7642015e-08
1.0216636e-07
-3.3969572e-08
1.1419315e-07
-4.1201009e-08
1.258586e-07
-4.9284688e-08
1.3691128e-07
-5.8110578e-08
1.472402e-07
-6.7513001e-08
1.5693543e-07
-7.728166e-08
1.6633016e-07
-8.7179337e-08
1.7601826e-07
-9.696348e-08
1.8684875e-07
-1.064084e-07
1.9990416e-07
-1.1532565e-07
2.1647247e-07
-1.2358093e-07
2.3802102e-07
-1.3110711e-07
2.6617849e-07
-1.3791285e-07
3.0272874e-07
-1.4408623e-07
3.4961984e-07
-1.4979282e-07
4.0899292e-07
-1.5526711e-07
4.8323774e-07
-1.6079813e-07
5.7508233e-07
-1.6671208e-07
6.8772214e-07
-1.7335653e-07
8.2498863e-07
-1.8109094e-07
9.9155068e-07
-1.9028802e-07
1.1931365e-06
-2.0134049e-07
1.4367779e-06
-2.1467961e-07
1.7310287e-06
-2.3071668e-07
2.0861936e-06
-2.4980689e-07
2.514279e-06
-2.7159347e-07
3.0276453e-06
-2.938557e-07
3.6348072e-06
-3.084383e-07
4.318405e-06
-2.9378051e-07
4.9767418e-06
-2.0538359e-07
5.2046872e-06
3.6327543e-06
-8.4671239e-12
3.1518771e-10
-3.7573579e-11
1.0647076e-09
-9.4296069e-11
2.0427608e-09
-1.8753794e-10
3.3020334e-09
-3.2862006e-10
4.9046749e-09
-5.3188597e-10
6.9230311e-09
-8.1542907e-10
9.4399403e-09
-1.20197e-09
1.2548303e-08
-1.7198766e-09
1.6349539e-08
-2.4043093e-09
2.0950455e-08
-3.2984674e-09
2.6457968e-08
-4.45479e-09
3.2971162e-08
-5.9359658e-09
4.0570282e-08
-7.8154111e-09
4.9302704e-08
-1.0176788e-08
5.9166637e-08
-1.3111931e-08
7.0094482e-08
-1.6716574e-08
8.193925e-08
-2.1083245e-08
9.4468895e-08
-2.6291171e-08
1.0737429e-07
-3.2393798e-08
1.2029577e-07
-3.9405485e-08
1.3287028e-07
-4.7290019e-08
1.4479581e-07
-5.5953964e-08
1.5590414e-07
-6.5247282e-08
1.6622873e-07
-7.4972162e-08
1.7605501e-07
-8.4898988e-08
1.8594505e-07
-9.4786852e-08
1.9673658e-07
-1.0440552e-07
2.0952276e-07
-1.1355587e-07
2.2562277e-07
-1.2208772e-07
2.465528e-07
-1.2991367e-07
2.7400434e-07
-1.370191e-07
3.0983405e-07
-1.4346778e-07
3.5606838e-07
-1.4940211e-07
4.1492715e-07
-1.5503737e-07
4.888729e-07
-1.6064929e-07
5.8069423e-07
-1.6655754e-07
6.9363034e-07
-1.7310795e-07
8.31539e-07
-1.8066005e-07
9.9910281e-07
-1.8958352e-07
1.2020598e-06
-2.0025863e-07
1.4474532e-06
-2.1308743e-07
1.7438571e-06
-2.284289e-07
2.1015358e-06
-2.4650414e-07
2.5323536e-06
-2.6677422e-07
3.0479166e-06
-2.8657874e-07
3.6546107e-06
-2.9750088e-07
4.3293287e-06
-2.7855759e-07
4.9577968e-06
-1.8968751e-07
5.11582e-06
3.4430652e-06
-7.99238e-12
3.2318084e-10
-3.5470836e-11
1.0921869e-09
-8.9029876e-11
2.0963198e-09
-1.770872e-10
3.3900902e-09
-3.1035277e-10
5.0379394e-09
-5.0240183e-10
7.1150799e-09
-7.7037786e-10
9.7079158e-09
-1.1358271e-09
1.2913752e-08
-1.6256875e-09
1.68394e-08
-2.2734084e-09
2.1598176e-08
-3.120171e-09
2.7304731e-08
-4.2161173e-09
3.4067109e-08
-5.62142e-09
4.1975586e-08
-7.4069158e-09
5.1088202e-08
-9.6538906e-09
6.1413613e-08
-1.2452445e-08
7.2893039e-08
-1.5897801e-08
8.5384604e-08
-2.0083912e-08
9.8655003e-08
-2.5094117e-08
1.1238449e-07
-3.0989177e-08
1.2619083e-07
-3.7794099e-08
1.396752e-07
-4.5486065e-08
1.5248777e-07
-5.3986503e-08
1.6440456e-07
-6.3159846e-08
1.7540207e-07
-7.2820438e-08
1.8571558e-07
-8.2746738e-08
1.9587133e-07
-9.2700767e-08
2.0669056e-07
-1.0244947e-07
2.1927141e-07
-1.1178548e-07
2.3495871e-07
-1.2054515e-07
2.5531237e-07
-1.2862326e-07
2.8208233e-07
-1.3598409e-07
3.1719473e-07
-1.4266833e-07
3.6275249e-07
-1.4879554e-07
4.2105427e-07
-1.5456061e-07
4.9463787e-07
-1.6022356e-07
5.8635714e-07
-1.6609415e-07
6.9950087e-07
-1.7251358e-07
8.3795838e-07
-1.7983903e-07
1.0064283e-06
-1.8843577e-07
1.2106565e-06
-1.9867159e-07
1.4576892e-06
-2.10918e-07
1.7561033e-06
-2.2548197e-07
2.1161005e-06
-2.424567e-07
2.5493278e-06
-2.611222e-07
3.0665832e-06
-2.7847356e-07
3.6719612e-06
-2.8593179e-07
4.3367886e-06
-2.6332534e-07
4.9351886e-06
-1.7475584e-07
5.0272537e-06
3.2683077e-06
-7.5804465e-12
3.307602e-10
-3.364144e-11
1.1182472e-09
-8.44418e-11
2.1471197e-09
-1.6797495e-10
3.4736231e-09
-2.9441461e-10
5.1643798e-09
-4.7666608e-10
7.2973326e-09
-7.3103579e-10
9.9622863e-09
-1.0780358e-09
1.3260754e-08
-1.5433409e-09
1.7304706e-08
-2.1588781e-09
2.2213715e-08
-2.9640312e-09
2.8109886e-08
-4.0068729e-09
3.5109951e-08
-5.3452809e-09
4.3313996e-08
-7.0476993e-09
5.2790621e-08
-9.1931303e-09
6.3559046e-08
-1.186987e-08
7.5569781e-08
-1.5172311e-08
8.8687046e-08
-1.9195199e-08
1.0267789e-07
-2.4024962e-08
1.1721424e-07
-2.9728295e-08
1.3189416e-07
-3.6339198e-08
1.4628609e-07
-4.3846521e-08
1.5999509e-07
-5.2185022e-08
1.7274304e-07
-6.1232553e-08
1.8444957e-07
-7.0815111e-08
1.9529811e-07
-8.071945e-08
2.0577563e-07
-9.0711324e-08
2.1668239e-07
-1.0055637e-07
2.291164e-07
-1.100407e-07
2.4444296e-07
-1.1898934e-07
2.6426092e-07
-1.272814e-07
2.9037433e-07
-1.3486207e-07
3.2477527e-07
-1.4175054e-07
3.6964082e-07
-1.4804415e-07
4.273477e-07
-1.5391674e-07
5.0051035e-07
-1.5961107e-07
5.9205138e-07
-1.654245e-07
7.0531421e-07
-1.7169083e-07
8.442247e-07
-1.7876277e-07
1.0135003e-06
-1.8699961e-07
1.2188933e-06
-1.967562e-07
1.467446e-06
-2.0837323e-07
1.7677202e-06
-2.2210435e-07
2.1298323e-06
-2.3792408e-07
2.5651472e-06
-2.5493719e-07
3.0835975e-06
-2.6987427e-07
3.6868974e-06
-2.7408968e-07
4.3410057e-06
-2.4836085e-07
4.909458e-06
-1.6067506e-07
4.9395713e-06
3.1076311e-06
-7.2152626e-12
3.3797512e-10
-3.2025959e-11
1.1430573e-09
-8.0394501e-11
2.1954879e-09
-1.5993958e-10
3.5531678e-09
-2.8036172e-10
5.2848017e-09
-4.5397133e-10
7.4709416e-09
-6.9633057e-10
1.0204646e-08
-1.0270353e-09
1.3591459e-08
-1.4706333e-09
1.7748304e-08
-2.0576905e-09
2.2800772e-08
-2.8259713e-09
2.8878168e-08
-3.8216777e-09
3.6105657e-08
-5.100592e-09
4.4592911e-08
-6.7289307e-09
5.4418962e-08
-8.7835318e-09
6.5613646e-08
-1.1350863e-08
7.8137114e-08
-1.4524288e-08
9.1860472e-08
-1.8398876e-08
1.0655248e-07
-2.3063357e-08
1.2187872e-07
-2.8589269e-08
1.3742007e-07
-3.5018259e-08
1.5271507e-07
-4.2349402e-08
1.6732621e-07
-5.0529428e-08
1.8092305e-07
-5.9448585e-08
1.933687e-07
-6.8944005e-08
2.0479348e-07
-7.8810784e-08
2.1564235e-07
-8.8819036e-08
2.2669058e-07
-9.8734127e-08
2.3903141e-07
-1.0833714e-07
2.5404591e-07
-1.1744353e-07
2.7336723e-07
-1.2591873e-07
2.9884942e-07
-1.3369051e-07
3.3254695e-07
-1.4075812e-07
3.7670834e-07
-1.4719758e-07
4.3378701e-07
-1.5316185e-07
5.0647449e-07
-1.588752e-07
5.9776464e-07
-1.6462076e-07
7.110597e-07
-1.7072279e-07
8.503267e-07
-1.7752733e-07
1.0203049e-06
-1.8538629e-07
1.2267521e-06
-1.9464076e-07
1.4767007e-06
-2.0560087e-07
1.7786801e-06
-2.1846593e-07
2.142698e-06
-2.3310163e-07
2.5797825e-06
-2.4844839e-07
3.0989453e-06
-2.6103765e-07
3.6994859e-06
-2.6224261e-07
4.3422123e-06
-2.3386268e-07
4.8810762e-06
-1.4749521e-07
4.8532073e-06
2.9601342e-06
-6.8907774e-12
3.4486619e-10
-3.0589659e-11
1.1667562e-09
-7.6796621e-11
2.2416943e-09
-1.5279536e-10
3.6291658e-09
-2.6786332e-10
5.3998695e-09
-4.3378019e-10
7.636858e-09
-6.65446e-10
1.0436311e-08
-9.8163165e-10
1.3907644e-08
-1.4058742e-09
1.8172547e-08
-1.9675143e-09
2.3362412e-08
-2.7028555e-09
2.9613509e-08
-3.6563949e-09
3.7059196e-08
-4.8819949e-09
4.5818509e-08
-6.443807e-09
5.5980771e-08
-8.4166055e-09
6.7586439e-08
-1.088506e-08
8.0605564e-08
-1.3941368e-08
9.4916777e-08
-1.7680584e-08
1.1029169e-07
-2.2193133e-08
1.2639127e-07
-2.7554522e-08
1.4278145e-07
-3.3812912e-08
1.5897345e-07
-4.0976365e-08
1.7448966e-07
-4.900244e-08
1.8894911e-07
-5.7792823e-08
2.0215906e-07
-6.719525e-08
2.1419587e-07
-7.7013076e-08
2.2546013e-07
-8.70212e-08
2.3669865e-07
-9.698561e-08
2.4899574e-07
-1.066836e-07
2.637438e-07
-1.159225e-07
2.8260603e-07
-1.2455566e-07
3.0748245e-07
-1.3249525e-07
3.4048638e-07
-1.3972198e-07
3.8393494e-07
-1.4629158e-07
4.4035644e-07
-1.5233639e-07
5.1251922e-07
-1.5806185e-07
6.0349e-07
-1.6373539e-07
7.1673319e-07
-1.6966986e-07
8.5626109e-07
-1.7620293e-07
1.026838e-06
-1.8367753e-07
1.2342266e-06
-1.924204e-07
1.4854439e-06
-2.0271163e-07
1.7889712e-06
-2.1469613e-07
2.1546832e-06
-2.2814024e-07
2.5932263e-06
-2.4183483e-07
3.112641e-06
-2.5216528e-07
3.7098155e-06
-2.5059553e-07
4.3406442e-06
-2.1997476e-07
4.8504537e-06
-1.3523936e-07
4.7684755e-06
2.8248934e-06
-6.6010226e-12
3.5146728e-10
-2.9304909e-11
1.1894598e-09
-7.3575126e-11
2.285964e-09
-1.4639467e-10
3.7019855e-09
-2.5666348e-10
5.5101382e-09
-4.1568205e-10
7.7958768e-09
-6.3775306e-10
1.0658382e-08
-9.4090706e-10
1.4210798e-08
-1.347768e-09
1.8579407e-08
-1.8865654e-09
2.3901209e-08
-2.592274e-09
3.0319217e-08
-3.507831e-09
3.7974753e-08
-4.685335e-09
4.6996011e-08
-6.187012e-09
5.7482447e-08
-8.0856835e-09
6.9485112e-08
-1.0464267e-08
8.2984145e-08
-1.3413717e-08
9.7866223e-08
-1.7028813e-08
1.1390678e-07
-2.1401218e-08
1.3076366e-07
-2.660967e-08
1.479899e-07
-3.2707936e-08
1.6507171e-07
-3.9712038e-08
1.8149376e-07
-4.7589299e-08
1.9682636e-07
-5.6251996e-08
2.1082173e-07
-6.5557918e-08
2.2350176e-07
-7.5318588e-08
2.3522075e-07
-8.5313957e-08
2.4669395e-07
-9.5311281e-08
2.5899299e-07
-1.0508507e-07
2.735175e-07
-1.1443587e-07
2.919567e-07
-1.2320637e-07
3.1625279e-07
-1.312946e-07
3.4857446e-07
-1.3866429e-07
3.9130448e-07
-1.4535199e-07
4.4704396e-07
-1.514701e-07
5.1863719e-07
-1.5720486e-07
6.0922463e-07
-1.6280717e-07
7.2233541e-07
-1.6857691e-07
8.620307e-07
-1.748417e-07
1.0331027e-06
-1.8193448e-07
1.2413193e-06
-1.9016689e-07
1.4936766e-06
-1.9978972e-07
1.7985939e-06
-2.1089454e-07
2.1657887e-06
-2.2315668e-07
2.6054882e-06
-2.3523517e-07
3.1247205e-06
-2.4341165e-07
3.7179912e-06
-2.3929867e-07
4.3365327e-06
-2.067934e-07
4.8179467e-06
-1.2390801e-07
4.6855938e-06
2.7009838e-06
-6.3402187e-12
3.5780696e-10
-2.8146879e-11
1.2112661e-09
-7.067066e-11
2.3284871e-09
-1.4062459e-10
3.7719385e-09
-2.4656352e-10
5.6160767e-09
-3.9935678e-10
7.9486701e-09
-6.1276546e-10
1.0871791e-08
-9.0414715e-10
1.450218e-08
-1.2952969e-09
1.8970558e-08
-1.813432e-09
2.4419345e-08
-2.4923139e-09
3.09981e-08
-3.3734515e-09
3.8855893e-08
-4.5073097e-09
4.8129871e-08
-5.9543254e-09
5.8929465e-08
-7.7854795e-09
7.1316267e-08
-1.0081972e-08
8.5280639e-08
-1.293348e-08
1.0071773e-07
-1.6434322e-08
1.1740762e-07
-2.0677022e-08
1.3500636e-07
-2.574299e-08
1.5305586e-07
-3.169081e-08
1.7101953e-07
-3.8543552e-08
1.8834649e-07
-4.6277396e-08
2.0456018e-07
-5.4814424e-08
2.1935874e-07
-6.4021987e-08
2.327093e-07
-7.3719554e-08
2.4491827e-07
-8.3692383e-08
2.5666671e-07
-9.3709504e-08
2.6901005e-07
-1.0354354e-07
2.8335144e-07
-1.1298928e-07
3.0140231e-07
-1.2188006e-07
3.2514343e-07
-1.3010127e-07
3.5679549e-07
-1.3760092e-07
3.9880394e-07
-1.4439755e-07
4.538404e-07
-1.5058439e-07
5.2482384e-07
-1.5632857e-07
6.1496869e-07
-1.6186394e-07
7.2787067e-07
-1.6747621e-07
8.6764281e-07
-1.7348161e-07
1.0391081e-06
-1.8020193e-07
1.2480396e-06
-1.8793331e-07
1.5014081e-06
-1.9689779e-07
1.8075583e-06
-2.0713574e-07
2.1760273e-06
-2.1823935e-07
2.6165916e-06
-2.2875349e-07
3.1352358e-06
-2.3489131e-07
3.7241283e-06
-2.2845764e-07
4.3301005e-06
-1.9437664e-07
4.7838641e-06
-1.134848e-07
4.6047059e-06
2.5874977e-06
-6.1024621e-12
3.6390959e-10
-2.7094803e-11
1.2322585e-09
-6.8033416e-11
2.3694259e-09
-1.3538487e-10
3.8392903e-09
-2.3739279e-10
5.7180854e-09
-3.8453342e-10
8.0958119e-09
-5.9007555e-10
1.1077335e-08
-8.7076375e-10
1.4782869e-08
-1.2476346e-09
1.9347428e-08
-1.746981e-09
2.4918692e-08
-2.40145e-09
3.1652568e-08
-3.2512339e-09
3.9705677e-08
-4.3452828e-09
4.9223922e-08
-5.7423669e-09
6.0326551e-08
-7.5117209e-09
7.3085624e-08
-9.7329005e-09
8.7501816e-08
-1.2494266e-08
1.0347909e-07
-1.5889548e-08
1.208029e-07
-2.0011831e-08
1.3912864e-07
-2.4944715e-08
1.5798874e-07
-3.0750971e-08
1.7682577e-07
-3.7459924e-08
1.9505543e-07
-4.5055815e-08
2.1215606e-07
-5.3469843e-08
2.2777274e-07
-6.2578387e-08
2.4181781e-07
-7.2208697e-08
2.5454853e-07
-8.2151392e-08
2.6660933e-07
-9.2177836e-08
2.790364e-07
-1.0205938e-07
2.9323287e-07
-1.1158605e-07
3.1092884e-07
-1.2058297e-07
3.341402e-07
-1.2892407e-07
3.6513643e-07
-1.3654305e-07
4.0642273e-07
-1.4344162e-07
4.6073877e-07
-1.4969458e-07
5.3107665e-07
-1.5545049e-07
6.2072446e-07
-1.6092569e-07
7.3334572e-07
-1.6639078e-07
8.7310781e-07
-1.7214962e-07
1.0448669e-06
-1.78512e-07
1.254402e-06
-1.8575781e-07
1.5086541e-06
-1.9408126e-07
1.8158817e-06
-2.0347413e-07
2.1854208e-06
-2.1345308e-07
2.6265703e-06
-2.2246617e-07
3.1442499e-06
-2.2668619e-07
3.7283477e-06
-2.1814262e-07
4.3215586e-06
-1.8275323e-07
4.7484733e-06
-1.0394088e-07
4.5258975e-06
2.4835555e-06
-5.8869934e-12
3.697961e-10
-2.6137614e-11
1.2525087e-09
-6.5631938e-11
2.4089197e-09
-1.3061189e-10
3.9042696e-09
-2.2903594e-10
5.8165089e-09
-3.710204e-10
8.2377964e-09
-5.6938425e-10
1.1275698e-08
-8.4030815e-10
1.5053792e-08
-1.2041344e-09
1.9711255e-08
-1.6863066e-09
2.5400863e-08
-2.3184444e-09
3.2284705e-08
-3.1395236e-09
4.0526757e-08
-4.1970946e-09
5.0281492e-08
-5.5483611e-09
6.1677816e-08
-7.2609094e-09
7.4798172e-08
-9.4126992e-09
8.9653604e-08
-1.2090789e-08
1.0615718e-07
-1.5388209e-08
1.2410032e-07
-1.9398377e-08
1.4313881e-07
-2.4206686e-08
1.6279705e-07
-2.9879526e-08
1.8249861e-07
-3.6451829e-08
2.0162772e-07
-4.3915186e-08
2.1961938e-07
-5.220924e-08
2.3606676e-07
-6.1218956e-08
2.5082749e-07
-7.0779122e-08
2.6410864e-07
-8.0685829e-08
2.7651597e-07
-9.0713064e-08
2.8906354e-07
-1.0063156e-07
3.0315126e-07
-1.1022743e-07
3.2052458e-07
-1.1931864e-07
3.4323122e-07
-1.2776879e-07
3.7358638e-07
-1.3549838e-07
4.1415215e-07
-1.4249349e-07
4.6773372e-07
-1.4881154e-07
5.3739453e-07
-1.545828e-07
6.264956e-07
-1.6000614e-07
7.3876894e-07
-1.6533658e-07
8.7843816e-07
-1.7086457e-07
1.0503949e-06
-1.7688689e-07
1.2604243e-06
-1.8366693e-07
1.5154344e-06
-1.9137221e-07
1.823587e-06
-1.9994862e-07
2.1939977e-06
-2.0884435e-07
2.6354659e-06
-2.1642672e-07
3.1518334e-06
-2.1885181e-07
3.7307724e-06
-2.0839585e-07
4.3111042e-06
-1.7192902e-07
4.712005e-06
-9.5237599e-08
4.4492101e-06
2.3883168e-06
-5.688722e-12
3.7548464e-10
-2.5259076e-11
1.272079e-09
-6.3428948e-11
2.4470896e-09
-1.2623427e-10
3.9670745e-09
-2.2137188e-10
5.9116463e-09
-3.5862803e-10
8.3750528e-09
-5.5040738e-10
1.1467477e-08
-8.1237297e-10
1.5315758e-08
-1.1642267e-09
2.006311e-08
-1.6306292e-09
2.5867265e-08
-2.2422483e-09
3.2896325e-08
-3.0369355e-09
4.1321446e-08
-4.0609301e-09
5.1305487e-08
-5.3699702e-09
6.2986858e-08
-7.0300856e-09
7.645829e-08
-9.1177044e-09
9.1741226e-08
-1.1718594e-08
1.0875807e-07
-1.4925016e-08
1.2730674e-07
-1.8830518e-08
1.4704431e-07
-2.3521962e-08
1.6748849e-07
-2.9068891e-08
1.8804552e-07
-3.5511238e-08
2.0807005e-07
-4.2847309e-08
2.2695543e-07
-5.1024639e-08
2.4424406e-07