/*--------------------------------*- C++ -*----------------------------------*\
| =========                 |                                                 |
| \\      /  F ield         | OpenFOAM: The Open Source CFD Toolbox           |
|  \\    /   O peration     | Version:  4.0                                   |
|   \\  /    A nd           | Web:      www.OpenFOAM.org                      |
|    \\/     M anipulation  |                                                 |
\*---------------------------------------------------------------------------*/
FoamFile
{
    version     2.0;
    format      ascii;
    class       volScalarField;
    location    "586";
    object      rho;
}
// * * * * * * * * * * * * * * * * * * * * * * * * * * * * * * * * * * * * * //

dimensions      [1 -3 0 0 0 0 0];

internalField   nonuniform List<scalar> 
5000
(
1.0714071
1.0775278
1.0840977
1.0910955
1.0984835
1.1062061
1.1141888
1.1223384
1.1305455
1.1386878
1.1466367
1.154264
1.1614499
1.1680912
1.1741081
1.1794478
1.1840873
1.1880319
1.1913119
1.1939774
1.1960925
1.1977293
1.1989624
1.1998649
1.2005048
1.2009429
1.2012308
1.2014119
1.2015206
1.2015824
1.2016156
1.2016323
1.2016402
1.2016437
1.201645
1.2016456
1.2016457
1.2016458
1.2016458
1.2016458
1.2016458
1.2016458
1.2016458
1.2016458
1.2016458
1.2016458
1.2016458
1.2016458
1.2016458
1.2016458
1.0498766
1.0551252
1.0607924
1.0668947
1.0734431
1.0804402
1.0878775
1.0957314
1.1039599
1.1124985
1.121258
1.1301235
1.1389563
1.1475997
1.1558878
1.1636583
1.170767
1.1771014
1.1825915
1.1872148
1.1909948
1.1939937
1.1963013
1.1980227
1.1992664
1.2001356
1.200722
1.2011029
1.2013404
1.2014819
1.2015621
1.2016051
1.2016268
1.201637
1.2016415
1.2016433
1.201644
1.2016442
1.2016443
1.2016443
1.2016443
1.2016443
1.2016443
1.2016443
1.2016443
1.2016443
1.2016443
1.2016443
1.2016443
1.2016443
1.0411248
1.0460175
1.0513009
1.0569946
1.0631155
1.0696762
1.0766824
1.0841307
1.0920043
1.1002699
1.1088731
1.1177348
1.1267488
1.1357819
1.144678
1.1532655
1.1613707
1.1688328
1.1755203
1.1813447
1.1862682
1.190304
1.19351
1.1959772
1.1978153
1.1991401
1.2000628
1.2006826
1.2010831
1.2013312
1.2014779
1.2015604
1.2016041
1.2016258
1.2016359
1.2016402
1.2016419
1.2016425
1.2016427
1.2016428
1.2016428
1.2016428
1.2016428
1.2016428
1.2016428
1.2016428
1.2016428
1.2016428
1.2016428
1.2016427
1.036039
1.040726
1.0457862
1.0512395
1.0571042
1.0633956
1.0701242
1.0772937
1.084898
1.0929178
1.1013167
1.1100371
1.1189964
1.1280848
1.1371654
1.1460784
1.15465
1.1627054
1.1700853
1.1766624
1.182355
1.1871341
1.1910224
1.1940865
1.1964243
1.1981501
1.199382
1.200231
1.2007949
1.2011547
1.2013747
1.2015027
1.2015734
1.2016102
1.201628
1.2016361
1.2016394
1.2016407
1.2016411
1.2016413
1.2016413
1.2016413
1.2016413
1.2016413
1.2016413
1.2016413
1.2016413
1.2016413
1.2016413
1.2016412
1.0324298
1.0369713
1.0418732
1.0471555
1.0528365
1.0589325
1.0654562
1.0724149
1.0798078
1.0876237
1.0958368
1.1044033
1.1132567
1.1223053
1.13143
1.1404857
1.1493072
1.1577191
1.1655504
1.172652
1.1789119
1.1842674
1.1887095
1.1922791
1.1950566
1.1971486
1.1986729
1.1997463
1.2004757
1.2009528
1.2012523
1.201432
1.2015345
1.2015897
1.2016176
1.2016307
1.2016364
1.2016386
1.2016395
1.2016397
1.2016398
1.2016398
1.2016398
1.2016398
1.2016398
1.2016398
1.2016398
1.2016398
1.2016398
1.2016397
1.0296826
1.0341137
1.0388955
1.0440477
1.0495888
1.0555354
1.0619014
1.0686959
1.0759217
1.0835721
1.0916285
1.1000558
1.1087992
1.11778
1.1268932
1.1360075
1.1449677
1.1536034
1.1617406
1.1692182
1.1759043
1.1817113
1.1866035
1.1905977
1.1937565
1.1961753
1.1979678
1.1992525
1.200142
1.2007357
1.2011168
1.2013511
1.2014884
1.2015646
1.2016045
1.2016239
1.2016327
1.2016363
1.2016377
1.2016381
1.2016383
1.2016383
1.2016383
1.2016383
1.2016383
1.2016383
1.2016383
1.2016383
1.2016383
1.2016382
1.0274675
1.0318097
1.036495
1.0415424
1.0469706
1.0527964
1.0590341
1.0656943
1.0727819
1.0802936
1.0882154
1.096519
1.1051576
1.1140629
1.1231412
1.1322726
1.1413123
1.1500961
1.1584514
1.1662107
1.1732295
1.179401
1.1846678
1.1890258
1.1925197
1.1952326
1.197272
1.1987557
1.1997992
1.2005078
1.200971
1.2012617
1.201436
1.2015354
1.2015888
1.2016157
1.2016282
1.2016336
1.2016358
1.2016365
1.2016368
1.2016368
1.2016368
1.2016368
1.2016368
1.2016368
1.2016368
1.2016368
1.2016368
1.2016366
1.0256226
1.0298909
1.0344959
1.0394563
1.0447904
1.0505154
1.0566459
1.0631933
1.0701641
1.0775573
1.0853626
1.0935562
1.1020981
1.1109277
1.1199607
1.1290868
1.1381705
1.1470548
1.1555698
1.163546
1.17083
1.1773011
1.1828844
1.1875569
1.191347
1.1943254
1.1965922
1.1982624
1.199453
1.2002731
1.2008178
1.2011657
1.2013784
1.2015023
1.2015706
1.201606
1.201623
1.2016306
1.2016337
1.2016348
1.2016352
1.2016353
1.2016353
1.2016353
1.2016353
1.2016353
1.2016353
1.2016353
1.2016352
1.2016351
1.0240455
1.0282509
1.0327872
1.0376733
1.0429272
1.048566
1.0546045
1.061055
1.0679248
1.075215
1.0829177
1.0910131
1.0994662
1.1082228
1.1172061
1.1263144
1.1354203
1.1443738
1.1530089
1.161156
1.168656
1.1753778
1.181232
1.1861798
1.1902342
1.1934536
1.1959303
1.1977756
1.1991063
1.2000344
1.2006593
1.2010644
1.2013164
1.2014659
1.2015502
1.2015949
1.201617
1.2016272
1.2016314
1.2016331
1.2016336
1.2016338
1.2016338
1.2016339
1.2016339
1.2016338
1.2016338
1.2016338
1.2016337
1.2016336
1.0226718
1.0268223
1.0312991
1.0361205
1.0413045
1.0468682
1.0528266
1.0591922
1.0659734
1.0731726
1.0807841
1.0887911
1.0971626
1.1058498
1.1147823
1.1238655
1.1329794
1.1419805
1.1507076
1.1589916
1.1666705
1.173605
1.179694
1.1848848
1.1891766
1.1926162
1.1952874
1.1972971
1.1987614
1.1997938
1.2004971
1.2009591
1.2012506
1.2014266
1.2015277
1.2015824
1.2016102
1.2016233
1.201629
1.2016312
1.201632
1.2016323
1.2016323
1.2016324
1.2016324
1.2016324
1.2016323
1.2016323
1.2016322
1.2016321
1.021457
1.0255592
1.0299833
1.0347476
1.0398699
1.0453671
1.0512545
1.0575449
1.0642473
1.0713653
1.0788947
1.0868214
1.0951179
1.1037395
1.1126215
1.1216754
1.1307879
1.1398216
1.1486198
1.1570153
1.1648443
1.1719615
1.1782559
1.1836631
1.1881696
1.1918112
1.1946633
1.196828
1.1984195
1.1995524
1.2003324
1.2008505
1.2011818
1.2013848
1.2015032
1.2015687
1.2016027
1.2016191
1.2016264
1.2016293
1.2016304
1.2016307
1.2016308
1.2016309
1.2016309
1.2016309
1.2016308
1.2016308
1.2016307
1.2016306
1.0203698
1.0244287
1.0288058
1.033519
1.0385861
1.0440239
1.0498478
1.0560707
1.0627022
1.0697468
1.0772019
1.0850553
1.0932823
1.1018422
1.1106748
1.1196971
1.1288017
1.137857
1.1467106
1.155198
1.1631543
1.1704299
1.1769058
1.182507
1.1872089
1.1910367
1.1940577
1.1963685
1.1980815
1.1993114
1.200166
1.2007395
1.2011105
1.2013407
1.2014771
1.2015538
1.2015943
1.2016144
1.2016235
1.2016273
1.2016287
1.2016292
1.2016293
1.2016294
1.2016294
1.2016294
1.2016293
1.2016293
1.2016292
1.201629
1.0193871
1.0234069
1.0277415
1.0324087
1.0374259
1.04281
1.0485764
1.0547382
1.0613055
1.0682834
1.0756705
1.0834565
1.0916191
1.1001207
1.1089054
1.1178949
1.1269872
1.1360558
1.144953
1.1535167
1.1615822
1.1689963
1.1756336
1.18141
1.1862906
1.1902907
1.1934697
1.1959189
1.1977479
1.1990714
1.1999986
1.2006267
1.201037
1.2012946
1.2014494
1.2015377
1.2015852
1.2016092
1.2016204
1.2016251
1.201627
1.2016276
1.2016278
1.2016279
1.2016279
1.2016279
1.2016278
1.2016278
1.2016277
1.2016275
1.0184914
1.0224757
1.0267716
1.0313968
1.0363686
1.0417038
1.0474177
1.0535238
1.0600323
1.0669491
1.0742738
1.0819974
1.0901
1.0985467
1.1072851
1.1162413
1.1253182
1.134394
1.1433254
1.1519531
1.1601128
1.167649
1.1744309
1.1803662
1.185411
1.1895713
1.1928987
1.195479
1.1974191
1.1988328
1.1998308
1.2005124
1.2009618
1.2012469
1.2014202
1.2015205
1.2015755
1.2016036
1.201617
1.2016229
1.2016252
1.201626
1.2016263
1.2016264
1.2016264
1.2016264
1.2016263
1.2016262
1.2016261
1.201626
1.0176693
1.0216209
1.0258814
1.0304681
1.0353983
1.0406886
1.0463544
1.0524093
1.0588637
1.0657241
1.072991
1.0806568
1.0887032
1.097098
1.1057918
1.1147149
1.1237741
1.1328524
1.1418106
1.1504922
1.1587338
1.1663784
1.1732904
1.1793708
1.184567
1.1888766
1.1923438
1.1950487
1.1970951
1.1985961
1.199663
1.2003971
1.2008851
1.2011977
1.2013898
1.2015024
1.201565
1.2015976
1.2016134
1.2016205
1.2016234
1.2016244
1.2016248
1.2016249
1.2016249
1.2016249
1.2016248
1.2016247
1.2016246
1.2016245
1.0169101
1.0208317
1.0250594
1.0296106
1.0345024
1.0397513
1.0453727
1.0513802
1.0577846
1.0645928
1.071806
1.0794178
1.0874115
1.0957571
1.1044081
1.1132982
1.1223383
1.1314155
1.1403945
1.1491217
1.1574351
1.1651763
1.1722061
1.1784193
1.1837558
1.1882051
1.1918041
1.1946277
1.1967761
1.1983614
1.1994954
1.200281
1.2008073
1.2011473
1.2013583
1.2014834
1.2015538
1.2015912
1.2016096
1.201618
1.2016215
1.2016228
1.2016232
1.2016233
1.2016234
1.2016233
1.2016233
1.2016232
1.2016231
1.201623
1.0162053
1.020099
1.0242964
1.0288146
1.0336708
1.0388813
1.0444615
1.050425
1.0567829
1.0635424
1.0707055
1.0782667
1.0862108
1.0945098
1.1031197
1.1119773
1.1209972
1.1300705
1.1390654
1.1478315
1.156208
1.1640358
1.1711727
1.1775081
1.1829749
1.1875553
1.191279
1.1942156
1.1964621
1.198129
1.1993283
1.2001645
1.2007285
1.2010957
1.2013257
1.2014635
1.2015421
1.2015843
1.2016055
1.2016154
1.2016195
1.2016211
1.2016217
1.2016218
1.2016219
1.2016218
1.2016218
1.2016217
1.2016216
1.2016215
1.0155481
1.0194157
1.0235848
1.0280724
1.0328954
1.0380701
1.0436118
1.0495343
1.0558488
1.0625628
1.069679
1.0771926
1.0850899
1.0933445
1.1019149
1.1107406
1.1197398
1.1288069
1.1378138
1.146613
1.1550451
1.1629509
1.1701856
1.1766339
1.1822222
1.1869256
1.1907676
1.1938123
1.1961531
1.1978989
1.1991619
1.2000476
1.2006489
1.2010432
1.2012922
1.2014429
1.2015297
1.201577
1.2016012
1.2016126
1.2016175
1.2016194
1.2016201
1.2016203
1.2016204
1.2016203
1.2016203
1.2016202
1.2016201
1.20162
1.0149327
1.018776
1.0229186
1.0273775
1.0321694
1.0373106
1.0428163
1.0487004
1.0549741
1.0616455
1.0687175
1.0761863
1.0840393
1.0922517
1.1007841
1.1095786
1.1185565
1.1276158
1.1366314
1.1454588
1.1539403
1.1619167
1.1692409
1.1757936
1.1814955
1.186315
1.1902693
1.1934173
1.1958489
1.1976713
1.1989964
1.1999306
1.2005687
1.2009899
1.2012579
1.2014216
1.2015169
1.2015694
1.2015966
1.2016097
1.2016154
1.2016177
1.2016185
1.2016188
1.2016188
1.2016188
1.2016188
1.2016187
1.2016186
1.2016185
1.0143543
1.0181748
1.0222926
1.0267245
1.0314872
1.0365969
1.0420688
1.0479168
1.0541522
1.0607834
1.0678138
1.0752402
1.0830511
1.0912233
1.0997191
1.1084832
1.1174396
1.1264896
1.1355113
1.1443628
1.1528882
1.1609286
1.1683352
1.1749849
1.1807931
1.1857223
1.1897834
1.1930304
1.1955495
1.1974462
1.1988318
1.1998136
1.2004879
1.2009359
1.2012229
1.2013996
1.2015035
1.2015614
1.2015918
1.2016066
1.2016133
1.201616
1.201617
1.2016173
1.2016173
1.2016173
1.2016173
1.2016172
1.2016171
1.201617
1.013809
1.017608
1.0217024
1.0261089
1.0308441
1.0359242
1.0413642
1.0471781
1.0533774
1.0599706
1.0669616
1.0743479
1.0821188
1.0902525
1.0987131
1.1074475
1.1163824
1.125422
1.1344474
1.1433195
1.1518842
1.1599828
1.1674653
1.1742053
1.1801134
1.1851464
1.1893093
1.1926513
1.1952549
1.1972235
1.1986682
1.1996968
1.2004068
1.2008812
1.2011872
1.201377
1.2014896
1.201553
1.2015867
1.2016034
1.201611
1.2016142
1.2016154
1.2016157
1.2016158
1.2016158
1.2016158
1.2016157
1.2016156
1.2016155
1.0132935
1.017072
1.0211443
1.0255268
1.0302361
1.0352881
1.040698
1.0464797
1.0526449
1.0592021
1.0661557
1.0735038
1.0812366
1.0893335
1.0977602
1.1064657
1.1153791
1.1244074
1.1334347
1.1423243
1.1509241
1.1590758
1.1666286
1.1734529
1.1794551
1.1845864
1.1888465
1.1922796
1.1949649
1.1970035
1.1985058
1.1995802
1.2003254
1.200826
1.2011509
1.2013538
1.2014752
1.2015443
1.2015814
1.2016001
1.2016087
1.2016124
1.2016137
1.2016142
1.2016143
1.2016143
1.2016143
1.2016142
1.201614
1.201614
1.0128046
1.0165639
1.0206153
1.0249751
1.0296597
1.0346852
1.0400666
1.0458177
1.0519504
1.0584735
1.0653916
1.0727034
1.0803998
1.0884614
1.0968554
1.1055327
1.1144247
1.1234411
1.1324686
1.1413732
1.1500044
1.1582048
1.1658226
1.1727258
1.1788167
1.1840414
1.1883944
1.1919152
1.1946794
1.1967859
1.1983446
1.1994639
1.2002439
1.2007704
1.2011141
1.2013301
1.2014604
1.2015353
1.2015759
1.2015966
1.2016063
1.2016105
1.2016121
1.2016127
1.2016128
1.2016128
1.2016128
1.2016127
1.2016125
1.2016124
1.0123401
1.0160811
1.0201125
1.0244507
1.029112
1.0341122
1.0394665
1.0451887
1.0512905
1.0577811
1.0646654
1.0719425
1.0796042
1.0876319
1.0959943
1.1046441
1.113515
1.1225188
1.1315453
1.1404625
1.1491219
1.157367
1.1650452
1.1720224
1.178197
1.1835106
1.1879525
1.1915577
1.1943982
1.1965709
1.1981846
1.1993481
1.2001622
1.2007144
1.2010768
1.201306
1.2014453
1.201526
1.2015702
1.201593
1.2016038
1.2016086
1.2016105
1.2016111
1.2016113
1.2016113
1.2016112
1.2016111
1.201611
1.2016109
1.0118977
1.0156212
1.0196337
1.0239514
1.0285904
1.0335666
1.0388951
1.0445896
1.0506621
1.0571217
1.0639737
1.0712177
1.078846
1.0868412
1.0951731
1.1037962
1.112646
1.1216371
1.1306612
1.139589
1.1482739
1.15656
1.1642945
1.1713412
1.1775951
1.1829933
1.1875204
1.191207
1.1941214
1.1963585
1.1980258
1.1992327
1.2000805
1.2006582
1.2010391
1.2012815
1.2014297
1.2015163
1.2015643
1.2015892
1.2016013
1.2016066
1.2016088
1.2016095
1.2016098
1.2016098
1.2016097
1.2016096
1.2016095
1.2016094
1.0114754
1.0151824
1.0191768
1.0234749
1.0280927
1.033046
1.0383498
1.044018
1.0500624
1.0564925
1.0633136
1.0705258
1.0781222
1.086086
1.0943885
1.1029855
1.1118146
1.1207925
1.1298133
1.13875
1.1474578
1.1557818
1.1635687
1.1706808
1.1770098
1.1824888
1.1870976
1.1908626
1.1938488
1.1961485
1.1978684
1.1991177
1.1999988
1.2006016
1.201001
1.2012566
1.2014138
1.2015064
1.2015581
1.2015853
1.2015987
1.2016047
1.2016071
1.201608
1.2016082
1.2016083
1.2016082
1.2016081
1.201608
1.2016079
1.0110717
1.0147628
1.0187399
1.0230193
1.0276168
1.0325483
1.0378285
1.0434715
1.0494891
1.0558909
1.0626824
1.0698642
1.0774298
1.0853635
1.0936375
1.1022092
1.1110178
1.1199822
1.128999
1.137943
1.1466714
1.1550303
1.1628663
1.17004
1.1764404
1.1819964
1.1866838
1.1905245
1.1935802
1.1959409
1.1977123
1.1990034
1.1999172
1.2005449
1.2009627
1.2012313
1.2013976
1.2014962
1.2015518
1.2015813
1.2015959
1.2016026
1.2016054
1.2016064
1.2016067
1.2016068
1.2016067
1.2016066
1.2016065
1.2016064
1.010685
1.0143609
1.0183216
1.022583
1.0271611
1.0320716
1.0373294
1.0429482
1.0489401
1.0553147
1.0620779
1.0692305
1.0767666
1.0846711
1.0929175
1.1014644
1.110253
1.1192038
1.1282157
1.1371657
1.1459127
1.1543039
1.1621858
1.1694177
1.1758859
1.1815157
1.1862785
1.1901924
1.1933155
1.1957358
1.1975575
1.1988896
1.1998358
1.2004881
1.200924
1.2012057
1.2013811
1.2014858
1.2015453
1.2015772
1.2015932
1.2016005
1.2016037
1.2016048
1.2016052
1.2016053
1.2016052
1.2016051
1.201605
1.2016049
1.0103141
1.0139754
1.0179202
1.0221645
1.026724
1.0316144
1.0368505
1.0424462
1.0484135
1.0547621
1.061498
1.0686225
1.0761301
1.0840066
1.0922262
1.100749
1.1095177
1.1184548
1.1274612
1.1364161
1.1451799
1.1536009
1.1615259
1.1688128
1.1753455
1.181046
1.1858815
1.1898661
1.1930548
1.195533
1.197404
1.1987765
1.1997544
1.2004311
1.2008851
1.2011799
1.2013643
1.2014751
1.2015386
1.2015729
1.2015903
1.2015984
1.2016019
1.2016032
1.2016037
1.2016037
1.2016037
1.2016036
1.2016035
1.2016034
1.0099578
1.0136051
1.0175347
1.0217624
1.0263041
1.0311752
1.0363906
1.041964
1.0479077
1.0542312
1.0609409
1.0680383
1.0755185
1.0833678
1.0915615
1.1000608
1.10881
1.1177334
1.1267338
1.1356923
1.1444713
1.15292
1.1608854
1.1682244
1.1748187
1.1805868
1.1854923
1.1895453
1.1927977
1.1953326
1.1972519
1.1986639
1.1996733
1.2003741
1.200846
1.2011537
1.2013473
1.2014643
1.2015317
1.2015685
1.2015873
1.2015963
1.2016001
1.2016016
1.2016021
1.2016022
1.2016022
1.2016021
1.201602
1.2016019
1.009615
1.0132489
1.0171638
1.0213757
1.0259002
1.0307528
1.0359482
1.0415003
1.0474211
1.0537205
1.060405
1.0674763
1.07493
1.082753
1.0909215
1.099398
1.1081279
1.1170375
1.1260315
1.1349928
1.1437854
1.1522599
1.1602633
1.1676517
1.1743047
1.1801377
1.1851106
1.18923
1.1925444
1.1951345
1.1971011
1.1985521
1.1995924
1.200317
1.2008067
1.2011274
1.20133
1.2014532
1.2015246
1.201564
1.2015843
1.201594
1.2015983
1.2016
1.2016006
1.2016007
1.2016007
1.2016006
1.2016005
1.2016004
1.0092848
1.0129057
1.0168066
1.0210032
1.0255112
1.0303459
1.0355221
1.0410536
1.0469524
1.0532287
1.0598888
1.0669349
1.074363
1.0821606
1.0903047
1.0987588
1.1074698
1.1163656
1.1253527
1.134316
1.1431209
1.1516193
1.1596585
1.1670938
1.1738028
1.1796982
1.1847362
1.1889198
1.1922945
1.1949387
1.1969516
1.1984409
1.1995117
1.2002599
1.2007673
1.2011008
1.2013125
1.2014419
1.2015174
1.2015593
1.2015812
1.2015918
1.2015965
1.2015984
1.201599
1.2015992
1.2015992
1.2015991
1.201599
1.2015989
1.0089664
1.0125748
1.0164621
1.020644
1.025136
1.0299535
1.0351112
1.0406228
1.0465005
1.0527543
1.059391
1.0664128
1.0738161
1.081589
1.0897093
1.0981416
1.1068341
1.1157162
1.1246961
1.1336605
1.1424766
1.1509972
1.1590701
1.16655
1.1733126
1.1792679
1.1843688
1.1886148
1.1920481
1.1947451
1.1968034
1.1983303
1.1994313
1.2002028
1.2007278
1.201074
1.2012948
1.2014304
1.2015101
1.2015546
1.201578
1.2015895
1.2015946
1.2015967
1.2015975
1.2015977
1.2015977
1.2015976
1.2015975
1.2015974
1.0086589
1.0122553
1.0161295
1.0202972
1.0247738
1.0295748
1.0347146
1.040207
1.0460643
1.0522964
1.0589104
1.0659087
1.0732879
1.0810369
1.0891342
1.0975452
1.1062194
1.1150878
1.1240602
1.1330251
1.1418512
1.1503926
1.1584973
1.1660196
1.1728336
1.1788464
1.1840081
1.1883145
1.1918051
1.1945536
1.1966566
1.1982205
1.1993512
1.2001458
1.2006881
1.2010471
1.201277
1.2014188
1.2015026
1.2015497
1.2015747
1.2015871
1.2015927
1.2015951
1.2015959
1.2015961
1.2015961
1.2015961
1.201596
1.2015959
1.0083617
1.0119464
1.015808
1.019962
1.0244238
1.0292087
1.0343312
1.0398051
1.0456427
1.0518539
1.0584459
1.0654214
1.0727774
1.0805032
1.088578
1.0969682
1.1056245
1.1144792
1.1234439
1.1324087
1.1412438
1.1498045
1.1579393
1.1655019
1.1723651
1.1784334
1.1836538
1.188019
1.1915653
1.1943643
1.196511
1.1981114
1.1992714
1.2000888
1.2006484
1.20102
1.2012589
1.2014069
1.2014949
1.2015448
1.2015714
1.2015847
1.2015908
1.2015934
1.2015943
1.2015946
1.2015946
1.2015946
1.2015945
1.2015944
1.0080742
1.0116477
1.015497
1.0196377
1.0240852
1.0288545
1.0339604
1.0394164
1.0452348
1.0514258
1.0579965
1.0649499
1.0722834
1.0799867
1.0880396
1.0964094
1.1050481
1.1138893
1.1228461
1.1318102
1.1406534
1.1492321
1.1573953
1.1649965
1.1719067
1.1780286
1.1833058
1.187728
1.1913287
1.194177
1.1963666
1.1980029
1.1991919
1.2000319
1.2006086
1.2009928
1.2012407
1.201395
1.2014872
1.2015397
1.201568
1.2015823
1.2015889
1.2015917
1.2015928
1.2015931
1.2015931
1.2015931
1.201593
1.2015929
1.0077958
1.0113584
1.0151959
1.0193237
1.0237573
1.0285116
1.0336013
1.03904
1.0448399
1.0510113
1.0575614
1.0644934
1.071805
1.0794863
1.0875179
1.0958679
1.1044893
1.113317
1.1222657
1.1312286
1.1400791
1.1486746
1.1568648
1.1645026
1.1714581
1.1776315
1.1829638
1.1874415
1.1910951
1.1939918
1.1962236
1.1978952
1.1991127
1.1999751
1.2005687
1.2009655
1.2012223
1.2013829
1.2014793
1.2015345
1.2015645
1.2015798
1.2015869
1.20159
1.2015912
1.2015916
1.2015916
1.2015916
1.2015915
1.2015914
1.007526
1.0110779
1.014904
1.0190194
1.0234395
1.0281793
1.0332533
1.0386751
1.0444571
1.0506095
1.0571396
1.0640509
1.0713412
1.0790012
1.087012
1.0953426
1.103947
1.1127613
1.1217017
1.1306631
1.13952
1.1481312
1.1563469
1.1640198
1.1710188
1.177242
1.1826276
1.1871592
1.1908646
1.1938086
1.1960817
1.1977881
1.1990339
1.1999183
1.2005288
1.200938
1.2012038
1.2013706
1.2014712
1.2015293
1.201561
1.2015772
1.201585
1.2015883
1.2015896
1.20159
1.2015901
1.20159
1.20159
1.2015899
1.0072642
1.0108059
1.0146208
1.0187242
1.0231312
1.0278569
1.0329157
1.0383213
1.0440859
1.0502198
1.0567305
1.0636216
1.0708912
1.0785305
1.086521
1.0948326
1.1034203
1.1122214
1.1211534
1.1301127
1.1389755
1.1476014
1.1558412
1.1635477
1.1705884
1.1768596
1.1822969
1.1868811
1.190637
1.1936273
1.1959411
1.1976818
1.1989553
1.1998617
1.2004889
1.2009105
1.2011852
1.2013582
1.2014631
1.2015239
1.2015573
1.2015746
1.2015829
1.2015866
1.201588
1.2015885
1.2015886
1.2015885
1.2015885
1.2015884
1.00701
1.0105418
1.0143459
1.0184376
1.0228319
1.0275439
1.032588
1.0379778
1.0437255
1.0498415
1.0563334
1.0632048
1.0704544
1.0780734
1.0860442
1.0943372
1.1029084
1.1116964
1.12062
1.1295769
1.1384447
1.1470844
1.1553472
1.1630857
1.1701666
1.1764842
1.1819717
1.1866069
1.1904122
1.1934479
1.1958016
1.1975761
1.1988772
1.1998052
1.2004489
1.2008828
1.2011664
1.2013457
1.2014548
1.2015184
1.2015536
1.201572
1.2015809
1.2015848
1.2015864
1.2015869
1.2015871
1.201587
1.201587
1.2015869
1.006763
1.0102852
1.0140788
1.0181591
1.0225412
1.0272399
1.0322696
1.037644
1.0433754
1.049474
1.0559475
1.0627999
1.0700299
1.0776292
1.0855807
1.0938555
1.1024106
1.1111856
1.1201006
1.1290548
1.1379271
1.1465796
1.1548642
1.1626334
1.169753
1.1761155
1.1816517
1.1863367
1.1901902
1.1932704
1.1956634
1.1974711
1.1987993
1.1997488
1.200409
1.2008551
1.2011475
1.2013331
1.2014465
1.2015129
1.2015499
1.2015693
1.2015788
1.2015831
1.2015848
1.2015854
1.2015855
1.2015855
1.2015855
1.2015854
1.0065229
1.0100357
1.0138192
1.0178884
1.0222585
1.0269443
1.0319601
1.0373196
1.043035
1.0491167
1.0555724
1.0624062
1.0696171
1.0771972
1.0851298
1.0933869
1.1019261
1.1106882
1.1195946
1.1285458
1.1374221
1.1460866
1.1543919
1.1621905
1.1693473
1.1757533
1.1813367
1.1860702
1.1899709
1.1930947
1.1955263
1.1973668
1.1987219
1.1996926
1.200369
1.2008273
1.2011286
1.2013203
1.201438
1.2015073
1.2015461
1.2015666
1.2015767
1.2015813
1.2015832
1.2015839
1.201584
1.201584
1.201584
1.2015839
1.0062893
1.009793
1.0135665
1.017625
1.0219835
1.0266567
1.031659
1.037004
1.0427038
1.0487691
1.0552074
1.0620232
1.0692155
1.0767769
1.0846911
1.0929307
1.1014542
1.1102036
1.1191013
1.1280493
1.136929
1.1456047
1.1539298
1.1617565
1.1689492
1.1753972
1.1810267
1.1858074
1.1897542
1.1929208
1.1953903
1.1972631
1.1986447
1.1996365
1.2003291
1.2007994
1.2011095
1.2013075
1.2014295
1.2015016
1.2015422
1.2015638
1.2015746
1.2015795
1.2015816
1.2015823
1.2015825
1.2015825
1.2015825
1.2015824
1.0060619
1.0095566
1.0133205
1.0173686
1.0217157
1.0263767
1.0313659
1.0366967
1.0423815
1.0484306
1.0548522
1.0616503
1.0688245
1.0763675
1.0842637
1.0924862
1.1009944
1.1097312
1.1186202
1.1275646
1.1364473
1.1451336
1.1534774
1.1613312
1.1685585
1.1750472
1.1807213
1.1855482
1.1895401
1.1927486
1.1952555
1.1971602
1.198568
1.1995805
1.2002892
1.2007715
1.2010904
1.2012946
1.2014208
1.2014958
1.2015382
1.201561
1.2015724
1.2015777
1.2015799
1.2015807
1.201581
1.201581
1.201581
1.2015809
1.0058403
1.0093264
1.0130809
1.0171188
1.0214549
1.026104
1.0310803
1.0363974
1.0420674
1.048101
1.054506
1.061287
1.0684435
1.0759687
1.0838473
1.092053
1.1005461
1.1092704
1.1181507
1.1270914
1.1359766
1.1446727
1.1530343
1.1609141
1.1681749
1.174703
1.1804205
1.1852924
1.1893284
1.1925781
1.1951218
1.1970579
1.1984915
1.1995247
1.2002493
1.2007436
1.2010711
1.2012815
1.2014121
1.2014899
1.2015342
1.2015581
1.2015702
1.2015759
1.2015783
1.2015792
1.2015795
1.2015795
1.2015794
1.2015794
1.0056243
1.009102
1.0128473
1.0168753
1.0212006
1.0258381
1.030802
1.0361056
1.0417613
1.0477797
1.0541687
1.0609329
1.0680721
1.0755799
1.0834412
1.0916305
1.1001088
1.1088207
1.1176922
1.126629
1.1355164
1.1442217
1.1526003
1.160505
1.167798
1.1743644
1.1801242
1.18504
1.1891192
1.1924094
1.1949891
1.1969562
1.1984155
1.199469
1.2002094
1.2007156
1.2010518
1.2012684
1.2014032
1.201484
1.2015302
1.2015552
1.201568
1.201574
1.2015766
1.2015776
1.2015779
1.201578
1.2015779
1.2015779
1.0054136
1.0088831
1.0126195
1.0166378
1.0209527
1.0255789
1.0305305
1.0358211
1.0414628
1.0474663
1.0538397
1.0605875
1.0677099
1.0752006
1.0830451
1.0912183
1.0996819
1.1083816
1.1172444
1.1261771
1.1350662
1.1437801
1.1521749
1.1601036
1.1674277
1.1740313
1.1798322
1.1847909
1.1889123
1.1922422
1.1948575
1.1968552
1.1983397
1.1994135
1.2001696
1.2006875
1.2010324
1.2012552
1.2013943
1.2014779
1.201526
1.2015523
1.2015658
1.2015722
1.201575
1.2015761
1.2015764
1.2015765
1.2015764
1.2015764
1.005208
1.0086695
1.0123972
1.016406
1.0207107
1.0253259
1.0302656
1.0355435
1.0411716
1.0471606
1.0535186
1.0602505
1.0673564
1.0748304
1.0826584
1.0908158
1.099265
1.1079526
1.1168066
1.1257351
1.1346256
1.1433475
1.1517578
1.1597095
1.1670638
1.1737033
1.1795443
1.1845449
1.1887078
1.1920766
1.194727
1.1967548
1.1982644
1.1993582
1.2001298
1.2006594
1.2010129
1.2012419
1.2013853
1.2014719
1.2015219
1.2015493
1.2015635
1.2015703
1.2015733
1.2015745
1.2015749
1.2015749
1.2015749
1.2015749
1.0050072
1.0084609
1.0121801
1.0161797
1.0204745
1.0250789
1.030007
1.0352724
1.0408872
1.0468621
1.0532052
1.0599214
1.0670113
1.0744689
1.0822807
1.0904226
1.0988577
1.1075333
1.1163786
1.1253027
1.1341942
1.1429237
1.1513488
1.1593226
1.166706
1.1733805
1.1792605
1.184302
1.1885055
1.1919126
1.1945975
1.196655
1.1981893
1.199303
1.20009
1.2006313
1.2009934
1.2012285
1.2013762
1.2014657
1.2015176
1.2015463
1.2015612
1.2015684
1.2015716
1.2015729
1.2015733
1.2015734
1.2015734
1.2015734
1.0048111
1.0082571
1.0119681
1.0159587
1.0202437
1.0248376
1.0297544
1.0350076
1.0406094
1.0465705
1.052899
1.0596
1.0666741
1.0741158
1.0819117
1.0900384
1.0984595
1.1071233
1.1159599
1.1248794
1.1337717
1.1425083
1.1509474
1.1589426
1.1663542
1.1730626
1.1789806
1.1840621
1.1883054
1.1917502
1.194469
1.1965559
1.1981147
1.199248
1.2000503
1.2006032
1.2009738
1.2012151
1.2013671
1.2014595
1.2015133
1.2015432
1.2015588
1.2015665
1.2015699
1.2015713
1.2015718
1.2015719
1.2015719
1.2015719
1.0046195
1.008058
1.0117609
1.0157427
1.0200182
1.0246018
1.0295076
1.0347489
1.040338
1.0462855
1.0525998
1.0592859
1.0663446
1.0737706
1.081551
1.0896627
1.0980701
1.1067223
1.1155501
1.1244649
1.1333577
1.1421009
1.1505534
1.1585692
1.1660081
1.1727495
1.1787046
1.1838252
1.1881075
1.1915892
1.1943415
1.1964574
1.1980403
1.1991931
1.2000106
1.2005751
1.2009542
1.2012015
1.2013579
1.2014532
1.201509
1.2015401
1.2015565
1.2015646
1.2015682
1.2015697
1.2015703
1.2015704
1.2015704
1.2015704
1.004432
1.0078633
1.0115582
1.0155315
1.0197977
1.0243712
1.0292662
1.0344959
1.0400726
1.0460069
1.0523072
1.0589787
1.0660223
1.073433
1.0811982
1.0892952
1.0976892
1.1063297
1.1151489
1.124059
1.1329519
1.1417013
1.1501667
1.1582022
1.1656675
1.172441
1.1784322
1.1835911
1.1879117
1.1914297
1.1942149
1.1963595
1.1979663
1.1991384
1.199971
1.2005469
1.2009345
1.2011879
1.2013486
1.2014468
1.2015046
1.2015369
1.2015541
1.2015626
1.2015665
1.2015681
1.2015687
1.2015689
1.2015689
1.2015689
1.0042487
1.0076728
1.01136
1.0153249
1.019582
1.0241457
1.0290301
1.0342484
1.039813
1.0457344
1.0520211
1.0586783
1.0657071
1.0731028
1.080853
1.0889356
1.0973163
1.1059454
1.1147559
1.1236611
1.132554
1.1413091
1.1497868
1.1578414
1.1653323
1.172137
1.1781635
1.1833598
1.1877179
1.1912717
1.1940893
1.1962622
1.1978927
1.1990839
1.1999315
1.2005187
1.2009148
1.2011743
1.2013392
1.2014404
1.2015001
1.2015337
1.2015517
1.2015606
1.2015648
1.2015665
1.2015672
1.2015674
1.2015674
1.2015674
1.0040693
1.0074864
1.011166
1.0151227
1.0193709
1.023925
1.0287991
1.0340063
1.039559
1.0454677
1.051741
1.0583843
1.0653987
1.0727796
1.0805151
1.0885836
1.0969511
1.105569
1.1143709
1.1232711
1.1321637
1.1409242
1.1494136
1.1574866
1.1650023
1.1718373
1.1778983
1.1831312
1.1875261
1.191115
1.1939647
1.1961654
1.1978194
1.1990295
1.199892
1.2004906
1.200895
1.2011606
1.2013298
1.2014339
1.2014956
1.2015305
1.2015492
1.2015586
1.201563
1.2015649
1.2015656
1.2015658
1.2015659
1.2015659
1.0038936
1.0073039
1.0109761
1.0149247
1.0191642
1.023709
1.0285729
1.0337692
1.0393103
1.0452067
1.0514669
1.0580965
1.0650967
1.0724632
1.0801843
1.0882388
1.0965934
1.1052001
1.1139934
1.1228886
1.1317808
1.1405463
1.1490469
1.1571376
1.1646773
1.1715419
1.1776364
1.1829052
1.1873362
1.1909598
1.193841
1.1960693
1.1977464
1.1989754
1.1998525
1.2004624
1.2008751
1.2011468
1.2013203
1.2014274
1.201491
1.2015272
1.2015467
1.2015566
1.2015613
1.2015633
1.2015641
1.2015643
1.2015644
1.2015644
1.0037215
1.0071251
1.0107901
1.0147308
1.0189618
1.0234974
1.0283514
1.0335371
1.0390667
1.044951
1.0511984
1.0578146
1.0648009
1.0721532
1.0798602
1.087901
1.0962429
1.1048386
1.1136233
1.1225134
1.1314049
1.140175
1.1486864
1.1567942
1.1643573
1.1712506
1.177378
1.1826818
1.1871483
1.1908058
1.1937182
1.1959737
1.1976737
1.1989213
1.1998132
1.2004342
1.2008553
1.201133
1.2013107
1.2014208
1.2014864
1.2015239
1.2015442
1.2015546
1.2015595
1.2015617
1.2015625
1.2015628
1.2015628
1.2015629
1.0035529
1.00695
1.0106078
1.0145408
1.0187635
1.02329
1.0281343
1.0333096
1.0388281
1.0447005
1.0509354
1.0575384
1.064511
1.0718495
1.0795426
1.08757
1.0958993
1.104484
1.1132603
1.1221452
1.1310358
1.1398103
1.1483319
1.1564562
1.164042
1.1709633
1.1771227
1.182461
1.1869623
1.1906533
1.1935962
1.1958787
1.1976014
1.1988675
1.1997738
1.200406
1.2008354
1.2011191
1.2013011
1.2014141
1.2014818
1.2015206
1.2015417
1.2015526
1.2015578
1.20156
1.2015609
1.2015613
1.2015613
1.2015613
1.0033877
1.0067783
1.0104292
1.0143547
1.0185691
1.0230868
1.0279216
1.0330867
1.0385943
1.044455
1.0506776
1.0572677
1.064227
1.0715518
1.0792313
1.0872454
1.0955624
1.1041363
1.1129041
1.1217838
1.1306733
1.1394518
1.1479832
1.1561236
1.1637313
1.1706799
1.1768706
1.1822426
1.1867781
1.190502
1.1934752
1.1957843
1.1975294
1.1988138
1.1997346
1.2003778
1.2008154
1.2011051
1.2012914
1.2014074
1.2014771
1.2015172
1.2015391
1.2015505
1.201556
1.2015584
1.2015594
1.2015597
1.2015598
1.2015598
1.0032256
1.00661
1.010254
1.0141721
1.0183786
1.0228876
1.0277131
1.0328681
1.038365
1.0442143
1.0504248
1.0570023
1.0639485
1.0712599
1.0789259
1.086927
1.0952319
1.1037951
1.1125545
1.1214289
1.1303172
1.1390995
1.1476403
1.155796
1.1634251
1.1704003
1.1766216
1.1820265
1.1865956
1.190352
1.193355
1.1956903
1.1974577
1.1987602
1.1996954
1.2003496
1.2007954
1.2010911
1.2012817
1.2014007
1.2014723
1.2015137
1.2015365
1.2015484
1.2015542
1.2015568
1.2015578
1.2015582
1.2015583