/*--------------------------------*- C++ -*----------------------------------*\
| =========                 |                                                 |
| \\      /  F ield         | OpenFOAM: The Open Source CFD Toolbox           |
|  \\    /   O peration     | Version:  4.0                                   |
|   \\  /    A nd           | Web:      www.OpenFOAM.org                      |
|    \\/     M anipulation  |                                                 |
\*---------------------------------------------------------------------------*/
FoamFile
{
    version     2.0;
    format      ascii;
    class       surfaceScalarField;
    location    "586";
    object      snGradRho;
}
// * * * * * * * * * * * * * * * * * * * * * * * * * * * * * * * * * * * * * //

dimensions      [1 -4 0 0 0 0 0];

internalField   nonuniform List<scalar> 
9850
(
61.955231
-1.4353629
60.451918
-1.4935099
58.530442
-1.5536925
56.172513
-1.6133871
53.374864
-1.6693621
50.152948
-1.7177285
46.543815
-1.7540879
42.607466
-1.7737989
38.42603
-1.7723688
34.100308
-1.7459533
29.743599
-1.6919159
25.473309
-1.609367
21.401367
-1.4995701
17.62489
-1.3661037
14.21861
-1.214685
11.23028
-1.0526315
8.679626
-0.88802045
6.560668
-0.72869987
4.8465949
-0.58135605
3.4960012
-0.45083569
2.4592885
-0.33984497
1.6842866
-0.24903804
1.1205534
-0.17740495
0.72220948
-0.12281343
0.44946536
-0.082558732
0.26850275
-0.05381809
0.15357298
-0.033916852
0.083739723
-0.020597429
0.043316928
-0.012009625
0.021147386
-0.0066985861
0.0096921617
-0.0035656662
0.0041475016
-0.0018144028
0.0016479642
-0.00089337484
0.00060458919
-0.0004410484
0.00020362861
-0.00023518683
6.2591965e-05
-0.00014901762
1.7447356e-05
-0.00011608717
4.3771603e-06
-0.0001046739
9.79736e-07
-0.00010110329
1.9745224e-07
-0.0001000926
4.4831898e-08
-9.9825685e-05
2.5748152e-08
-9.9750211e-05
3.0818382e-08
-9.9717989e-05
4.0142025e-08
-9.9693494e-05
4.8472745e-08
-9.9668492e-05
6.3403988e-08
-9.9643092e-05
4.1183115e-08
-9.9623401e-05
-7.7072778e-08
-9.9678175e-05
-1.1170449e-06
-0.00010008837
-0.00010139495
53.126625
-0.58345712
52.145554
-0.60717509
51.041008
-0.63276225
49.788657
-0.66000496
48.360595
-0.68850089
46.726413
-0.71759835
44.855229
-0.74633482
42.718829
-0.77338607
40.295963
-0.79704351
37.577559
-0.81524164
34.572303
-0.82565917
31.311603
-0.82591146
27.852644
-0.81383666
24.278098
-0.78785169
20.691356
-0.74732094
17.20707
-0.69285145
13.938108
-0.62641739
10.981462
-0.55124065
8.4064051
-0.47141483
6.2477948
-0.39134083
4.5058708
-0.3151089
3.1518782
-0.24598093
2.1372664
-0.18608662
1.4037186
-0.13636978
0.89178255
-0.096743263
0.54692238
-0.066365537
0.32296301
-0.043946279
0.18302101
-0.028022401
0.099131512
-0.017153958
0.05107697
-0.010046061
0.024900652
-0.0056102715
0.011418447
-0.0029827886
0.0048940011
-0.0015148862
0.0019475407
-0.00074688532
0.00071462845
-0.00037343723
0.00024011306
-0.0002059909
7.3377503e-05
-0.00013731029
2.028322e-05
-0.00011174196
5.0725582e-06
-0.0001031649
1.1800118e-06
-0.00010058513
2.9739202e-07
-9.988601e-05
1.2376785e-07
-9.9706164e-05
9.8554079e-08
-9.9650522e-05
1.0299035e-07
-9.96188e-05
1.065139e-07
-9.9589246e-05
1.0430758e-07
-9.9562721e-05
-6.2246905e-08
-9.9564906e-05
-7.8119614e-07
-9.9703571e-05
-3.1558692e-06
-0.00010033699
-0.00010182359
49.525465
-0.3390498
48.614034
-0.35276782
47.623067
-0.36765008
46.538744
-0.38367472
45.343985
-0.40075395
44.018265
-0.41870501
42.537825
-0.4372144
40.87654
-0.45579706
39.007734
-0.47375491
36.907201
-0.49014362
34.557546
-0.50376135
31.953663
-0.51317751
29.108662
-0.51682103
26.058985
-0.51314136
22.866978
-0.50083955
19.619196
-0.47914009
16.419366
-0.44804474
13.376496
-0.40848979
10.590342
-0.36233554
8.1378134
-0.31215822
6.0638585
-0.26087937
4.3789702
-0.21132678
3.0631934
-0.16584441
2.0745927
-0.12604391
1.3592944
-0.092733441
0.86056928
-0.066000501
0.52547524
-0.045389342
0.30866814
-0.030108354
0.17382959
-0.019216665
0.093453198
-0.011764928
0.047718493
-0.0068858503
0.023006626
-0.0038421256
0.010405417
-0.0020435051
0.0043837537
-0.0010437098
0.0017076171
-0.00052503762
0.00061035569
-0.00027604583
0.00019867385
-0.00016641366
5.8491569e-05
-0.00012253216
1.5519398e-05
-0.0001067016
3.7536029e-06
-0.00010159157
8.992221e-07
-0.00010011923
2.9302636e-07
-9.9733374e-05
1.8627582e-07
-9.9630566e-05
1.7728163e-07
-9.9591149e-05
1.6712546e-07
-9.9566242e-05
9.9770132e-08
-9.9555473e-05
-3.2409034e-07
-9.9610759e-05
-1.8684921e-06
-9.985719e-05
-5.4756005e-06
-0.00010060973
-0.0001018166
47.442624
-0.24061266
46.559998
-0.25031443
45.612574
-0.26086163
44.590886
-0.27226872
43.482953
-0.28451746
42.273925
-0.2975403
40.945901
-0.31119855
39.478098
-0.32525538
37.847593
-0.33934477
36.030913
-0.3529396
34.006747
-0.36532548
31.759924
-0.37559075
29.286524
-0.38264718
26.599516
-0.38529709
23.733699
-0.38235846
20.748223
-0.3728467
17.724903
-0.35618939
14.761273
-0.33242532
11.958877
-0.30232258
9.4091703
-0.26735865
7.1806614
-0.22954206
5.3107958
-0.19111089
3.8044384
-0.15418939
2.6385365
-0.12049703
1.7707131
-0.091177598
1.1489208
-0.066766771
0.7198115
-0.047271719
0.43458402
-0.032313007
0.25214112
-0.021279504
0.14006427
-0.013462699
0.0741511
-0.0081556059
0.037205619
-0.0047156142
0.017580262
-0.0025979219
0.007767346
-0.0013678327
0.0031841859
-0.0006987683
0.0012013596
-0.00036087317
0.000413713
-0.00020385324
0.00012901219
-0.00013733698
3.6212593e-05
-0.0001118902
9.1735567e-06
-0.00010317656
2.1904196e-06
-0.0001005246
6.0576359e-07
-9.9806555e-05
2.9527565e-07
-9.9627149e-05
2.3989177e-07
-9.9578249e-05
1.9173377e-07
-9.9564035e-05
-1.5072332e-08
-9.9578691e-05
-7.8943071e-07
-9.9691727e-05
-3.1602728e-06
-0.00010002391
-7.3588256e-06
-0.0001007902
-0.00010176404
45.96958
-0.18314591
45.104281
-0.19050819
44.181411
-0.19851403
43.193937
-0.20718192
42.132841
-0.21651107
40.98676
-0.22647123
39.741692
-0.23698878
38.380907
-0.24792908
36.885228
-0.25907478
35.233894
-0.27010156
33.40628
-0.28055408
31.384708
-0.28982813
29.158437
-0.29716787
26.728637
-0.30169047
24.113618
-0.30245033
21.353026
-0.29855082
18.509253
-0.28929856
15.664453
-0.27437579
12.912483
-0.25398623
10.346757
-0.22892073
8.0468128
-0.20050237
6.0672297
-0.17040745
4.4319252
-0.14040507
3.1349124
-0.11208851
2.1463946
-0.086671176
1.4216578
-0.064888945
0.91004922
-0.047009872
0.56213937
-0.032920424
0.33428922
-0.022246164
0.19076429
-0.014470957
0.10402501
-0.0090333506
0.053923486
-0.0053932474
0.02640777
-0.0030715528
0.012132031
-0.0016694249
0.0051879684
-0.00087365767
0.0020478209
-0.00045286782
0.00073967264
-0.00024748537
0.00024237034
-0.00015585852
7.1498662e-05
-0.00011886559
1.8935903e-05
-0.0001054808
4.5932409e-06
-0.00010117897
1.1515126e-06
-9.9957606e-05
4.3049899e-07
-9.9649408e-05
2.7562213e-07
-9.9577943e-05
1.5824261e-07
-9.957251e-05
-2.4987676e-07
-9.9614332e-05
-1.4167061e-06
-9.9777899e-05
-4.4756469e-06
-0.0001001752
-8.8784325e-06
-0.00010092225
-0.00010172896
44.851747
-0.14767397
43.999321
-0.15359645
43.093917
-0.1600385
42.129961
-0.16701963
41.100246
-0.17454656
39.995578
-0.18260599
38.804468
-0.19115482
37.512952
-0.20010734
36.104653
-0.20931923
34.561284
-0.21856886
32.863795
-0.22753742
30.994427
-0.23579132
28.939831
-0.24277272
26.695249
-0.24780678
24.269373
-0.25013595
21.688962
-0.24899048
19.001789
-0.24369753
16.276207
-0.23381827
13.596119
-0.21928491
11.051334
-0.20049535
8.725084
-0.17832333
6.6819072
-0.15402268
4.959293
-0.12904101
3.5652261
-0.10479289
2.4816222
-0.08245721
1.6717873
-0.062848839
1.0892321
-0.046383157
0.6855416
-0.033119135
0.41600017
-0.022848745
0.24271113
-0.015198754
0.13563674
-0.0097207757
0.072251826
-0.0059582584
0.036469881
-0.0034893951
0.017323271
-0.0019505404
0.0076833324
-0.0010459914
0.0031549943
-0.00054883045
0.0011886855
-0.00029574258
0.00040716324
-0.00017761257
0.00012570066
-0.00012758243
3.4771715e-05
-0.00010855603
8.6803609e-06
-0.00010212323
2.0890438e-06
-0.00010020612
6.2811969e-07
-9.9705797e-05
2.892781e-07
-9.9594954e-05
6.2675746e-08
-9.9594935e-05
-5.8964799e-07
-9.9664143e-05
-2.1669313e-06
-9.9869274e-05
-5.7580038e-06
-0.00010030821
-1.0137251e-05
-0.00010101046
-0.00010166088
43.952523
-0.12299586
43.110195
-0.1279187
42.218046
-0.13327359
41.271527
-0.13907897
40.264704
-0.14534422
39.189929
-0.15206437
38.037531
-0.15921285
36.795589
-0.16673186
35.449881
-0.17452012
33.984165
-0.18241817
32.380983
-0.19019192
30.623201
-0.19751676
28.696504
-0.20396606
26.592907
-0.20901039
24.315125
-0.21203547
21.881142
-0.21238758
19.32786
-0.20945162
16.712254
-0.2027583
14.108585
-0.19210356
11.601045
-0.17764889
9.2727654
-0.15996475
7.1937223
-0.13998907
5.4108902
-0.11889912
3.9433676
-0.09792778
2.7833941
-0.078176526
1.9021432
-0.060475999
1.2579175
-0.0453222
0.80427481
-0.032887361
0.4963952
-0.023082804
0.29504365
-0.015643921
0.16831156
-0.010212462
0.09174197
-0.0064018621
0.047513186
-0.0038414978
0.023224156
-0.0022023948
0.010631591
-0.0012094699
0.0045193376
-0.00064506672
0.0017675758
-0.0003468903
0.00063003321
-0.00020199146
0.0002027485
-0.00013792031
5.8451999e-05
-0.00011242221
1.509569e-05
-0.00010338723
3.6110183e-06
-0.00010056579
9.3463113e-07
-9.9798815e-05
2.8932555e-07
-9.9627488e-05
-9.5470455e-08
-9.9627981e-05
-1.0157599e-06
-9.972244e-05
-2.9957894e-06
-9.9959498e-05
-6.9634534e-06
-0.00010041751
-1.1152175e-05
-0.00010106137
-0.00010156732
43.205076
-0.10513678
42.371116
-0.10933761
41.489688
-0.11390721
40.556986
-0.11886279
39.568008
-0.12421476
38.51625
-0.12996275
37.393399
-0.13608986
36.189089
-0.1425552
34.890786
-0.14928413
33.483931
-0.15615642
31.952516
-0.16299253
30.280268
-0.16953972
28.452679
-0.17546048
26.459988
-0.18032799
24.301061
-0.18363513
21.987743
-0.18482433
19.548778
-0.18334437
17.031931
-0.17873442
14.502821
-0.17072549
12.039488
-0.1593364
9.7229718
-0.14493269
7.6258051
-0.12821925
5.8014606
-0.11015548
4.2777549
-0.09180957
3.0558044
-0.074192435
2.1141459
-0.058117991
1.4160578
-0.044122982
0.91762264
-0.032454399
0.57457166
-0.023110455
0.34693176
-0.015910053
0.20140394
-0.010566787
0.11195446
-0.0067515346
0.059275905
-0.0041371044
0.029701567
-0.0024254816
0.01397861
-0.0013617469
0.0061267437
-0.0007392659
0.0024776455
-0.00039952123
0.00091545184
-0.00022838599
0.00030600359
-0.00014970976
9.171142e-05
-0.00011707288
2.4537222e-05
-0.00010499492
5.9441361e-06
-0.00010105225
1.4083979e-06
-9.9933766e-05
2.8808731e-07
-9.9675264e-05
-3.1132009e-07
-9.9668865e-05
-1.5081914e-06
-9.9784074e-05
-3.8606514e-06
-0.00010004443
-8.0686941e-06
-0.00010050491
-1.1941661e-05
-0.00010108744
-0.00010146799
42.567254
-0.091581928
41.740423
-0.095235624
40.867949
-0.099209967
39.946602
-0.10352083
38.9721
-0.10817887
37.938826
-0.11318631
36.839532
-0.11853238
35.665083
-0.12418724
34.404303
-0.13009413
33.044034
-0.13615948
31.569538
-0.14224148
29.96544
-0.14813779
28.217402
-0.1535746
26.314675
-0.15820041
24.253562
-0.16158967
22.041478
-0.16326268
19.700932
-0.16272768
17.272225
-0.15954735
14.813447
-0.1534243
12.396599
-0.14428937
10.099655
-0.13236647
7.9958888
-0.11818651
6.143135
-0.10253423
4.5760118
-0.086334208
3.3031894
-0.070506259
2.309937
-0.055831401
1.5644533
-0.042862946
1.0256454
-0.03189715
0.65024188
-0.022996422
0.39797734
-0.016044993
0.23453672
-0.010814682
0.13259376
-0.0070241282
0.071559049
-0.0043831426
0.03664091
-0.0026209932
0.017670041
-0.0015015865
0.0079582355
-0.00082979357
0.0033162854
-0.00045246708
0.001265932
-0.00025620653
0.00043816729
-0.00016274498
0.00013617263
-0.000122474
3.7730768e-05
-0.0001069593
9.3465336e-06
-0.00010167916
2.1232287e-06
-0.00010011702
3.0417179e-07
-9.9739785e-05
-5.7458448e-07
-9.9716948e-05
-2.0490288e-06
-9.9846907e-05
-4.7301687e-06
-0.00010012266
-9.0686447e-06
-0.00010057343
-1.2535485e-05
-0.00010109389
-0.00010136426
42.012504
-0.08098369
41.191887
-0.084210207
40.327098
-0.087719744
39.415359
-0.091526957
38.452966
-0.095642377
37.435009
-0.10006975
36.355096
-0.10480231
35.205093
-0.10981779
33.974943
-0.11507186
32.652663
-0.12048983
31.224633
-0.12595688
29.676345
-0.1313073
27.993807
-0.13631432
26.165754
-0.14068314
24.186738
-0.14405149
22.060903
-0.14600279
19.805901
-0.14609787
17.455936
-0.14392806
15.062593
-0.13918747
12.692204
-0.13175246
10.419239
-0.12174754
8.3165669
-0.10957239
6.4448443
-0.095871554
4.8439778
-0.081446428
3.5290348
-0.067130752
2.4913665
-0.053665158
1.703911
-0.041604588
1.1285444
-0.031277168
0.72329561
-0.02279319
0.44794384
-0.016088679
0.26745502
-0.01098326
0.15344271
-0.0072356796
0.084204788
-0.0045873814
0.043943433
-0.0027914604
0.0216539
-0.0016288778
0.009992323
-0.0009156866
0.0042780506
-0.00050484326
0.0016822764
-0.0002849308
0.00060124545
-0.00017681045
0.00019328511
-0.00012857298
5.5399948e-05
-0.00010928363
1.4098518e-05
-0.0001024571
3.1663961e-06
-0.00010035426
3.615774e-07
-9.9822295e-05
-8.7155364e-07
-9.9771326e-05
-2.6218488e-06
-9.9909142e-05
-5.5813638e-06
-0.00010019286
-9.9620403e-06
-0.00010062514
-1.2957371e-05
-0.00010108335
-0.00010125477
41.522614
-0.072479592
40.707504
-0.075363767
39.849435
-0.078500773
38.946002
-0.081904169
37.993969
-0.085584171
36.989008
-0.089545424
35.925434
-0.093783911
34.79594
-0.098282728
33.59141
-0.10300654
32.300864
-0.10789453
30.91166
-0.11285193
29.410104
-0.11774051
27.782634
-0.12236926
26.017752
-0.12648723
24.108799
-0.12978208
22.057451
-0.13188881
19.877517
-0.13241381
17.59817
-0.13097779
15.265376
-0.12727703
12.940256
-0.12115443
10.693639
-0.11266374
8.5972644
-0.10210431
6.713498
-0.090007519
5.0863412
-0.077069605
3.7362697
-0.064045291
2.6600947
-0.051632084
1.8352501
-0.040377355
1.2266253
-0.030629067
0.79375443
-0.022533466
0.4967172
-0.016068088
0.30000012
-0.011092305
0.17434938
-0.0073989633
0.097092882
-0.0047568027
0.051527617
-0.0029397848
0.02588326
-0.0017441623
0.012207093
-0.00099648697
0.0053557209
-0.00055602859
0.0021639217
-0.0003141255
0.00079658406
-0.00019170004
0.00026429278
-0.00013530733
7.8243901e-05
-0.00011196397
2.0495285e-05
-0.00010339427
4.6374304e-06
-0.00010065093
4.8970104e-07
-9.9924229e-05
-1.1864767e-06
-9.9831193e-05
-3.211196e-06
-9.9969484e-05
-6.3976554e-06
-0.00010025444
-1.0748576e-05
-0.00010066247
-1.3224863e-05
-0.00010105956
-0.00010114262
41.084702
-0.065515143
40.274537
-0.068119271
39.422436
-0.070951523
38.526304
-0.074024477
37.583296
-0.077347954
36.58957
-0.080927129
35.540033
-0.084759897
34.42808
-0.088833275
33.245394
-0.093118639
31.98186
-0.097565637
30.625702
-0.10209479
29.163977
-0.10658904
27.583586
-0.11088521
25.872979
-0.11476695
24.024652
-0.11796203
22.038389
-0.12014799
19.924914
-0.1209705
17.709205
-0.12007845
15.432363
-0.11717603
13.150766
-0.11208616
10.931625
-0.10481163
8.8450987
-0.095574256
6.9544539
-0.084813417
5.3068419
-0.073135596
3.9273084
-0.061224017
2.8175491
-0.049732958
1.9592242
-0.039196529
1.3202164
-0.029974095
0.86170016
-0.022238898
0.54425213
-0.016002086
0.3320742
-0.0111564
0.1952076
-0.0075239657
0.11013237
-0.0048973053
0.059327339
-0.0030687592
0.030317117
-0.0018482585
0.014581511
-0.001072042
0.0065411551
-0.00060559376
0.0027092921
-0.00034343464
0.0010249475
-0.00020722114
0.00035022398
-0.00014260806
0.0001069211
-0.00011499002
2.8840458e-05
-0.00010449642
6.6469547e-06
-0.0001010122
7.2356986e-07
-0.00010004745
-1.5024862e-06
-9.9896292e-05
-3.8031163e-06
-0.00010002737
-7.1681541e-06
-0.00010030765
-1.1430208e-05
-0.00010068783
-1.3354475e-05
-0.00010102594
-0.00010103074
40.689311
-0.059712945
39.883632
-0.062084
39.036895
-0.064662608
38.147267
-0.067460478
37.212233
-0.070487006
36.228367
-0.073747658
35.191078
-0.077241697
34.094363
-0.080959073
32.930595
-0.084876287
31.690413
-0.088951077
30.362811
-0.093115885
28.935534
-0.097270325
27.395957
-0.10127333
25.73259
-0.10493634
23.93734
-0.10801986
22.008525
-0.11023684
19.954357
-0.11126686
17.796287
-0.11078496
15.571184
-0.10850626
13.331123
-0.10424248
11.139814
-0.097959434
9.0655627
-0.089818386
7.1719417
-0.080183319
5.5085041
-0.069583954
4.1041552
-0.058639302
2.9649545
-0.047961689
2.0765107
-0.038068603
1.4096409
-0.029324753
0.92724385
-0.021923642
0.59054421
-0.015903781
0.36361933
-0.011186186
0.21594345
-0.0076183561
0.1232546
-0.0050137106
0.067289355
-0.0031808878
0.034920229
-0.0019420787
0.017096035
-0.0011423885
0.0078258531
-0.0006532528
0.0033160843
-0.00037257027
0.0012865995
-0.0002231979
0.00045189107
-0.000150403
0.00014203634
-0.00011834612
3.943937e-05
-0.00010576667
9.3147456e-06
-0.00010144266
1.1035549e-06
-0.00010019399
-1.8020076e-06
-9.9966708e-05
-4.3853264e-06
-0.00010008258
-7.8860646e-06
-0.000100353
-1.2010589e-05
-0.00010070313
-1.3361976e-05
-0.00010098483
-0.00010092053
40.329308
-0.054808968
39.527734
-0.056983213
38.685867
-0.059347641
37.802097
-0.061913185
36.874193
-0.064688818
35.899086
-0.067680143
34.872621
-0.070887416
33.789316
-0.074302825
32.642145
-0.077906865
31.422412
-0.081663648
30.119797
-0.085515099
28.72268
-0.089374186
27.218901
-0.093117712
25.597102
-0.096579789
23.84879
-0.099547984
21.971126
-0.10176504
19.970262
-0.10293989
17.864655
-0.1027715
15.687474
-0.10098731
13.486899
-0.097393613
11.323295
-0.091929323
9.2629623
-0.084707975
7.3693444
-0.076031343
5.6937963
-0.066363279
4.2684832
-0.056265249
3.1033594
-0.046309652
2.1877108
-0.036995453
1.4952032
-0.028688421
0.99050758
-0.021597116
0.63561259
-0.015782453
0.39460342
-0.01118956
0.23650551
-0.0076880915
0.13640751
-0.0051099648
0.075370808
-0.0032783761
0.039662544
-0.0020265491
0.019732862
-0.001207686
0.0092013241
-0.00069883171
0.0039814955
-0.00040130585
0.001581384
-0.00023947416
0.00056989832
-0.00015862001
0.00018413157
-0.00012201264
5.2592913e-05
-0.00010720575
1.2767648e-05
-0.00010194621
1.6748923e-06
-0.00010036594
-2.0667758e-06
-0.00010004282
-4.9470654e-06
-0.00010013515
-8.5472287e-06
-0.00010039118
-1.2494143e-05
-0.00010071003
-1.3261634e-05
-0.00010093821
-0.0001008134
39.999187
-0.050612809
39.201398
-0.052618795
38.363987
-0.054800114
37.48554
-0.057167007
36.564075
-0.059728034
35.59683
-0.062488838
34.580033
-0.065450404
33.508656
-0.068606659
32.376206
-0.07194126
31.174575
-0.075423429
29.894059
-0.079002757
28.523623
-0.082603083
27.051557
-0.086115864
25.466682
-0.089393972
23.760236
-0.092247591
21.928469
-0.094444769
19.97582
-0.095719952
17.918187
-0.095793836
15.785489
-0.094406622
13.622375
-0.091363106
11.486048
-0.086582571
9.4407259
-0.080140643
7.5494025
-0.072287417
5.8647552
-0.063429986
4.4216994
-0.054078345
3.2336657
-0.044767313
2.2933556
-0.035976398
1.5771838
-0.028069322
1.0516148
-0.021265666
0.67948967
-0.015644765
0.42501121
-0.011172433
0.25685823
-0.0077377941
0.14955157
-0.0051892582
0.083537183
-0.0033631076
0.044518558
-0.0021025435
0.022475988
-0.0012681564
0.010659335
-0.00074223404
0.0047024094
-0.0004294642
0.0019088045
-0.00025591241
0.00070465679
-0.00016718863
0.00023368059
-0.00012596692
6.859229e-05
-0.00010881219
1.713753e-05
-0.00010252608
2.4871345e-06
-0.00010056546
-2.2777519e-06
-0.00010012533
-5.4789111e-06
-0.00010018541
-9.1493248e-06
-0.00010042303
-1.2885824e-05
-0.00010071006
-1.3066875e-05
-0.00010088787
-0.00010071098
39.694613
-0.046983847
38.900334
-0.048844434
38.067031
-0.050867522
37.19346
-0.053062734
36.277855
-0.055438237
35.317729
-0.057999651
34.309645
-0.060748497
33.248979
-0.063680073
32.129706
-0.066780579
30.944248
-0.070023392
29.683458
-0.073364384
28.336836
-0.076736362
26.893105
-0.080042953
25.341297
-0.083152731
23.672476
-0.085894998
21.882169
-0.088059479
19.973381
-0.089402899
17.959808
-0.089665629
15.868498
-0.08860057
13.740899
-0.086013561
11.631234
-0.081809682
9.6016198
-0.076034262
7.7143634
-0.068894171
6.0230778
-0.0607474
4.5649958
-0.052057874
3.3566511
-0.043325286
2.393914
-0.035009404
1.6558391
-0.02746967
1.1106858
-0.02093354
0.72221501
-0.015495517
0.45483863
-0.011139253
0.27697734
-0.0077710739
0.1626566
-0.0052541813
0.091760556
-0.0034366867
0.049466633
-0.0021708581
0.025311124
-0.0013240465
0.012192048
-0.00078341504
0.005475533
-0.00045690676
0.0022680933
-0.0002723919
0.00085640147
-0.00017604083
0.00029108635
-0.00013018401
8.7714439e-05
-0.00011058247
2.2559193e-05
-0.00010318474
3.5935261e-06
-0.00010079471
-2.4150438e-06
-0.00010021517
-5.9725124e-06
-0.00010023389
-9.6913346e-06
-0.00010044944
-1.319104e-05
-0.00010070456
-1.2790854e-05
-0.00010083531
-0.00010061457
39.412115
-0.043816118
38.621109
-0.045549877
37.791614
-0.047434949
36.922537
-0.049480398
36.012306
-0.051694022
35.058676
-0.054081373
34.058506
-0.056644373
33.007532
-0.059379408
31.900151
-0.062274751
30.729259
-0.065307202
29.486214
-0.068437845
28.161013
-0.071606973
26.74279
-0.074728438
25.220804
-0.077684093
23.586022
-0.080319552
21.833392
-0.082443243
19.964709
-0.083831456
17.991763
-0.084242337
15.939056
-0.083441122
13.845126
-0.081236429
11.761399
-0.077523154
9.7479033
-0.072322244
7.8660889
-0.065804258
6.1701909
-0.058284516
4.6993899
-0.050185644
3.4729909
-0.041974664
2.4898007
-0.034091718
1.7314015
-0.026890391
1.1678349
-0.02060355
0.7638315
-0.015338177
0.4840889
-0.011093377
0.29684664
-0.00779075
0.17569951
-0.0053068234
0.10001827
-0.003500461
0.054488387
-0.0022322064
0.028225555
-0.0013756132
0.013792086
-0.00082236806
0.0062974939
-0.00048352647
0.002658269
-0.00028880721
0.0010252089
-0.00018511179
0.00035667994
-0.0001346373
0.00011021812
-0.00011251125
2.9168295e-05
-0.00010392385
5.0503638e-06
-0.00010105575
-2.4578213e-06
-0.00010031344
-6.4202663e-06
-0.00010028124
-1.0173093e-05
-0.00010047127
-1.3415483e-05
-0.00010069468
-1.2446402e-05
-0.00010078177
-0.0001005251
39.148874
-0.041028272
38.360933
-0.042650491
37.534987
-0.044414184
36.670077
-0.046327914
35.764804
-0.048399131
34.817136
-0.050633291
33.824203
-0.053032618
32.782061
-0.055594373
31.685486
-0.058308536
30.527805
-0.061154754
29.300836
-0.064098482
27.995033
-0.067086327
26.599924
-0.070040819
25.105004
-0.072855144
23.501198
-0.075388947
21.782988
-0.077466924
19.951148
-0.078882618
18.015802
-0.079410263
15.999186
-0.078826887
13.937189
-0.076945007
11.878616
-0.073652336
9.8814413
-0.068950189
8.0061367
-0.06297839
6.3073042
-0.056015074
4.8257565
-0.048445817
3.5832738
-0.040707269
2.5813837
-0.033220366
1.804082
-0.026331727
1.2231696
-0.020277632
0.80438316
-0.015175363
0.51276989
-0.011037447
0.3164557
-0.0077991048
0.18866254
-0.005348922
0.10829181
-0.003555585
0.059568148
-0.0022872285
0.031207982
-0.0014231097
0.015452563
-0.00085911182
0.0071649125
-0.00050924215
0.0030781857
-0.00030506706
0.0012110147
-0.00019434051
0.00043072147
-0.00013929926
0.00013634075
-0.00011459156
3.7099377e-05
-0.00010474424
6.9163678e-06
-0.00010135051
-2.3842595e-06
-0.00010042135
-6.815002e-06
-0.00010032825
-1.0594955e-05
-0.00010048938
-1.3564989e-05
-0.00010068141
-1.2045879e-05
-0.00010072828
-0.00010044326
38.902569
-0.038556909
38.117509
-0.040080313
37.294885
-0.041736477
36.433858
-0.043533511
35.533182
-0.045478539
34.591022
-0.047576906
33.604745
-0.049831053
32.5707
-0.052238957
31.484005
-0.054792014
30.338378
-0.057472268
29.126062
-0.060248874
27.837932
-0.063073815
26.46389
-0.065877045
24.993671
-0.068561511
23.418199
-0.070999025
21.731586
-0.073028501
19.933733
-0.074458788
18.033305
-0.075078686
16.050513
-0.074676406
14.018824
-0.07306908
11.984591
-0.070139549
10.003789
-0.065873191
8.1358216
-0.060383758
6.4354512
-0.053916827
4.9448524
-0.046824642
3.6880161
-0.039515732
2.6689901
-0.032392364
1.8740717
-0.025793424
1.2767902
-0.019957054
0.84391372
-0.01500901
0.54089262
-0.01097351
0.33579838
-0.0077979576
0.20153209
-0.0053819085
0.11656602
-0.003603046
0.064692537
-0.0023364966
0.034248375
-0.0014667839
0.017167082
-0.00089368548
0.0080744541
-0.00053399405
0.0035265752
-0.00032109318
0.0014136317
-0.00020367015
0.00051340209
-0.00014414188
0.00016629599
-0.00011681506
4.6484007e-05
-0.00010564598
9.2520384e-06
-0.00010168072
-2.1715058e-06
-0.0001005402
-7.1497137e-06
-0.00010037574
-1.0957561e-05
-0.00010050458
-1.364545e-05
-0.00010066562
-1.1601131e-05
-0.00010067569
-0.00010036951
38.671266
-0.036351845
37.888927
-0.037787134
37.069425
-0.039347418
36.212031
-0.04104039
35.315639
-0.042872873
34.378589
-0.044850089
33.398466
-0.046974642
32.371884
-0.049245092
31.294273
-0.051654025
30.159707
-0.054185516
28.960817
-0.056811878
27.688874
-0.059489713
26.334133
-0.062155376
24.886569
-0.064720277
23.337138
-0.067066842
21.679654
-0.069046509
19.913273
-0.070481754
18.045375
-0.071174596
16.094351
-0.070923782
14.091456
-0.069551483
12.080745
-0.066937406
10.116255
-0.06305401
8.2562617
-0.057992812
6.5555214
-0.051970788
5.0573362
-0.045310158
3.7876725
-0.038393383
2.7529123
-0.031604767
1.9415444
-0.02527494
1.32879
-0.019642659
0.88246589
-0.0148406
0.56847005
-0.010903202
0.35487158
-0.0077888148
0.21429777
-0.0054069871
0.12482844
-0.0036436945
0.069850099
-0.0023805239
0.037337828
-0.0015068743
0.018929732
-0.00092614176
0.0090228666
-0.00055773979
0.0040020822
-0.00033681862
0.0016327662
-0.00021304817
0.00060484719
-0.00014913722
0.00020027202
-0.00011917229
5.7449083e-05
-0.00010662834
1.2119013e-05
-0.00010204788
-1.7956951e-06
-0.00010067129
-7.4173385e-06
-0.0001004246
-1.1261661e-05
-0.00010051763
-1.3662739e-05
-0.00010064807
-1.1123359e-05
-0.0001006247
-0.00010030401
38.453343
-0.034372936
37.673578
-0.035729194
36.85702
-0.037203482
36.003039
-0.038803118
35.110656
-0.04053464
34.17837
-0.042403143
33.203963
-0.044411347
32.184292
-0.046558292
31.115071
-0.048837572
29.990703
-0.051234996
28.804177
-0.053725598
27.547132
-0.05626997
26.210155
-0.058810032
24.783462
-0.061264586
23.258066
-0.063525381
21.627542
-0.065454931
19.890405
-0.066887903
18.0529
-0.067638337
16.131779
-0.067514863
14.156267
-0.066344931
12.168268
-0.064006445
10.219947
-0.06046139
8.368416
-0.055782235
6.6682854
-0.05016075
5.1637851
-0.043892023
3.8826457
-0.037334396
2.833412
-0.030854916
2.0066577
-0.024775666
1.3792556
-0.019335018
0.92008086
-0.014671284
0.59551631
-0.010827856
0.37367464
-0.007772927
0.22695171
-0.0054251946
0.13306882
-0.0036782834
0.075031008
-0.0024197796
0.040468434
-0.0015436118
0.020735068
-0.00095654484
0.010007007
-0.00058045292
0.0045032932
-0.00035218762
0.0018680341
-0.0002224267
0.00070512033
-0.0001542578
0.00023843039
-0.0001216529
7.0115342e-05
-0.00010768985
1.5579418e-05
-0.00010245323
-1.2319904e-06
-0.0001008159
-7.610576e-06
-0.00010047573
-1.1507976e-05
-0.00010052926
-1.3622627e-05
-0.00010062941
-1.0622949e-05
-0.00010057586
-0.0001002467
38.247419
-0.032587634
37.470098
-0.03387263
36.656325
-0.03526938
35.805562
-0.036784857
34.916943
-0.038425333
33.989115
-0.040195774
33.020041
-0.042098981
32.006796
-0.044134394
30.94536
-0.046296462
29.830435
-0.048572489
28.655344
-0.050939862
27.412067
-0.053362649
26.091511
-0.055787634
24.684125
-0.058140112
23.180996
-0.060320067
21.575513
-0.062199868
19.865636
-0.063625126
18.056605
-0.064420835
16.163688
-0.06440489
14.214245
-0.06341012
12.248166
-0.061313647
10.315811
-0.058068933
8.4731106
-0.053732094
6.7744145
-0.04847261
5.2647066
-0.042561054
3.973294
-0.036333388
2.910725
-0.030140188
2.0695556
-0.02429481
1.4282676
-0.019034442
0.95679811
-0.014501951
0.62204622
-0.010748546
0.39220853
-0.0077513325
0.23948809
-0.0054373985
0.14127875
-0.0037074597
0.080226849
-0.0024546821
0.043633189
-0.0015772166
0.022578088
-0.00098496785
0.011023864
-0.00060212046
0.0050287628
-0.00036715469
0.0021189763
-0.00023176262
0.00081422775
-0.00015947706
0.0002809056
-0.00012424588
8.459607e-05
-0.0001088284
1.9695246e-05
-0.00010289772
-4.546652e-07
-0.0001009753
-7.7217563e-06
-0.00010053004
-1.169709e-05
-0.00010054015
-1.353071e-05
-0.0001006102
-1.0109323e-05
-0.00010052959
-0.00010019732
38.052315
-0.030969316
37.277319
-0.03218975
36.46619
-0.033516253
35.618469
-0.034955481
34.733397
-0.03651346
33.809755
-0.038195025
32.845673
-0.040003033
31.838428
-0.041937253
30.784242
-0.04399287
29.678096
-0.04615848
28.513623
-0.048413526
27.283122
-0.050725121
25.977801
-0.053044327
24.58834
-0.055302175
23.105913
-0.057405961
21.523764
-0.059236856
19.839373
-0.060650334
18.057083
-0.061481396
16.190819
-0.061556601
14.266223
-0.060714148
12.321294
-0.058831178
10.404663
-0.055854248
8.5710633
-0.051825386
6.8744967
-0.046894316
5.3605501
-0.041309362
4.0599373
-0.035385747
2.9850637
-0.029458318
2.1303693
-0.023831667
1.4759003
-0.018741162
0.99265534
-0.014333295
0.64807491
-0.010666169
0.4104756
-0.0077249255
0.25190268
-0.005444375
0.14945132
-0.0037318161
0.085430387
-0.0024856257
0.046825877
-0.0016079041
0.024454213
-0.0010114923
0.012070569
-0.00062274104
0.0055770358
-0.00038168373
0.0023850727
-0.00024101782
0.00093212359
-0.00016476971
0.00032780516
-0.00012693988
0.00010099606
-0.00011004128
2.4527742e-05
-0.000103382
5.627866e-07
-0.00010115064
-7.7427441e-06
-0.00010058843
-1.1829371e-05
-0.00010055094
-1.3392339e-05
-0.00010059094
-9.5908367e-06
-0.00010048621
-0.00010015544
37.867013
-0.029496013
37.094236
-0.030657697
36.285621
-0.03192028
35.440784
-0.033290126
34.559065
-0.03477303
33.639367
-0.036373698
32.679973
-0.03809502
31.67835
-0.039937045
30.630941
-0.041895587
29.532986
-0.043960372
28.378406
-0.046112642
27.159802
-0.048322189
25.868665
-0.050543862
24.495901
-0.052713782
23.032783
-0.054745768
21.472443
-0.056528891
19.811944
-0.057927548
18.054827
-0.058785909
16.213796
-0.058938638
14.312907
-0.058229236
12.388388
-0.05653545
10.487205
-0.053798251
8.6628995
-0.050047501
6.9690496
-0.045415355
5.4517143
-0.040129927
4.1428624
-0.034487218
3.0566207
-0.028807106
2.1892192
-0.023385439
1.5222233
-0.018455261
1.0276883
-0.0141659
0.67361754
-0.01058149
0.42847914
-0.0076944785
0.26419254
-0.0054467946
0.15758093
-0.003751872
0.090635443
-0.0025129658
0.050041007
-0.0016358789
0.02635927
-0.0010362035
0.01314441
-0.00064232366
0.0061466653
-0.00039574732
0.002665756
-0.00025015907
0.0010587154
-0.00017011201
0.00037921025
-0.00012972338
0.00011941081
-0.00011132528
3.0136842e-05
-0.00010390645
1.8475101e-06
-0.00010134303
-7.6648799e-06