/*--------------------------------*- C++ -*----------------------------------*\
| =========                 |                                                 |
| \\      /  F ield         | OpenFOAM: The Open Source CFD Toolbox           |
|  \\    /   O peration     | Version:  4.0                                   |
|   \\  /    A nd           | Web:      www.OpenFOAM.org                      |
|    \\/     M anipulation  |                                                 |
\*---------------------------------------------------------------------------*/
FoamFile
{
    version     2.0;
    format      ascii;
    class       volScalarField;
    location    "586";
    object      T;
}
// * * * * * * * * * * * * * * * * * * * * * * * * * * * * * * * * * * * * * //

dimensions      [0 0 0 1 0 0 0];

internalField   nonuniform List<scalar> 
5000
(
329.4016
327.53048
325.54555
323.45766
321.28221
319.03928
316.7535
314.45346
312.17072
309.9385
307.78989
305.75606
303.86434
302.13667
300.58835
299.22749
298.05505
297.06542
296.24753
295.58617
295.06347
294.66024
294.35718
294.13577
293.979
293.87176
293.80133
293.75703
293.73047
293.71536
293.70724
293.70315
293.70122
293.70038
293.70004
293.69991
293.69987
293.69986
293.69986
293.69985
293.69985
293.69985
293.69985
293.69985
293.69985
293.69985
293.69985
293.69985
293.69985
293.69986
336.15625
334.48409
332.69714
330.7942
328.77625
326.64704
324.41391
322.08858
319.68785
317.23419
314.75591
312.28675
309.8649
307.53109
305.32599
303.28713
301.44562
299.82343
298.43151
297.26935
296.32588
295.58161
295.01144
294.58755
294.28205
294.06892
293.9253
293.83208
293.774
293.73941
293.7198
293.70929
293.70398
293.70148
293.70039
293.69995
293.69979
293.69973
293.69971
293.69971
293.69971
293.69971
293.69971
293.69971
293.69971
293.69971
293.69971
293.69971
293.69971
293.69972
338.98144
337.39584
335.70023
333.89192
331.96953
329.93346
327.7865
325.53453
323.18734
320.75944
318.27083
315.7475
313.22153
310.7304
308.31551
306.0197
303.88399
301.94393
300.22618
298.74596
297.50606
296.49734
295.70088
295.09089
294.63806
294.31253
294.08624
293.93444
293.83643
293.77574
293.73986
293.71971
293.70903
293.70371
293.70125
293.70019
293.69978
293.69963
293.69958
293.69957
293.69956
293.69956
293.69956
293.69956
293.69956
293.69956
293.69956
293.69956
293.69956
293.69958
340.64485
339.11072
337.4699
335.71926
333.85672
331.88152
329.79475
327.59994
325.30373
322.91666
320.45401
317.93653
315.39095
312.85002
310.35183
307.93822
305.65222
303.53462
301.6202
299.93426
298.49018
297.28853
296.31798
295.5576
294.9801
294.5552
294.25267
294.04453
293.90645
293.81839
293.7646
293.73329
293.71601
293.70702
293.70266
293.70069
293.69987
293.69956
293.69946
293.69943
293.69942
293.69941
293.69941
293.69941
293.69941
293.69941
293.69941
293.69941
293.69942
293.69944
341.83509
340.338
338.73673
337.02802
335.20945
333.27972
331.23907
329.08974
326.83662
324.48791
322.05592
319.55785
317.01648
314.46053
311.9245
309.44774
307.07259
304.84143
302.79319
300.95949
299.36143
298.00764
296.894
296.00514
295.31717
294.8011
294.42622
294.16281
293.98408
293.86728
293.79401
293.75007
293.72502
293.71153
293.70471
293.7015
293.70011
293.69955
293.69936
293.69929
293.69927
293.69927
293.69927
293.69927
293.69926
293.69926
293.69926
293.69927
293.69928
293.6993
342.7465
341.27788
339.70703
338.03063
336.24608
334.35174
332.34735
330.23436
328.01655
325.70062
323.2969
320.82019
318.29038
315.73308
313.17973
310.66708
308.23587
305.92846
303.78564
301.84283
300.12656
298.65172
297.42044
296.42264
295.63827
295.04047
294.59901
294.28342
294.06531
293.91989
293.82664
293.76934
293.73577
293.71714
293.7074
293.70265
293.7005
293.69961
293.69928
293.69916
293.69913
293.69912
293.69912
293.69912
293.69912
293.69912
293.69912
293.69912
293.69913
293.69916
343.48483
342.03933
340.49322
338.84313
337.08635
335.22105
333.24659
331.16391
328.97601
326.6885
324.31032
321.85444
319.33861
316.78598
314.22541
311.69129
309.22256
306.86087
304.64766
302.6207
300.81029
299.23623
297.90587
296.81399
295.94438
295.27267
294.76969
294.40486
294.1488
293.9752
293.8618
293.79068
293.74805
293.72378
293.71072
293.70415
293.70107
293.69975
293.69923
293.69905
293.69899
293.69898
293.69897
293.69897
293.69897
293.69897
293.69897
293.69898
293.69899
293.69902
344.1021
342.67598
341.1506
339.52259
337.78916
335.94832
333.9992
331.94234
329.78016
327.5175
325.16221
322.72587
320.22456
317.67943
315.11722
312.5702
310.07559
307.67396
305.40681
303.31322
301.42624
299.76943
298.35451
297.18061
296.23517
295.49642
294.93665
294.52555
294.23319
294.03216
293.89877
293.81366
293.76163
293.73134
293.71464
293.706
293.70183
293.69998
293.69923
293.69895
293.69886
293.69883
293.69882
293.69882
293.69882
293.69882
293.69883
293.69883
293.69885
293.69888
344.63143
343.22195
341.7144
340.10537
338.39204
336.57232
334.64512
332.61072
330.47108
328.23042
325.89575
323.47757
320.99055
318.45426
315.8936
313.33903
310.8261
308.39424
306.08459
303.93701
301.98644
300.25942
298.77134
297.52511
296.51163
295.71175
295.09936
294.64474
294.31774
294.09012
293.93706
293.83792
293.77629
293.73972
293.71912
293.7082
293.70279
293.7003
293.69926
293.69887
293.69873
293.69869
293.69868
293.69868
293.69867
293.69868
293.69868
293.69869
293.69871
293.69874
345.09376
343.69885
342.20689
340.61449
338.91877
337.11758
335.20968
333.1951
331.07548
328.85451
326.53855
324.13717
321.66395
319.13706
316.57989
314.02126
311.49521
309.03999
306.69621
304.50406
302.49985
300.71246
299.16033
297.84977
296.77482
295.91889
295.25757
294.76197
294.40192
294.1486
293.97626
293.86318
293.79186
293.74882
293.72412
293.71073
293.70393
293.70073
293.69935
293.6988
293.69861
293.69855
293.69853
293.69853
293.69853
293.69853
293.69853
293.69854
293.69857
293.6986
345.50355
344.12157
342.64346
341.06582
339.38576
337.60105
335.71036
333.71351
331.61186
329.4087
327.10981
324.72403
322.26397
319.74666
317.19415
314.63383
312.09834
309.6248
307.25315
305.02365
302.97357
301.13366
299.52494
298.15667
297.02581
296.11824
295.4113
294.877
294.4854
294.20726
294.0161
293.88923
293.80818
293.75855
293.72958
293.71357
293.70527
293.70126
293.69948
293.69876
293.6985
293.69841
293.69839
293.69838
293.69838
293.69838
293.69839
293.6984
293.69842
293.69845
345.87108
344.50071
343.03503
341.47065
339.80467
338.0348
336.15962
334.17878
332.09342
329.90649
327.62327
325.252
322.80446
320.29669
317.74956
315.18919
312.64695
310.15887
307.76416
305.50297
303.41323
301.52718
299.86802
298.44763
297.26564
296.31028
295.56062
294.98973
294.56796
294.26587
294.05635
293.91588
293.82512
293.76882
293.73546
293.71671
293.7068
293.7019
293.69967
293.69874
293.6984
293.69828
293.69824
293.69824
293.69823
293.69824
293.69824
293.69826
293.69828
293.69831
346.20391
344.84406
343.38966
341.83731
340.1841
338.42771
336.56662
334.60038
332.52991
330.35786
328.08914
325.7314
323.29575
320.79734
318.25602
315.69677
313.1498
310.65007
308.23608
305.94772
303.82337
301.89643
300.192
298.72424
297.49525
296.49547
295.70571
295.10012
294.64949
294.32427
294.09684
293.943
293.84258
293.77956
293.74173
293.72013
293.7085
293.70265
293.69992
293.69875
293.6983
293.69815
293.6981
293.69809
293.69809
293.69809
293.6981
293.69811
293.69814
293.69817
346.50777
345.15754
343.71344
342.17209
340.53056
338.7865
336.93833
334.98549
332.92871
330.77041
328.51513
326.17008
323.74571
321.25643
318.72117
316.16388
313.6137
311.1046
308.67433
306.36247
304.20766
302.24424
300.4989
298.98787
297.71548
296.67427
295.84674
295.20818
294.72989
294.38232
294.13746
293.97046
293.86046
293.79072
293.74834
293.72381
293.71039
293.7035
293.70023
293.69879
293.69823
293.69802
293.69796
293.69794
293.69794
293.69794
293.69795
293.69797
293.698
293.69803
346.78709
345.44571
344.0111
342.47987
340.8491
339.1164
337.28014
335.33967
333.29556
331.15003
328.90729
326.57414
324.1605
321.68008
319.151
316.59628
314.04406
311.5274
309.0833
306.75096
304.56914
302.57297
300.79047
299.23971
297.92707
296.84709
295.98392
295.31397
294.80914
294.43995
294.1781
293.99819
293.87871
293.80223
293.75526
293.72772
293.71244
293.70446
293.70059
293.69886
293.69816
293.6979
293.69782
293.6978
293.6978
293.6978
293.69781
293.69783
293.69785
293.69789
347.04539
345.7122
344.28636
342.76451
341.14369
339.42152
337.59631
335.66731
333.635
331.50136
329.27037
326.94844
324.545
322.07317
319.55031
316.99859
314.44527
311.9225
309.46657
307.11625
304.91036
302.88461
301.06818
299.48079
298.13071
297.01433
296.11742
295.41753
294.8872
294.4971
294.21868
294.02611
293.89724
293.81406
293.76245
293.73186
293.71465
293.70552
293.70102
293.69896
293.69811
293.69779
293.69769
293.69766
293.69765
293.69765
293.69766
293.69768
293.69771
293.69774
347.28546
345.9599
344.54222
343.02909
341.41754
339.70517
337.89025
335.97197
333.95066
331.82817
329.60822
327.29688
324.90317
322.43964
319.92298
317.37459
314.82089
312.2932
309.8271
307.46092
305.23345
303.18084
301.33331
299.71202
298.32698
297.17635
296.24744
295.51895
294.96408
294.55371
294.25916
294.05415
293.91602
293.82615
293.7699
293.73621
293.71701
293.70669
293.7015
293.6991
293.69807
293.69768
293.69755
293.69751
293.6975
293.69751
293.69752
293.69754
293.69757
293.6976
347.50961
346.19117
344.78112
343.27614
341.67325
339.97005
338.16476
336.2565
334.24553
332.13352
329.92397
327.62267
325.23824
322.78272
320.27221
317.72739
315.17388
312.64225
310.16737
307.78714
305.54021
303.46313
301.58696
299.93419
298.51642
297.33348
296.37415
295.61828
295.03977
294.60977
294.29948
294.08227
293.935
293.83849
293.77758
293.74074
293.71951
293.70795
293.70205
293.69926
293.69806
293.69758
293.69742
293.69737
293.69736
293.69736
293.69738
293.6974
293.69743
293.69745
347.71972
346.40796
345.00507
343.50773
341.91298
340.21837
338.42213
336.5233
334.52205
332.41992
330.22021
327.92844
325.55288
323.10511
320.60067
318.05957
315.50673
312.97196
310.48949
308.09673
305.8322
303.73272
301.8301
300.148
298.6995
297.486
296.4977
295.7156
295.1143
294.66525
294.3396
294.11043
293.95413
293.85102
293.78546
293.74544
293.72215
293.7093
293.70265
293.69946
293.69805
293.69749
293.69729
293.69723
293.69722
293.69722
293.69723
293.69725
293.69728
293.69731
347.91738
346.6119
345.21575
343.7256
342.13851
340.452
338.66428
336.77435
334.78228
332.68949
330.49911
328.21641
325.84934
323.40906
320.91058
318.37333
315.82153
313.2843
310.79523
308.39128
306.11076
303.9907
302.06357
300.35407
298.87666
297.63419
296.61827
295.81099
295.18768
294.72014
294.3795
294.13859
293.97338
293.86373
293.79352
293.75031
293.72491
293.71075
293.70332
293.6997
293.69807
293.69741
293.69717
293.69709
293.69707
293.69707
293.69709
293.69711
293.69714
293.69716
348.1039
346.80436
345.41457
343.93122
342.35135
340.67251
338.89284
337.01132
335.02795
332.94401
330.7625
328.48845
326.12952
323.69647
321.20385
318.67052
316.12006
313.58094
311.08615
308.67214
306.37705
304.23804
302.28811
300.55296
299.04826
297.7783
296.73599
295.9045
295.25993
294.77442
294.41915
294.16672
293.99273
293.87659
293.80174
293.75532
293.72779
293.71228
293.70404
293.69996
293.6981
293.69733
293.69704
293.69695
293.69693
293.69693
293.69694
293.69697
293.69699
293.69702
348.28041
346.9865
345.60273
344.12582
342.5528
340.88121
339.10918
337.23564
335.26051
333.18501
331.01194
328.74616
326.39503
323.96898
321.48211
318.95274
316.40387
313.86335
311.36356
308.94051
306.6321
304.47556
302.50439
300.74514
299.21467
297.91856
296.85099
295.99622
295.33108
294.8281
294.45854
294.1948
294.01215
293.88958
293.8101
293.76047
293.73079
293.71389
293.70482
293.70027
293.69816
293.69726
293.69693
293.69681
293.69679
293.69679
293.6968
293.69682
293.69685
293.69687
348.4479
347.15932
345.78127
344.31047
342.74396
341.07925
339.31448
337.44853
335.48125
333.41377
331.24876
328.99089
326.64726
324.22798
321.74674
319.22136
316.67428
314.13276
311.62863
309.19743
306.87679
304.70401
302.713
300.93108
299.3762
298.05516
296.9634
296.0862
295.40114
294.88118
294.49764
294.2228
294.03161
293.90268
293.8186
293.76575
293.73389
293.71559
293.70565
293.7006
293.69823
293.69721
293.69681
293.69668
293.69664
293.69664
293.69666
293.69668
293.69671
293.69673
348.60718
347.32368
345.95108
344.48609
342.92577
341.26763
339.50976
337.65104
335.69125
333.63142
331.47413
329.22384
326.88743
324.4747
321.99896
319.47757
316.93246
314.39029
311.88238
309.44379
307.11192
304.92405
302.91445
301.11116
299.53312
298.18832
297.07335
296.17451
295.47015
294.93365
294.53645
294.25072
294.05111
293.91587
293.8272
293.77113
293.73708
293.71736
293.70654
293.70098
293.69832
293.69716
293.6967
293.69654
293.6965
293.6965
293.69651
293.69653
293.69656
293.69658
348.759
347.48034
346.11293
344.65349
343.09907
341.44718
339.69591
337.84408
335.89145
333.83895
331.68904
329.44603
327.11658
324.7102
322.23984
319.72244
317.17941
314.63691
312.1257
309.68043
307.33819
305.13627
303.10924
301.28576
299.68571
298.31819
297.18092
296.26121
295.53814
294.98551
294.57496
294.27852
294.07061
293.92914
293.83591
293.77662
293.74037
293.7192
293.70748
293.70138
293.69843
293.69712
293.6966
293.69641
293.69636
293.69635
293.69637
293.69639
293.69642
293.69644
348.90398
347.62995
346.2675
344.81335
343.26457
341.61867
339.8737
338.02847
336.08269
334.03721
331.89438
329.65837
327.33563
324.93541
322.47031
319.95687
317.41604
314.87346
312.35939
309.90804
307.55624
305.34121
303.29778
301.45519
299.8342
298.44495
297.28624
296.34636
295.60512
295.03679
294.61316
294.30621
294.09012
293.94246
293.84471
293.7822
293.74374
293.72111
293.70847
293.70182
293.69856
293.6971
293.6965
293.69628
293.69622
293.69621
293.69622
293.69625
293.69627
293.69629
349.04268
347.77309
346.41538
344.9663
343.42293
341.78275
340.04382
338.20491
336.26569
334.22695
332.09093
329.86166
327.54539
325.15114
322.69119
320.18168
317.64313
315.1007
312.58415
310.12729
307.76663
305.53933
303.48045
301.61976
299.97881
298.56874
297.3894
296.43
295.67112
295.08748
294.65105
294.33377
294.1096
293.95583
293.85359
293.78787
293.74719
293.72309
293.7095
293.70229
293.69871
293.69708
293.69641
293.69616
293.69608
293.69607
293.69608
293.6961
293.69613
293.69615
349.17561
347.91026
346.5571
345.11289
343.57469
341.94
340.20686
338.37403
336.4411
334.40884
332.27937
330.05659
327.74659
325.35813
322.90321
320.3976
317.86141
315.31931
312.80063
310.33873
307.96986
305.73108
303.65763
301.77975
300.11975
298.6897
297.49048
296.5122
295.73617
295.13758
294.68862
294.36118
294.12906
293.96924
293.86253
293.79361
293.75072
293.72512
293.71059
293.70279
293.69888
293.69708
293.69632
293.69603
293.69594
293.69593
293.69594
293.69596
293.69598
293.696
349.30319
348.04191
346.69313
345.25359
343.72036
342.09094
340.36337
338.53637
336.60951
334.58347
332.46031
330.2438
327.93986
325.55703
323.10702
320.60528
318.07149
315.52991
313.00938
310.5429
308.1664
305.91684
303.82961
301.93539
300.25719
298.80798
297.58957
296.593
295.80029
295.18712
294.72587
294.38846
294.14849
293.98268
293.87153
293.79943
293.75431
293.72722
293.71171
293.70332
293.69907
293.69708
293.69623
293.69591
293.6958
293.69578
293.69579
293.69581
293.69584
293.69586
349.42582
348.16847
346.82388
345.38883
343.86039
342.23604
340.51383
338.69243
336.77141
334.75137
332.6343
330.42385
328.12577
325.74841
323.30321
320.80529
318.27395
315.73302
313.21093
310.74026
308.35666
306.09698
303.9967
302.08693
300.39132
298.92367
297.68675
296.67246
295.86352
295.23609
294.76281
294.41558
294.16787
293.99614
293.88059
293.8053
293.75796
293.72937
293.71288
293.70388
293.69928
293.6971
293.69616
293.69579
293.69567
293.69564
293.69565
293.69567
293.6957
293.69571
349.54385
348.29027
346.94973
345.51901
343.99517
342.37571
340.65865
338.84266
336.92726
334.91302
332.80183
330.59723
328.30484
325.9328
323.4923
320.99815
318.46929
315.92915
313.40574
310.93124
308.54102
306.2718
304.15917
302.23458
300.52228
299.03691
297.7821
296.75061
295.92586
295.28451
294.79942
294.44255
294.18719
294.0096
293.88969
293.81124
293.76167
293.73157
293.71409
293.70448
293.69951
293.69713
293.69608
293.69567
293.69553
293.6955
293.69551
293.69553
293.69555
293.69556
349.6576
348.40766
347.07102
345.64446
344.12506
342.51032
340.79823
338.98746
337.07749
335.06884
332.96333
330.76441
328.47753
326.11067
323.67476
321.18434
318.65798
316.11874
313.59422
311.11623
308.71983
306.44163
304.31727
302.37852
300.65024
299.14779
297.87568
296.8275
295.98736
295.33239
294.83573
294.46935
294.20646
294.02307
293.89882
293.81722
293.76544
293.73381
293.71534
293.7051
293.69976
293.69717
293.69602
293.69556
293.6954
293.69536
293.69536
293.69538
293.69541
293.69542
349.76734
348.52092
347.18805
345.76551
344.2504
342.6402
340.93291
339.12718
337.22246
335.21922
333.11921
330.92578
328.64426
326.28243
323.85103
321.36428
318.84045
316.3022
313.77676
311.29557
308.89341
306.60672
304.47121
302.51895
300.77532
299.25642
297.96757
296.90317
296.04802
295.37974
294.87172
294.496
294.22567
294.03654
293.90799
293.82326
293.76925
293.73611
293.71663
293.70575
293.70002
293.69722
293.69596
293.69545
293.69527
293.69522
293.69522
293.69524
293.69526
293.69527
349.87335
348.63032
347.30108
345.88244
344.37146
342.76566
341.06302
339.26216
337.36251
335.3645
333.26982
331.08172
328.8054
326.44848
324.02148
321.53836
319.01706
316.47989
313.95371
311.4696
309.06204
306.76733
304.62122
302.65604
300.89766
299.36289
298.05783
296.97766
296.10788
295.42657
294.9074
294.52248
294.24481
294.05
293.91718
293.82933
293.77311
293.73844
293.71795
293.70642
293.70031
293.69728
293.69591
293.69534
293.69513
293.69508
293.69508
293.69509
293.69512
293.69513
349.97585
348.7361
347.41038
345.9955
344.48853
342.88698
341.18883
339.39268
337.49795
335.50501
333.41549
331.23256
328.96131
326.60917
324.18647
321.70692
319.18816
316.65216
314.12539
311.6386
309.22599
306.9237
304.76749
302.78993
301.01738
299.46728
298.14651
297.05102
296.16695
295.47289
294.94277
294.54879
294.26388
294.06345
293.9264
293.83545
293.77702
293.74082
293.7193
293.70712
293.70061
293.69736
293.69586
293.69523
293.695
293.69494
293.69493
293.69495
293.69497
293.69498
350.07505
348.83848
347.51617
346.10493
344.60184
343.00441
341.3106
339.51903
337.62905
335.64103
333.55652
331.37862
329.11228
326.76482
324.34633
321.87031
319.35409
316.8193
314.29209
311.80285
309.38552
307.07604
304.91019
302.92078
301.13458
299.56968
298.23367
297.12327
296.22526
295.5187
294.97783
294.57494
294.28288
294.07688
293.93563
293.84159
293.78096
293.74323
293.72069
293.70785
293.70093
293.69745
293.69582
293.69513
293.69488
293.6948
293.69479
293.69481
293.69482
293.69483
350.17115
348.93767
347.61866
346.21094
344.71161
343.11817
341.42858
339.64144
337.75608
335.77283
333.69319
331.52016
329.25862
326.91571
324.50136
322.0288
319.51511
316.98161
314.45409
311.96261
309.54083
307.22454
305.04951
303.04872
301.24938
299.67016
298.31938
297.19445
296.28282
295.56403
295.0126
294.60092
294.3018
294.0903
293.94488
293.84777
293.78494
293.74568
293.72211
293.7086
293.70127
293.69754
293.69579
293.69504
293.69475
293.69466
293.69465
293.69466
293.69468
293.69469
350.26433
349.03384
347.71803
346.31373
344.81805
343.22848
341.54299
339.76014
337.87926
335.90064
333.82573
331.65746
329.40058
327.06211
324.65181
322.18268
319.67152
317.13935
314.61163
312.1181
309.69215
307.3694
305.18558
303.17388
301.36187
299.7688
298.40367
297.2646
296.33966
295.60888
295.04707
294.62674
294.32064
294.10369
293.95413
293.85398
293.78895
293.74816
293.72356
293.70938
293.70163
293.69765
293.69576
293.69494
293.69462
293.69452
293.69451
293.69452
293.69453
293.69454
350.35476
349.12716
347.81446
346.41349
344.92135
343.33554
341.65401
339.87533
337.99882
336.0247
333.95438
331.79073
329.53841
327.20428
324.79794
322.33218
319.82355
317.29275
314.76494
312.26954
309.83968
307.51078
305.31857
303.29637
301.47214
299.86567
298.4866
297.33375
296.39579
295.65326
295.08125
294.65239
294.3394
294.11706
293.9634
293.86021
293.793
293.75068
293.72504
293.71017
293.702
293.69777
293.69574
293.69485
293.6945
293.69439
293.69436
293.69437
293.69439
293.6944
350.44257
349.21779
347.90812
346.51037
345.02167
343.43951
341.76184
339.98722
338.11494
336.1452
334.07936
331.92021
329.67232
327.34244
324.93999
322.47755
319.97142
317.44204
314.91423
312.41713
309.98358
307.64884
305.4486
303.41632
301.58029
299.96082
298.56821
297.40192
296.45124
295.69718
295.11514
294.67787
294.35807
294.13039
293.97267
293.86646
293.79707
293.75323
293.72654
293.71099
293.70239
293.6979
293.69573
293.69476
293.69438
293.69425
293.69422
293.69423
293.69424
293.69425
350.52792
349.30588
347.99914
346.60453
345.11917
343.54056
341.86665
340.09597
338.22781
336.26233
334.20085
332.04609
329.80253
327.4768
325.07815
322.61899
320.11536
317.58742
315.05971
312.56106
310.12404
307.78374
305.5758
303.53382
301.6864
300.05434
298.64854
297.46914
296.50602
295.74065
295.14875
294.7032
294.37667
294.1437
293.98194
293.87273
293.80117
293.7558
293.72807
293.71184
293.70279
293.69805
293.69572
293.69468
293.69426
293.69411
293.69408
293.69409
293.6941
293.69411
350.61093
349.39155
348.08767
346.69611
345.21401
343.63885
341.96859
340.20175
338.33759
336.37626
334.31903
332.16855
329.92922
327.60755
325.21264
322.7567
320.25555
317.72909
315.20155
312.70149
310.2612
307.91561
305.70029
303.64897
301.79053
300.14626
298.72765
297.53545
296.56015
295.78369
295.18208
294.72836
294.39518
294.15698
293.99121
293.87902
293.8053
293.7584
293.72963
293.7127
293.70321
293.6982
293.69573
293.6946
293.69414
293.69398
293.69394
293.69394
293.69395
293.69396
350.69171
349.47493
348.17382
346.78524
345.3063
343.73451
342.0678
340.30471
338.44445
336.48717
334.43408
332.28778
330.05257
327.73487
325.34363
322.89087
320.39219
317.86722
315.33993
312.83858
310.39522
308.04458
305.82219
303.76186
301.89277
300.23665
298.80556
297.60087
296.61365
295.82629
295.21514
294.75335
294.41361
294.17022
294.00048
293.88532
293.80945
293.76103
293.73121
293.71358
293.70365
293.69836
293.69573
293.69453
293.69403
293.69385
293.6938
293.6938
293.69381
293.69382
350.77039
349.55613
348.25773
346.87204
345.39619
343.82767
342.16443
340.40498
338.54853
336.59519
334.54614
332.40392
330.17275
327.85893
325.47129
323.02166
320.52543
318.00198
315.47501
312.97249
310.52623
308.17078
305.9416
303.87259
301.99319
300.32556
298.88231
297.66542
296.66652
295.86848
295.24793
294.77819
294.43196
294.18343
294.00974
293.89164
293.81363
293.76368
293.73281
293.71449
293.7041
293.69854
293.69575
293.69446
293.69391
293.69371
293.69366
293.69365
293.69366
293.69367
350.84705
349.63526
348.3395
346.95663
345.48378
343.91846
342.25859
340.5027
338.64996
336.70047
334.65536
332.51712
330.2899
327.97989
325.59577
323.14923
320.65543
318.13353
315.60693
313.10335
310.65436
308.29432
306.05862
303.98123
302.09184
300.41303
298.95794
297.72914
296.7188
295.91025
295.28045
294.80287
294.45022
294.19661
294.019
293.89797
293.81782
293.76636
293.73444
293.71541
293.70457
293.69873
293.69577
293.69439
293.6938
293.69358
293.69352
293.69351
293.69352
293.69352
350.9218
349.71241
348.41922
347.03911
345.56919
344.00698
342.35041
340.59798
338.74887
336.80313
334.76187
332.62752
330.40417
328.09788
325.71724
323.27373
320.78235
318.26199
315.73583
313.2313
310.77974
308.41531
306.17334
304.08786
302.1888
300.49912
299.03249
297.79204
296.77049
295.95162
295.31271
294.8274
294.4684
294.20975
294.02826
293.90431
293.82203
293.76906
293.73609
293.71635
293.70505
293.69892
293.6958
293.69433
293.69369
293.69345
293.69338
293.69337
293.69338
293.69338
350.99472
349.78768
348.497
347.11957
345.65252
344.09335
342.43999
340.69094
338.84537
336.9033
334.8658
332.73526
330.51568
328.21305
325.83581
323.3953
320.90631
318.38752
315.86185
313.35646
310.90246
308.53385
306.28584
304.19255
302.28412
300.58387
299.10599
297.85414
296.8216
295.9926
295.34472
294.85177
294.48649
294.22285
294.0375
293.91066
293.82626
293.77178
293.73775
293.71731
293.70555
293.69913
293.69584
293.69427
293.69359
293.69332
293.69324
293.69323
293.69323
293.69323
351.0659
349.86114
348.57292
347.19811
345.73386
344.17765
342.52744
340.78169
338.93957
337.00108
334.96726
332.84045
330.62456
328.32552
325.95162
323.51407
321.02745
318.51024
315.98509
313.47895
311.02265
308.65003
306.39622
304.29538
302.37785
300.66733
299.17846
297.91547
296.87216
296.03319
295.37648
294.87598
294.5045
294.23591
294.04674
293.91702
293.83051
293.77451
293.73944
293.71828
293.70606
293.69935
293.69588
293.69422
293.69348
293.6932
293.6931
293.69308
293.69309
293.69309
351.13542
349.93289
348.64707
347.27482
345.81329
344.25999
342.61284
340.87032
339.03158
337.09659
335.06637
332.9432
330.73094
328.4354
326.06479
323.63015
321.14589
318.63026
316.10569
313.59886
311.1404
308.76395
306.50455
304.3964
302.47005
300.74953
299.24994
297.97605
296.92217
296.0734
295.40798
294.90005
294.52243
294.24894
294.05597
293.92339
293.83478
293.77727
293.74115
293.71927
293.70658
293.69958
293.69593
293.69417
293.69338
293.69307
293.69296
293.69294
293.69294
293.69294
351.20333
350.003
348.71951
347.34976
345.89091
344.34044
342.69629
340.95692
339.12148
337.18992
335.16322
333.04361
330.8349
328.54282
326.17543
323.74366
321.26174
318.7477
316.22374
313.71631
311.25581
308.87568
306.6109
304.49569
302.56077
300.8305
299.32046
298.0359
296.97164
296.11325
295.43925
294.92397
294.54027
294.26192
294.06519
293.92976
293.83905
293.78005
293.74287
293.72028
293.70712
293.69982
293.69599
293.69412
293.69328
293.69294
293.69283
293.6928
293.6928
293.6928
351.26973
350.07153
348.79033
347.42303
345.96678
344.41908
342.77786
341.04159
339.20938
337.28117
335.25791
333.14179
330.93656
328.64786
326.28365
323.85471
321.3751
318.86266
316.33935
313.8314
311.36896
308.98532
306.71535
304.5933
302.65006
300.9103
299.39004
298.09503
297.0206
296.15273
295.47028
294.94774
294.55803
294.27487
294.07439
293.93614
293.84335
293.78284
293.74462
293.72131
293.70767
293.70006
293.69606
293.69408
293.69319
293.69282
293.69269
293.69266
293.69265
293.69266
351.33466
350.13855
348.85959
347.49468
346.04098
344.496
342.85765
341.12439
339.29534
337.37042
335.35053
333.23783
331.03601
328.75063
326.38955
323.9634
321.48608
318.97524
316.45262
313.9442
311.47993
309.09293
306.81796
304.68928
302.73795
300.98895
299.4587
298.15347
297.06905
296.19186
295.50107
294.97136
294.57571
294.28778
294.08359
293.94252
293.84765
293.78565
293.74638
293.72235
293.70823
293.70032
293.69613
293.69405
293.6931
293.6927
293.69256
293.69252
293.69251
293.69251
351.39819
350.20412
348.92736
347.56479
346.11359
344.57125
342.93571
341.20541
339.37946
337.45774
335.44116
333.33182
331.13335
328.85123
326.49321
324.06982
321.59477
319.08553
316.56362
314.05481
311.58882
309.19859
306.91879
304.78369
302.8245
301.06649
299.52649
298.21123
297.117
296.23064
295.53163
294.99484
294.59331
294.30065
294.09277
293.9489
293.85197
293.78848
293.74815
293.72341
293.70881
293.70059
293.69621
293.69402
293.693
293.69258
293.69242
293.69237
293.69237
293.69237
351.46037
350.26831
348.99369
347.63341
346.18466
344.64492
343.01213
341.28472
339.4618
337.54323
335.52989
333.42384
331.22864
328.94972
326.59474
324.17405
321.70126
319.19362
316.67245
314.1633
311.69569
309.30236
307.0179
304.87659
302.90975
301.14295
299.59341
298.26833
297.16447
296.26908
295.56197
295.01818
294.61083
294.31348
294.10194
293.95529
293.8563
293.79132
293.74995
293.72448
293.7094
293.70087
293.6963
293.69399
293.69292
293.69246
293.69229
293.69223
293.69222
293.69222
351.52126
350.33116
349.05864
347.70061
346.25425
344.71706
343.08696
341.36239
339.54243
337.62695
335.61678
333.51395
331.32199
329.04621
326.6942
324.27619
321.80563
319.29959
316.77919
314.26976
311.80061
309.40432
307.11536
304.96801
302.99374
301.21836
299.65949
298.32478
297.21146
296.30719
295.59208
295.04138
294.62826
294.32627
294.11109
293.96168
293.86064
293.79418
293.75175
293.72557
293.71
293.70116
293.69639
293.69397
293.69283
293.69234
293.69215
293.69209
293.69208
293.69208
351.58091
350.39273
349.12227
347.76644
346.32242
344.78772
343.16026
341.43847
339.62142
337.70897
335.70191
333.60225
331.41345
329.14076
326.79168
324.37631
321.90796
319.40352
316.88392
314.37426
311.90366
309.50452
307.21121
305.058
303.07649
301.29275
299.72476
298.38061
297.25799
296.34497
295.62198
295.06445
294.64562
294.33902
294.12023
293.96807
293.86499
293.79705
293.75358
293.72667
293.71062
293.70146
293.69649
293.69395
293.69275
293.69223
293.69202
293.69195
293.69194
293.69194
351.63936
350.45306
349.18462
347.83095
346.38923
344.85697
343.2321
341.51303
339.69884
337.78935
335.78535
333.68879
331.5031
329.23345
326.88725
324.47449
322.00832
319.50548
316.9867
314.47686
312.00489
309.60302
307.3055
305.14662
303.15806
301.36615
299.78923
298.43582
297.30406
296.38243
295.65166
295.08737
294.6629
294.35173
294.12936
293.97446
293.86935
293.79993
293.75542
293.72778
293.71124
293.70176
293.6966
293.69394
293.69267
293.69211
293.69189
293.69182
293.6918
293.69179
351.69666
350.51221
349.24574
347.89419
346.45473
344.92487
343.30253
341.58613
339.77474
337.86816
335.86715
333.77365
331.591
329.32435
326.98098
324.57079
322.10679
319.60555
317.0876
314.57764
312.10437
309.69987
307.39829
305.23389
303.23847
301.43859
299.85292
298.49043
297.34969
296.41957
295.68112
295.11017
294.6801
294.36439
294.13847
293.98086
293.87372
293.80283
293.75727
293.72891
293.71188
293.70208
293.69671
293.69394
293.6926
293.692
293.69176
293.69168
293.69165
293.69165
351.75286
350.57021
349.30569
347.95621
346.51896
344.99145
343.37159
341.65782
339.84917
337.94545
335.94738
333.85687
331.67723
329.41351
327.07294
324.66529
322.20344
319.70379
317.18669
314.67664
312.20216
309.79514
307.48963
305.31986
303.31775
301.51008
299.91586
298.54446
297.39489
296.45641
295.71038
295.13283
294.69722
294.37702
294.14756
293.98725
293.8781
293.80574
293.75914
293.73005
293.71253
293.70241
293.69683
293.69393
293.69252
293.69189
293.69163
293.69154
293.69151
293.69151
351.80798