/*--------------------------------*- C++ -*----------------------------------*\
| =========                 |                                                 |
| \\      /  F ield         | OpenFOAM: The Open Source CFD Toolbox           |
|  \\    /   O peration     | Version:  4.0                                   |
|   \\  /    A nd           | Web:      www.OpenFOAM.org                      |
|    \\/     M anipulation  |                                                 |
\*---------------------------------------------------------------------------*/
FoamFile
{
    version     2.0;
    format      ascii;
    class       volVectorField;
    location    "586";
    object      U;
}
// * * * * * * * * * * * * * * * * * * * * * * * * * * * * * * * * * * * * * //

dimensions      [0 1 -1 0 0 0 0];

internalField   nonuniform List<vector> 
5000
(
(8.6947149e-06 5.1983688e-21 0.0055073429)
(1.0830197e-05 1.566924e-20 0.016039615)
(3.7739941e-05 2.7074331e-20 0.026511214)
(6.6519203e-05 3.7716149e-20 0.036779646)
(0.00010277318 4.6959157e-20 0.046689011)
(0.00014554981 5.250728e-20 0.056074635)
(0.0001931644 5.1126339e-20 0.064769595)
(0.00024335848 6.007269e-20 0.072612802)
(0.00029376985 5.5226343e-20 0.079458255)
(0.0003418098 3.8208958e-20 0.085184796)
(0.00038484896 2.5374618e-20 0.089705464)
(0.00042042383 7.6934947e-21 0.092975416)
(0.00044642848 1.1140033e-20 0.094997367)
(0.00046127245 1.7623804e-20 0.095823708)
(0.00046399324 2.6920287e-20 0.095554781)
(0.00045430818 3.2768053e-20 0.094333253)
(0.0004326041 3.7817865e-20 0.092334994)
(0.00039987013 3.9355103e-20 0.089757289)
(0.00035758503 1.3425618e-20 0.086805506)
(0.00030757831 -4.8216263e-20 0.083679458)
(0.00025187726 -9.410812e-20 0.080560709)
(0.00019255423 -3.9541451e-20 0.077601935)
(0.00013160367 -2.8521356e-20 0.074919257)
(7.1039955e-05 -2.2236277e-20 0.072588112)
(1.4691443e-05 -1.8122705e-20 0.070642852)
(-1.0256066e-05 -1.7749946e-20 0.06908021)
(-5.4611026e-05 -4.0264857e-20 0.067874448)
(-0.00010758385 -1.3395795e-19 0.066972372)
(-0.00015896689 -2.2978907e-20 0.066311082)
(-0.00020811543 1.0465787e-20 0.065827946)
(-0.00025530875 4.2180534e-20 0.065467897)
(-0.00030081878 9.8453486e-20 0.065187257)
(-0.00034464687 1.3541395e-20 0.064954539)
(-0.00038645159 2.5304427e-21 0.06474903)
(-0.00042560297 1.5630732e-21 0.064558223)
(-0.00046134533 7.1564134e-21 0.064375058)
(-0.0004930176 3.2802234e-21 0.064195601)
(-0.00052027212 -7.6510178e-21 0.064017381)
(-0.0005432586 5.261103e-21 0.063838365)
(-0.0005627356 -9.4395493e-22 0.063656386)
(-0.00058013977 -4.0628945e-20 0.063468833)
(-0.00059746602 -1.2941326e-20 0.063272431)
(-0.00061773419 -5.59959e-21 0.063063165)
(-0.00064324955 -1.5769909e-21 0.06283539)
(-0.00068205725 1.8762202e-21 0.062584243)
(-0.00072787126 0 0.062293794)
(-0.00082596533 0 0.061975846)
(-0.00086944958 8.6081682e-23 0.061514246)
(-0.0012623021 -1.1624558e-21 0.060912581)
(-0.00078553153 -4.2658315e-21 0.055911344)
(1.0771033e-05 -2.2652273e-21 0.006377833)
(-3.1032726e-06 -7.3105748e-21 0.018712348)
(-2.0080888e-05 -1.2832992e-20 0.031140275)
(-4.9699584e-05 -1.8746023e-20 0.043518474)
(-9.6037539e-05 -1.9890145e-20 0.05567964)
(-0.00016288582 -1.5984611e-20 0.06743321)
(-0.00025428264 -2.6880988e-20 0.078568158)
(-0.00037445929 -4.2399309e-20 0.088858283)
(-0.00052758447 -4.7568677e-20 0.09807058)
(-0.00071735844 -6.5680314e-20 0.10597707)
(-0.00094646522 -9.8370486e-20 0.11237018)
(-0.0012159104 -6.5151855e-20 0.11708102)
(-0.0015243151 -8.3407924e-20 0.11999913)
(-0.0018672811 -1.0436272e-19 0.12109121)
(-0.0022369795 -1.3361856e-19 0.12041526)
(-0.0026221232 -1.2963243e-19 0.11812641)
(-0.0030084478 -1.3657138e-19 0.11447111)
(-0.0033797283 -1.5100505e-19 0.10976864)
(-0.0037192426 9.6779624e-20 0.10438152)
(-0.0040114609 3.4250523e-19 0.098679609)
(-0.0042436045 4.0702918e-20 0.093004589)
(-0.0044066553 -1.8152982e-19 0.087641133)
(-0.0044960777 -1.4875123e-19 0.082799027)
(-0.0045132468 -1.2374305e-19 0.078607452)
(-0.0044665203 -1.4877538e-19 0.075119917)
(-0.0043426359 -1.8720607e-19 0.072326575)
(-0.0041807176 -2.7333262e-19 0.070169581)
(-0.0039738079 -2.4603722e-19 0.068560856)
(-0.0037359075 3.8670787e-20 0.06739737)
(-0.0034782257 -2.2560619e-20 0.066575311)
(-0.003210955 3.6361444e-20 0.066000101)
(-0.0029431356 1.7446362e-19 0.065592817)
(-0.0026824242 1.3037381e-23 0.065292808)
(-0.0024350022 6.2741565e-21 0.065057102)
(-0.0022056278 2.6416459e-20 0.064857647)
(-0.0019977873 3.2619339e-20 0.064677547)
(-0.001813877 2.5224877e-21 0.06450732)
(-0.0016553763 -4.0850281e-20 0.06434183)
(-0.0015230083 -1.0214433e-20 0.064178133)
(-0.0014168754 -4.1928939e-20 0.064014147)
(-0.0013367849 -1.0145308e-19 0.063847918)
(-0.0012819146 -3.822932e-20 0.063677203)
(-0.0012535303 -1.7197858e-20 0.063499536)
(-0.0012464393 -1.3685891e-20 0.063310497)
(-0.0012792313 2.857343e-21 0.063110656)
(-0.0013009241 7.7961226e-22 0.062876841)
(-0.0014648664 1.9894006e-21 0.062651583)
(-0.0013700439 8.3411272e-22 0.062196642)
(-0.0018998298 1.4422728e-22 0.061242747)
(-0.0012183444 -7.1244631e-21 0.053014791)
(2.2437787e-06 -2.4019507e-20 0.0072885629)
(-5.0349655e-06 -7.1882169e-20 0.02143858)
(-2.2483012e-05 -1.2504797e-19 0.035758732)
(-5.3924735e-05 -1.7125499e-19 0.050094254)
(-0.00010212812 -2.2174735e-19 0.064261517)
(-0.00016988826 -2.6746071e-19 0.07804789)
(-0.00026010424 -3.1342985e-19 0.091213363)
(-0.0003757148 -3.7188348e-19 0.10349466)
(-0.00051957396 -4.1490127e-19 0.11461256)
(-0.00069426947 -3.939965e-19 0.12428323)
(-0.00090187523 -3.6270159e-19 0.13223401)
(-0.0011436276 -3.8024507e-19 0.13822365)
(-0.0014195222 -2.7680657e-19 0.14206618)
(-0.0017278455 -1.8340853e-19 0.14365625)
(-0.0020646838 -7.7120967e-20 0.14299244)
(-0.0024234914 5.2873602e-20 0.14019371)
(-0.0027948416 2.1619345e-19 0.13550397)
(-0.0031665084 1.3770621e-19 0.12928071)
(-0.0035240065 3.5936105e-19 0.12196652)
(-0.0038516391 6.7826752e-19 0.11404676)
(-0.0041339701 5.3696051e-19 0.10600036)
(-0.0043574514 8.2136378e-21 0.09825318)
(-0.0045118686 -9.8153048e-20 0.091142393)
(-0.0045915557 -1.5511679e-19 0.084897352)
(-0.004596629 -2.4381018e-19 0.079637579)
(-0.0045297014 -3.2220486e-19 0.075384686)
(-0.0044004308 -4.1378047e-19 0.072081862)
(-0.0042195823 -2.5839877e-19 0.069619577)
(-0.0040002809 3.0635477e-20 0.067859346)
(-0.0037562352 -9.6869479e-20 0.066653499)
(-0.0035005841 -8.6417351e-20 0.065861161)
(-0.0032449372 2.4180417e-19 0.065359125)
(-0.0029986764 6.5634518e-21 0.065047727)
(-0.0027686005 4.3399401e-20 0.064852299)
(-0.0025589407 9.2701677e-20 0.064721139)
(-0.0023717245 1.287136e-19 0.064621278)
(-0.0022073861 2.21238e-19 0.064533414)
(-0.002065464 -5.8028754e-20 0.064447167)
(-0.0019452571 -1.3449848e-19 0.064357345)
(-0.0018462408 3.0399064e-20 0.064261427)
(-0.0017687681 2.197841e-19 0.064158068)
(-0.0017123271 -2.7822459e-20 0.064046216)
(-0.0016831345 -5.7891593e-20 0.063925397)
(-0.0016673206 -1.875156e-19 0.063791729)
(-0.0017168838 4.6011638e-21 0.063653156)
(-0.0017025628 1.5304367e-20 0.063470974)
(-0.0019542883 1.1060473e-19 0.063307967)
(-0.0017927237 2.2953582e-20 0.062785462)
(-0.0023704996 1.5515868e-19 0.061122795)
(-0.0015840277 -4.1029755e-21 0.050168589)
(1.8295478e-06 -5.3186081e-20 0.0080756164)
(-4.4144193e-06 -1.5875692e-19 0.023798544)
(-1.968755e-05 -2.696555e-19 0.039763815)
(-4.7313782e-05 -3.8616869e-19 0.055809107)
(-8.9792684e-05 -5.172354e-19 0.071739903)
(-0.00014969955 -6.2979399e-19 0.08732853)
(-0.00022976155 -6.5511975e-19 0.10231485)
(-0.00033281935 -6.5799391e-19 0.11640931)
(-0.00046174128 -6.7347996e-19 0.12929922)
(-0.00061929276 -6.7055031e-19 0.14065919)
(-0.00080795064 -6.2014955e-19 0.15016638)
(-0.0010296516 -7.1601912e-19 0.15752123)
(-0.001285465 -8.586544e-19 0.1624731)
(-0.001575191 -9.3321284e-19 0.1648494)
(-0.0018969015 -8.565451e-19 0.1645851)
(-0.0022464692 -8.1219308e-19 0.16174755)
(-0.0026171699 -7.5019918e-19 0.15655078)
(-0.00299948 -6.6646136e-19 0.1493532)
(-0.0033812072 -5.6920364e-19 0.14063497)
(-0.0037480638 -1.8366256e-19 0.13095591)
(-0.0040847133 -1.4466022e-19 0.12089955)
(-0.0043761853 -1.6935723e-19 0.11101376)
(-0.0046094174 -2.1777085e-19 0.10175931)
(-0.0047746388 -2.4935983e-19 0.093475492)
(-0.0048664435 -4.0781411e-19 0.086366927)
(-0.0048839184 -5.8599695e-19 0.080510059)
(-0.0048307524 -7.8871835e-19 0.07587393)
(-0.0047143572 -7.7520985e-19 0.072348932)
(-0.0045449579 -4.9510028e-19 0.069776968)
(-0.0043344827 -2.7709399e-19 0.067978566)
(-0.0040955028 -1.6906219e-19 0.06677482)
(-0.0038403009 1.0132614e-19 0.066003163)
(-0.0035801176 6.4312501e-20 0.065527015)
(-0.0033246135 7.88763e-20 0.065239848)
(-0.0030815685 1.4220355e-19 0.065064638)
(-0.0028568164 2.1520705e-19 0.064949991)
(-0.0026543946 3.2807938e-19 0.064864433)
(-0.0024768356 -1.3643033e-19 0.064790365)
(-0.002325565 -9.8676489e-21 0.06471879)
(-0.0022011033 1.7424071e-19 0.064645424)
(-0.0021044502 5.0699824e-19 0.064568238)
(-0.0020327587 9.3018843e-20 0.064485897)
(-0.0019978758 2.5891451e-19 0.064398621)
(-0.0019651484 -1.169025e-19 0.064300442)
(-0.0020347773 1.9521066e-20 0.064205948)
(-0.0019746508 1.5218223e-19 0.064058863)
(-0.0022681353 9.921716e-20 0.063910071)
(-0.0020566637 3.551118e-20 0.063268663)
(-0.002529304 1.3168017e-19 0.060780225)
(-0.0017177111 1.072297e-20 0.047542744)
(1.5388924e-06 -2.804341e-20 0.0086967263)
(-3.4717527e-06 -8.4282747e-20 0.025669215)
(-1.5609784e-05 -1.4182159e-19 0.042951743)
(-3.7639457e-05 -2.1526411e-19 0.060378939)
(-7.1674044e-05 -2.9680849e-19 0.077751067)
(-0.00011994103 -3.8393697e-19 0.094832394)
(-0.00018486441 -4.5050255e-19 0.11135103)
(-0.00026905607 -4.5048621e-19 0.12700099)
(-0.00037527087 -4.0316596e-19 0.14144723)
(-0.00050632614 -4.4436485e-19 0.15433489)
(-0.00066497412 -4.8978306e-19 0.16530344)
(-0.00085371297 -4.732998e-19 0.17400668)
(-0.0010745211 -6.3034526e-19 0.1801387)
(-0.0013285038 -8.5292297e-19 0.18346486)
(-0.0016154545 -8.9381022e-19 0.18385525)
(-0.0019333551 -8.4868787e-19 0.1813161)
(-0.0022778746 -8.4877237e-19 0.17601285)
(-0.0026419696 -5.9668244e-19 0.16827764)
(-0.0030157278 -3.8501175e-19 0.15859542)
(-0.0033865966 -2.3011444e-19 0.14756653)
(-0.0037400921 -3.0338656e-19 0.13584947)
(-0.0040609769 -5.2078897e-19 0.1240935)
(-0.0043347545 -4.9682021e-19 0.11287397)
(-0.0045492183 -5.1917467e-19 0.1026429)
(-0.0046957757 -6.0318873e-19 0.093702376)
(-0.0047702653 -7.1523129e-19 0.086202076)
(-0.0047732213 -8.374478e-19 0.080156603)
(-0.00470955 -9.2930701e-19 0.07547516)
(-0.0045877611 -8.7862251e-19 0.071995897)
(-0.0044189137 -6.3686093e-19 0.069518883)
(-0.0042154466 -3.1468214e-19 0.067834019)
(-0.003990031 -2.0105531e-19 0.066742231)
(-0.0037545581 -6.3724096e-20 0.066069647)
(-0.0035193608 1.0820243e-19 0.065675188)
(-0.0032927352 1.5730523e-19 0.065452468)
(-0.0030808011 1.8202654e-19 0.065327195)
(-0.0028876889 1.4790422e-19 0.065251622)
(-0.0027159497 -1.3865486e-19 0.065197715)
(-0.0025671342 2.1474316e-19 0.065150558)
(-0.0024418922 2.4681225e-19 0.065103035)
(-0.002342554 3.8877581e-19 0.065052171)
(-0.0022635147 1.6424382e-19 0.06499647)
(-0.0022277873 3.8668458e-19 0.064937518)
(-0.002173572 1.2173875e-19 0.064867068)
(-0.0022563856 4.7133442e-20 0.064803543)
(-0.0021561373 1.2794882e-19 0.064678342)
(-0.0024437315 -1.2666488e-21 0.064489731)
(-0.00221375 2.4652645e-20 0.06365003)
(-0.0025412721 -4.5380005e-20 0.060246155)
(-0.0017147904 6.670463e-21 0.0449262)
(1.3513179e-06 -4.0843416e-21 0.0092424481)
(-3.0582268e-06 -1.2369536e-20 0.027313541)
(-1.3756829e-05 -2.2036177e-20 0.04575518)
(-3.3187431e-05 -4.1224502e-20 0.064399806)
(-6.3227137e-05 -5.5791637e-20 0.083043831)
(-0.00010586331 -9.3623772e-20 0.10144552)
(-0.00016327106 -1.7829808e-19 0.11932422)
(-0.00023781374 -2.5309874e-19 0.13636162)
(-0.00033201514 -3.1304796e-19 0.1522059)
(-0.00044850492 -3.3724325e-19 0.16647984)
(-0.00058992825 -3.505491e-19 0.17879392)
(-0.00075880647 -3.7125766e-19 0.18876538)
(-0.00095733377 -4.0431101e-19 0.19604375)
(-0.0011870951 -4.6380356e-19 0.2003424)
(-0.0014486971 -4.8515405e-19 0.20147428)
(-0.0017413184 -4.2567607e-19 0.19938769)
(-0.0020622168 -3.4809726e-19 0.19419614)
(-0.0024062649 -2.3866207e-19 0.18619448)
(-0.0027656338 3.9014711e-21 0.17585392)
(-0.0031297692 7.0965865e-20 0.16379157)
(-0.0034857893 3.1807987e-20 0.15071557)
(-0.0038193575 -2.4635029e-19 0.13735388)
(-0.0041159648 -3.8150691e-19 0.1243801)
(-0.0043624176 -4.4357465e-19 0.11235074)
(-0.0045482582 -5.7452015e-19 0.10166527)
(-0.0046668431 -6.5468131e-19 0.092553029)
(-0.0047159088 -6.7666826e-19 0.085084565)
(-0.0046975793 -5.9677222e-19 0.079200046)
(-0.0046178814 -5.6122905e-19 0.074745978)
(-0.0044859122 -5.813832e-19 0.071512714)
(-0.0043128154 -3.1902773e-19 0.069267668)
(-0.0041107076 -1.6618292e-19 0.067781648)
(-0.0038916604 -8.8472036e-20 0.066847552)
(-0.0036668205 1.0729098e-19 0.066291674)
(-0.0034457476 1.5582032e-19 0.065978419)
(-0.0032360187 1.6494881e-19 0.065809532)
(-0.0030431377 1.5129782e-19 0.065719292)
(-0.0028707143 2.5755586e-20 0.065667416)
(-0.0027209671 1.4694093e-19 0.065631448)
(-0.0025944326 1.6520158e-19 0.06560009)
(-0.0024947287 2.8597403e-19 0.065568324)
(-0.0024108188 1.7320898e-19 0.065533348)
(-0.0023790219 1.9706508e-19 0.065497099)
(-0.0023082711 1.2646329e-19 0.065448553)
(-0.0023990294 5.5242958e-20 0.06540301)
(-0.0022810811 -2.7235407e-20 0.065285382)
(-0.002539704 1.2551385e-21 0.065012442)
(-0.0023170096 1.6434088e-20 0.063901057)
(-0.0025169376 -4.490466e-20 0.059559721)
(-0.0016628078 3.8450978e-21 0.042380207)
(1.2099626e-06 2.122193e-20 0.0097229757)
(-2.6925556e-06 6.2529435e-20 0.028763183)
(-1.2140128e-05 1.0076222e-19 0.048229517)
(-2.9315872e-05 1.4719251e-19 0.067953158)
(-5.5905295e-05 2.1002884e-19 0.087727945)
(-9.3703583e-05 2.2976492e-19 0.10730785)
(-0.0001446896 2.0905991e-19 0.1264057)
(-0.0002110329 1.349702e-19 0.14469376)
(-0.00029507706 7.3728663e-20 0.1618071)
(-0.00039930163 1.3056917e-19 0.17735076)
(-0.00052625483 1.3698711e-19 0.1909118)
(-0.00067844558 1.0139188e-19 0.20207739)
(-0.00085818045 6.8199201e-20 0.21045965)
(-0.0010673296 3.1395878e-20 0.21572725)
(-0.0013070108 -2.2079102e-19 0.21764232)
(-0.0015771894 -8.0984401e-20 0.21609931)
(-0.001876211 9.0196754e-20 0.21116004)
(-0.0022003256 6.5041233e-20 0.2030771)
(-0.0025432925 2.5967417e-19 0.19229734)
(-0.0028962024 3.1689126e-19 0.17943896)
(-0.0032476551 2.5187595e-19 0.16524119)
(-0.0035843852 -3.9344728e-20 0.1504924)
(-0.0038923285 -2.0503001e-19 0.13594932)
(-0.0041579929 -2.8284982e-19 0.12226345)
(-0.0043698894 -3.2009911e-19 0.10992837)
(-0.0045197498 -2.4743549e-19 0.099255446)
(-0.004603317 -9.1567507e-20 0.090377689)
(-0.0046206074 1.0497986e-19 0.083274996)
(-0.0045756666 -8.0658869e-20 0.077811642)
(-0.0044759218 -4.1347339e-19 0.073777085)
(-0.0043312795 -3.3067573e-19 0.070923689)
(-0.004153103 2.6375882e-20 0.068997764)
(-0.0039531842 6.3099144e-21 0.067762618)
(-0.0037428084 2.0135241e-19 0.067013624)
(-0.0035319956 4.2592431e-19 0.066586016)
(-0.0033289861 2.4572451e-19 0.066356389)
(-0.0031400255 2.2529204e-19 0.066239225)
(-0.0029694288 2.5134785e-19 0.066180109)
(-0.0028200926 1.3900762e-22 0.066147529)
(-0.0026924816 1.911608e-19 0.066125037)
(-0.002592602 2.1719025e-19 0.066105148)
(-0.0025032613 1.0824848e-19 0.066083578)
(-0.0024745731 -7.5999326e-20 0.066062102)
(-0.0023923267 -5.3512619e-20 0.066028199)
(-0.0024815314 3.5968313e-20 0.06598765)
(-0.0023617162 -1.3132836e-19 0.06586149)
(-0.0025798807 9.8449073e-20 0.065473918)
(-0.0023656069 2.9297062e-20 0.064037123)
(-0.0024659703 1.0757412e-19 0.058782908)
(-0.0015865847 9.5325308e-21 0.039988265)
(1.1023032e-06 1.177027e-20 0.010158437)
(-2.4419357e-06 3.5241683e-20 0.030077445)
(-1.1019476e-05 6.1156413e-20 0.050473724)
(-2.6620753e-05 1.0370122e-19 0.07117759)
(-5.0786007e-05 1.4211702e-19 0.091980922)
(-8.5160303e-05 1.9305908e-19 0.11263431)
(-0.00013156343 2.4501389e-19 0.13284535)
(-0.00019199947 2.3496491e-19 0.15227865)
(-0.00026864725 2.4541603e-19 0.17055861)
(-0.0003638325 3.16535e-19 0.18727564)
(-0.00047997651 4.2380956e-19 0.20199738)
(-0.0006195106 5.3057732e-19 0.21428581)
(-0.00078474281 6.5825803e-19 0.2237213)
(-0.00097766403 5.5908185e-19 0.22993389)
(-0.0011996773 2.3960218e-19 0.23264086)
(-0.0014512441 -3.2942081e-20 0.23168756)
(-0.0017314575 -1.048037e-19 0.22708652)
(-0.0020375769 -4.1453964e-19 0.21904683)
(-0.0023646003 -7.0845301e-19 0.20798518)
(-0.002704993 -7.4169025e-19 0.19451064)
(-0.003048705 -4.1376946e-19 0.1793799)
(-0.0033835954 -2.0332251e-19 0.16342682)
(-0.0036962978 -1.9550778e-19 0.14747769)
(-0.003973444 -1.8696949e-19 0.13226889)
(-0.0042030419 -2.1674837e-19 0.11838267)
(-0.0043757526 -2.0704116e-19 0.10621172)
(-0.004485827 -1.6651934e-19 0.095954562)
(-0.0045315605 6.6973606e-20 0.087636404)
(-0.0045152476 3.2032075e-19 0.081146087)
(-0.004442719 7.7941875e-20 0.076279144)
(-0.0043225782 6.8431719e-20 0.072779327)
(-0.0041652759 1.7061485e-19 0.070373897)
(-0.0039821356 1.3741177e-19 0.068800738)
(-0.0037844161 1.9431243e-19 0.067827032)
(-0.0035824886 4.0148812e-19 0.067260107)
(-0.0033852043 5.1396495e-19 0.066951375)
(-0.003199528 6.5767029e-19 0.066794536)
(-0.0030304372 5.2053247e-19 0.066719566)
(-0.0028814913 2.2832964e-19 0.066684376)
(-0.0027527116 4.3731972e-19 0.066666079)
(-0.0026527888 2.1269883e-19 0.066653837)
(-0.0025583363 2.1243941e-19 0.066641405)
(-0.0025301444 -4.6779017e-19 0.066629235)
(-0.0024411778 -2.305156e-19 0.066604319)
(-0.0025200362 3.5166839e-21 0.066558364)
(-0.0024045052 -8.9806204e-20 0.066405647)
(-0.0025803253 6.823157e-20 0.065879361)
(-0.0023663627 2.8237824e-20 0.064075946)
(-0.0023903163 7.7295916e-20 0.057941909)
(-0.0014957588 2.0195936e-20 0.037751363)
(1.0153803e-06 -3.4619432e-20 0.010557137)
(-2.2371924e-06 -1.0101779e-19 0.031281339)
(-1.0103571e-05 -1.6497943e-19 0.052530411)
(-2.4417467e-05 -2.2952842e-19 0.07413412)
(-4.6601082e-05 -3.1399887e-19 0.095882862)
(-7.8177249e-05 -3.5581776e-19 0.11752453)
(-0.00012083574 -3.6429009e-19 0.13876242)
(-0.00017644479 -4.3642838e-19 0.15925484)
(-0.0002470456 -5.1151534e-19 0.17861717)
(-0.00033483245 -5.9499581e-19 0.19642749)
(-0.00044211204 -6.313907e-19 0.2122369)
(-0.00057123369 -6.9533688e-19 0.22558573)
(-0.00072447901 -7.6681598e-19 0.23602683)
(-0.00090389596 -6.1770132e-19 0.24315636)
(-0.0011110645 -3.1867904e-19 0.24665153)
(-0.0013467833 -6.421538e-19 0.24631293)
(-0.0016106787 -9.9397496e-19 0.24210661)
(-0.0019007612 -1.1911135e-18 0.2341985)
(-0.0022129916 -1.5570663e-18 0.22297212)
(-0.0025409516 -1.6349995e-18 0.20902063)
(-0.0028757508 -1.2937877e-18 0.19310822)
(-0.0032062946 -7.6043949e-19 0.17610247)
(-0.0035199754 -4.4961132e-19 0.1588877)
(-0.0038037495 -2.6253698e-19 0.14227572)
(-0.0040454387 -1.4580358e-19 0.12693149)
(-0.0042350169 -3.4214332e-19 0.1133269)
(-0.004365639 -5.1050272e-19 0.10172722)
(-0.0044342421 -1.8458711e-19 0.092206674)
(-0.0044416666 3.2521256e-19 0.084683687)
(-0.0043923434 3.2353459e-19 0.078965362)
(-0.0042936567 4.2843365e-19 0.074792135)
(-0.0041551121 2.6758676e-19 0.071876907)
(-0.0039874244 2.1733294e-19 0.069935941)
(-0.0038016039 2.2258567e-19 0.068710963)
(-0.003608122 1.4228705e-19 0.067982967)
(-0.003416217 4.1009385e-19 0.067578633)
(-0.0032334212 6.3096483e-19 0.067370413)
(-0.0030653069 3.0307275e-19 0.06727164)
(-0.002916213 1.8538647e-19 0.067228438)
(-0.0027856351 1.887236e-19 0.067210391)
(-0.0026849792 -1.5771104e-19 0.067202445)
(-0.0025860785 5.9808855e-20 0.067196006)
(-0.0025555271 -3.1282888e-19 0.067188954)
(-0.0024638024 -2.1914976e-19 0.067167799)
(-0.0025280454 -3.1750347e-21 0.067107977)
(-0.0024176799 3.4551636e-20 0.066910467)
(-0.0025556093 -4.0742854e-20 0.066224998)
(-0.0023357072 1.4237468e-20 0.064027306)
(-0.0022993653 -9.4079942e-20 0.057050923)
(-0.001398915 1.5131102e-20 0.035657937)
(9.4394392e-07 -2.3352418e-20 0.010926301)
(-2.0727323e-06 -7.0172929e-20 0.032396419)
(-9.3658191e-06 -1.2028229e-19 0.054435973)
(-2.2640728e-05 -1.7407215e-19 0.076874387)
(-4.3222319e-05 -2.2881558e-19 0.0995009)
(-7.2531894e-05 -2.8860351e-19 0.12206118)
(-0.00011215001 -3.4702376e-19 0.14425494)
(-0.00016382918 -4.0692502e-19 0.16573508)
(-0.00022949158 -4.7908247e-19 0.1861093)
(-0.0003112143 -5.3728816e-19 0.20494504)
(-0.00041119679 -5.608526e-19 0.22177904)
(-0.00053170334 -5.7533838e-19 0.23613277)
(-0.00067496942 -6.4945075e-19 0.24753489)
(-0.00084305861 -7.5627137e-19 0.25555148)
(-0.0010376577 -7.9648677e-19 0.25982374)
(-0.0012597966 -8.2108405e-19 0.26011132)
(-0.0015094917 -8.8912827e-19 0.25633671)
(-0.0017853281 -9.7391305e-19 0.24862383)
(-0.002084028 -1.026536e-18 0.23732161)
(-0.0024000911 -1.0875731e-18 0.22300281)
(-0.0027256234 -1.0803006e-18 0.20643176)
(-0.0030504819 -8.5435718e-19 0.1885004)
(-0.0033628186 -6.4561567e-19 0.17014126)
(-0.0036500203 -4.8993102e-19 0.15223301)
(-0.0038999188 -2.81381e-19 0.13551729)
(-0.0041020597 -4.521751e-20 0.12054225)
(-0.004248787 -1.637586e-19 0.10763999)
(-0.004335954 -2.6367464e-19 0.096936021)
(-0.0043631779 2.8711295e-20 0.088382092)
(-0.0043336597 3.2835622e-19 0.081801211)
(-0.0042536627 3.3794485e-19 0.076934889)
(-0.0041317709 2.7245455e-19 0.073485722)
(-0.0039780402 2.4097098e-19 0.071151825)
(-0.0038031256 2.331389e-19 0.069652169)
(-0.0036174514 2.6692915e-19 0.068743214)
(-0.0034304875 3.7287946e-19 0.06822774)
(-0.0032501988 4.3403326e-19 0.067956893)
(-0.0030826347 3.8534627e-19 0.067826656)
(-0.0029329333 1.8071786e-19 0.067770336)
(-0.0028000756 9.384284e-20 0.067748959)
(-0.002697687 -1.3312348e-19 0.067742335)
(-0.0025949866 -7.789458e-20 0.067739087)
(-0.0025595946 -2.6586255e-19 0.067733531)
(-0.0024670242 -1.8280377e-19 0.067710767)
(-0.0025155672 -8.236863e-21 0.067629711)
(-0.0024083108 2.5782951e-20 0.067370984)
(-0.0025135755 -3.3244978e-20 0.066509525)
(-0.0022844774 2.3000746e-21 0.063903319)
(-0.0021993411 -8.3814007e-20 0.056128981)
(-0.0013012711 9.6955601e-21 0.033710033)
(8.8394067e-07 -3.9534274e-20 0.01127078)
(-1.9347826e-06 -1.1756582e-19 0.03343723)
(-8.7476593e-06 -2.0105424e-19 0.056215102)
(-2.1152056e-05 -2.9192121e-19 0.079433627)
(-4.0390622e-05 -3.6972575e-19 0.10288113)
(-6.7798446e-05 -4.5310164e-19 0.12630143)
(-0.00010486305 -5.4575104e-19 0.14939117)
(-0.0001532379 -5.9422637e-19 0.17179859)
(-0.00021474209 -6.4802531e-19 0.1931247)
(-0.00029134954 -5.7542953e-19 0.2129276)
(-0.00038516266 -3.4037277e-19 0.23073144)
(-0.00049836408 -8.6724874e-20 0.24604097)
(-0.00063313613 2.1140608e-19 0.25836334)
(-0.00079153631 1.7194289e-21 0.26723763)
(-0.00097531607 -4.6664661e-19 0.27227246)
(-0.0011856691 -5.7351342e-19 0.27318985)
(-0.001422904 -5.5501134e-19 0.26987149)
(-0.0016860524 -4.4886091e-20 0.26240081)
(-0.0019724482 1.0581599e-19 0.25109167)
(-0.0022773515 3.9188928e-19 0.2364935)
(-0.0025937224 -3.3185492e-19 0.21936522)
(-0.0029122701 -5.5732173e-19 0.20061568)
(-0.0032218738 -6.782199e-19 0.18121733)
(-0.0035103958 -7.6627827e-19 0.16210802)
(-0.0037657995 -9.798526e-19 0.14410024)
(-0.003977382 -5.5271203e-19 0.12781515)
(-0.004136887 1.6233481e-19 0.11365094)
(-0.0042392976 2.1063493e-19 0.1017858)
(-0.004283203 -2.1351335e-19 0.092207572)
(-0.0042707308 1.6646885e-19 0.084758634)
(-0.004207128 3.2227712e-19 0.079185223)
(-0.0041001033 3.4188118e-19 0.075183096)
(-0.0039590401 3.6870225e-19 0.072435302)
(-0.0037941684 4.7562968e-19 0.070640583)
(-0.0036157583 6.4518972e-19 0.069532705)
(-0.0034333847 5.0168996e-19 0.068891602)
(-0.0032553335 6.2059274e-19 0.068547384)
(-0.0030880264 8.5063713e-19 0.068378288)
(-0.0029373668 5.0952352e-19 0.068304003)
(-0.002801993 2.1679305e-19 0.068276084)
(-0.0026969437 1.8548562e-19 0.068268292)
(-0.0025909302 -8.7793549e-20 0.068265873)
(-0.002549086 -3.5410697e-19 0.068258877)
(-0.0024558193 -1.9344955e-19 0.068229384)
(-0.0024890764 -1.6523735e-20 0.068120351)
(-0.0023819712 1.4264859e-20 0.067786422)
(-0.0024584981 -2.7044326e-20 0.066735292)
(-0.0022188948 -1.4137441e-21 0.063715866)
(-0.0020936268 -7.1098494e-20 0.055192097)
(-0.0012053762 2.6809004e-21 0.031907229)
(8.325821e-07 -1.7960306e-20 0.011594338)
(-1.8180315e-06 -5.2724825e-20 0.034415063)
(-8.2232095e-06 -8.8611066e-20 0.057886952)
(-1.9887975e-05 -1.2505573e-19 0.081839157)
(-3.7984478e-05 -1.656491e-19 0.10605928)
(-6.377386e-05 -2.0540138e-19 0.13028958)
(-9.8663381e-05 -2.43956e-19 0.15422402)
(-0.00014422013 -2.6959327e-19 0.17750679)
(-0.00020217295 -2.9412779e-19 0.19973296)
(-0.00027440394 -3.2259817e-19 0.22045241)
(-0.0003629274 -3.3781792e-19 0.23917801)
(-0.00046984874 -3.1245537e-19 0.25539961)
(-0.00059729452 -2.9322544e-19 0.26860498)
(-0.00074730315 -2.9917672e-19 0.27830883)
(-0.00092166289 -3.6291579e-19 0.28409003)
(-0.0011216839 -4.1267315e-19 0.28563588)
(-0.0013478975 -5.140136e-19 0.28278984)
(-0.0015996897 -4.3540865e-19 0.27559651)
(-0.0018748933 -3.2311646e-19 0.26433475)
(-0.0021694048 -2.228852e-19 0.24952877)
(-0.0024769202 -2.3479571e-19 0.23192791)
(-0.0027889092 -4.0138541e-19 0.21245191)
(-0.0030949324 -4.4579765e-19 0.19210609)
(-0.003383343 -3.9104766e-19 0.17188069)
(-0.0036423117 -3.6601561e-19 0.15265357)
(-0.0038610118 -4.2188006e-19 0.13511542)
(-0.0040307429 -3.0715985e-19 0.11972935)
(-0.0041457867 8.6419025e-20 0.10672696)
(-0.0042038611 2.3298524e-19 0.096134231)
(-0.0042061542 1.1711159e-19 0.087815723)
(-0.0041569973 2.6679143e-19 0.081525448)
(-0.0040632809 3.26973e-19 0.076955317)
(-0.003933728 3.4847721e-19 0.073776028)
(-0.003778109 3.8104729e-19 0.071668419)
(-0.0036064634 5.2360305e-19 0.070345353)
(-0.0034283728 6.1448439e-19 0.069565087)
(-0.003252353 7.1419592e-19 0.069137182)
(-0.0030851056 8.0146153e-19 0.068921986)
(-0.0029332009 5.8945063e-19 0.068824972)
(-0.0027952052 2.7559628e-19 0.068787435)
(-0.0026867583 1.2016704e-19 0.068776232)
(-0.0025776296 -8.2248014e-20 0.0687725)
(-0.0025285936 -2.5873729e-19 0.06876151)
(-0.0024339227 -1.8098343e-19 0.068720513)
(-0.0024528879 -2.4731656e-20 0.068577047)
(-0.0023434708 7.1089212e-21 0.068156224)
(-0.0023941248 -2.2159422e-20 0.066904652)
(-0.0021440053 -6.4438506e-21 0.063473785)
(-0.0019851736 -5.7991001e-20 0.054250407)
(-0.0011127899 -2.3682434e-21 0.03024268)
(7.8805656e-07 -4.5868555e-21 0.011899876)
(-1.7173715e-06 -1.3875254e-20 0.035338621)
(-7.7707423e-06 -2.4394036e-20 0.059466309)
(-1.8797146e-05 -3.5326179e-20 0.0841121)
(-3.5907571e-05 -4.5202981e-20 0.10906302)
(-6.0298486e-05 -5.138942e-20 0.13405998)
(-9.3306839e-05 -5.1203764e-20 0.15879463)
(-0.00013642408 -1.1563808e-19 0.18290753)
(-0.00019129895 -1.7359528e-19 0.20598851)
(-0.00025973191 -2.3827472e-19 0.22758002)
(-0.00034365735 -4.2251368e-19 0.24718483)
(-0.0004451085 -5.9844221e-19 0.26427934)
(-0.00056615634 -7.7394685e-19 0.27833376)
(-0.00070881237 -6.5920291e-19 0.28884055)
(-0.00087488284 -2.6869089e-19 0.29535131)
(-0.0010657617 -2.4239161e-19 0.29752115)
(-0.0012821535 -1.9200343e-19 0.29515766)
(-0.0015237287 -5.0548583e-19 0.28826823)
(-0.001788732 -3.8854733e-19 0.27709727)
(-0.0020735978 -5.0308528e-19 0.26214246)
(-0.0023726597 -9.0097693e-20 0.24414047)
(-0.0026780664 -2.0657529e-19 0.22401699)
(-0.0029800116 -2.172816e-19 0.2028043)
(-0.0032673348 -1.1175383e-19 0.18153891)
(-0.003528459 1.2581609e-19 0.16115895)
(-0.0037525239 7.307148e-21 0.14242122)
(-0.0039305054 -4.8557825e-19 0.12585222)
(-0.0040561139 -2.9984758e-19 0.11173721)
(-0.0041263265 3.2214114e-19 0.10014182)
(-0.0041415069 2.802064e-19 0.090955094)
(-0.0041051586 3.6435668e-19 0.083941396)
(-0.0040234131 3.5053735e-19 0.078791376)
(-0.0039043565 3.4049371e-19 0.075165788)
(-0.0037572866 3.1599182e-19 0.072729665)
(-0.0035919666 1.8811683e-19 0.071176676)
(-0.0034179098 4.1300097e-19 0.070244607)
(-0.0032437801 5.2447754e-19 0.069723097)
(-0.0030764901 5.0469145e-19 0.069454662)
(-0.0029231419 3.0473326e-19 0.069330138)
(-0.0027824969 1.4220396e-19 0.069279888)
(-0.002670175 -1.7805127e-19 0.06926309)
(-0.0025578756 -7.6786155e-20 0.069255948)
(-0.0025014751 6.6723623e-21 0.069238515)
(-0.0024044568 -1.5912967e-19 0.069181567)
(-0.0024101335 -2.9633776e-20 0.068997455)
(-0.0022967253 2.8362706e-21 0.068480108)
(-0.0023236547 -1.842882e-20 0.067020264)
(-0.0020638265 -6.3845131e-21 0.063184588)
(-0.0018765141 -4.8200127e-20 0.053311564)
(-0.0010245776 -3.1574166e-21 0.028708734)
(7.4889188e-07 -1.8450478e-20 0.012189705)
(-1.6301122e-06 -5.5754735e-20 0.036214848)
(-7.3766683e-06 -9.7621427e-20 0.060964974)
(-1.7845625e-05 -1.4724485e-19 0.086269318)
(-3.4094214e-05 -1.8417402e-19 0.11191444)
(-5.7262217e-05 -2.2725334e-19 0.13764011)
(-8.8624758e-05 -2.7242022e-19 0.16313592)
(-0.00012960611 -3.2601634e-19 0.18803919)
(-0.00018178365 -3.9722864e-19 0.21193501)
(-0.00024688422 -4.6174564e-19 0.23435915)
(-0.00032676953 -5.0275781e-19 0.25480523)
(-0.00042340578 -4.888181e-19 0.27273737)
(-0.00053880948 -4.8621066e-19 0.28760978)
(-0.00067496082 -4.5712476e-19 0.29889452)
(-0.00083367166 -3.7473971e-19 0.30611799)
(-0.001016396 -2.3260164e-19 0.30890539)
(-0.0012239742 -1.8394545e-19 0.30703051)
(-0.0014563081 -2.5612309e-19 0.30046522)
(-0.0017119867 -3.3441244e-19 0.28942012)
(-0.0019879035 -3.9174426e-19 0.27436567)
(-0.0022789481 -2.6133951e-19 0.25602344)
(-0.0025778763 -1.3039678e-19 0.23532111)
(-0.002875466 -1.1888527e-19 0.21331276)
(-0.003161031 -5.9105761e-20 0.19107584)
(-0.0034232739 2.2000906e-20 0.16960397)
(-0.0036513637 1.4531353e-20 0.14971669)
(-0.0038360431 -1.1488842e-19 0.13200222)
(-0.0039705585 -9.1990485e-20 0.11679932)
(-0.0040512526 1.1111973e-19 0.10421444)
(-0.0040777615 2.6453766e-19 0.094162928)
(-0.0040528416 3.4871382e-19 0.086421725)
(-0.003981922 3.4832703e-19 0.08068247)
(-0.0038724829 3.3869741e-19 0.076598104)
(-0.0037333508 3.1448393e-19 0.073819758)
(-0.0035739803 2.890389e-19 0.072023503)
(-0.0034037607 2.9738307e-19 0.070927849)
(-0.0032314361 3.8624956e-19 0.070303232)
(-0.0030640819 5.1937761e-19 0.069974536)
(-0.0029091888 3.2957956e-19 0.069817704)
(-0.002765912 1.0213333e-19 0.069751595)
(-0.0026494844 -1.6575468e-19 0.069727018)