/*--------------------------------*- C++ -*----------------------------------*\
| =========                 |                                                 |
| \\      /  F ield         | OpenFOAM: The Open Source CFD Toolbox           |
|  \\    /   O peration     | Version:  3.0.1                                 |
|   \\  /    A nd           | Web:      www.OpenFOAM.org                      |
|    \\/     M anipulation  |                                                 |
\*---------------------------------------------------------------------------*/
FoamFile
{
    version     2.0;
    format      ascii;
    class       volScalarField;
    location    "9000/solid";
    object      T;
}
// * * * * * * * * * * * * * * * * * * * * * * * * * * * * * * * * * * * * * //

dimensions      [0 0 0 1 0 0 0];

internalField   nonuniform List<scalar> 
400
(
333.8641
333.85238
333.82658
333.78736
335.53379
335.5241
335.50277
335.47038
337.26823
337.25887
337.23826
337.20694
338.81371
338.80439
338.7839
338.75274
340.13666
340.12733
340.1068
340.07559
341.25686
341.2475
341.22689
341.19558
342.20584
342.19644
342.17577
342.14435
343.01429
343.00488
342.98415
342.95265
343.70859
343.69915
343.67838
343.64682
344.31025
344.3008
344.28
344.24839
344.83649
344.82703
344.80621
344.77457
345.30096
345.2915
345.27067
345.239
345.71446
345.705
345.68416
345.65248
346.08557
346.0761
346.05525
346.02357
346.42109
346.41162
346.39078
346.3591
346.72652
346.71705
346.69621
346.66452
347.00625
346.99679
346.97595
346.94427
347.26389
347.25443
347.23359
347.20192
347.50237
347.49291
347.47208
347.44042
347.72412
347.71467
347.69384
347.66219
347.93116
347.92171
347.90089
347.86925
348.12518
348.11573
348.09492
348.06329
348.30761
348.29816
348.27736
348.24573
348.47966
348.47021
348.44942
348.4178
348.64237
348.63293
348.61214
348.58053
348.79663
348.78719
348.76641
348.73481
348.94322
348.93378
348.91301
348.88142
349.08281
349.07338
349.05261
349.02104
349.216
349.20657
349.18581
349.15425
349.34331
349.33388
349.31313
349.28157
349.46519
349.45577
349.43502
349.40348
349.58206
349.57265
349.55191
349.52037
349.69429
349.68488
349.66414
349.63261
349.8022
349.79279
349.77206
349.74054
349.90609
349.89668
349.87596
349.84445
350.00622
349.99682
349.9761
349.9446
350.10284
350.09344
350.07273
350.04124
350.19617
350.18677
350.16606
350.13458
350.2864
350.277
350.2563
350.22483
350.37372
350.36432
350.34363
350.31216
350.45829
350.4489
350.42821
350.39675
350.54028
350.53089
350.5102
350.47875
350.61981
350.61043
350.58975
350.5583
350.69703
350.68764
350.66697
350.63553
350.77205
350.76266
350.74199
350.71056
350.84498
350.8356
350.81493
350.78351
350.91592
350.90655
350.88589
350.85447
350.98498
350.97561
350.95495
350.92354
351.05224
351.04287
351.02222
350.99082
351.11779
351.10842
351.08777
351.05638
351.1817
351.17233
351.15169
351.1203
351.24405
351.23468
351.21404
351.18266
351.3049
351.29553
351.2749
351.24352
351.36432
351.35495
351.33433
351.30296
351.42236
351.413
351.39238
351.36102
351.4791
351.46974
351.44912
351.41776
351.53457
351.52521
351.50459
351.47324
351.58882
351.57947
351.55886
351.52751
351.64192
351.63256
351.61196
351.58062
351.69389
351.68454
351.66393
351.6326
351.74478
351.73543
351.71484
351.68351
351.79464
351.78529
351.7647
351.73337
351.8435
351.83415
351.81356
351.78224
351.89139
351.88204
351.86145
351.83014
351.93835
351.929
351.90842
351.87711
351.98441
351.97507
351.95449
351.92319
352.0296
352.02026
351.99969
351.96839
352.07396
352.06462
352.04405
352.01276
352.1175
352.10816
352.08759
352.05631
352.16026
352.15093
352.13036
352.09908
352.20226
352.19293
352.17236
352.14109
352.24352
352.23419
352.21363
352.18236
352.28408
352.27475
352.25419
352.22292
352.32394
352.31461
352.29405
352.26279
352.36313
352.3538
352.33325
352.30199
352.40167
352.39235
352.3718
352.34055
352.43958
352.43026
352.40971
352.37847
352.47688
352.46756
352.44702
352.41578
352.51359
352.50427
352.48373
352.45249
352.54972
352.5404
352.51986
352.48863
352.58529
352.57597
352.55544
352.52421
352.62032
352.611
352.59047
352.55925
352.65482
352.6455
352.62498
352.59376
352.68881
352.6795
352.65897
352.62776
352.72231
352.713
352.69248
352.66127
352.75535
352.74604
352.72552
352.69432
352.78796
352.77865
352.75813
352.72693
352.82016
352.81086
352.79034
352.75914
352.85204
352.84273
352.82222
352.79102
352.88366
352.87435
352.85385
352.82265
352.91518
352.90588
352.88537
352.85418
352.94683
352.93753
352.91702
352.88583
352.97898
352.96968
352.94918
352.91799
353.01224
353.00294
352.98244
352.95125
353.04757
353.03827
353.01776
352.98658
353.08638
353.07707
353.05657
353.02537
353.13046
353.12115
353.10064
353.06945
353.18075
353.17145
353.15095
353.11976
353.23587
353.22659
353.20615
353.17505
353.27731
353.26807
353.2477
353.21672
)
;

boundaryField
{
    CHTLeftWedge
    {
        type            wedge;
    }
    CHTRightWedge
    {
        type            wedge;
    }
    defaultFaces
    {
        type            empty;
    }
    solid_to_fluid
    {
        type            compressible::turbulentTemperatureRadCoupledMixed;
        refValue        nonuniform List<scalar> 
100
(
325.94479
329.67734
331.88059
333.62664
335.06761
336.27245
337.29001
338.15786
338.90541
339.55567
340.1267
340.63266
341.08474
341.49181
341.86095
342.19785
342.50713
342.79256
343.05724
343.30373
343.53419
343.75041
343.95393
344.14606
344.3279
344.50044
344.66451
344.82085
344.9701
345.11284
345.24956
345.38072
345.50672
345.62792
345.74464
345.85719
345.96582
346.07079
346.1723
346.27057
346.36577
346.45808
346.54766
346.63465
346.71918
346.80138
346.88136
346.95923
347.03509
347.10903
347.18114
347.2515
347.32019
347.38727
347.45281
347.51688
347.57954
347.64084
347.70083
347.75957
347.8171
347.87346
347.9287
347.98286
348.03597
348.08808
348.13921
348.1894
348.23868
348.28708
348.33463
348.38135
348.42727
348.47242
348.51681
348.56047
348.60343
348.6457
348.6873
348.72825
348.76857
348.80828
348.8474
348.88594
348.92393
348.96139
348.99835
349.03484
349.07091
349.10664
349.14216
349.17764
349.21342
349.25003
349.28841
349.3302
349.37877
349.43668
349.51901
349.5958
)
;
        refGradient     nonuniform List<scalar> 
100
(
-18.031381
-18.949094
-19.908484
-20.77477
-21.525521
-22.168018
-22.717273
-23.188829
-23.596485
-23.951775
-24.264079
-24.540934
-24.788365
-25.011195
-25.213293
-25.39778
-25.567188
-25.723584
-25.868669
-26.003849
-26.130301
-26.249011
-26.360813
-26.46642
-26.566442
-26.661404
-26.751764
-26.83792
-26.920223
-26.998981
-27.074469
-27.146929
-27.21658
-27.283617
-27.348217
-27.410539
-27.470726
-27.528911
-27.585212
-27.63974
-27.692596
-27.74387
-27.793648
-27.84201
-27.889026
-27.934765
-27.979289
-28.022656
-28.06492
-28.106131
-28.146337
-28.185582
-28.223907
-28.26135
-28.297949
-28.333737
-28.368748
-28.40301
-28.436553
-28.469405
-28.50159
-28.533133
-28.564057
-28.594384
-28.624135
-28.653329
-28.681985
-28.710121
-28.737753
-28.764899
-28.791573
-28.81779
-28.843564
-28.868908
-28.893836
-28.91836
-28.942491
-28.966242
-28.989622
-29.012642
-29.035314
-29.057647
-29.079651
-29.101338
-29.12272
-29.143812
-29.164631
-29.185203
-29.205566
-29.225777
-29.245926
-29.26616
-29.286719
-29.307988
-29.330579
-29.355394
-29.38359
-29.415784
-29.451198
-29.477929
)
;
        valueFraction   nonuniform List<scalar> 
100
(
0.0023430114
0.0023518497
0.0023609255
0.0023689819
0.0023758608
0.002381674
0.002386591
0.0023907745
0.0023943633
0.0023974705
0.002400186
0.0024025812
0.0024047122
0.0024066236
0.002408351
0.0024099227
0.0024113616
0.0024126864
0.0024139122
0.0024150517
0.0024161153
0.0024171117
0.0024180483
0.0024189314
0.0024197664
0.0024205578
0.0024213098
0.0024220257
0.0024227086
0.0024233612
0.002423986
0.0024245849
0.00242516
0.0024257128
0.0024262449
0.0024267578
0.0024272526
0.0024277304
0.0024281924
0.0024286393
0.0024290722
0.0024294918
0.0024298988
0.0024302938
0.0024306776
0.0024310507
0.0024314136
0.0024317668
0.0024321107
0.0024324459
0.0024327727
0.0024330914
0.0024334025
0.0024337062
0.0024340029
0.0024342928
0.0024345763
0.0024348536
0.0024351248
0.0024353904
0.0024356504
0.0024359051
0.0024361546
0.0024363992
0.0024366391
0.0024368743
0.0024371051
0.0024373316
0.002437554
0.0024377723
0.0024379867
0.0024381974
0.0024384044
0.0024386078
0.0024388079
0.0024390046
0.0024391981
0.0024393885
0.0024395758
0.0024397601
0.0024399417
0.0024401204
0.0024402964
0.0024404698
0.0024406408
0.0024408093
0.0024409756
0.0024411399
0.0024413025
0.0024414638
0.0024416245
0.0024417859
0.0024419498
0.0024421194
0.0024422995
0.0024424972
0.0024427219
0.0024429783
0.0024432603
0.0024434731
)
;
        value           nonuniform List<scalar> 
100
(
333.76214
335.44956
337.18681
338.73271
340.05552
341.17543
342.12414
342.93238
343.62651
344.22804
344.7542
345.21862
345.63208
346.00317
346.33869
346.64412
346.92386
347.18152
347.42002
347.64179
347.84885
348.0429
348.22535
348.39742
348.56016
348.71444
348.86106
349.00068
349.13389
349.26122
349.38313
349.50002
349.61227
349.72021
349.82412
349.92427
350.02091
350.11426
350.20451
350.29185
350.37645
350.45845
350.538
350.61524
350.69027
350.76322
350.83419
350.90326
350.97054
351.03611
351.10003
351.1624
351.22326
351.2827
351.34076
351.39751
351.45299
351.50726
351.56037
351.61236
351.66327
351.71314
351.76201
351.80991
351.85689
351.90296
351.94817
351.99254
352.03609
352.07886
352.12088
352.16215
352.20272
352.24259
352.28179
352.32035
352.35827
352.39558
352.4323
352.46844
352.50402
352.53906
352.57357
352.60758
352.64109
352.67414
352.70675
352.73897
352.77085
352.80248
352.83401
352.86567
352.89782
352.93109
352.96641
353.0052
353.04928
353.0996
353.15493
353.19668
)
;
        Tnbr            T;
        QrNbr           Qr;
        Qr              none;
        thicknessLayers 0();
        kappaLayers     0();
        kappa           solidThermo;
        kappaName       none;
    }
}


// ************************************************************************* //
