/*--------------------------------*- C++ -*----------------------------------*\
| =========                 |                                                 |
| \\      /  F ield         | OpenFOAM: The Open Source CFD Toolbox           |
|  \\    /   O peration     | Version:  4.0                                   |
|   \\  /    A nd           | Web:      www.OpenFOAM.org                      |
|    \\/     M anipulation  |                                                 |
\*---------------------------------------------------------------------------*/
FoamFile
{
    version     2.0;
    format      ascii;
    class       volScalarField;
    location    "846";
    object      G;
}
// * * * * * * * * * * * * * * * * * * * * * * * * * * * * * * * * * * * * * //

dimensions      [1 0 -3 0 0 0 0];

internalField   nonuniform List<scalar> 
5000
(
2130.3477
2128.0076
2125.4607
2122.7015
2119.7176
2116.4971
2113.0281
2109.2998
2105.3027
2101.0294
2096.4749
2091.6375
2086.5193
2081.1274
2075.4749
2069.5816
2063.4751
2057.192
2050.7785
2044.2916
2037.799
2031.3791
2025.121
2019.1221
2013.4865
2008.3213
2003.7316
1999.8155
1996.6572
1994.3202
1992.8408
1992.2238
1992.4397
1993.4269
1995.0985
1997.3535
2000.0921
2003.2302
2006.7111
2010.507
2014.6093
2019.0085
2023.6688
2028.5117
2033.4128
2038.2371
2042.8159
2047.2359
2050.7514
2056.6167
2289.4802
2289.9743
2290.4665
2290.9514
2291.4181
2291.8528
2292.2382
2292.5537
2292.7738
2292.8684
2292.8016
2292.5313
2292.0086
2291.1773
2289.9739
2288.3271
2286.1587
2283.3841
2279.9142
2275.6577
2270.5244
2264.4302
2257.3028
2249.0888
2239.7617
2229.3314
2217.852
2205.4301
2192.2294
2178.4711
2164.4281
2150.4113
2136.7467
2123.7461
2111.6725
2100.7083
2090.9347
2082.3308
2074.8001
2068.2224
2062.5194
2057.7086
2053.9197
2051.355
2050.1964
2050.5142
2052.1491
2054.9474
2057.8245
2063.4203
2338.2383
2338.3224
2338.4187
2338.534
2338.6713
2338.8334
2339.0231
2339.2428
2339.4946
2339.7793
2340.0965
2340.4436
2340.8148
2341.1999
2341.5832
2341.9411
2342.2403
2342.4354
2342.4658
2342.253
2341.6977
2340.6776
2339.0458
2336.6309
2333.2403
2328.6661
2322.6964
2315.1317
2305.8076
2294.622
2281.5664
2266.7544
2250.4442
2233.0425
2215.0838
2197.177
2179.9191
2163.7887
2149.0464
2135.6779
2123.4224
2111.8994
2100.8116
2090.1465
2080.2702
2071.8601
2065.5998
2062.1446
2060.8076
2064.0802
2364.4465
2364.4622
2364.4749
2364.4882
2364.5027
2364.519
2364.538
2364.561
2364.5895
2364.6258
2364.6727
2364.7338
2364.8137
2364.9177
2365.0518
2365.2229
2365.4376
2365.702
2366.0195
2366.3895
2366.8035
2367.241
2367.664
2368.0095
2368.1812
2368.0401
2367.396
2366.001
2363.5483
2359.6802
2354.0095
2346.1584
2335.8166
2322.8161
2307.2122
2289.3507
2269.8926
2249.7635
2230.0065
2211.5458
2194.9172
2180.07
2166.3635
2152.8292
2138.6422
2123.6137
2108.3817
2094.3323
2082.9864
2073.7974
2383.3332
2383.339
2383.3412
2383.3427
2383.3438
2383.344
2383.3433
2383.3414
2383.3378
2383.3324
2383.3247
2383.3147
2383.3022
2383.2877
2383.2719
2383.2564
2383.244
2383.239
2383.2473
2383.2776
2383.3407
2383.4499
2383.62
2383.865
2384.1939
2384.6042
2385.0709
2385.5321
2385.8695
2385.8859
2385.2832
2383.6459
2380.4427
2375.0567
2366.8594
2355.3352
2340.2502
2321.8301
2300.8836
2278.7832
2257.2254
2237.7631
2221.2322
2207.3277
2194.6247
2181.1611
2165.4752
2146.9843
2128.9012
2102.4456
2398.2184
2398.2231
2398.2243
2398.225
2398.2253
2398.2252
2398.2245
2398.2231
2398.2207
2398.2169
2398.2115
2398.2038
2398.1934
2398.1792
2398.1606
2398.1363
2398.1051
2398.0658
2398.0174
2397.9592
2397.8918
2397.8174
2397.741
2397.6716
2397.6236
2397.6172
2397.6786
2397.837
2398.1169
2398.5245
2399.0231
2399.498
2399.7103
2399.2474
2397.4857
2393.5926
2386.6028
2375.6025
2360.0261
2340.0134
2316.6903
2292.172
2269.11
2249.7815
2235.055
2223.7392
2213.2109
2199.4565
2184.8177
2149.883
2410.5247
2410.5292
2410.53
2410.5304
2410.5305
2410.5302
2410.5296
2410.5285
2410.5267
2410.5241
2410.5205
2410.5156
2410.5091
2410.5005
2410.4893
2410.4749
2410.4562
2410.4321
2410.401
2410.361
2410.3096
2410.2439
2410.161
2410.058
2409.9331
2409.7872
2409.6258
2409.462
2409.3201
2409.2371
2409.2619
2409.446
2409.82
2410.3492
2410.8625
2410.9601
2409.9205
2406.6572
2399.7995
2387.9777
2370.3393
2347.1857
2320.433
2293.469
2270.154
2253.0402
2242.3012
2233.6689
2227.7282
2199.8242
2420.9617
2420.9665
2420.9674
2420.9678
2420.9681
2420.9681
2420.9678
2420.9672
2420.966
2420.9642
2420.9617
2420.9582
2420.9535
2420.9474
2420.9396
2420.9295
2420.9168
2420.9007
2420.8805
2420.855
2420.8228
2420.782
2420.7301
2420.6638
2420.5788
2420.4697
2420.3307
2420.156
2419.9424
2419.6927
2419.4217
2419.1629
2418.9747
2418.9384
2419.1387
2419.6099
2420.2328
2420.5806
2419.7477
2416.253
2408.173
2393.6601
2371.8639
2343.9406
2313.5177
2285.7315
2265.4402
2252.9668
2249.6227
2235.5748
2430.0088
2430.0141
2430.0151
2430.0156
2430.016
2430.0162
2430.0161
2430.0158
2430.015
2430.0138
2430.012
2430.0095
2430.006
2430.0014
2429.9955
2429.9878
2429.9781
2429.9659
2429.9505
2429.9314
2429.9075
2429.8779
2429.8411
2429.7954
2429.7385
2429.667
2429.5765
2429.4608
2429.3116
2429.1192
2428.8731
2428.5666
2428.2039
2427.8119
2427.4544
2427.2402
2427.3061
2427.7457
2428.4491
2428.8479
2427.6343
2422.65
2411.2525
2391.3767
2363.1268
2329.8765
2298.1072
2273.6405
2261.5963
2253.6133
2437.9771
2437.983
2437.9841
2437.9847
2437.9852
2437.9856
2437.9858
2437.9858
2437.9855
2437.9848
2437.9836
2437.9818
2437.9793
2437.9759
2437.9714
2437.9657
2437.9582
2437.9488
2437.9369
2437.9219
2437.9031
2437.8798
2437.8508
2437.815
2437.771
2437.7167
2437.6499
2437.5674
2437.4645
2437.3348
2437.1686
2436.953
2436.6717
2436.3091
2435.8597
2435.3462
2434.8447
2434.5045
2434.527
2435.0462
2435.8503
2435.9524
2433.2069
2424.4052
2406.3778
2378.0472
2342.5878
2307.0097
2280.2289
2263.4263
2445.0889
2445.0955
2445.0968
2445.0975
2445.0982
2445.0988
2445.0992
2445.0994
2445.0994
2445.0991
2445.0984
2445.0973
2445.0955
2445.0931
2445.0898
2445.0854
2445.0798
2445.0725
2445.0633
2445.0516
2445.0368
2445.0183
2444.9952
2444.9664
2444.9308
2444.8869
2444.8329
2444.7666
2444.6854
2444.5859
2444.4632
2444.3103
2444.1162
2443.8646
2443.533
2443.0965
2442.5418
2441.8959
2441.2697
2440.8871
2441.0309
2441.7895
2442.5304
2441.2422
2434.3122
2417.5623
2388.9186
2351.1704
2313.5634
2277.5284
2451.504
2451.5115
2451.5129
2451.5138
2451.5146
2451.5154
2451.516
2451.5165
2451.5168
2451.5169
2451.5166
2451.516
2451.5149
2451.5132
2451.5108
2451.5076
2451.5034
2451.4979
2451.4908
2451.4816
2451.47
2451.4553
2451.4369
2451.4138
2451.385
2451.3493
2451.3051
2451.2506
2451.1835
2451.1012
2451.0005
2450.8774
2450.7267
2450.5401
2450.3045
2449.9987
2449.5914
2449.047
2448.3497
2447.555
2446.8603
2446.6199
2447.1496
2448.1361
2447.7147
2441.8889
2425.6086
2395.5911
2357.7345
2302.7968
2457.3423
2457.3507
2457.3523
2457.3533
2457.3543
2457.3552
2457.3561
2457.3568
2457.3574
2457.3578
2457.3579
2457.3577
2457.3572
2457.3561
2457.3546
2457.3523
2457.3492
2457.3451
2457.3397
2457.3327
2457.3236
2457.3119
2457.2972
2457.2786
2457.2553
2457.2262
2457.1901
2457.1453
2457.0898
2457.0213
2456.937
2456.8335
2456.7069
2456.5523
2456.3634
2456.1303
2455.8355
2455.449
2454.9257
2454.2195
2453.3334
2452.4174
2451.8528
2452.1237
2453.177
2453.1912
2447.8395
2430.2218
2402.3235
2338.1908
2462.6952
2462.7046
2462.7064
2462.7076
2462.7087
2462.7099
2462.7109
2462.7119
2462.7127
2462.7134
2462.7139
2462.7141
2462.714
2462.7135
2462.7126
2462.7112
2462.7091
2462.7062
2462.7022
2462.6969
2462.6899
2462.6807
2462.669
2462.654
2462.6352
2462.6114
2462.5818
2462.5448
2462.4989
2462.4419
2462.3715
2462.2845
2462.1774
2462.0457
2461.8846
2461.688
2461.4479
2461.1507
2460.7705
2460.2604
2459.5553
2458.6147
2457.5398
2456.7205
2456.7871
2457.8201
2458.1954
2451.2572
2437.7572
2377.4205
2467.6343
2467.6448
2467.6469
2467.6483
2467.6496
2467.6509
2467.6522
2467.6534
2467.6545
2467.6554
2467.6562
2467.6568
2467.6571
2467.6572
2467.6569
2467.6562
2467.6549
2467.653
2467.6502
2467.6464
2467.6411
2467.634
2467.6248
2467.6129
2467.5976
2467.5783
2467.5539
2467.5234
2467.4852
2467.4377
2467.3787
2467.3056
2467.2151
2467.1034
2466.9656
2466.7961
2466.5888
2466.336
2466.0267
2465.6393
2465.1288
2464.4181
2463.4322
2462.2273
2461.2286
2461.1088
2462.5013
2461.2001
2459.8931
2413.2279
2472.2169
2472.2285
2472.2308
2472.2324
2472.2338
2472.2354
2472.2369
2472.2383
2472.2396
2472.2409
2472.242
2472.2429
2472.2436
2472.2441
2472.2443
2472.2442
2472.2438
2472.2427
2472.241
2472.2384
2472.2346
2472.2294
2472.2223
2472.2129
2472.2007
2472.1851
2472.1651
2472.1399
2472.1081
2472.0683
2472.0187
2471.957
2471.8804
2471.7855
2471.668
2471.5228
2471.3435
2471.1231
2470.8537
2470.5255
2470.1202
2469.595
2468.8654
2467.8209
2466.5145
2465.2953
2465.5507
2465.3588
2470.3547
2440.7631
2476.4889
2476.5018
2476.5043
2476.506
2476.5077
2476.5094
2476.5111
2476.5128
2476.5144
2476.5159
2476.5173
2476.5185
2476.5196
2476.5205
2476.5213
2476.5217
2476.5219
2476.5217
2476.521
2476.5195
2476.517
2476.5133
2476.508
2476.5009
2476.4913
2476.4788
2476.4626
2476.4418
2476.4154
2476.3821
2476.3403
2476.2881
2476.2229
2476.142
2476.0415
2475.9169
2475.7627
2475.5717
2475.336
2475.0466
2474.694
2474.2619
2473.7108
2472.939
2471.8401
2470.3144
2469.4161
2468.2386
2473.8955
2458.8662
2480.4884
2480.5024
2480.5052
2480.5071
2480.509
2480.5109
2480.5129
2480.5147
2480.5166
2480.5183
2480.52
2480.5216
2480.523
2480.5243
2480.5255
2480.5265
2480.5273
2480.5279
2480.5279
2480.5274
2480.5261
2480.5238
2480.5202
2480.5149
2480.5076
2480.4978
2480.4848
2480.4679
2480.4461
2480.4184
2480.3832
2480.3389
2480.2834
2480.2141
2480.1278
2480.0205
2479.8874
2479.7222
2479.5173
2479.2635
2478.9507
2478.5684
2478.1037
2477.5084
2476.7013
2475.404
2474.0982
2471.9446
2475.2173
2469.3328
2484.2466
2484.262
2484.265
2484.2671
2484.2692
2484.2713
2484.2735
2484.2756
2484.2776
2484.2797
2484.2816
2484.2835
2484.2853
2484.287
2484.2886
2484.2901
2484.2915
2484.2926
2484.2935
2484.2939
2484.2936
2484.2925
2484.2904
2484.2868
2484.2815
2484.274
2484.2638
2484.2503
2484.2325
2484.2095
2484.18
2484.1426
2484.0953
2484.0359
2483.9615
2483.8688
2483.7533
2483.6099
2483.4317
2483.2103
2482.9352
2482.5946
2482.1791
2481.6681
2481.0428
2480.0744
2478.9049
2476.5847
2477.1094
2475.173
2487.79
2487.8067
2487.81
2487.8123
2487.8146
2487.8169
2487.8193
2487.8216
2487.8239
2487.8262
2487.8284
2487.8306
2487.8327
2487.8347
2487.8368
2487.8387
2487.8406
2487.8424
2487.844
2487.8452
2487.846
2487.846
2487.8451
2487.843
2487.8395
2487.8341
2487.8264
2487.8158
2487.8015
2487.7826
2487.7581
2487.7266
2487.6864
2487.6355
2487.5714
2487.4911
2487.3907
2487.2656
2487.1098
2486.9162
2486.6752
2486.3748
2486.0031
2485.5428
2485.0003
2484.2531
2483.3487
2481.466
2480.3136
2479.0485
2491.1409
2491.159
2491.1625
2491.165
2491.1675
2491.1701
2491.1727
2491.1752
2491.1777
2491.1803
2491.1828
2491.1852
2491.1876
2491.19
2491.1924
2491.1948
2491.1973
2491.1996
2491.2019
2491.2039
2491.2055
2491.2065
2491.2068
2491.2061
2491.2042
2491.2007
2491.1952
2491.1871
2491.1759
2491.1607
2491.1405
2491.1142
2491.0802
2491.0367
2490.9815
2490.9119
2490.8245
2490.7151
2490.5785
2490.4083
2490.1964
2489.9322
2489.6031
2489.1901
2488.6944
2488.0601
2487.3314
2486.0054
2484.3879
2482.5398
2494.3183
2494.3378
2494.3416
2494.3443
2494.347
2494.3498
2494.3526
2494.3554
2494.3581
2494.3609
2494.3637
2494.3664
2494.3691
2494.3718
2494.3746
2494.3774
2494.3804
2494.3833
2494.3861
2494.3889
2494.3913
2494.3932
2494.3946
2494.3952
2494.3947
2494.3929
2494.3894
2494.3837
2494.3752
2494.3632
2494.3469
2494.3251
2494.2965
2494.2596
2494.2122
2494.152
2494.0758
2493.98
2493.86
2493.7099
2493.5228
2493.2893
2492.9985
2492.6324
2492.1814
2491.6129
2490.9609
2490.0162
2488.6382
2486.207
2497.3387
2497.3596
2497.3637
2497.3666
2497.3695
2497.3725
2497.3755
2497.3785
2497.3815
2497.3846
2497.3876
2497.3906
2497.3936
2497.3966
2497.3997
2497.403
2497.4064
2497.4098
2497.4133
2497.4167
2497.4198
2497.4227
2497.425
2497.4268
2497.4276
2497.4274
2497.4257
2497.4221
2497.416
2497.407
2497.3941
2497.3763
2497.3526
2497.3214
2497.2809
2497.2289
2497.1627
2497.0788
2496.9732
2496.8407
2496.6749
2496.4677
2496.2095
2495.8854
2495.4811
2494.9694
2494.3586
2493.5856
2492.6198
2490.0225
2500.2162
2500.2385
2500.243
2500.2461
2500.2492
2500.2524
2500.2557
2500.2589
2500.2621
2500.2654
2500.2687
2500.2719
2500.2752
2500.2786
2500.2821
2500.2857
2500.2895
2500.2935
2500.2975
2500.3015
2500.3054
2500.3091
2500.3124
2500.3152
2500.3173
2500.3184
2500.3183
2500.3167
2500.3129
2500.3065
2500.2966
2500.2826
2500.2631
2500.2371
2500.2027
2500.158
2500.1005
2500.0272
2499.9343
2499.8171
2499.67
2499.4857
2499.2554
2498.9671
2498.6065
2498.1495
2497.5859
2496.8684
2496.2073
2493.7864
2502.9633
2502.9871
2502.9919
2502.9952
2502.9985
2503.0019
2503.0054
2503.0088
2503.0123
2503.0158
2503.0194
2503.0229
2503.0265
2503.0301
2503.0339
2503.038
2503.0422
2503.0466
2503.0512
2503.0558
2503.0604
2503.0649
2503.069
2503.0728
2503.0761
2503.0785
2503.08
2503.0801
2503.0783
2503.0743
2503.0673
2503.0565
2503.0409
2503.0195
2502.9905
2502.9524
2502.9027
2502.8387
2502.757
2502.6535
2502.5228
2502.3586
2502.1528
2501.8949
2501.5725
2501.1646
2500.6589
2499.9711
2499.4594
2497.3503
2505.5908
2505.6162
2505.6212
2505.6248
2505.6282
2505.6319
2505.6356
2505.6393
2505.643
2505.6467
2505.6505
2505.6543
2505.6581
2505.6621
2505.6663
2505.6707
2505.6753
2505.6802
2505.6853
2505.6905
2505.6958
2505.7009
2505.706
2505.7107
2505.715
2505.7187
2505.7215
2505.7232
2505.7234
2505.7215
2505.7171
2505.7093
2505.6973
2505.6799
2505.6559
2505.6236
2505.5809
2505.5252
2505.4536
2505.3621
2505.2461
2505.0997
2504.9155
2504.6842
2504.3948
2504.0284
2503.5804
2502.9363
2502.4772
2500.6667
2508.1085
2508.1353
2508.1406
2508.1444
2508.148
2508.1519
2508.1558
2508.1597
2508.1637
2508.1677
2508.1717
2508.1758
2508.1799
2508.1842
2508.1886
2508.1934
2508.1984
2508.2038
2508.2094
2508.2152
2508.221
2508.2269
2508.2327
2508.2383
2508.2436
2508.2485
2508.2527
2508.2559
2508.2578
2508.2579
2508.2558
2508.2507
2508.2419
2508.2284
2508.2088
2508.1818
2508.1453
2508.0972
2508.0345
2507.9539
2507.8509
2507.7203
2507.5554
2507.3476
2507.0873
2506.7563
2506.3576
2505.7716
2505.3329
2503.7548
2510.5246
2510.5529
2510.5586
2510.5626
2510.5664
2510.5705
2510.5746
2510.5788
2510.5829
2510.5872
2510.5914
2510.5958
2510.6002
2510.6047
2510.6095
2510.6146
2510.6201
2510.6259
2510.6319
2510.6383
2510.6447
2510.6513
2510.6579
2510.6643
2510.6706
2510.6765
2510.6819
2510.6865
2510.6901
2510.6921
2510.6921
2510.6896
2510.6837
2510.6736
2510.6581
2510.6359
2510.6051
2510.5637
2510.5092
2510.4382
2510.3469
2510.2305
2510.0828
2509.896
2509.6615
2509.3619
2509.0032
2508.4778
2508.0608
2506.6544
2512.8468
2512.8767
2512.8826
2512.8868
2512.8909
2512.8952
2512.8995
2512.9039
2512.9083
2512.9128
2512.9173
2512.9218
2512.9265
2512.9314
2512.9365
2512.9419
2512.9478
2512.954
2512.9605
2512.9674
2512.9745
2512.9817
2512.9889
2512.9962
2513.0034
2513.0103
2513.0169
2513.0228
2513.0279
2513.0316
2513.0337
2513.0335
2513.0303
2513.0234
2513.0116
2512.9937
2512.9682
2512.9329
2512.8857
2512.8235
2512.7428
2512.639
2512.5068
2512.3388
2512.1274
2511.8563
2511.5308
2511.0598
2510.6729
2509.4001
2515.0818
2515.1132
2515.1195
2515.1239
2515.1281
2515.1327
2515.1373
2515.1418
2515.1465
2515.1512
2515.156
2515.1608
2515.1657
2515.1709
2515.1763
2515.1821
2515.1883
2515.1949
2515.2019
2515.2093
2515.2169
2515.2248
2515.2327
2515.2408
2515.2488
2515.2567
2515.2644
2515.2716
2515.2781
2515.2835
2515.2874
2515.2893
2515.2887
2515.2847
2515.2763
2515.2625
2515.2416
2515.212
2515.1714
2515.1172
2515.046
2514.9538
2514.8355
2514.6844
2514.4937
2514.2484
2513.9521
2513.5271
2513.174
2512.0147
2517.2357
2517.2687
2517.2753
2517.2799
2517.2843
2517.2891
2517.2939
2517.2987
2517.3036
2517.3085
2517.3135
2517.3186
2517.3238
2517.3292
2517.335
2517.3411
2517.3477
2517.3547
2517.3622
2517.3701
2517.3783
2517.3867
2517.3953
2517.4041
2517.413
2517.4218
2517.4306
2517.4389
2517.4467
2517.4537
2517.4593
2517.4633
2517.465
2517.4637
2517.4585
2517.4483
2517.4319
2517.4074
2517.3729
2517.3259
2517.2635
2517.1817
2517.076
2516.9403
2516.7681
2516.5461
2516.2764
2515.8905
2515.5701
2514.5122
2519.3139
2519.3485
2519.3554
2519.3602
2519.3649
2519.3698
2519.3749
2519.3799
2519.385
2519.3902
2519.3955
2519.4008
2519.4063
2519.412
2519.418
2519.4245
2519.4314
2519.4389
2519.4468
2519.4551
2519.4639
2519.4729
2519.4822
2519.4917
2519.5013
2519.5111
2519.5208
2519.5303
2519.5394
2519.5478
2519.5551
2519.5609
2519.5648
2519.566
2519.5638
2519.557
2519.5446
2519.5248
2519.496
2519.4557
2519.4011
2519.3289
2519.2347
2519.1128
2518.9574
2518.7565
2518.5113
2518.1595
2517.8682
2516.9026
2521.3214
2521.3575
2521.3647
2521.3698
2521.3747
2521.3799
2521.3852
2521.3904
2521.3958
2521.4012
2521.4067
2521.4123
2521.418
2521.424
2521.4303
2521.4371
2521.4444
2521.4522
2521.4606
2521.4695
2521.4787
2521.4883
2521.4982
2521.5084
2521.5188
2521.5294
2521.5401
2521.5507
2521.561
2521.5707
2521.5796
2521.5872
2521.5932
2521.5967
2521.5972
2521.5937
2521.5849
2521.5696
2521.5459
2521.5117
2521.4644
2521.4009
2521.3172
2521.208
2521.0679
2520.886
2520.6631
2520.3422
2520.0764
2519.1942
2523.2626
2523.3003
2523.3079
2523.3132
2523.3183
2523.3237
2523.3292
2523.3347
2523.3403
2523.3459
2523.3517
2523.3575
2523.3635
2523.3697
2523.3764
2523.3835
2523.3911
2523.3994
2523.4082
2523.4175
2523.4272
2523.4374
2523.4479
2523.4588
2523.47
2523.4814
2523.493
2523.5046
2523.516
2523.5271
2523.5374
2523.5468
2523.5546
2523.5604
2523.5634
2523.5629
2523.5576
2523.5463
2523.5274
2523.4988
2523.4583
2523.4028
2523.3287
2523.2311
2523.105
2522.9403
2522.7378
2522.4449
2522.2018
2521.3947
2525.1416
2525.1809
2525.1888
2525.1943
2525.1997
2525.2053
2525.2111
2525.2168
2525.2226
2525.2285
2525.2345
2525.2405
2525.2468
2525.2533
2525.2602
2525.2676
2525.2757
2525.2843
2525.2935
2525.3033
2525.3135
2525.3242
2525.3354
2525.3469
2525.3588
2525.371
2525.3835
2525.3961
2525.4086
2525.4209
2525.4327
2525.4436
2525.4533
2525.4612
2525.4666
2525.4688
2525.4668
2525.4592
2525.4447
2525.4214
2525.3871
2525.339
2525.2737
2525.1869
2525.0736
2524.9246
2524.7407
2524.4734
2524.2509
2523.5114
2526.9621
2527.0031
2527.0113
2527.017
2527.0226
2527.0285
2527.0345
2527.0404
2527.0464
2527.0526
2527.0588
2527.0651
2527.0716
2527.0784
2527.0856
2527.0934
2527.1017
2527.1107
2527.1204
2527.1306
2527.1413
2527.1526
2527.1643
2527.1764
2527.189
2527.202
2527.2154
2527.2289
2527.2425
2527.256
2527.2691
2527.2815
2527.2929
2527.3028
2527.3105
2527.3153
2527.3163
2527.3123
2527.3019
2527.2835
2527.2549
2527.2136
2527.1565
2527.0795
2526.978
2526.8435
2526.6765
2526.4327
2526.229
2525.5505
2528.7276
2528.7701
2528.7787
2528.7847
2528.7905
2528.7966
2528.8028
2528.8089
2528.8152
2528.8216
2528.828
2528.8346
2528.8413
2528.8484
2528.8559
2528.864
2528.8727
2528.8821
2528.8921
2528.9028
2528.914
2528.9258
2528.938
2528.9508
2528.9641
2528.9778
2528.992
2529.0065
2529.0211
2529.0357
2529.0501
2529.064
2529.077
2529.0887
2529.0986
2529.1059
2529.1097
2529.109
2529.1025
2529.0886
2529.0654
2529.0304
2528.9809
2528.9129
2528.8224
2528.7012
2528.5498
2528.3274
2528.1411
2527.518
2530.441
2530.4852
2530.4941
2530.5003
2530.5063
2530.5127
2530.5191
2530.5255
2530.532
2530.5386
2530.5453
2530.5521
2530.5591
2530.5664
2530.5742
2530.5826
2530.5916
2530.6014
2530.6118
2530.6229
2530.6347
2530.6469
2530.6598
2530.6731
2530.6871
2530.7016
2530.7165
2530.7319
2530.7475
2530.7632
2530.7788
2530.7941
2530.8087
2530.8222
2530.8341
2530.8437
2530.8502
2530.8526
2530.8497
2530.84
2530.8218
2530.7928
2530.7503
2530.6907
2530.6102
2530.5014
2530.3643
2530.1616
2529.9913
2529.4188
2532.1053
2532.1512
2532.1604
2532.1669
2532.1731
2532.1797
2532.1863
2532.193
2532.1997
2532.2065
2532.2134
2532.2205
2532.2277
2532.2353
2532.2434
2532.2521
2532.2615
2532.2716
2532.2824
2532.294
2532.3062
2532.3189
2532.3323
2532.3463
2532.3609
2532.3761
2532.3918
2532.408
2532.4246
2532.4414
2532.4582
2532.4748
2532.4908
2532.506
2532.5198
2532.5316
2532.5407
2532.546
2532.5465
2532.5408
2532.5273
2532.5038
2532.4678
2532.4161
2532.345
2532.2475
2532.1238
2531.9391
2531.7837
2531.2574
2533.7232
2533.7707
2533.7802
2533.7869
2533.7934
2533.8002
2533.8071
2533.8139
2533.8209
2533.8279
2533.8351
2533.8424
2533.8499
2533.8577
2533.8661
2533.8751
2533.8848
2533.8953
2533.9065
2533.9185
2533.9311
2533.9444
2533.9583
2533.9729
2533.9881
2534.004
2534.0205
2534.0375
2534.055
2534.0728
2534.0908
2534.1086
2534.1261
2534.1429
2534.1586
2534.1725
2534.1839
2534.192
2534.1957
2534.1938
2534.1846
2534.1663
2534.1364
2534.092
2534.0296
2533.9427
2533.8313
2533.6634
2533.5216
2533.0379
2535.297
2535.3461
2535.356
2535.3629
2535.3696
2535.3767
2535.3838
2535.3908
2535.398
2535.4053
2535.4127
2535.4202
2535.4279
2535.4361
2535.4447
2535.454
2535.464
2535.4749
2535.4865
2535.4989
2535.512
2535.5258
2535.5402
2535.5554
2535.5712
2535.5878
2535.605
2535.6229
2535.6412
2535.66
2535.6791
2535.6982
2535.717
2535.7354
2535.7528
2535.7687
2535.7824
2535.7931
2535.7998
2535.8014
2535.7963
2535.7829
2535.7588
2535.7212
2535.6668
2535.5898
2535.4899
2535.3374
2535.2084
2534.7638
2536.829
2536.8797
2536.8899
2536.8971
2536.904
2536.9113
2536.9186
2536.9259
2536.9333
2536.9408
2536.9484
2536.9562
2536.9642
2536.9726
2536.9815
2536.9911
2537.0015
2537.0127
2537.0247
2537.0375
2537.051
2537.0653
2537.0803
2537.096
2537.1124
2537.1296
2537.1476
2537.1662
2537.1855
2537.2052
2537.2253
2537.2456
2537.2658
2537.2856
2537.3047
2537.3225
2537.3384
2537.3516
2537.3612
2537.3661
2537.3649
2537.356
2537.3373
2537.306
2537.2593
2537.1915
2537.1022
2536.9642
2536.847
2536.4386
2538.3212
2538.3736
2538.3841
2538.3915
2538.3987
2538.4062
2538.4137
2538.4212
2538.4289
2538.4366
2538.4445
2538.4525
2538.4607
2538.4693
2538.4785
2538.4884
2538.4991
2538.5107
2538.5231
2538.5363
2538.5503
2538.565
2538.5805
2538.5968
2538.6138
2538.6317
2538.6503
2538.6698
2538.6899
2538.7105
2538.7317
2538.7531
2538.7746
2538.7958
2538.8165
2538.8361
2538.854
2538.8696
2538.8819
2538.89
2538.8924
2538.8878
2538.8742
2538.849
2538.8093
2538.7501
2538.6708
2538.5462
2538.4401
2538.0653
2539.7757
2539.8297
2539.8405
2539.8482
2539.8555
2539.8633
2539.871
2539.8788
2539.8866
2539.8946
2539.9027
2539.9109
2539.9194
2539.9283
2539.9378
2539.9479
2539.959
2539.9709
2539.9837
2539.9973
2540.0117
2540.0269
2540.0429
2540.0597
2540.0773
2540.0958
2540.1152
2540.1354
2540.1563
2540.1779
2540.2
2540.2225
2540.2452
2540.2678
2540.2901
2540.3114
2540.3313
2540.3491
2540.3641
2540.3751
2540.381
2540.3805
2540.3716
2540.352
2540.3191
2540.2679
2540.198
2540.0859
2539.9902
2539.6464
2541.1942
2541.2498
2541.2609
2541.2688
2541.2764
2541.2843
2541.2923
2541.3003
2541.3083
2541.3166
2541.3249
2541.3334
2541.3421
2541.3512
2541.361
2541.3714
2541.3828
2541.3951
2541.4082
2541.4223
2541.4371
2541.4528
2541.4693
2541.4866
2541.5048
2541.5239
2541.5439
2541.5649
2541.5866
2541.6091
2541.6322
2541.6557
2541.6796
2541.7036
2541.7273
2541.7503
2541.7721
2541.7921
2541.8094
2541.8233
2541.8326
2541.8358
2541.8315
2541.8172
2541.7906
2541.747
2541.6859
2541.5855
2541.4994
2541.1847
2542.5783
2542.6355
2542.647
2542.6551
2542.6629
2542.671
2542.6793
2542.6874
2542.6957
2542.7042
2542.7127
2542.7214
2542.7304
2542.7398
2542.7498
2542.7606
2542.7723
2542.7849
2542.7984
2542.8128
2542.8281
2542.8443
2542.8612
2542.8791
2542.8978
2542.9176
2542.9383
2542.9599
2542.9824
2543.0058
2543.0298
2543.0544
2543.0795
2543.1047
2543.1298
2543.1544
2543.1781
2543.2001
2543.2198
2543.2364
2543.2488
2543.2557
2543.2556
2543.2464
2543.2257
2543.1892
2543.1364
2543.047
2542.97
2542.6823
2543.9296
2543.9885
2544.0003
2544.0086
2544.0166
2544.025
2544.0334
2544.0418
2544.0503
2544.059
2544.0678
2544.0767
2544.086
2544.0956
2544.1059
2544.1169
2544.1289
2544.1419
2544.1558
2544.1706
2544.1863
2544.2029
2544.2204
2544.2387
2544.2581
2544.2784
2544.2998
2544.3221
2544.3454
2544.3696
2544.3945
2544.4201
2544.4463
2544.4728
2544.4993
2544.5254
2544.5508
2544.5748
2544.5968
2544.6159
2544.6313
2544.6417
2544.6456
2544.6412
2544.6261
2544.5964
2544.5513
2544.4722
2544.4037
2544.1414
2545.2496
2545.3101
2545.3222
2545.3308
2545.339
2545.3476
2545.3563
2545.3649
2545.3736
2545.3825
2545.3915
2545.4007
2545.4102
2545.4201
2545.4306
2545.442
2545.4543
2545.4675
2545.4818
2545.4971
2545.5132
2545.5302
2545.5481
2545.567
2545.5869
2545.6078
2545.6298
2545.6529
2545.6769
2545.7019
2545.7278
2545.7544
2545.7816
2545.8093
2545.8371
2545.8648
2545.8918
2545.9177
2545.9419
2545.9635
2545.9817
2545.9954
2546.0031
2546.0032
2545.9935
2545.9701
2545.9323
2545.863
2545.8025
2545.5639
2546.5397
2546.6018
2546.6142
2546.623
2546.6314
2546.6402
2546.6491
2546.658
2546.6669
2546.676
2546.6853
2546.6947
2546.7044
2546.7146
2546.7254
2546.737
2546.7496
2546.7632
2546.7779
2546.7935
2546.8101
2546.8275
2546.8459
2546.8653
2546.8857
2546.9072
2546.9299
2546.9536
2546.9784
2547.0042
2547.0309
2547.0585
2547.0868
2547.1156
2547.1447
2547.1738
2547.2025
2547.2302
2547.2564
2547.2804
2547.3013
2547.3181
2547.3296
2547.334
2547.3292
2547.3119
2547.2811
2547.2209
2547.168
2546.9517
2547.8011
2547.8647
2547.8775
2547.8865
2547.8951
2547.9042
2547.9133
2547.9224
2547.9315
2547.9409
2547.9504
2547.96
2547.9699
2547.9804
2547.9914
2548.0034
2548.0163
2548.0302
2548.0452
2548.0612
2548.0782
2548.0961
2548.115
2548.1349
2548.1558
2548.1779
2548.2012
2548.2256
2548.2511
2548.2776
2548.3052
2548.3337
2548.3631
2548.393
2548.4234
2548.4539
2548.4841
2548.5136
2548.5418
2548.568
2548.5916
2548.6114
2548.6263
2548.6348
2548.6349
2548.6232
2548.599
2548.5474
2548.5018
2548.3063
2549.0349
2549.1002
2549.1133
2549.1225
2549.1314
2549.1406
2549.15
2549.1593
2549.1687
2549.1782
2549.188
2549.1978
2549.208
2549.2187
2549.23
2549.2422
2549.2554
2549.2697
2549.2851
2549.3015
2549.3189
2549.3372
2549.3565
2549.3769
2549.3984
2549.4211
2549.4449
2549.47
2549.4962
2549.5235
2549.5519
2549.5814
2549.6117
2549.6428
2549.6744
2549.7062
2549.7379
2549.7691
2549.7992
2549.8276
2549.8537
2549.8764
2549.8946
2549.907
2549.9116
2549.9054
2549.8874
2549.844
2549.8051
2549.6294
2550.2425
2550.3093
2550.3227
2550.3322
2550.3412
2550.3507
2550.3603
2550.3698
2550.3794
2550.3892
2550.3992
2550.4093
2550.4197
2550.4306
2550.4422
2550.4547
2550.4682
2550.4828
2550.4986
2550.5153
2550.5331
2550.5519
2550.5717
2550.5925
2550.6146
2550.6378
2550.6622
2550.6879
2550.7148
2550.7429
2550.7722
2550.8025
2550.8338
2550.8659
2550.8987
2550.9319
2550.9651
2550.9979
2551.0298
2551.0604
2551.0888
2551.1142
2551.1357
2551.1517
2551.1607
2551.1597
2551.1476
2551.112
2551.0795
2550.9225
2551.4247
2551.4931
2551.5069
2551.5166
2551.5258
2551.5355
2551.5453
2551.555
2551.5649
2551.5749
2551.5851
2551.5954
2551.6061
2551.6172
2551.6291
2551.6419
2551.6557
2551.6706
2551.6867
2551.7039
2551.7221
2551.7412
2551.7615
2551.7828
2551.8054
2551.8291
2551.8542
2551.8805
2551.9081
2551.937
2551.967
2551.9982
2552.0305
2552.0637
2552.0976
2552.132
2552.1666
2552.201
2552.2348
2552.2673
2552.298
2552.3261
2552.3506
2552.3702
2552.3833
2552.3872
2552.3807
2552.3525
2552.3262
2552.1867
2552.5826
2552.6527
2552.6667
2552.6766
2552.6861
2552.696
2552.706
2552.716
2552.726
2552.7363
2552.7467
2552.7573
2552.7681
2552.7795
2552.7917
2552.8047
2552.8189
2552.8341
2552.8506
2552.8681
2552.8867
2552.9063
2552.927
2552.9488
2552.9718
2552.9962
2553.0218
2553.0488
2553.077
2553.1066
2553.1375
2553.1695
2553.2027
2553.2369
2553.2719
2553.3076
2553.3436
2553.3795
2553.415
2553.4495
2553.4824
2553.513
2553.5405
2553.5635
2553.5806
2553.5891
2553.588
2553.5668
2553.5463
2553.4235
2553.7171
2553.7888
2553.8032
2553.8133
2553.823
2553.8331
2553.8434
2553.8535
2553.8638
2553.8743
2553.8849
2553.8957
2553.9068
2553.9185
2553.9309
2553.9442
2553.9586
2553.9742
2553.991
2554.0089
2554.0279
2554.0479
2554.0691
2554.0914
2554.1149
2554.1398
2554.166
2554.1936
2554.2225
2554.2528
2554.2844
2554.3173
2554.3514
2554.3866
2554.4228
2554.4596
2554.497
2554.5344
2554.5715
2554.6078
2554.6429
2554.676
2554.7062
2554.7325
2554.7534
2554.7664
2554.7704
2554.7559
2554.7409
2554.634
2554.8292
2554.9024
2554.9171
2554.9275
2554.9374
2554.9478
2554.9582
2554.9686
2554.9791
2554.9898
2555.0007
2555.0117
2555.0231
2555.035
2555.0476
2555.0612
2555.0759
2555.0919
2555.109
2555.1273
2555.1466
2555.1671
2555.1887
2555.2114
2555.2355
2555.2609
2555.2876
2555.3158
2555.3454
2555.3764
2555.4088
2555.4425
2555.4775
2555.5137
2555.5509
2555.589
2555.6276
2555.6665
2555.7052
2555.7434
2555.7805
2555.8159
2555.8488
2555.8783
2555.9028
2555.9201
2555.929
2555.9208
2555.9111
2555.8192
2555.9196
2555.9945
2556.0095
2556.0201
2556.0302
2556.0408
2556.0515
2556.0621
2556.0728
2556.0837
2556.0948
2556.1061
2556.1177
2556.1298
2556.1427
2556.1566
2556.1716
2556.1878
2556.2053
2556.2239
2556.2437
2556.2646
2556.2866
2556.3098
2556.3344
2556.3603
2556.3876
2556.4164
2556.4467
2556.4784
2556.5115
2556.546
2556.5819
2556.619
2556.6573
2556.6965
2556.7364
2556.7766
2556.8169
2556.8568
2556.8959
2556.9336
2556.9692
2557.0016
2557.0296
2557.051
2557.0646
2557.0625
2557.0579
2556.9802
2556.9891
2557.0656
2557.081
2557.0918
2557.1021
2557.1129
2557.1238
2557.1347
2557.1456
2557.1568
2557.1681
2557.1796
2557.1914
2557.2038
2557.2169
2557.2311
2557.2464
2557.263
2557.2808
2557.2998
2557.3199
2557.3412
2557.3637
2557.3873
2557.4124
2557.4388
2557.4667
2557.4961
2557.527
2557.5594
2557.5932
2557.6285
2557.6653
2557.7034
2557.7426
2557.783
2557.8241
2557.8657
2557.9075
2557.9491
2557.9902
2558.03
2558.0681
2558.1034
2558.1348
2558.1601
2558.1782
2558.1819
2558.1821
2558.118
2558.0386
2558.1167
2558.1324
2558.1434
2558.1539
2558.165
2558.1761
2558.1872
2558.1984
2558.2098
2558.2213
2558.233
2558.245
2558.2576
2558.271
2558.2855
2558.3011
2558.318
2558.3361
2558.3555
2558.376
2558.3977
2558.4206
2558.4447
2558.4703
2558.4972
2558.5257
2558.5556
2558.5872
2558.6202
2558.6548
2558.6909
2558.7285
2558.7675
2558.8078
2558.8492
2558.8915
2558.9344
2558.9777
2559.021
2559.0639
2559.1059
2559.1464
2559.1845
2559.219
2559.2482