/*--------------------------------*- C++ -*----------------------------------*\
| =========                 |                                                 |
| \\      /  F ield         | OpenFOAM: The Open Source CFD Toolbox           |
|  \\    /   O peration     | Version:  4.0                                   |
|   \\  /    A nd           | Web:      www.OpenFOAM.org                      |
|    \\/     M anipulation  |                                                 |
\*---------------------------------------------------------------------------*/
FoamFile
{
    version     2.0;
    format      ascii;
    class       volScalarField;
    location    "846";
    object      ILambda_11_0;
}
// * * * * * * * * * * * * * * * * * * * * * * * * * * * * * * * * * * * * * //

dimensions      [1 0 -3 0 0 0 0];

internalField   nonuniform List<scalar> 
5000
(
205.02661
205.21694
205.42573
205.65508
205.90706
206.18393
206.48806
206.82203
207.18864
207.59094
208.0322
208.51591
209.04582
209.62588
210.26027
210.95332
211.70948
212.53325
213.42907
214.40119
215.45353
216.58942
217.81135
219.12067
220.51724
221.99901
223.56159
225.19789
226.89778
228.64784
230.43147
232.22915
234.0193
235.77945
237.48803
239.12645
240.68136
242.14649
243.52378
244.82303
246.05999
247.25306
248.4193
249.5714
250.71524
251.85514
252.97741
254.13372
255.09421
256.85987
230.11251
230.2584
230.41742
230.59083
230.77984
230.98571
231.20968
231.45305
231.71715
232.00333
232.31293
232.64725
233.00753
233.3949
233.81035
234.25465
234.7283
235.23144
235.76382
236.32463
236.9125
237.52537
238.16043
238.81412
239.48206
240.15918
240.83985
241.51812
242.18809
242.84443
243.48301
244.10156
244.70044
245.28313
245.85661
246.43106
247.01911
247.63426
248.28876
248.99139
249.74558
250.54874
251.39314
252.2685
253.16416
254.07546
254.98773
255.94733
256.75134
258.27781
237.86567
237.92599
237.99159
238.06306
238.1409
238.22566
238.31784
238.41799
238.52666
238.64444
238.77192
238.9097
239.05837
239.21855
239.39081
239.57575
239.77391
239.98583
240.21204
240.45303
240.7093
240.98138
241.26982
241.57526
241.89849
242.24048
242.60249
242.98608
243.39321
243.82626
244.28794
244.78124
245.30915
245.87434
246.47875
247.12301
247.80607
248.5249
249.27459
250.04888
250.84123
251.64605
252.45977
253.28153
254.11192
254.95556
255.80365
256.70186
257.45648
258.90015
242.03134
242.07041
242.113
242.15958
242.21056
242.26635
242.32738
242.39411
242.46702
242.54665
242.63355
242.72834
242.83165
242.94418
243.06664
243.19982
243.34451
243.50158
243.67193
243.8565
244.05627
244.27226
244.50554
244.75718
245.02829
245.31994
245.63322
245.96914
246.32861
246.71239
247.12103
247.55483
248.01375
248.49742
249.00514
249.53599
250.08892
250.66304
251.25782
251.87325
252.50995
253.16891
253.85117
254.55742
255.28683
256.0406
256.80703
257.62664
258.31701
259.65521
245.03371
245.06353
245.09604
245.13163
245.17063
245.21339
245.26024
245.31155
245.36773
245.4292
245.49645
245.56996
245.65028
245.73799
245.83369
245.93805
246.05175
246.17552
246.31014
246.45641
246.61516
246.78726
246.97361
247.17509
247.39264
247.62717
247.87958
248.15076
248.44156
248.7528
249.08524
249.4396
249.81655
250.21671
250.64068
251.089
251.56222
252.06078
252.58504
253.13514
253.71097
254.31205
254.93758
255.58664
256.25765
256.95191
257.65927
258.4193
259.06045
260.31585
247.40034
247.42462
247.45106
247.48001
247.51175
247.54657
247.58476
247.62661
247.67247
247.7227
247.7777
247.8379
247.90375
247.97574
248.0544
248.1403
248.23404
248.33627
248.44765
248.56892
248.70081
248.84413
248.99969
249.16835
249.35098
249.54849
249.76178
249.99178
250.23941
250.50558
250.79118
251.09708
251.42408
251.77295
252.14438
252.53896
252.95719
253.39944
253.86594
254.35682
254.87209
255.41167
255.97544
256.56335
257.17472
257.81142
258.46409
259.17025
259.76725
260.94746
249.3573
249.37772
249.39994
249.42426
249.45092
249.48019
249.51231
249.54753
249.58614
249.62846
249.67482
249.7256
249.78119
249.84202
249.90856
249.98129
250.06074
250.14749
250.24213
250.34532
250.45772
250.58005
250.71307
250.85756
251.01435
251.18427
251.36819
251.56702
251.78164
252.01296
252.26189
252.5293
252.81608
253.12304
253.45097
253.80061
254.17262
254.5676
254.98607
255.42846
255.89511
256.38627
256.90205
257.44257
258.00723
258.59785
259.20553
259.8661
260.42518
261.53939
251.01722
251.03483
251.05396
251.07488
251.09783
251.12303
251.15068
251.18102
251.2143
251.25079
251.29078
251.33461
251.38263
251.4352
251.49274
251.55569
251.62451
251.69973
251.78187
251.87153
251.9693
252.07586
252.19188
252.31809
252.45527
252.60419
252.7657
252.94063
253.12986
253.33428
253.55479
253.79229
254.04768
254.32182
254.61559
254.9298
255.26521
255.62255
256.00245
256.4055
256.83217
257.28286
257.75783
258.25737
258.78113
259.33104
259.89883
260.51888
261.04429
262.09942
252.45627
252.47176
252.48852
252.50686
252.52696
252.54905
252.5733
252.5999
252.6291
252.66112
252.69624
252.73473
252.77693
252.82315
252.87377
252.92918
252.9898
253.05611
253.12857
253.20774
253.29415
253.38842
253.49119
253.60311
253.72491
253.85733
254.00115
254.15718
254.32626
254.50925
254.70703
254.92049
255.15053
255.39805
255.66394
255.94905
256.25423
256.58026
256.92789
257.2978
257.6906
258.10682
258.5469
259.01128
259.4998
260.01446
260.5475
261.13196
261.62765
262.62989
253.72382
253.73765
253.75258
253.76888
253.78675
253.80639
253.82797
253.85164
253.87763
253.90613
253.93741
253.97171
254.00931
254.05052
254.09567
254.14512
254.19926
254.2585
254.32329
254.39412
254.47149
254.55597
254.64814
254.74864
254.85811
254.97726
255.10683
255.24759
255.40033
255.56589
255.74513
255.93891
256.14814
256.3737
256.61649
256.87741
257.15732
257.45708
257.77749
258.11931
258.48324
258.86994
259.27994
259.71382
260.17155
260.65522
261.15752
261.71025
262.1794
263.13391
254.85521
254.86773
254.88118
254.89585
254.91193
254.92961
254.94903
254.97034
254.99374
255.01942
255.0476
255.07851
255.11241
255.14957
255.19031
255.23494
255.28382
255.33733
255.3959
255.45995
255.52997
255.60647
255.69
255.78115
255.88053
255.9888
256.10665
256.23482
256.37408
256.52521
256.68905
256.86645
257.05827
257.26542
257.48879
257.72927
257.98777
258.26515
258.56228
258.87997
259.219
259.58008
259.96386
260.37101
260.80164
261.25789
261.73285
262.25721
262.70257
263.61386
255.87586
255.88731
255.89956
255.91289
255.9275
255.94356
255.96122
255.9806
256.00187
256.02523
256.05086
256.07899
256.10984
256.14368
256.18077
256.22143
256.26598
256.31477
256.36819
256.42664
256.49057
256.56046
256.63682
256.7202
256.81118
256.91037
257.01844
257.13608
257.26403
257.40303
257.5539
257.71745
257.89455
258.08606
258.29288
258.5159
258.75602
259.01415
259.29116
259.58792
259.90525
260.24393
260.60468
260.98825
261.39486
261.82667
262.27718
262.77602
263.19994
264.07189
256.80479
256.81537
256.82661
256.83883
256.85222
256.86694
256.88312
256.90089
256.9204
256.94182
256.96532
256.99113
257.01943
257.05049
257.08454
257.12188
257.1628
257.20763
257.25673
257.31048
257.36929
257.43362
257.50394
257.58077
257.66465
257.75618
257.85596
257.96467
258.083
258.21168
258.35149
258.50321
258.66768
258.84576
259.03831
259.24625
259.47046
259.71185
259.97132
260.24976
260.54804
260.86697
261.20734
261.56996
261.95513
262.36506
262.79357
263.26934
263.67383
264.50986
257.65656
257.66642
257.67682
257.6881
257.70045
257.71404
257.72898
257.74538
257.7634
257.78317
257.80489
257.82872
257.85488
257.88357
257.91505
257.94956
257.9874
258.02887
258.07431
258.12406
258.17852
258.23812
258.30329
258.37453
258.45235
258.53731
258.63
258.73105
258.84112
258.96091
259.09118
259.23267
259.38622
259.55264
259.7328
259.92758
260.13788
260.3646
260.60865
260.87095
261.15236
261.45377
261.77598
262.11987
262.48582
262.87605
263.28467
263.7395
264.12632
264.92942
258.44256
258.45181
258.4615
258.47198
258.48344
258.49606
258.50994
258.52518
258.54191
258.56029
258.58046
258.60261
258.62692
258.6536
258.68287
258.71497
258.75017
258.78875
258.83104
258.87735
258.92807
258.98359
259.04433
259.11075
259.18334
259.26262
259.34917
259.44358
259.54649
259.65857
259.78053
259.91311
260.05711
260.21334
260.38262
260.56585
260.76389
260.97766
261.20806
261.45602
261.72242
262.00818
262.31413
262.64119
262.9898
263.3622
263.75278
264.1885
264.55919
265.332
259.17184
259.18058
259.18966
259.19945
259.21015
259.22193
259.2349
259.24913
259.26476
259.28192
259.30077
259.32147
259.34419
259.36912
259.39647
259.42648
259.45939
259.49548
259.53503
259.57837
259.62584
259.67781
259.7347
259.79692
259.86495
259.9393
260.02049
260.1091
260.20573
260.31105
260.42573
260.55048
260.68608
260.83332
260.993
261.166
261.35317
261.55543
261.77367
262.00882
262.26178
262.53349
262.82479
263.13666
263.46957
263.82576
264.19989
264.61813
264.97404
265.7189
259.85175
259.86006
259.86861
259.8778
259.88783
259.89889
259.91106
259.92441
259.93908
259.95519
259.97289
259.99231
260.01364
260.03705
260.06274
260.09092
260.12184
260.15574
260.1929
260.23364
260.27826
260.32713
260.38064
260.43918
260.50322
260.57321
260.64969
260.73319
260.82431
260.92366
261.0319
261.14973
261.27789
261.41714
261.56829
261.73217
261.90965
262.10161
262.30896
262.53261
262.77348
263.0325
263.31056
263.60864
263.92726
264.26867
264.62775
265.02994
265.37226
266.09126
260.4883
260.49624
260.50433
260.51299
260.52244
260.53287
260.54433
260.55693
260.57075
260.58594
260.60262
260.62093
260.64104
260.66311
260.68733
260.71391
260.74307
260.77505
260.81011
260.84855
260.89067
260.93681
260.98733
261.04262
261.10312
261.16928
261.24158
261.32056
261.40677
261.50082
261.60334
261.715
261.83653
261.96865
262.11217
262.2679
262.43668
262.61938
262.81692
263.03019
263.26012
263.50765
263.77367
264.0592
264.36477
264.69265
265.0379
265.42531
265.7551
266.4501
261.08649
261.09412
261.1018
261.11
261.11894
261.1288
261.13965
261.15156
261.16464
261.17901
261.1948
261.21213
261.23115
261.25204
261.27497
261.30013
261.32773
261.35801
261.39122
261.42762
261.46751
261.51122
261.55909
261.6115
261.66886
261.73159
261.80018
261.87512
261.95696
262.04628
262.14368
262.24982
262.3654
262.49113
262.62779
262.77617
262.93711
263.11146
263.30011
263.50398
263.72398
263.96104
264.21609
264.49014
264.78376
265.0992
265.43173
265.80547
266.12367
266.79636
261.6505
261.65786
261.6652
261.67299
261.68146
261.69082
261.70113
261.71244
261.72486
261.7385
261.75349
261.76995
261.78802
261.80786
261.82963
261.85353
261.87974
261.90851
261.94005
261.97464
262.01255
262.05409
262.0996
262.14943
262.20397
262.26365
262.32891
262.40023
262.47815
262.56321
262.65602
262.75719
262.86741
262.98738
263.11784
263.25958
263.41342
263.58019
263.76078
263.95608
264.16702
264.39453
264.63954
264.90305
265.18568
265.48965
265.81043
266.17152
266.47896
267.13085
262.18389
262.19103
262.19805
262.20547
262.21354
262.22245
262.23227
262.24305
262.25488
262.26787
262.28215
262.29783
262.31504
262.33394
262.35468
262.37745
262.40243
262.42983
262.45989
262.49285
262.52898
262.56858
262.61197
262.65948
262.7115
262.76842
262.83069
262.89876
262.97314
263.05437
263.14302
263.23971
263.34508
263.45982
263.58467
263.72038
263.86775
264.02762
264.20086
264.38834
264.59099
264.80974
265.04551
265.29933
265.57183
265.86521
266.1751
266.52443
266.82188
267.45433
262.68969
262.69663
262.70337
262.71047
262.71817
262.72669
262.73607
262.74637
262.75767
262.77008
262.78372
262.7987
262.81514
262.83319
262.85301
262.87476
262.89863
262.92481
262.95354
262.98503
263.01956
263.05741
263.09888
263.14431
263.19404
263.24848
263.30804
263.37317
263.44435
263.5221
263.60699
263.6996
263.80057
263.91056
264.03029
264.16051
264.30199
264.45555
264.62205
264.80237
264.99741
265.2081
265.43537
265.68024
265.94337
266.22693
266.52671
266.86509
267.15323
267.76749
263.1705
263.17728
263.18378
263.19058
263.19795
263.20611
263.2151
263.22496
263.23579
263.24768
263.26074
263.27509
263.29084
263.30813
263.32711
263.34795
263.37081
263.39589
263.42341
263.45358
263.48667
263.52293
263.56267
263.6062
263.65387
263.70606
263.76316
263.82561
263.89388
263.96848
264.04994
264.13884
264.23579
264.34145
264.45651
264.58169
264.71777
264.86555
265.02587
265.1996
265.38763
265.59089
265.81031
266.0469
266.30133
266.57577
266.86613
267.1943
267.47375
268.07094
263.6286
263.63524
263.64151
263.64805
263.65513
263.66296
263.6716
263.68107
263.69146
263.70288
263.71542
263.7292
263.74432
263.76093
263.77915
263.79916
263.82111
263.84519
263.87161
263.90059
263.93236
263.96718
264.00535
264.04716
264.09295
264.14308
264.19795
264.25796
264.32358
264.3953
264.47363
264.55914
264.65241
264.7541
264.86488
264.98545
265.11657
265.25903
265.41365
265.5813
265.76286
265.95924
266.17138
266.40029
266.64664
266.91259
267.19417
267.51279
267.78411
268.36526
264.06594
264.07247
264.07855
264.08485
264.09165
264.09919
264.1075
264.11662
264.12662
264.13762
264.14969
264.16294
264.1775
264.19348
264.21102
264.23027
264.25139
264.27457
264.29999
264.32787
264.35845
264.39196
264.42869
264.46893
264.51301
264.56127
264.61409
264.67188
264.73507
264.80415
264.87961
264.962
265.05191
265.14995
265.25679
265.37311
265.49966
265.63721
265.78658
265.9486
266.12417
266.31418
266.51956
266.74132
266.98014
267.23816
267.51154
267.82121
268.0849
268.65096
264.48427
264.49069
264.4966
264.50268
264.50924
264.51651
264.52454
264.53333
264.54298
264.55358
264.56523
264.57801
264.59205
264.60745
264.62437
264.64293
264.6633
264.68565
264.71016
264.73705
264.76653
264.79884
264.83426
264.87307
264.91557
264.96212
265.01307
265.06881
265.12978
265.19643
265.26926
265.34879
265.43559
265.53027
265.63347
265.74587
265.8682
266.00121
266.14571
266.30252
266.47252
266.65661
266.8557
267.07079
267.30259
267.5532
267.81889
268.12016
268.3767
268.92853
264.8851
264.89145
264.89719
264.90308
264.90941
264.91644
264.9242
264.9327
264.94203
264.95227
264.96353
264.97588
264.98944
265.00433
265.02067
265.03861
265.05828
265.07987
265.10356
265.12953
265.15801
265.18922
265.22344
265.26093
265.30199
265.34696
265.39619
265.45005
265.50897
265.57339
265.64379
265.72068
265.80462
265.89619
265.99603
266.10481
266.22322
266.35203
266.492
266.64397
266.80879
266.98736
267.18058
267.38945
267.61468
267.85834
268.11682
268.4102
268.65999
269.1984
265.26979
265.27607
265.28168
265.28738
265.29351
265.30032
265.30783
265.31607
265.3251
265.33502
265.34591
265.35787
265.371
265.38541
265.40123
265.41859
265.43763
265.45853
265.48144
265.50658
265.53414
265.56435
265.59745
265.63373
265.67347
265.71699
265.76463
265.81676
265.87379
265.93614
266.0043
266.07875
266.16003
266.24874
266.34546
266.45087
266.56565
266.69054
266.82631
266.97377
267.13377
267.30718
267.49492
267.69797
267.91703
268.15418
268.40588
268.69182
268.93527
269.46098
265.63953
265.64576
265.65124
265.65679
265.66272
265.66933
265.67662
265.68461
265.69337
265.70299
265.71356
265.72516
265.73789
265.75186
265.7672
265.78403
265.80249
265.82275
265.84496
265.86932
265.89603
265.92531
265.9574
265.99256
266.03108
266.07325
266.11943
266.16996
266.22524
266.28568
266.35176
266.42395
266.50278
266.58881
266.68264
266.78492
266.89633
267.01757
267.14942
267.29267
267.44816
267.61675
267.79935
267.99694
268.21022
268.44124
268.68656
268.96548
269.20295
269.71664
265.99541
266.0016
266.00697
266.01236
266.01813
266.02454
266.03163
266.0394
266.04791
266.05726
266.06752
266.07879
266.09115
266.10473
266.11962
266.13596
266.15389
266.17355
266.19512
266.21877
266.2447
266.27312
266.30427
266.33839
266.37578
266.41671
266.46153
266.51058
266.56423
266.62291
266.68706
266.75715
266.83369
266.91724
267.00838
267.10775
267.216
267.33384
267.46203
267.60134
267.75261
267.91669
268.09447
268.28693
268.49477
268.72001
268.95932
269.23162
269.46343
269.96573
266.33838
266.34455
266.34981
266.35507
266.36067
266.36692
266.37382
266.38138
266.38966
266.39876
266.40874
266.41971
266.43174
266.44494
266.45942
266.47531
266.49275
266.51187
266.53284
266.55583
266.58103
266.60866
266.63894
266.67211
266.70844
266.74822
266.79178
266.83945
266.8916
266.94864
267.01099
267.07912
267.15354
267.23477
267.3234
267.42005
267.52536
267.64002
267.76478
267.90041
268.04771
268.20755
268.3808
268.56844
268.77116
268.99096
269.22459
269.49063
269.71708
270.20856
266.66932
266.67547
266.68064
266.68577
266.69123
266.69732
266.70405
266.71141
266.71948
266.72835
266.73808
266.74876
266.76048
266.77334
266.78745
266.80292
266.8199
266.83851
266.85893
266.88131
266.90585
266.93274
266.9622
266.99449
267.02984
267.06856
267.11095
267.15734
267.20809
267.26359
267.32427
267.39058
267.46301
267.54208
267.62837
267.72247
267.82502
267.93671
268.05825
268.19042
268.33401
268.48987
268.65886
268.84195
269.03984
269.2545
269.48276
269.74286
269.96424
270.44545
266.989
266.99514
267.00024
267.00525
267.01057
267.01651
267.02309
267.03028
267.03815
267.0468
267.0563
267.06672
267.07815
267.09069
267.10445
267.11954
267.13609
267.15424
267.17414
267.19596
267.21987
267.24608
267.2748
267.30625
267.34071
267.37843
267.41973
267.46492
267.51436
267.56844
267.62756
267.69216
267.76274
267.83979
267.92388
268.0156
268.11557
268.22446
268.34299
268.4719
268.612
268.7641
268.92907
269.10788
269.3012
269.511
269.73418
269.98866
270.20523
270.67666
267.29815
267.30429
267.30931
267.31421
267.31941
267.32522
267.33165
267.33867
267.34637
267.35482
267.3641
267.37427
267.38544
267.39769
267.41112
267.42586
267.44202
267.45974
267.47916
267.50045
267.52379
267.54936
267.57737
267.60806
267.64167
267.67847
267.71875
267.76283
267.81105
267.86379
267.92145
267.98446
268.0533
268.12846
268.21049
268.29997
268.39752
268.50378
268.61947
268.74533
268.88213
269.0307
269.19188
269.36663
269.55564
269.76084
269.97919
270.22833
270.44033
270.90246
267.5974
267.60355
267.6085
267.61331
267.61839
267.62407
267.63036
267.63724
267.64477
267.65304
267.66211
267.67207
267.68299
267.69496
267.7081
267.7225
267.7383
267.75561
267.77459
267.7954
267.81819
267.84317
267.87053
267.90051
267.93333
267.96926
268.00859
268.05163
268.09871
268.1502
268.20649
268.26801
268.33522
268.4086
268.4887
268.57608
268.67135
268.77514
268.88816
269.01113
269.14482
269.29005
269.44765
269.61857
269.80349
270.00432
270.21811
270.46217
270.66983
271.12308
267.88735
267.89351
267.8984
267.90312
267.90809
267.91366
267.91983
267.92657
267.93394
267.94204
267.95093
267.96068
267.97137
267.98309
267.99595
268.01004
268.0255
268.04244
268.061
268.08135
268.10365
268.12807
268.15483
268.18413
268.21621
268.25134
268.28978
268.33184
268.37786
268.42817
268.48318
268.5433
268.60898
268.6807
268.75898
268.84438
268.9375
269.03897
269.14947
269.26971
269.40047
269.54254
269.69675
269.86403
270.04508
270.24177
270.45121
270.69044
270.89397
271.33876
268.16853
268.17471
268.17955
268.18419
268.18906
268.19452
268.20057
268.20718
268.21442
268.22236
268.23107
268.24063
268.2511
268.26259
268.27519
268.289
268.30414
268.32073
268.33891
268.35883
268.38066
268.40457
268.43076
268.45943
268.49083
268.52519
268.5628
268.60395
268.64896
268.69818
268.75199
268.81079
268.87503
268.94518
269.02175
269.10528
269.19638
269.29565
269.40377
269.52144
269.64942
269.7885
269.9395
270.10334
270.28071
270.47347
270.67877
270.91341
271.11299
271.5497
268.44144
268.44765
268.45244
268.457
268.46178
268.46715
268.47309
268.47958
268.48668
268.49448
268.50303
268.5124
268.52268
268.53395
268.54631
268.55985
268.5747
268.59096
268.60878
268.62831
268.6497
268.67313
268.69878
268.72687
268.75762
268.79128
268.82811
268.8684
268.91247
268.96065
269.01333
269.07089
269.13377
269.20244
269.2774
269.35918
269.44836
269.54556
269.65143
269.76667
269.89202
270.02827
270.17622
270.33679
270.51066
270.69968
270.90105
271.1313
271.32713
271.7561
268.70654
268.71278
268.71753
268.72202
268.72671
268.73199
268.73783
268.74421
268.75119
268.75885
268.76725
268.77646
268.78655
268.79762
268.80975
268.82304
268.83761
268.85357
268.87106
268.89022
268.9112
268.93417
268.95933
268.98687
269.01701
269.05
269.0861
269.12558
269.16877
269.21598
269.26759
269.32398
269.38559
269.45286
269.5263
269.60642
269.69379
269.78903
269.89277
270.0057
270.12856
270.26212
270.40718
270.56465
270.73519
270.92065
271.11826
271.34433
271.53657
271.95816
268.96424
268.97051
268.97523
268.97965
268.98427
268.98946
268.99521
269.00149
269.00835
269.01588
269.02414
269.0332
269.04312
269.054
269.06592
269.07898
269.09329
269.10897
269.12614
269.14495
269.16555
269.1881
269.21279
269.23981
269.26939
269.30175
269.33716
269.37589
269.41823
269.46453
269.51514
269.57043
269.63083
269.69679
269.76878
269.84733
269.933
270.02637
270.1281
270.23885
270.35934
270.49035
270.63265
270.78716
270.95455
271.1366
271.33064
271.55271
271.74153
272.15604
269.21492
269.22124
269.22593
269.23029
269.23483
269.23994
269.24561
269.25179
269.25855
269.26596
269.27409
269.283
269.29277
269.30347
269.31519
269.32804
269.34211
269.35752
269.3744
269.39288
269.41312
269.43527
269.45952
269.48606
269.51511
269.54688
269.58164
269.61965
269.66121
269.70665
269.75631
269.81056
269.86982
269.93453
270.00516
270.08223
270.16628
270.25789
270.3577
270.46637
270.58462
270.7132
270.85289
271.00459
271.16895
271.34777
271.53839
271.75664
271.94219
272.34992
269.45896
269.46532
269.46998
269.47429
269.47876
269.4838
269.48939
269.49548
269.50214
269.50944
269.51745
269.52623
269.53584
269.54638
269.55792
269.57056
269.58441
269.59957
269.61617
269.63435
269.65425
269.67603
269.69987
269.72596
269.7545
269.78572
269.81986
269.8572
269.89802
269.94264
269.9914
270.04468
270.10286
270.16639
270.23573
270.31139
270.3939
270.48384
270.58183
270.68854
270.80465
270.93092
271.06812
271.21713
271.37861
271.55434
271.7417
271.9563
272.13871
272.53994
269.69667
269.70308
269.70772
269.71197
269.71638
269.72135
269.72687
269.73288
269.73944
269.74665
269.75454
269.76319
269.77267
269.78305
269.79442
269.80687
269.82051
269.83544
269.85178
269.86967
269.88926
269.91069
269.93414
269.9598
269.98786
270.01856
270.05213
270.08883
270.12896
270.17281
270.22072
270.27306
270.33023
270.39264
270.46076
270.53508
270.61614
270.70449
270.80075
270.90558
271.01966
271.14373
271.27855
271.42501
271.58374
271.75651
271.94075
272.15185
272.33126
272.72625
269.92837
269.93483
269.93945
269.94366
269.948
269.95291
269.95836
269.96429
269.97077
269.97788
269.98567
269.99421
270.00355
270.01379
270.025
270.03727
270.05071
270.06542
270.08153
270.09915
270.11843
270.13954
270.16262
270.18788
270.2155
270.2457
270.27873
270.31483
270.35429
270.39741
270.44453
270.49599
270.55219
270.61354
270.6805
270.75356
270.83322
270.92007
271.01469
271.11773
271.22987
271.35184
271.4844
271.62841
271.78452
271.95446
272.13572
272.34346
272.52
272.909
270.15433
270.16085
270.16545
270.16962
270.17391
270.17875
270.18414
270.19
270.1964
270.20342
270.21112
270.21954
270.22877
270.23887
270.24993
270.26204
270.27529
270.2898
270.30567
270.32305
270.34205
270.36284
270.38558
270.41046
270.43766
270.4674
270.49991
270.53545
270.57428
270.61671
270.66307
270.7137
270.76898
270.82933
270.89519
270.96704
271.04539
271.13079
271.22385
271.32519
271.43548
271.55545
271.68585
271.82753
271.98113
272.14836
272.32675
272.53129
272.70507
273.08831
270.37483
270.38141
270.386
270.39012
270.39436
270.39915
270.40448
270.41028
270.41661
270.42354
270.43115
270.43947
270.44858
270.45856
270.46948
270.48143
270.49451
270.50883
270.52449
270.54162
270.56036
270.58086
270.60328
270.6278
270.6546
270.6839
270.71593
270.75093
270.78917
270.83095
270.87658
270.92642
270.98083
271.04023
271.10504
271.17574
271.25284
271.33688
271.42844
271.52816
271.63669
271.75475
271.88308
272.02253
272.17372
272.33837
272.51402
272.71547
272.8866
273.26431
270.59011
270.59675
270.60133
270.60542
270.60961
270.61435
270.61963
270.62536
270.63162
270.63848
270.646
270.65423
270.66323
270.67309
270.68388
270.69569
270.70861
270.72274
270.7382
270.75511
270.77361
270.79383
270.81595
270.84012
270.86655
270.89544
270.927
270.96149
270.99918
271.04034
271.08529
271.13437
271.18796
271.24645
271.31026
271.37988
271.45578
271.53852
271.62866
271.72683
271.83368
271.94991
272.07626
272.21357
272.36247
272.52463
272.69765
272.89614
273.06473
273.43711
270.80041
270.80712
270.81169
270.81575
270.81989
270.82458
270.82981
270.83549
270.84168
270.84847
270.85591
270.86405
270.87296
270.88271
270.89337
270.90504
270.91781
270.93177
270.94704
270.96374
270.98201
271.00197
271.0238
271.04765
271.07373
271.10222
271.13335
271.16736
271.20451
271.24509
271.28939
271.33776
271.39056
271.44819
271.51106
271.57963
271.6544
271.73589
271.82468
271.92136
272.0266
272.14109
272.26555
272.40082
272.54751
272.70729
272.87778
273.07343
273.23958
273.60684
271.00594
271.01271
271.01728
271.02131
271.02541
271.03006
271.03524
271.04087
271.047
271.05372
271.06109
271.06915
271.07796
271.08761
271.09816
271.1097
271.12232
271.13613
271.15122
271.16773
271.18577
271.20549
271.22704
271.2506
271.27634
271.30446
271.33518
271.36873
271.40538
271.44539
271.48908
271.53678
271.58883
271.64563
271.7076
271.77518
271.84886
271.92917
272.01666
272.11193
272.21564
272.32845
272.4511
272.58441
272.72898
272.88648
273.05455
273.24746
273.41126
273.77358
271.20691
271.21375
271.21832
271.22231
271.22637
271.23099
271.23612
271.2417
271.24778
271.25444
271.26174
271.26972
271.27845
271.288
271.29844
271.30986
271.32235
271.33601
271.35093
271.36725
271.38509
271.40458
271.42587
271.44914
271.47457
271.50233
271.53266
271.56579
271.60195
271.64144
271.68454
271.73159
271.78293
271.83895
271.90006
271.9667
272.03934
272.11852
272.20477
272.29869
272.40092
272.51214
272.63305
272.76448
272.90702
273.06232
273.22807
273.41835
273.57989
273.93746
271.4035
271.41041
271.41498
271.41895
271.42297
271.42755
271.43265
271.43818
271.44421
271.45081
271.45804
271.46595
271.4746
271.48406
271.4944
271.50571
271.51808
271.53159
271.54636
271.56251
271.58014
271.59942
271.62047
271.64347
271.66859
271.69603
271.72599
271.7587
271.79441
271.83339
271.87594
271.92238
271.97304
272.02831
272.0886
272.15434
272.22599
272.30408
272.38915
272.48178
272.5826
272.69229
272.81154
272.94116
273.08176
273.23495
273.39845
273.5862
273.74557
274.09855
271.5959
271.60288
271.60745
271.6114
271.61539
271.61993
271.62499
271.63048
271.63646
271.64302
271.65019
271.65803
271.6666
271.67598
271.68623
271.69743
271.70968
271.72306
271.73768
271.75366
271.77112
271.79018
271.81101
271.83375
271.85859
271.88571
271.91532
271.94764
271.98292
272.02143
272.06344
272.10929
272.15931
272.21387
272.27337
272.33825
272.40896
272.48602
272.56995
272.66134
272.76081
272.86903
272.98668
273.11457
273.2533
273.40446
273.56581
273.75113
273.90839
274.25695
271.78428
271.79133
271.79591
271.79983
271.80379
271.8083
271.81333
271.81878
271.82472
271.83122
271.83833
271.84611
271.85462
271.86391
271.87408
271.88518
271.89732
271.91057
271.92506
271.94088
271.95816
271.97703
271.99764
272.02015
272.04472
272.07154
272.10081
272.13276
272.16763
272.20568
272.2472
272.29249
272.34189
272.39577
272.45453
272.51858
272.58839
272.66445
272.7473
272.83751
272.93568
273.04249
273.15861
273.28483
273.42176
273.57097
273.73025
273.91322
274.06846
274.41275
271.96878
271.97591
271.98049
271.9844
271.98833
271.99281
271.99781
272.00322
272.00912
272.01557
272.02264
272.03036
272.0388
272.04802
272.0581
272.06912
272.08115
272.09429
272.10864
272.12432
272.14144
272.16013
272.18053
272.20281
272.22712
272.25366
272.28262
272.31421
272.34869
272.38631
272.42734
272.4721
272.52092
272.57415
272.63219
272.69545
272.7644
272.83951
272.92132
273.01039
273.10733
273.21278
273.32743
273.45205
273.58725
273.73458
273.89186
274.07257
274.22587
274.56603
272.14957
272.15677
272.16137
272.16526
272.16916
272.17361
272.17858
272.18397
272.18982
272.19624
272.20325
272.21092
272.2193
272.22845
272.23846
272.24938
272.26132
272.27435
272.28858
272.30412
272.32108
272.3396
272.35981
272.38187
272.40594
272.43221
272.46087
272.49213
272.52624
272.56344
272.60402
272.64827
272.69652
272.74914
272.80649
272.869
272.93712
273.01133
273.09214
273.18012
273.27586
273.38001
273.49325
273.61633
273.74986
273.89539
274.05074
274.22927
274.38069
274.71687
272.32678
272.33407
272.33867
272.34254
272.34642
272.35085
272.35579
272.36114
272.36697
272.37334
272.38032
272.38793
272.39625
272.40535
272.41528
272.42612
272.43796
272.45089
272.46501
272.48042
272.49723
272.51559
272.53562
272.55747
272.58131
272.60733
272.6357
272.66665
272.7004
272.73721
272.77735
272.82111
272.86883
272.92085
272.97756
273.03935
273.10667
273.18001
273.25986
273.3468
273.44139
273.5443
273.65617
273.77778
273.90971
274.05349
274.20699
274.38341
274.53302
274.86535
272.50055
272.50791
272.51253
272.51639
272.52024
272.52465
272.52957
272.5349
272.54069
272.54702
272.55396
272.56153
272.5698
272.57883
272.58869
272.59946
272.61122
272.62405
272.63806
272.65334
272.67002
272.68822
272.70808
272.72974
272.75337
272.77913
272.80724
272.83788
272.8713
272.90773
272.94745
272.99076
273.03797
273.08942
273.1455
273.2066
273.27317
273.34566
273.4246
273.51053
273.60403
273.70573
273.81629
273.93648
274.06686
274.20897
274.36068
274.53506
274.68292
275.01153
272.671
272.67845
272.68308
272.68693
272.69076
272.69514
272.70004
272.70534
272.7111
272.71741
272.7243
272.73183
272.74005
272.74903
272.75883
272.76953
272.7812
272.79395
272.80785
272.82302
272.83957
272.85763
272.87732
272.89879
272.92221
272.94775
272.9756
273.00595
273.03905
273.07512
273.11445
273.15731
273.20403
273.25495
273.31042
273.37087
273.4367
273.5084
273.58646
273.67142
273.76386
273.86441
273.97371
274.09252
274.22142
274.36191
274.51189
274.68431
274.83048
275.15549
272.83826
272.84579
272.85043
272.85427
272.85808
272.86245
272.86733
272.8726
272.87834
272.88461
272.89147
272.89896
272.90714
272.91606
272.9258
272.93644
272.94804
272.9607
272.9745
272.98957
273.00599
273.02391
273.04345
273.06475
273.08798
273.11329
273.14089
273.17098
273.20376
273.2395
273.27845
273.32089
273.36714
273.41753
273.47244
273.53225
273.59739
273.66831
273.74553
273.82956
273.92099
274.02042
274.12851
274.246
274.37346
274.51239
274.6607