/*--------------------------------*- C++ -*----------------------------------*\
| =========                 |                                                 |
| \\      /  F ield         | OpenFOAM: The Open Source CFD Toolbox           |
|  \\    /   O peration     | Version:  4.0                                   |
|   \\  /    A nd           | Web:      www.OpenFOAM.org                      |
|    \\/     M anipulation  |                                                 |
\*---------------------------------------------------------------------------*/
FoamFile
{
    version     2.0;
    format      ascii;
    class       volScalarField;
    location    "846";
    object      ILambda_9_0;
}
// * * * * * * * * * * * * * * * * * * * * * * * * * * * * * * * * * * * * * //

dimensions      [1 0 -3 0 0 0 0];

internalField   nonuniform List<scalar> 
5000
(
204.97073
205.05186
205.13876
205.23414
205.33891
205.45405
205.58059
205.71969
205.87259
206.04064
206.22532
206.42826
206.65124
206.89619
207.16523
207.46065
207.78497
208.14086
208.53126
208.95928
209.4283
209.94188
210.50381
211.11807
211.78881
212.52027
213.31675
214.18248
215.12154
216.13767
217.23406
218.41316
219.67633
221.02356
222.45303
223.96081
225.54041
227.18251
228.8747
230.60158
232.34495
234.08454
235.7991
237.46816
239.07295
240.60308
242.03869
243.43624
244.56123
246.49534
230.06952
230.13193
230.19862
230.2716
230.3515
230.43899
230.53475
230.63955
230.75419
230.87952
231.01645
231.16595
231.32907
231.50688
231.70053
231.91122
232.14017
232.38865
232.65793
232.94927
233.26392
233.60304
233.96773
234.35893
234.77741
235.22367
235.6979
236.19991
236.72904
237.28408
237.86319
238.46388
239.08291
239.71634
240.35958
241.00748
241.65462
242.29558
242.92546
243.5404
244.13825
244.7192
245.28633
245.84607
246.40726
246.9839
247.57904
248.24542
248.81795
250.03771
237.84715
237.87362
237.90125
237.93142
237.96441
238.0005
238.03998
238.08317
238.13039
238.182
238.23836
238.29988
238.36698
238.44012
238.51978
238.60645
238.70066
238.80296
238.91391
239.03409
239.16407
239.30446
239.45585
239.61885
239.79403
239.98199
240.18328
240.39847
240.62811
240.87275
241.13297
241.4094
241.70275
242.01385
242.34372
242.69364
243.06517
243.46022
243.88108
244.33036
244.8109
245.32555
245.87686
246.46682
247.09562
247.76452
248.46162
249.22143
249.86995
251.12723
242.01906
242.03646
242.05436
242.07391
242.09533
242.1188
242.14453
242.17274
242.20367
242.23758
242.27474
242.31546
242.36005
242.40889
242.46234
242.52083
242.5848
242.65473
242.73114
242.81457
242.90561
243.0049
243.11309
243.2309
243.35909
243.49846
243.64984
243.81414
243.99227
244.18521
244.39396
244.61958
244.86313
245.1257
245.40837
245.7122
246.03819
246.38726
246.76017
247.15751
247.57958
248.02643
248.49772
248.99294
249.5108
250.05217
250.60835
251.21187
251.72182
252.73972
245.02415
245.0376
245.05127
245.0662
245.08255
245.10047
245.12013
245.1417
245.16537
245.19135
245.21984
245.25108
245.28535
245.32292
245.3641
245.40922
245.45866
245.5128
245.57206
245.63689
245.70779
245.78527
245.8699
245.96227
246.06301
246.17282
246.29239
246.42249
246.56389
246.71743
246.88395
247.06432
247.25944
247.47021
247.69755
247.94234
248.20548
248.48782
248.79017
249.11331
249.45797
249.82482
250.21448
250.62763
251.06443
251.5271
252.00889
252.54049
252.9932
253.9154
247.39238
247.4035
247.41464
247.42679
247.44009
247.45467
247.47067
247.48822
247.50749
247.52864
247.55184
247.5773
247.60524
247.63588
247.66948
247.70634
247.74674
247.79102
247.83954
247.89267
247.95082
248.01445
248.08402
248.16006
248.24311
248.33376
248.43264
248.54041
248.65777
248.78546
248.92425
249.07494
249.23838
249.41543
249.60696
249.81389
250.03711
250.27754
250.53608
250.8136
251.11097
251.429
251.76842
252.13001
252.514
252.9224
253.3491
253.8217
254.2243
255.04959
249.35041
249.35995
249.36933
249.37955
249.39073
249.40298
249.41642
249.43118
249.44737
249.46514
249.48465
249.50606
249.52955
249.55532
249.5836
249.61463
249.64866
249.68598
249.7269
249.77173
249.82083
249.8746
249.93344
249.9978
250.06816
250.14505
250.22901
250.32063
250.42054
250.5294
250.6479
250.77679
250.91683
251.06882
251.23359
251.41199
251.6049
251.81319
252.03775
252.27947
252.53921
252.81784
253.11616
253.43502
253.77479
254.13755
254.51793
254.94146
255.3026
256.05051
251.01107
251.0195
251.0276
251.03641
251.04604
251.05659
251.06816
251.08086
251.09479
251.11009
251.12688
251.14531
251.16554
251.18773
251.21209
251.23882
251.26816
251.30034
251.33563
251.37432
251.41673
251.46318
251.51405
251.56973
251.63065
251.69726
251.77007
251.8496
251.93641
252.0311
252.13431
252.24671
252.36901
252.50195
252.6463
252.80287
252.97249
253.156
253.35428
253.5682
253.79865
254.04649
254.31257
254.59781
254.90268
255.22925
255.5727
255.95674
256.28447
256.96824
252.45063
252.45827
252.4654
252.47314
252.48159
252.49085
252.50099
252.51212
252.52433
252.53774
252.55246
252.5686
252.58633
252.60578
252.62713
252.65057
252.6763
252.70454
252.73551
252.76949
252.80673
252.84756
252.89228
252.94125
252.99487
253.05354
253.11771
253.18785
253.26448
253.34814
253.43941
253.53891
253.6473
253.76526
253.89352
254.03283
254.18398
254.34779
254.52508
254.71672
254.92357
255.1465
255.38638
255.64414
255.92032
256.21694
256.52967
256.8806
257.18023
257.80949
253.71853
253.72561
253.73199
253.73889
253.74642
253.75466
253.76368
253.77358
253.78445
253.79637
253.80946
253.82381
253.83957
253.85686
253.87585
253.8967
253.91958
253.9447
253.97228
254.00252
254.0357
254.07206
254.11192
254.15559
254.20342
254.25578
254.31308
254.37575
254.44426
254.51911
254.60084
254.69002
254.78724
254.89316
255.00845
255.13382
255.27001
255.41781
255.578
255.75142
255.93891
256.14134
256.35956
256.59452
256.8468
257.11836
257.40528
257.72823
258.0041
258.58674
254.85016
254.85684
254.86262
254.86886
254.87565
254.88307
254.8912
254.90012
254.9099
254.92063
254.9324
254.94531
254.95948
254.97504
254.99211
255.01086
255.03146
255.05407
255.07888
255.10612
255.136
255.16876
255.20468
255.24404
255.28717
255.33441
255.38612
255.44272
255.50461
255.57228
255.64621
255.72693
255.81501
255.91104
256.01566
256.12954
256.25338
256.38791
256.53391
256.69216
256.86349
257.04876
257.24879
257.46453
257.69658
257.94687
258.21179
258.51077
258.76624
259.30852
255.87094
255.87734
255.88265
255.88835
255.89454
255.90129
255.90869
255.9168
255.92569
255.93544
255.94613
255.95786
255.97073
255.98485
256.00036
256.01739
256.03609
256.05663
256.07918
256.10394
256.1311
256.16089
256.19355
256.22936
256.26861
256.3116
256.3587
256.41025
256.46666
256.52836
256.59581
256.6695
256.74995
256.83772
256.93342
257.03767
257.15114
257.27453
257.40856
257.554
257.71166
257.88234
258.06689
258.26622
258.48096
258.71297
258.95892
259.23716
259.47497
259.98199
256.79993
256.80616
256.81107
256.81633
256.82203
256.82823
256.83502
256.84245
256.8506
256.85954
256.86933
256.88007
256.89185
256.90478
256.91897
256.93456
256.95168
256.97049
256.99115
257.01382
257.03871
257.066
257.09594
257.12877
257.16475
257.20419
257.24739
257.2947
257.3465
257.40317
257.46514
257.53288
257.60688
257.68767
257.7758
257.87188
257.97652
258.09041
258.21423
258.34871
258.49464
258.6528
258.82402
259.00919
259.20894
259.42509
259.65454
259.91465
260.13702
260.61298
257.65169
257.65783
257.66243
257.66732
257.67259
257.67834
257.68461
257.69148
257.69901
257.70725
257.71629
257.72619
257.73705
257.74896
257.76204
257.77641
257.79219
257.80953
257.82858
257.84949
257.87244
257.89762
257.92523
257.95552
257.98873
258.02513
258.06502
258.10872
258.15657
258.20895
258.26625
258.32891
258.39738
258.47218
258.55381
258.64286
258.73992
258.84561
258.96062
259.08563
259.2214
259.3687
259.52832
259.70114
259.88781
260.09006
260.30503
260.54917
260.75793
261.20635
258.43763
258.44375
258.44808
258.45265
258.45758
258.46293
258.46877
258.47515
258.48215
258.4898
258.49819
258.50738
258.51745
258.52849
258.54062
258.55393
258.56856
258.58464
258.60231
258.6217
258.64299
258.66635
258.69197
258.72008
258.7509
258.78469
258.82173
258.86231
258.90676
258.95543
259.00869
259.06695
259.13064
259.20024
259.27625
259.3592
259.44966
259.54823
259.65555
259.7723
259.89919
260.03697
260.18642
260.3484
260.52354
260.71353
260.91569
261.14568
261.34236
261.76619
259.16682
259.17296
259.17707
259.18139
259.18601
259.19102
259.19649
259.20246
259.20899
259.21614
259.22397
259.23254
259.24192
259.25221
259.26351
259.27591
259.28955
259.30453
259.321
259.33908
259.35893
259.38071
259.4046
259.43081
259.45955
259.49107
259.52563
259.5635
259.60498
259.65042
259.70016
259.75458
259.8141
259.87917
259.95025
260.02786
260.11253
260.20484
260.30541
260.41489
260.53395
260.66334
260.8038
260.95617
261.12109
261.30019
261.49095
261.70829
261.89419
262.29595
259.84659
259.85281
259.85674
259.86083
259.86519
259.86992
259.87505
259.88066
259.8868
259.89351
259.90085
259.90887
259.91766
259.92729
259.93786
259.94948
259.96224
259.97627
259.99168
260.00862
260.0272
260.0476
260.06998
260.09452
260.12145
260.15097
260.18335
260.21884
260.25772
260.30032
260.34696
260.39801
260.45385
260.51492
260.58166
260.65455
260.73411
260.8209
260.91549
261.01851
261.13063
261.25256
261.38502
261.52883
261.68463
261.85399
262.03454
262.24054
262.41674
262.79859
260.48298
260.48931
260.49308
260.49698
260.50112
260.50559
260.51045
260.51574
260.52153
260.52785
260.53476
260.54231
260.55057
260.55963
260.56956
260.58047
260.59246
260.60565
260.62014
260.63606
260.65353
260.67271
260.69375
260.71683
260.74214
260.76991
260.80036
260.83374
260.87033
260.91041
260.95431
261.00236
261.05495
261.11247
261.17535
261.24405
261.31907
261.40093
261.49019
261.58746
261.69338
261.80864
261.93393
262.07008
262.21768
262.37828
262.54964
262.7454
262.91286
263.27666
261.08097
261.08745
261.09109
261.09482
261.09878
261.10302
261.10763
261.11265
261.11813
261.12411
261.13064
261.13777
261.14556
261.1541
261.16347
261.17376
261.18507
261.19751
261.21118
261.2262
261.24269
261.26078
261.28063
261.3024
261.32629
261.35249
261.38123
261.41273
261.44727
261.48511
261.52656
261.57195
261.62163
261.67598
261.73541
261.80037
261.87132
261.94877
262.03325
262.12536
262.22571
262.33497
262.45382
262.58305
262.72326
262.87595
263.039
263.22547
263.385
263.73236
261.64476
261.65142
261.65495
261.65855
261.66233
261.66638
261.67077
261.67555
261.68075
261.68643
261.69262
261.69938
261.70676
261.71484
261.7237
261.73344
261.74414
261.75591
261.76885
261.78306
261.79867
261.81579
261.83458
261.85518
261.87779
261.90259
261.9298
261.95962
261.99232
262.02816
262.06742
262.11041
262.15748
262.20898
262.26532
262.3269
262.39419
262.46767
262.54786
262.63531
262.73063
262.83446
262.94748
263.07046
263.20397
263.34948
263.50496
263.68299
263.8353
264.16763
262.17791
262.18477
262.18822
262.19169
262.19533
262.19921
262.2034
262.20796
262.21292
262.21833
262.22422
262.23064
262.23765
262.24532
262.25373
262.26296
262.27312
262.28429
262.29657
262.31006
262.32487
262.34113
262.35896
262.37852
262.39998
262.42352
262.44934
262.47766
262.5087
262.54273
262.58001
262.62084
262.66556
262.71449
262.76803
262.82657
262.89055
262.96044
263.03673
263.11996
263.21072
263.30963
263.41735
263.53463
263.66204
263.801
263.94959
264.11989
264.2656
264.58416
262.68345
262.69054
262.69391
262.69728
262.70078
262.70451
262.70853
262.7129
262.71764
262.72281
262.72843
262.73455
262.74122
262.74852
262.75652
262.76531
262.77497
262.7856
262.79729
262.81013
262.82422
262.83969
262.85666
262.87527
262.89569
262.91809
262.94266
262.96962
262.99916
263.03155
263.06705
263.10593
263.1485
263.19511
263.24611
263.30189
263.36286
263.42948
263.50222
263.58161
263.66822
263.76265
263.86554
263.97761
264.09945
264.23242
264.37469
264.53791
264.67757
264.98344
263.16399
263.17132
263.17464
263.17791
263.1813
263.1849
263.18877
263.19295
263.19751
263.20245
263.20783
263.21368
263.22005
263.22701
263.23464
263.24302
263.25224
263.26237
263.27352
263.28577
263.29922
263.31398
263.33016
263.34792
263.36739
263.38876
263.4122
263.43791
263.4661
263.497
263.53086
263.56796
263.60859
263.65308
263.70177
263.75503
263.81326
263.8769
263.9464
264.02228
264.10509
264.19541
264.29387
264.40118
264.51791
264.64538
264.78185
264.93855
265.07263
265.36679
263.6218
263.62939
263.63265
263.63585
263.63915
263.64262
263.64635
263.65038
263.65476
263.65951
263.66466
263.67026
263.67636
263.68302
263.69031
263.69832
263.70713
263.71682
263.72748
263.73919
263.75205
263.76616
263.78163
263.7986
263.81722
263.83764
263.86005
263.88462
263.91157
263.94111
263.97349
264.00896
264.04782
264.09037
264.13694
264.1879
264.24362
264.30452
264.37106
264.44373
264.52305
264.6096
264.70399
264.80692
264.91893
265.04134
265.17246
265.32314
265.45207
265.7354
264.05884
264.06671
264.06994
264.07307
264.07627
264.07964
264.08325
264.08714
264.09136
264.09593
264.10088
264.10626
264.1121
264.11848
264.12547
264.13314
264.14158
264.15086
264.16107
264.1723
264.18462
264.19813
264.21295
264.2292
264.24703
264.26659
264.28805
264.31159
264.3374
264.3657
264.39672
264.4307
264.46793
264.5087
264.55333
264.60217
264.65558
264.71398
264.77779
264.84749
264.9236
265.00668
265.09732
265.1962
265.30387
265.4216
265.54777
265.69288
265.81705
266.09032
264.47686
264.48501
264.48821
264.49129
264.49442
264.49769
264.50118
264.50495
264.50902
264.51343
264.5182
264.52337
264.52899
264.53511
264.54182
264.54917
264.55727
264.56618
264.57599
264.58676
264.59859
264.61156
264.62578
264.64137
264.65848
264.67725
264.69784
264.72042
264.74519
264.77235
264.80211
264.83472
264.87045
264.90959
264.95243
264.99932
265.0506
265.10669
265.16798
265.23495
265.30809
265.38796
265.47513
265.57028
265.67392
265.78731
265.90889
266.04883
266.16857
266.43249
264.87737
264.88582
264.889
264.89203
264.89509
264.89828
264.90167
264.90532
264.90926
264.91352
264.91813
264.92311
264.92852
264.93441
264.94085
264.94793
264.95571
264.96428
264.9737
264.98406
264.99544
265.0079
265.02158
265.03657
265.05301
265.07105
265.09084
265.11254
265.13635
265.16245
265.19106
265.22241
265.25675
265.29437
265.33557
265.38065
265.42997
265.48391
265.54288
265.60731
265.67771
265.7546
265.83856
265.93024
266.03015
266.13951
266.25683
266.39195
266.50758
266.76277
265.26172
265.27049
265.27366
265.27665
265.27965
265.28276
265.28606
265.28961
265.29343
265.29755
265.30201
265.30682
265.31203
265.3177
265.32391
265.33072
265.33821
265.34646
265.35554
265.36552
265.37647
265.38848
265.40165
265.41608
265.43191
265.44927
265.46832
265.48922
265.51213
265.53726
265.56479
265.59497
265.62804
265.66426
265.70392
265.74734
265.79484
265.8468
265.9036
265.96568
266.03353
266.10766
266.18863
266.27707
266.37351
266.47912
266.59246
266.7231
266.83489
267.08192
265.63113
265.64022
265.64338
265.64634
265.64928
265.65232
265.65554
265.659
265.66271
265.66671
265.67102
265.67567
265.68071
265.68618
265.69217
265.69873
265.70596
265.71392
265.72268
265.73231
265.74287
265.75445
265.76715
265.78106
265.79632
265.81306
265.83142
265.85157
265.87366
265.89788
265.92442
265.95352
265.9854
266.02032
266.05856
266.10042
266.14623
266.19634
266.25113
266.31103
266.3765
266.44806
266.52624
266.61168
266.70487
266.80698
266.91661
267.04305
267.15126
267.39065
265.98666
265.99608
265.99924
266.00217
266.00507
266.00805
266.0112
266.01456
266.01818
266.02206
266.02625
266.03075
266.03562
266.04091
266.04669
266.05303
266.06001
266.0677
266.07616
266.08546
266.09566
266.10685
266.11911
266.13254
266.14727
266.16343
266.18116
266.20061
266.22193
266.24531
266.27093
266.29902
266.32979
266.3635
266.40042
266.44084
266.48507
266.53346
266.58638
266.64424
266.70749
266.77664
266.85223
266.93485
267.02501
267.12385
267.23001
267.35252
267.45736
267.68959
266.32928
266.33903
266.3422
266.34511
266.34797
266.3509
266.35397
266.35726
266.36079
266.36457
266.36863
266.373
266.37772
266.38284
266.38842
266.39456
266.40131
266.40874
266.41693
266.42592
266.43579
266.44661
266.45846
266.47145
266.48569
266.50131
266.51845
266.53724
266.55785
266.58045
266.60521
266.63236
266.6621
266.69468
266.73037
266.76944
266.8122
266.85898
266.91014
266.9661
267.02728
267.09418
267.16733
267.24732
267.33464
267.43041
267.53332
267.65215
267.75383
267.97933
266.65985
266.66995
266.67314
266.67603
266.67885
266.68173
266.68475
266.68796
266.6914
266.69509
266.69904
266.70328
266.70786
266.71282
266.71823
266.72416
266.7307
266.7379
266.74583
266.75454
266.7641
266.77458
266.78605
266.79862
266.81241
266.82752
266.8441
266.86229
266.88223
266.9041
266.92806
266.95433
266.98311
267.01464
267.04917
267.08698
267.12836
267.17364
267.22316
267.27733
267.33657
267.40136
267.47223
267.54975
267.63441
267.72729
267.82715
267.94251
268.04123
268.26039
266.97917
266.98962
266.99282
266.9957
266.99849
267.00133
267.00429
267.00744
267.0108
267.0144
267.01825
267.02238
267.02682
267.03163
267.03688
267.04263
267.04897
267.05595
267.06364
267.07209
267.08136
267.09151
267.10263
267.11482
267.12817
267.14282
267.15888
267.1765
267.19582
267.217
267.24021
267.26565
267.29353
267.32407
267.35753
267.39415
267.43424
267.47811
267.52609
267.57858
267.636
267.69882
267.76753
267.84273
267.92489
268.01507
268.11205
268.22415
268.32008
268.53326
267.28794
267.29875
267.30197
267.30484
267.30761
267.3104
267.31332
267.31641
267.3197
267.32322
267.32697
267.33099
267.33531
267.33998
267.34507
267.35066
267.35681
267.36358
267.37105
267.37925
267.38825
267.3981
267.4089
267.42071
267.43367
267.44787
267.46345
267.48054
267.49928
267.51981
267.54232
267.56699
267.59402
267.62364
267.65608
267.69159
267.73047
267.77301
267.81955
267.87047
267.92617
267.98712
268.05382
268.12683
268.20664
268.29426
268.38853
268.49755
268.59085
268.79838
267.58682
267.59799
267.60123
267.60409
267.60684
267.6096
267.61247
267.61551
267.61874
267.62218
267.62585
267.62976
267.63397
267.63851
267.64345
267.64888
267.65485
267.66144
267.66869
267.67667
267.68541
267.69498
267.70547
267.71694
267.72952
267.74331
267.75844
267.77503
267.79321
267.81315
267.835
267.85894
267.88518
267.91392
267.9454
267.97988
268.01761
268.05891
268.10408
268.15351
268.2076
268.2668
268.3316
268.40255
268.48013
268.56534
268.65705
268.76318
268.85399
269.05618
267.87638
267.88792
267.89119
267.89405
267.89678
267.89951
267.90234
267.90532
267.9085
267.91187
267.91545
267.91928
267.92337
267.92779
267.9326
267.93788
267.94369
267.95009
267.95715
267.96491
267.97341
267.98272
267.99292
268.00407
268.0163
268.0297
268.0444
268.06052
268.07819
268.09756
268.11878
268.14205
268.16753
268.19546
268.22604
268.25953
268.29619
268.33631
268.3802
268.42823
268.4808
268.53834
268.60134
268.67035
268.74582
268.82876
268.91806
269.02143
269.1099
269.30703
268.15718
268.16909
268.17238
268.17525
268.17797
268.18067
268.18346
268.1864
268.18952
268.19282
268.19634
268.20007
268.20406
268.20837
268.21305
268.21819
268.22384
268.23008
268.23695
268.24451
268.25279
268.26185
268.27177
268.28263
268.29452
268.30756
268.32185
268.33753
268.35471
268.37355
268.39419
268.41681
268.44159
268.46874
268.49848
268.53104
268.56668
268.60569
268.64837
268.69508
268.7462
268.80218
268.86348
268.93065
269.00414
269.08493
269.17193
269.27271
269.35895
269.55129
268.42971
268.44199
268.44532
268.44819
268.45089
268.45357
268.45633
268.45923
268.46229
268.46554
268.46898
268.47263
268.47653
268.48073
268.48529
268.4903
268.49581
268.50189
268.50859
268.51595
268.52402
268.53285
268.54251
268.55308
268.56466
268.57735
268.59127
268.60653
268.62326
268.64159
268.66168
268.68369
268.7078
268.73422
268.76316
268.79484
268.82952
268.86748
268.90902
268.95447
269.00423
269.05873
269.11842
269.18385
269.25546
269.33421
269.41904
269.51735
269.60148
269.78928
268.69441
268.70707
268.71043
268.71332
268.71601
268.71867
268.7214
268.72426
268.72728
268.73047
268.73384
268.73742
268.74123
268.74533
268.74978
268.75465
268.76003
268.76596
268.77249
268.77967
268.78755
268.79616
268.80557
268.81588
268.82716
268.83953
268.85309
268.86795
268.88425
268.9021
268.92167
268.94311
268.96659
268.99232
269.0205
269.05135
269.08513
269.12209
269.16254
269.20681
269.25528
269.30837
269.36654
269.43031
269.50014
269.57695
269.65973
269.7557
269.83782
270.02129
268.95172
268.96476
268.96816
268.97105
268.97374
268.97638
268.97908
268.98191
268.98488
268.98802
268.99134
268.99484
268.99857
269.00257
269.00691
269.01167
269.01692
269.02271
269.02909
269.0361
269.04378
269.05219
269.06137
269.07143
269.08243
269.09449
269.10771
269.1222
269.13809
269.15549
269.17456
269.19546
269.21834
269.24342
269.27088
269.30095
269.33386
269.36988
269.4093
269.45245
269.49969
269.55145
269.60817
269.67038
269.7385
269.81348
269.8943
269.98805
270.06827
270.24763
269.20201
269.21543
269.21887
269.22178
269.22447
269.22709
269.22977
269.23256
269.2355
269.23859
269.24185
269.24528
269.24893
269.25284
269.25708
269.26173
269.26686
269.27251
269.27875
269.2856
269.2931
269.30131
269.31028
269.3201
269.33084
269.3426
269.3555
269.36964
269.38514
269.40212
269.42072
269.4411
269.46342
269.48788
269.51466
269.54398
269.57608
269.6112
269.64964
269.69172
269.7378
269.78829
269.84364
269.90435
269.97087
270.0441
270.12306
270.21469
270.2931
270.46854
269.44564
269.45946
269.46294
269.46586
269.46854
269.47116
269.47381
269.47658
269.47948
269.48252
269.48573
269.4891
269.49267
269.4965
269.50065
269.50519
269.5102
269.51573
269.52182
269.52852
269.53586
269.54389
269.55265
269.56224
269.57273
269.58422
269.59682
269.61062
269.62575
269.64233
269.66048
269.68037
269.70216
269.72602
269.75216
269.78077
269.81209
269.84637
269.88388
269.92494
269.96991
270.0192
270.07323
270.13253
270.19751
270.26908
270.34627
270.43588
270.51257
270.68427
269.68295
269.69716
269.70068
269.70362
269.7063
269.70891
269.71154
269.71428
269.71715
269.72015
269.72331
269.72662
269.73012
269.73387
269.73793
269.74237
269.74727
269.75268
269.75865
269.7652
269.77238
269.78023
269.7888
269.79817
269.80842
269.81965
269.83196
269.84545
269.86023
269.87642
269.89416
269.91358
269.93486
269.95816
269.98368
270.01162
270.0422
270.07567
270.11229
270.15239
270.19631
270.24445
270.29724
270.35518
270.4187
270.48868
270.56419
270.65188
270.72692
270.89506
269.91424
269.92884
269.93241
269.93536
269.93805
269.94065
269.94327
269.94598
269.94882
269.95179
269.95489
269.95815
269.96158
269.96525
269.96923
269.97358
269.97837
269.98367
269.98951
269.99593
270.00296
270.01064
270.01903
270.0282
270.03822
270.04921
270.06124
270.07443
270.08888
270.1047
270.12203
270.14102
270.16181
270.18458
270.20951
270.23681
270.26669
270.29939
270.33517
270.37434
270.41726
270.4643
270.5159
270.57256
270.63469
270.70315
270.77705
270.8629
270.93637
271.10111
270.1398
270.15479
270.15841
270.16138
270.16408
270.16667
270.16927
270.17196
270.17477
270.1777
270.18077
270.18397
270.18734
270.19094
270.19483
270.19909
270.20379
270.20898
270.21471
270.221
270.22788
270.23541
270.24362
270.25259
270.26241
270.27315
270.28492
270.29782
270.31196
270.32744
270.34439
270.36295
270.38328
270.40554
270.42992
270.4566
270.48581
270.51777
270.55275
270.59105
270.633
270.679
270.72947
270.78489
270.84569
270.91271
270.98507
271.06918
271.14114
271.30263
270.35989
270.37528
270.37894
270.38194
270.38464
270.38723
270.38982
270.39249
270.39527
270.39817
270.40119
270.40435
270.40766
270.41119
270.41501
270.41918
270.42379
270.42888
270.43449
270.44066
270.44741
270.45478
270.46283
270.47162
270.48123
270.49175
270.50327
270.5159
270.52973
270.54488
270.56146
270.57962
270.59951
270.62129
270.64514
270.67124
270.69981
270.73107
270.76528
270.80274
270.84377
270.88878
270.93816
270.99241
271.05194
271.11758
271.18847
271.2709
271.34143
271.4998
270.57477
270.59055
270.59426
270.59729
270.59999
270.60258
270.60516
270.60781
270.61057
270.61344
270.61642
270.61953
270.62279
270.62625
270.63
270.63409
270.63861
270.6436
270.6491
270.65516
270.66178
270.66901
270.6769
270.68551
270.69492
270.70523
270.71652
270.72889
270.74243
270.75726
270.7735
270.79128
270.81075
270.83207
270.8554
270.88095
270.90891
270.9395
270.97298
271.00963
271.04979
271.09384
271.14219
271.19532
271.25362
271.31795
271.38743
271.46826
271.53742
271.69281
270.78466
270.80084
270.8046
270.80765
270.81037
270.81295
270.81552
270.81816
270.82089
270.82374
270.82668
270.82974
270.83295
270.83635
270.84003
270.84404
270.84848
270.85337
270.85878
270.86472
270.87122
270.87832
270.88606
270.8945
270.90373
270.91383
270.9249
270.93702
270.95029
270.96482
270.98072
270.99814
271.0172
271.03808
271.06093
271.08595
271.11332
271.14327
271.17604
271.21193
271.25126
271.29439
271.34175
271.3938
271.45095
271.51401
271.58215
271.66143
271.72928
271.88182
270.98977
271.00636
271.01017
271.01325
271.01597
271.01855
271.02112
271.02374
271.02646
271.02928
271.03219
271.03521
271.03836
271.04171
271.04532
271.04926
271.05361
271.05842
271.06374
271.06957
271.07596
271.08292
271.09051
271.0988
271.10785
271.11776
271.12861
271.14049
271.1535
271.16774
271.18333
271.2004
271.21908
271.23953
271.26192
271.28643
271.31324
271.34258
271.37468
271.40984
271.44836
271.49062
271.53703
271.58805
271.64408
271.70593
271.77278
271.85059
271.91718
272.06698
271.19033
271.20732
271.21118
271.21428
271.21702
271.2196
271.22216
271.22477
271.22747
271.23026
271.23314
271.23612
271.23923
271.24252
271.24607
271.24994
271.25422
271.25894
271.26416
271.2699
271.27617
271.28302
271.29047
271.2986
271.30749
271.31721
271.32785
271.33951
271.35227
271.36624
271.38152
271.39826
271.41657
271.43662
271.45857
271.48258
271.50886
271.53761
271.56907
271.60352
271.64127
271.6827
271.7282
271.77823
271.83319
271.89388
271.95949
272.0359
272.10128
272.24845
271.3865
271.4039
271.40782
271.41095
271.4137
271.41628
271.41883
271.42144
271.42412
271.42689
271.42974
271.43268
271.43575
271.43898
271.44247
271.44628
271.45048
271.45513
271.46026
271.4659
271.47207
271.47879
271.48612
271.4941
271.50283
271.51237
271.52282
271.53426
271.54678
271.56048
271.57548
271.59189
271.60985
271.62952
271.65104
271.67459
271.70035
271.72854
271.75938
271.79316
271.83017
271.87079
271.91542
271.9645
272.01844
272.07801
272.14244
272.21749
272.28172
272.42636
271.57849
271.59629
271.60026
271.60342
271.60618
271.60877
271.61132
271.61391
271.61658
271.61933
271.62215
271.62506
271.62808
271.63127
271.6347
271.63844
271.64257
271.64714
271.65219
271.65774
271.66381
271.67042
271.67762
271.68547
271.69404
271.70341
271.71367
271.7249
271.7372
271.75065
271.76537
271.78147
271.7991
271.81839
271.83951
271.86261
271.88788
271.91553
271.94578
271.97891
272.01521
272.05506
272.09885
272.14702
272.19997
272.25848
272.32177
272.39552
272.45863
272.60085
271.76644
271.78465
271.78867
271.79186
271.79464
271.79724
271.79978
271.80237
271.80503
271.80775
271.81055
271.81342
271.8164
271.81954
271.82292
271.8266
271.83067
271.83517
271.84014
271.8456
271.85157
271.85807
271.86515
271.87287
271.88129
271.8905
271.90058
271.91162
271.92369
271.9369
271.95135
271.96717
271.98447
272.00341
272.02413
272.0468
272.0716
272.09873
272.12841
272.16092
272.19654
272.23565
272.27863
272.32593
272.37794
272.43542
272.49762
272.57012
272.63216
272.77204
271.95053
271.96914
271.97322
271.97644
271.97924
271.98184
271.98439
271.98697
271.98961
271.99232
271.99509
271.99793
272.00088
272.00397
272.00729
272.01092
272.01492
272.01935
272.02424
272.02962
272.0355
272.0419
272.04887
272.05646
272.06474
272.07379
272.0837
272.09454
272.10641
272.11939
272.13359
272.14912
272.16611
272.1847
272.20505
272.22731
272.25166
272.27829
272.30743
272.33933
272.37431
272.4127
272.45491
272.50137
272.55246
272.60895
272.6701
272.7414
272.80241
272.94005
272.1309
272.14992
272.15406
272.15731
272.16012
272.16273
272.16528
272.16785
272.17048
272.17318
272.17593
272.17874
272.18164
272.1847
272.18797
272.19154
272.19548
272.19984
272.20467
272.20996
272.21575
272.22206
272.22891
272.23638
272.24453
272.25343
272.26317
272.27384
272.2855
272.29826
272.31221
272.32747
272.34416
272.36243
272.38242
272.40428
272.42819
272.45434
272.48296
272.51429
272.54863
272.58634
272.6278
272.67345
272.72367
272.77922
272.83935
272.90949
272.96951
273.10499
272.30769
272.32712
272.33132
272.3346
272.33743
272.34005
272.34259
272.34516
272.34779
272.35047
272.35319
272.35598
272.35885
272.36186
272.36508
272.3686
272.37248
272.37678
272.38154
272.38676
272.39247
272.39868
272.40543
272.41278
272.42079
272.42955
272.43914
272.44963
272.4611
272.47364
272.48736
272.50236
272.51877
272.53672
272.55636
272.57784
272.60133
272.62702
272.65513
272.68591
272.71965
272.7567
272.79744
272.84231
272.89169
272.94632
273.00548
273.07451
273.13358
273.26697
272.48104
272.50088
272.50513
272.50845
272.5113
272.51392
272.51647
272.51904
272.52165
272.52432
272.52703
272.52979
272.53262
272.53559
272.53877
272.54224
272.54606
272.5503
272.55499
272.56014
272.56577
272.57189
272.57854
272.58578
272.59367
272.60229
272.61173
272.62204
272.63333
272.64567
272.65916
272.67391
272.69004
272.70769
272.727
272.74811
272.7712
272.79645
272.82407
272.85431
272.88747
272.92389
272.96394
273.00806
273.05663
273.11038
273.1686
273.23655
273.29471
273.4261
272.65107
272.67132
272.67563
272.67899
272.68186
272.68449
272.68704
272.6896
272.69221
272.69486
272.69755
272.70029
272.70309
272.70602
272.70916
272.71257
272.71635
272.72053
272.72516
272.73024
272.73579
272.74182
272.74837
272.7555
272.76328
272.77177
272.78106
272.79121
272.80232
272.81446
272.82773
272.84225
272.85812
272.87547
272.89446
272.91522
272.93792
272.96274
272.98989
273.01962
273.05222
273.08802
273.12741
273.17081
273.21859
273.27149
273.32881
273.39573
273.453
273.58246
272.81791
272.83857
272.84294
272.84632
272.84921
272.85186
272.85441
272.85698
272.85958
272.86222
272.86489
272.8676
272.87038
272.87327
272.87636
272.87973
272.88346
272.88758
272.89215
272.89716
272.90264
272.90859
272.91505
272.92208
272.92974
272.9381
272.94725
272.95725
272.96818
272.98014
272.9932
273.00748
273.0231
273.04017
273.05885
273.07927
273.1016
273.12601
273.15271
273.18194
273.214
273.24921
273.28795
273.33065
273.37769
273.42977