/*--------------------------------*- C++ -*----------------------------------*\
| =========                 |                                                 |
| \\      /  F ield         | OpenFOAM: The Open Source CFD Toolbox           |
|  \\    /   O peration     | Version:  4.0                                   |
|   \\  /    A nd           | Web:      www.OpenFOAM.org                      |
|    \\/     M anipulation  |                                                 |
\*---------------------------------------------------------------------------*/
FoamFile
{
    version     2.0;
    format      ascii;
    class       volScalarField;
    location    "846";
    object      ILambda_3_0;
}
// * * * * * * * * * * * * * * * * * * * * * * * * * * * * * * * * * * * * * //

dimensions      [1 0 -3 0 0 0 0];

internalField   nonuniform List<scalar> 
5000
(
204.33619
203.09375
201.74479
200.28435
198.70613
197.00386
195.17157
193.2039
191.09629
188.84525
186.44869
183.90632
181.22004
178.3944
175.43712
172.3596
169.17742
165.91085
162.58525
159.23136
155.88541
152.5889
149.38805
146.33281
143.4752
140.86712
138.55747
136.58859
134.99237
133.78612
132.96883
132.51847
132.39108
132.52242
132.83293
133.23584
133.64798
134.00144
134.25343
134.39144
134.43117
134.40722
134.35892
134.31666
134.29429
134.29019
134.29499
134.30015
134.30231
134.30194
230.08527
230.15637
230.21
230.2401
230.239
230.19754
230.10475
229.94762
229.71084
229.37647
228.9237
228.32866
227.56418
226.59978
225.40172
223.93325
222.15518
220.02677
217.50706
214.55674
211.14071
207.23118
202.81165
197.8814
192.46047
186.59481
180.36088
173.86909
167.2649
160.72639
154.4571
148.67307
143.58378
139.36803
136.14723
133.9609
132.75092
132.36122
132.55824
133.072
133.65034
134.11071
134.37104
134.44592
134.40957
134.34414
134.30037
134.28816
134.29325
134.30091
237.82474
237.80196
237.78116
237.764
237.75141
237.74421
237.74304
237.74833
237.76007
237.77759
237.79919
237.82175
237.84017
237.84663
237.82976
237.77357
237.6562
237.44855
237.11272
236.60052
235.85202
234.79459
233.34257
231.39823
228.85446
225.59984
221.52689
216.54383
210.59016
203.65536
195.7993
187.17112
178.02217
168.70671
159.66425
151.37825
144.31108
138.82231
135.08769
133.0445
132.39052
132.65193
133.30993
133.94367
134.32913
134.44793
134.40851
134.33515
134.29366
134.29112
241.99756
241.96454
241.92743
241.88661
241.84202
241.79361
241.74145
241.6858
241.62716
241.56628
241.50426
241.44259
241.38319
241.3284
241.28089
241.24349
241.21884
241.20877
241.21334
241.22944
241.2487
241.25478
241.21975
241.09962
240.82921
240.31668
239.43865
238.03705
235.91987
232.86816
228.65235
223.06035
215.93863
207.24452
197.10257
185.85166
174.06308
162.50745
152.05411
143.50566
137.40065
133.85026
132.48832
132.58641
133.31062
134.00856
134.37938
134.44513
134.37527
134.30125
245.00663
244.97849
244.94675
244.91163
244.8728
244.82981
244.78218
244.72937
244.67082
244.60593
244.5341
244.45475
244.36742
244.27181
244.16793
244.05625
243.9379
243.81494
243.69056
243.56934
243.45731
243.36181
243.29079
243.25135
243.24696
243.27292
243.30951
243.31235
243.20001
242.83971
242.03342
240.5085
237.91988
233.87219
227.97112
219.90936
209.58258
197.21442
183.44816
169.3469
156.24952
145.47148
137.91958
133.77581
132.43137
132.75755
133.60158
134.22608
134.44539
134.37986
247.37834
247.3553
247.32921
247.30038
247.2686
247.23352
247.19476
247.15192
247.10452
247.05203
246.99383
246.9292
246.85733
246.77729
246.68801
246.58832
246.47696
246.35266
246.21425
246.06091
245.89246
245.70991
245.51606
245.31628
245.1193
244.93771
244.78769
244.68703
244.65033
244.67952
244.74819
244.77839
244.61076
243.97233
242.45247
239.50454
234.49678
226.83414
216.15628
202.5794
186.89658
170.60728
155.65839
143.88886
136.36433
132.95243
132.44743
133.22826
134.05142
134.4233
249.33896
249.31965
249.29763
249.27332
249.24653
249.217
249.18443
249.14847
249.10878
249.06496
249.01654
248.96301
248.90379
248.83822
248.76552
248.68479
248.59497
248.49482
248.38282
248.25721
248.11594
247.95668
247.77699
247.57462
247.34806
247.09754
246.82641
246.54311
246.26315
246.01057
245.81706
245.71595
245.72702
245.82749
245.90617
245.70304
244.74862
242.33433
237.5631
229.53205
217.6666
202.14029
184.19438
166.09208
150.52479
139.59644
133.90587
132.3648
132.93673
134.07241
251.00166
250.98526
250.96637
250.9455
250.92252
250.8972
250.86926
250.83844
250.80443
250.76688
250.72543
250.67965
250.62905
250.57313
250.51128
250.44284
250.36704
250.28304
250.18981
250.08618
249.97074
249.84175
249.69707
249.53404
249.34941
249.13929
248.89944
248.62588
248.31626
247.97236
247.60377
247.23243
246.89645
246.64921
246.54669
246.61301
246.77422
246.75891
245.98671
243.50356
238.06222
228.449
214.07042
195.61117
175.34491
156.65054
142.68574
134.90025
132.32767
133.12555
252.44288
252.42874
252.41223
252.39397
252.37388
252.35176
252.32737
252.30045
252.27076
252.23801
252.20185
252.16192
252.11783
252.0691
252.01523
251.95566
251.88975
251.81678
251.73594
251.64634
251.54694
251.43656
251.31381
251.17705
251.02422
250.85271
250.65914
250.43906
250.18683
249.89571
249.55887
249.17184
248.73737
248.27311
247.82067
247.45102
247.25402
247.29304
247.50298
247.52686
246.53442
243.14748
235.66507
222.73417
204.34438
182.59115
161.40962
144.99404
135.48967
132.40948
253.71219
253.69988
253.68526
253.66908
253.65129
253.63171
253.61012
253.5863
253.56003
253.53105
253.49907
253.46377
253.4248
253.38175
253.33418
253.28158
253.22341
253.15904
253.08775
253.00877
252.92119
252.82403
252.71614
252.59625
252.46288
252.31434
252.14857
251.96301
251.75427
251.5177
251.24685
250.93305
250.56574
250.13488
249.63704
249.0871
248.53453
248.07601
247.84271
247.92471
248.19388
248.0306
246.0766
240.29264
228.6411
210.40688
187.46479
164.30631
146.16722
134.21302
254.84506
254.83427
254.82118
254.80667
254.79074
254.77321
254.75387
254.73255
254.70904
254.68311
254.6545
254.62293
254.58808
254.5496
254.5071
254.46012
254.40819
254.35074
254.28716
254.21675
254.13871
254.05217
253.9561
253.84939
253.73073
253.59867
253.45155
253.28749
253.10429
252.89926
252.66891
252.40833
252.11026
251.76402
251.35518
250.868
250.29414
249.65144
249.01139
248.51847
248.35578
248.58519
248.81259
247.7702
243.17036
232.36447
214.01
189.80802
165.66195
141.41392
255.86696
255.85746
255.84564
255.83251
255.81811
255.80228
255.78481
255.76555
255.74431
255.72089
255.69506
255.66656
255.63511
255.60039
255.56205
255.51969
255.47287
255.4211
255.36383
255.30044
255.23023
255.1524
255.06607
254.97022
254.8637
254.7452
254.61323
254.46607
254.30181
254.11824
253.91287
253.68273
253.42401
253.13125
252.79588
252.40425
251.93656
251.37048
250.69633
249.95042
249.25946
248.85127
248.93053
249.30437
248.79747
244.88098
234.37101
215.13931
191.10076
155.61218
256.79699
256.78862
256.77786
256.76589
256.75278
256.73836
256.72247
256.70493
256.6856
256.66429
256.64079
256.61487
256.58626
256.55468
256.51982
256.48131
256.43877
256.39174
256.33973
256.28219
256.21848
256.1479
256.06965
255.98283
255.88642
255.77924
255.65996
255.52705
255.37875
255.21304
255.02761
254.81986
254.58682
254.32508
254.03025
253.69582
253.3107
252.85589
252.30306
251.62334
250.81967
249.98871
249.37488
249.28884
249.70212
249.46165
245.83785
234.4356
216.62528
175.70443
257.64973
257.64237
257.63251
257.62154
257.60952
257.59632
257.58176
257.56569
257.54799
257.52847
257.50695
257.48321
257.45702
257.42812
257.39621
257.36098
257.32206
257.27904
257.23149
257.17889
257.12067
257.05621
256.98477
256.90555
256.81762
256.71995
256.61134
256.49041
256.35561
256.20512
256.03684
255.84833
255.63679
255.39906
255.1316
254.83031
254.48991
254.10175
253.64948
253.10373
252.42368
251.58464
250.65241
249.87703
249.66225
250.06198
250.0513
245.4018
236.62284
198.11599
258.43661
258.43014
258.42107
258.41095
258.39987
258.38772
258.37431
258.35952
258.34322
258.32525
258.30544
258.28358
258.25947
258.23287
258.20351
258.17108
258.13528
258.09571
258.05198
258.00361
257.95011
257.89087
257.82525
257.75251
257.67182
257.58224
257.48268
257.37191
257.24855
257.11095
256.95725
256.78527
256.59246
256.37582
256.13193
255.85687
255.54638
255.19553
254.79731
254.33816
253.78989
253.10428
252.23484
251.21889
250.32929
249.9969
250.62761
249.55103
248.48611
218.55003
259.1667
259.16105
259.15267
259.14329
259.13304
259.1218
259.1094
259.09572
259.08064
259.06402
259.04569
259.02548
259.00318
258.97858
258.95142
258.92145
258.88834
258.85177
258.81135
258.76667
258.71724
258.66253
258.60194
258.53481
258.46036
258.37774
258.28597
258.18393
258.07036
257.94378
257.80252
257.64464
257.46784
257.26947
257.04636
256.79478
256.51045
256.18858
255.82406
255.41067
254.93711
254.37668
253.67637
252.76738
251.68512
250.65466
250.56187
250.18555
253.13423
233.97226
259.84736
259.84246
259.83468
259.82595
259.81643
259.806
259.79449
259.78178
259.76778
259.75234
259.73533
259.71656
259.69585
259.67301
259.6478
259.61997
259.58924
259.55529
259.51778
259.47631
259.43045
259.3797
259.32351
259.26127
259.19226
259.11571
259.03072
258.93626
258.83118
258.71414
258.58362
258.43786
258.27481
258.09208
257.88687
257.65583
257.39496
257.09953
256.76417
256.38319
255.95059
255.45636
254.87592
254.14565
253.19927
251.97535
251.14889
250.14025
253.51657
243.58354
260.48461
260.48041
260.47317
260.46502
260.45615
260.44643
260.43571
260.42387
260.41082
260.39644
260.38058
260.36309
260.3438
260.32252
260.29903
260.2731
260.24447
260.21285
260.1779
260.13928
260.09657
260.04931
259.997
259.93906
259.87485
259.80364
259.72459
259.63678
259.53913
259.43044
259.30929
259.17409
259.02298
258.85379
258.664
258.45064
258.21014
257.93822
257.6297
257.27854
256.87833
256.42256
255.90337
255.29087
254.53462
253.4586
252.37397
250.74048
252.60003
248.47113
261.08345
261.07991
261.07316
261.06552
261.05723
261.04816
261.03814
261.02707
261.01488
261.00144
260.98662
260.97028
260.95225
260.93236
260.9104
260.88617
260.85942
260.82986
260.79721
260.76112
260.72121
260.67706
260.62819
260.57408
260.51412
260.44763
260.37385
260.29192
260.20085
260.09951
259.98662
259.86071
259.72007
259.56274
259.3864
259.18838
258.96548
258.71391
258.42906
258.10525
257.73575
257.31297
256.83123
256.27798
255.64213
254.77891
253.78301
252.04221
252.15115
250.52381
261.64809
261.64517
261.63885
261.63168
261.62391
261.61542
261.60603
261.59567
261.58424
261.57165
261.55777
261.54245
261.52556
261.50692
261.48635
261.46364
261.43857
261.41087
261.38027
261.34645
261.30906
261.26769
261.22191
261.17121
261.11505
261.05278
260.9837
260.90701
260.82178
260.72698
260.62143
260.50375
260.37238
260.22551
260.06104
259.8765
259.669
259.43511
259.17075
258.87089
258.52939
258.1384
257.69048
257.17492
256.59667
255.87815
255.05375
253.59184
252.63286
251.42276
262.18207
262.17974
262.17382
262.16707
262.15977
262.1518
262.143
262.13326
262.12254
262.11072
262.09768
262.0833
262.06743
262.04993
262.03061
262.00928
261.98572
261.95971
261.93096
261.89919
261.86406
261.8252
261.78219
261.73457
261.68182
261.62335
261.55849
261.48649
261.4065
261.31756
261.21855
261.10822
260.98512
260.84757
260.69363
260.52104
260.32715
260.10884
259.86239
259.58333
259.26627
258.90415
258.48911
258.00906
257.46548
256.82293
256.11357
255.00743
253.75343
252.16466
262.68844
262.68667
262.68111
262.67474
262.66787
262.66039
262.65211
262.64295
262.63286
262.62174
262.60948
262.59594
262.58101
262.56454
262.54635
262.52628
262.5041
262.47961
262.45255
262.42264
262.38956
262.35297
262.31248
262.26765
262.21799
262.16294
262.10189
262.03413
261.95886
261.87519
261.78207
261.67835
261.56265
261.43345
261.28893
261.12701
260.94525
260.74077
260.51019
260.24942
259.95364
259.6167
259.23145
258.78649
258.27623
257.67982
257.02285
256.16138
255.06172
253.09683
263.1698
263.16857
263.16335
263.15733
263.15085
263.14381
263.13601
263.12738
263.11788
263.1074
263.09584
263.08308
263.06901
263.05347
263.03633
263.01739
262.99648
262.97338
262.94786
262.91964
262.88843
262.85392
262.81572
262.77342
262.72657
262.67463
262.61704
262.55312
262.48214
262.40323
262.31545
262.21768
262.10868
261.98699
261.85094
261.6986
261.52771
261.33562
261.11919
260.87471
260.59774
260.2828
259.92351
259.51041
259.03463
258.47863
257.85156
257.10186
256.26688
254.19354
263.62843
263.62771
263.6228
263.6171
263.61099
263.60435
263.597
263.58886
263.57988
263.56999
263.55908
263.54704
263.53375
263.51909
263.50289
263.48501
263.46526
263.44343
263.41931
263.39265
263.36316
263.33054
263.29443
263.25445
263.21016
263.16108
263.10664
263.04623
262.97914
262.90457
262.82163
262.72928
262.62634
262.51146
262.38308
262.23939
262.0783
261.89734
261.69364
261.46374
261.20358
260.90815
260.57163
260.18615
259.74283
259.22598
258.63274
257.92115
257.2826
255.32051
264.06628
264.06607
264.06144
264.05604
264.05026
264.044
264.03706
264.02937
264.02089
264.01155
264.00124
263.98985
263.97729
263.96342
263.94811
263.9312
263.91251
263.89186
263.86904
263.8438
263.81589
263.78501
263.75083
263.71298
263.67104
263.62456
263.57301
263.51581
263.45229
263.38169
263.30318
263.21576
263.11835
263.00967
262.88825
262.75242
262.6002
262.42932
262.2371
262.02035
261.77529
261.49736
261.18113
260.81971
260.40519
259.92379
259.37122
258.68157
258.1408
256.37731
264.48511
264.48538
264.48102
264.47589
264.47043
264.46451
264.45795
264.45068
264.44266
264.43382
264.42407
264.4133
264.40141
264.38828
264.37378
264.35776
264.34006
264.3205
264.29887
264.27496
264.24851
264.21923
264.18682
264.15093
264.11117
264.06709
264.0182
263.96395
263.9037
263.83675
263.76229
263.67941
263.58705
263.48403
263.36898
263.2403
263.09618
262.93446
262.75265
262.54779
262.31639
262.05423
261.75627
261.41622
261.0271
260.57627
260.06424
259.4055
258.90099
257.32874
264.88643
264.88717
264.88305
264.87818
264.87301
264.86742
264.86121
264.85433
264.84674
264.83837
264.82913
264.81893
264.80767
264.79523
264.78148
264.7663
264.74952
264.73096
264.71045
264.68776
264.66266
264.63487
264.60411
264.57003
264.53227
264.49041
264.44398
264.39245
264.33522
264.27163
264.20091
264.12219
264.03448
263.93667
263.82745
263.70533
263.56859
263.41524
263.24292
263.04889
262.82988
262.58199
262.30058
261.97977
261.61337
261.18911
260.71225
260.09376
259.60503
258.18255
265.27159
265.27279
265.26891
265.26427
265.25937
265.25409
265.24821
265.24169
265.2345
265.22657
265.21782
265.20815
265.19747
265.18567
265.17263
265.15822
265.14229
265.12468
265.1052
265.08365
265.0598
265.0334
265.00416
264.97177
264.93587
264.89607
264.85192
264.80291
264.74848
264.68799
264.62072
264.54585
264.46243
264.36941
264.26556
264.14947
264.01953
263.87384
263.71021
263.52606
263.31836
263.08346
262.81706
262.51368
262.16779
261.76741
261.31967
260.74306
260.27104
258.96023
265.64181
265.64345
265.63978
265.63537
265.63072
265.62572
265.62016
265.61399
265.60717
265.59965
265.59135
265.58218
265.57204
265.56084
265.54846
265.53478
265.51965
265.50292
265.4844
265.46392
265.44124
265.41613
265.38831
265.35749
265.32333
265.28544
265.2434
265.19674
265.14491
265.0873
265.02323
264.95192
264.87248
264.78389
264.68499
264.57447
264.45078
264.31215
264.15651
263.98144
263.78408
263.56104
263.30833
263.02081
262.69348
262.315
261.89203
261.35335
260.90331
259.68038
265.99814
266.00022
265.99676
265.99256
265.98815
265.98342
265.97815
265.97229
265.96583
265.9587
265.95082
265.94212
265.93249
265.92186
265.9101
265.8971
265.88271
265.8668
265.84919
265.8297
265.80812
265.78421
265.75773
265.72838
265.69583
265.65973
265.61967
265.57519
265.52578
265.47085
265.40976
265.34176
265.266
265.18153
265.08723
264.98186
264.86396
264.73185
264.58357
264.41685
264.22901
264.01685
263.77666
263.50363
263.19316
262.8348
262.43395
261.92782
261.50218
260.35452
266.34156
266.34407
266.34081
266.3368
266.33262
266.32814
266.32315
266.31759
266.31146
266.3047
266.29722
266.28895
266.27981
266.26971
266.25853
266.24617
266.23249
266.21735
266.20059
266.18203
266.16148
266.13871
266.11347
266.08549
266.05446
266.02003
265.98181
265.93938
265.89223
265.83981
265.78149
265.71658
265.64425
265.56361
265.47359
265.373
265.26047
265.13439
264.99293
264.83393
264.65487
264.45274
264.22404
263.96431
263.66922
263.32924
262.94877
262.47073
262.06867
260.98895
266.67294
266.67587
266.67279
266.66897
266.665
266.66076
266.65603
266.65076
266.64494
266.63852
266.63142
266.62357
266.61489
266.60528
266.59465
266.58289
266.56988
266.55547
266.53951
266.52183
266.50224
266.48053
266.45647
266.42978
266.40017
266.36731
266.33083
266.29031
266.24527
266.1952
266.13948
266.07745
266.00833
265.93126
265.84523
265.74909
265.64156
265.5211
265.38596
265.23412
265.06318
264.87031
264.65222
264.40473
264.12375
263.80054
263.43896
262.98587
262.6051
261.58759
266.99306
266.9964
266.9935
266.98985
266.98608
266.98207
266.97759
266.97259
266.96707
266.96098
266.95424
266.94678
266.93852
266.92939
266.91928
266.90809
266.8957
266.88198
266.86677
266.84992
266.83125
266.81054
266.78758
266.76211
266.73384
266.70245
266.6676
266.62888
266.58583
266.53795
266.48468
266.42535
266.35923
266.2855
266.20319
266.11123
266.00835
265.89312
265.76388
265.61869
265.45529
265.271
265.06273
264.82654
264.55857
264.2507
263.90658
263.4762
263.11438
262.15361
267.30264
267.30638
267.30364
267.30016
267.29658
267.29279
267.28855
267.2838
267.27856
267.27278
267.26638
267.25929
267.25145
267.24276
267.23315
267.2225
267.2107
267.19762
267.18313
267.16707
267.14926
267.1295
267.10758
267.08325
267.05624
267.02625
266.99293
266.9559
266.91472
266.86892
266.81793
266.76114
266.69785
266.62725
266.54843
266.46036
266.36185
266.25151
266.12777
265.98878
265.8324
265.65609
265.45693
265.2312
264.97527
264.68152
264.35347
263.94399
263.59925
262.68999
267.60231
267.60645
267.60388
267.60055
267.59716
267.59357
267.58955
267.58505
267.58008
267.57459
267.56851
267.56178
267.55432
267.54606
267.53691
267.52677
267.51554
267.50308
267.48927
267.47395
267.45695
267.43809
267.41715
267.39391
267.3681
267.33942
267.30755
267.27212
267.2327
267.18885
267.14002
267.08562
267.02498
266.95732
266.88179
266.79738
266.70295
266.59719
266.4786
266.34541
266.19558
266.02672
265.83603
265.62002
265.37525
265.09456
264.78131
264.39112
264.06205
263.19953
267.89268
267.89721
267.89479
267.89161
267.88839
267.885
267.8812
267.87693
267.87221
267.867
267.86123
267.85484
267.84775
267.8399
267.83119
267.82154
267.81084
267.79896
267.78579
267.77118
267.75496
267.73695
267.71695
267.69473
267.67005
267.64261
267.61211
267.57819
267.54045
267.49843
267.45164
267.3995
267.34135
267.27648
267.20403
267.12306
267.03247
266.93102
266.81725
266.68949
266.5458
266.38389
266.20111
265.99416
265.75977
265.4912
265.19164
264.81925
264.50467
263.68475
268.17427
268.17919
268.17692
268.17388
268.17083
268.16763
268.16403
268.15998
268.15551
268.15057
268.14509
268.13902
268.13228
268.12481
268.11653
268.10734
268.09715
268.08584
268.07328
268.05933
268.04385
268.02664
268.00753
267.98629
267.96268
267.93643
267.90723
267.87474
267.83857
267.7983
267.75343
267.70342
267.64764
267.58539
267.51585
267.43812
267.35116
267.25375
267.14452
267.02186
266.88392
266.72852
266.55315
266.35465
266.12994
265.87264
265.58579
265.22986
264.92876
264.14783
268.44759
268.4529
268.45076
268.44786
268.44497
268.44195
268.43854
268.43471
268.43047
268.42579
268.42059
268.41482
268.40842
268.40133
268.39345
268.3847
268.37499
268.36421
268.35223
268.33893
268.32414
268.30771
268.28944
268.26913
268.24654
268.22141
268.19344
268.16231
268.12764
268.08902
268.04598
267.99799
267.94444
267.88467
267.81788
267.74322
267.65967
267.56607
267.46112
267.34326
267.21073
267.06145
266.89301
266.70242
266.48677
266.23999
265.96497
265.62429
265.33575
264.59068
268.7131
268.71878
268.71677
268.714
268.71126
268.70842
268.7052
268.70157
268.69756
268.69312
268.68819
268.68272
268.67664
268.66989
268.6624
268.65408
268.64483
268.63456
268.62314
268.61045
268.59633
268.58063
268.56317
268.54374
268.52212
268.49805
268.47126
268.44142
268.40817
268.37112
268.32982
268.28374
268.23231
268.17488
268.11071
268.03894
267.95862
267.86863
267.7677
267.65437
267.52694
267.38341
267.22149
267.03833
266.83115
266.5942
266.33024
266.00373
265.7269
265.01495
268.9712
268.97725
268.97538
268.97273
268.97014
268.96746
268.96442
268.96099
268.95719
268.95299
268.94831
268.94312
268.93736
268.93095
268.92383
268.91591
268.90711
268.89732
268.88643
268.87432
268.86084
268.84584
268.82915
268.81056
268.78987
268.76682
268.74114
268.71253
268.68064
268.64509
268.60543
268.56117
268.51175
268.45655
268.39485
268.32583
268.24856
268.16199
268.06487
267.95582
267.83319
267.69509
267.53931
267.36313
267.16391
266.93618
266.68256
266.36926
266.10338
265.42209
269.22228
269.2287
269.22696
269.22443
269.22198
269.21946
269.2166
269.21335
269.20976
269.20578
269.20136
269.19644
269.19097
269.18488
269.17811
269.17059
269.16221
269.15289
269.14251
269.13095
269.11809
269.10376
269.0878
269.07002
269.05021
269.02813
269.00352
268.97609
268.94549
268.91135
268.87326
268.83073
268.78323
268.73015
268.6708
268.60438
268.53002
268.44667
268.35317
268.24817
268.13008
267.9971
267.84711
267.67751
267.48577
267.2667
267.02279
266.72184
266.4662
265.81339
269.46671
269.4735
269.47187
269.46946
269.46714
269.46478
269.46208
269.45902
269.45562
269.45186
269.44768
269.44302
269.43783
269.43206
269.42563
269.41848
269.41051
269.40163
269.39174
269.38073
269.36845
269.35476
269.3395
269.32249
269.30353
269.28238
269.25879
269.23247
269.20311
269.17033
269.13373
269.09286
269.04718
268.99611
268.93899
268.87506
268.80345
268.72318
268.6331
268.53193
268.41815
268.29001
268.14549
267.98211
267.79743
267.58649
267.35171
267.06233
266.8163
266.19002
269.70481
269.71196
269.71045
269.70815
269.70596
269.70375
269.70122
269.69833
269.69512
269.69157
269.68762
269.68321
269.67829
269.67282
269.66672
269.65993
269.65235
269.6439
269.63448
269.62398
269.61226
269.59919
269.58461
269.56834
269.55018
269.52992
269.50731
269.48206
269.45387
269.42239
269.38723
269.34792
269.30399
269.25484
269.19985
269.13828
269.06929
268.99194
268.90512
268.80759
268.69789
268.57434
268.435
268.27749
268.09947
267.89621
267.67002
267.3915
267.15452
266.553
269.9369
269.9444
269.943
269.94081
269.93875
269.93668
269.9343
269.93158
269.92856
269.92521
269.92148
269.91731
269.91266
269.90748
269.9017
269.89525
269.88805
269.88001
269.87104
269.86103
269.84985
269.83737
269.82344
269.80788
269.7905
269.77109
269.74941
269.72519
269.69813
269.66789
269.63409
269.5963
269.55402
269.50671
269.45375
269.39443
269.32794
269.25336
269.16965
269.07557
268.96976
268.85056
268.71614
268.56418
268.39247
268.19646
267.97838
267.71007
267.4816
266.90325
270.16325
270.1711
270.16982
270.16772
270.16578
270.16385
270.16163
270.15907
270.15623
270.15308
270.14956
270.14562
270.14123
270.13633
270.13085
270.12473
270.11789
270.11026
270.10172
270.09219
270.08153
270.06962
270.0563
270.04142
270.02479
270.0062
269.98542
269.96218
269.9362
269.90715
269.87466
269.8383
269.79762
269.75206
269.70104
269.64387
269.57977
269.50784
269.42707
269.3363
269.23417
269.11912
268.98935
268.84267
268.67693
268.48779
268.27736
268.01869
267.79825
267.24163
270.38413
270.39234
270.39116
270.38916
270.38734
270.38555
270.38347
270.38107
270.3784
270.37544
270.37212
270.36841
270.36427
270.35963
270.35445
270.34865
270.34216
270.33491
270.3268
270.31772
270.30756
270.29619
270.28348
270.26925
270.25334
270.23553
270.21561
270.19332
270.16838
270.14047
270.10923
270.07425
270.03509
269.99122
269.94205
269.88693
269.82511
269.75571
269.67776
269.59013
269.49151
269.3804
269.25508
269.11341
268.95333
268.77069
268.56751
268.31793
268.10509
267.56889
270.59979
270.60835
270.60727
270.60537
270.60366
270.602
270.60006
270.59782
270.59532
270.59254
270.58942
270.58593
270.58202
270.57765
270.57275
270.56726
270.56111
270.55423
270.54652
270.53788
270.52821
270.51737
270.50523
270.49163
270.47641
270.45936
270.44027
270.41889
270.39494
270.36813
270.33809
270.30444
270.26673
270.22447
270.17708
270.12393
270.06428
269.99731
269.92205
269.83741
269.74215
269.6348
269.51369
269.37679
269.2221
269.04562
268.84932
268.60834
268.4027
267.88572
270.81047
270.81937
270.81839
270.81658
270.81499
270.81345
270.81165
270.80956
270.80722
270.80461
270.80169
270.79841
270.79473
270.79061
270.78599
270.7808
270.77498
270.76845
270.76113
270.75292
270.74371
270.73338
270.7218
270.70881
270.69425
270.67793
270.65964
270.63913
270.61614
270.59038
270.5615
270.52912
270.49281
270.4521
270.40641
270.35515
270.29759
270.23292
270.16024
270.07847
269.98641
269.88264
269.76556
269.6332
269.48363
269.31302
269.12325
268.89042
268.69159
268.19274
271.01637
271.02562
271.02474
271.02302
271.02153
271.02012
271.01845
271.0165
271.01432
271.01189
271.00915
271.00608
271.00262
270.99874
270.99439
270.98949
270.98399
270.97781
270.97086
270.96306
270.9543
270.94447
270.93342
270.92102
270.9071
270.89148
270.87395
270.85429
270.83223
270.80747
270.77971
270.74855
270.71359
270.67435
270.63031
270.58085
270.52529
270.46284
270.39262
270.3136
270.2246
270.12426
270.01102
269.88299
269.73831
269.57327
269.3897
269.1646
268.97225
268.49054
271.21771
271.2273
271.22651
271.22488
271.2235
271.22221
271.22067
271.21885
271.21682
271.21456
271.21201
271.20913
271.2059
271.20225
271.19815
271.19354
271.18834
271.1825
271.17592
271.16852
271.16019
271.15083
271.1403
271.12847
271.11517
271.10023
271.08344
271.06459
271.04341
271.01964
270.99294
270.96296
270.92929
270.89148
270.84901
270.80129
270.74765
270.68733
270.61947
270.54308
270.45701
270.35995
270.25038
270.12648
269.98646
269.82674
269.64908
269.43132
269.24513
268.77963
271.41468
271.4246
271.42391
271.42236
271.42108
271.4199
271.41849
271.41681
271.41493
271.41283
271.41046
271.40777
271.40475
271.40133
271.39748
271.39314
271.38824
271.38272
271.3765
271.36948
271.36158
271.35268
271.34265
271.33136
271.31866
271.30437
271.2883
271.27023
271.24992
271.22708
271.20142
271.17257
271.14015
271.10371
271.06275
271.0167
270.9649
270.90663
270.84104
270.76717
270.6839
270.58998
270.48393
270.36398
270.22841
270.07376
269.90173
269.69096
269.51063
269.0605
271.60744
271.6177
271.6171
271.61563
271.61445
271.61339
271.6121
271.61055
271.60882
271.60687
271.60467
271.60218
271.59935
271.59616
271.59256
271.58848
271.58387
271.57867
271.57279
271.56614
271.55865
271.55019
271.54065
271.52989
271.51777
271.50411
271.48873
271.47142
271.45193
271.43
271.40533
271.37758
271.34636
271.31125
271.27174
271.22729
271.17727
271.12096
271.05755
270.9861
270.90553
270.81461
270.71193
270.59577
270.46445
270.31465
270.14799
269.94388
269.76913
269.33359
271.79618
271.80677
271.80626
271.80487
271.80378
271.80284
271.80167
271.80025
271.79865
271.79686
271.79483
271.79252
271.78989
271.78692
271.78355
271.77973
271.7754
271.7705
271.76495
271.75868
271.75158
271.74355
271.73448
271.72423
271.71267
271.69963
271.68492
271.66833
271.64965
271.6286
271.60489
271.57819
271.54813
271.51429
271.47618
271.43328
271.38497
271.33055
271.26923
271.2001
271.12213
271.03409
270.93464
270.8221
270.69485
270.54969
270.38817
270.1904
270.02099
269.59931
271.98105
271.99197
271.99155
271.99023
271.98924
271.9884
271.98735
271.98606
271.9846
271.98296
271.98109
271.97895
271.97652
271.97376
271.97062
271.96705
271.963
271.95839
271.95317
271.94724
271.94053
271.93292
271.9243
271.91456
271.90354
271.89108
271.87702
271.86114
271.84323
271.82303
271.80025
271.77457
271.74563
271.71301
271.67627
271.63485
271.58819
271.53559
271.47629
271.40939
271.3339
271.24865
271.15229
271.04323
270.91988
270.77915
270.62255
270.43084
270.26652
269.85804
272.1622
272.17345
272.17311
272.17187
272.17097
272.17024
272.1693
272.16813
272.1668
272.16531
272.1636
272.16164
272.1594
272.15684
272.15392
272.1506
272.14681
272.14249
272.13758
272.132
272.12566
272.11845
272.11028
272.10102
272.09052
272.07864
272.06521
272.05002
272.03286
272.01347
271.99159
271.9669
271.93904
271.90761
271.87216
271.83219
271.78711
271.73627
271.67891
271.61417
271.54107
271.45848
271.3651
271.25937
271.13977
271.0033
270.8514
270.66548
270.50603
270.11013
272.33977
272.35134
272.35109
272.34992
272.34911
272.34849
272.34766
272.34661
272.34541
272.34406
272.3425
272.34071
272.33865
272.3363
272.3336
272.33051
272.32698
272.32295
272.31834
272.31309
272.30711
272.3003
272.29256
272.28376
272.27378
272.26246
272.24963
272.23511
272.21867
272.20008
272.17907
272.15533
272.12851
272.09823
272.06405
272.02547
271.98192
271.93277
271.87727
271.81461
271.74382
271.66379
271.57328
271.47076
271.35475
271.22235
271.07496
270.89459
270.73981
270.3559
272.5139
272.52579
272.52562
272.52453
272.52381
272.52328
272.52256
272.52163
272.52056
272.51935
272.51794
272.51631
272.51444
272.51227
272.50979
272.50693
272.50365
272.49989
272.49558
272.49066
272.48503
272.4786
272.47128
272.46294
272.45345
272.44267
272.43043
272.41655
272.40082
272.383
272.36283
272.34001
272.31421
272.28504
272.25207
272.21483
272.17277
272.12525
272.07156
272.0109
271.94232
271.86477
271.77701
271.67757
271.56502
271.43654
271.29347
271.11842
270.9681
270.59565
272.68471
272.69693
272.69683
272.69581
272.69517
272.69474
272.69413
272.69331
272.69237
272.69129
272.69004
272.68857
272.68687
272.6849
272.68262
272.67998
272.67695
272.67346
272.66944
272.66483
272.65954
272.65349
272.64657
272.63867
272.62967
272.61941
272.60775
272.59449
272.57944
272.56237
272.54302
272.52109
272.49626
272.46817
272.43639
272.40045
272.35981
272.31387
272.26192
272.20319
272.13676
272.06158
271.97648
271.88001
271.77078
271.64606
271.50715
271.33719
271.19117
270.82967
272.85232
272.86486
272.86484
272.86389
272.86333
272.863
272.8625
272.86179
272.86096
272.86002
272.85891
272.8576
272.85607
272.85428
272.85221
272.84979
272.847
272.84377
272.84003
272.83573
272.83078
272.82509
272.81857
272.8111
272.80256
272.79282
272.78171
272.76906
272.75467
272.73832
272.71976
272.6987
272.67482
272.64777
272.61713
272.58245
272.54319
272.49878
272.44852
272.39165
272.32728
272.25441
272.17186
272.07826