/*--------------------------------*- C++ -*----------------------------------*\
| =========                 |                                                 |
| \\      /  F ield         | OpenFOAM: The Open Source CFD Toolbox           |
|  \\    /   O peration     | Version:  4.0                                   |
|   \\  /    A nd           | Web:      www.OpenFOAM.org                      |
|    \\/     M anipulation  |                                                 |
\*---------------------------------------------------------------------------*/
FoamFile
{
    version     2.0;
    format      ascii;
    class       volScalarField;
    location    "846";
    object      ILambda_1_0;
}
// * * * * * * * * * * * * * * * * * * * * * * * * * * * * * * * * * * * * * //

dimensions      [1 0 -3 0 0 0 0];

internalField   nonuniform List<scalar> 
5000
(
204.68739
204.16866
203.60053
202.97961
202.30152
201.56153
200.75469
199.87575
198.91924
197.87947
196.7506
195.52667
194.2017
192.76976
191.22512
189.56234
187.77651
185.86343
183.81988
181.64388
179.33509
176.89513
174.32802
171.64064
168.84319
165.94968
162.97836
159.9521
156.89867
153.85087
150.84631
147.927
145.13841
142.52807
140.14357
138.02996
136.22662
134.76361
133.65798
132.9102
132.50161
132.39331
132.52745
132.8314
133.22498
133.63006
133.98202
134.23655
134.38661
134.421
230.06137
230.09657
230.13055
230.16279
230.19206
230.21687
230.23532
230.24507
230.24326
230.22634
230.19003
230.12914
230.03744
229.90744
229.73025
229.49535
229.19035
228.80077
228.30982
227.69815
226.94369
226.02153
224.90382
223.55992
221.95663
220.0587
217.82967
215.23312
212.23433
208.8026
204.91409
200.55538
195.72753
190.45062
184.76832
178.7522
172.5048
166.16082
159.88506
153.86612
148.30492
143.39759
139.31345
136.17048
134.01214
132.79169
132.36856
132.53593
132.98572
133.79407
237.83196
237.82147
237.81039
237.79931
237.78844
237.77799
237.76823
237.75949
237.7521
237.74646
237.74297
237.74207
237.74415
237.74956
237.75848
237.77088
237.78635
237.80395
237.82194
237.83748
237.84621
237.84175
237.81505
237.75356
237.64035
237.45294
237.16209
236.7305
236.11142
235.24754
234.07013
232.49894
230.44316
227.80393
224.47918
220.37107
215.39677
209.50265
202.68129
194.99013
186.56894
177.65211
168.57019
159.73495
151.60262
144.61703
139.1256
135.34113
133.12822
132.5132
242.00674
241.99328
241.978
241.96115
241.94256
241.9221
241.8996
241.8749
241.84784
241.81828
241.7861
241.75119
241.71351
241.67311
241.6301
241.58472
241.5374
241.48873
241.43955
241.39097
241.34441
241.30156
241.26439
241.23499
241.21535
241.20699
241.21027
241.22354
241.24163
241.25404
241.24229
241.17662
241.012
240.68342
240.10114
239.14631
237.66843
235.48617
232.39399
228.17709
222.63708
215.62952
207.11187
197.19593
186.19254
174.63189
163.24129
152.80826
144.45472
136.32273
245.01445
245.00299
244.98994
244.97554
244.95967
244.94215
244.92282
244.90149
244.87792
244.85189
244.8231
244.79128
244.75608
244.71714
244.67406
244.62641
244.57373
244.51553
244.45133
244.38069
244.30321
244.21864
244.12696
244.02847
243.92394
243.81479
243.70329
243.59274
243.48763
243.39357
243.3171
243.26488
243.24215
243.25001
243.28111
243.31318
243.3001
243.1606
242.76519
241.92357
240.3762
237.79606
233.80871
228.03825
220.18776
210.13338
198.11418
184.4263
171.60111
152.64692
247.38474
247.37538
247.36464
247.3528
247.33975
247.32536
247.3095
247.29201
247.27272
247.25144
247.22797
247.20206
247.17347
247.14189
247.10701
247.06845
247.0258
246.97857
246.92622
246.86813
246.80359
246.7318
246.65185
246.56275
246.46343
246.35276
246.22969
246.09334
245.94323
245.77961
245.60393
245.4194
245.23167
245.04942
244.88475
244.75266
244.66903
244.64587
244.68236
244.75024
244.77235
244.59508
243.9589
242.47391
239.62784
234.79073
227.51381
216.79789
205.65582
181.03833
249.3443
249.3365
249.32744
249.31745
249.30644
249.2943
249.28093
249.26619
249.24993
249.23201
249.21225
249.19045
249.16642
249.13992
249.11069
249.07846
249.04289
249.00363
248.96027
248.91235
248.85937
248.80072
248.73574
248.66364
248.58352
248.49431
248.39474
248.28334
248.15837
248.01787
247.85969
247.68164
247.48181
247.25918
247.01451
246.75165
246.47929
246.21274
245.97503
245.79589
245.70592
245.72231
245.82273
245.8998
245.71982
244.79979
242.66563
237.62709
232.35302
211.59099
251.00618
250.9996
250.99184
250.98327
250.97383
250.96342
250.95195
250.9393
250.92535
250.90997
250.89301
250.87431
250.85369
250.83095
250.80588
250.77823
250.74775
250.71411
250.677
250.63602
250.59077
250.54078
250.48552
250.42441
250.35679
250.28191
250.1989
250.10676
250.0043
249.89008
249.76237
249.61903
249.45744
249.27443
249.0663
248.8291
248.55931
248.25513
247.91883
247.56014
247.20042
246.87585
246.63745
246.53534
246.60514
246.73378
246.8695
245.71008
245.30063
233.82066
252.44676
252.44113
252.43436
252.42688
252.41863
252.40954
252.39951
252.38846
252.37627
252.36282
252.34799
252.33164
252.31361
252.29373
252.27182
252.24767
252.22104
252.19167
252.15927
252.12352
252.08404
252.04044
251.99227
251.93903
251.88017
251.81505
251.74298
251.66318
251.57474
251.47665
251.36775
251.24665
251.1117
250.96086
250.79151
250.60031
250.38289
250.13381
249.84668
249.51514
249.13528
248.70989
248.25651
247.8119
247.4526
247.22672
247.33751
247.24173
248.28318
244.64978
253.71554
253.71071
253.70472
253.69811
253.69081
253.68276
253.67389
253.6641
253.6533
253.64139
253.62825
253.61375
253.59777
253.58015
253.56073
253.53933
253.51574
253.48973
253.46105
253.4294
253.39447
253.3559
253.3133
253.26624
253.21421
253.15669
253.09304
253.02259
252.94455
252.85806
252.76214
252.65568
252.53742
252.40594
252.25955
252.09622
251.91341
251.70778
251.47474
251.20802
250.89932
250.53849
250.11644
249.62821
249.09316
248.53634
248.11506
247.74813
248.09301
247.81318
254.84797
254.8438
254.83845
254.83253
254.82601
254.8188
254.81086
254.8021
254.79242
254.78175
254.76996
254.75696
254.74262
254.72682
254.70941
254.69022
254.66908
254.64578
254.62008
254.59173
254.56045
254.52592
254.4878
254.44569
254.39917
254.34774
254.29087
254.22795
254.15829
254.08111
253.99555
253.90062
253.79522
253.67808
253.54779
253.40274
253.2411
253.0607
252.85893
252.63235
252.3762
252.08339
251.7439
251.34328
250.86868
250.30471
249.68414
249.03156
248.5354
248.38928
255.86948
255.86589
255.86107
255.85574
255.84985
255.84335
255.83618
255.82826
255.81951
255.80985
255.79919
255.78742
255.77444
255.76013
255.74437
255.727
255.70787
255.68678
255.66354
255.6379
255.60962
255.5784
255.54394
255.50589
255.46386
255.41742
255.36609
255.30932
255.2465
255.17694
255.09988
255.01443
254.9196
254.81428
254.69717
254.56684
254.42161
254.25963
254.07878
253.87663
253.6503
253.39609
253.1088
252.78007
252.39734
251.94119
251.39033
250.73523
250.01182
249.14697
256.79918
256.7961
256.79173
256.78688
256.78153
256.77562
256.7691
256.76189
256.75392
256.74512
256.73539
256.72465
256.71281
256.69975
256.68536
256.66951
256.65206
256.63283
256.61163
256.58825
256.56247
256.53401
256.5026
256.46793
256.42964
256.38735
256.34062
256.28895
256.23181
256.16857
256.09854
256.02094
255.93488
255.83937
255.73325
255.61524
255.48383
255.33733
255.17377
254.99093
254.78632
254.55707
254.29988
254.01057
253.68291
253.30634
252.86518
252.31577
251.73864
250.51933
257.65162
257.649
257.64502
257.6406
257.63571
257.6303
257.62433
257.61772
257.61042
257.60235
257.59342
257.58356
257.57267
257.56067
257.54745
257.53289
257.51686
257.4992
257.47974
257.45828
257.4346
257.40848
257.37966
257.34784
257.31271
257.27392
257.23107
257.18371
257.13134
257.07341
257.00929
256.93828
256.85957
256.77227
256.67535
256.56766
256.44785
256.31441
256.16558
255.99933
255.81331
255.60485
255.3709
255.10802
254.81255
254.47796
254.10396
253.63751
253.22655
252.07036
258.43823
258.43603
258.43238
258.42833
258.42383
258.41886
258.41337
258.40729
258.40056
258.39311
258.38487
258.37576
258.3657
258.35461
258.34239
258.32894
258.31413
258.29782
258.27984
258.26002
258.23816
258.21404
258.18743
258.15805
258.12563
258.08983
258.05029
258.00661
257.95832
257.90492
257.84583
257.78042
257.70796
257.62763
257.5385
257.43954
257.32953
257.20712
257.07073
256.91855
256.74849
256.55809
256.34452
256.10436
255.8344
255.52814
255.19119
254.7737
254.43917
253.47063
259.16807
259.16626
259.16291
259.15917
259.15503
259.15045
259.14537
259.13975
259.13352
259.12661
259.11897
259.11051
259.10117
259.09087
259.07952
259.06703
259.05328
259.03813
259.02145
259.00306
258.98276
258.96038
258.93568
258.90842
258.87833
258.84512
258.80844
258.76793
258.72316
258.67367
258.61892
258.55833
258.49124
258.4169
258.33446
258.24297
258.14134
258.02834
257.90254
257.76233
257.60583
257.43085
257.23488
257.01473
256.76745
256.48647
256.17694
255.79551
255.48554
254.66229
259.84849
259.84706
259.84396
259.84051
259.83668
259.83243
259.82772
259.8225
259.81672
259.81029
259.80317
259.79529
259.78657
259.77696
259.76637
259.75472
259.7419
259.72778
259.71223
259.69508
259.67616
259.65529
259.63226
259.60685
259.5788
259.54785
259.51368
259.47593
259.43423
259.38813
259.33716
259.28077
259.21834
259.14919
259.07256
258.98754
258.89316
258.78828
258.67162
258.54169
258.39682
258.23503
258.05408
257.85115
257.62356
257.36541
257.08035
256.73118
256.43765
255.70187
260.48552
260.48443
260.48157
260.47838
260.47482
260.47088
260.4665
260.46164
260.45624
260.45024
260.44358
260.43621
260.42805
260.41905
260.40913
260.39822
260.38622
260.373
260.35845
260.3424
260.32469
260.30516
260.2836
260.25981
260.23357
260.2046
260.17263
260.13732
260.09831
260.0552
260.00754
259.95482
259.89649
259.8319
259.76033
259.68098
259.59293
259.49514
259.38643
259.26545
259.13067
258.98029
258.81229
258.62415
258.41345
258.17505
257.91182
257.5911
257.31773
256.64164
261.08416
261.0834
261.08076
261.07779
261.07448
261.07081
261.06672
261.06219
261.05714
261.05152
261.04528
261.03835
261.03068
261.02223
261.01291
261.00266
260.99138
260.97897
260.9653
260.95023
260.9336
260.91525
260.895
260.87266
260.84801
260.82081
260.79078
260.75763
260.721
260.68054
260.63581
260.58635
260.53163
260.47106
260.40397
260.3296
260.24713
260.15557
260.05384
259.94071
259.81477
259.67438
259.51768
259.34239
259.14633
258.9249
258.68071
258.38419
258.13154
257.50612
261.6486
261.64816
261.64571
261.64295
261.63987
261.63644
261.63262
261.62837
261.62364
261.61836
261.61249
261.60597
261.59875
261.59077
261.58199
261.57233
261.56171
261.55002
261.53714
261.52294
261.50727
261.48999
261.47091
261.44986
261.42663
261.401
261.37271
261.34148
261.30699
261.26888
261.22676
261.1802
261.12869
261.07169
261.00858
260.93865
260.86111
260.77507
260.67953
260.57334
260.4552
260.32361
260.17686
260.01287
259.82963
259.62298
259.39538
259.1196
258.88518
258.30565
262.18239
262.18226
262.17998
262.17742
262.17455
262.17134
262.16776
262.16378
262.15933
262.15436
262.14883
262.14267
262.13585
262.12831
262.12001
262.11088
262.10084
262.0898
262.07764
262.06422
262.04943
262.03309
262.01507
261.99517
261.97323
261.94901
261.92228
261.89278
261.86019
261.8242
261.78442
261.74045
261.69182
261.63802
261.57846
261.51249
261.43936
261.35825
261.26822
261.1682
261.057
260.93322
260.79529
260.6413
260.46941
260.27578
260.06275
259.80512
259.5862
259.04749
262.68858
262.68874
262.68663
262.68424
262.68156
262.67855
262.6752
262.67146
262.66727
262.66258
262.65735
262.65152
262.64506
262.63792
262.63006
262.62141
262.6119
262.60144
262.58993
262.57723
262.56321
262.54774
262.53067
262.51182
262.49103
262.46809
262.44277
262.41482
262.38396
262.34987
262.3122
262.27057
262.22453
262.1736
262.11724
262.05482
261.98566
261.90897
261.82387
261.72939
261.62439
261.50759
261.37754
261.23246
261.07067
260.8886
260.68849
260.44692
260.2415
259.73856
263.16977
263.17022
263.16826
263.16603
263.16352
263.16071
263.15756
263.15404
263.15009
263.14566
263.1407
263.13518
263.12904
263.12226
263.11479
263.10658
263.09756
263.08763
263.07671
263.06465
263.05135
263.03666
263.02045
263.00256
262.98282
262.96103
262.93699
262.91046
262.88115
262.84879
262.81303
262.77351
262.72982
262.6815
262.62802
262.56882
262.50323
262.43052
262.34988
262.26038
262.16096
262.05044
261.92745
261.79036
261.6376
261.46588
261.27728
261.05002
260.85663
260.38513
263.62822
263.62895
263.62713
263.62506
263.62271
263.62007
263.61711
263.61379
263.61006
263.60587
263.60117
263.59592
263.59008
263.58363
263.57652
263.56871
263.56013
263.55069
263.5403
263.52884
263.51619
263.50222
263.48679
263.46977
263.45098
263.43025
263.40738
263.38213
263.35425
263.32345
263.28943
263.25184
263.21028
263.16432
263.11347
263.05718
262.99483
262.92574
262.84913
262.76413
262.66976
262.56491
262.4483
262.31841
262.17378
262.01135
261.8331
261.61864
261.43606
260.99247
264.06592
264.06692
264.06523
264.0633
264.0611
264.05862
264.05584
264.05271
264.04918
264.0452
264.04074
264.03574
264.03018
264.02403
264.01726
264.00981
264.00163
263.99265
263.98275
263.97183
263.95977
263.94646
263.93175
263.91552
263.89761
263.87785
263.85604
263.83196
263.80538
263.77603
263.74359
263.70776
263.66814
263.62434
263.57588
263.52225
263.46286
263.39705
263.32411
263.24321
263.15343
263.05372
262.9429
262.81953
262.68226
262.52823
262.35931
262.15637
261.98353
261.56492
264.48458
264.48585
264.48429
264.48249
264.48043
264.4781
264.47548
264.47253
264.46919
264.46541
264.46116
264.4564
264.45109
264.44522
264.43875
264.43164
264.42384
264.41526
264.40582
264.3954
264.38389
264.37118
264.35714
264.34163
264.32453
264.30565
264.28482
264.26183
264.23644
264.2084
264.17743
264.1432
264.10537
264.06354
264.01727
263.96607
263.90939
263.84659
263.777
263.69984
263.61424
263.51922
263.41367
263.29624
263.16566
263.01925
262.85879
262.66626
262.50224
262.10613
264.88575
264.88728
264.88583
264.88415
264.88223
264.88004
264.87757
264.87478
264.87162
264.86803
264.86398
264.85943
264.85436
264.84875
264.84256
264.83576
264.8283
264.82011
264.81108
264.80112
264.79012
264.77796
264.76454
264.74971
264.73334
264.71529
264.69536
264.67336
264.64907
264.62225
264.59261
264.55987
264.52367
264.48366
264.43941
264.39044
264.33624
264.2762
264.20968
264.13595
264.05418
263.96346
263.86272
263.75071
263.62624
263.48678
263.33404
263.15097
262.99497
262.6192
265.27076
265.27254
265.27121
265.26965
265.26785
265.26579
265.26347
265.26083
265.25783
265.25442
265.25056
265.24621
265.24136
265.23598
265.23005
265.22354
265.2164
265.20856
265.19992
265.19039
265.17986
265.16822
265.15535
265.14115
265.12547
265.10817
265.08908
265.068
265.04473
265.01902
264.99062
264.95925
264.92457
264.88624
264.84384
264.79693
264.74501
264.68752
264.62383
264.55325
264.475
264.38822
264.29191
264.18487
264.066
263.9329
263.7872
263.61278
263.4641
263.10682
265.64082
265.64286
265.64163
265.64018
265.6385
265.63657
265.63438
265.63188
265.62904
265.62579
265.6221
265.61794
265.61329
265.60813
265.60245
265.59621
265.58936
265.58185
265.57357
265.56444
265.55434
265.54318
265.53084
265.51722
265.50218
265.48558
265.46726
265.44703
265.4247
265.40004
265.37279
265.34268
265.3094
265.27262
265.23194
265.18694
265.13713
265.08198
265.0209
264.95323
264.87823
264.79508
264.70284
264.60039
264.48667
264.35941
264.22019
264.05367
263.91172
263.57131
265.99701
265.9993
265.99817
265.99682
265.99525
265.99344
265.99138
265.98902
265.98631
265.98322
265.97969
265.97571
265.97125
265.96629
265.96084
265.95485
265.94828
265.94107
265.93313
265.92437
265.91468
265.90396
265.89212
265.87903
265.86458
265.84863
265.83103
265.8116
265.79015
265.76645
265.74026
265.71133
265.67936
265.64401
265.60493
265.56169
265.51384
265.46087
265.4022
265.33723
265.26524
265.18545
265.09697
264.99874
264.88977
264.7679
264.63464
264.47541
264.33963
264.01468
266.34029
266.34282
266.34179
266.34054
266.33908
266.33738
266.33544
266.3332
266.33064
266.32769
266.32431
266.32049
266.31621
266.31145
266.3062
266.30044
266.29414
266.28721
266.27959
266.27117
266.26186
266.25156
266.24017
266.22759
266.21369
266.19835
266.18143
266.16274
266.14209
266.11929
266.0941
266.06626
266.0355
266.0015
265.96389
265.9223
265.87627
265.82532
265.7689
265.70642
265.63722
265.56055
265.47556
265.38125
265.27667
265.15979
265.03204
264.87952
264.74944
264.43871
266.67152
266.6743
266.67336
266.67221
266.67084
266.66925
266.66742
266.66531
266.66287
266.66006
266.65683
266.65316
266.64904
266.64446
266.63941
266.63388
266.62781
266.62115
266.61383
266.60573
266.59678
266.58687
266.57591
266.56379
266.55042
266.53565
266.51935
266.50135
266.48147
266.45951
266.43524
266.40843
266.3788
266.34604
266.30982
266.26976
266.22542
266.17635
266.12203
266.06188
265.99527
265.92149
265.83975
265.74907
265.64858
265.53632
265.41367
265.26737
265.14258
264.84496
266.99151
266.99452
266.99367
266.99261
266.99134
266.98985
266.98813
266.98613
266.98382
266.98113
266.97804
266.97451
266.97055
266.96614
266.96128
266.95595
266.95011
266.9437
266.93665
266.92886
266.92024
266.9107
266.90014
266.88846
266.87557
266.86134
266.84562
266.82827
266.80911
266.78793
266.76453
266.73868
266.7101
266.67852
266.64359
266.60496
266.56221
266.51489
266.46252
266.40454
266.34035
266.26927
266.19055
266.10327
266.00657
265.8986
265.78071
265.64017
265.52029
265.23481
267.30094
267.30419
267.30343
267.30245
267.30128
267.29989
267.29827
267.29638
267.29418
267.29162
267.28865
267.28526
267.28144
267.27719
267.27251
267.26737
267.26174
267.25557
267.24878
267.24128
267.23298
267.22378
267.21359
267.20234
267.1899
267.17617
267.161
267.14426
267.12576
267.10533
267.08274
267.05779
267.0302
266.99971
266.966
266.9287
266.88744
266.84177
266.79122
266.73527
266.67334
266.60478
266.52888
266.44476
266.35161
266.24765
266.13419
265.99902
265.8837
265.60949
267.60048
267.60397
267.60329
267.60239
267.6013
267.60001
267.59849
267.5967
267.59461
267.59216
267.58932
267.58606
267.58238
267.57828
267.57376
267.5688
267.56338
267.55743
267.55089
267.54366
267.53565
267.52677
267.51695
267.50608
267.49407
267.48081
267.46617
267.44999
267.43213
267.41238
267.39057
267.36645
267.3398
267.31034
267.27776
267.24172
267.20185
267.15772
267.10888
267.05484
266.99502
266.92883
266.85557
266.77441
266.68457
266.58436
266.47503
266.34487
266.23382
265.9701
267.89071
267.89443
267.89383
267.89301
267.89201
267.8908
267.88938
267.8877
267.88571
267.88337
267.88064
267.8775
267.87395
267.86999
267.86563
267.86084
267.85561
267.84988
267.84357
267.83659
267.82886
267.82029
267.8108
267.8003
267.78869
267.77588
267.76173
267.74609
267.72882
267.70973
267.68863
267.66531
267.63954
267.61104
267.57953
267.54468
267.50611
267.46343
267.4162
267.36394
267.30612
267.24215
267.17136
267.09297
267.00624
266.90955
266.80408
266.67861
266.57154
266.31761
268.17218
268.17612
268.1756
268.17486
268.17394
268.17282
268.17148
268.1699
268.16801
268.16577
268.16316
268.16013
268.15671
268.15288
268.14866
268.14404
268.13899
268.13346
268.12737
268.12063
268.11317
268.10489
268.09571
268.08556
268.07434
268.06194
268.04825
268.03313
268.01641
267.99794
267.97752
267.95495
267.93
267.90242
267.87192
267.83818
267.80084
267.75953
267.71381
267.66323
267.60728
267.54539
267.47694
267.40115
267.31734
267.22394
267.12211
267.00103
266.8977
266.65292
268.44537
268.44954
268.44909
268.44843
268.44759
268.44655
268.4453
268.4438
268.44201
268.43988
268.43736
268.43445
268.43114
268.42744
268.42336
268.4189
268.41402
268.40867
268.40279
268.39628
268.38907
268.38107
268.37219
268.36237
268.35151
268.33951
268.32625
268.31161
268.29543
268.27754
268.25776
268.2359
268.21173
268.18501
268.15546
268.12277
268.0866
268.04657
268.00228
267.95328
267.89909
267.83917
267.77291
267.69958
267.61851
267.52821
267.42979
267.31284
267.21302
266.97683
268.71074
268.71514
268.71476
268.71417
268.7134
268.71244
268.71128
268.70987
268.70817
268.70613
268.70372
268.70091
268.69771
268.69414
268.69019
268.68587
268.68115
268.67599
268.6703
268.66402
268.65704
268.64929
268.6407
268.63119
268.62067
268.60905
268.59621
268.58203
268.56635
268.54901
268.52984
268.50865
268.48522
268.45931
268.43066
268.39896
268.36389
268.32508
268.28214
268.23463
268.18211
268.12403
268.05984
267.98883
267.91035
267.82296
267.72776
267.61469
267.51818
267.29005
268.96871
268.97334
268.97303
268.97251
268.97181
268.97093
268.96985
268.96853
268.96691
268.96497
268.96264
268.95994
268.95684
268.95338
268.94956
268.94538
268.94082
268.93583
268.93033
268.92425
268.9175
268.91
268.90168
268.89247
268.88227
268.87101
268.85857
268.84481
268.82961
268.81279
268.7942
268.77364
268.75091
268.72578
268.69798
268.66722
268.63319
268.59553
268.55386
268.50777
268.45681
268.40049
268.33825
268.26943
268.19339
268.10877
268.0166
267.90719
267.8138
267.59325
269.21967
269.22452
269.22427
269.22383
269.2232
269.22239
269.22139
269.22015
269.21862
269.21676
269.21453
269.21192
269.20893
269.20557
269.20187
269.19783
269.19341
269.18858
269.18326
269.17738
269.17085
269.16358
269.15552
269.14659
269.1367
269.12578
269.11371
269.10037
269.08561
269.0693
269.05125
269.0313
269.00923
268.98483
268.95783
268.92797
268.89492
268.85835
268.81789
268.77314
268.72367
268.66901
268.60862
268.54186
268.46814
268.38612
268.29682
268.19087
268.10042
267.88702
269.46398
269.46904
269.46886
269.46848
269.46793
269.46719
269.46626
269.4651
269.46365
269.46188
269.45973
269.45721
269.45432
269.45107
269.44748
269.44356
269.43929
269.43461
269.42947
269.42377
269.41744
269.41041
269.40259
269.39392
269.38433
269.37373
269.36202
269.34907
269.33474
269.3189
269.30137
269.28199
269.26056
269.23685
269.21062
269.18161
269.14949
269.11396
269.07464
269.03116
268.98311
268.93001
268.87138
268.80658
268.73505
268.65549
268.56891
268.46623
268.37857
268.17192
269.70195
269.70724
269.70713
269.70681
269.70632
269.70565
269.70479
269.70371
269.70234
269.70065
269.69859
269.69615
269.69335
269.6902
269.68672
269.68292
269.67878
269.67426
269.66928
269.66376
269.65763
269.65081
269.64322
269.63481
269.6255
269.61521
269.60384
269.59126
269.57734
269.56195
269.54492
269.52608
269.50525
269.4822
269.4567
269.42849
269.39727
269.36272
269.32449
269.28222
269.2355
269.1839
269.12693
269.06399
268.99453
268.91732
268.83331
268.73373
268.64871
268.44845
269.93391
269.93942
269.93937
269.93911
269.93869
269.93809
269.9373
269.93629
269.935
269.93338
269.9314
269.92905
269.92634
269.92328
269.91991
269.91622
269.91221
269.90783
269.90301
269.89766
269.89172
269.8851
269.87774
269.86957
269.86053
269.85054
269.83948
269.82726
269.81373
269.79877
269.78221
269.76389
269.74363
269.72121
269.69641
269.66897
269.63859
269.60497
269.56778
269.52665
269.48121
269.43103
269.37564
269.31447
269.24699
269.172
269.09044
268.99379
268.91128
268.71707
270.16014
270.16586
270.16587
270.16568
270.16532
270.16478
270.16406
270.16312
270.16191
270.16036
270.15846
270.15619
270.15356
270.1506
270.14732
270.14375
270.13986
270.13562
270.13094
270.12576
270.12
270.11357
270.10643
270.09849
270.08971
270.08
270.06925
270.05737
270.04422
270.02966
270.01355
269.99573
269.97601
269.9542
269.93006
269.90334
269.87377
269.84105
269.80484
269.76481
269.72058
269.67174
269.61786
269.55837
269.49276
269.41989
269.34065
269.2468
269.16667
268.97821
270.3809
270.38684
270.38691
270.38677
270.38648
270.386
270.38535
270.38448
270.38333
270.38186
270.38004
270.37784
270.37529
270.37242
270.36924
270.36577
270.362
270.35789
270.35336
270.34833
270.34274
270.3365
270.32956
270.32185
270.31332
270.30387
270.29342
270.28186
270.26907
270.2549
270.23922
270.22188
270.20268
270.18144
270.15793
270.13191
270.10311
270.07123
270.03597
269.99698
269.9539
269.90636
269.8539
269.79601
269.7322
269.66134
269.58431
269.49312
269.41526
269.23225
270.59644
270.60259
270.60272
270.60265
270.60241
270.602
270.60141
270.60061
270.59953
270.59813
270.59637
270.59425
270.59178
270.58899
270.5859
270.58254
270.57888
270.57489
270.5705
270.56563
270.5602
270.55414
270.5474
270.5399
270.5316
270.52241
270.51225
270.501
270.48854
270.47475
270.45949
270.44259
270.42389
270.4032
270.3803
270.35495
270.32688
270.29581
270.26144
270.22345
270.18148
270.13516
270.08407
270.02771
269.9656
269.89666
269.82174
269.73308
269.65738
269.47956
270.807
270.81336
270.81355
270.81353
270.81335
270.813
270.81248
270.81174
270.81073
270.8094
270.80771
270.80566
270.80326
270.80055
270.79755
270.79429
270.79074
270.78687
270.78261
270.77788
270.77261
270.76673
270.76017
270.75288
270.7448
270.73586
270.72597
270.71502
270.70289
270.68946
270.67459
270.65812
270.6399
270.61974
270.59741
270.5727
270.54533
270.51504
270.48153
270.44448
270.40356
270.35842
270.30864
270.25373
270.19325
270.12614
270.05324
269.96699
269.89335
269.72048
271.01279
271.01936
271.0196
271.01964
271.01952
271.01923
271.01877
271.01809
271.01715
271.01588
271.01426
271.01228
271.00995
271.00732
271.0044
271.00123
270.99779
270.99403
270.9899
270.98532
270.9802
270.97448
270.9681
270.96101
270.95315
270.94444
270.93481
270.92414
270.91233
270.89924
270.88475
270.8687
270.85094
270.83127
270.8095
270.7854
270.7587
270.72916
270.69646
270.66032
270.62041
270.57639
270.52786
270.47435
270.41543
270.35007
270.27909
270.19514
270.12347
269.95532
271.21401
271.22079
271.22109
271.22118
271.22112
271.22088
271.22048
271.21987
271.21898
271.21778
271.21623
271.21431
271.21206
271.20949
271.20666
271.20358
271.20024
271.1966
271.19259
271.18814
271.18316
271.17761
271.1714
271.1645
271.15685
271.14837
271.13898
271.12859
271.11708
271.10432
271.09019
271.07454
271.05721
271.03803
271.01679
270.99327
270.96722
270.93838
270.90648
270.87121
270.83226
270.78931
270.74197
270.6898
270.63237
270.56868
270.49954
270.4178
270.34801
270.18436
271.41086
271.41785
271.4182
271.41835
271.41833
271.41816
271.41781
271.41726
271.41644
271.4153
271.4138
271.41195
271.40976
271.40727
271.40452
271.40153
271.39828
271.39475
271.39086
271.38654
271.3817
271.3763
271.37026
271.36354
271.35609
271.34783
271.33869
271.32856
271.31733
271.30489
271.29111
271.27584
271.25894
271.24022
271.21948
271.19652
271.17109
271.14294
271.11178
271.07734
271.03933
270.9974
270.95121
270.90031
270.8443
270.78222
270.71484
270.63521
270.56722
270.40788
271.60351
271.6107
271.61111
271.61131
271.61135
271.61123
271.61094
271.61045
271.60969
271.6086
271.60717
271.60538
271.60326
271.60084
271.59816
271.59525
271.5921
271.58867
271.58489
271.5807
271.576
271.57074
271.56487
271.55832
271.55106
271.54301
271.5341
271.52422
271.51328
271.50114
271.4877
271.4728
271.45629
271.43802
271.41777
271.39535
271.37051
271.34301
271.31258
271.27894
271.24181
271.20087
271.15577
271.1061
271.05146
270.99092
270.92523
270.84761
270.78135
270.62613
271.79213
271.79953
271.79999
271.80024
271.80034
271.80027
271.80004
271.7996
271.7989
271.79787
271.7965
271.79477
271.79271
271.79036
271.78775
271.78492
271.78186
271.77853
271.77486
271.77079
271.76622
271.76111
271.75539
271.74901
271.74194
271.73409
271.7254
271.71577
271.70509
271.69325
271.68012
271.66558
271.64946
271.63161
271.61184
271.58993
271.56567
271.53879
271.50905
271.47618
271.4399
271.3999
271.35586
271.30737
271.25404
271.19497
271.1309
271.05522
270.99061
270.83934
271.97688
271.98449
271.985
271.98531
271.98545
271.98544
271.98526
271.98488
271.98423
271.98327
271.98195
271.98028
271.97827
271.97599
271.97345
271.9707
271.96772
271.96449
271.96093
271.95697
271.95254
271.94756
271.94199
271.93578
271.92888
271.92123
271.91275
271.90335
271.89293
271.88138
271.86856
271.85435
271.83861
271.82117
271.80185
271.78044
271.75672
271.73045
271.70138
271.66924
271.63378
271.59469
271.55166
271.5043
271.45223
271.39458
271.33206
271.25824
271.19522
271.04774
272.15792
272.16573
272.16629
272.16665
272.16684
272.16688
272.16676
272.16643
272.16584
272.16493
272.16367
272.16205
272.16011
272.15788
272.15541
272.15274
272.14985
272.14671
272.14325
272.13941
272.13509
272.13025
272.12482
272.11877
272.11204
272.10458
272.09631
272.08714
272.07697
272.06568
272.05316
272.03928
272.0239
272.00686
271.98797
271.96704
271.94385
271.91815
271.88972
271.8583
271.82362
271.78541
271.74335
271.69707
271.64621
271.58992
271.5289
271.45687
271.39537
271.25152
272.33538
272.3434
272.34401
272.34441
272.34466
272.34474
272.34467
272.3444
272.34386
272.343
272.34179
272.34023
272.33835
272.33618
272.33378
272.33117
272.32837
272.32532
272.32196
272.31823
272.31403
272.30931
272.30403
272.29813
272.29156
272.28428
272.27621
272.26726
272.25733
272.24631
272.23408
272.22051
272.20548
272.18882
272.17035
272.14988
272.12719
272.10206
272.07424
272.0435
272.00958
271.97221
271.93109
271.88585
271.83616
271.78117
271.72159
271.65128
271.59124
271.45088
272.50939
272.51761
272.51827
272.51872
272.51902
272.51916
272.51914
272.51892
272.51843
272.51762
272.51647
272.51496
272.51313
272.51102
272.50868
272.50615
272.50342
272.50046
272.4972
272.49357
272.48949
272.4849
272.47974
272.47399
272.46759
272.46049
272.45261
272.44387
272.43417
272.4234
272.41144
272.39818
272.38348
272.36719
272.34913
272.3291
272.3069
272.28231
272.25509
272.225
272.19181
272.15524
272.11503
272.0708
272.02223
271.9685
271.9103
271.84164
271.78301
271.64601
272.68009
272.68851
272.68922
272.68972
272.69006
272.69025
272.69028
272.69011
272.68967
272.68892
272.68782
272.68636
272.68458
272.68253
272.68025
272.67779
272.67513
272.67226
272.66909
272.66556
272.6616
272.65712
272.6521
272.64649
272.64024
272.63331
272.62562
272.61708
272.6076
272.59708
272.58539
272.57243
272.55805
272.54211
272.52444
272.50484
272.48312
272.45904
272.43239
272.40294
272.37045
272.33466
272.29531
272.25205
272.20456
272.15205
272.09518
272.02811
271.97085
271.83707
272.84759
272.85621
272.85697
272.85751
272.85791
272.85814
272.85822
272.8581
272.85772
272.85701
272.85596
272.85455
272.85282
272.85082
272.84861
272.84621
272.84363
272.84084
272.83776
272.83433
272.83047
272.82612
272.82122
272.81575
272.80965
272.80288
272.79537
272.78703
272.77777
272.76748
272.75606
272.74338
272.72931
272.71371
272.69642
272.67723
272.65596
272.63239
272.60629
272.57745
272.54563
272.5106
272.47209
272.42976
272.38331
272.33197
272.27638
272.21085