/*--------------------------------*- C++ -*----------------------------------*\
| =========                 |                                                 |
| \\      /  F ield         | OpenFOAM: The Open Source CFD Toolbox           |
|  \\    /   O peration     | Version:  4.0                                   |
|   \\  /    A nd           | Web:      www.OpenFOAM.org                      |
|    \\/     M anipulation  |                                                 |
\*---------------------------------------------------------------------------*/
FoamFile
{
    version     2.0;
    format      ascii;
    class       volScalarField;
    location    "846";
    object      ILambda_7_0;
}
// * * * * * * * * * * * * * * * * * * * * * * * * * * * * * * * * * * * * * //

dimensions      [1 0 -3 0 0 0 0];

internalField   nonuniform List<scalar> 
5000
(
134.30131
134.30131
134.30131
134.30131
134.30131
134.30131
134.30131
134.30131
134.30131
134.30131
134.30131
134.30131
134.30131
134.30131
134.30131
134.30131
134.30131
134.30131
134.30131
134.30131
134.30131
134.30131
134.30131
134.30131
134.30131
134.30131
134.30131
134.30131
134.30131
134.30131
134.30131
134.30131
134.30131
134.30131
134.30131
134.30131
134.30131
134.30131
134.30131
134.30131
134.30131
134.30131
134.30131
134.30131
134.30131
134.30131
134.30132
134.30132
134.30132
134.30126
134.30131
134.30131
134.30131
134.30131
134.30131
134.30131
134.30131
134.30131
134.30131
134.30131
134.30131
134.30131
134.30131
134.30131
134.30131
134.30131
134.30131
134.30131
134.30131
134.30131
134.30131
134.30131
134.30131
134.30131
134.30131
134.30131
134.30131
134.30131
134.30131
134.30131
134.30131
134.30131
134.30131
134.30131
134.30131
134.30131
134.30131
134.30131
134.30131
134.30131
134.30131
134.30131
134.30131
134.30131
134.30132
134.30132
134.30133
134.30132
134.30125
134.30106
134.30131
134.30131
134.30131
134.30131
134.30131
134.30131
134.30131
134.30131
134.30131
134.30131
134.30131
134.30131
134.30131
134.30131
134.30131
134.30131
134.30131
134.30131
134.30131
134.30131
134.30131
134.30131
134.30131
134.30131
134.30131
134.30131
134.30131
134.30131
134.30131
134.30131
134.30131
134.30131
134.30131
134.30131
134.30131
134.30131
134.30131
134.30131
134.30131
134.30131
134.30131
134.30131
134.30132
134.30132
134.30133
134.30133
134.30131
134.30124
134.30107
134.3008
134.30131
134.30131
134.30131
134.30131
134.30131
134.30131
134.30131
134.30131
134.30131
134.30131
134.30131
134.30131
134.30131
134.30131
134.30131
134.30131
134.30131
134.30131
134.30131
134.30131
134.30131
134.30131
134.30131
134.30131
134.30131
134.30131
134.30131
134.30131
134.30131
134.30131
134.30131
134.30131
134.30131
134.30131
134.30131
134.30131
134.30131
134.30131
134.30131
134.30131
134.30132
134.30132
134.30133
134.30134
134.30133
134.3013
134.30122
134.30107
134.30083
134.30053
134.30131
134.30131
134.30131
134.30131
134.30131
134.30131
134.30131
134.30131
134.30131
134.30131
134.30131
134.30131
134.30131
134.30131
134.30131
134.30131
134.30131
134.30131
134.30131
134.30131
134.30131
134.30131
134.30131
134.30131
134.30131
134.30131
134.30131
134.30131
134.30131
134.30131
134.30131
134.30131
134.30131
134.30131
134.30131
134.30131
134.30131
134.30132
134.30132
134.30133
134.30133
134.30134
134.30134
134.30132
134.30128
134.30119
134.30104
134.30083
134.30056
134.30026
134.30131
134.30131
134.30131
134.30131
134.30131
134.30131
134.30131
134.30131
134.30131
134.30131
134.30131
134.30131
134.30131
134.30131
134.30131
134.30131
134.30131
134.30131
134.30131
134.30131
134.30131
134.30131
134.30131
134.30131
134.30131
134.30131
134.30131
134.30131
134.30131
134.30131
134.30131
134.30131
134.30131
134.30132
134.30132
134.30132
134.30133
134.30133
134.30134
134.30134
134.30134
134.30133
134.3013
134.30124
134.30115
134.301
134.30081
134.30057
134.30029
134.29999
134.30131
134.30131
134.30131
134.30131
134.30131
134.30131
134.30131
134.30131
134.30131
134.30131
134.30131
134.30131
134.30131
134.30131
134.30131
134.30131
134.30131
134.30131
134.30131
134.30131
134.30131
134.30131
134.30131
134.30131
134.30131
134.30131
134.30131
134.30132
134.30132
134.30132
134.30132
134.30132
134.30133
134.30133
134.30133
134.30134
134.30134
134.30134
134.30134
134.30132
134.3013
134.30126
134.30119
134.30109
134.30095
134.30076
134.30054
134.30029
134.30002
134.29973
134.30131
134.30131
134.30131
134.30131
134.30131
134.30131
134.30131
134.30131
134.30131
134.30131
134.30131
134.30132
134.30132
134.30132
134.30132
134.30132
134.30132
134.30132
134.30132
134.30132
134.30132
134.30132
134.30132
134.30132
134.30132
134.30132
134.30133
134.30133
134.30133
134.30133
134.30133
134.30134
134.30134
134.30134
134.30134
134.30134
134.30133
134.30131
134.30129
134.30126
134.3012
134.30112
134.30101
134.30087
134.3007
134.30049
134.30027
134.30002
134.29975
134.29946
134.30132
134.30132
134.30132
134.30132
134.30132
134.30132
134.30132
134.30132
134.30132
134.30132
134.30133
134.30133
134.30133
134.30133
134.30133
134.30133
134.30133
134.30133
134.30133
134.30133
134.30133
134.30133
134.30133
134.30133
134.30133
134.30134
134.30134
134.30134
134.30134
134.30134
134.30134
134.30133
134.30133
134.30132
134.30131
134.30129
134.30127
134.30123
134.30118
134.30112
134.30103
134.30092
134.30078
134.30061
134.30043
134.30022
134.29999
134.29975
134.29948
134.29919
134.30133
134.30133
134.30133
134.30133
134.30133
134.30133
134.30133
134.30133
134.30133
134.30134
134.30134
134.30134
134.30134
134.30134
134.30134
134.30134
134.30134
134.30134
134.30134
134.30134
134.30134
134.30134
134.30134
134.30133
134.30133
134.30133
134.30133
134.30132
134.30132
134.30131
134.3013
134.30129
134.30128
134.30125
134.30123
134.30119
134.30114
134.30108
134.301
134.30091
134.3008
134.30066
134.30051
134.30034
134.30015
134.29995
134.29972
134.29948
134.29922
134.29892
134.30133
134.30133
134.30133
134.30133
134.30133
134.30133
134.30133
134.30133
134.30133
134.30133
134.30133
134.30133
134.30133
134.30133
134.30132
134.30132
134.30132
134.30132
134.30132
134.30132
134.30131
134.30131
134.3013
134.3013
134.30129
134.30129
134.30128
134.30127
134.30125
134.30123
134.30121
134.30119
134.30116
134.30112
134.30107
134.30101
134.30095
134.30086
134.30077
134.30066
134.30053
134.30039
134.30023
134.30006
134.29988
134.29968
134.29946
134.29921
134.29895
134.29865
134.30129
134.30129
134.30129
134.30129
134.30129
134.30129
134.30128
134.30128
134.30128
134.30128
134.30128
134.30128
134.30127
134.30127
134.30127
134.30126
134.30126
134.30125
134.30125
134.30124
134.30124
134.30123
134.30122
134.30121
134.30119
134.30118
134.30116
134.30114
134.30112
134.30109
134.30105
134.30102
134.30097
134.30092
134.30085
134.30078
134.3007
134.30061
134.3005
134.30039
134.30026
134.30011
134.29996
134.29979
134.29961
134.29941
134.29919
134.29895
134.29868
134.29839
134.30119
134.30119
134.30119
134.30119
134.30119
134.30118
134.30118
134.30118
134.30117
134.30117
134.30117
134.30116
134.30116
134.30115
134.30115
134.30114
134.30113
134.30112
134.30111
134.3011
134.30109
134.30108
134.30106
134.30105
134.30103
134.301
134.30098
134.30095
134.30092
134.30088
134.30084
134.30079
134.30073
134.30067
134.3006
134.30052
134.30043
134.30033
134.30023
134.30011
134.29998
134.29984
134.29969
134.29952
134.29934
134.29914
134.29892
134.29868
134.29841
134.29812
134.30102
134.30102
134.30102
134.30102
134.30102
134.30101
134.30101
134.301
134.301
134.30099
134.30099
134.30098
134.30098
134.30097
134.30096
134.30095
134.30094
134.30093
134.30092
134.3009
134.30089
134.30087
134.30085
134.30083
134.3008
134.30077
134.30074
134.30071
134.30067
134.30063
134.30058
134.30052
134.30046
134.3004
134.30032
134.30024
134.30015
134.30006
134.29995
134.29983
134.29971
134.29957
134.29942
134.29925
134.29907
134.29887
134.29865
134.29841
134.29815
134.29785
134.30078
134.30079
134.30079
134.30079
134.30079
134.30079
134.30078
134.30078
134.30077
134.30076
134.30076
134.30075
134.30074
134.30073
134.30072
134.30071
134.3007
134.30069
134.30067
134.30065
134.30064
134.30062
134.30059
134.30057
134.30054
134.30051
134.30048
134.30044
134.3004
134.30035
134.3003
134.30024
134.30018
134.30012
134.30004
134.29996
134.29988
134.29978
134.29968
134.29956
134.29944
134.2993
134.29915
134.29899
134.29881
134.29861
134.29839
134.29814
134.29788
134.29758
134.30051
134.30052
134.30052
134.30053
134.30053
134.30053
134.30052
134.30051
134.30051
134.3005
134.30049
134.30048
134.30047
134.30047
134.30045
134.30044
134.30043
134.30041
134.3004
134.30038
134.30036
134.30034
134.30032
134.30029
134.30026
134.30023
134.3002
134.30016
134.30012
134.30007
134.30002
134.29997
134.29991
134.29984
134.29977
134.29969
134.2996
134.29951
134.29941
134.2993
134.29917
134.29904
134.29889
134.29872
134.29854
134.29834
134.29812
134.29788
134.29761
134.29732
134.30023
134.30022
134.30023
134.30024
134.30024
134.30024
134.30024
134.30024
134.30023
134.30022
134.30021
134.3002
134.3002
134.30019
134.30017
134.30016
134.30015
134.30014
134.30012
134.3001
134.30008
134.30006
134.30004
134.30001
134.29998
134.29995
134.29992
134.29988
134.29984
134.29979
134.29975
134.29969
134.29963
134.29957
134.2995
134.29942
134.29934
134.29924
134.29914
134.29903
134.2989
134.29877
134.29862
134.29845
134.29827
134.29807
134.29785
134.29761
134.29734
134.29705
134.29994
134.29993
134.29994
134.29995
134.29996
134.29996
134.29996
134.29996
134.29995
134.29994
134.29993
134.29993
134.29992
134.29991
134.2999
134.29988
134.29987
134.29986
134.29984
134.29982
134.2998
134.29978
134.29976
134.29974
134.29971
134.29968
134.29964
134.29961
134.29957
134.29952
134.29947
134.29942
134.29936
134.2993
134.29923
134.29915
134.29907
134.29898
134.29887
134.29876
134.29864
134.2985
134.29835
134.29819
134.298
134.2978
134.29758
134.29734
134.29707
134.29678
134.29966
134.29964
134.29966
134.29966
134.29967
134.29968
134.29969
134.29968
134.29968
134.29967
134.29966
134.29965
134.29964
134.29963
134.29962
134.29961
134.2996
134.29958
134.29957
134.29955
134.29953
134.29951
134.29949
134.29946
134.29944
134.29941
134.29937
134.29934
134.2993
134.29925
134.29921
134.29915
134.2991
134.29903
134.29896
134.29889
134.2988
134.29871
134.29861
134.29849
134.29837
134.29823
134.29808
134.29792
134.29774
134.29754
134.29732
134.29707
134.29681
134.29651
134.29938
134.29936
134.29937
134.29938
134.2994
134.29941
134.29941
134.29941
134.29941
134.2994
134.29939
134.29938
134.29937
134.29936
134.29935
134.29934
134.29933
134.29932
134.2993
134.29928
134.29927
134.29924
134.29922
134.2992
134.29917
134.29914
134.29911
134.29907
134.29903
134.29899
134.29894
134.29889
134.29883
134.29877
134.2987
134.29862
134.29853
134.29844
134.29834
134.29823
134.2981
134.29797
134.29782
134.29765
134.29747
134.29727
134.29705
134.29681
134.29654
134.29625
134.2991
134.29907
134.29909
134.29911
134.29912
134.29914
134.29915
134.29915
134.29915
134.29914
134.29913
134.29912
134.29911
134.2991
134.29909
134.29908
134.29906
134.29905
134.29903
134.29902
134.299
134.29898
134.29896
134.29893
134.2989
134.29887
134.29884
134.2988
134.29876
134.29872
134.29867
134.29862
134.29856
134.2985
134.29843
134.29835
134.29827
134.29817
134.29807
134.29796
134.29783
134.2977
134.29755
134.29738
134.2972
134.297
134.29678
134.29654
134.29627
134.29598
134.29881
134.29879
134.29882
134.29883
134.29885
134.29887
134.29888
134.29888
134.29888
134.29887
134.29886
134.29885
134.29884
134.29883
134.29882
134.29881
134.2988
134.29878
134.29877
134.29875
134.29873
134.29871
134.29869
134.29866
134.29864
134.29861
134.29857
134.29854
134.2985
134.29845
134.2984
134.29835
134.29829
134.29823
134.29816
134.29808
134.298
134.2979
134.2978
134.29769
134.29757
134.29743
134.29728
134.29712
134.29693
134.29673
134.29651
134.29627
134.296
134.29571
134.29852
134.29851
134.29854
134.29856
134.29859
134.29861
134.29862
134.29862
134.29862
134.29861
134.2986
134.29859
134.29857
134.29856
134.29855
134.29854
134.29853
134.29852
134.2985
134.29848
134.29847
134.29844
134.29842
134.2984
134.29837
134.29834
134.29831
134.29827
134.29823
134.29819
134.29814
134.29808
134.29803
134.29796
134.29789
134.29781
134.29773
134.29764
134.29753
134.29742
134.2973
134.29716
134.29701
134.29685
134.29667
134.29647
134.29625
134.296
134.29574
134.29544
134.29823
134.29823
134.29827
134.29829
134.29832
134.29834
134.29835
134.29836
134.29835
134.29834
134.29833
134.29832
134.29831
134.2983
134.29829
134.29828
134.29826
134.29825
134.29823
134.29822
134.2982
134.29818
134.29815
134.29813
134.2981
134.29807
134.29804
134.298
134.29796
134.29792
134.29787
134.29782
134.29776
134.29769
134.29762
134.29755
134.29746
134.29737
134.29727
134.29715
134.29703
134.2969
134.29675
134.29658
134.2964
134.2962
134.29598
134.29574
134.29547
134.29518
134.29795
134.29796
134.298
134.29803
134.29806
134.29808
134.29809
134.2981
134.29809
134.29808
134.29807
134.29805
134.29804
134.29803
134.29802
134.29801
134.298
134.29798
134.29797
134.29795
134.29793
134.29791
134.29789
134.29786
134.29783
134.2978
134.29777
134.29773
134.29769
134.29765
134.2976
134.29755
134.29749
134.29743
134.29736
134.29728
134.29719
134.2971
134.297
134.29689
134.29676
134.29663
134.29648
134.29631
134.29613
134.29593
134.29571
134.29547
134.2952
134.29491
134.29767
134.2977
134.29773
134.29777
134.2978
134.29782
134.29783
134.29783
134.29783
134.29781
134.2978
134.29779
134.29777
134.29776
134.29775
134.29774
134.29773
134.29772
134.2977
134.29768
134.29766
134.29764
134.29762
134.29759
134.29757
134.29754
134.2975
134.29747
134.29743
134.29738
134.29733
134.29728
134.29722
134.29716
134.29709
134.29701
134.29693
134.29683
134.29673
134.29662
134.2965
134.29636
134.29621
134.29605
134.29586
134.29566
134.29544
134.2952
134.29493
134.29464
134.2974
134.29743
134.29747
134.29751
134.29754
134.29756
134.29757
134.29757
134.29756
134.29755
134.29753
134.29752
134.29751
134.2975
134.29749
134.29747
134.29746
134.29745
134.29743
134.29742
134.2974
134.29737
134.29735
134.29733
134.2973
134.29727
134.29723
134.2972
134.29716
134.29711
134.29707
134.29701
134.29695
134.29689
134.29682
134.29674
134.29666
134.29657
134.29646
134.29635
134.29623
134.29609
134.29594
134.29578
134.2956
134.2954
134.29518
134.29493
134.29467
134.29437
134.29714
134.29717
134.29721
134.29725
134.29728
134.2973
134.29731
134.2973
134.2973
134.29728
134.29727
134.29725
134.29724
134.29723
134.29722
134.29721
134.2972
134.29718
134.29717
134.29715
134.29713
134.29711
134.29708
134.29706
134.29703
134.297
134.29697
134.29693
134.29689
134.29685
134.2968
134.29674
134.29669
134.29662
134.29655
134.29648
134.29639
134.2963
134.2962
134.29608
134.29596
134.29583
134.29568
134.29551
134.29533
134.29513
134.29491
134.29467
134.2944
134.29411
134.29687
134.29691
134.29695
134.29699
134.29702
134.29703
134.29704
134.29704
134.29703
134.29701
134.297
134.29698
134.29697
134.29696
134.29695
134.29694
134.29693
134.29692
134.2969
134.29688
134.29686
134.29684
134.29682
134.29679
134.29676
134.29673
134.2967
134.29666
134.29662
134.29658
134.29653
134.29648
134.29642
134.29636
134.29629
134.29621
134.29612
134.29603
134.29593
134.29582
134.29569
134.29556
134.29541
134.29524
134.29506
134.29486
134.29464
134.2944
134.29413
134.29384
134.2966
134.29664
134.29669
134.29672
134.29675
134.29677
134.29678
134.29677
134.29676
134.29675
134.29673
134.29672
134.2967
134.29669
134.29668
134.29667
134.29666
134.29665
134.29663
134.29661
134.29659
134.29657
134.29655
134.29652
134.2965
134.29646
134.29643
134.29639
134.29635
134.29631
134.29626
134.29621
134.29615
134.29609
134.29602
134.29594
134.29586
134.29576
134.29566
134.29555
134.29543
134.29529
134.29514
134.29498
134.29479
134.29459
134.29437
134.29413
134.29386
134.29357
134.29632
134.29637
134.29641
134.29645
134.29649
134.29651
134.29651
134.29651
134.2965
134.29648
134.29646
134.29645
134.29644
134.29643
134.29642
134.29641
134.2964
134.29638
134.29637
134.29635
134.29633
134.29631
134.29628
134.29626
134.29623
134.2962
134.29616
134.29613
134.29609
134.29604
134.29599
134.29594
134.29588
134.29582
134.29575
134.29567
134.29559
134.2955
134.29539
134.29528
134.29516
134.29502
134.29487
134.29471
134.29453
134.29433
134.29411
134.29386
134.2936
134.2933
134.29602
134.29608
134.29614
134.29618
134.29622
134.29624
134.29625
134.29624
134.29623
134.29622
134.2962
134.29618
134.29617
134.29616
134.29615
134.29614
134.29613
134.29611
134.2961
134.29608
134.29606
134.29604
134.29601
134.29599
134.29596
134.29593
134.2959
134.29586
134.29582
134.29577
134.29573
134.29567
134.29562
134.29555
134.29548
134.2954
134.29532
134.29523
134.29513
134.29501
134.29489
134.29476
134.29461
134.29444
134.29426
134.29406
134.29384
134.2936
134.29333
134.29304
134.29571
134.29579
134.29585
134.2959
134.29594
134.29597
134.29598
134.29598
134.29597
134.29595
134.29593
134.29592
134.2959
134.29589
134.29588
134.29587
134.29586
134.29585
134.29583
134.29581
134.29579
134.29577
134.29575
134.29572
134.29569
134.29566
134.29563
134.29559
134.29555
134.29551
134.29546
134.29541
134.29535
134.29528
134.29521
134.29514
134.29505
134.29496
134.29486
134.29475
134.29462
134.29449
134.29434
134.29417
134.29399
134.29379
134.29357
134.29333
134.29306
134.29277
134.29539
134.29549
134.29556
134.29562
134.29567
134.2957
134.29572
134.29572
134.29571
134.29569
134.29567
134.29565
134.29564
134.29563
134.29562
134.29561
134.2956
134.29558
134.29556
134.29555
134.29553
134.2955
134.29548
134.29545
134.29543
134.29539
134.29536
134.29532
134.29528
134.29524
134.29519
134.29514
134.29508
134.29502
134.29495
134.29487
134.29478
134.29469
134.29459
134.29448
134.29436
134.29422
134.29407
134.29391
134.29372
134.29352
134.2933
134.29306
134.29279
134.2925
134.29506
134.29518
134.29527
134.29534
134.2954
134.29544
134.29546
134.29546
134.29544
134.29542
134.2954
134.29539
134.29537
134.29536
134.29535
134.29534
134.29533
134.29531
134.2953
134.29528
134.29526
134.29524
134.29521
134.29519
134.29516
134.29513
134.29509
134.29506
134.29502
134.29497
134.29492
134.29487
134.29481
134.29475
134.29468
134.2946
134.29452
134.29442
134.29432
134.29421
134.29409
134.29395
134.2938
134.29364
134.29346
134.29326
134.29304
134.29279
134.29253
134.29223
134.29473
134.29487
134.29497
134.29506
134.29513
134.29517
134.2952
134.2952
134.29518
134.29516
134.29514
134.29512
134.29511
134.29509
134.29508
134.29507
134.29506
134.29505
134.29503
134.29501
134.29499
134.29497
134.29495
134.29492
134.29489
134.29486
134.29483
134.29479
134.29475
134.2947
134.29466
134.2946
134.29454
134.29448
134.29441
134.29433
134.29425
134.29416
134.29406
134.29394
134.29382
134.29369
134.29354
134.29337
134.29319
134.29299
134.29277
134.29253
134.29226
134.29197
134.29439
134.29456
134.29467
134.29477
134.29486
134.29491
134.29494
134.29494
134.29492
134.2949
134.29488
134.29486
134.29484
134.29483
134.29482
134.29481
134.2948
134.29478
134.29476
134.29475
134.29472
134.2947
134.29468
134.29465
134.29462
134.29459
134.29456
134.29452
134.29448
134.29444
134.29439
134.29433
134.29428
134.29421
134.29414
134.29407
134.29398
134.29389
134.29379
134.29368
134.29355
134.29342
134.29327
134.2931
134.29292
134.29272
134.2925
134.29226
134.29199
134.2917
134.29405
134.29425
134.29438
134.29449
134.29459
134.29465
134.29468
134.29468
134.29467
134.29464
134.29461
134.29459
134.29457
134.29456
134.29455
134.29454
134.29453
134.29451
134.2945
134.29448
134.29446
134.29444
134.29441
134.29438
134.29436
134.29432
134.29429
134.29425
134.29421
134.29417
134.29412
134.29407
134.29401
134.29394
134.29387
134.2938
134.29371
134.29362
134.29352
134.29341
134.29329
134.29315
134.293
134.29284
134.29265
134.29245
134.29223
134.29199
134.29172
134.29143
134.29372
134.29395
134.29408
134.29421
134.29432
134.29438
134.29442
134.29442
134.29441
134.29438
134.29435
134.29433
134.29431
134.29429
134.29428
134.29427
134.29426
134.29425
134.29423
134.29421
134.29419
134.29417
134.29414
134.29412
134.29409
134.29406
134.29402
134.29399
134.29394
134.2939
134.29385
134.2938
134.29374
134.29368
134.29361
134.29353
134.29345
134.29335
134.29325
134.29314
134.29302
134.29288
134.29273
134.29257
134.29239
134.29219
134.29197
134.29172
134.29146
134.29116
134.29339
134.29365
134.2938
134.29394
134.29405
134.29412
134.29416
134.29416
134.29415
134.29412
134.29409
134.29406
134.29404
134.29403
134.29402
134.29401
134.294
134.29398
134.29396
134.29395
134.29392
134.2939
134.29388
134.29385
134.29382
134.29379
134.29376
134.29372
134.29368
134.29363
134.29358
134.29353
134.29347
134.29341
134.29334
134.29326
134.29318
134.29309
134.29298
134.29287
134.29275
134.29261
134.29247
134.2923
134.29212
134.29192
134.2917
134.29146
134.29119
134.2909
134.29308
134.29335
134.29351
134.29366
134.29378
134.29386
134.2939
134.29391
134.29389
134.29386
134.29382
134.2938
134.29377
134.29376
134.29375
134.29374
134.29373
134.29371
134.2937
134.29368
134.29366
134.29363
134.29361
134.29358
134.29355
134.29352
134.29349
134.29345
134.29341
134.29336
134.29332
134.29326
134.29321
134.29314
134.29307
134.29299
134.29291
134.29282
134.29272
134.29261
134.29248
134.29235
134.2922
134.29203
134.29185
134.29165
134.29143
134.29119
134.29092
134.29063
134.29277
134.29306
134.29323
134.29339
134.29352
134.2936
134.29364
134.29365
134.29363
134.2936
134.29356
134.29353
134.29351
134.29349
134.29348
134.29347
134.29346
134.29345
134.29343
134.29341
134.29339
134.29337
134.29334
134.29332
134.29329
134.29325
134.29322
134.29318
134.29314
134.2931
134.29305
134.293
134.29294
134.29287
134.2928
134.29273
134.29264
134.29255
134.29245
134.29234
134.29222
134.29208
134.29193
134.29177
134.29158
134.29138
134.29116
134.29092
134.29066
134.29036
134.29247
134.29278
134.29295
134.29312
134.29325
134.29334
134.29338
134.29339
134.29337
134.29333
134.2933
134.29326
134.29324
134.29323
134.29322
134.29321
134.2932
134.29318
134.29316
134.29315
134.29312
134.2931
134.29308
134.29305
134.29302
134.29299
134.29295
134.29291
134.29287
134.29283
134.29278
134.29273
134.29267
134.29261
134.29254
134.29246
134.29237
134.29228
134.29218
134.29207
134.29195
134.29181
134.29166
134.2915
134.29132
134.29112
134.2909
134.29065
134.29039
134.29009
134.29217
134.2925
134.29268
134.29285
134.29299
134.29308
134.29312
134.29313
134.29311
134.29307
134.29303
134.293
134.29297
134.29296
134.29295
134.29294
134.29293
134.29292
134.2929
134.29288
134.29286
134.29283
134.29281
134.29278
134.29275
134.29272
134.29268
134.29265
134.29261
134.29256
134.29251
134.29246
134.2924
134.29234
134.29227
134.29219
134.29211
134.29201
134.29191
134.2918
134.29168
134.29154
134.2914
134.29123
134.29105
134.29085
134.29063
134.29039
134.29012
134.28983
134.29188
134.29222
134.29241
134.29259
134.29273
134.29282
134.29286
134.29287
134.29284
134.29281
134.29277
134.29273
134.29271
134.29269
134.29268
134.29267
134.29266
134.29265
134.29263
134.29261
134.29259
134.29257
134.29254
134.29251
134.29248
134.29245
134.29242
134.29238
134.29234
134.29229
134.29225
134.29219
134.29213
134.29207
134.292
134.29192
134.29184
134.29175
134.29165
134.29153
134.29141
134.29128
134.29113
134.29096
134.29078
134.29058
134.29036
134.29012
134.28985
134.28956
134.2916
134.29195
134.29214
134.29232
134.29246
134.29256
134.2926
134.2926
134.29258
134.29254
134.2925
134.29247
134.29244
134.29243
134.29242
134.29241
134.2924
134.29238
134.29237
134.29235
134.29232
134.2923
134.29227
134.29225
134.29222
134.29218
134.29215
134.29211
134.29207
134.29203
134.29198
134.29192
134.29187
134.2918
134.29173
134.29166
134.29157
134.29148
134.29138
134.29127
134.29114
134.29101
134.29086
134.2907
134.29051
134.29031
134.29009
134.28985
134.28959
134.28929
134.29132
134.29167
134.29187
134.29206
134.2922
134.29229
134.29234
134.29234
134.29232
134.29228
134.29224
134.2922
134.29217
134.29216
134.29215
134.29214
134.29213
134.29212
134.2921
134.29208
134.29206
134.29203
134.29201
134.29198
134.29195
134.29192
134.29188
134.29184
134.2918
134.29176
134.29171
134.29166
134.2916
134.29153
134.29146
134.29139
134.2913
134.29121
134.29111
134.291
134.29088
134.29074
134.29059
134.29043
134.29025
134.29005
134.28983
134.28958
134.28932
134.28903
134.29104
134.2914
134.2916
134.29179
134.29194
134.29203
134.29207
134.29208
134.29205
134.29201
134.29197
134.29193
134.29191
134.29189
134.29188
134.29187
134.29186
134.29185
134.29183
134.29181
134.29179
134.29177
134.29174
134.29171
134.29168
134.29165
134.29161
134.29158
134.29154
134.29149
134.29144
134.29139
134.29133
134.29127
134.2912
134.29112
134.29104
134.29094
134.29084
134.29073
134.29061
134.29048
134.29033
134.29016
134.28998
134.28978
134.28956
134.28932
134.28905
134.28876
134.29076
134.29113
134.29133
134.29152
134.29167
134.29176
134.29181
134.29181
134.29179
134.29175
134.2917
134.29167
134.29164
134.29163
134.29162
134.29161
134.2916
134.29158
134.29157
134.29155
134.29152
134.2915
134.29147
134.29145
134.29142
134.29138
134.29135
134.29131
134.29127
134.29122
134.29117
134.29112
134.29106
134.291
134.29093
134.29085
134.29077
134.29068
134.29058
134.29046
134.29034
134.29021
134.29006
134.28989
134.28971
134.28951
134.28929
134.28905
134.28879
134.28849
134.29048
134.29085
134.29106
134.29125
134.2914
134.2915
134.29155
134.29155
134.29152
134.29148
134.29144
134.2914
134.29138
134.29136
134.29135
134.29134
134.29133
134.29132
134.2913
134.29128
134.29126
134.29123
134.29121
134.29118
134.29115
134.29112
134.29108
134.29104
134.291
134.29096
134.29091
134.29085
134.29079
134.29073
134.29066
134.29058
134.2905
134.29041
134.29031
134.2902
134.29008
134.28994
134.28979
134.28963
134.28945
134.28925
134.28903
134.28878
134.28852
134.28823
134.2902
134.29058
134.29078
134.29098
134.29113
134.29123
134.29128
134.29129
134.29126
134.29122
134.29117
134.29114
134.29111
134.29109
134.29108
134.29108
134.29107
134.29105
134.29103
134.29101
134.29099
134.29097
134.29094
134.29091
134.29088
134.29085
134.29081
134.29077
134.29073
134.29069
134.29064
134.29059
134.29053
134.29046
134.29039
134.29032
134.29023
134.29014
134.29004
134.28993
134.28981
134.28967
134.28952
134.28936
134.28918
134.28898
134.28876
134.28852
134.28825
134.28796
134.28992
134.2903
134.29051
134.29071
134.29087
134.29097
134.29102
134.29102
134.29099
134.29095
134.29091
134.29087
134.29084
134.29083
134.29082
134.29081
134.2908
134.29079
134.29077
134.29075
134.29072
134.2907
134.29067
134.29065
134.29061
134.29058
134.29055
134.29051
134.29047
134.29042
134.29037
134.29032
134.29026
134.2902
134.29013
134.29005
134.28997
134.28987
134.28977
134.28966
134.28954
134.28941
134.28926
134.28909
134.28891
134.28871
134.28849
134.28825
134.28799
134.28769
134.28963
134.29002
134.29023
134.29043
134.29059
134.2907
134.29075
134.29075
134.29073
134.29069
134.29064
134.29061
134.29058
134.29056
134.29055
134.29054
134.29053
134.29052
134.2905
134.29048
134.29046
134.29043
134.29041
134.29038
134.29035
134.29031
134.29028
134.29024
134.2902
134.29015
134.2901
134.29005
134.28999
134.28993
134.28986
134.28978
134.2897
134.28961
134.28951
134.28939
134.28927
134.28914
134.28899
134.28883
134.28864
134.28844
134.28823
134.28798
134.28772
134.28743
134.28935
134.28973
134.28995
134.29016
134.29032
134.29043
134.29048
134.29049
134.29046
134.29042
134.29038
134.29034
134.29031
134.2903
134.29029
134.29028
134.29027
134.29025
134.29024
134.29022
134.29019
134.29017
134.29014
134.29011
134.29008
134.29005
134.29001
134.28997
134.28993
134.28989
134.28984
134.28978
134.28972
134.28966
134.28959
134.28951
134.28943
134.28934
134.28924
134.28913
134.28901
134.28887
134.28872
134.28856
134.28838
134.28818
134.28796
134.28772
134.28745
134.28716
134.28906
134.28944
134.28967
134.28988
134.29005
134.29016
134.29021
134.29022
134.2902
134.29016
134.29011
134.29007
134.29005
134.29003
134.29002
134.29001
134.29
134.28999
134.28997
134.28995
134.28993
134.2899
134.28987
134.28985
134.28981
134.28978
134.28974
134.28971
134.28966
134.28962
134.28957
134.28952
134.28946
134.28939
134.28932
134.28925
134.28916
134.28907
134.28897
134.28886
134.28874
134.28861
134.28846
134.28829
134.28811
134.28791
134.28769
134.28745
134.28719
134.2869
134.28877
134.28915
134.28938
134.28959
134.28977
134.28988
134.28994
134.28996
134.28993
134.28989
134.28985
134.28981
134.28978
134.28977
134.28975
134.28975
134.28974
134.28972
134.2897
134.28968
134.28966
134.28963
134.28961
134.28958
134.28955
134.28951
134.28948
134.28944
134.2894
134.28935
134.2893
134.28925
134.28919
134.28913
134.28906
134.28898
134.2889
134.2888
134.2887
134.28859
134.28847
134.28834
134.28819
134.28803
134.28785
134.28765
134.28743
134.28719
134.28692
134.28663
134.28847
134.28885
134.28909
134.28931
134.28949
134.28961
134.28967
134.28969
134.28967
134.28963
134.28958
134.28955
134.28952
134.2895
134.28949
134.28948
134.28947
134.28946
134.28944
134.28942
134.28939
134.28937
134.28934
134.28931
134.28928
134.28925
134.28921
134.28917
134.28913
134.28908
134.28903
134.28898
134.28892
134.28886
134.28879
134.28871
134.28863
134.28854
134.28844
134.28833
134.28821
134.28807
134.28792
134.28776
134.28758
134.28738
134.28716
134.28692
134.28666
134.28637
134.28817
134.28855
134.28879
134.28902
134.2892
134.28933
134.2894
134.28942
134.2894
134.28937
134.28932
134.28928
134.28925
134.28923
134.28922
134.28922
134.28921
134.28919
134.28917
134.28915
134.28913
134.2891
134.28908
134.28905
134.28901
134.28898
134.28894
134.2889
134.28886
134.28882
134.28877
134.28871
134.28866
134.28859
134.28852
134.28845
134.28836
134.28827
134.28817
134.28806
134.28794
134.28781
134.28766
134.28749
134.28731
134.28711
134.2869
134.28665
134.28639
134.2861
134.28787
134.28824
134.28849
134.28872
134.28892
134.28905
134.28913
134.28915
134.28914
134.2891
134.28906
134.28902
134.28899
134.28897
134.28896
134.28895
134.28894
134.28893
134.28891
134.28889
134.28886
134.28884
134.28881
134.28878
134.28875
134.28871
134.28868
134.28864
134.2886
134.28855
134.2885
134.28845
134.28839
134.28832
134.28825
134.28818
134.2881
134.288
134.2879
134.28779
134.28767