/*--------------------------------*- C++ -*----------------------------------*\
| =========                 |                                                 |
| \\      /  F ield         | OpenFOAM: The Open Source CFD Toolbox           |
|  \\    /   O peration     | Version:  4.0                                   |
|   \\  /    A nd           | Web:      www.OpenFOAM.org                      |
|    \\/     M anipulation  |                                                 |
\*---------------------------------------------------------------------------*/
FoamFile
{
    version     2.0;
    format      ascii;
    class       surfaceScalarField;
    location    "846";
    object      phi;
}
// * * * * * * * * * * * * * * * * * * * * * * * * * * * * * * * * * * * * * //

dimensions      [1 0 -1 0 0 0 0];

internalField   nonuniform List<scalar> 
9850
(
1.8801994e-11
1.380474e-10
7.5298982e-11
4.597677e-10
1.7082471e-10
8.7115403e-10
3.0417856e-10
1.3888425e-09
4.7057697e-10
2.0309042e-09
6.6071378e-10
2.8162831e-09
8.5997206e-10
3.7640361e-09
1.0479899e-09
4.8923334e-09
1.1988069e-09
6.2172866e-09
1.2818232e-09
7.7517577e-09
1.2637465e-09
9.504408e-09
1.1115438e-09
1.1479349e-08
7.962289e-10
1.3676831e-08
2.9703331e-10
1.609541e-08
-3.9469117e-10
1.8735889e-08
-1.2726226e-09
2.1607135e-08
-2.3146437e-09
2.4733541e-08
-3.4842288e-09
2.8163288e-08
-4.7340259e-09
3.197653e-08
-6.0110413e-09
3.6292514e-08
-7.2625586e-09
4.1274774e-08
-8.4417913e-09
4.7134107e-08
-9.5125824e-09
5.4129544e-08
-1.0452692e-08
6.256818e-08
-1.1255608e-08
7.2805193e-08
-1.1930754e-08
8.5245817e-08
-1.2502081e-08
1.0035116e-07
-1.3004946e-08
1.1864973e-07
-1.3481566e-08
1.4075575e-07
-1.3975804e-08
1.6739492e-07
-1.4528148e-08
1.9943665e-07
-1.5172416e-08
2.3793211e-07
-1.5934471e-08
2.8415671e-07
-1.683336e-08
3.3965757e-07
-1.7884205e-08
4.0630709e-07
-1.9102841e-08
4.863654e-07
-2.0511548e-08
5.8255459e-07
-2.2146134e-08
6.9814707e-07
-2.4065634e-08
8.3707058e-07
-2.6366718e-08
1.0040302e-06
-2.9195249e-08
1.2046423e-06
-3.279602e-08
1.445616e-06
-3.7508269e-08
1.7348293e-06
-4.3883655e-08
2.0816954e-06
-5.3078047e-08
2.4970776e-06
-6.5475737e-08
2.992512e-06
-8.7706468e-08
3.5863238e-06
-1.2002849e-07
4.2827834e-06
-2.1920137e-07
5.1947462e-06
5.382042e-06
-3.5850972e-11
1.7389924e-10
-1.5652857e-10
5.8044568e-10
-3.8697293e-10
1.101599e-09
-7.5785564e-10
1.7597261e-09
-1.3064263e-09
2.5794755e-09
-2.0773591e-09
3.5872169e-09
-3.123322e-09
4.8099997e-09
-4.5049448e-09
6.2739572e-09
-6.2897501e-09
8.0020928e-09
-8.5494886e-09
1.0011497e-08
-1.1355316e-08
1.2310235e-08
-1.4770396e-08
1.4894426e-08
-1.8839963e-08
1.7746394e-08
-2.3579606e-08
2.0835043e-08
-2.8963481e-08
2.4119751e-08
-3.4915032e-08
2.7558667e-08
-4.1302982e-08
3.1121472e-08
-4.7945135e-08
3.4805419e-08
-5.4620769e-08
3.8652144e-08
-6.1090307e-08
4.2762031e-08
-6.7118968e-08
4.7303419e-08
-7.2500205e-08
5.2515331e-08
-7.7074965e-08
5.8704299e-08
-8.0744202e-08
6.6237419e-08
-8.3473634e-08
7.5534642e-08
-8.5291118e-08
8.7063318e-08
-8.6277668e-08
1.0133774e-07
-8.6553828e-08
1.1892591e-07
-8.6263373e-08
1.4046533e-07
-8.5557169e-08
1.6668874e-07
-8.4580124e-08
1.9845964e-07
-8.3464219e-08
2.3681619e-07
-8.232877e-08
2.8302124e-07
-8.1287615e-08
3.3861639e-07
-8.0460463e-08
4.054799e-07
-7.9985563e-08
4.8589051e-07
-8.0032087e-08
5.8260102e-07
-8.0811479e-08
6.9892631e-07
-8.2589373e-08
8.3884828e-07
-8.5708887e-08
1.0071495e-06
-9.0609714e-08
1.2095428e-06
-9.7881373e-08
1.4528873e-06
-1.0843742e-07
1.7453848e-06
-1.2313521e-07
2.0963924e-06
-1.4489207e-07
2.5188336e-06
-1.7384099e-07
3.0214595e-06
-2.2045717e-07
3.6329391e-06
-3.0994655e-07
4.3722699e-06
-4.6624751e-07
5.3510467e-06
4.9157902e-06
-2.9778841e-11
2.0367897e-10
-1.3086048e-10
6.8152789e-10
-3.2545838e-10
1.2961972e-09
-6.4091736e-10
2.075186e-09
-1.110643e-09
3.0492023e-09
-1.7750251e-09
4.2515997e-09
-2.6823114e-09
5.7172871e-09
-3.8892983e-09
7.4809466e-09
-5.4616096e-09
9.5744051e-09
-7.4731952e-09
1.2023083e-08
-1.0004555e-08
1.4841596e-08
-1.3139009e-08
1.8028879e-08
-1.6956249e-08
2.1563633e-08
-2.1522639e-08
2.5401429e-08
-2.6878196e-08
2.9475304e-08
-3.3021408e-08
3.3701869e-08
-3.9894416e-08
3.7994462e-08
-4.7372455e-08
4.2283434e-08
-5.5261803e-08
4.6541455e-08
-6.3309274e-08
5.0809459e-08
-7.1223604e-08
5.5217707e-08
-7.870561e-08
5.9997299e-08
-8.5481549e-08
6.5480207e-08
-9.1333496e-08
7.2089342e-08
-9.6121747e-08
8.0322888e-08
-9.9796576e-08
9.0738151e-08
-1.0239862e-07
1.039398e-07
-1.0404899e-07
1.2057632e-07
-1.0493112e-07
1.4134751e-07
-1.0526722e-07
1.6702491e-07
-1.0529354e-07
1.98486e-07
-1.0523879e-07
2.3676146e-07
-1.0531052e-07
2.8309299e-07
-1.0569195e-07
3.3899784e-07
-1.0654918e-07
4.0633717e-07
-1.0804648e-07
4.873879e-07
-1.1036648e-07
5.8492108e-07
-1.1373406e-07
7.0229389e-07
-1.1844171e-07
8.4355593e-07
-1.2488318e-07
1.013591e-06
-1.3361656e-07
1.2182764e-06
-1.4532714e-07
1.464598e-06
-1.6127679e-07
1.7613347e-06
-1.8249699e-07
2.1176126e-06
-2.1191049e-07
2.5482475e-06
-2.5215412e-07
3.061703e-06
-3.1191036e-07
3.6926966e-06
-4.3405524e-07
4.4944144e-06
-5.2864474e-07
5.4456377e-06
4.3871452e-06
-2.0516806e-11
2.2419666e-10
-9.0906541e-11
7.5191819e-10
-2.2781954e-10
1.4331112e-09
-4.5235656e-10
2.2997246e-09
-7.9110442e-10
3.3879517e-09
-1.2773185e-09
4.7378147e-09
-1.9522237e-09
6.3921939e-09
-2.8663541e-09
8.3950797e-09
-4.0807638e-09
1.0788817e-08
-5.6678297e-09
1.3610152e-08
-7.7112307e-09
1.6884999e-08
-1.0304481e-08
2.062213e-08
-1.3547234e-08
2.4806386e-08
-1.753849e-08
2.9392682e-08
-2.2365987e-08
3.4302796e-08
-2.8091693e-08
3.9427564e-08
-3.4734443e-08
4.4637193e-08
-4.2252505e-08
4.980147e-08
-5.0530417e-08
5.4819327e-08
-5.9375029e-08
5.9654022e-08
-6.8524521e-08
6.4367135e-08
-7.767086e-08
6.9143578e-08
-8.6492442e-08
7.4301732e-08
-9.4690457e-08
8.0287305e-08
-1.0202203e-07
8.7654413e-08
-1.0832459e-07
9.7040688e-08
-1.1352873e-07
1.0914393e-07
-1.1765901e-07
1.2470663e-07
-1.2082425e-07
1.4451281e-07
-1.2319944e-07
1.6940017e-07
-1.2500271e-07
2.0028936e-07
-1.2647181e-07
2.3823062e-07
-1.2784496e-07
2.8446617e-07
-1.2935121e-07
3.405041e-07
-1.3121254e-07
4.0819853e-07
-1.3365708e-07
4.8983246e-07
-1.3693919e-07
5.8820312e-07
-1.413633e-07
7.0671791e-07
-1.4731134e-07
8.4950392e-07
-1.5525835e-07
1.021538e-06
-1.6586377e-07
1.2288817e-06
-1.7987624e-07
1.4786102e-06
-1.9852457e-07
1.7799831e-06
-2.2321751e-07
2.1423052e-06
-2.5555787e-07
2.5805881e-06
-3.009107e-07
3.1070553e-06
-3.6794975e-07
3.759736e-06
-4.8577435e-07
4.6122386e-06
-4.8230097e-07
5.4421643e-06
3.9048441e-06
-1.607116e-11
2.4026903e-10
-7.128754e-11
8.0713516e-10
-1.7886186e-10
1.5406867e-09
-3.5564553e-10
2.4765097e-09
-6.2301667e-10
3.6553248e-09
-1.0079579e-09
5.1227572e-09
-1.5443087e-09
6.9285465e-09
-2.2741813e-09
9.1249544e-09
-3.2494498e-09
1.1764088e-08
-4.5331542e-09
1.4893859e-08
-6.2005282e-09
1.8552376e-08
-8.3391659e-09
2.276077e-08
-1.1047634e-08
2.7514856e-08
-1.443163e-08
3.2776679e-08
-1.8596677e-08
3.8467842e-08
-2.3636578e-08
4.4467457e-08
-2.9617555e-08
5.0618157e-08
-3.6559417e-08
5.6743307e-08
-4.4416909e-08
6.2676782e-08
-5.3066156e-08
6.8303216e-08
-6.2301511e-08
7.3602425e-08
-7.1846562e-08
7.8688563e-08
-8.1379465e-08
8.383456e-08
-9.0568483e-08
8.9476245e-08
-9.911095e-08
9.6196812e-08
-1.0676834e-07
1.0469803e-07
-1.1339191e-07
1.1576745e-07
-1.1893599e-07
1.3025073e-07
-1.2345873e-07
1.4903559e-07
-1.271107e-07
1.7305218e-07
-1.3011396e-07
2.032927e-07
-1.3273518e-07
2.4085192e-07
-1.352577e-07
2.8698878e-07
-1.3795932e-07
3.432058e-07
-1.4110153e-07
4.1134081e-07
-1.4493338e-07
4.9366435e-07
-1.4970883e-07
5.9297859e-07
-1.5571229e-07
7.1272135e-07
-1.6329651e-07
8.5708813e-07
-1.7289955e-07
1.031141e-06
-1.8512501e-07
1.2411071e-06
-2.0074754e-07
1.4942325e-06
-2.2069516e-07
1.7999307e-06
-2.4668239e-07
2.168292e-06
-2.794707e-07
2.6133764e-06
-3.2559828e-07
3.1531823e-06
-3.9555466e-07
3.8296922e-06
-4.8990392e-07
4.7065873e-06
-4.2216426e-07
5.3744245e-06
3.4826788e-06
-1.4216779e-11
2.5448677e-10
-6.3032962e-11
8.5595205e-10
-1.5806442e-10
1.6357187e-09
-3.1408592e-10
2.6325318e-09
-5.4981114e-10
3.8910513e-09
-8.8883316e-10
5.4617804e-09
-1.3607328e-09
7.4004479e-09
-2.0023594e-09
9.7665837e-09
-2.8592421e-09
1.2620974e-08
-3.9870369e-09
1.6021657e-08
-5.4528267e-09
2.0018169e-08
-7.3359394e-09
2.4643886e-08
-9.7277652e-09
2.9906685e-08
-1.2729811e-08
3.5778727e-08
-1.6449058e-08
4.2187085e-08
-2.0989589e-08
4.9007985e-08
-2.6439912e-08
5.6068467e-08
-3.285613e-08
6.3159503e-08
-4.0242886e-08
7.0063505e-08
-4.853578e-08
7.659606e-08
-5.7590435e-08
8.2657016e-08
-6.71833e-08
8.828135e-08
-7.7026882e-08
9.3678063e-08
-8.679829e-08
9.9247568e-08
-9.617591e-08
1.0557434e-07
-1.0487711e-07
1.1339914e-07
-1.1269029e-07
1.2358058e-07
-1.1949686e-07
1.3705727e-07
-1.2528112e-07
1.5481985e-07
-1.3012832e-07
1.7789942e-07
-1.3421196e-07
2.0737642e-07
-1.3777265e-07
2.444127e-07
-1.4109194e-07
2.9030814e-07
-1.4446689e-07
3.4658086e-07
-1.4819195e-07
4.1506592e-07
-1.5255286e-07
4.9802532e-07
-1.5783589e-07
5.9826162e-07
-1.6434597e-07
7.1923141e-07
-1.7243856e-07
8.6518077e-07
-1.8254618e-07
1.0412485e-06
-1.9519614e-07
1.2537571e-06
-2.1115633e-07
1.5101925e-06
-2.3109837e-07
1.8198728e-06
-2.5659136e-07
2.1937848e-06
-2.8862883e-07
2.6454139e-06
-3.3341966e-07
3.197973e-06
-4.0115015e-07
3.8974227e-06
-4.6657799e-07
4.7720149e-06
-3.5604218e-07
5.263889e-06
3.1266365e-06
-1.253874e-11
2.6702666e-10
-5.562158e-11
8.9903629e-10
-1.3955202e-10
1.7196502e-09
-2.7746278e-10
2.770444e-09
-4.8602387e-10
4.0996136e-09
-7.862966e-10
5.7620549e-09
-1.2047581e-09
7.8189116e-09
-1.77449e-09
1.0336318e-08
-2.5365155e-09
1.3383001e-08
-3.5412179e-09
1.7026363e-08
-4.8497133e-09
2.1326667e-08
-6.534914e-09
2.632909e-08
-8.6819027e-09
3.2053674e-08
-1.1386974e-08
3.8483797e-08
-1.4754549e-08
4.5554656e-08
-1.8890993e-08
5.3144419e-08
-2.3894465e-08
6.1071922e-08
-2.9840516e-08
6.9105532e-08
-3.6764337e-08
7.6987291e-08
-4.4642222e-08
8.4473897e-08
-5.3376699e-08
9.1391433e-08
-6.27905e-08
9.769507e-08
-7.2633483e-08
1.0352095e-07
-8.2603653e-08
1.0921763e-07
-9.2379331e-08
1.1534991e-07
-1.0165642e-07
1.2267613e-07
-1.1018396e-07
1.3210803e-07
-1.1779216e-07
1.4466543e-07
-1.2440999e-07
1.6143765e-07
-1.3007078e-07
1.8356023e-07
-1.3490661e-07
2.1221232e-07
-1.3913229e-07
2.4863848e-07
-1.4302132e-07
2.9419729e-07
-1.4687819e-07
3.5043786e-07
-1.5101357e-07
4.1920139e-07
-1.557289e-07
5.027407e-07
-1.6131633e-07
6.0384911e-07
-1.6807261e-07
7.259877e-07
-1.7632238e-07
8.7343056e-07
-1.8646261e-07
1.0513887e-06
-1.9893933e-07
1.2662338e-06
-2.1442873e-07
1.5256817e-06
-2.3351885e-07
1.8389629e-06
-2.5738821e-07
2.2176539e-06
-2.8770006e-07
2.6757256e-06
-3.2990944e-07
3.2401821e-06
-3.9020702e-07
3.9577203e-06
-4.2723328e-07
4.8090407e-06
-2.9217257e-07
5.1288286e-06
2.8344636e-06
-1.1413383e-11
2.7844117e-10
-5.063239e-11
9.3825645e-10
-1.2703582e-10
1.796055e-09
-2.5257937e-10
2.8959889e-09
-4.4244199e-10
4.289478e-09
-7.1581544e-10
6.0354306e-09
-1.0968491e-09
8.1999479e-09
-1.615762e-09
1.0855233e-08
-2.3101056e-09
1.4077348e-08
-3.2261463e-09
1.7942406e-08
-4.4202426e-09
2.2520767e-08
-5.9600478e-09
2.7868899e-08
-7.9251864e-09
3.4018815e-08
-1.0406905e-08
4.0965514e-08
-1.3505985e-08
4.8653728e-08
-1.7328024e-08
5.6966446e-08
-2.1975227e-08
6.5719101e-08
-2.7534083e-08
7.4664358e-08
-3.4059329e-08
8.3512494e-08
-4.1555869e-08
9.1970388e-08
-4.9962275e-08
9.9797773e-08
-5.9140561e-08
1.0687328e-07
-6.8876989e-08
1.1325728e-07
-7.8896294e-08
1.1923684e-07
-8.8888385e-08
1.2534189e-07
-9.8542738e-08
1.3233038e-07
-1.0758419e-07
1.411494e-07
-1.1580399e-07
1.5288516e-07
-1.2308205e-07
1.6871566e-07
-1.2939864e-07
1.8987681e-07
-1.3483525e-07
2.17649e-07
-1.3956522e-07
2.5336853e-07
-1.4383495e-07
2.9846713e-07
-1.4793891e-07
3.5454194e-07
-1.5219293e-07
4.2345554e-07
-1.5691258e-07
5.0746041e-07
-1.6240305e-07
6.0933966e-07
-1.6896545e-07
7.3255012e-07
-1.7690876e-07
8.8137382e-07
-1.8659331e-07
1.0610732e-06
-1.9841226e-07
1.2780527e-06
-2.1289909e-07
1.5401684e-06
-2.3062428e-07
1.856688e-06
-2.5245975e-07
2.2394891e-06
-2.8050946e-07
2.7037753e-06
-3.1949607e-07
3.2791685e-06
-3.6977409e-07
4.0079984e-06
-3.8235391e-07
4.82162e-06
-2.3740036e-07
4.9838753e-06
2.5970629e-06
-1.0438579e-11
2.888812e-10
-4.6321637e-11
9.7414052e-10
-1.1625005e-10
1.8659846e-09
-2.3119869e-10
3.0109393e-09
-4.0511767e-10
4.4633994e-09
-6.556669e-10
6.2859825e-09
-1.0051015e-09
8.5493852e-09
-1.4813204e-09
1.1331455e-08
-2.119074e-09
1.4715105e-08
-2.9613006e-09
1.8784635e-08
-4.0605058e-09
2.3619974e-08
-5.4800346e-09
2.9288429e-08
-7.2949493e-09
3.583373e-08
-9.5920845e-09
4.3262647e-08
-1.246864e-08
5.153028e-08
-1.6028521e-08
6.0526318e-08
-2.0375518e-08
7.0066081e-08
-2.5602663e-08
7.9891475e-08
-3.1777716e-08
8.9687506e-08
-3.8925966e-08
9.9118581e-08
-4.7013146e-08
1.0788488e-07
-5.593273e-08
1.1579277e-07
-6.5502345e-08
1.2282679e-07
-7.5472592e-08
1.2920698e-07
-8.5548622e-08
1.354178e-07
-9.5421182e-08
1.4220282e-07
-1.0480138e-07
1.5052951e-07
-1.1345323e-07
1.6153692e-07
-1.2121899e-07
1.7648135e-07
-1.2803521e-07
1.96693e-07
-1.3393852e-07
2.2355233e-07
-1.3906132e-07
2.5849138e-07
-1.4361784e-07
3.0302375e-07
-1.4788236e-07
3.5880662e-07
-1.5216277e-07
4.2773609e-07
-1.5677544e-07
5.1207319e-07
-1.6202807e-07
6.145924e-07
-1.6821837e-07
7.3874043e-07
-1.7564045e-07
8.887959e-07
-1.8461483e-07
1.0700474e-06
-1.9549747e-07
1.2889353e-06
-2.0870312e-07
1.5533739e-06
-2.2477369e-07
1.8727585e-06
-2.4449459e-07
2.2592099e-06
-2.7005866e-07
2.7293394e-06
-3.0524804e-07
3.3143576e-06
-3.4479029e-07
4.0475408e-06
-3.3749116e-07
4.8143204e-06
-1.9162125e-07
4.8380059e-06
2.4054417e-06
-9.6730434e-12
2.9855595e-10
-4.2930199e-11
1.0073988e-09
-1.0774971e-10
1.9308051e-09
-2.1431532e-10
3.1175063e-09
-3.7557843e-10
4.6246645e-09
-6.0794655e-10
6.5183528e-09
-9.3211669e-10
8.8735573e-09
-1.3740658e-09
1.1773407e-08
-1.9662078e-09
1.530725e-08
-2.7486807e-09
1.9567113e-08
-3.7707202e-09
2.4642019e-08
-5.0919658e-09
3.060968e-08
-6.7834853e-09
3.752525e-08
-8.9281071e-09
4.5407268e-08
-1.1619544e-08
5.4221712e-08
-1.495951e-08
6.3866274e-08
-1.9052021e-08
7.4158571e-08
-2.3994091e-08
8.4833512e-08
-2.9862585e-08
9.5555953e-08
-3.6697975e-08
1.0595391e-07
-4.4487218e-08
1.1567405e-07
-5.3149584e-08
1.2445504e-07
-6.2529817e-08
1.3220693e-07
-7.2402728e-08
1.3907977e-07
-8.2490155e-08
1.4550512e-07
-9.2488553e-08
1.5220109e-07
-1.0210196e-07
1.601428e-07
-1.1107478e-07
1.7050964e-07
-1.1921906e-07
1.8462559e-07
-1.2643365e-07
2.0390756e-07
-1.3271371e-07
2.2983237e-07
-1.3815078e-07
2.639285e-07
-1.4292374e-07
3.0779683e-07
-1.4728089e-07
3.6316392e-07
-1.5151557e-07
4.3197092e-07
-1.5593973e-07
5.1649751e-07
-1.6086194e-07
6.1951472e-07
-1.6657737e-07
7.4445586e-07
-1.7337019e-07
8.9558865e-07
-1.8152746e-07
1.0782046e-06
-1.9136624e-07
1.2987741e-06
-2.0322534e-07
1.5652328e-06
-2.1758994e-07
1.887123e-06
-2.3528385e-07
2.2769036e-06
-2.583657e-07
2.7524212e-06
-2.893473e-07
3.3453389e-06
-3.1852601e-07
4.0767195e-06
-2.9596907e-07
4.7917631e-06
-1.5444562e-07
4.6964829e-06
2.2509964e-06
-9.0223191e-12
3.0758019e-10
-4.00483e-11
1.0384263e-09
-1.005295e-10
1.9912877e-09
-1.9998192e-10
3.2169607e-09
-3.5051558e-10
4.7752004e-09
-5.6748258e-10
6.735322e-09
-8.7026466e-10
9.1763423e-09
-1.2832184e-09
1.2186364e-08
-1.8367795e-09
1.5860815e-08
-2.5687112e-09
2.0299048e-08
-3.5254499e-09
2.5598762e-08
-4.7634388e-09
3.1847671e-08
-6.3502374e-09
3.9112049e-08
-8.3650849e-09
4.7422114e-08
-1.08984e-08
5.6755019e-08
-1.4049532e-08
6.7017393e-08
-1.7921949e-08
7.8030966e-08
-2.261506e-08
8.9526587e-08
-2.8212257e-08
1.011531e-07
-3.4765629e-08
1.1250722e-07
-4.2279089e-08
1.2318743e-07
-5.0693245e-08
1.328691e-07
-5.9876306e-08
1.4138988e-07
-6.9625115e-08
1.4882847e-07
-7.9678295e-08
1.5555817e-07
-8.9740347e-08
1.6226302e-07
-9.9512754e-08
1.6991508e-07
-1.0872627e-07
1.7972304e-07
-1.1716937e-07
1.930686e-07
-1.2470947e-07
2.114476e-07
-1.3130538e-07
2.3642828e-07
-1.3701093e-07
2.696341e-07
-1.4196956e-07
3.1275553e-07
-1.4640032e-07
3.6759481e-07
-1.5057642e-07
4.3614717e-07
-1.5479927e-07
5.2072051e-07
-1.5937385e-07
6.2408938e-07
-1.6459194e-07
7.4967401e-07
-1.7072994e-07
9.0172663e-07
-1.7805305e-07
1.0855277e-06
-1.8684189e-07
1.3075628e-06
-1.973975e-07
1.5757883e-06
-2.1015784e-07
1.8998833e-06
-2.2600439e-07
2.2927498e-06
-2.4675379e-07
2.7731705e-06
-2.7345044e-07
3.3720351e-06
-2.9329721e-07
4.0965663e-06
-2.5957843e-07
4.7580439e-06
-1.2509077e-07
4.5619954e-06
2.1259056e-06
-8.4748932e-12
3.1605704e-10
-3.7622242e-11
1.0675751e-09
-9.4447502e-11
2.0481145e-09
-1.8790066e-10
3.3104157e-09
-3.2937532e-10
4.9166774e-09
-5.3332358e-10
6.939273e-09
-8.1800504e-10
9.461027e-09
-1.2063867e-09
1.257475e-08
-1.7272025e-09
1.6381635e-08
-2.4161612e-09
2.0988011e-08
-3.3172667e-09
2.6499872e-08
-4.4841586e-09
3.3014566e-08
-5.9812842e-09
4.0609176e-08
-7.8846269e-09
4.9325453e-08
-1.0281511e-08
5.9151895e-08
-1.3268853e-08
7.0004723e-08
-1.6949099e-08
8.1711186e-08
-2.1422978e-08
9.4000424e-08
-2.6778614e-08
1.0650868e-07
-3.3077156e-08
1.188057e-07
-4.0336319e-08
1.3044651e-07
-4.8514702e-08
1.4104738e-07
-5.7500979e-08
1.5037605e-07
-6.71121e-08
1.5843947e-07
-7.7103018e-08
1.6554897e-07
-8.718774e-08
1.723476e-07
-9.7068186e-08
1.797954e-07
-1.0646583e-07
1.8912057e-07
-1.1515068e-07
2.0175333e-07
-1.2296398e-07
2.1926081e-07
-1.2983292e-07
2.432972e-07
-1.3577696e-07
2.7557818e-07
-1.4090575e-07
3.178844e-07
-1.4540861e-07
3.7209778e-07
-1.4953609e-07
4.4027483e-07
-1.5357573e-07
5.2476029e-07
-1.5782606e-07
6.2833985e-07
-1.6257571e-07
7.544237e-07
-1.680945e-07
9.0724544e-07
-1.7463429e-07
1.0920675e-06
-1.8244636e-07
1.3153749e-06
-1.9181388e-07
1.5851556e-06
-2.0315383e-07
1.9112232e-06
-2.1737093e-07
2.3069667e-06
-2.3597611e-07
2.7917755e-06
-2.5852726e-07
3.3945857e-06
-2.7027962e-07
4.1083187e-06
-2.2865058e-07
4.7164144e-06
-1.022742e-07
4.435619e-06
2.0236313e-06
-8.0022216e-12
3.2406151e-10
-3.5528107e-11
1.0951026e-09
-8.9197568e-11
2.1017859e-09
-1.7747153e-10
3.3986919e-09
-3.1112454e-10
5.0503335e-09
-5.0383102e-10
7.1319831e-09
-7.7287825e-10
9.7300783e-09
-1.1400279e-09
1.2941904e-08
-1.6325351e-09
1.6874145e-08
-2.2843139e-09
2.1639795e-08
-3.1372374e-09
2.7352799e-08
-4.2424665e-09
3.4119796e-08
-5.6616746e-09
4.2028382e-08
-7.4678908e-09
5.1131664e-08
-9.7455567e-09
6.1429548e-08
-1.2589186e-08
7.284833e-08
-1.6099897e-08
8.5221866e-08
-2.0379017e-08
9.8279498e-08
-2.5518118e-08
1.1164772e-07
-3.1585516e-08
1.2487301e-07
-3.8610295e-08
1.3747119e-07
-4.6566383e-08
1.4900336e-07
-5.5360469e-08
1.5917002e-07
-6.4827831e-08
1.6790671e-07
-7.4739175e-08
1.7546019e-07
-8.4818761e-08
1.8242706e-07
-9.4771194e-08
1.897477e-07
-1.0431202e-07
1.9866125e-07
-1.1319688e-07
2.1063808e-07
-1.2124542e-07
2.2730927e-07
-1.2835765e-07
2.5040938e-07
-1.3452235e-07
2.817429e-07
-1.3981766e-07
3.2317981e-07
-1.4440373e-07
3.7668399e-07
-1.4850734e-07
4.443786e-07
-1.523997e-07
5.2865281e-07
-1.5637078e-07
6.3231106e-07
-1.6070568e-07
7.5875862e-07
-1.6566983e-07
9.1220966e-07
-1.715079e-07
1.0979055e-06
-1.7845349e-07
1.3223204e-06
-1.8678174e-07
1.5934837e-06
-1.9691166e-07
1.921353e-06
-2.0972449e-07
2.3197793e-06
-2.2637927e-07
2.8084303e-06
-2.4505821e-07
3.4132644e-06
-2.499505e-07
4.113211e-06
-2.0290482e-07
4.6693683e-06
-8.478473e-08
4.3174989e-06
1.9388465e-06
-7.5906585e-12
3.3165509e-10
-3.3705434e-11
1.1212193e-09
-8.4628283e-11
2.1527108e-09
-1.6839275e-10
3.4824591e-09
-2.9523373e-10
5.1771777e-09
-4.7814537e-10
7.3148979e-09
-7.3356352e-10
9.9854998e-09
-1.0821919e-09
1.3290536e-08
-1.5499834e-09
1.7341941e-08
-2.1692749e-09
2.2259089e-08
-2.9800485e-09
2.8163574e-08
-4.0312599e-09
3.5171007e-08
-5.3820877e-09
4.3379206e-08
-7.1028764e-09
5.2852443e-08
-9.2753796e-09
6.3602034e-08
-1.1991767e-08
7.5564692e-08
-1.535168e-08
8.8581739e-08
-1.945652e-08
1.0238428e-07
-2.4400346e-08
1.1659148e-07
-3.0257192e-08
1.3072977e-07
-3.7065638e-08
1.4427953e-07
-4.4812812e-08
1.5675042e-07
-5.3421316e-08
1.677784e-07
-6.2743215e-08
1.7722849e-07
-7.2564272e-08
1.8528111e-07
-8.2619415e-08
1.9248208e-07
-9.2617488e-08
1.9974564e-07
-1.022707e-07
2.0831433e-07
-1.1132377e-07
2.1969105e-07
-1.195786e-07
2.3556401e-07
-1.2691189e-07
2.5774262e-07
-1.3328538e-07
2.881164e-07
-1.3874856e-07
3.2864304e-07
-1.4343383e-07
3.8136936e-07
-1.4754403e-07
4.4848899e-07
-1.5133288e-07
5.3244188e-07
-1.5508015e-07
6.3605846e-07
-1.5906664e-07
7.6274519e-07
-1.6355541e-07
9.166985e-07
-1.6878775e-07
1.1031379e-06
-1.7499082e-07
1.3285234e-06
-1.8243819e-07
1.6009308e-06
-1.9156263e-07
1.9304774e-06
-2.0318206e-07
2.3313985e-06
-2.180711e-07
2.8233193e-06
-2.3321907e-07
3.4284122e-06
-2.3237229e-07
4.1123643e-06
-1.8174816e-07
4.6187439e-06
-7.1501015e-08
4.2072515e-06
1.8673452e-06
-7.2288042e-12
3.3888688e-10
-3.2101024e-11
1.1460936e-09
-8.0604778e-11
2.2012169e-09
-1.6039746e-10
3.5622544e-09
-2.8123681e-10
5.2980201e-09
-4.5551599e-10
7.4891804e-09
-6.9891845e-10
1.0228906e-08
-1.0312113e-09
1.3622834e-08
-1.4771949e-09
1.7787929e-08
-2.0677983e-09
2.2849697e-08
-2.8413197e-09
2.8937099e-08
-3.8447345e-09
3.6174424e-08
-5.1349712e-09
4.4669441e-08
-6.77992e-09
5.4497384e-08
-8.8588402e-09
6.5680935e-08
-1.1461647e-08
7.8167467e-08
-1.4686404e-08
9.1806448e-08
-1.8634238e-08
1.0633205e-07
-2.3400985e-08
1.2135814e-07
-2.9065272e-08
1.3639395e-07
-3.5673651e-08
1.5088779e-07
-4.3224674e-08
1.6430132e-07
-5.165515e-08
1.7620874e-07
-6.08325e-08
1.8640571e-07
-7.0556786e-08
1.9500528e-07
-8.0573835e-08
2.02499e-07
-9.059783e-08
2.0976951e-07
-1.0033969e-07
2.1805608e-07
-1.0953599e-07
2.2888724e-07
-1.1797408e-07
2.44002e-07
-1.2551087e-07
2.6527933e-07
-1.3208437e-07
2.9468989e-07
-1.3771821e-07
3.3427692e-07
-1.4251896e-07
3.861702e-07
-1.4666628e-07
4.526365e-07
-1.5039579e-07
5.3617163e-07
-1.5397587e-07
6.3963872e-07
-1.5768235e-07
7.6645186e-07
-1.6177739e-07
9.2079364e-07
-1.6650197e-07
1.1078624e-06
-1.7208505e-07
1.3341064e-06
-1.7880367e-07
1.6076493e-06
-1.8710469e-07
1.9387783e-06
-1.9771248e-07
2.342006e-06
-2.1099635e-07
2.836603e-06
-2.229591e-07
3.4403746e-06
-2.1732908e-07
4.1067343e-06
-1.6444258e-07
4.565857e-06
-6.1453282e-08
4.1042618e-06
1.8058917e-06
-6.9070483e-12
3.4579732e-10
-3.0675535e-11
1.1698643e-09
-7.7029865e-11
2.2475737e-09
-1.5329226e-10
3.63852e-09
-2.6879652e-10
5.4135278e-09
-4.3539944e-10
7.6557879e-09
-6.6811384e-10
1.0461625e-08
-9.858722e-10
1.3940598e-08
-1.4124422e-09
1.8214504e-08
-1.9774942e-09
2.3414755e-08
-2.7178108e-09
2.9677419e-08
-3.6785848e-09
3.7135198e-08
-4.9146972e-09
4.5905548e-08
-6.4917886e-09
5.6074463e-08
-8.4867978e-09
6.767592e-08
-1.0987483e-08
8.0668111e-08
-1.4090293e-08
9.49092e-08
-1.7895825e-08
1.1013751e-07
-2.2501141e-08
1.2596335e-07
-2.7988575e-08
1.4188126e-07
-3.4411438e-08
1.5731051e-07
-4.1778253e-08
1.7166799e-07
-5.0038501e-08
1.8446885e-07
-5.9073711e-08
1.9544079e-07
-6.8697539e-08
2.04629e-07
-7.8666625e-08
2.1246798e-07
-8.8701379e-08
2.1980415e-07
-9.8513007e-08
2.2786758e-07
-1.0783213e-07
2.3820623e-07
-1.1643426e-07
2.5260402e-07
-1.2415948e-07
2.7300447e-07
-1.3092517e-07
3.0145553e-07
-1.3673175e-07
3.4008355e-07
-1.4166212e-07
3.9110066e-07
-1.4587379e-07
4.5684833e-07
-1.4958433e-07
5.3988235e-07
-1.5304986e-07
6.4310448e-07
-1.5654072e-07
7.699429e-07
-1.6031864e-07
9.2457171e-07
-1.646269e-07
1.1121707e-06
-1.6970173e-07
1.3391811e-06
-1.7582724e-07
1.6137746e-06
-1.834566e-07
1.9464075e-06
-1.9319969e-07
2.3517488e-06
-2.050129e-07
2.8484161e-06
-2.1411185e-07
3.4494734e-06
-2.0449268e-07
4.0971151e-06
-1.5027652e-07
4.5116406e-06
-5.3855264e-08
4.0078401e-06
1.7520364e-06
-6.6190405e-12
3.5241992e-10
-2.939875e-11
1.1926462e-09
-7.3827419e-11
2.292005e-09
-1.4692671e-10
3.7116227e-09
-2.5764942e-10
5.5242546e-09
-4.1737272e-10
7.8155159e-09
-6.4050612e-10
1.0684764e-08
-9.4523178e-10
1.4245329e-08
-1.3543867e-09
1.8623665e-08
-1.8965054e-09
2.3956879e-08
-2.6069997e-09
3.0387918e-08
-3.5294407e-09
3.805764e-08
-4.7168448e-09
4.7092947e-08
-6.2327842e-09
5.7590387e-08
-8.1520288e-09
6.9595139e-08
-1.0560283e-08
8.3076324e-08
-1.3552381e-08
9.7901235e-08
-1.7228216e-08
1.1381325e-07
-2.1685657e-08
1.3042067e-07
-2.701003e-08
1.4720549e-07
-3.3260399e-08
1.6356073e-07
-4.0454025e-08
1.7886145e-07
-4.8551783e-08
1.9256645e-07
-5.7448164e-08
2.0433703e-07
-6.6969667e-08
2.1415038e-07
-7.6883654e-08
2.2238185e-07
-8.691724e-08
2.2983761e-07
-9.6783187e-08
2.3773339e-07
-1.0620794e-07
2.4763086e-07
-1.1495747e-07
2.6135343e-07
-1.2285757e-07
2.809045e-07
-1.298076e-07
3.0840551e-07
-1.3578744e-07
3.460634e-07
-1.4085825e-07
3.9617155e-07
-1.4515673e-07
4.6114699e-07
-1.4888271e-07
5.4360858e-07
-1.5227987e-07
6.465019e-07
-1.5561223e-07
7.7327543e-07
-1.5914142e-07
9.2810102e-07
-1.6311472e-07
1.116144e-06
-1.6777843e-07
1.3438448e-06
-1.734257e-07
1.6194217e-06
-1.8050458e-07
1.9534862e-06
-1.8949569e-07
2.3607397e-06
-1.9994778e-07
2.858868e-06
-2.0646722e-07
3.4559926e-06
-1.9350759e-07
4.0841553e-06
-1.3861508e-07
4.4567478e-06
-4.8077562e-08
3.917302e-06
1.7039586e-06
-6.3584828e-12
3.5878286e-10
-2.8245447e-11
1.2145361e-09
-7.0935697e-11
2.3346988e-09
-1.4117986e-10
3.7818712e-09
-2.4758716e-10
5.6306665e-09
-4.0110098e-10
7.9690342e-09
-6.1558418e-10
1.0899253e-08
-9.0853912e-10
1.4538289e-08
-1.3019622e-09
1.9017092e-08
-1.8233544e-09
2.4478276e-08
-2.5068839e-09
3.1071449e-08
-3.3946396e-09
3.8945393e-08
-4.5379263e-09
4.8236224e-08
-5.9984048e-09
5.9050846e-08
-7.8488307e-09
7.1445531e-08
-1.0172954e-08
8.5400394e-08
-1.3064001e-08
1.007922e-07
-1.6621029e-08
1.1737017e-07
-2.0942395e-08
1.347419e-07
-2.6115852e-08
1.5237879e-07
-3.2205378e-08
1.6965008e-07
-3.923593e-08
1.8589183e-07
-4.7178639e-08
2.0050899e-07
-5.5939961e-08
2.1309819e-07
-6.5358496e-08
2.2356878e-07
-7.5212078e-08
2.3223532e-07
-8.5234931e-08
2.3986036e-07
-9.514226e-08
2.4764063e-07
-1.0465786e-07
2.5714637e-07
-1.1354001e-07
2.7023548e-07
-1.2160236e-07
2.8896678e-07
-1.2872856e-07
3.1553166e-07
-1.3488014e-07
3.52215e-07
-1.4009863e-07
4.0139009e-07
-1.4450133e-07
4.655498e-07
-1.482709e-07
5.4737834e-07
-1.5163832e-07
6.4986955e-07
-1.5486077e-07
7.764981e-07
-1.581997e-07
9.3144014e-07
-1.6190769e-07
1.119852e-06
-1.662419e-07
1.3481789e-06
-1.7150436e-07
1.624684e-06
-1.7812544e-07
1.960107e-06
-1.8644597e-07
2.3690599e-06
-1.9562358e-07
2.8680455e-06
-1.9980743e-07
3.4601762e-06
-1.8403405e-07
4.0683818e-06
-1.2892117e-07
4.4016346e-06
-4.3635786e-08
3.8320159e-06
1.6603226e-06
-6.1222205e-12
3.6491003e-10
-2.7198844e-11
1.235616e-09
-6.8311401e-11
2.375815e-09
-1.3596399e-10
3.8495279e-09
-2.3845209e-10
5.7331595e-09
-3.8632354e-10
8.1169118e-09
-5.9294739e-10
1.1105883e-08
-8.7520614e-10
1.4820553e-08
-1.2543274e-09
1.9396219e-08
-1.7568731e-09
2.4980826e-08
-2.4158676e-09
3.1730445e-08
-3.2720456e-09
3.9801569e-08
-4.3751338e-09
4.9339302e-08
-5.7850247e-09
6.0460717e-08
-7.5725877e-09
7.3233056e-08
-9.8197117e-09
8.7647459e-08
-1.2618053e-08
1.0359046e-07
-1.6065746e-08
1.2081774e-07
-2.0261377e-08
1.3893738e-07
-2.529466e-08
1.5741189e-07
-3.1233797e-08
1.7558902e-07
-3.8110555e-08
1.927684e-07
-4.590533e-08
2.0830358e-07
-5.453557e-08
2.2172826e-07
-6.3851324e-08
2.328844e-07
-7.3640626e-08
2.4202451e-07
-8.3644977e-08
2.4986464e-07
-9.3582786e-08
2.5757838e-07
-1.0317636e-07
2.6673986e-07
-1.1217779e-07
2.7923681e-07
-1.2039042e-07
2.9717934e-07
-1.2768411e-07
3.2282532e-07
-1.3400417e-07
3.5853505e-07
-1.3937417e-07
4.0676015e-07
-1.4389347e-07
4.7006921e-07
-1.477284e-07
5.5121342e-07
-1.510972e-07
6.532386e-07
-1.5424993e-07
7.7965107e-07
-1.5744749e-07
9.3463785e-07
-1.6094792e-07
1.1233525e-06
-1.6501907e-07
1.35225e-06
-1.6996988e-07
1.6296347e-06
-1.7620115e-07
1.9663381e-06
-1.8390651e-07
2.3767651e-06
-1.9187768e-07
2.8760165e-06
-1.9393383e-07
3.462232e-06
-1.7577605e-07
4.0502239e-06
-1.2076238e-07
4.3466205e-06
-4.0165802e-08
3.7514188e-06
1.6201568e-06
-5.9063992e-12
3.7082197e-10
-2.6243265e-11
1.2559564e-09
-6.5915078e-11
2.4154905e-09
-1.3120001e-10
3.9148176e-09
-2.3010828e-10
5.8320734e-09
-3.7282667e-10
8.2596371e-09
-5.722703e-10
1.1305335e-08
-8.4475446e-10
1.5093044e-08
-1.2108042e-09
1.9762276e-08
-1.6961171e-09
2.5466145e-08
-2.3326696e-09
3.2367002e-08
-3.1599482e-09
4.0628845e-08
-4.226221e-09
5.0405565e-08
-5.5897375e-09
6.1824209e-08
-7.3195971e-09
7.4962871e-08
-9.4959258e-09
8.9823719e-08
-1.2208836e-08
1.0630327e-07
-1.5555484e-08
1.2416425e-07
-1.9634491e-08
1.4301622e-07
-2.4537152e-08
1.6231434e-07
-3.0335302e-08
1.8138695e-07
-3.7066752e-08
1.9949963e-07
-4.4720272e-08
2.159569e-07
-5.3223489e-08
2.3023129e-07
-6.2437241e-08
2.42098e-07
-7.2159437e-08
2.5174659e-07
-8.2138969e-08
2.5984409e-07
-9.209797e-08
2.6753731e-07
-1.0175813e-07
2.7639997e-07
-1.1086669e-07
2.8834529e-07
-1.1921817e-07
3.0553076e-07
-1.2667041e-07
3.3027753e-07
-1.331541e-07
3.6501872e-07
-1.3867665e-07
4.1228275e-07
-1.4332072e-07
4.7471341e-07
-1.4723717e-07
5.5513004e-07
-1.5063181e-07
6.5663348e-07
-1.5374728e-07
7.827667e-07
-1.5684321e-07
9.3773397e-07
-1.6018321e-07
1.1266925e-06
-1.6404432e-07
1.3561111e-06
-1.6873896e-07
1.6343292e-06
-1.7462797e-07
1.972227e-06
-1.8175338e-07
2.3838903e-06
-1.8857148e-07
2.8828345e-06
-1.8867725e-07
3.4623375e-06
-1.6848794e-07
4.0300343e-06
-1.137978e-07
4.29193e-06
-3.7397155e-08
3.6750175e-06
1.5827597e-06
-5.7078206e-12
3.765364e-10
-2.5364685e-11
1.2756181e-09
-6.3713118e-11
2.453844e-09
-1.2682394e-10
3.977935e-09
-2.224461e-10
5.9277024e-09
-3.6043487e-10
8.3976331e-09
-5.5328773e-10
1.1498195e-08
-8.1679837e-10
1.5356562e-08
-1.1708447e-09
2.0116329e-08
-1.6403287e-09
2.5935635e-08
-2.2562604e-09
3.2982936e-08
-3.0569668e-09
4.1429549e-08
-4.0893666e-09
5.1437951e-08
-5.4101739e-09
6.3144989e-08
-7.0868273e-09
7.6639476e-08
-9.1977774e-09
9.1934592e-08
-1.1831642e-08
1.0893702e-07
-1.5084561e-08
1.2741701e-07
-1.9055029e-08
1.4698649e-07
-2.383559e-08
1.6709467e-07
-2.9501225e-08
1.8705234e-07
-3.6095126e-08
2.0609328e-07
-4.3613686e-08
2.2347524e-07
-5.1993919e-08