/*--------------------------------*- C++ -*----------------------------------*\
| =========                 |                                                 |
| \\      /  F ield         | OpenFOAM: The Open Source CFD Toolbox           |
|  \\    /   O peration     | Version:  4.0                                   |
|   \\  /    A nd           | Web:      www.OpenFOAM.org                      |
|    \\/     M anipulation  |                                                 |
\*---------------------------------------------------------------------------*/
FoamFile
{
    version     2.0;
    format      ascii;
    class       volScalarField;
    location    "846";
    object      Qin;
}
// * * * * * * * * * * * * * * * * * * * * * * * * * * * * * * * * * * * * * //

dimensions      [1 0 -3 0 0 0 0];

internalField   uniform 0;

boundaryField
{
    LeftWedge
    {
        type            wedge;
    }
    RightWedge
    {
        type            wedge;
    }
    Inlet
    {
        type            calculated;
        value           nonuniform List<scalar> 
50
(
532.96746
533.18066
533.4129
533.66794
533.94815
534.25603
534.59429
534.96585
535.37388
535.82183
536.31345
536.85276
537.44408
538.09206
538.80162
539.57798
540.42659
541.35311
542.36331
543.46301
544.6579
545.95341
547.35447
548.86529
550.48898
552.22727
554.08011
556.04524
558.11791
560.29052
562.55253
564.89055
567.28869
569.72929
572.19399
574.6651
577.12703
579.56754
581.97842
584.35526
586.69614
588.9996
591.26234
593.47825
595.63723
597.73448
599.74368
601.74972
603.38791
606.29396
)
;
    }
    Outlet
    {
        type            calculated;
        value           nonuniform List<scalar> 
50
(
661.41226
661.37774
661.29312
661.19793
661.09463
660.98175
660.85753
660.72077
660.57061
660.40597
660.22568
660.0286
659.81357
659.57947
659.32525
659.04987
658.7523
658.43148
658.08638
657.71614
657.32017
656.89833
656.45098
655.97907
655.48416
654.96862
654.43564
653.88936
653.33488
652.77814
652.22581
651.68504
651.16303
650.66656
650.20144
649.77187
649.38011
649.02621
648.70833
648.42338
648.16803
647.93977
647.73763
647.56204
647.41396
647.29284
647.19696
647.11525
647.05832
646.93772
)
;
    }
    Outterwall
    {
        type            calculated;
        value           nonuniform List<scalar> 
100
(
603.05568
606.9458
607.01508
613.38947
633.16706
666.27233
701.43044
726.96277
739.8399
745.27851
750.25388
758.58648
770.25711
783.14298
794.90654
804.09194
810.39815
814.38673
816.95677
818.89576
820.67254
822.45656
824.2447
825.98261
827.63031
829.17693
830.63063
832.00533
833.3131
834.56236
835.75876
836.90658
838.00946
839.07077
840.09358
841.08066
842.03449
842.9573
843.85107
844.71759
845.55849
846.37525
847.16924
847.94169
848.69374
849.42646
850.1408
850.83766
851.51789
852.18225
852.83146
853.4662
854.0871
854.69474
855.28967
855.8724
856.44344
857.00323
857.5522
858.09076
858.61929
859.13816
859.64771
860.14827
860.64015
861.12364
861.59901
862.06648
862.52624
862.97856
863.42394
863.86331
864.29771
864.72708
865.14773
865.55027
865.9225
866.26383
866.6132
867.07557
867.80726
868.90794
870.20297
870.99933
870.01355
865.687
856.94135
844.14316
829.78389
818.14764
813.09294
813.85844
811.68285
793.05109
751.75653
699.61282
659.62426
644.26124
644.85679
647.07892
)
;
    }
    fluid_to_cencil
    {
        type            calculated;
        value           nonuniform List<scalar> 
100
(
421.91694
421.91627
421.91592
421.91549
421.91503
421.91448
421.91385
421.91314
421.91241
421.91169
421.91097
421.91023
421.90947
421.90868
421.90785
421.90701
421.90616
421.90531
421.90446
421.90362
421.90277
421.90192
421.90107
421.90022
421.89938
421.89853
421.89769
421.89686
421.89602
421.89518
421.89433
421.89348
421.89262
421.89176
421.89089
421.89003
421.88916
421.88829
421.88742
421.88656
421.8857
421.88484
421.88399
421.88314
421.88229
421.88145
421.88061
421.87977
421.87893
421.87809
421.87725
421.87641
421.87557
421.87474
421.8739
421.87306
421.87222
421.87138
421.87053
421.86969
421.86885
421.868
421.86716
421.86631
421.86547
421.86462
421.86378
421.86294
421.8621
421.86126
421.86042
421.85959
421.85876
421.85794
421.85713
421.85632
421.85551
421.85472
421.85392
421.85313
421.85234
421.85157
421.8508
421.85006
421.84932
421.84861
421.84792
421.84725
421.84665
421.84618
421.84603
421.8464
421.8464
421.83846
421.78655
421.55137
420.74319
419.37265
426.19143
500.97709
)
;
    }
}


// ************************************************************************* //
