/*--------------------------------*- C++ -*----------------------------------*\
| =========                 |                                                 |
| \\      /  F ield         | OpenFOAM: The Open Source CFD Toolbox           |
|  \\    /   O peration     | Version:  4.0                                   |
|   \\  /    A nd           | Web:      www.OpenFOAM.org                      |
|    \\/     M anipulation  |                                                 |
\*---------------------------------------------------------------------------*/
FoamFile
{
    version     2.0;
    format      ascii;
    class       volScalarField;
    location    "846";
    object      Qr;
}
// * * * * * * * * * * * * * * * * * * * * * * * * * * * * * * * * * * * * * //

dimensions      [1 0 -3 0 0 0 0];

internalField   uniform 0;

boundaryField
{
    LeftWedge
    {
        type            wedge;
    }
    RightWedge
    {
        type            wedge;
    }
    Inlet
    {
        type            calculated;
        value           nonuniform List<scalar> 
50
(
111.04744
111.26064
111.49288
111.74792
112.02813
112.33601
112.67428
113.04583
113.45386
113.90182
114.39344
114.93275
115.52407
116.17205
116.88161
117.65797
118.50658
119.4331
120.44331
121.543
122.73789
124.0334
125.43446
126.94527
128.56896
130.30726
132.16009
134.12523
136.19789
138.3705
140.63252
142.97054
145.36868
147.80927
150.27397
152.74508
155.20701
157.64752
160.05841
162.43525
164.77613
167.07959
169.34232
171.55824
173.71722
175.81446
177.82366
179.82971
181.4679
184.37394
)
;
    }
    Outlet
    {
        type            calculated;
        value           nonuniform List<scalar> 
50
(
-249.45591
-236.47482
-222.82266
-208.48022
-193.4753
-177.84919
-161.65169
-144.93825
-127.7676
-110.19922
-92.290302
-74.09364
-55.6571
-37.025323
-18.243837
0.63477373
19.543811
38.396234
57.080873
75.461982
93.382132
110.66765
127.13583
142.60359
156.89775
169.86671
181.39297
191.40462
199.88376
206.86982
212.45643
216.7822
220.01658
222.34323
223.9445
224.98873
225.62184
225.96323
226.10579
226.11858
226.05127
225.939
225.80673
225.67221
225.54767
225.43967
225.35084
225.27269
225.21726
225.09699
)
;
    }
    Outterwall
    {
        type            calculated;
        value           nonuniform List<scalar> 
100
(
181.13609
185.02705
185.09717
191.47239
211.25082
244.35693
279.51588
305.04905
317.92703
323.36648
328.34268
336.67613
348.3476
361.23431
372.99871
382.18495
388.492
392.48142
395.0523
396.99214
398.76975
400.55461
402.3436
404.08235
405.73089
407.27834
408.73289
410.10843
411.41704
412.66714
413.86438
415.01304
416.11676
417.17891
418.20256
419.19048
420.14516
421.0688
421.96341
422.83077
423.67251
424.49011
425.28494
426.05823
426.81112
427.54468
428.25985
428.95756
429.63862
430.30382
430.95387
431.58945
432.21118
432.81965
433.41542
433.99899
434.57085
435.13147
435.68127
436.22066
436.75002
437.26972
437.78009
438.28147
438.77417
439.25848
439.73467
440.20295
440.66352
441.11664
441.56283
442.00299
442.43819
442.86835
443.28978
443.69311
444.06611
444.40821
444.75835
445.22148
445.95392
447.05535
448.35111
449.14821
448.16315
443.83732
435.09238
422.29488
407.93629
396.30073
391.24669
392.01284
389.83789
371.20677
329.91283
277.76971
237.78175
222.4193
223.01541
225.23819
)
;
    }
    fluid_to_cencil
    {
        type            calculated;
        value           nonuniform List<scalar> 
100
(
-221.89226
-300.77188
-325.26104
-338.38201
-347.8294
-355.27367
-361.42816
-366.64776
-371.17231
-375.1572
-378.71372
-381.9218
-384.84138
-387.51827
-389.98827
-392.2799
-394.41622
-396.41616
-398.29542
-400.0672
-401.74266
-403.33134
-404.84145
-406.2801
-407.6535
-408.96707
-410.22563
-411.43341
-412.59421
-413.7114
-414.78801
-415.82678
-416.83018
-417.80043
-418.73958
-419.64948
-420.53182
-421.38815
-422.21991
-423.02841
-423.81487
-424.58039
-425.32604
-426.05276
-426.76147
-427.453
-428.12812
-428.78758
-429.43204
-430.06216
-430.67852
-431.2817
-431.87223
-432.4506
-433.01728
-433.57273
-434.11735
-434.65155
-435.1757
-435.69017
-436.19528
-436.69135
-437.17871
-437.65762
-438.12837
-438.59123
-439.04644
-439.49423
-439.93485
-440.3685
-440.7954
-441.21575
-441.62972
-442.03751
-442.4393
-442.83524
-443.2255
-443.61024
-443.98961
-444.36374
-444.73278
-445.09685
-445.45607
-445.81058
-446.16048
-446.5059
-446.84693
-447.18368
-447.51624
-447.84464
-448.16885
-448.48889
-448.80546
-449.1248
-449.47101
-449.95596
-450.79743
-452.21781
-446.07355
-399.68556
)
;
    }
}


// ************************************************************************* //
