/*--------------------------------*- C++ -*----------------------------------*\
| =========                 |                                                 |
| \\      /  F ield         | OpenFOAM: The Open Source CFD Toolbox           |
|  \\    /   O peration     | Version:  4.0                                   |
|   \\  /    A nd           | Web:      www.OpenFOAM.org                      |
|    \\/     M anipulation  |                                                 |
\*---------------------------------------------------------------------------*/
FoamFile
{
    version     2.0;
    format      ascii;
    class       volScalarField;
    location    "846";
    object      rho;
}
// * * * * * * * * * * * * * * * * * * * * * * * * * * * * * * * * * * * * * //

dimensions      [1 -3 0 0 0 0 0];

internalField   nonuniform List<scalar> 
5000
(
1.0804965
1.0869971
1.0939715
1.1013877
1.1091934
1.1173138
1.1256508
1.134084
1.1424743
1.1506701
1.1585161
1.165864
1.1725843
1.1785766
1.183778
1.1881665
1.1917609
1.1946146
1.1968075
1.1984354
1.1996002
1.2004007
1.2009269
1.2012557
1.2014495
1.201556
1.2016097
1.2016339
1.2016432
1.2016459
1.2016463
1.201646
1.2016457
1.2016456
1.2016455
1.2016455
1.2016455
1.2016455
1.2016455
1.2016455
1.2016455
1.2016455
1.2016455
1.2016455
1.2016455
1.2016455
1.2016455
1.2016455
1.2016455
1.2016455
1.0484008
1.0535928
1.0592116
1.0652863
1.0718428
1.0789005
1.0864682
1.0945381
1.1030793
1.1120313
1.1212981
1.1307452
1.1402012
1.1494644
1.1583178
1.1665485
1.1739707
1.1804473
1.1859048
1.1903381
1.1938048
1.1964107
1.1982906
1.1995894
1.2004462
1.2009836
1.2013025
1.2014801
1.201572
1.2016156
1.2016343
1.2016413
1.2016435
1.201644
1.2016441
1.201644
1.201644
1.201644
1.201644
1.201644
1.201644
1.201644
1.201644
1.201644
1.201644
1.201644
1.201644
1.201644
1.201644
1.201644
1.0393405
1.0441615
1.0493694
1.0549871
1.061036
1.0675358
1.0745018
1.0819426
1.0898563
1.0982252
1.1070101
1.1161432
1.125522
1.1350058
1.1444171
1.153549
1.1621823
1.1701073
1.1771498
1.1831931
1.1881908
1.192168
1.1952101
1.1974438
1.1990159
1.2000741
1.2007532
1.2011668
1.2014044
1.2015321
1.2015957
1.2016247
1.2016365
1.2016408
1.2016421
1.2016425
1.2016425
1.2016425
1.2016425
1.2016425
1.2016425
1.2016425
1.2016425
1.2016425
1.2016425
1.2016425
1.2016425
1.2016425
1.2016425
1.2016425
1.0346406
1.0392713
1.044271
1.0496606
1.0554599
1.0616868
1.0683557
1.075476
1.0830495
1.0910667
1.0995034
1.108315
1.1174312
1.1267508
1.1361384
1.1454254
1.1544162
1.1629031
1.1706867
1.1776002
1.1835313
1.1884354
1.1923376
1.1953219
1.197513
1.1990555
1.2000944
1.2007618
1.201169
1.2014036
1.2015302
1.2015936
1.2016227
1.2016347
1.2016391
1.2016406
1.2016409
1.201641
1.201641
1.201641
1.201641
1.201641
1.201641
1.201641
1.201641
1.201641
1.201641
1.201641
1.201641
1.201641
1.0313202
1.035817
1.0406708
1.0459017
1.0515289
1.0575699
1.0640396
1.0709481
1.0782994
1.0860882
1.0942965
1.1028899
1.1118125
1.1209828
1.1302892
1.1395889
1.1487104
1.1574616
1.1656451
1.1730784
1.1796166
1.1851709
1.1897191
1.1933036
1.1960194
1.1979954
1.1993742
1.2002948
1.2008813
1.2012361
1.2014385
1.2015467
1.2016003
1.2016245
1.2016344
1.201638
1.2016391
1.2016394
1.2016395
1.2016395
1.2016395
1.2016395
1.2016395
1.2016395
1.2016395
1.2016395
1.2016395
1.2016395
1.2016395
1.2016395
1.02874
1.0331332
1.0378741
1.0429824
1.0484771
1.0543757
1.0606931
1.0674408
1.0746244
1.0822415
1.0902788
1.0987085
1.107484
1.1165354
1.1257661
1.1350501
1.1442326
1.1531358
1.1615693
1.1693474
1.1763096
1.1823405
1.1873845
1.1914504
1.194605
1.1969585
1.1986449
1.1998037
1.2005657
1.2010433
1.2013273
1.2014864
1.2015696
1.2016099
1.2016276
1.2016346
1.201637
1.2016378
1.201638
1.201638
1.201638
1.201638
1.201638
1.201638
1.201638
1.201638
1.201638
1.201638
1.201638
1.201638
1.0266304
1.0309391
1.0355879
1.0405964
1.045983
1.0517654
1.0579588
1.0645752
1.0716218
1.0790985
1.0869955
1.09529
1.1039423
1.1128914
1.1220515
1.1313089
1.1405218
1.1495235
1.158131
1.1661594
1.1734398
1.1798401
1.1852807
1.189744
1.1932723
1.1959571
1.1979217
1.1993026
1.2002332
1.2008329
1.2012009
1.2014147
1.2015314
1.2015907
1.2016184
1.2016301
1.2016345
1.201636
1.2016364
1.2016365
1.2016365
1.2016365
1.2016365
1.2016365
1.2016365
1.2016365
1.2016365
1.2016365
1.2016365
1.2016365
1.0248577
1.0290954
1.0336671
1.0385917
1.0438878
1.0495727
1.0556619
1.062168
1.0690992
1.076457
1.0842347
1.0924131
1.1009578
1.1098151
1.1189077
1.1281318
1.137356
1.1464233
1.1551577
1.1633763
1.1709063
1.1776035
1.183371
1.1881697
1.192021
1.194999
1.1972157
1.1988024
1.1998931
1.2006116
1.2010636
1.2013339
1.2014866
1.2015672
1.2016067
1.2016243
1.2016314
1.201634
1.2016348
1.201635
1.201635
1.201635
1.201635
1.201635
1.201635
1.201635
1.201635
1.201635
1.201635
1.201635
1.0233329
1.0275097
1.0320152
1.0368679
1.0420862
1.0476873
1.0536869
1.060098
1.0669293
1.0741842
1.0818577
1.089934
1.098383
1.1071565
1.1161843
1.125371
1.134594
1.1437048
1.152534
1.1609019
1.1686333
1.1755761
1.1816194
1.186707
1.1908419
1.1940826
1.1965293
1.1983074
1.1995498
1.2003832
1.2009184
1.201246
1.2014361
1.2015398
1.2015926
1.2016173
1.2016277
1.2016317
1.201633
1.2016334
1.2016335
1.2016335
1.2016335
1.2016335
1.2016335
1.2016335
1.2016335
1.2016335
1.2016335
1.2016335
1.021999
1.0261226
1.0305702
1.0353601
1.0405104
1.0460384
1.0519596
1.0582874
1.0650312
1.0721954
1.0797767
1.0877619
1.0961244
1.1048208
1.1137868
1.1229339
1.1321473
1.141286
1.1501869
1.1586739
1.1665709
1.1737204
1.1800004
1.1853403
1.1897274
1.1932053
1.1958633
1.19782
1.1992065
1.2001506
1.2007673
1.2011523
1.2013808
1.201509
1.2015762
1.2016089
1.2016234
1.2016292
1.2016312
1.2016318
1.201632
1.201632
1.201632
1.201632
1.201632
1.201632
1.201632
1.201632
1.201632
1.201632
1.0208155
1.024892
1.0292883
1.0340226
1.0391127
1.0445757
1.0504274
1.0566812
1.0633471
1.0704303
1.0779291
1.0858321
1.094116
1.1027411
1.1116482
1.1207548
1.1299529
1.1391083
1.1480639
1.1566471
1.1646825
1.1720083
1.1784941
1.1840569
1.1886702
1.1923642
1.1952173
1.1973415
1.1988647
1.1999157
1.2006121
1.2010541
1.2013215
1.2014749
1.2015577
1.2015992
1.2016183
1.2016263
1.2016292
1.2016302
1.2016305
1.2016305
1.2016305
1.2016305
1.2016305
1.2016305
1.2016305
1.2016305
1.2016305
1.2016305
1.0197536
1.0237878
1.0281382
1.0328226
1.0378587
1.0432636
1.0490529
1.0552402
1.0618361
1.0688463
1.0762703
1.0840987
1.0923104
1.1008693
1.1097203
1.1187864
1.1279654
1.1371293
1.1461266
1.1547886
1.1629408
1.1704187
1.1770851
1.1828466
1.1876644
1.1915564
1.1945908
1.1968723
1.1985257
1.1996796
1.2004538
1.2009522
1.2012589
1.2014382
1.2015371
1.2015881
1.2016124
1.201623
1.2016271
1.2016285
1.2016289
1.201629
1.201629
1.201629
1.201629
1.201629
1.201629
1.201629
1.201629
1.201629
1.0187917
1.0227878
1.0270965
1.0317358
1.0367231
1.0420753
1.0478081
1.0539353
1.0604675
1.0674114
1.0747672
1.0825272
1.0906723
1.0991694
1.1079672
1.1169932
1.1261506
1.135317
1.1443461
1.1530729
1.1613247
1.168935
1.1757612
1.1817012
1.1867051
1.1907795
1.1939828
1.1964128
1.1981903
1.1994433
1.2002935
1.2008476
1.2011934
1.201399
1.2015148
1.2015759
1.2016059
1.2016193
1.2016248
1.2016267
1.2016273
1.2016275
1.2016275
1.2016275
1.2016275
1.2016275
1.2016275
1.2016275
1.2016275
1.2016275
1.0179136
1.0218748
1.0261457
1.0307438
1.0356865
1.0409907
1.046672
1.0527441
1.0592182
1.0661013
1.0733945
1.0810914
1.0891748
1.097614
1.1063612
1.1153479
1.1244821
1.1336465
1.1426995
1.1514802
1.1598175
1.167544
1.1745127
1.1806139
1.1857879
1.1900312
1.1933926
1.1959629
1.197859
1.1992077
1.2001318
1.2007407
1.2011255
1.2013577
1.2014908
1.2015625
1.2015986
1.2016153
1.2016223
1.2016249
1.2016257
1.201626
1.201626
1.201626
1.201626
1.201626
1.201626
1.201626
1.201626
1.201626
1.0171066
1.0210358
1.0252718
1.0298321
1.034734
1.0399941
1.0456279
1.0516495
1.0580701
1.0648971
1.0721325
1.0797709
1.0877968
1.0961817
1.1048807
1.1138291
1.122939
1.1320979
1.1411687
1.1499943
1.1584057
1.1662348
1.1733313
1.1795789
1.1849094
1.1893095
1.1928193
1.1955226
1.1975321
1.1989731
1.1999693
1.2006321
1.2010557
1.2013147
1.2014653
1.2015481
1.2015906
1.2016108
1.2016195
1.2016229
1.2016241
1.2016244
1.2016245
1.2016245
1.2016245
1.2016245
1.2016245
1.2016245
1.2016245
1.2016245
1.0163605
1.0202601
1.024464
1.0289895
1.0338535
1.0390729
1.044663
1.0506378
1.0570089
1.063784
1.0709657
1.0785495
1.0865216
1.0948553
1.1035085
1.1124196
1.1215047
1.1306554
1.1397392
1.1486024
1.1570781
1.1649985
1.1722102
1.1785915
1.1840664
1.1886126
1.192262
1.1950917
1.1972099
1.1987402
1.1998065
1.2005223
1.2009843
1.20127
1.2014385
1.2015326
1.201582
1.2016059
1.2016166
1.2016209
1.2016224
1.2016229
1.201623
1.201623
1.201623
1.201623
1.201623
1.201623
1.201623
1.201623
1.0156673
1.0195395
1.0237135
1.0282066
1.0330356
1.0382171
1.0437665
1.049698
1.056023
1.0627497
1.0698813
1.0774142
1.0853357
1.0936212
1.1022306
1.1111054
1.1201654
1.1293061
1.1383988
1.1472935
1.1558256
1.1638275
1.1711436
1.1776475
1.183256
1.187939
1.1917201
1.19467
1.1968925
1.1985091
1.1996438
1.2004116
1.2009116
1.2012241
1.2014106
1.2015163
1.2015727
1.2016007
1.2016135
1.2016188
1.2016207
1.2016213
1.2016215
1.2016215
1.2016215
1.2016215
1.2016215
1.2016215
1.2016215
1.2016215
1.0150204
1.0188669
1.0230132
1.027476
1.0322724
1.0374185
1.0429301
1.048821
1.0551029
1.0617844
1.0688691
1.0763542
1.0842282
1.0924678
1.1010354
1.1098752
1.1189099
1.128039
1.1371376
1.1460587
1.1546403
1.1627153
1.1701265
1.1767431
1.1824758
1.187287
1.1911928
1.1942573
1.19658
1.1982801
1.1994814
1.2003003
1.2008379
1.2011769
1.2013816
1.2014991
1.2015628
1.201595
1.2016101
1.2016165
1.2016189
1.2016197
1.20162
1.20162
1.20162
1.20162
1.20162
1.20162
1.20162
1.20162
1.0144142
1.0182368
1.022357
1.0267916
1.0315573
1.0366705
1.0421465
1.0479994
1.054241
1.0608801
1.0679207
1.0753608
1.0831897
1.0913859
1.0999136
1.1087193
1.117729
1.1268453
1.1359469
1.1448903
1.1535156
1.1616564
1.1691544
1.1758751
1.1817237
1.1866554
1.1906793
1.1938533
1.1962723
1.1980534
1.1993197
1.2001886
1.2007633
1.2011289
1.2013517
1.2014812
1.2015524
1.201589
1.2016065
1.2016141
1.2016171
1.2016181
1.2016184
1.2016185
1.2016185
1.2016185
1.2016185
1.2016185
1.2016185
1.2016185
1.0138443
1.0176444
1.0217401
1.0261481
1.030885
1.0359671
1.0414098
1.047227
1.0534307
1.0600298
1.0670289
1.0744264
1.0822127
1.0903676
1.098857
1.1076297
1.1166145
1.1257172
1.1348198
1.1437818
1.1524456
1.160646
1.1682236
1.1750408
1.1809976
1.1860429
1.190179
1.1934576
1.1959695
1.197829
1.1991586
1.2000767
1.2006881
1.20108
1.201321
1.2014626
1.2015414
1.2015827
1.2016027
1.2016117
1.2016152
1.2016165
1.2016169
1.201617
1.201617
1.201617
1.201617
1.201617
1.201617
1.201617
1.0133067
1.0170855
1.0211582
1.0255412
1.030251
1.0353038
1.040715
1.0464985
1.0526664
1.0592278
1.0661876
1.0735448
1.0812907
1.0894062
1.0978588
1.1065996
1.1155599
1.1246483
1.13375
1.1427275
1.1514256
1.15968
1.1673308
1.1742376
1.1802958
1.1854484
1.1896911
1.1930701
1.1956715
1.197607
1.1989985
1.1999648
1.2006124
1.2010304
1.2012897
1.2014434
1.20153
1.201576
1.2015987
1.2016091
1.2016133
1.2016149
1.2016154
1.2016155
1.2016155
1.2016155
1.2016155
1.2016155
1.2016155
1.2016155
1.0127981
1.0165569
1.0206078
1.0249671
1.0296513
1.0346765
1.0400579
1.0458096
1.0519436
1.0584692
1.0653917
1.0727107
1.0804181
1.088496
1.0969133
1.1056232
1.1145592
1.1236328
1.1327321
1.1417225
1.1504511
1.1587547
1.166473
1.1734633
1.1796167
1.1848708
1.1892152
1.1926904
1.1953781
1.1973875
1.1988394
1.199853
1.2005363
1.2009803
1.2012577
1.2014236
1.2015182
1.201569
1.2015945
1.2016063
1.2016113
1.2016132
1.2016138
1.201614
1.201614
1.201614
1.201614
1.201614
1.201614
1.201614
1.0123158
1.0160556
1.0200858
1.0244227
1.0290826
1.0340815
1.0394347
1.0451562
1.0512581
1.0577499
1.0646369
1.0719195
1.0795902
1.087632
1.0960155
1.1046954
1.1136075
1.122666
1.1317617
1.1407627
1.1495183
1.1578669
1.1656475
1.1727158
1.1789589
1.1843091
1.1887505
1.1923181
1.1950893
1.1971705
1.1986813
1.1997414
1.2004599
1.2009296
1.2012251
1.2014034
1.2015059
1.2015617
1.2015901
1.2016035
1.2016093
1.2016115
1.2016123
1.2016125
1.2016125
1.2016125
1.2016125
1.2016125
1.2016125
1.2016125
1.0118573
1.015579
1.0195895
1.0239051
1.028542
1.033516
1.0388424
1.0445352
1.0506065
1.057066
1.0639194
1.0711672
1.0788028
1.0868102
1.0951611
1.1038119
1.1127005
1.1217436
1.1308345
1.1398442
1.1486241
1.1570136
1.1648521
1.1719933
1.178321
1.1837626
1.1882967
1.1919531
1.194805
1.1969559
1.1985244
1.1996301
1.2003833
1.2008785
1.2011921
1.2013827
1.2014933
1.2015541
1.2015855
1.2016006
1.2016072
1.2016098
1.2016107
1.201611
1.201611
1.201611
1.201611
1.201611
1.201611
1.201611
1.0114205
1.015125
1.0191168
1.0234121
1.028027
1.0329773
1.0382782
1.0439436
1.0499859
1.0564146
1.0632358
1.0704504
1.0780524
1.0860267
1.0943461
1.1029687
1.1118343
1.1208618
1.1299472
1.1389638
1.1477653
1.1561924
1.1640847
1.1712942
1.1777017
1.1832302
1.1878531
1.191595
1.194525
1.1967437
1.1983686
1.1995191
1.2003066
1.2008271
1.2011587
1.2013616
1.2014803
1.2015462
1.2015807
1.2015975
1.201605
1.201608
1.2016091
1.2016094
1.2016095
1.2016095
1.2016095
1.2016095
1.2016095
1.2016095
1.0110035
1.0146916
1.0186656
1.0229415
1.0275355
1.0324631
1.0377397
1.043379
1.0493934
1.0557927
1.0625832
1.069766
1.0773359
1.0852784
1.0935675
1.1021627
1.1110057
1.1200175
1.1290965
1.1381186
1.1469393
1.155401
1.1633433
1.170617
1.1771002
1.1827114
1.1874192
1.1912435
1.1942492
1.196534
1.1982139
1.1994085
1.2002299
1.2007754
1.2011248
1.2013401
1.201467
1.2015381
1.2015758
1.2015943
1.2016028
1.2016062
1.2016075
1.2016079
1.201608
1.201608
1.2016081
1.2016081
1.2016081
1.2016081
1.0106046
1.0142771
1.018234
1.0224914
1.0270654
1.0319714
1.0372247
1.042839
1.0488269
1.0551981
1.0619591
1.0691115
1.0766504
1.0845623
1.0928221
1.1013907
1.1102115
1.1192076
1.1282797
1.1373059
1.1461439
1.1546374
1.1626263
1.1699605
1.1765152
1.1822054
1.1869948
1.1908985
1.1939775
1.1963267
1.1980605
1.1992984
1.2001531
1.2007234
1.2010907
1.2013182
1.2014534
1.2015298
1.2015707
1.2015911
1.2016005
1.2016044
1.2016059
1.2016064
1.2016065
1.2016065
1.2016066
1.2016066
1.2016066
1.2016066
1.0102226
1.01388
1.0178206
1.0220603
1.0266151
1.0315004
1.0367314
1.0423218
1.0482842
1.0546285
1.0613612
1.0684844
1.0759936
1.083876
1.0921075
1.1006503
1.1094493
1.1184297
1.1274943
1.1365234
1.1453768
1.1538996
1.1619321
1.1693233
1.175946
1.1817115
1.1865792
1.1905596
1.1937097
1.1961217
1.1979083
1.1991887
1.2000763
1.2006713
1.2010562
1.2012961
1.2014395
1.2015213
1.2015654
1.2015877
1.2015981
1.2016026
1.2016043
1.2016048
1.201605
1.201605
1.2016051
1.2016051
1.2016051
1.2016051
1.009856
1.013499
1.0174239
1.0216467
1.0261831
1.0310485
1.0362581
1.0418257
1.0477636
1.054082
1.0607876
1.0678827
1.0753633
1.0832172
1.0914213
1.0999389
1.1087167
1.1176814
1.1267381
1.1357691
1.1446363
1.1531861
1.1612594
1.1687043
1.1753916
1.1812292
1.1861722
1.1902267
1.1934458
1.1959189
1.1977573
1.1990795
1.1999997
1.2006189
1.2010215
1.2012737
1.2014254
1.2015125
1.20156
1.2015842
1.2015957
1.2016007
1.2016026
1.2016033
1.2016035
1.2016035
1.2016036
1.2016036
1.2016036
1.2016036
1.0095037
1.0131329
1.0170428
1.0212493
1.025768
1.0306144
1.0358034
1.0413489
1.0472634
1.0535569
1.0602364
1.0673045
1.0747575
1.0825839
1.0907615
1.0992547
1.1080115
1.1169607
1.126009
1.1350411
1.1439205
1.1524953
1.1606068
1.1681026
1.1748514
1.1807579
1.1857733
1.1898995
1.1931857
1.1957185
1.1976074
1.1989708
1.1999231
1.2005665
1.2009865
1.201251
1.201411
1.2015036
1.2015544
1.2015806
1.2015932
1.2015988
1.201601
1.2016017
1.201602
1.201602
1.2016021
1.2016021
1.2016021
1.2016021
1.0091648
1.0127806
1.0166761
1.0208669
1.0253686
1.0301966
1.0353659
1.0408903
1.0467821
1.0530517
1.0597061
1.0667481
1.0741745
1.0819743
1.0901262
1.0985956
1.107332
1.1162656
1.1253053
1.1343376
1.143228
1.1518259
1.1599732
1.1675171
1.1743245
1.1802971
1.1853823
1.1895778
1.1929292
1.1955202
1.1974588
1.1988627
1.1998466
1.2005139
1.2009514
1.2012281
1.2013964
1.2014944
1.2015487
1.201577
1.2015907
1.2015968
1.2015993
1.2016002
1.2016005
1.2016005
1.2016006
1.2016006
1.2016006
1.2016006
1.0088382
1.0124413
1.0163228
1.0204985
1.0249838
1.0297942
1.0349445
1.0404484
1.0463185
1.052565
1.0591952
1.066212
1.0736127
1.0813868
1.0895137
1.09796
1.1066763
1.1155945
1.1246253
1.1336572
1.1425573
1.1511766
1.1593576
1.1669471
1.1738104
1.1798464
1.1849988
1.1892614
1.1926763
1.1953242
1.1973114
1.198755
1.1997703
1.2004613
1.200916
1.201205
1.2013816
1.2014851
1.2015428
1.2015732
1.2015881
1.2015949
1.2015976
1.2015986
1.2015989
1.201599
1.2015991
1.2015991
1.2015991
1.2015991
1.0085232
1.0121139
1.015982
1.0201431
1.0246127
1.0294061
1.034538
1.0400223
1.0458714
1.0520956
1.0587024
1.0656949
1.0730708
1.08082
1.0889226
1.0973463
1.1060429
1.1149459
1.1239676
1.1329983
1.1419071
1.1505462
1.158759
1.1663917
1.1733084
1.1794053
1.1846225
1.1889501
1.1924267
1.1951302
1.1971652
1.198648
1.1996941
1.2004086
1.2008805
1.2011816
1.2013666
1.2014756
1.2015369
1.2015693
1.2015855
1.2015928
1.2015959
1.2015971
1.2015974
1.2015975
1.2015976
1.2015976
1.2015976
1.2015976
1.008219
1.0117978
1.015653
1.0198
1.0242544
1.0290313
1.0341455
1.0396108
1.0454397
1.0516424
1.0582266
1.0651956
1.0725474
1.0802724
1.0883515
1.0967532
1.1054306
1.1143184
1.1233308
1.1323599
1.1412763
1.1499338
1.1581764
1.1658503
1.172818
1.1789733
1.1842531
1.1886439
1.1921805
1.1949383
1.1970201
1.1985415
1.1996181
1.2003558
1.2008449
1.2011581
1.2013515
1.201466
1.2015308
1.2015654
1.2015828
1.2015908
1.2015942
1.2015955
1.2015959
1.201596
1.2015961
1.2015961
1.2015961
1.2015961
1.007925
1.0114922
1.0153349
1.0194683
1.023908
1.0286691
1.0337662
1.0392131
1.0450224
1.0512043
1.0577666
1.0647129
1.0720413
1.079743
1.0877992
1.0961794
1.1048379
1.1137107
1.1227137
1.1317406
1.1406638
1.1493383
1.1576091
1.165322
1.1723385
1.1785501
1.1838904
1.1883424
1.1919375
1.1947485
1.1968762
1.1984356
1.1995424
1.2003031
1.2008091
1.2011344
1.2013361
1.2014562
1.2015246
1.2015614
1.20158
1.2015887
1.2015925
1.2015939
1.2015944
1.2015945
1.2015946
1.2015946
1.2015946
1.2015946
1.0076405
1.0111965
1.0150271
1.0191474
1.0235729
1.0283186
1.0333991
1.0388283
1.0446186
1.0507805
1.0573216
1.0642458
1.0715517
1.0792305
1.0872645
1.0956238
1.1042637
1.1131217
1.1221152
1.1311394
1.1400685
1.1487589
1.1570562
1.1648064
1.1718697
1.1781353
1.1835341
1.1880455
1.1916977
1.1945607
1.1967335
1.1983302
1.1994668
1.2002503
1.2007732
1.2011106
1.2013206
1.2014463
1.2015182
1.2015573
1.2015772
1.2015866
1.2015907
1.2015923
1.2015928
1.201593
1.2015931
1.2015931
1.2015931
1.2015931
1.0073649
1.0109102
1.014729
1.0188366
1.0232483
1.0279791
1.0330437
1.0384557
1.0442276
1.05037
1.0568906
1.0637934
1.0710773
1.0787341
1.0867464
1.0950853
1.103707
1.1125504
1.1215341
1.1305553
1.1394896
1.1481948
1.1565171
1.1643028
1.1714109
1.1777286
1.183184
1.1877531
1.191461
1.1943748
1.1965918
1.1982255
1.1993915
1.2001976
1.2007372
1.2010866
1.201305
1.2014363
1.2015118
1.2015531
1.2015743
1.2015845
1.2015889
1.2015907
1.2015913
1.2015915
1.2015916
1.2015916
1.2015916
1.2015916
1.0070977
1.0106326
1.01444
1.0185353
1.0229336
1.0276501
1.0326991
1.0380945
1.0438486
1.0499721
1.0564728
1.0633549
1.0706175
1.0782528
1.086244
1.0945629
1.1031667
1.1119956
1.1209697
1.1299874
1.1389263
1.1476451
1.1559912
1.1638106
1.1709617
1.1773297
1.1828399
1.1874651
1.1912272
1.1941908
1.1964513
1.1981213
1.1993163
1.2001448
1.2007011
1.2010625
1.2012892
1.2014261
1.2015053
1.2015488
1.2015714
1.2015823
1.2015871
1.2015891
1.2015898
1.20159
1.20159
1.2015901
1.2015901
1.2015901
1.0068385
1.0103632
1.0141596
1.018243
1.0226284
1.0273309
1.0323649
1.0377441
1.0434809
1.0495861
1.0560675
1.0629294
1.0701713
1.0777857
1.0857563
1.0940557
1.1026421
1.1114566
1.1204209
1.129435
1.1383776
1.1471092
1.1554777
1.1633294
1.1705218
1.1769383
1.1825015
1.1871813
1.1909963
1.1940087
1.196312
1.1980177
1.1992415
1.2000922
1.200665
1.2010383
1.2012733
1.2014158
1.2014987
1.2015445
1.2015684
1.2015801
1.2015853
1.2015875
1.2015882
1.2015885
1.2015885
1.2015886
1.2015886
1.2015886
1.0065868
1.0101017
1.0138874
1.0179592
1.022332
1.0270209
1.0320403
1.0374038
1.043124
1.0492113
1.0556739
1.0625164
1.0697381
1.0773321
1.0852827
1.0935629
1.1021321
1.1109325
1.119887
1.1288971
1.137843
1.1465864
1.1549762
1.1628587
1.1700907
1.1765541
1.1821687
1.1869015
1.1907683
1.1938284
1.1961737
1.1979147
1.1991668
1.2000395
1.2006288
1.201014
1.2012573
1.2014054
1.2014919
1.2015401
1.2015654
1.2015778
1.2015835
1.2015858
1.2015867
1.201587
1.201587
1.2015871
1.2015871
1.2015871
1.0063423
1.0098475
1.0136229
1.0176834
1.0220441
1.0267198
1.031725
1.0370733
1.0427771
1.0488472
1.0552916
1.0621149
1.0693171
1.0768912
1.0848222
1.0930839
1.1016362
1.1104226
1.1193673
1.1283731
1.1373217
1.1460761
1.1544861
1.162398
1.1696682
1.1761767
1.1818412
1.1866257
1.190543
1.1936499
1.1960365
1.1978122
1.1990925
1.1999869
1.2005925
1.2009895
1.2012412
1.2013949
1.2014851
1.2015356
1.2015623
1.2015756
1.2015816
1.2015842
1.2015851
1.2015854
1.2015855
1.2015856
1.2015856
1.2015856
1.0061044
1.0096004
1.0133657
1.0174152
1.0217641
1.026427
1.0314184
1.0367519
1.0424399
1.0484931
1.0549198
1.0617246
1.0689077
1.0764625
1.0843744
1.0926178
1.1011535
1.1099262
1.1188609
1.1278623
1.1368132
1.1455778
1.1540068
1.161947
1.1692538
1.1758061
1.181519
1.1863538
1.1903204
1.1934732
1.1959003
1.1977104
1.1990183
1.1999344
1.2005562
1.200965
1.2012249
1.2013843
1.2014782
1.201531
1.2015592
1.2015733
1.2015798
1.2015825
1.2015836
1.2015839
1.201584
1.2015841
1.2015841
1.2015841
1.005873
1.00936
1.0131154
1.0171543
1.0214916
1.0261421
1.0311201
1.0364392
1.0421118
1.0481487
1.0545581
1.0613449
1.0685093
1.0760452
1.0839385
1.092164
1.1006835
1.1094425
1.1183674
1.127364
1.1363168
1.1450909
1.1535381
1.1615052
1.1688474
1.1754418
1.1812017
1.1860855
1.1901004
1.1932982
1.1957652
1.1976091
1.1989445
1.199882
1.2005199
1.2009404
1.2012086
1.2013736
1.2014712
1.2015264
1.201556
1.2015709
1.2015779
1.2015809
1.201582
1.2015824
1.2015825
1.2015826
1.2015826
1.2015826
1.0056477
1.0091258
1.0128717
1.0169002
1.0212263
1.0258647
1.0308296
1.0361347
1.0417923
1.0478133
1.0542058
1.0609751
1.0681213
1.0756389
1.0835139
1.0917219
1.1002255
1.108971
1.1178861
1.1268778
1.135832
1.144615
1.1530793
1.1610723
1.1684485
1.1750838
1.1808893
1.1858209
1.1898829
1.1931248
1.1956312
1.1975084
1.1988709
1.1998296
1.2004835
1.2009157
1.2011921
1.2013628
1.2014642
1.2015217
1.2015528
1.2015686
1.201576
1.2015792
1.2015804
1.2015809
1.201581
1.2015811
1.2015811
1.2015811
1.0054281
1.0088977
1.0126343
1.0166527
1.0209679
1.0255944
1.0305467
1.0358381
1.0414811
1.0474865
1.0538627
1.0606148
1.0677434
1.075243
1.0831001
1.091291
1.0997789
1.1085111
1.1174164
1.1264031
1.1353582
1.1441494
1.1526301
1.1606479
1.1680569
1.1747318
1.1805816
1.1855598
1.189668
1.1929532
1.1954981
1.1974082
1.1987976
1.1997773
1.2004471
1.200891
1.2011756
1.2013519
1.201457
1.201517
1.2015495
1.2015661
1.201574
1.2015775
1.2015789
1.2015794
1.2015795
1.2015796
1.2015796
1.2015796
1.0052141
1.0086753
1.0124028
1.0164114
1.0207159
1.025331
1.0302708
1.0355489
1.0411777
1.047168
1.0535282
1.0602636
1.0673749
1.0748569
1.0826966
1.0908708
1.0993432
1.1080623
1.1169579
1.1259393
1.1348951
1.1436939
1.1521902
1.1602317
1.1676723
1.1743856
1.1802785
1.1853021
1.1894554
1.1927831
1.1953661
1.1973086
1.1987245
1.1997251
1.2004107
1.2008661
1.201159
1.2013409
1.2014498
1.2015122
1.2015462
1.2015637
1.2015721
1.2015758
1.2015773
1.2015778
1.201578
1.2015781
1.2015781
1.2015781
1.0050053
1.0084584
1.012177
1.016176
1.0204702
1.025074
1.0300018
1.0352669
1.0408818
1.0468574
1.053202
1.059921
1.0670155
1.0744804
1.082303
1.0904607
1.098918
1.1076241
1.1165099
1.125486
1.1344421
1.1432481
1.151759
1.1598234
1.1672945
1.1740449
1.1799798
1.1850477
1.1892453
1.1926146
1.195235
1.1972096
1.1986518
1.199673
1.2003743
1.2008412
1.2011423
1.2013299
1.2014425
1.2015073
1.2015429
1.2015612
1.2015701
1.2015741
1.2015757
1.2015763
1.2015765
1.2015766
1.2015766
1.2015766
1.0048015
1.0082466
1.0119567
1.0159463
1.0202304
1.0248233
1.0297392
1.0349917
1.0405931
1.0465542
1.0528836
1.0595867
1.0666647
1.0741128
1.0819187
1.0900603
1.0985027
1.107196
1.1160721
1.1250428
1.1339988
1.1428114
1.1513364
1.1594227
1.1669233
1.1737097
1.1796854
1.1847966
1.1890374
1.1924477
1.1951049
1.1971111
1.1985792
1.199621
1.2003379
1.2008163
1.2011255
1.2013187
1.2014351
1.2015024
1.2015395
1.2015587
1.2015681
1.2015724
1.2015741
1.2015748
1.201575
1.2015751
1.2015751
1.2015751
1.0046025
1.0080399
1.0117415
1.0157221
1.0199962
1.0245784
1.0294829
1.034723
1.0403112
1.0462582
1.0525728
1.0592603
1.0663222
1.0737538
1.0815434
1.0896692
1.098097
1.1067776
1.1156441
1.1246092
1.1335649
1.1423836
1.150922
1.1590293
1.1665584
1.1733798
1.1793952
1.1845486
1.1888318
1.1922823
1.1949758
1.1970132
1.198507
1.1995691
1.2003015
1.2007913
1.2011086
1.2013075
1.2014277
1.2014974
1.201536
1.2015562
1.2015661
1.2015706
1.2015725
1.2015732
1.2015735
1.2015735
1.2015736
1.2015736
1.0044081
1.0078379
1.0115313
1.0155029
1.0197674
1.0243392
1.0292325
1.0344605
1.0400358
1.0459691
1.0522691
1.0589414
1.0659875
1.0734032
1.0811767
1.0892869
1.0977003
1.1063685
1.1152253
1.1241848
1.13314
1.1419644
1.1505155
1.1586429
1.1661996
1.1730549
1.179109
1.1843037
1.1886284
1.1921184
1.1948476
1.1969158
1.1984351
1.1995173
1.2002651
1.2007662
1.2010917
1.2012962
1.2014202
1.2014924
1.2015325
1.2015537
1.2015641
1.2015689
1.2015709
1.2015717
1.201572
1.201572
1.2015721
1.2015721
1.0042181
1.0076405
1.0113259
1.0152888
1.0195438
1.0241055
1.0289877
1.034204
1.0397666
1.0456865
1.0519723
1.0586298
1.0656604
1.0730604
1.0808182
1.0889132
1.0973124
1.1059683
1.1148155
1.1237693
1.1327237
1.1415533
1.1501165
1.1582634
1.1658467
1.1727349
1.1788267
1.1840618
1.1884271
1.191956
1.1947204
1.196819
1.1983634
1.1994656
1.2002287
1.2007411
1.2010747
1.2012848
1.2014126
1.2014873
1.201529
1.2015511
1.201562
1.2015671
1.2015693
1.2015701
1.2015704
1.2015705
1.2015706
1.2015706
1.0040323
1.0074475
1.011125
1.0150794
1.0193252
1.0238769
1.0287484
1.0339531
1.0395034
1.0454102
1.0516821
1.058325
1.0653406
1.0727251
1.0804676
1.0885476
1.0969329
1.1055766
1.1144144
1.1233623
1.1323157
1.1411501
1.1497249
1.1578905
1.1654995
1.1724197
1.1785482
1.1838227
1.188228
1.191795
1.194594
1.1967227
1.198292
1.199414
1.2001923
1.200716
1.2010576
1.2012734
1.201405
1.2014821
1.2015254
1.2015484
1.20156
1.2015654
1.2015677
1.2015686
1.2015689
1.201569
1.2015691
1.2015691
1.0038505
1.0072586
1.0109284
1.0148745
1.0191113
1.0236532
1.0285143
1.0337077
1.039246
1.0451399
1.0513983
1.0580269
1.0650277
1.0723972
1.0801245
1.0881899
1.0965615
1.1051931
1.1140214
1.1229635
1.1319157
1.1407546
1.1493403
1.157524
1.1651579
1.1721092
1.1782735
1.1835865
1.1880309
1.1916354
1.1944686
1.1966269
1.1982208
1.1993625
1.2001559
1.2006908
1.2010405
1.2012619
1.2013972
1.2014769
1.2015218
1.2015458
1.2015579
1.2015636
1.201566
1.201567
1.2015674
1.2015675
1.2015676
1.2015676
1.0036726
1.0070738
1.0107361
1.014674
1.018902
1.0234344
1.0282852
1.0334676
1.038994
1.0448754
1.0511204
1.0577352
1.0647215
1.0720762
1.0797887
1.0878396
1.0961977
1.1048175
1.1136365
1.1225726
1.1315234
1.1403663
1.1489626
1.1571636
1.1648216
1.1718031
1.1780023
1.1833531
1.1878358
1.1914771
1.194344
1.1965316
1.1981499
1.1993111
1.2001195
1.2006655
1.2010233
1.2012503
1.2013895
1.2014716
1.2015181
1.2015431
1.2015558
1.2015618
1.2015644
1.2015655
1.2015659
1.201566
1.2015661
1.2015661
1.0034984
1.0068928
1.0105478
1.0144777
1.0186971
1.0232201
1.0280608
1.0332325
1.0387474
1.0446164
1.0508485
1.0574495
1.0644217
1.0717618
1.0794599
1.0874966
1.0958414
1.1044495
1.1132591
1.1221892
1.1311384
1.1399852
1.1485915
1.1568091
1.1644906
1.1715014
1.1777347
1.1831224
1.1876426
1.1913203
1.1942203
1.1964369
1.1980793
1.1992598
1.2000831
1.2006403
1.201006
1.2012386
1.2013816
1.2014663
1.2015144
1.2015404
1.2015536
1.20156
1.2015628
1.2015639
1.2015644
1.2015645
1.2015646
1.2015646
1.0033278
1.0067155
1.0103633
1.0142854
1.0184963
1.0230103
1.0278411
1.0330022
1.0385058
1.0443628
1.0505821
1.0571698
1.064128
1.071454
1.0791377
1.0871605
1.0954923
1.1040888
1.1128891
1.1218132
1.1307607
1.1396109
1.1482267
1.1564604
1.1641645
1.171204
1.1774705
1.1828943
1.1874514
1.1911647
1.1940975
1.1963426
1.198009
1.1992087
1.2000468
1.200615
1.2009887
1.2012269
1.2013737
1.2014609
1.2015106
1.2015376
1.2015515
1.2015581
1.2015611
1.2015624
1.2015628
1.201563
1.201563
1.2015631
1.0031606
1.0065418
1.0101825
1.014097
1.0182997
1.0228047
1.0276259
1.0327766
1.0382691
1.0441143
1.0503211
1.0568956
1.0638403
1.0711523
1.078822
1.0868312
1.09515
1.1037351
1.1125262
1.1214443
1.1303898
1.1392432
1.1478681
1.1561173
1.1638434
1.1709107
1.1772096
1.1826687
1.1872621
1.1910105
1.1939755
1.1962489
1.1979389
1.1991576
1.2000104
1.2005896
1.2009713
1.2012151
1.2013658
1.2014555
1.2015068
1.2015348
1.2015493
1.2015563
1.2015595
1.2015608
1.2015613
1.2015615
1.2015615
1.2015616
1.0029967
1.0063716
1.0100054
1.0139123
1.0181069
1.0226031
1.0274149
1.0325555
1.0380371
1.0438707
1.0500653
1.056627
1.0635583
1.0708566
1.0785125
1.0865082
1.0948144
1.1033882
1.1121702
1.1210821
1.1300255
1.1388818
1.1475154
1.1557796
1.163527
1.1706213
1.176952
1.1824457
1.1870746
1.1908575
1.1938544
1.1961557
1.1978691
1.1991067
1.1999741
1.2005643
1.2009539
1.2012033
1.2013577
1.20145
1.201503
1.201532
1.2015471
1.2015544
1.2015578
1.2015592
1.2015598
1.20156
1.20156
1.2015601
1.002836
1.0062046
1.0098316
1.0137313
1.0179178
1.0224055
1.027208
1.0323386
1.0378096
1.0436319
1.0498145
1.0563635
1.0632817
1.0705666
1.078209
1.0861915
1.0944851
1.1030478
1.1118207
1.1207266
1.1296678
1.1385267
1.1471685
1.1554472
1.1632152
1.1703359
1.1766975
1.1822251
1.1868889
1.1907058
1.193734
1.1960629
1.1977996
1.1990559
1.1999378
1.2005389
1.2009364
1.2011914
1.2013497
1.2014445
1.2014991
1.2015292
1.2015449
1.2015526
1.2015561
1.2015576
1.2015582
1.2015585
1.2015585
1.2015585
1.0026783
1.0060408
1.0096612
1.0135536
1.0177324
1.0222116
1.0270051
1.032126