/*--------------------------------*- C++ -*----------------------------------*\
| =========                 |                                                 |
| \\      /  F ield         | OpenFOAM: The Open Source CFD Toolbox           |
|  \\    /   O peration     | Version:  4.0                                   |
|   \\  /    A nd           | Web:      www.OpenFOAM.org                      |
|    \\/     M anipulation  |                                                 |
\*---------------------------------------------------------------------------*/
FoamFile
{
    version     2.0;
    format      ascii;
    class       surfaceScalarField;
    location    "846";
    object      snGradRho;
}
// * * * * * * * * * * * * * * * * * * * * * * * * * * * * * * * * * * * * * //

dimensions      [1 -4 0 0 0 0 0];

internalField   nonuniform List<scalar> 
9850
(
65.800324
-2.1397108
64.173092
-2.2269577
62.030221
-2.3173257
59.348459
-2.4067579
56.124263
-2.4900411
52.379031
-2.5608856
48.16331
-2.6121701
43.558966
-2.6363917
38.678222
-2.6263329
33.658735
-2.5759222
28.654429
-2.4812011
23.822726
-2.3412511
19.309782
-2.1588743
15.236197
-1.9408133
11.685896
-1.6973433
8.7003808
-1.4412035
6.2791918
-1.1860123
4.3862584
-0.94448195
2.9600731
-0.72684206
1.9252041
-0.53982062
1.2028206
-0.38635817
0.71870934
-0.26600216
0.40825789
-0.17575558
0.2186871
-0.11109143
0.10923592
-0.06688972
0.050068409
-0.038155285
0.020530334
-0.02047659
0.007186567
-0.010252981
0.0019123986
-0.0047467831
0.00020930344
-0.0020186414
-0.00015382755
-0.00079557561
-0.00013452465
-0.00031110955
-6.5333807e-05
-0.00014796901
-2.3079415e-05
-0.00010477701
-6.0439648e-06
-9.7799462e-05
-1.0469037e-06
-9.8418984e-05
-3.6130039e-08
-9.9379588e-05
5.9759669e-08
-9.9782408e-05
4.0325387e-08
-9.9890676e-05
2.9289972e-08
-9.9910976e-05
2.6443715e-08
-9.9914174e-05
2.6090697e-08
-9.9915707e-05
2.5957671e-08
-9.9917518e-05
2.6436002e-08
-9.9919581e-05
2.8917322e-08
-9.9922715e-05
2.3833148e-08
-9.9925132e-05
1.7446682e-08
-9.9936183e-05
-9.7452128e-09
-9.9935568e-05
4.5612761e-07
-9.9859659e-05
-0.00010008904
52.553411
-0.60402535
51.700577
-0.62875177
50.809826
-0.65614421
49.850139
-0.68661643
48.779637
-0.72044854
47.545935
-0.757646
46.088316
-0.79776203
44.342274
-0.83970086
42.246751
-0.88153694
39.753947
-0.92040498
36.840809
-0.95253055
33.520353
-0.97347142
29.850052
-0.97861356
25.934062
-0.96390451
21.916638
-0.92671559
17.96601
-0.86662898
14.251061
-0.78589362
10.916163
-0.68933613
8.0608927
-0.58366674
5.7299996
-0.47633548
3.915372
-0.37426803
2.5676471
-0.28284502
1.6125635
-0.20536632
0.96701898
-0.14303863
0.55145758
-0.095351627
0.29739452
-0.060635727
0.15054928
-0.036620401
0.070842232
-0.020885938
0.030582892
-0.011174359
0.011893563
-0.0055697163
0.0040534193
-0.0025745813
0.0011533688
-0.0011102286
0.00024462558
-0.00046497591
2.2439051e-05
-0.00021354877
-9.717848e-06
-0.00012910535
-6.2253167e-06
-0.00010558846
-2.0101294e-06
-0.00010053548
-4.2254213e-07
-9.9852933e-05
-4.1880479e-08
-9.9864432e-05
1.7517801e-08
-9.9900529e-05
2.1311942e-08
-9.9912206e-05
2.0582644e-08
-9.9915345e-05
2.0252402e-08
-9.9917269e-05
1.8558123e-08
-9.9917962e-05
2.3394315e-08
-9.9921102e-05
8.7664125e-10
-9.9921834e-05
1.8607502e-08
-9.9926298e-05
1.2055731e-07
-9.98976e-05
9.8194025e-08
-9.9891679e-05
-0.00010017476
48.799137
-0.31332164
47.919896
-0.32601015
46.986702
-0.33989415
45.991643
-0.35509601
44.92328
-0.37174001
43.765367
-0.38993486
42.495536
-0.4097395
41.08435
-0.43110513
39.495321
-0.45378795
37.686697
-0.47723337
35.615873
-0.5004457
33.246927
-0.52187623
30.561033
-0.53938425
27.568112
-0.55033787
24.316619
-0.55191022
20.897396
-0.54157722
17.438005
-0.51773681
14.086588
-0.4802769
10.988244
-0.430874
8.2605583
-0.37285841
5.9758394
-0.31063622
4.1550014
-0.24884165
2.7733549
-0.19150132
1.7743566
-0.14146124
1.0857337
-0.10018906
0.63337053
-0.067907577
0.35065263
-0.043922595
0.18311518
-0.02699942
0.08948301
-0.015689211
0.040506852
-0.0085646415
0.016770293
-0.0043655166
0.0062472382
-0.0020721201
0.0020489459
-0.00092515023
0.00057331122
-0.00040730256
0.00012974181
-0.00019977257
2.1014253e-05
-0.00012745416
1.3346356e-06
-0.00010611286
-4.7376692e-07
-0.0001009768
-1.880566e-07
-0.00010003215
-2.5468742e-08
-9.9919312e-05
1.0808145e-08
-9.9917401e-05
1.4732451e-08
-9.991997e-05
1.8333481e-08
-9.9921902e-05
1.0664987e-08
-9.9921914e-05
2.1722478e-08
-9.9925236e-05
-8.3956642e-09
-9.9926657e-05
7.2797794e-08
-9.9922886e-05
1.3072046e-07
-9.9903798e-05
-3.4352907e-07
-9.9980897e-05
-0.00010004864
46.872608
-0.221365
46.003637
-0.23028732
45.079438
-0.24001476
44.093421
-0.25059649
43.036973
-0.26207084
41.898962
-0.27445672
40.665202
-0.28774087
39.317958
-0.30185883
37.835642
-0.3166669
36.193006
-0.33190227
34.362293
-0.3471297
32.315962
-0.36167792
30.031576
-0.3745784
27.499024
-0.38453302
24.72934
-0.38995123
21.763007
-0.38910037
18.674394
-0.38039158
15.568836
-0.36277037
12.57056
-0.33610982
9.8032336
-0.30145403
7.3685487
-0.26097787
5.3297684
-0.21763002
3.7053018
-0.17456393
2.4730918
-0.13455331
1.5825442
-0.099578578
0.96892201
-0.070674419
0.56587344
-0.048013517
0.31386945
-0.031130526
0.16435629
-0.019182053
0.080622164
-0.011171728
0.036686829
-0.0061120992
0.015301854
-0.0031249687
0.0057651838
-0.0014936262
0.0019271467
-0.00067981014
0.00055860373
-0.00031435134
0.0001360607
-0.00016907383
2.6503658e-05
-0.00011893041
3.7343746e-06
-0.00010424387
2.6888745e-07
-0.00010069833
-1.8431803e-08
-0.00010002176
2.2119774e-09
-9.9927952e-05
8.8534392e-09
-9.9920786e-05
1.8301634e-08
-9.9922897e-05
2.3145651e-09
-9.9924144e-05
1.8473992e-08
-9.9927181e-05
-5.6207252e-10
-9.9927843e-05
1.088415e-07
-9.9919772e-05
-1.6240666e-09
-9.9924783e-05
-4.4923431e-07
-0.00010000426
-0.00010000624
45.517911
-0.17201096
44.661063
-0.17892172
43.751827
-0.18644638
42.784791
-0.19461568
41.752897
-0.20344975
40.647052
-0.21295135
39.455757
-0.22309637
38.164801
-0.23382092
36.757145
-0.2450043
35.213136
-0.25644708
33.511294
-0.26784426
31.629997
-0.27875449
29.550406
-0.28856928
27.260952
-0.29649108
24.763325
-0.30153637
22.07921
-0.30258707
19.255994
-0.2985144
16.368739
-0.28838412
13.515761
-0.27171709
10.806759
-0.24873191
8.3455109
-0.22046671
6.2120901
-0.18869689
4.45046
-0.15564166
3.0652115
-0.12354758
2.0273779
-0.09429179
1.2859495
-0.069127677
0.7805832
-0.048620371
0.45200253
-0.032740444
0.24853812
-0.021041494
0.12895809
-0.012848801
0.062627956
-0.0074136881
0.028180291
-0.0040189087
0.011605384
-0.0020403089
0.0043112411
-0.00097648707
0.001420127
-0.00045600661
0.00040637329
-0.00022787422
9.8474356e-05
-0.00013983938
1.9528752e-05
-0.00011050351
3.0086479e-06
-0.00010224475
3.2690241e-07
-0.00010033043
2.6189645e-08
-9.9977533e-05
2.4327584e-09
-9.9928505e-05
1.4854632e-08
-9.9924983e-05
-5.3202512e-09
-9.9926317e-05
1.6960733e-08
-9.9927656e-05
1.6204441e-08
-9.9926485e-05
9.937766e-08
-9.9919645e-05
-1.380498e-07
-9.9944667e-05
-4.5232849e-07
-0.00010000277
-9.9967333e-05
44.468634
-0.1406382
43.622516
-0.14627526
42.726886
-0.15241144
41.777279
-0.15907199
40.767841
-0.16627376
39.690978
-0.17401986
38.537015
-0.18229217
37.293912
-0.19104131
35.947122
-0.2001735
34.479738
-0.20953419
32.8731
-0.2188886
31.108109
-0.2279007
29.167495
-0.23611329
27.039267
-0.24293489
24.721358
-0.24764234
22.227083
-0.24941143
19.590351
-0.24738994
16.868804
-0.24082211
14.142659
-0.22921847
11.507539
-0.21253754
9.0615305
-0.19131815
6.8893131
-0.16669381
5.0481805
-0.1402512
3.5605099
-0.11375816
2.4146525
-0.088847076
1.5728481
-0.066757574
0.98253649
-0.048208686
0.58725094
-0.033409291
0.33463649
-0.022165919
0.18088111
-0.014029005
0.092109227
-0.008429646
0.043800109
-0.0047823193
0.019239705
-0.0025499947
0.0077066296
-0.0012792857
0.0027729955
-0.00061508838
0.00088095053
-0.00030100996
0.00024223336
-0.00016887048
5.6319175e-05
-0.0001202989
1.0760709e-05
-0.00010500456
1.6259849e-06
-0.0001009669
1.9025561e-07
-0.00010009501
1.3144145e-08
-9.9945921e-05
1.1166978e-08
-9.9927116e-05
-8.6865496e-09
-9.9926955e-05
1.963576e-08
-9.9926537e-05
3.0413969e-08
-9.992447e-05
5.2128389e-08
-9.9923251e-05
-2.3777896e-07
-9.995536e-05
-3.9703864e-07
-9.9987502e-05
-9.9924823e-05
43.612745
-0.11818427
42.775605
-0.12291194
41.891236
-0.12805702
40.955929
-0.13364115
39.964783
-0.13967954
38.911388
-0.14617688
37.787501
-0.15312152
36.582755
-0.1604776
35.284488
-0.1681747
33.87779
-0.17609481
32.345937
-0.18405676
30.671417
-0.19179907
28.837764
-0.19896355
26.832426
-0.20508391
24.650696
-0.20958599
22.300481
-0.21180859
19.807126
-0.21105494
17.216951
-0.2066818
14.597614
-0.19822387
12.033631
-0.18553458
9.6165072
-0.16890392
7.4310594
-0.14910268
5.541587
-0.12731414
3.9822529
-0.1049529
2.7546089
-0.083419601
1.8323483
-0.063870048
1.1707481
-0.047067642
0.71723253
-0.033347409
0.42014867
-0.022674608
0.23437321
-0.014754866
0.12378369
-0.0091518579
0.061422928
-0.0053838838
0.028358713
-0.0029892948
0.012039564
-0.001563872
0.0046355404
-0.00077836094
0.0015932866
-0.00038328609
0.00048025603
-0.00020485247
0.00012445109
-0.00013375992
2.7111281e-05
-0.00010924276
4.8355697e-06
-0.00010206996
6.8916836e-07
-0.00010032739
7.0348032e-08
-9.9984447e-05
1.1612589e-08
-9.9931403e-05
-7.6357465e-09
-9.992614e-05
2.435786e-08
-9.9924133e-05
3.2947554e-08
-9.9922243e-05
-8.5033533e-09
-9.9927462e-05
-2.9295327e-07
-9.9957644e-05
-2.9923321e-07
-9.9969681e-05
-9.9913419e-05
42.894932
-0.10165191
42.065484
-0.10571145
41.190637
-0.11012896
40.26726
-0.11492367
39.291186
-0.12010986
38.25692
-0.12569346
37.157327
-0.13166749
35.983355
-0.13800569
34.723831
-0.14465416
33.365446
-0.1515208
31.893051
-0.15846248
30.290455
-0.16527071
28.541928
-0.17165741
26.634608
-0.17724404
24.561921
-0.18155934
22.327844
-0.18405283
19.951465
-0.18413227
17.470717
-0.18123151
14.943702
-0.17490855
12.445955
-0.1649612
10.062782
-0.15153226
7.8774547
-0.13516492
5.958043
-0.11677289
4.3468101
-0.097515108
3.0554757
-0.078602798
2.067415
-0.061097707
1.3452354
-0.045762855
0.8406179
-0.033001567
0.50337855
-0.02288274
0.28790018
-0.015222351
0.1565059
-0.0096833317
0.080326722
-0.0058646525
0.038587996
-0.0033656586
0.017163897
-0.0018248349
0.0069784095
-0.00093909243
0.0025551845
-0.00047067425
0.00082864156
-0.00024632984
0.00023366806
-0.00015070791
5.6157661e-05
-0.00011511105
1.1250289e-05
-0.00010376245
1.8367847e-06
-0.00010072628
2.3170658e-07
-0.00010005924
2.6167541e-08
-9.9941496e-05
-2.5898525e-09
-9.9925382e-05
2.8675869e-08
-9.9921759e-05
2.2106587e-08
-9.9921015e-05
-6.5497721e-08
-9.9930698e-05
-3.1361422e-07
-9.9955658e-05
-2.1144118e-07
-9.9953498e-05
-9.9905972e-05
42.278562
-0.088926901
41.455784
-0.092472992
40.58908
-0.096331315
39.675784
-0.10051911
38.712319
-0.10504969
37.693922
-0.10992971
36.614352
-0.11515542
35.465615
-0.12070745
34.237748
-0.12654398
32.918755
-0.13259193
31.494804
-0.13873621
29.950852
-0.14480748
28.271891
-0.15056966
26.444997
-0.15570952
24.462326
-0.15983276
22.32496
-0.16247209
20.047206
-0.16311471
17.660426
-0.16125501
15.215006
-0.15647391
12.778899
-0.14853675
10.431665
-0.13748843
8.2542634
-0.12371401
6.3167002
-0.10793262
4.6669941
-0.091109604
3.3248782
-0.074302352
2.2819506
-0.058484067
1.5075273
-0.044399202
0.95759892
-0.032488588
0.58388286
-0.02289157
0.34081584
-0.015505231
0.18966844
-0.010068825
0.10005473
-0.0062452978
0.049645432
-0.0036837756
0.022942096
-0.0020591291
0.0097562186
-0.0010925762
0.0037645779
-0.00055979641
0.0012972322
-0.00029175139
0.00039224186
-0.00017075621
0.00010211408
-0.00012265671
2.2426964e-05
-0.00010614351
4.0689566e-06
-0.0001013447
5.8987188e-07
-0.00010018817
7.0727345e-08
-9.9961524e-05
6.5188194e-09
-9.9925734e-05
3.0375173e-08
-9.9919687e-05
1.9928529e-09
-9.9920587e-05
-1.1262976e-07
-9.9932116e-05
-3.0990628e-07
-9.9950773e-05
-1.3728076e-07
-9.993943e-05
-9.9900651e-05
41.74015
-0.078898736
40.923261
-0.0820408
40.063668
-0.085459187
39.15908
-0.089169535
38.206395
-0.093184296
37.201447
-0.097510491
36.138725
-0.10214656
35.011103
-0.10707805
33.80962
-0.11227184
32.523376
-0.11766875
31.139664
-0.12317442
29.644457
-0.1286487
28.023448
-0.1338946
26.263826
-0.13864856
24.356906
-0.14257547
22.301627
-0.14527318
20.108587
-0.14629259
17.803874
-0.14517913
15.431484
-0.14153776
13.05282
-0.13511676
10.742109
-0.12589391
8.5775865
-0.11413908
6.6300123
-0.10042394
4.9515397
-0.085561269
3.5683209
-0.070480783
2.4789988
-0.056074978
1.6590008
-0.043061721
1.0685474
-0.031901622
0.66150712
-0.022783587
0.39275122
-0.015666351
0.22287308
-0.010349575
0.12027636
-0.0065481022
0.061304407
-0.0039521525
0.029247467
-0.0022673169
0.012915704
-0.0012363187
0.005209552
-0.000648111
0.0018901631
-0.00033963262
0.0006065114
-0.00019337324
0.00016898463
-0.00013182296
4.0092247e-05
-0.00010927771
7.9391212e-06
-0.00010223265
1.2793233e-06
-0.000100392
1.696992e-07
-9.9997485e-05
2.1718495e-08
-9.9928799e-05
2.8319204e-08
-9.9918301e-05
-2.1957205e-08
-9.9920527e-05
-1.4785911e-07
-9.993208e-05
-2.9043588e-07
-9.9944842e-05
-7.6768361e-08
-9.9929255e-05
-9.9902108e-05
41.263083
-0.070794861
40.451458
-0.073610845
39.598158
-0.076674176
38.701203
-0.079999132
37.757887
-0.083597371
36.76454
-0.08747604
35.716259
-0.09163511
34.606644
-0.096063722
33.427577
-0.10073528
32.169092
-0.10560112
30.819446
-0.11058262
29.365513
-0.11556202
27.793659
-0.12037246
26.091281
-0.12478902
24.249154
-0.12852314
22.264614
-0.1312247
20.145338
-0.13249681
17.913127
-0.13192869
15.60661
-0.12914961
13.281482
-0.12390091
11.007036
-0.11611404
8.8585771
-0.10597287
6.9068148
-0.0939341
5.2068513
-0.080686946
3.7900256
-0.067052995
2.6610552
-0.053851405
1.8009296
-0.041769723
1.1739586
-0.031277257
0.73630333
-0.022598442
0.44354374
-0.015740063
0.2558862
-0.010550758
0.14076977
-0.006788423
0.073395318
-0.0041778651
0.035973251
-0.0024508847
0.016403888
-0.0013690641
0.0068724938
-0.00073378718
0.0026069
-0.0003886677
0.00088070026
-0.0002179647
0.00026028211
-0.00014246867
6.6026388e-05
-0.00011318962
1.4098585e-05
-0.00010343113
2.4794217e-06
-0.00010069188
3.59635e-07
-0.00010005648
4.8108094e-08
-9.9936437e-05
2.3234417e-08
-9.991805e-05
-4.5955909e-08
-9.9920629e-05
-1.7195812e-07
-9.9931167e-05
-2.6368002e-07
-9.9939021e-05
-3.4407816e-08
-9.9922066e-05
-9.9903823e-05
40.835525
-0.064123503
40.028659
-0.066671365
39.181
-0.069442771
38.290829
-0.072450844
37.355776
-0.07570652
36.372586
-0.079216929
35.336872
-0.082983114
34.242854
-0.086996887
33.083129
-0.0912366
31.848537
-0.095661664
30.528176
-0.10020567
29.109725
-0.10476829
27.580179
-0.10920638
25.927206
-0.11332562
24.141248
-0.11687474
22.218426
-0.11954588
20.164089
-0.12098554
17.996508
-0.12082086
15.749763
-0.11870474
13.474542
-0.11437817
11.235595
-0.10774076
9.1052228
-0.098911414
7.1535299
-0.088255748
5.4376731
-0.076361296
3.9931975
-0.063956968
2.8300787
-0.051795275
1.9343677
-0.040531825
1.274292
-0.030637235
0.80837917
-0.022361489
0.49311849
-0.015749433
0.28855943
-0.010690121
0.16137851
-0.0069777891
0.085788673
-0.0043668112
0.043030579
-0.0026115965
0.020171201
-0.0014902505
0.0087329601
-0.00081550381
0.0034434217
-0.00043773622
0.0012170135
-0.00024392105
0.0003788482
-0.00015438982
0.00010194919
-0.00011786465
2.3265073e-05
-0.00010496875
4.4122874e-06
-0.00010110774
6.9159764e-07
-0.00010014629
9.4328732e-08
-9.9950674e-05
1.734101e-08
-9.991921e-05
-6.7845587e-08
-9.9920723e-05
-1.8678896e-07
-9.9929676e-05
-2.3457482e-07
-9.9933666e-05
-5.9416909e-09
-9.9916988e-05
-9.9905485e-05
40.448677
-0.058540373
39.646152
-0.060864085
38.8036
-0.063391454
37.919525
-0.066134605
36.991842
-0.069103818
36.017657
-0.072306121
34.993024
-0.075743316
33.912692
-0.079409239
32.769883
-0.083286083
31.556134
-0.087339589
30.261286
-0.091513002
28.873736
-0.095719855
27.38107
-0.099835978
25.771261
-0.10369171
24.034557
-0.10706613
22.166154
-0.10968623
20.169524
-0.11123491
18.059999
-0.11137229
15.867766
-0.10977369
13.639104
-0.10618385
11.434589
-0.10048069
9.3235321
-0.092733522
7.3750523
-0.083235003
5.6476775
-0.072488102
4.1803654
-0.06114167
2.9876551
-0.049887674
2.0602024
-0.03934943
1.3699657
-0.029993812
0.87786635
-0.022088999
0.54145139
-0.015710298
0.32079843
-0.010780559
0.18199056
-0.0071251302
0.098384646
-0.0045240175
0.050345753
-0.0027513638
0.024172578
-0.0015998241
0.010769425
-0.00089237209
0.0043932035
-0.00048592158
0.0016158495
-0.00027065896
0.00052675762
-0.00016734241
0.00014942137
-0.00012325295
3.6185349e-05
-0.00010685945
7.3370044e-06
-0.00010165664
1.2325276e-06
-0.00010027495
1.7342073e-07
-9.9973926e-05
1.3883883e-08
-9.992221e-05
-8.6442226e-08
-9.9920881e-05
-1.9432426e-07
-9.9927962e-05
-2.0594638e-07
-9.992908e-05
1.2009017e-08
-9.9913734e-05
-9.9907661e-05
40.095862
-0.053803931
39.297327
-0.055937665
38.459437
-0.058258211
37.580891
-0.060776831
36.659851
-0.063503205
35.693733
-0.066444211
34.678974
-0.069602187
33.610788
-0.072972529
32.48294
-0.076540451
31.287579
-0.080276741
30.015206
-0.084132391
28.654866
-0.088032139
27.194698
-0.091867228
25.622992
-0.09548818
23.929905
-0.098699108
22.109924
-0.10125606
20.16499
-0.10287284
18.107962
-0.10323839
15.965675
-0.1020489
13.780502
-0.09905538
11.609192
-0.09412124
9.5181341
-0.087277669
7.5752027
-0.078758313
5.8397718
-0.068995231
4.3535639
-0.058567747
3.1350858
-0.048112861
2.1791826
-0.038222048
1.4613511
-0.029354966
0.94490118
-0.021792435
0.58854644
-0.015634292
0.35254326
-0.010831926
0.20252473
-0.0072376073
0.11110577
-0.0046538264
0.057857898
-0.0028721355
0.028367903
-0.0016980834
0.012960514
-0.00096385649
0.0054480874
-0.00053251189
0.0020760952
-0.00029765306
0.00070529881
-0.00018106608
0.00020976885
-0.00012927713
5.3595758e-05
-0.00010910221
1.1540057e-05
-0.00010235138
2.0649518e-06
-0.00010045018
3.0342225e-07
-0.00010000885
1.692207e-08
-9.9927606e-05
-1.0115273e-07
-9.9921254e-05
-1.9643511e-07
-9.9926256e-05
-1.79604e-07
-9.9925288e-05
2.1486276e-08
-9.9911669e-05
-9.9909174e-05
39.771891
-0.049738346
38.977047
-0.051709145
38.143444
-0.053852321
37.269953
-0.056178373
36.35495
-0.058696442
35.396123
-0.061413223
34.390247
-0.064331435
33.332942
-0.067447691
32.218451
-0.070749623
31.039471
-0.074212098
29.78709
-0.077792418
28.450941
-0.081424502
27.019675
-0.08501229
25.481906
-0.08842303
23.827776
-0.091481742
22.051221
-0.093968988
20.152925
-0.095625038
18.14365
-0.09616406
16.04732
-0.095301607
13.902834
-0.092796363
11.763431
-0.088502354
9.6926755
-0.082421279
7.7570304
-0.07473866
6.0163083
-0.065826681
4.5144641
-0.056203994
3.273459
-0.046457726
2.2919499
-0.037148461
1.5487795
-0.02872627
1.0096181
-0.021480383
0.63442468
-0.015530452
0.38375739
-0.010852142
0.22292208
-0.0073212361
0.12389174
-0.0047601329
0.065516904
-0.0029759009
0.032722008
-0.0017856057
0.015285802
-0.0010297225
0.0065990016
-0.00057699513
0.0025954569
-0.0003244576
0.00091501927
-0.00019530506
0.00028403644
-0.00013584175
7.6186371e-05
-0.00011168258
1.7323468e-05
-0.00010319983
3.2853555e-06
-0.00010067883
5.0764793e-07
-0.0001000582
3.1436849e-08
-9.993606e-05
-1.1154226e-07
-9.9922006e-05
-1.9460792e-07
-9.9924657e-05
-1.5622612e-07
-9.9922183e-05
2.5379831e-08
-9.9910362e-05
-9.9910143e-05
39.47266
-0.046213101
38.681247
-0.048042728
37.851612
-0.050032232
36.982771
-0.052191441
36.073294
-0.054529003
35.121108
-0.057051417
34.123286
-0.059761669
33.075808
-0.062657333
31.973346
-0.065727996
30.809081
-0.068951867
29.574631
-0.072291455
28.260165
-0.075688293
26.854812
-0.079056909
25.347509
-0.082278575
23.72843
-0.085195956
21.991092
-0.087610499
20.135134
-0.089285299
18.169527
-0.08995677
16.115648
-0.089358254
14.009296
-0.087256883
11.900485
-0.083500976
9.8500741
-0.078069311
7.9230072
-0.071107885
6.1792198
-0.062937995
4.6644587
-0.054025133
3.4036962
-0.044911161
2.3990593
-0.036127022
1.6325472
-0.028111632
1.0721469
-0.021159367
0.67911776
-0.015405892
0.41442082
-0.01084765
0.2431404
-0.0073810988
0.13669595
-0.0048464171
0.073281873
-0.003064625
0.03720454
-0.0018631582
0.01772636
-0.0010899742
0.0078365494
-0.00061903932
0.0031707945
-0.00035071535
0.0011558172
-0.00020982335
0.00037297079
-0.00014284237
0.00010457261
-0.00011457518
2.4992267e-05
-0.00010420472
5.0015701e-06
-0.00010096658
8.1468895e-07
-0.00010012477
6.3550497e-08
-9.994838e-05
-1.1704801e-07
-9.9923362e-05
-1.8993686e-07
-9.9923258e-05
-1.3593354e-07
-9.9919683e-05
2.5720586e-08
-9.9909581e-05
-9.9910776e-05
39.194863
-0.043129201
38.406658
-0.044835418
37.580712
-0.046690591
36.716176
-0.048703953
35.811789
-0.050883702
34.865692
-0.053236135
33.875223
-0.055764423
32.836685
-0.058466906
31.745131
-0.061334772
30.594182
-0.064349
29.375933
-0.067476438
28.081044
-0.070665007
26.699088
-0.073838153
25.219322
-0.07688903
23.631988
-0.079675339
21.930282
-0.08201647
20.112972
-0.083695361
18.187484
-0.08446812
16.172961
-0.084084404
14.102416
-0.082320117
12.022902
-0.079020521
9.9926971
-0.074146532
8.0751633
-0.067811469
6.3301139
-0.060293136
4.8047223
-0.052010268
3.5265869
-0.043463609
2.5009952
-0.035155868
1.7129205
-0.02751381
1.1326112
-0.020834424
0.72266381
-0.015266306
0.44452539
-0.010823756
0.26315014
-0.0074215268
0.14948265
-0.0049157885
0.08111972
-0.0031402052
0.041789668
-0.0019316256
0.02026507
-0.0011447974
0.0091514578
-0.00065846775
0.0037984281
-0.00037615837
0.0014270581
-0.00022441514
0.00047702751
-0.00015017376
0.00013927581
-0.00011774687
3.4842571e-05
-0.00010536401
7.3294186e-06
-0.00010131765
1.2580921e-06
-0.0001002112
1.2072066e-07
-9.9965472e-05
-1.1683304e-07
-9.992557e-05
-1.8318468e-07
-9.9922119e-05
-1.1859434e-07
-9.9917677e-05
2.3856988e-08
-9.9909105e-05
-9.9910997e-05
38.935804
-0.04041025
38.150608
-0.042007734
37.32811
-0.04374456
36.467579
-0.045629426
35.567906
-0.04767012
34.627424
-0.049872737
33.643709
-0.052240574
32.613354
-0.054772583
31.531757
-0.05746128
30.392934
-0.060289959
29.189418
-0.063229128
27.912316
-0.066232114
26.55162
-0.069229952
25.096894
-0.07212595
23.538479
-0.074790735
21.869324
-0.077059233
20.087466
-0.078731741
18.198997
-0.079581872
16.22108
-0.079374238
14.184223
-0.077893555
12.132751
-0.074983946
10.122487
-0.070592394
8.2151849
-0.064805054
6.4703422
-0.057862364
4.936255
-0.050141763
3.6428128
-0.042106614
2.5981832
-0.034232874
1.7901391
-0.026934572
1.1911274
-0.02050934
0.76510462
-0.015116173
0.47407135
-0.010784775
0.28293139
-0.0074461646
0.1622248
-0.0049709745
0.089003968
-0.0032044131
0.04645571
-0.0019919405
0.022886771
-0.0011945038
0.010534901
-0.00069522922
0.0044744008
-0.00040060155
0.0017277001
-0.00023890998
0.00059639684
-0.00015773617
0.00018071319
-0.00012115994
4.7151489e-05
-0.00010667164
1.0389058e-05
-0.00010173471
1.8757944e-06
-0.00010031991
2.1190124e-07
-9.99883e-05
-1.0966549e-07
-9.9928906e-05
-1.7479616e-07
-9.9921287e-05
-1.0387981e-07
-9.9916069e-05
2.0905245e-08
-9.9908796e-05
-9.9910935e-05
38.693254
-0.037996376
37.910893
-0.03949739
37.09163
-0.041129221
36.234841
-0.042900087
35.339555
-0.0448174
34.404277
-0.046887057
33.426799
-0.049112433
32.403976
-0.051492979
31.331518
-0.054022317
30.203801
-0.056685696
29.013758
-0.059456735
27.75291
-0.062293381
26.411638
-0.065133181
24.979805
-0.067888191
23.44787
-0.070440238
21.808598
-0.072637797
20.059407
-0.074296444
18.205227
-0.075205426
16.261464
-0.075143051
14.256361
-0.073902711
12.231726
-0.071328785
10.241056
-0.067357391
8.3444856
-0.062051988
6.6010515
-0.055620744
5.0599156
-0.04840451
3.7529669
-0.040832617
2.6909995
-0.03335576
1.8644194
-0.026374948
1.2478051
-0.020186929
0.80648357
-0.014959001
0.50306483
-0.010734193
0.30247148
-0.0074580421
0.1749022
-0.0050143278
0.096913613
-0.0032588578
0.051184661
-0.0020450251
0.025578255
-0.0012394778
0.01197871
-0.00072936447
0.0051946904
-0.00042392993
0.0020564151
-0.00025317314
0.00073104064
-0.00016543944
0.00022919614
-0.00012477491
6.2169481e-05
-0.00010811836
1.4301384e-05
-0.00010221896
2.7093745e-06
-0.000100453
3.4762307e-07
-0.00010001787
-9.383782e-08
-9.9933685e-05
-1.64943e-07
-9.9920821e-05
-9.1395534e-08
-9.991479e-05
1.756678e-08
-9.9908579e-05
-9.9910697e-05
38.465351
-0.035839991
37.685669
-0.037254879
36.869453
-0.038792977
36.016175
-0.04046207
35.124988
-0.042269227
34.194556
-0.044220148
33.222864
-0.046318256
32.207007
-0.048563409
31.14298
-0.050950155
30.025487
-0.053465413
28.847828
-0.056085465
27.601908
-0.058772236
26.278471
-0.061468904
24.867671
-0.064095121
23.360095
-0.066542482
21.748375
-0.068671356
20.029405
-0.070310841
18.207098
-0.071264199
16.295293
-0.071322303
14.320176
-0.070286971
12.321233
-0.068003839
10.349751
-0.064400583
8.4642611
-0.059521615
6.7232218
-0.053547116
5.1764467
-0.046785406
3.8575686
-0.039634783
2.7797781
-0.032522145
1.9359574
-0.025835404
1.3027463
-0.019869238
0.84684425
-0.014797515
0.53151589
-0.010674807
0.32176309
-0.0074596601
0.1875
-0.0050478505
0.10483213
-0.0033049664
0.05596171
-0.0020917535
0.028328168
-0.0012801372
0.013475477
-0.00076097848
0.0059553631
-0.00044608571
0.0024116946
-0.00026710332
0.00088073427
-0.00017320526
0.00028493477
-0.00012855274
8.0115307e-05
-0.00010969273
1.9184756e-05
-0.00010277021
3.8031803e-06
-0.00010061221
5.3999115e-07
-0.00010005518
-6.7114392e-08
-9.9940255e-05
-1.5355479e-07
-9.9920793e-05
-8.0734767e-08
-9.9913789e-05
1.4262179e-08
-9.9908403e-05
-9.9910328e-05
38.250525
-0.033902831
37.473382
-0.035240393
36.660044
-0.03669434
35.810072
-0.038272064
34.922731
-0.039980316
33.996829
-0.041824611
33.030528
-0.04380839
32.021143
-0.045931844
30.964927
-0.04819031
29.856889
-0.050572133
28.690666
-0.053055898
27.458517
-0.055606981
26.15153
-0.058173457
24.760136
-0.060681622
23.275064
-0.063031646
21.688847
-0.065094399
19.997939
-0.066711015
18.205355
-0.067697365
16.323531
-0.067855857
14.376782
-0.066996418
12.402442
-0.064966663
10.44971
-0.061687752
8.5755303
-0.057188047
6.837697
-0.051623359
5.2864945
-0.045272988
3.9570749
-0.038506891
2.8648169
-0.031729575
2.0049307
-0.025315951
1.3560459
-0.019557691
0.88622952
-0.014633785
0.55943718
-0.01060883
0.34080283
-0.0074530534
0.20000749
-0.0050732189
0.1127466
-0.0033439765
0.06077475
-0.0021329244
0.031126843
-0.0013169023
0.015018593
-0.00079021524
0.0067526784
-0.00046705395
0.0027919367
-0.00028062833
0.0010451084
-0.00018096784
0.00034804693
-0.00013245651
0.00010117341
-0.00011138196
2.5152238e-05
-0.00010338716
5.2034114e-06
-0.00010079891
8.0261808e-07
-0.00010010123
-2.6686652e-08
-9.9948991e-05
-1.403298e-07
-9.992129e-05
-7.148828e-08
-9.9913036e-05
1.1257447e-08
-9.9908241e-05
-9.9909891e-05
38.04744
-0.032153758
37.27271
-0.03342154
36.462098
-0.03479955
35.615248
-0.036294825
34.731528
-0.037913821
33.809876
-0.039661874
32.848618
-0.041542426
31.845268
-0.043555943
30.79632
-0.045698432
29.697061
-0.047959474
28.54144
-0.050319651
27.322048
-0.05274735
26.030294
-0.055194944
24.656878
-0.057594566
23.192673
-0.059853959
21.63015
-0.061853313
19.965384
-0.06344452
18.200599
-0.064454845
16.346971
-0.064697302
14.427105
-0.06398958
12.476341
-0.062181781
10.541898
-0.059190077
8.6791671
-0.055029268
6.9452084
-0.049833861
5.3906244
-0.043857188
4.05189
-0.03744328
2.9463823
-0.030975603
2.0715004
-0.024816256
1.407792
-0.019253206
0.92468095
-0.014469353
0.58684288
-0.010537987
0.35959015
-0.0074398567
0.21241708
-0.0050918176
0.12064698
-0.0033769457
0.065613916
-0.0021692509
0.033966102
-0.001350176
0.016602229
-0.00081723936
0.0075831512
-0.00048685097
0.003195514
-0.00029370032
0.0012236875
-0.00018867356
0.00041856975
-0.00013645243
0.00012549338
-0.00011317267
3.2309455e-05
-0.00010406753
6.9572195e-06
-0.00010101409
1.1505031e-06
-0.00010015695
3.085418e-08
-9.9960296e-05
-1.2474354e-07
-9.992242e-05
-6.3257158e-08
-9.9912519e-05
8.6830485e-09
-9.9908088e-05
-9.9909428e-05
37.854949
-0.030567214
37.082518
-0.031771731
36.274497
-0.033080899
35.430605
-0.034501425
34.550303
-0.036039497
33.632651
-0.037700279
32.676126
-0.039487199
31.678425
-0.041400948
30.636263
-0.043438111
29.545186
-0.045589339
28.399432
-0.047836964
27.1919
-0.050152017
25.914305
-0.052490654
24.557602
-0.054790172
23.112815
-0.05696504
21.572376
-0.058903761
19.932038
-0.060467887
18.193325
-0.061495013
16.366274
-0.061807915
14.471926
-0.061231679
12.543767
-0.059619253
10.627143
-0.056883051
8.7759264
-0.053026375
7.046393
-0.048165042
5.4893341
-0.042529087
4.1423732
-0.036438781
3.0247139
-0.030257823
2.1358133
-0.02433578
1.4580663
-0.018956362
0.96223829
-0.014305358
0.61374796
-0.010463615
0.37812646
-0.0074213763
0.22472354
-0.0051047813
0.12852546
-0.0034047627
0.070471187
-0.0022013539
0.036839051
-0.001380329
0.018221281
-0.00084222048
0.0084435821
-0.00050551307
0.003620822
-0.00030629042
0.0014159231
-0.00019627986
0.00049647197
-0.00014051035
0.00015319098
-0.00011505147
4.0753059e-05
-0.00010480836
9.1118702e-06
-0.00010125837
1.5998717e-06
-0.00010022321
1.0953289e-07
-9.9974597e-05
-1.0604829e-07
-9.9924309e-05
-5.565034e-08
-9.9912244e-05
6.5918333e-09
-9.9907947e-05
-9.9908968e-05
37.672064
-0.029122012
36.901827
-0.030268926
36.096275
-0.031515415
35.25519
-0.032867887
34.378125
-0.034332278
33.46425
-0.035913589
32.51218
-0.037615222
31.519784
-0.039438055
30.48398
-0.041379172
29.400554
-0.043430158
28.264013
-0.045574883
27.067547
-0.047786712
25.803155
-0.050025155
24.46204
-0.052232096
23.035378
-0.054328003
21.515585
-0.056208835
19.898137
-0.057744849
18.183937
-0.058783033
16.38199
-0.059155175
14.511903
-0.058693386
12.605435
-0.057253695
10.706157
-0.054745753
8.8664639
-0.051163099
7.1418093
-0.046605098
5.5830637
-0.041280823
4.2288452
-0.035488734
3.1000276
-0.029573964
2.1980033
-0.023873868
1.5069445
-0.018667492
0.99893944
-0.014142662
0.64016766
-0.010386782
0.39641454
-0.0073986735
0.23692341
-0.0051130471
0.13637597
-0.0034281775
0.075340021
-0.002229772
0.03973988
-0.0014076969
0.0198713
-0.00086532597
0.0093310621
-0.00052308978
0.004066312
-0.00031838475
0.0016212209
-0.00020375394
0.00058166628
-0.000144604
0.00018435024
-0.00011700542
5.0569763e-05
-0.0001056062
1.1713999e-05