/*--------------------------------*- C++ -*----------------------------------*\
| =========                 |                                                 |
| \\      /  F ield         | OpenFOAM: The Open Source CFD Toolbox           |
|  \\    /   O peration     | Version:  4.0                                   |
|   \\  /    A nd           | Web:      www.OpenFOAM.org                      |
|    \\/     M anipulation  |                                                 |
\*---------------------------------------------------------------------------*/
FoamFile
{
    version     2.0;
    format      ascii;
    class       volScalarField;
    location    "846";
    object      T;
}
// * * * * * * * * * * * * * * * * * * * * * * * * * * * * * * * * * * * * * //

dimensions      [0 0 0 1 0 0 0];

internalField   nonuniform List<scalar> 
5000
(
326.63058
324.67721
322.60731
320.43504
318.18005
315.86758
313.52814
311.1967
308.91128
306.71101
304.63383
302.71386
300.97896
299.44867
298.13294
297.03176
296.13592
295.42851
294.8872
294.48662
294.20069
294.00449
293.87566
293.79522
293.74784
293.72181
293.70869
293.70277
293.70049
293.69983
293.69975
293.69981
293.69987
293.69991
293.69992
293.69992
293.69993
293.69993
293.69993
293.69993
293.69993
293.69993
293.69993
293.69993
293.69993
293.69993
293.69993
293.69993
293.69993
293.69992
336.62943
334.97058
333.19365
331.29364
329.26713
327.11319
324.8347
322.43974
319.94307
317.36749
314.74466
312.11503
309.52659
307.0322
304.68545
302.53572
300.62299
298.97359
297.59773
296.48936
295.62838
294.98448
294.5217
294.20283
293.99285
293.86127
293.78327
293.73986
293.71739
293.70672
293.70215
293.70044
293.6999
293.69978
293.69977
293.69977
293.69978
293.69978
293.69978
293.69978
293.69978
293.69978
293.69978
293.69978
293.69978
293.69978
293.69978
293.69978
293.69978
293.69978
339.56339
337.99558
336.31813
334.5273
332.62016
330.59497
328.45172
326.19287
323.82432
321.35664
318.80645
316.19776
313.56293
310.94287
308.38579
305.94449
303.67178
301.61505
299.81058
298.27927
297.02466
296.03375
295.28028
294.72946
294.34303
294.08348
293.91716
293.81596
293.75785
293.72663
293.71108
293.704
293.7011
293.70005
293.69973
293.69965
293.69963
293.69963
293.69963
293.69963
293.69963
293.69963
293.69963
293.69963
293.69963
293.69963
293.69963
293.69963
293.69963
293.69963
341.10525
339.58538
337.95953
336.22425
334.37684
332.4157
330.34068
328.15362
325.85895
323.4645
320.98249
318.43054
315.83273
313.22042
310.63235
308.11379
305.71413
303.48302
301.46524
299.69539
298.19352
296.96301
295.99113
295.25215
294.71191
294.33279
294.078
293.91454
293.81489
293.75752
293.72657
293.71108
293.70398
293.70103
293.69995
293.6996
293.69951
293.69949
293.69949
293.69949
293.69949
293.69949
293.69949
293.69949
293.69949
293.69949
293.69949
293.69949
293.69949
293.69949
342.20288
340.71726
339.12812
337.43204
335.62629
333.70912
331.68008
329.54045
327.29381
324.94667
322.50924
319.99635
317.42828
314.83154
312.23934
309.69128
307.23213
304.90924
302.76861
300.85009
299.18258
297.78045
296.64206
295.75101
295.07945
294.59274
294.25408
294.02837
293.88478
293.79799
293.74847
293.72203
293.70894
293.70301
293.70059
293.69971
293.69943
293.69936
293.69934
293.69934
293.69934
293.69934
293.69934
293.69934
293.69934
293.69934
293.69934
293.69934
293.69934
293.69934
343.06056
341.60176
340.04135
338.3759
336.6026
334.71952
332.72594
330.62265
328.41254
326.10108
323.69712
321.21359
318.66837
316.08502
313.49329
310.92912
308.43388
306.05252
303.83044
301.80947
300.02316
298.4928
297.2248
296.21051
295.4283
294.84743
294.4326
294.14821
293.96153
293.84462
293.77515
293.73625
293.71591
293.70608
293.70175
293.70003
293.69943
293.69925
293.69921
293.6992
293.69919
293.69919
293.69919
293.69919
293.69919
293.69919
293.69919
293.69919
293.69919
293.69919
343.7649
342.32819
340.79144
339.1512
337.40462
335.54965
333.58531
331.51204
329.33215
327.05032
324.6743
322.21557
319.69018
317.11945
314.53058
311.9568
309.43688
307.01374
304.73193
302.63403
300.75638
299.12486
297.75183
296.63483
295.75773
295.09378
294.60982
294.27061
294.04245
293.8956
293.80556
293.75328
293.72475
293.71026
293.70349
293.70062
293.69954
293.69918
293.69908
293.69905
293.69905
293.69905
293.69905
293.69905
293.69905
293.69905
293.69905
293.69905
293.69905
293.69905
344.35893
342.94089
341.42413
339.80521
338.08124
336.25006
334.31052
332.26276
330.10866
327.85227
325.50047
323.0636
320.55623
317.99791
315.41377
312.83481
310.29765
307.84345
305.51577
303.35746
301.40661
299.69245
298.23182
297.02734
296.06768
295.32985
294.78304
294.39288
294.12528
293.94927
293.83863
293.77251
293.73519
293.71548
293.70583
293.70152
293.69978
293.69916
293.69897
293.69891
293.6989
293.6989
293.6989
293.6989
293.6989
293.6989
293.6989
293.6989
293.6989
293.6989
344.87143
343.46952
341.97005
340.36957
338.66515
336.85458
334.93656
332.911
330.77942
328.54538
326.21505
323.79784
321.30712
318.76097
316.1828
313.60172
311.05248
308.57462
306.21071
304.00352
301.99232
300.20879
298.67338
297.39294
296.3603
295.556
294.95164
294.51398
294.20893
294.00467
293.87366
293.79351
293.74702
293.72166
293.70876
293.70273
293.70017
293.6992
293.69887
293.69878
293.69876
293.69876
293.69875
293.69875
293.69875
293.69875
293.69875
293.69875
293.69876
293.69876
345.32095
343.93322
342.44893
340.86465
339.17743
337.385
335.48594
333.47999
331.36838
329.15425
326.84319
324.44385
321.96861
319.43429
316.86285
314.28177
311.72416
309.22807
306.83504
304.58757
302.52567
300.68291
299.08265
297.7353
296.63741
295.77278
295.11539
294.63329
294.29266
294.06113
293.91011
293.81591
293.76002
293.72869
293.71225
293.70427
293.70073
293.69931
293.69881
293.69866
293.69862
293.69861
293.69861
293.69861
293.69861
293.69861
293.69861
293.69861
293.69861
293.69861
345.72069
344.34559
342.87482
341.30497
339.63309
337.85683
335.97471
333.9863
331.8926
329.69642
327.40285
325.01988
322.55907
320.03617
317.47189
314.89229
312.32899
309.81869
307.40192
305.12075
303.01565
301.12163
299.46442
298.0575
296.90072
295.98091
295.27436
294.75053
294.37604
294.11821
293.9476
293.83943
293.77401
293.7365
293.71627
293.70613
293.70146
293.69951
293.69878
293.69855
293.69848
293.69847
293.69846
293.69846
293.69846
293.69846
293.69846
293.69846
293.69846
293.69846
346.0801
344.71636
343.25777
341.70092
340.04284
338.28117
336.41434
334.44178
332.36432
330.18444
327.90686
325.53901
323.09169
320.57978
318.02285
315.44575
312.87876
310.35733
307.92097
305.61128
303.46894
301.53007
299.82236
298.36195
297.15164
296.18104
295.42871
294.86555
294.45878
294.17558
293.98584
293.86383
293.78882
293.74497
293.72078
293.70831
293.70237
293.69979
293.69879
293.69845
293.69835
293.69832
293.69832
293.69832
293.69832
293.69832
293.69832
293.69832
293.69832
293.69832
346.40624
345.05282
343.60529
342.06025
340.41472
338.66632
336.81339
334.8553
332.79266
330.62774
328.36488
326.01103
323.57638
321.075
318.5255
315.95161
313.38241
310.85221
308.39955
306.06547
303.89072
301.91226
300.15942
298.65063
297.39134
296.37377
295.57863
294.9783
294.5407
294.233
294.0246
293.88893
293.80433
293.75404
293.72573
293.71079
293.70346
293.70018
293.69885
293.69837
293.69822
293.69818
293.69817
293.69817
293.69817
293.69817
293.69817
293.69817
293.69817
293.69817
346.70446
345.36049
343.92309
342.38886
340.75483
339.01858
337.17841
335.23359
333.18459
331.03345
328.78423
326.44344
324.02071
321.52942
318.98732
316.41713
313.84687
311.30975
308.84341
306.48829
304.28511
302.27143
300.47797
298.92516
297.62083
296.55962
295.7243
295.08875
294.62165
294.29031
294.06371
293.91458
293.82041
293.76361
293.73109
293.71355
293.70473
293.70066
293.69895
293.69831
293.6981
293.69804
293.69803
293.69802
293.69802
293.69802
293.69802
293.69802
293.69802
293.69802
346.97896
345.6437
344.21563
342.69136
341.06792
339.34288
337.51448
335.58192
333.54554
331.4072
329.17066
326.84208
324.43061
321.94898
319.41419
316.84805
314.27759
311.73504
309.25714
306.88375
304.65543
302.61022
300.77998
299.18691
297.84098
296.73906
295.86593
295.19692
294.70156
294.34736
294.10301
293.94064
293.83698
293.77364
293.7368
293.71657
293.70617
293.70123
293.6991
293.69827
293.69799
293.6979
293.69788
293.69788
293.69788
293.69788
293.69788
293.69788
293.69788
293.69788
347.23306
345.90587
344.48644
342.9714
341.35779
339.64313
337.82566
335.90449
333.87984
331.75342
329.52873
327.21163
324.81081
322.33844
319.81082
317.24897
314.679
312.1322
309.64449
307.25512
305.00443
302.93082
301.06712
299.43704
298.05252
296.91251
296.00369
295.30284
294.78036
294.40405
294.1424
293.96702
293.85393
293.78404
293.74284
293.71983
293.70777
293.70191
293.6993
293.69825
293.69788
293.69777
293.69774
293.69773
293.69773
293.69773
293.69773
293.69773
293.69773
293.69773
347.46944
346.14976
344.73838
343.23194
341.62747
339.9225
338.11521
336.20466
334.19097
332.0757
329.86215
327.55586
325.16514
322.70164
320.18106
317.62364
315.05468
312.5046
310.00853
307.6051
305.33442
303.2351
301.34079
299.67656
298.25613
297.08037
296.13777
295.40655
294.85802
294.4603
294.18178
293.99362
293.87121
293.79477
293.74916
293.72332
293.70953
293.70268
293.69956
293.69827
293.69779
293.69764
293.6976
293.69759
293.69758
293.69758
293.69758
293.69759
293.69759
293.69759
347.6903
346.37764
344.97379
343.47539
341.87947
340.18355
338.3858
336.4852
334.4818
332.377
330.17393
327.87786
325.49673
323.04176
320.52804
317.97516
315.40763
312.85507
310.35184
307.93599
305.64733
303.52463
301.60221
299.90636
298.45238
297.24298
296.26836
295.50812
294.93451
294.51606
294.22109
294.02037
293.88874
293.80578
293.75573
293.727
293.71143
293.70355
293.69987
293.6983
293.69771
293.69751
293.69746
293.69744
293.69744
293.69744
293.69744
293.69744
293.69744
293.69744
347.89745
346.59139
345.1946
343.70374
342.11586
340.42845
338.63965
336.7484
334.75467
332.65976
330.46659
328.1802
325.80822
323.36143
320.85441
318.3061
315.74033
313.18594
310.67658
308.24971
305.94482
303.80077
301.85245
300.1272
298.64182
297.40067
296.39561
295.60761
295.00984
294.57128
294.26026
294.04722
293.90648
293.81702
293.76252
293.73087
293.71347
293.70451
293.70023
293.69837
293.69764
293.69739
293.69732
293.6973
293.69729
293.69729
293.69729
293.69729
293.69729
293.69729
348.09242
346.79256
345.40243
343.91868
342.33836
340.65896
338.87861
336.99618
335.01159
332.92601
330.74222
328.46504
326.10178
323.66286
321.16236
318.61866
316.05491
313.49924
310.98461
308.54792
306.22833
304.06471
302.09242
300.33978
298.8249
297.55373
296.51969
295.70509
295.08402
294.62595
294.29926
294.07412
293.92438
293.82847
293.76951
293.7349
293.71563
293.70555
293.70065
293.69846
293.69759
293.69727
293.69718
293.69715
293.69715
293.69715
293.69715
293.69715
293.69715
293.69715
348.27649
346.9825
345.59865
344.12162
342.54845
340.87662
339.10425
337.23017
335.25423
333.1775
331.00262
328.7342
326.37928
323.94793
321.45379
318.91469
316.35316
313.79667
311.27752
308.83206
306.49908
304.31746
302.32295
300.54469
299.00205
297.70244
296.64076
295.80062
295.15706
294.68004
294.33805
294.10102
293.9424
293.84008
293.77667
293.73908
293.71791
293.70667
293.70111
293.69859
293.69755
293.69716
293.69704
293.69701
293.697
293.697
293.697
293.697
293.697
293.697
348.45075
347.16232
345.78442
344.31376
342.74736
341.08272
339.31791
337.45175
335.48402
333.4157
331.2493
328.98923
326.64231
324.21826
321.7303
319.19578
316.63663
314.07971
311.55668
309.10335
306.75817
304.55994
302.54475
300.74249
299.17366
297.84705
296.75896
295.89429
295.22898
294.73355
294.3766
294.12791
293.96052
293.85184
293.78398
293.7434
293.72029
293.70787
293.70163
293.69874
293.69752
293.69706
293.69691
293.69687
293.69686
293.69685
293.69685
293.69685
293.69685
293.69685
348.61616
347.333
345.96076
344.49614
342.93617
341.27835
339.52073
337.66211
335.70219
333.64188
331.48356
329.2315
326.89224
324.47522
321.99329
319.4633
316.90667
314.34964
311.82329
309.36289
307.00654
304.79294
302.75846
300.93366
299.34008
297.98778
296.87444
295.98615
295.29981
294.78646
294.41491
294.15476
293.97871
293.86373
293.79143
293.74784
293.72278
293.70914
293.70219
293.69892
293.69751
293.69696
293.69678
293.69672
293.69671
293.69671
293.69671
293.69671
293.69671
293.69671
348.77352
347.49539
346.12853
344.66966
343.11582
341.46449
339.71372
337.86227
335.9098
333.85714
331.70655
329.46214
327.13025
324.72003
322.24396
319.71846
317.16444
314.60759
312.0784
309.61163
307.24503
305.01718
302.96466
301.11865
299.50162
298.12485
296.98731
296.07628
295.36957
294.8388
294.45295
294.18154
293.99695
293.87571
293.79899
293.75239
293.72535
293.71048
293.7028
293.69912
293.69751
293.69687
293.69665
293.69658
293.69657
293.69656
293.69656
293.69656
293.69656
293.69656
348.92355
347.65021
346.28848
344.8351
343.2871
341.64197
339.89774
338.05314
336.10778
334.06243
331.91925
329.68218
327.35738
324.95372
322.48336
319.9623
317.41097
314.85453
312.32292
309.85042
307.47439
305.23329
303.16387
301.29784
299.65857
298.25845
297.0977
296.16474
295.43829
294.89055
294.49072
294.20825
294.01522
293.88778
293.80666
293.75704
293.72801
293.71189
293.70346
293.69936
293.69753
293.69679
293.69652
293.69644
293.69642
293.69642
293.69641
293.69642
293.69642
293.69642
349.06686
347.7981
346.44128
344.99314
343.45073
341.81152
340.07354
338.23549
336.29695
334.2586
332.12252
329.89251
327.57453
325.17722
322.71242
320.19575
317.64717
315.09133
312.55768
310.07999
307.69527
305.44183
303.35654
301.47161
299.81119
298.38877
297.20573
296.2516
295.506
294.94172
294.52821
294.23486
294.03351
293.89993
293.81442
293.76178
293.73075
293.71336
293.70416
293.69962
293.69756
293.69671
293.6964
293.6963
293.69628
293.69627
293.69627
293.69627
293.69627
293.69627
349.204
347.93962
346.58751
345.14439
343.60733
341.97379
340.2418
338.41002
336.47801
334.44639
332.31712
330.0939
327.78251
325.39135
322.93196
320.41961
317.87382
315.31878
312.78341
310.30103
307.90828
305.64331
303.5431
301.64026
299.95973
298.51597
297.3115
296.33691
295.57274
294.99233
294.56541
294.26137
294.05181
293.91213
293.82226
293.76661
293.73357
293.71488
293.70489
293.69991
293.69761
293.69664
293.69628
293.69616
293.69613
293.69612
293.69612
293.69612
293.69612
293.69612
349.33546
348.07529
346.72768
345.28937
343.75744
342.12935
340.4031
338.57735
336.65161
334.62644
332.50374
330.28705
327.98202
325.59682
323.14271
320.63461
318.09165
315.53755
313.00075
310.51412
308.11394
305.83819
303.72392
301.80411
300.1044
298.64021
297.4151
296.42074
295.63851
295.04237
294.60233
294.28777
294.0701
293.92439
293.83018
293.77151
293.73644
293.71646
293.70567
293.70022
293.69767
293.69658
293.69617
293.69603
293.69599
293.69598
293.69598
293.69598
293.69598
293.69598
349.46166
348.20553
346.86225
345.42857
343.90156
342.2787
340.55797
338.73801
336.8183
334.79935
332.68296
330.47258
328.1737
325.79427
323.34531
320.84141
318.30129
315.74825
313.21028
310.7198
308.31275
306.02689
303.89934
301.96343
300.24542
298.76162
297.51664
296.50314
295.70336
295.09187
294.63896
294.31406
294.08838
293.93669
293.83816
293.77648
293.73939
293.71808
293.70649
293.70056
293.69775
293.69653
293.69606
293.69589
293.69584
293.69583
293.69583
293.69583
293.69583
293.69583
349.58299
348.33074
346.99162
345.56239
344.04013
342.42229
340.70687
338.89249
336.97859
334.96562
332.85533
330.65104
328.3581
325.98429
323.54034
321.04056
318.50331
315.95145
313.41253
310.91856
308.50512
306.20978
304.06968
302.11845
300.38296
298.88035
297.6162
296.58416
295.76732
295.14082
294.6753
294.34023
294.10664
293.94902
293.8462
293.78151
293.74239
293.71976
293.70734
293.70092
293.69784
293.69648
293.69595
293.69576
293.6957
293.69569
293.69568
293.69568
293.69568
293.69568
349.6998
348.45129
347.11618
345.69123
344.17353
342.56054
340.85024
339.04123
337.13292
335.12573
333.02132
330.82293
328.53575
326.16738
323.72833
321.23261
318.69822
316.14763
313.60798
311.11084
308.69146
306.38721
304.23523
302.26942
300.5172
298.9965
297.71385
296.66385
295.83039
295.18925
294.71136
294.36627
294.12487
293.96138
293.85429
293.7866
293.74544
293.72148
293.70822
293.7013
293.69795
293.69645
293.69584
293.69563
293.69556
293.69554
293.69554
293.69554
293.69554
293.69554
349.81238
348.56748
347.23624
345.81543
344.30213
342.69381
340.98844
339.18461
337.28171
335.2801
333.18137
330.98868
328.70708
326.34401
323.90974
321.41801
318.88648
316.33725
313.79704
311.29703
308.87213
306.55949
304.39625
302.41654
300.6483
299.11021
297.80968
296.74225
295.89262
295.23715
294.74714
294.39218
294.14306
293.97376
293.86243
293.79175
293.74855
293.72324
293.70914
293.70171
293.69807
293.69642
293.69574
293.6955
293.69542
293.6954
293.69539
293.69539
293.69539
293.69539
349.92103
348.67961
347.3521
345.93528
344.42623
342.82242
341.12182
339.323
337.42532
335.42909
333.33587
331.1487
328.87252
326.51459
324.085
321.59719
319.06852
316.52072
313.98012
311.4775
309.04745
306.72691
304.55297
302.56001
300.77641
299.22157
297.90376
296.81942
295.95403
295.28455
294.78263
294.41795
294.16122
293.98615
293.87061
293.79694
293.7517
293.72505
293.71008
293.70214
293.6982
293.6964
293.69565
293.69537
293.69528
293.69525
293.69525
293.69525
293.69525
293.69524
350.02599
348.78794
347.46403
346.05107
344.54612
342.94668
341.25068
339.45671
337.56407
335.57307
333.48517
331.30336
329.03244
326.67952
324.25449
321.77054
319.24472
316.69841
314.15756
311.65258
309.21773
306.88973
304.70564
302.7
300.90166
299.33068
297.99616
296.89538
296.01463
295.33145
294.81783
294.4436
294.17934
293.99855
293.87882
293.80218
293.75489
293.72689
293.71106
293.70259
293.69835
293.69638
293.69555
293.69524
293.69514
293.69511
293.6951
293.6951
293.6951
293.6951
350.1275
348.8927
347.57228
346.16305
344.66208
343.06685
341.37532
339.58602
337.69828
335.71233
333.6296
331.45298
329.18717
326.83914
324.41856
321.9384
319.41542
316.87066
314.32969
311.82258
309.38324
307.04819
304.85444
302.83669
301.02419
299.43764
298.08694
296.97019
296.07445
295.37786
294.85277
294.46911
294.19741
294.01096
293.88707
293.80746
293.75813
293.72876
293.71206
293.70306
293.69851
293.69638
293.69547
293.69512
293.695
293.69496
293.69495
293.69495
293.69495
293.69495
350.22576
348.99411
347.67707
346.27145
344.77433
343.18319
341.49597
339.71122
337.82821
335.84717
333.76945
331.59787
329.33703
326.99375
324.57754
322.10111
319.58095
317.03778
314.49681
311.98776
309.54424
307.20253
304.99957
302.97022
301.14411
299.54254
298.17615
297.04388
296.13352
295.42379
294.88742
294.49448
294.21543
294.02337
293.89534
293.81278
293.76141
293.73067
293.7131
293.70356
293.69869
293.69638
293.69538
293.69499
293.69486
293.69482
293.69481
293.69481
293.69481
293.69481
350.32096
349.09237
347.77861
346.37648
344.88309
343.29591
341.61288
339.83253
337.95412
335.97783
333.90498
331.7383
329.4823
327.14366
324.73171
322.25895
319.74159
317.20005
314.6592
312.1484
309.70095
307.35293
305.1412
303.10074
301.26153
299.64545
298.26386
297.11648
296.19184
295.46926
294.92181
294.51971
294.2334
294.03578
293.90363
293.81813
293.76472
293.73262
293.71416
293.70407
293.69888
293.69639
293.6953
293.69487
293.69472
293.69468
293.69466
293.69466
293.69466
293.69466
350.41328
349.18766
347.87707
346.47834
344.98857
343.40523
341.72626
339.95019
338.07624
336.10457
334.03644
331.87453
329.62324
327.28913
324.88135
322.41219
319.89762
317.35774
314.81709
312.30472
309.85361
307.49961
305.2795
303.22839
301.37656
299.74645
298.35011
297.18803
296.24945
295.51426
294.95592
294.54481
294.25131
294.04818
293.91195
293.82351
293.76806
293.73459
293.71524
293.7046
293.69908
293.69641
293.69523
293.69476
293.69459
293.69453
293.69452
293.69451
293.69451
293.69451
350.50288
349.28013
347.97263
346.5772
345.09094
343.51133
341.83631
340.06438
338.19477
336.22759
334.16406
332.00679
329.76009
327.4304
325.0267
322.56109
320.04928
317.51108
314.97074
312.45694
310.0024
307.64273
305.41463
303.35328
301.4893
299.84562
298.43496
297.25856
296.30636
295.55882
294.98977
294.56977
294.26917
294.06058
293.92028
293.82893
293.77144
293.73659
293.71635
293.70514
293.69929
293.69644
293.69516
293.69464
293.69445
293.69439
293.69437
293.69437
293.69437
293.69437
350.58991
349.36996
348.06545
346.67322
345.19038
343.6144
341.94321
340.17531
338.30991
336.3471
334.28804
332.13529
329.89307
327.56769
325.16799
322.70587
320.1968
317.66031
315.12035
312.60527
310.14751
307.78246
305.54671
303.47554
301.59984
299.94302
298.51846
297.32811
296.36259
295.60294
295.02336
294.59459
294.28697
294.07296
293.92863
293.83437
293.77484
293.73862
293.71748
293.70571
293.69952
293.69648
293.6951
293.69453
293.69432
293.69425
293.69423
293.69422
293.69422
293.69422
350.6745
349.45727
348.15567
346.76656
345.28703
343.71458
342.04712
340.28315
338.42185
336.46328
334.40858
332.26023
330.02238
327.70121
325.30543
322.84674
320.34038
317.80563
315.26611
312.7499
310.28912
307.91895
305.6759
303.59528
301.70827
300.03872
298.60065
297.39669
296.41816
295.64662
295.05669
294.61927
294.30471
294.08534
293.937
293.83983
293.77828
293.74068
293.71863
293.70629
293.69976
293.69652
293.69504
293.69442
293.69418
293.69411
293.69408
293.69408
293.69408
293.69408
350.75678
349.54219
348.24344
346.85735
345.38105
343.81203
342.1482
340.38804
338.53074
336.57631
334.52585
332.3818
330.14821
327.83116
325.43922
322.9839
320.48024
317.94723
315.40823
312.891
310.42738
308.05236
305.8023
303.7126
301.81465
300.13278
298.68158
297.46435
296.47307
295.68989
295.08977
294.64381
294.32239
294.09769
293.94537
293.84532
293.78174
293.74276
293.7198
293.70689
293.70001
293.69657
293.69498
293.69431
293.69405
293.69396
293.69394
293.69393
293.69393
293.69393
350.83686
349.62486
348.32886
346.94572
345.47257
343.90689
342.24659
340.49015
338.63673
336.68634
334.64002
332.50016
330.27073
327.95771
325.56953
323.11753
320.61653
318.08529
315.54686
313.02873
310.56246
308.1828
305.92604
303.82759
301.91909
300.22526
298.76128
297.5311
296.52736
295.73274
295.12259
294.66822
294.34001
294.11004
293.95376
293.85083
293.78522
293.74487
293.721
293.70751
293.70027
293.69663
293.69493
293.6942
293.69392
293.69382
293.69379
293.69379
293.69378
293.69378
350.91487
349.70537
348.41206
347.0318
345.56171
343.99928
342.34243
340.58961
338.73998
336.79352
334.75124
332.61546
330.3901
328.08103
325.69653
323.2478
320.74945
318.21997
315.68217
313.16324
310.69448
308.31042
306.04722
303.94035
302.02163
300.31621
298.83979
297.59698
296.58103
295.77518
295.15517
294.69249
294.35756
294.12236
293.96215
293.85635
293.78873
293.747
293.72221
293.70814
293.70055
293.6967
293.69488
293.6941
293.69379
293.69368
293.69365
293.69364
293.69364
293.69364
350.99088
349.78383
348.49314
347.11568
345.64858
344.08933
342.43583
340.68655
338.84061
336.89799
334.85965
332.72787
330.50648
328.20126
325.82039
323.37487
320.87913
318.35143
315.81431
313.29468
310.82358
308.43532
306.16595
304.05095
302.12236
300.40568
298.91715
297.662
296.63411
295.81723
295.1875
294.71662
294.37505
294.13466
293.97054
293.8619
293.79227
293.74915
293.72345
293.70879
293.70083
293.69677
293.69484
293.694
293.69366
293.69354
293.69351
293.69349
293.69349
293.69349
351.06501
349.86034
348.57221
347.19748
345.7333
344.17713
342.52691
340.78108
338.93875
336.99987
334.96538
332.8375
330.61999
328.31856
325.94124
323.49889
321.00573
318.47982
315.94342
313.42318
310.94988
308.55762
306.28233
304.15949
302.22134
300.49372
298.99339
297.72619
296.68659
295.85889
295.21959
294.74062
294.39248
294.14695
293.97894
293.86746
293.79582
293.75132
293.7247
293.70945
293.70113
293.69685
293.69481
293.6939
293.69354
293.6934
293.69336
293.69335
293.69335
293.69334
351.13733
349.93499
348.64935
347.27729
345.81595
344.26281
342.61578
340.87331
339.03451
337.09928
335.06855
332.94449
330.73079
328.43306
326.05922
323.61999
321.12939
318.60526
316.06963
313.54886
311.0735
308.67742
306.39644
304.26604
302.31862
300.58038
299.06856
297.78958
296.73851
295.90016
295.25145
294.76448
294.40984
294.15921
293.98735
293.87304
293.79939
293.75351
293.72597
293.71012
293.70144
293.69695
293.69477
293.69381
293.69341
293.69327
293.69322
293.6932
293.6932
293.6932
351.20792
350.00786
348.72466
347.3552
345.89664
344.34645
342.70254
340.96336
339.128
337.19634
335.16929
333.04895
330.83898
328.54487
326.17446
323.73829
321.25023
318.72789
316.19306
313.67185
311.19454
308.79483
306.50837
304.37067
302.41427
300.6657
299.14267
297.85218
296.78987
295.94107
295.28307
294.78822
294.42713
294.17145
293.99575
293.87864
293.80299
293.75572
293.72726
293.71082
293.70176
293.69704
293.69475
293.69371
293.69329
293.69313
293.69308
293.69306
293.69305
293.69305
351.27688
350.07903
348.79821
347.4313
345.97544
344.42813
342.78728
341.05131
339.21931
337.29115
335.26769
333.151
330.94467
328.65413
326.28707
323.85393
321.36838
318.84783
316.31382
313.79224
311.31312
308.90992
306.6182
304.47345
302.50834
300.74972
299.21577
297.91401
296.84068
295.9816
295.31446
294.81182
294.44436
294.18367
294.00416
293.88424
293.8066
293.75796
293.72857
293.71152
293.70209
293.69715
293.69473
293.69362
293.69317
293.69299
293.69293
293.69291
293.69291
293.69291
351.34425
350.14858
348.87008
347.50566
346.05245
344.50796
342.87009
341.13726
339.30854
337.3838
335.36385
333.25074
331.04798
328.76093
326.39717
323.967
321.48393
318.96517
316.43204
313.91015
311.42932
309.0228
306.72601
304.57443
302.60088
300.83249
299.28788
297.9751
296.89096
296.02178
295.34563
294.83529
294.46153
294.19586
294.01257
293.88986
293.81023
293.76021
293.72989
293.71224
293.70243
293.69726
293.69471
293.69354
293.69305
293.69286
293.69279
293.69277
293.69276
293.69276
351.41012
350.21657
348.94035
347.57835
346.12774
344.586
342.95104
341.22128
339.39579
337.47438
335.45788
333.34827
331.14901
328.86538
326.50486
324.07763
321.59702
319.08004
316.5478
314.02567
311.54323
309.13353
306.83187
304.6737
302.69195
300.91404
299.35902
298.03547
296.94072
296.06161
295.37657
294.85863
294.47863
294.20803
294.02098
293.8955
293.81387
293.76248
293.73123
293.71298
293.70278
293.69738
293.6947
293.69346
293.69293
293.69272
293.69265
293.69262
293.69262
293.69262
351.47454
350.28306
349.00907
347.64945
346.20138
344.66233
343.03023
341.30347
339.48112
337.56299
335.54986
333.44368
331.24785
328.96758
326.61025
324.1859
321.70772
319.19252
316.6612
314.1389
311.65494
309.24221
306.93585
304.77129
302.78158
300.99441
299.42923
298.09513
296.98997
296.10109
295.40729
294.88185
294.49567
294.22017
294.02938
293.90114
293.81754
293.76476
293.73259
293.71373
293.70315
293.69751
293.69469
293.69338
293.69281
293.69259
293.69251
293.69248
293.69247
293.69247
351.53757
350.34813
349.07631
347.71902
346.27343
344.73702
343.10771
341.3839
339.56463
337.6497
335.63987
333.53705
331.34459
329.06761
326.71342
324.29191
321.81614
319.30272
316.77233
314.24991
311.76454
309.3489
307.03801
304.86727
302.86983
301.07363
299.49853
298.15409
297.03873
296.14023
295.4378
294.90494
294.51264
294.23229
294.03779
293.90679
293.82122
293.76707
293.73396
293.71449
293.70352
293.69765
293.69469
293.6933
293.6927
293.69245
293.69237
293.69234
293.69233
293.69232
351.59927
350.41182
349.14213
347.78713
346.34396
344.81014
343.18356
341.46263
339.64637
337.73459
335.72799
333.62846
331.4393
329.16557
326.81445
324.39576
321.92236
319.41071
316.88129
314.35879
311.87209
309.45368
307.13842
304.96169
302.95673
301.15174
299.56694
298.21239
297.08699
296.17904
295.4681
294.9279
294.52954
294.24438
294.04619
293.91246
293.82491
293.76939
293.73535
293.71526
293.7039
293.6978
293.6947
293.69323
293.69258
293.69232
293.69223
293.69219
293.69218
293.69218
351.65969
350.47419
349.20659
347.85382
346.41303
344.88174
343.25784
341.53973
339.72643
337.81772
335.8143
333.718
331.53208
329.26152
326.91344
324.49751
322.02646
319.51659
316.98815
314.46562
311.97768
309.5566
307.23713
305.0546
303.04234
301.22877
299.63449
298.27002
297.13479
296.21752
295.49818
294.95074
294.54639
294.25645
294.05459
293.91813
293.82862
293.77172
293.73675
293.71605
293.7043
293.69795
293.69471
293.69316
293.69247
293.69219
293.69209
293.69205
293.69204
293.69203
351.71888
350.53529
349.26974
347.91915
346.4807
344.95189
343.33061
341.61526
339.80487
337.89917
335.89886
333.80573
331.62299
329.35556
327.01046
324.59725
322.12854
319.62042
317.09298
314.57048
312.08136
309.65773
307.3342
305.14604
303.12668
301.30475
299.7012
298.32702
297.18211
296.25569
295.52806
294.97346
294.56316
294.26849
294.06298
293.92381
293.83235
293.77408
293.73817
293.71685
293.7047
293.69811
293.69472
293.69309
293.69236
293.69206
293.69195
293.69191
293.69189
293.69189
351.77689
350.59517
349.33163
347.98318
346.54702
345.02063
343.40193
341.68929
339.88174
337.979
335.98174
333.89172
331.71211
329.44775
327.10558
324.69506
322.22865
319.72229
317.19586
314.67342
312.18321
309.75714
307.42968
305.23607
303.20979
301.37971
299.7671
298.38339
297.22898
296.29354
295.55774
294.99606
294.57988
294.2805
294.07137
293.9295
293.83608
293.77645
293.73961
293.71766
293.70512
293.69828
293.69474
293.69303
293.69226
293.69193
293.69181
293.69176
293.69175
293.69174
351.83376
350.65387
349.3923
348.04596
346.61203
345.08803
343.47185
341.76188
339.95711
338.05728
336.06301
333.97604
331.79949
329.53815
327.19888
324.79101
322.32687
319.82226
317.29685
314.77452
312.28329
309.85488
307.52363
305.32472
303.29172
301.45367
299.83219
298.43915
297.27541
296.33108
295.58722
295.01853
294.59653
294.29249
294.07976
293.9352
293.83984
293.77883
293.74106
293.71849
293.70554
293.69845
293.69477
293.69297
293.69215
293.69181
293.69167
293.69162
293.6916
293.6916
351.88953
350.71145
349.4518
348.10752
346.6758
345.15413
343.54042
341.83306
340.03103
338.13404
336.14271
334.05875
331.88521
329.62684
327.29041
324.88515
322.42327
319.9204
317.39603
314.87384
312.38165
309.95099
307.61608
305.41203
303.37248
301.52666
299.89652
298.49432
297.3214
296.36832
295.6165
295.04089
294.61312
294.30445
294.08814
293.9409
293.8436
293.78123
293.74252
293.71933
293.70598
293.69863
293.6948
293.69292
293.69205
293.69168