/*--------------------------------*- C++ -*----------------------------------*\
| =========                 |                                                 |
| \\      /  F ield         | OpenFOAM: The Open Source CFD Toolbox           |
|  \\    /   O peration     | Version:  4.0                                   |
|   \\  /    A nd           | Web:      www.OpenFOAM.org                      |
|    \\/     M anipulation  |                                                 |
\*---------------------------------------------------------------------------*/
FoamFile
{
    version     2.0;
    format      ascii;
    class       volVectorField;
    location    "846";
    object      U;
}
// * * * * * * * * * * * * * * * * * * * * * * * * * * * * * * * * * * * * * //

dimensions      [0 1 -1 0 0 0 0];

internalField   nonuniform List<vector> 
5000
(
(2.2519241e-06 9.1265511e-22 0.0048959071)
(8.4191421e-06 2.5992937e-21 0.014221447)
(2.5045564e-05 3.8174738e-21 0.023449536)
(4.6119182e-05 2.6440726e-21 0.032447681)
(7.2063688e-05 3.3523064e-21 0.041071984)
(0.0001005862 2.5241517e-22 0.049171871)
(0.00012888481 -5.5574717e-21 0.056596552)
(0.00015380261 -2.2703834e-21 0.063203046)
(0.00017189209 3.1469768e-21 0.068865402)
(0.00017975136 -3.6317008e-21 0.073484452)
(0.00017438332 8.4421594e-21 0.076997136)
(0.00015357579 -1.0047621e-20 0.079384227)
(0.00011625397 -1.1936701e-20 0.080675206)
(6.2787599e-05 -1.1940341e-20 0.080949185)
(-4.2914454e-06 -1.1340628e-20 0.080331174)
(-8.2175732e-05 -1.0973654e-20 0.078983693)
(-0.00016727986 -1.2237429e-20 0.077094178)
(-0.00025387436 -2.2958835e-20 0.074859742)
(-0.00033674129 -9.9944352e-21 0.072471181)
(-0.00041119541 2.4788684e-20 0.070098207)
(-0.00047354999 3.673561e-20 0.067877736)
(-0.00052144373 -1.1820393e-20 0.065906562)
(-0.0005539525 -9.1647024e-22 0.064239066)
(-0.00057150546 8.2818117e-21 0.062889911)
(-0.00057565608 7.9950502e-21 0.061840978)
(-0.00056876537 3.6625418e-21 0.061051155)
(-0.0005536469 -1.087923e-20 0.060467249)
(-0.0005332137 4.172654e-21 0.060034115)
(-0.00051016107 1.5722174e-20 0.059702454)
(-0.0004867228 -5.0925199e-21 0.05943335)
(-0.00046452762 1.6382932e-21 0.059199533)
(-0.00044457215 6.0380777e-20 0.058984077)
(-0.00042729948 7.4822165e-22 0.058777717)
(-0.00041274613 0 0.058575948)
(-0.00040071271 6.53506e-22 0.058376652)
(-0.00039092657 1.0861956e-20 0.058178564)
(-0.00038317382 8.4034247e-20 0.057980449)
(-0.00037737994 -5.0141907e-22 0.05778072)
(-0.00037374732 0 0.057577282)
(-0.00037263931 4.0097434e-21 0.057367341)
(-0.00037497225 -1.9173907e-20 0.0571472)
(-0.00038206052 -3.1446309e-21 0.05691238)
(-0.00039470558 -2.714093e-22 0.056655273)
(-0.00041907871 1.1783922e-20 0.056369901)
(-0.00045060359 2.8709426e-21 0.056039284)
(-0.00051018969 1.7355469e-22 0.055647375)
(-0.00059721677 2.6668286e-21 0.055188373)
(-0.00069316866 1.1038772e-21 0.054531075)
(-0.0010655764 3.931204e-21 0.05437493)
(-0.00069559623 -1.8195983e-21 0.048593755)
(-3.2858399e-06 -1.5092384e-21 0.0057793928)
(-2.1259917e-05 -4.3884263e-21 0.016902966)
(-5.6774434e-05 -7.3242166e-21 0.028045959)
(-0.00011468831 -1.0692021e-20 0.039066179)
(-0.00019814545 -6.9351645e-21 0.049799313)
(-0.00031047925 4.789397e-21 0.060060682)
(-0.00045498601 8.0701334e-21 0.069649122)
(-0.00063465569 -8.8222759e-21 0.078353578)
(-0.00085185005 9.871708e-21 0.085962894)
(-0.0011078806 3.6596873e-21 0.092279023)
(-0.0014024875 2.6854583e-20 0.097133351)
(-0.0017332575 1.4667695e-20 0.10040509)
(-0.0020950579 -7.4983373e-20 0.10203969)
(-0.0024796186 -1.3519669e-19 0.10206437)
(-0.0028753841 -1.8401206e-19 0.10059694)
(-0.003267817 -1.8910321e-19 0.097844605)
(-0.0036402384 -2.5603586e-19 0.094090478)
(-0.0039751337 -3.0557241e-19 0.089668006)
(-0.0042558849 -3.2335417e-20 0.08492684)
(-0.0044685731 3.4050637e-19 0.080196148)
(-0.0046035503 3.278321e-20 0.075752379)
(-0.0046564662 -2.1953497e-19 0.071797303)
(-0.0046285671 -1.536109e-19 0.068449245)
(-0.0045262545 -1.3372073e-19 0.065747077)
(-0.0043600474 -1.4743256e-19 0.063663941)
(-0.0041431811 -1.8590495e-19 0.062126472)
(-0.003890094 -2.4348264e-19 0.061035352)
(-0.0036150163 -1.1745599e-19 0.060283893)
(-0.0033308232 1.0839917e-19 0.059772489)
(-0.0030482546 2.4899682e-20 0.059417892)
(-0.0027755482 3.6231824e-20 0.059157266)
(-0.0025184715 5.8183659e-21 0.058947812)
(-0.0022806696 -7.5026903e-20 0.058763389)
(-0.0020641979 -1.3164547e-20 0.058589779)
(-0.0018700823 7.417324e-21 0.058420081)
(-0.0016987746 -1.1504421e-20 0.058251136)
(-0.0015505104 3.603145e-20 0.058081269)
(-0.0014253969 -1.9334456e-20 0.057909089)
(-0.0013236003 4.0183046e-20 0.057732951)
(-0.0012457275 2.3445496e-20 0.057550924)
(-0.0011910946 -9.4348228e-20 0.057359861)
(-0.0011638721 -2.0818436e-20 0.057157231)
(-0.0011604164 1.0655623e-20 0.056937602)
(-0.0011883335 7.7676769e-20 0.056692507)
(-0.0012656057 1.6800194e-20 0.056431228)
(-0.0013283339 1.3639846e-21 0.056082073)
(-0.0016192656 -1.5678178e-20 0.055793997)
(-0.0016178461 -7.1281926e-21 0.055411015)
(-0.0023867166 -2.7121586e-20 0.056110792)
(-0.0016452016 -4.4737465e-21 0.044986952)
(-2.6073957e-06 -1.9728718e-20 0.0068823353)
(-1.7969704e-05 -5.9464387e-20 0.020196459)
(-4.8160881e-05 -1.0184096e-19 0.033612641)
(-9.7806208e-05 -1.4033754e-19 0.046972096)
(-0.00016990245 -1.7787606e-19 0.060087838)
(-0.00026767629 -2.1094614e-19 0.072745046)
(-0.00039441404 -2.4979833e-19 0.084703403)
(-0.00055327728 -3.0596521e-19 0.095702162)
(-0.00074710367 -3.3960101e-19 0.10546873)
(-0.00097814805 -3.1756166e-19 0.11373151)
(-0.001247746 -3.0974226e-19 0.12023746)
(-0.0015558933 -3.3250587e-19 0.12477414)
(-0.0019007439 -2.5245158e-19 0.12719511)
(-0.0022780565 -1.5345605e-19 0.12744583)
(-0.0026806679 -6.1535651e-20 0.12558599)
(-0.0030981156 2.1106196e-20 0.12180246)
(-0.003516588 1.1088854e-19 0.11640753)
(-0.0039193958 1.0048639e-19 0.10981858)
(-0.0042880616 4.8457408e-19 0.10251934)
(-0.0046040145 8.3211465e-19 0.095008246)
(-0.0048506575 5.0091463e-19 0.087743574)
(-0.0050154251 -5.8830506e-20 0.0810966)
(-0.0050913859 -1.5082472e-19 0.075321985)
(-0.0050780501 -2.032806e-19 0.070549266)
(-0.0049812393 -2.4198447e-19 0.06679376)
(-0.0048121106 -2.7950244e-19 0.063981022)
(-0.0045855828 -3.2836607e-19 0.061977608)
(-0.0043184849 -1.207442e-19 0.060621659)
(-0.0040277341 1.1222236e-19 0.059748808)
(-0.0037287827 -6.0859466e-20 0.059211006)
(-0.003434507 -5.3122132e-20 0.058887577)
(-0.0031546278 1.8756573e-19 0.058689063)
(-0.0028956619 -2.7152989e-20 0.058555331)
(-0.0026613217 1.5430258e-20 0.058450011)
(-0.002453209 7.2423337e-20 0.058353498)
(-0.0022715413 9.4282974e-20 0.058256421)
(-0.0021158918 1.2406473e-19 0.058154725)
(-0.0019858173 -5.469128e-20 0.058046644)
(-0.0018804282 -1.2607804e-19 0.057930936)
(-0.0018013115 7.1652529e-20 0.057806783)
(-0.001746865 1.4067979e-19 0.057672543)
(-0.0017199977 -5.6015505e-20 0.05752562)
(-0.0017327982 -7.7881913e-20 0.057369957)
(-0.0017462372 -1.6008775e-19 0.057181149)
(-0.0018932027 7.0884684e-21 0.057012431)
(-0.0018973611 -9.9483565e-21 0.056731468)
(-0.0023179533 9.4618474e-20 0.056619523)
(-0.0023227051 1.3511265e-20 0.056804331)
(-0.0029752202 1.2696791e-19 0.057321877)
(-0.0019046508 -7.0999736e-21 0.040675467)
(-1.6975669e-06 -5.3352155e-20 0.0077592002)
(-1.2574212e-05 -1.6154976e-19 0.022830906)
(-3.3861199e-05 -2.7257141e-19 0.038091641)
(-6.926355e-05 -3.9443683e-19 0.053375611)
(-0.00012134865 -5.3388631e-19 0.068484966)
(-0.00019304273 -6.4957577e-19 0.083189021)
(-0.00028755453 -6.9856117e-19 0.097225214)
(-0.00040828387 -7.2144784e-19 0.11030257)
(-0.0005587088 -7.2683416e-19 0.12210852)
(-0.00074221089 -7.1837238e-19 0.1323202)
(-0.00096181523 -6.7913612e-19 0.1406208)
(-0.0012198282 -7.3747778e-19 0.14672187)
(-0.001517362 -8.6622089e-19 0.15039088)
(-0.0018537534 -9.0121016e-19 0.15148256)
(-0.0022259143 -8.3324841e-19 0.14997036)
(-0.0026276982 -8.3487406e-19 0.1459724)
(-0.0030494235 -7.4989895e-19 0.13976469)
(-0.0034777411 -5.9864873e-19 0.13177457)
(-0.0038960469 -4.4293164e-19 0.12255021)
(-0.0042855678 3.4763607e-23 0.11270727)
(-0.0046271001 -6.4398371e-20 0.10286105)
(-0.0049031645 -1.1648687e-19 0.093557642)
(-0.0051001659 -1.8151071e-19 0.085218759)
(-0.0052100865 -2.3955739e-19 0.078111084)
(-0.0052313501 -3.997699e-19 0.072343329)
(-0.0051687185 -5.4397476e-19 0.067886918)
(-0.0050323284 -7.1497422e-19 0.064611477)
(-0.004836138 -5.67333e-19 0.062325408)
(-0.0045961157 -1.8330793e-19 0.060813676)
(-0.0043284734 -1.4892267e-19 0.059867963)
(-0.0040481778 -9.8127818e-20 0.059307087)
(-0.0037679009 2.1105125e-19 0.058987656)
(-0.0034974881 7.9569089e-20 0.058806222)
(-0.0032439268 7.0325704e-20 0.058695099)
(-0.0030117751 1.7000538e-19 0.058614495)
(-0.0028037872 2.5418015e-19 0.058543631)
(-0.0026214326 2.9103313e-19 0.058472936)
(-0.0024662646 -1.552933e-19 0.058398591)
(-0.0023382116 -7.167532e-20 0.058318942)
(-0.0022390424 1.0146256e-19 0.058233119)
(-0.0021731167 3.7050019e-19 0.058141822)
(-0.0021249935 4.798129e-21 0.058038747)
(-0.0021507755 6.5068687e-20 0.05793949)
(-0.0021265545 -2.1571235e-19 0.057804827)
(-0.0023092498 3.9181623e-21 0.057704808)
(-0.0022842554 1.342224e-19 0.057527738)
(-0.0026810254 1.1675943e-19 0.057589019)
(-0.0027502403 2.9338051e-20 0.058334933)
(-0.0030857298 1.5728146e-19 0.057704291)
(-0.0016972517 1.0554256e-20 0.036379597)
(-1.3090094e-06 -2.9508675e-20 0.008440641)
(-9.8993761e-06 -9.0326897e-20 0.024886081)
(-2.6676653e-05 -1.5487353e-19 0.041598414)
(-5.4638236e-05 -2.3431763e-19 0.058409425)
(-9.5883112e-05 -3.2111826e-19 0.075116574)
(-0.00015283702 -4.2131057e-19 0.09148145)
(-0.00022821365 -5.0398718e-19 0.10722972)
(-0.00032497188 -5.0556976e-19 0.12205333)
(-0.00044626569 -4.6068383e-19 0.13561578)
(-0.0005953539 -4.799067e-19 0.14756161)
(-0.00077544749 -4.8916079e-19 0.15753107)
(-0.00098947191 -5.3444367e-19 0.16518091)
(-0.0012397212 -7.4286996e-19 0.17021158)
(-0.0015273881 -9.9678504e-19 0.17240002)
(-0.0018519734 -1.064044e-18 0.17163564)
(-0.0022106122 -1.0122165e-18 0.16795459)
(-0.0025974086 -9.5307772e-19 0.16156518)
(-0.0030029355 -7.3186945e-19 0.15285604)
(-0.0034141019 -5.2857498e-19 0.1423794)
(-0.0038145968 -2.9892014e-19 0.13080624)
(-0.0041860352 -3.5871999e-19 0.11885737)
(-0.0045097573 -5.3411749e-19 0.10722225)
(-0.0047690157 -4.7693125e-19 0.096482949)
(-0.0049511097 -4.8905277e-19 0.087059266)
(-0.0050489955 -5.5095132e-19 0.079185191)
(-0.0050620393 -6.2306487e-19 0.072917014)
(-0.0049958086 -7.2929103e-19 0.068165654)
(-0.004861031 -7.8629521e-19 0.064741789)
(-0.0046720026 -7.2207403e-19 0.062402838)
(-0.0044447647 -5.3816024e-19 0.060893895)
(-0.0041953309 -2.3492933e-19 0.059978442)
(-0.0039382035 -1.3772272e-19 0.059457589)
(-0.0036853531 -2.1015108e-20 0.059178566)
(-0.0034457118 1.2435906e-19 0.059034328)
(-0.0032252338 2.1462717e-19 0.058956934)
(-0.0030275383 2.6448045e-19 0.058907742)
(-0.0028540769 2.0360226e-19 0.058867247)
(-0.0027061697 -1.9290171e-19 0.058826899)
(-0.0025845802 1.3823017e-19 0.058783563)
(-0.0024856434 2.0587778e-19 0.058735163)
(-0.0024270844 3.2608343e-19 0.058684864)
(-0.0023654923 6.640611e-20 0.058623752)
(-0.0024012375 2.5000569e-19 0.058570972)
(-0.0023570244 6.0799083e-20 0.05849281)
(-0.0025246479 4.1879418e-20 0.058434144)
(-0.0025111681 1.4273775e-19 0.058380222)
(-0.0028328687 1.0770285e-20 0.058648326)
(-0.0029135359 2.712838e-20 0.059669654)
(-0.0029977685 -1.1295896e-20 0.057321482)
(-0.0014199421 4.0099649e-21 0.032403815)
(-1.1814806e-06 -3.9998466e-21 0.0090232482)
(-8.7720745e-06 -1.2374739e-20 0.026643524)
(-2.3638147e-05 -2.4991328e-20 0.044597858)
(-4.8394875e-05 -3.7134126e-20 0.062716409)
(-8.4880913e-05 -5.2269958e-20 0.080793377)
(-0.00013521812 -9.6310398e-20 0.098584945)
(-0.00020177959 -1.8645709e-19 0.11580856)
(-0.00028715792 -2.7298357e-19 0.13214425)
(-0.000394133 -3.3856616e-19 0.14723884)
(-0.00052561365 -3.864618e-19 0.1607141)
(-0.00068453636 -4.2124849e-19 0.17217987)
(-0.00087370377 -4.8028898e-19 0.18125342)
(-0.0010955418 -5.5984885e-19 0.1875854)
(-0.0013517543 -6.6327894e-19 0.19089253)
(-0.0016428627 -7.1101939e-19 0.19099514)
(-0.0019676362 -6.7504026e-19 0.18785583)
(-0.0023224616 -5.8721944e-19 0.18161295)
(-0.0027007514 -4.5294669e-19 0.17260014)
(-0.0030925537 -1.3124575e-19 0.16134294)
(-0.0034845682 -1.2584578e-20 0.14852579)
(-0.003860753 -8.8974372e-20 0.13492919)
(-0.0042035997 -4.0871867e-19 0.12134545)
(-0.0044959704 -5.1805348e-19 0.10848945)
(-0.0047231794 -5.811001e-19 0.096923743)
(-0.0048748774 -6.6754626e-19 0.08701359)
(-0.0049463199 -7.0669908e-19 0.078918158)
(-0.0049387752 -7.1758196e-19 0.072613811)
(-0.00485906 -6.6365357e-19 0.067938489)
(-0.0047183826 -7.2867655e-19 0.064644124)
(-0.0045307791 -6.5140642e-19 0.062446326)
(-0.0043114317 -3.2971596e-19 0.061064634)
(-0.004075103 -2.349587e-19 0.060250493)
(-0.0038348913 -1.2507489e-19 0.059802869)
(-0.003601415 7.8890353e-20 0.059572962)
(-0.003382407 1.3860735e-19 0.059460452)
(-0.0031832278 1.6747037e-19 0.059404342)
(-0.0030067272 1.1069562e-19 0.05937158)
(-0.0028541379 -3.2422794e-20 0.059346394)
(-0.002729712 1.9201577e-19 0.059322914)
(-0.0026225498 2.7347667e-19 0.059297475)
(-0.0025630471 2.6570347e-19 0.059273493)
(-0.0024900514 1.3594818e-19 0.059243992)
(-0.0025168913 2.4718956e-19 0.059220177)
(-0.0024695242 1.7483603e-19 0.059188312)
(-0.0025995826 7.3787618e-20 0.059159766)
(-0.0025964528 1.0061744e-20 0.059223202)
(-0.002861398 -2.332747e-20 0.059712637)
(-0.0028900879 9.9619999e-21 0.060673667)
(-0.0027707891 -8.2893208e-20 0.056374019)
(-0.0011457421 -1.4611656e-22 0.029011151)
(-1.0444709e-06 1.4766958e-20 0.0095308906)
(-7.7582576e-06 4.4502864e-20 0.028176222)
(-2.0915312e-05 7.1997777e-20 0.047215945)
(-4.2845218e-05 1.1480055e-19 0.066479327)
(-7.5198983e-05 1.5033243e-19 0.08575837)
(-0.00011988858 1.5756554e-19 0.10480534)
(-0.00017906193 1.1876844e-19 0.12333153)
(-0.0002550793 1.9631588e-20 0.14100787)
(-0.00035049012 -5.6371602e-20 0.1574683)
(-0.00046798921 -3.7468584e-20 0.17231683)
(-0.0006103389 -1.0576553e-19 0.18513956)
(-0.00078024275 -1.3816833e-19 0.19552262)
(-0.00098015396 -1.6169913e-19 0.20307709)
(-0.0012119997 -1.8672294e-19 0.20747101)
(-0.0014768053 -4.234882e-19 0.20846742)
(-0.0017742157 -2.5919224e-19 0.20596552)
(-0.0021019355 -3.3173815e-20 0.20003918)
(-0.002455152 -4.2872321e-20 0.19096483)
(-0.0028260623 2.9488673e-19 0.179229)
(-0.0032036742 4.3272228e-19 0.16550685)
(-0.0035740693 2.9681714e-19 0.15060819)
(-0.0039212682 -1.3936365e-19 0.1353956)
(-0.0042286924 -3.5539429e-19 0.12068867)
(-0.0044810331 -4.6256624e-19 0.10717453)
(-0.004666166 -4.9220017e-19 0.095344008)
(-0.0047766919 -4.3227307e-19 0.085464893)
(-0.0048107767 -2.6031562e-19 0.077592871)
(-0.0047721606 -8.5490648e-20 0.071610929)
(-0.0046694122 -3.41256e-19 0.067283524)
(-0.0045146473 -5.9529127e-19 0.064312444)
(-0.0043219823 -3.9576637e-19 0.062385159)
(-0.0041059609 -2.1764926e-20 0.061210986)
(-0.0038801626 -7.2566252e-20 0.060543924)
(-0.003656195 1.6672082e-19 0.06019312)
(-0.0034429127 3.6764826e-19 0.060023087)
(-0.003246635 1.1947771e-19 0.059946511)
(-0.0030714326 9.8181461e-20 0.059912965)
(-0.0029175021 2.0388999e-19 0.059896516)
(-0.0027920929 1.1627018e-19 0.05988642)
(-0.0026796975 2.7422187e-19 0.059877414)
(-0.0026145413 1.7655142e-19 0.059870623)
(-0.0025358622 1.0557705e-19 0.059863991)
(-0.0025438298 7.2557006e-20 0.059857958)
(-0.0024942376 4.7663538e-20 0.059856228)
(-0.0025898987 6.8751133e-20 0.059860502)
(-0.0025792668 -1.2327609e-19 0.060032003)
(-0.0027988947 8.9091237e-20 0.06069905)
(-0.0027512246 2.046141e-20 0.061323352)
(-0.0024682541 7.5980407e-20 0.0550774)
(-0.00089900546 1.186768e-21 0.026183801)
(-9.5741108e-07 1.2318017e-20 0.0099878888)
(-7.0744254e-06 3.749962e-20 0.029556277)
(-1.9074699e-05 6.3282945e-20 0.049573758)
(-3.9078144e-05 9.9944948e-20 0.069868975)
(-6.8593498e-05 1.4988777e-19 0.09023222)
(-0.0001093698 2.0451908e-19 0.11041263)
(-0.00016337571 2.6088204e-19 0.1301165)
(-0.00023278063 2.5699988e-19 0.14900737)
(-0.00031993799 2.6234809e-19 0.16670864)
(-0.00042735203 3.5746975e-19 0.18280983)
(-0.00055761607 4.5297955e-19 0.19687753)
(-0.00071331026 5.9034901e-19 0.20847224)
(-0.0008968448 7.2160292e-19 0.21717226)
(-0.0011102305 5.8720926e-19 0.22260494)
(-0.0013547619 2.3733094e-19 0.22448478)
(-0.0016306053 -4.6864745e-20 0.22265599)
(-0.0019363025 -1.0479676e-19 0.21713454)
(-0.002268233 -4.2001822e-19 0.20814214)
(-0.0026201236 -6.1355132e-19 0.19612253)
(-0.0029827474 -5.1348388e-19 0.18173023)
(-0.0033439804 -2.6305423e-19 0.16578578)
(-0.0036893718 -1.5078683e-19 0.14919885)
(-0.0040032871 -2.3914903e-19 0.13287046)
(-0.0042705233 -3.0159651e-19 0.1175936)
(-0.0044781202 -3.4420354e-19 0.10397384)
(-0.00461699 -3.1699268e-19 0.092385655)
(-0.0046830102 -2.8298734e-19 0.082969732)
(-0.0046773761 -7.2777677e-20 0.075664719)
(-0.0046062057 1.4873965e-19 0.070260319)
(-0.0044795511 -1.1023116e-19 0.06645701)
(-0.0043100598 -7.3101229e-20 0.063920978)
(-0.0041115145 1.0273493e-19 0.062327593)
(-0.0038974282 9.2905477e-20 0.061391071)
(-0.0036799615 2.0987218e-19 0.060880708)
(-0.0034689677 3.8422245e-19 0.060625502)
(-0.0032716814 3.4823e-19 0.060509744)
(-0.0030936759 4.7659104e-19 0.060462822)
(-0.0029349608 5.0879426e-19 0.060446186)
(-0.0028041011 2.8253386e-19 0.060441971)
(-0.0026857157 4.3053197e-19 0.060442682)
(-0.0026102932 2.3910212e-19 0.060446077)
(-0.00252621 2.6139116e-19 0.060453399)
(-0.0025153848 -3.8595585e-19 0.06045901)
(-0.0024582276 -1.669613e-19 0.060474574)
(-0.0025285127 3.4924278e-20 0.060516274)
(-0.0025032779 -1.2110346e-19 0.060788513)
(-0.0026786158 1.0382584e-19 0.061549136)
(-0.0025581842 4.6252837e-20 0.061637883)
(-0.0021535219 1.3698262e-19 0.053597798)
(-0.00069883352 2.7128145e-20 0.023854658)
(-8.7770329e-07 -2.7370297e-20 0.010403655)
(-6.4824207e-06 -8.0397063e-20 0.030812363)
(-1.7482905e-05 -1.3138478e-19 0.051720647)
(-3.5827854e-05 -1.8546363e-19 0.072956806)
(-6.2910412e-05 -2.3664097e-19 0.094309856)
(-0.00010034896 -2.6241177e-19 0.11552643)
(-0.00014996983 -2.335385e-19 0.13630875)
(-0.00021379254 -2.7975918e-19 0.15631417)
(-0.00029401793 -3.2613938e-19 0.17515729)
(-0.00039300247 -3.8865754e-19 0.19241534)
(-0.00051320776 -3.6704826e-19 0.20763836)
(-0.00065711559 -3.9016851e-19 0.22036498)
(-0.00082709483 -4.4842769e-19 0.23014541)
(-0.0010252049 -3.0572757e-19 0.23657184)
(-0.0012529203 -2.8435203e-20 0.23931646)
(-0.0015107678 -4.4058957e-19 0.2381748)
(-0.0017978783 -8.5464457e-19 0.23311035)
(-0.0021114859 -1.0469401e-18 0.22429331)
(-0.0024464417 -1.4457626e-18 0.21212393)
(-0.0027948591 -1.5140309e-18 0.19723017)
(-0.0031460444 -1.3175027e-18 0.18043176)
(-0.0034868631 -7.2931086e-19 0.16266947)
(-0.0038026376 -4.2421105e-19 0.1449079)
(-0.0040785352 -2.4911873e-19 0.12802981)
(-0.0043012428 -1.7993552e-19 0.11274415)
(-0.0044606009 -3.8219552e-19 0.099527307)
(-0.0045508426 -4.7617129e-19 0.088606409)
(-0.0045711923 -1.7463724e-19 0.079982063)
(-0.0045257499 3.1332735e-19 0.073478198)
(-0.0044227542 2.7119535e-19 0.068803713)
(-0.0042734353 3.6368817e-19 0.065612532)
(-0.0040906753 2.1002016e-19 0.063553497)
(-0.0038876368 1.7471347e-19 0.062306337)
(-0.003676629 1.8476068e-19 0.061603461)
(-0.003468133 1.1849503e-19 0.061239084)
(-0.0032700231 4.0196443e-19 0.06106806)
(-0.0030888584 6.3040226e-19 0.060997446)
(-0.0029252747 3.0478415e-19 0.060973835)
(-0.0027874919 2.1742039e-19 0.060970277)
(-0.0026626507 2.9148798e-19 0.060975523)
(-0.0025760512 -4.8118989e-20 0.060984368)
(-0.0024841782 1.4677474e-19 0.060998176)
(-0.0024573038 -3.4344513e-19 0.061010766)
(-0.002389143 -2.1661788e-19 0.061037264)
(-0.0024385164 1.7302442e-20 0.061118307)
(-0.0023989036 2.211274e-20 0.061479511)
(-0.0025270663 -7.2412708e-21 0.062240007)
(-0.0023451242 3.7400036e-20 0.061670474)
(-0.0018546888 -4.3259337e-20 0.052061565)
(-0.00054002779 2.5271818e-20 0.021972189)
(-8.1592103e-07 -2.4827941e-20 0.010787047)
(-6.0158805e-06 -7.3568306e-20 0.031970908)
(-1.6227118e-05 -1.2487981e-19 0.053701263)
(-3.3259296e-05 -1.7426952e-19 0.075806227)
(-5.8409981e-05 -2.397069e-19 0.098073817)
(-9.3188346e-05 -3.047791e-19 0.12024861)
(-0.00013930048 -3.6952529e-19 0.14202938)
(-0.00019863739 -4.3937364e-19 0.16306825)
(-0.00027326692 -4.9879224e-19 0.18297223)
(-0.00036541358 -5.3857623e-19 0.20130804)
(-0.00047741731 -5.4567545e-19 0.21761138)
(-0.00061166201 -5.9506365e-19 0.23140192)
(-0.00077046158 -6.8473462e-19 0.24220534)
(-0.00095588881 -8.0942203e-19 0.24958299)
(-0.0011695332 -8.5245862e-19 0.25316956)
(-0.0014121771 -8.6435185e-19 0.25271693)
(-0.0016833878 -9.9857451e-19 0.24814068)
(-0.0019810494 -1.1463292e-18 0.23956261)
(-0.0023008878 -1.2691842e-18 0.22733998)
(-0.0026360872 -1.3836662e-18 0.21207097)
(-0.0029771345 -1.3258287e-18 0.19456696)
(-0.0033120402 -9.5199444e-19 0.17578834)
(-0.0036270419 -6.9261185e-19 0.15674963)
(-0.0039077974 -4.6916239e-19 0.13840989)
(-0.0041409187 -1.9061537e-19 0.12157095)
(-0.0043155643 6.1112338e-20 0.10680511)
(-0.0044247562 -2.3009721e-19 0.094425103)
(-0.0044661499 -4.4828521e-19 0.084496845)
(-0.0044421386 1.7636022e-20 0.076884656)
(-0.0043593358 3.6144188e-19 0.071313239)
(-0.0042276051 3.2848348e-19 0.067431628)
(-0.0040588469 2.304821e-19 0.064868632)
(-0.0038657073 1.7409062e-19 0.063274616)
(-0.0036604242 1.5020673e-19 0.06234852)
(-0.0034538626 1.726593e-19 0.061851388)
(-0.0032545088 3.5854133e-19 0.061608602)
(-0.0030695584 5.2760618e-19 0.061503617)
(-0.0029007361 3.3563342e-19 0.061466305)
(-0.0027556244 1.91226e-19 0.061459031)
(-0.0026236419 1.7658099e-19 0.061464903)
(-0.0025267951 -1.3381152e-19 0.061475988)
(-0.0024258707 -5.7712052e-20 0.061491761)
(-0.0023851961 -2.9785641e-19 0.06150804)
(-0.0023064262 -1.9245151e-19 0.061544591)
(-0.0023362918 5.8331034e-21 0.061665128)
(-0.0022848974 4.2800832e-20 0.062095998)
(-0.0023639586 -3.3015244e-20 0.062769519)
(-0.0021341896 1.6036593e-20 0.061480161)
(-0.0015882454 -8.1565466e-20 0.050542602)
(-0.00041650606 1.5116507e-20 0.020453203)
(-7.6265163e-07 -4.3517745e-20 0.011143462)
(-5.618865e-06 -1.3092662e-19 0.033048194)
(-1.5158498e-05 -2.2463184e-19 0.055543389)
(-3.1074292e-05 -3.2405896e-19 0.078457106)
(-5.4583339e-05 -4.1369281e-19 0.10157659)
(-8.7102909e-05 -5.1501095e-19 0.12464469)
(-0.0001302376 -6.2753841e-19 0.14735726)
(-0.00018576989 -6.604781e-19 0.16936188)
(-0.00025565473 -7.2185675e-19 0.19025898)
(-0.00034200373 -6.6680162e-19 0.20960604)
(-0.0004470506 -4.9188475e-19 0.22692619)
(-0.00057309015 -2.464779e-19 0.24172239)
(-0.00072237926 6.7183325e-20 0.25349859)
(-0.00089698675 -1.5534407e-19 0.2617887)
(-0.0010985781 -6.5015841e-19 0.26619375)
(-0.0013281226 -7.4075101e-19 0.26642608)
(-0.0015855207 -7.2405567e-19 0.2623572)
(-0.0018691656 -3.4414706e-19 0.2540634)
(-0.0021754821 -8.4697868e-20 0.24186001)
(-0.0024985284 1.4327062e-19 0.22631358)
(-0.0028297804 -5.965797e-19 0.20822197)
(-0.0031582417 -7.7858965e-19 0.18855674)
(-0.0034709942 -8.3981142e-19 0.16837159)
(-0.0037542251 -8.9311706e-19 0.14869076)
(-0.003994627 -9.7498742e-19 0.13039953)
(-0.0041809296 -5.572467e-19 0.11416005)
(-0.0043052536 -5.4035279e-20 0.1003686)
(-0.0043640042 -8.8954076e-20 0.089158082)
(-0.0043581477 -4.1399979e-19 0.080437474)
(-0.0042928764 1.4253316e-19 0.073952955)
(-0.0041767968 3.1562426e-19 0.069354652)
(-0.0040208375 2.8286085e-19 0.066256884)
(-0.0038370399 2.9069593e-19 0.064285258)
(-0.0036374145 3.8153718e-19 0.063108632)
(-0.0034329716 5.3904421e-19 0.062456849)
(-0.0032326888 3.9124111e-19 0.062126381)
(-0.0030442083 5.9202556e-19 0.061976472)
(-0.0028702274 8.6690399e-19 0.061918839)
(-0.0027181652 4.450692e-19 0.061903793)
(-0.0025787585 1.7044518e-19 0.061907208)
(-0.0024725763 1.0574331e-19 0.061917931)
(-0.002362811 -1.3503705e-19 0.061933219)
(-0.0023094947 -4.1471847e-19 0.061951275)
(-0.002222479 -2.027912e-19 0.061999424)
(-0.0022334521 -7.6667258e-22 0.062157945)
(-0.0021733542 3.5946733e-20 0.062633198)
(-0.0022044497 -2.5257393e-20 0.06314745)
(-0.0019393032 4.180285e-21 0.061120918)
(-0.0013616817 -8.8100924e-20 0.049081586)
(-0.00032263524 3.4095857e-22 0.01922331)
(-7.1784664e-07 -1.9641643e-20 0.011477304)
(-5.284204e-06 -6.0106519e-20 0.034057436)
(-1.4257287e-05 -1.0376714e-19 0.057269464)
(-2.9230485e-05 -1.5287199e-19 0.080941483)
(-5.135196e-05 -1.9486519e-19 0.10486012)
(-8.1959864e-05 -2.4114407e-19 0.1287668)
(-0.00012257128 -2.7969163e-19 0.15235479)
(-0.00017487451 -3.0578504e-19 0.17526772)
(-0.00024072561 -3.4103557e-19 0.19710021)
(-0.000322136 -3.8100363e-19 0.21740157)
(-0.00042124344 -3.7438409e-19 0.23568374)
(-0.00054025956 -3.4780276e-19 0.25143478)
(-0.00068138292 -3.0614646e-19 0.26413918)
(-0.00084666565 -3.0088693e-19 0.27330616)
(-0.0010378205 -3.7610959e-19 0.2785063)
(-0.001255955 -3.8763977e-19 0.27941583)
(-0.0015012286 -4.0081325e-19 0.27586554)
(-0.0017724416 -3.4831744e-19 0.26788884)
(-0.0020665899 -2.3454334e-19 0.25576039)
(-0.0023784601 -1.9060635e-19 0.24001426)
(-0.002700372 -3.0667059e-19 0.22143107)
(-0.0030222023 -5.6546898e-19 0.20098712)
(-0.0033318105 -6.8665973e-19 0.17976669)
(-0.0036159236 -6.4862871e-19 0.15884987)
(-0.0038614101 -6.2188972e-19 0.13919703)
(-0.0040567446 -6.2420338e-19 0.1215543)
(-0.0041933712 -4.1660937e-19 0.10639887)
(-0.0042666842 2.352849e-20 0.093931151)
(-0.0042764444 1.3311458e-19 0.084107766)
(-0.004226598 2.8370129e-20 0.076700755)
(-0.0041246063 2.5881463e-19 0.07136623)
(-0.0039804626 2.9743771e-19 0.067708739)
(-0.0038055637 3.3026383e-19 0.065333234)
(-0.0036116097 3.8997241e-19 0.063881708)
(-0.0034096125 5.5563315e-19 0.06305494)
(-0.0032088925 6.1690431e-19 0.062621448)
(-0.0030175048 7.1808261e-19 0.06241616)
(-0.002838845 9.2830963e-19 0.062331675)
(-0.0026805828 5.7100202e-19 0.062304994)
(-0.0025342652 2.6086872e-19 0.062303564)
(-0.0024195598 1.2310384e-19 0.062312026)
(-0.0023022488 -1.7558279e-19 0.062325824)
(-0.0022370822 -4.0039896e-19 0.062345324)
(-0.0021445176 -2.0232853e-19 0.062407239)
(-0.0021373174 -5.656976e-21 0.062600557)
(-0.0020704858 2.9163878e-20 0.063091977)
(-0.0020571916 -1.9738276e-20 0.063391372)
(-0.001765947 -7.3527954e-21 0.06063983)
(-0.0011741175 -7.3325345e-20 0.047700313)
(-0.00025221232 -6.7513798e-21 0.018223743)
(-6.7898327e-07 -3.0618776e-21 0.011791837)
(-4.9949689e-06 -8.6598413e-21 0.035008456)
(-1.3478378e-05 -1.3004522e-20 0.058896216)
(-2.7636751e-05 -1.4640388e-20 0.083283318)
(-4.8558498e-05 -3.7074528e-20 0.10795591)
(-7.7513182e-05 -5.7634613e-20 0.13265417)
(-0.0001159418 -7.8156987e-20 0.15706914)
(-0.0001654504 -1.543873e-19 0.18084092)
(-0.00022780836 -2.288215e-19 0.20355896)
(-0.00030493839 -3.1663773e-19 0.22476523)
(-0.0003988922 -4.7816753e-19 0.24396164)
(-0.00051180488 -6.552072e-19 0.26062281)
(-0.00064581766 -8.3938229e-19 0.27421566)
(-0.00080295889 -7.4579541e-19 0.284227)
(-0.00098496953 -2.8083799e-19 0.29019963)
(-0.0011930607 -2.8715778e-19 0.29177657)
(-0.0014275958 -2.0470546e-19 0.2887508)
(-0.0016877051 -3.6139334e-19 0.28111534)
(-0.0019708587 -3.856729e-19 0.26910551)
(-0.0022724589 -5.4415939e-19 0.25322256)
(-0.0025855528 -1.4759352e-19 0.23422734)
(-0.0029007887 -3.1358927e-19 0.21309579)
(-0.003206741 -3.4940152e-19 0.19093583)
(-0.0034906698 -2.4625371e-19 0.16887546)
(-0.0037396802 -7.1778366e-20 0.14794273)
(-0.0039421143 -1.6651391e-19 0.12896218)
(-0.0040889085 -5.3675806e-19 0.11248901)
(-0.0041746358 -1.1082435e-19 0.098790966)
(-0.0041980324 4.4229318e-19 0.08787434)
(-0.0041619508 2.8696304e-19 0.07954048)
(-0.0040728151 3.5586755e-19 0.073455518)
(-0.0039397379 3.4890069e-19 0.069218244)
(-0.0037734628 3.6433572e-19 0.066416573)
(-0.0035853165 3.7427234e-19 0.064668587)
(-0.0033862222 2.7481187e-19 0.063648143)
(-0.0031856918 5.5687015e-19 0.063096998)
(-0.0029921624 6.4723956e-19 0.062826011)
(-0.0028095543 6.0713471e-19 0.062708113)
(-0.0026458709 3.6411553e-19 0.062665952)
(-0.0024935673 1.9524705e-19 0.062657609)
(-0.0023710564 -1.7804453e-19 0.062662526)
(-0.0022478087 -1.4550221e-19 0.062674696)
(-0.0021716783 -9.3149956e-20 0.062696573)
(-0.0020757364 -1.8694799e-19 0.062774065)
(-0.0020516757 -1.5728494e-20 0.062997286)
(-0.0019788304 2.1220034e-20 0.063476273)
(-0.0019262203 -1.446669e-20 0.063520209)
(-0.0016155998 -7.3105925e-21 0.060073475)
(-0.0010216931 -6.6422429e-20 0.046405219)
(-0.00020007123 -1.1796051e-20 0.017401287)
(-6.4507529e-07 -2.0906648e-20 0.012089666)
(-4.7429238e-06 -6.3170939e-20 0.035909096)
(-1.2799683e-05 -1.0877753e-19 0.060436993)
(-2.6247856e-05 -1.571612e-19 0.085501718)
(-4.6123496e-05 -2.0063047e-19 0.11088905)
(-7.3636011e-05 -2.4851509e-19 0.13633808)
(-0.00011015936 -2.9679365e-19 0.16153788)
(-0.00015722686 -3.5343299e-19 0.18612541)
(-0.00021653068 -4.2937279e-19 0.20968542)
(-0.00028991444 -4.9851952e-19 0.2317533)
(-0.00037935222 -5.3996021e-19 0.25182184)
(-0.00048690817 -5.7425669e-19 0.26935346)
(-0.00061466812 -6.0687721e-19 0.28379908)
(-0.00076463225 -6.1845192e-19 0.29462499)
(-0.00093855629 -5.4745932e-19 0.3013485)
(-0.0011377286 -4.1351048e-19 0.30358195)
(-0.0013626764 -3.0284696e-19 0.30108303)
(-0.0016128018 -4.5102668e-19 0.29380661)
(-0.0018859715 -5.3813564e-19 0.28195012)
(-0.0021781141 -6.333254e-19 0.26598203)
(-0.0024829101 -3.2317749e-19 0.24664153)
(-0.0027916965 -8.9667262e-20 0.22490034)
(-0.0030937039 -5.9727465e-20 0.20188418)
(-0.0033767102 2.9763954e-20 0.17876223)
(-0.0036280956 1.4222219e-19 0.15662361)
(-0.0038361588 1.6494792e-19 0.13636605)
(-0.0039914571 -1.0520205e-19 0.11861972)
(-0.004087892 -1.387897e-19 0.10371907)
(-0.0041233262 1.7096586e-19 0.091721409)
(-0.0040996512 3.2969033e-19 0.082460111)
(-0.0040223526 3.8641016e-19 0.075614681)
(-0.0038997203 3.5761189e-19 0.070781601)
(-0.0037418595 3.3263059e-19 0.067534921)
(-0.0035596883 3.1084593e-19 0.065471505)
(-0.0033639767 2.8756589e-19 0.064240344)
(-0.0031643168 4.1773631e-19 0.06355774)
(-0.0029694517 5.6136132e-19 0.063210971)
(-0.0027837773 5.359646e-19 0.063053084)
(-0.0026154761 3.1923471e-19 0.062991573)