/*--------------------------------*- C++ -*----------------------------------*\
| =========                 |                                                 |
| \\      /  F ield         | OpenFOAM: The Open Source CFD Toolbox           |
|  \\    /   O peration     | Version:  4.0                                   |
|   \\  /    A nd           | Web:      www.OpenFOAM.org                      |
|    \\/     M anipulation  |                                                 |
\*---------------------------------------------------------------------------*/
FoamFile
{
    version     2.0;
    format      ascii;
    class       volScalarField;
    location    "4000/fluid";
    object      G;
}
// * * * * * * * * * * * * * * * * * * * * * * * * * * * * * * * * * * * * * //

dimensions      [1 0 -3 0 0 0 0];

internalField   nonuniform List<scalar> 
5000
(
4592.8122
4592.8124
4592.8092
4592.8032
4592.7969
4592.7909
4592.7848
4592.7783
4592.7715
4592.7645
4592.7573
4592.7499
4592.7422
4592.7343
4592.7262
4592.7178
4592.7092
4592.7004
4592.6917
4592.6828
4592.6731
4592.6613
4592.6454
4592.6232
4592.5928
4592.5531
4592.5035
4592.4443
4592.3761
4592.2999
4592.2175
4592.1318
4592.0466
4591.9667
4591.896
4591.8372
4591.7909
4591.7559
4591.7296
4591.7094
4591.6929
4591.6782
4591.6644
4591.6507
4591.6371
4591.6234
4591.6097
4591.5953
4591.5836
4591.5605
4843.6244
4843.6245
4843.6218
4843.6166
4843.6111
4843.6059
4843.6006
4843.5949
4843.5891
4843.583
4843.5768
4843.5703
4843.5636
4843.5568
4843.5497
4843.5424
4843.5349
4843.5273
4843.5197
4843.512
4843.5036
4843.4934
4843.4796
4843.4603
4843.4339
4843.3993
4843.3562
4843.3046
4843.2452
4843.1788
4843.1069
4843.0321
4842.9577
4842.8878
4842.826
4842.7745
4842.734
4842.7033
4842.6804
4842.6627
4842.6482
4842.6354
4842.6233
4842.6113
4842.5994
4842.5874
4842.5755
4842.563
4842.5528
4842.5326
5041.4378
5041.4379
5041.4356
5041.431
5041.4262
5041.4217
5041.4171
5041.4122
5041.4071
5041.4019
5041.3964
5041.3908
5041.385
5041.379
5041.3729
5041.3666
5041.3601
5041.3535
5041.3469
5041.3402
5041.3329
5041.324
5041.312
5041.2952
5041.2722
5041.2421
5041.2046
5041.1597
5041.1079
5041.05
5040.9873
5040.9219
5040.8569
5040.7959
5040.7419
5040.6969
5040.6615
5040.6347
5040.6147
5040.5992
5040.5866
5040.5754
5040.5648
5040.5544
5040.544
5040.5336
5040.5232
5040.5122
5040.5034
5040.4858
5193.8966
5193.8967
5193.8946
5193.8906
5193.8864
5193.8825
5193.8784
5193.8741
5193.8696
5193.865
5193.8602
5193.8553
5193.8502
5193.8449
5193.8395
5193.8339
5193.8282
5193.8224
5193.8166
5193.8107
5193.8043
5193.7965
5193.7859
5193.7712
5193.7509
5193.7244
5193.6914
5193.6518
5193.6062
5193.5552
5193.4998
5193.4422
5193.3849
5193.331
5193.2834
5193.2437
5193.2125
5193.1888
5193.1712
5193.1576
5193.1464
5193.1366
5193.1273
5193.1181
5193.109
5193.0998
5193.0906
5193.081
5193.0732
5193.0577
5313.6666
5313.6667
5313.6648
5313.6613
5313.6575
5313.654
5313.6504
5313.6466
5313.6426
5313.6385
5313.6342
5313.6298
5313.6253
5313.6206
5313.6158
5313.6109
5313.6058
5313.6006
5313.5955
5313.5902
5313.5845
5313.5776
5313.5682
5313.555
5313.537
5313.5135
5313.484
5313.4488
5313.4082
5313.3627
5313.3135
5313.2621
5313.2111
5313.1631
5313.1206
5313.0853
5313.0575
5313.0365
5313.0208
5313.0087
5312.9988
5312.99
5312.9817
5312.9736
5312.9655
5312.9573
5312.9492
5312.9406
5312.9337
5312.9199
5409.2094
5409.2094
5409.2078
5409.2046
5409.2012
5409.198
5409.1948
5409.1913
5409.1877
5409.184
5409.1802
5409.1762
5409.1721
5409.1679
5409.1636
5409.1591
5409.1545
5409.1499
5409.1452
5409.1405
5409.1353
5409.1291
5409.1206
5409.1087
5409.0925
5409.0712
5409.0447
5409.0129
5408.9762
5408.9352
5408.8907
5408.8444
5408.7983
5408.755
5408.7168
5408.6849
5408.6599
5408.6409
5408.6267
5408.6158
5408.6069
5408.599
5408.5915
5408.5842
5408.5769
5408.5695
5408.5622
5408.5545
5408.5482
5408.5358
5486.9538
5486.9538
5486.9523
5486.9494
5486.9463
5486.9434
5486.9405
5486.9373
5486.934
5486.9306
5486.9271
5486.9235
5486.9198
5486.916
5486.912
5486.9079
5486.9038
5486.8995
5486.8953
5486.8909
5486.8862
5486.8805
5486.8728
5486.862
5486.8472
5486.8277
5486.8035
5486.7745
5486.7411
5486.7036
5486.6631
5486.6208
5486.5788
5486.5394
5486.5045
5486.4755
5486.4526
5486.4354
5486.4224
5486.4125
5486.4044
5486.3972
5486.3904
5486.3838
5486.3771
5486.3704
5486.3638
5486.3567
5486.351
5486.3398
5551.3535
5551.3535
5551.3521
5551.3494
5551.3466
5551.3439
5551.3412
5551.3383
5551.3352
5551.3321
5551.3289
5551.3256
5551.3221
5551.3186
5551.3149
5551.3112
5551.3073
5551.3034
5551.2995
5551.2955
5551.2912
5551.2859
5551.2787
5551.2688
5551.2551
5551.2372
5551.2149
5551.1881
5551.1573
5551.1228
5551.0854
5551.0465
5551.0078
5550.9715
5550.9394
5550.9127
5550.8917
5550.8758
5550.8639
5550.8548
5550.8474
5550.8408
5550.8345
5550.8284
5550.8223
5550.8161
5550.81
5550.8036
5550.7984
5550.788
5605.7307
5605.7307
5605.7294
5605.7269
5605.7243
5605.7218
5605.7192
5605.7165
5605.7137
5605.7108
5605.7078
5605.7047
5605.7015
5605.6982
5605.6948
5605.6913
5605.6877
5605.6841
5605.6805
5605.6767
5605.6727
5605.6678
5605.6612
5605.6519
5605.6392
5605.6225
5605.6017
5605.5769
5605.5482
5605.5162
5605.4815
5605.4453
5605.4095
5605.3758
5605.346
5605.3213
5605.3019
5605.2872
5605.2762
5605.2677
5605.2608
5605.2548
5605.249
5605.2433
5605.2377
5605.232
5605.2264
5605.2204
5605.2156
5605.206
5652.4068
5652.4068
5652.4056
5652.4032
5652.4008
5652.3984
5652.396
5652.3935
5652.3909
5652.3881
5652.3853
5652.3824
5652.3794
5652.3763
5652.3732
5652.3699
5652.3665
5652.3631
5652.3597
5652.3562
5652.3524
5652.3478
5652.3416
5652.3329
5652.321
5652.3054
5652.286
5652.2627
5652.2359
5652.2059
5652.1735
5652.1398
5652.1063
5652.0749
5652.0472
5652.0242
5652.0061
5651.9924
5651.9822
5651.9743
5651.9679
5651.9623
5651.9569
5651.9517
5651.9464
5651.9412
5651.9359
5651.9304
5651.926
5651.9171
5693.11
5693.11
5693.1089
5693.1066
5693.1043
5693.1021
5693.0999
5693.0975
5693.095
5693.0924
5693.0898
5693.087
5693.0842
5693.0813
5693.0783
5693.0752
5693.072
5693.0688
5693.0656
5693.0623
5693.0588
5693.0544
5693.0486
5693.0404
5693.0292
5693.0145
5692.9962
5692.9743
5692.9491
5692.921
5692.8906
5692.859
5692.8276
5692.7983
5692.7723
5692.7508
5692.7339
5692.7212
5692.7116
5692.7043
5692.6984
5692.6931
5692.6882
5692.6833
5692.6784
5692.6735
5692.6687
5692.6636
5692.6594
5692.6512
5729.073
5729.0731
5729.072
5729.0699
5729.0677
5729.0656
5729.0635
5729.0612
5729.0589
5729.0564
5729.0539
5729.0513
5729.0487
5729.0459
5729.0431
5729.0402
5729.0372
5729.0341
5729.0311
5729.028
5729.0246
5729.0205
5729.015
5729.0072
5728.9966
5728.9828
5728.9655
5728.9449
5728.9211
5728.8946
5728.866
5728.8363
5728.8069
5728.7793
5728.7551
5728.7349
5728.7192
5728.7072
5728.6984
5728.6916
5728.686
5728.6811
5728.6765
5728.672
5728.6675
5728.663
5728.6585
5728.6537
5728.6499
5728.6423
5761.2287
5761.2287
5761.2277
5761.2257
5761.2236
5761.2216
5761.2196
5761.2175
5761.2152
5761.2129
5761.2106
5761.2081
5761.2056
5761.2029
5761.2003
5761.1975
5761.1946
5761.1918
5761.1889
5761.1859
5761.1827
5761.1788
5761.1736
5761.1663
5761.1562
5761.1431
5761.1267
5761.1072
5761.0848
5761.0598
5761.0328
5761.0049
5760.9773
5760.9515
5760.9288
5760.91
5760.8952
5760.8841
5760.8758
5760.8695
5760.8644
5760.8599
5760.8556
5760.8514
5760.8472
5760.843
5760.8389
5760.8345
5760.831
5760.824
5790.2638
5790.2639
5790.2629
5790.261
5790.259
5790.2571
5790.2552
5790.2531
5790.251
5790.2488
5790.2466
5790.2442
5790.2418
5790.2393
5790.2368
5790.2341
5790.2314
5790.2287
5790.2259
5790.2231
5790.2201
5790.2164
5790.2114
5790.2045
5790.195
5790.1825
5790.167
5790.1485
5790.1273
5790.1037
5790.0784
5790.0521
5790.0262
5790.0021
5789.9808
5789.9633
5789.9496
5789.9393
5789.9316
5789.9257
5789.921
5789.9168
5789.9129
5789.909
5789.9052
5789.9014
5789.8975
5789.8936
5789.8903
5789.8839
5816.7108
5816.7109
5816.7099
5816.7081
5816.7062
5816.7044
5816.7026
5816.7007
5816.6986
5816.6965
5816.6944
5816.6922
5816.6899
5816.6875
5816.6851
5816.6826
5816.68
5816.6774
5816.6748
5816.6721
5816.6692
5816.6657
5816.661
5816.6543
5816.6453
5816.6335
5816.6188
5816.6013
5816.5813
5816.5591
5816.5352
5816.5106
5816.4864
5816.4638
5816.4441
5816.4278
5816.4151
5816.4055
5816.3984
5816.3931
5816.3887
5816.3849
5816.3813
5816.3778
5816.3743
5816.3708
5816.3673
5816.3637
5816.3608
5816.355
5840.9761
5840.9761
5840.9752
5840.9735
5840.9717
5840.97
5840.9683
5840.9664
5840.9645
5840.9625
5840.9604
5840.9583
5840.9561
5840.9539
5840.9515
5840.9492
5840.9467
5840.9442
5840.9417
5840.9392
5840.9365
5840.9331
5840.9286
5840.9223
5840.9138
5840.9026
5840.8886
5840.8721
5840.8532
5840.8323
5840.8099
5840.7869
5840.7644
5840.7434
5840.7251
5840.7101
5840.6984
5840.6896
5840.6831
5840.6782
5840.6743
5840.6708
5840.6676
5840.6644
5840.6612
5840.6581
5840.655
5840.6517
5840.6491
5840.644
5863.3829
5863.3829
5863.382
5863.3804
5863.3787
5863.3771
5863.3754
5863.3736
5863.3718
5863.3699
5863.3679
5863.3659
5863.3638
5863.3617
5863.3595
5863.3572
5863.3549
5863.3525
5863.3501
5863.3477
5863.3451
5863.3419
5863.3377
5863.3317
5863.3236
5863.313
5863.2998
5863.2842
5863.2664
5863.2468
5863.2259
5863.2045
5863.1836
5863.1643
5863.1475
5863.1337
5863.123
5863.115
5863.1092
5863.1047
5863.1012
5863.0981
5863.0952
5863.0924
5863.0896
5863.0868
5863.0841
5863.0812
5863.0789
5863.0744
5884.1865
5884.1865
5884.1857
5884.1841
5884.1825
5884.181
5884.1794
5884.1777
5884.1759
5884.1741
5884.1723
5884.1703
5884.1684
5884.1663
5884.1642
5884.1621
5884.1598
5884.1576
5884.1554
5884.1531
5884.1506
5884.1476
5884.1435
5884.1379
5884.1302
5884.1202
5884.1077
5884.0931
5884.0764
5884.0581
5884.0387
5884.0189
5883.9997
5883.982
5883.9667
5883.9542
5883.9445
5883.9374
5883.9321
5883.9282
5883.9251
5883.9223
5883.9198
5883.9174
5883.9149
5883.9125
5883.9102
5883.9077
5883.9057
5883.9019
5903.5951
5903.5951
5903.5943
5903.5929
5903.5913
5903.5898
5903.5883
5903.5867
5903.5851
5903.5833
5903.5816
5903.5797
5903.5779
5903.5759
5903.5739
5903.5719
5903.5698
5903.5677
5903.5655
5903.5634
5903.561
5903.5581
5903.5543
5903.549
5903.5417
5903.5323
5903.5206
5903.5069
5903.4913
5903.4743
5903.4564
5903.4383
5903.4207
5903.4047
5903.3909
5903.3798
5903.3712
5903.3648
5903.3603
5903.3568
5903.3541
5903.3518
5903.3497
5903.3476
5903.3455
5903.3435
5903.3415
5903.3395
5903.3378
5903.3347
5921.7781
5921.7782
5921.7774
5921.776
5921.7745
5921.7731
5921.7717
5921.7702
5921.7686
5921.767
5921.7653
5921.7636
5921.7618
5921.7599
5921.7581
5921.7561
5921.7541
5921.7521
5921.7501
5921.748
5921.7458
5921.7431
5921.7395
5921.7345
5921.7276
5921.7188
5921.7079
5921.6951
5921.6806
5921.665
5921.6486
5921.6321
5921.6164
5921.6021
5921.5898
5921.58
5921.5725
5921.5671
5921.5631
5921.5603
5921.558
5921.5561
5921.5543
5921.5526
5921.551
5921.5494
5921.5478
5921.5462
5921.5449
5921.5424
5938.8767
5938.8767
5938.876
5938.8747
5938.8733
5938.8719
5938.8706
5938.8691
5938.8677
5938.8661
5938.8645
5938.8629
5938.8612
5938.8595
5938.8577
5938.8559
5938.854
5938.8521
5938.8502
5938.8483
5938.8462
5938.8436
5938.8402
5938.8355
5938.8291
5938.8208
5938.8107
5938.7988
5938.7855
5938.7712
5938.7564
5938.7416
5938.7277
5938.7152
5938.7046
5938.6961
5938.6898
5938.6852
5938.682
5938.6796
5938.6779
5938.6764
5938.675
5938.6737
5938.6725
5938.6713
5938.6701
5938.6689
5938.668
5938.6663
5955.0085
5955.0086
5955.0079
5955.0066
5955.0053
5955.0041
5955.0028
5955.0014
5955
5954.9986
5954.9971
5954.9955
5954.9939
5954.9923
5954.9906
5954.9889
5954.9872
5954.9854
5954.9836
5954.9818
5954.9798
5954.9774
5954.9742
5954.9698
5954.9639
5954.9562
5954.9468
5954.9359
5954.9238
5954.9109
5954.8977
5954.8847
5954.8726
5954.8619
5954.8529
5954.8459
5954.8408
5954.8371
5954.8346
5954.8328
5954.8315
5954.8305
5954.8295
5954.8287
5954.8279
5954.8271
5954.8263
5954.8256
5954.8251
5954.8241
5970.2736
5970.2736
5970.273
5970.2718
5970.2705
5970.2694
5970.2682
5970.2669
5970.2656
5970.2642
5970.2628
5970.2614
5970.2599
5970.2584
5970.2568
5970.2552
5970.2535
5970.2519
5970.2502
5970.2485
5970.2467
5970.2445
5970.2415
5970.2374
5970.2319
5970.2248
5970.2162
5970.2063
5970.1954
5970.1839
5970.1723
5970.1611
5970.1509
5970.1421
5970.1349
5970.1294
5970.1255
5970.1228
5970.121
5970.1198
5970.119
5970.1184
5970.1179
5970.1174
5970.1171
5970.1167
5970.1165
5970.1162
5970.1161
5970.1159
5984.7569
5984.7569
5984.7563
5984.7552
5984.7541
5984.753
5984.7518
5984.7507
5984.7494
5984.7482
5984.7468
5984.7455
5984.7441
5984.7427
5984.7412
5984.7397
5984.7382
5984.7366
5984.7351
5984.7335
5984.7318
5984.7298
5984.727
5984.7233
5984.7182
5984.7118
5984.704
5984.6951
5984.6854
5984.6753
5984.6654
5984.6561
5984.6479
5984.641
5984.6356
5984.6316
5984.6289
5984.6272
5984.6262
5984.6256
5984.6253
5984.6252
5984.6252
5984.6252
5984.6253
5984.6254
5984.6256
5984.6258
5984.6261
5984.6268
5998.5318
5998.5318
5998.5313
5998.5303
5998.5292
5998.5281
5998.5271
5998.526
5998.5248
5998.5237
5998.5225
5998.5212
5998.5199
5998.5186
5998.5173
5998.5159
5998.5145
5998.513
5998.5116
5998.5102
5998.5086
5998.5067
5998.5042
5998.5008
5998.4962
5998.4904
5998.4834
5998.4755
5998.4671
5998.4585
5998.4504
5998.443
5998.4368
5998.4319
5998.4283
5998.426
5998.4246
5998.4239
5998.4236
5998.4237
5998.4239
5998.4243
5998.4247
5998.4252
5998.4257
5998.4263
5998.427
5998.4278
5998.4284
5998.43
6011.6617
6011.6617
6011.6612
6011.6603
6011.6593
6011.6583
6011.6574
6011.6563
6011.6553
6011.6542
6011.6531
6011.6519
6011.6508
6011.6496
6011.6483
6011.647
6011.6458
6011.6444
6011.6431
6011.6418
6011.6404
6011.6387
6011.6364
6011.6333
6011.6292
6011.624
6011.6179
6011.6111
6011.604
6011.597
6011.5906
6011.5852
6011.5811
6011.5782
6011.5766
6011.5758
6011.5758
6011.5761
6011.5767
6011.5774
6011.5782
6011.579
6011.5799
6011.5809
6011.5819
6011.583
6011.5842
6011.5855
6011.5866
6011.589
6024.202
6024.202
6024.2016
6024.2007
6024.1998
6024.1989
6024.198
6024.1971
6024.1961
6024.1951
6024.1941
6024.1931
6024.192
6024.1909
6024.1898
6024.1886
6024.1875
6024.1863
6024.1851
6024.1839
6024.1826
6024.1811
6024.1791
6024.1763
6024.1727
6024.1682
6024.1629
6024.1572
6024.1514
6024.146
6024.1414
6024.1381
6024.1361
6024.1354
6024.1357
6024.1366
6024.138
6024.1394
6024.1408
6024.1422
6024.1435
6024.1449
6024.1463
6024.1477
6024.1492
6024.1509
6024.1525
6024.1544
6024.1559
6024.1592
6036.2012
6036.2012
6036.2008
6036.2
6036.1992
6036.1984
6036.1976
6036.1968
6036.1959
6036.195
6036.1941
6036.1932
6036.1922
6036.1912
6036.1902
6036.1892
6036.1881
6036.1871
6036.186
6036.185
6036.1838
6036.1825
6036.1807
6036.1783
6036.1752
6036.1714
6036.167
6036.1624
6036.1579
6036.1541
6036.1515
6036.1503
6036.1505
6036.1519
6036.1543
6036.1569
6036.1597
6036.1622
6036.1645
6036.1665
6036.1685
6036.1704
6036.1723
6036.1742
6036.1763
6036.1784
6036.1806
6036.183
6036.185
6036.1893
6047.7022
6047.7023
6047.7019
6047.7012
6047.7004
6047.6997
6047.699
6047.6983
6047.6975
6047.6967
6047.6959
6047.6951
6047.6942
6047.6933
6047.6925
6047.6916
6047.6906
6047.6897
6047.6888
6047.6879
6047.6869
6047.6857
6047.6842
6047.6822
6047.6796
6047.6764
6047.673
6047.6695
6047.6664
6047.6643
6047.6636
6047.6646
6047.6671
6047.6708
6047.6751
6047.6796
6047.6838
6047.6875
6047.6906
6047.6934
6047.6959
6047.6983
6047.7008
6047.7032
6047.7058
6047.7085
6047.7112
6047.7142
6047.7167
6047.7219
6058.743
6058.7431
6058.7427
6058.7421
6058.7415
6058.7408
6058.7402
6058.7396
6058.7389
6058.7382
6058.7375
6058.7368
6058.736
6058.7353
6058.7345
6058.7337
6058.733
6058.7322
6058.7314
6058.7306
6058.7298
6058.7288
6058.7275
6058.7259
6058.7238
6058.7214
6058.7188
6058.7165
6058.7149
6058.7146
6058.7159
6058.719
6058.7238
6058.7298
6058.7363
6058.7426
6058.7483
6058.7531
6058.7572
6058.7607
6058.7638
6058.7668
6058.7698
6058.7728
6058.7759
6058.7791
6058.7824
6058.786
6058.7889
6058.7951
6069.3575
6069.3575
6069.3572
6069.3567
6069.3561
6069.3556
6069.3551
6069.3545
6069.3539
6069.3533
6069.3527
6069.3521
6069.3515
6069.3509
6069.3503
6069.3496
6069.349
6069.3483
6069.3477
6069.347
6069.3464
6069.3456
6069.3446
6069.3433
6069.3418
6069.3401
6069.3385
6069.3374
6069.3373
6069.3387
6069.342
6069.3474
6069.3546
6069.363
6069.3716
6069.3798
6069.387
6069.3931
6069.3981
6069.4023
6069.4061
6069.4096
6069.4131
6069.4167
6069.4203
6069.4241
6069.428
6069.4322
6069.4356
6069.4428
6079.5759
6079.5759
6079.5756
6079.5752
6079.5747
6079.5743
6079.5738
6079.5734
6079.5729
6079.5724
6079.5719
6079.5714
6079.5709
6079.5704
6079.5699
6079.5694
6079.5689
6079.5684
6079.5679
6079.5674
6079.5669
6079.5663
6079.5656
6079.5647
6079.5637
6079.5628
6079.5622
6079.5623
6079.5637
6079.5669
6079.5723
6079.5801
6079.5897
6079.6005
6079.6114
6079.6215
6079.6303
6079.6376
6079.6435
6079.6485
6079.6529
6079.657
6079.6611
6079.6652
6079.6694
6079.6738
6079.6782
6079.683
6079.6869
6079.6951
6089.4253
6089.4253
6089.4252
6089.4248
6089.4244
6089.4241
6089.4237
6089.4234
6089.423
6089.4226
6089.4223
6089.4219
6089.4215
6089.4211
6089.4208
6089.4204
6089.42
6089.4197
6089.4193
6089.419
6089.4186
6089.4182
6089.4178
6089.4173
6089.4169
6089.4167
6089.4171
6089.4185
6089.4215
6089.4265
6089.4341
6089.4442
6089.4564
6089.4696
6089.4828
6089.4949
6089.5052
6089.5137
6089.5207
6089.5264
6089.5315
6089.5362
6089.5408
6089.5455
6089.5503
6089.5552
6089.5603
6089.5657
6089.5701
6089.5794
6098.9304
6098.9304
6098.9303
6098.93
6098.9298
6098.9295
6098.9293
6098.929
6098.9287
6098.9285
6098.9282
6098.928
6098.9277
6098.9275
6098.9272
6098.927
6098.9268
6098.9266
6098.9264
6098.9262
6098.926
6098.9258
6098.9256
6098.9256
6098.9257
6098.9264
6098.9278
6098.9305
6098.935
6098.942
6098.9518
6098.9643
6098.979
6098.9948
6099.0103
6099.0244
6099.0364
6099.0462
6099.0541
6099.0606
6099.0663
6099.0717
6099.0769
6099.0821
6099.0875
6099.0931
6099.0987
6099.1047
6099.1097
6099.12
6108.1134
6108.1134
6108.1133
6108.1131
6108.1129
6108.1128
6108.1126
6108.1125
6108.1123
6108.1122
6108.112
6108.1119
6108.1118
6108.1117
6108.1116
6108.1115
6108.1114
6108.1114
6108.1113
6108.1113
6108.1113
6108.1113
6108.1114
6108.1118
6108.1125
6108.114
6108.1164
6108.1205
6108.1266
6108.1355
6108.1475
6108.1626
6108.1799
6108.1982
6108.2161
6108.2322
6108.2459
6108.257
6108.2659
6108.2732
6108.2796
6108.2856
6108.2914
6108.2972
6108.3032
6108.3094
6108.3156
6108.3223
6108.3278
6108.3391
6116.9942
6116.9942
6116.9942
6116.9941
6116.9941
6116.994
6116.994
6116.9939
6116.9939
6116.9938
6116.9938
6116.9938
6116.9938
6116.9939
6116.9939
6116.994
6116.994
6116.9941
6116.9942
6116.9944
6116.9945
6116.9948
6116.9952
6116.996
6116.9973
6116.9996
6117.0032
6117.0085
6117.0163
6117.0272
6117.0415
6117.0591
6117.0791
6117.1
6117.1203
6117.1385
6117.1539
6117.1663
6117.1763
6117.1844
6117.1915
6117.1981
6117.2045
6117.2109
6117.2175
6117.2243
6117.2311
6117.2385
6117.2445
6117.257
6125.5914
6125.5914
6125.5914
6125.5914
6125.5915
6125.5915
6125.5916
6125.5916
6125.5917
6125.5918
6125.5919
6125.592
6125.5922
6125.5923
6125.5925
6125.5927
6125.593
6125.5932
6125.5935
6125.5938
6125.5941
6125.5946
6125.5953
6125.5965
6125.5985
6125.6016
6125.6063
6125.613
6125.6225
6125.6354
6125.652
6125.6722
6125.6949
6125.7186
6125.7413
6125.7616
6125.7787
6125.7925
6125.8035
6125.8124
6125.8202
6125.8274
6125.8345
6125.8415
6125.8487
6125.8561
6125.8636
6125.8716
6125.8782
6125.8917
6133.9215
6133.9215
6133.9216
6133.9217
6133.9219
6133.922
6133.9222
6133.9224
6133.9226
6133.9228
6133.923
6133.9233
6133.9235
6133.9238
6133.9242
6133.9245
6133.9249
6133.9253
6133.9258
6133.9262
6133.9267
6133.9274
6133.9285
6133.9301
6133.9328
6133.9367
6133.9425
6133.9507
6133.9619
6133.9768
6133.9959
6134.0186
6134.0441
6134.0705
6134.0957
6134.1182
6134.137
6134.1522
6134.1642
6134.174
6134.1825
6134.1904
6134.198
6134.2057
6134.2135
6134.2215
6134.2296
6134.2384
6134.2455
6134.2602
6142
6142
6142.0001
6142.0003
6142.0006
6142.0008
6142.0011
6142.0014
6142.0017
6142.0021
6142.0024
6142.0028
6142.0032
6142.0037
6142.0042
6142.0047
6142.0052
6142.0058
6142.0064
6142.007
6142.0077
6142.0087
6142.01
6142.0121
6142.0154
6142.0203
6142.0272
6142.0368
6142.0498
6142.0668
6142.0882
6142.1137
6142.142
6142.1711
6142.1989
6142.2235
6142.2442
6142.2607
6142.2738
6142.2845
6142.2937
6142.3022
6142.3105
6142.3188
6142.3272
6142.3359
6142.3446
6142.3541
6142.3617
6142.3775
6149.8408
6149.8408
6149.841
6149.8413
6149.8417
6149.842
6149.8424
6149.8428
6149.8433
6149.8437
6149.8442
6149.8448
6149.8453
6149.8459
6149.8466
6149.8472
6149.8479
6149.8487
6149.8495
6149.8503
6149.8512
6149.8523
6149.854
6149.8566
6149.8605
6149.8662
6149.8743
6149.8854
6149.9002
6149.9193
6149.9432
6149.9714
6150.0025
6150.0345
6150.0648
6150.0917
6150.1141
6150.1321
6150.1463
6150.1578
6150.1678
6150.1769
6150.1858
6150.1948
6150.2038
6150.2132
6150.2226
6150.2327
6150.2409
6150.2579
6157.4569
6157.4569
6157.4571
6157.4576
6157.4581
6157.4585
6157.459
6157.4595
6157.4601
6157.4607
6157.4613
6157.462
6157.4627
6157.4635
6157.4643
6157.4651
6157.466
6157.4669
6157.4678
6157.4688
6157.4699
6157.4713
6157.4733
6157.4764
6157.481
6157.4876
6157.4969
6157.5094
6157.526
6157.5474
6157.5737
6157.6047
6157.6387
6157.6735
6157.7064
6157.7356
6157.7598
6157.7792
6157.7945
6157.8069
6157.8176
6157.8275
6157.837
6157.8466
6157.8563
6157.8663
6157.8763
6157.8872
6157.896
6157.9141
6164.8602
6164.8602
6164.8605
6164.8611
6164.8616
6164.8622
6164.8628
6164.8635
6164.8642
6164.8649
6164.8657
6164.8665
6164.8673
6164.8682
6164.8692
6164.8702
6164.8712
6164.8723
6164.8734
6164.8746
6164.8759
6164.8775
6164.8799
6164.8834
6164.8887
6164.8963
6164.9067
6164.9208
6164.9392
6164.9628
6164.9917
6165.0255
6165.0624
6165.1
6165.1357
6165.1671
6165.1932
6165.214
6165.2304
6165.2437
6165.2552
6165.2657
6165.2759
6165.2861
6165.2965
6165.3071
6165.3179
6165.3294
6165.3388
6165.3581
6172.0617
6172.0617
6172.062
6172.0627
6172.0634
6172.0641
6172.0648
6172.0656
6172.0664
6172.0673
6172.0682
6172.0691
6172.0701
6172.0712
6172.0723
6172.0735
6172.0747
6172.076
6172.0773
6172.0786
6172.0801
6172.082
6172.0847
6172.0887
6172.0947
6172.1032
6172.1149
6172.1305
6172.1508
6172.1766
6172.2081
6172.2447
6172.2846
6172.3252
6172.3635
6172.3972
6172.4252
6172.4475
6172.465
6172.4792
6172.4914
6172.5026
6172.5134
6172.5243
6172.5354
6172.5467
6172.5581
6172.5703
6172.5803
6172.6008
6179.0716
6179.0716
6179.072
6179.0727
6179.0736
6179.0744
6179.0752
6179.0761
6179.0771
6179.0781
6179.0791
6179.0802
6179.0814
6179.0826
6179.0839
6179.0852
6179.0866
6179.0881
6179.0896
6179.0911
6179.0928
6179.0949
6179.0979
6179.1025
6179.1091
6179.1186
6179.1316
6179.1487
6179.1709
6179.199
6179.2331
6179.2726
6179.3155
6179.359
6179.4
6179.4361
6179.466
6179.4897
6179.5084
6179.5235
6179.5365
6179.5483
6179.5599
6179.5714
6179.5831
6179.5951
6179.6072
6179.6202
6179.6307
6179.6524
6185.8993
6185.8992
6185.8997
6185.9006
6185.9016
6185.9025
6185.9034
6185.9045
6185.9056
6185.9067
6185.9079
6185.9091
6185.9105
6185.9118
6185.9133
6185.9148
6185.9164
6185.918
6185.9197
6185.9214
6185.9233
6185.9257
6185.9291
6185.9341
6185.9415
6185.9519
6185.9662
6185.9849
6186.0091
6186.0394
6186.0761
6186.1185
6186.1645
6186.211
6186.2547
6186.2932
6186.325
6186.3502
6186.3701
6186.3861
6186.3998
6186.4124
6186.4246
6186.4368
6186.4491
6186.4618
6186.4746
6186.4883
6186.4994
6186.5223
6192.5536
6192.5535
6192.5541
6192.5551
6192.5562
6192.5572
6192.5583
6192.5594
6192.5607
6192.5619
6192.5633
6192.5647
6192.5661
6192.5677
6192.5693
6192.571
6192.5728
6192.5746
6192.5764
6192.5783
6192.5805
6192.5831
6192.5869
6192.5924
6192.6005
6192.612
6192.6275
6192.6478
6192.6739
6192.7065
6192.746
6192.7913
6192.8404
6192.8899
6192.9364
6192.9772
6193.0109
6193.0377
6193.0587
6193.0757
6193.0901
6193.1034
6193.1163
6193.1292
6193.1422
6193.1556
6193.169
6193.1835
6193.1952
6193.2193
6199.0426
6199.0426
6199.0432
6199.0443
6199.0455
6199.0467
6199.0479
6199.0492
6199.0505
6199.0519
6199.0534
6199.055
6199.0566
6199.0583
6199.0601
6199.062
6199.0639
6199.066
6199.068
6199.0701
6199.0724
6199.0753
6199.0795
6199.0855
6199.0944
6199.1068
6199.1236
6199.1456
6199.1737
6199.2087
6199.2508
6199.2991
6199.3513
6199.4038
6199.4532
6199.4964
6199.5321
6199.5603
6199.5825
6199.6004
6199.6157
6199.6297
6199.6432
6199.6567
6199.6705
6199.6845
6199.6987
6199.7139
6199.7262
6199.7515
6205.374
6205.374
6205.3747
6205.3759
6205.3773
6205.3785
6205.3799
6205.3813
6205.3828
6205.3843
6205.386
6205.3877
6205.3895
6205.3914
6205.3933
6205.3954
6205.3975
6205.3997
6205.402
6205.4043
6205.4068
6205.41
6205.4145
6205.4211
6205.4307
6205.4441
6205.4622
6205.4859
6205.5159
6205.5533
6205.5982
6205.6495
6205.7048
6205.7605
6205.8126
6205.8583
6205.8959
6205.9257
6205.9491
6205.9679
6205.984
6205.9986
6206.0129
6206.0271
6206.0415
6206.0563
6206.0711
6206.0871
6206.1
6206.1266
6211.5549
6211.5549
6211.5556
6211.557
6211.5585
6211.5599
6211.5613
6211.5629
6211.5645
6211.5662
6211.568
6211.5699
6211.5719
6211.5739
6211.5761
6211.5783
6211.5806
6211.583
6211.5855
6211.588
6211.5907
6211.5942
6211.599
6211.6062
6211.6165
6211.631
6211.6504
6211.6757
6211.7078
6211.7476
6211.7952
6211.8496
6211.9081
6211.9669
6212.0219
6212.0699
6212.1096
6212.1409
6212.1655
6212.1852
6212.2021
6212.2175
6212.2324
6212.2473
6212.2624
6212.2779
6212.2934
6212.3101
6212.3237
6212.3515
6217.592
6217.5919
6217.5927
6217.5942
6217.5958
6217.5974
6217.5989
6217.6006
6217.6024
6217.6043
6217.6062
6217.6083
6217.6104
6217.6126
6217.6149
6217.6174
6217.6199
6217.6225
6217.6251
6217.6278
6217.6308
6217.6345
6217.6398
6217.6474
6217.6586
6217.6741
6217.6949
6217.7218
6217.756
6217.7982
6217.8486
6217.9061
6217.9677
6218.0296
6218.0875
6218.1381
6218.1797
6218.2126
6218.2384
6218.2591
6218.2767
6218.2928
6218.3084
6218.324
6218.3399
6218.356
6218.3723
6218.3897
6218.4039
6218.4329
6223.4914
6223.4913
6223.4922
6223.4938
6223.4955
6223.4972
6223.4989
6223.5007
6223.5027
6223.5047
6223.5068
6223.509
6223.5113
6223.5137
6223.5162
6223.5188
6223.5215
6223.5243
6223.5272
6223.5301
6223.5333
6223.5373
6223.5429
6223.5511
6223.563
6223.5796
6223.6017
6223.6304
6223.6666
6223.7113
6223.7645
6223.8251
6223.89
6223.955
6224.0158
6224.0688
6224.1124
6224.1469
6224.1739
6224.1956
6224.214
6224.2309
6224.2472
6224.2635
6224.28
6224.2968
6224.3138
6224.332
6224.3468
6224.3771
6229.2589
6229.2589
6229.2598
6229.2616
6229.2634
6229.2652
6229.2671
6229.269
6229.2711
6229.2733
6229.2755
6229.2779
6229.2804
6229.283
6229.2856
6229.2885
6229.2914
6229.2944
6229.2974
6229.3005
6229.304
6229.3082
6229.3142
6229.323
6229.3357
6229.3533
6229.3769
6229.4073
6229.4456
6229.4927
6229.5488
6229.6124
6229.6806
6229.7488
6229.8125
6229.868
6229.9137
6229.9498
6229.9779
6230.0006
6230.0198
6230.0374
6230.0544
6230.0714
6230.0886
6230.1062
6230.1239
6230.1428
6230.1582
6230.1898
6234.9001
6234.9001
6234.9011
6234.903
6234.905
6234.9069
6234.9089
6234.911
6234.9132
6234.9155
6234.918
6234.9205
6234.9231
6234.9259
6234.9288
6234.9318
6234.9349
6234.9381
6234.9413
6234.9447
6234.9483
6234.9529
6234.9593
6234.9686
6234.9821
6235.0008
6235.0257
6235.0579
6235.0983
6235.1479
6235.2069
6235.2737
6235.3451
6235.4165
6235.4832
6235.5412
6235.5889
6235.6265
6235.6559
6235.6795
6235.6996
6235.7179
6235.7356
6235.7533
6235.7712
6235.7895
6235.8079
6235.8277
6235.8437
6235.8765
6240.4202
6240.4201
6240.4212
6240.4232
6240.4254
6240.4274
6240.4295
6240.4318
6240.4342
6240.4366
6240.4392
6240.4419
6240.4447
6240.4477
6240.4507
6240.4539
6240.4573
6240.4607
6240.4641
6240.4677
6240.4716
6240.4764
6240.4832
6240.4931
6240.5074
6240.5272
6240.5535
6240.5874
6240.63
6240.6821
6240.7439
6240.8139
6240.8886
6240.9633
6241.0329
6241.0934
6241.1432
6241.1824
6241.213
6241.2376
6241.2585
6241.2775
6241.296
6241.3143
6241.333
6241.352
6241.3711
6241.3916
6241.4082
6241.4423
6245.8238
6245.8238
6245.8249
6245.8271
6245.8294
6245.8315
6245.8338
6245.8362
6245.8387
6245.8414
6245.8441
6245.847
6245.85
6245.8531
6245.8564
6245.8598
6245.8633
6245.8669
6245.8706
6245.8743
6245.8785
6245.8836
6245.8908
6245.9013
6245.9164
6245.9373
6245.965
6246.0007
6246.0454
6246.1001
6246.1648
6246.2379
6246.316
6246.3939
6246.4664
6246.5296
6246.5814
6246.6222
6246.6541
6246.6796
6246.7013
6246.7211
6246.7402
6246.7593
6246.7786
6246.7984
6246.8182
6246.8395
6246.8568
6246.8921
6251.1158
6251.1157
6251.1169
6251.1192
6251.1216
6251.1239
6251.1263
6251.1289
6251.1316
6251.1344
6251.1373
6251.1403
6251.1435
6251.1468
6251.1503
6251.1539
6251.1576
6251.1614
6251.1653
6251.1693
6251.1736
6251.1791
6251.1867
6251.1977
6251.2136
6251.2356
6251.2648
6251.3022
6251.3491
6251.4064
6251.474
6251.5504
6251.6318
6251.713
6251.7885
6251.8541
6251.908
6251.9505
6251.9836
6252.0101
6252.0326
6252.0531
6252.073
6252.0928
6252.1128
6252.1333
6252.1539
6252.1759
6252.1938
6252.2304
6256.3002
6256.3001
6256.3014
6256.3038
6256.3064
6256.3088
6256.3114
6256.3141
6256.3169
6256.3199
6256.323
6256.3262
6256.3295
6256.333
6256.3367
6256.3405
6256.3444
6256.3485
6256.3526
6256.3568
6256.3614
6256.3671
6256.3751
6256.3868
6256.4035
6256.4266
6256.4572
6256.4964
6256.5455
6256.6053
6256.6759
6256.7555
6256.8403
6256.9247
6257.0032
6257.0715
6257.1274
6257.1715
6257.2059
6257.2333
6257.2567
6257.278
6257.2985
6257.319
6257.3398
6257.361
6257.3823
6257.4051
6257.4236
6257.4615
6261.3812
6261.3812
6261.3825
6261.3851
6261.3878
6261.3904
6261.393
6261.3959
6261.3989
6261.402
6261.4053
6261.4087
6261.4122
6261.4159
6261.4197
6261.4237
6261.4279
6261.4321
6261.4365
6261.4409
6261.4457
6261.4518
6261.4602
6261.4724
6261.49
6261.5142
6261.5463
6261.5873
6261.6386
6261.701
6261.7746
6261.8574
6261.9455
6262.0333
6262.1148
6262.1856
6262.2437
6262.2894
6262.325
6262.3534
6262.3776
6262.3997
6262.4209
6262.4421
6262.4636
6262.4855
6262.5075
6262.5311
6262.5503
6262.5894
6266.3627
6266.3626
6266.364
6266.3667
6266.3696
6266.3723
6266.3751
6266.3781
6266.3813
6266.3846
6266.388
6266.3916
6266.3953
6266.3992
6266.4032
6266.4074
6266.4118
6266.4163
6266.4208
6266.4255
6266.4306
6266.4369
6266.4457
6266.4586
6266.477
6266.5023
6266.5358
6266.5787
6266.6322
6266.6972
6266.7738
6266.8599
6266.9514
6267.0425
6267.127
6267.2005
6267.2606
6267.3079
6267.3448
6267.3742
6267.3992
6267.422
6267.444
6267.4659
6267.4881