/*--------------------------------*- C++ -*----------------------------------*\
| =========                 |                                                 |
| \\      /  F ield         | OpenFOAM: The Open Source CFD Toolbox           |
|  \\    /   O peration     | Version:  4.0                                   |
|   \\  /    A nd           | Web:      www.OpenFOAM.org                      |
|    \\/     M anipulation  |                                                 |
\*---------------------------------------------------------------------------*/
FoamFile
{
    version     2.0;
    format      ascii;
    class       volScalarField;
    location    "4000/fluid";
    object      ILambda_1_0;
}
// * * * * * * * * * * * * * * * * * * * * * * * * * * * * * * * * * * * * * //

dimensions      [1 0 -3 0 0 0 0];

internalField   nonuniform List<scalar> 
5000
(
596.66759
596.66761
596.66711
596.66616
596.66515
596.6642
596.66322
596.66219
596.66111
596.66
596.65886
596.65767
596.65645
596.65519
596.6539
596.65256
596.65119
596.6498
596.64841
596.64699
596.64545
596.64358
596.64105
596.63751
596.63268
596.62634
596.61845
596.60903
596.59818
596.58606
596.57294
596.55929
596.54574
596.53302
596.52177
596.51241
596.50505
596.49947
596.49529
596.49208
596.48945
596.48711
596.4849
596.48273
596.48056
596.47838
596.47621
596.47392
596.47206
596.46838
636.58586
636.58588
636.58544
636.58461
636.58374
636.58291
636.58207
636.58117
636.58023
636.57927
636.57827
636.57724
636.57618
636.57509
636.57396
636.57281
636.57162
636.57041
636.5692
636.56797
636.56663
636.565
636.56281
636.55974
636.55553
636.55003
636.54316
636.53496
636.52551
636.51494
636.5035
636.49158
636.47974
636.46862
636.45878
636.45059
636.44415
636.43926
636.43561
636.4328
636.43049
636.42845
636.42652
636.42462
636.42273
636.42082
636.41892
636.41692
636.4153
636.41209
668.06911
668.06913
668.06875
668.06803
668.06727
668.06655
668.06581
668.06503
668.06422
668.06338
668.06252
668.06162
668.0607
668.05975
668.05877
668.05777
668.05673
668.05568
668.05463
668.05356
668.0524
668.05099
668.04908
668.04641
668.04275
668.03796
668.03198
668.02484
668.0166
668.00739
667.9974
667.987
667.97666
667.96694
667.95834
667.95119
667.94556
667.94129
667.9381
667.93564
667.93363
667.93185
667.93016
667.92851
667.92686
667.92519
667.92354
667.9218
667.92038
667.91758
692.33394
692.33396
692.33363
692.33299
692.33232
692.33169
692.33104
692.33036
692.32964
692.32891
692.32815
692.32736
692.32655
692.32572
692.32486
692.32397
692.32306
692.32214
692.32121
692.32027
692.31925
692.31801
692.31632
692.31398
692.31076
692.30654
692.30128
692.29499
692.28773
692.2796
692.2708
692.26162
692.2525
692.24392
692.23634
692.23003
692.22506
692.2213
692.21848
692.21632
692.21455
692.21298
692.2115
692.21004
692.20859
692.20712
692.20567
692.20413
692.20289
692.20043
711.3962
711.39621
711.39591
711.39535
711.39475
711.39419
711.39362
711.39301
711.39237
711.39172
711.39104
711.39034
711.38962
711.38888
711.38812
711.38733
711.38652
711.3857
711.38488
711.38404
711.38313
711.38202
711.38053
711.37844
711.37558
711.37182
711.36714
711.36154
711.35507
711.34784
711.33999
711.33182
711.3237
711.31606
711.30931
711.30369
711.29926
711.29591
711.29341
711.29148
711.28991
711.28851
711.2872
711.2859
711.28461
711.28331
711.28201
711.28065
711.27954
711.27735
726.60257
726.60258
726.60231
726.60181
726.60127
726.60076
726.60024
726.59969
726.59912
726.59853
726.59792
726.59729
726.59664
726.59597
726.59528
726.59457
726.59384
726.5931
726.59236
726.59161
726.59079
726.58979
726.58844
726.58655
726.58397
726.58058
726.57636
726.5713
726.56546
726.55893
726.55185
726.54448
726.53715
726.53026
726.52417
726.5191
726.51511
726.51209
726.50983
726.5081
726.50668
726.50542
726.50424
726.50307
726.50191
726.50073
726.49957
726.49834
726.49734
726.49537
738.97624
738.97625
738.97601
738.97555
738.97506
738.9746
738.97412
738.97362
738.9731
738.97256
738.972
738.97143
738.97084
738.97022
738.9696
738.96895
738.96828
738.96761
738.96693
738.96624
738.96549
738.96458
738.96335
738.96163
738.95927
738.95618
738.95233
738.94771
738.94239
738.93643
738.92997
738.92325
738.91656
738.91029
738.90473
738.90012
738.89648
738.89373
738.89168
738.8901
738.88881
738.88766
738.88658
738.88552
738.88446
738.8834
738.88234
738.88122
738.88031
738.87852
749.22604
749.22605
749.22582
749.2254
749.22494
749.22452
749.22408
749.22362
749.22314
749.22264
749.22213
749.2216
749.22105
749.22049
749.21991
749.21931
749.21869
749.21807
749.21745
749.21681
749.21612
749.21528
749.21415
749.21256
749.21039
749.20754
749.20398
749.19972
749.19481
749.18932
749.18337
749.17718
749.17102
749.16524
749.16013
749.15589
749.15255
749.15002
749.14813
749.14668
749.14549
749.14444
749.14345
749.14247
749.1415
749.14052
749.13955
749.13852
749.13769
749.13604
757.88071
757.88072
757.88051
757.88011
757.87969
757.87929
757.87889
757.87846
757.87801
757.87755
757.87707
757.87658
757.87607
757.87554
757.875
757.87445
757.87388
757.8733
757.87272
757.87213
757.87148
757.8707
757.86964
757.86817
757.86615
757.8635
757.86019
757.85623
757.85167
757.84657
757.84105
757.8353
757.82959
757.82423
757.81949
757.81556
757.81246
757.81012
757.80837
757.80703
757.80593
757.80496
757.80405
757.80315
757.80225
757.80134
757.80044
757.7995
757.79873
757.79721
765.30971
765.30971
765.30952
765.30915
765.30875
765.30838
765.308
765.3076
765.30718
765.30674
765.3063
765.30583
765.30536
765.30486
765.30436
765.30384
765.3033
765.30276
765.30221
765.30166
765.30106
765.30033
765.29934
765.29796
765.29606
765.29358
765.29048
765.28678
765.28251
765.27774
765.27258
765.26722
765.26189
765.25689
765.25248
765.24881
765.24593
765.24376
765.24213
765.24088
765.23986
765.23896
765.23811
765.23728
765.23644
765.2356
765.23477
765.23389
765.23318
765.23178
771.78809
771.7881
771.78791
771.78756
771.78719
771.78684
771.78648
771.7861
771.78571
771.7853
771.78488
771.78444
771.78399
771.78353
771.78305
771.78256
771.78206
771.78154
771.78103
771.78051
771.77994
771.77925
771.77832
771.77702
771.77524
771.7729
771.76999
771.76651
771.76249
771.75802
771.75318
771.74814
771.74316
771.73848
771.73436
771.73093
771.72824
771.72621
771.72469
771.72353
771.72258
771.72175
771.72096
771.72018
771.71941
771.71863
771.71786
771.71704
771.71638
771.71508
777.51206
777.51206
777.51189
777.51156
777.51121
777.51088
777.51054
777.51018
777.5098
777.50942
777.50902
777.5086
777.50818
777.50774
777.50729
777.50682
777.50635
777.50586
777.50538
777.50489
777.50435
777.5037
777.50282
777.50159
777.4999
777.49769
777.49494
777.49166
777.48788
777.48366
777.4791
777.47438
777.4697
777.46531
777.46145
777.45825
777.45574
777.45384
777.45243
777.45134
777.45046
777.44968
777.44895
777.44823
777.44751
777.44679
777.44608
777.44532
777.44471
777.44351
782.63006
782.63006
782.6299
782.62958
782.62925
782.62894
782.62861
782.62827
782.62791
782.62755
782.62717
782.62678
782.62637
782.62596
782.62553
782.62509
782.62464
782.62418
782.62372
782.62325
782.62274
782.62212
782.62129
782.62012
782.61852
782.61643
782.61383
782.61072
782.60715
782.60317
782.59889
782.59444
782.59005
782.58594
782.58232
782.57933
782.57698
782.57522
782.5739
782.57289
782.57208
782.57135
782.57068
782.57001
782.56935
782.56868
782.56802
782.56732
782.56676
782.56565
787.25141
787.25142
787.25126
787.25096
787.25064
787.25034
787.25003
787.24971
787.24937
787.24902
787.24866
787.24829
787.24791
787.24751
787.2471
787.24668
787.24625
787.24582
787.24538
787.24494
787.24445
787.24386
787.24307
787.24196
787.24045
787.23847
787.236
787.23306
787.22968
787.22593
787.22189
787.21772
787.2136
787.20975
787.20637
787.20358
787.2014
787.19975
787.19853
787.1976
787.19685
787.19618
787.19556
787.19494
787.19433
787.19372
787.19311
787.19248
787.19196
787.19095
791.46085
791.46086
791.4607
791.46042
791.46012
791.45983
791.45954
791.45923
791.45891
791.45857
791.45823
791.45788
791.45751
791.45714
791.45675
791.45635
791.45594
791.45552
791.45511
791.45468
791.45423
791.45367
791.45291
791.45186
791.45042
791.44854
791.4462
791.44342
791.44023
791.43669
791.4329
791.42898
791.42513
791.42154
791.41839
791.4158
791.41377
791.41226
791.41113
791.41027
791.40958
791.40897
791.4084
791.40784
791.40729
791.40673
791.40618
791.4056
791.40513
791.40421
795.32305
795.32306
795.32292
795.32264
795.32235
795.32208
795.32181
795.32151
795.3212
795.32089
795.32056
795.32022
795.31987
795.31951
795.31915
795.31877
795.31838
795.31798
795.31758
795.31718
795.31675
795.31621
795.3155
795.3145
795.31313
795.31135
795.30913
795.3065
795.3035
795.30017
795.29661
795.29295
795.28936
795.28602
795.28311
795.28072
795.27885
795.27746
795.27643
795.27565
795.27502
795.27446
795.27395
795.27344
795.27294
795.27244
795.27195
795.27143
795.27101
795.27019
798.88947
798.88947
798.88934
798.88908
798.8888
798.88854
798.88828
798.888
798.8877
798.8874
798.88709
798.88677
798.88644
798.8861
798.88575
798.88538
798.88501
798.88464
798.88426
798.88388
798.88346
798.88296
798.88228
798.88133
798.88003
798.87835
798.87625
798.87377
798.87094
798.86782
798.86449
798.86109
798.85776
798.85469
798.85201
798.84981
798.84811
798.84684
798.84591
798.84521
798.84464
798.84415
798.84369
798.84324
798.84279
798.84235
798.84191
798.84146
798.84109
798.84037
802.20074
802.20074
802.20061
802.20036
802.2001
802.19986
802.1996
802.19933
802.19906
802.19877
802.19847
802.19817
802.19785
802.19753
802.19719
802.19685
802.1965
802.19614
802.19578
802.19542
802.19502
802.19454
802.1939
802.193
802.19177
802.19018
802.1882
802.18587
802.18322
802.1803
802.17721
802.17406
802.17101
802.16819
802.16575
802.16376
802.16222
802.16108
802.16025
802.15963
802.15913
802.1587
802.15829
802.1579
802.15752
802.15713
802.15676
802.15636
802.15605
802.15543
805.28998
805.28998
805.28986
805.28963
805.28938
805.28914
805.2889
805.28865
805.28838
805.28811
805.28783
805.28754
805.28724
805.28693
805.28661
805.28629
805.28595
805.28561
805.28527
805.28493
805.28455
805.2841
805.28349
805.28264
805.28148
805.27998
805.27813
805.27594
805.27346
805.27076
805.26791
805.26502
805.26223
805.25968
805.25749
805.25571
805.25434
805.25333
805.2526
805.25206
805.25163
805.25126
805.25092
805.25059
805.25026
805.24994
805.24962
805.2493
805.24903
805.24853
808.18417
808.18417
808.18405
808.18383
808.18359
808.18337
808.18314
808.1829
808.18265
808.18239
808.18212
808.18185
808.18156
808.18127
808.18097
808.18066
808.18035
808.18003
808.1797
808.17938
808.17903
808.1786
808.17802
808.17722
808.17613
808.17472
808.17299
808.17095
808.16865
808.16616
808.16355
808.16093
808.15842
808.15615
808.1542
808.15264
808.15144
808.15057
808.14995
808.14949
808.14913
808.14883
808.14855
808.14828
808.14802
808.14776
808.14751
808.14725
808.14704
808.14665
810.90575
810.90576
810.90565
810.90543
810.90521
810.905
810.90478
810.90455
810.90432
810.90407
810.90382
810.90356
810.90329
810.90302
810.90273
810.90244
810.90214
810.90184
810.90154
810.90123
810.9009
810.90049
810.89995
810.8992
810.89818
810.89687
810.89525
810.89336
810.89125
810.88897
810.88661
810.88426
810.88204
810.88005
810.87836
810.87702
810.87601
810.87528
810.87476
810.87439
810.87411
810.87387
810.87366
810.87345
810.87325
810.87306
810.87288
810.87269
810.87254
810.87227
813.47348
813.47349
813.47338
813.47318
813.47297
813.47277
813.47257
813.47235
813.47213
813.4719
813.47166
813.47142
813.47116
813.4709
813.47064
813.47036
813.47008
813.4698
813.46951
813.46923
813.46891
813.46853
813.46803
813.46733
813.46638
813.46516
813.46367
813.46193
813.46
813.45794
813.45584
813.45377
813.45184
813.45014
813.44872
813.44761
813.44679
813.4462
813.4458
813.44552
813.44531
813.44514
813.445
813.44486
813.44473
813.44461
813.44449
813.44438
813.44429
813.44414
815.90326
815.90326
815.90316
815.90298
815.90278
815.90259
815.9024
815.9022
815.90199
815.90177
815.90155
815.90132
815.90108
815.90084
815.90059
815.90033
815.90007
815.8998
815.89954
815.89927
815.89898
815.89862
815.89815
815.8975
815.89663
815.8955
815.89413
815.89255
815.89082
815.88899
815.88714
815.88536
815.88374
815.88233
815.88119
815.88032
815.87969
815.87926
815.87897
815.87878
815.87865
815.87856
815.87848
815.87841
815.87835
815.8783
815.87825
815.87822
815.87819
815.87817
818.20862
818.20862
818.20853
818.20836
818.20817
818.20799
818.20782
818.20763
818.20743
818.20723
818.20702
818.2068
818.20658
818.20636
818.20613
818.20589
818.20564
818.2054
818.20515
818.2049
818.20463
818.2043
818.20387
818.20327
818.20247
818.20144
818.2002
818.19878
818.19724
818.19564
818.19406
818.19258
818.19127
818.19017
818.18931
818.18868
818.18826
818.18798
818.18782
818.18773
818.18768
818.18766
818.18765
818.18765
818.18767
818.18769
818.18772
818.18776
818.1878
818.18791
820.40123
820.40123
820.40115
820.40098
820.40081
820.40065
820.40048
820.40031
820.40012
820.39994
820.39974
820.39954
820.39934
820.39913
820.39892
820.3987
820.39847
820.39824
820.39802
820.39779
820.39754
820.39724
820.39684
820.39629
820.39556
820.39464
820.39353
820.39227
820.39093
820.38957
820.38827
820.3871
820.38611
820.38533
820.38476
820.38439
820.38416
820.38405
820.38401
820.38402
820.38406
820.38412
820.38418
820.38426
820.38435
820.38444
820.38455
820.38468
820.38478
820.38502
822.49119
822.49119
822.49111
822.49096
822.4908
822.49065
822.4905
822.49033
822.49017
822.48999
822.48982
822.48963
822.48945
822.48925
822.48906
822.48885
822.48865
822.48844
822.48823
822.48802
822.4878
822.48752
822.48716
822.48667
822.48602
822.48519
822.48422
822.48313
822.482
822.48088
822.47987
822.47901
822.47835
822.4779
822.47764
822.47752
822.47751
822.47757
822.47766
822.47777
822.47789
822.47803
822.47817
822.47832
822.47849
822.47867
822.47885
822.47906
822.47923
822.47962
824.4873
824.48731
824.48723
824.4871
824.48695
824.48681
824.48667
824.48652
824.48637
824.48621
824.48605
824.48588
824.48571
824.48554
824.48536
824.48518
824.48499
824.4848
824.48462
824.48443
824.48422
824.48398
824.48365
824.48322
824.48264
824.48192
824.48109
824.48017
824.47925
824.47839
824.47766
824.47713
824.47682
824.4767
824.47675
824.4769
824.47711
824.47734
824.47756
824.47778
824.478
824.47821
824.47843
824.47867
824.47891
824.47917
824.47943
824.47973
824.47997
824.4805
826.39731
826.39731
826.39724
826.39712
826.39699
826.39686
826.39673
826.3966
826.39646
826.39632
826.39617
826.39602
826.39587
826.39571
826.39555
826.39539
826.39522
826.39506
826.39489
826.39472
826.39454
826.39433
826.39404
826.39366
826.39317
826.39256
826.39186
826.39112
826.39042
826.38982
826.38939
826.3892
826.38923
826.38947
826.38983
826.39026
826.3907
826.3911
826.39146
826.39179
826.3921
826.39239
826.3927
826.39301
826.39334
826.39368
826.39403
826.39441
826.39473
826.3954
828.22802
828.22802
828.22796
828.22785
828.22773
828.22762
828.22751
828.22739
828.22726
828.22714
828.22701
828.22688
828.22674
828.2266
828.22646
828.22632
828.22617
828.22603
828.22588
828.22574
828.22558
828.22539
828.22515
828.22482
828.22441
828.22391
828.22336
828.22281
828.22232
828.22199
828.22188
828.22202
828.22242
828.22301
828.2237
828.22442
828.22508
828.22567
828.22617
828.22661
828.22701
828.2274
828.22778
828.22818
828.22859
828.22901
828.22945
828.22993
828.23031
828.23114
829.98549
829.98549
829.98544
829.98534
829.98523
829.98514
829.98504
829.98493
829.98482
829.98471
829.9846
829.98449
829.98437
829.98425
829.98413
829.98401
829.98388
829.98376
829.98363
829.98351
829.98338
829.98322
829.98302
829.98275
829.98242
829.98204
829.98163
829.98127
829.98101
829.98095
829.98116
829.98166
829.98243
829.98338
829.98441
829.98542
829.98632
829.98709
829.98774
829.9883
829.98879
829.98927
829.98974
829.99022
829.99071
829.99123
829.99175
829.99232
829.99279
829.99377
831.6751
831.6751
831.67505
831.67497
831.67488
831.67479
831.67471
831.67462
831.67453
831.67443
831.67434
831.67424
831.67414
831.67404
831.67394
831.67384
831.67374
831.67363
831.67353
831.67343
831.67332
831.6732
831.67304
831.67283
831.67259
831.67232
831.67207
831.6719
831.67188
831.6721
831.67263
831.67349
831.67464
831.67597
831.67735
831.67865
831.6798
831.68076
831.68155
831.68223
831.68283
831.68339
831.68395
831.68451
831.6851
831.6857
831.68631
831.68698
831.68752
831.68866
833.30167
833.30167
833.30163
833.30156
833.30148
833.30141
833.30134
833.30127
833.3012
833.30112
833.30104
833.30096
833.30088
833.3008
833.30072
833.30064
833.30056
833.30048
833.3004
833.30032
833.30024
833.30014
833.30003
833.29989
833.29973
833.29958
833.29949
833.29951
833.29973
833.30024
833.30111
833.30234
833.30388
833.30559
833.30732
833.30893
833.31033
833.31149
833.31243
833.31322
833.31392
833.31458
833.31523
833.31588
833.31656
833.31725
833.31795
833.31872
833.31934
833.32065
834.86953
834.86953
834.8695
834.86944
834.86938
834.86933
834.86927
834.86921
834.86915
834.8691
834.86904
834.86898
834.86892
834.86886
834.8688
834.86874
834.86868
834.86862
834.86857
834.86851
834.86846
834.86839
834.86832
834.86824
834.86818
834.86815
834.86822
834.86844
834.86891
834.86971
834.87092
834.87253
834.87447
834.87657
834.87867
834.88059
834.88224
834.8836
834.8847
834.88561
834.88642
834.88717
834.88791
834.88865
834.88942
834.8902
834.891
834.89187
834.89257
834.89404
836.38258
836.38258
836.38256
836.38252
836.38247
836.38243
836.38239
836.38235
836.38231
836.38227
836.38223
836.38219
836.38215
836.38211
836.38207
836.38203
836.382
836.38196
836.38193
836.3819
836.38187
836.38184
836.38181
836.3818
836.38183
836.38193
836.38216
836.38259
836.38331
836.38442
836.38597
836.38797
836.39031
836.39282
836.39529
836.39753
836.39944
836.401
836.40226
836.4033
836.40421
836.40505
836.40588
836.40672
836.40758
836.40846
836.40935
836.41032
836.41111
836.41274
837.84435
837.84435
837.84434
837.84431
837.84429
837.84426
837.84424
837.84421
837.84419
837.84417
837.84414
837.84412
837.8441
837.84409
837.84407
837.84406
837.84404
837.84403
837.84403
837.84402
837.84402
837.84402
837.84404
837.8441
837.84422
837.84445
837.84484
837.84548
837.84646
837.84788
837.84979
837.85218
837.85494
837.85786
837.8607
837.86327
837.86545
837.86721
837.86863
837.8698
837.87082
837.87176
837.87269
837.87362
837.87457
837.87555
837.87654
837.87761
837.87848
837.88029
839.25806
839.25806
839.25805
839.25804
839.25803
839.25802
839.25801
839.258
839.258
839.25799
839.25799
839.25799
839.25799
839.258
839.258
839.25801
839.25802
839.25804
839.25806
839.25808
839.2581
839.25814
839.25821
839.25833
839.25855
839.25891
839.25948
839.26033
839.26157
839.2633
839.26558
839.26838
839.27156
839.2749
839.27812
839.28102
839.28347
839.28544
839.28703
839.28832
839.28945
839.2905
839.29152
839.29254
839.29359
839.29467
839.29576
839.29693
839.29789
839.29987
840.6266
840.6266
840.6266
840.62661
840.62662
840.62662
840.62663
840.62664
840.62665
840.62667
840.62668
840.6267
840.62673
840.62675
840.62678
840.62682
840.62685
840.62689
840.62694
840.62698
840.62704
840.62711
840.62722
840.62742
840.62773
840.62823
840.62897
840.63005
840.63156
840.63361
840.63626
840.63947
840.64308
840.64684
840.65046
840.6537
840.65641
840.65861
840.66036
840.66179
840.66302
840.66417
840.66529
840.66641
840.66756
840.66873
840.66992
840.6712
840.67224
840.6744
841.95265
841.95265
841.95266
841.95269
841.95271
841.95273
841.95276
841.95278
841.95282
841.95285
841.95289
841.95293
841.95297
841.95302
841.95307
841.95313
841.95319
841.95326
841.95333
841.9534
841.95348
841.95359
841.95376
841.95402
841.95444
841.95507
841.95599
841.95729
841.95908
841.96146
841.96448
841.96811
841.97216
841.97636
841.98037
841.98395
841.98695
841.98936
841.99128
841.99284
841.99419
841.99544
841.99666
841.99788
841.99912
842.0004
842.00169
842.00308
842.00421
842.00655
843.23865
843.23865
843.23867
843.2387
843.23874
843.23878
843.23883
843.23887
843.23892
843.23898
843.23904
843.2391
843.23916
843.23924
843.23931
843.23939
843.23948
843.23957
843.23967
843.23977
843.23988
843.24003
843.24024
843.24058
843.2411
843.24187
843.24298
843.2445
843.24657
843.24928
843.25269
843.25675
843.26125
843.26588
843.2703
843.27423
843.27751
843.28014
843.28223
843.28393
843.28539
843.28675
843.28806
843.28938
843.29073
843.29211
843.2935
843.295
843.29622
843.29874
844.48682
844.48682
844.48685
844.4869
844.48696
844.48702
844.48708
844.48714
844.48721
844.48729
844.48736
844.48745
844.48754
844.48763
844.48773
844.48784
844.48796
844.48808
844.4882
844.48832
844.48847
844.48865
844.48892
844.48933
844.48995
844.49087
844.49216
844.49392
844.49627
844.49932
844.50312
844.50761
844.51256
844.51764
844.52247
844.52675
844.53032
844.53318
844.53544
844.53727
844.53886
844.54031
844.54173
844.54315
844.5446
844.54608
844.54758
844.54919
844.5505
844.5532
845.69923
845.69923
845.69927
845.69934
845.69941
845.69949
845.69956
845.69965
845.69974
845.69983
845.69993
845.70004
845.70015
845.70027
845.7004
845.70053
845.70067
845.70082
845.70097
845.70112
845.7013
845.70152
845.70184
845.70232
845.70305
845.70411
845.70559
845.70759
845.71023
845.71362
845.71782
845.72275
845.72816
845.73369
845.73894
845.74358
845.74744
845.75052
845.75296
845.75494
845.75664
845.7582
845.75972
845.76124
845.76279
845.76438
845.76598
845.76771
845.76911
845.77199
846.87777
846.87777
846.87781
846.8779
846.878
846.87809
846.87818
846.87829
846.8784
846.87851
846.87863
846.87876
846.8789
846.87904
846.87919
846.87935
846.87952
846.8797
846.87987
846.88006
846.88026
846.88052
846.8809
846.88146
846.8823
846.88351
846.88517
846.88741
846.89035
846.89409
846.89869
846.90407
846.90995
846.91594
846.92161
846.92661
846.93076
846.93408
846.93669
846.93881
846.94063
846.9423
846.94392
846.94555
846.9472
846.9489
846.9506
846.95244
846.95393
846.957
848.02419
848.02419
848.02424
848.02435
848.02446
848.02457
848.02468
848.02481
848.02494
848.02508
848.02522
848.02537
848.02553
848.0257
848.02588
848.02606
848.02626
848.02646
848.02667
848.02688
848.02712
848.02742
848.02785
848.02849
848.02944
848.03079
848.03266
848.03514
848.03837
848.04247
848.04749
848.05331
848.05966
848.06612
848.07222
848.07758
848.08204
848.08558
848.08838
848.09064
848.09258
848.09436
848.09608
848.09782
848.09957
848.10137
848.10319
848.10514
848.10672
848.10999
849.14011
849.14011
849.14017
849.1403
849.14043
849.14056
849.14069
849.14083
849.14099
849.14114
849.14131
849.14149
849.14167
849.14187
849.14207
849.14228
849.14251
849.14274
849.14297
849.14322
849.14348
849.14382
849.14431
849.14503
849.14609
849.1476
849.14966
849.15239
849.15593
849.16039
849.16582
849.1721
849.17893
849.18586
849.19238
849.19812
849.20288
849.20666
849.20964
849.21204
849.2141
849.21599
849.21782
849.21966
849.22152
849.22343
849.22535
849.22742
849.2291
849.23255
850.22704
850.22704
850.22711
850.22725
850.22741
850.22755
850.2277
850.22787
850.22804
850.22822
850.22841
850.22861
850.22882
850.22904
850.22927
850.22951
850.22976
850.23002
850.23029
850.23056
850.23086
850.23124
850.23178
850.23258
850.23376
850.23542
850.23769
850.24067
850.24451
850.24934
850.25519
850.26193
850.26925
850.27665
850.28362
850.28973
850.29479
850.29881
850.30197
850.30452
850.3067
850.3087
850.31064
850.31258
850.31455
850.31657
850.3186
850.32079
850.32256
850.3262
851.28637
851.28637
851.28645
851.28661
851.28679
851.28695
851.28712
851.28731
851.2875
851.2877
851.28792
851.28814
851.28837
851.28862
851.28888
851.28915
851.28943
851.28972
851.29001
851.29032
851.29065
851.29107
851.29167
851.29255
851.29384
851.29567
851.29813
851.30137
851.30552
851.31072
851.31699
851.32421
851.33202
851.3399
851.3473
851.3538
851.35916
851.36342
851.36677
851.36947
851.37177
851.37388
851.37593
851.37798
851.38006
851.38218
851.38433
851.38663
851.38849
851.39233
852.3194
852.3194
852.31949
852.31967
852.31987
852.32005
852.32024
852.32045
852.32066
852.32089
852.32113
852.32137
852.32163
852.32191
852.32219
852.32249
852.3228
852.32312
852.32344
852.32378
852.32415
852.32461
852.32527
852.32623
852.32764
852.32962
852.33229
852.33579
852.34026
852.34583
852.35253
852.36022
852.36853
852.37689
852.38475
852.39162
852.3973
852.4018
852.40533
852.40818
852.41061
852.41283
852.41499
852.41714
852.41933
852.42157
852.42382
852.42624
852.4282
852.43223
853.32735
853.32734
853.32745
853.32765
853.32786
853.32806
853.32828
853.3285
853.32874
853.32899
853.32925
853.32952
853.32981
853.33011
853.33042
853.33075
853.33109
853.33144
853.3318
853.33216
853.33257
853.33307
853.33378
853.33484
853.33636
853.3385
853.34139
853.34515
853.34993
853.35588
853.36302
853.37119
853.37999
853.38885
853.39715
853.40441
853.4104
853.41515
853.41887
853.42186
853.42442
853.42676
853.42902
853.43129
853.43358
853.43593
853.43829
853.44083
853.44289
853.44712
854.31134
854.31133
854.31145
854.31167
854.3119
854.31212
854.31235
854.3126
854.31286
854.31314
854.31342
854.31372
854.31403
854.31436
854.3147
854.31506
854.31543
854.31581
854.3162
854.31659
854.31703
854.31758
854.31836
854.31949
854.32114
854.32344
854.32654
854.33056
854.33567
854.342
854.34958
854.35824
854.36754
854.3769
854.38565
854.3933
854.39961
854.4046
854.40851
854.41165
854.41433
854.41679
854.41916
854.42153
854.42394
854.4264
854.42887
854.43153
854.43369
854.43811
855.27243
855.27242
855.27255
855.27279
855.27304
855.27329
855.27354
855.27381
855.27409
855.27439
855.2747
855.27502
855.27536
855.27571
855.27608
855.27647
855.27687
855.27728
855.2777
855.27813
855.27861
855.2792
855.28003
855.28126
855.28303
855.2855
855.2888
855.2931
855.29853
855.30525
855.31327
855.32242
855.33223
855.34208
855.3513
855.35934
855.36596
855.3712
855.3753
855.3786
855.38141
855.38397
855.38646
855.38894
855.39146
855.39403
855.39662
855.39939
855.40165
855.40627
856.21161
856.21161
856.21174
856.212
856.21228
856.21254
856.21281
856.21311
856.21341
856.21373
856.21407
856.21442
856.21478
856.21517
856.21556
856.21598
856.21641
856.21686
856.21731
856.21777
856.21828
856.21892
856.21981
856.22112
856.22302
856.22565
856.22918
856.23374
856.23951
856.24662
856.25509
856.26472
856.27505
856.28541
856.29508
856.30352
856.31046
856.31595
856.32024
856.32369
856.32663
856.32931
856.3319
856.3345
856.33712
856.33981
856.34251
856.34541
856.34776
856.35258
857.12982
857.12981
857.12996
857.13024
857.13053
857.13082
857.13111
857.13143
857.13176
857.1321
857.13246
857.13284
857.13323
857.13364
857.13407
857.13452
857.13498
857.13546
857.13594
857.13644
857.13698
857.13767
857.13862
857.14002
857.14204
857.14484
857.14859
857.15342
857.15952
857.16703
857.17595
857.18608
857.19693
857.20779
857.21792
857.22676
857.23403
857.23977
857.24425
857.24785
857.25092
857.25372
857.25642
857.25913
857.26186
857.26466
857.26748
857.2705
857.27295
857.27796
858.02791
858.0279
858.02806
858.02836
858.02868
858.02899
858.0293
858.02964
858.02999
858.03036
858.03075
858.03115
858.03157
858.03201
858.03247
858.03295
858.03344
858.03395
858.03447
858.035
858.03558
858.03631
858.03733
858.03881
858.04096
858.04393
858.0479
858.05301
858.05945
858.06735
858.07673
858.08736
858.09873
858.1101
858.1207
858.12994
858.13753
858.14352
858.1482
858.15195
858.15515
858.15807
858.16088
858.1637
858.16655
858.16946
858.17239
858.17553
858.17808
858.1833
858.90672
858.90671
858.90688
858.9072
858.90754
858.90787
858.9082
858.90856
858.90894
858.90934
858.90975
858.91018
858.91063
858.9111
858.91158
858.91209
858.91262
858.91316
858.91371
858.91428
858.9149
858.91567
858.91675
858.91833
858.9206
858.92375
858.92794
858.93333
858.94011
858.94841
858.95825
858.96938
858.98127
858.99316
859.00423
859.01387
859.02179
859.02803
859.03291
859.03682
859.04014
859.04317
859.0461
859.04903
859.05199
859.05502
859.05806
859.06133
859.06397
859.06939
859.76701
859.767
859.76718
859.76752
859.76789
859.76823
859.76859
859.76898
859.76938
859.7698
859.77024
859.77069
859.77117
859.77167
859.77219
859.77273
859.77329
859.77386
859.77445
859.77504
859.7757
859.77652
859.77767
859.77933
859.78174
859.78506
859.78947
859.79515
859.80227
859.81097
859.82127
859.83291
859.84533
859.85774
859.86928
859.87933
859.88757
859.89407
859.89914
859.9032
859.90666
859.90981
859.91285
859.91589
859.91897
859.92211
859.92527
859.92865
859.9314
859.93702
860.60951
860.6095
860.60969
860.61005
860.61044
860.61081
860.61119
860.6116
860.61202
860.61247
860.61293
860.61342
860.61392
860.61445
860.615
860.61557
860.61617
860.61678
860.61739
860.61803
860.61872
860.61959
860.6208
860.62256
860.62509
860.62859
860.63323
860.63919
860.64665
860.65576
860.66653
860.67868
860.69163
860.70455
860.71657
860.72703
860.7356
860.74236
860.74763
860.75184
860.75543
860.7587
860.76185
860.76501
860.7682
860.77145
860.77473
860.77823
860.78108
860.7869
861.4349
861.43489
861.4351
861.43548
861.43589
861.43628
861.43668
861.43711
861.43757
861.43804
861.43853
861.43904
861.43958
861.44013
861.44071
861.44132
861.44194
861.44259
861.44324
861.44391
861.44464
861.44556
861.44683
861.44868
861.45134
861.45502
861.45989
861.46614
861.47395
861.48347
861.4947
861.50737
861.52086
861.5343
861.5468
861.55766
861.56657
861.57358
861.57905
861.58342
861.58714
861.59052
861.59379
861.59706
861.60036
861.60373
861.60712
861.61075
861.6137
861.61973
862.24384
862.24383
862.24405
862.24445
862.24489
862.2453
862.24572
862.24618
862.24665
862.24715
862.24767
862.24821
862.24877
862.24936
862.24997
862.25061
862.25127
862.25195
862.25263
862.25334
862.25411
862.25507
862.25641
862.25836
862.26115
862.26501
862.27011
862.27664
862.2848
862.29474
862.30644
862.31963
862.33365
862.34762
862.3606
862.37187
862.38111
862.38838
862.39404
862.39858
862.40242
862.40593
862.40931
862.41269
862.41611
862.4196
862.4231
862.42686
862.4299
862.43613
863.03693
863.03692
863.03715
863.03758
863.03804
863.03847
863.03892
863.0394
863.0399
863.04042
863.04097
863.04154
863.04213
863.04275
863.04339
863.04406
863.04475
863.04547
863.04619
863.04692
863.04774
863.04875
863.05015
863.05219
863.05512
863.05915
863.06449
863.07132
863.07983
863.09018
863.10236
863.11607
863.13063
863.14513
863.15858
863.17027
863.17984
863.18737
863.19324
863.19792
863.2019
863.20553
863.20903
863.21252
863.21605
863.21965
863.22328