/*--------------------------------*- C++ -*----------------------------------*\
| =========                 |                                                 |
| \\      /  F ield         | OpenFOAM: The Open Source CFD Toolbox           |
|  \\    /   O peration     | Version:  4.0                                   |
|   \\  /    A nd           | Web:      www.OpenFOAM.org                      |
|    \\/     M anipulation  |                                                 |
\*---------------------------------------------------------------------------*/
FoamFile
{
    version     2.0;
    format      ascii;
    class       surfaceScalarField;
    location    "4000/fluid";
    object      phi;
}
// * * * * * * * * * * * * * * * * * * * * * * * * * * * * * * * * * * * * * //

dimensions      [1 0 -1 0 0 0 0];

internalField   nonuniform List<scalar> 
9850
(
1.353204e-10
1.7601741e-10
5.5821353e-10
6.0029637e-10
1.3037428e-09
1.166192e-09
2.3968436e-09
1.9079468e-09
3.8465295e-09
2.8644687e-09
5.6397098e-09
4.0780753e-09
7.7355301e-09
5.5920527e-09
1.0061492e-08
7.4468521e-09
1.2513015e-08
9.6748173e-09
1.495801e-08
1.2293946e-08
1.7247584e-08
1.5301816e-08
1.9232641e-08
1.8671476e-08
2.078439e-08
2.2351679e-08
2.18147e-08
2.6273766e-08
2.2291099e-08
3.0366042e-08
2.2241576e-08
3.4574586e-08
2.1747016e-08
3.8886877e-08
2.0923081e-08
4.3352781e-08
1.9897026e-08
4.8098392e-08
1.8786172e-08
5.3330447e-08
1.768314e-08
5.9332626e-08
1.6649489e-08
6.6456896e-08
1.5716242e-08
7.5113872e-08
1.4888306e-08
8.5763929e-08
1.4149699e-08
9.8913973e-08
1.3468007e-08
1.1511642e-07
1.2797071e-08
1.3498205e-07
1.2079122e-08
1.5919568e-07
1.1245155e-08
1.88552e-07
1.0217076e-08
2.2398764e-07
8.9048391e-09
2.6664636e-07
7.2105874e-09
3.1789757e-07
5.0166219e-09
3.794608e-07
2.1995081e-09
4.533424e-07
-1.3883223e-09
5.4213859e-07
-5.9430968e-09
6.4869628e-07
-1.1570253e-08
7.7695161e-07
-1.8596537e-08
9.3083628e-07
-2.7070617e-08
1.1164369e-06
-3.7424674e-08
1.3389246e-06
-4.9626799e-08
1.6079988e-06
-6.4122675e-08
1.9298196e-06
-8.0847881e-08
2.3204952e-06
-9.9850879e-08
2.7855285e-06
-1.2134705e-07
3.3532478e-06
-1.4356924e-07
4.0223032e-06
-1.6794414e-07
4.8465515e-06
-1.9168497e-07
5.8042919e-06
-2.4664076e-07
7.0774393e-06
7.5922009e-06
-9.5317101e-11
2.7133306e-10
-4.0669806e-10
9.1167632e-10
-9.8229166e-10
1.7417847e-09
-1.8758516e-09
2.8015056e-09
-3.1468987e-09
4.1355143e-09
-4.861103e-09
5.7922779e-09
-7.0909046e-09
7.8218518e-09
-9.9162429e-09
1.0272188e-08
-1.3424723e-08
1.3183294e-08
-1.770983e-08
1.657905e-08
-2.286494e-08
2.0456924e-08
-2.897045e-08
2.4776985e-08
-3.6072313e-08
2.9453543e-08
-4.4153459e-08
3.435492e-08
-5.3104671e-08
3.9317266e-08
-6.2706405e-08
4.417634e-08
-7.2633716e-08
4.8814212e-08
-8.2489886e-08
5.3208978e-08
-9.1862558e-08
5.7471093e-08
-1.0038556e-07
6.1853477e-08
-1.0778726e-07
6.6734339e-08
-1.1391341e-07
7.2583056e-08
-1.1872397e-07
7.9924426e-08
-1.2227211e-07
8.9312054e-08
-1.2467647e-07
1.0131832e-07
-1.2609547e-07
1.1653539e-07
-1.2670677e-07
1.3559331e-07
-1.2669346e-07
1.5918234e-07
-1.2623214e-07
1.8809065e-07
-1.2548833e-07
2.2324381e-07
-1.2460718e-07
2.6576518e-07
-1.2372595e-07
3.1701633e-07
-1.2295911e-07
3.7869396e-07
-1.2245233e-07
4.5283563e-07
-1.2230826e-07
5.4199453e-07
-1.2278382e-07
6.4917192e-07
-1.2398566e-07
7.7815351e-07
-1.2637914e-07
9.3322994e-07
-1.3010741e-07
1.1201653e-06
-1.3586854e-07
1.3446861e-06
-1.4396657e-07
1.6160971e-06
-1.5524042e-07
1.9410942e-06
-1.7048057e-07
2.3357361e-06
-1.9046254e-07
2.8055121e-06
-2.1693019e-07
3.3797165e-06
-2.5117866e-07
4.0565548e-06
-2.9571061e-07
4.8910855e-06
-3.8795243e-07
5.8965389e-06
-5.9123387e-07
7.2807235e-06
7.000978e-06
-3.1081356e-11
3.0241276e-10
-1.3951415e-10
1.020108e-09
-3.5401456e-10
1.9562841e-09
-7.1180227e-10
3.1592922e-09
-1.260608e-09
4.6843186e-09
-2.0609141e-09
6.5925823e-09
-3.1883481e-09
8.9492837e-09
-4.7360266e-09
1.1819863e-08
-6.8165265e-09
1.526379e-08
-9.5628074e-09
1.9325327e-08
-1.312687e-08
2.4020982e-08
-1.767392e-08
2.932403e-08
-2.3368687e-08
3.5148307e-08
-3.0350057e-08
4.1336291e-08
-3.869206e-08
4.7659276e-08
-4.8355413e-08
5.3839709e-08
-5.9143599e-08
5.9602427e-08
-7.068499e-08
6.475041e-08
-8.2459389e-08
6.9245539e-08
-9.3870055e-08
7.3264195e-08
-1.0434027e-07
7.7204603e-08
-1.1340219e-07
8.1645014e-08
-1.2075245e-07
8.7274704e-08
-1.2626676e-07
9.4826367e-08
-1.299815e-07
1.0503304e-07
-1.3205758e-07
1.1861144e-07
-1.3273936e-07
1.3627505e-07
-1.3231893e-07
1.5876186e-07
-1.3110541e-07
1.8687707e-07
-1.2940753e-07
2.2154588e-07
-1.2751485e-07
2.6387243e-07
-1.2570428e-07
3.1520572e-07
-1.242231e-07
3.772127e-07
-1.2333259e-07
4.5194505e-07
-1.2326617e-07
5.4192795e-07
-1.2430907e-07
6.5021469e-07
-1.2676822e-07
7.8061234e-07
-1.3099391e-07
9.3745537e-07
-1.3734184e-07
1.1265126e-06
-1.4637079e-07
1.3537146e-06
-1.583845e-07
1.6281097e-06
-1.7455143e-07
1.9572602e-06
-1.9472632e-07
2.3559091e-06
-2.2202687e-07
2.8328113e-06
-2.5425806e-07
3.4119441e-06
-3.0047859e-07
4.1027729e-06
-3.5621197e-07
4.946814e-06
-4.8648734e-07
6.0268093e-06
-6.2020948e-07
7.4144387e-06
6.3807591e-06
-2.6045313e-11
3.2845604e-10
-1.1608729e-10
1.1101486e-09
-2.9257538e-10
2.132771e-09
-5.8449761e-10
3.451213e-09
-1.0292071e-09
5.1290263e-09
-1.6746537e-09
7.2380268e-09
-2.5820481e-09
9.8566755e-09
-3.8289024e-09
1.3066715e-08
-5.5122288e-09
1.6947113e-08
-7.7514372e-09
2.1564531e-08
-1.0690081e-08
2.6959621e-08
-1.4494978e-08
3.3128921e-08
-1.9350376e-08
4.00037e-08
-2.5443887e-08
4.7429799e-08
-3.2940426e-08
5.5155819e-08
-4.1942067e-08
6.2841364e-08
-5.2437444e-08
7.0097831e-08
-6.4254231e-08
7.656724e-08
-7.7037327e-08
8.2028694e-08
-9.0273611e-08
8.6500547e-08
-1.0336641e-07
9.0297472e-08
-1.1573796e-07
9.401663e-08
-1.2692433e-07
9.8461126e-08
-1.366339e-07
1.0453596e-07
-1.4476051e-07
1.1315967e-07
-1.5135994e-07
1.2521086e-07
-1.566067e-07
1.4152176e-07
-1.6074609e-07
1.6290121e-07
-1.6405176e-07
1.9018269e-07
-1.6679294e-07
2.2428702e-07
-1.6921296e-07
2.6629242e-07
-1.7151889e-07
3.1751166e-07
-1.738816e-07
3.7957541e-07
-1.7644786e-07
4.5451141e-07
-1.7935754e-07
5.4483768e-07
-1.8278847e-07
6.5364584e-07
-1.868927e-07
7.8471668e-07
-1.9205857e-07
9.4262162e-07
-1.9845924e-07
1.1329134e-06
-2.070134e-07
1.3622694e-06
-2.1768684e-07
1.6387833e-06
-2.3263131e-07
1.9722056e-06
-2.5090846e-07
2.3741865e-06
-2.7736867e-07
2.8592727e-06
-3.0861358e-07
3.4431892e-06
-3.5501073e-07
4.1491712e-06
-4.1916382e-07
5.0109681e-06
-5.5237337e-07
6.16002e-06
-5.9569014e-07
7.4577565e-06
5.78507e-06
-1.9432381e-11
3.478862e-10
-8.683146e-11
1.1775462e-09
-2.1940123e-10
2.2653393e-09
-4.3956753e-10
3.6713779e-09
-7.7647697e-10
5.4659339e-09
-1.2679145e-09
7.7294622e-09
-1.9627023e-09
1.055146e-08
-2.9236309e-09
1.402764e-08
-4.2308879e-09
1.8254365e-08
-5.9857812e-09
2.3319418e-08
-8.3142282e-09
2.9288061e-08
-1.1368928e-08
3.6183615e-08
-1.5328305e-08
4.3963071e-08
-2.0389284e-08
5.2490772e-08
-2.6749983e-08
6.1516517e-08
-3.4578547e-08
7.0669937e-08
-4.3967106e-08
7.9486412e-08
-5.4876955e-08
8.7477129e-08
-6.709162e-08
9.4243418e-08
-8.0201823e-08
9.9610827e-08
-9.3641109e-08
1.0373684e-07
-1.067702e-07
1.071458e-07
-1.189841e-07
1.106751e-07
-1.298062e-07
1.1535812e-07
-1.3894395e-07
1.2229745e-07
-1.4630053e-07
1.3256745e-07
-1.5195254e-07
1.4717374e-07
-1.5610945e-07
1.6705807e-07
-1.5906703e-07
1.931402e-07
-1.611662e-07
2.2638613e-07
-1.6275624e-07
2.6788238e-07
-1.6417701e-07
3.1893239e-07
-1.657374e-07
3.8113575e-07
-1.67738e-07
4.5651204e-07
-1.7044082e-07
5.4754047e-07
-1.7416409e-07
6.5736921e-07
-1.7915263e-07
7.8970519e-07
-1.8587122e-07
9.4934045e-07
-1.9453298e-07
1.1415751e-06
-2.0597033e-07
1.3737072e-06
-2.2022819e-07
1.6530414e-06
-2.389449e-07
1.990923e-06
-2.617878e-07
2.39703e-06
-2.9180562e-07
2.8892918e-06
-3.2823814e-07
3.479623e-06
-3.7716832e-07
4.1981032e-06
-4.5293398e-07
5.0867359e-06
-5.7536536e-07
6.2824545e-06
-5.4631138e-07
7.4287067e-06
5.238765e-06
-1.8068482e-11
3.6595208e-10
-8.0550806e-11
1.2400269e-09
-2.0303996e-10
2.3878268e-09
-4.0568164e-10
3.8740178e-09
-7.1445473e-10
5.774705e-09
-1.1627822e-09
8.1777873e-09
-1.7935489e-09
1.1182224e-08
-2.6615934e-09
1.489568e-08
-3.8367012e-09
1.9429469e-08
-5.4070309e-09
2.4889742e-08
-7.4827127e-09
3.1363737e-08
-1.0198957e-08
3.8899851e-08
-1.3717355e-08
4.7481462e-08
-1.822312e-08
5.699653e-08
-2.3914853e-08
6.7208247e-08
-3.0982795e-08
7.7737884e-08
-3.9572535e-08
8.807617e-08
-4.9735613e-08
9.7640244e-08
-6.1377188e-08
1.0588505e-07
-7.4220678e-08
1.124544e-07
-8.7812164e-08
1.1732842e-07
-1.0157563e-07
1.2090937e-07
-1.1490712e-07
1.2400668e-07
-1.2727665e-07
1.2772773e-07
-1.3830573e-07
1.3332657e-07
-1.4780287e-07
1.4206461e-07
-1.5575899e-07
1.5512984e-07
-1.6231545e-07
1.7361448e-07
-1.6771875e-07
1.9854341e-07
-1.7227486e-07
2.3094215e-07
-1.7630669e-07
2.719141e-07
-1.8012531e-07
3.2275092e-07
-1.8400582e-07
3.8501614e-07
-1.8819066e-07
4.6069683e-07
-1.9288227e-07
5.5223195e-07
-1.9828742e-07
6.6277431e-07
-2.0460704e-07
7.9602467e-07
-2.1212649e-07
9.5685981e-07
-2.2116212e-07
1.1506105e-06
-2.3222003e-07
1.3847649e-06
-2.458601e-07
1.666681e-06
-2.6294119e-07
2.0080037e-06
-2.8446383e-07
2.4185519e-06
-3.1156199e-07
2.9163893e-06
-3.4619462e-07
3.5142548e-06
-3.9237355e-07
4.2442812e-06
-4.6891628e-07
5.1632772e-06
-5.6860011e-07
6.3821371e-06
-4.8006741e-07
7.3401732e-06
4.7586963e-06
-1.5614771e-11
3.8156418e-10
-6.9669368e-11
1.2940798e-09
-1.7578112e-10
2.4939368e-09
-3.5161972e-10
4.0498546e-09
-6.2005447e-10
6.0431376e-09
-1.0106148e-09
8.568345e-09
-1.5613266e-09
1.1732933e-08
-2.3209902e-09
1.565534e-08
-3.3519385e-09
2.0460412e-08
-4.7332517e-09
2.627105e-08
-6.5642637e-09
3.3194742e-08
-8.9679084e-09
4.1303488e-08
-1.2092946e-08
5.0606491e-08
-1.6113329e-08
6.1016905e-08
-2.1221884e-08
7.2316797e-08
-2.7614526e-08
8.4130529e-08
-3.5461277e-08
9.5922935e-08
-4.4862957e-08
1.0704196e-07
-5.5799164e-08
1.1682132e-07
-6.8082724e-08
1.2473804e-07
-8.1342643e-08
1.3058844e-07
-9.5053278e-08
1.3462012e-07
-1.0860944e-07
1.3756295e-07
-1.2142523e-07
1.4054362e-07
-1.3302491e-07
1.4492632e-07
-1.4310093e-07
1.5214067e-07
-1.515329e-07
1.6356182e-07
-1.5837381e-07
1.8045536e-07
-1.6381712e-07
2.0398667e-07
-1.6815475e-07
2.3527971e-07
-1.7173663e-07
2.7549589e-07
-1.7493151e-07
3.2594573e-07
-1.7810394e-07
3.8818851e-07
-1.8158908e-07
4.6418196e-07
-1.8570716e-07
5.5635002e-07
-1.9074037e-07
6.6780759e-07
-1.9701093e-07
8.0229525e-07
-2.0479215e-07
9.6464116e-07
-2.145271e-07
1.1603455e-06
-2.2650914e-07
1.3967471e-06
-2.4148155e-07
1.6816534e-06
-2.59738e-07
2.0262601e-06
-2.8259115e-07
2.4414049e-06
-3.1020469e-07
2.9440023e-06
-3.4520761e-07
3.5492569e-06
-3.9205698e-07
4.2911297e-06
-4.6713483e-07
5.2383536e-06
-5.4254149e-07
6.4575418e-06
-4.1545453e-07
7.2130841e-06
4.3432379e-06
-1.4554274e-11
3.9611561e-10
-6.488998e-11
1.3444137e-09
-1.635863e-10
2.5926315e-09
-3.2691209e-10
4.2131786e-09
-5.7586735e-10
6.2920907e-09
-9.3750202e-10
8.929977e-09
-1.4465762e-09
1.2242004e-08
-2.1476314e-09
1.6356391e-08
-3.0975181e-09
2.1410293e-08
-4.3683863e-09
2.7541911e-08
-6.0510385e-09
3.4877386e-08
-8.2583147e-09
4.3510755e-08
-1.1127787e-08
5.3475953e-08
-1.4822385e-08
6.4711494e-08
-1.9526633e-08
7.7021038e-08
-2.5435154e-08
9.003905e-08
-3.2729699e-08
1.0321749e-07
-4.1542318e-08
1.1585461e-07
-5.1907279e-08
1.2718633e-07
-6.3712772e-08
1.3654362e-07
-7.6671839e-08
1.4354762e-07
-9.033252e-08
1.4828092e-07
-1.0413459e-07
1.5136515e-07
-1.1749906e-07
1.539082e-07
-1.2992176e-07
1.5734912e-07
-1.4104271e-07
1.6326168e-07
-1.5067845e-07
1.7319758e-07
-1.5881873e-07
1.8859562e-07
-1.656003e-07
2.1076817e-07
-1.7126737e-07
2.409467e-07
-1.761322e-07
2.8036062e-07
-1.8053288e-07
3.3034631e-07
-1.8480849e-07
3.9246403e-07
-1.8926491e-07
4.6863834e-07
-1.9419028e-07
5.6127539e-07
-1.9981866e-07
6.7343603e-07
-2.0642466e-07
8.0890133e-07
-2.1421732e-07
9.7243398e-07
-2.2359726e-07
1.1697256e-06
-2.3480852e-07
1.4079587e-06
-2.4857358e-07
1.6954187e-06
-2.6517736e-07
2.0428644e-06
-2.8584026e-07
2.4620684e-06
-3.1083784e-07
2.9690007e-06
-3.4282707e-07
3.5812468e-06
-3.8750627e-07
4.3358099e-06
-4.5593194e-07
5.3067801e-06
-5.0520962e-07
6.5068205e-06
-3.5465224e-07
7.0625275e-06
3.9885866e-06
-1.3146274e-11
4.0925889e-10
-5.863435e-11
1.3899e-09
-1.4788546e-10
2.6818809e-09
-2.957037e-10
4.3609949e-09
-5.2123507e-10
6.5176197e-09
-8.4918974e-10
9.2579289e-09
-1.3113868e-09
1.2704197e-08
-1.9486877e-09
1.6993688e-08
-2.8133701e-09
2.227497e-08
-3.9719645e-09
2.8700499e-08
-5.5084917e-09
3.6413905e-08
-7.5278519e-09
4.5530106e-08
-1.0158789e-08
5.610688e-08
-1.3555302e-08
6.8107995e-08
-1.7894507e-08
8.1360235e-08
-2.336802e-08
9.551256e-08
-3.0163175e-08
1.1001266e-07
-3.8431148e-08
1.2412261e-07
-4.8242589e-08
1.3699783e-07
-5.953868e-08
1.4783979e-07
-7.20942e-08
1.5610325e-07
-8.5512899e-08
1.6169975e-07
-9.9267498e-08
1.6511989e-07
-1.1277783e-07
1.6741867e-07
-1.2550335e-07
1.7007475e-07
-1.3702096e-07
1.7477937e-07
-1.4707103e-07
1.8324768e-07
-1.5556811e-07
1.9709271e-07
-1.625859e-07
2.1778591e-07
-1.6832597e-07
2.4668668e-07
-1.7308192e-07
2.8511646e-07
-1.7719984e-07
3.3446411e-07
-1.8104785e-07
3.9631192e-07
-1.8498232e-07
4.7257273e-07
-1.8934371e-07
5.6563671e-07
-1.9443137e-07
6.7852368e-07
-2.0055088e-07
8.150208e-07
-2.0796544e-07
9.7984858e-07
-2.1703027e-07
1.1787904e-06
-2.2802851e-07
1.4189571e-06
-2.4148922e-07
1.7088795e-06
-2.5774426e-07
2.0591197e-06
-2.7758356e-07
2.4819078e-06
-3.0150738e-07
2.992925e-06
-3.3189556e-07
3.6116354e-06
-3.7501233e-07
4.3789276e-06
-4.3560707e-07
5.3673757e-06
-4.6154474e-07
6.5327598e-06
-2.9949977e-07
6.9004843e-06
3.6890898e-06
-1.2353224e-11
4.2160889e-10
-5.5075622e-11
1.4326204e-09
-1.3884853e-10
2.765652e-09
-2.774933e-10
4.4996377e-09
-4.8885992e-10
6.7289841e-09
-7.9595803e-10
9.5650243e-09
-1.2283869e-09
1.3136623e-08
-1.8241312e-09
1.7589428e-08
-2.6317804e-09
2.3082614e-08
-3.7132042e-09
2.9781916e-08
-5.1466535e-09
3.7847346e-08
-7.0301034e-09
4.7413545e-08
-9.4843759e-09
5.8561141e-08
-1.2655101e-08
7.1278708e-08
-1.6711824e-08
8.5416948e-08
-2.1841619e-08
1.0064235e-07
-2.8233768e-08
1.1640481e-07
-3.6052256e-08
1.3194112e-07
-4.5395438e-08
1.4634106e-07
-5.6248351e-08
1.5869278e-07
-6.8441597e-08
1.6829661e-07
-8.1636315e-08
1.7489461e-07
-9.5350525e-08
1.7883426e-07
-1.0902616e-07
1.8109445e-07
-1.2211767e-07
1.8316638e-07
-1.3417381e-07
1.868356e-07
-1.4489186e-07
1.9396579e-07
-1.5413701e-07
2.0633786e-07
-1.6193325e-07
2.2558212e-07
-1.6843649e-07
2.5318986e-07
-1.7389991e-07
2.9057978e-07
-1.7863714e-07
3.3920122e-07
-1.8298849e-07
4.0066315e-07
-1.8729126e-07
4.7687539e-07
-1.918613e-07
5.7020666e-07
-1.9698323e-07
6.8364558e-07
-2.0292044e-07
8.2095799e-07
-2.0992646e-07
9.8685462e-07
-2.1827944e-07
1.1871434e-06
-2.2829e-07
1.4289677e-06
-2.4034946e-07
1.7209389e-06
-2.548923e-07
2.0736626e-06
-2.7245997e-07
2.4994752e-06
-2.9387191e-07
3.0143369e-06
-3.2146116e-07
3.6392243e-06
-3.6133178e-07
4.4187982e-06
-4.1234272e-07
5.418386e-06
-4.1765448e-07
6.5380715e-06
-2.517364e-07
6.734566e-06
3.437353e-06
-1.1434856e-11
4.3304052e-10
-5.0991343e-11
1.4721749e-09
-1.2858419e-10
2.843243e-09
-2.5705794e-10
4.6281093e-09
-4.53018e-10
6.9249416e-09
-7.3789218e-10
9.8498955e-09
-1.1392753e-09
1.3538002e-08
-1.6926224e-09
1.814277e-08
-2.4433477e-09
2.3833334e-08
-3.4493719e-09
3.0787933e-08
-4.7841055e-09
3.9182071e-08
-6.5397335e-09
4.9169163e-08
-8.8304206e-09
6.0851816e-08
-1.1794647e-08
7.4242922e-08
-1.5595203e-08
8.9217493e-08
-2.0414472e-08
1.0546161e-07
-2.6441776e-08
1.2243212e-07
-3.3849389e-08
1.3934875e-07
-4.275571e-08
1.5524742e-07
-5.3179183e-08
1.6911634e-07
-6.4994533e-08
1.8011208e-07
-7.7909603e-08
1.8780983e-07
-9.147979e-08
1.924046e-07
-1.0516401e-07
1.9477884e-07
-1.1840791e-07
1.9641042e-07
-1.3072763e-07
1.9915544e-07
-1.4177153e-07
2.0500977e-07
-1.5134911e-07
2.1591547e-07
-1.5943047e-07
2.3366346e-07
-1.6612632e-07
2.5988565e-07
-1.7165741e-07
2.9611077e-07
-1.7632124e-07
3.4386493e-07
-1.8045742e-07
4.047992e-07
-1.8441897e-07
4.8083682e-07
-1.8854438e-07
5.7433197e-07
-1.9315014e-07
6.8825132e-07
-1.9851673e-07
8.2632457e-07
-2.0492029e-07
9.9325825e-07
-2.1261321e-07
1.1948363e-06
-2.2190585e-07
1.4382605e-06
-2.3308315e-07
1.7321162e-06
-2.4656057e-07
2.0871402e-06
-2.6269338e-07
2.515608e-06
-2.8242475e-07
3.0340685e-06
-3.0806608e-07
3.6648654e-06
-3.4478198e-07
4.4555142e-06
-3.8644357e-07
5.4600471e-06
-3.7503981e-07
6.5266674e-06
-2.1078551e-07
6.5703108e-06
3.2265658e-06
-1.082162e-11
4.4385887e-10
-4.8245942e-11
1.5095972e-09
-1.2163144e-10
2.9166266e-09
-2.4309045e-10
4.7495662e-09
-4.2827034e-10
7.1101191e-09
-6.9734952e-10
1.0118972e-08
-1.0763009e-09
1.391695e-08
-1.5984853e-09
1.866495e-08
-2.306636e-09
2.4541478e-08
-3.2552796e-09
3.1736569e-08
-4.5136001e-09
4.0440382e-08
-6.1686463e-09
5.0824199e-08
-8.3285711e-09
6.3011728e-08
-1.1125235e-08
7.7039572e-08
-1.4714884e-08
9.280713e-08
-1.9274791e-08
1.1002151e-07
-2.4992826e-08
1.2815015e-07
-3.2046578e-08
1.4640252e-07
-4.056989e-08
1.6377078e-07
-5.0608958e-08
1.7915548e-07
-6.2077479e-08
1.9158072e-07
-7.4727664e-08
2.0046016e-07
-8.8154943e-08
2.0583205e-07
-1.0184389e-07
2.0846797e-07
-1.1524541e-07
2.098121e-07
-1.2786066e-07
2.1177082e-07
-1.3930773e-07
2.1645693e-07
-1.4935732e-07
2.2596511e-07
-1.5793798e-07
2.422441e-07
-1.6511995e-07
2.6706756e-07
-1.7108696e-07
3.0207768e-07
-1.7610456e-07
3.488824e-07
-1.8048634e-07
4.0918085e-07
-1.8456567e-07
4.8491603e-07
-1.8866607e-07
5.7843225e-07
-1.9309151e-07
6.9267672e-07
-1.9810787e-07
8.3134087e-07
-2.0397347e-07
9.991239e-07
-2.1091529e-07
1.2017781e-06
-2.192166e-07
1.446562e-06
-2.2912189e-07
1.7420215e-06
-2.4101493e-07
2.0990336e-06
-2.5523032e-07
2.5298235e-06
-2.7280045e-07
3.051639e-06
-2.9609383e-07
3.6881589e-06
-3.2895387e-07
4.4883749e-06
-3.6133277e-07
5.4924263e-06
-3.3640276e-07
6.501738e-06
-1.7676581e-07
6.410674e-06
3.0498006e-06
-1.0173939e-11
4.540295e-10
-4.536272e-11
1.544784e-09
-1.1437732e-10
2.9856393e-09
-2.286284e-10
4.863815e-09
-4.0286466e-10
7.2843527e-09
-6.5611584e-10
1.037222e-08
-1.0128911e-09
1.4273721e-08
-1.5046919e-09
1.9156746e-08
-2.171901e-09
2.5208681e-08
-3.0660968e-09
3.2630757e-08
-4.2528105e-09
4.1627086e-08
-5.8146543e-09
5.2386031e-08
-7.8545635e-09
6.5051624e-08
-1.0498582e-08
7.9683576e-08
-1.3897054e-08
9.6205588e-08
-1.8222317e-08
1.1434676e-07
-2.3660082e-08
1.3358792e-07
-3.0391145e-08
1.531336e-07
-3.8560895e-08
1.7194057e-07
-4.8237621e-08
1.8883228e-07
-5.9367287e-08
2.027105e-07
-7.1740071e-08
2.128331e-07
-8.4986708e-08
2.1907887e-07
-9.8614938e-08
2.2209638e-07
-1.1208008e-07
2.2327742e-07
-1.2486784e-07
2.2455872e-07
-1.3656495e-07
2.2815415e-07
-1.4690148e-07
2.363017e-07
-1.557628e-07
2.5110543e-07
-1.631788e-07
2.7448351e-07
-1.6929951e-07
3.0819829e-07
-1.7436585e-07
3.5394862e-07
-1.7867778e-07
4.1349261e-07
-1.8256533e-07
4.8880345e-07
-1.8635901e-07
5.8222577e-07
-1.9037334e-07
6.9669097e-07
-1.9488795e-07
8.3585539e-07
-2.0016271e-07
1.0043987e-06
-2.0642429e-07
1.2080397e-06
-2.1392343e-07
1.4540612e-06
-2.228799e-07
1.7509779e-06
-2.3360514e-07
2.1097589e-06
-2.4644148e-07
2.5426597e-06
-2.6241897e-07
3.0676167e-06
-2.8386505e-07
3.7096048e-06
-3.1309626e-07
4.5176064e-06
-3.3711754e-07
5.5164476e-06
-3.018216e-07
6.4664427e-06
-1.4866271e-07
6.2575155e-06
2.9011388e-06
-9.6873044e-12
4.6371321e-10
-4.3186641e-11
1.578281e-09
-1.0887478e-10
3.0513254e-09
-2.1759488e-10
4.9725329e-09
-3.8335648e-10
7.4501119e-09
-6.2423026e-10
1.0613091e-08
-9.6348336e-10
1.461297e-08
-1.4310185e-09
1.9624276e-08
-2.0651724e-09
2.5842829e-08
-2.9149303e-09
3.3480507e-08
-4.0425801e-09
4.2754727e-08
-5.5267568e-09
5.3870196e-08
-7.4656666e-09
6.699052e-08
-9.9799968e-09
8.2197891e-08
-1.3214513e-08
9.944009e-08
-1.7336615e-08
1.1846885e-07
-2.2529237e-08
1.3878053e-07
-2.8974829e-08
1.595792e-07
-3.6827623e-08
1.797934e-07
-4.6174271e-08
1.98179e-07
-5.6988975e-08
2.1352531e-07
-6.9096866e-08
2.2494114e-07
-8.2163497e-08
2.3214569e-07
-9.572279e-08
2.3565588e-07
-1.0924099e-07
2.3679581e-07
-1.2219749e-07
2.3751538e-07
-1.3415811e-07
2.4011489e-07
-1.4482256e-07
2.4696623e-07
-1.5404172e-07
2.603246e-07
-1.6181053e-07
2.8225229e-07
-1.6824631e-07
3.1463399e-07
-1.7356067e-07
3.5926284e-07
-1.7802939e-07
4.1796117e-07
-1.8196343e-07
4.9273735e-07
-1.8568108e-07
5.8594326e-07
-1.894869e-07
7.0049668e-07
-1.9365595e-07
8.4002433e-07
-1.98435e-07
1.0091778e-06
-2.0404452e-07
1.2136492e-06
-2.1070348e-07
1.4607202e-06
-2.1862582e-07
1.7589001e-06
-2.2807488e-07
2.1192081e-06
-2.3945088e-07
2.5540355e-06
-2.5378564e-07
3.0819516e-06
-2.7330103e-07
3.72912e-06
-2.9880749e-07
4.543113e-06
-3.1520359e-07
5.5328433e-06
-2.7192273e-07
6.4231618e-06
-1.2591621e-07
6.1115085e-06
2.7752218e-06
-9.203258e-12
4.7291297e-10
-4.1030572e-11
1.6101061e-09
-1.0344561e-10
3.1137384e-09
-2.0675986e-10
5.0758449e-09
-3.6429918e-10
7.6076485e-09
-5.9325677e-10
1.0842045e-08
-9.1577762e-10
1.4935487e-08
-1.3603323e-09
2.0068826e-08
-1.9634382e-09
2.6445929e-08
-2.7717851e-09
3.4288846e-08
-3.8447963e-09
4.3827728e-08
-5.2575918e-09
5.5282979e-08
-7.10418e-09
6.8837094e-08
-9.5004514e-09
8.4594147e-08
-1.2586084e-08
1.0252571e-07
-1.6523789e-08
1.2240654e-07
-2.1493487e-08
1.4375022e-07
-2.7678217e-08
1.6576394e-07
-3.5238862e-08
1.8735408e-07
-4.427703e-08
2.0721724e-07
-5.4790898e-08
2.2403929e-07
-6.6636298e-08
2.367867e-07
-7.9510403e-08
2.4501998e-07
-9.2971867e-08
2.4911755e-07
-1.0649813e-07
2.5032228e-07
-1.1956341e-07
2.5058085e-07
-1.3171383e-07
2.5226545e-07
-1.4261949e-07
2.5787198e-07
-1.5209713e-07
2.6980227e-07
-1.6010763e-07
2.9026276e-07
-1.6673743e-07
3.2126371e-07
-1.7217253e-07
3.6469783e-07
-1.7667023e-07
4.2245871e-07
-1.8053025e-07
4.9659721e-07
-1.840681e-07
5.8948095e-07
-1.8759007e-07
7.0401855e-07
-1.9137833e-07
8.4381247e-07
-1.9567986e-07
1.0134793e-06
-2.0071707e-07
1.2186864e-06
-2.0668664e-07
1.4666899e-06
-2.1379525e-07
1.7660087e-06
-2.2226494e-07
2.127678e-06
-2.325405e-07
2.564311e-06
-2.4562618e-07
3.0950375e-06
-2.6352406e-07
3.747018e-06
-2.8562646e-07
4.5652156e-06
-2.9539547e-07
5.5426122e-06
-2.4619443e-07
6.3739607e-06
-1.0755033e-07
5.9728639e-06
2.6676706e-06
-8.808939e-12
4.8171832e-10
-3.9268948e-11
1.6405641e-09
-9.899637e-11
3.1734638e-09
-1.978497e-10
5.174696e-09
-3.4856703e-10
7.7583633e-09
-5.6758034e-10
1.1061055e-08
-8.7605193e-10
1.5243955e-08
-1.3011881e-09
2.0493957e-08
-1.87789e-09
2.7022624e-08
-2.6507949e-09
3.5061742e-08
-3.6767499e-09
4.4853673e-08
-5.027695e-09
5.6633912e-08
-6.7938148e-09
7.0603199e-08
-9.0865839e-09
8.6886899e-08
-1.2040915e-08
1.0548002e-07
-1.5814983e-08
1.261806e-07
-2.058547e-08
1.485207e-07
-2.6535181e-08
1.7171365e-07
-3.3830002e-08
1.9464893e-07
-4.2583984e-08
2.1597129e-07
-5.2816236e-08
2.3427166e-07
-6.4410494e-08
2.4838111e-07
-7.7094049e-08
2.5770374e-07
-9.0450946e-08
2.6247466e-07
-1.0397283e-07
2.6384438e-07
-1.1713374e-07
2.6374196e-07
-1.2946614e-07
2.64598e-07
-1.4061683e-07
2.6902278e-07
-1.5037425e-07
2.7955974e-07
-1.5866959e-07
2.9855808e-07
-1.6556081e-07
3.2815485e-07
-1.712079e-07
3.703448e-07
-1.7584604e-07
4.2709668e-07
-1.7975727e-07
5.0050826e-07
-1.8324519e-07
5.9296867e-07
-1.8660834e-07
7.0738159e-07
-1.9012608e-07
8.4733009e-07
-1.9404048e-07
1.0173937e-06
-1.9857114e-07
1.223217e-06
-2.0389949e-07
1.4720184e-06
-2.1022939e-07
1.7723386e-06
-2.1776788e-07
2.1352166e-06
-2.2700834e-07
2.5735514e-06
-2.3893176e-07
3.1069612e-06
-2.5525321e-07
3.7633396e-06
-2.7410452e-07
4.5840674e-06
-2.780387e-07
5.5465467e-06
-2.2442228e-07
6.3203447e-06
-9.2899548e-08
5.8413413e-06
2.5747716e-06
-8.4307843e-12
4.9014548e-10
-3.7583501e-11
1.6697146e-09
-9.4749298e-11
3.2306275e-09
-1.89367e-10
5.2693113e-09
-3.3363385e-10
7.9026275e-09
-5.4328651e-10
1.1270705e-08
-8.3859427e-10
1.5539258e-08
-1.2456218e-09
2.0900979e-08
-1.7978145e-09
2.757481e-08
-2.5379661e-09
3.5801886e-08
-3.5206114e-09
4.5836308e-08
-4.8148325e-09
5.7928121e-08
-6.5073636e-09
7.2295715e-08
-8.7056669e-09
8.9085185e-08
-1.154027e-08
1.0831461e-07
-1.5165062e-08
1.2980537e-07
-1.9753443e-08
1.5310907e-07
-2.548743e-08
1.7744764e-07
-3.2536598e-08
2.0169812e-07
-4.1025264e-08
2.2446001e-07
-5.0990576e-08
2.4423707e-07
-6.2341114e-08
2.5973181e-07
-7.4831859e-08
2.7019468e-07
-8.807111e-08
2.7571414e-07
-1.0156509e-07
2.7733859e-07
-1.1478913e-07
2.769662e-07
-1.272639e-07
2.7707294e-07
-1.3861466e-07
2.8037366e-07
-1.4860296e-07
2.8954809e-07
-1.5713164e-07
3.0708677e-07
-1.6423178e-07
3.3525491e-07
-1.7003962e-07
3.7615253e-07
-1.7477112e-07
4.3182801e-07
-1.7869442e-07
5.0443139e-07
-1.821054e-07
5.9637945e-07
-1.8530022e-07
7.1057626e-07
-1.8856026e-07
8.5058999e-07
-1.9212958e-07
1.020963e-06
-1.9622872e-07
1.2273161e-06
-2.0103221e-07
1.4768219e-06
-2.0674026e-07
1.7780467e-06
-2.1355575e-07
2.1420322e-06
-2.2200207e-07
2.5819977e-06
-2.3301814e-07
3.1179774e-06
-2.4796514e-07
3.7782865e-06
-2.6387195e-07
4.5999745e-06
-2.627844e-07
5.5454594e-06
-2.0597829e-07
6.2635391e-06
-8.1206611e-08
5.7165701e-06
2.493566e-06
-8.1056927e-12
4.9824755e-10
-3.6132351e-11
1.697739e-09
-9.1086494e-11
3.2855796e-09
-1.8203736e-10
5.3602598e-09
-3.2070299e-10
8.0412904e-09
-5.2220051e-10
1.1472199e-08
-8.0600056e-10
1.5823054e-08
-1.1971411e-09
2.1292114e-08
-1.7277543e-09
2.8105416e-08
-2.4389648e-09
3.6513088e-08
-3.3832059e-09
4.6780538e-08
-4.6269538e-09
5.9171856e-08
-6.2537798e-09
7.3922526e-08
-8.367443e-09
9.1198831e-08
-1.1094374e-08
1.1104152e-07
-1.4584364e-08
1.3329534e-07
-1.9007502e-08
1.575322e-07
-2.4544573e-08
1.8298471e-07
-3.1367817e-08
2.0852139e-07
-3.9610095e-08
2.3270235e-07
-4.9324329e-08
2.5395141e-07
-6.0441586e-08
2.7084922e-07
-7.2742819e-08
2.8249612e-07
-8.5860246e-08
2.888318e-07
-9.9315981e-08
2.9079456e-07
-1.1258943e-07
2.9023987e-07
-1.2519322e-07
2.8967692e-07
-1.3673513e-07
2.9191571e-07
-1.4695365e-07
2.9976669e-07
-1.5572664e-07
3.1585976e-07
-1.6306054e-07
3.4258875e-07
-1.6906891e-07
3.8216079e-07
-1.7394782e-07
4.3670675e-07
-1.7794923e-07
5.0843261e-07
-1.813573e-07
5.9978731e-07
-1.8446132e-07
7.1368012e-07
-1.8753988e-07
8.5366838e-07
-1.9083649e-07
1.0242595e-06
-1.9457088e-07
1.2310504e-06
-1.9891546e-07
1.4811665e-06
-2.0407019e-07
1.7832014e-06
-2.1024806e-07
2.1482102e-06
-2.179959e-07
2.5897455e-06
-2.2820299e-07
3.1281845e-06
-2.4184533e-07
3.7919287e-06
-2.5501126e-07
4.6131403e-06
-2.495458e-07
5.5399938e-06
-1.9043564e-07
6.2044291e-06
-7.1920168e-08
5.5980547e-06
2.421646e-06
-7.7996812e-12
5.0604357e-10
-3.4767884e-11
1.724705e-09
-8.7646934e-11
3.3384565e-09
-1.7516437e-10
5.4477748e-09
-3.0859745e-10
8.1747208e-09
-5.024954e-10
1.1666093e-08
-7.7559901e-10
1.6096154e-08
-1.1520103e-09
2.166852e-08
-1.6626665e-09
2.8616066e-08
-2.3471754e-09
3.7197588e-08
-3.2560602e-09
4.7689413e-08
-4.4534232e-09
6.0369206e-08
-6.0199491e-09
7.5489036e-08
-8.0559947e-09
9.3234858e-08
-1.0684191e-08
1.1366969e-07
-1.4050462e-08
1.3666159e-07
-1.8321628e-08
1.6180335e-07
-2.3676951e-08
1.8834003e-07
-3.0290518e-08
2.1513497e-07
-3.8302282e-08
2.4071416e-07
-4.7778885e-08
2.6342811e-07
-5.8671576e-08
2.8174207e-07
-7.0785316e-08
2.9461006e-07
-8.3775183e-08
3.0182191e-07
-9.7179374e-08
3.04199e-07
-1.104826e-07
3.0354334e-07
-1.2319126e-07
3.0238578e-07
-1.3489753e-07
3.0362212e-07
-1.4531859e-07
3.1018783e-07
-1.5430877e-07
3.2484997e-07
-1.6185142e-07
3.5013136e-07
-1.6803898e-07
3.8834825e-07
-1.7304941e-07
4.4171702e-07
-1.7712047e-07
5.1250348e-07
-1.805266e-07
6.0319322e-07
-1.8355238e-07
7.1670571e-07
-1.8647562e-07
8.5659144e-07
-1.8954223e-07
1.0273261e-06
-1.9297349e-07
1.2344815e-06
-1.9694428e-07
1.4851373e-06
-2.0165603e-07
1.7879131e-06
-2.0733634e-07
2.1538905e-06
-2.1454119e-07
2.5969502e-06
-2.2409115e-07
3.1377344e-06
-2.3655489e-07
3.8043923e-06
-2.4722388e-07
4.6238092e-06
-2.3797344e-07
5.530743e-06
-1.7726085e-07
6.1437164e-06
-6.451391e-08
5.4853075e-06
2.3571316e-06
-7.5274676e-12
5.1356734e-10
-3.3553123e-11
1.7507283e-09
-8.4581759e-11
3.3894831e-09
-1.6903307e-10
5.5322239e-09
-2.9778595e-10
8.3034709e-09
-4.8487469e-10
1.1853179e-08
-7.4837656e-10
1.6359651e-08
-1.1115416e-09
2.203168e-08
-1.604216e-09
2.9108734e-08
-2.2646197e-09
3.7857983e-08
-3.1415251e-09
4.8566307e-08
-4.2968545e-09
6.1524522e-08
-5.8086282e-09
7.7000794e-08
-7.7740495e-09
9.5200261e-08
-1.0312196e-08
1.1620782e-07
-1.3565314e-08
1.3991469e-07
-1.7697009e-08
1.6593503e-07
-2.2884787e-08
1.935278e-07
-2.9303933e-08
2.2155413e-07
-3.7100297e-08
2.4851058e-07
-4.6352548e-08
2.7268046e-07
-5.7030201e-08
2.9241987e-07
-6.8960602e-08
3.0654067e-07
-8.1820939e-08
3.1468249e-07
-9.5165939e-08
3.1754426e-07
-1.0848724e-07
3.1686489e-07
-1.2128742e-07
3.1518617e-07
-1.3314577e-07
3.1548064e-07
-1.4376085e-07
3.2080301e-07
-1.5296589e-07
3.3405504e-07
-1.6072302e-07
3.5788845e-07
-1.6710485e-07
3.9472999e-07
-1.7227167e-07
4.4688368e-07
-1.7644653e-07
5.1667814e-07
-1.798926e-07
6.0663908e-07
-1.828877e-07
7.1970062e-07
-1.8570653e-07
8.5941008e-07
-1.8859593e-07
1.0302153e-06
-1.9177834e-07
1.2376638e-06
-1.9543365e-07
1.4887926e-06
-1.9976772e-07
1.7922471e-06
-2.0502726e-07
2.15915e-06
-2.1176955e-07
2.6036925e-06
-2.207329e-07
3.1466978e-06
-2.3207692e-07
3.8157363e-06
-2.4042795e-07
4.6321602e-06
-2.2786679e-07
5.5181818e-06
-1.6606337e-07
6.0819129e-06
-5.8596091e-08
5.3778399e-06
2.2985349e-06
-7.2729518e-12
5.2083665e-10
-3.2418263e-11
1.7758713e-09
-8.1720849e-11
3.4387834e-09
-1.6331525e-10
5.613816e-09
-2.877123e-10
8.4278652e-09
-4.6847192e-10
1.2033935e-08
-7.2306112e-10
1.6614236e-08
-1.0739467e-09
2.238256e-08
-1.5499738e-09
2.9584754e-08
-2.1880879e-09
3.8496089e-08
-3.0354539e-09
4.9413662e-08
-4.151988e-09
6.2641043e-08
-5.6132559e-09
7.8462045e-08
-7.5135404e-09
9.7100526e-08
-9.9686047e-09
1.1866286e-07
-1.3117217e-08
1.4306328e-07
-1.7119844e-08
1.6993764e-07
-2.2152098e-08
1.9856005e-07
-2.838994e-08
2.2779199e-07
-3.5984113e-08
2.561048e-07
-4.5023812e-08
2.8172025e-07
-5.5495038e-08
3.0289125e-07
-6.7245876e-08
3.1829172e-07
-7.9974617e-08
3.2741149e-07
-9.3252472e-08