/*--------------------------------*- C++ -*----------------------------------*\
| =========                 |                                                 |
| \\      /  F ield         | OpenFOAM: The Open Source CFD Toolbox           |
|  \\    /   O peration     | Version:  4.0                                   |
|   \\  /    A nd           | Web:      www.OpenFOAM.org                      |
|    \\/     M anipulation  |                                                 |
\*---------------------------------------------------------------------------*/
FoamFile
{
    version     2.0;
    format      ascii;
    class       volScalarField;
    location    "4000/fluid";
    object      Qin;
}
// * * * * * * * * * * * * * * * * * * * * * * * * * * * * * * * * * * * * * //

dimensions      [1 0 -3 0 0 0 0];

internalField   uniform 0;

boundaryField
{
    Outterwall
    {
        type            calculated;
        value           nonuniform List<scalar> 
100
(
1873.8594
1999.3464
2098.324
2174.6109
2234.5429
2282.3518
2321.2547
2353.4797
2380.6896
2404.046
2424.414
2442.4104
2458.5021
2473.0329
2486.2693
2498.4147
2509.6308
2520.0454
2529.7627
2538.8675
2547.4303
2555.5101
2563.1569
2570.4132
2577.3157
2583.8961
2590.1821
2596.198
2601.9652
2607.5027
2612.8274
2617.9545
2622.8975
2627.6687
2632.2792
2636.739
2641.0573
2645.2424
2649.302
2653.2431
2657.0721
2660.795
2664.4172
2667.944
2671.3798
2674.7292
2677.9963
2681.1847
2684.298
2687.3397
2690.3127
2693.2199
2696.0642
2698.848
2701.5738
2704.2439
2706.8603
2709.4252
2711.9404
2714.4078
2716.8291
2719.2059
2721.5397
2723.832
2726.0842
2728.2977
2730.4737
2732.6133
2734.7178
2736.7883
2738.8257
2740.8312
2742.8055
2744.7497
2746.6647
2748.5512
2750.4101
2752.2421
2754.048
2755.8285
2757.5842
2759.3159
2761.0242
2762.7096
2764.3729
2766.0146
2767.6354
2769.2361
2770.8178
2772.382
2773.9312
2775.47
2777.0069
2778.5584
2780.1564
2781.8642
2783.7965
2786.2065
2789.295
2794.3024
)
;
    }
    leftWedge
    {
        type            symmetry;
    }
    rigtWedge
    {
        type            symmetry;
    }
    Outlet
    {
        type            calculated;
        value           nonuniform List<scalar> 
50
(
2.4104039e-29
2.4104042e-29
2.4104069e-29
2.4104109e-29
2.4104147e-29
2.4104182e-29
2.410422e-29
2.4104261e-29
2.4104303e-29
2.4104346e-29
2.4104392e-29
2.4104439e-29
2.4104488e-29
2.4104539e-29
2.4104591e-29
2.4104646e-29
2.4104702e-29
2.410476e-29
2.4104818e-29
2.4104878e-29
2.4104945e-29
2.410503e-29
2.4105149e-29
2.410532e-29
2.4105559e-29
2.4105881e-29
2.4106295e-29
2.4106811e-29
2.4107435e-29
2.4108171e-29
2.410901e-29
2.4109926e-29
2.4110872e-29
2.4111786e-29
2.4112614e-29
2.4113316e-29
2.411388e-29
2.4114317e-29
2.4114655e-29
2.4114925e-29
2.4115155e-29
2.4115367e-29
2.4115571e-29
2.4115776e-29
2.4115983e-29
2.4116193e-29
2.4116404e-29
2.4116628e-29
2.4116811e-29
2.4117181e-29
)
;
    }
    Inlet
    {
        type            calculated;
        value           uniform 0;
    }
    fluid_to_cilcen
    {
        type            calculated;
        value           nonuniform List<scalar> 
100
(
421.91958
421.91875
421.91791
421.91707
421.91623
421.91539
421.91455
421.91371
421.91287
421.91203
421.91119
421.91035
421.90951
421.90867
421.90783
421.90698
421.90614
421.9053
421.90446
421.90362
421.90278
421.90194
421.9011
421.90026
421.89942
421.89858
421.89774
421.8969
421.89606
421.89522
421.89438
421.89354
421.8927
421.89186
421.89102
421.89017
421.88933
421.88849
421.88765
421.88681
421.88597
421.88513
421.88429
421.88345
421.88261
421.88177
421.88093
421.88009
421.87925
421.87841
421.87757
421.87673
421.87589
421.87505
421.87421
421.87337
421.87253
421.87169
421.87085
421.87001
421.86917
421.86833
421.86749
421.86665
421.86581
421.86497
421.86413
421.86329
421.86245
421.86162
421.86078
421.85994
421.8591
421.85826
421.85743
421.85659
421.85576
421.85492
421.85409
421.85325
421.85242
421.85158
421.85075
421.84992
421.84909
421.84826
421.84743
421.8466
421.84578
421.84495
421.84413
421.8433
421.84248
421.84166
421.84084
421.84003
421.83921
421.8384
421.83761
421.83652
)
;
    }
}


// ************************************************************************* //
