/*--------------------------------*- C++ -*----------------------------------*\
| =========                 |                                                 |
| \\      /  F ield         | OpenFOAM: The Open Source CFD Toolbox           |
|  \\    /   O peration     | Version:  4.0                                   |
|   \\  /    A nd           | Web:      www.OpenFOAM.org                      |
|    \\/     M anipulation  |                                                 |
\*---------------------------------------------------------------------------*/
FoamFile
{
    version     2.0;
    format      ascii;
    class       volScalarField;
    location    "4000/fluid";
    object      Qr;
}
// * * * * * * * * * * * * * * * * * * * * * * * * * * * * * * * * * * * * * //

dimensions      [1 0 -3 0 0 0 0];

internalField   uniform 0;

boundaryField
{
    Outterwall
    {
        type            calculated;
        value           nonuniform List<scalar> 
100
(
1451.9398
1577.4277
1676.4061
1752.6938
1812.6267
1860.4364
1899.3402
1931.566
1958.7767
1982.134
2002.5028
2020.5
2036.5926
2051.1243
2064.3615
2076.5077
2087.7246
2098.1401
2107.8582
2116.9638
2125.5275
2133.6081
2141.2558
2148.5129
2155.4162
2161.9975
2168.2843
2174.3011
2180.0691
2185.6075
2190.933
2196.0609
2201.0048
2205.7769
2210.3882
2214.8488
2219.168
2223.3539
2227.4143
2231.3563
2235.1861
2238.9099
2242.533
2246.0605
2249.4972
2252.8475
2256.1153
2259.3046
2262.4188
2265.4613
2268.4351
2271.3432
2274.1883
2276.973
2279.6996
2282.3705
2284.9878
2287.5535
2290.0696
2292.5378
2294.9599
2297.3375
2299.6722
2301.9653
2304.2184
2306.4327
2308.6095
2310.75
2312.8554
2314.9267
2316.9649
2318.9712
2320.9464
2322.8915
2324.8072
2326.6946
2328.5543
2330.3871
2332.1939
2333.9752
2335.7318
2337.4643
2339.1734
2340.8596
2342.5237
2344.1663
2345.7879
2347.3895
2348.972
2350.537
2352.087
2353.6266
2355.1643
2356.7166
2358.3154
2360.024
2361.9571
2364.3679
2367.4572
2372.4657
)
;
    }
    leftWedge
    {
        type            symmetry;
    }
    rigtWedge
    {
        type            symmetry;
    }
    Outlet
    {
        type            calculated;
        value           nonuniform List<scalar> 
50
(
2.4104039e-29
2.4104042e-29
2.4104069e-29
2.4104109e-29
2.4104147e-29
2.4104182e-29
2.410422e-29
2.4104261e-29
2.4104303e-29
2.4104346e-29
2.4104392e-29
2.4104439e-29
2.4104488e-29
2.4104539e-29
2.4104591e-29
2.4104646e-29
2.4104702e-29
2.410476e-29
2.4104818e-29
2.4104878e-29
2.4104945e-29
2.410503e-29
2.4105149e-29
2.410532e-29
2.4105559e-29
2.4105881e-29
2.4106295e-29
2.4106811e-29
2.4107435e-29
2.4108171e-29
2.410901e-29
2.4109926e-29
2.4110872e-29
2.4111786e-29
2.4112614e-29
2.4113316e-29
2.411388e-29
2.4114317e-29
2.4114655e-29
2.4114925e-29
2.4115155e-29
2.4115367e-29
2.4115571e-29
2.4115776e-29
2.4115983e-29
2.4116193e-29
2.4116404e-29
2.4116628e-29
2.4116811e-29
2.4117181e-29
)
;
    }
    Inlet
    {
        type            calculated;
        value           nonuniform List<scalar> 
50
(
-6.3277868e-30
-6.3277868e-30
-6.3277867e-30
-6.3277867e-30
-6.3277866e-30
-6.3277864e-30
-6.3277863e-30
-6.3277862e-30
-6.3277861e-30
-6.327786e-30
-6.327786e-30
-6.3277859e-30
-6.3277859e-30
-6.327786e-30
-6.327786e-30
-6.3277861e-30
-6.3277862e-30
-6.3277862e-30
-6.3277863e-30
-6.3277864e-30
-6.3277864e-30
-6.3277865e-30
-6.3277865e-30
-6.3277865e-30
-6.3277865e-30
-6.3277865e-30
-6.3277866e-30
-6.3277866e-30
-6.3277866e-30
-6.3277866e-30
-6.3277866e-30
-6.3277866e-30
-6.3277866e-30
-6.3277866e-30
-6.3277866e-30
-6.3277866e-30
-6.3277866e-30
-6.3277866e-30
-6.3277866e-30
-6.3277866e-30
-6.3277866e-30
-6.3277866e-30
-6.3277866e-30
-6.3277866e-30
-6.3277866e-30
-6.3277866e-30
-6.3277866e-30
-6.3277866e-30
-6.3277866e-30
-6.3277866e-30
)
;
    }
    fluid_to_cilcen
    {
        type            calculated;
        value           nonuniform List<scalar> 
100
(
-1452.5668
-1577.9746
-1676.883
-1753.1141
-1813.0007
-1860.7738
-1899.6477
-1931.8492
-1959.0395
-1982.3793
-2002.7325
-2020.7158
-2036.7953
-2051.3145
-2064.5397
-2076.674
-2087.8791
-2098.2826
-2107.9886
-2117.0818
-2125.6327
-2133.7003
-2141.3346
-2148.5779
-2155.467
-2162.0337
-2168.3055
-2174.3068
-2180.059
-2185.5811
-2190.89
-2196.0008
-2200.9273
-2205.6815
-2210.2746
-2214.7168
-2219.017
-2223.1838
-2227.2247
-2231.1468
-2234.9565
-2238.6599
-2242.2623
-2245.7689
-2249.1844
-2252.5133
-2255.7595
-2258.9269
-2262.019
-2265.0392
-2267.9906
-2270.876
-2273.6983
-2276.46
-2279.1636
-2281.8112
-2284.4051
-2286.9473
-2289.4397
-2291.8842
-2294.2824
-2296.636
-2298.9466
-2301.2156
-2303.4444
-2305.6343
-2307.7867
-2309.9027
-2311.9835
-2314.0302
-2316.0438
-2318.0253
-2319.9758
-2321.896
-2323.7869
-2325.6494
-2327.4841
-2329.292
-2331.0738
-2332.8301
-2334.5616
-2336.2691
-2337.9531
-2339.6142
-2341.2532
-2342.8706
-2344.4671
-2346.0435
-2347.6008
-2349.1405
-2350.6652
-2352.1792
-2353.691
-2355.2166
-2356.7875
-2358.4659
-2360.3651
-2362.7346
-2365.7751
-2370.714
)
;
    }
}


// ************************************************************************* //
