/*--------------------------------*- C++ -*----------------------------------*\
| =========                 |                                                 |
| \\      /  F ield         | OpenFOAM: The Open Source CFD Toolbox           |
|  \\    /   O peration     | Version:  4.0                                   |
|   \\  /    A nd           | Web:      www.OpenFOAM.org                      |
|    \\/     M anipulation  |                                                 |
\*---------------------------------------------------------------------------*/
FoamFile
{
    version     2.0;
    format      ascii;
    class       volScalarField;
    location    "4000/fluid";
    object      rho;
}
// * * * * * * * * * * * * * * * * * * * * * * * * * * * * * * * * * * * * * //

dimensions      [1 -3 0 0 0 0 0];

internalField   nonuniform List<scalar> 
5000
(
0.8288437
0.84509006
0.86313372
0.88301804
0.90472466
0.92815205
0.95309366
0.97921969
1.0060681
1.0330517
1.0594874
1.0846513
1.1078539
1.1285239
1.1462803
1.1609726
1.1726784
1.1816616
1.1883058
1.1930444
1.1963026
1.1984597
1.1998311
1.2006646
1.2011461
1.2014083
1.2015416
1.2016041
1.2016308
1.2016409
1.2016443
1.2016453
1.2016455
1.2016455
1.2016455
1.2016455
1.2016455
1.2016455
1.2016455
1.2016455
1.2016455
1.2016455
1.2016455
1.2016455
1.2016455
1.2016455
1.2016455
1.2016455
1.2016455
1.2016455
0.81256993
0.82246534
0.83342292
0.84559341
0.85914553
0.87425998
0.8911171
0.90987599
0.93064311
0.95342962
0.97810023
1.0043217
1.0315264
1.0589129
1.0855046
1.1102741
1.1323105
1.1509822
1.1660319
1.1775754
1.1860126
1.1918986
1.1958225
1.1983222
1.1998416
1.2007198
1.2011997
1.2014458
1.201563
1.2016142
1.2016344
1.2016414
1.2016434
1.2016439
1.201644
1.201644
1.201644
1.201644
1.201644
1.201644
1.201644
1.201644
1.201644
1.201644
1.201644
1.201644
1.201644
1.201644
1.201644
1.201644
0.80248876
0.81171268
0.82186675
0.83304864
0.84536696
0.85894154
0.87390208
0.89038364
0.90851662
0.9284082
0.95011219
0.9735858
0.99863589
1.0248649
1.051637
1.0780917
1.1032283
1.12606
1.145798
1.1619998
1.1746215
1.1839637
1.1905455
1.1949676
1.1978035
1.1995387
1.2005496
1.2011079
1.2013983
1.2015394
1.2016028
1.2016288
1.2016383
1.2016414
1.2016423
1.2016425
1.2016425
1.2016425
1.2016425
1.2016425
1.2016425
1.2016425
1.2016425
1.2016425
1.2016425
1.2016425
1.2016425
1.2016425
1.2016425
1.2016425
0.795165
0.80400775
0.81373189
0.82442641
0.83618812
0.84912096
0.86333455
0.87894085
0.89604839
0.91475197
0.93511605
0.95714921
0.98076787
1.0057509
1.0316931
1.0579749
1.0837749
1.1081475
1.1301677
1.149106
1.1645681
1.1765434
1.1853488
1.1915058
1.1956064
1.1982098
1.1997847
1.2006903
1.2011832
1.2014355
1.2015559
1.2016089
1.2016301
1.2016378
1.2016402
1.2016408
1.201641
1.201641
1.201641
1.201641
1.201641
1.201641
1.201641
1.201641
1.201641
1.201641
1.201641
1.201641
1.201641
1.201641
0.78961935
0.7981427
0.80750766
0.81779824
0.8291058
0.84152861
0.85517041
0.87013763
0.88653433
0.90445385
0.92396579
0.94509655
0.96780208
0.99193245
1.0171915
1.0431012
1.0689874
1.0940124
1.1172681
1.1379238
1.1553849
1.1694015
1.1800816
1.1878141
1.1931423
1.1966419
1.1988339
1.200142
1.2008837
1.2012814
1.2014816
1.2015754
1.2016159
1.2016317
1.2016372
1.2016389
1.2016394
1.2016395
1.2016395
1.2016395
1.2016395
1.2016395
1.2016395
1.2016395
1.2016395
1.2016395
1.2016395
1.2016395
1.2016395
1.2016395
0.7853228
0.79358889
0.80266487
0.81263084
0.82357405
0.83558861
0.84877441
0.86323485
0.87907273
0.89638312
0.91524238
0.93569155
0.95771303
0.98120001
1.0059205
1.0314818
1.0573083
1.0826518
1.1066516
1.1284525
1.1473544
1.1629447
1.1751595
1.1842521
1.1906908
1.1950346
1.1978295
1.1995443
1.2005459
1.2011008
1.2013908
1.2015326
1.2015968
1.2016235
1.2016334
1.2016368
1.2016377
1.201638
1.201638
1.201638
1.201638
1.201638
1.201638
1.201638
1.201638
1.201638
1.201638
1.201638
1.201638
1.201638
0.78190297
0.78995185
0.79878402
0.8084763
0.81911246
0.83078309
0.84358482
0.85761846
0.87298563
0.88978278
0.90809171
0.92796519
0.94940638
0.97234128
0.99658534
1.0218085
1.0475084
1.0730082
1.0974961
1.120119
1.1401183
1.1569695
1.1704724
1.1807574
1.1882102
1.1933556
1.1967448
1.1988757
1.2001535
1.2008823
1.201276
1.2014759
1.2015705
1.2016118
1.2016282
1.2016341
1.2016359
1.2016364
1.2016365
1.2016365
1.2016365
1.2016365
1.2016365
1.2016365
1.2016365
1.2016365
1.2016365
1.2016365
1.2016365
1.2016365
0.7791211
0.78698741
0.79561478
0.80507727
0.81545572
0.8268377
0.83931691
0.85299175
0.86796241
0.88432579
0.90216734
0.92154834
0.9424876
0.96493646
0.98874752
1.0136404
1.0391721
1.0647262
1.0895377
1.1127679
1.1336254
1.1515059
1.1661007
1.1774311
1.1858009
1.1916916
1.1956474
1.1981845
1.1997381
1.2006448
1.2011473
1.2014101
1.2015389
1.2015974
1.2016217
1.2016308
1.2016339
1.2016347
1.201635
1.201635
1.201635
1.201635
1.201635
1.201635
1.201635
1.201635
1.201635
1.201635
1.201635
1.201635
0.77680581
0.78451374
0.79296354
0.80222688
0.81238204
0.82351393
0.83571365
0.84907734
0.86370366
0.8796895
0.89712268
0.9160708
0.93656469
0.95857558
0.98198591
1.0065559
1.0318926
1.0574324
1.0824552
1.1061428
1.1276875
1.1464268
1.1619635
1.1742236
1.1834316
1.1900215
1.1945222
1.1974593
1.1992913
1.2003823
1.2010007
1.2013327
1.2015004
1.2015792
1.2016134
1.2016268
1.2016315
1.201633
1.2016334
1.2016335
1.2016335
1.2016335
1.2016335
1.2016335
1.2016335
1.2016335
1.2016335
1.2016335
1.2016335
1.2016335
0.77484288
0.78241312
0.7907086
0.79979894
0.80976018
0.82067486
0.83263174
0.84572481
0.86005119
0.87570729
0.89278242
0.91134875
0.93144634
0.95306216
0.97610276
1.0003621
1.0254894
1.0509682
1.0761205
1.1001531
1.1222526
1.1417147
1.1580701
1.1711604
1.1811354
1.1883788
1.1933988
1.196724
1.1988307
1.2001064
1.2008433
1.2012475
1.2014567
1.201558
1.2016035
1.2016221
1.2016289
1.2016312
1.2016318
1.201632
1.201632
1.201632
1.201632
1.201632
1.201632
1.201632
1.201632
1.201632
1.201632
1.201632
0.77314879
0.7805969
0.78875559
0.79769263
0.80748206
0.81820432
0.82994604
0.84279923
0.85685947
0.87222249
0.88897849
0.90720305
0.92694346
0.94819939
0.97089724
0.99485912
1.0197708
1.0451573
1.0703803
1.0946736
1.1172258
1.1373029
1.1543764
1.1682139
1.178895
1.1867526
1.1922698
1.1959732
1.1983522
1.1998145
1.2006731
1.2011531
1.2014071
1.2015334
1.2015917
1.2016164
1.201626
1.2016292
1.2016302
1.2016305
1.2016305
1.2016305
1.2016305
1.2016305
1.2016305
1.2016305
1.2016305
1.2016305
1.2016305
1.2016305
0.77166572
0.7790051
0.78704204
0.7958427
0.80547932
0.81603045
0.82758077
0.84022044
0.85404353
0.86914493
0.88561528
0.90353265
0.92295005
0.94387747
0.96625777
0.98993697
1.0146323
1.0399058
1.065156
1.0896444
1.1125674
1.1331703
1.1508767
1.1653891
1.1767214
1.185156
1.1911482
1.1952183
1.1978648
1.1995128
1.2004944
1.2010521
1.2013529
1.2015057
1.2015782
1.2016099
1.2016226
1.2016271
1.2016285
1.2016289
1.201629
1.201629
1.201629
1.201629
1.201629
1.201629
1.201629
1.201629
1.201629
1.201629
0.77035028
0.77759158
0.78551875
0.79419649
0.80369542
0.81409236
0.82547024
0.83791749
0.8515267
0.86639189
0.88260382
0.90024242
0.91936528
0.9399909
0.96207599
0.98548698
1.0099686
1.0351157
1.0603612
1.0849943
1.1082226
1.1292783
1.147546
1.1626708
1.1746059
1.1835842
1.1900311
1.1944573
1.1973673
1.1992005
1.2003065
1.2009441
1.2012936
1.2014748
1.2015628
1.2016024
1.2016188
1.2016248
1.2016268
1.2016273
1.2016275
1.2016275
1.2016275
1.2016275
1.2016275
1.2016275
1.2016275
1.2016275
1.2016275
1.2016275
0.76917113
0.77632358
0.78415135
0.7927178
0.80209211
0.81234953
0.82357133
0.83584438
0.84925984
0.86391078
0.87988786
0.8972724
0.91612566
0.9364732
0.95828348
0.98144055
1.0057131
1.0307257
1.0559428
1.0806806
1.1041608
1.1256079
1.144375
1.1600572
1.1725515
1.1820426
1.1889244
1.1936958
1.1968642
1.1988813
1.200112
1.2008305
1.2012304
1.2014413
1.2015458
1.201594
1.2016144
1.2016223
1.201625
1.2016258
1.201626
1.201626
1.201626
1.201626
1.201626
1.201626
1.201626
1.201626
1.201626
1.201626
0.76810411
0.77517533
0.78291227
0.79137707
0.80063758
0.81076761
0.82184693
0.83396091
0.84719939
0.86165446
0.87741653
0.89456795
0.91317294
0.93326303
0.95481672
0.97773335
1.0018028
1.0266763
1.0518473
1.0766585
1.1003469
1.1221341
1.1413477
1.157539
1.1705534
1.1805288
1.1878275
1.1929337
1.1963557
1.198555
1.1999109
1.2007116
1.201163
1.2014049
1.201527
1.2015846
1.2016096
1.2016196
1.2016231
1.2016241
1.2016244
1.2016245
1.2016245
1.2016245
1.2016245
1.2016245
1.2016245
1.2016245
1.2016245
1.2016245
0.76713099
0.77412765
0.78178124
0.79015279
0.79930892
0.80932213
0.8202708
0.83223891
0.845315
0.85959021
0.87515461
0.89209123
0.91046675
0.93031774
0.95163135
0.9743203
0.99819331
1.0229254
1.0480373
1.0728968
1.0967573
1.1188408
1.1384549
1.1551124
1.1686113
1.1790449
1.1867429
1.1921739
1.1958443
1.1982239
1.1997047
1.2005882
1.2010923
1.2013661
1.2015066
1.2015742
1.2016043
1.2016166
1.2016211
1.2016225
1.2016229
1.201623
1.201623
1.201623
1.201623
1.201623
1.201623
1.201623
1.201623
1.201623
0.76623734
0.77316512
0.78074172
0.78902717
0.79808696
0.80799237
0.81882048
0.83065397
0.84358019
0.85768929
0.87307092
0.88980863
0.90797109
0.92759916
0.94868752
0.97116067
0.9948441
1.0194346
1.0444776
1.0693652
1.0933678
1.1157105
1.135685
1.1527708
1.1667221
1.1775895
1.1856707
1.1914165
1.1953303
1.1978883
1.1994937
1.2004606
1.2010182
1.2013248
1.2014847
1.2015629
1.2015985
1.2016133
1.2016189
1.2016208
1.2016214
1.2016215
1.2016215
1.2016215
1.2016215
1.2016215
1.2016215
1.2016215
1.2016215
1.2016215
0.76541187
0.77227576
0.77978098
0.78798662
0.79695714
0.80676266
0.81747909
0.82918787
0.84197519
0.85593028
0.8711423
0.88769511
0.90565906
0.92507867
0.94595522
0.96822363
0.99172442
1.016174
1.0411411
1.0660405
1.0901602
1.11273
1.1330298
1.1505098
1.1648844
1.1761632
1.184612
1.1906633
1.1948154
1.1975495
1.1992789
1.2003294
1.2009412
1.2012815
1.2014612
1.2015507
1.2015922
1.2016099
1.2016167
1.2016191
1.2016198
1.20162
1.20162
1.20162
1.20162
1.20162
1.20162
1.20162
1.20162
1.20162
0.76464539
0.77144974
0.77888847
0.78701978
0.79590716
0.8056197
0.81623218
0.82782487
0.84048289
0.85429455
0.86934848
0.88572876
0.90350708
0.92273114
0.94340802
0.96548192
0.98880689
1.0131173
1.0380033
1.0629014
1.0871169
1.1098864
1.1304807
1.1483245
1.1630956
1.1747651
1.1835669
1.1899145
1.1943
1.1972079
1.1990606
1.2001951
1.2008616
1.2012362
1.2014364
1.2015376
1.2015853
1.2016061
1.2016144
1.2016173
1.2016182
1.2016185
1.2016185
1.2016185
1.2016185
1.2016185
1.2016185
1.2016185
1.2016185
1.2016185
0.7639305
0.77067917
0.77805573
0.78611757
0.79492728
0.80455297
0.81506834
0.82655261
0.83908985
0.85276747
0.86767357
0.8838923
0.90149651
0.92053664
0.94102488
0.96291376
0.98606955
1.0102431
1.0350442
1.0599303
1.0842238
1.1071691
1.1280304
1.1462106
1.161354
1.1733947
1.1825359
1.1891711
1.1937849
1.1968642
1.1988396
1.2000579
1.2007796
1.201189
1.2014103
1.2015236
1.2015779
1.2016021
1.2016119
1.2016155
1.2016166
1.2016169
1.201617
1.201617
1.201617
1.201617
1.201617
1.201617
1.201617
1.201617
0.76326102
0.76995743
0.77727566
0.78527234
0.79400921
0.80355346
0.8139778
0.82536044
0.83778443
0.85133636
0.86610375
0.88217075
0.89961115
0.9184778
0.93878745
0.96050008
0.98349307
1.0075323
1.0322461
1.0571115
1.0814677
1.104568
1.1256722
1.1441642
1.1596574
1.1720514
1.1815189
1.1884332
1.1932706
1.196519
1.1986161
1.1999183
1.2006954
1.2011401
1.201383
1.2015088
1.2015701
1.2015978
1.2016093
1.2016136
1.201615
1.2016154
1.2016155
1.2016155
1.2016155
1.2016155
1.2016155
1.2016155
1.2016155
1.2016155
0.76263185
0.76927907
0.77654241
0.78447778
0.79314614
0.80261379
0.81295255
0.82423962
0.83655714
0.84999084
0.8646277
0.88055179
0.89783768
0.91654033
0.93668055
0.95822505
0.98106134
1.0049692
1.029594
1.0544315
1.0788375
1.1020745
1.1234
1.1421814
1.158004
1.1707346
1.180516
1.1877015
1.1927577
1.1961728
1.1983906
1.1997765
1.2006094
1.2010897
1.2013545
1.2014933
1.2015617
1.2015932
1.2016065
1.2016116
1.2016133
1.2016139
1.201614
1.201614
1.201614
1.201614
1.201614
1.201614
1.201614
1.201614
0.76203866
0.76863945
0.77585098
0.78372849
0.79233222
0.80172763
0.81198567
0.82318263
0.83539973
0.84872192
0.8632356
0.87902472
0.8961645
0.91471176
0.93469092
0.95607483
0.97876022
1.0025397
1.0270746
1.0518784
1.0763229
1.0996807
1.1212083
1.1402587
1.1563919
1.1694434
1.1795273
1.186976
1.1922464
1.1958258
1.1981634
1.1996327
1.2005215
1.2010379
1.201325
1.201477
1.2015529
1.2015883
1.2016036
1.2016096
1.2016117
1.2016123
1.2016125
1.2016125
1.2016125
1.2016125
1.2016125
1.2016125
1.2016125
1.2016125
0.7614778
0.76803464
0.77519714
0.78301993
0.79156252
0.80088962
0.81107134
0.8221831
0.83430528
0.84752202
0.86191917
0.87758053
0.89458183
0.91298153
0.93280733
0.95403762
0.97657763
1.0002318
1.0246764
1.0494417
1.0739152
1.0973796
1.119092
1.1383931
1.1548194
1.1681771
1.1785524
1.186257
1.1917371
1.1954784
1.1979347
1.1994873
1.200432
1.2009847
1.2012945
1.20146
1.2015436
1.2015832
1.2016006
1.2016075
1.20161
1.2016108
1.201611
1.201611
1.201611
1.201611
1.201611
1.201611
1.201611
1.201611
0.76094612
0.76746126
0.77457726
0.78234815
0.79083278
0.80009512
0.8102045
0.82123553
0.83326774
0.84638453
0.8606712
0.87621133
0.89308111
0.91134042
0.93101992
0.95210308
0.97450294
0.99803484
1.0223892
1.0471121
1.0716062
1.0951649
1.1170464
1.1365813
1.1532847
1.1669351
1.1775913
1.1855447
1.19123
1.1951309
1.1977048
1.1993402
1.2003411
1.2009303
1.201263
1.2014424
1.2015339
1.2015779
1.2015974
1.2016053
1.2016083
1.2016092
1.2016095
1.2016095
1.2016095
1.2016095
1.2016095
1.2016095
1.2016095
1.2016095
0.76044092
0.76691641
0.7739882
0.78170976
0.79013932
0.79934015
0.80938082
0.82033516
0.83228191
0.84530377
0.85948546
0.87491033
0.89165494
0.90978044
0.92932017
0.95026224
0.97252688
0.99593963
1.020204
1.0448813
1.0693889
1.0930307
1.1150674
1.1348208
1.1517864
1.1657165
1.1766438
1.184839
1.1907254
1.1947834
1.1974739
1.1991919
1.2002489
1.2008748
1.2012307
1.2014241
1.2015238
1.2015722
1.2015941
1.2016031
1.2016065
1.2016076
1.2016079
1.201608
1.201608
1.201608
1.201608
1.201608
1.201608
1.201608
0.75995983
0.76639754
0.77342723
0.78110182
0.78947893
0.7986212
0.80859647
0.81947783
0.83134326
0.84427476
0.85835648
0.87367157
0.89029683
0.90829457
0.92770057
0.94850717
0.97064126
0.99393791
1.018113
1.0427421
1.0672569
1.0909719
1.113151
1.1331088
1.1503228
1.1645206
1.1757096
1.1841402
1.1902234
1.1944363
1.1972422
1.1990423
1.2001554
1.2008183
1.2011976
1.2014052
1.2015133
1.2015664
1.2015906
1.2016008
1.2016047
1.201606
1.2016064
1.2016065
1.2016065
1.2016065
1.2016065
1.2016065
1.2016065
1.2016065
0.75950079
0.76590244
0.77289195
0.78052172
0.78884881
0.79793522
0.80784813
0.8186599
0.83044779
0.84329312
0.85727951
0.87248983
0.88900111
0.90687668
0.92615451
0.94683089
0.96883887
0.99202238
1.0161089
1.0406877
1.0652042
1.0889836
1.1112938
1.1314429
1.1488925
1.1633468
1.1747885
1.183448
1.1897242
1.1940896
1.1970098
1.1988917
1.2000609
1.2007608
1.2011637
1.2013858
1.2015024
1.2015602
1.201587
1.2015984
1.2016029
1.2016044
1.2016049
1.201605
1.201605
1.201605
1.201605
1.201605
1.201605
1.201605
0.75906199
0.76542917
0.77238026
0.7799672
0.78824648
0.79727953
0.80713287
0.81787816
0.82959198
0.842355
0.8562503
0.87136048
0.88776273
0.90552129
0.92467615
0.94522721
0.96711327
0.99018653
1.0141855
1.0387123
1.0632257
1.0870617
1.1094923
1.129821
1.1474941
1.1621942
1.1738802
1.1827627
1.1892278
1.1937435
1.1967769
1.1987401
1.1999653
1.2007024
1.2011291
1.2013659
1.2014912
1.2015539
1.2015833
1.201596
1.201601
1.2016028
1.2016034
1.2016035
1.2016035
1.2016035
1.2016035
1.2016035
1.2016035
1.2016035
0.75864183
0.764976
0.77189031
0.77943623
0.78766977
0.79665175
0.80644808
0.81712977
0.82877274
0.841457
0.85526513
0.87027943
0.88657723
0.90422357
0.92326029
0.94369063
0.96545872
0.98842457
1.0123369
1.0368105
1.0613167
1.0852021
1.1077437
1.1282408
1.1461264
1.1610623
1.1729845
1.182084
1.1887343
1.1933981
1.1965436
1.1985877
1.1998688
1.2006431
1.2010938
1.2013454
1.2014796
1.2015473
1.2015794
1.2015935
1.2015991
1.2016012
1.2016018
1.201602
1.201602
1.201602
1.201602
1.201602
1.201602
1.201602
0.75823889
0.76454139
0.77142043
0.77892704
0.78711672
0.79604975
0.80579145
0.8164122
0.82798727
0.84059608
0.85432067
0.86924305
0.88544065
0.90297921
0.92190229
0.94221621
0.9638701
0.98673125
1.0105582
1.0349774
1.0594727
1.0834013
1.1060451
1.1267005
1.1447882
1.1599504
1.1721011
1.1814121
1.1882438
1.1930535
1.19631
1.1984345
1.1997714
1.2005831
1.2010578
1.2013245
1.2014676
1.2015405
1.2015754
1.2015909
1.2015972
1.2015995
1.2016003
1.2016005
1.2016005
1.2016005
1.2016005
1.2016005
1.2016005
1.2016005
0.7578519
0.76412399
0.77096916
0.77843802
0.78658559
0.79547164
0.80516092
0.8157232
0.82723312
0.83976952
0.85341393
0.86824807
0.88434941
0.90178435
0.92059799
0.94079954
0.96234279
0.98510187
1.0088446
1.0332086
1.0576899
1.0816558
1.1043938
1.1251982
1.1434782
1.1588578
1.1712298
1.1807468
1.1877563
1.1927099
1.1960762
1.1982806
1.1996732
1.2005223
1.2010212
1.2013031
1.2014553
1.2015335
1.2015712
1.2015882
1.2015952
1.2015979
1.2015987
1.201599
1.201599
1.201599
1.201599
1.201599
1.201599
1.201599
0.75747972
0.76372256
0.77053517
0.77796773
0.78607483
0.79491574
0.80455463
0.81506073
0.82650806
0.83897488
0.85254225
0.86729157
0.88330033
0.90063551
0.91934365
0.93943663
0.96087261
0.98353219
1.0071919
1.0315002
1.0559646
1.0799627
1.1027877
1.1237322
1.1421954
1.157784
1.1703702
1.180088
1.187272
1.1923672
1.1958423
1.1981261
1.1995744
1.2004609
1.2009841
1.2012812
1.2014427
1.2015262
1.201567
1.2015855
1.2015932
1.2015962
1.2015972
1.2015975
1.2015975
1.2015975
1.2015975
1.2015975
1.2015975
1.2015975
0.75712134
0.76333601
0.77011726
0.7775149
0.78558305
0.7943805
0.80397093
0.81442297
0.82581009
0.83820998
0.85170323
0.86637091
0.88229052
0.89952956
0.9181359
0.9381239
0.95945581
0.98201834
1.0055964
1.0298485
1.0542936
1.0783191
1.1012243
1.1223009
1.1409388
1.1567283
1.1695221
1.1794358
1.1867908
1.1920257
1.1956084
1.1979711
1.1994748
1.2003987
1.2009465
1.2012589
1.2014298
1.2015188
1.2015626
1.2015827
1.2015912
1.2015945
1.2015956
1.2015959
1.201596
1.201596
1.201596
1.201596
1.201596
1.201596
0.75677582
0.76296335
0.76971438
0.77707835
0.78510897
0.79386457
0.80340831
0.81380828
0.82513741
0.83747284
0.85089469
0.86548371
0.88131738
0.89846368
0.91697167
0.93685807
0.95808897
0.98055682
1.0040544
1.0282502
1.0526737
1.0767224
1.0997016
1.1209027
1.1397074
1.1556903
1.1686852
1.17879
1.1863127
1.1916852
1.1953745
1.1978156
1.1993746
1.200336
1.2009083
1.2012363
1.2014166
1.2015112
1.2015581
1.2015798
1.2015891
1.2015928
1.201594
1.2015944
1.2015945
1.2015945
1.2015945
1.2015945
1.2015945
1.2015945
0.75644234
0.76260367
0.76932554
0.77665703
0.78465145
0.79336668
0.80286539
0.81321517
0.82448839
0.83676166
0.85011465
0.86462781
0.88037856
0.8974353
0.91584821
0.9356362
0.95676897
0.97914443
1.0025629
1.0267022
1.0511023
1.0751702
1.0982178
1.1195364
1.1385002
1.1546693
1.1678594
1.1781505
1.1858378
1.191346
1.1951407
1.1976598
1.1992738
1.2002728
1.2008696
1.2012132
1.2014032
1.2015033
1.2015534
1.2015769
1.201587
1.201591
1.2015925
1.2015929
1.201593
1.201593
1.201593
1.201593
1.201593
1.201593
0.75612015
0.76225616
0.76894987
0.77624999
0.78420945
0.79288571
0.80234096
0.81264228
0.82386153
0.83607482
0.84936135
0.86380125
0.87947191
0.89644207
0.91476298
0.93445558
0.95549298
0.97777826
1.0011188
1.0252016
1.0495766
1.0736603
1.096771
1.1182005
1.1373163
1.153665
1.1670443
1.1775173
1.185366
1.1910079
1.1949071
1.1975036
1.1991725
1.2002089
1.2008305
1.2011898
1.2013894
1.2014953
1.2015487
1.2015738
1.2015849
1.2015893
1.2015909
1.2015914
1.2015915
1.2015915
1.2015915
1.2015915
1.2015915
1.2015915
0.75580854
0.76192008
0.76858655
0.77585635
0.78378203
0.79242062
0.80183387
0.81208838
0.82325549
0.83541082
0.84863313
0.86300224
0.87859546
0.89548187
0.91371369
0.93331375
0.95425841
0.97645562
0.99971961
1.0237459
1.0480943
1.0721907
1.0953595
1.1168939
1.1361551
1.1526767
1.1662397
1.1768903
1.1848974
1.1906712
1.1946736
1.197347
1.1990708
1.2001446
1.2007909
1.2011661
1.2013754
1.2014872
1.2015438
1.2015707
1.2015827
1.2015875
1.2015893
1.2015898
1.20159
1.20159
1.20159
1.20159
1.20159
1.20159
0.75550689
0.76159474
0.76823486
0.77547532
0.78336832
0.79197047
0.8013431
0.81155233
0.82266902
0.8347683
0.84792851
0.86222915
0.87774744
0.89455275
0.91269822
0.93220846
0.95306287
0.97517406
0.99836274
1.0223328
1.0466533
1.0707593
1.0939818
1.1156153
1.1350155
1.1517039
1.1654453
1.1762694
1.184432
1.1903357
1.1944404
1.1971903
1.1989685
1.2000798
1.2007509
1.201142
1.2013612
1.2014788
1.2015388
1.2015676
1.2015805
1.2015857
1.2015877
1.2015883
1.2015885
1.2015885
1.2015885
1.2015885
1.2015885
1.2015885
0.75521462
0.76127953
0.76789413
0.77510618
0.78296752
0.7915344
0.80086771
0.81103311
0.822101
0.83414604
0.84724613
0.86148048
0.8769262
0.89365293
0.91171463
0.93113762
0.95190418
0.97393131
0.99704595
1.0209599
1.0452514
1.0693644
1.0926364
1.1143637
1.133897
1.1507464
1.164661
1.1756545
1.1839697
1.1900016
1.1942076
1.1970333
1.1988659
1.2000146
1.2007105
1.2011176
1.2013467
1.2014703
1.2015337
1.2015644
1.2015782
1.2015839
1.2015861
1.2015868
1.201587
1.201587
1.201587
1.2015871
1.2015871
1.2015871
0.75493122
0.76097387
0.76756373
0.77474824
0.78257891
0.79111162
0.80040682
0.81052977
0.82155038
0.83354287
0.84658473
0.86075485
0.87613023
0.89278076
0.91076115
0.93009934
0.95078032
0.97272529
0.99576713
1.0196252
1.0438868
1.0680043
1.091322
1.1131379
1.1327987
1.1498035
1.1638865
1.1750455
1.1835106
1.1896689
1.193975
1.1968761
1.1987628
1.1999489
1.2006698
1.2010928
1.201332
1.2014616
1.2015285
1.2015611
1.2015759
1.2015821
1.2015845
1.2015852
1.2015855
1.2015855
1.2015856
1.2015856
1.2015856
1.2015856
0.75465617
0.76067725
0.7672431
0.7744009
0.78220183
0.79070138
0.79995965
0.81004143
0.82101622
0.83295776
0.84594317
0.860051
0.87535816
0.89193472
0.90983615
0.92909186
0.94968943
0.97155408
0.99452433
1.018327
1.0425576
1.0666774
1.0900371
1.1119371
1.13172
1.148875
1.1631216
1.1744423
1.1830546
1.1893375
1.1937429
1.1967188
1.1986594
1.1998829
1.2006286
1.2010678
1.201317
1.2014527
1.2015231
1.2015577
1.2015736
1.2015803
1.2015828
1.2015837
1.201584
1.201584
1.2015841
1.2015841
1.2015841
1.2015841
0.75438905
0.76038917
0.76693172
0.77406359
0.78183564
0.79030303
0.79952545
0.8095673
0.82049761
0.83238974
0.84532036
0.85936776
0.87460869
0.89111343
0.90893811
0.92811356
0.9486298
0.97041588
0.99331575
1.0170632
1.0412623
1.0653824
1.0887807
1.1107603
1.1306603
1.1479603
1.162366
1.1738448
1.1826017
1.1890075
1.1935111
1.1965613
1.1985557
1.1998164
1.2005872
1.2010425
1.2013019
1.2014437
1.2015177
1.2015543
1.2015712
1.2015784
1.2015812
1.2015822
1.2015825
1.2015825
1.2015826
1.2015826
1.2015826
1.2015826
0.75412944
0.76010919
0.7666291
0.77373578
0.78147979
0.78991594
0.79910355
0.80910662
0.81999376
0.8318379
0.84471534
0.85870405
0.87388066
0.89031559
0.90806563
0.92716292
0.94759983
0.96930904
0.99213971
1.0158325
1.0399993
1.0641177
1.0875516
1.1096066
1.1296189
1.1470591
1.1616196
1.173253
1.1821519
1.188679
1.1932798
1.1964038
1.1984517
1.1997496
1.2005454
1.201017
1.2012865
1.2014346
1.2015122
1.2015508
1.2015688
1.2015765
1.2015795
1.2015806
1.2015809
1.201581
1.2015811
1.2015811
1.2015811
1.2015811
0.75387694
0.7598369
0.7663348
0.77341699
0.78113374
0.78953953
0.79869332
0.80865871
0.81950391
0.83130143
0.84412719
0.85805887
0.87317295
0.88954002
0.90721741
0.92623856
0.94659805
0.96823203
0.99099465
1.0146331
1.0387671
1.0628822
1.0863487
1.1084752
1.1285952
1.1461711
1.1608821
1.1726668
1.1817052
1.1883519
1.1930489
1.1962462
1.1983474
1.1996825
1.2005033
1.2009911
1.201271
1.2014253
1.2015066
1.2015472
1.2015663
1.2015746
1.2015779
1.2015791
1.2015794
1.2015795
1.2015796
1.2015796
1.2015796
1.2015796
0.75363122
0.75957191
0.7660484
0.77310677
0.78079701
0.78917328
0.79829418
0.80822292
0.81902735
0.83077954
0.84355507
0.85743129
0.87248457
0.88878559
0.90639226
0.92533919
0.94562308
0.96718341
0.98987911
1.0134637
1.0375644
1.0616746
1.085171
1.1073652
1.1275888
1.1452959
1.1601534
1.1720861
1.1812615
1.1880262
1.1928185
1.1960887
1.1982429
1.1996151
1.2004609
1.2009651
1.2012552
1.2014158
1.2015009
1.2015436
1.2015638
1.2015727
1.2015762
1.2015775
1.2015779
1.201578
1.2015781
1.2015781
1.2015781
1.2015781
0.75339193
0.75931386
0.76576951
0.77280471
0.78046915
0.78881668
0.79790558
0.80779868
0.81856343
0.83027154
0.84299819
0.85682046
0.87181456
0.88805128
0.90558904
0.9244636
0.94467365
0.96616186
0.98879174
1.0123229
1.0363899
1.0604937
1.0840175
1.106276
1.1265989
1.144433
1.1594333
1.1715107
1.1808209
1.187702
1.1925886
1.1959311
1.1981381
1.1995474
1.2004182
1.2009388
1.2012393
1.2014062
1.201495
1.2015399
1.2015613
1.2015707
1.2015746
1.2015759
1.2015764
1.2015765
1.2015766
1.2015766
1.2015766
1.2015766
0.75315877
0.75906243
0.76549778
0.7725104
0.78014972
0.78846928
0.79752702
0.80738543
0.81811156
0.82977675
0.84245582
0.85622557
0.87116205
0.88733614
0.90480673
0.92361067
0.94374856
0.96516611
0.98773127
1.0112095
1.0352424
1.0593386
1.0828874
1.1052069
1.1256253
1.1435823
1.1587215
1.1709406
1.1803833
1.1873792
1.1923592
1.1957735
1.1980332
1.1994794
1.2003752
1.2009122
1.2012232
1.2013965
1.2014891
1.2015362
1.2015587
1.2015688
1.2015729
1.2015744
1.2015749
1.201575
1.2015751
1.2015751
1.2015751
1.2015751
0.75293146
0.75881731
0.76523287
0.77222349
0.77983833
0.78813064
0.79715803
0.80698264
0.81767116
0.82929455
0.84192729
0.85564588
0.87052621
0.88663926
0.90404435
0.92277935
0.9428467
0.96419502
0.98669651
1.0101223
1.0341209
1.0582081
1.0817797
1.1041571
1.1246672
1.1427434
1.158018
1.1703758
1.1799486
1.1870579
1.1921304
1.195616
1.197928
1.1994111
1.200332
1.2008855
1.2012069
1.2013867
1.2014831
1.2015324
1.2015561
1.2015668
1.2015712
1.2015728
1.2015734
1.2015735
1.2015736
1.2015736
1.2015736
1.2015736
0.75270972
0.75857821
0.76497448
0.77194365
0.77953462
0.78780037
0.79679818
0.80658985
0.81724172
0.82882438
0.84141196
0.85508068
0.86990629
0.88595981
0.903301
0.92196867
0.94196702
0.96324748
0.98568634
1.0090602
1.0330243
1.0571014
1.0806936
1.1031259
1.1237244
1.141916
1.1573225
1.1698161
1.1795169
1.1867381
1.1919021
1.1954585
1.1978227
1.1993426
1.2002886
1.2008585
1.2011904
1.2013767
1.2014771
1.2015285
1.2015535
1.2015648
1.2015695
1.2015712
1.2015718
1.201572
1.2015721
1.2015721
1.2015721
1.2015721
0.7524933
0.75834485
0.7647223
0.77167055
0.77923825
0.78747808
0.79644704
0.8062066
0.81682273
0.82836568
0.84090923
0.85452934
0.86930157
0.88529701
0.90257581
0.9211777
0.94110856
0.96232249
0.98469972
1.0080222
1.0319515
1.0560175
1.0796284
1.1021129
1.1227963
1.1410997
1.1566348
1.1692614
1.1790882
1.1864198
1.1916745
1.1953011
1.1977172
1.1992739
1.2002449
1.2008313
1.2011738
1.2013666
1.2014709
1.2015246
1.2015508
1.2015627
1.2015677
1.2015697
1.2015703
1.2015705
1.2015706
1.2015706
1.2015706
1.2015706
0.75228198
0.75811699
0.76447607
0.7714039
0.77894888
0.78716344
0.79610425
0.80583248
0.81641375
0.82791795
0.84041855
0.85399123
0.86871138
0.88465013
0.901868
0.9204056
0.9402704
0.96141908
0.98373566
1.0070072
1.0309016
1.0549556
1.0785834
1.1011174
1.1218825
1.1402944
1.1559548
1.1687117
1.1786623
1.1861029
1.1914474
1.1951438
1.1976116
1.1992049
1.2002009
1.2008039
1.201157
1.2013564
1.2014646
1.2015207
1.2015481
1.2015607
1.201566
1.2015681
1.2015688
1.201569
1.201569
1.2015691
1.2015691
1.2015691
0.75207554
0.75789439
0.76423553
0.77114342
0.77866622
0.7868561
0.79576944
0.80546708
0.81601432
0.82748072
0.8399394
0.85346578
0.86813509
0.88401848
0.90117683
0.91965156
0.93945168
0.96053635
0.98279326
1.0060144
1.0298738
1.0539148
1.0775578
1.1001389
1.1209826
1.1394997
1.1552824
1.1681669
1.1782393
1.1857875
1.1912209
1.1949867
1.1975059
1.1991357
1.2001568
1.2007763
1.20114
1.2013461
1.2014583
1.2015166
1.2015454
1.2015586
1.2015643
1.2015665
1.2015672
1.2015675
1.2015675
1.2015676
1.2015676
1.2015676
0.75187376
0.75767683
0.76400044
0.77088885
0.77838999
0.78655576
0.79544227
0.80511005
0.81562406
0.82705354
0.83947129
0.85295246
0.86757212
0.88340142
0.90050158
0.91891481
0.93865159
0.95967345
0.98187162
1.0050429
1.0288672
1.0528945
1.0765511
1.0991768
1.1200962
1.1387153
1.1546174
1.1676269
1.1778192
1.1854736
1.190995
1.1948296
1.1974
1.1990664
1.2001124
1.2007486
1.201123
1.2013357
1.2014519
1.2015126
1.2015426
1.2015565
1.2015625
1.2015649
1.2015657
1.201566
1.201566
1.2015661
1.2015661
1.2015661
0.75167646
0.7574641
0.76377058
0.77063995
0.77811992
0.78626213
0.79512243
0.80476103
0.81524259
0.82663599
0.83901377
0.85245077
0.8670219
0.88279835
0.89984161
0.91819466
0.93786937
0.95882959
0.98096994
1.0040919
1.0278811
1.0518939
1.0755625
1.0982306
1.119223
1.1379411
1.1539595
1.1670917
1.1774018
1.1851611
1.1907697
1.1946727
1.1972941
1.1989968
1.2000679
1.2007206
1.2011057
1.2013251
1.2014454
1.2015084
1.2015398
1.2015544
1.2015608
1.2015633
1.2015642
1.2015645
1.2015645
1.2015646
1.2015646
1.2015646
0.75148345
0.757256
0.76354573
0.77039648
0.77785576
0.78597495
0.79480962
0.80441969
0.81486953
0.82622769
0.83856639
0.85196022
0.86648393
0.88220869
0.89919629
0.91749042
0.93710431
0.95800402
0.98008743
1.0031605
1.0269146
1.0509122
1.0745914
1.0972998
1.1183625
1.1371768
1.1533088
1.1665611
1.1769873
1.1848501
1.1905451
1.194516
1.1971881
1.1989271
1.2000231
1.2006925
1.2010883
1.2013145
1.2014388
1.2015042
1.2015369
1.2015523
1.201559
1.2015617
1.2015626
1.2015629
1.201563
1.2015631
1.2015631
1.2015631
0.75129456
0.75705235
0.76332569
0.77015824
0.77759726
0.78569394
0.79450355
0.80408574
0.81450456
0.82582826
0.83812875
0.85148037
0.8659577
0.8816319
0.89856503
0.91680147
0.93635574
0.95719601
0.97922337
1.0022481
1.0259671
1.0499489
1.0736374
1.096384
1.1175144
1.1364221
1.1526649
1.1660351
1.1765755
1.1845406
1.1903211
1.1943594
1.197082
1.1988572
1.1999782
1.2006642
1.2010708
1.2013037
1.2014321
1.2015
1.201534
1.2015501
1.2015572
1.20156
1.2015611
1.2015614
1.2015615
1.2015616
1.2015616
1.2015616
0.75110963
0.75685297
0.76311027
0.769925
0.77734422
0.78541886
0.79420396
0.80375888