/*--------------------------------*- C++ -*----------------------------------*\
| =========                 |                                                 |
| \\      /  F ield         | OpenFOAM: The Open Source CFD Toolbox           |
|  \\    /   O peration     | Version:  4.0                                   |
|   \\  /    A nd           | Web:      www.OpenFOAM.org                      |
|    \\/     M anipulation  |                                                 |
\*---------------------------------------------------------------------------*/
FoamFile
{
    version     2.0;
    format      ascii;
    class       surfaceScalarField;
    location    "4000/fluid";
    object      snGradRho;
}
// * * * * * * * * * * * * * * * * * * * * * * * * * * * * * * * * * * * * * //

dimensions      [1 -4 0 0 0 0 0];

internalField   nonuniform List<scalar> 
9850
(
164.44853
-1.08492
166.02505
-1.5083175
166.31608
-1.9807241
165.0405
-2.4949805
161.91868
-3.0386145
156.7013
-3.5928112
149.20972
-4.1317785
139.38564
-4.6229223
127.34282
-5.0283431
113.40776
-5.3081471
98.13082
-5.4258224
82.250911
-5.355317
66.607505
-5.0885075
52.013417
-4.6407411
39.122562
-4.0517157
28.334669
-3.3799047
19.766277
-2.6911916
13.289785
-2.0452926
8.6159648
-1.4849237
5.3852914
-1.0312647
3.2410285
-0.68599798
1.8730396
-0.4374022
1.0349178
-0.26723492
0.54338534
-0.15615769
0.26898472
-0.086961609
0.1243188
-0.045897701
0.05301491
-0.022789661
0.020560288
-0.010551102
0.0071206332
-0.0045143949
0.0021500207
-0.0017791632
0.00054729606
-0.00066084255
0.00011182626
-0.00025805797
1.720437e-05
-0.00013476732
2.1212273e-06
-0.00010471124
5.3463374e-07
-9.9801569e-05
2.4884046e-07
-9.972119e-05
1.2148192e-07
-9.9983086e-05
1.2656639e-08
-0.00010007212
2.3721416e-08
-0.00010007603
-1.3612545e-08
-0.0001000588
2.1215049e-08
-0.00010004098
-1.1683094e-08
-0.00010002187
2.5147866e-08
-0.00010000835
-9.4527254e-09
-9.9990963e-05
3.0457507e-08
-9.9982641e-05
-7.8020423e-09
-9.9965463e-05
1.5155874e-08
-9.9966047e-05
-4.7858573e-08
-9.9943206e-05
3.7349928e-07
-9.9869526e-05
-0.00010012278
100.16303
-0.67207894
100.82385
-0.71684518
101.79614
-0.77041259
103.03994
-0.83631919
104.46368
-0.91857313
105.90859
-1.0212316
107.13482
-1.1476701
107.81408
-1.2994924
107.53576
-1.4751022
105.83546
-1.6680984
102.25504
-1.8658733
96.438131
-2.0490625
88.250888
-2.1927028
77.894695
-2.2698683
65.956061
-2.2578471
53.340856
-2.1454939
41.084603
-1.9388161
30.102672
-1.6614799
20.989052
-1.3489261
13.945491
-1.0383728
8.8438136
-0.75940106
5.3593612
-0.52899607
3.1036218
-0.35179623
1.7148702
-0.22364241
0.90095633
-0.13587694
0.4476019
-0.07873502
0.20865899
-0.043338815
0.090349013
-0.022529491
0.035865642
-0.010983431
0.012833623
-0.004988047
0.0040451971
-0.002106507
0.0010851295
-0.00084161072
0.00023289621
-0.00034238553
3.4149769e-05
-0.00016845532
1.0112987e-06
-0.00011612505
-1.1629888e-06
-0.00010290413
-3.1480773e-07
-0.00010021372
-4.7627996e-09
-9.9809626e-05
9.3473842e-08
-9.9787259e-05
5.200423e-08
-9.9803376e-05
8.5154586e-08
-9.9825421e-05
2.9440767e-08
-9.9839859e-05
7.3232038e-08
-9.98605e-05
1.1466253e-08
-9.9871171e-05
6.9712588e-08
-9.9890651e-05
-9.015884e-09
-9.990157e-05
5.8286343e-08
-9.9921701e-05
7.8618078e-08
-9.9921419e-05
-2.1684394e-08
-9.9921951e-05
-0.00010020435
93.366064
-0.48825159
93.430515
-0.51366261
93.527332
-0.54232525
93.659008
-0.57481626
93.820815
-0.61192419
93.992925
-0.65470619
94.128633
-0.70450331
94.138729
-0.76285357
93.873753
-0.83121685
93.108827
-0.91041706
91.539381
-0.99974393
88.800262
-1.0957747
84.52099
-1.1912031
78.4229
-1.2742673
70.443675
-1.3295942
60.845029
-1.3411202
50.238269
-1.2968987
39.480303
-1.194171
29.459079
-1.0420241
20.862038
-0.85958851
14.036619
-0.67022745
8.9897634
-0.49468053
5.4903604
-0.34644798
3.2007335
-0.2307862
1.7803678
-0.14647266
0.94279729
-0.088593735
0.47330191
-0.050993439
0.22382986
-0.027837531
0.09887214
-0.014339915
0.040361709
-0.006928967
0.015029933
-0.0031268319
0.0050262029
-0.0013240152
0.0014810739
-0.00054472509
0.00037552973
-0.00024258513
7.9413879e-05
-0.0001394923
1.3340482e-05
-0.00010921658
1.6654173e-06
-0.00010176819
9.4877414e-08
-0.00010028101
2.8205598e-08
-0.00010004702
-2.9147365e-08
-0.00010001113
3.6839819e-08
-9.9999318e-05
-3.334678e-08
-9.9987904e-05
4.3722983e-08
-9.9978824e-05
-3.7500822e-08
-9.9971151e-05
4.4759924e-08
-9.9963616e-05
-5.0832706e-08
-9.9962607e-05
5.8819541e-08
-9.9951025e-05
7.7704302e-08
-9.9933715e-05
-4.623475e-07
-9.9976951e-05
-0.00010007296
89.507843
-0.36971094
89.47452
-0.39100411
89.450926
-0.41494886
89.42691
-0.44187913
89.385495
-0.47215528
89.300004
-0.50615808
89.129931
-0.54427666
88.815038
-0.58688258
88.267247
-0.63427205
87.360725
-0.68654245
85.92206
-0.74335257
83.725989
-0.80351222
80.50597
-0.86438781
75.991886
-0.92123342
69.9833
-0.96677331
62.450649
-0.99158605
53.628866
-0.98583244
44.045203
-0.94233517
34.434824
-0.85997029
25.556868
-0.74547932
17.993048
-0.61221388
12.026695
-0.47613147
7.6444471
-0.35114811
4.6281558
-0.24611345
2.6711217
-0.16426796
1.4688281
-0.10452797
0.76778754
-0.063388862
0.37987212
-0.036555052
0.17675504
-0.0199663
0.076684475
-0.010273226
0.030686129
-0.0049517038
0.011178215
-0.002231186
0.003649325
-0.00095103596
0.0010480627
-0.0004042734
0.00025895468
-0.00019569157
5.3493198e-05
-0.00012589446
8.953261e-06
-0.00010582095
1.1372104e-06
-0.00010097744
1.7354993e-07
-0.00010002877
1.4339692e-08
-9.9892782e-05
7.5035981e-08
-9.9886242e-05
-5.7268552e-09
-9.9899175e-05
6.494246e-08
-9.9907256e-05
-1.8560802e-08
-9.9920696e-05
4.7065296e-08
-9.9925861e-05
-2.6772904e-08
-9.9938151e-05
9.1505034e-08
-9.9933228e-05
3.4878012e-09
-9.9936823e-05
-6.1215683e-07
-0.00010001594
-0.00010005611
86.274849
-0.28643698
86.169683
-0.30358822
86.072185
-0.32285371
85.973965
-0.3444938
85.860337
-0.36878357
85.707678
-0.39600029
85.480003
-0.42640103
85.124651
-0.46018601
84.567076
-0.49744097
83.705047
-0.53804941
82.40302
-0.58156122
80.489015
-0.62700116
77.758262
-0.6726047
73.990902
-0.71549676
68.992229
-0.75140482
62.659555
-0.77462804
55.064522
-0.77860722
46.516417
-0.75738024
37.557449
-0.70776949
28.860919
-0.63141789
21.060037
-0.53536848
14.587306
-0.43045409
9.600614
-0.32814063
6.0137943
-0.237465
3.5905174
-0.16343616
2.0443671
-0.10714942
1.1090469
-0.066954567
0.57165016
-0.039841129
0.27862118
-0.022517161
0.12752233
-0.012036632
0.054311914
-0.0060552475
0.021284206
-0.0028569179
0.0075730645
-0.0012703429
0.00240876
-0.00054930192
0.00067286491
-0.00025354307
0.00016170524
-0.00014588511
3.2688621e-05
-0.00011175269
5.363266e-06
-0.00010251747
7.2424903e-07
-0.00010042657
3.8416261e-08
-0.00010003952
3.1758622e-08
-9.9975097e-05
-3.0310932e-08
-9.9965941e-05
2.7778514e-08
-9.9957356e-05
-3.1544001e-08
-9.9957188e-05
1.898078e-08
-9.9951778e-05
-1.6547422e-08
-9.9952311e-05
8.4716663e-08
-9.994126e-05
-1.3232628e-07
-9.9955119e-05
-6.748342e-07
-0.0001000241
-0.00010000139
83.670733
-0.22798937
83.510674
-0.24246933
83.357164
-0.25872335
83.203756
-0.27696987
83.038709
-0.2974402
82.842688
-0.32036846
82.58574
-0.34597318
82.223475
-0.37442677
81.692444
-0.40580698
80.905103
-0.44002354
79.745009
-0.47671235
78.064111
-0.51509122
75.685017
-0.55377734
72.413132
-0.59058335
68.064646
-0.622344
62.515076
-0.64488612
55.765133
-0.65332719
48.004901
-0.64290413
39.639861
-0.61036833
31.242273
-0.55556965
23.424569
-0.48240684
16.683465
-0.39834656
11.289358
-0.3124708
7.2670973
-0.23298023
4.4567676
-0.16537444
2.606696
-0.11193762
1.4538625
-0.072318594
0.77192783
-0.044578134
0.38876282
-0.026163644
0.18466402
-0.014566383
0.082087159
-0.0076546991
0.033809232
-0.0037792575
0.012747481
-0.0017528481
0.0043381624
-0.00077610197
0.0013112972
-0.000348108
0.00034570589
-0.00018031068
7.7945369e-05
-0.00012247752
1.4677612e-05
-0.00010528739
2.2916431e-06
-0.00010097062
2.7555962e-07
-0.00010008021
6.2396741e-08
-9.9934716e-05
-4.195512e-09
-9.9923235e-05
2.8243856e-08
-9.9925756e-05
-1.7944512e-08
-9.9933274e-05
1.7761236e-08
-9.9936286e-05
6.409576e-09
-9.9938737e-05
5.854594e-08
-9.9935651e-05
-2.5073891e-07
-9.996066e-05
-6.3938963e-07
-0.00010001691
-9.9977678e-05
81.472205
-0.18545828
81.267306
-0.19762981
81.067909
-0.21128343
80.869148
-0.22660251
80.661678
-0.24378312
80.429678
-0.26302687
80.148202
-0.28452746
79.779786
-0.30844766
79.270287
-0.33488203
78.544212
-0.3637994
77.500036
-0.39495844
76.007031
-0.42779091
73.90595
-0.4612525
71.017596
-0.49365527
67.164268
-0.52252152
62.208593
-0.54454061
56.109153
-0.55575703
48.981081
-0.5521348
41.134439
-0.53055778
33.056199
-0.49007521
25.319097
-0.43286211
18.442854
-0.36423527
12.769792
-0.29145044
8.4116585
-0.22175172
5.2791578
-0.16061827
3.1609689
-0.11093363
1.8066523
-0.073156389
0.98481273
-0.046080303
0.51064038
-0.027693267
0.2506931
-0.015835549
0.11574265
-0.0085797553
0.049806479
-0.0043844795
0.019756917
-0.0021093184
0.0071302093
-0.00096406436
0.0023063675
-0.00043593363
0.00065747225
-0.00021621462
0.00016218475
-0.00013514519
3.3907562e-05
-0.00010910317
5.897408e-06
-0.00010195867
8.1113761e-07
-0.00010031746
1.0081487e-07
-0.00010000578
-1.1863395e-08
-9.9956927e-05
7.4537394e-09
-9.9948667e-05
-2.5516256e-08
-9.9947103e-05
1.2160562e-08
-9.9944855e-05
1.2820782e-08
-9.9941056e-05
1.1320036e-08
-9.9940914e-05
-3.4729835e-07
-9.9969385e-05
-5.7816799e-07
-0.00010000758
-9.9954002e-05
79.624171
-0.15435291
79.382843
-0.1649113
79.145938
-0.17674931
78.909727
-0.1900259
78.666629
-0.20491194
78.403445
-0.2215847
78.099026
-0.24021743
77.721248
-0.26096144
77.223254
-0.28391682
76.539156
-0.30908695
75.579501
-0.33631112
74.227757
-0.36516986
72.339719
-0.3948616
69.749237
-0.42405908
66.284781
-0.45077471
61.801341
-0.47229728
56.228707
-0.48530157
49.628462
-0.48625239
42.23856
-0.47217295
34.474684
-0.44167288
26.86579
-0.39586257
19.934042
-0.33861254
14.067862
-0.27581139
9.4466436
-0.21383641
6.0438021
-0.15795153
3.6894752
-0.11134113
2.1509929
-0.075016156
1.1973803
-0.048344324
0.63525512
-0.029782603
0.32000955
-0.017499606
0.15217567
-0.0097698135
0.067767465
-0.0051584595
0.027975619
-0.0025674428
0.010575505
-0.0012093948
0.0036093432
-0.00055357586
0.0010945005
-0.00026605525
0.00028980238
-0.00015350227
6.5734253e-05
-0.00011486706
1.2543524e-05
-0.00010345841
1.9584907e-06
-0.00010061852
2.6430235e-07
-0.00010003631
1.3261719e-08
-9.9941869e-05
1.1778087e-08
-9.9932259e-05
-1.9864268e-08
-9.9933564e-05
2.0841063e-08
-9.993439e-05
1.3116316e-08
-9.9933076e-05
-4.2442162e-08
-9.9939133e-05
-4.1286838e-07
-9.9969241e-05
-4.9455849e-07
-9.9991608e-05
-9.9938344e-05
78.021064
-0.13086192
77.74897
-0.14004211
77.480222
-0.15032963
77.211999
-0.16186272
76.938122
-0.17479107
76.647482
-0.18927178
76.321945
-0.20546146
75.93363
-0.22350223
75.441485
-0.2434986
74.787307
-0.26548095
73.891408
-0.28935091
72.64894
-0.31480347
70.928421
-0.34122358
68.575375
-0.36756188
65.425126
-0.39221044
61.329174
-0.41292566
56.197325
-0.42688036
50.050891
-0.43095037
43.070419
-0.4223139
35.610459
-0.3993152
28.156076
-0.36232351
21.220688
-0.31413685
15.222085
-0.25956072
10.392771
-0.20421267
6.7611339
-0.15308356
4.1976641
-0.10951006
2.4901923
-0.074888785
1.4119673
-0.049016514
0.76433919
-0.030709198
0.39385423
-0.018389809
0.19222204
-0.010494487
0.088221936
-0.0056836201
0.037721398
-0.002910674
0.014853783
-0.0014114796
0.0053143955
-0.0006599149
0.0017012498
-0.0003154838
0.00047913233
-0.00017351796
0.00011655649
-0.00012182525
2.4043743e-05
-0.00010550907
4.1016884e-06
-0.00010113058
5.8034796e-07
-0.00010015048
4.2494942e-08
-9.9970146e-05
8.1713598e-09
-9.9942852e-05
-2.1941352e-08
-9.9938532e-05
2.3843259e-08
-9.9935678e-05
5.3575082e-10
-9.993367e-05
-9.9296627e-08
-9.9941729e-05
-4.5126239e-07
-9.9969208e-05
-4.114434e-07
-9.9978345e-05
-9.9927322e-05
76.627213
-0.1129395
76.329095
-0.12108123
76.03325
-0.13020098
75.737542
-0.14042119
75.436869
-0.15187494
75.121754
-0.16470287
74.776443
-0.17904686
74.376442
-0.19503879
73.885376
-0.21278177
73.251297
-0.2323204
72.402559
-0.25359576
71.244088
-0.2763807
69.655324
-0.30019241
67.492338
-0.32418489
64.597718
-0.34703559
60.822499
-0.36686264
56.062991
-0.3812385
50.310012
-0.38739152
43.697685
-0.3826759
36.527594
-0.36529975
29.242094
-0.33511933
22.338823
-0.29412449
16.252888
-0.24624636
11.258383
-0.19643036
7.4317281
-0.14935946
4.6820182
-0.1084166
2.8192233
-0.075268284
1.6236131
-0.050053798
0.89380573
-0.031900296
0.46928025
-0.019466434
0.23400104
-0.011345439
0.11011263
-0.0062913764
0.048480087
-0.0033065572
0.019756665
-0.0016462558
0.0073569378
-0.00078566332
0.0024665577
-0.00037558154
0.00073244989
-0.00019876851
0.00018924041
-0.00013099355
4.1774521e-05
-0.00010832887
7.7096459e-06
-0.0001018449
1.1837944e-06
-0.00010028943
1.2552002e-07
-9.9983583e-05
2.0118793e-08
-9.9935671e-05
-1.4766055e-08
-9.9930276e-05
2.8431034e-08
-9.9928351e-05
-1.6204932e-08
-9.9929472e-05
-1.5118571e-07
-9.9940482e-05
-4.6694713e-07
-9.9964997e-05
-3.3182547e-07
-9.9964865e-05
-9.9919132e-05
75.391033
-0.098871338
75.070394
-0.10612027
74.750997
-0.1142364
74.43126
-0.12332862
74.106965
-0.13351587
73.769965
-0.14492483
73.406461
-0.15768494
72.994733
-0.17191935
72.502255
-0.18772958
71.882248
-0.20517086
71.069754
-0.22421457
69.977934
-0.24469357
68.495616
-0.26622741
66.488297
-0.28812829
63.805785
-0.30929807
60.300532
-0.32814419
55.859907
-0.34256802
50.451496
-0.35010432
44.171602
-0.34829028
37.275857
-0.33527904
30.166025
-0.3105641
23.319731
-0.27550623
17.180662
-0.23331022
12.05529
-0.18832153
8.0618367
-0.14490728
5.1457654
-0.1064376
3.139889
-0.07477417
1.8334808
-0.05033066
1.0244753
-0.032491405
0.54686219
-0.020111088
0.27789202
-0.011913718
0.13367592
-0.0067330826
0.060394931
-0.0036169285
0.025370797
-0.0018441758
0.0097888013
-0.00089955494
0.0034197194
-0.00043408771
0.0010645777
-0.00022523278
0.00029020509
-0.00014137207
6.8031485e-05
-0.00011180141
1.3435627e-05
-0.00010282191
2.2072621e-06
-0.00010051882
2.7126902e-07
-0.00010002969
3.5037528e-08
-9.9944006e-05
-9.9286921e-09
-9.9931414e-05
2.586963e-08
-9.992746e-05
-3.9074601e-08
-9.992942e-05
-1.9747931e-07
-9.9940815e-05
-4.6671897e-07
-9.9960835e-05
-2.6046397e-07
-9.9953844e-05
-9.9914751e-05
74.290409
-0.08769642
73.950211
-0.094234896
73.610263
-0.10155263
73.269421
-0.10974757
72.924169
-0.118927
72.567442
-0.12920574
72.187039
-0.14070212
71.763535
-0.15353045
71.267604
-0.16778833
70.656803
-0.18353594
69.871834
-0.20076434
68.832902
-0.21934895
67.437008
-0.23898503
65.558115
-0.25910519
63.053033
-0.27878611
59.776823
-0.296666
55.611166
-0.31091674
50.505924
-0.3193382
44.52647
-0.31964907
37.888615
-0.31000444
30.95615
-0.28965037
24.184227
-0.25946367
18.018532
-0.22204967
12.790291
-0.18122182
8.6538832
-0.1410303
5.5887391
-0.10478341
3.4507497
-0.074473441
2.0397156
-0.050733578
1.1545821
-0.033170292
0.62517376
-0.02081752
0.32288219
-0.012524516
0.15827603
-0.0072036028
0.07311676
-0.0039471094
0.031533094
-0.0020561207
0.012549111
-0.0010233787
0.0045456122
-0.00049924078
0.001475533
-0.00025567908
0.00042193388
-0.00015380247
0.00010439417
-0.00011615524
2.1913733e-05
-0.00010410323
3.8440719e-06
-0.00010082625
5.3190357e-07
-0.00010008511
6.9857695e-08
-9.9947325e-05
1.1088896e-11
-9.9926948e-05
2.139152e-08
-9.9923074e-05
-6.2746405e-08
-9.9927138e-05
-2.3528202e-07
-9.9939262e-05
-4.5471892e-07
-9.9955471e-05
-1.9946204e-07
-9.9944361e-05
-9.991176e-05
73.297656
-0.07860969
72.940223
-0.084533342
72.582106
-0.091160387
72.222522
-0.098579312
71.858545
-0.10688739
71.484014
-0.11618928
71.088071
-0.12659372
70.653223
-0.13820739
70.152846
-0.15112414
69.548171
-0.16540752
68.784727
-0.18106368
67.788781
-0.19800121
66.464473
-0.21597506
64.693352
-0.23451359
62.338874
-0.25283393
59.2594
-0.26976254
55.33321
-0.28369699
50.496596
-0.29266714
44.789518
-0.29456455
38.393253
-0.28757979
31.636489
-0.27079012
24.950751
-0.24469433
18.77891
-0.21139679
13.47073
-0.17423772
9.2117211
-0.13695904
6.0127777
-0.10277852
3.7526618
-0.073775787
2.24276
-0.050762437
1.2843995
-0.03353503
0.70439893
-0.021283832
0.36909059
-0.012967804
0.18398403
-0.0075683111
0.086687088
-0.0042179067
0.038270254
-0.0022395538
0.015657349
-0.001136468
0.005858602
-0.00056211787
0.0019747743
-0.0002867948
0.00058964148
-0.00016729619
0.00015319907
-0.00012119702
3.3976894e-05
-0.00010569819
6.3241704e-06
-0.00010124621
9.5104896e-07
-0.00010017552
1.2620418e-07
-9.9962386e-05
9.7510465e-09
-9.9927865e-05
1.2104241e-08
-9.9922153e-05
-8.7930691e-08
-9.9926788e-05
-2.6589046e-07
-9.9938363e-05
-4.3564825e-07
-9.9950607e-05
-1.4859093e-07
-9.9936859e-05
-9.9910703e-05
72.398253
-0.071135347
72.025563
-0.076549999
71.651308
-0.082605384
71.274999
-0.089382088
70.894195
-0.096968882
70.503491
-0.1054616
70.093162
-0.11496042
69.64735
-0.12556469
69.141739
-0.13736375
68.540711
-0.15042202
67.793966
-0.1647556
66.833047
-0.18029746
65.568388
-0.19684831
63.888372
-0.21401184
61.662711
-0.2311179
58.753459
-0.24714691
55.037144
-0.26068535
50.439668
-0.26996252
44.98002
-0.27303177
38.80952
-0.26814068
32.224629
-0.25425709
25.632938
-0.23158743
19.470961
-0.20182014
14.101856
-0.16787816
9.7377577
-0.13320844
6.4185279
-0.10091655
4.0453344
-0.073131427
2.4419213
-0.050806279
1.4131493
-0.033901252
0.78384408
-0.021747988
0.41598139
-0.013408667
0.21043339
-0.0079316124
0.10088437
-0.004488919
0.045466307
-0.0024248379
0.019063356
-0.0012524528
0.0073428105
-0.00062804759
0.0025603713
-0.00032039242
0.00079500005
-0.00018240573
0.00021596191
-0.00012708849
5.0365441e-05
-0.00010765195
9.9070747e-06
-0.00010178526
1.5994095e-06
-0.00010029486
2.2166514e-07
-9.9980956e-05
2.4108934e-08
-9.9927473e-05
1.514341e-09
-9.9920005e-05
-1.1197623e-07
-9.9925452e-05
-2.8901098e-07
-9.9936642e-05
-4.1204867e-07
-9.9945722e-05
-1.0777592e-07
-9.9930787e-05
-9.9910236e-05
71.576133
-0.064874571
71.189803
-0.069845299
70.801085
-0.075402275
70.409738
-0.081619212
70.013733
-0.088577496
69.608314
-0.096365306
69.184724
-0.10507537
68.728515
-0.11480056
68.217357
-0.12562606
67.618359
-0.13761644
66.884845
-0.15079532
65.952979
-0.16511489
64.738766
-0.18041252
63.136747
-0.1963529
61.02248
-0.21235822
58.261898
-0.2275367
54.730945
-0.24063455
50.34758
-0.25005458
45.11342
-0.25399921
39.153736
-0.25078454
32.735552
-0.23931018
26.242799
-0.21955442
20.103097
-0.19285759
14.688812
-0.16177362
10.234728
-0.12947076
6.8072438
-0.098930275
4.3292549
-0.072303892
2.6373557
-0.050658666
1.54087
-0.034096202
0.86351174
-0.022074169
0.46354576
-0.013747974
0.23761132
-0.0082267351
0.11569686
-0.0047187539
0.053114439
-0.0025884012
0.022766198
-0.0013590568
0.0090013146
-0.00069125075
0.0032365682
-0.00035407421
0.0010414225
-0.00019829819
0.0002946706
-0.00013361536
7.1961799e-05
-0.00010994298
1.4894476e-05
-0.00010245978
2.5543076e-06
-0.00010045783
3.6956028e-07
-0.00010001198
4.2879978e-08
-9.9931132e-05
-1.0932799e-08
-9.9919813e-05
-1.3521963e-07
-9.9925065e-05
-3.061574e-07
-9.9935294e-05
-3.8641203e-07
-9.9941478e-05
-7.5707654e-08
-9.9926104e-05
-9.9910448e-05
70.821415
-0.05957657
70.422834
-0.064168917
70.021092
-0.069301183
69.616157
-0.075041185
69.206351
-0.081463916
68.787471
-0.088650839
68.351595
-0.096687999
67.885495
-0.10566224
67.368569
-0.11565445
66.77031
-0.12672828
66.047221
-0.13891234
65.139549
-0.15217333
63.968266
-0.16637755
62.433487
-0.18123897
60.41622
-0.19625562
57.786334
-0.21064236
54.420031
-0.22328104
50.229229
-0.23272577
45.201096
-0.23731548
39.438219
-0.23544095
33.180802
-0.22596419
26.789753
-0.20868699
20.682005
-0.18465926
15.235697
-0.15611027
10.704745
-0.12594771
7.1797487
-0.0970211
4.6045284
-0.071482676
2.8288299
-0.050488437
1.6672116
-0.034261625
0.943054
-0.022373412
0.51149384
-0.014066034
0.26530466
-0.0085067447
0.13098494
-0.0049390847
0.061134148
-0.0027470874
0.026726416
-0.0014641181
0.010818962
-0.00075484507
0.0039999409
-0.00038887525
0.001329566
-0.00021526152
0.00039053238
-0.00014085445
9.950883e-05
-0.0001125973
2.1593724e-05
-0.00010327929
3.9105602e-06
-0.00010066561
5.9312858e-07
-0.00010005323
7.1335164e-08
-9.9936184e-05
-2.2935493e-08
-9.9919486e-05
-1.5646774e-07
-9.9924332e-05
-3.1783562e-07
-9.9933683e-05
-3.6002069e-07
-9.9937582e-05
-5.1277745e-08
-9.9922427e-05
-9.9910768e-05
70.124147
-0.055031481
69.714483
-0.059290872
69.300937
-0.064049526
68.883655
-0.069370094
68.461264
-0.075321956
68.030043
-0.08198068
67.582797
-0.089426418
67.107366
-0.097740648
66.584664
-0.10700029
65.986277
-0.11726779
65.271518
-0.12857543
64.38426
-0.14090143
63.249919
-0.1541356
61.773668
-0.16803252
59.841585
-0.1821534
57.327441
-0.19580296
54.108301
-0.20797922
50.091523
-0.21736864
45.252222
-0.2224344
39.673177
-0.22164391
33.570191
-0.21384313
27.282024
-0.19869683
21.213702
-0.1770113
15.746347
-0.15072942
11.149924
-0.12251652
7.5370331
-0.095087513
4.871523
-0.070579109
3.0164236
-0.050216883
1.7921468
-0.034329363
1.0224165
-0.022589816
0.55977236
-0.014320139
0.29346912
-0.0087414766
0.1467154
-0.0051302478
0.069503683
-0.0028890503
0.03093254
-0.0015610362
0.012791828
-0.00081544812
0.0048507265
-0.00042323086
0.0016610281
-0.00023266896
0.00050496032
-0.00014860645
0.00013381015
-0.00011557622
3.0339992e-05
-0.0001042482
5.7734161e-06
-0.00010092676
9.1678768e-07
-0.00010010996
1.1330957e-07
-9.994539e-05
-3.4009517e-08
-9.992049e-05
-1.7589182e-07
-9.9924112e-05
-3.251985e-07
-9.9932328e-05
-3.3400613e-07
-9.993425e-05
-3.3083506e-08
-9.9919629e-05
-9.9911191e-05
69.477433
-0.051098456
69.057697
-0.055067828
68.633405
-0.059501136
68.204855
-0.064456512
67.770937
-0.069998413
67.32835
-0.076197173
66.870541
-0.083127652
66.386285
-0.090866392
65.857837
-0.099486449
65.258642
-0.10904865
64.550508
-0.11958762
63.680552
-0.13109051
62.578193
-0.14346611
61.153208
-0.15650252
59.296393
-0.1698138
56.885339
-0.18278091
53.798397
-0.19450177
49.939533
-0.20377906
45.273782
-0.20918884
39.866582
-0.20927483
33.911554
-0.20288267
27.726309
-0.18957178
21.703176
-0.16994434
16.223989
-0.14569116
11.572055
-0.11925348
7.8799074
-0.093211474
5.1304799
-0.069673461
3.2000949
-0.049917626
1.9155197
-0.034362977
1.1014188
-0.022774736
0.60821912
-0.014548739
0.32197754
-0.0089573066
0.16279894
-0.0053086056
0.078167071
-0.0030233184
0.03535402
-0.0016541354
0.014906189
-0.00087478736
0.0057845656
-0.00045767682
0.0020355025
-0.00025063137
0.00063871693
-0.00015688181
0.00017551068
-0.00011888265
4.1454685e-05
-0.00010537149
8.2581092e-06
-0.00010124424
1.3718665e-06
-0.00010018256
1.7590271e-07
-9.9958006e-05
-4.2286977e-08
-9.9921976e-05
-1.929575e-07
-9.9923832e-05
-3.2882942e-07
-9.9930928e-05
-3.0890687e-07
-9.9931286e-05
-1.9916933e-08
-9.991745e-05
-9.9911517e-05
68.874753
-0.047659943
68.445815
-0.051371716
68.01169
-0.05551613
67.57281
-0.060147317
67.128295
-0.065325366
66.675216
-0.071115971
66.207585
-0.077589273
65.71501
-0.084817371
65.180939
-0.092869763
64.580469
-0.10180556
63.877646
-0.111661
63.022497
-0.12243038
61.948061
-0.13403813
60.568322
-0.14630035
58.77846
-0.15887584
56.459771
-0.17121073
53.492194
-0.1824894
49.777222
-0.19161692
45.271437
-0.19727176
40.025062
-0.19807194
34.211552
-0.1928738
28.128428
-0.18115603
22.154868
-0.16334917
16.671577
-0.14092167
11.97284
-0.11610805
8.2092058
-0.09135568
5.3817251
-0.068735196
3.379918
-0.049563799
2.0373024
-0.03433857
1.1800039
-0.022907732
0.65677679
-0.014735478
0.35078177
-0.0091421184
0.17919887
-0.005465854
0.087099027
-0.0031445935
0.039975704
-0.0017402454
0.017154743
-0.00093108153
0.0067991816
-0.00049128683
0.00245313
-0.00026871946
0.00079259533
-0.00016551537
0.00022524775
-0.00012247129
5.5265891e-05
-0.00010664541
1.1487712e-05
-0.00010162253
1.9928216e-06
-0.00010027442
2.6647297e-07
-9.9975673e-05
-4.6526813e-08
-9.9924685e-05
-2.0769823e-07
-9.9923872e-05
-3.2950613e-07
-9.9929694e-05
-2.8515638e-07
-9.9928733e-05
-1.0658745e-08
-9.9915777e-05
-9.991176e-05
68.311186
-0.044632048
67.873806
-0.048115731
67.430649
-0.052004407
66.982262
-0.056348666
66.527968
-0.061204715
66.065167
-0.066634096
65.588374
-0.072702689
65.087942
-0.079478525
64.548382
-0.087027727
63.94628
-0.09540755
63.247691
-0.10465518
62.405272
-0.11477052
61.35535
-0.12569085
60.015765
-0.13725583
58.28578
-0.14916227
56.050259
-0.1609123
53.190934
-0.17176559
49.607559
-0.18071771
45.249613
-0.18654004
40.15394
-0.18792207
34.475644
-0.18373869
28.493248
-0.17340752
22.572558
-0.15721482
17.09167
-0.13643299
12.353778
-0.11310644
8.525668
-0.089553096
5.6255376
-0.067798829
3.5559327
-0.049188181
2.157431
-0.034285165
1.2580755
-0.023012862
0.70535118
-0.0148989
0.3798036
-0.0093090623
0.19585697
-0.005610449
0.096260384
-0.0032577121
0.0447742
-0.0018217517
0.019525584
-0.00098528721
0.007889862
-0.00052432943
0.0029128746
-0.00028695365
0.00096690321
-0.00017448078
0.00028350575
-0.00012632797
7.2074192e-05
-0.00010806861
1.5588622e-05
-0.00010206374
2.8189395e-06
-0.00010038678
3.9464628e-07
-9.9998539e-05
-4.4670961e-08
-9.9928377e-05
-2.1979135e-07
-9.992401e-05
-3.2769172e-07
-9.9928495e-05
-2.6291633e-07
-9.9926475e-05
-4.3902743e-09
-9.9914457e-05
-9.991186e-05
67.782249
-0.041944836
67.337094
-0.04522407
66.885607
-0.048883575
66.428438
-0.052970776
65.965091
-0.057538405
65.493258
-0.062644284
65.007907
-0.068350461
64.500059
-0.074721275
63.955183
-0.081819729
63.351203
-0.089701235
62.655994
-0.098403504
61.824598
-0.10793092
60.796342
-0.11823154
59.492606
-0.12916495
57.816459
-0.14046055
55.656192
-0.15166896
52.895464
-0.16211565
49.43287
-0.17087653
45.211919
-0.17680732
40.257658
-0.17866552
34.708485
-0.17534994
28.824998
-0.16623263
22.959599
-0.15147826
17.486587
-0.13218608
12.716263
-0.11022576
8.8300117
-0.087790137
5.8622188
-0.066855228
3.7282224
-0.048783418
2.2758936
-0.03419615
1.3355903
-0.023084155
0.753895
-0.015033928
0.40900186
-0.0094541499
0.21274094
-0.0057394915
0.10562797
-0.0033606935
0.049734595
-0.0018973575
0.02201051
-0.0010365842
0.0090531103
-0.00055631149
0.0034139091
-0.00030506442
0.001161899
-0.0001836529
0.0003507218
-0.00013040837
9.2168596e-05
-0.00010963227
2.0689889e-05
-0.00010256935
3.8925253e-06
-0.00010052185
5.710168e-07
-0.00010002775
-3.4692473e-08
-9.9933506e-05
-2.2910756e-07
-9.9924433e-05
-3.2387855e-07
-9.9927417e-05
-2.4228687e-07
-9.9924506e-05
-3.3722122e-10
-9.9913415e-05
-9.9911847e-05
67.284355
-0.039545689
66.832012
-0.042641578
66.372816
-0.046095618
65.907507
-0.049952398
65.435751
-0.054261528
64.955504
-0.059077478
64.462138
-0.064458817
63.947277
-0.070466499
63.397259
-0.077160602
62.79122
-0.084594686
62.098688
-0.092806619
61.276877
-0.10180437
60.267861
-0.11154495
58.996287
-0.12190496
57.368773
-0.13264188
55.276887
-0.14334848
52.606305
-0.15340812
49.254927
-0.16196823
45.161239
-0.16796115
40.339862
-0.17020876
34.913968
-0.1676374
29.12728
-0.15958596
23.318897
-0.14611665
17.858374
-0.12817568
13.061546
-0.10747243
9.1228925
-0.08607951
6.0920474
-0.065919526
3.8968618
-0.048364655
2.3926714
-0.034085305
1.4124961
-0.023133287
0.80235144
-0.015149783
0.43832678
-0.0095841182
0.22981195
-0.0058574675
0.11517414
-0.0034562036
0.054839145
-0.0019684274
0.024599559
-0.0010855311
0.010284334
-0.00058737828
0.0039547626
-0.00032303988
0.0013775139
-0.00019299298
0.00042720245
-0.00013468971
0.00011580359
-0.00011132996
2.6918315e-05
-0.00010313975
5.2588664e-06
-0.00010068085
8.0791856e-07
-0.00010006381
-1.3959282e-08
-9.9940126e-05
-2.3530641e-07
-9.9925083e-05
-3.1838162e-07
-9.992641e-05
-2.2324865e-07
-9.9922761e-05
2.1105489e-09
-9.9912569e-05
-9.9911719e-05
66.814298
-0.03739066
66.355288
-0.040320806
65.888935
-0.043589149
65.416058
-0.047237724
64.936469
-0.051313325
64.448362
-0.055867389
63.947477
-0.060955332
63.425983
-0.066635014
62.871007
-0.072963804
62.26279
-0.079993458
61.572364
-0.08776177
60.758935
-0.096279581
59.767096
-0.10551149
58.524516
-0.11534866
56.941129
-0.12557293
54.911636
-0.13581397
52.323773
-0.14550622
49.07512
-0.15386102
45.099937
-0.15988044
40.403614
-0.16244704
35.095429
-0.16051693
29.403234
-0.15340564
23.65303
-0.14108901
18.208878
-0.12437774
13.390782
-0.10483415
9.4049321
-0.084415869
6.3153017
-0.064989751
4.0619415
-0.047931133
2.507768
-0.033952071
1.4887646
-0.023159594
0.85068534
-0.015245731
0.46774638
-0.0096982701
0.24704417
-0.0059637898
0.12487974
-0.0035437729
0.06007489
-0.0020345867
0.027284995
-0.0011318284
0.011579711
-0.00061730164
0.0045340843
-0.0003407249
0.0016136142
-0.00020241276
0.00051319396
-0.00013913306
0.00014321091
-0.00011315034
3.4398207e-05
-0.00010377422
6.9651746e-06
-0.00010086512
1.1188217e-06
-0.0001001076
2.0416609e-08
-9.9948585e-05
-2.3806333e-07
-9.9926076e-05
-3.1149036e-07
-9.9925513e-05
-2.0575346e-07
-9.9921221e-05
3.4358959e-09
-9.9911872e-05
-9.9911509e-05
66.369407
-0.035445251
65.904194
-0.038225251
65.431175
-0.041325414
64.951242
-0.044785459
64.464338
-0.048649634
63.96887
-0.052966618
63.460914
-0.05778895
62.933138
-0.063171647
62.373385
-0.069169547
61.762906
-0.075832647
61.074115
-0.08319847
60.268041
-0.091280158
59.291604
-0.10004871
58.07527
-0.10940787
56.532081
-0.11916069
54.559724
-0.12896927
52.048017
-0.13831336
48.894518
-0.1464616
45.029936
-0.15247961
40.451467
-0.15530698
35.255702
-0.15393087
29.655572
-0.14765137
23.964261
-0.13637144
18.53975
-0.12078176
13.705019
-0.10230975
9.6767049
-0.082803491
6.532245
-0.064072665
4.2235496
-0.047490223
2.6211879
-0.033803391
1.5643677
-0.023169075
0.89886113
-0.015326601
0.49722779
-0.0098002235
0.26441097
-0.0060609479
0.13472502
-0.0036249422
0.06542842
-0.0020966616
0.0300587
-0.0011758309
0.012935062
-0.00064617522
0.0051502252
-0.00035810427
0.0018698667
-0.00021187529
0.00060884112
-0.00014371378
0.0001745867
-0.00011508406
4.3247596e-05
-0.00010447147
9.0599431e-06
-0.00010107544
1.5185389e-06
-0.0001001597
7.1850418e-08
-9.9959069e-05
-2.3689282e-07
-9.9927435e-05
-3.033862e-07
-9.992471e-05
-1.8970579e-07
-9.9919849e-05
4.0026743e-09
-9.9911282e-05
-9.991123e-05
65.947313
-0.033680508
65.476312