/*--------------------------------*- C++ -*----------------------------------*\
| =========                 |                                                 |
| \\      /  F ield         | OpenFOAM: The Open Source CFD Toolbox           |
|  \\    /   O peration     | Version:  4.0                                   |
|   \\  /    A nd           | Web:      www.OpenFOAM.org                      |
|    \\/     M anipulation  |                                                 |
\*---------------------------------------------------------------------------*/
FoamFile
{
    version     2.0;
    format      ascii;
    class       volScalarField;
    location    "4000/fluid";
    object      T;
}
// * * * * * * * * * * * * * * * * * * * * * * * * * * * * * * * * * * * * * //

dimensions      [0 0 0 1 0 0 0];

internalField   nonuniform List<scalar> 
5000
(
425.80187
417.61608
408.88588
399.67835
390.08906
380.24286
370.29225
360.41268
350.79453
341.63169
333.10748
325.3794
318.56475
312.72992
307.88558
303.98925
300.95479
298.66689
296.99694
295.81731
295.01164
294.48065
294.14407
293.93986
293.82204
293.75792
293.72533
293.71005
293.70353
293.70104
293.70022
293.69999
293.69993
293.69993
293.69992
293.69992
293.69992
293.69992
293.69992
293.69992
293.69992
293.69992
293.69992
293.69992
293.69992
293.69992
293.69992
293.69992
293.69992
293.69992
434.32886
429.10328
423.46157
417.36675
410.78323
403.68149
396.04512
387.87986
379.2244
370.16112
360.82455
351.40392
342.13626
333.28765
325.12305
317.86978
311.68356
306.62732
302.66974
299.70274
297.57069
296.10117
295.12957
294.51392
294.14097
293.92585
293.80841
293.74823
293.71957
293.70705
293.70213
293.70042
293.69991
293.6998
293.69978
293.69978
293.69978
293.69978
293.69978
293.69978
293.69978
293.69978
293.69978
293.69978
293.69978
293.69978
293.69978
293.69978
293.69978
293.69978
439.78431
434.78681
429.41506
423.65109
417.47783
410.88007
403.84612
396.37068
388.45956
380.13663
371.45294
362.49703
353.40405
344.3595
335.59295
327.35802
319.89929
313.41311
308.01411
303.71947
300.45589
298.08513
296.43718
295.3402
294.64096
294.21473
293.967
293.83037
293.75933
293.72483
293.70934
293.70299
293.70066
293.6999
293.69969
293.69964
293.69963
293.69963
293.69963
293.69963
293.69963
293.69963
293.69963
293.69963
293.69963
293.69963
293.69963
293.69963
293.69963
293.69963
443.8341
438.95266
433.70716
428.08108
422.05975
415.63141
408.78863
401.53026
393.86416
385.81097
377.40914
368.72135
359.84187
350.90333
342.07977
333.58196
325.64082
318.47869
312.27344
307.12689
303.04912
299.96457
297.73628
296.19777
295.18189
294.54052
294.1539
293.93204
293.81143
293.74973
293.72029
293.70733
293.70214
293.70028
293.69969
293.69953
293.69949
293.69949
293.69949
293.69948
293.69948
293.69948
293.69949
293.69949
293.69949
293.69949
293.69949
293.69949
293.69949
293.69949
446.95046
442.17748
437.04939
431.54988
425.66429
419.38055
412.69053
405.59185
398.09032
390.20314
381.96299
373.42294
364.66209
355.79109
346.95602
338.33797
330.14489
322.59298
315.87827
310.14443
305.45727
301.79604
299.06469
297.11783
295.79097
294.92594
294.38669
294.06582
293.88419
293.7869
293.73794
293.715
293.70512
293.70125
293.69989
293.69948
293.69937
293.69934
293.69934
293.69934
293.69934
293.69934
293.69934
293.69934
293.69934
293.69934
293.69934
293.69934
293.69934
293.69934
449.39497
444.71403
439.68551
434.29328
428.52262
422.36109
415.79967
408.83441
401.46862
393.71571
385.6029
377.1757
368.50299
359.68213
350.84295
342.14867
333.7911
325.9775
318.90806
312.74697
307.59468
303.47111
300.31678
298.01097
296.39947
295.32208
294.633
294.21181
293.96636
293.83055
293.75963
293.72497
293.70926
293.70275
293.70031
293.6995
293.69927
293.69921
293.69919
293.69919
293.69919
293.69919
293.69919
293.69919
293.69919
293.69919
293.69919
293.69919
293.69919
293.69919
451.35971
446.76077
441.82093
436.52424
430.85598
424.80342
418.35686
411.51108
404.26725
396.63557
388.63861
380.31545
371.72649
362.95847
354.12873
345.38713
336.91328
328.90661
321.56788
315.07322
309.54638
305.03787
301.51885
298.89248
297.01774
295.73708
294.89956
294.3754
294.06197
293.8835
293.7872
293.73831
293.71518
293.70508
293.70107
293.69965
293.6992
293.69908
293.69905
293.69905
293.69905
293.69905
293.69905
293.69905
293.69905
293.69905
293.69905
293.69905
293.69905
293.69905
452.97051
448.44286
443.5801
438.36647
432.7873
426.8297
420.48346
413.74243
406.60618
399.08242
391.19005
382.96296
374.45467
365.74313
356.93529
348.16971
339.61544
331.46445
323.91616
317.15409
311.31879
306.48464
302.64873
299.73633
297.62069
296.14952
295.1697
294.5447
294.16328
293.94113
293.81816
293.75388
293.7224
293.7081
293.70216
293.69993
293.69918
293.69897
293.69891
293.6989
293.6989
293.6989
293.6989
293.6989
293.6989
293.6989
293.6989
293.6989
293.6989
293.6989
454.31981
449.85607
445.06241
439.92326
434.42401
428.55167
422.29568
415.64914
408.61036
401.18504
393.38908
385.25217
376.82209
368.16947
359.39239
350.61963
342.01066
333.75018
326.035
319.05308
312.95752
307.84196
303.72578
300.55458
298.21602
296.56463
295.44723
294.72256
294.27234
294.00489
293.8535
293.77229
293.7313
293.71203
293.70368
293.70039
293.69923
293.69888
293.69878
293.69876
293.69875
293.69875
293.69875
293.69875
293.69875
293.69875
293.69875
293.69875
293.69875
293.69876
455.46995
451.06305
446.33086
441.25796
435.82984
430.03346
423.85803
417.29608
410.34494
403.00869
395.30085
387.24764
378.89209
370.29867
361.55788
352.78992
344.14559
335.80241
327.95367
320.78959
314.47256
309.11194
304.74637
301.34016
298.79526
296.97404
295.72482
294.90312
294.3849
294.07196
293.89151
293.79262
293.74146
293.71669
293.70558
293.70104
293.69936
293.69881
293.69865
293.69862
293.69861
293.69861
293.69861
293.69861
293.69861
293.69861
293.69861
293.69861
293.69861
293.69861
456.46716
452.11175
447.43523
442.42233
437.05867
431.33118
425.22889
418.7439
411.87271
404.61813
396.99165
389.01659
380.732
372.19707
363.49577
354.74071
346.07485
337.66882
329.71181
322.39477
315.88693
310.31052
305.72094
302.09967
299.36257
297.38047
296.00434
295.08774
294.50193
294.14301
293.93265
293.81519
293.75308
293.72221
293.70795
293.7019
293.69957
293.69878
293.69854
293.69848
293.69846
293.69846
293.69846
293.69846
293.69846
293.69846
293.69846
293.69846
293.69846
293.69846
457.34365
453.0348
448.4086
443.44996
438.1446
432.47947
426.44347
420.02836
413.23001
406.05014
398.49857
390.5962
382.37867
373.90067
365.24044
356.50393
347.82691
339.37346
331.32839
323.88219
317.20903
311.44165
306.65006
302.83141
299.91503
297.78056
296.28255
295.27361
294.62124
294.21647
293.9759
293.83939
293.76583
293.72846
293.71074
293.70298
293.69989
293.69878
293.69844
293.69834
293.69832
293.69832
293.69831
293.69831
293.69831
293.69831
293.69831
293.69831
293.69832
293.69832
458.12381
453.85754
449.27737
444.36837
439.11635
433.50831
427.53304
421.18205
414.45066
407.33969
399.85755
392.02308
383.86897
375.44598
366.82737
358.1131
349.43247
340.94334
332.82601
325.26972
318.45208
312.51446
307.53957
303.5389
300.45465
298.17548
296.56015
295.46122
294.74315
294.29257
294.02139
293.86531
293.7798
293.73549
293.71398
293.7043
293.70031
293.69883
293.69835
293.69821
293.69818
293.69817
293.69817
293.69817
293.69817
293.69817
293.69817
293.69817
293.69817
293.69817
458.82531
454.59805
450.06004
445.19649
439.99334
434.43761
428.51805
422.22595
415.55619
408.50883
401.09109
393.32
385.22574
376.85562
368.27848
359.58896
350.9104
342.39487
334.2181
326.56751
319.62301
313.53297
308.39119
304.22223
300.98054
298.56386
296.83567
295.64917
294.86652
294.37042
294.06854
293.89258
293.79476
293.74319
293.71763
293.70584
293.70085
293.69893
293.69828
293.69809
293.69803
293.69802
293.69802
293.69802
293.69802
293.69802
293.69802
293.69802
293.69802
293.69802
459.4619
455.27064
450.77154
445.94995
440.79191
435.2845
429.41642
423.17879
416.56613
409.57784
402.22011
394.5084
386.47068
378.15124
369.61499
360.95176
352.27947
343.74475
335.51882
327.7869
320.73027
314.50303
309.20863
304.88352
301.49378
298.94617
297.10928
295.83753
294.99134
294.45003
294.11732
293.92119
293.81071
293.75157
293.72171
293.70763
293.70151
293.69909
293.69823
293.69797
293.6979
293.69788
293.69788
293.69788
293.69788
293.69788
293.69788
293.69788
293.69788
293.69788
460.04393
455.88599
451.4229
446.64014
441.52385
436.06117
430.24079
424.05366
417.49401
410.56069
403.25898
395.60299
387.61872
379.34776
370.85154
362.21554
353.55271
345.00457
336.73796
328.93561
321.77945
315.42822
309.9938
305.52347
301.99429
299.32191
297.38029
296.02558
295.11699
294.53089
294.16736
293.95089
293.82751
293.76055
293.72618
293.70966
293.7023
293.69931
293.69821
293.69786
293.69776
293.69773
293.69773
293.69773
293.69773
293.69773
293.69773
293.69773
293.69773
293.69773
460.57967
456.45274
452.02316
447.27653
442.1991
436.77806
431.00209
424.86203
418.35186
411.46991
404.2207
396.61712
388.68345
380.45888
372.00167
363.39336
354.74235
346.18538
337.88502
330.02135
322.77641
316.31265
310.74932
306.14355
302.48277
299.6913
297.6487
296.21323
295.24335
294.61289
294.21859
293.98162
293.84513
293.77012
293.73104
293.71191
293.70321
293.69958
293.69822
293.69776
293.69762
293.69759
293.69758
293.69758
293.69758
293.69758
293.69758
293.69758
293.69758
293.69758
461.07558
456.9776
452.57929
447.86639
442.82522
437.44305
431.70856
425.6125
419.1486
412.3148
405.1149
397.56074
389.67503
381.49482
373.07551
364.49505
355.85765
347.29555
338.96724
331.05001
323.72557
317.15934
311.47699
306.74464
302.95944
300.0542
297.91419
296.40011
295.37008
294.69573
294.27077
294.01322
293.86344
293.7802
293.73625
293.71439
293.70425
293.69992
293.69825
293.69767
293.69749
293.69745
293.69744
293.69744
293.69744
293.69744
293.69744
293.69744
293.69744
293.69744
461.53695
457.4661
453.0971
448.41581
443.40863
438.0629
432.3673
426.31252
419.89208
413.10354
405.9501
398.44264
390.60248
382.46472
374.08216
365.52948
356.907
348.34277
339.99133
332.02714
324.63123
317.97136
312.17881
307.32786
303.42486
300.4108
298.17673
296.5861
295.49704
294.77931
294.32382
294.04562
293.88242
293.79078
293.7418
293.71708
293.70542
293.70033
293.69831
293.69759
293.69737
293.69731
293.69729
293.69729
293.69729
293.69729
293.69729
293.69729
293.69729
293.69729
461.96806
457.92271
453.58125
448.92966
443.95443
438.64296
432.98393
426.96797
420.58844
413.84258
406.73302
399.26979
391.47294
383.37582
375.02886
366.50373
357.89716
349.33324
340.96273
332.95726
325.4969
318.75121
312.85635
307.8941
303.87935
300.7611
298.43618
296.77101
295.62403
294.86343
294.37757
294.07871
293.90197
293.8018
293.74767
293.71999
293.7067
293.7008
293.6984
293.69753
293.69725
293.69717
293.69715
293.69714
293.69714
293.69714
293.69714
293.69715
293.69715
293.69715
462.37246
458.35115
454.03567
449.41208
444.46698
439.1878
433.56327
427.58395
421.24306
414.53753
407.46952
400.04826
392.29269
384.23452
375.92202
367.4241
358.83412
350.2725
341.88638
333.84452
326.32584
319.50127
313.51122
308.44427
304.3234
301.10528
298.69254
296.95473
295.75092
294.94798
294.43194
294.11242
293.92206
293.81324
293.75384
293.72309
293.70811
293.70134
293.69853
293.69748
293.69713
293.69703
293.697
293.697
293.697
293.697
293.697
293.697
293.697
293.697
462.75311
458.75453
454.4636
449.86648
444.94985
439.70121
434.1093
428.16464
421.86032
415.19301
408.16442
400.78308
393.06688
385.04608
376.76693
368.2958
359.72293
351.16525
342.76644
334.69244
327.12087
320.22359
314.14478
308.97918
304.75738
301.44344
298.94575
297.13717
295.87759
295.03284
294.48683
294.14667
293.94262
293.82506
293.76029
293.72637
293.70964
293.70195
293.69869
293.69744
293.69702
293.69689
293.69686
293.69685
293.69685
293.69685
293.69685
293.69685
293.69685
293.69685
463.11252
459.13548
454.86782
450.29579
445.40615
440.18645
434.62546
428.71367
422.44405
415.81304
408.82193
401.47863
393.80007
385.81514
377.56828
369.12345
360.56803
352.01564
343.60664
335.50423
327.88453
320.92009
314.75832
309.49962
305.1817
301.77574
299.19583
297.31826
296.00396
295.11794
294.54217
294.18141
293.96362
293.83723
293.767
293.72984
293.71128
293.70262
293.69889
293.69743
293.69691
293.69676
293.69672
293.69671
293.69671
293.69671
293.69671
293.69671
293.69671
293.69671
463.45281
459.49624
455.25068
450.70248
445.83848
440.64627
435.11466
429.2341
422.99748
416.40101
409.44562
402.13862
394.49608
386.54564
378.33003
369.91102
361.37324
352.82726
344.41024
336.28265
328.61908
321.59247
315.35302
310.0063
305.59673
302.10232
299.44279
297.49794
296.12993
295.20318
294.59789
294.21657
293.98501
293.84972
293.77395
293.73348
293.71303
293.70336
293.69912
293.69742
293.69682
293.69663
293.69657
293.69656
293.69656
293.69656
293.69656
293.69656
293.69656
293.69656
463.77582
459.83873
455.61422
451.0887
446.2491
441.08307
435.57942
429.72862
423.52343
416.9599
410.0386
402.76632
395.1583
387.24104
379.0557
370.66198
362.14197
353.6033
345.18011
337.03022
329.32657
322.24226
315.92995
310.49992
306.00285
302.42334
299.68666
297.67618
296.25547
295.28851
294.65392
294.25212
294.00677
293.86252
293.78113
293.73728
293.71489
293.70416
293.69938
293.69744
293.69673
293.6965
293.69643
293.69642
293.69641
293.69641
293.69641
293.69641
293.69641
293.69641
464.08312
460.16462
455.96017
451.4563
446.63996
441.4989
436.02194
430.19952
424.02435
417.49227
410.60357
403.36453
395.78965
387.90436
379.74834
371.37937
362.87716
354.34657
345.91884
337.74916
330.00883
322.87089
316.49011
310.98108
306.40039
302.73895
299.92747
297.85294
296.3805
295.37387
294.71022
294.28801
294.02885
293.87558
293.78852
293.74123
293.71685
293.70502
293.69968
293.69747
293.69664
293.69637
293.69629
293.69627
293.69627
293.69627
293.69627
293.69627
293.69627
293.69627
464.3761
460.47535
456.29009
451.80689
447.01279
441.89558
436.44413
430.64884
424.50236
418.00039
411.14291
403.93575
396.39272
388.53824
380.41065
372.06591
363.58147
355.05958
346.6287
338.44148
330.66752
323.47963
317.03441
311.4504
306.78971
303.04932
300.16526
298.02822
296.50498
295.4592
294.76675
294.3242
294.05123
293.88891
293.79611
293.74533
293.71891
293.70594
293.70001
293.69752
293.69657
293.69625
293.69615
293.69613
293.69612
293.69612
293.69612
293.69612
293.69612
293.69612
464.65595
460.77221
456.6053
452.14189
447.36908
442.2747
436.84766
431.07836
424.95936
418.48624
411.6587
404.48215
396.96977
389.14504
381.04502
372.72397
364.25723
355.74456
347.31175
339.10899
331.30414
324.06966
317.5637
311.90841
307.1711
303.35458
300.40008
298.202
296.62889
295.54447
294.82346
294.36067
294.07389
293.90247
293.80389
293.74957
293.72106
293.70693
293.70038
293.69759
293.6965
293.69613
293.69601
293.69598
293.69598
293.69597
293.69597
293.69598
293.69598
293.69598
464.92375
461.05631
456.907
452.46255
447.71014
442.63766
437.23402
431.48963
425.39701
418.95157
412.15279
405.00569
397.52282
389.72684
381.65356
373.35568
364.90653
356.4035
347.96983
339.75331
331.92006
324.64205
318.07876
312.35564
307.54489
303.65489
300.63199
298.37427
296.7522
295.62964
294.88032
294.39738
294.09679
293.91626
293.81185
293.75393
293.7233
293.70797
293.70078
293.69767
293.69644
293.69601
293.69587
293.69584
293.69583
293.69583
293.69583
293.69583
293.69583
293.69583
465.18043
461.32863
457.19622
452.76998
448.03717
442.9857
437.60453
431.88407
425.81677
419.39794
412.62682
405.50807
398.05368
390.28548
382.23818
373.96295
365.53125
357.0382
348.60461
340.37593
332.51652
325.19778
318.58031
312.79256
307.91135
303.95039
300.86103
298.54505
296.87487
295.71468
294.9373
294.43431
294.11994
293.93025
293.81997
293.75842
293.72562
293.70906
293.70122
293.69777
293.69639
293.69589
293.69574
293.69569
293.69568
293.69568
293.69568
293.69568
293.69568
293.69568
465.42682
461.59007
457.4739
453.06517
448.35119
443.31992
437.96036
432.26291
426.21997
419.82675
413.08226
405.99084
398.56394
390.82263
382.80056
374.54749
366.13307
357.65029
349.2176
340.97819
333.09466
325.73777
319.06902
313.21963
308.27076
304.24122
301.08726
298.71433
296.9969
295.79957
294.99437
294.47144
294.14329
293.94443
293.82825
293.76303
293.72803
293.71021
293.70168
293.69789
293.69635
293.69578
293.6956
293.69555
293.69554
293.69554
293.69554
293.69554
293.69554
293.69554
465.66367
461.84141
457.74088
453.349
448.65315
443.64133
438.30257
432.62727
426.6078
420.23924
413.52043
406.45538
399.05505
391.33979
383.34224
375.11083
366.71351
358.24122
349.81017
341.56131
333.65554
326.26284
319.54551
313.63728
308.62337
304.52753
301.31073
298.88213
297.11826
295.88428
295.05152
294.50874
294.16685
293.9588
293.83668
293.76775
293.73053
293.71142
293.70218
293.69803
293.69632
293.69568
293.69547
293.69541
293.69539
293.69539
293.69539
293.69539
293.69539
293.69539
465.89166
462.08335
457.99789
453.62226
448.94388
443.95081
438.63209
432.97815
426.9813
420.63653
413.94251
406.90293
399.52831
391.8383
383.8646
375.65438
367.27395
358.81234
350.38355
342.12642
334.20009
326.77378
320.01037
314.0459
308.96944
304.80944
301.53151
299.04844
297.23895
295.96879
295.10871
294.54619
294.19059
293.97334
293.84525
293.77258
293.73309
293.71267
293.70271
293.69819
293.69629
293.69558
293.69534
293.69526
293.69525
293.69524
293.69524
293.69524
293.69524
293.69524
466.11138
462.31654
458.24563
453.88567
449.22414
444.24915
438.94979
433.31645
427.34143
421.01964
414.34957
407.33462
399.98488
392.31937
384.36888
376.17938
367.81566
359.36484
350.93889
342.67453
334.72921
327.27128
320.46412
314.44587
309.3092
305.08708
301.74964
299.2133
297.35896
296.05308
295.16594
294.58379
294.21449
293.98803
293.85396
293.77752
293.73573
293.71398
293.70328
293.69836
293.69628
293.69548
293.6952
293.69512
293.6951
293.6951
293.6951
293.6951
293.6951
293.6951
466.32337
462.54155
458.48468
454.13986
449.49461
444.5371
439.25641
433.64298
427.68907
421.38949
414.74257
407.75147
400.42584
392.7841
384.85622
376.68699
368.33975
359.89985
351.47722
343.2066
335.24371
327.75603
320.90727
314.83753
309.64286
305.36057
301.96518
299.3767
297.47827
296.13714
295.22318
294.62151
294.23856
294.00288
293.86279
293.78255
293.73845
293.71533
293.70387
293.69855
293.69627
293.69538
293.69508
293.69498
293.69496
293.69495
293.69495
293.69495
293.69495
293.69495
466.52813
462.7589
458.71561
454.38543
449.75592
444.8153
439.55268
433.9585
428.02499
421.7469
415.1224
408.15439
400.85215
393.23351
385.32765
377.17826
368.84728
360.41837
351.99951
343.72348
335.74434
328.22862
321.3403
315.22122
309.97065
305.63004
302.17819
299.53867
297.59689
296.22095
295.28041
294.65934
294.26277
294.01787
293.87174
293.78767
293.74123
293.71673
293.70449
293.69876
293.69628
293.6953
293.69495
293.69484
293.69481
293.69481
293.69481
293.69481
293.69481
293.69481
466.72612
462.96906
458.93892
454.6229
450.00863
445.08435
439.83922
434.26367
428.34992
422.09263
415.48985
408.54423
401.26469
393.66852
385.78411
377.65414
369.33921
360.92132
352.50663
344.22598
336.2318
328.68963
321.76364
315.59725
310.29275
305.89559
302.38871
299.69922
297.71481
296.30451
295.33763
294.69726
294.28711
294.03299
293.8808
293.79288
293.74407
293.71818
293.70514
293.69899
293.69629
293.69521
293.69482
293.6947
293.69467
293.69466
293.69466
293.69466
293.69466
293.69466
466.91773
463.17247
459.15506
454.85276
450.25325
445.3448
440.11661
434.55911
428.6645
422.42738
415.84566
408.92177
401.66427
394.08995
386.22646
378.11551
369.81639
361.40957
352.99938
344.71483
336.70672
329.1396
322.1777
315.96591
310.60937
306.15733
302.59681
299.85837
297.83203
296.38779
295.39482
294.73527
294.31158
294.04823
293.88997
293.79818
293.74698
293.71966
293.70582
293.69923
293.69631
293.69513
293.6947
293.69456
293.69452
293.69451
293.69451
293.69451
293.69451
293.69451
467.10334
463.36952
459.36445
455.07546
450.49025
445.59715
440.38538
434.84539
428.96934
422.75178
416.1905
409.2877
402.05163
394.49858
386.6555
378.56317
370.27965
361.8839
353.47852
345.19073
337.16971
329.57902
322.58287
316.32748
310.92067
306.41537
302.80252
300.01613
297.94854
296.4708
295.45197
294.77336
294.33616
294.0636
293.89925
293.80356
293.74995
293.7212
293.70653
293.69949
293.69634
293.69505
293.69458
293.69442
293.69438
293.69437
293.69437
293.69437
293.69437
293.69437
467.28329
463.56057
459.56748
455.29139
450.72007
445.84186
440.64602
435.12301
429.26498
423.06641
416.52497
409.64268
402.42745
394.89511
387.07196
378.99787
370.72972
362.34503
353.94474
345.6543
337.62134
330.00835
322.97951
316.68223
311.22684
306.66981
303.00591
300.17253
298.06436
296.55352
295.50907
294.8115
294.36085
294.07907
293.90862
293.80902
293.75298
293.72277
293.70727
293.69977
293.69639
293.69498
293.69446
293.69429
293.69423
293.69422
293.69422
293.69422
293.69422
293.69422
467.45789
463.74596
459.7645
455.50095
450.94309
446.07935
440.89898
435.39247
429.55193
423.37181
416.84966
409.9873
402.79235
395.2802
387.47651
379.42028
371.16729
362.79365
354.39868
346.10614
338.0621
330.42804
323.36796
317.03039
311.52804
306.92074
303.20702
300.32758
298.17947
296.63595
295.56611
294.8497
294.38563
294.09465
293.91808
293.81455
293.75607
293.72438
293.70803
293.70006
293.69644
293.69492
293.69434
293.69415
293.69409
293.69408
293.69407
293.69407
293.69407
293.69407
467.62745
463.92598
459.95583
455.70445
451.1597
446.31001
441.14468
435.65419
429.83066
423.66847
417.16507
410.32211
403.14691
395.65445
387.86977
379.83105
371.593
363.23036
354.84093
346.54679
338.49251
330.83848
323.74855
317.37221
311.82443
307.16827
303.4059
300.4813
298.29388
296.71808
295.62308
294.88795
294.41051
294.11033
293.92764
293.82016
293.75921
293.72603
293.70882
293.70037
293.69649
293.69486
293.69423
293.69401
293.69395
293.69393
293.69393
293.69393
293.69393
293.69393
467.79221
464.10094
460.14178
455.90224
451.37022
446.53419
441.38348
435.90857
430.10159
423.95684
417.4717
410.64762
403.49167
396.01841
388.25231
380.23076
372.00742
363.65576
355.27205
346.97678
338.91299
331.24006
324.12157
317.7079
312.11614
307.41248
303.60259
300.63371
298.40759
296.79991
295.67997
294.92623
294.43548
294.1261
293.93728
293.82584
293.7624
293.72772
293.70963
293.70069
293.69656
293.6948
293.69411
293.69388
293.6938
293.69379
293.69378
293.69378
293.69378
293.69378
467.95244
464.27107
460.32261
456.0946
451.57496
446.75223
441.61574
436.156
430.36511
424.23735
417.76998
410.9643
403.82712
396.3726
388.62467
380.61995
372.41111
364.07038
355.69255
347.39656
339.324
331.63315
324.48731
318.03768
312.40334
307.65345
303.79714
300.78482
298.52061
296.88143
295.73678
294.96455
294.46051
294.14196
293.947
293.83158
293.76564
293.72945
293.71047
293.70103
293.69664
293.69475
293.694
293.69374
293.69366
293.69364
293.69364
293.69364
293.69364
293.69364
468.10835
464.43664
460.49859
456.28179
451.77423
446.96444
441.8418
436.39683
430.62161
424.51039
418.06033
411.27259
404.15371
396.7175
388.98735
380.99914
372.80458
364.47471
356.10292
347.80661
339.72591
332.01807
324.84605
318.36175
312.68615
307.89128
303.9896
300.93466
298.63294
296.96263
295.79349
295.00289
294.48563
294.1579
293.95679
293.83738
293.76894
293.73121
293.71133
293.70139
293.69673
293.6947
293.6939
293.69361
293.69352
293.6935
293.69349
293.69349
293.69349
293.69349
468.26016
464.59785
460.66995
456.46409
451.96827
447.17109
442.06195
436.63136
430.87142
424.77632
418.34314
411.57289
404.47188
397.05355
389.34079
381.36878
373.18831
364.86924
356.50361
348.20732
340.11912
332.39515
325.19803
318.68029
312.9647
308.12604
304.18001
301.08325
298.74458
297.04352
295.85011
295.04124
294.5108
294.17392
293.96666
293.84325
293.77228
293.733
293.71221
293.70176
293.69682
293.69466
293.69379
293.69348
293.69338
293.69335
293.69334
293.69334
293.69334
293.69334
468.40807
464.75493
460.83692
456.64171
452.15735
447.37246
442.27647
436.85991
431.11486
425.03548
418.61877
411.86559
404.78202
397.38117
389.68544
381.72932
373.56272
365.25439
356.89503
348.5991
340.50396
332.76469
325.5435
318.9935
313.23912
308.3578
304.36841
301.23059
298.85554
297.12408
295.90662
295.0796
294.53604
294.19001
293.9766
293.84917
293.77566
293.73483
293.71312
293.70215
293.69693
293.69462
293.69369
293.69335
293.69324
293.69321
293.6932
293.6932
293.6932
293.6932
468.55226
464.90806
460.9997
456.81488
452.3417
447.5688
442.48563
437.08275
431.35223
425.28818
418.88754
412.15102
405.0845
397.70075
390.02168
382.08117
373.92825
365.63058
357.27759
348.98232
340.88077
333.12697
325.88269
319.30153
313.50953
308.58665
304.55483
301.37672
298.96582
297.20433
295.96303
295.11797
294.56133
294.20618
293.98661
293.85515
293.77909
293.73669
293.71405
293.70255
293.69704
293.69459
293.69359
293.69322
293.6931
293.69306
293.69305
293.69305
293.69305
293.69305
468.6929
465.05743
461.15848
456.9838
452.52152
447.76032
442.68967
437.30015
431.5838
425.53472
419.14977
412.42953
405.37967
398.01264
390.34991
382.42471
374.28527
365.99819
357.65165
349.35732
341.24987
333.48226
326.21581
319.60456
313.77604
308.81266
304.73933
301.52165
299.07542
297.28425
296.01932
295.15634
294.58667
294.22241
293.99668
293.86119
293.78256
293.73859
293.71501
293.70296
293.69717
293.69456
293.69349
293.69309
293.69296
293.69292
293.69291
293.6929
293.6929
293.6929
468.83016
465.20321
461.31345
457.14867
452.69704
447.94726
442.88883
437.51234
431.80984
425.77538
419.40575
412.70142
405.66785
398.31718
390.67046
382.76031
374.63415
366.35758
358.01756
349.72444
341.61155
333.83082
326.54308
319.90274
314.03876
309.03588
304.92194
301.66539
299.18436
297.36385
296.07549
295.1947
294.61206
294.2387
294.00681
293.86728
293.78608
293.74051
293.71598
293.70339
293.6973
293.69454
293.69339
293.69296
293.69282
293.69277
293.69276
293.69276
293.69276
293.69276
468.96417
465.34554
461.46477
457.30966
452.86843
448.1298
443.08332
437.71956
432.03058
426.01041
419.65576
412.96698
405.94934
398.61469
390.98366
383.0883
374.97523
366.70908
358.37565
350.08396
341.96608
334.17288
326.86468
320.19622
314.29779
309.2564
305.10269
301.80796
299.29263
297.44312
296.13155
295.23305
294.63749
294.25505
294.017
293.87342
293.78963
293.74246
293.71698
293.70384
293.69744
293.69453
293.6933
293.69284
293.69268
293.69263
293.69262
293.69261
293.69261
293.69261
469.09509
465.4846
461.61259
457.46694
453.03587
448.30815
443.27333
437.92201
432.24625
426.24004
419.90004
413.22647
406.22443
398.90548
391.28983
383.40899
375.30883
367.05303
358.72623
350.4362
342.31374
334.50867
327.1808
320.48515
314.55324
309.47428
305.28163
301.94938
299.40025
297.52206
296.18747
295.27139
294.66296
294.27146
294.02725
293.87961
293.79322
293.74445
293.71799
293.7043
293.69759
293.69451
293.69321
293.69271
293.69254
293.69248
293.69247
293.69247
293.69247
293.69247
469.22303
465.6205
461.75708
457.62067
453.19953
448.48247
443.45906
438.11991
432.45707
426.46452
420.13884
413.48016
406.49338
399.18981
391.58926
383.72269
375.63525
367.3897
359.06958
350.78143
342.65476
334.83841
327.49162
320.76965
314.80521
309.68957
305.45879
302.08968
299.50721
297.60068
296.24327
295.30971
294.68846
294.28792
294.03755
293.88584
293.79685
293.74646
293.71903
293.70477
293.69775
293.69451
293.69313
293.69259
293.6924
293.69234
293.69232
293.69232
293.69232
293.69232
469.34814
465.75339
461.89836
457.77099
453.35957
448.65293
443.64068
438.31343
432.66324
426.68405
420.37238
413.72827
406.75644
399.46794
391.88221
384.02967
375.95478
367.7194
359.406
351.11989
342.9894
335.16231
327.79732
321.04987
315.05378
309.90234
305.6342
302.22885
299.61353
297.67896
296.29894
295.34801
294.714
294.30444
294.0479
293.89212
293.80052
293.7485
293.72009
293.70525
293.69791
293.69451
293.69304
293.69247
293.69226
293.6922
293.69218
293.69217
293.69217
293.69217
469.47052
465.88338
462.03657
457.91804
453.51613
448.8197
443.81836
438.50276
432.86494
426.89882
420.60089
413.97104
407.01386
399.74014
392.16895
384.3302
376.26768
368.04239
359.73573
351.45184
343.31786
335.48055
328.09804
321.32591
315.29904
310.11265
305.8079
302.36693
299.7192
297.75692
296.35448
295.38628
294.73956
294.321
294.05831
293.89845
293.80422
293.75057
293.72116
293.70575
293.69809
293.69451
293.69296
293.69234
293.69212
293.69205
293.69203
293.69203
293.69203
293.69203
469.59027
466.01059
462.17182
458.06195
453.66935
448.98291
443.99226
438.68806
433.06236
427.10904
420.82454
414.20868
407.26586
400.00662
392.44971
384.62453
376.57421
368.35891
360.05902
351.77752
343.64037
335.79333
328.39395
321.59791
315.54109
310.32054
305.97992
302.50393
299.82424
297.83456
296.40988
295.42453
294.76515
294.3376
294.06876
293.90482
293.80796
293.75266
293.72226
293.70627
293.69827
293.69452
293.69288
293.69223
293.69199
293.69191
293.69189
293.69188
293.69188
293.69188
469.70752
466.13514
462.30424
458.20286
453.81937
449.14271
444.16253
438.86949
433.25565
427.31488
421.04355
414.44138
407.51263
400.26762
392.72472
384.91289
376.87461
368.66922
360.3761
352.09714
343.95712
336.10083
328.68519
321.86598
315.77999
310.52609
306.15029
302.63986
299.92866
297.91186
296.46514
295.46275
294.79076
294.35425
294.07926
293.91123
293.81174
293.75478
293.72338
293.70679
293.69847
293.69453
293.69281
293.69211
293.69185
293.69177
293.69174
293.69174
293.69173
293.69173
469.82234
466.25712
462.43394
458.34086
453.96631
449.29923
444.3293
439.0472
433.44498
427.5165
421.25807
414.66934
407.75439
400.52333
392.99421
385.19551
377.1691
368.97352
360.6872
352.41091
344.26831
336.4032
328.97189
322.13022
316.01584
310.72933
306.31904
302.77473
300.03245
297.98884
296.52026
295.50093
294.81639
294.37094
294.0898
293.91768
293.81554
293.75693
293.72451
293.70733
293.69867
293.69455
293.69273
293.69199
293.69172
293.69163
293.6916
293.69159
293.69159
293.69159
469.93484
466.37663
462.56101
458.47607
454.11027
449.45258
444.4927
439.22133
433.6305
427.71407
421.46829
414.89272
407.99132
400.77396
393.25837
385.47259
377.45789
369.27204
360.99252
352.71903
344.57413
336.70061
329.25421
322.39075
316.24871
310.93033
306.48621
302.90858
300.13562
298.06549
296.57524
295.53908
294.84203
294.38767
294.10039
293.92417
293.81938
293.7591
293.72566
293.70788
293.69888
293.69458
293.69266
293.69188
293.69158