/*--------------------------------*- C++ -*----------------------------------*\
| =========                 |                                                 |
| \\      /  F ield         | OpenFOAM: The Open Source CFD Toolbox           |
|  \\    /   O peration     | Version:  4.0                                   |
|   \\  /    A nd           | Web:      www.OpenFOAM.org                      |
|    \\/     M anipulation  |                                                 |
\*---------------------------------------------------------------------------*/
FoamFile
{
    version     2.0;
    format      ascii;
    class       volVectorField;
    location    "4000/fluid";
    object      U;
}
// * * * * * * * * * * * * * * * * * * * * * * * * * * * * * * * * * * * * * //

dimensions      [0 1 -1 0 0 0 0];

internalField   nonuniform List<vector> 
5000
(
(1.5843604e-05 6.9462324e-23 0.0097218707)
(8.5963409e-05 4.787469e-23 0.028192091)
(0.00024066158 -3.3525612e-23 0.046380562)
(0.0004455067 -2.8087421e-22 0.063976661)
(0.00071255301 7.3423239e-22 0.080642579)
(0.0010132251 3.2063752e-21 0.096025125)
(0.0013379242 9.1791781e-21 0.1097729)
(0.0016592067 1.8323086e-20 0.12155706)
(0.0019590816 -1.78631e-20 0.13109579)
(0.0022139358 -3.9427741e-20 0.13817996)
(0.0024085669 -4.879517e-20 0.14269785)
(0.0025298487 -1.4400827e-20 0.14465483)
(0.0025738537 3.9482727e-20 0.1441845)
(0.0025420887 1.0347217e-20 0.14154724)
(0.0024439604 1.9365352e-20 0.13711426)
(0.0022930137 -1.4937677e-20 0.13133761)
(0.0021063797 -1.6479418e-20 0.12470981)
(0.0019010037 -2.256738e-25 0.11771926)
(0.0016923543 -1.9381938e-20 0.11080839)
(0.0014921158 -2.5196025e-20 0.10434032)
(0.0013081478 8.0868875e-21 0.098578047)
(0.0011442337 2.5455152e-21 0.093676866)
(0.0010012271 1.7530744e-20 0.089689583)
(0.00087770348 2.9100348e-21 0.086581615)
(0.00077111321 1.9820979e-20 0.08425378)
(0.0006782223 7.3192974e-21 0.082567771)
(0.00059578732 8.3092545e-22 0.081372702)
(0.00052059326 -3.0072978e-21 0.080525156)
(0.00044989604 -8.078471e-21 0.079906331)
(0.00038113974 -3.3200506e-21 0.079424714)
(0.00031246719 -1.8475957e-21 0.079022215)
(0.0002423039 1.7655711e-21 0.078658441)
(0.00016778007 1.1559273e-20 0.078320602)
(9.999224e-05 2.8836852e-20 0.077990003)
(-3.3989097e-05 -2.9244998e-21 0.077680551)
(-5.8680956e-05 -6.4261831e-22 0.077362239)
(-0.00018087394 -1.6239646e-21 0.077080714)
(-0.00025182691 -1.8575049e-20 0.076772614)
(-0.00038276802 -1.7195342e-20 0.076523334)
(-0.00045839004 0 0.076224649)
(-0.00060426284 1.6881709e-20 0.076013933)
(-0.00067965876 -3.754091e-20 0.075716807)
(-0.00083487617 -7.4045543e-21 0.075548276)
(-0.0009033743 -4.4648077e-20 0.075230916)
(-0.0010566116 4.906417e-20 0.075104229)
(-0.0011043735 6.168728e-20 0.074713368)
(-0.0012325156 6.5932923e-21 0.07461929)
(-0.0012244062 -4.7271795e-20 0.074053604)
(-0.0012628341 -6.486939e-21 0.074545066)
(-0.00092503222 -7.2316652e-20 0.068332307)
(-1.3089868e-05 -2.9076187e-23 0.011701567)
(-7.0020034e-05 -1.8013462e-22 0.034224622)
(-0.00018356827 -6.8748963e-22 0.056758881)
(-0.00035996488 -2.3870959e-21 0.078972819)
(-0.00060071806 -2.1235574e-21 0.10047224)
(-0.00090610943 -4.9842321e-21 0.12080287)
(-0.0012744388 -8.7837964e-21 0.13945868)
(-0.0017020862 -2.2460667e-20 0.15590037)
(-0.0021836293 1.1538475e-20 0.16958509)
(-0.0027120463 4.666276e-20 0.18000989)
(-0.0032787436 4.5657047e-20 0.18676732)
(-0.0038733434 -3.1584227e-20 0.18960918)
(-0.004483107 -7.9527848e-20 0.18850863)
(-0.0050921809 -2.407312e-20 0.18370633)
(-0.005681071 -5.1545455e-20 0.17572321)
(-0.0062268039 5.2121001e-20 0.16532572)
(-0.006704419 6.6708196e-20 0.15344005)
(-0.0070895271 5.22834e-20 0.14103009)
(-0.0073620616 7.5379468e-20 0.12896891)
(-0.0075092625 4.6189433e-20 0.11793793)
(-0.0075283567 -4.8782884e-20 0.10837595)
(-0.0074257908 -4.2704563e-20 0.10048059)
(-0.007216912 -1.3294967e-19 0.094248225)
(-0.0069209602 -5.2706444e-20 0.089532255)
(-0.0065612593 -4.6911413e-20 0.086103069)
(-0.0061577934 2.179059e-20 0.083698374)
(-0.0057328165 8.0529145e-21 0.082061767)
(-0.0052990374 2.4062025e-20 0.080965927)
(-0.0048753879 2.4912237e-20 0.080227925)
(-0.0044633322 7.6166718e-21 0.079709166)
(-0.0040819139 2.9020897e-20 0.079317982)
(-0.003717633 4.3447763e-21 0.07899228)
(-0.0033983393 8.2286333e-20 0.078704832)
(-0.0030890473 7.4439855e-20 0.078430757)
(-0.0028379457 -2.2735739e-20 0.07817491)
(-0.0025862553 -4.1317223e-21 0.077919209)
(-0.0024016208 -4.8961249e-22 0.077680245)
(-0.0022064241 -1.1995266e-20 0.077432522)
(-0.0020938172 -1.2928218e-20 0.077213918)
(-0.001949018 0 0.076962857)
(-0.001916117 1.2798751e-20 0.076769423)
(-0.0018150094 -3.6757741e-20 0.076496274)
(-0.001872467 -1.4154346e-20 0.076333571)
(-0.0018037519 -4.1059561e-20 0.076004941)
(-0.0019711875 4.2709572e-20 0.075876477)
(-0.0019167127 6.5031991e-20 0.075429583)
(-0.0022411864 1.3994125e-22 0.075322354)
(-0.0021913256 -5.4381364e-20 0.074911914)
(-0.0028386479 -4.0076668e-20 0.07631837)
(-0.0021939975 -8.4371188e-20 0.063461467)
(-3.227614e-06 -1.2010255e-23 0.013413288)
(-2.4783542e-05 -2.056308e-22 0.039408219)
(-6.6696623e-05 -4.2953121e-22 0.065632876)
(-0.00013693029 -6.580583e-22 0.091750275)
(-0.00024050749 -1.1543534e-21 0.11735271)
(-0.00038334468 -3.0404582e-21 0.14195858)
(-0.00057155311 -8.3703987e-21 0.16501345)
(-0.00081114972 -2.2756317e-20 0.18589827)
(-0.0011076443 -1.7354242e-20 0.20394802)
(-0.0014654865 1.2930144e-20 0.21848467)
(-0.0018874101 -4.5905097e-21 0.2288682)
(-0.002373594 -1.371227e-19 0.23456722)
(-0.0029206808 -6.0846361e-20 0.23524595)
(-0.0035205298 -2.2204836e-20 0.23085676)
(-0.0041589622 -2.5271196e-20 0.22171769)
(-0.0048146077 1.2745292e-19 0.20854631)
(-0.0054588749 8.7009184e-20 0.19242229)
(-0.0060572497 5.7262374e-20 0.1746665)
(-0.0065732322 8.8767222e-20 0.15665448)
(-0.0069731279 4.5700573e-20 0.13961261)
(-0.0072323839 5.11894e-20 0.12445719)
(-0.0073385241 5.9333328e-20 0.11171869)
(-0.0072942197 -5.3201528e-20 0.10155692)
(-0.007113125 3.6034492e-20 0.093840686)
(-0.006820174 -2.7491504e-21 0.088253412)
(-0.0064415485 5.6937262e-20 0.084392699)
(-0.0060091692 1.2568171e-19 0.081846805)
(-0.0055455175 1.026553e-19 0.080243396)
(-0.0050795323 2.5843909e-20 0.07927522)
(-0.0046205388 -1.2674165e-20 0.078707003)
(-0.0041939396 -6.196641e-20 0.078372531)
(-0.0037917932 2.0549749e-20 0.078162038)
(-0.0034422694 1.1798348e-19 0.07801115)
(-0.0031172532 1.8154762e-19 0.07788271)
(-0.0028586804 -2.4885284e-20 0.077761693)
(-0.0026103175 -1.2385265e-20 0.077635874)
(-0.0024467273 -1.4666239e-20 0.077514642)
(-0.0022651391 -1.3746308e-19 0.077375251)
(-0.0021976592 -1.4155062e-20 0.077252785)
(-0.0020679952 1.9845512e-21 0.077091472)
(-0.0020990325 1.308741e-20 0.076976116)
(-0.0020039488 -3.6432161e-20 0.076782198)
(-0.0021398507 -1.4323717e-20 0.076683202)
(-0.0020659091 -3.9790818e-20 0.076442856)
(-0.0023187331 4.334256e-20 0.076359847)
(-0.0022706439 8.2160865e-20 0.076053733)
(-0.0026618402 -2.6874317e-21 0.075994437)
(-0.0027213882 -4.363464e-20 0.076361902)
(-0.0032540116 8.1938671e-20 0.078005776)
(-0.002334928 -2.4639239e-21 0.05873553)
(-2.7497267e-06 6.142833e-22 0.01490617)
(-2.078671e-05 2.1966918e-21 0.043913411)
(-5.572796e-05 6.2850308e-21 0.073323948)
(-0.00011382069 2.5290176e-21 0.10279557)
(-0.00019891634 1.5694321e-21 0.13191004)
(-0.00031570256 1.7271346e-21 0.16016779)
(-0.00046925284 1.6337553e-21 0.18698593)
(-0.00066495827 5.1783502e-21 0.21170186)
(-0.00090835361 1.9825417e-20 0.23358572)
(-0.0012048176 3.5149581e-20 0.25186523)
(-0.001559121 9.192505e-20 0.26576778)
(-0.0019747551 9.3586184e-20 0.27458366)
(-0.0024530661 -6.1363318e-20 0.27775219)
(-0.0029921039 -8.3411694e-20 0.27496686)
(-0.0035853644 -2.1990325e-19 0.26628547)
(-0.0042203291 -1.5634615e-19 0.25221872)
(-0.0048774875 8.0111732e-20 0.23376025)
(-0.0055298544 2.6850722e-20 0.21232312)
(-0.0061446223 1.0738948e-19 0.18957054)
(-0.0066860835 4.7967635e-20 0.16717007)
(-0.0071215993 -8.998933e-20 0.14653969)
(-0.0074260674 5.871259e-20 0.12866392)
(-0.0075878131 -5.2702211e-20 0.11402757)
(-0.0076073199 -1.1539181e-19 0.1026645)
(-0.007499447 -7.0592562e-20 0.094279262)
(-0.0072840247 -4.8216695e-20 0.088389566)
(-0.0069899555 -2.3220412e-19 0.084450458)
(-0.0066389872 8.044984e-20 0.081942166)
(-0.0062609415 7.3902409e-20 0.080420549)
(-0.0058661155 3.7366522e-20 0.079536969)
(-0.0054821194 2.2682511e-21 0.079038278)
(-0.0051009129 -1.9063641e-20 0.078753546)
(-0.0047546367 8.3675655e-20 0.078577553)
(-0.0044113493 1.8853868e-19 0.078449211)
(-0.0041220555 2.9599063e-20 0.078339956)
(-0.0038210217 2.8393564e-20 0.078233009)
(-0.0035985733 7.6411152e-21 0.078128699)
(-0.0033370151 -8.1788122e-20 0.078015704)
(-0.0031915029 -1.4601034e-19 0.077907648)
(-0.0029679306 -6.9947283e-21 0.077782897)
(-0.0029126461 2.4544605e-20 0.077672469)
(-0.0027309954 -4.0805708e-20 0.077533138)
(-0.0027785612 -1.484858e-20 0.077420162)
(-0.0026533742 -5.568646e-20 0.077266662)
(-0.0028097385 -8.6358567e-20 0.077137004)
(-0.0027749024 -4.2048945e-20 0.076967664)
(-0.0030488644 -2.2289631e-20 0.076943075)
(-0.0032089337 -3.2588121e-20 0.078045082)
(-0.0035089965 1.2321971e-19 0.078838493)
(-0.0021720378 2.9490833e-20 0.053334616)
(-1.9545219e-06 -6.6321163e-23 0.016047445)
(-1.5692419e-05 -3.2397873e-22 0.047374107)
(-4.2106331e-05 2.1610472e-22 0.079258255)
(-8.6244784e-05 1.2822587e-21 0.11135946)
(-0.00015122632 1.5208063e-21 0.14325813)
(-0.00024092296 1.7196191e-21 0.17444862)
(-0.0003596319 3.2370537e-21 0.20433498)
(-0.00051208017 9.6766245e-21 0.23223155)
(-0.00070337039 4.8964739e-20 0.25737098)
(-0.00093885084 4.7848887e-20 0.27892348)
(-0.0012238813 8.4973013e-20 0.29603184)
(-0.001563403 3.1530144e-19 0.30786693)
(-0.0019613026 6.7445576e-20 0.31370743)
(-0.0024194151 1.9609395e-20 0.31304396)
(-0.0029363008 -7.5255791e-20 0.30569993)
(-0.0035056141 -1.3944972e-19 0.29194931)
(-0.0041146824 -3.6126999e-20 0.27259675)
(-0.0047431283 3.0723997e-20 0.24897703)
(-0.0053631705 2.7991472e-20 0.22283922)
(-0.0059408676 6.1550461e-20 0.19611563)
(-0.006440853 -5.0250069e-20 0.17062639)
(-0.0068306107 -7.500922e-20 0.14780799)
(-0.0070878129 -6.9011925e-20 0.12854906)
(-0.0072013391 -4.3798779e-20 0.11316887)
(-0.0071761359 -1.7600482e-19 0.10151486)
(-0.0070253233 -2.6736987e-20 0.093121785)
(-0.006775201 -4.4837714e-20 0.087373749)
(-0.0064482738 -1.6348302e-19 0.083633413)
(-0.0060780642 2.5465022e-21 0.081325124)
(-0.0056796732 4.2404158e-20 0.079977359)
(-0.0052864282 9.7387156e-20 0.079232917)
(-0.0048951469 2.3650708e-20 0.078842039)
(-0.0045422654 2.4081735e-20 0.07864125)
(-0.0041993301 6.0799221e-20 0.078535107)
(-0.0039178102 2.3317162e-20 0.078468579)
(-0.0036361382 3.0305769e-20 0.078420036)
(-0.0034376067 2.582346e-20 0.078371702)
(-0.0032159705 7.5505537e-20 0.078328784)
(-0.0031037732 -1.8780567e-19 0.078274285)
(-0.0029375846 -2.7968525e-20 0.07822928)
(-0.0029112369 2.2775698e-20 0.078161966)
(-0.0027994532 -4.0770593e-20 0.078115405)
(-0.0028556473 -2.155724e-20 0.07803078)
(-0.0028067215 -7.7594007e-20 0.077984848)
(-0.002942651 -1.7893802e-19 0.077869371)
(-0.0029801907 -3.2700585e-20 0.077829432)
(-0.0032220427 -2.7459899e-20 0.078026076)
(-0.0034269335 -2.6138828e-20 0.079660295)
(-0.0035487817 -6.7574045e-21 0.078907791)
(-0.0019234671 -7.4864493e-20 0.048356729)
(-1.9099158e-06 -6.3094006e-22 0.017061502)
(-1.4616815e-05 -2.3504022e-21 0.050442855)
(-3.9207049e-05 -6.2404195e-21 0.08451107)
(-8.0145904e-05 -1.9395747e-21 0.11892602)
(-0.00014019834 7.5741589e-22 0.15326603)
(-0.00022275371 1.3876996e-21 0.18702005)
(-0.00033153093 -1.6095887e-21 0.21958201)
(-0.00047058051 -6.2374136e-21 0.25024934)
(-0.0006442485 2.155437e-21 0.27822819)
(-0.00085709619 2.0304704e-20 0.30264885)
(-0.0011137637 1.346878e-20 0.32259562)
(-0.0014187072 1.1317446e-19 0.33715631)
(-0.0017758027 6.2889624e-20 0.3454957)
(-0.0021876615 3.6188151e-20 0.34695539)
(-0.002654732 -3.5231243e-20 0.34117623)
(-0.0031739485 1.5854564e-19 0.3282292)
(-0.0037373725 7.7063996e-20 0.30872574)
(-0.0043305785 2.767412e-20 0.28386485)
(-0.0049321584 -2.2167349e-20 0.25537198)
(-0.0055137882 -5.5526317e-21 0.22530721)
(-0.0060433719 6.3639566e-20 0.19576845)
(-0.0064883649 1.4150918e-23 0.16856884)
(-0.0068226223 -5.7561859e-20 0.14498864)
(-0.0070287468 5.7058674e-20 0.12567221)
(-0.0071038224 -4.3089017e-20 0.11067591)
(-0.0070541406 -6.1166618e-20 0.099619066)
(-0.0068996405 6.0330605e-20 0.091868653)
(-0.0066597839 -4.6453189e-20 0.086704948)
(-0.0063645867 3.2954485e-20 0.083439111)
(-0.0060302561 1.4869967e-20 0.081482949)
(-0.0056872924 5.31812e-20 0.080373929)
(-0.0053371229 2.1142471e-20 0.079778494)
(-0.0050107519 2.7287891e-20 0.079469089)
(-0.0046886885 2.8474286e-20 0.079309817)
(-0.0044106779 -2.3086932e-20 0.079216187)
(-0.0041320047 2.6981562e-20 0.079156599)
(-0.0039134991 2.8373145e-20 0.079099681)
(-0.0036801316 3.9091066e-20 0.079057558)
(-0.0035253078 -5.4721353e-20 0.078999322)
(-0.0033386253 -2.6837025e-20 0.078964562)
(-0.0032518998 2.253868e-20 0.078897774)
(-0.0031185969 -3.2039609e-20 0.07887328)
(-0.0031061595 -2.7105429e-20 0.07879647)
(-0.0030384128 -8.2498919e-20 0.078781768)
(-0.0031089786 -1.3474077e-19 0.078685259)
(-0.0031273761 1.1161807e-19 0.078720529)
(-0.0033237486 -2.6773305e-20 0.07920758)
(-0.0034834383 -3.2870922e-20 0.081075292)
(-0.0034132162 -5.7468754e-20 0.078277752)
(-0.0016309264 -1.0430196e-19 0.043895759)
(-1.6397924e-06 -9.1688742e-22 0.017934242)
(-1.270782e-05 -3.6027554e-21 0.053088639)
(-3.4107327e-05 -8.8798643e-21 0.089047291)
(-6.9807323e-05 -3.6998417e-21 0.12547187)
(-0.00012229374 -1.2482158e-21 0.16194068)
(-0.00019463358 -2.0483079e-21 0.19793992)
(-0.00029022122 -8.3031403e-21 0.23285692)
(-0.00041278764 -2.3482772e-20 0.26597695)
(-0.00056637551 -5.2226018e-20 0.29648622)
(-0.00075527755 -1.9070859e-20 0.32348409)
(-0.00098392899 -5.7052333e-20 0.34600909)
(-0.0012567006 -1.3250511e-19 0.36308347)
(-0.0015775879 5.2641108e-21 0.37378151)
(-0.0019496738 4.7887297e-20 0.37732491)
(-0.0023744063 1.1290324e-19 0.37320421)
(-0.0028504768 1.3280334e-19 0.36131595)
(-0.0033725932 8.183927e-20 0.34209165)
(-0.0039299045 3.1536827e-20 0.31657899)
(-0.0045051181 -3.8446165e-20 0.28642693)
(-0.0050739625 -1.470199e-19 0.25373783)
(-0.0056071192 1.8937273e-19 0.22079038)
(-0.0060727588 1.2587458e-19 0.18969486)
(-0.0064424294 -5.7196017e-20 0.16208355)
(-0.0066942608 1.4867443e-19 0.13893109)
(-0.0068188644 5.6255867e-20 0.12054164)
(-0.0068167844 -3.9748545e-20 0.10667313)
(-0.0067022317 1.5699227e-19 0.096728336)
(-0.0064925829 1.1593897e-19 0.089946857)
(-0.0062154289 5.0608947e-20 0.085554287)
(-0.0058900152 -7.4325628e-21 0.082859118)
(-0.005546173 -3.3849073e-20 0.08129718)
(-0.0051926014 2.350565e-20 0.08044614)
(-0.0048577554 2.8446477e-20 0.080008313)
(-0.004532998 2.5212118e-20 0.079796312)
(-0.0042497523 -2.8357974e-20 0.079692265)
(-0.0039787495 -2.4003476e-20 0.079643097)
(-0.0037635131 -1.1827667e-19 0.079608237)
(-0.0035512873 -4.4444214e-20 0.07959163)
(-0.0034073086 9.6896806e-20 0.0795647)
(-0.0032515756 -2.2966736e-20 0.07955901)
(-0.0031780759 2.2476629e-20 0.079528812)
(-0.0030762985 -2.8733011e-20 0.079533655)
(-0.0030728986 -2.8709696e-20 0.079497696)
(-0.0030253474 -6.874302e-20 0.079507341)
(-0.0030960416 2.2702448e-20 0.079457634)
(-0.0031173477 1.0604081e-19 0.079583191)
(-0.0033078261 -2.6162497e-20 0.080372483)
(-0.0034150188 -4.4294401e-20 0.082186249)
(-0.003185135 -6.4507138e-20 0.077128953)
(-0.0013628652 -1.9997894e-20 0.039952919)
(-1.5648284e-06 1.6604892e-21 0.018734339)
(-1.1872399e-05 2.818804e-21 0.055512141)
(-3.1869024e-05 5.5085879e-21 0.093199294)
(-6.5188723e-05 1.2861138e-20 0.13145872)
(-0.00011412218 3.1514549e-20 0.16986842)
(-0.00018148324 1.3426746e-20 0.20791211)
(-0.00027037829 4.3561913e-21 0.24497153)
(-0.00038421629 1.6385878e-21 0.28032201)
(-0.00052669071 -1.3422657e-20 0.31313358)
(-0.00070173344 -1.2596426e-20 0.34248079)
(-0.00091343273 -7.1649624e-20 0.36736541)
(-0.0011658729 -2.4256558e-19 0.38675693)
(-0.0014628895 -6.5968038e-20 0.39965631)
(-0.0018076419 -1.0589586e-20 0.40518711)
(-0.0022020258 6.4713922e-20 0.40271477)
(-0.0026457455 -1.0218989e-19 0.39198674)
(-0.0031352432 6.0881795e-20 0.37327361)
(-0.0036622685 2.8569004e-20 0.34747513)
(-0.0042128591 6.3973713e-20 0.31614264)
(-0.0047665105 -4.7699699e-20 0.28137257)
(-0.0052972695 -5.987285e-20 0.24555751)
(-0.0057755852 1.547383e-19 0.21103785)
(-0.0061731911 -4.0567822e-20 0.17975049)
(-0.0064665328 4.8315548e-20 0.15298337)
(-0.0066424592 1.7317153e-19 0.13129969)
(-0.0066974276 -5.8008943e-20 0.11462443)
(-0.006640789 -1.3023335e-19 0.10242954)
(-0.0064868537 7.1833932e-20 0.093943364)
(-0.0062595117 1.386561e-19 0.088327894)
(-0.0059776048 4.6899515e-20 0.084801935)
(-0.0056683036 5.2903174e-20 0.082707131)
(-0.0053426679 5.1462779e-20 0.081534017)
(-0.0050261209 4.9891975e-20 0.080914393)
(-0.0047149103 2.6186927e-20 0.08060519)
(-0.004435397 -8.3647254e-21 0.080453463)
(-0.0041657196 3.2862055e-20 0.080379013)
(-0.0039414174 -3.0142959e-20 0.080333715)
(-0.0037198256 -7.6874946e-20 0.080307241)
(-0.0035560036 8.6433687e-20 0.080280167)
(-0.0033818661 -2.2110516e-20 0.080267568)
(-0.0032814541 1.8897972e-20 0.080245257)
(-0.0031547867 -2.7917123e-20 0.080245625)
(-0.0031221667 -2.9702336e-20 0.080225619)
(-0.0030455939 -5.1537846e-20 0.080231986)
(-0.0030885971 7.9467339e-20 0.080216542)
(-0.003081291 3.7292338e-20 0.08044154)
(-0.0032452636 -2.6916889e-20 0.081482044)
(-0.0032765659 -5.3050225e-20 0.082982199)
(-0.002904476 -5.9339579e-20 0.075666296)
(-0.0011249931 -5.959106e-21 0.036586682)
(-1.4119732e-06 9.4560285e-22 0.01945459)
(-1.0764595e-05 3.3466944e-21 0.05769604)
(-2.8906362e-05 8.3559989e-21 0.09694437)
(-5.9168823e-05 2.3406877e-21 0.1368644)
(-0.00010366818 1.3115301e-21 0.17703471)
(-0.00016501306 2.9191603e-21 0.21693781)
(-0.00024609812 -1.3742666e-21 0.25595152)
(-0.00035011799 -4.1565165e-21 0.29334347)
(-0.00048055612 2.8906336e-21 0.32827067)
(-0.00064114926 2.4041314e-20 0.35978712)
(-0.00083582085 5.3809984e-20 0.38686374)
(-0.0010685469 1.3943828e-19 0.40842536)
(-0.0013431489 6.4963897e-21 0.42341038)
(-0.001662929 -4.2054285e-20 0.430858)
(-0.0020301637 -1.7434656e-19 0.43002488)
(-0.0024452939 -1.0549651e-19 0.4205265)
(-0.0029059661 -2.6830712e-20 0.40248661)
(-0.0034057087 3.1031877e-20 0.37666223)
(-0.0039328749 2.8356928e-20 0.34449664)
(-0.0044696332 1.0535755e-19 0.30805029)
(-0.0049925413 -8.7748157e-20 0.26978287)
(-0.0054738099 -4.0211736e-21 0.2322124)
(-0.0058854399 -1.6132591e-20 0.19753738)
(-0.0062025017 -7.7455136e-20 0.16733706)
(-0.0064087992 -6.3635569e-20 0.14243529)
(-0.0064970587 4.7284828e-20 0.12294351)
(-0.0064725743 -1.4275049e-19 0.10843083)
(-0.006346663 -6.3964371e-20 0.09814246)
(-0.006140803 4.7788995e-20 0.09119995)
(-0.0058734237 4.9296899e-20 0.086748643)
(-0.0055714481 1.9251408e-20 0.08404519)
(-0.005247887 -1.404754e-20 0.082496527)
(-0.0049289898 8.2677361e-20 0.081662874)
(-0.0046140937 2.7273768e-20 0.081242324)
(-0.0043300098 -2.6123758e-20 0.081041701)
(-0.0040577787 -6.2672439e-20 0.080950057)
(-0.0038322372 2.1726961e-19 0.080906559)
(-0.0036124474 1.0686737e-19 0.08088608)
(-0.0034520607 2.8779509e-20 0.080873254)
(-0.0032827789 0 0.080870065)
(-0.0031878833 5.5633871e-21 0.080866504)
(-0.0030646406 -3.0991965e-20 0.080875379)
(-0.0030344814 -2.1634314e-20 0.080874795)
(-0.0029548593 -7.2717923e-20 0.080887349)
(-0.0029931181 -1.8936906e-19 0.080912236)
(-0.0029766516 8.356691e-21 0.081257034)
(-0.0031189876 -2.6117268e-20 0.082474271)
(-0.0030832271 -7.7061977e-20 0.083459259)
(-0.002601687 -4.8711258e-20 0.074012036)
(-0.00091926108 -1.0145739e-19 0.033712605)
(-1.3449506e-06 2.8201208e-22 0.020125388)
(-1.013458e-05 6.4463985e-22 0.059729125)
(-2.7218068e-05 1.3563476e-21 0.10042953)
(-5.5699313e-05 2.4855844e-21 0.14189302)
(-9.7559413e-05 5.6542205e-21 0.18369873)
(-0.00015523531 3.7529259e-21 0.22532806)
(-0.00023142917 1.6567774e-21 0.26615557)
(-0.00032912261 3.7740042e-21 0.30544243)
(-0.00045156972 1.9228058e-20 0.3423347)
(-0.00060227016 3.2564057e-21 0.37586918)
(-0.00078491731 -1.5718622e-20 0.4049908)
(-0.0010032883 -6.3829123e-21 0.4285866)
(-0.0012610748 2.5860514e-20 0.44554168)
(-0.0015615726 1.5016327e-20 0.45482263)
(-0.0019072526 -3.6908537e-20 0.45559136)
(-0.0022990496 -3.9146414e-20 0.4473464)
(-0.0027355136 2.0024202e-20 0.43007811)
(-0.0032115823 2.6808649e-20 0.40440836)
(-0.0037175479 1.4740875e-20 0.37166888)
(-0.0042379313 -6.7338362e-21 0.33386563)
(-0.0047517295 -8.0362315e-21 0.29349225)
(-0.0052331713 -1.2007976e-20 0.25320339)
(-0.0056552866 -6.6636358e-20 0.21542151)
(-0.0059928264 5.2976914e-20 0.18199321)
(-0.0062279098 6.8451174e-20 0.15399701)
(-0.0063506256 -5.2210908e-20 0.13174014)
(-0.0063632061 -4.9089467e-20 0.11490658)
(-0.006274094 -5.6077363e-20 0.102778)
(-0.0061023421 -1.0021998e-20 0.094452342)
(-0.0058646961 -4.1779733e-20 0.089014273)
(-0.005586982 -2.4000038e-20 0.08564357)
(-0.0052818328 -3.500901e-20 0.083668525)
(-0.0049754865 2.7089851e-20 0.082578997)
(-0.0046677133 2.7203149e-20 0.082014581)
(-0.0043858521 4.1852499e-21 0.081738892)
(-0.0041115005 -3.966814e-20 0.08160972)
(-0.0038800937 4.6865236e-20 0.081548736)
(-0.0036509654 9.2431222e-20 0.081518392)
(-0.0034783756 2.8684466e-20 0.081501179)
(-0.0032942149 1.507165e-21 0.081493301)
(-0.0031822431 2.5690756e-20 0.081489204)
(-0.0030405357 -2.7145067e-20 0.0814947)
(-0.0029896322 -2.2131906e-20 0.081494635)
(-0.002890367 -7.8562328e-20 0.081507834)
(-0.0029059606 -1.7889926e-19 0.081567667)
(-0.0028722575 -3.8657085e-20 0.082032975)
(-0.0029777385 -2.7002551e-20 0.083336244)
(-0.0028759574 -6.0771932e-20 0.083659011)
(-0.0023094577 -2.501356e-20 0.072277837)
(-0.00074759093 -9.0143571e-20 0.03129427)
(-1.2462093e-06 9.0936813e-22 0.020744594)
(-9.4060363e-06 -2.3214541e-22 0.061606972)
(-2.5268296e-05 -6.7305157e-22 0.10365036)
(-5.1730797e-05 1.3905477e-21 0.14654307)
(-9.065323e-05 1.8670278e-20 0.18986516)
(-0.00014432755 -6.6764546e-21 0.2330976)
(-0.00021530297 -4.6663557e-20 0.27561252)
(-0.00030640178 -1.9189215e-20 0.3166659)
(-0.00042071626 -4.9023772e-21 0.35539462)
(-0.00056158746 4.0160194e-21 0.3908207)
(-0.00073256293 -1.4257535e-20 0.42186663)
(-0.00093730205 -1.2334848e-19 0.44738649)
(-0.0011794315 -3.5727871e-20 0.46621864)
(-0.0014622722 3.933319e-20 0.47726556)
(-0.0017884655 2.4783806e-19 0.4796048)
(-0.0021593342 -2.038543e-19 0.47262943)
(-0.0025741216 1.0604131e-19 0.45620717)
(-0.0030288401 1.7678228e-19 0.43083154)
(-0.003515277 2.7942936e-20 0.39772165)
(-0.0040197894 -2.6646415e-20 0.35881627)
(-0.004523329 -5.3173556e-21 0.31661816)
(-0.0050017848 2.2459927e-23 0.27388572)
(-0.0054290918 -1.7593401e-19 0.23323293)
(-0.0057797648 -1.2383702e-19 0.19675071)
(-0.0060344969 6.2800279e-20 0.16576372)
(-0.0061810105 6.498229e-20 0.14078032)
(-0.0062187705 1.4919322e-19 0.12161375)
(-0.0061535703 5.3343918e-20 0.10759987)
(-0.0060023699 1.1999591e-19 0.097829665)
(-0.0057805985 -7.3570983e-21 0.091340434)
(-0.0055135555 -4.5528003e-20 0.087244069)
(-0.0052141319 -3.0319415e-20 0.084795681)
(-0.0049092606 6.4340967e-20 0.083416427)
(-0.0045999639 2.8272744e-20 0.082687486)
(-0.0043145497 2.8111859e-20 0.082326408)
(-0.00403614 9.3170291e-20 0.082158121)
(-0.0038002978 -1.2463998e-19 0.082082183)
(-0.0035679337 -1.0378074e-19 0.082048847)
(-0.0033915995 -1.3935125e-20 0.082033093)
(-0.003205623 -2.648394e-20 0.082029181)
(-0.0030892003 -1.5871472e-19 0.082028606)
(-0.0029455325 -3.147157e-20 0.082037929)
(-0.0028863718 -2.0961039e-20 0.082039299)
(-0.002783369 -8.9527053e-20 0.082061615)
(-0.0027855003 -1.7260017e-19 0.082163668)
(-0.0027454418 2.6631297e-20 0.082744969)
(-0.0028157516 -2.7923578e-20 0.08404998)
(-0.0026591699 -7.664289e-20 0.083619534)
(-0.0020358722 -1.4798535e-19 0.070530827)
(-0.00060520369 -6.8154788e-20 0.029263581)
(-1.1892667e-06 7.264412e-23 0.021327462)
(-8.9158942e-06 2.3558262e-22 0.063374239)
(-2.3954413e-05 7.1917424e-22 0.10668097)
(-4.9036495e-05 6.3476986e-22 0.15091772)
(-8.5921611e-05 2.9480265e-21 0.19566541)
(-0.00013677603 6.7059691e-21 0.24040471)
(-0.00020400915 2.299642e-21 0.28450572)
(-0.00029028936 -2.6507108e-21 0.32721997)
(-0.00039854359 -2.4091543e-21 0.36767645)
(-0.00053194091 4.6187708e-21 0.40488445)
(-0.00069385919 -6.8700744e-21 0.43774696)
(-0.00088780472 -3.7061164e-20 0.46508933)
(-0.0011172906 -9.942763e-21 0.48570892)
(-0.0013855976 -2.073412e-20 0.4984516)
(-0.0016954496 1.9575561e-20 0.50231967)
(-0.0020484396 1.9687245e-21 0.49661103)
(-0.0024443478 -3.2607237e-21 0.48108075)
(-0.0028800674 7.4641703e-20 0.45610134)
(-0.0033486551 6.4761671e-20 0.42278048)
(-0.0038380918 2.5058023e-20 0.38298175)
(-0.004331137 2.7723842e-20 0.33919841)
(-0.004805358 8.4303792e-20 0.29426608)
(-0.0052358173 -1.0525082e-20 0.25096216)
(-0.0055972689 -1.0468607e-19 0.21160001)
(-0.0058695836 2.597006e-20 0.1777399)
(-0.0060388194 -5.6808839e-20 0.15009263)
(-0.0061022042 7.6794027e-21 0.12861033)
(-0.006063327 5.311725e-20 0.1126963)
(-0.0059370364 4.4848247e-20 0.10144738)
(-0.005737374 4.8907583e-20 0.093864044)
(-0.0054883615 0 0.088997795)
(-0.0052027231 7.6795481e-20 0.086035537)
(-0.0049067434 2.9298678e-20 0.084332251)
(-0.0046024804 2.6069944e-20 0.083411747)
(-0.0043175463 2.7023747e-20 0.082944725)
(-0.0040372889 2.4737109e-20 0.082722279)
(-0.0037954653 -7.9514166e-20 0.082619576)
(-0.0035567524 -9.483685e-20 0.082573984)
(-0.0033695178 -2.6172955e-20 0.082550734)
(-0.0031745298 -2.1146278e-20 0.082543199)
(-0.0030430245 -1.1964553e-19 0.082537517)
(-0.0028890485 -8.1058772e-20 0.082543929)
(-0.0028111267 -2.5444813e-20 0.082539772)
(-0.002698254 -7.1686421e-20 0.082570308)
(-0.0026796821 -1.4631947e-19 0.082715924)
(-0.0026294473 -2.9140134e-20 0.083394368)
(-0.0026600052 -2.5923681e-20 0.084621845)
(-0.0024545799 -6.7924785e-20 0.083387668)
(-0.0017936518 -1.6325456e-19 0.068815812)
(-0.00049017898 -6.3446269e-20 0.027561202)
(-1.120089e-06 -2.3944437e-22 0.021874237)
(-8.3987517e-06 2.3876494e-21 0.065032642)
(-2.2569431e-05 5.9848957e-21 0.1095258)
(-4.6213459e-05 1.189663e-20 0.15502562)
(-8.1000118e-05 1.8944214e-20 0.20111411)
(-0.0001289868 2.6307052e-20 0.24727193)
(-0.00019246612 4.9662758e-20 0.29286765)
(-0.00027398263 1.5135873e-20 0.33714908)
(-0.0003763343 1.0368784e-20 0.37923839)
(-0.00050255987 3.0333605e-20 0.4181337)
(-0.00065591129 5.8847864e-20 0.45272077)
(-0.00083978364 1.6041823e-19 0.48179939)
(-0.0010576094 1.9807926e-20 0.5041303)
(-0.0013126453 -3.32297e-20 0.51850852)
(-0.0016076848 -1.2148595e-19 0.52386836)
(-0.0019445371 7.9672332e-20 0.5194209)
(-0.0023234086 -1.3758052e-19 0.50481703)
(-0.0027418996 -1.4764684e-19 0.48031487)
(-0.0031940945 -7.8798e-20 0.44691277)
(-0.0036693187 -2.37574e-19 0.40639373)
(-0.0041518518 -2.8827762e-20 0.36122719)
(-0.0046207296 2.6174258e-20 0.31430413)
(-0.0050520332 1.2903099e-19 0.26854094)
(-0.0054208209 7.3980264e-20 0.22645303)
(-0.0057062762 -9.3125472e-20 0.18982505)
(-0.0058930397 3.0862e-20 0.15956949)
(-0.0059762495 -1.4774196e-19 0.13578485)
(-0.0059575319 -3.2741327e-20 0.11795346)
(-0.0058496724 -5.712319e-20 0.1051902)
(-0.0056656478 -4.8778696e-21 0.096469172)
(-0.0054282241 -3.5784819e-20 0.090789331)
(-0.0051505295 -1.8598501e-20 0.087274513)
(-0.0048581356 8.2154487e-20 0.08521638)
(-0.0045549967 1.8760191e-19 0.084082268)
(-0.0042676412 2.700473e-20 0.083495589)
(-0.0039848018 2.7688836e-20 0.08321203)
(-0.0037374446 8.0397293e-20 0.083080637)
(-0.0034954718 4.8255567e-20 0.083023775)
(-0.0033012454 -2.4517271e-20 0.082995744)
(-0.0031036622 2.4145955e-20 0.082987494)
(-0.0029633862 1.2922368e-19 0.082979706)
(-0.0028071446 -7.0903575e-20 0.082985513)
(-0.0027174887 -1.5248788e-20 0.082979301)
(-0.002602413 -5.3945678e-20 0.083023451)
(-0.002569148 -2.226229e-21 0.083218014)
(-0.0025130258 -1.4315225e-20 0.083972237)
(-0.002507791 -3.5547087e-20 0.08505684)
(-0.0022628423 -6.8224698e-20 0.083002914)
(-0.0015818298 1.1339214e-20 0.067159354)
(-0.00039758495 -4.8095836e-20 0.026131958)
(-1.0722807e-06 1.898908e-22 0.022393081)
(-8.0079496e-06 -4.7002719e-24 0.066606179)
(-2.1521373e-05 1.5678702e-22 0.11222484)
(-4.4066752e-05 9.0387853e-22 0.15892272)
(-7.72357e-05 9.6295188e-21 0.20628287)
(-0.00012298912 5.0814061e-21 0.25378607)
(-0.00018351272 2.7166474e-21 0.3007996)
(-0.00026123375 5.5733776e-21 0.34656805)
(-0.00035882405 1.7163761e-20 0.39020761)
(-0.00047919067 9.0266423e-21 0.43070655)
(-0.00062545362 -6.9877334e-21 0.46693532)
(-0.00080088551 7.2417917e-21 0.49767096)
(-0.0010088196 2.0061657e-20 0.52164141)
(-0.001252461 1.2720106e-21 0.53759597)
(-0.0015346298 -1.2940159e-20 0.54440731)
(-0.0018572909 1.9502544e-21 0.54120714)
(-0.0022209868 -5.8437877e-21 0.52754991)
(-0.0026239074 5.9192508e-21 0.50358587)
(-0.0030610149 2.3496732e-20 0.470207)
(-0.0035228233 -3.263278e-20 0.42911261)
(-0.0039949914 -6.6372531e-20 0.3827374)
(-0.0044579672 2.4693741e-20 0.33400976)
(-0.0048888989 -2.3344824e-20 0.28596381)
(-0.0052633652 3.7335501e-20 0.24129806)
(-0.0055601687 4.8760741e-20 0.20200989)
(-0.0057629462 -6.381538e-20 0.16921092)
(-0.0058650823 -5.068313e-20 0.14315094)
(-0.0058665796 -4.5141994e-20 0.12340045)
(-0.0057782436 -4.4535361e-20 0.10910236)
(-0.0056120732 -4.6200256e-20 0.099213091)
(-0.0053892722 -1.4279117e-20 0.09268574)
(-0.0051232281 -3.4775553e-20 0.088585616)
(-0.0048381451 -2.2462192e-20 0.086143958)
(-0.0045397144 6.2811588e-20 0.0847729)
(-0.0042525725 2.8020949e-20 0.08404899)
(-0.0039689677 -1.3827114e-20 0.083691591)
(-0.0037163319 2.8938825e-20 0.083522891)
(-0.0034703744 2.8034087e-20 0.083448334)
(-0.0032669283 4.8888017e-21 0.083411068)
(-0.0030639066 2.5628279e-20 0.083397634)
(-0.0029112585 1.2425249e-19 0.083384558)
(-0.0027491509 -5.6423309e-20 0.083386082)
(-0.0026446547 -1.410124e-20 0.083377393)
(-0.0025245755 -3.0216723e-20 0.083436068)
(-0.0024751177 6.9726057e-20 0.083679714)
(-0.0024106874 2.6065864e-20 0.084482928)