/*--------------------------------*- C++ -*----------------------------------*\
| =========                 |                                                 |
| \\      /  F ield         | OpenFOAM: The Open Source CFD Toolbox           |
|  \\    /   O peration     | Version:  3.0.1                                 |
|   \\  /    A nd           | Web:      www.OpenFOAM.org                      |
|    \\/     M anipulation  |                                                 |
\*---------------------------------------------------------------------------*/
FoamFile
{
    version     2.0;
    format      ascii;
    class       surfaceScalarField;
    location    "10000/fluid";
    object      phi;
}
// * * * * * * * * * * * * * * * * * * * * * * * * * * * * * * * * * * * * * //

dimensions      [1 0 -1 0 0 0 0];

internalField   nonuniform List<scalar> 
7860
(
2.7545229e-09
1.4107973e-08
7.8423064e-09
4.3107102e-08
1.2693689e-08
7.6305301e-08
1.6085074e-08
1.1221602e-07
1.7945798e-08
1.5030118e-07
1.8723819e-08
1.9104473e-07
1.8908351e-08
2.3554931e-07
1.8840568e-08
2.8509682e-07
1.8704819e-08
3.4089413e-07
1.8579341e-08
4.0399335e-07
1.8486022e-08
4.7529701e-07
1.8422442e-08
5.5559052e-07
1.8378272e-08
6.4556468e-07
1.8341885e-08
7.4582219e-07
1.8302246e-08
8.5687405e-07
1.8249003e-08
9.7911617e-07
1.8172227e-08
1.1128108e-06
1.8062192e-08
1.2580538e-06
1.7909412e-08
1.4147428e-06
1.7704855e-08
1.5825429e-06
1.7441419e-08
1.7608552e-06
1.7124767e-08
1.9487659e-06
1.6745485e-08
2.1450444e-06
1.6288113e-08
2.3480584e-06
1.5746275e-08
2.5556997e-06
1.5116471e-08
2.7653293e-06
1.4397512e-08
2.9736692e-06
1.359057e-08
3.1766444e-06
1.2699468e-08
3.3691848e-06
1.1730329e-08
3.5449336e-06
1.0691849e-08
3.6958553e-06
9.5964611e-09
3.8116794e-06
8.4593477e-09
3.8791951e-06
7.2983664e-09
3.8813099e-06
6.132014e-09
3.7958572e-06
4.9790073e-09
3.5940911e-06
3.8446752e-09
3.2388631e-06
2.7093483e-09
2.6825034e-06
1.4505606e-09
1.8644246e-06
7.0865275e-07
-6.9440556e-10
1.4802379e-08
-2.3737431e-09
4.4786439e-08
-4.7649696e-09
7.8696529e-08
-7.5878924e-09
1.1503894e-07
-1.0445736e-08
1.5315903e-07
-1.2911243e-08
1.9351023e-07
-1.4693138e-08
2.3733121e-07
-1.5702709e-08
2.8610639e-07
-1.6006961e-08
3.4119838e-07
-1.5744331e-08
4.0373072e-07
-1.5059353e-08
4.7461203e-07
-1.4070828e-08
5.5460199e-07
-1.286529e-08
6.4435913e-07
-1.1503035e-08
7.4445993e-07
-1.002742e-08
8.5539844e-07
-8.4728274e-09
9.7756158e-07
-6.8697531e-09
1.1112077e-06
-5.247562e-09
1.2564316e-06
-3.6354348e-09
1.4131306e-06
-2.06215e-09
1.5809696e-06
-5.5410627e-10
1.7593472e-06
8.7133023e-10
1.9473404e-06
2.1875836e-09
2.1437282e-06
3.3640793e-09
2.3468819e-06
4.3786966e-09
2.5546851e-06
5.2149535e-09
2.7644931e-06
5.8614997e-09
2.9730226e-06
6.3132576e-09
3.1761927e-06
6.5835076e-09
3.3689146e-06
6.677263e-09
3.5448398e-06
6.5870448e-09
3.6959455e-06
6.3283463e-09
3.8119382e-06
5.9231503e-09
3.8796003e-06
5.3973046e-09
3.8818357e-06
4.7763993e-09
3.7964781e-06
4.0820606e-09
3.5947854e-06
3.3084056e-09
3.2396367e-06
2.4019867e-09
2.6834098e-06
1.2097228e-09
1.8656168e-06
7.0986257e-07
-7.8737741e-10
1.5589757e-08
-3.1285474e-09
4.712761e-08
-6.9321844e-09
8.2500167e-08
-1.1779865e-08
1.1988662e-07
-1.6995588e-08
1.5837475e-07
-2.1831047e-08
1.9834569e-07
-2.5706985e-08
2.4120715e-07
-2.8354612e-08
2.8875401e-07
-2.9794081e-08
3.4263785e-07
-3.0217887e-08
4.0415452e-07
-2.9870972e-08
4.7426511e-07
-2.8974346e-08
5.5370536e-07
-2.7695286e-08
6.4308009e-07
-2.6148021e-08
7.4291266e-07
-2.4407305e-08
8.5365773e-07
-2.2523726e-08
9.75678e-07
-2.0535383e-08
1.1092194e-06
-1.8475114e-08
1.2543713e-06
-1.6374115e-08
1.4110296e-06
-1.4263162e-08
1.5788587e-06
-1.2172422e-08
1.7572565e-06
-1.0138425e-08
1.9453064e-06
-8.1886308e-09
2.1417784e-06
-6.3478083e-09
2.3450411e-06
-4.642898e-09
2.5529801e-06
-3.0969375e-09
2.7629471e-06
-1.7284843e-09
2.9716542e-06
-5.4980343e-10
3.175014e-06
4.4207112e-10
3.3679227e-06
1.244574e-09
3.5440373e-06
1.8457375e-09
3.6953444e-06
2.2521906e-09
3.8115317e-06
2.4789689e-09
3.8793735e-06
2.546003e-09
3.8817687e-06
2.4766056e-09
3.7965475e-06
2.3047755e-09
3.5949573e-06
1.9952996e-09
3.2399461e-06
1.4884431e-09
2.6839167e-06
6.9457415e-10
1.8664107e-06
7.1055703e-07
-7.4423552e-10
1.6333994e-08
-3.0876258e-09
4.9471e-08
-7.1713462e-09
8.6583887e-08
-1.2778951e-08
1.2549422e-07
-1.9292874e-08
1.6488868e-07
-2.5840089e-08
2.0489291e-07
-3.1582704e-08
2.4694977e-07
-3.5974216e-08
2.9314552e-07
-3.8841396e-08
3.4550503e-07
-4.0303821e-08
4.0561695e-07
-4.0629729e-08
4.7459102e-07
-4.0112292e-08
5.5318792e-07
-3.8999251e-08
6.4196705e-07
-3.7471011e-08
7.4138442e-07
-3.5647748e-08
8.5183446e-07
-3.3607391e-08
9.7363765e-07
-3.1403147e-08
1.1070151e-06
-2.9076023e-08
1.2520442e-06
-2.666213e-08
1.4086158e-06
-2.4196121e-08
1.5763927e-06
-2.1712496e-08
1.7547728e-06
-1.9250108e-08
1.942844e-06
-1.6841509e-08
2.1393698e-06
-1.4516341e-08
2.3427159e-06
-1.2305225e-08
2.550769e-06
-1.0235608e-08
2.7608775e-06
-8.3303795e-09
2.9697489e-06
-6.6064938e-09
3.1732901e-06
-5.0805278e-09
3.3663967e-06
-3.7587843e-09
3.5427156e-06
-2.6365542e-09
3.6942222e-06
-1.7101574e-09
3.8106053e-06
-9.6872602e-10
3.8786321e-06
-3.9622942e-10
3.8811963e-06
2.7901458e-11
3.7961234e-06
3.3072848e-10
3.5946545e-06
4.8595028e-10
3.2397908e-06
4.4842659e-10
2.6839542e-06
1.9425418e-10
1.8666649e-06
7.1075126e-07
-6.7282951e-10
1.7006823e-08
-2.8591729e-09
5.1657342e-08
-6.8222731e-09
9.0546988e-08
-1.2534913e-08
1.3120686e-07
-1.9553678e-08
1.7190744e-07
-2.7063558e-08
2.1240278e-07
-3.412176e-08
2.5400797e-07
-3.9963076e-08
2.9898684e-07
-4.418608e-08
3.4972803e-07
-4.6756088e-08
4.0818696e-07
-4.7885943e-08
4.7572087e-07
-4.7890287e-08
5.5319227e-07
-4.7076439e-08
6.411532e-07
-4.5689772e-08
7.3999775e-07
-4.390294e-08
8.5004763e-07
-4.1828959e-08
9.7156367e-07
-3.954127e-08
1.1047274e-06
-3.7091212e-08
1.2495941e-06
-3.4519698e-08
1.4060442e-06
-3.1863712e-08
1.5737367e-06
-2.9159507e-08
1.7520686e-06
-2.6446137e-08
1.9401307e-06
-2.3758242e-08
2.1366819e-06
-2.1127812e-08
2.3400855e-06
-1.8587298e-08
2.5482285e-06
-1.6166572e-08
2.7584568e-06
-1.3891229e-08
2.9674736e-06
-1.1781661e-08
3.1711805e-06
-9.8568724e-09
3.3644719e-06
-8.1260613e-09
3.5409848e-06
-6.5876269e-09
3.6926837e-06
-5.2391195e-09
3.8092568e-06
-4.0712865e-09
3.8774642e-06
-3.0693022e-09
3.8801943e-06
-2.2157999e-09
3.7952699e-06
-1.5046399e-09
3.5939433e-06
-9.2971407e-10
3.2392159e-06
-5.1638673e-10
2.6835409e-06
-2.507088e-10
1.8663994e-06
7.1050046e-07
-6.1824535e-10
1.7625069e-08
-2.6563809e-09
5.3695477e-08
-6.4288333e-09
9.431944e-08
-1.2029734e-08
1.3680776e-07
-1.9178514e-08
1.7905622e-07
-2.7185788e-08
2.2041006e-07
-3.511817e-08
2.6194035e-07
-4.2089032e-08
3.059577e-07
-4.75047e-08
3.551437e-07
-5.1151969e-08
4.1183423e-07
-5.3134651e-08
4.7770355e-07
-5.3737699e-08
5.5379532e-07
-5.3295839e-08
6.4071134e-07
-5.2107365e-08
7.3880928e-07
-5.0398548e-08
8.483388e-07
-4.8324026e-08
9.6948916e-07
-4.5984442e-08
1.1023879e-06
-4.3446564e-08
1.2470562e-06
-4.0759267e-08
1.4033569e-06
-3.7963413e-08
1.5709408e-06
-3.5097469e-08
1.7492027e-06
-3.2200937e-08
1.9372341e-06
-2.9309897e-08
2.1337909e-06
-2.645783e-08
2.3372334e-06
-2.3678069e-08
2.5454488e-06
-2.1001535e-08
2.7557802e-06
-1.8455022e-08
2.9649271e-06
-1.6060509e-08
3.168786e-06
-1.3837498e-08
3.3622489e-06
-1.1796307e-08
3.5389436e-06
-9.9368878e-09
3.6908243e-06
-8.2568683e-09
3.8075768e-06
-6.7473498e-09
3.8759547e-06
-5.3935106e-09
3.8788405e-06
-4.1781968e-09
3.7940545e-06
-3.092699e-09
3.5928578e-06
-2.1285763e-09
3.2382518e-06
-1.3001086e-09
2.6827123e-06
-5.8766731e-10
1.8656871e-06
7.0991274e-07
-5.724915e-10
1.8197561e-08
-2.477596e-09
5.5600581e-08
-6.0513203e-09
9.7893166e-08
-1.1463079e-08
1.4221952e-07
-1.8559359e-08
1.861525e-07
-2.6783355e-08
2.2863405e-07
-3.5268212e-08
2.7042521e-07
-4.308418e-08
3.1377366e-07
-4.9502839e-08
3.6156235e-07
-5.414642e-08
4.1647781e-07
-5.6986297e-08
4.8054343e-07
-5.8238956e-08
5.5504798e-07
-5.823248e-08
6.4070487e-07
-5.7298193e-08
7.3787499e-07
-5.5709641e-08
8.4675025e-07
-5.3665172e-08
9.6744468e-07
-5.1297468e-08
1.1000202e-06
-4.8693496e-08
1.2444522e-06
-4.5913264e-08
1.4005767e-06
-4.3003445e-08
1.568031e-06
-4.0005409e-08
1.7462047e-06
-3.6959762e-08
1.9341885e-06
-3.3903907e-08
2.130735e-06
-3.0872728e-08
2.3342023e-06
-2.7900268e-08
2.5424763e-06
-2.5018293e-08
2.7528982e-06
-2.2254412e-08
2.9621632e-06
-1.9631527e-08
3.1661631e-06
-1.716919e-08
3.3597866e-06
-1.487818e-08
3.5366526e-06
-1.2758963e-08
3.688705e-06
-1.0808538e-08
3.8056264e-06
-9.0174503e-09
3.8741636e-06
-7.3699039e-09
3.8771929e-06
-5.847609e-09
3.7925323e-06
-4.4389953e-09
3.5914492e-06
-3.1329503e-09
3.2369458e-06
-1.9351752e-09
2.6815145e-06
-8.3483786e-10
1.8645868e-06
7.0907791e-07
-5.3406524e-10
1.8731627e-08
-2.3226826e-09
5.7389197e-08
-5.7090639e-09
1.0127955e-07
-1.09098e-08
1.4742025e-07
-1.7866601e-08
1.931093e-07
-2.6141668e-08
2.3690912e-07
-3.4956196e-08
2.7923974e-07
-4.3387658e-08
3.2220512e-07
-5.0626022e-08
3.6880072e-07
-5.6159456e-08
4.2201125e-07
-5.9826316e-08
4.8421029e-07
-6.1751881e-08
5.5697354e-07
-6.2228768e-08
6.4118176e-07
-6.1598906e-08
7.3724513e-07
-6.017172e-08
8.4532306e-07
-5.818689e-08
9.6545986e-07
-5.5811953e-08
1.0976452e-06
-5.315792e-08
1.2417982e-06
-5.0299381e-08
1.3977182e-06
-4.7290877e-08
1.5650225e-06
-4.4177911e-08
1.7430917e-06
-4.1002798e-08
1.9310134e-06
-3.7804477e-08
2.1275367e-06
-3.4619136e-08
2.3310169e-06
-3.1481692e-08
2.5393389e-06
-2.8424507e-08
2.7498411e-06
-2.5476022e-08
2.9592147e-06
-2.2659698e-08
3.1633468e-06
-1.9995053e-08
3.357122e-06
-1.7492923e-08
3.5341505e-06
-1.5154061e-08
3.6863662e-06
-1.2974596e-08
3.803447e-06
-1.0944073e-08
3.8721331e-06
-9.0455101e-09
3.8752944e-06
-7.2590214e-09
3.7907459e-06
-5.5701383e-09
3.5897602e-06
-3.9646097e-09
3.2353403e-06
-2.4426368e-09
2.6799925e-06
-1.0135956e-09
1.8631577e-06
7.0806438e-07
-5.0119064e-10
1.9232818e-08
-2.1876267e-09
5.9075632e-08
-5.4024299e-09
1.0449435e-07
-1.0392099e-08
1.5240992e-07
-1.7169449e-08
1.9988665e-07
-2.5397798e-08
2.4513747e-07
-3.4389973e-08
2.8823191e-07
-4.3259414e-08
3.3107457e-07
-5.1155434e-08
3.7669674e-07
-5.7465469e-08
4.2832128e-07
-6.1907375e-08
4.8865221e-07
-6.4506501e-08
5.5957267e-07
-6.5499379e-08
6.4217463e-07
-6.5217487e-08
7.3696324e-07
-6.399189e-08
8.4409746e-07
-6.2097799e-08
9.6356578e-07
-5.9737621e-08
1.095285e-06
-5.7049266e-08
1.2391099e-06
-5.4124883e-08
1.3947938e-06
-5.1029221e-08
1.5619268e-06
-4.7813187e-08
1.7398756e-06
-4.4521676e-08
1.9277219e-06
-4.11954e-08
2.1242104e-06
-3.787199e-08
2.3276935e-06
-3.458722e-08
2.5360541e-06
-3.1374263e-08
2.7466281e-06
-2.8262186e-08
2.9561026e-06
-2.5275078e-08
3.1603597e-06
-2.2432439e-08
3.3542794e-06
-1.9745131e-08
3.5314631e-06
-1.7213926e-08
3.683835e-06
-1.4834255e-08
3.8010673e-06
-1.2594487e-08
3.8698933e-06
-1.0476301e-08
3.8731762e-06
-8.4583741e-09
3.7887279e-06
-6.522929e-09
3.5878247e-06
-4.6534832e-09
3.2334709e-06
-2.8473112e-09
2.6781862e-06
-1.1424476e-09
1.8614529e-06
7.0692196e-07
-4.7269888e-10
1.9705517e-08
-2.0690444e-09
6.0671977e-08
-5.1282034e-09
1.0755351e-07
-9.9156055e-09
1.5719732e-07
-1.649754e-08
2.0646858e-07
-2.4621593e-08
2.5326152e-07
-3.3687876e-08
2.972982e-07
-4.2860534e-08
3.4024722e-07
-5.1277124e-08
3.8511333e-07
-5.8254264e-08
4.3529842e-07
-6.3407415e-08
4.9380536e-07
-6.6663136e-08
5.6282839e-07
-6.818959e-08
6.4370109e-07
-6.8290445e-08
7.3706409e-07
-6.7303727e-08
8.4311075e-07
-6.5531856e-08
9.617939e-07
-6.3209817e-08
1.092963e-06
-6.0503753e-08
1.2364038e-06
-5.7525882e-08
1.3918159e-06
-5.4353388e-08
1.5587543e-06
-5.1044085e-08
1.7365663e-06
-4.7646373e-08
1.9243241e-06
-4.4203078e-08
2.1207671e-06
-4.0753366e-08
2.3242438e-06
-3.7334062e-08
2.5326348e-06
-3.3979128e-08
2.7432732e-06
-3.0718267e-08
2.9528418e-06
-2.7576296e-08
3.1572177e-06
-2.4572679e-08
3.3512757e-06
-2.1718334e-08
3.5286087e-06
-1.9014219e-08
3.6811309e-06
-1.6454952e-08
3.7985081e-06
-1.4027908e-08
3.8674662e-06
-1.1713629e-08
3.8708619e-06
-9.4889869e-09
3.7865033e-06
-7.3337771e-09
3.5856695e-06
-5.2291915e-09
3.2313663e-06
-3.1723968e-09
2.6761295e-06
-1.2359935e-09
1.8595165e-06
7.0568588e-07
-4.4774068e-10
2.0153258e-08
-1.9641819e-09
6.2188417e-08
-4.8824582e-09
1.1047179e-07
-9.4797374e-09
1.617946e-07
-1.5862882e-08
2.1285173e-07
-2.3849341e-08
2.6124798e-07
-3.2919105e-08
3.0636796e-07
-4.2293372e-08
3.496215e-07
-5.1117393e-08
3.9393734e-07
-5.8661325e-08
4.4284236e-07
-6.4457397e-08
4.9960143e-07
-6.8340452e-08
5.6671144e-07
-7.0404935e-08
6.4576557e-07
-7.0913893e-08
7.3757305e-07
-7.019876e-08
8.4239562e-07
-6.857962e-08
9.6017476e-07
-6.631984e-08
1.0907032e-06
-6.3613605e-08
1.2336976e-06
-6.0594989e-08
1.3887973e-06
-5.7355646e-08
1.555515e-06
-5.396188e-08
1.7331726e-06
-5.046659e-08
1.9208289e-06
-4.6915224e-08
2.1172158e-06
-4.3348644e-08
2.3206772e-06
-3.9804794e-08
2.5290909e-06
-3.6318484e-08
2.7397869e-06
-3.2920216e-08
2.9494435e-06
-2.9635321e-08
3.1539328e-06
-2.6483507e-08
3.3481239e-06
-2.3475731e-08
3.525601e-06
-2.0613123e-08
3.6782683e-06
-1.7889754e-08
3.7957847e-06
-1.5291997e-08
3.8648685e-06
-1.2799412e-08
3.8683693e-06
-1.0387385e-08
3.7840913e-06
-8.0332921e-09
3.5833154e-06
-5.716669e-09
3.2290496e-06
-3.4374297e-09
2.6738503e-06
-1.3055955e-09
1.8573844e-06
7.0438056e-07
-4.256823e-10
2.0578941e-08
-1.8708287e-09
6.3633563e-08
-4.6614696e-09
1.1326243e-07
-9.0816636e-09
1.6621479e-07
-1.5269296e-08
2.1903936e-07
-2.3099795e-08
2.6907848e-07
-3.2124831e-08
3.15393e-07
-4.1624216e-08
3.5912088e-07
-5.0763423e-08
4.0307655e-07
-5.8785158e-08
4.5086409e-07
-6.5156155e-08
5.0597243e-07
-6.9629603e-08
5.7118488e-07
-7.2225952e-08
6.4836192e-07
-7.3159268e-08
7.3850637e-07
-7.2742955e-08
8.419793e-07
-7.1304989e-08
9.587368e-07
-6.9131566e-08
1.0885298e-06
-6.644337e-08
1.2310094e-06
-6.3397233e-08
1.3857512e-06
-6.0101028e-08
1.5522188e-06
-5.6631112e-08
1.7297027e-06
-5.3045964e-08
1.9172437e-06
-4.9394215e-08
2.113564e-06
-4.5718684e-08
2.3170017e-06
-4.2058553e-08
2.5254308e-06
-3.8449566e-08
2.7361779e-06
-3.4922966e-08
2.9459169e-06
-3.1504727e-08
3.1505145e-06
-2.8214743e-08
3.3448339e-06
-2.5064222e-08
3.5224504e-06
-2.205443e-08
3.6752585e-06
-1.9178956e-08
3.7929092e-06
-1.6423469e-08
3.8621131e-06
-1.3766453e-08
3.8657123e-06
-1.1182197e-08
3.781507e-06
-8.6457803e-09
3.580779e-06
-6.1358441e-09
3.2265396e-06
-3.6574991e-09
2.6713719e-06
-1.3583601e-09
1.8550853e-06
7.0302223e-07
-4.0603738e-10
2.0984979e-08
-1.787207e-09
6.5014733e-08
-4.4619431e-09
1.1593717e-07
-8.7178646e-09
1.7047072e-07
-1.471673e-08
2.2503823e-07
-2.238222e-08
2.7674397e-07
-3.1329734e-08
3.2434052e-07
-4.0896571e-08
3.6868772e-07
-5.0276229e-08
4.124562e-07
-5.8698275e-08
4.5928614e-07
-6.557946e-08
5.1285362e-07
-7.0602274e-08
5.7620769e-07
-7.3716325e-08
6.5147597e-07
-7.5082117e-08
7.3987217e-07
-7.4986029e-08
8.4188321e-07
-7.3754808e-08
9.5750558e-07
-7.1691155e-08
1.0864661e-06
-6.9039518e-08
1.2283577e-06
-6.5979548e-08
1.3826912e-06
-6.2636607e-08
1.5488759e-06
-5.9098579e-08
1.7261646e-06
-5.5430692e-08
1.9135759e-06
-5.1685388e-08
2.1098187e-06
-4.79078e-08
2.313224e-06
-4.4138456e-08
2.5216615e-06
-4.0414105e-08
2.7324535e-06
-3.6766785e-08
2.9422696e-06
-3.3223084e-08
3.1469708e-06
-2.9803256e-08
3.3414141e-06
-2.6518635e-08
3.5191658e-06
-2.3370765e-08
3.6721106e-06
-2.035278e-08
3.7898912e-06
-1.7449964e-08
3.8592102e-06
-1.4639718e-08
3.8629021e-06
-1.1895229e-08
3.7787625e-06
-9.1899202e-09
3.5780738e-06
-6.5019759e-09
3.2238516e-06
-3.8435533e-09
2.6687136e-06
-1.4002354e-09
1.8526419e-06
7.016221e-07
-3.8842465e-10
2.1373404e-08
-1.7118825e-09
6.6338191e-08
-4.2810451e-09
1.1850633e-07
-8.3847924e-09
1.7457446e-07
-1.420331e-08
2.3085675e-07
-2.1700609e-08
2.8424126e-07
-3.0548514e-08
3.3318842e-07
-4.0139255e-08
3.7827846e-07
-4.9698921e-08
4.2201586e-07
-5.8454585e-08
4.6804181e-07
-6.5785984e-08
5.2018502e-07
-7.1315715e-08
5.8173743e-07
-7.4927627e-08
6.5508788e-07
-7.6727109e-08
7.4167165e-07
-7.696698e-08
8.4212309e-07
-7.5964716e-08
9.5650332e-07
-7.4032941e-08
1.0845344e-06
-7.1436356e-08
1.2257611e-06
-6.837654e-08
1.3796314e-06
-6.49972e-08
1.5454965e-06
-6.139901e-08
1.7225664e-06
-5.7655099e-08
1.9098319e-06
-5.382246e-08
2.1059861e-06
-4.9948867e-08
2.3093504e-06
-4.6076489e-08
2.5177891e-06
-4.2243087e-08
2.7286201e-06
-3.8481576e-08
2.9385081e-06
-3.481913e-08
3.1433084e-06
-3.127636e-08
3.3378713e-06
-2.7864918e-08
3.5157544e-06
-2.4586484e-08
3.6688322e-06
-2.1434094e-08
3.7867389e-06
-1.8392302e-08
3.8561684e-06
-1.5437952e-08
3.8599478e-06
-1.2543104e-08
3.7758676e-06
-9.6798402e-09
3.5752105e-06
-6.8264255e-09
3.2209982e-06
-4.004066e-09
2.6658912e-06
-1.4344029e-09
1.8500723e-06
7.0018758e-07
-3.7253767e-10
2.1745942e-08
-1.6436752e-09
6.7609328e-08
-4.1163666e-09
1.2097902e-07
-8.0791251e-09
1.7853722e-07
-1.3726389e-08
2.3650401e-07
-2.1056019e-08
2.915709e-07
-2.9789742e-08
3.4192214e-07
-3.9371468e-08
3.8786019e-07
-4.9062266e-08
4.3170666e-07
-5.8094503e-08
4.7707404e-07
-6.5821555e-08
5.2791208e-07
-7.1816108e-08
5.8773197e-07
-7.5902331e-08
6.5917411e-07
-7.8131097e-08
7.4390041e-07
-7.8717408e-08
8.427094e-07
-7.7962723e-08
9.5574863e-07
-7.6183246e-08
1.0827549e-06
-7.3659789e-08
1.2232377e-06
-7.0614323e-08
1.3765859e-06
-6.7209106e-08
1.5420913e-06
-6.3558693e-08
1.718916e-06
-5.9745207e-08
1.9060185e-06
-5.5830964e-08
2.1020719e-06
-5.1866862e-08
2.3053863e-06
-4.789689e-08
2.5138191e-06
-4.3959968e-08
2.7246832e-06
-4.0089882e-08
2.934638e-06
-3.6314471e-08
3.139533e-06
-3.2654726e-08
3.3342116e-06
-2.9122633e-08
3.5122223e-06
-2.5720055e-08
3.6654296e-06
-2.2439912e-08
3.7834587e-06
-1.9266264e-08
3.8529948e-06
-1.6175403e-08
3.8568569e-06
-1.3138332e-08
3.7728306e-06
-1.0126181e-08
3.5721983e-06
-7.1179051e-09
3.21799e-06
-4.1448914e-09
2.6629181e-06
-1.4635997e-09
1.8473909e-06
6.9872408e-07
-3.5813156e-10
2.2104074e-08
-1.5816162e-09
6.8832813e-08
-3.9658598e-09
1.2336326e-07
-7.797862e-09
1.8236922e-07
-1.3283067e-08
2.4198922e-07
-2.0447888e-08
2.9873572e-07
-2.9058153e-08
3.5053241e-07
-3.8605979e-08
3.9740802e-07
-4.8388357e-08
4.4148903e-07
-5.7648535e-08
4.8633423e-07
-6.5722193e-08
5.3598573e-07
-7.2140963e-08
5.9415074e-07
-7.6675773e-08
6.6370892e-07
-7.9325069e-08
7.4654969e-07
-8.0263636e-08
8.4364797e-07
-7.9771555e-08
9.5525655e-07
-7.8162784e-08
1.0811461e-06
-7.5729822e-08
1.2208047e-06
-7.2712882e-08
1.373569e-06
-6.9292509e-08
1.5386709e-06
-6.5597886e-08
1.7152214e-06
-6.172109e-08
1.9021417e-06
-5.7730645e-08
2.0980814e-06
-5.3681023e-08
2.3013367e-06
-4.9618317e-08
2.5097564e-06
-4.5582786e-08
2.7206476e-06
-4.1609057e-08
2.9306643e-06
-3.772574e-08
3.1356497e-06
-3.3954176e-08
3.33044e-06
-3.0306721e-08
3.5085748e-06
-2.6785468e-08
3.6619084e-06
-2.3383275e-08
3.7800565e-06
-2.0083791e-08
3.8496953e-06
-1.6862733e-08
3.8536358e-06
-1.3690432e-08
3.7696583e-06
-1.0536896e-08
3.5690447e-06
-7.3828203e-09
3.2148359e-06
-4.2704987e-09
2.6598059e-06
-1.4889785e-09
1.8446094e-06
6.972352e-07
-3.4500474e-10
2.2449079e-08
-1.5249051e-09
7.0012714e-08
-3.8277856e-09
1.2566614e-07
-7.5383402e-09
1.8607978e-07
-1.2870475e-08
2.4732135e-07
-1.9874752e-08
3.0573999e-07
-2.8356064e-08
3.5901372e-07
-3.7851219e-08
4.0690318e-07
-4.7693099e-08
4.5133091e-07
-5.7139853e-08
4.9578098e-07
-6.551633e-08
5.4436221e-07
-7.2320921e-08
6.0095533e-07
-7.7277609e-08
6.6866561e-07
-8.0335416e-08
7.496075e-07
-8.1628022e-08
8.4494058e-07
-8.1410143e-08
9.5503867e-07
-7.9988295e-08
1.0797243e-06
-7.7662247e-08
1.2184787e-06
-7.4687854e-08
1.3705946e-06
-7.1263166e-08
1.5352463e-06
-6.7532395e-08
1.7114906e-06
-6.3598531e-08
1.8982078e-06
-5.9537e-08
2.0940199e-06
-5.5406466e-08
2.2972062e-06
-5.1255442e-08
2.5056054e-06
-4.7125639e-08
2.7165178e-06
-4.305269e-08
2.9265913e-06
-3.906585e-08
3.1316628e-06
-3.518699e-08
3.3265611e-06
-3.1428793e-08
3.5048166e-06
-2.7793635e-08
3.6582732e-06
-2.427425e-08
3.7765371e-06
-2.0854089e-08
3.8462751e-06
-1.7508333e-08
3.85029e-06
-1.4206532e-08
3.7663565e-06
-1.091817e-08
3.5657564e-06
-7.626011e-09
3.2115438e-06
-4.3841138e-09
2.656564e-06
-1.5116621e-09
1.841737e-06
6.9572348e-07
-3.3298785e-10
2.2782067e-08
-1.4728668e-09
7.1152591e-08
-3.7006677e-09
1.2789394e-07
-7.298214e-09
1.8967732e-07
-1.2485867e-08
2.52509e-07
-1.9334712e-08
3.1258884e-07
-2.7684279e-08
3.6736329e-07
-3.7112668e-08
4.1633156e-07
-4.6988009e-08
4.6120625e-07
-5.6586132e-08
5.0537911e-07
-6.5226554e-08
5.5300264e-07
-7.2381121e-08
6.081099e-07
-7.773283e-08
6.7401732e-07
-8.1184828e-08
7.5305949e-07
-8.2829892e-08
8.4658565e-07
-8.2894624e-08
9.551034e-07
-8.1673677e-08
1.0785033e-06
-7.9469801e-08
1.2162748e-06
-7.655162e-08
1.3676764e-06
-7.3133502e-08
1.5318281e-06
-6.937477e-08
1.7077319e-06
-6.538999e-08
1.894223e-06
-6.1262352e-08
2.0898923e-06
-5.7055228e-08
2.292999e-06
-5.2819934e-08
2.5013701e-06
-4.8599768e-08
2.7122977e-06
-4.4431478e-08
2.922423e-06
-4.0345066e-08
3.1275764e-06
-3.6362898e-08
3.322579e-06
-3.2497999e-08
3.5009517e-06
-2.8753053e-08
3.6545283e-06
-2.512077e-08
3.7729048e-06
-2.1584395e-08
3.8427387e-06
-1.8118556e-08
3.8468242e-06
-1.4692289e-08
3.7629303e-06
-1.1274778e-08
3.5623389e-06
-7.8512639e-09
3.2081203e-06
-4.4880635e-09
2.6532008e-06
-1.5325779e-09
1.8387815e-06
6.9419094e-07
-3.2194495e-10
2.3104012e-08
-1.4249344e-09
7.2255581e-08
-3.5832426e-09
1.3005225e-07
-7.0754283e-09
1.9316951e-07
-1.2126721e-08
2.5756029e-07
-1.8825687e-08
3.1928781e-07
-2.704264e-08
3.7558024e-07
-3.6393756e-08
4.2568268e-07
-4.6281401e-08
4.7109389e-07
-5.6000909e-08
5.1509862e-07
-6.4870881e-08
5.6187261e-07
-7.2342271e-08
6.1558129e-07
-7.8062594e-08
6.7973764e-07
-8.1892897e-08
7.5688979e-07
-8.388613e-08
8.4857889e-07
-8.4238985e-08
9.5545625e-07
-8.3230658e-08
1.077495e-06
-8.1162955e-08
1.2142071e-06
-7.8314151e-08
1.3648276e-06
-7.4913458e-08
1.5284274e-06
-7.1135044e-08
1.7039535e-06
-6.71056e-08
1.8901935e-06
-6.2916701e-08
2.0857034e-06
-5.8637071e-08
2.2887194e-06
-5.4321185e-08
2.4970542e-06
-5.0014235e-08
2.7079907e-06
-4.5754115e-08
2.9181629e-06
-4.1571668e-08
3.1233939e-06
-3.7489662e-08
3.318497e-06
-3.3521636e-08
3.4969837e-06
-2.9670579e-08
3.6506772e-06
-2.5929126e-08
3.7691634e-06
-2.228036e-08
3.83909e-06
-1.8698561e-08
3.8432424e-06
-1.5152222e-08
3.7593839e-06
-1.1610364e-08
3.558797e-06
-8.061461e-09
3.2045714e-06
-4.5842591e-09
2.6497235e-06
-1.5518533e-09
1.8357492e-06
6.9263912e-07
-3.11757e-10
2.341577e-08
-1.3806308e-09
7.3324455e-08
-3.4744291e-09
1.3214605e-07
-6.8681901e-09
1.9656327e-07
-1.1790729e-08
2.6248283e-07
-1.8345562e-08
3.2584264e-07
-2.6430412e-08
3.8366509e-07
-3.5696535e-08
4.349488e-07
-4.5579252e-08
4.809766e-07
-5.5394615e-08
5.2491398e-07
-6.4463719e-08
5.7094172e-07
-7.2221474e-08
6.2333904e-07
-7.828487e-08
6.8580104e-07
-8.2476667e-08
7.6108159e-07
-8.4811601e-08
8.5091382e-07
-8.5455559e-08
9.5610021e-07
-8.4669429e-08
1.0767089e-06
-8.2750478e-08
1.2122882e-06
-7.9983643e-08
1.3620607e-06
-7.6611077e-08
1.5250549e-06
-7.282136e-08
1.7001638e-06
-6.8753473e-08
1.8861257e-06
-6.4508134e-08
2.081458e-06
-6.0159926e-08
2.2843712e-06
-5.5766947e-08
2.4926613e-06
-5.137646e-08
2.7036002e-06
-4.7027669e-08
2.9138141e-06
-4.2752289e-08
3.1191185e-06
-3.8573632e-08
3.3143184e-06
-3.4505689e-08
3.4929157e-06
-3.0551664e-08
3.6467232e-06
-2.6704353e-08
3.7653161e-06
-2.2946647e-08
3.8353322e-06
-1.9252371e-08
3.8395482e-06
-1.5589754e-08
3.7557213e-06
-1.1927935e-08
3.5551352e-06
-8.2589325e-09
3.2009024e-06
-4.6739073e-09
2.6461384e-06
-1.5698695e-09
1.8326454e-06
6.9106909e-07
-3.0232542e-10
2.3718096e-08
-1.3395478e-09
7.4361677e-08
-3.373294e-09
1.341798e-07
-6.6749248e-09
1.998649e-07
-1.1475813e-08
2.6728372e-07
-1.7892276e-08
3.322591e-07
-2.5846507e-08
3.9161932e-07
-3.5022071e-08
4.4412437e-07
-4.4885854e-08
4.9084038e-07
-5.4775268e-08
5.348034e-07
-6.401665e-08
5.8018309e-07
-7.2032914e-08
6.3135531e-07
-7.8414978e-08
6.9218311e-07
-8.2950998e-08
7.6561761e-07
-8.5619469e-08
8.535823e-07
-8.6555299e-08
9.5703604e-07
-8.5998929e-08
1.0761525e-06
-8.4239924e-08
1.2105291e-06
-8.1566884e-08
1.3593877e-06
-7.8232979e-08
1.521721e-06
-7.444031e-08
1.6963711e-06
-7.0340353e-08
1.8820257e-06
-6.6043346e-08
2.077161e-06
-6.1630409e-08
2.2799583e-06
-5.7163568e-08
2.4881944e-06
-5.2692562e-08
2.6991292e-06
-4.8258005e-08
2.9093796e-06
-4.3892503e-08
3.114753e-06
-3.9620056e-08
3.3100459e-06
-3.5454993e-08
3.4887507e-06
-3.1400878e-08
3.6426691e-06
-2.7450646e-08
3.7613659e-06
-2.3586919e-08
3.8314685e-06
-1.9783371e-08
3.8357447e-06
-1.6007885e-08
3.7519458e-06
-1.2229891e-08
3.5513573e-06
-8.4454209e-09
3.1971178e-06
-4.757956e-09
2.642451e-06
-1.5871563e-09
1.8294746e-06
6.8948192e-07
-2.9356707e-10
2.4011663e-08
-1.3013364e-09
7.5369445e-08
-3.2790353e-09
1.361575e-07
-6.4942552e-09
2.0308012e-07
-1.1180095e-08
2.7196956e-07
-1.7463869e-08
3.3854287e-07
-2.5289644e-08
3.994451e-07
-3.4370769e-08
4.5320549e-07
-4.4204199e-08
5.0067381e-07
-5.4149063e-08
5.4474826e-07
-6.3538999e-08
5.8957303e-07
-7.1788389e-08
6.396047e-07
-7.8465987e-08
6.988607e-07
-8.3328862e-08
7.7048049e-07
-8.63215e-08
8.5657493e-07
-8.7548104e-08
9.5826264e-07
-8.7227153e-08
1.0758315e-06
-8.563784e-08
1.2089398e-06
-8.3069658e-08
1.3568195e-06
-7.9784626e-08
1.5184359e-06
-7.5997394e-08
1.6925839e-06
-7.1871729e-08
1.8779e-06
-6.7527892e-08
2.0728172e-06
-6.3053925e-08
2.2754843e-06
-5.8516391e-08
2.4836569e-06
-5.3967656e-08
2.6945805e-06
-4.9449981e-08
2.9048619e-06
-4.4996928e-08
3.1102999e-06
-4.0633218e-08
3.3056822e-06
-3.6373581e-08
3.4844911e-06
-3.2221957e-08
3.6385174e-06
-2.8171352e-08
3.7573153e-06
-2.4204297e-08
3.8275015e-06
-2.0294312e-08
3.8318347e-06
-1.6408909e-08
3.7480603e-06
-1.2518175e-08
3.5474666e-06
-8.6224531e-09
3.193222e-06
-4.8375706e-09
2.6386662e-06
-1.6034776e-09
1.8262406e-06
6.8787835e-07
-2.8540839e-10
2.4297072e-08
-1.2656915e-09
7.6349728e-08
-3.1909557e-09
1.3808276e-07
-6.3249724e-09
2.0621414e-07
-1.0901897e-08
2.7654649e-07
-1.7058491e-08
3.4469947e-07
-2.4758453e-08
4.0714506e-07
-3.3742559e-08
4.621896e-07
-4.3536389e-08
5.1046763e-07
-5.3520775e-08
5.5473265e-07
-6.3038318e-08
5.9909058e-07
-7.1497737e-08
6.4806411e-07
-7.8449079e-08
7.0581205e-07
-8.362164e-08
7.7565305e-07
-8.6928141e-08
8.5988143e-07
-8.8442844e-08
9.5977735e-07
-8.8361278e-08
1.07575e-06
-8.6950048e-08
1.2075286e-06
-8.4496906e-08
1.3543664e-06
-8.1270605e-08
1.5152096e-06
-7.7497112e-08
1.6888104e-06
-7.3352221e-08
1.8737551e-06
-6.8966375e-08
2.0684313e-06
-6.4435105e-08
2.2709531e-06
-5.9829912e-08
2.4790517e-06
-5.5206081e-08
2.6899567e-06
-5.0607718e-08
2.9002635e-06
-4.6069484e-08
3.1057617e-06
-4.161678e-08
3.3012295e-06
-3.7264887e-08
3.4801392e-06
-3.3018034e-08
3.6342706e-06
-2.8869382e-08
3.7531666e-06
-2.480144e-08
3.8234335e-06
-2.0787436e-08
3.8278206e-06
-1.6794752e-08
3.7440676e-06
-1.279449e-08
3.5434663e-06
-8.7911532e-09
3.1892187e-06
-4.9132266e-09
2.6347882e-06
-1.6193248e-09
1.8229467e-06
6.8625915e-07
-2.7778826e-10
2.457486e-08
-1.2323591e-09
7.7304298e-08
-3.1084489e-09
1.3995885e-07
-6.1660112e-09
2.092717e-07
-1.0639714e-08
2.8102019e-07
-1.6674446e-08
3.507342e-07
-2.4251541e-08
4.1472216e-07
-3.3137081e-08
4.7107514e-07
-4.2883802e-08
5.2021435e-07
-5.2894077e-08
5.6474292e-07
-6.2520708e-08
6.0871721e-07
-7.1169163e-08
6.5671256e-07
-7.8373851e-08
7.1301674e-07
-8.3839283e-08
7.8111848e-07
-8.7448755e-08
8.6349091e-07
-8.9247613e-08
9.615762e-07
-8.9407864e-08
1.0759102e-06
-8.8181761e-08
1.2063025e-06
-8.5852956e-08
1.3520375e-06
-8.2694819e-08
1.5120515e-06
-7.8943281e-08
1.6850589e-06
-7.4785644e-08
1.8695975e-06
-7.0362691e-08
2.0640084e-06
-6.5777864e-08
2.2663682e-06
-6.1107899e-08
2.4743817e-06
-5.641151e-08
2.6852603e-06
-5.1734742e-08
2.8955868e-06
-4.7113482e-08
3.1011405e-06
-4.2573915e-08
3.29669e-06
-3.8131806e-08
3.4756971e-06
-3.3791807e-08
3.6299306e-06
-2.9547207e-08
3.748922e-06
-2.5380434e-08
3.8192668e-06
-2.1264622e-08
3.8237048e-06
-1.7167117e-08
3.7399701e-06
-1.3060031e-08
3.5393593e-06
-8.9526834e-09
3.1851114e-06
-4.9853843e-09
2.6308209e-06
-1.6343924e-09
1.8195957e-06
6.846248e-07
-2.7065189e-10
2.4845512e-08
-1.2011084e-09
7.8234754e-08
-3.0309827e-09
1.4178872e-07
-6.0164336e-09
2.1225715e-07
-1.039219e-08
2.8539594e-07
-1.6310152e-08
3.5665216e-07
-2.3767519e-08
4.2217952e-07
-3.2553745e-08
4.7986137e-07
-4.2247302e-08
5.2990791e-07
-5.2271768e-08
5.7476739e-07
-6.1991123e-08
6.1843656e-07
-7.0809557e-08
6.6553099e-07
-7.8248529e-08
7.2045572e-07
-8.3990546e-08
7.868605e-07
-8.7891757e-08
8.6739212e-07
-8.9969756e-08
9.6365419e-07
-9.0372927e-08
1.0763134e-06
-8.9337743e-08
1.2052673e-06
-8.7141632e-08
1.3498414e-06
-8.4060619e-08
1.5089705e-06
-8.0339093e-08
1.6813373e-06
-7.6175229e-08
1.8654336e-06
-7.1720126e-08
2.0595533e-06
-6.7085442e-08
2.2617336e-06
-6.2353645e-08
2.4696499e-06
-5.7587078e-08
2.6804937e-06
-5.2834032e-08
2.8908337e-06
-4.8131752e-08
3.0964382e-06
-4.3507231e-08
3.2920655e-06
-3.8976824e-08
3.4711667e-06
-3.4545518e-08
3.6254993e-06
-3.020686e-08
3.7445833e-06
-2.5943187e-08
3.8150032e-06
-2.1727566e-08
3.8194892e-06
-1.7527419e-08
3.73577e-06
-1.3316051e-08
3.5351479e-06
-9.1077677e-09
3.1809031e-06
-5.0545859e-09
2.6267677e-06
-1.6489704e-09
1.8161901e-06
6.8297574e-07
-2.6395348e-10
2.5109466e-08
-1.1717439e-09
7.9142544e-08
-2.9580951e-09
1.4357508e-07
-5.8754111e-09
2.1517447e-07
-1.0158125e-08
2.8967866e-07
-1.5964173e-08
3.6245821e-07
-2.3305059e-08
4.2952041e-07
-3.1991852e-08
4.8854816e-07
-4.1627384e-08
5.3954344e-07
-5.165601e-08
5.8479602e-07
-6.1453572e-08
6.2823412e-07
-7.0424701e-08
6.7450212e-07
-7.8080222e-08
7.2811124e-07
-8.4083152e-08
7.9286343e-07
-8.8264675e-08
8.7157365e-07
-9.0615983e-08
9.660055e-07
-9.1261981e-08
1.0769594e-06
-9.0422312e-08
1.2044277e-06
-8.8366422e-08
1.3477855e-06
-8.5370942e-08
1.505975e-06
-8.1687276e-08
1.6776537e-06
-7.7523674e-08
1.86127e-06
-7.3041449e-08
2.0550711e-06
-6.8360669e-08
2.2570528e-06
-6.35699e-08
2.4648591e-06
-5.8735505e-08
2.6756593e-06
-5.3908197e-08
2.8860064e-06
-4.9126737e-08