/*--------------------------------*- C++ -*----------------------------------*\
| =========                 |                                                 |
| \\      /  F ield         | OpenFOAM: The Open Source CFD Toolbox           |
|  \\    /   O peration     | Version:  3.0.1                                 |
|   \\  /    A nd           | Web:      www.OpenFOAM.org                      |
|    \\/     M anipulation  |                                                 |
\*---------------------------------------------------------------------------*/
FoamFile
{
    version     2.0;
    format      ascii;
    class       surfaceScalarField;
    location    "3500/fluid";
    object      phi;
}
// * * * * * * * * * * * * * * * * * * * * * * * * * * * * * * * * * * * * * //

dimensions      [1 0 -1 0 0 0 0];

internalField   nonuniform List<scalar> 
9850
(
4.4867614e-11
5.2943278e-10
1.6944283e-10
1.7579751e-09
3.7534267e-10
3.3111544e-09
6.6440325e-10
5.2392006e-09
1.0341247e-09
7.5969642e-09
1.4771181e-09
1.0441479e-08
1.9810366e-09
1.3831636e-08
2.5291067e-09
1.7828727e-08
3.1012772e-09
2.2498076e-08
3.6758928e-09
2.7912476e-08
4.2316668e-09
3.4157461e-08
4.7496508e-09
4.1338588e-08
5.2149078e-09
4.9590516e-08
5.6176387e-09
5.9087558e-08
5.953644e-09
7.0055117e-08
6.2241169e-09
8.2781548e-08
6.4348769e-09
9.763039e-08
6.5952081e-09
1.1505264e-07
6.7165019e-09
1.3560025e-07
6.8108762e-09
1.5994112e-07
6.8899704e-09
1.8887784e-07
6.9640168e-09
2.2337096e-07
7.0412671e-09
2.6456965e-07
7.127769e-09
3.1384997e-07
7.2273842e-09
3.7286362e-07
7.3419053e-09
4.4359798e-07
7.4711218e-09
5.2844755e-07
7.6127195e-09
6.3030267e-07
7.7619961e-09
7.5265219e-07
7.9114772e-09
8.9971e-07
8.0505781e-09
1.0765669e-06
8.1654979e-09
1.2893719e-06
8.2394593e-09
1.5455548e-06
8.2535383e-09
1.8540908e-06
8.1880086e-09
2.2258272e-06
8.0241804e-09
2.6738723e-06
7.746144e-09
3.2140696e-06
7.3448923e-09
3.8655679e-06
6.8183855e-09
4.651523e-06
6.1750566e-09
5.599924e-06
5.4331247e-09
6.7446244e-06
4.6213868e-09
8.1265556e-06
3.7768155e-09
9.7952294e-06
2.9435534e-09
1.1810523e-05
2.1691841e-09
1.4244868e-05
1.5087818e-09
1.7185876e-05
9.3068003e-10
2.0739687e-05
4.8735336e-10
2.5034358e-05
1.6764196e-10
3.0225137e-05
3.6499581e-05
2.0902804e-10
3.2040472e-10
8.7573362e-10
1.0912696e-09
2.0754477e-09
2.1114403e-09
3.8715036e-09
3.4431449e-09
6.3089191e-09
5.1595488e-09
9.4053299e-09
7.3450685e-09
1.3142126e-08
1.0094841e-08
1.7457294e-08
1.3513559e-08
2.2241592e-08
1.7713779e-08
2.7339736e-08
2.2814332e-08
3.255775e-08
2.8939447e-08
3.7676823e-08
3.6219516e-08
4.2472819e-08
4.4794522e-08
4.6739256e-08
5.4821123e-08
5.0310349e-08
6.6484027e-08
5.3079929e-08
8.001197e-08
5.5012141e-08
9.5698182e-08
5.6140943e-08
1.1392385e-07
5.6557802e-08
1.351834e-07
5.6389923e-08
1.60109e-07
5.5774109e-08
1.8949366e-07
5.4832703e-08
2.2431238e-07
5.3657217e-08
2.6574515e-07
5.2302431e-08
3.1520477e-07
5.0790114e-08
3.7437595e-07
4.9118832e-08
4.4526928e-07
4.7275307e-08
5.3029108e-07
4.5244035e-08
6.3233396e-07
4.3013654e-08
7.5488258e-07
4.0580454e-08
9.0214321e-07
3.7950007e-08
1.0791973e-06
3.5138034e-08
1.2921839e-06
3.2170878e-08
1.5485219e-06
2.9085571e-08
1.8571761e-06
2.5929565e-08
2.2289832e-06
2.2760676e-08
2.6770412e-06
1.9611266e-08
3.217219e-06
1.6537646e-08
3.8686415e-06
1.3596117e-08
4.6544645e-06
1.0837181e-08
5.6026829e-06
8.3036917e-09
6.7471578e-06
6.0325451e-09
8.1288267e-06
4.0440858e-09
9.7972178e-06
2.3653948e-09
1.1812201e-05
9.7667629e-10
1.4246257e-05
-8.2873859e-11
1.7186936e-05
-6.7970766e-10
2.0740284e-05
-8.1706434e-10
2.5034496e-05
-6.1143028e-10
3.0224931e-05
3.649897e-05
1.3568957e-11
3.0683584e-10
6.4479893e-11
1.0403588e-09
1.7095896e-10
2.0049613e-09
3.5677272e-10
3.2573313e-09
6.506458e-10
4.8656759e-09
1.0844743e-09
6.9112403e-09
1.68984e-09
9.4894753e-09
2.4926799e-09
1.271072e-08
3.5064815e-09
1.6699978e-08
4.7250064e-09
2.1595808e-08
6.1161793e-09
2.7548276e-08
7.6191265e-09
3.471657e-08
9.1461875e-09
4.3267463e-08
1.0590855e-08
5.3376459e-08
1.1841205e-08
6.5233681e-08
1.2796716e-08
7.9056463e-08
1.3385032e-08
9.5109871e-08
1.3574598e-08
1.1373429e-07
1.3379607e-08
1.353784e-07
1.2855401e-08
1.6063322e-07
1.2085062e-08
1.9026402e-07
1.1160774e-08
2.2523668e-07
1.0165403e-08
2.6674053e-07
9.1597125e-09
3.1621048e-07
8.1782617e-09
3.7535742e-07
7.2335649e-09
4.46214e-07
6.3249338e-09
5.3119974e-07
5.4475874e-09
6.3321133e-07
4.5985977e-09
7.557316e-07
3.7788489e-09
9.0296298e-07
2.9915671e-09
1.0799846e-06
2.2399586e-09
1.2929355e-06
1.5234915e-09
1.5492384e-06
8.3780427e-10
1.8578618e-06
1.6851714e-10
2.2296524e-06
-4.9785046e-10
2.6777075e-06
-1.1374309e-09
3.2178585e-06
-1.7569416e-09
3.869261e-06
-2.3598034e-09
4.6550673e-06
-2.9389608e-09
5.603262e-06
-3.4810779e-09
6.7476999e-06
-3.9552348e-09
8.1293008e-06
-4.3305937e-09
9.7975931e-06
-4.5509373e-09
1.1812422e-05
-4.5669516e-09
1.4246273e-05
-4.3286007e-09
1.7186697e-05
-3.8306535e-09
2.0739785e-05
-2.9511283e-09
2.5033616e-05
-1.7312355e-09
3.0223711e-05
3.6497239e-05
-5.2282177e-12
3.1206407e-10
-2.1753161e-11
1.0568837e-09
-5.1443252e-11
2.0346515e-09
-9.5747994e-11
3.3016361e-09
-1.5528326e-10
4.9252113e-09
-2.2940556e-10
6.9853631e-09
-3.1588045e-10
9.5759505e-09
-4.1085837e-10
1.2805699e-08
-5.094358e-10
1.6798556e-08
-6.0704666e-10
2.169342e-08
-7.0173202e-10
2.7642962e-08
-7.9693476e-10
3.4811774e-08
-9.0393857e-10
4.3374469e-08
-1.0426608e-09
5.3515184e-08
-1.2395356e-09
6.5430559e-08
-1.5219653e-09
7.9338898e-08
-1.9101511e-09
9.5498064e-08
-2.4085571e-09
1.142327e-07
-3.0000595e-09
1.3596991e-07
-3.6454911e-09
1.6127866e-07
-4.2897196e-09
1.9090826e-07
-4.8732279e-09
2.2582021e-07
-5.3460066e-09
2.6721334e-07
-5.6794235e-09
3.1654392e-07
-5.8721011e-09
3.7555013e-07
-5.9480392e-09
4.4628997e-07
-5.9482921e-09
5.3120002e-07
-5.9199451e-09
6.3318301e-07
-5.9066054e-09
7.5571829e-07
-5.942762e-09
9.0299917e-07
-6.0520593e-09
1.080094e-06
-6.2478173e-09
1.2931313e-06
-6.5338044e-09
1.5495244e-06
-6.9055983e-09
1.8582336e-06
-7.3465624e-09
2.2300934e-06
-7.8405477e-09
2.6782015e-06
-8.3599924e-09
3.2183779e-06
-8.8723031e-09
3.8697733e-06
-9.3423944e-09
4.6555373e-06
-9.7311495e-09
5.6036507e-06
-1.00036e-08
6.7479723e-06
-1.0117081e-08
8.1294142e-06
-1.0038875e-08
9.7975148e-06
-9.7202833e-09
1.1812103e-05
-9.1297043e-09
1.4245682e-05
-8.1917859e-09
1.7185759e-05
-6.8978007e-09
2.0738491e-05
-5.1245822e-09
2.5031843e-05
-2.8863235e-09
3.0221472e-05
3.6494352e-05
-1.5078843e-11
3.2714298e-10
-6.5891699e-11
1.1076965e-09
-1.6291961e-10
2.1316796e-09
-3.1856412e-10
3.4572809e-09
-5.4723983e-10
5.1538872e-09
-8.6526819e-10
7.3033917e-09
-1.2905364e-09
1.0001219e-08
-1.8418381e-09
1.3357001e-08
-2.537835e-09
1.7494553e-08
-3.3956409e-09
2.2551227e-08
-4.4290876e-09
2.8676411e-08
-5.6468399e-09
3.6029529e-08
-7.0505522e-09
4.4778184e-08
-8.6332474e-09
5.5097883e-08
-1.0377974e-08
6.7175291e-08
-1.2256698e-08
8.1217626e-08
-1.422943e-08
9.7470804e-08
-1.6243916e-08
1.162472e-07
-1.8236594e-08
1.379626e-07
-2.0135807e-08
1.6317789e-07
-2.1867947e-08
1.9264042e-07
-2.3366289e-08
2.2731857e-07
-2.4580962e-08
2.6842804e-07
-2.5487395e-08
3.1745039e-07
-2.6090147e-08
3.7615292e-07
-2.6420149e-08
4.4662002e-07
-2.6525634e-08
5.3130555e-07
-2.6459796e-08
6.3311722e-07
-2.6269518e-08
7.5552806e-07
-2.5988911e-08
9.0271861e-07
-2.5638309e-08
1.0797434e-06
-2.5227885e-08
1.2927209e-06
-2.4761409e-08
1.5490579e-06
-2.4241859e-08
1.857714e-06
-2.3670975e-08
2.2295225e-06
-2.3052872e-08
2.6775834e-06
-2.2396522e-08
3.2177216e-06
-2.1702813e-08
3.8690795e-06
-2.0970155e-08
4.6548046e-06
-2.0186609e-08
5.6028671e-06
-1.9336994e-08
6.7471226e-06
-1.8387123e-08
8.1284643e-06
-1.7303791e-08
9.7964314e-06
-1.6022025e-08
1.1810821e-05
-1.4496197e-08
1.4244156e-05
-1.2617504e-08
1.7183881e-05
-1.0359991e-08
2.0736234e-05
-7.5657745e-09
2.5029048e-05
-4.1825687e-09
3.0218089e-05
3.649017e-05
-1.4169098e-11
3.4131216e-10
-6.2420284e-11
1.1559479e-09
-1.5562634e-10
2.2248858e-09
-3.0723908e-10
3.6088938e-09
-5.3370302e-10
5.3803514e-09
-8.5482728e-10
7.6245162e-09
-1.2940336e-09
1.0440426e-08
-1.8783612e-09
1.3941329e-08
-2.6380421e-09
1.8254235e-08
-3.6054282e-09
2.3518614e-08
-4.8130154e-09
2.9883999e-08
-6.2903371e-09
3.7506852e-08
-8.0596374e-09
4.6547487e-08
-1.0130497e-08
5.7168746e-08
-1.2493978e-08
6.9538776e-08
-1.5117313e-08
8.3840967e-08
-1.7940554e-08
1.0029405e-07
-2.0876651e-08
1.191833e-07
-2.3816067e-08
1.4090203e-07
-2.6636177e-08
1.6599802e-07
-2.9214522e-08
1.9521879e-07
-3.1443924e-08
2.29548e-07
-3.3246703e-08
2.7023085e-07
-3.4585044e-08
3.1878877e-07
-3.5464887e-08
3.770328e-07
-3.5931786e-08
4.4708696e-07
-3.6059159e-08
5.3143298e-07
-3.5931892e-08
6.3299001e-07
-3.5630053e-08
7.5522627e-07
-3.5217486e-08
9.023061e-07
-3.473731e-08
1.0792633e-06
-3.4213745e-08
1.2921974e-06
-3.3656469e-08
1.5485007e-06
-3.3065373e-08
1.857123e-06
-3.2434244e-08
2.2288914e-06
-3.17501e-08
2.6768993e-06
-3.1002912e-08
3.2169743e-06
-3.0173876e-08
3.8682505e-06
-2.9243295e-08
4.653874e-06
-2.8183911e-08
5.6018077e-06
-2.6970943e-08
6.7459096e-06
-2.5564456e-08
8.1270578e-06
-2.3933667e-08
9.7948006e-06
-2.2013698e-08
1.1808901e-05
-1.9766174e-08
1.4241909e-05
-1.7082189e-08
1.7181197e-05
-1.3908279e-08
2.073306e-05
-1.0091095e-08
2.5025231e-05
-5.530071e-09
3.0213528e-05
3.648464e-05
-1.43964e-11
3.5570861e-10
-6.3574961e-11
1.2051265e-09
-1.5880615e-10
2.3201172e-09
-3.1414475e-10
3.7642325e-09
-5.4697339e-10
5.6131802e-09
-8.7855983e-10
7.956103e-09
-1.3345796e-09
1.0896446e-08
-1.9455063e-09
1.4552256e-08
-2.7467021e-09
1.9055432e-08
-3.7779721e-09
2.4549885e-08
-5.0822326e-09
3.1188261e-08
-6.7028885e-09
3.912751e-08
-8.6794923e-09
4.8524094e-08
-1.1041437e-08
5.9530694e-08
-1.3799845e-08
7.2297189e-08
-1.693857e-08
8.6979698e-08
-2.0406164e-08
1.0376166e-07
-2.4111448e-08
1.228886e-07
-2.7925377e-08
1.4471597e-07
-3.1690852e-08
1.6976351e-07
-3.5239956e-08
1.9876791e-07
-3.8415723e-08
2.327238e-07
-4.1093817e-08
2.7290897e-07
-4.3199248e-08
3.2089424e-07
-4.4714272e-08
3.7854787e-07
-4.5675526e-08
4.4804827e-07
-4.6160928e-08
5.3191844e-07
-4.6269616e-08
6.3309876e-07
-4.6100524e-08
7.5505724e-07
-4.5735611e-08
9.0194124e-07
-4.5231717e-08
1.0787594e-06
-4.4620972e-08
1.2915867e-06
-4.3917067e-08
1.5477968e-06
-4.3121591e-08
1.8563275e-06
-4.223133e-08
2.2280011e-06
-4.1237976e-08
2.6759059e-06
-4.0133672e-08
3.21587e-06
-3.8905751e-08
3.8670225e-06
-3.7540643e-08
4.6525089e-06
-3.6015036e-08
5.600282e-06
-3.4305916e-08
6.7442004e-06
-3.2370427e-08
8.1251222e-06
-3.0172364e-08
9.7926024e-06
-2.7638419e-08
1.1806367e-05
-2.471434e-08
1.4238984e-05
-2.1286522e-08
1.7177769e-05
-1.7266382e-08
2.072904e-05
-1.2495022e-08
2.502046e-05
-6.8191863e-09
3.0207852e-05
3.647782e-05
-1.3178167e-11
3.6888683e-10
-5.8325445e-11
1.2502739e-09
-1.4602106e-10
2.407813e-09
-2.8960185e-10
3.9078135e-09
-5.0576331e-10
5.8293419e-09
-8.1523109e-10
8.265571e-09
-1.2434692e-09
1.1324685e-08
-1.8213566e-09
1.5130144e-08
-2.5856954e-09
1.9819771e-08
-3.579337e-09
2.5543527e-08
-4.8505846e-09
3.245951e-08
-6.4514003e-09
4.0728328e-08
-8.4338321e-09
5.0506528e-08
-1.0844087e-08
6.1940953e-08
-1.3713938e-08
7.5167046e-08
-1.7049841e-08
9.0315607e-08
-2.0821273e-08
1.075331e-07
-2.4951184e-08
1.2701852e-07
-2.9312385e-08
1.4907719e-07
-3.3733375e-08
1.7418452e-07
-3.8014946e-08
2.0304951e-07
-4.1955579e-08
2.3666446e-07
-4.538036e-08
2.7633379e-07
-4.816653e-08
3.2368045e-07
-5.0259483e-08
3.8064088e-07
-5.1675339e-08
4.4946419e-07
-5.2489621e-08
5.3273278e-07
-5.28151e-08
6.334243e-07
-5.2775034e-08
7.5501725e-07
-5.2479352e-08
9.0164563e-07
-5.2010031e-08
1.0782902e-06
-5.1417195e-08
1.2909939e-06
-5.0724184e-08
1.5471039e-06
-4.9935018e-08
1.8555384e-06
-4.9042963e-08
2.2271091e-06
-4.8033566e-08
2.6748965e-06
-4.688937e-08
3.2147258e-06
-4.5587466e-08
3.8657206e-06
-4.4103999e-08
4.6510254e-06
-4.2406249e-08
5.5985842e-06
-4.046282e-08
6.742257e-06
-3.8225028e-08
8.1228844e-06
-3.5649057e-08
9.7900264e-06
-3.2660377e-08
1.1803378e-05
-2.9190943e-08
1.4235515e-05
-2.5129427e-08
1.7173707e-05
-2.0361064e-08
2.0724271e-05
-1.4724915e-08
2.5014824e-05
-8.0221361e-09
3.0201149e-05
3.6469798e-05
-1.2506827e-11
3.8139369e-10
-5.5400697e-11
1.2931677e-09
-1.3879554e-10
2.4912081e-09
-2.7548167e-10
4.0444998e-09
-4.8154017e-10
6.0354005e-09
-7.7704941e-10
8.5610805e-09
-1.1868686e-09
1.1734505e-08
-1.7414541e-09
1.568473e-08
-2.4776041e-09
2.0555922e-08
-3.4389609e-09
2.6504885e-08
-4.6759747e-09
3.3696526e-08
-6.2448706e-09
4.2297225e-08
-8.2050073e-09
5.2466667e-08
-1.0613893e-08
6.4349842e-08
-1.3519216e-08
7.8072373e-08
-1.6947708e-08
9.3744106e-08
-2.0891749e-08
1.1147715e-07
-2.5296149e-08
1.3142293e-07
-3.004919e-08
1.5383025e-07
-3.4982624e-08
1.7911797e-07
-3.988403e-08
2.0795094e-07
-4.452147e-08
2.4130193e-07
-4.8676121e-08
2.8048848e-07
-5.217526e-08
3.2717964e-07
-5.4917373e-08
3.8338304e-07
-5.6882997e-08
4.5142987e-07
-5.812873e-08
5.3397859e-07
-5.8766229e-08
6.3406188e-07
-5.8932288e-08
7.5518339e-07
-5.8758727e-08
9.0147214e-07
-5.8350608e-08
1.0778821e-06
-5.7776939e-08
1.2904203e-06
-5.7073289e-08
1.5464003e-06
-5.6250088e-08
1.8547152e-06
-5.5302589e-08
2.2261616e-06
-5.4216581e-08
2.6738105e-06
-5.2973355e-08
3.2134826e-06
-5.1548254e-08
3.8642955e-06
-4.9914238e-08
4.6493913e-06
-4.8035023e-08
5.596705e-06
-4.5872328e-08
6.7400942e-06
-4.3372196e-08
8.1203842e-06
-4.0478358e-08
9.7871325e-06
-3.7111326e-08
1.1800011e-05
-3.3183644e-08
1.4231587e-05
-2.8580155e-08
1.7169104e-05
-2.3158506e-08
2.071885e-05
-1.6751773e-08
2.5008417e-05
-9.1220107e-09
3.019352e-05
3.6460676e-05
-1.1634467e-11
3.9302825e-10
-5.1584469e-11
1.3331178e-09
-1.2935266e-10
2.5689764e-09
-2.5700597e-10
4.1721534e-09
-4.497884e-10
6.2281831e-09
-7.2684249e-10
8.838135e-09
-1.1120359e-09
1.2119699e-08
-1.6348632e-09
1.6207558e-08
-2.3313498e-09
2.1252409e-08
-3.2448208e-09
2.7418358e-08
-4.4262774e-09
3.4877984e-08
-5.9339771e-09
4.3804927e-08
-7.8316137e-09
5.4364307e-08
-1.0184322e-08
6.6702554e-08
-1.3051665e-08
8.093972e-08
-1.6477037e-08
9.7169485e-08
-2.0473781e-08
1.154739e-07
-2.5009811e-08
1.3595897e-07
-2.9994509e-08
1.5881496e-07
-3.5273069e-08
1.8439655e-07
-4.0633199e-08
2.133111e-07
-4.5826224e-08
2.4649499e-07
-5.0600109e-08
2.8526241e-07
-5.4737288e-08
3.3131687e-07
-5.8087962e-08
3.8673378e-07
-6.0590307e-08
4.5393228e-07
-6.2272373e-08
5.3566073e-07
-6.3235368e-08
6.3502496e-07
-6.3623211e-08
7.5557131e-07
-6.3587411e-08
9.0143643e-07
-6.325777e-08
1.0775526e-06
-6.272598e-08
1.2898886e-06
-6.2043778e-08
1.5457182e-06
-6.1230422e-08
1.8539019e-06
-6.0283739e-08
2.225215e-06
-5.9188257e-08
2.6727151e-06
-5.7921322e-08
3.2122157e-06
-5.6453541e-08
3.8628276e-06
-5.475141e-08
4.6476891e-06
-5.2773245e-08
5.5947268e-06
-5.0472224e-08
6.7377931e-06
-4.7789612e-08
8.1177015e-06
-4.4657208e-08
9.7840001e-06
-4.0991598e-08
1.1796346e-05
-3.6688212e-08
1.4227284e-05
-3.1627458e-08
1.7164043e-05
-2.564319e-08
2.0712865e-05
-1.8560025e-08
2.5001334e-05
-1.0108274e-08
3.0185068e-05
3.6450568e-05
-1.0968734e-11
4.0399703e-10
-4.8656634e-11
1.3708057e-09
-1.2206495e-10
2.6423849e-09
-2.4264609e-10
4.2927348e-09
-4.249038e-10
6.410441e-09
-6.8710943e-10
9.1003408e-09
-1.0521384e-09
1.2484728e-08
-1.548412e-09
1.6703832e-08
-2.2108905e-09
2.1914889e-08
-3.0820111e-09
2.8289479e-08
-4.2123592e-09
3.6008333e-08
-5.6607155e-09
4.5253285e-08
-7.4929258e-09
5.619652e-08
-9.7788184e-09
6.8988451e-08
-1.2586245e-08
8.3747152e-08
-1.5971424e-08
1.0055467e-07
-1.9965385e-08
1.1946787e-07
-2.455765e-08
1.4055125e-07
-2.9680334e-08
1.6393766e-07
-3.5197761e-08
1.89914e-07
-4.0907348e-08
2.1902071e-07
-4.6555655e-08
2.5214333e-07
-5.1869078e-08
2.9057587e-07
-5.6593543e-08
3.3604139e-07
-6.0533793e-08
3.9067409e-07
-6.3582295e-08
4.5698086e-07
-6.5730194e-08
5.3780871e-07
-6.7057387e-08
6.3635224e-07
-6.7704554e-08
7.5621857e-07
-6.7835514e-08
9.0156749e-07
-6.7601387e-08
1.0773185e-06
-6.7116686e-08
1.2894039e-06
-6.645153e-08
1.5450531e-06
-6.5637002e-08
1.8530875e-06
-6.4676484e-08
2.2242545e-06
-6.3556138e-08
2.6715947e-06
-6.2252078e-08
3.2109116e-06
-6.0732926e-08
3.8613085e-06
-5.8960951e-08
4.6459171e-06
-5.6891094e-08
5.5926568e-06
-5.446906e-08
6.735371e-06
-5.1631682e-08
8.1148641e-06
-4.8299123e-08
9.7806674e-06
-4.4382636e-08
1.1792429e-05
-3.9761421e-08
1.4222662e-05
-3.4308855e-08
1.715859e-05
-2.7837959e-08
2.0706394e-05
-2.0161905e-08
2.4993658e-05
-1.0985399e-08
3.0175891e-05
3.6439583e-05
-1.0321881e-11
4.1431888e-10
-4.5809638e-11
1.4062935e-09
-1.1497713e-10
2.7115526e-09
-2.2867911e-10
4.4064369e-09
-4.0069451e-10
6.5824567e-09
-6.4843299e-10
9.3480796e-09
-9.9376915e-10
1.2830065e-08
-1.464002e-09
1.7174066e-08
-2.0929031e-09
2.2543791e-08
-2.9217672e-09
2.9118344e-08
-4.0002937e-09
3.7086861e-08
-5.3869873e-09
4.663998e-08
-7.1485747e-09
5.795811e-08
-9.3577037e-09
7.1197584e-08
-1.2087975e-08
8.6477428e-08
-1.5405328e-08
1.0387203e-07
-1.9355233e-08
1.2341778e-07
-2.3946227e-08
1.4514226e-07
-2.9132334e-08
1.6912378e-07
-3.4799054e-08
1.9558074e-07
-4.0759048e-08
2.2498073e-07
-4.6762675e-08
2.5814699e-07
-5.2524816e-08
2.9633806e-07
-5.7764065e-08
3.4128069e-07
-6.2245641e-08
3.9515573e-07
-6.5817479e-08
4.6055277e-07
-6.8430107e-08
5.4042142e-07
-7.0134917e-08
6.3805714e-07
-7.1061153e-08
7.5714491e-07
-7.1378255e-08
9.0188468e-07
-7.1255161e-08
1.0771955e-06
-7.0828873e-08
1.2889777e-06
-7.0189711e-08
1.544414e-06
-6.9382815e-08
1.8522806e-06
-6.841887e-08
2.2232906e-06
-6.7286519e-08
2.6704624e-06
-6.5960806e-08
3.2095859e-06
-6.4408327e-08
3.859756e-06
-6.2587071e-08
4.6440958e-06
-6.0448673e-08
5.5905184e-06
-5.7932062e-08
6.7328544e-06
-5.4969929e-08
8.1119019e-06
-5.1472523e-08
9.77717e-06
-4.7345542e-08
1.1788302e-05
-4.245467e-08
1.4217772e-05
-3.6664978e-08
1.71528e-05
-2.977239e-08
2.0699502e-05
-2.1576765e-08
2.4985462e-05
-1.1762531e-08
3.0166077e-05
3.642782e-05
-9.7727815e-12
4.240917e-10
-4.3387708e-11
1.4399085e-09
-1.0893319e-10
2.7770982e-09
-2.1673484e-10
4.5142386e-09
-3.7992172e-10
6.7456437e-09
-6.1511526e-10
9.5832735e-09
-9.432536e-10
1.3158203e-08
-1.3905521e-09
1.7621365e-08
-1.9895786e-09
2.3142818e-08
-2.7803755e-09
2.9909143e-08
-3.8114902e-09
3.8117977e-08
-5.1406397e-09
4.7969132e-08
-6.8345636e-09
5.9652036e-08
-8.9673789e-09
7.3330403e-08
-1.1616502e-08
8.9126556e-08
-1.4855077e-08
1.0711061e-07
-1.8740115e-08
1.2730283e-07
-2.3296402e-08
1.4969856e-07
-2.849808e-08
1.7432548e-07
-3.425203e-08
2.0133471e-07
-4.038918e-08
2.3111791e-07
-4.6669687e-08
2.6442753e-07
-5.2805108e-08
3.0247352e-07
-5.8495361e-08
3.4697099e-07
-6.3473138e-08
4.0013357e-07
-6.7545238e-08
4.6462495e-07
-7.0620407e-08
5.4349668e-07
-7.2716251e-08
6.4015308e-07
-7.3942907e-08
7.5837167e-07
-7.4467891e-08
9.0240977e-07
-7.447266e-08
1.0772004e-06
-7.4114589e-08
1.2886198e-06
-7.3504736e-08
1.5438042e-06
-7.270427e-08
1.8514802e-06
-7.1733324e-08
2.2223197e-06
-7.0584793e-08
2.6693139e-06
-6.9234049e-08
3.2082351e-06
-6.7646673e-08
3.8581686e-06
-6.5777474e-08
4.6422266e-06
-6.3575427e-08
5.5883163e-06
-6.0973932e-08
6.7302528e-06
-5.7901638e-08
8.1088295e-06
-5.4260515e-08
9.7735288e-06
-4.9950213e-08
1.1783992e-05
-4.4825133e-08
1.4212646e-05
-3.8741044e-08
1.7146716e-05
-3.1479872e-08
2.069224e-05
-2.2827001e-08
2.4976809e-05
-1.2450692e-08
3.0155701e-05
3.6415369e-05
-9.2727254e-12
4.3336444e-10
-4.118034e-11
1.4718161e-09
-1.0342196e-10
2.8393399e-09
-2.0583767e-10
4.6166545e-09
-3.6095708e-10
6.9007635e-09
-5.8467105e-10
9.8069877e-09
-8.9703939e-10
1.3470572e-08
-1.3232464e-09
1.8047572e-08
-1.8946856e-09
2.3714258e-08
-2.6501292e-09
3.0664587e-08
-3.6368594e-09
3.9104709e-08
-4.9115348e-09
4.9243809e-08
-6.540386e-09
6.128089e-08
-8.598113e-09
7.5388133e-08
-1.1164579e-08
9.1693026e-08
-1.4318216e-08
1.1026426e-07
-1.8125173e-08
1.3110979e-07
-2.2623891e-08
1.5419729e-07
-2.7806438e-08
1.7950804e-07
-3.3600134e-08
2.0712843e-07
-3.9855325e-08
2.3737313e-07
-4.6345726e-08
2.7091797e-07
-5.2785681e-08
3.0891352e-07
-5.8863876e-08
3.5304925e-07
-6.428755e-08
4.0555731e-07
-6.8827251e-08
4.6916473e-07
-7.2351258e-08
5.4702078e-07
-7.4840771e-08
6.4264269e-07
-7.6381204e-08
7.5991221e-07
-7.7131487e-08
9.0316017e-07
-7.7280129e-08
1.0773492e-06
-7.7001988e-08
1.2883417e-06
-7.6428617e-08
1.5432309e-06
-7.5638537e-08
1.8506902e-06
-7.4663072e-08
2.2213443e-06
-7.3500661e-08
2.6681515e-06
-7.2127868e-08
3.2068623e-06
-7.0509613e-08
3.8565503e-06
-6.8598105e-08
4.640315e-06
-6.6339761e-08
5.5860579e-06
-6.366346e-08
6.7275764e-06
-6.0493856e-08
8.1056598e-06
-5.6726341e-08
9.7697612e-06
-5.2254322e-08
1.177952e-05
-4.6923302e-08
1.4207315e-05
-4.0579349e-08
1.7140372e-05
-3.2993205e-08
2.0684654e-05
-2.3935582e-08
2.4967751e-05
-1.3061616e-08
3.0144827e-05
3.6402308e-05
-8.8316509e-12
4.4219614e-10
-3.9231228e-11
1.5022158e-09
-9.854982e-11
2.8986585e-09
-1.9619117e-10
4.714296e-09
-3.441429e-10
7.0487155e-09
-5.5762852e-10
1.0020474e-08
-8.5589836e-10
1.3768842e-08
-1.2631724e-09
1.8454847e-08
-1.8097249e-09
2.4260811e-08
-2.5330788e-09
3.1387942e-08
-3.479211e-09
4.0050842e-08
-4.7035668e-09
5.0468166e-08
-6.2715281e-09
6.2848854e-08
-8.2577579e-09
7.7374367e-08
-1.0743561e-08
9.4178833e-08
-1.3811176e-08
1.1333188e-07
-1.7533925e-08
1.3483255e-07
-2.1961619e-08
1.5862499e-07
-2.710205e-08
1.8464849e-07
-3.2901528e-08
2.1292793e-07
-3.9229896e-08
2.4370152e-07
-4.5876621e-08
2.7756473e-07
-5.2563284e-08
3.1560023e-07
-5.8973449e-08
3.5945947e-07
-6.4795434e-08
4.1137936e-07
-6.9768897e-08
4.7413827e-07
-7.3724369e-08
5.5097634e-07
-7.6605832e-08
6.4552425e-07
-7.8469921e-08
7.617764e-07
-7.9461084e-08
9.0415144e-07
-7.9769187e-08
1.0776574e-06
-7.9582854e-08
1.2881555e-06
-7.9052958e-08
1.5427011e-06
-7.8276141e-08
1.8499135e-06
-7.7296534e-08
2.2203647e-06
-7.6119551e-08
2.6669745e-06
-7.4724136e-08
3.2054669e-06
-7.3075077e-08
3.8549012e-06
-7.1122783e-08
4.6383627e-06
-6.8811271e-08
5.5837463e-06
-6.6065898e-08
6.724831e-06
-6.2807343e-08
8.1024012e-06
-5.8925791e-08
9.7658796e-06
-5.4308365e-08
1.1774902e-05
-4.8793489e-08
1.42018e-05
-4.2217505e-08
1.7133796e-05
-3.4342098e-08
2.0676779e-05
-2.492367e-08
2.4958333e-05
-1.360645e-08
3.0133509e-05
3.6388701e-05
-8.4339082e-12
4.5063011e-10
-3.7472523e-11
1.5312545e-09
-9.4151152e-11
2.9553372e-09
-1.8747711e-10
4.8076221e-09
-3.2894309e-10
7.1901816e-09
-5.331608e-10
1.0224692e-08
-8.1863373e-10
1.4054315e-08
-1.2086835e-09
1.8844897e-08
-1.7325286e-09
2.4784657e-08
-2.4264909e-09
3.2081906e-08
-3.3352491e-09
4.0959602e-08
-4.5129667e-09
5.1645885e-08
-6.0239767e-09
6.4359866e-08
-7.9424918e-09
7.9292885e-08
-1.0350536e-08
9.6586883e-08
-1.3333033e-08
1.1631438e-07
-1.6968901e-08
1.3846843e-07
-2.1317367e-08
1.6297347e-07
-2.6399886e-08
1.8973102e-07
-3.2180084e-08
2.1870815e-07
-3.8546678e-08
2.5006814e-07
-4.5305965e-08
2.8432405e-07
-5.2189818e-08
3.2248413e-07
-5.8881488e-08
3.6615119e-07
-6.5056097e-08
4.1755404e-07
-7.0427789e-08
4.7951005e-07
-7.4792929e-08
5.5534158e-07
-7.8059021e-08
6.4879045e-07
-8.0251523e-08
7.6396902e-07
-8.1495701e-08
9.0539574e-07
-8.1977479e-08
1.0781393e-06
-8.1895154e-08
1.2880733e-06
-8.141706e-08
1.5422231e-06
-8.0658137e-08
1.8491546e-06
-7.9676582e-08
2.2193832e-06
-7.8486088e-08
2.6657841e-06
-7.7069001e-08
3.2040498e-06
-7.5390494e-08
3.8532227e-06
-7.3399697e-08
4.6363718e-06
-7.1038377e-08
5.5813849e-06
-6.8229101e-08
6.7220216e-06
-6.4888647e-08
8.0990607e-06
-6.0903145e-08
9.761894e-06
-5.6153558e-08
1.1770153e-05
-5.0472692e-08
1.4196119e-05
-4.3687484e-08
1.7127011e-05
-3.5552257e-08
2.0668644e-05
-2.5809825e-08
2.494859e-05
-1.4095099e-08
3.0121795e-05
3.6374606e-05
-8.0768922e-12
4.5870701e-10
-3.5892655e-11
1.5590702e-09
-9.0196943e-11
3.0096416e-09
-1.7963723e-10
4.8970624e-09
-3.1525533e-10
7.3258e-09
-5.1110381e-10
1.042054e-08
-7.8499831e-10
1.432821e-08
-1.1594273e-09
1.9219327e-08
-1.6626192e-09
2.5287849e-08
-2.329752e-09
3.2749039e-08
-3.2042377e-09
4.1834089e-08
-4.338938e-09
5.2780587e-08
-5.797016e-09
6.5817947e-08
-7.6519543e-09
8.1147827e-08
-9.9859716e-09
9.8920904e-08
-1.2885812e-08
1.1921423e-07
-1.6434733e-08
1.4201736e-07
-2.0699731e-08
1.6723848e-07
-2.5714066e-08
1.9474537e-07
-3.1456982e-08
2.2445108e-07
-3.7835096e-08
2.5644628e-07
-4.4671844e-08
2.9116084e-07
-5.171141e-08
3.2952374e-07
-5.8640426e-08
3.7308027e-07
-6.5125677e-08
4.2403936e-07
-7.086081e-08
4.8524526e-07
-7.5611979e-08
5.6009284e-07
-7.9251958e-08
6.5243054e-07
-8.1773943e-08
7.6649113e-07
-8.328042e-08
9.0690234e-07
-8.3948598e-08
1.0788076e-06
-8.3982182e-08
1.288107e-06
-8.356456e-08
1.5418056e-06
-8.2828551e-08
1.8484187e-06
-8.1847379e-08
2.2184021e-06
-8.064424e-08
2.664581e-06
-7.9206e-08
3.2026116e-06
-7.7498755e-08
3.8515154e-06
-7.5470949e-08
4.634344e-06
-7.3062229e-08
5.5789761e-06
-7.0192983e-08
6.7191523e-06
-6.6776228e-08
8.0956438e-06
-6.2694839e-08
9.7578125e-06
-5.782389e-08
1.1765282e-05
-5.1991619e-08
1.4190287e-05
-4.5016126e-08
1.7120035e-05
-3.6645469e-08
2.0660273e-05
-2.6609931e-08
2.4938555e-05
-1.4536163e-08
3.0109721e-05
3.636007e-05
-7.7533869e-12
4.6646045e-10
-3.446054e-11
1.5857774e-09
-8.6611289e-11
3.0617923e-09
-1.7252431e-10
4.9829756e-09
-3.0282951e-10
7.4561054e-09
-4.9106569e-10
1.0608777e-08
-7.5441475e-10
1.459156e-08
-1.1145927e-09
1.9579505e-08
-1.5989013e-09
2.5772158e-08
-2.2414366e-09
3.3391575e-08
-3.0843926e-09
4.2677046e-08
-4.1793371e-09
5.3875533e-08
-5.5882049e-09
6.7226817e-08
-7.3835621e-09
8.2943187e-08
-9.6474424e-09
1.0118479e-07
-1.2467756e-08
1.2203455e-07
-1.593109e-08
1.454807e-07
-2.0110842e-08
1.7141824e-07
-2.5050439e-08
1.9968498e-07
-3.0743114e-08
2.3014378e-07
-3.7112207e-08
2.628154e-07
-4.3998117e-08
2.9804678e-07
-5.1158562e-08
3.3668423e-07
-5.8286324e-08
3.8020808e-07
-6.5043851e-08
4.3079696e-07
-7.1108826e-08
4.9131032e-07
-7.6221216e-08
5.6520533e-07
-8.022146e-08
6.5643089e-07
-8.30705e-08
7.6934029e-07
-8.4845563e-08
9.0867753e-07
-8.5711041e-08
1.0796732e-06
-8.5871907e-08
1.288268e-06
-8.5523792e-08
1.5414576e-06
-8.4816495e-08
1.8477115e-06
-8.3838816e-08
2.2174245e-06
-8.2624574e-08
2.6633667e-06
-8.1166172e-08
3.2011532e-06
-7.9431264e-08
3.8497805e-06
-7.7368066e-08
4.6322807e-06
-7.4914311e-08
5.5765223e-06
-7.1988614e-08
6.7162265e-06
-6.850043e-08
8.0921555e-06
-6.4329984e-08
9.753642e-06
-5.9346817e-08
1.1760298e-05
-5.3375347e-08
1.4184316e-05
-4.6225475e-08
1.7112885e-05
-3.7639844e-08
2.0651687e-05
-2.733726e-08
2.4928252e-05
-1.4936895e-08
3.009732e-05
3.6345133e-05
-7.4596194e-12
4.7392014e-10
-3.3159484e-11
1.6114773e-09
-8.3351824e-11
3.1119848e-09
-1.660555e-10
5.0656794e-09
-2.915225e-10
7.5815724e-09
-4.7281885e-10
1.0790073e-08
-7.2654164e-10
1.4845283e-08
-1.07369e-09
1.9926653e-08
-1.5407013e-09
2.6239171e-08
-2.1606513e-09
3.4011526e-08
-2.9745681e-09
4.3490964e-08
-4.0327561e-09
5.4933722e-08
-5.3958952e-09
6.8589958e-08
-7.1355176e-09
8.4682813e-08
-9.3331966e-09
1.0338247e-07
-1.2077504e-08
1.2477886e-07
-1.5457557e-08
1.4886076e-07
-1.9552007e-08
1.755127e-07
-2.4413025e-08
2.0454601e-07
-3.0046323e-08
2.3577709e-07
-3.639073e-08
2.6915984e-07
-4.33031e-08
3.0495919e-07
-5.0555341e-08
3.4393652e-07
-5.7848406e-08
3.8750121e-07
-6.4843671e-08
4.3779229e-07
-7.1206822e-08
4.9767356e-07
-7.6655503e-08
5.7065411e-07
-8.1000582e-08
6.6077608e-07
-8.4171534e-08
7.7251136e-07
-8.6218803e-08
9.1072493e-07
-8.7290634e-08
1.0807451e-06
-8.7589324e-08
1.2885668e-06
-8.7319762e-08
1.5411882e-06
-8.6647342e-08
1.8470392e-06
-8.5676681e-08
2.2164539e-06
-8.4453139e-08
2.6621432e-06
-8.2975678e-08
3.1996757e-06
-8.1214157e-08
3.8480189e-06
-7.9117027e-08
4.6301835e-06
-7.6620334e-08
5.5740255e-06
-7.3641249e-08
6.7132474e-06
-7.008587e-08
8.0886001e-06
-6.5832214e-08
9.7493882e-06
-6.0744649e-08
1.1755211e-05
-5.4644314e-08
1.4178215e-05
-4.7333588e-08
1.7105575e-05
-3.8550283e-08
2.0642904e-05
-2.8002778e-08
2.4917704e-05
-1.530333e-08
3.0084621e-05
3.632983e-05
-7.1914729e-12
4.8111168e-10
-3.1971266e-11
1.6362571e-09
-8.0374228e-11
3.1603878e-09
-1.601433e-10
5.1454485e-09
-2.8118254e-10
7.7026118e-09
-4.5612307e-10
1.0965014e-08
-7.010204e-10
1.5090181e-08
-1.0362079e-09
2.0261841e-08
-1.4873158e-09
2.6690279e-08
-2.0864586e-09
3.461067e-08
-2.873556e-09
4.4278062e-08
-3.8976876e-09
5.5957856e-08
-5.21828e-09
6.9910553e-08
-6.9057578e-09
8.6370294e-08
-9.041038e-09
1.0551776e-07
-1.171297e-08
1.274508e-07
-1.5012553e-08
1.5216035e-07
-1.9022749e-08
1.7952291e-07
-2.3803238e-08
2.0932652e-07
-2.9370841e-08
2.4134472e-07
-3.5678637e-08
2.7546766e-07
-4.259924e-08
3.1187982e-07
-4.9918994e-08
3.5125631e-07
-5.7348457e-08
3.9493072e-07
-6.4550528e-08
4.4499443e-07
-7.1182326e-08
5.0430544e-07
-7.6942765e-08
5.7641464e-07
-8.1616061e-08
6.6544949e-07
-8.5101576e-08
7.75997e-07
-8.7422254e-08
9.1304574e-07
-8.8707584e-08
1.0820306e-06
-8.9153682e-08
1.289013e-06
-8.8971537e-08
1.5410061e-06
-8.8340509e-08
1.8464082e-06
-8.7380825e-08
2.2154943e-06
-8.6150162e-08
2.6609126e-06
-8.4654972e-08
3.1981805e-06
-8.2868019e-08
3.8462319e-06
-8.0738426e-08
4.6280539e-06
-7.8200813e-08
5.5714878e-06
-7.5171114e-08
6.7102176e-06
-7.155237e-08
8.0849812e-06
-6.7220598e-08
9.7450564e-06
-6.2035465e-08
1.1750025e-05
-5.5815157e-08
1.4171995e-05
-4.8355218e-08
1.7098115e-05
-3.9389025e-08
2.0633937e-05
-2.8615512e-08
2.4906931e-05
-1.5640477e-08
3.0071646e-05
3.6314189e-05
-6.9457458e-12
4.880575e-10
-3.0882028e-11
1.6601935e-09
-7.7643711e-11
3.2071496e-09
-1.5471962e-10
5.2225246e-09
-2.716934e-10
7.8195857e-09
-4.4079314e-10
1.1134114e-08
-6.7757298e-10
1.5326961e-08
-1.0017464e-09
2.0586015e-08
-1.4381894e-09
2.7126722e-08
-2.0181128e-09
3.5190594e-08
-2.7803832e-09
4.5040334e-08
-3.7729003e-09
5.6950374e-08
-5.0538562e-09
7.1191511e-08
-6.692526e-09
8.8008967e-08
-8.7690328e-09
1.0759427e-07
-1.1372203e-08
1.3005398e-07
-1.4594406e-08
1.5538256e-07
-1.8522124e-08
1.8345064e-07
-2.322149e-08
2.140259e-07
-2.8719191e-08
2.4684244e-07
-3.4981373e-08
2.8172986e-07
-4.1895609e-08
3.1879409e-07
-4.9262626e-08
3.5862337e-07
-5.6803562e-08
4.0247171e-07
-6.4184897e-08
4.5237583e-07
-7.1058098e-08
5.1117872e-07
-7.7106614e-08