/*--------------------------------*- C++ -*----------------------------------*\
| =========                 |                                                 |
| \\      /  F ield         | OpenFOAM: The Open Source CFD Toolbox           |
|  \\    /   O peration     | Version:  3.0.1                                 |
|   \\  /    A nd           | Web:      www.OpenFOAM.org                      |
|    \\/     M anipulation  |                                                 |
\*---------------------------------------------------------------------------*/
FoamFile
{
    version     2.0;
    format      ascii;
    class       volScalarField;
    location    "3500/fluid";
    object      Qin;
}
// * * * * * * * * * * * * * * * * * * * * * * * * * * * * * * * * * * * * * //

dimensions      [1 0 -3 0 0 0 0];

internalField   uniform 0;

boundaryField
{
    Outterwall
    {
        type            calculated;
        value           nonuniform List<scalar> 
100
(
543.31466
740.41384
902.69691
1028.7678
1124.0321
1195.6944
1249.9913
1291.7835
1324.5744
1350.8572
1372.3732
1390.3468
1405.641
1418.8721
1430.4851
1440.8066
1450.0796
1458.4883
1466.174
1473.2472
1479.7953
1485.8887
1491.5846
1496.93
1501.9643
1506.7205
1511.2266
1515.5066
1519.5813
1523.4686
1527.1843
1530.7423
1534.1548
1537.4327
1540.5856
1543.6224
1546.5509
1549.3781
1552.1105
1554.7538
1557.3134
1559.7942
1562.2006
1564.5368
1566.8064
1569.0129
1571.1597
1573.2495
1575.2853
1577.2696
1579.2048
1581.0931
1582.9367
1584.7374
1586.4971
1588.2175
1589.9003
1591.5469
1593.1588
1594.7373
1596.2837
1597.7993
1599.2851
1600.7422
1602.1717
1603.5745
1604.9516
1606.3037
1607.6318
1608.9366
1610.219
1611.4795
1612.7189
1613.9378
1615.137
1616.3168
1617.4781
1618.6212
1619.7467
1620.8551
1621.9469
1623.0226
1624.0826
1625.1274
1626.1574
1627.1731
1628.175
1629.1638
1630.1402
1631.1054
1632.0612
1633.0105
1633.9583
1634.9133
1635.8908
1636.9178
1638.0417
1639.3458
1640.9495
1642.8357
)
;
    }
    symmetryleft
    {
        type            symmetry;
    }
    symmetryrigt
    {
        type            symmetry;
    }
    Outlet
    {
        type            calculated;
        value           nonuniform List<scalar> 
50
(
1.5494293e-29
1.5494293e-29
1.5494293e-29
1.5494293e-29
1.5494293e-29
1.5494293e-29
1.5494293e-29
1.5494293e-29
1.5494293e-29
1.5494293e-29
1.5494293e-29
1.5494293e-29
1.5494293e-29
1.5494293e-29
1.5494293e-29
1.5494293e-29
1.5494293e-29
1.5494293e-29
1.5494293e-29
1.5494293e-29
1.5494293e-29
1.5494293e-29
1.5494293e-29
1.5494293e-29
1.5494293e-29
1.5494293e-29
1.5494293e-29
1.5494293e-29
1.5494293e-29
1.5494293e-29
1.5494293e-29
1.5494293e-29
1.5494293e-29
1.5494293e-29
1.5494293e-29
1.5494293e-29
1.5494293e-29
1.5494293e-29
1.5494293e-29
1.5494293e-29
1.5494293e-29
1.5494293e-29
1.5494293e-29
1.5494293e-29
1.5494293e-29
1.5494293e-29
1.5494293e-29
1.5494293e-29
1.5494293e-29
1.5494293e-29
)
;
    }
    Inlet
    {
        type            calculated;
        value           uniform 0;
    }
    fluid_to_cilcen
    {
        type            calculated;
        value           nonuniform List<scalar> 
100
(
421.51732
421.51648
421.51564
421.5148
421.51396
421.51312
421.51228
421.51144
421.5106
421.50977
421.50893
421.50809
421.50725
421.50641
421.50557
421.50473
421.50389
421.50305
421.50221
421.50137
421.50053
421.4997
421.49886
421.49802
421.49718
421.49634
421.4955
421.49466
421.49382
421.49298
421.49214
421.49131
421.49047
421.48963
421.48879
421.48795
421.48711
421.48627
421.48543
421.48459
421.48375
421.48292
421.48208
421.48124
421.4804
421.47956
421.47872
421.47788
421.47704
421.4762
421.47537
421.47453
421.47369
421.47285
421.47201
421.47117
421.47033
421.46949
421.46866
421.46782
421.46698
421.46614
421.4653
421.46446
421.46362
421.46278
421.46195
421.46111
421.46027
421.45943
421.45859
421.45775
421.45691
421.45607
421.45523
421.4544
421.45356
421.45272
421.45188
421.45104
421.4502
421.44936
421.44853
421.44769
421.44685
421.44601
421.44517
421.44433
421.44349
421.44265
421.44182
421.44098
421.44014
421.4393
421.43846
421.43762
421.43678
421.43594
421.4351
421.43427
)
;
    }
}


// ************************************************************************* //
