/*--------------------------------*- C++ -*----------------------------------*\
| =========                 |                                                 |
| \\      /  F ield         | OpenFOAM: The Open Source CFD Toolbox           |
|  \\    /   O peration     | Version:  3.0.1                                 |
|   \\  /    A nd           | Web:      www.OpenFOAM.org                      |
|    \\/     M anipulation  |                                                 |
\*---------------------------------------------------------------------------*/
FoamFile
{
    version     2.0;
    format      ascii;
    class       volScalarField;
    location    "10000/fluid";
    object      Qin;
}
// * * * * * * * * * * * * * * * * * * * * * * * * * * * * * * * * * * * * * //

dimensions      [1 0 -3 0 0 0 0];

internalField   uniform 0;

boundaryField
{
    LeftWedge
    {
        type            wedge;
    }
    RightWedge
    {
        type            wedge;
    }
    Inlet
    {
        type            calculated;
        value           uniform 0;
    }
    Outlet
    {
        type            calculated;
        value           nonuniform List<scalar> 
40
(
1.5349933e-29
1.5349932e-29
1.5349932e-29
1.5349932e-29
1.5349932e-29
1.5349932e-29
1.5349932e-29
1.5349932e-29
1.5349932e-29
1.5349932e-29
1.5349932e-29
1.5349932e-29
1.5349932e-29
1.5349932e-29
1.5349932e-29
1.5349932e-29
1.5349932e-29
1.5349932e-29
1.5349932e-29
1.5349932e-29
1.5349932e-29
1.5349932e-29
1.5349932e-29
1.5349932e-29
1.5349932e-29
1.5349932e-29
1.5349932e-29
1.5349932e-29
1.5349932e-29
1.5349932e-29
1.5349932e-29
1.5349932e-29
1.5349932e-29
1.5349932e-29
1.5349932e-29
1.5349932e-29
1.5349932e-29
1.5349932e-29
1.5349932e-29
1.5349932e-29
)
;
    }
    Outterwall
    {
        type            calculated;
        value           nonuniform List<scalar> 
100
(
1119.3208
1165.6525
1212.2507
1253.0518
1287.4997
1316.3289
1340.5185
1360.9744
1378.4501
1393.5448
1406.7267
1418.359
1428.7236
1438.0403
1446.4817
1454.1843
1461.2571
1467.7882
1473.8493
1479.4991
1484.7865
1489.7524
1494.4313
1498.8524
1503.0411
1507.0189
1510.8047
1514.415
1517.8642
1521.1651
1524.3291
1527.3663
1530.2858
1533.0956
1535.803
1538.4149
1540.9371
1543.3751
1545.734
1548.0183
1550.2323
1552.3797
1554.4642
1556.4891
1558.4573
1560.3718
1562.2351
1564.0497
1565.8179
1567.5417
1569.2232
1570.8641
1572.4664
1574.0315
1575.561
1577.0563
1578.5189
1579.95
1581.3508
1582.7224
1584.066
1585.3825
1586.673
1587.9383
1589.1793
1590.3968
1591.5917
1592.7647
1593.9165
1595.0477
1596.1591
1597.2513
1598.3248
1599.3802
1600.4181
1601.4389
1602.4432
1603.4315
1604.4042
1605.3617
1606.3045
1607.233
1608.1476
1609.0488
1609.9369
1610.8125
1611.6762
1612.5289
1613.3717
1614.2068
1615.0374
1615.8695
1616.7131
1617.5859
1618.5176
1619.5557
1620.7666
1622.2006
1623.8546
1625.149
)
;
    }
    fluid_to_solid
    {
        type            calculated;
        value           nonuniform List<scalar> 
100
(
421.91927
421.91841
421.91756
421.91672
421.91587
421.91503
421.91419
421.91334
421.9125
421.91166
421.91082
421.90998
421.90914
421.9083
421.90746
421.90662
421.90578
421.90493
421.90409
421.90325
421.90241
421.90157
421.90073
421.89989
421.89905
421.89821
421.89737
421.89653
421.89569
421.89485
421.89401
421.89317
421.89233
421.89149
421.89065
421.88981
421.88897
421.88813
421.88729
421.88645
421.88561
421.88477
421.88393
421.88309
421.88225
421.88141
421.88057
421.87973
421.87889
421.87805
421.87721
421.87637
421.87553
421.8747
421.87386
421.87302
421.87218
421.87134
421.8705
421.86966
421.86882
421.86798
421.86714
421.8663
421.86546
421.86462
421.86378
421.86294
421.86211
421.86127
421.86043
421.85959
421.85875
421.85791
421.85708
421.85624
421.8554
421.85457
421.85373
421.85289
421.85206
421.85122
421.85039
421.84955
421.84872
421.84789
421.84705
421.84622
421.84539
421.84456
421.84373
421.8429
421.84208
421.84125
421.84043
421.8396
421.83878
421.83796
421.83716
421.83645
)
;
    }
}


// ************************************************************************* //
