/*--------------------------------*- C++ -*----------------------------------*\
| =========                 |                                                 |
| \\      /  F ield         | OpenFOAM: The Open Source CFD Toolbox           |
|  \\    /   O peration     | Version:  3.0.1                                 |
|   \\  /    A nd           | Web:      www.OpenFOAM.org                      |
|    \\/     M anipulation  |                                                 |
\*---------------------------------------------------------------------------*/
FoamFile
{
    version     2.0;
    format      ascii;
    class       volScalarField;
    location    "3500/fluid";
    object      Qr;
}
// * * * * * * * * * * * * * * * * * * * * * * * * * * * * * * * * * * * * * //

dimensions      [1 0 -3 0 0 0 0];

internalField   uniform 0;

boundaryField
{
    Outterwall
    {
        type            calculated;
        value           nonuniform List<scalar> 
100
(
121.79734
318.89736
481.18127
607.25298
702.51812
774.18124
828.47905
870.27211
903.06385
929.34746
950.86427
968.83872
984.13378
997.36569
1008.9795
1019.3019
1028.5757
1036.9852
1044.6718
1051.7458
1058.2948
1064.389
1070.0857
1075.432
1080.4671
1085.2242
1089.7311
1094.0119
1098.0875
1101.9756
1105.6922
1109.251
1112.6643
1115.943
1119.0969
1122.1345
1125.0638
1127.8918
1130.625
1133.2692
1135.8297
1138.3113
1140.7186
1143.0555
1145.326
1147.5334
1149.6809
1151.7717
1153.8083
1155.7934
1157.7295
1159.6186
1161.463
1163.2645
1165.0251
1166.7463
1168.4299
1170.0774
1171.6901
1173.2695
1174.8168
1176.3332
1177.8198
1179.2778
1180.7081
1182.1117
1183.4896
1184.8426
1186.1715
1187.4772
1188.7604
1190.0217
1191.262
1192.4818
1193.6817
1194.8624
1196.0245
1197.1684
1198.2948
1199.4041
1200.4967
1201.5733
1202.6341
1203.6797
1204.7106
1205.7271
1206.7299
1207.7195
1208.6967
1209.6627
1210.6194
1211.5695
1212.5182
1213.474
1214.4524
1215.4802
1216.6049
1217.9098
1219.5144
1221.4014
)
;
    }
    symmetryleft
    {
        type            symmetry;
    }
    symmetryrigt
    {
        type            symmetry;
    }
    Outlet
    {
        type            calculated;
        value           nonuniform List<scalar> 
50
(
1.5494293e-29
1.5494293e-29
1.5494293e-29
1.5494293e-29
1.5494293e-29
1.5494293e-29
1.5494293e-29
1.5494293e-29
1.5494293e-29
1.5494293e-29
1.5494293e-29
1.5494293e-29
1.5494293e-29
1.5494293e-29
1.5494293e-29
1.5494293e-29
1.5494293e-29
1.5494293e-29
1.5494293e-29
1.5494293e-29
1.5494293e-29
1.5494293e-29
1.5494293e-29
1.5494293e-29
1.5494293e-29
1.5494293e-29
1.5494293e-29
1.5494293e-29
1.5494293e-29
1.5494293e-29
1.5494293e-29
1.5494293e-29
1.5494293e-29
1.5494293e-29
1.5494293e-29
1.5494293e-29
1.5494293e-29
1.5494293e-29
1.5494293e-29
1.5494293e-29
1.5494293e-29
1.5494293e-29
1.5494293e-29
1.5494293e-29
1.5494293e-29
1.5494293e-29
1.5494293e-29
1.5494293e-29
1.5494293e-29
1.5494293e-29
)
;
    }
    Inlet
    {
        type            calculated;
        value           nonuniform List<scalar> 
50
(
-6.3277868e-30
-6.3277867e-30
-6.3277865e-30
-6.3277862e-30
-6.3277859e-30
-6.3277855e-30
-6.327785e-30
-6.3277846e-30
-6.3277842e-30
-6.3277838e-30
-6.3277834e-30
-6.3277832e-30
-6.3277829e-30
-6.3277828e-30
-6.3277827e-30
-6.3277826e-30
-6.3277825e-30
-6.3277825e-30
-6.3277825e-30
-6.3277825e-30
-6.3277825e-30
-6.3277825e-30
-6.3277825e-30
-6.3277825e-30
-6.3277825e-30
-6.3277825e-30
-6.3277825e-30
-6.3277825e-30
-6.3277825e-30
-6.3277824e-30
-6.3277824e-30
-6.3277824e-30
-6.3277824e-30
-6.3277824e-30
-6.3277824e-30
-6.3277824e-30
-6.3277824e-30
-6.3277824e-30
-6.3277824e-30
-6.3277824e-30
-6.3277824e-30
-6.3277824e-30
-6.3277824e-30
-6.3277824e-30
-6.3277824e-30
-6.3277824e-30
-6.3277824e-30
-6.3277824e-30
-6.3277824e-30
-6.3277824e-30
)
;
    }
    fluid_to_cilcen
    {
        type            calculated;
        value           nonuniform List<scalar> 
100
(
-121.79534
-318.89122
-481.17233
-607.24273
-702.50748
-774.17073
-828.46891
-870.26246
-903.05472
-929.33884
-950.85612
-968.83101
-984.12645
-997.35872
-1008.9729
-1019.2955
-1028.5696
-1036.9794
-1044.6661
-1051.7403
-1058.2895
-1064.3839
-1070.0808
-1075.4272
-1080.4625
-1085.2196
-1089.7267
-1094.0077
-1098.0833
-1101.9715
-1105.6882
-1109.2471
-1112.6605
-1115.9393
-1119.0932
-1122.1309
-1125.0603
-1127.8884
-1130.6216
-1133.2658
-1135.8264
-1138.3081
-1140.7154
-1143.0524
-1145.3229
-1147.5303
-1149.6779
-1151.7687
-1153.8054
-1155.7905
-1157.7266
-1159.6158
-1161.4602
-1163.2618
-1165.0223
-1166.7436
-1168.4272
-1170.0747
-1171.6875
-1173.2669
-1174.8142
-1176.3306
-1177.8173
-1179.2753
-1180.7056
-1182.1093
-1183.4872
-1184.8402
-1186.1691
-1187.4748
-1188.758
-1190.0194
-1191.2596
-1192.4794
-1193.6794
-1194.8601
-1196.0222
-1197.1662
-1198.2925
-1199.4018
-1200.4945
-1201.571
-1202.6319
-1203.6775
-1204.7084
-1205.7249
-1206.7277
-1207.7173
-1208.6945
-1209.6606
-1210.6172
-1211.5673
-1212.516
-1213.4719
-1214.4502
-1215.4781
-1216.6028
-1217.9077
-1219.5123
-1221.3993
)
;
    }
}


// ************************************************************************* //
