/*--------------------------------*- C++ -*----------------------------------*\
| =========                 |                                                 |
| \\      /  F ield         | OpenFOAM: The Open Source CFD Toolbox           |
|  \\    /   O peration     | Version:  3.0.1                                 |
|   \\  /    A nd           | Web:      www.OpenFOAM.org                      |
|    \\/     M anipulation  |                                                 |
\*---------------------------------------------------------------------------*/
FoamFile
{
    version     2.0;
    format      ascii;
    class       volScalarField;
    location    "10000/fluid";
    object      Qr;
}
// * * * * * * * * * * * * * * * * * * * * * * * * * * * * * * * * * * * * * //

dimensions      [1 0 -3 0 0 0 0];

internalField   uniform 0;

boundaryField
{
    LeftWedge
    {
        type            wedge;
    }
    RightWedge
    {
        type            wedge;
    }
    Inlet
    {
        type            calculated;
        value           uniform -6.3277868e-30;
    }
    Outlet
    {
        type            calculated;
        value           nonuniform List<scalar> 
40
(
1.5349933e-29
1.5349932e-29
1.5349932e-29
1.5349932e-29
1.5349932e-29
1.5349932e-29
1.5349932e-29
1.5349932e-29
1.5349932e-29
1.5349932e-29
1.5349932e-29
1.5349932e-29
1.5349932e-29
1.5349932e-29
1.5349932e-29
1.5349932e-29
1.5349932e-29
1.5349932e-29
1.5349932e-29
1.5349932e-29
1.5349932e-29
1.5349932e-29
1.5349932e-29
1.5349932e-29
1.5349932e-29
1.5349932e-29
1.5349932e-29
1.5349932e-29
1.5349932e-29
1.5349932e-29
1.5349932e-29
1.5349932e-29
1.5349932e-29
1.5349932e-29
1.5349932e-29
1.5349932e-29
1.5349932e-29
1.5349932e-29
1.5349932e-29
1.5349932e-29
)
;
    }
    Outterwall
    {
        type            calculated;
        value           nonuniform List<scalar> 
100
(
697.40155
743.7341
790.3331
831.13506
865.58379
894.41383
918.60428
939.06109
956.53755
971.6331
984.81584
996.44899
1006.8145
1016.132
1024.5742
1032.2776
1039.3513
1045.8833
1051.9452
1057.5958
1062.8841
1067.8508
1072.5305
1076.9525
1081.142
1085.1207
1088.9073
1092.5184
1095.9685
1099.2703
1102.4351
1105.4732
1108.3934
1111.2041
1113.9124
1116.5251
1119.0481
1121.487
1123.8467
1126.1319
1128.3466
1130.4949
1132.5803
1134.606
1136.5751
1138.4904
1140.3546
1142.17
1143.939
1145.6636
1147.3459
1148.9878
1150.5908
1152.1568
1153.6871
1155.1833
1156.6468
1158.0787
1159.4803
1160.8528
1162.1972
1163.5146
1164.8058
1166.072
1167.3138
1168.5322
1169.7279
1170.9017
1172.0544
1173.1865
1174.2987
1175.3917
1176.466
1177.5223
1178.561
1179.5827
1180.5878
1181.5769
1182.5505
1183.5088
1184.4525
1185.3818
1186.2973
1187.1992
1188.0882
1188.9646
1189.8292
1190.6826
1191.5263
1192.3622
1193.1937
1194.0266
1194.8711
1195.7446
1196.6772
1197.7161
1198.9279
1200.3627
1202.0174
1203.3126
)
;
    }
    fluid_to_solid
    {
        type            calculated;
        value           nonuniform List<scalar> 
100
(
-697.39788
-743.73111
-790.33024
-831.13224
-865.58099
-894.41107
-918.60156
-939.05841
-956.53491
-971.6305
-984.81329
-996.44648
-1006.812
-1016.1296
-1024.5718
-1032.2753
-1039.349
-1045.881
-1051.9429
-1057.5936
-1062.8819
-1067.8486
-1072.5284
-1076.9504
-1081.1399
-1085.1186
-1088.9053
-1092.5164
-1095.9665
-1099.2683
-1102.4332
-1105.4713
-1108.3915
-1111.2022
-1113.9106
-1116.5233
-1119.0463
-1121.4852
-1123.8449
-1126.1301
-1128.3449
-1130.4932
-1132.5786
-1134.6043
-1136.5735
-1138.4888
-1140.353
-1142.1684
-1143.9374
-1145.6621
-1147.3444
-1148.9862
-1150.5893
-1152.1553
-1153.6857
-1155.1819
-1156.6453
-1158.0773
-1159.4789
-1160.8514
-1162.1958
-1163.5132
-1164.8045
-1166.0706
-1167.3125
-1168.5309
-1169.7266
-1170.9005
-1172.0531
-1173.1852
-1174.2975
-1175.3905
-1176.4648
-1177.5211
-1178.5598
-1179.5815
-1180.5867
-1181.5758
-1182.5493
-1183.5077
-1184.4513
-1185.3807
-1186.2962
-1187.1981
-1188.0871
-1188.9636
-1189.8281
-1190.6816
-1191.5253
-1192.3612
-1193.1927
-1194.0256
-1194.8701
-1195.7436
-1196.6762
-1197.7151
-1198.9269
-1200.3617
-1202.0165
-1203.3116
)
;
    }
}


// ************************************************************************* //
