/*--------------------------------*- C++ -*----------------------------------*\
| =========                 |                                                 |
| \\      /  F ield         | OpenFOAM: The Open Source CFD Toolbox           |
|  \\    /   O peration     | Version:  3.0.1                                 |
|   \\  /    A nd           | Web:      www.OpenFOAM.org                      |
|    \\/     M anipulation  |                                                 |
\*---------------------------------------------------------------------------*/
FoamFile
{
    version     2.0;
    format      ascii;
    class       volScalarField;
    location    "3500/fluid";
    object      rho;
}
// * * * * * * * * * * * * * * * * * * * * * * * * * * * * * * * * * * * * * //

dimensions      [1 -3 0 0 0 0 0];

internalField   nonuniform List<scalar> 
5000
(
1.1277796
1.1331714
1.1388904
1.1448637
1.1509974
1.1571788
1.1632817
1.1691746
1.1747296
1.1798331
1.1843953
1.1883573
1.1916944
1.1944163
1.1965622
1.1981944
1.1993896
1.2002301
1.2007959
1.2011595
1.2013816
1.20151
1.2015801
1.2016159
1.201633
1.2016405
1.2016436
1.2016448
1.2016451
1.2016453
1.2016453
1.2016453
1.2016453
1.2016453
1.2016453
1.2016453
1.2016453
1.2016453
1.2016453
1.2016453
1.2016453
1.2016453
1.2016453
1.2016453
1.2016453
1.2016453
1.2016453
1.2016453
1.2016453
1.2016453
1.0432784
1.0517817
1.0609503
1.0707392
1.0810737
1.0918471
1.1029202
1.114124
1.125266
1.1361391
1.146534
1.1562528
1.165123
1.1730097
1.1798253
1.1855353
1.1901589
1.1937653
1.1964646
1.1983953
1.1997088
1.2005547
1.2010677
1.201359
1.201513
1.2015884
1.2016223
1.2016362
1.2016414
1.2016431
1.2016436
1.2016438
1.2016438
1.2016438
1.2016438
1.2016438
1.2016438
1.2016438
1.2016438
1.2016438
1.2016438
1.2016438
1.2016438
1.2016438
1.2016438
1.2016438
1.2016438
1.2016438
1.2016438
1.2016438
0.99206741
1.0007087
1.0101113
1.0202985
1.0312759
1.0430238
1.0554894
1.0685779
1.0821465
1.0960003
1.1098948
1.1235456
1.1366454
1.1488895
1.1600041
1.1697745
1.1780672
1.1848423
1.190153
1.1941323
1.1969714
1.1988916
1.2001166
1.2008499
1.2012593
1.2014712
1.2015721
1.2016161
1.2016334
1.2016396
1.2016416
1.2016421
1.2016423
1.2016423
1.2016423
1.2016423
1.2016423
1.2016423
1.2016423
1.2016423
1.2016423
1.2016423
1.2016423
1.2016423
1.2016423
1.2016423
1.2016423
1.2016423
1.2016423
1.2016423
0.95966355
0.96814341
0.97738972
0.98744511
0.99834322
1.0101033
1.0227232
1.0361706
1.050373
1.0652073
1.0804915
1.0959798
1.1113656
1.1262958
1.1403962
1.1533085
1.1647312
1.1744584
1.1824043
1.1886092
1.1932248
1.196483
1.1986562
1.2000193
1.2008188
1.2012546
1.2014738
1.2015749
1.2016172
1.2016332
1.2016386
1.2016403
1.2016407
1.2016408
1.2016408
1.2016408
1.2016408
1.2016408
1.2016408
1.2016408
1.2016408
1.2016408
1.2016408
1.2016408
1.2016408
1.2016408
1.2016408
1.2016408
1.2016408
1.2016408
0.93830441
0.94657028
0.9555902
0.96541441
0.97608851
0.9876494
1.0001196
1.0134997
1.0277593
1.0428257
1.0585721
1.0748074
1.0912692
1.107626
1.1234913
1.138452
1.1521112
1.1641367
1.1743062
1.1825366
1.1888883
1.1935457
1.1967775
1.1988904
1.2001851
1.2009244
1.2013151
1.2015047
1.2015886
1.2016221
1.2016341
1.2016379
1.201639
1.2016393
1.2016393
1.2016393
1.2016393
1.2016393
1.2016393
1.2016393
1.2016393
1.2016393
1.2016393
1.2016393
1.2016393
1.2016393
1.2016393
1.2016393
1.2016393
1.2016393
0.92365138
0.93167535
0.94043261
0.94997629
0.9603574
0.97162177
0.98380554
0.99692905
1.0109887
1.0259465
1.0417185
1.0581614
1.0750622
1.0921312
1.1090063
1.1252706
1.1404869
1.1542458
1.1662196
1.1762088
1.1841675
1.1902011
1.1945369
1.197478
1.199352
1.2004674
1.2010835
1.2013969
1.2015425
1.2016038
1.201627
1.2016348
1.2016371
1.2016377
1.2016378
1.2016378
1.2016378
1.2016378
1.2016378
1.2016378
1.2016378
1.2016378
1.2016378
1.2016378
1.2016378
1.2016378
1.2016378
1.2016378
1.2016378
1.2016378
0.91324297
0.92103679
0.929542
0.93881256
0.94890187
0.95986038
0.971732
0.98454893
0.99832472
1.013045
1.0286563
1.0450527
1.0620631
1.0794404
1.0968582
1.1139193
1.1301805
1.1451948
1.1585657
1.1700023
1.179361
1.1866603
1.1920662
1.1958526
1.1983494
1.1998911
1.2007768
1.2012468
1.2014753
1.2015761
1.2016162
1.2016303
1.2016348
1.201636
1.2016363
1.2016363
1.2016363
1.2016363
1.2016363
1.2016363
1.2016363
1.2016363
1.2016363
1.2016363
1.2016363
1.2016363
1.2016363
1.2016363
1.2016363
1.2016363
0.90559243
0.91317244
0.9214424
0.93045599
0.94026741
0.95092939
0.96249027
0.97498976
0.98845287
1.0028818
1.0182456
1.0344673
1.0514106
1.0688667
1.0865463
1.104081
1.1210396
1.1369623
1.1514114
1.1640291
1.1745893
1.1830276
1.1894417
1.1940614
1.1972006
1.1992028
1.2003942
1.2010509
1.2013834
1.2015367
1.2016004
1.2016241
1.2016319
1.2016341
1.2016347
1.2016348
1.2016348
1.2016348
1.2016348
1.2016348
1.2016348
1.2016348
1.2016348
1.2016348
1.2016348
1.2016348
1.2016348
1.2016348
1.2016348
1.2016348
0.89979157
0.90718057
0.91523984
0.92402232
0.93358212
0.9439729
0.95524547
0.96744417
0.98060167
0.99473179
1.00982
1.0258116
1.0425981
1.0600034
1.0777727
1.0955688
1.1129813
1.1295531
1.1448251
1.1583937
1.1699675
1.1794089
1.1867476
1.1921627
1.1959402
1.1984193
1.1999412
1.200809
1.201265
1.2014838
1.2015787
1.2016155
1.2016282
1.201632
1.201633
1.2016333
1.2016333
1.2016333
1.2016333
1.2016333
1.2016333
1.2016333
1.2016333
1.2016333
1.2016333
1.2016333
1.2016333
1.2016333
1.2016333
1.2016333
0.89526122
0.90248
0.91035123
0.9189269
0.92826054
0.938406
0.94941536
0.96133583
0.9742053
0.98804586
1.0028553
1.018596
1.0351821
1.0524647
1.0702197
1.0881403
1.1058406
1.1228748
1.1387763
1.1531113
1.1655382
1.1758572
1.1840346
1.1901969
1.1945954
1.1975558
1.1994241
1.2005224
1.201119
1.2014159
1.2015498
1.201604
1.2016235
1.2016296
1.2016313
1.2016317
1.2016318
1.2016318
1.2016318
1.2016318
1.2016318
1.2016318
1.2016318
1.2016318
1.2016318
1.2016318
1.2016318
1.2016318
1.2016318
1.2016318
0.89162759
0.89869565
0.90640026
0.91479233
0.92392466
0.93385079
0.94462332
0.95629124
0.96889591
0.98246539
0.99700671
1.0124956
1.028864
1.0459861
1.0636645
1.0816204
1.0994929
1.116853
1.133235
1.1481872
1.1613304
1.1724131
1.1813447
1.1882003
1.1931933
1.1966292
1.1988515
1.200194
1.2009456
1.2013321
1.2015129
1.2015889
1.2016174
1.2016268
1.2016295
1.2016302
1.2016303
1.2016303
1.2016303
1.2016303
1.2016303
1.2016303
1.2016303
1.2016303
1.2016303
1.2016303
1.2016303
1.2016303
1.2016303
1.2016303
0.88864183
0.89557596
0.90313244
0.91136112
0.92031391
0.93004385
0.94060361
0.95204318
0.9644063
0.97772538
0.99201444
1.0072597
1.0234076
1.0403514
1.0579167
1.0758502
1.0938155
1.111402
1.1281513
1.1436022
1.1573483
1.1690954
1.1787033
1.186198
1.1917544
1.1956539
1.1982318
1.1998276
1.2007455
1.201232
1.2014672
1.2015698
1.2016097
1.2016234
1.2016275
1.2016285
1.2016288
1.2016288
1.2016288
1.2016288
1.2016288
1.2016288
1.2016288
1.2016288
1.2016288
1.2016288
1.2016288
1.2016288
1.2016288
1.2016288
0.88613574
0.89295053
0.90037497
0.9084579
0.91725033
0.92680465
0.93717332
0.94840685
0.96055056
0.97364008
0.98769478
1.0027091
1.0186416
1.035401
1.0528331
1.0707071
1.0887097
1.1064498
1.1234795
1.1393345
1.153589
1.1659148
1.1761279
1.1842096
1.1902964
1.1946432
1.1975734
1.1994273
1.2005203
1.2011157
1.2014123
1.2015461
1.2016
1.2016193
1.2016253
1.2016269
1.2016272
1.2016273
1.2016273
1.2016273
1.2016273
1.2016273
1.2016273
1.2016273
1.2016273
1.2016273
1.2016273
1.2016273
1.2016273
1.2016273
0.88399276
0.89070062
0.89800675
0.90595901
0.91460753
0.92400398
0.93420049
0.94524771
0.95719206
0.97007149
0.98390958
0.99870742
1.0144331
1.0310091
1.0482978
1.066089
1.0840905
1.1019306
1.1191738
1.1353574
1.1500424
1.1628734
1.1736287
1.1822485
1.1888324
1.1936081
1.196884
1.1989977
1.2002718
1.2009833
1.2013479
1.2015174
1.2015882
1.2016143
1.2016228
1.2016251
1.2016257
1.2016258
1.2016258
1.2016258
1.2016258
1.2016258
1.2016258
1.2016258
1.2016258
1.2016258
1.2016258
1.2016258
1.2016258
1.2016258
0.88213071
0.88874225
0.8959418
0.90377633
0.9122951
0.92154906
0.93158985
0.94246814
0.954231
0.96691814
0.9805564
0.99515226
1.0106819
1.0270789
1.0442207
1.0619146
1.0798884
1.0977886
1.1151937
1.1316452
1.1466962
1.1599694
1.171211
1.180324
1.1873727
1.1925577
1.1961704
1.198543
1.2000021
1.2008357
1.2012739
1.2014836
1.2015738
1.2016083
1.2016199
1.2016233
1.2016241
1.2016243
1.2016243
1.2016243
1.2016243
1.2016243
1.2016243
1.2016243
1.2016243
1.2016243
1.2016243
1.2016243
1.2016243
1.2016243
0.88049035
0.88701464
0.89411765
0.90184551
0.91024667
0.91937135
0.92927068
0.93999515
0.95159228
0.96410305
0.97755693
0.99196474
1.0073094
1.0235341
1.0405291
1.0581176
1.0760451
1.0939759
1.1115026
1.1281733
1.1435366
1.1571982
1.1688768
1.178442
1.1859252
1.1914994
1.1954385
1.1980671
1.1997134
1.2006737
1.2011905
1.2014444
1.2015568
1.2016012
1.2016167
1.2016213
1.2016225
1.2016228
1.2016228
1.2016228
1.2016228
1.2016228
1.2016228
1.2016228
1.2016228
1.2016228
1.2016228
1.2016228
1.2016228
1.2016228
0.87902823
0.88547304
0.89248813
0.90011884
0.90841283
0.91741964
0.92718986
0.93777372
0.94921895
0.96156754
0.97485099
0.98908375
1.0042544
1.0203145
1.0371652
1.054644
1.0725126
1.0904519
1.1080686
1.124919
1.1405497
1.1545538
1.1666261
1.1766065
1.1844952
1.1904391
1.1946936
1.1975739
1.1994079
1.2004981
1.2010977
1.2013996
1.201537
1.2015929
1.2016129
1.2016192
1.2016209
1.2016212
1.2016213
1.2016213
1.2016213
1.2016213
1.2016213
1.2016213
1.2016213
1.2016213
1.2016213
1.2016213
1.2016213
1.2016213
0.87771183
0.88408387
0.89101847
0.89856022
0.90675608
0.91565491
0.92530673
0.93576148
0.94706697
0.95926592
0.9723915
0.98646117
1.0014683
1.0173716
1.034082
1.0514495
1.0692507
1.0871819
1.1048638
1.1218615
1.1377223
1.1520292
1.1644572
1.1748193
1.1830871
1.1893816
1.1939397
1.1970666
1.1990877
1.2003102
1.2009961
1.2013492
1.2015142
1.2015832
1.2016087
1.2016169
1.2016192
1.2016197
1.2016198
1.2016198
1.2016198
1.2016198
1.2016198
1.2016198
1.2016198
1.2016198
1.2016198
1.2016198
1.2016198
1.2016198
0.8765164
0.88282148
0.88968202
0.89714194
0.90524751
0.91404694
0.92358971
0.93392542
0.94510187
0.9571623
0.97014124
0.98405869
0.99891215
1.0146664
1.0312412
1.0484977
1.0662258
1.0841365
1.1018639
1.1189824
1.1350416
1.1496173
1.1623676
1.1730813
1.1817034
1.1883305
1.1931806
1.196548
1.1987549
1.200111
1.2008859
1.2012933
1.2014882
1.2015719
1.2016038
1.2016144
1.2016174
1.2016182
1.2016183
1.2016183
1.2016183
1.2016183
1.2016183
1.2016183
1.2016183
1.2016183
1.2016183
1.2016183
1.2016183
1.2016183
0.87542278
0.88166596
0.88845806
0.89584235
0.90386446
0.912572
0.92201392
0.93223941
0.94329624
0.95522802
0.96807038
0.98184547
0.99655434
1.0121672
1.0286114
1.0457582
1.0634097
1.0812905
1.0990476
1.1162652
1.1324962
1.1473112
1.1603541
1.1713924
1.1803461
1.1872885
1.1924192
1.1960209
1.1984111
1.1999016
1.2007677
1.201232
1.2014591
1.2015591
1.2015982
1.2016116
1.2016156
1.2016166
1.2016168
1.2016168
1.2016168
1.2016168
1.2016168
1.2016168
1.2016168
1.2016168
1.2016168
1.2016168
1.2016168
1.2016168
0.87441588
0.88060161
0.88733018
0.89464429
0.90258895
0.91121119
0.92055944
0.93068253
0.94162807
0.95343996
0.96615476
0.9797964
0.99436906
1.0098477
1.0261665
1.0432057
1.0607786
1.0786225
1.0963968
1.1136952
1.1300752
1.145104
1.1584135
1.1697519
1.1790164
1.1862579
1.191658
1.1954872
1.1980582
1.1996829
1.2006419
1.2011655
1.2014268
1.2015446
1.2015919
1.2016086
1.2016137
1.201615
1.2016153
1.2016153
1.2016153
1.2016153
1.2016153
1.2016153
1.2016153
1.2016153
1.2016153
1.2016153
1.2016153
1.2016153
0.87348366
0.87961585
0.88628523
0.89353396
0.90140647
0.90994924
0.91921019
0.92923777
0.94007943
0.95177926
0.96437457
0.97789084
0.99233496
1.0076861
1.0238845
1.0408187
1.0583122
1.076114
1.0938952
1.1112593
1.127769
1.1429893
1.1565421
1.1681586
1.1777148
1.1852402
1.1908988
1.194949
1.1976975
1.1994561
1.2005091
1.2010938
1.2013913
1.2015284
1.2015848
1.2016052
1.2016116
1.2016134
1.2016138
1.2016138
1.2016138
1.2016138
1.2016138
1.2016138
1.2016138
1.2016138
1.2016138
1.2016138
1.2016138
1.2016138
0.87261639
0.8786985
0.88531255
0.89250014
0.90030519
0.90877365
0.91795296
0.92789117
0.93863556
0.95023034
0.96271342
0.97611164
0.99043426
1.0056642
1.0217472
1.0385792
1.0559932
1.0737489
1.0915288
1.1089461
1.1255687
1.140961
1.1547366
1.1666112
1.1764414
1.1842367
1.1901433
1.1944079
1.1973305
1.199222
1.2003699
1.2010172
1.2013527
1.2015104
1.2015769
1.2016015
1.2016095
1.2016117
1.2016122
1.2016123
1.2016123
1.2016123
1.2016123
1.2016123
1.2016123
1.2016123
1.2016123
1.2016123
1.2016123
1.2016123
0.87180606
0.8778412
0.88440333
0.89153358
0.89927537
0.90767413
0.91677683
0.92663118
0.93728421
0.94878022
0.96115762
0.97444443
0.98865201
1.0037666
1.019739
1.0364717
1.0538066
1.0715135
1.0892854
1.1067451
1.1234663
1.1390135
1.1529934
1.1651082
1.1751963
1.183248
1.1893929
1.1938652
1.1969584
1.1989816
1.2002247
1.2009359
1.2013109
1.2014907
1.201568
1.2015975
1.2016072
1.20161
1.2016107
1.2016108
1.2016108
1.2016108
1.2016108
1.2016108
1.2016108
1.2016108
1.2016108
1.2016108
1.2016108
1.2016108
0.87104608
0.87703701
0.88355029
0.89062659
0.89830886
0.90664204
0.91567268
0.92544808
0.93601507
0.94741798
0.95969563
0.97287707
0.98697551
1.0019803
1.0178464
1.034483
1.0517396
1.0693956
1.0871542
1.1046471
1.1214545
1.1371416
1.1513094
1.163648
1.173979
1.1822748
1.1886484
1.193322
1.1965821
1.1987355
1.200074
1.2008503
1.201266
1.201469
1.2015582
1.201593
1.2016048
1.2016083
1.2016091
1.2016093
1.2016093
1.2016093
1.2016093
1.2016093
1.2016093
1.2016093
1.2016093
1.2016093
1.2016093
1.2016093
0.87033088
0.87628009
0.88274729
0.8897727
0.89739882
0.90567015
0.91463278
0.92433368
0.93481944
0.94613437
0.95831765
0.97139923
0.98539397
1.0002939
1.0160582
1.0326015
1.049781
1.0673847
1.0851255
1.1026441
1.1195267
1.1353403
1.1496812
1.1622288
1.1727891
1.1813173
1.1879107
1.1927795
1.1962027
1.1984847
1.1999184
1.2007605
1.2012182
1.2014456
1.2015475
1.2015881
1.2016022
1.2016065
1.2016076
1.2016078
1.2016078
1.2016079
1.2016079
1.2016079
1.2016079
1.2016079
1.2016079
1.2016079
1.2016079
1.2016079
0.86965579
0.87556553
0.88198913
0.88896641
0.89653943
0.90475226
0.91365058
0.92328101
0.93368988
0.94492149
0.9570153
0.97000204
0.98389807
0.99869786
1.0143644
1.0308174
1.047921
1.0654716
1.083191
1.1007286
1.117677
1.1336053
1.148106
1.160849
1.171626
1.1803757
1.1871805
1.1922383
1.1958209
1.1982297
1.1997583
1.2006667
1.2011674
1.2014203
1.2015358
1.2015827
1.2015995
1.2016046
1.201606
1.2016063
1.2016063
1.2016064
1.2016064
1.2016064
1.2016064
1.2016064
1.2016064
1.2016064
1.2016064
1.2016064
0.8690168
0.87488912
0.88127139
0.88820304
0.89572573
0.9038831
0.91272046
0.92228405
0.93262
0.94377252
0.95578134
0.96867785
0.98247977
0.99718381
1.0127563
1.029122
1.0461511
1.063648
1.0813431
1.0988941
1.1159
1.1319323
1.146581
1.1595069
1.1704889
1.1794502
1.1864581
1.1916992
1.1954375
1.1979711
1.1995941
1.2005693
1.2011139
1.2013932
1.201523
1.2015769
1.2015965
1.2016027
1.2016044
1.2016048
1.2016048
1.2016049
1.2016049
1.2016049
1.2016049
1.2016049
1.2016049
1.2016049
1.2016049
1.2016049
0.86841048
0.87424723
0.88059023
0.88747853
0.8949534
0.9030581
0.91183754
0.92133764
0.93160427
0.94268159
0.9546095
0.96742002
0.98113207
0.99574441
1.0112265
1.0275075
1.0444637
1.0619067
1.0795751
1.0971346
1.1141907
1.1303177
1.1451034
1.1582011
1.1693772
1.1785404
1.185744
1.1911627
1.195053
1.1977096
1.1994262
1.2004685
1.2010578
1.2013644
1.2015092
1.2015705
1.2015933
1.2016007
1.2016028
1.2016032
1.2016033
1.2016034
1.2016034
1.2016034
1.2016034
1.2016034
1.2016034
1.2016034
1.2016034
1.2016034
0.86783385
0.87363674
0.87994234
0.88678938
0.89421874
0.90227329
0.9109976
0.92043725
0.93063788
0.94164354
0.95349431
0.96622274
0.97984884
0.99437326
1.0097684
1.0259674
1.0428522
1.0602413
1.0778811
1.095445
1.1125448
1.128758
1.1436708
1.1569298
1.1682901
1.1776465
1.1850384
1.1906293
1.1946681
1.1974455
1.199255
1.2003645
1.2009991
1.2013337
1.2014944
1.2015636
1.2015899
1.2015987
1.2016011
1.2016017
1.2016018
1.2016019
1.2016019
1.2016019
1.2016019
1.2016019
1.2016019
1.2016019
1.2016019
1.2016019
0.86728432
0.87305491
0.87932485
0.88613253
0.89351847
0.90152522
0.91019695
0.91957895
0.9297166
0.94065387
0.95243096
0.9650809
0.9786247
0.99306472
1.008376
1.0244957
1.0413107
1.058646
1.0762556
1.0938202
1.110958
1.1272498
1.1422808
1.1556916
1.1672268
1.176768
1.1843415
1.1900995
1.1942832
1.1971794
1.199081
1.2002576
1.2009379
1.2013014
1.2014786
1.2015562
1.2015863
1.2015965
1.2015995
1.2016002
1.2016003
1.2016004
1.2016004
1.2016004
1.2016004
1.2016004
1.2016004
1.2016004
1.2016004
1.2016004
0.86675962
0.87249933
0.8787352
0.88550528
0.89284976
0.90081083
0.90943234
0.91875925
0.92883673
0.93970862
0.95141523
0.96399002
0.97745489
0.9918138
1.0070443
1.023087
1.0398337
1.0571157
1.0746938
1.0922561
1.1094268
1.1257903
1.1409314
1.1544851
1.1661865
1.1759048
1.1836533
1.1895735
1.1938987
1.1969116
1.1989043
1.200148
1.2008745
1.2012674
1.2014617
1.2015482
1.2015824
1.2015943
1.2015978
1.2015986
1.2015988
1.2015989
1.2015989
1.2015989
1.2015989
1.2015989
1.2015989
1.2015989
1.2015989
1.2015989
0.86625775
0.87196791
0.87817116
0.88490526
0.89221007
0.90012744
0.90870089
0.9179751
0.92799499
0.93880428
0.95044337
0.96294609
0.97633518
0.99061605
1.0057685
1.0217366
1.0384167
1.0556458
1.0731913
1.0907486
1.1079476
1.1243767
1.1396203
1.153309
1.1651686
1.1750565
1.182974
1.1890515
1.1935149
1.1966425
1.1987253
1.2000358
1.2008088
1.2012317
1.2014437
1.2015397
1.2015783
1.2015919
1.201596
1.2015971
1.2015973
1.2015974
1.2015974
1.2015974
1.2015974
1.2015974
1.2015974
1.2015974
1.2015974
1.2015974
0.86577692
0.87145876
0.87763076
0.88433037
0.89159716
0.89947265
0.90800006
0.91722376
0.92718845
0.93793772
0.94951204
0.96194556
0.97526181
0.98946751
1.0045446
1.0204404
1.0370554
1.054232
1.0717443
1.0892941
1.1065175
1.1230065
1.1383458
1.1521619
1.1641721
1.1742229
1.1823035
1.1885339
1.1931321
1.1963724
1.1985443
1.1999214
1.2007411
1.2011945
1.2014248
1.2015306
1.2015739
1.2015894
1.2015943
1.2015955
1.2015958
1.2015959
1.2015959
1.2015959
1.2015959
1.2015959
1.2015959
1.2015959
1.2015959
1.2015959
0.86531557
0.87097022
0.87711221
0.88377873
0.89100904
0.89884435
0.90732757
0.9165028
0.92641451
0.93710616
0.94861825
0.96098527
0.9742314
0.98836464
1.003369
1.0191944
1.0357458
1.0528707
1.0703491
1.0878894
1.1051335
1.1216773
1.1371061
1.1510425
1.1631965
1.1734037
1.1816418
1.1880207
1.1927507
1.1961016
1.1983615
1.1998048
1.2006714
1.2011558
1.2014048
1.2015209
1.2015692
1.2015869
1.2015924
1.201594
1.2015943
1.2015944
1.2015944
1.2015944
1.2015944
1.2015944
1.2015944
1.2015944
1.2015944
1.2015944
0.86487228
0.8705008
0.87661396
0.88324867
0.89044392
0.89824062
0.90668139
0.91581005
0.92567083
0.9363071
0.94775935
0.96006235
0.97324092
0.98730423
1.0022381
1.0179954
1.0344847
1.0515584
1.0690024
1.0865314
1.103793
1.120387
1.1358994
1.1499498
1.162241
1.1725984
1.1809889
1.187512
1.1923708
1.1958303
1.1981771
1.1996863
1.2005999
1.2011156
1.2013838
1.2015106
1.2015642
1.2015842
1.2015906
1.2015924
1.2015928
1.2015929
1.2015929
1.2015929
1.2015929
1.2015929
1.2015929
1.2015929
1.2015929
1.2015929
0.86444579
0.87004915
0.87613457
0.88273869
0.8899002
0.89765976
0.90605968
0.91514354
0.92495533
0.93553828
0.94693292
0.95917423
0.97228766
0.98628342
1.0011491
1.0168401
1.0332687
1.0502919
1.0677013
1.0852174
1.1024936
1.1191335
1.1347243
1.1488827
1.1613048
1.1718068
1.1803446
1.187008
1.1919926
1.1955588
1.1979914
1.199566
1.2005266
1.201074
1.2013618
1.2014997
1.2015589
1.2015813
1.2015887
1.2015908
1.2015913
1.2015914
1.2015914
1.2015914
1.2015914
1.2015914
1.2015914
1.2015914
1.2015914
1.2015914
0.86403495
0.86961408
0.87567277
0.88224741
0.88937644
0.89710022
0.90546081
0.9145015
0.9242661
0.93479769
0.94613678
0.95831861
0.97136913
0.98529959
1.0000992
1.0157259
1.0320952
1.0490686
1.0664431
1.083945
1.1012331
1.117915
1.1335792
1.14784
1.1603874
1.1710284
1.1797088
1.1865088
1.1916163
1.1952873
1.1978046
1.1994441
1.2004518
1.201031
1.2013389
1.2014882
1.2015533
1.2015784
1.2015868
1.2015892
1.2015897
1.2015898
1.2015899
1.2015899
1.2015899
1.2015899
1.2015899
1.2015899
1.2015899
1.2015899
0.86363874
0.86919449
0.8752274
0.88177362
0.88887132
0.89656061
0.90488327
0.91388235
0.92360144
0.93408348
0.94536899
0.95749337
0.97048311
0.98435038
0.99908593
1.01465
1.0309613
1.0478858
1.0652252
1.0827117
1.1000093
1.1167297
1.1324628
1.1468208
1.1594881
1.1702631
1.1790815
1.1860143
1.191242
1.1950159
1.1976168
1.1993207
1.2003754
1.2009867
1.201315
1.2014762
1.2015474
1.2015753
1.2015847
1.2015875
1.2015882
1.2015883
1.2015884
1.2015884
1.2015884
1.2015884
1.2015884
1.2015884
1.2015884
1.2015884
0.86325622
0.8687894
0.87479742
0.8813162
0.88838367
0.89603966
0.90432571
0.91328462
0.92295978
0.93339398
0.94462773
0.95669661
0.96962756
0.98343364
0.99810704
1.0136102
1.0298649
1.046741
1.0640454
1.0815154
1.0988204
1.115576
1.1313738
1.1458242
1.1586063
1.1695103
1.1784625
1.1855246
1.1908699
1.1947448
1.1974282
1.199196
1.2002975
1.2009412
1.2012902
1.2014635
1.2015412
1.201572
1.2015827
1.2015859
1.2015867
1.2015868
1.2015869
1.2015869
1.2015869
1.2015869
1.2015869
1.2015869
1.2015869
1.2015869
0.86288654
0.86839791
0.87438188
0.88087414
0.88791239
0.89553622
0.9037869
0.91270701
0.92233971
0.93272768
0.94391139
0.95592659
0.96880063
0.9825474
0.99716047
1.0126043
1.0288037
1.0456323
1.0629016
1.0803542
1.0976647
1.1144525
1.130311
1.1448493
1.1577414
1.1687698
1.1778517
1.1850398
1.1905
1.1944742
1.1972389
1.1990701
1.2002183
1.2008945
1.2012645
1.2014503
1.2015346
1.2015686
1.2015806
1.2015842
1.2015851
1.2015853
1.2015854
1.2015854
1.2015854
1.2015854
1.2015854
1.2015854
1.2015854
1.2015854
0.86252893
0.8680192
0.87397991
0.88044652
0.88745651
0.89504923
0.90326571
0.91214829
0.92173994
0.93208319
0.94321848
0.9551817
0.96800061
0.98168987
0.99624433
1.0116304
1.0277757
1.0445574
1.0617918
1.0792263
1.0965404
1.1133577
1.1292733
1.1438951
1.1568927
1.1680413
1.1772489
1.1845597
1.1901325
1.1942042
1.1970491
1.1989431
1.2001379
1.2008467
1.201238
1.2014365
1.2015277
1.201565
1.2015784
1.2015825
1.2015836
1.2015838
1.2015839
1.2015839
1.2015839
1.2015839
1.2015839
1.2015839
1.2015839
1.2015839
0.86218268
0.86765252
0.8735907
0.88003249
0.88701513
0.89457774
0.90276111
0.91160737
0.92115928
0.93145924
0.94254764
0.95446051
0.96722596
0.9808594
0.99535688
1.0106867
1.026779
1.0435147
1.0607141
1.0781298
1.095446
1.1122902
1.1282596
1.142961
1.1560599
1.1673244
1.176654
1.1840845
1.1897673
1.1939348
1.1968589
1.1988151
1.2000563
1.2007978
1.2012106
1.2014221
1.2015205
1.2015613
1.2015761
1.2015808
1.201582
1.2015823
1.2015824
1.2015824
1.2015824
1.2015824
1.2015824
1.2015824
1.2015824
1.2015824
0.86184714
0.86729719
0.87321354
0.87963128
0.88658742
0.89412086
0.90227216
0.91108323
0.92059665
0.93085465
0.94189762
0.95376166
0.96647525
0.98005447
0.99449653
1.0097715
1.0258121
1.0425024
1.0596671
1.0770634
1.0943802
1.111249
1.1272688
1.1420462
1.1552423
1.1666187
1.1760669
1.1836139
1.1894046
1.1936663
1.1966684
1.1986862
1.1999736
1.2007478
1.2011823
1.2014072
1.2015129
1.2015574
1.2015738
1.2015791
1.2015805
1.2015808
1.2015809
1.2015809
1.2015809
1.2015809
1.2015809
1.2015809
1.2015809
1.2015809
0.86152171
0.86695256
0.87284776
0.87924217
0.88617262
0.89367778
0.901798
0.91057495
0.92005104
0.93026837
0.94126726
0.95308392
0.96574716
0.97927369
0.99366182
1.0088833
1.0248732
1.0415189
1.0586491
1.0760254
1.0933415
1.1102327
1.1263002
1.1411498
1.1544394
1.1659242
1.1754874
1.1831482
1.1890443
1.1933985
1.1964778
1.1985566
1.19989
1.2006969
1.2011533
1.2013917
1.201505
1.2015533
1.2015714
1.2015773
1.2015789
1.2015793
1.2015794
1.2015794
1.2015794
1.2015794
1.2015794
1.2015794
1.2015794
1.2015794
0.86120585
0.86661807
0.87249273
0.87886451
0.88577003
0.89324775
0.90133781
0.91008167
0.91952154
0.9296994
0.94065551
0.95242617
0.96504049
0.97851578
0.99285139
1.0080206
1.023961
1.0405628
1.0576586
1.0750146
1.0923288
1.1092404
1.1253527
1.1402714
1.1536509
1.1652403
1.1749153
1.1826871
1.1886866
1.1931318
1.196287
1.1984262
1.1998053
1.200645
1.2011235
1.2013756
1.2014968
1.2015491
1.2015689
1.2015755
1.2015773
1.2015778
1.2015779
1.2015779
1.2015779
1.2015779
1.2015779
1.2015779
1.2015779
1.2015779
0.86089905
0.86629317
0.87214789
0.87849769
0.88537901
0.89283009
0.90089086
0.90960259
0.9190073
0.92914682
0.94006138
0.95178735
0.9643541
0.97777954
0.99206398
1.0071823
1.0230741
1.0396327
1.0566944
1.0740296
1.0913408
1.1082709
1.1244256
1.1394102
1.1528761
1.1645668
1.1743505
1.1822306
1.1883314
1.192866
1.1960962
1.1982953
1.1997198
1.2005923
1.201093
1.2013591
1.2014883
1.2015446
1.2015664
1.2015737
1.2015758
1.2015763
1.2015764
1.2015764
1.2015764
1.2015764
1.2015764
1.2015764
1.2015764
1.2015764
0.86060084
0.86597737
0.87181271
0.87814116
0.88499896
0.89242416
0.90045648
0.90913698
0.91850752
0.92860981
0.93948398
0.95116648
0.96368697
0.97706387
0.99129844
1.006367
1.0222112
1.0387274
1.0557553
1.0730694
1.0903766
1.1073235
1.123518
1.1385656
1.1521147
1.1639035
1.1737929
1.1817788
1.1879788
1.1926013
1.1959054
1.1981638
1.1996336
1.2005387
1.2010617
1.201342
1.2014794
1.20154
1.2015638
1.2015718
1.2015742
1.2015747
1.2015749
1.2015749
1.2015749
1.2015749
1.2015749
1.2015749
1.2015749
1.2015749
0.86031079
0.86567022
0.8714867
0.87779439
0.88462932
0.89202936
0.90003402
0.90868417
0.91802149
0.92808756
0.93892245
0.95056268
0.96303813
0.97636774
0.99055367
1.0055736
1.0213713
1.0378457
1.0548399
1.0721327
1.089435
1.1063971
1.1226292
1.137737
1.1513663
1.16325
1.1732423
1.1813314
1.1876288
1.1923378
1.1957148
1.1980318
1.1995465
1.2004844
1.2010297
1.2013243
1.2014702
1.2015353
1.201561
1.2015699
1.2015726
1.2015732
1.2015734
1.2015734
1.2015734
1.2015734
1.2015734
1.2015734
1.2015734
1.2015734
0.86002849
0.86537127
0.87116942
0.87745691
0.88426959
0.89164515
0.89962289
0.90824352
0.91754853
0.92757936
0.93837603
0.9499751
0.96240668
0.97569021
0.98982868
1.0048011
1.0205532
1.0369864
1.0539474
1.0712186
1.0885151
1.1054909
1.1217586
1.1369238
1.1506304
1.1626061
1.1726985
1.1808886
1.1872813
1.1920753
1.1955244
1.1978994
1.1994588
1.2004292
1.2009971
1.2013062
1.2014606
1.2015303
1.2015582
1.201568
1.201571
1.2015717
1.2015719
1.2015719
1.2015719
1.2015719
1.2015719
1.2015719
1.2015719
1.2015719
0.85975357
0.86508015
0.87086044
0.87712826
0.88391929
0.89127101
0.89922256
0.90781445
0.917088
0.92708452
0.93784397
0.94940296
0.96179181
0.97503039
0.98912253
1.0040485
1.0197558
1.0361486
1.0530766
1.0703261
1.0876161
1.1046041
1.1209053
1.1361256
1.1499067
1.1619716
1.1721614
1.1804502
1.1869364
1.1918141
1.1953343
1.1977667
1.1993704
1.2003734
1.2009639
1.2012876
1.2014507
1.2015251
1.2015553
1.2015661
1.2015693
1.2015702
1.2015704
1.2015704
1.2015704
1.2015704
1.2015704
1.2015704
1.2015704
1.2015704
0.85948568
0.86479647
0.87055937
0.87680803
0.88357796
0.89090647
0.89883251
0.90739641
0.91663932
0.92660243
0.93732562
0.94884554
0.96119272
0.97438746
0.98843435
1.0033149
1.0189784
1.0353313
1.0522266
1.0694542
1.0867369
1.103736
1.1200688
1.1353419
1.1491948
1.1613462
1.1716309
1.1800161
1.1865941
1.1915542
1.1951444
1.1976338
1.1992814
1.2003169
1.20093
1.2012685
1.2014405
1.2015198
1.2015524
1.2015641
1.2015677
1.2015686
1.2015689
1.2015689
1.2015689
1.2015689
1.2015689
1.2015689
1.2015689
1.2015689
0.8592245
0.8645199
0.87026584
0.87649583
0.8832452
0.89055109
0.89845227
0.90698889
0.91620194
0.92613248
0.93682033
0.94830217
0.96060869
0.97376064
0.98776332
1.0025994
1.0182199
1.0345337
1.0513966
1.0686021
1.085877
1.1028858
1.1192485
1.1345721
1.1484943
1.1607297
1.1711068
1.1795864
1.1862544
1.1912954
1.1949549
1.1975005
1.1991919
1.2002598
1.2008955
1.2012489
1.20143
1.2015143
1.2015493
1.201562
1.201566
1.2015671
1.2015673
1.2015674
1.2015674
1.2015674
1.2015674
1.2015674
1.2015674
1.2015674
0.85896972
0.86425011
0.86997951
0.87619129
0.88292062
0.89020445
0.8980814
0.90659142
0.91577536
0.92567414
0.93632752
0.9477722
0.96003905
0.97314921
0.98710868
1.0019013
1.0174796
1.0337548
1.0505856
1.067769
1.0850355
1.1020529
1.1184438
1.1338158
1.147805
1.1601217
1.1705891
1.1791609
1.1859172
1.191038
1.1947657
1.1973671
1.199102
1.200202
1.2008605
1.2012289
1.2014192
1.2015086
1.2015461
1.20156
1.2015644
1.2015656
1.2015658
1.2015659
1.2015659
1.2015659
1.2015659
1.2015659
1.2015659
1.2015659
0.85872106
0.8639868
0.86970007
0.87589408
0.88260385
0.88986617
0.89771947
0.90620354
0.91535908
0.92522689
0.93584664
0.94725505
0.95948317
0.9725525
0.98646972
1.0012197
1.0167566
1.0329939
1.049793
1.0669542
1.0842116
1.1012367
1.1176542
1.1330726
1.1471264
1.1595223
1.1700774
1.1787396
1.1855826
1.1907819
1.194577
1.1972336
1.1990115
1.2001437
1.2008249
1.2012084
1.201408
1.2015027
1.2015428
1.2015579
1.2015627
1.201564
1.2015643
1.2015644
1.2015644
1.2015644
1.2015644
1.2015644
1.2015644
1.2015644
0.85847825
0.86372969
0.86942722
0.87560388
0.88229456
0.88953588
0.8973661
0.90582485
0.91495268
0.92479024
0.93537716
0.94675016
0.95894044
0.97196987
0.98584576
1.000554
1.0160503
1.0322502
1.0490178
1.0661569
1.0834048
1.1004365
1.1168791
1.132342
1.1464583
1.158931
1.1695718
1.1783223
1.1852505
1.1905271
1.1943888
1.1970999
1.1989207
1.2000848
1.2007888
1.2011875
1.2013966
1.2014966
1.2015395
1.2015557
1.201561
1.2015625
1.2015628
1.2015629
1.2015629
1.2015629
1.2015629
1.2015629
1.2015629
1.2015629
0.85824105
0.86347852
0.86916066
0.87532039
0.88199243
0.88921324
0.89702093
0.90545496
0.91455571
0.92436375
0.9349186
0.94625701
0.95841032
0.97140072
0.98523617
0.99990352
1.01536
1.0315231
1.0482596
1.0653764
1.0826144
1.0996518
1.1161181
1.1316236
1.1458003
1.1583477
1.1690722
1.1779091
1.1849209
1.1902736
1.194201
1.1969662
1.1988294
1.2000255
1.2007522
1.2011662
1.2013848
1.2014903
1.201536
1.2015535
1.2015593
1.2015609
1.2015613
1.2015614
1.2015614
1.2015614
1.2015614
1.2015614
1.2015614
1.2015614
0.85800921
0.86323304
0.86890015
0.87504333
0.88169716
0.88889794
0.89668361
0.90509348
0.9141678
0.92394698
0.9344705
0.94577511
0.95789227
0.97084451
0.98464036
0.99926763
1.014685
1.0308118