/*--------------------------------*- C++ -*----------------------------------*\
| =========                 |                                                 |
| \\      /  F ield         | OpenFOAM: The Open Source CFD Toolbox           |
|  \\    /   O peration     | Version:  3.0.1                                 |
|   \\  /    A nd           | Web:      www.OpenFOAM.org                      |
|    \\/     M anipulation  |                                                 |
\*---------------------------------------------------------------------------*/
FoamFile
{
    version     2.0;
    format      ascii;
    class       volScalarField;
    location    "10000/fluid";
    object      rho;
}
// * * * * * * * * * * * * * * * * * * * * * * * * * * * * * * * * * * * * * //

dimensions      [1 -3 0 0 0 0 0];

internalField   nonuniform List<scalar> 
4000
(
0.981289
1.0592371
1.1189089
1.1577956
1.1801905
1.1919006
1.1975576
1.2001076
1.2011855
1.2016136
1.2017733
1.2018292
1.2018476
1.2018533
1.2018549
1.2018554
1.2018555
1.2018555
1.2018555
1.2018555
1.2018555
1.2018555
1.2018555
1.2018555
1.2018555
1.2018555
1.2018555
1.2018555
1.2018555
1.2018555
1.2018555
1.2018555
1.2018555
1.2018555
1.2018555
1.2018555
1.2018555
1.2018555
1.2018555
1.2018555
0.9582476
1.0189658
1.0762524
1.1234829
1.1572878
1.1785672
1.1905772
1.196761
1.1997012
1.2010011
1.2015373
1.2017439
1.2018182
1.2018431
1.2018509
1.2018532
1.2018538
1.201854
1.201854
1.201854
1.201854
1.201854
1.201854
1.201854
1.201854
1.201854
1.201854
1.201854
1.201854
1.201854
1.201854
1.201854
1.201854
1.201854
1.201854
1.201854
1.201854
1.201854
1.201854
1.201854
0.94573684
0.99983498
1.0527747
1.1002195
1.1381963
1.1651842
1.1823352
1.1922039
1.1974055
1.1999378
1.2010819
1.2015627
1.2017508
1.2018192
1.2018423
1.2018496
1.2018518
1.2018523
1.2018525
1.2018525
1.2018525
1.2018525
1.2018525
1.2018525
1.2018525
1.2018525
1.2018525
1.2018525
1.2018525
1.2018525
1.2018525
1.2018525
1.2018525
1.2018525
1.2018525
1.2018525
1.2018525
1.2018525
1.2018525
1.2018525
0.93638535
0.98710814
1.0372213
1.0836838
1.1230884
1.1532484
1.1740555
1.1870765
1.1945318
1.1984662
1.200389
1.2012615
1.2016293
1.2017733
1.2018257
1.2018433
1.2018489
1.2018505
1.2018509
1.201851
1.201851
1.201851
1.201851
1.201851
1.201851
1.201851
1.201851
1.201851
1.201851
1.201851
1.201851
1.201851
1.201851
1.201851
1.201851
1.201851
1.201851
1.201851
1.201851
1.201851
0.92902701
0.97752284
1.0256532
1.0710791
1.1109201
1.1428969
1.1662534
1.1818117
1.1913176
1.1966759
1.1994742
1.2008309
1.201442
1.2016976
1.2017968
1.2018325
1.2018444
1.2018481
1.2018492
1.2018494
1.2018495
1.2018495
1.2018495
1.2018495
1.2018495
1.2018495
1.2018495
1.2018495
1.2018495
1.2018495
1.2018495
1.2018495
1.2018495
1.2018495
1.2018495
1.2018495
1.2018495
1.2018495
1.2018495
1.2018495
0.92311526
0.96993041
1.0165255
1.0610012
1.1008735
1.1339325
1.1590915
1.1766577
1.1879508
1.1946664
1.1983731
1.2002755
1.2011835
1.2015862
1.201752
1.2018153
1.2018377
1.201845
1.2018472
1.2018478
1.201848
1.201848
1.201848
1.201848
1.201848
1.201848
1.201848
1.201848
1.201848
1.201848
1.201848
1.201848
1.201848
1.201848
1.201848
1.201848
1.201848
1.201848
1.201848
1.201848
0.91828392
0.96373634
1.0090644
1.0526771
1.0923921
1.1261102
1.1525731
1.1717326
1.1845575
1.1925233
1.1971279
1.1996084
1.2008535
1.2014353
1.2016878
1.2017896
1.2018275
1.2018407
1.2018448
1.2018461
1.2018464
1.2018465
1.2018465
1.2018465
1.2018465
1.2018465
1.2018465
1.2018465
1.2018465
1.2018465
1.2018465
1.2018465
1.2018465
1.2018465
1.2018465
1.2018465
1.2018465
1.2018465
1.2018465
1.2018465
0.91427249
0.95857545
1.0028184
1.0456422
1.0851035
1.1192203
1.146646
1.1670824
1.1812151
1.1903127
1.1957785
1.198847
1.2004563
1.2012435
1.201602
1.2017536
1.2018131
1.2018346
1.2018419
1.2018442
1.2018448
1.201845
1.201845
1.201845
1.201845
1.201845
1.201845
1.201845
1.201845
1.201845
1.201845
1.201845
1.201845
1.201845
1.201845
1.201845
1.201845
1.201845
1.201845
1.201845
0.91089135
0.95420144
0.99749431
1.0395932
1.07875
1.1130962
1.1412442
1.1627155
1.1779673
1.1880816
1.1943591
1.1980099
1.1999986
1.2010116
1.201493
1.2017058
1.2017932
1.2018264
1.2018381
1.201842
1.2018431
1.2018434
1.2018435
1.2018435
1.2018435
1.2018435
1.2018435
1.2018435
1.2018435
1.2018435
1.2018435
1.2018435
1.2018435
1.2018435
1.2018435
1.2018435
1.2018435
1.2018435
1.2018435
1.2018435
0.90800112
0.95044001
0.99288929
1.0343197
1.0731465
1.1076079
1.1363034
1.1586228
1.1748369
1.1858623
1.192897
1.1971141
1.1994884
1.2007417
1.2013604
1.2016452
1.2017671
1.2018155
1.2018333
1.2018394
1.2018413
1.2018418
1.201842
1.201842
1.201842
1.201842
1.201842
1.201842
1.201842
1.201842
1.201842
1.201842
1.201842
1.201842
1.201842
1.201842
1.201842
1.201842
1.201842
1.201842
0.90549833
0.947164
0.98885683
1.0296692
1.0681555
1.1026532
1.1317664
1.1547873
1.1718336
1.1836761
1.1914135
1.1961748
1.1989338
1.2004369
1.2012046
1.2015711
1.201734
1.2018013
1.2018271
1.2018363
1.2018393
1.2018402
1.2018405
1.2018405
1.2018405
1.2018405
1.2018405
1.2018405
1.2018405
1.2018405
1.2018405
1.2018405
1.2018405
1.2018405
1.2018405
1.2018405
1.2018405
1.2018405
1.2018405
1.2018405
0.90330543
0.94427864
0.98528803
1.0255279
1.0636725
1.098151
1.1275832
1.1511892
1.1689596
1.1815363
1.1899242
1.1952047
1.198343
1.2001009
1.2010265
1.2014831
1.2016933
1.2017835
1.2018193
1.2018325
1.201837
1.2018385
1.2018389
1.201839
1.201839
1.201839
1.201839
1.201839
1.201839
1.201839
1.201839
1.201839
1.201839
1.201839
1.201839
1.201839
1.201839
1.201839
1.201839
1.201839
0.90136363
0.94171203
0.98210012
1.0218086
1.059616
1.094036
1.1237114
1.1478086
1.1662127
1.179451
1.1884407
1.1942145
1.1977229
1.1997374
1.2008274
1.2013813
1.2016447
1.2017615
1.2018096
1.201828
1.2018345
1.2018366
1.2018373
1.2018375
1.2018375
1.2018375
1.2018375
1.2018375
1.2018375
1.2018375
1.2018375
1.2018375
1.2018375
1.2018375
1.2018375
1.2018375
1.2018375
1.2018375
1.2018375
1.2018375
0.8996279
0.93940887
0.97922909
1.0184432
1.0559215
1.0902551
1.1201144
1.1446267
1.1635882
1.1774246
1.1869715
1.1932123
1.1970801
1.1993502
1.200609
1.2012661
1.2015879
1.201735
1.2017977
1.2018225
1.2018316
1.2018347
1.2018357
1.2018359
1.201836
1.201836
1.201836
1.201836
1.201836
1.201836
1.201836
1.201836
1.201836
1.201836
1.201836
1.201836
1.201836
1.201836
1.201836
1.201836
0.8980633
0.93732597
0.97662467
1.0153781
1.0525371
1.0867647
1.1167613
1.141626
1.1610801
1.1754592
1.1855224
1.1922051
1.1964199
1.1989429
1.200373
1.2011381
1.2015228
1.2017039
1.2017834
1.2018159
1.2018282
1.2018325
1.201834
1.2018344
1.2018345
1.2018345
1.2018345
1.2018345
1.2018345
1.2018345
1.2018345
1.2018345
1.2018345
1.2018345
1.2018345
1.2018345
1.2018345
1.2018345
1.2018345
1.2018345
0.89664242
0.93542924
0.97424688
1.0125698
1.0494208
1.0835286
1.1136253
1.1387905
1.158682
1.1735549
1.1840974
1.1911978
1.1957471
1.1985188
1.2001213
1.2009978
1.2014495
1.2016678
1.2017665
1.201808
1.2018243
1.2018302
1.2018322
1.2018328
1.201833
1.201833
1.201833
1.201833
1.201833
1.201833
1.201833
1.201833
1.201833
1.201833
1.201833
1.201833
1.201833
1.201833
1.201833
1.201833
0.89534352
0.93369139
0.97206354
1.0099834
1.0465379
1.0805165
1.1106837
1.1361058
1.1563873
1.1717111
1.1826992
1.1901947
1.1950655
1.1980808
1.1998557
1.2008462
1.2013682
1.2016268
1.2017468
1.2017988
1.2018197
1.2018276
1.2018303
1.2018312
1.2018314
1.2018315
1.2018315
1.2018315
1.2018315
1.2018315
1.2018315
1.2018315
1.2018315
1.2018315
1.2018315
1.2018315
1.2018315
1.2018315
1.2018315
1.2018315
0.89414916
0.9320904
0.97004845
1.00759
1.0438597
1.0777029
1.1079165
1.1335591
1.1541896
1.1699262
1.1813296
1.1891987
1.1943785
1.1976315
1.1995778
1.2006841
1.2012792
1.2015808
1.2017243
1.2017881
1.2018145
1.2018247
1.2018283
1.2018295
1.2018299
1.20183
1.20183
1.20183
1.20183
1.20183
1.20183
1.20183
1.20183
1.20183
1.20183
1.20183
1.20183
1.20183
1.20183
1.20183
0.8930452
0.93060827
0.96818006
1.0053658
1.0413621
1.0750662
1.1053067
1.1311389
1.1520827
1.1681983
1.1799894
1.1882124
1.1936888
1.1971733
1.1992893
1.2005124
1.2011829
1.2015299
1.2016988
1.2017757
1.2018085
1.2018214
1.2018262
1.2018278
1.2018283
1.2018285
1.2018285
1.2018285
1.2018285
1.2018285
1.2018285
1.2018285
1.2018285
1.2018285
1.2018285
1.2018285
1.2018285
1.2018285
1.2018285
1.2018285
0.89202003
0.92923015
0.96644053
1.0032909
1.0390248
1.0725878
1.1028394
1.1288348
1.1500608
1.1665255
1.178679
1.1872374
1.1929984
1.1967082
1.1989916
1.2003319
1.2010795
1.2014741
1.2016702
1.2017617
1.2018016
1.2018178
1.2018239
1.201826
1.2018268
1.201827
1.201827
1.201827
1.201827
1.201827
1.201827
1.201827
1.201827
1.201827
1.201827
1.201827
1.201827
1.201827
1.201827
1.201827
0.89106408
0.92794369
0.9648149
1.0013484
1.0368307
1.0702517
1.1005015
1.1266375
1.1481185
1.1649052
1.1773984
1.186275
1.1923093
1.1962378
1.1986861
1.2001436
1.2009696
1.2014135
1.2016386
1.2017459
1.2017937
1.2018137
1.2018214
1.2018242
1.2018251
1.2018254
1.2018255
1.2018255
1.2018255
1.2018255
1.2018256
1.2018255
1.2018255
1.2018255
1.2018255
1.2018255
1.2018255
1.2018255
1.2018255
1.2018255
0.89016934
0.92673852
0.96329055
0.99952414
1.0347648
1.0680442
1.0982816
1.1245387
1.1462507
1.1633354
1.1761474
1.1853262
1.1916228
1.1957638
1.198374
1.1999482
1.2008536
1.2013483
1.2016039
1.2017282
1.2017849
1.2018091
1.2018187
1.2018223
1.2018235
1.2018239
1.201824
1.201824
1.201824
1.2018241
1.2018241
1.2018241
1.201824
1.201824
1.201824
1.201824
1.201824
1.201824
1.201824
1.201824
0.88932907
0.92560586
0.96185677
0.99780591
1.0328147
1.0659533
1.0961695
1.122531
1.1444526
1.1618137
1.1749254
1.1843917
1.1909403
1.1952873
1.1980564
1.1997465
1.2007319
1.2012787
1.2015661
1.2017087
1.2017751
1.201804
1.2018158
1.2018202
1.2018218
1.2018223
1.2018225
1.2018225
1.2018225
1.2018226
1.2018226
1.2018226
1.2018226
1.2018225
1.2018225
1.2018225
1.2018225
1.2018225
1.2018225
1.2018225
0.88853756
0.92453825
0.96050438
0.99618324
1.0309692
1.0639685
1.0941564
1.1206077
1.1427201
1.1603378
1.1737319
1.1834717
1.1902625
1.1948095
1.1977343
1.1995392
1.2006049
1.2012049
1.2015254
1.2016873
1.2017641
1.2017983
1.2018126
1.2018181
1.2018201
1.2018208
1.201821
1.201821
1.201821
1.2018211
1.2018211
1.2018211
1.2018211
1.2018211
1.201821
1.201821
1.201821
1.201821
1.201821
1.201821
0.8877899
0.92352925
0.95922548
0.99464707
1.0292188
1.0620807
1.0922343
1.1187626
1.1410489
1.1589057
1.1725661
1.1825666
1.1895903
1.1943313
1.1974085
1.199327
1.2004732
1.2011271
1.2014818
1.2016639
1.201752
1.201792
1.201809
1.2018158
1.2018183
1.2018192
1.2018194
1.2018195
1.2018195
1.2018196
1.2018196
1.2018196
1.2018196
1.2018196
1.2018195
1.2018195
1.2018195
1.2018195
1.2018195
1.2018195
0.8870819
0.92257333
0.95801321
0.99318951
1.0275552
1.0602818
1.0903962
1.1169904
1.1394356
1.1575152
1.1714271
1.1816764
1.1889243
1.1938535
1.1970797
1.1991104
1.200337
1.2010455
1.2014354
1.2016387
1.2017388
1.2017851
1.2018052
1.2018134
1.2018165
1.2018175
1.2018179
1.201818
1.201818
1.2018181
1.2018181
1.2018181
1.2018181
1.2018181
1.201818
1.201818
1.201818
1.201818
1.201818
1.201818
0.8864099
0.92166565
0.95686161
0.99180367
1.0259709
1.0585645
1.0886357
1.115286
1.1378766
1.1561644
1.1703143
1.1808012
1.188265
1.1933768
1.1967488
1.1988902
1.2001968
1.2009604
1.2013862
1.2016116
1.2017244
1.2017775
1.201801
1.2018108
1.2018145
1.2018159
1.2018164
1.2018165
1.2018165
1.2018166
1.2018166
1.2018166
1.2018166
1.2018166
1.2018166
1.2018165
1.2018165
1.2018165
1.2018165
1.2018165
0.88577071
0.92080201
0.95576545
0.99048347
1.0244595
1.0569225
1.0869473
1.1136451
1.1363687
1.1548514
1.1692267
1.1799408
1.1876126
1.1929016
1.1964162
1.1986667
1.200053
1.200872
1.2013343
1.2015826
1.2017088
1.2017693
1.2017965
1.201808
1.2018125
1.2018142
1.2018148
1.201815
1.201815
1.201815
1.2018151
1.2018151
1.2018151
1.2018151
1.2018151
1.201815
1.201815
1.201815
1.201815
1.201815
0.88516156
0.9199787
0.9547201
0.98922357
1.0230152
1.0553501
1.0853257
1.1120634
1.1349092
1.1535745
1.1681636
1.179095
1.1869674
1.1924286
1.1960826
1.1984405
1.1999059
1.2007805
1.20128
1.2015517
1.201692
1.2017603
1.2017916
1.201805
1.2018105
1.2018125
1.2018132
1.2018135
1.2018135
1.2018135
1.2018136
1.2018136
1.2018136
1.2018136
1.2018136
1.2018135
1.2018135
1.2018135
1.2018135
1.2018135
0.88457998
0.91919245
0.95372151
0.9880192
1.0216328
1.0538422
1.0837664
1.1105372
1.1334953
1.1523319
1.167124
1.1782637
1.1863297
1.191958
1.1957482
1.198212
1.1997558
1.2006861
1.2012232
1.2015191
1.2016739
1.2017505
1.2017862
1.2018019
1.2018083
1.2018107
1.2018116
1.2018119
1.201812
1.201812
1.2018121
1.2018121
1.2018121
1.2018121
1.2018121
1.201812
1.201812
1.201812
1.201812
1.201812
0.88402379
0.91844037
0.95276604
0.98686614
1.0203078
1.0523942
1.0822652
1.1090632
1.1321245
1.151122
1.1661072
1.1774467
1.1856995
1.1914902
1.1954137
1.1979815
1.1996031
1.2005891
1.2011642
1.2014848
1.2016547
1.2017401
1.2017805
1.2017985
1.201806
1.2018089
1.20181
1.2018104
1.2018105
1.2018105
1.2018106
1.2018106
1.2018106
1.2018106
1.2018106
1.2018106
1.2018105
1.2018105
1.2018105
1.2018105
0.88349106
0.91771986
0.95185046
0.98576059
1.019036
1.0510021
1.0808184
1.1076383
1.1307945
1.1499435
1.1651124
1.1766435
1.1850769
1.1910255
1.1950792
1.1977493
1.199448
1.2004895
1.201103
1.2014487
1.2016343
1.2017288
1.2017743
1.2017949
1.2018036
1.2018071
1.2018084
1.2018088
1.201809
1.201809
1.2018091
1.2018091
1.2018091
1.2018091
1.2018091
1.2018091
1.201809
1.201809
1.201809
1.201809
0.88298006
0.91702862
0.95097187
0.98469917
1.0178137
1.0496619
1.0794226
1.1062595
1.1295032
1.1487948
1.1641388
1.175854
1.184462
1.1905641
1.1947451
1.1975159
1.1992908
1.2003877
1.2010397
1.201411
1.2016128
1.2017168
1.2017676
1.201791
1.2018011
1.2018052
1.2018067
1.2018073
1.2018075
1.2018075
1.2018076
1.2018076
1.2018076
1.2018076
1.2018076
1.2018076
1.2018075
1.2018075
1.2018075
1.2018075
0.88248924
0.91636458
0.95012769
0.98367881
1.0166376
1.0483705
1.0780745
1.1049242
1.1282485
1.1476747
1.1631857
1.1750778
1.1838547
1.1901062
1.1944118
1.1972815
1.1991318
1.2002838
1.2009745
1.2013718
1.20159
1.2017041
1.2017605
1.2017869
1.2017984
1.2018032
1.2018051
1.2018057
1.201806
1.201806
1.2018061
1.2018061
1.2018061
1.2018061
1.2018061
1.2018061
1.201806
1.201806
1.201806
1.201806
0.88201721
0.91572586
0.94931555
0.98269675
1.0155047
1.0471246
1.0767713
1.1036301
1.1270288
1.146582
1.1622522
1.1743146
1.183255
1.189652
1.1940793
1.1970463
1.1989711
1.200178
1.2009075
1.201331
1.2015662
1.2016906
1.2017529
1.2017825
1.2017956
1.2018012
1.2018033
1.2018041
1.2018044
1.2018045
1.2018045
1.2018046
1.2018046
1.2018046
1.2018046
1.2018046
1.2018046
1.2018045
1.2018045
1.2018045
0.8815627
0.91511077
0.94853334
0.98175048
1.0144121
1.0459215
1.0755105
1.1023748
1.1258421
1.1455153
1.1613379
1.1735642
1.182663
1.1892014
1.1937479
1.1968105
1.1988089
1.2000704
1.2008387
1.2012888
1.2015412
1.2016763
1.2017448
1.2017778
1.2017927
1.2017991
1.2018016
1.2018026
1.2018029
1.201803
1.201803
1.2018031
1.2018031
1.2018031
1.2018031
1.2018031
1.2018031
1.201803
1.201803
1.201803
0.88112457
0.91451779
0.94777913
0.98083773
1.0133575
1.0447586
1.0742896
1.1011564
1.124687
1.1444737
1.1604419
1.1728261
1.1820784
1.1887547
1.1934179
1.1965745
1.1986456
1.1999612
1.2007684
1.2012451
1.2015152
1.2016612
1.2017363
1.2017728
1.2017896
1.2017969
1.2017998
1.201801
1.2018014
1.2018015
1.2018015
1.2018016
1.2018016
1.2018016
1.2018016
1.2018016
1.2018016
1.2018016
1.2018015
1.2018015
0.88070179
0.91394553
0.94705117
0.97995643
1.0123384
1.0436336
1.0731063
1.0999729
1.123562
1.1434561
1.1595636
1.1721001
1.1815013
1.188312
1.1930892
1.1963382
1.1984811
1.1998505
1.2006965
1.2012002
1.2014881
1.2016454
1.2017272
1.2017676
1.2017863
1.2017946
1.201798
1.2017993
1.2017998
1.2018
1.2018
1.2018001
1.2018001
1.2018001
1.2018001
1.2018001
1.2018001
1.2018001
1.2018
1.2018
0.88029342
0.91339272
0.94634787
0.97910468
1.0113527
1.0425443
1.0719587
1.0988226
1.1224656
1.1424614
1.1587024
1.1713858
1.1809314
1.1878731
1.1927622
1.196102
1.1983158
1.1997385
1.2006232
1.201154
1.20146
1.2016289
1.2017177
1.201762
1.2017829
1.2017922
1.2017961
1.2017977
1.2017983
1.2017985
1.2017985
1.2017986
1.2017986
1.2017986
1.2017986
1.2017986
1.2017986
1.2017986
1.2017986
1.2017985
0.8798986
0.91285819
0.94566775
0.97828076
1.0103987
1.0414887
1.0708448
1.0977037
1.1213965
1.1414889
1.1578578
1.170683
1.1803688
1.1874383
1.1924368
1.1958659
1.1981497
1.1996253
1.2005486
1.2011066
1.2014309
1.2016116
1.2017076
1.2017561
1.2017793
1.2017898
1.2017942
1.201796
1.2017967
1.2017969
1.201797
1.2017971
1.2017971
1.2017971
1.2017971
1.2017971
1.2017971
1.2017971
1.2017971
1.2017971
0.87951653
0.91234089
0.94500948
0.97748307
1.0094745
1.040465
1.0697629
1.0966148
1.1203536
1.1405375
1.1570292
1.1699913
1.1798134
1.1870075
1.1921131
1.19563
1.1979829
1.199511
1.2004728
1.201058
1.2014009
1.2015936
1.2016971
1.2017499
1.2017755
1.2017872
1.2017923
1.2017943
1.2017951
1.2017954
1.2017955
1.2017956
1.2017956
1.2017956
1.2017956
1.2017956
1.2017956
1.2017956
1.2017956
1.2017956
0.87914648
0.91183984
0.94437184
0.97671015
1.0085784
1.0394715
1.0687114
1.0955544
1.1193357
1.1396065
1.156216
1.1693105
1.1792649
1.1865806
1.1917913
1.1953946
1.1978157
1.1993958
1.2003959
1.2010083
1.2013699
1.2015749
1.201686
1.2017434
1.2017715
1.2017846
1.2017903
1.2017926
1.2017936
1.2017939
1.201794
1.201794
1.2017941
1.2017941
1.2017941
1.2017941
1.2017941
1.2017941
1.2017941
1.2017941
0.87878781
0.91135414
0.94375368
0.97596065
1.0077089
1.0385066
1.0676887
1.0945213
1.1183417
1.1386951
1.1554177
1.1686403
1.1787233
1.1861578
1.1914714
1.1951597
1.197648
1.1992796
1.2003179
1.2009577
1.2013381
1.2015555
1.2016745
1.2017366
1.2017674
1.2017818
1.2017882
1.2017909
1.201792
1.2017924
1.2017925
1.2017925
1.2017926
1.2017926
1.2017926
1.2017926
1.2017926
1.2017926
1.2017926
1.2017926
0.87843988
0.91088297
0.94315396
0.97523332
1.0068648
1.0375689
1.0666936
1.0935141
1.1173706
1.1378025
1.1546338
1.1679803
1.1781884
1.185739
1.1911535
1.1949253
1.1974801
1.1991627
1.200239
1.200906
1.2013054
1.2015354
1.2016625
1.2017294
1.201763
1.2017789
1.2017861
1.2017891
1.2017904
1.2017908
1.201791
1.201791
1.2017911
1.2017911
1.2017911
1.2017911
1.2017911
1.2017911
1.2017911
1.2017911
0.87810213
0.91042557
0.94257172
0.97452702
1.0060446
1.036657
1.0657245
1.0925318
1.1164215
1.1369281
1.1538639
1.1673304
1.1776602
1.1853241
1.1908376
1.1946916
1.197312
1.1990452
1.2001591
1.2008535
1.2012719
1.2015147
1.20165
1.201722
1.2017584
1.2017759
1.2017839
1.2017873
1.2017887
1.2017893
1.2017895
1.2017895
1.2017896
1.2017896
1.2017896
1.2017896
1.2017896
1.2017896
1.2017896
1.2017896
0.87777404
0.90998122
0.94200606
0.97384067
1.0052472
1.0357697
1.0647805
1.0915732
1.1154934
1.1360711
1.1531075
1.1666901
1.1771385
1.1849132
1.1905238
1.1944586
1.1971438
1.198927
1.2000785
1.2008
1.2012376
1.2014934
1.201637
1.2017142
1.2017536
1.2017728
1.2017817
1.2017855
1.2017871
1.2017877
1.2017879
1.201788
1.2017881
1.2017881
1.2017881
1.2017881
1.2017881
1.2017881
1.2017881
1.2017881
0.87745513
0.90954927
0.94145614
0.97317329
1.0044714
1.0349058
1.0638602
1.0906372
1.1145856
1.1352309
1.1523642
1.1660594
1.1766231
1.1845062
1.190212
1.1942265
1.1969755
1.1988083
1.199997
1.2007458
1.2012025
1.2014714
1.2016236
1.201706
1.2017487
1.2017696
1.2017794
1.2017837
1.2017855
1.2017862
1.2017864
1.2017865
1.2017866
1.2017866
1.2017866
1.2017866
1.2017866
1.2017866
1.2017866
1.2017866
0.87714493
0.9091291
0.9409212
0.97252395
1.0037163
1.0340642
1.0629627
1.089723
1.1136972
1.134407
1.1516336
1.1654379
1.1761141
1.184103
1.1899024
1.1939952
1.1968072
1.1986891
1.1999149
1.2006908
1.2011668
1.2014488
1.2016097
1.2016976
1.2017435
1.2017662
1.201777
1.2017818
1.2017838
1.2017846
1.2017849
1.201785
1.201785
1.2017851
1.2017851
1.2017851
1.2017851
1.2017851
1.2017851
1.2017851
0.87684303
0.90872016
0.94040052
0.9718918
1.0029809
1.033244
1.062087
1.0888297
1.1128275
1.1335988
1.1509152
1.1648254
1.1756111
1.1837038
1.1895948
1.1937647
1.1966391
1.1985695
1.1998321
1.2006351
1.2011303
1.2014257
1.2015953
1.2016888
1.2017381
1.2017627
1.2017745
1.2017798
1.2017821
1.201783
1.2017834
1.2017835
1.2017835
1.2017836
1.2017836
1.2017836
1.2017836
1.2017836
1.2017836
1.2017836
0.87654904
0.90832191
0.93989343
0.97127603
1.0022642
1.0324441
1.061232
1.0879564
1.1119758
1.1328056
1.1502088
1.1642217
1.1751142
1.1833083
1.1892894
1.1935353
1.1964711
1.1984496
1.1997488
1.2005787
1.2010933
1.201402
1.2015806
1.2016797
1.2017324
1.2017591
1.201772
1.2017779
1.2017804
1.2017814
1.2017818
1.201782
1.201782
1.2017821
1.2017821
1.2017821
1.2017821
1.2017821
1.2017821
1.2017821
0.87626259
0.90793387
0.9393993
0.97067589
1.0015654
1.0316636
1.060397
1.0871022
1.1111414
1.1320271
1.1495139
1.1636265
1.1746232
1.1829166
1.1889861
1.1933068
1.1963033
1.1983295
1.1996649
1.2005216
1.2010555
1.2013777
1.2015653
1.2016703
1.2017266
1.2017554
1.2017694
1.2017758
1.2017787
1.2017798
1.2017803
1.2017805
1.2017805
1.2017806
1.2017806
1.2017806
1.2017806
1.2017806
1.2017806
1.2017806
0.87598335
0.90755556
0.93891755
0.97009069
1.0008838
1.0309018
1.0595811
1.0862665
1.1103236
1.1312627
1.1488301
1.1630396
1.1741379
1.1825286
1.188685
1.1930793
1.1961358
1.1982091
1.1995805
1.200464
1.2010172
1.201353
1.2015497
1.2016606
1.2017205
1.2017515
1.2017667
1.2017738
1.2017769
1.2017782
1.2017788
1.201779
1.201779
1.2017791
1.2017791
1.2017791
1.2017791
1.2017791
1.2017791
1.2017791
0.87571098
0.90718656
0.93844764
0.96951978
1.0002186
1.0301578
1.0587836
1.0854485
1.109522
1.130512
1.1481573
1.1624608
1.1736583
1.1821442
1.188386
1.1928529
1.1959686
1.1980885
1.1994957
1.2004059
1.2009784
1.2013277
1.2015336
1.2016506
1.2017143
1.2017474
1.2017639
1.2017717
1.2017751
1.2017766
1.2017772
1.2017774
1.2017775
1.2017776
1.2017776
1.2017776
1.2017776
1.2017776
1.2017776
1.2017776
0.8754452
0.90682646
0.93798904
0.96896252
0.99956901
1.0294309
1.0580037
1.0846475
1.1087358
1.1297744
1.147495
1.16189
1.1731843
1.1817635
1.1880892
1.1926276
1.1958017
1.1979679
1.1994105
1.2003472
1.200939
1.2013019
1.2015172
1.2016402
1.2017078
1.2017433
1.201761
1.2017695
1.2017733
1.201775
1.2017757
1.2017759
1.201776
1.2017761
1.2017761
1.2017761
1.2017761
1.2017761
1.2017761
1.2017761
0.87518571
0.90647488
0.93754128
0.96841836
0.9989345
1.0287204
1.0572406
1.083863
1.1079646
1.1290496
1.1468429
1.1613268
1.1727157
1.1813863
1.1877945
1.1924033
1.1956352
1.1978471
1.1993249
1.200288
1.2008991
1.2012757
1.2015003
1.2016296
1.2017011
1.201739
1.2017581
1.2017673
1.2017715
1.2017733
1.2017741
1.2017744
1.2017745
1.2017745
1.2017746
1.2017746
1.2017746
1.2017746
1.2017746
1.2017746
0.87493226
0.90613147
0.9371039
0.96788674
0.99831441
1.0280257
1.0564939
1.0830943
1.1072079
1.1283373
1.1462008
1.1607711
1.1722524
1.1810126
1.1875019
1.1921802
1.1954691
1.1977263
1.1992391
1.2002284
1.2008587
1.201249
1.2014831
1.2016187
1.2016942
1.2017345
1.201755
1.201765
1.2017697
1.2017717
1.2017725
1.2017729
1.201773
1.201773
1.2017731
1.2017731
1.2017731
1.2017731
1.2017731
1.2017731
0.8746846
0.9057959
0.93667649
0.96736716
0.99770817
1.0273461
1.0557627
1.0823409
1.1064651
1.1276369
1.1455683
1.1602228
1.1717943
1.1806425
1.1872114
1.1919582
1.1953034
1.1976055
1.1991529
1.2001684
1.2008179
1.2012219
1.2014655
1.2016075
1.2016871
1.2017299
1.2017519
1.2017627
1.2017678
1.20177
1.201771
1.2017713
1.2017715
1.2017715
1.2017716
1.2017716
1.2017716
1.2017716
1.2017716
1.2017716
0.8744425
0.90546783
0.93625863
0.96685912
0.99711522
1.026681
1.0550467
1.0816021
1.1057358
1.1269481
1.1449453
1.1596816
1.1713413
1.1802757
1.186923
1.1917373
1.1951382
1.1974847
1.1990665
1.200108
1.2007766
1.2011944
1.2014476
1.201596
1.2016797
1.2017251
1.2017487
1.2017604
1.2017659
1.2017683
1.2017694
1.2017698
1.20177
1.20177
1.2017701
1.2017701
1.2017701
1.2017701
1.2017701
1.2017701
0.87420573
0.90514699
0.93584995
0.96636219
0.99653506
1.0260299
1.0543451
1.0808776
1.1050195
1.1262706
1.1443314
1.1591474
1.1708934
1.1799123
1.1866367
1.1915176
1.1949735
1.197364
1.1989799
1.2000472
1.2007349
1.2011664
1.2014293
1.2015842
1.2016722
1.2017203
1.2017454
1.2017579
1.2017639
1.2017666
1.2017678
1.2017683
1.2017685
1.2017685
1.2017686
1.2017686
1.2017686
1.2017686
1.2017686
1.2017686
0.87397408
0.90483308
0.93545009
0.96587593
0.99596719
1.0253924
1.0536576
1.0801667
1.1043159
1.125604
1.1437264
1.15862
1.1704503
1.1795522
1.1863525
1.191299
1.1948093
1.1972433
1.1988931
1.1999861
1.2006929
1.2011381
1.2014106
1.2015721
1.2016644
1.2017152
1.201742
1.2017554
1.2017619
1.2017649
1.2017662
1.2017667
1.2017669
1.201767
1.2017671
1.2017671
1.2017671
1.2017671
1.2017671
1.2017671
0.87374737
0.90452584
0.93505872
0.96539993
0.99541116
1.0247677
1.0529835
1.0794691
1.1036245
1.1249481
1.14313
1.1580993
1.1700121
1.1791954
1.1860704
1.1910816
1.1946457
1.1971227
1.1988062
1.1999247
1.2006505
1.2011095
1.2013917
1.2015598
1.2016565
1.20171
1.2017385
1.2017529
1.2017599
1.2017632
1.2017646
1.2017652
1.2017654
1.2017655
1.2017656
1.2017656
1.2017656
1.2017656
1.2017656
1.2017656
0.8735254
0.90422502
0.93467552
0.96493381
0.99486652
1.0241556
1.0523225
1.0787843
1.1029449
1.1243024
1.1425421
1.157585
1.1695785
1.1788417
1.1857902
1.1908653
1.1944826
1.1970023
1.1987191
1.199863
1.2006077
1.2010804
1.2013724
1.2015472
1.2016483
1.2017047
1.2017349
1.2017503
1.2017579
1.2017614
1.201763
1.2017636
1.2017639
1.201764
1.201764
1.2017641
1.2017641
1.2017641
1.2017641
1.2017641
0.873308
0.90393038
0.93430019
0.96447721
0.99433286
1.0235556
1.051674
1.0781118
1.1022768
1.1236668
1.1419624
1.1570771
1.1691496
1.1784913
1.1855121
1.1906503
1.19432
1.196882
1.1986319
1.1998011
1.2005646
1.2010511
1.2013528
1.2015343
1.20164
1.2016992
1.2017312
1.2017477
1.2017558
1.2017596
1.2017613
1.2017621
1.2017624
1.2017625
1.2017625
1.2017626
1.2017626
1.2017626
1.2017626
1.2017626
0.873095
0.9036417
0.93393243
0.96402978
0.9938098
1.0229672
1.0510376
1.0774513
1.1016199
1.1230408
1.1413907
1.1565754
1.1687252
1.178144
1.185236
1.1904363
1.194158
1.1967619
1.1985446
1.1997389
1.2005212
1.2010214
1.2013329
1.2015212
1.2016314
1.2016936
1.2017274
1.2017449
1.2017537
1.2017578
1.2017597
1.2017605
1.2017609
1.201761
1.201761
1.2017611
1.2017611
1.2017611
1.2017611
1.2017611
0.87288625
0.90335876
0.93357198
0.9635912
0.99329695
1.02239
1.050413
1.0768025
1.1009737
1.1224243
1.1408268
1.1560797
1.1683053
1.1777997
1.1849619
1.1902236
1.1939966
1.196642
1.1984573
1.1996765
1.2004775
1.2009915
1.2013128
1.2015079
1.2016227
1.2016879
1.2017235
1.2017421
1.2017515
1.201756
1.201758
1.2017589
1.2017593
1.2017595
1.2017595
1.2017596
1.2017596
1.2017596
1.2017596
1.2017596
0.87268159
0.90308136
0.93321858
0.96316115
0.99279396
1.0218237
1.0497998
1.0761648
1.100338
1.121817
1.1402704
1.15559
1.1678897
1.1774584
1.1846897
1.190012
1.1938358
1.1965223
1.1983699
1.199614
1.2004336
1.2009612
1.2012923
1.2014943
1.2016138
1.201682
1.2017195
1.2017393
1.2017493
1.2017541
1.2017564
1.2017574
1.2017578
1.201758
1.201758
1.2017581
1.2017581
1.2017581
1.2017581
1.2017581
0.87248088
0.90280932
0.93287199
0.96273935
0.9923005
1.0212679
1.0491975
1.075538
1.0997124
1.1212187
1.1397215
1.155106
1.1674783
1.1771202
1.1844195
1.1898016
1.1936757
1.1964029
1.1982825
1.1995512
1.2003894
1.2009307
1.2012716
1.2014805
1.2016047
1.201676
1.2017154
1.2017364
1.2017471
1.2017523
1.2017547
1.2017558
1.2017563
1.2017564
1.2017565
1.2017566
1.2017566
1.2017566
1.2017566
1.2017566
0.87228399
0.90254243
0.93253197
0.96232551
0.99181625
1.0207223
1.0486059
1.0749218
1.0990967
1.120629
1.1391798
1.1546277
1.1670712
1.1767848
1.1841512
1.1895923
1.1935161
1.1962836
1.1981951
1.1994883
1.200345
1.2008999
1.2012507
1.2014665
1.2015954
1.2016698
1.2017112
1.2017334
1.2017448
1.2017504
1.201753
1.2017542
1.2017547
1.2017549
1.201755
1.2017551
1.2017551
1.2017551
1.2017551
1.2017551
0.87209079
0.90228054
0.9321983
0.96191937
0.9913409
1.0201864
1.0480245
1.0743157
1.0984906
1.1200478
1.1386451
1.1541549
1.1666682
1.1764524
1.1838848
1.1893842
1.1933571
1.1961647
1.1981077
1.1994253
1.2003003
1.2008688
1.2012294
1.2014522
1.2015859
1.2016635
1.2017069
1.2017303
1.2017425
1.2017485
1.2017513
1.2017526
1.2017532
1.2017534
1.2017535
1.2017535
1.2017536
1.2017536
1.2017536
1.2017536
0.87190115
0.90202347
0.93187077
0.96152066
0.99087417
1.0196601
1.0474532
1.0737196
1.0978938
1.1194748
1.1381173
1.1536876
1.1662691
1.1761227
1.1836203
1.1891773
1.1931988
1.196046
1.1980203
1.1993621
1.2002555
1.2008375
1.201208
1.2014378
1.2015762
1.201657
1.2017025
1.2017272
1.2017401
1.2017465
1.2017496
1.201751
1.2017516
1.2017519
1.201752
1.201752
1.2017521
1.2017521
1.2017521
1.2017521
0.87171496
0.90177108
0.93154919
0.96112916
0.99041576
1.019143
1.0468915
1.0731332
1.0973061
1.1189099
1.1375962
1.1532255
1.1658741
1.1757959
1.1833576
1.1889715
1.1930411
1.1959275
1.197933
1.1992988
1.2002104
1.200806
1.2011863
1.2014231
1.2015664
1.2016504
1.2016981
1.2017241
1.2017377
1.2017446
1.2017479
1.2017494
1.2017501
1.2017504
1.2017505
1.2017505
1.2017506
1.2017506
1.2017506
1.2017506
0.87153212
0.90152319
0.93123335
0.96074462
0.98996543
1.0186348
1.0463392
1.072556
1.0967271
1.1183527
1.1370817
1.1527686
1.1654829
1.1754718
1.1830968
1.1887668
1.1928841
1.1958094
1.1978457
1.1992355
1.2001652
1.2007743
1.2011645
1.2014082
1.2015564
1.2016437
1.2016935
1.2017208
1.2017352
1.2017426
1.2017461
1.2017478
1.2017485
1.2017488
1.201749
1.201749
1.2017491
1.2017491
1.2017491
1.2017491
0.8713525
0.90127969
0.93092308
0.96036684
0.98952291
1.0181352
1.045796
1.071988
1.0961567
1.1178032
1.1365735
1.1523168
1.1650955
1.1751504
1.1828378
1.1885633
1.1927277
1.1956915
1.1977585
1.199172
1.2001198
1.2007424
1.2011424
1.2013932
1.2015462
1.2016369
1.2016888
1.2017175
1.2017327
1.2017405
1.2017444
1.2017462
1.201747
1.2017473
1.2017475
1.2017475
1.2017476
1.2017476
1.2017476
1.2017476
0.87117601
0.90104042
0.93061821
0.95999559
0.98908797
1.017644
1.0452616
1.0714288
1.0955947
1.1172612
1.1360716
1.1518699
1.1647119
1.1748317
1.1825806
1.1883609
1.1925719
1.195574
1.1976714