/*--------------------------------*- C++ -*----------------------------------*\
| =========                 |                                                 |
| \\      /  F ield         | OpenFOAM: The Open Source CFD Toolbox           |
|  \\    /   O peration     | Version:  3.0.1                                 |
|   \\  /    A nd           | Web:      www.OpenFOAM.org                      |
|    \\/     M anipulation  |                                                 |
\*---------------------------------------------------------------------------*/
FoamFile
{
    version     2.0;
    format      ascii;
    class       volScalarField;
    location    "3500/fluid";
    object      T;
}
// * * * * * * * * * * * * * * * * * * * * * * * * * * * * * * * * * * * * * //

dimensions      [0 0 0 1 0 0 0];

internalField   nonuniform List<scalar> 
5000
(
312.93615
311.44713
309.8832
308.26639
306.62363
304.98572
303.38565
301.85653
300.42914
299.12959
297.97736
296.98391
296.15225
295.47739
294.94748
294.54568
294.25216
294.04612
293.90756
293.8186
293.76428
293.73287
293.71575
293.707
293.70282
293.70098
293.70022
293.69994
293.69984
293.69981
293.69981
293.6998
293.6998
293.6998
293.6998
293.6998
293.6998
293.6998
293.6998
293.6998
293.6998
293.6998
293.6998
293.6998
293.6998
293.6998
293.6998
293.6998
293.6998
293.6998
338.28207
335.54717
332.64742
329.6063
326.45542
323.23425
319.98905
316.77119
313.63464
310.63309
307.81677
305.22942
302.90568
300.86911
299.13105
297.69033
296.53384
295.638
294.97101
294.49581
294.17337
293.9661
293.84055
293.76929
293.73163
293.71321
293.70492
293.70152
293.70025
293.69983
293.6997
293.69967
293.69966
293.69966
293.69966
293.69966
293.69966
293.69966
293.69966
293.69966
293.69966
293.69966
293.69966
293.69966
293.69966
293.69966
293.69966
293.69966
293.69966
293.69966
355.74373
352.67181
349.38898
345.90049
342.21857
338.36403
334.36789
330.27236
326.13122
322.00882
317.97765
314.11433
310.49416
307.18511
304.24181
301.70068
299.57693
297.8639
296.53479
295.54661
294.8456
294.37337
294.07289
293.89332
293.79316
293.74135
293.71667
293.70592
293.70168
293.70017
293.69969
293.69955
293.69952
293.69951
293.69951
293.69951
293.69951
293.69951
293.69951
293.69951
293.69951
293.69951
293.69951
293.69951
293.69951
293.69951
293.69951
293.69951
293.69951
293.69951
367.75508
364.53395
361.08538
357.40837
353.50683
349.39113
345.07981
340.60138
335.99603
331.31686
326.63018
322.01429
317.5563
313.34677
309.47238
306.00759
303.00651
300.49693
298.47756
296.91942
295.77087
294.96545
294.43067
294.09623
293.90042
293.7938
293.74018
293.71548
293.70513
293.70121
293.69989
293.6995
293.69939
293.69937
293.69937
293.69936
293.69936
293.69936
293.69936
293.69936
293.69936
293.69936
293.69936
293.69936
293.69936
293.69936
293.69936
293.69936
293.69936
293.69936
376.12583
372.84133
369.32205
365.56377
361.56611
357.33381
352.87834
348.21967
343.38831
338.42716
333.39299
328.35699
323.40372
318.62787
314.1284
310.00035
306.32505
303.16073
300.53534
298.44364
296.84918
295.69084
294.89235
294.37264
294.05507
293.87405
293.77849
293.73212
293.71162
293.70342
293.70049
293.69956
293.6993
293.69923
293.69922
293.69922
293.69922
293.69922
293.69922
293.69922
293.69922
293.69922
293.69922
293.69922
293.69922
293.69922
293.69922
293.69922
293.69922
293.69922
382.09212
378.80138
375.274
371.50392
367.4881
363.22767
358.72934
354.00705
349.08395
343.99446
338.78627
333.5218
328.2786
323.14791
318.23076
313.63114
309.4467
305.75803
302.61875
300.04869
298.03208
296.52124
295.44496
294.71933
294.25882
293.98541
293.83463
293.75798
293.72237
293.70738
293.70172
293.69982
293.69926
293.69911
293.69908
293.69907
293.69907
293.69907
293.69907
293.69907
293.69907
293.69907
293.69907
293.69907
293.69907
293.69907
293.69907
293.69907
293.69907
293.69907
386.44622
383.17611
379.67009
375.92094
371.92391
367.67774
363.18583
358.45785
353.51153
348.37474
343.08767
337.70478
332.29598
326.94654
321.75472
316.82663
312.26809
308.17404
304.61743
301.63982
299.2462
297.4055
296.0568
295.11939
294.5045
294.12611
293.90916
293.79417
293.7383
293.71364
293.70385
293.70039
293.69931
293.69901
293.69894
293.69893
293.69893
293.69893
293.69893
293.69893
293.69893
293.69893
293.69893
293.69893
293.69893
293.69893
293.69893
293.69893
293.69893
293.69893
389.71028
386.47539
383.00677
379.29648
375.33863
371.13027
366.67246
361.97168
357.04148
351.90455
346.59485
341.15981
335.66209
330.18026
324.80778
319.64928
314.81376
310.4049
306.50963
303.18717
300.46136
298.3182
296.70952
295.56158
294.78659
294.2944
294.00232
293.84157
293.76025
293.72276
293.70718
293.7014
293.6995
293.69895
293.69881
293.69879
293.69878
293.69878
293.69878
293.69878
293.69878
293.69878
293.69878
293.69878
293.69878
293.69878
293.69878
293.69878
293.69878
293.69878
392.22202
389.02736
385.60173
381.93673
378.02573
373.86461
369.45275
364.79424
359.89951
354.78716
349.48611
344.0379
338.49866
332.9405
327.45129
322.13227
317.09255
312.44045
308.27247
304.66158
301.64775
299.23299
297.38257
296.03179
295.09676
294.4863
294.1128
293.90024
293.78868
293.73519
293.71199
293.70298
293.69988
293.69895
293.6987
293.69865
293.69864
293.69863
293.69863
293.69863
293.69863
293.69863
293.69863
293.69863
293.69863
293.69863
293.69863
293.69863
293.69863
293.69863
394.20611
391.05293
387.67174
384.05389
380.19223
376.08183
371.72081
367.11151
362.26189
357.18732
351.91264
346.4744
340.92307
335.32475
329.76168
324.33082
319.13954
314.29813
309.90937
306.05671
302.79354
300.13632
298.06345
296.52022
295.42842
294.69812
294.23908
293.9699
293.82387
293.75128
293.71854
293.70529
293.70053
293.69902
293.69861
293.69851
293.69849
293.69849
293.69849
293.69849
293.69849
293.69849
293.69849
293.69849
293.69849
293.69849
293.69849
293.69849
293.69849
293.69849
395.81192
392.69895
389.36091
385.78901
381.97577
377.91566
373.60589
369.04744
364.24639
359.21554
353.97639
348.56135
343.01601
337.40106
331.79338
326.28531
320.98145
315.99221
311.42423
307.36873
303.89011
301.01749
298.74162
297.01797
295.77508
294.92582
294.3791
294.04982
293.86579
293.77125
293.72705
293.70846
293.7015
293.6992
293.69855
293.69838
293.69835
293.69834
293.69834
293.69834
293.69834
293.69834
293.69834
293.69834
293.69834
293.69834
293.69834
293.69834
293.69834
293.69834
397.14113
394.0662
390.76906
387.24081
383.47374
379.46191
375.20185
370.6935
365.94143
360.95639
355.75714
350.37262
344.84423
339.22789
333.59546
328.03472
322.64693
317.54146
312.82702
308.6005
304.93519
301.87118
299.41057
297.51881
296.13166
295.16587
294.53083
294.13912
293.91424
293.79521
293.73771
293.71263
293.70288
293.69953
293.69852
293.69826
293.69821
293.6982
293.69819
293.69819
293.69819
293.69819
293.69819
293.69819
293.69819
293.69819
293.69819
293.69819
293.69819
293.69819
398.26359
395.22414
391.96514
388.47766
384.75386
380.78748
376.57453
372.11414
367.40971
362.47029
357.31241
351.96209
346.4571
340.84919
335.20566
329.60986
324.1595
318.96214
314.12731
309.75592
305.92837
302.69416
300.06566
298.01784
296.49389
295.41506
294.69224
294.23675
293.96887
293.82316
293.75061
293.71791
293.70472
293.70002
293.69856
293.69816
293.69807
293.69805
293.69805
293.69805
293.69805
293.69805
293.69805
293.69805
293.69805
293.69805
293.69805
293.69805
293.69805
293.69805
399.22837
396.22178
392.99814
389.54851
385.86495
381.94098
377.77221
373.35714
368.6982
363.80307
358.6864
353.37175
347.89379
342.30056
336.65527
331.03709
325.54014
320.26971
315.33527
310.84044
306.87128
303.4853
300.70413
298.51168
296.85849
295.67074
294.86147
294.34167
294.02923
293.85502
293.76585
293.7244
293.70711
293.70072
293.69866
293.69808
293.69794
293.69791
293.6979
293.6979
293.6979
293.6979
293.6979
293.6979
293.6979
293.6979
293.6979
293.6979
293.6979
293.6979
400.07038
397.09417
393.90323
390.48862
386.84234
382.95777
378.8302
374.45762
369.84165
364.98888
359.91236
354.63354
349.18443
343.6098
337.96915
332.3378
326.80634
321.47753
316.46015
311.85954
307.76623
304.24454
301.32434
298.99789
297.2229
295.93065
295.03687
294.45283
294.0948
293.89063
293.78342
293.73216
293.7101
293.70167
293.69884
293.69801
293.69781
293.69777
293.69776
293.69776
293.69776
293.69776
293.69776
293.69776
293.69776
293.69776
293.69776
293.69776
293.69776
293.69776
400.81502
397.86689
394.70617
391.32396
387.71222
383.86421
379.77498
375.4421
370.86656
366.05397
361.01606
355.77248
350.35289
344.79921
339.1676
333.5298
327.97301
322.59737
317.5105
312.81873
308.61606
304.9726
301.92553
299.47485
297.58518
296.19299
295.21698
294.56926
294.16505
293.92979
293.80332
293.74124
293.71374
293.70289
293.69912
293.69798
293.69769
293.69762
293.69761
293.69761
293.69761
293.69761
293.69761
293.69761
293.69761
293.69761
293.69761
293.69761
293.69761
293.69761
401.48101
398.55888
395.42614
392.07394
388.49423
384.68016
380.62662
376.33081
371.79319
367.01857
362.01752
356.80814
351.41806
345.88664
340.26704
334.62774
329.05268
323.63935
318.49393
313.72317
309.42372
305.6706
302.50749
299.94152
297.9439
296.45627
295.40055
294.69007
294.23946
293.97225
293.8255
293.75168
293.71808
293.70442
293.69952
293.69799
293.69758
293.69749
293.69747
293.69746
293.69746
293.69746
293.69746
293.69746
293.69746
293.69746
293.69746
293.69746
293.69746
293.69746
402.08245
399.18444
396.07768
392.75333
389.20337
385.42088
381.40058
377.1394
372.63735
367.89853
362.93255
357.75612
352.3951
346.88656
341.28098
335.64381
330.05593
324.61222
319.41721
314.57763
310.19216
306.33992
303.07041
300.39727
298.29802
296.71934
295.58655
294.81445
294.31751
294.01776
293.84986
293.76348
293.72315
293.70628
293.70005
293.69804
293.69748
293.69735
293.69732
293.69732
293.69732
293.69732
293.69732
293.69732
293.69732
293.69732
293.69732
293.69732
293.69732
293.69732
402.63012
399.75455
396.67196
393.37355
389.85129
386.09823
382.10896
377.88018
373.4115
368.70645
363.77374
358.62892
353.29624
347.81077
342.22051
336.58815
330.99172
325.52351
320.2863
315.38648
310.9242
306.98208
303.61472
300.8418
298.64677
296.98129
295.77408
294.9417
294.39873
294.06605
293.87631
293.77663
293.72898
293.70852
293.70073
293.69814
293.6974
293.69722
293.69718
293.69717
293.69717
293.69717
293.69717
293.69717
293.69717
293.69717
293.69717
293.69717
293.69717
293.69717
403.13241
400.27778
397.21773
393.94352
390.44714
386.72158
382.76135
378.56294
374.12562
369.45241
364.55127
359.4367
354.13151
348.66896
343.09485
337.4693
331.86766
326.37972
321.10645
316.15364
311.6225
307.59858
304.14102
301.27504
298.98966
297.24139
295.96243
295.07119
294.48266
294.11687
293.90473
293.79111
293.73558
293.71114
293.70158
293.6983
293.69733
293.69709
293.69704
293.69703
293.69703
293.69703
293.69703
293.69703
293.69703
293.69703
293.69703
293.69703
293.69703
293.69703
403.59592
400.76088
397.72194
394.47039
390.99822
387.29844
383.36544
379.19555
374.78776
370.14462
365.27344
360.18776
354.90915
349.46921
343.91172
338.29444
332.69022
327.18645
321.88227
316.88265
312.28954
308.19094
304.65001
301.69704
299.32635
297.49911
296.15098
295.20238
294.5689
294.16996
293.935
293.80688
293.74296
293.71416
293.70261
293.69853
293.69729
293.69697
293.69689
293.69688
293.69688
293.69688
293.69688
293.69688
293.69688
293.69688
293.69688
293.69688
293.69688
293.69688
404.02594
401.2093
398.19016
394.95988
391.51046
387.83489
383.92749
379.78446
375.40451
370.78982
365.94708
360.88901
355.63602
350.21825
344.6776
339.06968
333.46497
327.94859
322.61781
317.57669
312.92761
308.7606
305.14242
302.108
299.65665
297.75403
296.33925
295.33483
294.65709
294.22508
293.967
293.8239
293.75113
293.71761
293.70383
293.69884
293.69727
293.69685
293.69675
293.69674
293.69673
293.69673
293.69673
293.69673
293.69673
293.69673
293.69673
293.69673
293.69673
293.69673
404.42679
401.62746
398.62696
395.41668
391.98868
388.33591
384.45265
380.33495
375.98133
371.39358
366.57788
361.54619
356.31789
350.92175
345.398
339.80023
334.19671
328.67037
323.31665
318.2386
313.53878
309.30894
305.61901
302.50819
299.98046
298.00584
296.52684
295.46812
294.74689
294.282
294.00058
293.84213
293.76007
293.7215
293.70526
293.69923
293.69728
293.69674
293.69662
293.69659
293.69659
293.69659
293.69659
293.69659
293.69659
293.69659
293.69659
293.69659
293.69659
293.69659
404.80199
402.01898
399.03607
395.84468
392.43689
388.80565
384.94519
380.85145
376.52275
371.96057
367.17061
362.16414
356.9596
351.58454
346.07761
340.49056
334.88957
329.35548
323.98196
318.87093
314.12499
309.83726
306.08052
302.8979
300.29777
298.25432
296.71342
295.60192
294.83802
294.3405
294.03564
293.86149
293.76978
293.72582
293.70691
293.69971
293.69733
293.69665
293.69648
293.69645
293.69644
293.69644
293.69644
293.69644
293.69644
293.69644
293.69644
293.69644
293.69644
293.69644
405.15447
402.38691
399.42063
396.24711
392.85844
389.24757
385.4087
381.33767
377.03262
372.49474
367.72931
362.74697
357.56532
352.21075
346.72048
341.14453
335.54715
330.00718
324.61652
319.47597
314.68795
310.34677
306.5277
303.27747
300.60861
298.49932
296.89874
295.73594
294.93021
294.40039
294.07204
293.88194
293.78024
293.73059
293.70879
293.70029
293.69741
293.69656
293.69635
293.6963
293.6963
293.69629
293.69629
293.69629
293.69629
293.69629
293.69629
293.69629
293.69629
293.69629
405.4867
402.73378
399.78327
396.62669
393.25614
389.6646
385.84622
381.79675
377.51418
372.99945
368.25743
363.29821
358.13858
352.80391
347.33009
341.76552
336.1726
330.62831
325.22283
320.05577
315.22928
310.83861
306.96126
303.64727
300.91308
298.74074
297.08259
295.86995
295.02324
294.4615
294.10967
293.90341
293.79143
293.73581
293.7109
293.70098
293.69752
293.69648
293.69622
293.69616
293.69615
293.69615
293.69615
293.69615
293.69615
293.69615
293.69615
293.69615
293.69615
293.69615
405.80076
403.06176
400.12623
396.98573
393.63241
390.05924
386.26034
382.23139
377.97023
373.47757
368.75793
363.82087
358.68246
353.36711
347.90948
342.35644
336.7687
331.2214
325.80309
320.61217
315.75042
311.31382
307.38187
304.00766
301.21129
298.97851
297.26481
296.00374
295.11692
294.52365
294.14841
293.92585
293.80332
293.74148
293.71326
293.70178
293.69769
293.69642
293.69609
293.69602
293.696
293.696
293.696
293.696
293.696
293.696
293.696
293.696
293.696
293.696
406.09844
403.37268
400.45141
397.32623
393.98932
390.43364
386.65329
382.6439
378.40317
373.9316
369.23337
364.31757
359.19963
353.90303
348.46128
342.91986
337.33786
331.78869
326.35929
321.14684
316.25268
311.77338
307.79018
304.35899
301.50338
299.21262
297.44528
296.13713
295.21106
294.5867
294.18816
293.94918
293.8159
293.74759
293.71586
293.7027
293.6979
293.69638
293.69597
293.69588
293.69586
293.69586
293.69586
293.69586
293.69586
293.69586
293.69586
293.69586
293.69586
293.69586
406.38127
403.66814
400.76047
397.6499
394.32863
390.78964
387.02701
383.03629
378.81508
374.36368
369.68598
364.79062
359.6924
354.41399
348.98783
343.45806
337.88225
332.33217
326.89319
321.66129
316.73729
312.21818
308.1868
304.70163
301.78949
299.44305
297.62389
296.26998
295.30551
294.65052
294.22882
293.97335
293.82912
293.75414
293.71872
293.70374
293.69816
293.69635
293.69585
293.69574
293.69571
293.69571
293.69571
293.69571
293.69571
293.69571
293.69571
293.69571
293.69571
293.69571
406.65058
403.94951
401.05484
397.95823
394.65191
391.12887
387.38317
383.41031
379.20779
374.77572
370.11772
365.24201
360.16283
354.90208
349.49117
343.97304
338.40378
332.85361
327.40638
322.15688
317.20534
312.64907
308.57231
305.03592
302.06979
299.66985
297.80058
296.40218
295.40014
294.71498
294.27029
293.9983
293.84298
293.76111
293.72183
293.70491
293.69847
293.69635
293.69574
293.6956
293.69557
293.69556
293.69556
293.69556
293.69556
293.69556
293.69556
293.69556
293.69556
293.69556
406.90753
404.21801
401.33578
398.25253
394.96052
391.45274
387.72325
383.76751
379.5829
375.16937
370.53029
365.67351
360.61272
355.3691
349.97314
344.46658
338.90416
333.3546
327.9003
322.63485
317.65784
313.06682
308.94724
305.36219
302.34444
299.89303
297.9753
296.53363
295.49484
294.77998
294.3125
294.02398
293.85742
293.76851
293.72519
293.70621
293.69885
293.69636
293.69564
293.69546
293.69542
293.69542
293.69542
293.69542
293.69542
293.69542
293.69542
293.69542
293.69542
293.69542
407.15314
404.4747
401.60438
398.53394
395.25564
391.7625
388.04856
384.10922
379.9418
375.5461
370.92522
366.08668
361.04367
355.81669
350.43535
344.94028
339.38493
333.83659
328.37624
323.09631
318.09572
313.47214
309.31212
305.68077
302.6136
300.11265
298.14802
296.66423
295.5895
294.84542
294.35536
294.05032
293.87244
293.77632
293.72881
293.70765
293.69928
293.6964
293.69554
293.69533
293.69528
293.69527
293.69527
293.69527
293.69527
293.69527
293.69527
293.69527
293.69527
293.69527
407.38832
404.7205
401.86162
398.80347
395.53834
392.05925
388.36023
384.43667
380.28577
375.9072
371.30386
366.48291
361.4571
356.24629
350.87924
345.39556
339.84746
334.30086
328.83539
323.54229
318.51982
313.8657
309.66742
305.99197
302.87746
300.32877
298.31871
296.79394
295.68403
294.91122
294.3988
294.07729
293.88799
293.78452
293.73268
293.70922
293.69978
293.69646
293.69545
293.69519
293.69514
293.69513
293.69513
293.69513
293.69513
293.69513
293.69513
293.69513
293.69513
293.69513
407.61386
404.95625
402.10837
399.06203
395.80955
392.34397
388.65931
384.75091
380.61591
376.25384
371.6674
366.86345
361.85429
356.65918
351.30611
345.83371
340.29299
334.74858
329.27879
323.97374
318.93095
314.24811
310.01358
306.29609
303.13617
300.54146
298.48737
296.92269
295.77837
294.97728
294.44275
294.10483
293.90405
293.79311
293.73681
293.71094
293.70035
293.69655
293.69537
293.69506
293.69499
293.69498
293.69498
293.69498
293.69498
293.69498
293.69498
293.69498
293.69498
293.69498
407.83047
405.18269
402.34539
399.31042
396.07012
392.61754
388.94669
385.05289
380.93322
376.58706
372.01694
367.22941
362.23638
357.05654
351.71714
346.25587
340.72264
335.18082
329.70744
324.3915
319.3298
314.61995
310.35104
306.59341
303.38989
300.75077
298.654
297.05044
295.87244
295.04356
294.48716
294.13289
293.9206
293.80207
293.74118
293.7128
293.70099
293.69667
293.6953
293.69493
293.69485
293.69484
293.69483
293.69483
293.69483
293.69483
293.69483
293.69483
293.69483
293.69483
408.03879
405.40048
402.57338
399.54936
396.32079
392.88074
389.22321
385.34349
381.23859
376.90779
372.35343
367.5818
362.6044
357.43941
352.11337
346.6631
341.13743
335.59853
330.12221
324.79636
319.71705
314.98175
310.68019
306.8842
303.63879
300.95678
298.8186
297.17715
295.96619
295.10997
294.53195
294.16143
293.93759
293.81139
293.7458
293.7148
293.70169
293.69682
293.69524
293.69481
293.69471
293.69469
293.69469
293.69469
293.69469
293.69469
293.69469
293.69469
293.69469
293.69469
408.23939
405.61022
402.79295
399.77949
396.56225
393.13428
389.4896
385.62347
381.53283
377.21687
372.67775
367.9215
362.95928
357.80874
352.49577
347.05635
341.53828
336.0026
330.52391
325.18905
320.09331
315.33399
311.00139
307.16872
303.88303
301.15957
298.9812
297.30281
296.05958
295.17647
294.57709
294.19042
293.95501
293.82106
293.75065
293.71695
293.70248
293.69699
293.69519
293.69469
293.69457
293.69455
293.69454
293.69454
293.69454
293.69454
293.69454
293.69454
293.69454
293.69454
408.43279
405.81244
403.00466
400.00141
396.7951
393.3788
389.74653
385.89353
381.81667
377.51506
372.99069
368.24936
363.30186
358.16539
352.86521
347.43647
341.92604
336.39383
330.9133
325.57022
320.45915
315.67715
311.31501
307.44721
304.12274
301.35922
299.1418
297.42739
296.15255
295.24301
294.62253
294.2198
293.97284
293.83106
293.75575
293.71924
293.70333
293.69721
293.69516
293.69457
293.69443
293.6944
293.6944
293.69439
293.69439
293.69439
293.69439
293.69439
293.69439
293.69439
408.61946
406.00763
403.20903
400.21564
397.01989
393.61488
389.99461
386.15429
382.09078
377.80306
373.29297
368.5661
363.63291
358.51014
353.22246
347.80427
342.30148
336.77297
331.29106
325.9405
320.8151
316.01165
311.62137
307.7199
304.35809
301.55579
299.30043
297.55087
296.24508
295.30954
294.66821
294.24956
293.99104
293.84138
293.76107
293.72167
293.70427
293.69746
293.69513
293.69446
293.69429
293.69426
293.69425
293.69425
293.69425
293.69425
293.69425
293.69425
293.69425
293.69425
408.79981
406.19623
403.40651
400.42266
397.23713
393.84303
390.23438
386.40635
382.35575
378.08148
373.58524
368.8724
363.95312
358.84371
353.56827
348.16046
342.66531
337.14068
331.65781
326.30045
321.16165
316.3379
311.92077
307.98701
304.58921
301.74936
299.45711
297.67325
296.33713
295.37602
294.71411
294.27964
294.00959
293.852
293.76663
293.72425
293.70528
293.69774
293.69513
293.69435
293.69415
293.69411
293.6941
293.6941
293.6941
293.6941
293.6941
293.6941
293.6941
293.6941
408.97424
406.37864
403.59752
400.62291
397.44728
394.06375
390.46634
386.65022
382.61213
378.3509
373.8681
369.1689
364.26315
359.16676
353.90328
348.50569
343.01817
337.49759
332.01415
326.6506
321.49925
316.65626
312.21351
308.24876
304.81624
301.94001
299.61188
297.79453
296.42869
295.44243
294.76019
294.31004
294.02847
293.86292
293.7724
293.72697
293.70637
293.69806
293.69513
293.69424
293.69402
293.69397
293.69396
293.69396
293.69396
293.69396
293.69396
293.69396
293.69396
293.69396
409.14309
406.55523
403.78245
400.81679
397.65075
394.27747
390.69096
386.88638
382.86043
378.61186
374.1421
369.45614
364.56356
359.47987
354.22811
348.84059
343.36067
337.84428
332.3606
326.99144
321.82832
316.96709
312.49987
308.50533
305.0393
302.12781
299.76477
297.91469
296.51972
295.50872
294.80641
294.3407
294.04766
293.87411
293.77838
293.72984
293.70754
293.69842
293.69515
293.69414
293.69388
293.69382
293.69381
293.69381
293.69381
293.69381
293.69381
293.69381
293.69381
293.69381
409.30668
406.72634
403.96164
401.00466
397.84793
394.48459
390.90865
387.11527
383.1011
378.86482
374.40774
369.73466
364.8549
359.78361
354.54332
349.16571
343.69336
338.18127
332.69768
327.32341
322.14927
317.27073
312.7801
308.75693
305.25852
302.31283
299.91579
298.03375
296.61021
295.57487
294.85274
294.37161
294.06714
293.88557
293.78457
293.73284
293.7088
293.69882
293.69519
293.69405
293.69375
293.69368
293.69367
293.69366
293.69366
293.69366
293.69366
293.69366
293.69366
293.69366
409.46532
406.89226
404.13541
401.18687
398.03916
394.68548
391.11981
387.3373
383.33457
379.11022
374.66547
370.00493
365.13766
360.07847
354.84942
349.48156
344.01674
338.50907
333.02583
327.64694
322.46245
317.56746
313.05444
309.00373
305.47403
302.49515
300.065
298.1517
296.70015
295.64086
294.89916
294.40275
294.08689
293.89728
293.79097
293.73598
293.71013
293.69926
293.69525
293.69396
293.69361
293.69354
293.69352
293.69352
293.69352
293.69352
293.69352
293.69352
293.69352
293.69352
409.61928
407.0533
404.30407
401.36371
398.22478
394.88047
391.32478
387.55283
383.56122
379.34849
374.91573
370.26739
365.41231
360.36494
355.14688
349.78863
344.33128
338.82812
333.3455
327.96243
322.76822
317.8576
313.32312
309.24589
305.68594
302.67483
300.21241
298.26856
296.78952
295.70666
294.94564
294.43408
294.10689
293.90923
293.79755
293.73926
293.71155
293.69974
293.69532
293.69388
293.69348
293.69339
293.69337
293.69337
293.69337
293.69337
293.69337
293.69337
293.69337
293.69337
409.7688
407.2097
404.46788
401.53548
398.40508
395.06988
391.52389
387.76222
383.78142
379.57999
375.1589
370.52246
365.67925
360.64343
355.43616
350.08736
344.63744
339.13885
333.65707
328.27023
323.06691
318.1414
313.58637
309.48359
305.89436
302.85195
300.35806
298.38433
296.87832
295.77226
294.99217
294.46559
294.12712
293.92141
293.80433
293.74267
293.71304
293.70027
293.69541
293.69381
293.69336
293.69325
293.69323
293.69323
293.69323
293.69323
293.69323
293.69323
293.69323
293.69323
409.91411
407.36171
404.6271
401.70244
398.58034
395.254
391.71745
387.96577
383.9955
379.80506
375.39535
370.7705
365.93889
360.91435
355.71765
350.37815
344.9356
339.44167
333.96094
328.5707
323.3588
318.41913
313.84439
309.71697
306.09939
303.02656
300.50199
298.49901
296.96653
295.83764
295.03871
294.49726
294.14756
293.93381
293.81129
293.74621
293.71462
293.70084
293.69552
293.69374
293.69323
293.69311
293.69308
293.69308
293.69308
293.69308
293.69308
293.69308
293.69308
293.69308
410.05544
407.50955
404.78196
401.86484
398.75081
395.4331
391.90573
388.16379
384.20377
380.02404
375.62541
371.01187
366.19158
361.17808
355.99174
350.6614
345.22616
339.73692
334.25744
328.86415
323.6442
318.69102
314.09737
309.94619
306.30115
303.19873
300.64423
298.61262
297.05416
295.90278
295.08525
294.52906
294.16821
293.94641
293.81842
293.74988
293.71628
293.70145
293.69565
293.69368
293.69311
293.69297
293.69294
293.69293
293.69293
293.69293
293.69293
293.69293
293.69293
293.69293
410.19297
407.65344
404.93267
402.02289
398.91673
395.60743
392.089
388.35654
384.40651
380.23723
375.8494
371.24689
366.43766
361.43496
356.25878
350.93745
345.50946
340.02497
334.5469
329.15089
323.92335
318.95731
314.34549
310.17137
306.49972
303.36853
300.7848
298.72517
297.1412
295.96768
295.13177
294.56099
294.18904
293.95921
293.82573
293.75368
293.71802
293.70211
293.6958
293.69363
293.69299
293.69283
293.69279
293.69279
293.69279
293.69279
293.69279
293.69279
293.69279
293.69279
410.3269
407.79355
405.07944
402.17681
399.07832
395.7772
392.2675
388.54428
384.60399
380.44489
376.0676
371.47587
366.67744
361.68532
356.51909
351.20664
345.78583
340.30612
334.82963
329.43119
324.19653
319.21821
314.58893
310.39267
306.6952
303.53601
300.92375
298.83667
297.22764
296.03231
295.17826
294.59302
294.21005
293.9722
293.8332
293.7576
293.71985
293.70281
293.69598
293.69359
293.69287
293.69269
293.69265
293.69264
293.69264
293.69264
293.69264
293.69264
293.69264
293.69264
410.45739
407.93007
405.22246
402.3268
399.23578
395.94265
392.44145
388.72724
384.79645
380.64729
376.28029
371.69908
366.91122
361.92944
356.77299
351.46928
346.05559
340.58068
335.10592
329.70533
324.46396
319.47392
314.82786
310.61019
306.88769
303.70123
301.06111
298.94714
297.31348
296.09668
295.22471
294.62515
294.23121
293.98536
293.84082
293.76164
293.72175
293.70356
293.69617
293.69355
293.69275
293.69255
293.6925
293.6925
293.69249
293.69249
293.69249
293.69249
293.69249
293.69249
410.58461
408.06317
405.36189
402.47304
399.38931
396.10397
392.61107
388.90565
384.98413
380.84466
376.48773
371.91679
367.13927
362.16762
357.02077
351.72566
346.31902
340.84894
335.37603
329.97354
324.72586
319.72464
315.06243
310.82407
307.07727
303.86425
301.1969
299.05658
297.39873
296.16077
295.27109
294.65735
294.25252
293.99869
293.8486
293.76579
293.72373
293.70435
293.69639
293.69353
293.69264
293.69241
293.69236
293.69235
293.69235
293.69235
293.69235
293.69235
293.69235
293.69235
410.7087
408.19301
405.49791
402.61569
399.53908
396.26135
392.77654
389.07971
385.16724
381.03725
376.69013
372.12925
367.36184
362.40012
357.26268
351.97605
346.57639
341.11115
335.64021
330.23608
324.98246
319.97054
315.29279
311.03442
307.26402
304.02512
301.33116
299.16501
297.48339
296.22457
295.31741
294.68962
294.27397
294.01217
293.85652
293.77007
293.72579
293.70519
293.69663
293.69351
293.69253
293.69227
293.69221
293.6922
293.6922
293.6922
293.6922
293.6922
293.6922
293.6922
410.8298
408.31972
405.63065
402.75493
399.68526
396.41496
392.93806
389.24962
385.34599
381.22525
376.88774
372.33669
367.57917
362.62719
357.49899
352.2207
346.82796
341.36757
335.89871
330.49316
325.23394
320.2118
315.51909
311.24135
307.44802
304.1839
301.46392
299.27244
297.56745
296.28808
295.36365
294.72194
294.29554
294.0258
293.86458
293.77445
293.72792
293.70607
293.69689
293.69351
293.69243
293.69214
293.69207
293.69206
293.69206
293.69206
293.69206
293.69206
293.69206
293.69206
410.94805
408.44344
405.76028
402.89089
399.82801
396.56496
393.09579
389.41554
385.52056
381.40887
377.08074
372.53931
367.79149
362.84904
357.72993
352.45985
347.07396
341.61843
336.15176
330.74498
325.4805
320.44859
315.74145
311.44497
307.62935
304.34064
301.59521
299.37889
297.65091
296.35129
295.40979
294.7543
294.31723
294.03958
293.87278
293.77895
293.73014
293.707
293.69718
293.69351
293.69233
293.692
293.69193
293.69191
293.69191
293.69191
293.69191
293.69191
293.69191
293.69191
411.06356
408.56431
405.88691
403.02371
399.96747
396.71152
393.2499
389.57766
385.69113
381.58829
377.26935
372.73733
367.99901
363.06591
357.95572
352.69374
347.31462
341.86395
336.39955
330.99175
325.72232
320.68105
315.96001
311.64537
307.80809
304.49538
301.72505
299.48438
297.73379
296.4142
295.45583
294.78669
294.33902
294.05348
293.8811
293.78355
293.73242
293.70798
293.69749
293.69353
293.69223
293.69187
293.69178
293.69177
293.69176
293.69176
293.69176
293.69176
293.69176
293.69176
411.17646
408.68245
406.01068
403.15354
400.10379
396.85477
393.40053
389.73613
385.85786
381.76369
377.45373
372.93094
368.20191
363.278
358.17657
352.92256
347.55015
342.10434
336.64229
331.23366
325.95956
320.90933
316.17489
311.84265
307.9843
304.64818
301.85349
299.58891
297.81609
296.4768
295.50177
294.8191
294.3609
294.06751
293.88955
293.78825
293.73479
293.709
293.69783
293.69355
293.69214
293.69173
293.69164
293.69162
293.69162
293.69162
293.69162
293.69162
293.69162
293.69162
411.28684
408.79795
406.1317
403.28048
400.23708
396.99484
393.54784
389.8911
386.02092
381.93522
377.63407
373.12031
368.4004
363.48549
358.39268
353.14653
347.78075
342.33979
336.88017
331.47087
326.19238
321.13358
316.38621
312.0369
308.15805
304.79908
301.98054
299.69249
297.8978
296.5391
295.54759
294.85153
294.38287
294.08166
293.89812
293.79305
293.73722
293.71007
293.69819
293.69359
293.69205
293.6916
293.6915
293.69148
293.69147
293.69147
293.69147
293.69147
293.69147
293.69147
411.39481
408.91094
406.25009
403.40466
400.36748
397.13188
393.69195
390.04272
386.18045
382.10305
377.81052
373.30561
368.59465
363.68858
358.60423
353.36582
348.00661
342.5705
337.11337
331.70357
326.42095
321.35393
316.59407
312.22822
308.32941
304.94813
302.10624
299.79515
297.97893
296.60108
295.5933
294.88396
294.40492
294.09592
293.9068
293.79795
293.73973
293.71119
293.69858
293.69364
293.69196
293.69147
293.69135
293.69133
293.69133
293.69133