/*--------------------------------*- C++ -*----------------------------------*\
| =========                 |                                                 |
| \\      /  F ield         | OpenFOAM: The Open Source CFD Toolbox           |
|  \\    /   O peration     | Version:  3.0.1                                 |
|   \\  /    A nd           | Web:      www.OpenFOAM.org                      |
|    \\/     M anipulation  |                                                 |
\*---------------------------------------------------------------------------*/
FoamFile
{
    version     2.0;
    format      ascii;
    class       volScalarField;
    location    "10000/fluid";
    object      T;
}
// * * * * * * * * * * * * * * * * * * * * * * * * * * * * * * * * * * * * * //

dimensions      [0 0 0 1 0 0 0];

internalField   nonuniform List<scalar> 
4000
(
359.71543
333.24437
315.47234
304.87662
299.09136
296.15287
294.75391
294.12761
293.86368
293.759
293.71995
293.70628
293.70178
293.7004
293.7
293.69989
293.69986
293.69986
293.69985
293.69985
293.69985
293.69985
293.69985
293.69985
293.69985
293.69985
293.69985
293.69985
293.69985
293.69986
293.69986
293.69986
293.69986
293.69986
293.69986
293.69986
293.69986
293.69986
293.69986
293.69987
368.36427
346.41417
327.97527
314.1874
305.00985
299.5028
296.48156
294.94959
294.22674
293.90828
293.77712
293.72663
293.70847
293.70238
293.70047
293.69991
293.69976
293.69972
293.69971
293.69971
293.69971
293.69971
293.69971
293.69971
293.69971
293.69971
293.69971
293.69971
293.69971
293.69971
293.69971
293.69971
293.69971
293.69971
293.69971
293.69971
293.69971
293.69971
293.69972
293.69972
373.23656
353.04182
335.28881
320.83012
310.12539
302.94229
298.5478
296.0765
294.79033
294.16821
293.88799
293.7704
293.72443
293.70771
293.70205
293.70027
293.69975
293.69961
293.69957
293.69956
293.69956
293.69956
293.69956
293.69956
293.69956
293.69956
293.69956
293.69956
293.69956
293.69956
293.69956
293.69956
293.69956
293.69956
293.69956
293.69956
293.69957
293.69957
293.69957
293.69957
376.96334
357.59298
340.31596
325.72504
314.29668
306.07712
300.6527
297.35486
295.49899
294.52892
294.05712
293.84356
293.75362
293.71842
293.70562
293.7013
293.69995
293.69956
293.69945
293.69942
293.69942
293.69942
293.69942
293.69942
293.69942
293.69942
293.69942
293.69942
293.69942
293.69942
293.69942
293.69942
293.69942
293.69942
293.69942
293.69942
293.69942
293.69942
293.69942
293.69942
379.94841
361.09881
344.15369
329.55766
317.73873
308.84879
302.6635
298.67899
296.29575
294.96903
294.28089
293.9484
293.79889
293.7364
293.71215
293.70343
293.70052
293.69962
293.69936
293.69929
293.69927
293.69927
293.69927
293.69927
293.69927
293.69927
293.69927
293.69927
293.69927
293.69927
293.69927
293.69927
293.69927
293.69927
293.69927
293.69927
293.69927
293.69927
293.69928
293.69928
382.38098
363.92479
347.24335
332.68737
320.63786
311.28989
304.53309
299.98675
297.13496
295.46468
294.55076
294.08392
293.86162
293.76313
293.7226
293.70713
293.70166
293.69987
293.69933
293.69918
293.69914
293.69913
293.69912
293.69912
293.69912
293.69912
293.69912
293.69912
293.69912
293.69912
293.69912
293.69912
293.69912
293.69912
293.69912
293.69913
293.69913
293.69913
293.69913
293.69913
384.39211
366.26314
349.81028
335.31754
323.12674
313.45165
306.25484
301.24714
297.98561
295.99513
294.85663
294.24695
293.94185
293.79952
293.73777
293.7129
293.70362
293.70042
293.69939
293.69909
293.69901
293.69898
293.69898
293.69898
293.69898
293.69898
293.69898
293.69898
293.69898
293.69898
293.69898
293.69898
293.69898
293.69898
293.69898
293.69898
293.69898
293.69898
293.69898
293.69898
386.07799
368.23443
351.98845
337.5729
325.2966
315.38071
307.83736
302.44693
298.82828
296.54433
295.18886
294.43329
294.03859
293.8459
293.75824
293.72118
293.70665
293.70137
293.6996
293.69905
293.69889
293.69885
293.69883
293.69883
293.69883
293.69883
293.69883
293.69883
293.69883
293.69883
293.69883
293.69883
293.69883
293.69883
293.69883
293.69883
293.69883
293.69884
293.69884
293.69884
387.51039
369.92175
353.86655
339.53652
327.21193
317.11534
309.2939
303.58231
299.65166
297.10069
295.53915
294.63853
294.15023
293.90213
293.78437
293.73234
293.71099
293.70286
293.7
293.69907
293.69879
293.69871
293.69869
293.69869
293.69869
293.69869
293.69869
293.69869
293.69869
293.69869
293.69869
293.69869
293.69869
293.69869
293.69869
293.69869
293.69869
293.69869
293.69869
293.69869
388.74319
371.38509
355.50716
341.26707
328.91993
318.68612
310.6382
304.65415
300.44958
297.65618
295.90085
294.8585
294.27485
293.96767
293.81628
293.74664
293.71685
293.70502
293.70067
293.69919
293.69872
293.69859
293.69855
293.69854
293.69854
293.69854
293.69854
293.69854
293.69854
293.69854
293.69854
293.69854
293.69854
293.69854
293.69854
293.69854
293.69854
293.69854
293.69854
293.69854
389.81699
372.66897
356.95626
342.8078
330.45622
320.11755
311.88295
305.6655
301.21907
298.20544
296.2688
295.08952
294.41044
294.0418
293.85387
293.76426
293.72443
293.70797
293.70167
293.69943
293.6987
293.69848
293.69841
293.6984
293.69839
293.69839
293.69839
293.69839
293.69839
293.69839
293.69839
293.69839
293.69839
293.69839
293.69839
293.69839
293.6984
293.6984
293.6984
293.6984
390.76265
373.80706
358.24856
344.19154
331.84839
321.42941
313.03944
306.62034
301.95911
298.74497
296.63909
295.3285
294.55509
294.12362
293.89694
293.78526
293.73385
293.71183
293.70307
293.69984
293.69873
293.69839
293.69828
293.69826
293.69825
293.69825
293.69825
293.69825
293.69825
293.69825
293.69825
293.69825
293.69825
293.69825
293.69825
293.69825
293.69825
293.69825
293.69825
293.69825
391.60378
374.8252
359.41081
345.44377
333.11822
322.63785
314.1175
307.52287
302.66983
299.27263
297.00884
295.57287
294.70707
294.21223
293.94516
293.80963
293.74523
293.71669
293.70493
293.70044
293.69884
293.69832
293.69816
293.69812
293.6981
293.6981
293.6981
293.6981
293.6981
293.6981
293.6981
293.6981
293.6981
293.6981
293.6981
293.6981
293.6981
293.6981
293.69811
293.69811
392.35865
375.74351
360.46395
346.58464
334.28317
323.75616
315.12566
308.3772
303.35199
299.78716
297.37595
295.8206
294.86481
294.30669
293.99812
293.83729
293.75862
293.72265
293.70733
293.70127
293.69904
293.69829
293.69805
293.69798
293.69796
293.69796
293.69795
293.69795
293.69795
293.69795
293.69795
293.69795
293.69795
293.69795
293.69796
293.69796
293.69796
293.69796
293.69796
293.69796
393.04153
376.57782
361.42459
347.63029
335.35745
324.79541
316.07129
309.18722
304.00674
300.2879
297.73893
296.07002
295.027
294.40616
294.0554
293.86811
293.77402
293.72975
293.71031
293.70237
293.69936
293.6983
293.69795
293.69785
293.69782
293.69781
293.69781
293.69781
293.69781
293.69781
293.69781
293.69781
293.69781
293.69781
293.69781
293.69781
293.69781
293.69781
293.69781
293.69781
393.66368
377.34074
362.30607
348.59379
336.35273
325.76488
316.96078
309.95654
304.63541
300.77464
298.09672
296.31985
295.19249
294.50983
294.11655
293.90191
293.79143
293.73804
293.71392
293.70377
293.6998
293.69836
293.69787
293.69772
293.69768
293.69767
293.69766
293.69766
293.69766
293.69766
293.69766
293.69766
293.69766
293.69766
293.69766
293.69766
293.69766
293.69767
293.69767
293.69767
394.23409
378.0424
363.1192
349.48588
337.27869
326.67242
317.79971
310.68844
305.23938
301.24742
298.44861
296.56908
295.36032
294.61698
294.18116
293.9385
293.81079
293.74755
293.71822
293.70552
293.7004
293.69848
293.69782
293.6976
293.69754
293.69752
293.69752
293.69752
293.69752
293.69752
293.69752
293.69752
293.69752
293.69752
293.69752
293.69752
293.69752
293.69752
293.69752
293.69752
394.76
378.69108
363.87288
350.31542
338.14346
327.52469
318.59289
311.38589
305.82006
301.70649
298.79411
296.81693
295.52969
294.72698
294.24879
293.97767
293.83204
293.75828
293.72321
293.70763
293.70117
293.69868
293.69779
293.6975
293.69741
293.69738
293.69737
293.69737
293.69737
293.69737
293.69737
293.69737
293.69737
293.69737
293.69737
293.69737
293.69737
293.69737
293.69737
293.69737
395.24731
379.29354
364.57444
351.08982
338.95387
328.32742
319.34457
312.0516
306.37879
302.15221
299.13296
297.0628
295.69995
294.83927
294.31906
294.01921
293.8551
293.77023
293.72894
293.71013
293.70213
293.69897
293.6978
293.6974
293.69727
293.69724
293.69723
293.69722
293.69722
293.69722
293.69722
293.69722
293.69722
293.69722
293.69722
293.69723
293.69723
293.69723
293.69723
293.69723
395.70086
379.8554
365.23002
351.8153
339.71575
329.08551
320.05846
312.688
306.91689
302.58499
299.46499
297.30625
295.87055
294.95335
294.39162
294.0629
293.87987
293.78337
293.73541
293.71305
293.70331
293.69935
293.69785
293.69732
293.69715
293.6971
293.69708
293.69708
293.69708
293.69708
293.69708
293.69708
293.69708
293.69708
293.69708
293.69708
293.69708
293.69708
293.69708
293.69708
396.12468
380.38135
365.84476
352.49716
340.43407
329.80325
320.73783
313.2973
307.43558
303.00531
299.79017
297.54691
296.04104
295.06881
294.46614
294.10854
293.90625
293.79767
293.74263
293.71641
293.70471
293.69983
293.69794
293.69726
293.69703
293.69696
293.69694
293.69693
293.69693
293.69693
293.69693
293.69693
293.69693
293.69693
293.69693
293.69693
293.69693
293.69693
293.69693
293.69694
396.52215
380.87535
366.42305
353.1399
341.11312
330.48433
321.38557
313.88147
307.93601
303.41366
300.10852
297.78457
296.21106
295.18527
294.54231
294.15592
293.93413
293.8131
293.7506
293.72021
293.70635
293.70044
293.69809
293.69722
293.69692
293.69682
293.6968
293.69679
293.69679
293.69678
293.69678
293.69678
293.69678
293.69679
293.69679
293.69679
293.69679
293.69679
293.69679
293.69679
396.8961
381.34076
366.96861
353.7474
341.7566
331.13201
322.00424
314.44231
308.41927
303.81054
300.42012
298.01902
296.38031
295.30242
294.61989
294.20486
293.96341
293.82961
293.75931
293.72447
293.70825
293.70117
293.6983
293.69721
293.69682
293.69669
293.69665
293.69664
293.69664
293.69664
293.69664
293.69664
293.69664
293.69664
293.69664
293.69664
293.69664
293.69664
293.69664
293.69664
397.24897
381.78045
367.48466
354.32299
342.36776
331.74913
322.59613
314.98145
308.88635
304.19643
300.72509
298.25016
296.54856
295.41999
294.69861
294.25519
293.99398
293.84715
293.76875
293.72919
293.71041
293.70205
293.69857
293.69722
293.69673
293.69657
293.69651
293.6965
293.69649
293.69649
293.69649
293.69649
293.69649
293.69649
293.69649
293.69649
293.6965
293.6965
293.6965
293.6965
397.58282
382.19689
367.97398
354.86961
342.94943
332.33822
323.16326
315.50036
309.33819
304.57181
301.02356
298.47792
296.7156
295.53776
294.77828
294.30674
294.02574
293.86566
293.77891
293.73438
293.71285
293.70307
293.69891
293.69726
293.69665
293.69644
293.69637
293.69635
293.69635
293.69635
293.69635
293.69635
293.69635
293.69635
293.69635
293.69635
293.69635
293.69635
293.69635
293.69635
397.89944
382.59224
368.43896
355.38977
343.50407
332.90151
323.70747
316.00039
309.77565
304.93715
301.31571
298.70224
296.88129
295.65553
294.85871
294.35937
294.05858
293.8851
293.78975
293.74004
293.71557
293.70425
293.69934
293.69735
293.69659
293.69633
293.69624
293.69621
293.6962
293.6962
293.6962
293.6962
293.6962
293.6962
293.6962
293.6962
293.6962
293.6962
293.6962
293.6962
398.2004
382.96836
368.88174
355.88574
344.03391
333.44099
324.23038
316.48274
310.19953
305.29289
301.6017
298.92312
297.04552
295.77313
294.93974
294.41293
294.09241
293.90542
293.80127
293.74616
293.71858
293.70559
293.69984
293.69747
293.69655
293.69622
293.6961
293.69607
293.69606
293.69605
293.69605
293.69605
293.69605
293.69605
293.69606
293.69606
293.69606
293.69606
293.69606
293.69606
398.48706
383.32688
369.30417
356.35947
344.54087
333.95842
324.73348
316.94853
310.61059
305.63946
301.88171
299.14057
297.20818
295.89042
295.02121
294.4673
294.12714
293.92654
293.81343
293.75273
293.72189
293.7071
293.70044
293.69763
293.69652
293.69611
293.69597
293.69593
293.69591
293.69591
293.69591
293.69591
293.69591
293.69591
293.69591
293.69591
293.69591
293.69591
293.69591
293.69591
398.76059
383.66926
369.70788
356.81272
345.0267
334.45541
325.2181
317.39877
311.0095
305.97725
302.15593
299.35462
297.3692
296.00729
295.103
294.52237
294.16269
293.94843
293.82621
293.75976
293.72548
293.70878
293.70113
293.69784
293.69652
293.69602
293.69584
293.69579
293.69577
293.69576
293.69576
293.69576
293.69576
293.69576
293.69576
293.69576
293.69576
293.69576
293.69577
293.69577
399.02207
383.99677
370.09434
357.24704
345.49296
334.93338
325.68544
317.8344
311.39691
306.30667
302.42453
299.5653
297.52854
296.12364
295.18499
294.57804
294.19897
293.97103
293.83958
293.76722
293.72937
293.71065
293.70192
293.6981
293.69654
293.69594
293.69572
293.69565
293.69562
293.69562
293.69562
293.69562
293.69562
293.69562
293.69562
293.69562
293.69562
293.69562
293.69562
293.69562
399.27242
384.31054
370.46484
357.66382
345.94103
335.39362
326.13662
318.25626
311.77341
306.62806
302.6877
299.77266
297.68616
296.23938
295.26709
294.63421
294.23591
293.99428
293.85351
293.77511
293.73356
293.7127
293.70282
293.69842
293.69658
293.69586
293.6956
293.69551
293.69548
293.69547
293.69547
293.69547
293.69547
293.69547
293.69547
293.69547
293.69547
293.69547
293.69547
293.69547
399.51247
384.61159
370.82054
358.06432
346.37217
335.8373
326.57262
318.66513
312.13957
306.94178
302.94562
299.97675
297.84203
296.35444
295.34921
294.69079
294.27344
294.01814
293.86797
293.78341
293.73803
293.71493
293.70382
293.69879
293.69666
293.6958
293.69549
293.69538
293.69534
293.69533
293.69532
293.69532
293.69532
293.69532
293.69532
293.69532
293.69533
293.69533
293.69533
293.69533
399.74298
384.90084
371.16248
358.44966
346.78751
336.26549
326.99436
319.06175
312.49588
307.24814
303.19845
300.17765
297.99613
296.46877
295.43128
294.74772
294.3115
294.04257
293.88294
293.79211
293.74279
293.71735
293.70493
293.69923
293.69676
293.69576
293.69538
293.69524
293.6952
293.69518
293.69518
293.69518
293.69518
293.69518
293.69518
293.69518
293.69518
293.69518
293.69518
293.69518
399.96461
385.17908
371.49161
358.82085
347.18808
336.67913
327.40267
319.44676
312.84283
307.54747
303.44637
300.3754
298.14847
296.58232
295.51322
294.80491
294.35003
294.06751
293.89839
293.8012
293.74783
293.71995
293.70616
293.69972
293.69689
293.69573
293.69528
293.69511
293.69506
293.69504
293.69503
293.69503
293.69503
293.69503
293.69503
293.69503
293.69503
293.69503
293.69503
293.69503
400.17797
385.44707
371.80878
359.17881
347.57481
337.07913
327.79833
319.82079
313.18087
307.84005
303.68954
300.57009
298.29905
296.69506
295.59498
294.86232
294.38897
294.09293
293.91428
293.81066
293.75315
293.72275
293.70751
293.70029
293.69706
293.69571
293.69518
293.69499
293.69492
293.69489
293.69489
293.69489
293.69489
293.69489
293.69489
293.69489
293.69489
293.69489
293.69489
293.69489
400.38359
385.70548
372.11474
359.52438
347.94856
337.46627
328.18204
320.18441
313.51042
308.12616
303.92812
300.76177
298.44786
296.80694
295.67652
294.91989
294.42827
294.11878
293.93059
293.82048
293.75874
293.72573
293.70897
293.70092
293.69727
293.69572
293.69509
293.69486
293.69478
293.69475
293.69474
293.69474
293.69474
293.69474
293.69474
293.69474
293.69474
293.69474
293.69474
293.69474
400.58197
385.9549
372.4102
359.85832
348.31009
337.8413
328.55445
320.53813
313.83186
308.40606
304.16226
300.95052
298.59493
296.91795
295.75778
294.97756
294.46788
294.14504
293.9473
293.83063
293.76459
293.7289
293.71055
293.70162
293.69751
293.69574
293.69502
293.69474
293.69464
293.69461
293.6946
293.69459
293.69459
293.69459
293.69459
293.69459
293.69459
293.6946
293.6946
293.6946
400.77357
386.19589
372.69581
360.18132
348.66011
338.2049
328.91616
320.88245
314.14556
308.67999
304.39211
301.13641
298.74027
297.02806
295.83873
295.0353
294.50777
294.17165
293.96438
293.84112
293.7707
293.73225
293.71225
293.70239
293.6978
293.69578
293.69495
293.69462
293.69451
293.69447
293.69445
293.69445
293.69445
293.69445
293.69445
293.69445
293.69445
293.69445
293.69445
293.69445
400.95879
386.42895
372.97214
360.49402
348.99929
338.55769
329.26772
321.21782
314.45186
308.94818
304.6178
301.3195
298.88389
297.13727
295.91934
295.09306
294.5479
294.1986
293.98181
293.85191
293.77706
293.73578
293.71407
293.70324
293.69812
293.69585
293.69489
293.69451
293.69437
293.69432
293.69431
293.6943
293.6943
293.6943
293.6943
293.6943
293.6943
293.6943
293.6943
293.6943
401.13801
386.65455
373.23973
360.79701
349.32821
338.90024
329.60965
321.54467
314.75108
309.21087
304.83948
301.49987
299.02583
297.24557
295.99957
295.1508
294.58822
294.22585
293.99956
293.863
293.78366
293.73949
293.71602
293.70416
293.69849
293.69593
293.69484
293.69441
293.69424
293.69418
293.69416
293.69416
293.69415
293.69415
293.69416
293.69416
293.69416
293.69416
293.69416
293.69416
401.31157
386.87311
373.49906
361.09081
349.64744
339.23309
329.94242
321.86339
315.04352
309.46825
305.05727
301.67758
299.1661
297.35294
296.07942
295.2085
294.6287
294.25337
294.01761
293.87437
293.7905
293.74338
293.71808
293.70516
293.69891
293.69604
293.69481
293.69431
293.69411
293.69404
293.69402
293.69401
293.69401
293.69401
293.69401
293.69401
293.69401
293.69401
293.69401
293.69401
401.47978
387.08502
373.7506
361.37593
349.95748
339.55674
330.26648
322.17435
315.32947
309.72053
305.27129
301.8527
299.30472
297.45938
296.15884
295.26613
294.66933
294.28113
294.03594
293.886
293.79756
293.74743
293.72027
293.70624
293.69937
293.69618
293.69479
293.69421
293.69399
293.6939
293.69388
293.69387
293.69386
293.69386
293.69386
293.69386
293.69386
293.69386
293.69386
293.69386
401.64295
387.29063
373.99475
361.65282
350.2588
339.87163
330.58223
322.47789
315.60919
309.96789
305.48167
302.02529
299.44172
297.5649
296.23784
295.32366
294.71006
294.30911
294.05453
293.89789
293.80483
293.75166
293.72257
293.7074
293.69987
293.69634
293.69478
293.69412
293.69386
293.69377
293.69373
293.69372
293.69372
293.69372
293.69372
293.69372
293.69372
293.69372
293.69372
293.69372
401.80133
387.49029
374.23191
361.92191
350.55185
340.1782
330.89007
322.77434
315.88293
310.21052
305.68853
302.19543
299.57713
297.66949
296.31638
295.38107
294.75087
294.33729
294.07336
293.91002
293.81231
293.75605
293.725
293.70863
293.70043
293.69653
293.69478
293.69404
293.69374
293.69363
293.69359
293.69358
293.69357
293.69357
293.69357
293.69357
293.69357
293.69357
293.69357
293.69357
401.95517
387.68429
374.46243
362.18359
350.83703
340.47684
331.19036
323.064
316.15093
310.44857
305.89196
302.36316
299.71098
297.77315
296.39447
295.43833
294.79175
294.36564
294.09241
293.92237
293.82
293.7606
293.72754
293.70995
293.70103
293.69675
293.6948
293.69397
293.69363
293.6935
293.69345
293.69343
293.69343
293.69342
293.69342
293.69342
293.69343
293.69343
293.69343
293.69343
402.10471
387.87292
374.68663
362.43822
351.11472
340.76791
331.48342
323.34715
316.4134
310.68221
306.09208
302.52855
299.84329
297.8759
296.47209
295.49544
294.83266
294.39414
294.11167
293.93493
293.82787
293.76531
293.7302
293.71134
293.70169
293.697
293.69484
293.6939
293.69351
293.69336
293.69331
293.69329
293.69328
293.69328
293.69328
293.69328
293.69328
293.69328
293.69328
293.69328
402.25015
388.05645
374.90484
362.68614
351.38527
341.05177
331.76958
323.62407
316.67057
310.91159
306.28898
302.69166
299.97409
297.97773
296.54923
295.55237
294.87359
294.42278
294.13111
293.9477
293.83593
293.77017
293.73297
293.71281
293.7024
293.69728
293.69489
293.69384
293.6934
293.69323
293.69317
293.69314
293.69313
293.69313
293.69313
293.69313
293.69313
293.69313
293.69313
293.69313
402.3917
388.23512
375.11732
362.92766
351.64901
341.32874
332.04913
323.895
316.92262
311.13686
306.48276
302.85255
300.10341
298.07866
296.62589
295.60911
294.91453
294.45154
294.15073
293.96065
293.84416
293.77518
293.73585
293.71436
293.70315
293.69759
293.69496
293.69379
293.6933
293.6931
293.69303
293.693
293.69299
293.69299
293.69299
293.69299
293.69299
293.69299
293.69299
293.69299
402.52955
388.40915
375.32436
363.16309
351.90624
341.59912
332.32234
324.16018
317.16975
311.35816
306.67352
303.01127
300.23127
298.17868
296.70205
295.66565
294.95546
294.48039
294.17051
293.97378
293.85256
293.78032
293.73885
293.716
293.70396
293.69793
293.69505
293.69375
293.6932
293.69297
293.69289
293.69286
293.69284
293.69284
293.69284
293.69284
293.69284
293.69284
293.69284
293.69284
402.66385
388.57877
375.5262
363.39269
352.15726
341.86318
332.58948
324.41983
317.41214
311.57561
306.86135
303.16787
300.35771
298.27782
296.77773
295.72198
294.99636
294.50934
294.19044
293.98708
293.86112
293.78561
293.74195
293.7177
293.70482
293.6983
293.69516
293.69372
293.6931
293.69285
293.69275
293.69271
293.6927
293.6927
293.69269
293.69269
293.69269
293.6927
293.6927
293.6927
402.79478
388.74417
375.72308
363.61673
352.40233
342.1212
332.8508
324.67416
317.64994
311.78935
307.04632
303.32242
300.48274
298.37607
296.85291
295.77808
295.03721
294.53836
294.21049
294.00053
293.86984
293.79103
293.74516
293.71949
293.70574
293.69871
293.69528
293.6937
293.69301
293.69273
293.69261
293.69257
293.69255
293.69255
293.69255
293.69255
293.69255
293.69255
293.69255
293.69255
402.92248
388.90554
375.9152
363.83545
352.64172
342.37343
333.10651
324.92339
317.88333
311.99948
307.22852
303.47495
300.6064
298.47345
296.92759
295.83395
295.07802
294.56743
294.23067
294.01413
293.87869
293.79657
293.74847
293.72135
293.7067
293.69914
293.69543
293.6937
293.69293
293.69261
293.69248
293.69243
293.69241
293.6924
293.6924
293.6924
293.6924
293.6924
293.6924
293.6924
403.04709
389.06305
376.10278
364.04906
352.87564
342.6201
333.35685
325.16768
318.11246
312.20613
307.40803
303.62551
300.72872
298.56997
297.00178
295.88959
295.11876
294.59656
294.25096
294.02786
293.88769
293.80224
293.75188
293.72329
293.70772
293.69962
293.6956
293.6937
293.69285
293.69249
293.69234
293.69229
293.69227
293.69226
293.69226
293.69226
293.69226
293.69226
293.69226
293.69226
403.16875
389.21686
376.28601
364.25779
353.10433
342.86143
333.60201
325.40722
318.33747
312.4094
307.58492
303.77416
300.84971
298.66565
297.07547
295.94498
295.15943
294.62572
294.27135
294.04172
293.89682
293.80803
293.75539
293.72531
293.70879
293.70013
293.69578
293.69371
293.69278
293.69237
293.69221
293.69215
293.69212
293.69211
293.69211
293.69211
293.69211
293.69211
293.69211
293.69211
403.28759
389.36714
376.46506
364.46184
353.328
343.09762
333.84219
325.64219
318.55849
312.6094
307.75927
303.92094
300.9694
298.76048
297.14866
296.00012
295.20002
294.65491
294.29183
294.0557
293.90607
293.81393
293.759
293.72739
293.70992
293.70067
293.69599
293.69374
293.69271
293.69226
293.69208
293.69201
293.69198
293.69197
293.69196
293.69196
293.69196
293.69196
293.69196
293.69197
403.40371
389.51402
376.64011
364.66138
353.54685
343.32889
334.07758
325.87274
318.77566
312.80622
307.93114
304.0659
301.08782
298.85448
297.22135
296.055
295.24052
294.68412
294.31239
294.06979
293.91544
293.81995
293.76269
293.72955
293.7111
293.70124
293.69622
293.69378
293.69265
293.69216
293.69195
293.69187
293.69183
293.69182
293.69182
293.69182
293.69182
293.69182
293.69182
293.69182
403.51722
389.65765
376.81132
364.85661
353.76106
343.55541
334.30835
326.09902
318.98911
312.99997
308.10061
304.20907
301.205
298.94766
297.29356
296.10963
295.28092
294.71333
294.33302
294.08399
293.92492
293.82607
293.76648
293.73178
293.71232
293.70186
293.69647
293.69383
293.6926
293.69205
293.69182
293.69173
293.69169
293.69168
293.69167
293.69167
293.69167
293.69167
293.69167
293.69167
403.62824
389.79815
376.97883
365.04768
353.97081
343.77736
334.53466
326.32118
319.19894
313.19072
308.26773
304.35051
301.32095
299.04004
297.36527
296.164
295.32122
294.74254
294.35371
294.09828
293.93451
293.83229
293.77036
293.73408
293.7136
293.7025
293.69675
293.6939
293.69256
293.69195
293.69169
293.69159
293.69155
293.69153
293.69153
293.69153
293.69153
293.69153
293.69153
293.69153
403.73685
389.93564
377.1428
365.23477
354.17627
343.9949
334.75667
326.53936
319.40528
313.37857
308.43256
304.49024
301.43571
299.13162
297.43649
296.21809
295.36141
294.77175
294.37446
294.11266
293.9442
293.8386
293.77432
293.73645
293.71493
293.70319
293.69705
293.69398
293.69252
293.69186
293.69157
293.69145
293.69141
293.69139
293.69138
293.69138
293.69138
293.69138
293.69138
293.69138
403.84316
390.07024
377.30335
365.418
354.37759
344.2082
334.97453
326.75368
319.60824
313.5636
308.59518
304.62831
301.54928
299.22241
297.50723
296.27193
295.40148
294.80094
294.39526
294.12712
293.95398
293.84502
293.77837
293.73889
293.71631
293.70391
293.69737
293.69407
293.69249
293.69177
293.69145
293.69132
293.69126
293.69124
293.69124
293.69123
293.69123
293.69123
293.69123
293.69123
403.94724
390.20205
377.46061
365.59754
354.57493
344.4174
335.18838
326.96428
319.80791
313.74589
308.75563
304.76475
301.66171
299.31244
297.57749
296.32549
295.44144
294.83012
294.4161
294.14166
293.96385
293.85152
293.78249
293.74139
293.71775
293.70466
293.69771
293.69418
293.69247
293.69168
293.69133
293.69118
293.69112
293.6911
293.69109
293.69109
293.69109
293.69109
293.69109
293.69109
404.04918
390.33118
377.6147
365.7735
354.76842
344.62265
335.39836
327.17127
320.0044
313.92552
308.91397
304.89961
301.773
299.4017
297.64727
296.37878
295.48127
294.85926
294.43697
294.15626
293.97381
293.8581
293.7867
293.74395
293.71923
293.70545
293.69808
293.6943
293.69246
293.6916
293.69121
293.69105
293.69098
293.69096
293.69095
293.69094
293.69094
293.69094
293.69094
293.69094
404.14906
390.45773
377.76574
365.94603
354.9582
344.82407
335.60458
327.37477
320.19779
314.10256
309.07025
305.03292
301.88318
299.49021
297.71657
296.43181
295.52097
294.88838
294.45788
294.17093
293.98385
293.86477
293.79097
293.74658
293.72075
293.70627
293.69847
293.69444
293.69245
293.69152
293.6911
293.69092
293.69084
293.69081
293.6908
293.6908
293.6908
293.6908
293.6908
293.6908
404.24695
390.58179
377.91384
366.11523
355.14441
345.02181
335.80719
327.57488
320.38819
314.27708
309.22452
305.16471
301.99228
299.57798
297.78541
296.48456
295.56054
294.91746
294.4788
294.18566
293.99396
293.87152
293.79532
293.74927
293.72233
293.70713
293.69888
293.69459
293.69246
293.69145
293.69099
293.69079
293.6907
293.69067
293.69066
293.69065
293.69065
293.69065
293.69065
293.69065
404.34292
390.70344
378.05909
366.28123
355.32715
345.21598
336.00628
327.7717
320.57567
314.44915
309.37683
305.29501
302.1003
299.66502
297.85377
296.53703
295.59997
294.94649
294.49975
294.20045
294.00414
293.87834
293.79974
293.75202
293.72395
293.70802
293.69932
293.69476
293.69248
293.69138
293.69088
293.69066
293.69056
293.69053
293.69051
293.69051
293.6905
293.6905
293.6905
293.6905
404.43704
390.82277
378.2016
366.44414
355.50655
345.4067
336.20197
327.96535
320.76032
314.61883
309.52724
305.42387
302.20728
299.75135
297.92168
296.58924
295.63927
294.97548
294.52071
294.21528
294.01439
293.88523
293.80423
293.75483
293.72563
293.70895
293.69978
293.69495
293.6925
293.69132
293.69077
293.69053
293.69043
293.69038
293.69037
293.69036
293.69036
293.69036
293.69036
293.69036
404.52937
390.93985
378.34145
366.60405
355.68272
345.59408
336.39437
328.1559
320.94222
314.78618
309.67578
305.5513
302.31323
299.83697
297.98913
296.64118
295.67843
295.00442
294.54167
294.23015
294.02471
293.89219
293.80878
293.75769
293.72734
293.70991
293.70027
293.69515
293.69254
293.69126
293.69067
293.6904
293.69029
293.69024
293.69022
293.69022
293.69021
293.69021
293.69021
293.69021
404.61997
391.05477
378.47874
366.76106
355.85576
345.77822
336.58358
328.34346
321.12145
314.95127
309.8225
305.67734
302.41816
299.92189
298.05613
296.69284
295.71744
295.03331
294.56265
294.24507
294.03508
293.89921
293.81339
293.76061
293.7291
293.71091
293.70078
293.69536
293.69258
293.69121
293.69057
293.69028
293.69015
293.6901
293.69008
293.69007
293.69007
293.69007
293.69007
293.69007
404.70891
391.1676
378.61355
366.91527
356.02577
345.95923
336.7697
328.5281
321.29807
315.11415
309.96744
305.80202
302.52211
300.00612
298.12268
296.74423
295.75631
295.06214
294.58362
294.26002
294.0455
293.9063
293.81806
293.76358
293.73091
293.71194
293.70132
293.69559
293.69263
293.69117
293.69047
293.69015
293.69002
293.68996
293.68993
293.68992
293.68992
293.68992
293.68992
293.68992
404.79622
391.27839
378.74596
367.06678
356.19285
346.1372
336.95281
328.70992
321.47216
315.27489
310.11065
305.92537
302.62508
300.08968
298.18878
296.79535
295.79504
295.09091
294.60459
294.27501
294.05598
293.91344
293.82279
293.7666
293.73275
293.713
293.70188
293.69584
293.6927
293.69113
293.69038
293.69003
293.68988
293.68982
293.68979
293.68978
293.68978
293.68977
293.68977
293.68977
404.88198
391.38722
378.87605
367.21566
356.35709
346.31223
337.133
328.88898
321.64379
315.43352
310.25215
306.04741
302.7271
300.17257
298.25445
296.84621
295.83362
295.11962
294.62556
294.29002
294.0665
293.92064
293.82758
293.76968
293.73464
293.7141
293.70246
293.69611
293.69278
293.6911
293.69029
293.68991
293.68975
293.68968
293.68965
293.68963
293.68963
293.68963
293.68963
293.68963
404.96621
391.49416
379.00389
367.36199
356.51857
346.48441
337.31037
329.06538
321.81302
315.59011
310.39201
306.16818
302.82817
300.25481
298.31968
296.89679
295.87205
295.14827
294.64651
294.30506
294.07707
293.9279
293.83242
293.7728
293.73657
293.71523
293.70307
293.69639
293.69286
293.69107
293.6902
293.6898
293.68961
293.68954
293.6895
293.68949
293.68948
293.68948
293.68948
293.68948
405.04899
391.59925
379.12955
367.50586
356.67739
346.65381
337.48498
329.23917
321.97991
315.7447
310.53024
306.28769
302.92833
300.3364
298.38449
296.94711
295.91033
295.17684
294.66745
294.32012
294.08768
293.9352
293.83731
293.77597
293.73855
293.71639
293.7037
293.69669
293.69296
293.69105
293.69012
293.68968
293.68948
293.6894
293.68936
293.68935
293.68934
293.68934
293.68934
293.68934
405.13033
391.70255
379.25309
367.64735
356.83361
346.82052
337.65693
329.41044
322.14452
315.89734
310.66688
306.40597
303.02758
300.41736
298.44887
296.99717
295.94846
295.20535
294.68838
294.33519
294.09833
293.94255
293.84226
293.77919
293.74056
293.71758