/*--------------------------------*- C++ -*----------------------------------*\
| =========                 |                                                 |
| \\      /  F ield         | OpenFOAM: The Open Source CFD Toolbox           |
|  \\    /   O peration     | Version:  3.0.1                                 |
|   \\  /    A nd           | Web:      www.OpenFOAM.org                      |
|    \\/     M anipulation  |                                                 |
\*---------------------------------------------------------------------------*/
FoamFile
{
    version     2.0;
    format      ascii;
    class       volVectorField;
    location    "10000/fluid";
    object      U;
}
// * * * * * * * * * * * * * * * * * * * * * * * * * * * * * * * * * * * * * //

dimensions      [0 1 -1 0 0 0 0];

internalField   nonuniform List<vector> 
4000
(
(0.00035173089 1.4487214e-18 0.075040957)
(0.00086656564 3.8254297e-18 0.17046015)
(0.0015400547 5.0376012e-18 0.23152264)
(0.0017765461 5.2035231e-18 0.26917027)
(0.0017866707 5.2824276e-18 0.29191482)
(0.0016665741 5.4318248e-18 0.30561118)
(0.0015061416 5.6829407e-18 0.31394945)
(0.0013455218 5.0567698e-18 0.31908301)
(0.0012018251 4.1495778e-18 0.3221764)
(0.0010779421 3.3141259e-18 0.32380978)
(0.00097206319 2.3306403e-18 0.32424537)
(0.00088095069 4.0081019e-18 0.32358672)
(0.00080165094 5.8267893e-18 0.32186635)
(0.00073176721 7.7619385e-18 0.31909053)
(0.00066946846 7.5660679e-18 0.31526065)
(0.00061334979 7.5137541e-18 0.31038298)
(0.00056231089 7.5959276e-18 0.30447291)
(0.00051550655 5.2740884e-18 0.29755672)
(0.00047222437 2.9599755e-18 0.2896722)
(0.0004319842 5.8985453e-19 0.28086849)
(0.00039426296 -1.8363094e-18 0.27120548)
(0.0003589825 -4.4694224e-18 0.26075269)
(0.00032609068 -3.7704711e-18 0.24958772)
(0.00029502082 -3.1524975e-18 0.23779352)
(0.00026559179 -2.5844546e-18 0.22545577)
(0.00023770273 -4.7516803e-18 0.21266039)
(0.00021130374 -7.2126213e-18 0.19949037)
(0.00018636828 -7.3307908e-18 0.1860225)
(0.00016290706 -7.6174429e-18 0.17232395)
(0.00014092897 -8.0163331e-18 0.15844913)
(0.00012046973 -8.6146198e-18 0.14443633)
(0.00010153837 -5.7730285e-18 0.13030474)
(8.4216679e-05 -6.13038e-18 0.11605272)
(6.8468436e-05 -6.5279521e-18 0.10165661)
(5.4420524e-05 -7.0189614e-18 0.087070475)
(4.1890899e-05 -5.5637626e-18 0.072227341)
(3.1117286e-05 -5.8223209e-18 0.057041348)
(2.1410676e-05 -4.7535643e-18 0.041412847)
(1.3233482e-05 -2.8258992e-18 0.025234331)
(3.6273824e-06 -8.9595948e-19 0.0084037177)
(-2.808934e-05 1.042111e-18 0.080354293)
(-0.00027314245 2.691132e-18 0.18189795)
(-0.00052035546 4.1312562e-18 0.24489748)
(-0.00076650439 4.0691652e-18 0.28109808)
(-0.00095848747 4.899605e-18 0.30077179)
(-0.0010809807 5.3203977e-18 0.31131983)
(-0.0011242066 5.5257895e-18 0.3172053)
(-0.0010993161 4.5257764e-18 0.32071898)
(-0.0010257797 3.9337126e-18 0.32286095)
(-0.00092422654 3.1897271e-18 0.32398509)
(-0.00081075714 2.2696503e-18 0.32417014)
(-0.00069607313 4.0708772e-18 0.32339995)
(-0.00058627913 5.7798679e-18 0.32163867)
(-0.0004844291 7.2752466e-18 0.31885683)
(-0.00039178571 7.4937134e-18 0.31503817)
(-0.00030868822 7.502251e-18 0.31018034)
(-0.00023504387 7.5142763e-18 0.30429433)
(-0.00017054407 5.253653e-18 0.29740393)
(-0.00011481644 2.9985743e-18 0.28954533)
(-6.7367377e-05 1.0263519e-18 0.28076658)
(-2.7760315e-05 -2.3303926e-18 0.27112643)
(4.7350789e-06 -4.57965e-18 0.26069086)
(3.0834463e-05 -3.7794789e-18 0.24954231)
(5.0847246e-05 -3.1541647e-18 0.23776462)
(6.5329516e-05 -2.5751676e-18 0.22544118)
(7.4888389e-05 -4.7724889e-18 0.21265763)
(8.0174379e-05 -7.2469669e-18 0.19949702)
(8.179451e-05 -7.3366454e-18 0.18603631)
(8.0497535e-05 -7.6213463e-18 0.17234287)
(7.7015382e-05 -8.0245937e-18 0.15847138)
(7.1716611e-05 -8.6802036e-18 0.14446036)
(6.4990277e-05 -5.7944404e-18 0.13032924)
(5.7425454e-05 -6.3510993e-18 0.11607667)
(4.9404287e-05 -6.5466883e-18 0.10167928)
(4.1400164e-05 -7.018265e-18 0.087091439)
(3.3549227e-05 -5.5822708e-18 0.072246477)
(2.6231862e-05 -5.9473597e-18 0.057059143)
(1.8877663e-05 -4.8110647e-18 0.041430482)
(1.1709222e-05 -2.7554608e-18 0.025254802)
(2.290801e-06 -9.1800532e-19 0.008426026)
(-2.1838469e-05 9.1759557e-19 0.085790189)
(-0.00032234897 2.2271754e-18 0.19488017)
(-0.00074114332 3.4301911e-18 0.26161235)
(-0.0011831279 4.0578894e-18 0.29761844)
(-0.0015583198 4.6375721e-18 0.31433967)
(-0.0018212899 5.1153093e-18 0.32087162)
(-0.0019537635 5.2171449e-18 0.32301744)
(-0.0019667303 4.4640936e-18 0.32370494)
(-0.0018882471 3.7006302e-18 0.32400656)
(-0.0017513267 3.2896397e-18 0.3240719)
(-0.0015845383 3.1233022e-18 0.32371795)
(-0.0014083848 4.3418552e-18 0.32271414)
(-0.0012354483 5.7491889e-18 0.32088205)
(-0.0010723949 6.918222e-18 0.31810961)
(-0.00092215088 7.3248342e-18 0.31433722)
(-0.00078559456 7.3665015e-18 0.30954134)
(-0.00066262218 7.066838e-18 0.30372288)
(-0.00055270496 5.1555085e-18 0.29690073)
(-0.00045517964 2.9493393e-18 0.28910849)
(-0.00036931295 7.5971098e-19 0.2803926)
(-0.00029435851 -2.7277526e-18 0.27081072)
(-0.00022964865 -4.1978895e-18 0.26042938)
(-0.00017446036 -3.7515322e-18 0.24932917)
(-0.00012798547 -3.1827989e-18 0.23759385)
(-8.943327e-05 -2.8745913e-18 0.22530748)
(-5.809552e-05 -4.7988406e-18 0.21255576)
(-3.3192911e-05 -7.0058542e-18 0.19942197)
(-1.4011901e-05 -7.3234037e-18 0.1859833)
(2.9773056e-07 -7.6230311e-18 0.17230624)
(1.0592226e-05 -8.0058494e-18 0.15844772)
(1.7356433e-05 -8.3244543e-18 0.14444808)
(2.1112987e-05 -5.7744037e-18 0.13032546)
(2.2562841e-05 -6.3311216e-18 0.11607882)
(2.2221219e-05 -6.5497677e-18 0.10168526)
(2.0650202e-05 -6.8743981e-18 0.08709966)
(1.8270117e-05 -5.6975865e-18 0.072255852)
(1.5483406e-05 -5.8100559e-18 0.05706936)
(1.1734222e-05 -4.7176547e-18 0.041442011)
(7.1463984e-06 -2.6764962e-18 0.025268655)
(7.6047685e-07 -8.754526e-19 0.0084362547)
(-1.8818181e-05 5.7159441e-19 0.091150582)
(-0.00030981358 1.4483641e-18 0.20785369)
(-0.00075478253 2.1772273e-18 0.27916975)
(-0.0012684749 4.2369309e-18 0.31633201)
(-0.0017519212 4.6944893e-18 0.3311923)
(-0.0021355357 4.8219029e-18 0.3340475)
(-0.0023775972 4.3021983e-18 0.33207786)
(-0.0024719424 4.7221569e-18 0.32918817)
(-0.0024399106 4.0435002e-18 0.32685898)
(-0.0023168224 3.8028243e-18 0.32522426)
(-0.0021388917 4.2852198e-18 0.32388786)
(-0.0019354975 4.6910902e-18 0.32237531)
(-0.0017267563 5.7878753e-18 0.32031309)
(-0.0015245691 6.7208991e-18 0.31746012)
(-0.0013349748 7.1916808e-18 0.31368212)
(-0.0011604483 7.0891726e-18 0.30891632)
(-0.0010015758 6.2728125e-18 0.30314436)
(-0.00085806044 4.9128462e-18 0.29637584)
(-0.00072925067 2.7719114e-18 0.28863964)
(-0.00061437255 6.6202384e-20 0.27997956)
(-0.00051257787 -2.3651497e-18 0.27045161)
(-0.00042312174 -3.914974e-18 0.26012195)
(-0.00034521788 -3.7043978e-18 0.24906941)
(-0.00027793434 -3.2588669e-18 0.23737722)
(-0.00022040687 -3.4265848e-18 0.22512968)
(-0.00017182535 -4.8357049e-18 0.21241229)
(-0.00013132362 -6.6063002e-18 0.19930836)
(-9.8054856e-05 -7.278853e-18 0.18589514)
(-7.1198424e-05 -7.6165543e-18 0.17223972)
(-4.9947204e-05 -7.9495372e-18 0.15839898)
(-3.3480426e-05 -7.7600713e-18 0.1444134)
(-2.1037481e-05 -5.9350516e-18 0.13030191)
(-1.1907862e-05 -6.0776884e-18 0.11606377)
(-5.4763123e-06 -6.5160566e-18 0.10167648)
(-1.1423335e-06 -6.6154493e-18 0.087095257)
(1.6193865e-06 -5.9088669e-18 0.07225383)
(3.2405475e-06 -5.587944e-18 0.057070243)
(3.3919694e-06 -4.5513593e-18 0.041446023)
(2.237507e-06 -2.7660058e-18 0.025275766)
(-2.7551415e-07 -8.3885422e-19 0.0084413879)
(-1.6284268e-05 7.0326912e-19 0.095910433)
(-0.0002836771 1.8996478e-18 0.21972409)
(-0.0007126033 2.7379606e-18 0.29585485)
(-0.0012353925 3.8211187e-18 0.33504013)
(-0.0017629796 4.5841285e-18 0.34911648)
(-0.0022198275 4.8106333e-18 0.34908232)
(-0.0025485807 4.5737728e-18 0.34324846)
(-0.0027246409 4.4848258e-18 0.33656591)
(-0.0027554633 3.9967965e-18 0.33114951)
(-0.0026703753 3.988792e-18 0.32732949)
(-0.0025068175 4.3808755e-18 0.32461671)
(-0.0022995584 4.9420681e-18 0.32232584)
(-0.002075145 5.85082e-18 0.31987099)
(-0.001850944 6.7946472e-18 0.31684883)
(-0.0016367753 7.0549894e-18 0.31302037)
(-0.0014373351 6.8746779e-18 0.30826311)
(-0.0012543254 6.0551208e-18 0.30252763)
(-0.001087919 4.6669359e-18 0.29580829)
(-0.00093760229 2.6208071e-18 0.28812654)
(-0.00080260853 1.4370816e-19 0.27952231)
(-0.00068205154 -1.6519223e-18 0.27004943)
(-0.00057511521 -3.6250871e-18 0.2597731)
(-0.00048095702 -3.635686e-18 0.24877046)
(-0.00039860623 -3.3243916e-18 0.237124)
(-0.00032715863 -3.5540898e-18 0.22491798)
(-0.00026574377 -4.8732265e-18 0.21223771)
(-0.00021346431 -6.4928079e-18 0.1991664)
(-0.00016941558 -7.2300096e-18 0.18578136)
(-0.0001327364 -7.6052198e-18 0.17215011)
(-0.00010260239 -7.8936246e-18 0.15832957)
(-7.8103536e-05 -7.6567352e-18 0.14436041)
(-5.8418711e-05 -6.3140075e-18 0.13026221)
(-4.2800977e-05 -6.1141998e-18 0.11603457)
(-3.0559705e-05 -6.4877966e-18 0.1016554)
(-2.102928e-05 -6.5594167e-18 0.087080327)
(-1.3754801e-05 -5.9187538e-18 0.072243786)
(-8.2521656e-06 -5.5115001e-18 0.05706397)
(-4.4455341e-06 -4.4568586e-18 0.041443218)
(-2.2088602e-06 -2.8291602e-18 0.025275562)
(-1.0152471e-06 -8.7096635e-19 0.0084409236)
(-1.5059136e-05 7.8798052e-19 0.10024758)
(-0.0002629395 2.1224828e-18 0.23067753)
(-0.00067050058 3.5055411e-18 0.31156669)
(-0.0011825753 3.2122008e-18 0.35321066)
(-0.0017227182 4.4135439e-18 0.36726203)
(-0.0022189109 4.7838831e-18 0.36508776)
(-0.0026077508 5.0531199e-18 0.3558468)
(-0.0028516834 4.0444908e-18 0.34545113)
(-0.0029442956 3.9035772e-18 0.33674061)
(-0.0029052095 3.9292314e-18 0.33039892)
(-0.0027683377 3.9231655e-18 0.32597516)
(-0.0025701027 4.8947226e-18 0.32264248)
(-0.0023414777 5.7885926e-18 0.31961787)
(-0.0021047363 6.7215179e-18 0.31632103)
(-0.0018737173 7.0188525e-18 0.31238496)
(-0.0016558204 6.7207637e-18 0.30760734)
(-0.0014542949 6.1666552e-18 0.30189429)
(-0.0012700723 4.5022928e-18 0.29521736)
(-0.0011029444 2.5720733e-18 0.28758683)
(-0.00095222754 6.6119593e-19 0.27903705)
(-0.00081703778 -1.6928041e-18 0.26961897)
(-0.00069650302 -3.3981959e-18 0.25939628)
(-0.00058972302 -3.5718676e-18 0.24844442)
(-0.00049569345 -3.3457831e-18 0.236845)
(-0.00041346241 -3.358353e-18 0.224682)
(-0.00034210095 -4.9012678e-18 0.21204051)
(-0.00028067158 -6.609286e-18 0.19900358)
(-0.00022822553 -7.2024319e-18 0.18564852)
(-0.00018385381 -7.592634e-18 0.17204319)
(-0.00014669078 -7.8645669e-18 0.15824455)
(-0.00011578223 -7.8875389e-18 0.14429341)
(-9.0265661e-05 -6.4502981e-18 0.13020993)
(-6.9350156e-05 -6.4058374e-18 0.1159941)
(-5.2301103e-05 -6.4905893e-18 0.10162421)
(-3.8405289e-05 -6.6458697e-18 0.087056327)
(-2.7171292e-05 -5.7846183e-18 0.072225508)
(-1.8109897e-05 -5.563985e-18 0.057050255)
(-1.096295e-05 -4.5043357e-18 0.041433528)
(-5.675975e-06 -2.7100753e-18 0.025268863)
(-1.4298887e-06 -8.9486133e-19 0.0084357876)
(-1.4128173e-05 1.1270345e-18 0.10422616)
(-0.00024518598 2.226893e-18 0.24082648)
(-0.00063151348 3.0733975e-18 0.32633249)
(-0.0011264234 3.6644818e-18 0.3706552)
(-0.0016642963 4.5442445e-18 0.38520122)
(-0.0021793966 5.8534448e-18 0.38150594)
(-0.0026078755 6.0210175e-18 0.36934647)
(-0.0029046765 4.6456013e-18 0.35546336)
(-0.0030522963 4.0220948e-18 0.34342513)
(-0.0030601975 4.0400147e-18 0.33436104)
(-0.0029561965 4.2559855e-18 0.32796815)
(-0.0027753748 4.9425784e-18 0.32335798)
(-0.0025508995 5.749001e-18 0.31958702)
(-0.0023088421 6.5836481e-18 0.31590108)
(-0.0020668323 6.8690557e-18 0.31179148)
(-0.0018351962 6.5385125e-18 0.306959)
(-0.0016190661 5.5722385e-18 0.30125166)
(-0.0014204078 4.0397317e-18 0.29460953)
(-0.0012394986 2.4442155e-18 0.28702694)
(-0.0010758373 5.4788459e-19 0.27853043)
(-0.00092859011 -1.5809749e-18 0.26916699)
(-0.00079685734 -2.814825e-18 0.25899828)
(-0.00067969522 -3.4598442e-18 0.24809796)
(-0.00057607352 -3.3738139e-18 0.23654659)
(-0.00048499662 -3.540468e-18 0.22442778)
(-0.00040548706 -4.9680105e-18 0.21182629)
(-0.00033656825 -6.7910535e-18 0.19882498)
(-0.00027725214 -7.2145118e-18 0.18550117)
(-0.00022658602 -7.7220661e-18 0.17192297)
(-0.00018365938 -7.8480864e-18 0.15814736)
(-0.00014748394 -7.7846779e-18 0.14421534)
(-0.00011715793 -6.804798e-18 0.13014759)
(-9.1846292e-05 -6.6496923e-18 0.11594448)
(-7.0775959e-05 -6.5024567e-18 0.10158469)
(-5.320268e-05 -6.543587e-18 0.087024748)
(-3.8581587e-05 -5.6737001e-18 0.07220029)
(-2.6423483e-05 -5.4585026e-18 0.057030128)
(-1.6353206e-05 -4.3989574e-18 0.041417745)
(-8.3418434e-06 -2.7645223e-18 0.025256401)
(-1.6269036e-06 -9.1683228e-19 0.0084270925)
(-1.3394905e-05 5.8110659e-19 0.10790685)
(-0.00023002475 1.4155175e-18 0.25028535)
(-0.00059669899 1.9508367e-18 0.34023813)
(-0.0010728152 4.078108e-18 0.38734227)
(-0.0016014601 4.6034171e-18 0.40273986)
(-0.00212343 4.9547289e-18 0.39801417)
(-0.0025771151 4.7289308e-18 0.38338839)
(-0.0029138165 5.2766326e-18 0.36629958)
(-0.0031080484 4.4857035e-18 0.35100536)
(-0.0031602389 4.369739e-18 0.33912269)
(-0.0030912477 5.2867851e-18 0.330576)
(-0.0029328725 5.3467309e-18 0.32448931)
(-0.002718517 5.8343988e-18 0.31980507)
(-0.0024767375 6.4447819e-18 0.31561175)
(-0.0022283977 6.696722e-18 0.31125525)
(-0.0019867244 6.2830663e-18 0.30632725)
(-0.0017589425 5.1077553e-18 0.30060517)
(-0.0015482929 3.9627156e-18 0.29398839)
(-0.0013557201 2.2560805e-18 0.2864498)
(-0.0011810167 4.7172353e-20 0.2780052)
(-0.0010234559 -1.0610323e-18 0.26869628)
(-0.00088214311 -2.2801299e-18 0.25858196)
(-0.00075610785 -3.3178205e-18 0.24773394)
(-0.00064429904 -3.4292035e-18 0.23623163)
(-0.00054568457 -4.0045881e-18 0.22415809)
(-0.00045924504 -5.0314947e-18 0.21159773)
(-0.00038396583 -6.4218603e-18 0.19863319)
(-0.00031882469 -7.1974198e-18 0.18534173)
(-0.00026282801 -7.7232375e-18 0.17179168)
(-0.00021502162 -7.807312e-18 0.15804008)
(-0.00017438772 -7.4938723e-18 0.14412807)
(-0.00013998745 -7.0568052e-18 0.13007686)
(-0.00011094557 -6.4697568e-18 0.11588719)
(-8.6451486e-05 -6.4818867e-18 0.10153813)
(-6.5737715e-05 -6.3482724e-18 0.086986689)
(-4.8207313e-05 -5.8046304e-18 0.072169061)
(-3.3364588e-05 -5.1066676e-18 0.057004387)
(-2.0758462e-05 -4.0497737e-18 0.041396636)
(-1.0351773e-05 -2.7529908e-18 0.02523912)
(-1.6926845e-06 -8.5328936e-19 0.0084159676)
(-1.2770465e-05 -2.4041467e-19 0.11133553)
(-0.00021688799 -2.5189473e-20 0.25914819)
(-0.00056569421 1.2801059e-18 0.35337291)
(-0.0010231792 1.8398693e-18 0.40329538)
(-0.0015394026 3.3431515e-18 0.41979323)
(-0.0020611445 3.3695434e-18 0.41442336)
(-0.0025301363 3.5084179e-18 0.39772852)
(-0.0028964599 3.700397e-18 0.37772609)
(-0.0031292305 4.2303204e-18 0.35930627)
(-0.0032214536 4.4103714e-18 0.34458369)
(-0.0031871908 4.9055152e-18 0.33376193)
(-0.0030539435 5.3437337e-18 0.32603896)
(-0.0028538788 5.7137434e-18 0.3202908)
(-0.002616769 5.7648155e-18 0.31547334)
(-0.0023659728 6.3923326e-18 0.31079185)
(-0.0021173846 6.0758299e-18 0.30572218)
(-0.0018803956 5.1721343e-18 0.2999609)
(-0.0016597028 4.1347622e-18 0.29335776)
(-0.0014570868 2.2380697e-18 0.28585812)
(-0.0012727514 5.3897776e-19 0.27746361)
(-0.0011061427 -1.5368681e-18 0.2682089)
(-0.00095640941 -2.7130005e-18 0.25814932)
(-0.0008225735 -3.2586337e-18 0.24735433)
(-0.00070357119 -3.4711058e-18 0.23590201)
(-0.00059834014 -4.0511794e-18 0.22387478)
(-0.00050582692 -5.0585988e-18 0.21135659)
(-0.0004249824 -6.1085645e-18 0.19842985)
(-0.00035475239 -7.1282715e-18 0.18517175)
(-0.00029410783 -7.5410243e-18 0.17165079)
(-0.00024205297 -7.7484809e-18 0.15792405)
(-0.00019754336 -7.4496172e-18 0.14403286)
(-0.0001596051 -6.80202e-18 0.12999888)
(-0.00012732601 -6.4722906e-18 0.11582326)
(-9.9860172e-05 -6.4606684e-18 0.10148547)
(-7.6418255e-05 -6.3159843e-18 0.086942996)
(-5.6357025e-05 -5.9417275e-18 0.072132576)
(-3.9166621e-05 -5.2206979e-18 0.056973714)
(-2.4353145e-05 -4.1477272e-18 0.041370849)
(-1.1858419e-05 -2.5087975e-18 0.025217772)
(-1.684463e-06 -8.1406459e-19 0.008403055)
(-1.2219015e-05 1.4199898e-18 0.11454855)
(-0.00020538505 2.9913048e-18 0.26749261)
(-0.00053802211 3.6885208e-18 0.36581923)
(-0.00097772692 3.2925512e-18 0.41855838)
(-0.0014802061 3.9323801e-18 0.43633164)
(-0.0019975024 5.2636093e-18 0.43062298)
(-0.0024750204 6.0423082e-18 0.41220114)
(-0.0028630668 4.6925088e-18 0.38956596)
(-0.0031272869 4.2110507e-18 0.36817995)
(-0.0032548423 4.2398758e-18 0.35064667)
(-0.0032536468 3.9425959e-18 0.33747954)
(-0.0031465576 5.0829407e-18 0.32799782)
(-0.0029635291 5.8061491e-18 0.32105483)
(-0.0027344726 6.4201071e-18 0.31550226)
(-0.0024844537 6.3102556e-18 0.31041585)
(-0.0022316576 5.9254602e-18 0.3051541)
(-0.0019875888 5.3520695e-18 0.29932533)
(-0.0017585096 3.858952e-18 0.29272157)
(-0.0015471808 2.1264573e-18 0.28525446)
(-0.0013543327 4.3622931e-19 0.27690759)
(-0.0011796569 -1.4054262e-18 0.26770649)
(-0.0010223872 -2.6335565e-18 0.25770186)
(-0.00088156025 -3.2273394e-18 0.24696054)
(-0.00075610802 -3.4767983e-18 0.23555909)
(-0.00064494648 -3.7875695e-18 0.22357911)
(-0.00054699359 -5.094998e-18 0.21110408)
(-0.00046116935 -6.6006902e-18 0.19821611)
(-0.00038639214 -7.120007e-18 0.18499232)
(-0.00032160048 -7.6738309e-18 0.1715013)
(-0.0002657608 -7.7242128e-18 0.15780021)
(-0.00021780496 -7.64088e-18 0.14393057)
(-0.00017672541 -6.8434825e-18 0.12991446)
(-0.00014157708 -6.6728029e-18 0.11575345)
(-0.00011148129 -6.4678842e-18 0.10142741)
(-8.5626188e-05 -6.3967858e-18 0.086894315)
(-6.3330161e-05 -5.6551847e-18 0.072091439)
(-4.4062349e-05 -5.287752e-18 0.056938672)
(-2.7307543e-05 -4.2146309e-18 0.041340957)
(-1.2993025e-05 -2.5920861e-18 0.025193017)
(-1.6405027e-06 -8.4988902e-19 0.0083888568)
(-1.1721831e-05 6.3284468e-19 0.11757504)
(-0.00019522342 1.5570037e-18 0.27538279)
(-0.00051322651 1.9657741e-18 0.37765006)
(-0.00093624713 4.2254417e-18 0.43318114)
(-0.0014246275 4.3163446e-18 0.45235376)
(-0.0019349787 4.7655656e-18 0.44654956)
(-0.0024163524 4.7706157e-18 0.42669329)
(-0.0028201113 5.5143225e-18 0.401686)
(-0.0031098113 4.690349e-18 0.37750448)
(-0.0032681245 4.4756849e-18 0.35722238)
(-0.0032976358 5.0784333e-18 0.34167864)
(-0.0032166244 5.3542074e-18 0.33034866)
(-0.0030522718 5.8188841e-18 0.32210062)
(-0.0028337953 6.2672782e-18 0.31571071)
(-0.0025872243 6.2298356e-18 0.31014017)
(-0.0023325818 5.7439089e-18 0.30463309)
(-0.0020833288 4.7416972e-18 0.29870516)
(-0.0018473291 3.5779122e-18 0.29208398)
(-0.0016284336 1.9424698e-18 0.28464145)
(-0.0014280067 -4.8602182e-20 0.27633894)
(-0.0012460595 -9.2578257e-19 0.26719044)
(-0.0010819569 -2.1078551e-18 0.25724081)
(-0.00093477611 -3.1251311e-18 0.2465537)
(-0.00080345551 -3.5245802e-18 0.2352039)
(-0.00068689575 -4.2236731e-18 0.22327205)
(-0.0005839921 -5.1281547e-18 0.2108411)
(-0.00049363873 -6.2151425e-18 0.19799281)
(-0.00041472852 -7.0803943e-18 0.18480421)
(-0.00034617145 -7.5865396e-18 0.17134394)
(-0.00028690065 -7.6738442e-18 0.15766925)
(-0.00023582413 -7.3134348e-18 0.14382184)
(-0.00019190513 -7.0717764e-18 0.12982421)
(-0.00015416843 -6.4856355e-18 0.11567831)
(-0.0001217045 -6.4434482e-18 0.10136448)
(-9.3679659e-05 -6.1908024e-18 0.086841141)
(-6.9379938e-05 -5.7679739e-18 0.07204612)
(-4.824819e-05 -4.9419144e-18 0.056899713)
(-2.9765863e-05 -3.8767387e-18 0.041307434)
(-1.3862284e-05 -2.6150435e-18 0.025165395)
(-1.583632e-06 -7.9953266e-19 0.0083737173)
(-1.1268601e-05 2.0021428e-19 0.1204387)
(-0.00018617843 1.3343573e-18 0.28287218)
(-0.00049090991 2.3296475e-18 0.388929)
(-0.00089839558 3.3168107e-18 0.44721341)
(-0.0013728329 3.6473422e-18 0.46787286)
(-0.0018747902 3.4651241e-18 0.46216841)
(-0.0023567802 3.8261945e-18 0.44112778)
(-0.0027716824 4.551577e-18 0.41398601)
(-0.0030819321 4.524709e-18 0.3871806)
(-0.0032668092 4.5708644e-18 0.3642316)
(-0.0033243902 4.9388382e-18 0.34630905)
(-0.003268667 5.4293362e-18 0.33306911)
(-0.0031237958 5.8721886e-18 0.32342579)
(-0.002917708 6.1949132e-18 0.31610672)
(-0.002676752 6.0796709e-18 0.30997569)
(-0.0024223134 5.6253603e-18 0.30416864)
(-0.0021695815 4.6133657e-18 0.2981072)
(-0.0019279901 3.4842697e-18 0.29144936)
(-0.0017025505 1.8359657e-18 0.28402179)
(-0.0014953541 3.2408608e-20 0.27575945)
(-0.0013068056 -1.0404542e-18 0.2666621)
(-0.0011364513 -2.51062e-18 0.25676727)
(-0.00098343474 -3.1120873e-18 0.24613477)
(-0.0008467139 -3.5676612e-18 0.2348373)
(-0.00072518284 -4.2526921e-18 0.22295441)
(-0.00061771867 -5.1486153e-18 0.21056838)
(-0.00052319359 -5.9767084e-18 0.19776063)
(-0.00044047774 -7.0097362e-18 0.18460803)
(-0.00036845536 -7.3360075e-18 0.17117929)
(-0.00030603003 -7.6180045e-18 0.1575317)
(-0.00025208831 -7.300253e-18 0.14370716)
(-0.00020556591 -6.7983956e-18 0.12972857)
(-0.00016545963 -6.2984552e-18 0.11559829)
(-0.00013083225 -6.4086354e-18 0.10129708)
(-0.00010082836 -6.1683969e-18 0.086783862)
(-7.4706693e-05 -5.877733e-18 0.071996989)
(-5.1881623e-05 -4.9240357e-18 0.0568572)
(-3.1843488e-05 -3.8261483e-18 0.041270672)
(-1.4542521e-05 -2.4392065e-18 0.025135339)
(-1.5240731e-06 -7.4742576e-19 0.0083578702)
(-1.0852474e-05 7.0269544e-19 0.12315899)
(-0.00017807376 1.8969993e-18 0.29000555)
(-0.00047073426 3.3450004e-18 0.39971125)
(-0.00086380262 2.4105335e-18 0.46070224)
(-0.0013247209 3.421988e-18 0.48290955)
(-0.0018174913 3.9797826e-18 0.47746275)
(-0.0022978412 4.7254988e-18 0.45545198)
(-0.0027204015 4.0238461e-18 0.4263904)
(-0.0030471626 4.3395286e-18 0.39712794)
(-0.0032548784 4.3713545e-18 0.37160541)
(-0.0033378639 4.1994657e-18 0.35132289)
(-0.0033062158 5.18183e-18 0.33613403)
(-0.0031810229 5.8004896e-18 0.32502353)
(-0.0029885435 6.0805374e-18 0.31669458)
(-0.0027549208 6.0211208e-18 0.30993104)
(-0.0025024486 5.5467565e-18 0.30376936)
(-0.0022477725 5.042089e-18 0.29753807)
(-0.0020018092 3.4782864e-18 0.29082216)
(-0.0017707599 1.8062408e-18 0.28339832)
(-0.0015575173 4.4461208e-19 0.27517094)
(-0.0013629507 -1.5818001e-18 0.26612271)
(-0.0011868369 -2.8694324e-18 0.25628221)
(-0.0010284172 -3.1558776e-18 0.24570457)
(-0.00088668384 -3.5708942e-18 0.23446004)
(-0.00076053211 -3.9614942e-18 0.22262683)
(-0.00064882629 -5.1571246e-18 0.21028652)
(-0.00055042046 -6.2892126e-18 0.19752012)
(-0.00046416449 -6.9900603e-18 0.1844043)
(-0.00038891969 -7.3578272e-18 0.1710078)
(-0.00032356285 -7.5912976e-18 0.15738798)
(-0.00026696026 -7.5362948e-18 0.14358692)
(-0.00021802245 -6.6026187e-18 0.12962791)
(-0.00017572124 -6.5456138e-18 0.11551371)
(-0.00013909383 -6.4097399e-18 0.10122553)
(-0.00010726237 -6.308424e-18 0.086722783)
(-7.9463503e-05 -5.7123869e-18 0.071944342)
(-5.5082987e-05 -5.1295784e-18 0.05681143)
(-3.3627426e-05 -4.0169906e-18 0.041230995)
(-1.5089172e-05 -2.3416108e-18 0.025103194)
(-1.468821e-06 -7.7964925e-19 0.008341473)
(-1.0469011e-05 7.2297909e-19 0.12575206)
(-0.00017076891 1.8542897e-18 0.29682066)
(-0.00045241471 2.6133607e-18 0.41004467)
(-0.00083211478 2.8251662e-18 0.47369093)
(-0.0012800716 3.4348571e-18 0.4974877)
(-0.0017632788 4.1573193e-18 0.49242702)
(-0.0022404151 4.6327626e-18 0.46963021)
(-0.0026679635 4.3251003e-18 0.43884201)
(-0.0030079366 4.1960817e-18 0.40728155)
(-0.0032352387 4.3202909e-18 0.37928451)
(-0.0033410727 4.4061466e-18 0.35667578)
(-0.0033320611 5.0662307e-18 0.33951726)
(-0.0032263131 5.7261471e-18 0.32688384)
(-0.0030481904 6.0304284e-18 0.31747536)
(-0.002823227 5.8750251e-18 0.31001268)
(-0.0025742156 5.4756496e-18 0.30344275)
(-0.00231897 4.9604682e-18 0.29700407)
(-0.0020697593 3.3505484e-18 0.29020685)
(-0.0018339673 1.7157556e-18 0.28277394)
(-0.0016153406 2.7626713e-19 0.27457525)
(-0.0014152763 -1.4954008e-18 0.26557352)
(-0.0012338322 -2.7484324e-18 0.25578657)
(-0.0010703791 -3.1781177e-18 0.24526388)
(-0.00092395998 -3.5911136e-18 0.23407276)
(-0.00079348141 -4.0608405e-18 0.22228992)
(-0.00067780021 -5.1699023e-18 0.20999606)
(-0.00057575537 -6.24839e-18 0.19727173)
(-0.0004861793 -6.967262e-18 0.18419343)
(-0.00040791203 -7.3609426e-18 0.17082986)
(-0.00033980661 -7.5636369e-18 0.15723844)
(-0.0002807107 -7.4514871e-18 0.14346145)
(-0.00022951156 -6.6587042e-18 0.12952253)
(-0.00018515736 -6.5480017e-18 0.11542486)
(-0.00014666196 -6.4103255e-18 0.10115011)
(-0.00011312614 -6.2795649e-18 0.086658153)
(-8.3766795e-05 -5.6961688e-18 0.071888421)
(-5.794278e-05 -5.083931e-18 0.056762645)
(-3.5183588e-05 -3.9636044e-18 0.041188674)
(-1.5541371e-05 -2.3474605e-18 0.025069231)
(-1.4198053e-06 -7.5444551e-19 0.0083246313)
(-1.0114401e-05 4.6613994e-19 0.12823148)
(-0.00016414914 1.1349355e-18 0.30334961)
(-0.00043571069 1.3970543e-18 0.41997079)
(-0.00080301075 3.6106638e-18 0.48621886)
(-0.0012386217 3.7446462e-18 0.51163222)
(-0.001712156 4.0784076e-18 0.50706275)
(-0.0021849875 3.9592459e-18 0.48363874)
(-0.0026154683 4.7897025e-18 0.45129748)
(-0.0029659567 4.3790536e-18 0.41758887)
(-0.0032100318 4.5307152e-18 0.38721824)
(-0.0033363351 5.2905467e-18 0.36232733)
(-0.0033484268 5.3162609e-18 0.34319273)
(-0.0032615986 5.6634159e-18 0.32899468)
(-0.0030982108 5.8737422e-18 0.31844753)
(-0.0028828954 5.7794066e-18 0.31022501)
(-0.0026385923 5.256431e-18 0.30319517)
(-0.0023839988 4.1161049e-18 0.29651107)
(-0.0021325779 3.108405e-18 0.28960785)
(-0.001892855 1.5260706e-18 0.28215158)
(-0.001669461 -3.3146195e-19 0.27397427)
(-0.0014643738 -1.5155655e-18 0.26501578)
(-0.0012779814 -2.6537779e-18 0.25528122)
(-0.001109817 -3.2064168e-18 0.24481338)
(-0.00095899327 -3.6613094e-18 0.23367606)
(-0.00082443839 -4.4075724e-18 0.22194416)
(-0.00070500743 -5.197687e-18 0.20969743)
(-0.00059952759 -6.0238429e-18 0.19701589)
(-0.00050681598 -6.915881e-18 0.18397579)
(-0.00042569428 -7.3483679e-18 0.17064579)
(-0.00035499367 -7.5132691e-18 0.15708338)
(-0.00029354368 -7.1346432e-18 0.14333101)
(-0.00024021101 -6.6723573e-18 0.12941267)
(-0.00019392128 -6.3715451e-18 0.11533198)
(-0.00015366733 -6.3813355e-18 0.10107101)
(-0.0001185286 -6.0943089e-18 0.086590176)
(-8.770408e-05 -5.7834926e-18 0.071829423)
(-6.0529676e-05 -4.9457193e-18 0.056711048)
(-3.6561448e-05 -3.8035375e-18 0.041143932)
(-1.5926939e-05 -2.397022e-18 0.025033667)
(-1.3786325e-06 -7.1795638e-19 0.0083074192)
(-9.7857899e-06 -8.2629615e-20 0.1306087)
(-0.00015812139 -3.0897689e-19 0.30961986)
(-0.00042041935 8.104973e-19 0.4295258)
(-0.0007762041 1.2081981e-18 0.49832155)
(-0.0012000999 3.1107058e-18 0.52536778)
(-0.0016640228 3.9213622e-18 0.5213759)
(-0.002131802 4.0354533e-18 0.49746225)
(-0.0025636262 3.6806787e-18 0.46372391)
(-0.0029224212 4.1458708e-18 0.42800733)
(-0.0031808473 4.4725285e-18 0.39536341)
(-0.0033254467 4.9484557e-18 0.36824122)
(-0.0033570973 5.2665038e-18 0.3471353)
(-0.0032884738 5.4940748e-18 0.33134274)
(-0.003139917 5.2168916e-18 0.31960751)
(-0.0029349538 5.5266397e-18 0.31057058)
(-0.0026963826 5.11453e-18 0.3030318)
(-0.002443516 3.9651749e-18 0.29606437)
(-0.0021908378 2.9215402e-18 0.28902938)
(-0.0019479468 1.4494559e-18 0.28153421)
(-0.0017203665 9.7410068e-20 0.27336992)
(-0.0015106984 -1.9515767e-18 0.26445073)
(-0.0013197045 -2.6643285e-18 0.25476704)
(-0.0011471146 -3.2250398e-18 0.24435372)
(-0.00099213207 -3.7191828e-18 0.23327046)
(-0.00085371735 -4.4604554e-18 0.22159002)
(-0.00073073044 -5.2345632e-18 0.20939104)
(-0.0006219903 -6.0111264e-18 0.19675294)
(-0.00052630111 -6.8674882e-18 0.18375169)
(-0.00044246749 -7.3242395e-18 0.17045588)
(-0.00036930131 -7.4690296e-18 0.15692305)
(-0.00030561512 -7.124346e-18 0.14319583)
(-0.00025025665 -6.6975248e-18 0.12929855)
(-0.00020212994 -6.6011347e-18 0.11523524)
(-0.0001602084 -6.3721763e-18 0.10098843)
(-0.00012355178 -6.0967187e-18 0.086519022)
(-9.1341613e-05 -5.7477232e-18 0.071767514)
(-6.2894952e-05 -5.034184e-18 0.056656808)
(-3.7798322e-05 -3.8664305e-18 0.041096958)
(-1.6262648e-05 -2.2752701e-18 0.024996677)
(-1.341854e-06 -7.5253696e-19 0.008289887)
(-9.4807172e-06 9.5748874e-19 0.13289349)
(-0.00015260845 2.5880759e-18 0.31565504)
(-0.00040636883 3.3237835e-18 0.43874134)
(-0.0007514426 2.7052451e-18 0.51003096)
(-0.0011642448 3.3172466e-18 0.53871815)
(-0.0016187268 4.1705185e-18 0.53537508)
(-0.0020809526 4.890018e-18 0.51109143)
(-0.0025128886 4.125594e-18 0.47609631)
(-0.0028781757 4.0558961e-18 0.43850234)
(-0.0031488717 4.257709e-18 0.40368328)
(-0.0033098035 4.0787027e-18 0.37438508)
(-0.0033595105 4.9939574e-18 0.35132114)
(-0.0033082635 5.5154807e-18 0.33391413)
(-0.0031744219 5.8722005e-18 0.3209502)
(-0.0029802797 5.482928e-18 0.31105037)
(-0.0027482629 5.0721824e-18 0.30295666)
(-0.0024980593 4.4170972e-18 0.29566867)
(-0.002244994 2.8636083e-18 0.28847547)
(-0.0019996523 1.3545964e-18 0.28092476)
(-0.0017684381 1.5665354e-20 0.27276414)
(-0.001554605 -1.2962747e-18 0.26387961)
(-0.0013593305 -2.5867102e-18 0.25424485)
(-0.0011825737 -3.2305446e-18 0.24388552)
(-0.0010236501 -3.7441165e-18 0.23285645)
(-0.00088156543 -4.2442408e-18 0.22122791)
(-0.0007551907 -5.2497939e-18 0.20907724)
(-0.00064334163 -6.2103506e-18 0.19648319)
(-0.00054481078 -6.8531384e-18 0.1835214)
(-0.00045838793 -7.2998475e-18 0.17026037)
(-0.00038286757 -7.4496899e-18 0.15675768)
(-0.00031704611 -7.3763726e-18 0.14305611)
(-0.00025975333 -6.7354641e-18 0.12918035)
(-0.00020987351 -6.5297227e-18 0.11513482)
(-0.00016636207 -6.3689918e-18 0.10090251)
(-0.00012825857 -6.2303233e-18 0.086444836)
(-9.4730325e-05 -5.6000027e-18 0.071702834)
(-6.5077896e-05 -4.9614626e-18 0.056600073)
(-3.8921073e-05 -3.8222948e-18 0.041047914)
(-1.6562451e-05 -2.2802203e-18 0.0249584)
(-1.3110982e-06 -7.3274751e-19 0.008272071)
(-9.1965962e-06 5.5446967e-19 0.13509424)
(-0.00014754492 1.3848834e-18 0.32147563)
(-0.0003934131 1.7374519e-18 0.44764516)
(-0.00072850569 3.9483469e-18 0.52137579)
(-0.0011308119 3.7680082e-18 0.55170585)
(-0.0015760911 4.0851311e-18 0.54907048)
(-0.0020324428 4.0561764e-18 0.52452127)
(-0.0024635343 4.7826435e-18 0.48839579)
(-0.0028338181 4.3108125e-18 0.44904578)
(-0.003114996 4.4563037e-18 0.41214657)
(-0.0032904989 5.1143419e-18 0.38073016)
(-0.0033568309 5.1975873e-18 0.35572801)
(-0.0033220729 5.5012145e-18 0.33669486)
(-0.0032026764 5.723526e-18 0.32246937)
(-0.0030196312 5.5428009e-18 0.31166401)
(-0.0027948153 4.9186557e-18 0.30297271)