/*--------------------------------*- C++ -*----------------------------------*\
| =========                 |                                                 |
| \\      /  F ield         | OpenFOAM: The Open Source CFD Toolbox           |
|  \\    /   O peration     | Version:  3.0.1                                 |
|   \\  /    A nd           | Web:      www.OpenFOAM.org                      |
|    \\/     M anipulation  |                                                 |
\*---------------------------------------------------------------------------*/
FoamFile
{
    version     2.0;
    format      ascii;
    class       volVectorField;
    location    "3500/fluid";
    object      U;
}
// * * * * * * * * * * * * * * * * * * * * * * * * * * * * * * * * * * * * * //

dimensions      [0 1 -1 0 0 0 0];

internalField   nonuniform List<vector> 
5000
(
(8.7074411e-06 3.8014971e-07 0.017780325)
(3.3947875e-05 1.4821367e-06 0.051624672)
(7.1265648e-05 3.1114791e-06 0.085046319)
(0.00012188156 5.3214147e-06 0.11753493)
(0.00018165737 7.9312397e-06 0.14856655)
(0.00024830385 1.0841045e-05 0.17763418)
(0.00031774392 1.3872837e-05 0.20428167)
(0.00038633243 1.6867449e-05 0.22813785)
(0.00045021579 1.965664e-05 0.24894616)
(0.00050619899 2.210091e-05 0.26658533)
(0.00055175056 2.4089727e-05 0.28107758)
(0.00058534075 2.5556294e-05 0.29258233)
(0.00060640969 2.6476185e-05 0.30137604)
(0.00061535268 2.6866643e-05 0.30782097)
(0.00061332364 2.6778064e-05 0.31232747)
(0.00060202586 2.6284804e-05 0.31531539)
(0.00058345133 2.5473841e-05 0.31717976)
(0.00055965326 2.4434815e-05 0.31826486)
(0.00053254846 2.3251414e-05 0.31884891)
(0.00050378456 2.1995575e-05 0.31913959)
(0.0004746651 2.0724209e-05 0.31927885)
(0.00044613492 1.9478572e-05 0.31935405)
(0.00041880794 1.8285457e-05 0.31941204)
(0.00039302365 1.7159692e-05 0.31947314)
(0.00036891109 1.6106939e-05 0.31954271)
(0.00034644805 1.5126175e-05 0.31961931)
(0.00032550651 1.4211842e-05 0.31969953)
(0.00030588477 1.335515e-05 0.31978022)
(0.00028732901 1.2544985e-05 0.31985917)
(0.00026955037 1.1768763e-05 0.31993501)
(0.00025224326 1.1013117e-05 0.32000687)
(0.00023510711 1.0264943e-05 0.32007422)
(0.00021787214 9.5124537e-06 0.32013664)
(0.00020032737 8.7464366e-06 0.32019382)
(0.00018234754 7.9614251e-06 0.3202455)
(0.00016391343 7.1565768e-06 0.32029155)
(0.00014511837 6.3359751e-06 0.32033197)
(0.00012617336 5.5088212e-06 0.3203666)
(0.0001074124 4.6897064e-06 0.32039573)
(8.9212382e-05 3.8950786e-06 0.3204195)
(7.2008965e-05 3.1439644e-06 0.32043828)
(5.6211689e-05 2.4542454e-06 0.32045246)
(4.2190385e-05 1.8420642e-06 0.32046255)
(3.0224688e-05 1.319632e-06 0.32046907)
(2.049739e-05 8.9493122e-07 0.32047261)
(1.3102753e-05 5.7207528e-07 0.3204737)
(7.5744495e-06 3.307058e-07 0.32047465)
(3.6860895e-06 1.6093691e-07 0.32047369)
(1.2950885e-06 5.654418e-08 0.32047248)
(1.9025035e-07 8.3064259e-09 0.32047054)
(4.9753739e-05 2.1722006e-06 0.011510561)
(0.00018981385 8.287159e-06 0.034329385)
(0.00041980013 1.8328392e-05 0.057989112)
(0.0007574522 3.3070323e-05 0.082334168)
(0.0011766854 5.1374039e-05 0.10714475)
(0.0016721445 7.300583e-05 0.1321311)
(0.0022192326 9.68918e-05 0.15693529)
(0.0027943624 0.00012200204 0.18114278)
(0.0033668696 0.00014699785 0.20430456)
(0.0039064349 0.00017055542 0.22596886)
(0.0043830319 0.00019136379 0.24571889)
(0.0047712968 0.00020831554 0.26321133)
(0.0050521993 0.0002205799 0.27820981)
(0.0052153927 0.00022770498 0.29060807)
(0.005259767 0.00022964243 0.30043933)
(0.0051932784 0.00022673955 0.30787011)
(0.0050313217 0.00021966851 0.31317913)
(0.0047943204 0.000209321 0.3167237)
(0.0045046972 0.000196676 0.31889797)
(0.0041839628 0.00018267267 0.32008943)
(0.003850378 0.0001681083 0.32064085)
(0.0035176527 0.00015358151 0.32082439)
(0.0031947377 0.00013948298 0.32083167)
(0.0028865272 0.00012602644 0.32077935)
(0.002595039 0.00011330018 0.32072553)
(0.002320644 0.00010131999 0.32069019)
(0.0020630217 9.007213e-05 0.3206736)
(0.0018217402 7.9537785e-05 0.32066907)
(0.0015965052 6.9703964e-05 0.32066979)
(0.0013872014 6.0565752e-05 0.32067121)
(0.0011938446 5.2123729e-05 0.32067099)
(0.0010165119 4.4381341e-05 0.32066825)
(0.00085528013 3.7341907e-05 0.32066288)
(0.00071017184 3.1006427e-05 0.32065506)
(0.00058111375 2.5371696e-05 0.32064506)
(0.00046784852 2.042648e-05 0.32063314)
(0.00036979127 1.6145266e-05 0.32062246)
(0.00028560529 1.2469661e-05 0.32061043)
(0.00021515105 9.3935972e-06 0.32059746)
(0.00015694145 6.8521312e-06 0.32058379)
(0.00011006856 4.8056363e-06 0.32056981)
(7.3133744e-05 3.193046e-06 0.32055563)
(4.4877006e-05 1.9593417e-06 0.32054177)
(2.4031537e-05 1.0492167e-06 0.32052801)
(9.2292144e-06 4.0294094e-07 0.32051543)
(3.0018088e-06 1.3105091e-07 0.32050282)
(-1.0305836e-06 -4.5003514e-08 0.32049245)
(-4.665018e-06 -2.0368346e-07 0.32048274)
(-5.4296143e-06 -2.3706436e-07 0.32047643)
(-2.8271177e-06 -1.2343503e-07 0.3204703)
(8.1253165e-06 3.547281e-07 0.011606084)
(4.7034524e-06 2.052477e-07 0.03442021)
(4.1500132e-05 1.8117526e-06 0.057861695)
(7.1017031e-05 3.1003772e-06 0.081770756)
(0.00012846874 5.6085727e-06 0.10595432)
(0.0002013764 8.7915555e-06 0.13018394)
(0.00029875905 1.3043092e-05 0.15419541)
(0.00041621053 1.8170808e-05 0.17768982)
(0.00055262375 2.4126397e-05 0.20033808)
(0.00070058265 3.0586043e-05 0.22179008)
(0.00085159985 3.717921e-05 0.2416905)
(0.00099411652 4.3401257e-05 0.25970168)
(0.0011164918 4.8743977e-05 0.2755328)
(0.0012078024 5.2730424e-05 0.28897201)
(0.0012601192 5.5014428e-05 0.29991611)
(0.0012694998 5.5423866e-05 0.30839123)
(0.0012368149 5.3996753e-05 0.31455824)
(0.0011673763 5.0964997e-05 0.31869937)
(0.0010699536 4.671149e-05 0.3211859)
(0.0009550745 4.1695873e-05 0.322432)
(0.00083321566 3.6375571e-05 0.32284317)
(0.00071318317 3.1135063e-05 0.3227704)
(0.00060114461 2.6243605e-05 0.32247994)
(0.00050041611 2.1845972e-05 0.32214387)
(0.00041194382 1.7983485e-05 0.32185053)
(0.0003351493 1.4630823e-05 0.32162769)
(0.00026879126 1.1733804e-05 0.3214689)
(0.00021157166 9.2357773e-06 0.32135508)
(0.00016241574 7.0897809e-06 0.32126768)
(0.00012049505 5.2596857e-06 0.32119384)
(8.5122003e-05 3.7154349e-06 0.32112658)
(5.5645458e-05 2.4286291e-06 0.32106286)
(3.13601e-05 1.3684556e-06 0.32100192)
(1.1531304e-05 5.028384e-07 0.32094357)
(-4.4495013e-06 -1.9478092e-07 0.32088859)
(-3.5555074e-06 -1.5566315e-07 0.32083615)
(-2.2268321e-06 -9.7577277e-08 0.32078744)
(-1.3755731e-05 -6.0086358e-07 0.32074224)
(-2.3330131e-05 -1.0188293e-06 0.32070073)
(-3.0954142e-05 -1.3516489e-06 0.32066264)
(-3.7023691e-05 -1.6166109e-06 0.32062816)
(-4.1009592e-05 -1.7906081e-06 0.3205967)
(-4.3786345e-05 -1.9118182e-06 0.3205689)
(-4.3702227e-05 -1.9081264e-06 0.32054348)
(-4.3236469e-05 -1.8877772e-06 0.32052206)
(-3.9418159e-05 -1.7210555e-06 0.32050236)
(-3.3998917e-05 -1.4844402e-06 0.3204857)
(-2.6575045e-05 -1.1603001e-06 0.32047085)
(-1.9542152e-05 -8.532335e-07 0.32046219)
(-8.8059323e-06 -3.8447624e-07 0.32045344)
(1.9320579e-05 8.4355077e-07 0.012199944)
(4.1542085e-07 1.8119426e-08 0.03613912)
(-4.8677738e-06 -2.1258284e-07 0.06067939)
(-1.1366737e-05 -4.963844e-07 0.085634608)
(-2.0206087e-05 -8.8240803e-07 0.11078137)
(-3.1197205e-05 -1.3623939e-06 0.1358596)
(-4.3754751e-05 -1.9108205e-06 0.1605747)
(-5.7047251e-05 -2.4913759e-06 0.1846029)
(-7.0065876e-05 -3.0600079e-06 0.20759961)
(-8.1823287e-05 -3.5736396e-06 0.22921181)
(-9.1597246e-05 -4.0007166e-06 0.24909442)
(-9.9237352e-05 -4.3346493e-06 0.26693081)
(-0.00010538797 -4.6035527e-06 0.28245664)
(-0.0001115487 -4.8728824e-06 0.29548566)
(-0.00011984419 -5.2353814e-06 0.30593452)
(-0.00013251253 -5.7887269e-06 0.31384207)
(-0.00015119907 -6.6047535e-06 0.31937781)
(-0.00017628336 -7.7000319e-06 0.32283419)
(-0.00020647762 -9.0183438e-06 0.32460012)
(-0.0002388854 -1.0433246e-05 0.32511757)
(-0.00026955692 -1.17723e-05 0.32482837)
(-0.00029439456 -1.2856621e-05 0.32412248)
(-0.00031015949 -1.3544795e-05 0.32329946)
(-0.00031522088 -1.376562e-05 0.3225515)
(-0.00030989091 -1.3532756e-05 0.32196974)
(-0.00029610818 -1.2930795e-05 0.32156846)
(-0.00027688481 -1.209128e-05 0.32131708)
(-0.0002552836 -1.1147945e-05 0.32116924)
(-0.00023410891 -1.0223225e-05 0.32108235)
(-0.00021493495 -9.3858617e-06 0.32102605)
(-0.0001991385 -8.695969e-06 0.32098269)
(-0.00018623726 -8.1324948e-06 0.32094358)
(-0.00017722157 -7.7386826e-06 0.32090555)
(-0.00016942871 -7.3982797e-06 0.32086745)
(-0.00016580009 -7.2397025e-06 0.32082963)
(-0.00016283879 -7.1102891e-06 0.32079207)
(-0.00015706219 -6.8579803e-06 0.32075282)
(-0.00015311525 -6.6855511e-06 0.32071464)
(-0.00014875603 -6.4951419e-06 0.32067806)
(-0.00014283888 -6.2367205e-06 0.32064295)
(-0.00013619881 -5.9467505e-06 0.32061012)
(-0.00012723364 -5.5552797e-06 0.3205789)
(-0.00011799929 -5.152061e-06 0.32055069)
(-0.00010598249 -4.6273671e-06 0.32052405)
(-9.4201423e-05 -4.1129743e-06 0.32050116)
(-7.9891827e-05 -3.4881862e-06 0.32047984)
(-6.6197777e-05 -2.8902816e-06 0.32046328)
(-4.9137097e-05 -2.1453855e-06 0.32044719)
(-3.4580229e-05 -1.5098129e-06 0.32043832)
(-1.564931e-05 -6.8326521e-07 0.32042836)
(2.6641935e-06 1.1631931e-07 0.013084565)
(-3.5471508e-06 -1.5488024e-07 0.038746335)
(-1.5591399e-05 -6.8075525e-07 0.065031018)
(-3.6836089e-05 -1.6083362e-06 0.091726917)
(-6.8692187e-05 -2.9992379e-06 0.11857861)
(-0.00011228455 -4.902575e-06 0.14528677)
(-0.00016848819 -7.3565532e-06 0.17151061)
(-0.0002378168 -1.0383607e-05 0.19687415)
(-0.00032028753 -1.3984488e-05 0.22097707)
(-0.0004152909 -1.8132587e-05 0.24341107)
(-0.00052149146 -2.2769611e-05 0.26378206)
(-0.00063678708 -2.7803773e-05 0.28173747)
(-0.00075834881 -3.3111562e-05 0.29699711)
(-0.00088274588 -3.8543147e-05 0.30938424)
(-0.0010061348 -4.3930723e-05 0.31885231)
(-0.0011244657 -4.9097434e-05 0.32550212)
(-0.0012336587 -5.3865126e-05 0.32958382)
(-0.0013297297 -5.8059828e-05 0.33148036)
(-0.0014088993 -6.1516537e-05 0.33167147)
(-0.0014677457 -6.4085847e-05 0.33068195)
(-0.0015034804 -6.5646034e-05 0.3290222)
(-0.0015143225 -6.6119375e-05 0.32713236)
(-0.0014999419 -6.5491428e-05 0.32534124)
(-0.0014617161 -6.3822351e-05 0.32384845)
(-0.0014028228 -6.1250997e-05 0.32273191)
(-0.0013277547 -5.7973321e-05 0.32197596)
(-0.0012418567 -5.4222782e-05 0.32150991)
(-0.0011501469 -5.0218534e-05 0.32124525)
(-0.0010571951 -4.6159992e-05 0.32110233)
(-0.0009658376 -4.2171085e-05 0.32102307)
(-0.00087853571 -3.8359208e-05 0.320972)
(-0.00079564847 -3.4740098e-05 0.32093088)
(-0.00071842893 -3.1368452e-05 0.32089196)
(-0.00064618294 -2.8213964e-05 0.32085281)
(-0.0005790785 -2.5283968e-05 0.32081279)
(-0.00051802529 -2.2618189e-05 0.32077297)
(-0.00046137428 -2.0144647e-05 0.3207331)
(-0.00040957206 -1.7882795e-05 0.32069383)
(-0.00036312024 -1.5854572e-05 0.320656)
(-0.00032012886 -1.3977438e-05 0.32061935)
(-0.00028211919 -1.2317828e-05 0.32058511)
(-0.00024604826 -1.0742886e-05 0.32055225)
(-0.0002144517 -9.3633004e-06 0.3205227)
(-0.00018316142 -7.9970977e-06 0.32049443)
(-0.00015580282 -6.8025692e-06 0.3204705)
(-0.00012702971 -5.5462836e-06 0.32044735)
(-0.00010239518 -4.4707038e-06 0.32043023)
(-7.4426881e-05 -3.2495666e-06 0.32041287)
(-5.1228186e-05 -2.2366816e-06 0.3204037)
(-2.3359209e-05 -1.0198874e-06 0.32039281)
(2.3623411e-06 1.0314072e-07 0.01386795)
(-3.3862381e-06 -1.4785118e-07 0.041080713)
(-1.4985076e-05 -6.5427436e-07 0.068968607)
(-3.5725103e-05 -1.5598134e-06 0.097305669)
(-6.7288596e-05 -2.9379274e-06 0.12581696)
(-0.00011124901 -4.8573159e-06 0.15417715)
(-0.00016912689 -7.384368e-06 0.18201177)
(-0.00024230473 -1.057945e-05 0.20890251)
(-0.00033189671 -1.4491209e-05 0.23439763)
(-0.00043858182 -1.9149291e-05 0.25802903)
(-0.0005624042 -2.455564e-05 0.2793369)
(-0.00070255182 -3.06748e-05 0.29790198)
(-0.0008571366 -3.7424348e-05 0.31338404)
(-0.0010230114 -4.4666841e-05 0.3255628)
(-0.0011956714 -5.2205605e-05 0.33437547)
(-0.001369288 -5.9786142e-05 0.33994255)
(-0.0015369202 -6.7105367e-05 0.34257374)
(-0.0016909208 -7.3829373e-05 0.34274773)
(-0.0018235372 -7.9619666e-05 0.34106512)
(-0.0019276491 -8.4165358e-05 0.33818025)
(-0.0019975777 -8.7218513e-05 0.33472409)
(-0.0020298079 -8.8625707e-05 0.33123353)
(-0.0020235483 -8.8352355e-05 0.3281011)
(-0.0019808857 -8.6489572e-05 0.32555414)
(-0.0019066345 -8.3247727e-05 0.32366494)
(-0.0018075602 -7.8921953e-05 0.32238567)
(-0.001691584 -7.38582e-05 0.32159683)
(-0.0015663663 -6.8391019e-05 0.32115529)
(-0.0014387661 -6.2819726e-05 0.32093085)
(-0.0013136315 -5.7356114e-05 0.3208254)
(-0.0011944512 -5.2152411e-05 0.32077617)
(-0.0010826924 -4.7272759e-05 0.32074891)
(-0.00097912692 -4.2750841e-05 0.32072767)
(-0.00088368466 -3.8583587e-05 0.32070648)
(-0.00079576543 -3.4744804e-05 0.32068344)
(-0.00071489972 -3.1213989e-05 0.32065857)
(-0.00064084664 -2.7980655e-05 0.32063225)
(-0.0005719236 -2.4971287e-05 0.32060463)
(-0.00050938987 -2.2240909e-05 0.32057676)
(-0.00045026021 -1.9659154e-05 0.32054816)
(-0.00039711587 -1.7338741e-05 0.32052057)
(-0.00034571988 -1.5094685e-05 0.32049265)
(-0.00030019197 -1.3106834e-05 0.32046716)
(-0.00025473318 -1.1122013e-05 0.32044139)
(-0.00021531015 -9.4007348e-06 0.32041979)
(-0.00017404298 -7.59894e-06 0.32039753)
(-0.00013915062 -6.0754902e-06 0.32038153)
(-0.00010057788 -4.3913492e-06 0.32036434)
(-6.8486893e-05 -2.9902163e-06 0.32035564)
(-3.1514201e-05 -1.3759428e-06 0.32034452)
(2.0927689e-06 9.1371527e-08 0.014618884)
(-3.5064008e-06 -1.5309456e-07 0.043325219)
(-1.5439709e-05 -6.7411691e-07 0.072765754)
(-3.6883524e-05 -1.6103772e-06 0.10270385)
(-6.9625316e-05 -3.0399262e-06 0.13284967)
(-0.00011540479 -5.0387213e-06 0.16285767)
(-0.00017597324 -7.6832258e-06 0.19232681)
(-0.00025302832 -1.1047564e-05 0.22080452)
(-0.00034810755 -1.5198867e-05 0.24779611)
(-0.00046244352 -2.019095e-05 0.27278127)
(-0.00059677617 -2.6056138e-05 0.2952391)
(-0.00075111895 -3.2795017e-05 0.31468254)
(-0.00092448419 -4.0364482e-05 0.33070151)
(-0.0011145864 -4.8664713e-05 0.34301171)
(-0.0013175627 -5.7527077e-05 0.35150287)
(-0.0015277738 -6.670534e-05 0.35627691)
(-0.0017377769 -7.5874517e-05 0.35766468)
(-0.0019385655 -8.4641354e-05 0.35621137)
(-0.0021201544 -9.2569876e-05 0.35262617)
(-0.0022725084 -9.9221901e-05 0.34770108)
(-0.0023867307 -0.000104209 0.34221361)
(-0.0024562768 -0.00010724547 0.3368339)
(-0.0024779696 -0.00010819256 0.33205623)
(-0.0024524901 -0.00010708001 0.32816777)
(-0.0023843217 -0.00010410379 0.32525717)
(-0.0022809375 -9.9589857e-05 0.32325555)
(-0.0021517097 -9.3947548e-05 0.32199603)
(-0.0020062985 -8.7598749e-05 0.32127522)
(-0.0018535831 -8.0930934e-05 0.3209025)
(-0.0017004254 -7.4243855e-05 0.32072887)
(-0.0015517364 -6.7751796e-05 0.32065469)
(-0.0014101756 -6.1570984e-05 0.32062274)
(-0.001277229 -5.576628e-05 0.32060489)
(-0.0011529961 -5.0342011e-05 0.3205895)
(-0.0010378739 -4.5315531e-05 0.32057282)
(-0.00093061289 -4.0632274e-05 0.32055393)
(-0.00083227138 -3.633849e-05 0.32053338)
(-0.00074025187 -3.2320708e-05 0.32051107)
(-0.00065692661 -2.8682552e-05 0.32048833)
(-0.0005781575 -2.5243316e-05 0.32046434)
(-0.00050789062 -2.217531e-05 0.32044125)
(-0.00044012072 -1.921635e-05 0.32041711)
(-0.0003807642 -1.6624723e-05 0.32039538)
(-0.00032163018 -1.4042822e-05 0.32037243)
(-0.0002709246 -1.1828932e-05 0.32035371)
(-0.00021819806 -9.5268046e-06 0.32033337)
(-0.00017377464 -7.587217e-06 0.32031928)
(-0.00012549099 -5.4790846e-06 0.32030325)
(-8.4959129e-05 -3.7094129e-06 0.32029556)
(-3.9499328e-05 -1.7245819e-06 0.32028481)
(1.8624331e-06 8.1314888e-08 0.01528879)
(-3.2396626e-06 -1.41448e-07 0.045335789)
(-1.4284193e-05 -6.2366452e-07 0.07618042)
(-3.421096e-05 -1.4936875e-06 0.10757949)
(-6.476476e-05 -2.8277036e-06 0.13923329)
(-0.00010769831 -4.7022377e-06 0.1707822)
(-0.00016483821 -7.1970405e-06 0.20180568)
(-0.00023804165 -1.0393202e-05 0.23182496)
(-0.00032911694 -1.4369674e-05 0.26031103)
(-0.0004397073 -1.91982e-05 0.28669986)
(-0.00057112914 -2.4936273e-05 0.31041672)
(-0.00072415548 -3.1617644e-05 0.33091103)
(-0.00089873739 -3.9240192e-05 0.34770191)
(-0.0010936664 -4.7751123e-05 0.36043238)
(-0.0013061999 -5.703073e-05 0.3689264)
(-0.0015317003 -6.6876507e-05 0.37323929)
(-0.0017633798 -7.6992085e-05 0.37368804)
(-0.0019922816 -8.6986373e-05 0.37084819)
(-0.0022076383 -9.6389248e-05 0.36550826)
(-0.0023977025 -0.00010468777 0.35858301)
(-0.0025510383 -0.00011138264 0.35099971)
(-0.0026580682 -0.00011605571 0.34358176)
(-0.0027125774 -0.0001184356 0.33695597)
(-0.0027127359 -0.00011844243 0.33150306)
(-0.0026614465 -0.00011620318 0.32735762)
(-0.0025657468 -0.00011202476 0.32445064)
(-0.0024356594 -0.00010634492 0.32257861)
(-0.002282352 -9.9651392e-05 0.3214793)
(-0.0021166855 -9.2418139e-05 0.32089631)
(-0.0019475178 -8.503208e-05 0.32062056)
(-0.0017815842 -7.7787123e-05 0.32050596)
(-0.0016226081 -7.0845964e-05 0.32046437)
(-0.0014731316 -6.4319565e-05 0.32045011)
(-0.0013330433 -5.8203042e-05 0.32044286)
(-0.0012034532 -5.2544893e-05 0.32043544)
(-0.0010821806 -4.7249884e-05 0.3204255)
(-0.00097103683 -4.2397149e-05 0.32041338)
(-0.00086623168 -3.7821137e-05 0.32039869)
(-0.00077121731 -3.3672627e-05 0.32038298)
(-0.00068034216 -2.9704829e-05 0.32036512)
(-0.00059920905 -2.6162391e-05 0.32034768)
(-0.00051990872 -2.2699999e-05 0.32032822)
(-0.0004504931 -1.9669177e-05 0.32031087)
(-0.000380624 -1.6618567e-05 0.32029134)
(-0.00032068837 -1.4001681e-05 0.3202758)
(-0.00025827845 -1.1276763e-05 0.32025785)
(-0.00020541355 -8.9686097e-06 0.32024587)
(-0.00014854739 -6.4857539e-06 0.3202314)
(-0.00010020791 -4.3751922e-06 0.32022481)
(-4.7038798e-05 -2.053763e-06 0.32021471)
(1.678231e-06 7.3272556e-08 0.015909496)
(-3.1026366e-06 -1.3546466e-07 0.047201592)
(-1.3659184e-05 -5.9637428e-07 0.079353975)
(-3.2742751e-05 -1.4295805e-06 0.11211867)
(-6.2046094e-05 -2.7089971e-06 0.14518852)
(-0.00010329357 -4.5099108e-06 0.17819305)
(-0.00015830715 -6.9118697e-06 0.2106964)
(-0.00022897602 -9.9973601e-06 0.24219891)
(-0.00031719547 -1.3849131e-05 0.27214371)
(-0.00042477467 -1.8546172e-05 0.29993054)
(-0.00055330416 -2.4157942e-05 0.32493881)
(-0.00070397088 -3.0736265e-05 0.34656196)
(-0.0008773081 -3.830444e-05 0.36425382)
(-0.0010728729 -4.6843101e-05 0.37758595)
(-0.0012888563 -5.6273298e-05 0.3863112)
(-0.0015216548 -6.6437693e-05 0.39042428)
(-0.0017654785 -7.7083478e-05 0.39020542)
(-0.0020121178 -8.7852194e-05 0.38623099)
(-0.0022510395 -9.8283944e-05 0.37933804)
(-0.0024699694 -0.00010784279 0.37053899)
(-0.0026560504 -0.00011596737 0.36089795)
(-0.0027974569 -0.00012214138 0.351394)
(-0.0028852007 -0.00012597235 0.34280301)
(-0.0029146208 -0.00012725678 0.33562478)
(-0.0028862589 -0.00012601857 0.33006779)
(-0.0028056519 -0.00012249911 0.32608729)
(-0.0026824301 -0.00011711903 0.32346011)
(-0.0025283466 -0.00011039164 0.32187324)
(-0.0023557192 -0.00010285448 0.32100447)
(-0.0021750714 -9.4967212e-05 0.32057912)
(-0.0019950659 -8.7107879e-05 0.3203966)
(-0.0018205974 -7.9490324e-05 0.32033016)
(-0.0016555822 -7.228551e-05 0.3203108)
(-0.0014999905 -6.5492105e-05 0.32030609)
(-0.001355864 -5.9199292e-05 0.32030365)
(-0.0012203646 -5.3283137e-05 0.32029911)
(-0.0010962899 -4.786583e-05 0.32029237)
(-0.00097871499 -4.2732283e-05 0.32028275)
(-0.00087242069 -3.8091286e-05 0.32027197)
(-0.0007701459 -3.362577e-05 0.32025862)
(-0.00067919328 -2.9654603e-05 0.32024561)
(-0.00058970483 -2.5747387e-05 0.32023007)
(-0.0005115875 -2.2336637e-05 0.32021649)
(-0.00043258423 -1.8887218e-05 0.32020022)
(-0.00036470754 -1.5923614e-05 0.32018767)
(-0.00029407913 -1.2839866e-05 0.32017224)
(-0.00023378171 -1.0207198e-05 0.32016233)
(-0.00016946189 -7.398906e-06 0.32014964)
(-0.00011404367 -4.9792776e-06 0.32014417)
(-5.3988175e-05 -2.3571801e-06 0.32013489)
(1.5273796e-06 6.6686243e-08 0.016477949)
(-2.9033965e-06 -1.2676557e-07 0.04891352)
(-1.2784702e-05 -5.5819323e-07 0.08227095)
(-3.0681382e-05 -1.3395783e-06 0.11629911)
(-5.8212916e-05 -2.5416347e-06 0.15068556)
(-9.7050191e-05 -4.2373145e-06 0.18505166)
(-0.00014898193 -6.5047137e-06 0.21894971)
(-0.00021589469 -9.4262038e-06 0.2518634)
(-0.00029972646 -1.3086398e-05 0.28321311)
(-0.00040239335 -1.7568953e-05 0.31236829)
(-0.00052568014 -2.295181e-05 0.33866909)
(-0.00067108214 -2.9300255e-05 0.36145967)
(-0.00083958336 -3.6657266e-05 0.3801344)
(-0.0010313583 -4.5030435e-05 0.39419695)
(-0.0012453909 -5.4375437e-05 0.40332837)
(-0.001479025 -6.457629e-05 0.40745583)
(-0.0017274985 -7.5425064e-05 0.40680816)
(-0.0019835642 -8.6605334e-05 0.40194068)
(-0.0022373706 -9.7686961e-05 0.39371246)
(-0.0024767856 -0.00010814021 0.38320762)
(-0.0026883323 -0.00011737666 0.37160785)
(-0.002858704 -0.00012481535 0.36004015)
(-0.0029766917 -0.00012996681 0.34943497)
(-0.0030349917 -0.00013251216 0.34042791)
(-0.0030315857 -0.00013236358 0.33332448)
(-0.0029699743 -0.00012967348 0.32812806)
(-0.0028587145 -0.00012481568 0.32461551)
(-0.0027094485 -0.00011829863 0.3224356)
(-0.0025354518 -0.00011070169 0.32120497)
(-0.0023485987 -0.00010254351 0.32058123)
(-0.0021594232 -9.4283817e-05 0.3203032)
(-0.0019740451 -8.6189957e-05 0.32019829)
(-0.0017978604 -7.8497481e-05 0.32016804)
(-0.0016310027 -7.1212203e-05 0.32016382)
(-0.0014764613 -6.4464673e-05 0.32016575)
(-0.0013306794 -5.8099578e-05 0.32016648)
(-0.0011974148 -5.2281046e-05 0.32016501)
(-0.0010705017 -4.6739787e-05 0.32016031)
(-0.00095601231 -4.1740989e-05 0.3201542)
(-0.00084511579 -3.6899044e-05 0.32014512)
(-0.00074667246 -3.2600826e-05 0.32013613)
(-0.00064917283 -2.8343836e-05 0.32012424)
(-0.00056404026 -2.4626791e-05 0.32011405)
(-0.00047761854 -2.0853474e-05 0.32010084)
(-0.0004030459 -1.7597516e-05 0.32009097)
(-0.00032556298 -1.421449e-05 0.32007802)
(-0.00025879669 -1.1299383e-05 0.32007004)
(-0.00018809368 -8.212392e-06 0.32005917)
(-0.00012637042 -5.517478e-06 0.32005477)
(-6.0263981e-05 -2.6311885e-06 0.32004637)
(1.4045919e-06 6.1325229e-08 0.017007031)
(-2.7515622e-06 -1.2013625e-07 0.050508431)
(-1.2110814e-05 -5.2877023e-07 0.084991077)
(-2.9082274e-05 -1.2697588e-06 0.1202016)
(-5.5216612e-05 -2.4108111e-06 0.15582353)
(-9.2126216e-05 -4.0223249e-06 0.1914718)
(-0.0001415502 -6.18023e-06 0.22668917)
(-0.00020534134 -8.9654232e-06 0.26094572)
(-0.00028543036 -1.24622e-05 0.29364294)
(-0.00038376705 -1.6755687e-05 0.32412475)
(-0.00050223014 -2.1927927e-05 0.35169767)
(-0.00064249346 -2.8051999e-05 0.37566278)
(-0.00080583315 -3.5183638e-05 0.39536124)
(-0.00099285947 -4.334946e-05 0.41023403)
(-0.0012031614 -5.2531556e-05 0.41989298)
(-0.0014348643 -6.2648074e-05 0.42419588)
(-0.0016841356 -7.3531664e-05 0.42331218)
(-0.0019447181 -8.4909129e-05 0.41776113)
(-0.0022076491 -9.6389138e-05 0.40840291)
(-0.0024613546 -0.00010746632 0.39636981)
(-0.0026923385 -0.00011755143 0.38293993)
(-0.0028865022 -0.00012602891 0.3693746)
(-0.0030310495 -0.00013234 0.35675602)
(-0.0031164507 -0.00013606863 0.34586385)
(-0.0031382224 -0.00013701934 0.33711725)
(-0.0030975755 -0.00013524458 0.3305883)
(-0.0030014814 -0.00013104892 0.32607362)
(-0.002860829 -0.00012490796 0.32319881)
(-0.0026892569 -0.00011741689 0.32152759)
(-0.0024995592 -0.00010913453 0.32065139)
(-0.0023039334 -0.00010059322 0.32024476)
(-0.0021097197 -9.21136e-05 0.32008331)
(-0.0019239051 -8.4000687e-05 0.32003315)
(-0.0017469504 -7.6274569e-05 0.32002504)
(-0.0015829325 -6.9113293e-05 0.32002901)
(-0.0014277021 -6.2335673e-05 0.32003346)
(-0.0012860226 -5.6149743e-05 0.32003602)
(-0.0011506166 -5.023768e-05 0.3200352)
(-0.0010287396 -4.4916339e-05 0.32003278)
(-0.00091022344 -3.9741717e-05 0.32002719)
(-0.00080517062 -3.5154925e-05 0.32002147)
(-0.00070079912 -3.0597904e-05 0.3200127)
(-0.00060955928 -2.6614209e-05 0.32000532)
(-0.00051687734 -2.2567563e-05 0.31999484)
(-0.00043648041 -1.9057309e-05 0.31998726)
(-0.00035320254 -1.5421268e-05 0.3199766)
(-0.00028076417 -1.225851e-05 0.3199703)
(-0.00020458223 -8.9323022e-06 0.31996117)
(-0.00013727039 -5.9933837e-06 0.31995774)
(-6.5867656e-05 -2.875851e-06 0.31995019)
(1.3024821e-06 5.686702e-08 0.017500253)
(-2.5994798e-06 -1.134962e-07 0.051996676)
(-1.1442326e-05 -4.995833e-07 0.087531608)
(-2.7495066e-05 -1.2004596e-06 0.12385019)
(-5.2240389e-05 -2.2808655e-06 0.16063292)
(-8.7230407e-05 -3.8085672e-06 0.19748971)
(-0.00013415054 -5.8571501e-06 0.2339556)
(-0.00019481173 -8.5056841e-06 0.26948938)
(-0.00027112294 -1.1837514e-05 0.3034767)
(-0.00036504362 -1.5938189e-05 0.33523969)
(-0.00047850864 -2.0892201e-05 0.36405577)
(-0.00061331395 -2.6777963e-05 0.3891881)
(-0.00077094809 -3.3660478e-05 0.40993015)
(-0.00095235214 -4.1580811e-05 0.42566531)
(-0.0011575922 -5.0541887e-05 0.43593987)
(-0.0013854364 -6.0489909e-05 0.44054285)
(-0.0016328566 -7.1292666e-05 0.43958029)
(-0.0018945145 -8.2717071e-05 0.43352541)
(-0.0021623701 -9.441209e-05 0.42322364)
(-0.0024255916 -0.00010590475 0.40983562)
(-0.002671015 -0.00011662031 0.39471577)
(-0.0028842389 -0.00012592998 0.37924396)
(-0.0030514194 -0.00013322927 0.36464649)
(-0.0031612679 -0.0001380253 0.35184919)
(-0.0032071138 -0.00014002712 0.34139567)
(-0.0031878921 -0.00013918781 0.33344319)
(-0.0031087426 -0.00013573197 0.32782612)
(-0.0029793729 -0.00013008363 0.3241626)
(-0.0028132965 -0.0001228325 0.32197405)
(-0.0026238149 -0.00011455959 0.32079)
(-0.0024245212 -0.00010585815 0.32021957)
(-0.0022238985 -9.7098711e-05 0.31998192)
(-0.0020305395 -8.8656414e-05 0.31990223)
(-0.0018453486 -8.0570707e-05 0.31988609)
(-0.0016735203 -7.3068427e-05 0.31989041)
(-0.0015104388 -6.5948026e-05 0.31989787)
(-0.0013617689 -5.9456892e-05 0.31990398)
(-0.0012193031 -5.3236597e-05 0.31990667)
(-0.0010912338 -4.7644897e-05 0.31990751)
(-0.00096637475 -4.2193343e-05 0.31990505)
(-0.00085569511 -3.7360882e-05 0.31990215)
(-0.0007455831 -3.2553226e-05 0.31989616)
(-0.00064906711 -2.833917e-05 0.31989116)
(-0.00055112649 -2.4062924e-05 0.31988314)
(-0.00046564909 -2.0330851e-05 0.31987751)
(-0.00037745491 -1.6480157e-05 0.31986892)
(-0.00030003544 -1.3099918e-05 0.31986407)
(-0.00021913484 -9.5676868e-06 0.31985653)
(-0.00014688384 -6.4131188e-06 0.31985395)
(-7.0842589e-05 -3.0930619e-06 0.3198472)
(1.2169237e-06 5.3131461e-08 0.017963793)
(-2.4694582e-06 -1.0781932e-07 0.05339625)
(-1.086978e-05 -4.745853e-07 0.089922224)
(-2.6131815e-05 -1.1409385e-06 0.12728585)
(-4.9675745e-05 -2.1688899e-06 0.1651653)
(-8.2995624e-05 -3.6236709e-06 0.20316641)
(-0.00012772158 -5.5764529e-06 0.24081785)
(-0.00018561595 -8.1041828e-06 0.27756893)
(-0.00025855212 -1.1288652e-05 0.31279178)
(-0.00034847562 -1.5214803e-05 0.34578977)
(-0.00045734153 -1.9968008e-05 0.37581493)
(-0.00058701656 -2.5629769e-05 0.40209694)
(-0.00073913161 -3.2271306e-05 0.42388651)
(-0.00091486774 -3.9944161e-05 0.44051444)
(-0.0011146573 -4.8667245e-05 0.45146567)
(-0.0013377857 -5.840936e-05 0.45646262)
(-0.0015819054 -6.9067995e-05 0.45554654)
(-0.0018425005 -8.0445992e-05 0.4491384)
(-0.0021124235 -9.2231265e-05 0.43805719)
(-0.0023816615 -0.00010398661 0.42347571)
(-0.0026375993 -0.00011516124 0.40680663)
(-0.0028658849 -0.00012512853 0.38953222)
(-0.0030520679 -0.00013325749 0.37301251)
(-0.0031835426 -0.00013899775 0.35831715)
(-0.0032517879 -0.00014197756 0.34612015)
(-0.0032536077 -0.00014205694 0.33667615)
(-0.0031922197 -0.00013937658 0.32987278)
(-0.0030758618 -0.00013429635 0.32533585)
(-0.0029175061 -0.00012738233 0.32255617)
(-0.0027305643 -0.00011922032 0.32100791)
(-0.0025297026 -0.00011045042 0.32023579)
(-0.0023244258 -0.00010148779 0.31989957)
(-0.0021248831 -9.277552e-05 0.31977874)
(-0.0019325632 -8.4378554e-05 0.31974919)
(-0.0017537808 -7.657266e-05 0.31975152)
(-0.0015836695 -6.9145332e-05 0.31976091)
(-0.0014286641 -6.2377589e-05 0.31976988)
(-0.0012798964 -5.5882156e-05 0.31977558)
(-0.0011462167 -5.0045504e-05 0.31977919)
(-0.0010157754 -4.4350227e-05 0.31977944)
(-0.00090002798 -3.9296503e-05 0.31977891)
(-0.00078493563 -3.4271404e-05 0.31977534)
(-0.00068370358 -2.985144e-05 0.31977235)
(-0.00058123628 -2.5377555e-05 0.31976649)
(-0.00049124777 -2.1448522e-05 0.3197625)
(-0.00039881687 -1.7412848e-05 0.31975576)
(-0.00031699086 -1.3840213e-05 0.31975216)
(-0.0002319891 -1.012892e-05 0.31974606)
(-0.00015536928 -6.7836036e-06 0.31974423)
(-7.5250911e-05 -3.2855341e-06 0.31973817)
(1.1440474e-06 4.9949596e-08 0.018401133)
(-2.3494949e-06 -1.0258173e-07 0.054717458)
(-1.0343135e-05 -4.5159159e-07 0.092180192)
(-2.4876995e-05 -1.0861519e-06 0.13053283)
(-4.7313011e-05 -2.0657305e-06 0.16945179)
(-7.9090083e-05 -3.4531505e-06 0.2085396)
(-0.00012178465 -5.3172389e-06 0.24731957)
(-0.00017710973 -7.7327901e-06 0.28523297)
(-0.00024689869 -1.0779847e-05 0.32164027)
(-0.00033307354 -1.4542326e-05 0.35582848)
(-0.00043759203 -1.9105714e-05 0.3870273)
(-0.00056236302 -2.4553354e-05 0.41443665)
(-0.00070911725 -3.0960824e-05 0.4372687)
(-0.00087921544 -3.8387511e-05 0.45480619)
(-0.0010733758 -4.6864808e-05 0.46647686)
(-0.0012913034 -5.6379834e-05 0.47193941)
(-0.0015312221 -6.6855037e-05 0.47117052)
(-0.0017893359 -7.8124684e-05 0.46453527)
(-0.0020593218 -8.9912697e-05 0.45281776)
(-0.0023319892 -0.00010181778 0.43718998)
(-0.0025953782 -0.00011331774 0.41910716)
(-0.0028354145 -0.00012379808 0.40013865)
(-0.0030373714 -0.00013261576 0.38176666)
(-0.003187704 -0.00013917938 0.36519956)
(-0.00327638 -0.00014305122 0.35124394)
(-0.0032982952 -0.00014400798 0.34026044)
(-0.0032547815 -0.00014210803 0.3322026)
(-0.0031524649 -0.00013764086 0.32671767)
(-0.0030034707 -0.00013113556 0.32327786)
(-0.00282099 -0.00012316834 0.32130984)
(-0.00262043 -0.00011441162 0.32029686)
(-0.0024121719 -0.00010531884 0.31983794)
(-0.0022077993 -9.6395692e-05 0.31966299)
(-0.0020095098 -8.7738093e-05 0.31961397)
(-0.001824684 -7.9668344e-05 0.31961175)
(-0.0016484321 -7.1972918e-05 0.31962205)
(-0.0014877906 -6.49591e-05 0.3196334)
(-0.001333505 -5.822275e-05 0.3196418)
(-0.0011947991 -5.2166653e-05 0.31964786)
(-0.0010594893 -4.6258818e-05 0.31965056)
(-0.00093918566 -4.1006168e-05 0.31965209)
(-0.00081976168 -3.5791948e-05 0.31965069)
(-0.00071429257 -3.1186991e-05 0.31964942)
(-0.00060788768 -2.6541188e-05 0.31964547)
(-0.00051386427 -2.2435987e-05 0.31964289)