/*--------------------------------*- C++ -*----------------------------------*\
| =========                 |                                                 |
| \\      /  F ield         | OpenFOAM: The Open Source CFD Toolbox           |
|  \\    /   O peration     | Version:  4.0                                   |
|   \\  /    A nd           | Web:      www.OpenFOAM.org                      |
|    \\/     M anipulation  |                                                 |
\*---------------------------------------------------------------------------*/
FoamFile
{
    version     2.0;
    format      ascii;
    class       surfaceScalarField;
    location    "792";
    object      phi;
}
// * * * * * * * * * * * * * * * * * * * * * * * * * * * * * * * * * * * * * //

dimensions      [1 0 -1 0 0 0 0];

internalField   nonuniform List<scalar> 
9850
(
4.7819604e-11
1.6601932e-10
1.9405489e-10
5.5565865e-10
4.4605406e-10
1.0585294e-09
8.0600164e-10
1.6966942e-09
1.2687635e-09
2.49401e-09
1.8198053e-09
3.4751284e-09
2.4334948e-09
4.6640512e-09
3.0722478e-09
6.0821964e-09
3.6870356e-09
7.7460947e-09
4.2197407e-09
9.6650223e-09
4.6076231e-09
1.1839085e-08
4.7897832e-09
1.4258475e-08
4.7149418e-09
1.6904727e-08
4.3492876e-09
1.9754688e-08
3.6827477e-09
2.2787562e-08
2.7320411e-09
2.599472e-08
1.5394583e-09
2.9391235e-08
1.6735185e-10
3.3027427e-08
-1.3098812e-09
3.6998353e-08
-2.8157495e-09
4.1450705e-08
-4.281446e-09
4.6585676e-08
-5.6520597e-09
5.265785e-08
-6.8903887e-09
5.9972553e-08
-7.9784989e-09
6.8882549e-08
-8.9175278e-09
7.9786015e-08
-9.7262011e-09
9.312788e-08
-1.0438226e-08
1.094066e-07
-1.1098192e-08
1.2918815e-07
-1.1756234e-08
1.5312814e-07
-1.246206e-08
1.8200201e-07
-1.3259344e-08
2.1674202e-07
-1.4181873e-08
2.5847945e-07
-1.5252237e-08
3.0859093e-07
-1.6482891e-08
3.6874938e-07
-1.7879712e-08
4.409816e-07
-1.9446761e-08
5.2773568e-07
-2.119302e-08
6.3196169e-07
-2.3140947e-08
7.5720796e-07
-2.533702e-08
9.0773602e-07
-2.7868263e-08
1.0886543e-06
-3.0873422e-08
1.3060653e-06
-3.4596767e-08
1.5672688e-06
-3.9374725e-08
1.8808427e-06
-4.5762907e-08
2.2570709e-06
-5.4949817e-08
2.7078427e-06
-6.7195171e-08
3.2458547e-06
-8.9496725e-08
3.8913825e-06
-1.2116028e-07
4.6488865e-06
-2.2469314e-07
5.64371e-06
5.9052969e-06
-5.3927066e-11
2.1993881e-10
-2.3341932e-10
7.3515372e-10
-5.7215449e-10
1.3972988e-09
-1.110665e-09
2.2352539e-09
-1.8973068e-09
3.2807066e-09
-2.9893216e-09
4.5671972e-09
-4.4536282e-09
6.1284055e-09
-6.3668957e-09
7.9955025e-09
-8.8142053e-09
1.0193433e-08
-1.1885352e-08
1.2736188e-08
-1.5667748e-08
1.5621494e-08
-2.0235171e-08
1.8825909e-08
-2.5632453e-08
2.2302025e-08
-3.1857759e-08
2.5980016e-08
-3.8845952e-08
2.9775783e-08
-4.645804e-08
3.360684e-08
-5.4481624e-08
3.7414853e-08
-6.2645115e-08
4.1190946e-08
-7.0644792e-08
4.4998048e-08
-7.8178358e-08
4.8984279e-08
-8.4977768e-08
5.3385075e-08
-9.0835232e-08
5.8515284e-08
-9.5617626e-08
6.4754912e-08
-9.926932e-08
7.2534206e-08
-1.0180588e-07
8.2322537e-08
-1.03302e-07
9.4623964e-08
-1.0387644e-07
1.0998102e-07
-1.0367587e-07
1.2898756e-07
-1.02859e-07
1.5231125e-07
-1.0158278e-07
1.8072576e-07
-9.9992751e-08
2.1515198e-07
-9.8219669e-08
2.5670639e-07
-9.6383082e-08
3.0675434e-07
-9.4600456e-08
3.6696678e-07
-9.2999801e-08
4.3938098e-07
-9.1732094e-08
5.2646804e-07
-9.0982449e-08
6.3121208e-07
-9.0980024e-08
7.5720564e-07
-9.200765e-08
9.0876387e-07
-9.4424346e-08
1.0910713e-06
-9.8679855e-08
1.3103213e-06
-1.053687e-07
1.5739584e-06
-1.1541514e-07
1.8908901e-06
-1.2961408e-07
2.2712712e-06
-1.5101984e-07
2.72925e-06
-1.7935197e-07
3.2741895e-06
-2.2543811e-07
3.9374702e-06
-3.141808e-07
4.7376345e-06
-4.8244588e-07
5.8119762e-06
5.4228586e-06
-3.391487e-11
2.5384375e-10
-1.4973464e-10
8.5097844e-10
-3.7405703e-10
1.6216764e-09
-7.4013379e-10
2.6014099e-09
-1.2890898e-09
3.8297513e-09
-2.0712917e-09
5.349486e-09
-3.1477094e-09
7.2048992e-09
-4.5911043e-09
9.4389566e-09
-6.4867383e-09
1.2089106e-08
-8.9320629e-09
1.5181533e-08
-1.2034531e-08
1.8723967e-08
-1.5906303e-08
2.2697677e-08
-2.0654392e-08
2.7050111e-08
-2.636506e-08
3.1690688e-08
-3.3082498e-08
3.6493243e-08
-4.0784348e-08
4.1308731e-08
-4.9359724e-08
4.5990286e-08
-5.8597774e-08
5.0429058e-08
-6.8193972e-08
5.4594302e-08
-7.77772e-08
5.8567546e-08
-8.6953129e-08
6.2561033e-08
-9.5353567e-08
6.6915728e-08
-1.0268032e-07
7.2081644e-08
-1.0873505e-07
7.85889e-08
-1.1343197e-07
8.7019396e-08
-1.1679479e-07
9.7986707e-08
-1.1894205e-07
1.1212819e-07
-1.2006505e-07
1.3011046e-07
-1.2040212e-07
1.526482e-07
-1.2021221e-07
1.8053576e-07
-1.1975128e-07
2.1469098e-07
-1.1925446e-07
2.5620949e-07
-1.1892699e-07
3.0642677e-07
-1.1894526e-07
3.6698491e-07
-1.1946686e-07
4.3990241e-07
-1.2064743e-07
5.2764828e-07
-1.2266077e-07
6.3322504e-07
-1.2572394e-07
7.6026828e-07
-1.3012269e-07
9.1316191e-07
-1.3624657e-07
1.0971943e-06
-1.4465613e-07
1.3187297e-06
-1.5602674e-07
1.5853277e-06
-1.7166453e-07
1.9065261e-06
-1.9251971e-07
2.2921246e-06
-2.2166704e-07
2.7583943e-06
-2.6147041e-07
3.313991e-06
-3.202744e-07
3.9962693e-06
-4.4451347e-07
4.8618706e-06
-5.5423658e-07
5.9216933e-06
4.8686176e-06
-2.370611e-11
2.775352e-10
-1.0529007e-10
9.325678e-10
-2.6448663e-10
1.7809487e-09
-5.2661049e-10
2.8636439e-09
-9.2383231e-10
4.2270969e-09
-1.4967962e-09
5.9225707e-09
-2.2964362e-09
8.0046446e-09
-3.3859025e-09
1.0528506e-08
-4.8423916e-09
1.3545652e-08
-6.7584838e-09
1.7097656e-08
-9.2423639e-09
2.1207853e-08
-1.2415944e-08
2.5871248e-08
-1.6409578e-08
3.104373e-08
-2.1351803e-08
3.6632901e-08
-2.7352779e-08
4.2494221e-08
-3.4481306e-08
4.843728e-08
-4.2737782e-08
5.4246805e-08
-5.2028954e-08
5.9720291e-08
-6.2153215e-08
6.4718627e-08
-7.2804938e-08
6.9219327e-08
-8.3601627e-08
7.3357772e-08
-9.4129708e-08
7.7443843e-08
-1.0399781e-07
8.1949756e-08
-1.1288439e-07
8.7475448e-08
-1.2056985e-07
9.4704803e-08
-1.2694974e-07
1.0436653e-07
-1.3203079e-07
1.1720917e-07
-1.3591474e-07
1.339943e-07
-1.3877492e-07
1.5550826e-07
-1.4083041e-07
1.8259113e-07
-1.4232113e-07
2.1618164e-07
-1.4348785e-07
2.5737618e-07
-1.4455994e-07
3.0749885e-07
-1.4575364e-07
3.6817864e-07
-1.4728091e-07
4.4142973e-07
-1.4936649e-07
5.2973393e-07
-1.5226877e-07
6.3612739e-07
-1.5630249e-07
7.6430199e-07
-1.618638e-07
9.1872311e-07
-1.6944059e-07
1.1047708e-06
-1.797141e-07
1.3290027e-06
-1.9342873e-07
1.5990417e-06
-2.1185921e-07
1.9249552e-06
-2.3639388e-07
2.3166583e-06
-2.6860918e-07
2.790607e-06
-3.1388798e-07
3.3592687e-06
-3.8044917e-07
4.0628271e-06
-5.0412904e-07
4.9855474e-06
-5.1337474e-07
5.9309353e-06
4.3552381e-06
-1.8291267e-11
2.9580685e-10
-8.1300076e-11
9.9558141e-10
-2.0442375e-10
1.9041682e-09
-4.0760304e-10
3.0669631e-09
-7.1634546e-10
4.5359963e-09
-1.1631672e-09
6.3695467e-09
-1.7893076e-09
8.6309216e-09
-2.6467075e-09
1.1386015e-08
-3.800163e-09
1.4699184e-08
-5.3294433e-09
1.862698e-08
-7.3309306e-09
2.3209356e-08
-9.9180585e-09
2.845837e-08
-1.3219399e-08
3.4345053e-08
-1.737287e-08
4.0786356e-08
-2.2514328e-08
4.7635671e-08
-2.8759177e-08
5.4682138e-08
-3.6177188e-08
6.1664841e-08
-4.4763527e-08
6.8306669e-08
-5.4412797e-08
7.4367941e-08
-6.490549e-08
7.9712071e-08
-7.5915479e-08
8.4367802e-08
-8.704134e-08
8.8569738e-08
-9.7856146e-08
9.2764583e-08
-1.0796356e-07
9.7582862e-08
-1.1704693e-07
1.0378814e-07
-1.2490205e-07
1.1222161e-07
-1.3145062e-07
1.2375769e-07
-1.3673614e-07
1.3927974e-07
-1.4090657e-07
1.5967859e-07
-1.4418863e-07
1.8587304e-07
-1.4685773e-07
2.188506e-07
-1.4920827e-07
2.597266e-07
-1.5152874e-07
3.0981921e-07
-1.540863e-07
3.7073618e-07
-1.5712456e-07
4.4446805e-07
-1.608746e-07
5.3348411e-07
-1.6557678e-07
6.4082977e-07
-1.7150776e-07
7.7023323e-07
-1.7902021e-07
9.2623592e-07
-1.8855425e-07
1.1143052e-06
-2.0073025e-07
1.341179e-06
-2.1633562e-07
1.6146476e-06
-2.3631562e-07
1.9449352e-06
-2.62473e-07
2.3428165e-06
-2.9537185e-07
2.8235059e-06
-3.417552e-07
3.4056536e-06
-4.1260135e-07
4.1336741e-06
-5.1547351e-07
5.0884206e-06
-4.5650805e-07
5.871971e-06
3.8987321e-06
-1.6265405e-11
3.120474e-10
-7.2198628e-11
1.0515183e-09
-1.8130028e-10
2.0133855e-09
-3.6102525e-10
3.2468585e-09
-6.336148e-10
4.8087778e-09
-1.0273332e-09
6.7634542e-09
-1.5779492e-09
9.1817056e-09
-2.330482e-09
1.2138682e-08
-3.3411827e-09
1.5709981e-08
-4.6796435e-09
1.9965497e-08
-6.4307665e-09
2.4960503e-08
-8.6961084e-09
3.0723712e-08
-1.1593757e-08
3.7242689e-08
-1.525548e-08
4.4448063e-08
-1.9819499e-08
5.219968e-08
-2.5417188e-08
6.0279829e-08
-3.2152682e-08
6.8400349e-08
-4.0076356e-08
7.6230365e-08
-4.9156375e-08
8.3447988e-08
-5.9256119e-08
8.981184e-08
-7.0126895e-08
9.5238601e-08
-8.1422922e-08
9.9865789e-08
-9.2738746e-08
1.0408043e-07
-1.0366113e-07
1.0850526e-07
-1.1382266e-07
1.1394969e-07
-1.2294507e-07
1.2134404e-07
-1.3086525e-07
1.3167786e-07
-1.3754286e-07
1.4595732e-07
-1.4305261e-07
1.6518827e-07
-1.4756543e-07
1.9038578e-07
-1.5132303e-07
2.2260809e-07
-1.5460967e-07
2.6301308e-07
-1.5772537e-07
3.1293473e-07
-1.6096565e-07
3.7397629e-07
-1.6461187e-07
4.4811413e-07
-1.6893437e-07
5.3780655e-07
-1.7420839e-07
6.4610381e-07
-1.8073472e-07
7.7675967e-07
-1.8887315e-07
9.3437448e-07
-1.9906471e-07
1.124497e-06
-2.1184882e-07
1.3539633e-06
-2.2802776e-07
1.6308272e-06
-2.4825848e-07
1.9651662e-06
-2.7422789e-07
2.3687869e-06
-3.0670559e-07
2.8559844e-06
-3.5215565e-07
3.4511055e-06
-4.2258319e-07
4.2041036e-06
-4.9786916e-07
5.1637089e-06
-3.9133334e-07
5.7654378e-06
3.5074034e-06
-1.4315303e-11
3.263324e-10
-6.3543133e-11
1.1007487e-09
-1.5959435e-10
2.1095714e-09
-3.1794992e-10
3.4054135e-09
-5.5835924e-10
5.0494119e-09
-9.0596181e-10
7.111278e-09
-1.3926321e-09
9.6685725e-09
-2.0585789e-09
1.2804787e-08
-2.9541881e-09
1.6605704e-08
-4.1420379e-09
2.1153417e-08
-5.6989106e-09
2.6517407e-08
-7.7174436e-09
3.2742248e-08
-1.0306785e-08
3.9832016e-08
-1.3591258e-08
4.773252e-08
-1.7705638e-08
5.6314047e-08
-2.2785336e-08
6.5359523e-08
-2.8950104e-08
7.4565124e-08
-3.6281028e-08
8.3561297e-08
-4.4793119e-08
9.1960082e-08
-5.4409324e-08
9.9428034e-08
-6.494452e-08
1.0577378e-07
-7.6108069e-08
1.1102932e-07
-8.7528817e-08
1.1550118e-07
-9.8799117e-08
1.1977559e-07
-1.0952759e-07
1.2467821e-07
-1.1938818e-07
1.3120467e-07
-1.28156e-07
1.4044574e-07
-1.357259e-07
1.5352726e-07
-1.4211432e-07
1.715767e-07
-1.474478e-07
1.9571924e-07
-1.5194185e-07
2.2710208e-07
-1.558737e-07
2.669448e-07
-1.5955293e-07
3.1661381e-07
-1.6329492e-07
3.7771811e-07
-1.6740246e-07
4.522215e-07
-1.7216004e-07
5.4256389e-07
-1.7784296e-07
6.5178658e-07
-1.8473741e-07
7.83654e-07
-1.9316648e-07
9.4280334e-07
-2.035371e-07
1.1348675e-06
-2.1630373e-07
1.3667297e-06
-2.3218836e-07
1.646712e-06
-2.5177023e-07
1.984748e-06
-2.7630131e-07
2.3933182e-06
-3.0733227e-07
2.8870156e-06
-3.5066546e-07
3.4944396e-06
-4.1519104e-07
4.26863e-06
-4.620533e-07
5.2105726e-06
-3.2629592e-07
5.629682e-06
3.1811106e-06
-1.3031571e-11
3.3932848e-10
-5.7812667e-11
1.1455308e-09
-1.4513834e-10
2.1970502e-09
-2.8908244e-10
3.5495848e-09
-5.0758453e-10
5.2681708e-09
-8.234785e-10
7.4274253e-09
-1.2657259e-09
1.0111046e-08
-1.8708921e-09
1.3410136e-08
-2.6848696e-09
1.7419813e-08
-3.7648002e-09
2.2233429e-08
-5.1810678e-09
2.7933713e-08
-7.0190861e-09
3.4580273e-08
-9.3803831e-09
4.2193303e-08
-1.2382158e-08
5.073428e-08
-1.6154118e-08
6.0085993e-08
-2.0831063e-08
7.0036462e-08
-2.653972e-08
8.0273777e-08
-3.3378998e-08
9.0400571e-08
-4.1394827e-08
9.9975897e-08
-5.0553656e-08
1.0858683e-07
-6.0721895e-08
1.1594198e-07
-7.1659953e-08
1.2196733e-07
-8.3036848e-08
1.2687804e-07
-9.4465297e-08
1.3120404e-07
-1.0555001e-07
1.3576296e-07
-1.1593771e-07
1.4159244e-07
-1.2535814e-07
1.4986625e-07
-1.3365e-07
1.6181921e-07
-1.4077063e-07
1.7869739e-07
-1.4679155e-07
2.017402e-07
-1.5188354e-07
2.3219407e-07
-1.5629406e-07
2.7135528e-07
-1.6032029e-07
3.2063995e-07
-1.6428158e-07
3.816793e-07
-1.6849648e-07
4.5643625e-07
-1.7326916e-07
5.4733639e-07
-1.7888935e-07
6.5740656e-07
-1.8564675e-07
7.9041117e-07
-1.9384585e-07
9.5100223e-07
-2.0385651e-07
1.1448779e-06
-2.1608018e-07
1.378953e-06
-2.3108601e-07
1.6617176e-06
-2.4945414e-07
2.0031155e-06
-2.7205926e-07
2.415923e-06
-3.0103177e-07
2.9159874e-06
-3.4164534e-07
3.535053e-06
-3.9712397e-07
4.324108e-06
-4.1854358e-07
5.2319923e-06
-2.6906033e-07
5.4801989e-06
2.9120513e-06
-1.191697e-11
3.5120435e-10
-5.2849325e-11
1.1864624e-09
-1.3265366e-10
2.2770261e-09
-2.6424065e-10
3.6814278e-09
-4.6406929e-10
5.4682884e-09
-7.5310171e-10
7.7167425e-09
-1.1579512e-09
1.0516148e-08
-1.7122624e-09
1.3964653e-08
-2.4583382e-09
1.8166038e-08
-3.4489811e-09
2.3224166e-08
-4.7494514e-09
2.9234231e-08
-6.4393291e-09
3.6270164e-08
-8.6138555e-09
4.4367823e-08
-1.1384076e-08
5.3504486e-08
-1.4874731e-08
6.3576636e-08
-1.9218524e-08
7.4380249e-08
-2.4545255e-08
8.5600502e-08
-3.0964743e-08
9.6820042e-08
-3.8543882e-08
1.07555e-07
-4.7280769e-08
1.1732366e-07
-5.708189e-08
1.2574302e-07
-6.7750484e-08
1.3263584e-07
-7.8993068e-08
1.3812056e-07
-9.044655e-08
1.4265749e-07
-1.0172104e-07
1.4703747e-07
-1.1244874e-07
1.523202e-07
-1.2232779e-07
1.597454e-07
-1.3115355e-07
1.7064508e-07
-1.3883449e-07
1.8637841e-07
-1.4539371e-07
2.0829949e-07
-1.5095926e-07
2.3775963e-07
-1.5574563e-07
2.7614163e-07
-1.6002942e-07
3.249237e-07
-1.6412204e-07
3.8577185e-07
-1.683438e-07
4.6065794e-07
-1.7300512e-07
5.5199761e-07
-1.7839879e-07
6.6280019e-07
-1.84809e-07
7.9682128e-07
-1.9252262e-07
9.5871571e-07
-2.0186587e-07
1.154221e-06
-2.1320695e-07
1.3902938e-06
-2.2698177e-07
1.6754921e-06
-2.4375626e-07
2.0198894e-06
-2.6428009e-07
2.4364463e-06
-2.9088509e-07
2.9425914e-06
-3.281485e-07
3.5723156e-06
-3.7329915e-07
4.369257e-06
-3.7327094e-07
5.2319633e-06
-2.2004041e-07
5.3269675e-06
2.6920103e-06
-1.1043494e-11
3.6220127e-10
-4.8949374e-11
1.2243656e-09
-1.2282011e-10
2.3510865e-09
-2.4463111e-10
3.8035223e-09
-4.2964054e-10
5.6536186e-09
-6.9728501e-10
7.9847029e-09
-1.072252e-09
1.0891397e-08
-1.5857782e-09
1.4478406e-08
-2.2771876e-09
1.8857615e-08
-3.1956596e-09
2.4142744e-08
-4.4021425e-09
3.0440769e-08
-5.9712462e-09
3.7839285e-08
-7.9927586e-09
4.6389331e-08
-1.0572206e-08
5.608392e-08
-1.3829518e-08
6.6833936e-08
-1.7894564e-08
7.8445285e-08
-2.2898077e-08
9.0603999e-08
-2.8956744e-08
1.0287868e-07
-3.6152357e-08
1.1475056e-07
-4.4506969e-08
1.2567818e-07
-5.3959058e-08
1.35195e-07
-6.4348057e-08
1.4302472e-07
-7.541476e-08
1.4918717e-07
-8.6821349e-08
1.5406402e-07
-9.8188735e-08
1.5840486e-07
-1.0914297e-07
1.6327451e-07
-1.1936012e-07
1.6996268e-07
-1.2860109e-07
1.7988619e-07
-1.367322e-07
1.9450964e-07
-1.437318e-07
2.1529917e-07
-1.4968512e-07
2.4371298e-07
-1.5477014e-07
2.8122666e-07
-1.5923677e-07
3.2939031e-07
-1.6338137e-07
3.899164e-07
-1.6752013e-07
4.6479665e-07
-1.7196644e-07
5.5644386e-07
-1.7701683e-07
6.6785054e-07
-1.8295149e-07
8.0275599e-07
-1.9004458e-07
9.6580884e-07
-1.9858272e-07
1.1627592e-06
-2.0889486e-07
1.4006058e-06
-2.2132723e-07
1.6879244e-06
-2.3638729e-07
2.0349489e-06
-2.548649e-07
2.4549236e-06
-2.7903976e-07
2.9667654e-06
-3.1240765e-07
3.6056828e-06
-3.471331e-07
4.4039806e-06
-3.3005557e-07
5.2148849e-06
-1.7927726e-07
5.1761882e-06
2.5127315e-06
-1.030338e-11
3.7245238e-10
-4.5643536e-11
1.2597013e-09
-1.1448443e-10
2.4201357e-09
-2.2801711e-10
3.9173668e-09
-4.0049265e-10
5.8264469e-09
-6.5006805e-10
8.2346259e-09
-9.9981483e-10
1.1241454e-08
-1.4789481e-09
1.4957791e-08
-2.1242863e-09
1.9503138e-08
-2.9819494e-09
2.5000525e-08
-4.1092201e-09
3.1568102e-08
-5.5764478e-09
3.9306535e-08
-7.4686772e-09
4.8281561e-08
-9.8865116e-09
5.8501744e-08
-1.2945366e-08
6.989278e-08
-1.6771988e-08
8.2271894e-08
-2.1496813e-08
9.5328805e-08
-2.7240896e-08
1.0862272e-07
-3.4096869e-08
1.2160646e-07
-4.2105341e-08
1.3368654e-07
-5.1230712e-08
1.4432022e-07
-6.1343135e-08
1.5313698e-07
-7.221408e-08
1.6005796e-07
-8.3530424e-08
1.6538026e-07
-9.4926566e-08
1.6980099e-07
-1.0602784e-07
1.7437585e-07
-1.1649534e-07
1.804303e-07
-1.2606306e-07
1.8945406e-07
-1.3456218e-07
2.0300893e-07
-1.4193173e-07
2.2266885e-07
-1.4821735e-07
2.4999865e-07
-1.5356068e-07
2.8657004e-07
-1.5818207e-07
3.3401166e-07
-1.6235724e-07
3.940915e-07
-1.6639148e-07
4.6883082e-07
-1.7059504e-07
5.6064733e-07
-1.7526471e-07
6.7252021e-07
-1.8067722e-07
8.0816851e-07
-1.870963e-07
9.7222797e-07
-1.9478125e-07
1.1704443e-06
-2.0402009e-07
1.4098447e-06
-2.151135e-07
1.699018e-06
-2.2850964e-07
2.0483449e-06
-2.4508473e-07
2.4714989e-06
-2.6693839e-07
2.9886188e-06
-2.9618657e-07
3.6349308e-06
-3.212061e-07
4.4289992e-06
-2.9121508e-07
5.1848933e-06
-1.4636055e-07
5.031333e-06
2.3663697e-06
-9.6807602e-12
3.8207541e-10
-4.2859383e-11
1.2928733e-09
-1.0745706e-10
2.4849595e-09
-2.1400033e-10
4.0242499e-09
-3.758869e-10
5.988718e-09
-6.1018507e-10
8.4693036e-09
-9.3859139e-10
1.1570199e-08
-1.3885931e-09
1.5408068e-08
-1.9948633e-09
2.0109611e-08
-2.8008878e-09
2.5806681e-08
-3.8607842e-09
3.2628069e-08
-5.2411848e-09
4.0686963e-08
-7.0229533e-09
5.0063333e-08
-9.3022561e-09
6.0781042e-08
-1.219029e-08
7.2780804e-08
-1.5810564e-08
8.5892156e-08
-2.0292457e-08
9.9810674e-08
-2.5759671e-08
1.1408989e-07
-3.2312868e-08
1.2815957e-07
-4.00073e-08
1.4138083e-07
-4.8828736e-08
1.5314147e-07
-5.8673663e-08
1.629817e-07
-6.934105e-08
1.7072515e-07
-8.0541432e-08
1.7658051e-07
-9.1924069e-08
1.8118359e-07
-1.031172e-07
1.8556905e-07
-1.1377214e-07
1.9108539e-07
-1.2360185e-07
1.9928397e-07
-1.3240811e-07
2.1181541e-07
-1.4009552e-07
2.3035643e-07
-1.4667353e-07
2.5657674e-07
-1.5224917e-07
2.9214568e-07
-1.5701251e-07
3.3877496e-07
-1.6121633e-07
3.9829524e-07
-1.6515159e-07
4.7276593e-07
-1.6912185e-07
5.6461749e-07
-1.7342229e-07
6.7682058e-07
-1.7832694e-07
8.1307308e-07
-1.8409048e-07
9.7799145e-07
-1.9095377e-07
1.1773077e-06
-1.9916788e-07
1.4180589e-06
-2.0901059e-07
1.7088609e-06
-2.2089727e-07
2.0602317e-06
-2.357665e-07
2.4863686e-06
-2.5546227e-07
3.0083147e-06
-2.8060174e-07
3.6600708e-06
-2.9697945e-07
4.4453768e-06
-2.5750224e-07
5.1454164e-06
-1.2022713e-07
4.8940576e-06
2.2461422e-06
-9.1447987e-12
3.9115695e-10
-4.0459879e-11
1.32418e-09
-1.0139705e-10
2.5461405e-09
-2.0191169e-10
4.1251317e-09
-3.5466592e-10
6.1418875e-09
-5.7578971e-10
8.6908374e-09
-8.8579099e-10
1.1880566e-08
-1.3106638e-09
1.583324e-08
-1.8832218e-09
2.0682388e-08
-2.6446623e-09
2.6568265e-08
-3.6463352e-09
3.3629821e-08
-4.9516113e-09
4.1992273e-08
-6.6376402e-09
5.1749367e-08
-8.7965899e-09
6.2939986e-08
-1.1535725e-08
7.551993e-08
-1.4975341e-08
8.9331756e-08
-1.9243284e-08
1.0407858e-07
-2.446473e-08
1.1931127e-07
-3.0746316e-08
1.3444104e-07
-3.8155014e-08
1.4878935e-07
-4.6694413e-08
1.6168064e-07
-5.6283753e-08
1.7257078e-07
-6.6746736e-08
1.8118789e-07
-7.7816265e-08
1.8764986e-07
-8.9157161e-08
1.925244e-07
-1.004031e-07
1.9681504e-07
-1.1119954e-07
2.0188198e-07
-1.2124318e-07
2.0932783e-07
-1.3031133e-07
2.2088381e-07
-1.3827868e-07
2.3832399e-07
-1.4512217e-07
2.6342037e-07
-1.5091644e-07
2.9794001e-07
-1.5582206e-07
3.4368054e-07
-1.600676e-07
4.0254065e-07
-1.6392708e-07
4.7662522e-07
-1.6769487e-07
5.6838508e-07
-1.7166261e-07
6.8078814e-07
-1.7610257e-07
8.1751287e-07
-1.8126305e-07
9.8315184e-07
-1.8737356e-07
1.1834182e-06
-1.9465891e-07
1.4253442e-06
-2.0338494e-07
1.7175871e-06
-2.1396256e-07
2.0708093e-06
-2.2734526e-07
2.4997517e-06
-2.4506499e-07
3.0260346e-06
-2.6627488e-07
3.6812813e-06
-2.7517472e-07
4.4542769e-06
-2.2893694e-07
5.0991791e-06
-9.9787834e-08
4.7649085e-06
2.1463544e-06
-8.6790771e-12
3.9976745e-10
-3.8372842e-11
1.3538638e-09
-9.6121751e-11
2.6041514e-09
-1.9138486e-10
4.2207898e-09
-3.3618318e-10
6.2871331e-09
-5.4582882e-10
8.9009245e-09
-8.3979318e-10
1.2174924e-08
-1.2427632e-09
1.623653e-08
-1.7859211e-09
2.1225784e-08
-2.5084536e-09
2.7290955e-08
-3.4592709e-09
3.4580728e-08
-4.6988496e-09
4.3231893e-08
-6.3010164e-09
5.3351545e-08
-8.3543179e-09
6.4993284e-08
-1.0962371e-08
7.8127976e-08
-1.424233e-08
9.2611698e-08
-1.8320227e-08
1.0815644e-07
-2.3321885e-08
1.2431285e-07
-2.9358393e-08
1.4047741e-07
-3.6506173e-08
1.5593693e-07
-4.478381e-08
1.6995801e-07
-5.4130379e-08
1.8191704e-07
-6.4391873e-08
1.9144908e-07
-7.5322245e-08
1.9857998e-07
-8.6602068e-08
2.0380409e-07
-9.7872259e-08
2.0808525e-07
-1.0877547e-07
2.1278535e-07
-1.1899597e-07
2.195486e-07
-1.282908e-07
2.3017894e-07
-1.3650881e-07
2.4654229e-07
-1.4359804e-07
2.7050979e-07
-1.4960346e-07
3.0394552e-07
-1.546575e-07
3.4873456e-07
-1.5896455e-07
4.0684759e-07
-1.6278051e-07
4.8044097e-07
-1.6638857e-07
5.7199295e-07
-1.7007539e-07
6.8447477e-07
-1.7411167e-07
8.215489e-07
-1.7874202e-07
9.8778193e-07
-1.8418882e-07
1.1888648e-06
-1.9066285e-07
1.4318181e-06
-1.9842494e-07
1.7253492e-06
-2.0790053e-07
2.0802848e-06
-2.2001276e-07
2.5118642e-06
-2.3593823e-07
3.0419602e-06
-2.5350171e-07
3.6988454e-06
-2.5604331e-07
4.4568188e-06
-2.051229e-07
5.0482593e-06
-8.3975753e-08
4.6437614e-06
2.0623787e-06
-8.2699583e-12
4.0796344e-10
-3.6537517e-11
1.3821193e-09
-9.1478926e-11
2.6593725e-09
-1.8211755e-10
4.3118503e-09
-3.1990973e-10
6.4254034e-09
-5.1944815e-10
9.100934e-09
-7.9928755e-10
1.2455184e-08
-1.182962e-09
1.6620548e-08
-1.7002114e-09
2.1743288e-08
-2.388441e-09
2.7979354e-08
-3.2943894e-09
3.5486774e-08
-4.4759479e-09
4.4413496e-08
-6.0039526e-09
5.4879564e-08
-7.9636517e-09
6.695298e-08
-1.0455285e-08
8.06196e-08
-1.3592976e-08
9.5749369e-08
-1.7500775e-08
1.120642e-07
-2.2304566e-08
1.2911655e-07
-2.8118731e-08
1.4629141e-07
-3.5027383e-08
1.6284534e-07
-4.3061842e-08
1.7799216e-07
-5.2178525e-08
1.9103337e-07
-6.2243572e-08
2.0151377e-07
-7.3030698e-08
2.0936681e-07
-8.4236161e-08
2.1500939e-07
-9.5509357e-08
2.1935845e-07
-1.0649252e-07
2.2376869e-07
-1.1686066e-07
2.2991703e-07
-1.2635405e-07
2.3967269e-07
-1.3479932e-07
2.5498788e-07
-1.4211885e-07
2.778296e-07
-1.4833072e-07
3.1015755e-07
-1.5354112e-07
3.5394498e-07
-1.57931e-07
4.1123736e-07
-1.6173758e-07
4.8424737e-07
-1.6523185e-07
5.7548697e-07
-1.6869432e-07
6.879369e-07
-1.7239378e-07
8.2524805e-07
-1.7657358e-07
9.9196142e-07
-1.8145279e-07
1.1937438e-06
-1.8723817e-07
1.4376032e-06
-1.941909e-07
1.7323019e-06
-2.0275732e-07
2.088851e-06
-2.1379382e-07
2.5229009e-06
-2.2808861e-07
3.056255e-06
-2.4232211e-07
3.7130793e-06
-2.3949686e-07
4.4539938e-06
-1.8542658e-07
4.9941894e-06
-7.1819729e-08
4.5301547e-06
1.9905589e-06
-7.9070927e-12
4.1579141e-10
-3.4908234e-11
1.4091066e-09
-8.735416e-11
2.712116e-09
-1.7388173e-10
4.3988276e-09
-3.0544691e-10
6.5574784e-09
-4.9600162e-10
9.2919913e-09
-7.6328662e-10
1.2722918e-08
-1.1298089e-09
1.6987437e-08
-1.6240223e-09
2.2237775e-08
-2.2817396e-09
2.8637253e-08
-3.147755e-09
3.6352897e-08
-4.2776321e-09
4.5543425e-08
-5.7395014e-09
5.6341452e-08
-7.6155976e-09
6.8829077e-08
-1.0003026e-08
8.3007019e-08
-1.3013011e-08
9.8759329e-08
-1.6767537e-08
1.1581867e-07
-2.1392125e-08
1.3374103e-07
-2.7003564e-08
1.5190267e-07
-3.3692255e-08
1.6953376e-07
-4.1500394e-08
1.8579995e-07
-5.039967e-08
1.9993224e-07
-6.0274451e-08
2.1138813e-07
-7.0916965e-08
2.2000897e-07
-8.2038889e-08
2.2613112e-07
-9.3298941e-08
2.306185e-07
-1.0434082e-07
2.3481075e-07
-1.1483283e-07
2.4040936e-07
-1.2450145e-07
2.493417e-07
-1.3315418e-07
2.6364101e-07
-1.4069086e-07
2.853666e-07
-1.4710529e-07
3.1657218e-07
-1.5247943e-07
3.5931915e-07
-1.5697188e-07
4.1572971e-07
-1.6080138e-07
4.8807666e-07
-1.6422589e-07
5.7891116e-07
-1.675188e-07
6.9122945e-07
-1.7094687e-07
8.2867576e-07
-1.7475377e-07
9.9576798e-07
-1.7915844e-07
1.1981483e-06
-1.8437091e-07
1.4428153e-06
-1.9065755e-07
1.7385883e-06
-1.9848196e-07
2.0966751e-06
-2.0860701e-07
2.5330259e-06
-2.2141167e-07
3.0690597e-06
-2.3262713e-07
3.7242951e-06
-2.2528157e-07
4.4466485e-06
-1.6917739e-07
4.9380855e-06
-6.250401e-08
4.4234815e-06
1.9280548e-06
-7.5827127e-12
4.2328995e-10
-3.3450125e-11
1.4349585e-09
-8.3660115e-11
2.7626416e-09
-1.6650441e-10
4.4821492e-09
-2.9249145e-10
6.6840063e-09
-4.749993e-10
9.4750322e-09
-7.3103931e-10
1.2979435e-08
-1.0821955e-09
1.7338983e-08
-1.5557676e-09
2.2711638e-08
-2.1861358e-09
2.9267816e-08
-3.0163393e-09
3.7183215e-08
-4.0998345e-09
4.6626977e-08
-5.5022927e-09
5.7743931e-08
-7.3031793e-09
7.0629969e-08
-9.5966904e-09
8.5300522e-08
-1.2491286e-08
1.016539e-07
-1.6106852e-08
1.1943418e-07
-2.0568242e-08
1.382023e-07
-2.5993981e-08
1.5732821e-07
-3.2479627e-08
1.7601911e-07
-4.0076692e-08
1.9339661e-07
-4.8770366e-08
2.0862545e-07
-5.846157e-08
2.2107886e-07
-6.8959863e-08
2.3050685e-07
-7.9991946e-08
2.3716295e-07
-9.1226433e-08
2.4185295e-07
-1.0230987e-07
2.4589436e-07
-1.1290596e-07
2.510058e-07
-1.2272992e-07
2.5916611e-07
-1.3157282e-07
2.7248437e-07
-1.3931463e-07
2.9310878e-07
-1.459273e-07
3.231851e-07
-1.5147061e-07
3.6486255e-07
-1.5608219e-07
4.2034122e-07
-1.5996274e-07
4.9195703e-07
-1.6335683e-07
5.8230497e-07
-1.6653019e-07
6.944024e-07
-1.6974701e-07
8.3189215e-07
-1.7325234e-07
9.9927286e-07
-1.7726771e-07
1.2021634e-06
-1.8201097e-07
1.4475582e-06
-1.8775717e-07
1.7443342e-06
-1.949777e-07
2.1038953e-06
-2.0432233e-07
2.5423705e-06
-2.1575374e-07
3.0804911e-06
-2.2423732e-07
3.7327789e-06
-2.13077e-07
4.4354885e-06
-1.5574102e-07
4.8807498e-06
-5.5353562e-08
4.323094e-06
1.8727011e-06
-7.2907568e-12
4.3049147e-10
-3.2136259e-11
1.4597869e-09
-8.0328563e-11
2.8111674e-09
-1.5984972e-10
4.5621746e-09
-2.8080438e-10
6.8055322e-09
-4.5605293e-10
9.6508442e-09
-7.0194819e-10
1.3225834e-08
-1.039242e-09
1.767669e-08
-1.4941894e-09
2.3166894e-08
-2.0998711e-09
2.9873707e-08
-2.8977362e-09
3.7981205e-08
-3.9393231e-09
4.766863e-08
-5.288052e-09
5.9092689e-08
-7.0208478e-09
7.2362774e-08
-9.2291912e-09
8.7508859e-08
-1.2018914e-08
1.044436e-07
-1.5507814e-08
1.2292301e-07
-1.9819853e-08
1.4251421e-07
-2.5074753e-08
1.6258288e-07
-3.1372307e-08
1.8231632e-07
-3.8772063e-08
2.0079593e-07
-4.7271207e-08
2.1712407e-07
-5.6785739e-08
2.3059284e-07
-6.7141358e-08
2.4086198e-07
-7.8079361e-08
2.4810061e-07
-8.9278541e-08
2.5305204e-07
-1.0038943e-07
2.570054e-07
-1.1107284e-07
2.6168956e-07
-1.210348e-07
2.6912858e-07
-1.3005228e-07
2.8150238e-07
-1.3798764e-07
3.0104462e-07
-1.4479335e-07
3.2999112e-07
-1.5050893e-07
3.7057823e-07
-1.5525238e-07
4.2508462e-07
-1.5920719e-07
4.959116e-07
-1.6260441e-07
5.8570186e-07
-1.6570156e-07
6.9749908e-07
-1.6875979e-07
8.3494995e-07
-1.7202614e-07
1.0025387e-06
-1.7572695e-07
1.2058638e-06
-1.8009026e-07
1.4519211e-06
-1.8540156e-07
1.7496452e-06
-1.9212782e-07
2.1106211e-06
-2.0079091e-07
2.5510335e-06
-2.1094255e-07
3.0906425e-06
-2.1694533e-07
3.7387817e-06
-2.0255037e-07
4.4210936e-06
-1.4455658e-07
4.8227562e-06
-4.9831427e-08
4.2283688e-06
1.8228697e-06
-7.0256699e-12
4.3742352e-10
-3.0943534e-11
1.4836866e-09
-7.7303275e-11
2.8578786e-09
-1.5380602e-10
4.6392091e-09
-2.701907e-10
6.9225192e-09
-4.3884836e-10
9.820096e-09
-6.7553417e-10
1.3463051e-08
-1.0002433e-09
1.8001834e-08
-1.438281e-09
2.3605258e-08
-2.0215446e-09
3.0457193e-08
-2.7900322e-09
3.8749828e-08
-3.7935292e-09
4.8672199e-08
-5.0933895e-09
6.0392582e-08
-6.7641884e-09
7.4033583e-08
-8.8948694e-09
8.9639536e-08
-1.1588777e-08
1.0713747e-07
-1.4961638e-08
1.262958e-07
-1.9136372e-08
1.4668879e-07
-2.4233472e-08
1.6767973e-07
-3.0356222e-08
1.884387e-07
-3.757114e-08
2.0801035e-07
-4.588607e-08
2.2543841e-07
-5.5230719e-08
2.3993688e-07
-6.5445944e-08
2.5107665e-07
-7.6287068e-08
2.5894132e-07
-8.7443268e-08
2.6420807e-07
-9.8569862e-08
2.681321e-07
-1.0932615e-07
2.7244621e-07
-1.1941077e-07
2.7921374e-07
-1.285885e-07
2.9068073e-07
-1.3670623e-07
3.091629e-07
-1.436988e-07
3.3698408e-07
-1.4958725e-07
3.7646687e-07
-1.5447151e-07
4.2996885e-07
-1.5851854e-07
4.9995839e-07
-1.6194618e-07
5.8912914e-07
-1.6500324e-07
7.0055568e-07
-1.6794768e-07
8.3789388e-07
-1.7102839e-07
1.0056189e-06
-1.7447805e-07
1.209313e-06
-1.7853591e-07
1.4559786e-06
-1.8349761e-07
1.7546066e-06
-1.8981314e-07
2.1169362e-06
-1.9786535e-07
2.5590855e-06
-2.0681038e-07
3.0995873e-06
-2.1054871e-07
3.74252e-06
-1.9339574e-07
4.4039407e-06
-1.351559e-07
4.7645164e-06
-4.5521508e-08
4.1387345e-06
1.7773481e-06
-6.7845957e-12
4.441097e-10
-2.9856276e-11
1.5067389e-09
-7.4542163e-11
2.9029343e-09
-1.482887e-10
4.7135145e-09
-2.6050106e-10
7.0353647e-09
-4.2314238e-10
9.9833616e-09
-6.5142235e-10
1.3691889e-08
-9.646447e-10
1.8315514e-08
-1.3872451e-09
2.4028203e-08
-1.9500395e-09
3.1020224e-08
-2.6916948e-09
3.9491629e-08
-3.6603851e-09
4.964097e-08
-4.9155589e-09
6.1647795e-08
-6.5296136e-09
7.5647651e-08
-8.5891276e-09
9.1699044e-08
-1.1195072e-08
1.0974339e-07
-1.4461155e-08
1.295618e-07
-1.8509129e-08
1.5073661e-07
-2.3459937e-08
1.7263027e-07
-2.941973e-08
1.943981e-07
-3.6461064e-08
2.1505116e-07
-4.4601311e-08
2.3357804e-07
-5.3782756e-08
2.4911764e-07
-6.3860338e-08
2.611536e-07
-7.4602853e-08
2.6968336e-07
-8.5709912e-08
2.7531491e-07
-9.6842285e-08
2.7926455e-07
-1.0765891e-07
2.832632e-07
-1.1785248e-07
2.8940789e-07
-1.2717726e-07
3.0000619e-07
-1.3546638e-07
3.1745262e-07
-1.4263878e-07
3.4415696e-07
-1.486987e-07
3.8252705e-07
-1.5372926e-07
4.3499942e-07
-1.5788182e-07
5.0411074e-07
-1.6136135e-07
5.9260826e-07
-1.6440775e-07
7.0360162e-07
-1.6727534e-07
8.4076094e-07
-1.7021493e-07
1.008558e-06
-1.7346606e-07
1.2125637e-06
-1.7727931e-07
1.4597913e-06
-1.8195822e-07
1.7592851e-06
-1.8792408e-07
2.1229018e-06
-1.9541258e-07
2.5665738e-06
-2.0320765e-07
3.1073821e-06
-2.0486663e-07
3.7441788e-06
-1.8534871e-07
4.3844228e-06
-1.2715909e-07
4.7063269e-06
-4.2105702e-08
4.0536809e-06
1.7352425e-06
-6.5637499e-12
4.5057042e-10
-2.8859825e-11
1.5290141e-09
-7.200983e-11
2.9464717e-09
-1.4322625e-10
4.7853174e-09
-2.516096e-10
7.1444122e-09
-4.0873036e-10
1.0141137e-08
-6.292966e-10
1.3913042e-08
-9.3197895e-10
1.8618679e-08
-1.3404158e-09
2.4437003e-08
-1.8844287e-09
3.1564487e-08
-2.6014583e-09
4.0208813e-08
-3.5381911e-09
5.057779e-08
-4.752314e-09
6.2861959e-08
-6.3141946e-09
7.7209548e-08
-8.3081942e-09
9.3693039e-08
-1.0833041e-08
1.122682e-07
-1.4000459e-08
1.3272913e-07
-1.7930977e-08
1.5466695e-07
-2.2745707e-08
1.7744471e-07
-2.8553155e-08
2.0020512e-07
-3.5431141e-08
2.2192858e-07
-4.3405576e-08
2.4155179e-07
-5.243022e-08
2.5814153e-07
-6.2373215e-08