/*--------------------------------*- C++ -*----------------------------------*\
| =========                 |                                                 |
| \\      /  F ield         | OpenFOAM: The Open Source CFD Toolbox           |
|  \\    /   O peration     | Version:  4.0                                   |
|   \\  /    A nd           | Web:      www.OpenFOAM.org                      |
|    \\/     M anipulation  |                                                 |
\*---------------------------------------------------------------------------*/
FoamFile
{
    version     2.0;
    format      ascii;
    class       volScalarField;
    location    "792";
    object      Qr;
}
// * * * * * * * * * * * * * * * * * * * * * * * * * * * * * * * * * * * * * //

dimensions      [1 0 -3 0 0 0 0];

internalField   uniform 0;

boundaryField
{
    LeftWedge
    {
        type            wedge;
    }
    RightWedge
    {
        type            wedge;
    }
    Inlet
    {
        type            calculated;
        value           nonuniform List<scalar> 
50
(
38.505956
38.505958
38.505962
38.505967
38.505974
38.505981
38.505989
38.505996
38.506003
38.506008
38.506012
38.506015
38.506015
38.506014
38.506011
38.506008
38.506004
38.506
38.505996
38.505993
38.505989
38.505987
38.505985
38.505983
38.505982
38.505982
38.505981
38.505981
38.50598
38.50598
38.50598
38.50598
38.505979
38.505979
38.505979
38.505979
38.505979
38.505979
38.505978
38.505978
38.505978
38.505978
38.505978
38.505978
38.505977
38.505977
38.505977
38.505976
38.505976
38.505973
)
;
    }
    Outlet
    {
        type            calculated;
        value           nonuniform List<scalar> 
50
(
-1573.5485
-1531.221
-1486.5478
-1439.5342
-1390.2024
-1338.5912
-1284.7569
-1228.7728
-1170.731
-1110.7448
-1048.9526
-985.52431
-920.66901
-854.64336
-787.75932
-720.38947
-652.96864
-585.99149
-520.00635
-455.60632
-393.41731
-334.0823
-278.23957
-226.49308
-179.37495
-137.3032
-100.54068
-69.16356
-43.047419
-21.876372
-5.1752833
7.641539
17.210039
24.161781
29.079944
32.470749
34.75069
36.246729
37.205136
37.804683
38.17089
38.389212
38.516167
38.588112
38.627799
38.649066
38.660064
38.665412
38.667614
38.668034
)
;
    }
    Outterwall
    {
        type            calculated;
        value           nonuniform List<scalar> 
100
(
38.506821
38.508498
38.510172
38.51185
38.513529
38.51521
38.516891
38.518573
38.520256
38.521938
38.52362
38.525302
38.526983
38.528665
38.530346
38.532027
38.533708
38.535389
38.53707
38.538751
38.540432
38.542113
38.543794
38.545475
38.547156
38.548837
38.550518
38.552199
38.553879
38.55556
38.557241
38.558922
38.560603
38.562284
38.563965
38.565646
38.567326
38.569007
38.570688
38.572368
38.574049
38.575729
38.577409
38.579089
38.580769
38.582449
38.584128
38.585807
38.587486
38.589164
38.590842
38.592519
38.594195
38.595871
38.597546
38.59922
38.600892
38.602564
38.604234
38.605903
38.60757
38.609235
38.610898
38.612559
38.614218
38.615874
38.617527
38.619176
38.620823
38.622465
38.624104
38.625738
38.627367
38.628992
38.63061
38.632223
38.63383
38.63543
38.637023
38.638608
38.640185
38.641753
38.643312
38.644861
38.646399
38.647927
38.649442
38.650946
38.652436
38.653912
38.655374
38.656821
38.658251
38.659664
38.661059
38.662435
38.66379
38.665127
38.66643
38.668033
)
;
    }
    fluid_to_cencil
    {
        type            calculated;
        value           nonuniform List<scalar> 
100
(
-857.90088
-1108.8756
-1173.0736
-1205.5954
-1229.044
-1247.4261
-1262.511
-1275.1925
-1286.0961
-1295.6273
-1304.0763
-1311.6506
-1318.505
-1324.7573
-1330.4989
-1335.8025
-1340.7263
-1345.3183
-1349.6176
-1353.6574
-1357.4654
-1361.0652
-1364.4772
-1367.7189
-1370.8054
-1373.7502
-1376.5649
-1379.2599
-1381.8443
-1384.3264
-1386.7135
-1389.0121
-1391.2282
-1393.3673
-1395.434
-1397.433
-1399.3682
-1401.2433
-1403.0617
-1404.8266
-1406.5409
-1408.2071
-1409.8278
-1411.4052
-1412.9414
-1414.4385
-1415.8981
-1417.3222
-1418.7121
-1420.0696
-1421.3958
-1422.6922
-1423.96
-1425.2003
-1426.4143
-1427.603
-1428.7673
-1429.9081
-1431.0264
-1432.123
-1433.1986
-1434.254
-1435.2898
-1436.3068
-1437.3056
-1438.2868
-1439.2509
-1440.1985
-1441.1302
-1442.0464
-1442.9475
-1443.8342
-1444.7067
-1445.5656
-1446.4111
-1447.2438
-1448.0639
-1448.8718
-1449.6678
-1450.4524
-1451.2256
-1451.988
-1452.7398
-1453.4811
-1454.2124
-1454.9338
-1455.6457
-1456.3482
-1457.0416
-1457.7261
-1458.4019
-1459.0693
-1459.7284
-1460.3801
-1461.0226
-1461.6715
-1462.2771
-1463.2099
-1463.2224
-1471.874
)
;
    }
}


// ************************************************************************* //
