/*--------------------------------*- C++ -*----------------------------------*\
| =========                 |                                                 |
| \\      /  F ield         | OpenFOAM: The Open Source CFD Toolbox           |
|  \\    /   O peration     | Version:  4.0                                   |
|   \\  /    A nd           | Web:      www.OpenFOAM.org                      |
|    \\/     M anipulation  |                                                 |
\*---------------------------------------------------------------------------*/
FoamFile
{
    version     2.0;
    format      ascii;
    class       volScalarField;
    location    "792";
    object      rho;
}
// * * * * * * * * * * * * * * * * * * * * * * * * * * * * * * * * * * * * * //

dimensions      [1 -3 0 0 0 0 0];

internalField   nonuniform List<scalar> 
5000
(
0.99778769
1.0083194
1.0197445
1.0320259
1.0450872
1.0588074
1.0730165
1.0874956
1.1019823
1.1161825
1.1297896
1.1425087
1.154083
1.1643191
1.1731036
1.1804109
1.1862974
1.1908863
1.1943454
1.1968643
1.1986333
1.1998283
1.200602
1.2010796
1.2013586
1.2015115
1.201589
1.2016248
1.2016394
1.2016444
1.2016456
1.2016458
1.2016456
1.2016456
1.2016455
1.2016455
1.2016455
1.2016455
1.2016455
1.2016455
1.2016455
1.2016455
1.2016455
1.2016455
1.2016455
1.2016455
1.2016455
1.2016455
1.2016455
1.2016455
0.96222629
0.96973413
0.97793244
0.98688755
0.99666544
1.0073258
1.0189133
1.0314459
1.0448998
1.0591938
1.0741731
1.0895998
1.1051517
1.1204372
1.1350274
1.1485035
1.1605108
1.1708069
1.1792898
1.1859986
1.1910892
1.1947938
1.197378
1.1991036
1.200204
1.2008717
1.2012551
1.201462
1.2015659
1.2016138
1.2016338
1.2016411
1.2016434
1.201644
1.201644
1.201644
1.201644
1.201644
1.201644
1.201644
1.201644
1.201644
1.201644
1.201644
1.201644
1.201644
1.201644
1.201644
1.201644
1.201644
0.95405982
0.96087452
0.96828949
0.97635213
0.98511156
0.99461709
1.0049155
1.0160464
1.0280349
1.0408808
1.0545448
1.0689318
1.0838741
1.0991203
1.1143344
1.1291143
1.1430291
1.1556743
1.1667306
1.1760102
1.1834764
1.1892319
1.1934823
1.1964888
1.1985247
1.1998427
1.200656
1.2011324
1.2013957
1.2015319
1.2015972
1.2016258
1.2016371
1.201641
1.2016422
1.2016425
1.2016425
1.2016425
1.2016425
1.2016425
1.2016425
1.2016425
1.2016425
1.2016425
1.2016425
1.2016425
1.2016425
1.2016425
1.2016425
1.2016425
0.95004757
0.95652592
0.96356731
0.97121367
0.97950776
0.988492
0.9982066
1.0086866
1.0199576
1.0320292
1.0448866
1.0584787
1.0727046
1.0873991
1.1023228
1.1171603
1.1315348
1.1450418
1.1572995
1.1680051
1.1769804
1.1841924
1.1897428
1.1938335
1.1967204
1.1986704
1.1999294
1.2007044
1.2011573
1.2014071
1.2015361
1.2015979
1.201625
1.2016357
1.2016395
1.2016407
1.201641
1.201641
1.201641
1.201641
1.201641
1.201641
1.201641
1.201641
1.201641
1.201641
1.201641
1.201641
1.201641
1.201641
0.94720429
0.95344546
0.96022474
0.96758156
0.97555613
0.98418847
0.99351677
1.003575
1.0143893
1.0259732
1.0383206
1.0513971
1.0651289
1.0793911
1.0939967
1.1086897
1.1231487
1.1370053
1.1498794
1.1614286
1.1713986
1.1796609
1.1862248
1.1912207
1.1948633
1.1974072
1.1991081
1.2001952
1.2008574
1.2012402
1.2014489
1.2015552
1.2016054
1.2016271
1.2016355
1.2016384
1.2016393
1.2016395
1.2016395
1.2016395
1.2016395
1.2016395
1.2016395
1.2016395
1.2016395
1.2016395
1.2016395
1.2016395
1.2016395
1.2016395
0.94500353
0.9510617
0.95763912
0.96477353
0.97250353
0.98086773
0.98990339
0.99964435
1.010118
1.0213411
1.0333137
1.046012
1.0593785
1.0733118
1.0876555
1.1021912
1.1166367
1.1306565
1.1438872
1.1559773
1.1666351
1.1756716
1.1830266
1.1887667
1.1930607
1.1961393
1.1982544
1.1996456
1.2005201
1.2010437
1.2013408
1.2014994
1.2015783
1.2016146
1.2016298
1.2016355
1.2016373
1.2016379
1.201638
1.201638
1.201638
1.201638
1.201638
1.201638
1.201638
1.201638
1.201638
1.201638
1.201638
1.201638
0.94321558
0.94912542
0.95553935
0.96249378
0.97002602
0.97817359
0.98697303
0.99645809
1.0066571
1.0175894
1.0292599
1.0416527
1.0547222
1.0683838
1.0825032
1.0968887
1.111287
1.1253892
1.1388494
1.1513175
1.1624824
1.1721165
1.1801078
1.1864705
1.1913297
1.1948887
1.1973884
1.1990714
1.2001562
1.2008239
1.2012149
1.2014314
1.2015438
1.201598
1.201622
1.2016317
1.2016351
1.2016362
1.2016364
1.2016365
1.2016365
1.2016365
1.2016365
1.2016365
1.2016365
1.2016365
1.2016365
1.2016365
1.2016365
1.2016365
0.94172482
0.94751122
0.9537892
0.96059403
0.96796198
0.97592962
0.98453284
0.99380523
1.0037758
1.0144656
1.0258832
1.0380187
1.0508357
1.0642626
1.0781822
1.0924237
1.1067569
1.1208953
1.1345093
1.1472544
1.1588095
1.1689203
1.1774363
1.1843281
1.1896819
1.1936729
1.1965278
1.1984871
1.1997763
1.2005879
1.2010753
1.2013532
1.2015025
1.2015774
1.2016122
1.2016269
1.2016324
1.2016343
1.2016349
1.201635
1.201635
1.201635
1.201635
1.201635
1.201635
1.201635
1.201635
1.201635
1.201635
1.201635
0.94045189
0.94613308
0.95229521
0.95897263
0.96620068
0.97401512
0.98245124
0.99154238
1.0013179
1.0118003
1.0230009
1.0349142
1.0475113
1.0607307
1.0744693
1.0885729
1.102831
1.1169762
1.1306945
1.1436486
1.1555127
1.1660142
1.1749722
1.1823213
1.188113
1.1924955
1.1956793
1.1979
1.1993864
1.20034
1.2009248
1.2012663
1.201455
1.2015529
1.2016001
1.201621
1.2016293
1.2016323
1.2016332
1.2016335
1.2016335
1.2016335
1.2016335
1.2016335
1.2016335
1.2016335
1.2016335
1.2016335
1.2016335
1.2016335
0.93934576
0.94493565
0.9509973
0.95756424
0.96467103
0.97235269
0.98064393
0.98957784
0.99918402
1.0094859
1.0204969
1.0322153
1.0446179
1.0576516
1.0712244
1.0851967
1.0993742
1.1135065
1.1272943
1.1404085
1.152522
1.1633491
1.1726854
1.1804348
1.1866179
1.1913572
1.1948465
1.1973144
1.1989909
1.2000836
1.2007658
1.2011723
1.2014022
1.2015248
1.2015858
1.2016139
1.2016256
1.20163
1.2016315
1.2016319
1.201632
1.201632
1.201632
1.201632
1.201632
1.201632
1.201632
1.201632
1.201632
1.201632
0.93837028
0.94387975
0.94985294
0.95632266
0.96332273
0.97088755
0.97905129
0.98784675
0.99730366
1.0074462
1.0182893
1.0298345
1.042063
1.0549286
1.068349
1.0821966
1.0962912
1.1103975
1.1242297
1.1374676
1.149785
1.1608874
1.1705511
1.1786545
1.1851903
1.1902569
1.1940312
1.1967333
1.1985925
1.1998212
1.2006
1.2010721
1.2013446
1.2014933
1.2015695
1.2016056
1.2016213
1.2016275
1.2016297
1.2016303
1.2016305
1.2016305
1.2016305
1.2016305
1.2016305
1.2016305
1.2016305
1.2016305
1.2016305
1.2016305
0.93749975
0.94293756
0.94883192
0.95521502
0.96212006
0.96958082
0.977631
0.9863031
0.99562687
1.005627
1.01632
1.0277094
1.0397806
1.0524932
1.0657727
1.079502
1.0935134
1.1075848
1.121443
1.1347769
1.1472629
1.1586002
1.1685501
1.1769689
1.1838247
1.1891929
1.1932338
1.1961582
1.1981933
1.1995545
1.2004289
1.2009669
1.2012828
1.2014588
1.201551
1.2015961
1.2016164
1.2016247
1.2016277
1.2016287
1.201629
1.201629
1.201629
1.201629
1.201629
1.201629
1.201629
1.201629
1.201629
1.201629
0.93671516
0.94208844
0.94791186
0.95421702
0.96103656
0.96840372
0.97635172
0.98491279
0.99411666
1.0039884
1.0145456
1.0257939
1.0377219
1.0502941
1.0634429
1.0770601
1.090989
1.1050195
1.1188901
1.1322986
1.144925
1.1564646
1.1666667
1.1753686
1.182516
1.1881635
1.1924546
1.1955903
1.1977946
1.1992851
1.2002536
1.2008575
1.2012174
1.2014214
1.2015307
1.2015855
1.2016109
1.2016216
1.2016257
1.201627
1.2016274
1.2016275
1.2016275
1.2016275
1.2016275
1.2016275
1.2016275
1.2016275
1.2016275
1.2016275
0.93600212
0.94131681
0.94707583
0.95331027
0.96005223
0.96733447
0.97518978
0.98365008
0.99274507
1.0025002
1.0129337
1.0240532
1.0358498
1.0482925
1.0613195
1.0748305
1.0886784
1.1026641
1.1165368
1.130003
1.1427472
1.1544623
1.164888
1.1738452
1.18126
1.1871668
1.1916933
1.1950304
1.1973977
1.1990139
1.2000751
1.2007445
1.2011488
1.2013816
1.2015086
1.2015737
1.2016046
1.2016181
1.2016234
1.2016253
1.2016258
1.201626
1.201626
1.201626
1.201626
1.201626
1.201626
1.201626
1.201626
1.201626
0.93534948
0.94061059
0.94631075
0.95248054
0.95915161
0.96635625
0.97412684
0.98249505
0.99149045
1.0011387
1.011459
1.02246
1.0341356
1.0464581
1.0593712
1.0727815
1.0865504
1.1004888
1.1143557
1.1278664
1.1407097
1.152578
1.1632031
1.172392
1.1800526
1.1862012
1.1909498
1.1944788
1.1970032
1.1987418
1.1998942
1.2006287
1.2010775
1.2013396
1.2014849
1.2015608
1.2015977
1.2016143
1.201621
1.2016235
1.2016243
1.2016245
1.2016245
1.2016245
1.2016245
1.2016245
1.2016245
1.2016245
1.2016245
1.2016245
0.93474845
0.93996027
0.94560627
0.95171662
0.9583225
0.96545578
0.97314848
0.98143198
0.99033576
0.99988567
1.0101014
1.0209931
1.0325564
1.0447671
1.0575734
1.0708879
1.0845801
1.0984696
1.1123248
1.125869
1.1387963
1.1507991
1.1616029
1.1710027
1.1788905
1.1852651
1.1902236
1.193936
1.1966119
1.1984696
1.1997116
1.2005105
1.2010039
1.2012956
1.2014597
1.2015468
1.2015902
1.2016101
1.2016185
1.2016216
1.2016227
1.2016229
1.201623
1.201623
1.201623
1.201623
1.201623
1.201623
1.201623
1.201623
0.934192
0.93935822
0.94495413
0.9510095
0.95755511
0.96462243
0.97224312
0.98044829
0.98926731
0.99872617
1.0088451
1.0196351
1.031094
1.0432002
1.0559059
1.0691295
1.0827472
1.096587
1.1104259
1.123995
1.1369935
1.1491147
1.1600795
1.1696723
1.1777704
1.1843568
1.1895142
1.1934019
1.1962241
1.1981978
1.1995276
1.2003903
1.2009283
1.2012498
1.2014331
1.2015319
1.201582
1.2016056
1.2016157
1.2016197
1.201621
1.2016214
1.2016215
1.2016215
1.2016215
1.2016215
1.2016215
1.2016215
1.2016215
1.2016215
0.93367439
0.93879823
0.94434759
0.95035189
0.9568415
0.96384754
0.97140134
0.97953375
0.988274
0.99764818
1.0076769
1.0183723
1.0297335
1.0417416
1.0543524
1.0674893
1.081035
1.0948248
1.1086438
1.1222306
1.1352897
1.1475158
1.1586261
1.168396
1.1766896
1.183475
1.1888211
1.1928768
1.1958403
1.1979269
1.1993429
1.2002687
1.2008511
1.2012025
1.2014052
1.2015161
1.2015733
1.2016007
1.2016128
1.2016176
1.2016193
1.2016199
1.20162
1.20162
1.20162
1.20162
1.20162
1.20162
1.20162
1.20162
0.9331909
0.93827518
0.94378111
0.94973775
0.95617512
0.96312401
0.97061541
0.97867992
0.98734666
0.99664178
1.0065863
1.017193
1.0284626
1.0403784
1.0528995
1.0659537
1.0794296
1.0931695
1.1069659
1.1205645
1.1336752
1.1459945
1.1572368
1.1671697
1.1756454
1.1826182
1.1881436
1.1923604
1.1954605
1.1976571
1.1991577
1.2001458
1.2007723
1.2011539
1.2013763
1.2014995
1.201564
1.2015955
1.2016097
1.2016155
1.2016176
1.2016183
1.2016185
1.2016185
1.2016185
1.2016185
1.2016185
1.2016185
1.2016185
1.2016185
0.93273761
0.93778482
0.94325007
0.94916206
0.95555053
0.96244589
0.96987886
0.97787979
0.98647768
0.99569869
1.0055642
1.0160876
1.0272711
1.0390997
1.0515357
1.064511
1.0779194
1.0916096
1.1053814
1.1189869
1.1321415
1.1445438
1.1559063
1.1659898
1.1746356
1.1817851
1.1874813
1.1918527
1.195085
1.1973888
1.1989724
1.200022
1.2006924
1.2011041
1.2013463
1.2014821
1.2015541
1.2015899
1.2016064
1.2016133
1.2016159
1.2016167
1.201617
1.201617
1.201617
1.201617
1.201617
1.201617
1.201617
1.201617
0.9323112
0.93732357
0.94275058
0.94862063
0.95496313
0.9618082
0.96918627
0.97712747
0.98566064
0.99481198
1.0046031
1.0150481
1.0261502
1.0378964
1.0502515
1.0631514
1.0764945
1.0901356
1.103881
1.1174894
1.1306813
1.1431578
1.15463
1.1648529
1.173658
1.1809745
1.1868336
1.1913536
1.1947138
1.1971221
1.1987871
1.1998975
1.2006114
1.2010532
1.2013154
1.201464
1.2015438
1.201584
1.2016029
1.2016109
1.2016141
1.2016151
1.2016154
1.2016155
1.2016155
1.2016155
1.2016155
1.2016155
1.2016155
1.2016155
0.93190887
0.93688839
0.94227934
0.94810985
0.95440903
0.96120671
0.96853305
0.97641795
0.98489011
0.99397575
1.0036967
1.0140676
1.0250927
1.0367607
1.0490388
1.0618664
1.0751464
1.088739
1.1024568
1.1160647
1.1292882
1.1418312
1.1534038
1.163756
1.1727106
1.1801853
1.1861998
1.1908629
1.194347
1.1968573
1.1986021
1.1997724
1.2005296
1.2010014
1.2012837
1.2014452
1.2015329
1.2015778
1.2015992
1.2016085
1.2016122
1.2016135
1.2016139
1.201614
1.201614
1.201614
1.201614
1.201614
1.201614
1.201614
0.93152822
0.93647668
0.94183355
0.94762669
0.95388492
0.96063781
0.96791526
0.97574695
0.98416144
0.99318494
1.0028395
1.0131402
1.0240923
1.0356859
1.0478907
1.0606488
1.0738677
1.0874127
1.101102
1.1147065
1.1279566
1.1405593
1.152224
1.1626966
1.1717916
1.1794164
1.1855795
1.1903803
1.1939847
1.1965943
1.1984175
1.199647
1.2004471
1.2009488
1.2012513
1.2014258
1.2015216
1.2015713
1.2015953
1.201606
1.2016103
1.2016119
1.2016124
1.2016125
1.2016125
1.2016125
1.2016125
1.2016125
1.2016125
1.2016125
0.93116719
0.93608621
0.94141077
0.94716849
0.95338793
0.96009839
0.96732952
0.97511078
0.98347063
0.99243523
1.0020268
1.0122609
1.0231436
1.0346663
1.0468009
1.0594925
1.0726523
1.0861503
1.0998105
1.1134091
1.1266817
1.1393379
1.1510875
1.1616722
1.1708994
1.1786668
1.1849721
1.1899057
1.1936266
1.1963333
1.1982335
1.1995213
1.2003639
1.2008955
1.2012181
1.2014059
1.2015099
1.2015645
1.2015912
1.2016034
1.2016084
1.2016102
1.2016108
1.201611
1.201611
1.201611
1.201611
1.201611
1.201611
1.201611
0.93082398
0.93571502
0.9410089
0.94673298
0.95291558
0.95958573
0.96677288
0.97450627
0.9828142
0.99172285
1.0012545
1.0114253
1.0222418
1.033697
1.0457644
1.0583919
1.0714944
1.0849464
1.0985769
1.1121677
1.125459
1.1381634
1.1499911
1.1606806
1.1700326
1.1779354
1.1843771
1.1894387
1.1932729
1.1960744
1.1980501
1.1993955
1.2002802
1.2008415
1.2011844
1.2013854
1.2014978
1.2015574
1.201587
1.2016006
1.2016064
1.2016086
1.2016093
1.2016095
1.2016095
1.2016095
1.2016095
1.2016095
1.2016095
1.2016095
0.93049702
0.93536143
0.9406261
0.94631816
0.95246569
0.9590975
0.96624278
0.9739306
0.98218914
0.99104451
1.0005191
1.0106295
1.0213829
1.0327734
1.0447764
1.0573423
1.0703893
1.0837962
1.0973967
1.110978
1.1242846
1.1370325
1.1489323
1.1597198
1.1691897
1.1772216
1.1837941
1.1889793
1.1929235
1.1958176
1.1978674
1.1992695
1.2001961
1.200787
1.2011501
1.2013645
1.2014854
1.2015501
1.2015826
1.2015978
1.2016043
1.2016069
1.2016077
1.201608
1.201608
1.201608
1.201608
1.201608
1.201608
1.201608
0.93018495
0.93502396
0.94026076
0.94592228
0.95203637
0.95863161
0.96573698
0.97338136
0.98159278
0.99039732
0.99981754
1.0098702
1.0205633
1.0318919
1.0438331
1.0563396
1.0693328
1.0826953
1.0962657
1.1098359
1.123155
1.1359422
1.1479087
1.1587881
1.1683694
1.1765244
1.1832224
1.1885272
1.1925783
1.1955628
1.1976854
1.1991437
1.2001116
1.200732
1.2011154
1.2013431
1.2014725
1.2015425
1.201578
1.2015949
1.2016022
1.2016051
1.2016061
1.2016065
1.2016065
1.2016065
1.2016065
1.2016065
1.2016065
1.2016065
0.92988656
0.93470129
0.93991146
0.94554381
0.95162595
0.95818626
0.9652535
0.97285637
0.98102278
0.98977876
0.99914695
1.0091444
1.0197797
1.031049
1.0429307
1.0553799
1.0683209
1.0816401
1.0951803
1.1087382
1.1220672
1.1348898
1.146918
1.1578836
1.1675705
1.1758431
1.1826618
1.1880822
1.1922373
1.1953102
1.1975043
1.1990179
1.2000268
1.2006765
1.2010801
1.2013213
1.2014594
1.2015346
1.2015733
1.2015919
1.2016001
1.2016034
1.2016046
1.2016049
1.201605
1.201605
1.201605
1.201605
1.201605
1.201605
0.92960077
0.93439225
0.93957695
0.94518137
0.95123295
0.95775983
0.96479058
0.97235374
0.98047708
0.98918657
0.99850494
1.0084495
1.0190294
1.0302416
1.0420662
1.0544601
1.0673504
1.080627
1.0941371
1.1076816
1.1210183
1.1338728
1.1459583
1.157005
1.1667921
1.175177
1.1821118
1.187644
1.1919003
1.1950597
1.1973241
1.1988922
1.1999418
1.2006206
1.2010445
1.2012992
1.201446
1.2015266
1.2015684
1.2015888
1.2015979
1.2016016
1.201603
1.2016034
1.2016035
1.2016035
1.2016036
1.2016036
1.2016036
1.2016036
0.92932663
0.93409583
0.9392561
0.94483375
0.95085603
0.95735087
0.96434667
0.97187177
0.97995382
0.98861875
0.99788934
1.0077832
1.0183099
1.0294673
1.0412367
1.0535771
1.0664182
1.0796532
1.0931331
1.1066634
1.1200058
1.1328891
1.1450278
1.1561507
1.166033
1.1745254
1.181572
1.1872125
1.1915673
1.1948113
1.1971448
1.1987667
1.1998566
1.2005644
1.2010084
1.2012767
1.2014322
1.2015183
1.2015634
1.2015856
1.2015956
1.2015998
1.2016014
1.2016019
1.201602
1.201602
1.2016021
1.2016021
1.2016021
1.2016021
0.92906329
0.9338111
0.93894791
0.94449988
0.95049403
0.95695813
0.96392037
0.97140894
0.97945137
0.98807352
0.99729823
1.0071433
1.0176188
1.0287234
1.0404397
1.0527284
1.0655216
1.0787158
1.0921658
1.105681
1.1190274
1.1319366
1.1441248
1.1553196
1.1652924
1.1738877
1.181042
1.1867875
1.1912382
1.1945651
1.1969664
1.1986415
1.1997712
1.2005079
1.200972
1.2012538
1.2014182
1.2015098
1.2015582
1.2015823
1.2015933
1.201598
1.2015997
1.2016003
1.2016005
1.2016005
1.2016006
1.2016006
1.2016006
1.2016006
0.92880998
0.93353722
0.93865149
0.94417876
0.95014588
0.95658043
0.96351043
0.9709639
0.97896824
0.98754926
0.99672985
1.006528
1.0169543
1.028008
1.0396729
1.0519115
1.0646582
1.0778125
1.0912326
1.1047322
1.1180809
1.1310136
1.1432478
1.1545104
1.1645694
1.1732632
1.1805214
1.1863687
1.1909129
1.1943209
1.196789
1.1985165
1.1996857
1.2004511
1.2009353
1.2012307
1.2014039
1.2015011
1.2015529
1.2015789
1.201591
1.2015961
1.2015981
1.2015988
1.201599
1.201599
1.2015991
1.2015991
1.2015991
1.2015991
0.92856602
0.93327346
0.93836603
0.94386953
0.94981064
0.95621675
0.96311572
0.97053541
0.9785031
0.98704455
0.99618266
1.0059356
1.0163144
1.027319
1.0389343
1.0511244
1.0638258
1.0769409
1.0903315
1.1038149
1.1171645
1.1301183
1.1423954
1.153722
1.1638631
1.1726516
1.18001
1.185956
1.1905914
1.1940788
1.1966125
1.1983918
1.1996002
1.2003941
1.2008982
1.2012072
1.2013894
1.2014923
1.2015475
1.2015754
1.2015886
1.2015943
1.2015965
1.2015973
1.2015975
1.2015975
1.2015976
1.2015976
1.2015976
1.2015976
0.92833078
0.93301914
0.9380908
0.9435714
0.94948744
0.95586616
0.96273524
0.97012238
0.97805476
0.98655806
0.99565524
1.0053646
1.0156975
1.0266547
1.0382221
1.050365
1.0630224
1.0760992
1.0894605
1.1029271
1.1162764
1.1292492
1.1415662
1.1529535
1.1631728
1.1720522
1.1795074
1.1855493
1.1902736
1.1938387
1.196437
1.1982674
1.1995146
1.2003368
1.2008609
1.2011835
1.2013747
1.2014832
1.2015419
1.2015718
1.2015861
1.2015923
1.2015948
1.2015957
1.201596
1.201596
1.2015961
1.2015961
1.2015961
1.2015961
0.92810371
0.93277366
0.93782514
0.94328365
0.94917551
0.95552781
0.96236805
0.96972381
0.97762213
0.98608864
0.9951463
1.0048136
1.0151023
1.0260136
1.0375344
1.0496317
1.0622462
1.0752854
1.0886176
1.1020673
1.1154151
1.1284049
1.1407592
1.1522038
1.1624978
1.1714645
1.1790133
1.1851483
1.1899593
1.1936007
1.1962625
1.1981434
1.199429
1.2002794
1.2008234
1.2011596
1.2013597
1.201474
1.2015362
1.2015682
1.2015836
1.2015904
1.2015932
1.2015941
1.2015945
1.2015945
1.2015946
1.2015946
1.2015946
1.2015946
0.92788429
0.93253645
0.93756845
0.94300562
0.94887414
0.95520093
0.96201333
0.96933878
0.97720421
0.98563519
0.9946547
1.0042814
1.0145272
1.0253941
1.0368699
1.0489228
1.0614955
1.0744979
1.0878014
1.1012337
1.114579
1.1275841
1.1399733
1.1514721
1.1618375
1.1708882
1.1785275
1.1847529
1.1896486
1.1933647
1.196089
1.1980197
1.1993434
1.2002217
1.2007856
1.2011354
1.2013446
1.2014646
1.2015304
1.2015645
1.201581
1.2015884
1.2015915
1.2015926
1.2015929
1.201593
1.2015931
1.2015931
1.2015931
1.2015931
0.92767205
0.93230702
0.93732019
0.94273673
0.94858269
0.95488481
0.96167031
0.96896648
0.97680012
0.98519675
0.99417936
1.0037667
1.0139711
1.0247951
1.0362271
1.0482369
1.0607688
1.0737352
1.0870102
1.1004249
1.1137668
1.1267855
1.1392072
1.1507576
1.1611913
1.1703227
1.1780495
1.1843629
1.1893413
1.1931307
1.1959166
1.1978965
1.1992579
1.200164
1.2007476
1.201111
1.2013292
1.2014551
1.2015244
1.2015607
1.2015784
1.2015864
1.2015898
1.201591
1.2015914
1.2015915
1.2015916
1.2015916
1.2015916
1.2015916
0.92746657
0.9320849
0.93707985
0.94247643
0.94830056
0.95457883
0.9613383
0.96860613
0.97640903
0.98477242
0.99371933
1.0032687
1.0134329
1.0242151
1.0356048
1.0475727
1.0600648
1.0729959
1.0862427
1.0996395
1.1129772
1.1260081
1.1384603
1.1500594
1.1605585
1.1697677
1.1775793
1.1839782
1.1890374
1.1928987
1.1957451
1.1977736
1.1991724
1.2001061
1.2007094
1.2010864
1.2013137
1.2014454
1.2015184
1.2015568
1.2015757
1.2015844
1.2015881
1.2015894
1.2015899
1.20159
1.2015901
1.2015901
1.2015901
1.2015901
0.92726746
0.93186968
0.93684697
0.94222423
0.94802722
0.95428239
0.96101666
0.96825706
0.97603018
0.98436139
0.99327372
1.0027862
1.0129115
1.0236533
1.0350017
1.0469288
1.0593821
1.0722786
1.0854976
1.0988764
1.1122091
1.1252508
1.1377315
1.149377
1.1599386
1.1692228
1.1771165
1.1835986
1.1887368
1.1926685
1.1955746
1.1976511
1.1990869
1.2000481
1.2006711
1.2010616
1.201298
1.2014356
1.2015123
1.2015528
1.201573
1.2015824
1.2015863
1.2015879
1.2015884
1.2015885
1.2015886
1.2015886
1.2015886
1.2015886
0.92707436
0.93166096
0.93662114
0.94197967
0.94776217
0.95399496
0.96070481
0.96791862
0.97566288
0.98396291
0.99284171
1.0023184
1.012406
1.0231085
1.0344169
1.0463042
1.0587197
1.0715821
1.0847737
1.0981344
1.1114614
1.1245127
1.13702
1.1487096
1.1593311
1.1686877
1.1766608
1.1832241
1.1884395
1.1924404
1.1954051
1.1975291
1.1990016
1.19999
1.2006325
1.2010366
1.2012821
1.2014256
1.201506
1.2015488
1.2015703
1.2015803
1.2015846
1.2015863
1.2015868
1.201587
1.2015871
1.2015871
1.2015871
1.2015871
0.92688694
0.93145838
0.93640197
0.94174233
0.94750496
0.95371604
0.9604022
0.96759023
0.97530651
0.98357628
0.99242256
1.0018645
1.0119155
1.0225799
1.0338493
1.0456979
1.0580763
1.0709055
1.0840698
1.0974124
1.1107332
1.1237928
1.136325
1.1480566
1.1587356
1.1681619
1.1762122
1.1828544
1.1881452
1.192214
1.1952366
1.1974075
1.1989164
1.1999319
1.2005938
1.2010115
1.2012661
1.2014155
1.2014996
1.2015447
1.2015675
1.2015782
1.2015828
1.2015847
1.2015853
1.2015855
1.2015856
1.2015856
1.2015856
1.2015856
0.9267049
0.93126163
0.9361891
0.94151183
0.94725517
0.95344517
0.96010834
0.96727135
0.97496046
0.98320087
0.99201557
1.0014239
1.0114392
1.0220665
1.033298
1.0451088
1.0574511
1.0702476
1.0833851
1.0967095
1.1100234
1.1230904
1.1356459
1.1474173
1.1581516
1.1676452
1.1757704
1.1824894
1.1878541
1.1919896
1.1950692
1.1972864
1.1988312
1.1998737
1.200555
1.2009862
1.2012499
1.2014053
1.2014932
1.2015405
1.2015646
1.201576
1.2015811
1.2015831
1.2015838
1.201584
1.201584
1.2015841
1.2015841
1.2015841
0.92652795
0.93107039
0.9359822
0.9412878
0.9470124
0.95318194
0.95982278
0.96696148
0.97462421
0.9828361
0.99162012
1.0009957
1.0109764
1.0215676
1.0327621
1.0445361
1.0568431
1.0696076
1.0827186
1.0960246
1.1093313
1.1224046
1.134982
1.1467914
1.1575786
1.1671373
1.175335
1.1821291
1.1875661
1.191767
1.1949027
1.1971657
1.1987462
1.1998154
1.2005161
1.2009607
1.2012336
1.201395
1.2014866
1.2015363
1.2015617
1.2015739
1.2015793
1.2015814
1.2015822
1.2015825
1.2015825
1.2015826
1.2015826
1.2015826
0.92635584
0.93088438
0.93578098
0.94106992
0.94677631
0.95292595
0.95954509
0.96666016
0.97429725
0.98248141
0.9912356
1.0005793
1.0105264
1.0210824
1.0322409
1.0439791
1.0562515
1.0689845
1.0820694
1.095357
1.108656
1.1217347
1.1343326
1.1461781
1.1570163
1.1666378
1.1749061
1.1817733
1.1872809
1.1915462
1.1947372
1.1970454
1.1986613
1.1997571
1.200477
1.2009351
1.2012171
1.2013845
1.20148
1.201532
1.2015588
1.2015717
1.2015775
1.2015798
1.2015807
1.201581
1.201581
1.2015811
1.2015811
1.2015811
0.92618833
0.93070335
0.93558514
0.94085788
0.94654655
0.95267684
0.95927487
0.96636697
0.97397912
0.9821363
0.99086148
1.0001742
1.0100885
1.0206103
1.0317337
1.0434368
1.0556754
1.0683776
1.0814366
1.094706
1.1079968
1.1210801
1.1336971
1.1455771
1.1564642
1.1661465
1.1744834
1.1814218
1.1869988
1.1913272
1.1945727
1.1969256
1.1985766
1.1996988
1.2004379
1.2009094
1.2012005
1.201374
1.2014733
1.2015276
1.2015558
1.2015695
1.2015756
1.2015782
1.2015791
1.2015794
1.2015795
1.2015796
1.2015796
1.2015796
0.92602519
0.93052704
0.93539442
0.94065139
0.94632282
0.95243427
0.95901177
0.96608151
0.97366938
0.98180031
0.99049725
0.99977977
1.0096621
1.0201505
1.0312398
1.0429086
1.0551141
1.067786
1.0808195
1.0940706
1.1073529
1.1204401
1.133075
1.1449879
1.1559221
1.1656632
1.1740666
1.1810747
1.1867194
1.1911099
1.1944091
1.1968063
1.1984921
1.1996404
1.2003986
1.2008836
1.2011838
1.2013633
1.2014664
1.2015231
1.2015527
1.2015672
1.2015738
1.2015765
1.2015776
1.2015779
1.201578
1.2015781
1.2015781
1.2015781
0.92586621
0.93035524
0.93520858
0.9404502
0.94610484
0.95219794
0.95875544
0.9658034
0.97336763
0.981473
0.99014243
0.99939555
1.0092468
1.0197027
1.0307585
1.0423938
1.054567
1.0672091
1.0802174
1.0934503
1.1067238
1.119814
1.1324657
1.14441
1.1553895
1.1651875
1.1736557
1.1807317
1.1864429
1.1908944
1.1942466
1.1966874
1.1984076
1.1995821
1.2003592
1.2008576
1.201167
1.2013525
1.2014595
1.2015186
1.2015496
1.2015649
1.2015719
1.2015749
1.201576
1.2015764
1.2015765
1.2015766
1.2015766
1.2015766
0.9257112
0.93018774
0.9350274
0.94025404
0.94589232
0.95196756
0.95850556
0.9655323
0.97307351
0.98115396
0.98979658
0.99902104
1.0088419
1.0192661
1.0302893
1.0418919
1.0540334
1.0666462
1.0796297
1.0928444
1.1061088
1.1192014
1.1318688
1.1438431
1.1548662
1.1647193
1.1732504
1.1803928
1.186169
1.1906806
1.194085
1.1965691
1.1983234
1.1995237
1.2003198
1.2008315
1.20115
1.2013416
1.2014526
1.2015141
1.2015465
1.2015626
1.2015701
1.2015732
1.2015745
1.2015749
1.201575
1.2015751
1.2015751
1.2015751
0.92555998
0.93002433
0.93485065
0.9400627
0.94568502
0.95174284
0.95826183
0.9652679
0.97278665
0.98084281
0.98945929
0.9986558
1.0084471
1.0188403
1.0298316
1.0414022
1.0535126
1.0660967
1.0790557
1.0922522
1.1055073
1.1186016
1.1312838
1.1432867
1.1543518
1.1642583
1.1728507
1.1800578
1.1858979
1.1904684
1.1939244
1.1964512
1.1982393
1.1994654
1.2002803
1.2008053
1.201133
1.2013306
1.2014455
1.2015094
1.2015433
1.2015603
1.2015682
1.2015716
1.2015729
1.2015734
1.2015735
1.2015736
1.2015736
1.2015736
0.92541238
0.92986484
0.93467815
0.93987596
0.94548272
0.95152353
0.958024
0.96500988
0.97250673
0.98053921
0.98913018
0.99829942
1.0080618
1.0184247
1.029385
1.0409242
1.0530041
1.06556
1.0784948
1.0916733
1.1049188
1.1180143
1.1307102
1.1427404
1.153846
1.1638043
1.1724563
1.1797268
1.1856294
1.1902579
1.1937647
1.1963337
1.1981555
1.199407
1.2002407
1.200779
1.2011158
1.2013196
1.2014383
1.2015048
1.2015401
1.2015579
1.2015663
1.2015699
1.2015713
1.2015718
1.201572
1.2015721
1.2015721
1.2015721
0.92526824
0.92970909
0.93450969
0.93969361
0.94528518
0.95130941
0.95779178
0.96475798
0.97223345
0.98024281
0.98880888
0.9979515
1.0076856
1.018019
1.0289488
1.0404574
1.0525075
1.0650356
1.0779465
1.091107
1.1043427
1.1174388
1.1301477
1.142204
1.1533486
1.1633571
1.1720672
1.1793995
1.1853635
1.1900491
1.1936059
1.1962168
1.1980718
1.1993487
1.200201
1.2007526
1.2010986
1.2013084
1.2014311
1.2015
1.2015369
1.2015555
1.2015643
1.2015682
1.2015698
1.2015703
1.2015705
1.2015706
1.2015706
1.2015706
0.9251274
0.92955692
0.93434512
0.93951546
0.9450922
0.95110023
0.95756495
0.96451192
0.97196653
0.9799533
0.98849507
0.99761168
1.0073182
1.0176227
1.0285227
1.0400013
1.0520221
1.064523
1.0774103
1.0905529
1.1037786
1.1168749
1.1295957
1.141677
1.1528593
1.1629164
1.1716831
1.1790759
1.1851001
1.1898418
1.1934481
1.1961003
1.1979882
1.1992904
1.2001613
1.2007261
1.2010812
1.2012971
1.2014238
1.2014952
1.2015336
1.2015531
1.2015624
1.2015665
1.2015682
1.2015688
1.201569
1.2015691
1.2015691
1.2015691
0.92498974
0.92940818
0.93418426
0.93934135
0.94490359
0.95089581
0.95734327
0.96427146
0.97170568
0.9796704
0.98818842
0.99727962
1.0069592
1.0172355
1.0281063
1.0395555
1.0515476
1.0640217
1.0768857
1.0900105
1.103226
1.1163219
1.1290541
1.1411592
1.1523779
1.1624822
1.171304
1.178756
1.1848391
1.1896361
1.1932912
1.1959842
1.1979049
1.1992322
1.2001216
1.2006996
1.2010637
1.2012858
1.2014165
1.2014903
1.2015302
1.2015506
1.2015604
1.2015648
1.2015666
1.2015673
1.2015675
1.2015676
1.2015676
1.2015676
0.92485512
0.92926273
0.93402696
0.93917109
0.94471918
0.95069593
0.95712653
0.96403637
0.97145067
0.97939383
0.98788863
0.99695499
1.0066082
1.0168568
1.0276992
1.0391196
1.0510834
1.0635311
1.0763722
1.0894793
1.1026845
1.1157796
1.1285223
1.1406503
1.151904
1.1620542
1.1709297
1.1784395
1.1845806
1.189432
1.1931352
1.1958687
1.1978218
1.1991739
1.2000817
1.2006729
1.2010462
1.2012743
1.201409
1.2014854
1.2015269
1.2015482
1.2015585
1.2015631
1.201565
1.2015657
1.201566
1.201566
1.2015661
1.2015661
0.92472342
0.92912044
0.93387309
0.93900454
0.94453878
0.95050041
0.95691452
0.96380643
0.97120125
0.97912333
0.98759543
0.9966375
1.006265
1.0164865
1.0273009
1.0386931
1.0506292
1.063051
1.0758694
1.0889589
1.1021537
1.1152476
1.1280001
1.1401499
1.1514376
1.1616322
1.1705601
1.1781265
1.1843245
1.1892294
1.1929801
1.1957536
1.1977389
1.1991158
1.2000419
1.2006462
1.2010285
1.2012628
1.2014015
1.2014804
1.2015234
1.2015457
1.2015565
1.2015614
1.2015634
1.2015642
1.2015645
1.2015645
1.2015646
1.2015646
0.92459451
0.92898118
0.93372249
0.93884155
0.94436224
0.95030908
0.95670707
0.96358143
0.97095719
0.97885866
0.98730856
0.99632685
1.0059291
1.0161241
1.0269112
1.0382757
1.0501847
1.0625809
1.0753769
1.088449
1.1016332
1.1147255
1.1274871
1.1396579
1.1509783
1.1612161
1.1701951
1.1778169
1.1840707
1.1890283
1.1928259
1.195639
1.1976561
1.1990576
1.200002
1.2006193
1.2010108
1.2012512
1.2013939
1.2014754
1.20152
1.2015431
1.2015544
1.2015596
1.2015618
1.2015626
1.2015629
1.201563
1.2015631
1.2015631
0.9244683
0.92884483
0.93357504
0.93868198
0.94418941
0.95012178
0.95650399
0.96336117
0.9707183
0.97859959
0.98702776
0.99602278
1.0056003
1.0157694
1.0265296
1.037867
1.0497493
1.0621205
1.0748943
1.087949
1.1011226
1.1142129
1.126983
1.1391739
1.1505259
1.1608057
1.1698346
1.1775106
1.1838192
1.1888287
1.1926726
1.1955249
1.1975736
1.1989995
1.199962
1.2005924
1.200993
1.2012395
1.2013862
1.2014703
1.2015165
1.2015405
1.2015524
1.2015579
1.2015602
1.2015611
1.2015614
1.2015615
1.2015616
1.2015616
0.92434468
0.92871128
0.93343063
0.93852569
0.94402014
0.94993834
0.95630511
0.96314549
0.97048436
0.97834591
0.9867528
0.99572504
1.0052784
1.0154221
1.026156
1.0374667
1.0493228
1.0616692
1.0744213
1.0874587
1.1006215
1.1137096
1.1264876
1.1386977
1.1500802
1.1604009
1.1694784
1.1772076
1.18357
1.1886305
1.1925202
1.1954112
1.1974913
1.1989414
1.199922
1.2005655
1.2009751
1.2012278
1.2013785
1.2014652
1.2015129
1.2015379
1.2015503
1.2015561
1.2015586
1.2015595
1.2015599
1.20156