/*--------------------------------*- C++ -*----------------------------------*\
| =========                 |                                                 |
| \\      /  F ield         | OpenFOAM: The Open Source CFD Toolbox           |
|  \\    /   O peration     | Version:  4.0                                   |
|   \\  /    A nd           | Web:      www.OpenFOAM.org                      |
|    \\/     M anipulation  |                                                 |
\*---------------------------------------------------------------------------*/
FoamFile
{
    version     2.0;
    format      ascii;
    class       surfaceScalarField;
    location    "792";
    object      snGradRho;
}
// * * * * * * * * * * * * * * * * * * * * * * * * * * * * * * * * * * * * * //

dimensions      [1 -4 0 0 0 0 0];

internalField   nonuniform List<scalar> 
9850
(
106.60344
-2.3707598
105.12629
-2.5723494
102.72295
-2.7874742
99.308008
-3.0092202
94.827318
-3.2281147
89.272055
-3.4321054
82.692436
-3.6068797
75.208512
-3.7366513
67.01456
-3.8054978
58.37364
-3.7992484
49.60006
-3.7077644
41.030093
-3.5272559
32.984832
-3.2620894
25.732367
-2.9254577
19.457876
-2.5384126
14.248704
-2.1271622
10.09723
-1.7191089
6.9190231
-1.3386227
4.58003
-1.0037048
2.9238547
-0.72437913
1.7955709
-0.50294069
1.0567697
-0.33563277
0.59293244
-0.21493331
0.31491363
-0.13173191
0.15683272
-0.076972518
0.072314498
-0.042650202
0.030324194
-0.022257033
0.011248672
-0.01084914
0.0035085547
-0.0048969759
0.00081047439
-0.0020358041
6.6087846e-05
-0.0007891659
-5.6190198e-05
-0.00030781682
-3.8739425e-05
-0.00014873734
-1.4882004e-05
-0.00010656954
-3.9127126e-06
-9.9071248e-05
-6.3302761e-07
-9.9015145e-05
5.6648911e-09
-9.9586016e-05
5.5926798e-08
-9.9836832e-05
4.0643995e-08
-9.990221e-05
3.3269883e-08
-9.9913775e-05
3.1290905e-08
-9.9915689e-05
3.1000029e-08
-9.9917064e-05
3.0763775e-08
-9.9918854e-05
3.1329888e-08
-9.9920977e-05
3.3962972e-08
-9.9924382e-05
2.9532653e-08
-9.9926598e-05
2.6125299e-08
-9.9938431e-05
-1.1515108e-08
-9.9939651e-05
4.4198818e-07
-9.9871221e-05
-0.00010009222
75.995589
-0.54443119
75.434936
-0.59064077
74.90213
-0.64286326
74.343442
-0.70236119
73.679083
-0.77025836
72.801177
-0.8472465
71.575271
-0.93318663
69.847194
-1.0266306
67.456949
-1.1243315
64.26055
-1.2208667
60.158911
-1.3085546
55.129946
-1.3778671
49.256374
-1.418503
42.738802
-1.4211293
35.884054
-1.3795334
29.064534
-1.2926128
22.655431
-1.1654471
16.967648
-1.0088442
12.198354
-0.83728511
8.4139793
-0.66589689
5.5663118
-0.50751561
3.5296146
-0.37079238
2.1424761
-0.25971865
1.2419862
-0.17432213
0.68505161
-0.11195245
0.35761629
-0.068603458
0.17540429
-0.03994545
0.080060039
-0.021976572
0.033577084
-0.011347618
0.012719927
-0.0054618675
0.004246266
-0.0024413285
0.0011996436
-0.0010225343
0.00026387001
-0.0004217988
3.4033596e-05
-0.00019682057
-3.580012e-06
-0.0001241266
-3.7104694e-06
-0.00010457932
-1.2234477e-06
-0.00010047317
-2.3531329e-07
-9.9899258e-05
-6.1887166e-09
-9.9886211e-05
2.6223299e-08
-9.9905953e-05
2.6690701e-08
-9.9913615e-05
2.5554162e-08
-9.9916674e-05
2.4893909e-08
-9.991926e-05
2.2769447e-08
-9.9920386e-05
2.8899056e-08
-9.9924406e-05
4.9521052e-09
-9.9925e-05
2.3822387e-08
-9.9931552e-05
1.0594968e-07
-9.9906597e-05
9.7141038e-08
-9.9892817e-05
-0.00010017701
68.979473
-0.26748343
68.22723
-0.28990629
67.437366
-0.31481164
66.59988
-0.34256429
65.697524
-0.37358678
64.702108
-0.40833904
63.570189
-0.44726068
62.238884
-0.49065407
60.623312
-0.53848664
58.617916
-0.59010435
56.104472
-0.64387964
52.969192
-0.69687106
49.129428
-0.74463886
44.566489
-0.78141079
39.355841
-0.80077419
33.681736
-0.79693066
27.824216
-0.76628277
22.114977
-0.70883001
16.872793
-0.62873641
12.340727
-0.53367098
8.6477434
-0.43306665
5.805251
-0.33596912
3.7329017
-0.24929564
2.2979006
-0.17701831
1.3521906
-0.12028713
0.75854372
-0.078148457
0.40392385
-0.04843565
0.2029385
-0.028533284
0.095431415
-0.015894628
0.041575907
-0.0083214788
0.016567496
-0.0040712785
0.0059420782
-0.0018593074
0.0018783845
-0.00080483643
0.00050825753
-0.00035110712
0.00011233906
-0.00017791086
1.8424936e-05
-0.00012046976
1.5889662e-06
-0.00010434614
-1.7719521e-07
-0.00010065221
-8.613328e-08
-0.00010000159
-1.9798202e-09
-9.9924838e-05
1.6454052e-08
-9.9922389e-05
1.768693e-08
-9.992353e-05
2.1778354e-08
-9.9925414e-05
1.2664821e-08
-9.9925305e-05
2.7543293e-08
-9.9929138e-05
-8.660111e-09
-9.9930934e-05
7.094576e-08
-9.9928989e-05
1.296043e-07
-9.9910466e-05
-3.4631866e-07
-9.9980781e-05
-0.00010006053
65.574954
-0.18955201
64.789813
-0.20536434
63.955446
-0.22283821
63.061816
-0.24214083
62.094668
-0.26344175
61.0341
-0.28690204
59.8528
-0.31265523
58.513993
-0.3407744
56.969344
-0.37121651
55.157527
-0.40373255
53.004737
-0.43773335
50.429206
-0.47211153
47.352008
-0.50504662
43.715678
-0.53386473
39.509359
-0.55507324
34.794517
-0.56470906
29.720482
-0.55907573
24.518046
-0.53577055
19.465606
-0.49467305
14.835011
-0.43843291
10.836102
-0.37212237
7.5809845
-0.3021
5.0789954
-0.23453633
3.2583555
-0.17418898
2.0007028
-0.12381025
1.1742279
-0.084212325
0.65703258
-0.054753424
0.34905059
-0.033948337
0.1750189
-0.019994159
0.082179155
-0.011127139
0.035776909
-0.0058171251
0.014266473
-0.0028444
0.0051344889
-0.0013050376
0.0016381147
-0.00057718304
0.00045297572
-0.00026762672
0.00010534397
-0.00015122129
1.9690882e-05
-0.0001132716
2.7211479e-06
-0.00010279081
2.2465982e-07
-0.00010040904
7.0354675e-09
-9.9981992e-05
1.2636814e-08
-9.9927132e-05
1.1955302e-08
-9.9923762e-05
2.2079017e-08
-9.9926375e-05
3.0298733e-09
-9.9927744e-05
2.3439304e-08
-9.9931157e-05
-4.6190867e-09
-9.9932972e-05
1.0592195e-07
-9.9925697e-05
8.9046693e-09
-9.992789e-05
-4.7075806e-07
-0.00010000675
-0.00010001795
63.174129
-0.14671718
62.378084
-0.15891736
61.53369
-0.17237475
60.63248
-0.18720197
59.662479
-0.20350697
58.607098
-0.22138281
57.443911
-0.24089187
56.143357
-0.26204234
54.667566
-0.28475415
52.969607
-0.3088111
50.993785
-0.33379568
48.677929
-0.35900544
45.959046
-0.38335599
42.783794
-0.40529104
39.124485
-0.42274479
34.999056
-0.43323008
30.489685
-0.43413348
25.751105
-0.42325159
20.999499
-0.39948076
16.479049
-0.36341923
12.414247
-0.31756968
8.9652033
-0.26595077
6.2029049
-0.21321044
4.1112638
-0.16359461
2.6101131
-0.12017122
1.5863598
-0.084528679
0.92162168
-0.056916047
0.51037108
-0.036635306
0.26820387
-0.022481086
0.13290708
-0.013097103
0.061592935
-0.0072057325
0.026418784
-0.0037247223
0.010357803
-0.0018063704
0.0036575256
-0.00083178722
0.0011432821
-0.00038167456
0.00030992269
-0.00019567122
7.1051478e-05
-0.00012810813
1.3331263e-05
-0.00010695653
1.9540059e-06
-0.00010137423
2.0898737e-07
-0.0001001639
2.3914014e-08
-9.9956025e-05
4.0068352e-09
-9.9929367e-05
1.8292014e-08
-9.9928385e-05
-5.5490248e-09
-9.9930089e-05
1.9292118e-08
-9.9931705e-05
1.0491375e-08
-9.9931653e-05
1.017812e-07
-9.9924294e-05
-1.2647122e-07
-9.9945998e-05
-4.8822579e-07
-0.0001000084
-9.998147e-05
61.321746
-0.11919665
60.520706
-0.12908519
59.673429
-0.13998431
58.772922
-0.15198327
57.809244
-0.16516729
56.768548
-0.17960937
55.63201
-0.19535776
54.374708
-0.21241752
52.964598
-0.23072433
51.361872
-0.25010879
49.519139
-0.2702502
47.383123
-0.29062034
44.898786
-0.31042211
42.016891
-0.32853437
38.705681
-0.34348657
34.966255
-0.35350044
30.848849
-0.35664696
26.464307
-0.35115505
21.98304
-0.33585662
17.615797
-0.31065856
13.57762
-0.27684437
10.045727
-0.23701085
7.1269506
-0.19458576
4.8464188
-0.15308511
3.1586502
-0.11540204
1.9726624
-0.083377511
1.1795424
-0.057733679
0.6740042
-0.038284363
0.3668217
-0.024265698
0.18918885
-0.014652468
0.091823061
-0.0083904089
0.041562982
-0.0045329778
0.017351719
-0.0023027518
0.0065938651
-0.0011050287
0.0022463174
-0.00051523524
0.00067414104
-0.00025291875
0.00017470386
-0.00014930788
3.819881e-05
-0.00011362657
6.8552822e-06
-0.00010312453
9.742022e-07
-0.00010053949
1.1312119e-07
-0.00010002067
6.9933754e-09
-9.9938801e-05
1.3580305e-08
-9.9929678e-05
-9.6110956e-09
-9.9930819e-05
1.9410138e-08
-9.9930774e-05
2.5779107e-08
-9.9929283e-05
6.0796635e-08
-9.9926572e-05
-2.3359607e-07
-9.9957125e-05
-4.4619565e-07
-9.9996226e-05
-9.9939046e-05
59.820344
-0.099384293
59.016419
-0.107613
58.168008
-0.11667701
57.269305
-0.12664995
56.311996
-0.13760285
55.284407
-0.14959787
54.170549
-0.16267883
52.949092
-0.17685689
51.592391
-0.19209032
50.065792
-0.20825655
48.327587
-0.22511585
46.330192
-0.24226705
44.023306
-0.25909895
41.359904
-0.27474634
38.305707
-0.28806727
34.852009
-0.29766729
31.030113
-0.30200316
26.923309
-0.29959336
22.670292
-0.28933467
18.454152
-0.27086695
14.475377
-0.2448609
10.914916
-0.21307615
7.8998591
-0.17810048
5.4843905
-0.14282601
3.6515062
-0.10985437
2.3314213
-0.081050672
1.4268895
-0.057370895
0.83607019
-0.038947498
0.46784873
-0.02532641
0.24901189
-0.015735583
0.12532214
-0.0093054825
0.059169233
-0.0052128938
0.025946956
-0.00275493
0.010441422
-0.0013745576
0.0038019041
-0.00065829647
0.0012326854
-0.0003198028
0.0003495584
-0.00017647632
8.4982394e-05
-0.0001230664
1.7323441e-05
-0.00010588234
2.8840887e-06
-0.00010120446
3.8706627e-07
-0.00010014999
3.4746454e-08
-9.9958366e-05
1.0424551e-08
-9.9931233e-05
-9.4980856e-09
-9.9929678e-05
2.2817337e-08
-9.9928278e-05
3.1411056e-08
-9.9926341e-05
3.1020796e-09
-9.992986e-05
-3.0071565e-07
-9.9960495e-05
-3.5696909e-07
-9.9979801e-05
-9.9924432e-05
58.570958
-0.084861558
57.765412
-0.09187616
56.916776
-0.099599227
56.020146
-0.10809347
55.068441
-0.11741995
54.051647
-0.12763322
52.955954
-0.1387738
51.762811
-0.15085701
50.447999
-0.1638569
48.980912
-0.17768408
47.324327
-0.19215654
45.435179
-0.20696362
43.266968
-0.22162544
40.774594
-0.23545456
37.922262
-0.24753222
34.69458
-0.25671922
31.10965
-0.26172716
27.231103
-0.26127314
23.17398
-0.25432293
19.09892
-0.24038708
15.191734
-0.21978284
11.631485
-0.19374187
8.5568111
-0.16427233
6.0425982
-0.13378212
4.0947938
-0.10458864
2.662703
-0.078495397
1.6611894
-0.056569464
0.99353991
-0.039145724
0.56864033
-0.025990801
0.31044028
-0.01652639
0.16086339
-0.01003209
0.078573332
-0.0057892493
0.035852943
-0.0031623937
0.015113998
-0.0016331281
0.0058092362
-0.00080502293
0.0020053281
-0.00039354414
0.0006112911
-0.00020887541
0.00016153244
-0.00013532301
3.6266647e-05
-0.0001098085
6.7657875e-06
-0.00010225049
1.0282936e-06
-0.0001003771
1.1728358e-07
-9.9997174e-05
1.4726549e-08
-9.9935495e-05
-5.9784404e-09
-9.9928132e-05
2.7243016e-08
-9.9925597e-05
2.409987e-08
-9.9924332e-05
-5.4745237e-08
-9.9932768e-05
-3.3385615e-07
-9.9959745e-05
-2.7056942e-07
-9.9963997e-05
-9.9914502e-05
57.505914
-0.073742362
56.69948
-0.079828934
55.851066
-0.086527435
54.956476
-0.093892184
54.009605
-0.10197654
53.00175
-0.11082905
51.92082
-0.12048742
50.750463
-0.13096954
49.469187
-0.14226053
48.049622
-0.15429471
46.458187
-0.16693168
44.655557
-0.17992637
42.598519
-0.19289468
40.243912
-0.20527934
37.555315
-0.21632575
34.512749
-0.22508344
31.124635
-0.23045447
27.439632
-0.23130962
23.554066
-0.22668105
19.609761
-0.21600983
15.778638
-0.19938431
12.235245
-0.17767211
9.124661
-0.15245823
6.5368417
-0.12577078
4.4963676
-0.099675549
2.9694482
-0.075885484
1.8827761
-0.055515839
1.1456204
-0.039034294
0.66810339
-0.026368756
0.37248199
-0.017091345
0.19770947
-0.010602601
0.099310728
-0.0062719707
0.046827434
-0.0035234179
0.020516197
-0.0018753465
0.0082493838
-0.00095076022
0.0030008383
-0.0004715668
0.00097173103
-0.00024559434
0.00027519229
-0.00015029133
6.6872978e-05
-0.00011500761
1.366206e-05
-0.00010376216
2.299674e-06
-0.0001007378
3.0491025e-07
-0.00010006549
3.5087591e-08
-9.9944338e-05
3.9425117e-10
-9.9926731e-05
3.01323e-08
-9.9922971e-05
6.5763007e-09
-9.9923253e-05
-1.0568639e-07
-9.9934268e-05
-3.4115441e-07
-9.9955897e-05
-1.9333668e-07
-9.9949449e-05
-9.9906568e-05
56.581774
-0.0650322
55.774958
-0.070392856
54.927066
-0.076290328
54.034468
-0.082772391
53.091842
-0.089886325
52.091537
-0.097675757
51.022847
-0.10617576
49.871194
-0.11540546
48.617299
-0.12535739
47.236445
-0.13598258
45.698062
-0.14717057
43.965986
-0.15872422
41.99989
-0.17033016
39.758542
-0.18152846
37.205515
-0.19168884
34.317734
-0.2000062
31.096411
-0.20553289
27.578505
-0.20726693
23.845113
-0.20430673
20.021958
-0.19606042
16.267982
-0.18246217
12.751818
-0.16411573
9.6216882
-0.14228342
6.9786322
-0.1186873
4.8624956
-0.09517296
3.2544209
-0.073353845
2.0923805
-0.054358474
1.2920433
-0.038743662
0.76560124
-0.026558576
0.43447061
-0.017494883
0.23531795
-0.011052766
0.12100885
-0.0066762525
0.058654514
-0.0038410204
0.026547796
-0.0020988875
0.011091092
-0.001092227
0.0042190081
-0.00055158603
0.0014387588
-0.00028559975
0.00043237114
-0.00016771773
0.00011241167
-0.00012151488
2.4795298e-05
-0.0001058089
4.5494622e-06
-0.00010126975
6.7344263e-07
-0.00010017657
8.377624e-08
-9.996121e-05
9.8462323e-09
-9.9926503e-05
2.9488177e-08
-9.992073e-05
-1.6305761e-08
-9.9922688e-05
-1.4652787e-07
-9.9934446e-05
-3.3008558e-07
-9.9950551e-05
-1.264247e-07
-9.9938163e-05
-9.9905706e-05
55.767852
-0.058034811
54.960994
-0.062813021
54.11381
-0.068068004
53.223136
-0.073842271
52.284291
-0.080178157
51.290491
-0.087115204
50.232164
-0.094686077
49.096201
-0.10291042
47.865152
-0.11178589
46.516508
-0.12127564
45.022231
-0.13129143
43.348856
-0.14167201
41.458606
-0.15215755
39.312103
-0.16236247
36.873302
-0.17175275
34.117068
-0.17963765
31.039177
-0.18519085
27.66732
-0.18751792
24.070023
-0.18578185
20.3591
-0.17938111
16.681469
-0.16814514
13.19911
-0.15248145
10.061143
-0.1333994
7.3767283
-0.11236897
5.1982908
-0.091042199
3.5201674
-0.070931633
2.2909622
-0.053158145
1.4329118
-0.038338641
0.86085309
-0.026615426
0.4960138
-0.017777137
0.27332489
-0.011407492
0.14339125
-0.007014506
0.071156608
-0.0041190963
0.033114811
-0.0023031077
0.014297196
-0.0012273128
0.005652884
-0.0006317701
0.0020164339
-0.00032788378
0.0006381916
-0.00018725638
0.00017601338
-0.00012930012
4.1504758e-05
-0.00010843746
8.2075992e-06
-0.00010200775
1.3285713e-06
-0.00010034478
1.7975018e-07
-9.9990364e-05
2.435821e-08
-9.9928603e-05
2.5014194e-08
-9.9919292e-05
-4.0730255e-08
-9.9922437e-05
-1.7693941e-07
-9.9933794e-05
-3.0882043e-07
-9.9944965e-05
-7.5778018e-08
-9.992972e-05
-9.9905993e-05
55.042365
-0.052305952
54.235706
-0.056607835
53.389355
-0.061337567
52.500538
-0.066533353
51.56511
-0.072233436
50.577005
-0.078473903
49.527609
-0.085285233
48.405037
-0.092687084
47.193382
-0.10068069
45.872001
-0.10923818
44.415018
-0.11828804
42.791302
-0.12769649
40.965338
-0.13724503
38.899502
-0.14660612
36.558364
-0.15532161
33.915439
-0.16279237
30.962371
-0.16829147
27.719408
-0.17101618
24.244596
-0.17019073
20.637673
-0.16521856
17.034493
-0.1558584
13.590056
-0.14236991
10.452814
-0.12556115
7.7377891
-0.10669177
5.5077915
-0.087242946
3.7688197
-0.068628443
2.4794295
-0.051948258
1.5684407
-0.037858957
0.95373615
-0.026575266
0.55686464
-0.017965653
0.31147489
-0.011684867
0.16624871
-0.0072964684
0.084188714
-0.0043612558
0.04013283
-0.0024880002
0.017828878
-0.0013545529
0.007291071
-0.00071060908
0.0027055715
-0.00037148506
0.00089637017
-0.00020849953
0.00026049715
-0.00013827557
6.5173672e-05
-0.00011166936
1.3772504e-05
-0.00010298124
2.4066832e-06
-0.00010058473
3.5053501e-07
-0.00010003661
4.776486e-08
-9.9934142e-05
1.7828584e-08
-9.991878e-05
-6.4322172e-08
-9.9922245e-05
-1.9803456e-07
-9.9932529e-05
-2.8265051e-07
-9.9939572e-05
-3.8754895e-08
-9.9923391e-05
-9.99067e-05
54.389199
-0.047536414
53.582912
-0.051442126
52.737478
-0.05573513
51.850453
-0.06045004
50.918144
-0.065621667
49.9351
-0.071283142
48.893513
-0.077462965
47.782546
-0.084180533
46.587606
-0.091439596
45.289652
-0.099219022
43.86467
-0.10746022
42.283572
-0.11605082
40.512857
-0.12480484
38.516551
-0.13344082
36.259966
-0.14156152
33.715775
-0.14864225
30.87244
-0.15403852
27.744174
-0.15702625
24.380207
-0.15688654
20.86974
-0.15303662
17.338493
-0.14518816
13.934427
-0.1334884
10.804237
-0.11858352
8.0670563
-0.10155622
5.7942679
-0.083736518
4.0021766
-0.066443369
2.6586105
-0.050747465
1.6988884
-0.037330181
1.044216
-0.026462901
0.6168666
-0.018080529
0.34958504
-0.011898897
0.18942039
-0.0075303175
0.097631786
-0.0045710597
0.047526948
-0.0026541239
0.021647587
-0.0014730606
0.009119217
-0.00078692364
0.0035042741
-0.00041553351
0.0012091978
-0.00023101072
0.00036823958
-0.00014830643
9.7156228e-05
-0.00011549981
2.1792051e-05
-0.00010421175
4.0740415e-06
-0.00010091045
6.3390154e-07
-0.00010010531
8.6380525e-08
-9.9944517e-05
9.9119175e-09
-9.9919389e-05
-8.5685509e-08
-9.9922087e-05
-2.1133423e-07
-9.9930965e-05
-2.5487423e-07
-9.9934754e-05
-1.2710577e-08
-9.9918993e-05
-9.9908383e-05
53.796185
-0.043509539
52.990395
-0.04708107
52.145933
-0.051005783
51.260638
-0.055315263
50.331205
-0.060041401
49.352708
-0.065214775
48.318038
-0.070862096
47.217257
-0.077002327
46.036908
-0.083640999
44.759338
-0.090762141
43.362163
-0.098317267
41.818089
-0.10621099
40.095426
-0.11428338
38.159734
-0.12229011
35.977147
-0.12988353
33.519844
-0.13660034
30.773828
-0.14186512
27.748366
-0.14502164
24.48521
-0.14540322
21.064327
-0.14244592
17.602179
-0.13583089
14.239793
-0.1256194
11.121354
-0.11232629
8.3687425
-0.096884463
6.0604087
-0.080490057
4.2217633
-0.064372201
2.8292451
-0.049567045
1.8245221
-0.036769791
1.1323077
-0.026296189
0.67592131
-0.018136854
0.38752308
-0.012060602
0.2127819
-0.0077229166
0.11138832
-0.0047518708
0.055231692
-0.0028023834
0.025716511
-0.0015823938
0.011121303
-0.00085983987
0.004408519
-0.00045928005
0.0015776218
-0.00025435723
0.00050109066
-0.00015922594
0.00013870963
-0.00011989998
3.2839359e-05
-0.00010571145
6.5232486e-06
-0.00010133418
1.0785516e-06
-0.00010020194
1.4954764e-07
-9.9961321e-05
3.7463092e-09
-9.9921377e-05
-1.041276e-07
-9.9922032e-05
-2.1848923e-07
-9.9929335e-05
-2.2781904e-07
-9.9930634e-05
3.8457404e-09
-9.9915976e-05
-9.9909766e-05
53.253911
-0.040068378
52.448709
-0.043354571
51.605255
-0.0469649
50.721629
-0.050928365
49.794867
-0.055274345
48.8205
-0.060031194
47.792022
-0.065224004
46.70028
-0.070871212
45.532809
-0.076979605
44.273173
-0.083537217
42.900419
-0.090503598
41.388851
-0.09779703
39.70841
-0.1052787
37.826086
-0.11273469
35.708864
-0.11985826
33.328688
-0.12623729
30.669645
-0.13135484
27.736917
-0.1346135
24.565867
-0.13539423
21.228333
-0.13315458
17.832322
-0.12755691
14.512137
-0.11859629
11.408943
-0.10668035
8.6462987
-0.092614447
6.3084617
-0.077475979
4.4288884
-0.062409753
2.9919944
-0.048414331
1.9456046
-0.036190538
1.2180555
-0.026088762
0.7339693
-0.018146578
0.42519282
-0.012179082
0.23623646
-0.0078802653
0.12537846
-0.0049069369
0.063190374
-0.0029339643
0.030001393
-0.0016824859
0.013280636
-0.00092876837
0.0054127332
-0.000502115
0.0020014045
-0.00027813646
0.00066034195
-0.00017085117
0.00019094021
-0.00012482155
4.7487224e-05
-0.00010748285
9.967489e-06
-0.00010186564
1.7439396e-06
-0.00010033181
2.4995937e-07
-9.9986272e-05
2.2492536e-09
-9.9925043e-05
-1.1929796e-07
-9.9922139e-05
-2.209432e-07
-9.9927734e-05
-2.0265678e-07
-9.9927159e-05
1.3535671e-08
-9.9913903e-05
-9.9910775e-05
52.75496
-0.037096854
51.950414
-0.040136837
51.107988
-0.043475959
50.225977
-0.047140985
49.301713
-0.05115912
48.331126
-0.05555676
47.308242
-0.060357533
46.224598
-0.0655793
45.068602
-0.071229728
43.824893
-0.077299996
42.47379
-0.083756124
40.991024
-0.090527533
39.348015
-0.097492781
37.513082
-0.10446313
35.454073
-0.11116597
33.142877
-0.11723231
30.562091
-0.12219514
27.713492
-0.12550837
24.626952
-0.12659622
21.367116
-0.12493896
18.034274
-0.12018841
14.756266
-0.11228859
11.670906
-0.10155894
8.9025918
-0.088695759
6.5403303
-0.074670939
4.6246853
-0.06055059
3.1474507
-0.047294167
2.0623885
-0.035601976
1.3015213
-0.02585126
0.79097832
-0.018119337
0.46252502
-0.012261944
0.25970904
-0.0080076365
0.13953713
-0.0050393551
0.071354475
-0.0030502364
0.034471082
-0.0017735649
0.015580635
-0.00099337042
0.0065103291
-0.00054357188
0.0024793298
-0.00030199365
0.00084673985
-0.00018299678
0.00025476716
-0.00013020216
6.6284366e-05
-0.00010951945
1.4633352e-05
-0.00010251151
2.6994509e-06
-0.0001004998
4.0387172e-07
-0.0001000212
8.886605e-09
-9.9930803e-05
-1.3092049e-07
-9.9922521e-05
-2.1985741e-07
-9.9926245e-05
-1.799015e-07
-9.9924277e-05
1.8415597e-08
-9.9912528e-05
-9.9911557e-05
52.293391
-0.034507337
51.489552
-0.037332912
50.648165
-0.040435908
49.767716
-0.04384115
48.845798
-0.047573932
47.878697
-0.051658925
46.860908
-0.056118428
45.784579
-0.060969703
44.638894
-0.066221031
43.409447
-0.071866082
42.077696
-0.077876145
40.620656
-0.08418983
39.011094
-0.090700134
37.218565
-0.097239391
35.211771
-0.10356378
32.962683
-0.10934096
30.452736
-0.11414694
27.680853
-0.11748059
24.672152
-0.11880542
21.484896
-0.11762461
18.212318
-0.11358539
14.976091
-0.1065923
11.91047
-0.096891909
9.140031
-0.085086781
6.7576418
-0.0720549
4.8101436
-0.058789224
3.2961464
-0.046209637
2.1751139
-0.035011319
1.3827773
-0.025592094
0.84693549
-0.018062996
0.49947069
-0.012315611
0.28314179
-0.0081096787
0.15381167
-0.0051520418
0.079682925
-0.003152671
0.039097784
-0.0018560788
0.018005404
-0.0010535182
0.0076941714
-0.00058332158
0.0030094269
-0.00032563283
0.0010605327
-0.00019548661
0.00033090403
-0.0001359713
8.9735391e-05
-0.00011180715
2.0752902e-05
-0.00010327527
4.0229107e-06
-0.00010071014
6.3112107e-07
-0.00010006799
2.7812213e-08
-9.9939152e-05
-1.3865796e-07
-9.9923305e-05
-2.1613981e-07
-9.9924917e-05
-1.597346e-07
-9.99219e-05
1.9930979e-08
-9.9911609e-05
-9.9911973e-05
51.864377
-0.032232455
51.061279
-0.034869795
50.220934
-0.037765534
49.341998
-0.04094279
48.422296
-0.044425177
47.458429
-0.048235829
46.445313
-0.052395836
45.375639
-0.056921862
44.239286
-0.061822599
43.022705
-0.067093713
41.708377
-0.072710828
40.27448
-0.07862021
38.69501
-0.084726981
36.940677
-0.090881283
34.981019
-0.096863785
32.788185
-0.10237361
30.342706
-0.10702401
27.641104
-0.11035352
24.704357
-0.11186127
21.585041
-0.11107303
18.369927
-0.10763563
15.174829
-0.10142312
12.130329
-0.092621551
9.3606599
-0.08175258
6.9618
-0.069610438
4.9861328
-0.05712025
3.4385612
-0.045162572
2.284007
-0.034424032
1.4619019
-0.025317939
0.90184172
-0.017983981
0.53599625
-0.012345489
0.30649049
-0.0081904532
0.16815978
-0.0052476902
0.088141329
-0.0032427658
0.043857121
-0.0019306253
0.020540134
-0.0011092527
0.0089569625
-0.00062115918
0.003589191
-0.00034882094
0.0013015412
-0.00020816209
0.0004198567
-0.00014205572
0.00011828604
-0.00011432603
2.8555946e-05
-0.00010415731
5.7986473e-06
-0.00010096622
9.5498622e-07
-0.00010012845
6.4024304e-08
-9.9950654e-05
-1.4200638e-07
-9.9924631e-05
-2.1044215e-07
-9.9923771e-05
-1.4206972e-07
-9.9919934e-05
1.9362838e-08
-9.9910976e-05
-9.99121e-05
51.463943
-0.030219636
50.661611
-0.032690526
49.822308
-0.03540303
48.944838
-0.038378758
48.027236
-0.041639833
47.066387
-0.045208012
46.057581
-0.049103287
44.994001
-0.053341729
43.866149
-0.057932299
42.661249
-0.062872269
41.362707
-0.068140864
39.949761
-0.073690787
38.397534
-0.079437435
36.677811
-0.085246134
34.760945
-0.090918559
32.619336
-0.096181013
30.232814
-0.10067928
27.595866
-0.10398696
24.725856
-0.10563559
21.670265
-0.1051728
18.509943
-0.10224802
15.355152
-0.096711844
12.332753
-0.088699778
9.5662255
-0.078663421
7.1540234
-0.067322139
5.1534215
-0.055538248
3.5751288
-0.044153716
2.3892801
-0.033844082
1.5389756
-0.025033984
0.95570768
-0.017887474
0.57207982
-0.01235607
0.32972178
-0.0082534521
0.18254775
-0.0053287209
0.096701164
-0.0033219663
0.048728017
-0.0019978787
0.023171344
-0.0011607334
0.010291543
-0.00065698083
0.004215786
-0.00037138422
0.0015692404
-0.00022088645
0.00052193479
-0.00014838371
0.00015231411
-0.00011705226
3.8263164e-05
-0.00010515527
8.1153161e-06
-0.0001012705
1.4019154e-06
-0.0001002043
1.2349077e-07
-9.9965931e-05
-1.4022109e-07
-9.9926663e-05
-2.0319628e-07
-9.9922835e-05
-1.266927e-07
-9.9918308e-05
1.7608382e-08
-9.9910527e-05
-9.9912031e-05
51.088782
-0.028427223
50.287233
-0.030749975
49.448965
-0.033299431
48.572917
-0.036095861
47.657314
-0.039160057
46.699293
-0.04251254
45.694486
-0.046172296
44.636517
-0.050154822
43.516454
-0.054469237
42.32222
-0.059114115
41.038064
-0.064071699
39.644191
-0.069300147
38.116762
-0.074723633
36.428569
-0.080220532
34.550752
-0.085610675
32.45601
-0.090644013
30.123641
-0.094994876
27.546402
-0.098268093
24.738478
-0.10002462
21.742779
-0.099833072
18.634715
-0.097347618
15.519301
-0.092400862
12.51967
-0.085086008
9.7582326
-0.075793707
7.3353769
-0.065176262
5.3126919
-0.054037893
3.7062418
-0.043183045
2.4911312
-0.033274306
1.6140795
-0.024744243
1.0085506
-0.017777617
0.60770817
-0.012351041
0.35281072
-0.0083016274
0.19694886
-0.0053972632
0.10533894
-0.0033916201
0.053692448
-0.002058538
0.025886967
-0.0012081985
0.011691095
-0.0006907625
0.0048862105
-0.0003932021
0.0018628417
-0.00023354654
0.00063727161
-0.00015488823
0.0001921256
-0.00011995987
5.0080515e-05
-0.00010626451
1.1063655e-05
-0.00010162456
2.0011299e-06
-0.00010029713
2.13222e-07
-9.998564e-05
-1.3227052e-07
-9.992959e-05
-1.9464644e-07
-9.992214e-05
-1.1333731e-07
-9.991696e-05
1.5262339e-08
-9.9910185e-05
-9.9911797e-05
50.736113
-0.02682185
49.93536
-0.029011991
49.098118
-0.031415516
48.223451
-0.034051495
47.309753
-0.036939524
46.354395
-0.040099008
45.353314
-0.043548011
44.300539
-0.047301479
43.187647
-0.051368606
42.003204
-0.055749029
40.732226
-0.060427537
39.355805
-0.065366948
37.851063
-0.070498993
36.191731
-0.075713334
34.34971
-0.0808456
32.298037
-0.085666452
30.015607
-0.08987542
27.4937
-0.093105214
24.743702
-0.094943603
21.8044
-0.094979188
18.746204
-0.092872323
15.669165
-0.088441984
12.69273
-0.081745826
9.9379852
-0.073121327
7.5067959
-0.063160592
5.4645519
-0.052614098
3.8322564
-0.042250032
2.589745
-0.032716708
1.6872929
-0.02445183
1.0603921
-0.017657746
0.64287448
-0.012333449
0.37573888
-0.0083374763
0.21134198
-0.0054551723
0.11403538
-0.0034529547
0.058735124
-0.0021132905
0.028676355
-0.0012519313
0.013149275
-0.0007225385
0.0055974303
-0.00041419884
0.0021813702
-0.00024605227
0.0007658493
-0.00016150891
0.00023795509
-0.00012302227
6.4195114e-05
-0.00010747863
1.4734355e-05
-0.00010202905
2.7841463e-06
-0.00010040831
3.4130139e-07
-0.00010001046
-1.1679414e-07
-9.9933624e-05
-1.8486542e-07
-9.9921722e-05
-1.0170747e-07
-9.9915845e-05
1.2746381e-08
-9.9909901e-05
-9.9911456e-05
50.403578
-0.025376454
49.603627
-0.02744726
48.767401
-0.029719483
47.894076
-0.032211116
46.982201
-0.034940677
46.029358
-0.037926559
45.031765
-0.041185978
43.983817
-0.044733352
42.877561
-0.048577888
41.702146
-0.052720096
40.443295
-0.057146924
39.082915
-0.061825201
37.59902
-0.0666932
35.966223
-0.071650418
34.157156
-0.076546318
32.145215
-0.081169798
29.909005
-0.085242747
27.438543
-0.088422878
24.742732
-0.090322433
21.856636
-0.090548951
18.846054
-0.088769977
15.806353
-0.084794312
12.853353
-0.078649665
10.10662
-0.070626956
7.669106
-0.061264126
5.6095459
-0.051261935
3.9534966
-0.041353716
2.685293
-0.032172591
1.7586931
-0.024159097
1.1112564
-0.017530486
0.67757669
-0.01230575
0.39849288
-0.0083630631
0.22571053
-0.0055040256
0.12277477
-0.0035070532
0.063843148
-0.0021627795
0.0315302
-0.0012922317
0.014660278
-0.00075238203
0.0063464752
-0.00043433388
0.0025237303
-0.00025833439
0.00090752569
-0.00016819293
0.00028996955
-0.00012621335
8.0772571e-05
-0.00010879001
1.921616e-05
-0.00010248388
3.784249e-06
-0.00010053901
5.1687445e-07
-0.00010004107
-9.2069348e-08
-9.9939e-05
-1.7376845e-07
-9.9921631e-05
-9.1504086e-08
-9.9914933e-05
1.0319607e-08
-9.9909649e-05
-9.9911054e-05
50.089162
-0.024068873
49.290017
-0.026031773
48.454794
-0.028185289
47.582774
-0.030546439
46.672647
-0.033132766
45.722187
-0.03596174
44.727872
-0.039049796
43.684429
-0.04241085
42.584339
-0.046054075
41.417284
-0.049980698
40.169639
-0.054179515
38.824066
-0.058620825
37.359407
-0.063248602
35.751102
-0.067970963
33.972484
-0.072649546
31.997332
-0.077089394
29.804043
-0.081032332
27.38155
-0.084158579
24.736554
-0.086102759
21.900742
-0.086490302
18.935656
-0.084996607
15.932242
-0.081423045
13.002768
-0.075772037
10.265132
-0.06829363
7.8230393
-0.05947693
5.7481625
-0.049976694
4.0702578
-0.040492841
2.7779348
-0.031642707
1.8283542
-0.023867777
1.1611697
-0.017397889
0.71181615
-0.012269926
0.42106321
-0.0083800914
0.24004143
-0.0055451573
0.13154423
-0.0035548619
0.069005662
-0.002207594
0.034440416
-0.0013293981
0.016218858
-0.00078038992
0.0071305026
-0.00045359339
0.00288876
-0.00027034169
0.0010620602
-0.00017489525
0.00034827415
-0.00012950838
9.9955649e-05
-0.00011019026
2.4594273e-05
-0.00010298824
5.0359487e-06
-0.00010069017
7.5010332e-07
-0.00010007813
-5.5987422e-08
-9.9945975e-05
-1.6112063e-07
-9.9921927e-05
-8.2434429e-08
-9.9914204e-05
8.1270573e-09
-9.9909414e-05
-9.9910618e-05
49.79113
-0.022880802
48.99279
-0.024745702
48.158558
-0.026791424
47.287808
-0.029034102
46.37936
-0.031490392
45.431166
-0.03417692
44.43994
-0.037109402
43.400719
-0.040301272
42.306377
-0.043761638
41.147094
-0.047492319
39.909845
-0.051483695
38.577991
-0.055709087
37.131145
-0.060117469
35.545529
-0.064624548
33.795148
-0.069102742
31.85417
-0.073371457
29.700859
-0.077190365
27.323218
-0.080260018
24.725984
-0.082235558
21.937775
-0.082759276
19.016196
-0.081514819
16.048018
-0.078298334
13.142046
-0.073090854
10.414398
-0.066106434
7.9692475
-0.057790065
5.8808423
-0.048753908
4.1828095
-0.039665958
2.8678187
-0.031127408
1.8963474
-0.023579129
1.2101584
-0.017261544
0.74559663
-0.012227557
0.44344325
-0.0083899493
0.25432442
-0.0055796793
0.14033322
-0.00359719
0.074213531
-0.0022482572
0.037400003
-0.001363714
0.017820308
-0.00080667108
0.0079468365
-0.00047198286
0.0032752724
-0.000282038
0.0012291376
-0.00018157822
0.00041291933
-0.00013288451
0.000121864
-0.00011167065
3.0949101e-05
-0.00010354081
6.5744513e-06
-0.00010086252
1.052095e-06
-0.00010012231
-6.0333852e-09
-9.9954824e-05
-1.4653706e-07