/*--------------------------------*- C++ -*----------------------------------*\
| =========                 |                                                 |
| \\      /  F ield         | OpenFOAM: The Open Source CFD Toolbox           |
|  \\    /   O peration     | Version:  4.0                                   |
|   \\  /    A nd           | Web:      www.OpenFOAM.org                      |
|    \\/     M anipulation  |                                                 |
\*---------------------------------------------------------------------------*/
FoamFile
{
    version     2.0;
    format      ascii;
    class       volScalarField;
    location    "792";
    object      T;
}
// * * * * * * * * * * * * * * * * * * * * * * * * * * * * * * * * * * * * * //

dimensions      [0 0 0 1 0 0 0];

internalField   nonuniform List<scalar> 
5000
(
353.70571
350.01132
346.08981
341.97128
337.69738
333.32144
328.90752
324.52838
320.26213
316.18772
312.37957
308.90199
305.80399
303.11553
300.84572
298.98334
297.49976
296.3534
295.49508
294.87319
294.43801
294.14475
293.95519
293.83831
293.77007
293.73269
293.71374
293.705
293.70143
293.70021
293.6999
293.69987
293.69989
293.69991
293.69992
293.69992
293.69992
293.69992
293.69992
293.69992
293.69992
293.69993
293.69993
293.69993
293.69993
293.69993
293.69993
293.69993
293.69993
293.69992
366.77711
363.93747
360.88647
357.61175
354.10336
350.35595
346.37155
342.16297
337.75733
333.19926
328.55279
323.9011
319.34311
314.98649
310.93749
307.28908
304.1097
301.43533
299.26704
297.57419
296.3024
295.38367
294.74616
294.32201
294.05216
293.88866
293.79486
293.74427
293.71887
293.70716
293.70228
293.70048
293.69993
293.69979
293.69977
293.69977
293.69978
293.69978
293.69978
293.69978
293.69978
293.69978
293.69978
293.69978
293.69978
293.69978
293.69978
293.69978
293.69978
293.69978
369.91597
367.29246
364.47981
361.46996
358.25584
354.832
351.19566
347.34827
343.29766
339.06089
334.66758
330.16322
325.61157
321.09495
316.711
312.56532
308.76027
305.38187
302.48798
300.10112
298.20785
296.76462
295.70776
294.96471
294.46365
294.14021
293.94096
293.82437
293.75997
293.72667
293.71071
293.70372
293.70096
293.7
293.69972
293.69965
293.69963
293.69963
293.69963
293.69963
293.69963
293.69963
293.69963
293.69963
293.69963
293.69963
293.69963
293.69963
293.69963
293.69963
371.47756
368.96162
366.26538
363.38178
360.3048
357.03005
353.55542
349.88206
346.01572
341.96837
337.76042
333.42318
329.00144
324.55549
320.16152
315.90931
311.89614
308.21699
304.95247
302.15737
299.8532
298.02703
296.63667
295.62024
294.9071
294.42734
294.11842
293.92859
293.81777
293.75668
293.72513
293.71002
293.7034
293.70078
293.69985
293.69957
293.6995
293.69949
293.69949
293.69949
293.69949
293.69949
293.69949
293.69949
293.69949
293.69949
293.69949
293.69949
293.69949
293.69949
372.59199
370.15304
367.53972
364.74521
361.76364
358.5906
355.22373
351.66354
347.91448
343.9863
339.89572
335.66836
331.34088
326.96279
322.59762
318.32237
314.22441
310.39499
306.91978
303.86778
301.28151
299.17134
297.5159
296.26814
295.36495
294.73743
294.31936
294.05279
293.89064
293.79698
293.74595
293.71994
293.70767
293.70238
293.70032
293.69962
293.69941
293.69935
293.69934
293.69934
293.69934
293.69934
293.69934
293.69934
293.69934
293.69934
293.69934
293.69934
293.69934
293.69934
373.45905
371.08015
368.53144
365.80618
362.89855
359.80399
356.51976
353.04568
349.38504
345.54581
341.54209
337.39586
333.13883
328.81417
324.47784
320.19862
316.05635
312.13735
308.52702
305.30021
302.51116
300.18596
298.31968
296.8792
295.8107
295.04934
294.52854
294.18698
293.97268
293.84452
293.77187
293.73309
293.71378
293.70492
293.70121
293.69982
293.69936
293.69923
293.6992
293.69919
293.69919
293.69919
293.69919
293.69919
293.69919
293.69919
293.69919
293.69919
293.69919
293.69919
374.16632
371.83653
369.34063
366.67198
363.82478
360.79435
357.57766
354.17396
350.58561
346.81915
342.88666
338.80727
334.60897
330.33028
326.02166
321.74595
317.57728
313.59774
309.89129
306.53535
303.59127
301.09593
299.057
297.45325
296.24
295.35765
294.74105
294.32736
294.06132
293.89779
293.80213
293.7492
293.72171
293.70845
293.70259
293.70024
293.6994
293.69914
293.69907
293.69905
293.69905
293.69905
293.69905
293.69905
293.69905
293.69905
293.69905
293.69905
293.69905
293.69905
374.75798
372.46935
370.0177
367.3965
364.59995
361.6233
358.46329
355.11876
351.59135
347.88651
344.01468
339.99281
335.84592
331.60885
327.32768
323.06044
318.8766
314.85447
311.07623
307.62041
304.55299
301.91868
299.73501
297.99081
296.6498
295.65796
294.95251
294.47031
294.15392
293.95506
293.83576
293.7678
293.7313
293.71298
293.70449
293.7009
293.69953
293.69907
293.69894
293.69891
293.6989
293.6989
293.6989
293.6989
293.6989
293.6989
293.6989
293.6989
293.6989
293.6989
375.26456
373.01124
370.59755
368.01704
365.26395
362.33346
359.22218
355.92858
352.45376
348.80229
344.98336
341.0121
336.91117
332.7124
328.45823
324.20269
320.01119
315.95864
312.12522
308.58977
305.42136
302.67064
300.36307
298.49607
297.04099
295.94936
295.16132
294.61414
294.24902
294.01526
293.87207
293.78853
293.74239
293.71846
293.70693
293.70183
293.69979
293.69906
293.69883
293.69877
293.69876
293.69875
293.69875
293.69875
293.69875
293.69875
293.69875
293.69875
293.69876
293.69876
375.70581
373.48327
371.10269
368.55768
365.84249
362.95231
359.88359
356.63456
353.20586
349.60137
345.82923
341.90313
337.84377
333.68046
329.4526
325.21077
321.01685
316.9426
313.06613
309.466
306.21339
303.36349
300.94829
298.9726
297.41474
296.23161
295.36651
294.7577
294.34557
294.07755
293.91048
293.81103
293.7548
293.72482
293.7099
293.70304
293.70017
293.6991
293.69874
293.69864
293.69861
293.69861
293.69861
293.69861
293.69861
293.69861
293.69861
293.69861
293.69861
293.69861
376.09571
373.90042
371.54913
369.03553
366.3539
363.4994
360.46839
357.25889
353.8712
350.30859
346.57836
342.69298
338.67151
334.54115
330.33871
326.11176
321.91906
317.82945
313.91898
310.26558
306.94176
304.00626
301.49648
299.42366
297.77247
296.50494
295.5677
294.90033
294.44289
294.14136
293.95055
293.83501
293.76837
293.73201
293.71339
293.70455
293.70071
293.6992
293.69867
293.69851
293.69847
293.69846
293.69846
293.69846
293.69846
293.69846
293.69846
293.69846
293.69846
293.69846
376.44428
374.27338
371.9483
369.46281
366.81121
363.98866
360.99144
357.81741
354.46655
350.94167
347.24933
343.40099
339.41432
335.31469
331.13666
326.92521
322.73627
318.63604
314.69851
311.00072
307.61601
304.60588
302.01223
299.85194
298.11545
296.7697
295.76469
295.04159
294.54049
294.20623
293.99194
293.86024
293.78297
293.73994
293.71738
293.70636
293.7014
293.69937
293.69863
293.6984
293.69833
293.69832
293.69832
293.69832
293.69832
293.69832
293.69832
293.69832
293.69832
293.69832
376.75893
374.61006
372.30867
369.84858
367.22412
364.43046
361.4638
358.32188
355.00442
351.51381
347.85602
344.04162
340.08707
336.01618
331.86154
327.66583
323.48246
319.37518
315.41597
311.68087
308.24361
305.16784
302.49925
300.25969
298.44484
297.02631
295.95745
295.18122
294.63799
294.27183
294.03436
293.88651
293.79845
293.74855
293.72183
293.70845
293.70225
293.69962
293.69863
293.6983
293.6982
293.69818
293.69817
293.69817
293.69817
293.69817
293.69817
293.69817
293.69817
293.69817
377.04529
374.91649
372.63668
370.19971
367.59999
364.83264
361.89386
358.78123
355.49428
352.03505
348.40896
344.62584
340.70111
336.65718
332.52493
328.34497
324.16845
320.05684
316.08021
312.31349
308.83051
305.69659
302.96063
300.64883
298.76166
297.27515
296.14598
295.31901
294.73515
294.33788
294.07758
293.91364
293.81471
293.75777
293.72672
293.71082
293.70326
293.69996
293.69866
293.69821
293.69807
293.69803
293.69802
293.69802
293.69802
293.69802
293.69802
293.69802
293.69802
293.69802
377.30772
375.19732
372.9373
370.52156
367.94451
365.20132
362.28811
359.2024
355.94349
352.51316
348.91635
345.16223
341.26528
337.24672
333.13588
328.97153
324.80275
320.68893
316.6983
312.9046
309.38159
306.19583
303.39894
301.02098
299.06681
297.51661
296.33034
295.45486
294.83176
294.40416
294.1214
293.94149
293.83164
293.76754
293.73201
293.71346
293.70443
293.70038
293.69873
293.69813
293.69794
293.69789
293.69788
293.69788
293.69788
293.69788
293.69788
293.69788
293.69788
293.69788
377.54966
375.45625
373.21449
370.81832
368.26221
365.5413
362.65171
359.59085
356.35789
352.95431
349.38468
345.65755
341.78661
337.79199
333.70163
329.55265
325.39225
321.27786
317.27599
313.45916
309.90085
306.66862
303.81637
301.37757
299.36111
297.75108
296.51063
295.58868
294.92767
294.47051
294.16567
293.96992
293.84913
293.77779
293.73767
293.71635
293.70576
293.70089
293.69885
293.69808
293.69782
293.69775
293.69773
293.69773
293.69773
293.69773
293.69773
293.69773
293.69773
293.69773
377.77389
375.69623
373.4714
371.09339
368.55669
365.85646
362.98878
359.951
356.74214
353.36347
349.81917
346.11728
342.27077
338.29878
334.22803
330.09412
325.94252
321.82887
317.81801
313.98125
310.39169
307.11759
304.2148
301.71984
299.64528
297.9789
296.68695
295.72044
295.02276
294.53679
294.21027
293.99882
293.86711
293.78846
293.74366
293.71948
293.70724
293.70148
293.699
293.69804
293.69771
293.69762
293.69759
293.69759
293.69758
293.69758
293.69758
293.69758
293.69759
293.69759
377.98266
375.91968
373.71062
371.34953
368.83092
366.14995
363.3027
360.28644
357.10008
353.74467
350.22408
346.54588
342.72238
338.77186
334.71989
330.6007
326.45819
322.34632
318.32832
314.47434
310.85697
307.54497
304.59587
302.0489
299.91999
298.20041
296.85941
295.85011
295.11695
294.6029
294.25507
294.0281
293.88551
293.79952
293.74996
293.72283
293.70886
293.70216
293.69921
293.69803
293.69761
293.69748
293.69745
293.69744
293.69744
293.69744
293.69744
293.69744
293.69744
293.69744
378.17783
376.12858
373.93428
371.58901
369.08732
366.42437
363.59624
360.60014
357.43486
354.10126
350.60295
346.94705
343.1453
339.21516
335.1812
331.07639
326.94314
322.83386
318.81028
314.94137
311.29914
307.95271
304.96103
302.36572
300.18584
298.41593
297.02816
295.97772
295.21018
294.66874
294.3
294.05769
293.90427
293.8109
293.75652
293.72639
293.71063
293.70293
293.69946
293.69804
293.69752
293.69735
293.6973
293.69729
293.69729
293.69729
293.69729
293.69729
293.69729
293.69729
378.36096
376.3246
374.14415
371.81374
369.32793
366.68191
363.87173
360.89456
357.74909
354.43603
350.95871
347.32388
343.54272
339.632
335.61533
331.52451
327.40062
323.29459
319.26673
315.38483
311.72031
308.34249
305.31152
302.67118
300.44338
298.62577
297.1933
296.10327
295.30243
294.73426
294.34498
294.08751
293.92332
293.82258
293.76334
293.73013
293.71252
293.70378
293.69976
293.69807
293.69743
293.69722
293.69716
293.69715
293.69715
293.69715
293.69715
293.69715
293.69715
293.69715
378.53335
376.50913
374.34173
372.02531
369.55446
366.92438
364.13112
361.17179
358.04502
354.75134
351.29385
347.67896
343.91737
340.02517
336.0251
331.94792
327.83342
323.73117
319.70012
315.80691
312.12234
308.7158
305.64846
302.96606
300.69312
298.83022
297.35498
296.2268
295.39365
294.79939
294.38995
294.11752
293.94262
293.83451
293.77038
293.73405
293.71454
293.70471
293.7001
293.69812
293.69736
293.6971
293.69702
293.697
293.697
293.697
293.697
293.697
293.697
293.697
378.69611
376.68336
374.52828
372.22508
369.76836
367.15335
364.37607
361.43361
358.32451
355.04917
351.61048
348.01453
344.27156
340.39705
336.41296
332.34904
328.24392
324.14587
320.11255
316.2095
312.50683
309.07394
305.97287
303.25107
300.93552
299.02953
297.51333
296.34836
295.48385
294.86412
294.43488
294.14766
293.96215
293.84667
293.77762
293.73813
293.71668
293.70571
293.70049
293.6982
293.6973
293.69698
293.69689
293.69686
293.69685
293.69685
293.69685
293.69685
293.69685
293.69685
378.85019
376.8483
374.7049
372.41421
369.97088
367.37014
364.608
361.68153
358.58918
355.33125
351.91041
348.33247
344.60726
340.74969
336.78099
332.72997
328.63418
324.54067
320.50586
316.59424
312.87519
309.41807
306.28561
303.52685
301.171
299.22396
297.66847
296.46799
295.57302
294.9284
294.47971
294.17791
293.98185
293.85903
293.78504
293.74236
293.71893
293.70679
293.70092
293.69831
293.69725
293.69687
293.69675
293.69672
293.69671
293.69671
293.69671
293.69671
293.69671
293.69671
378.99642
377.00484
374.87252
372.59372
370.1631
367.5759
364.82814
361.91686
358.84044
355.59906
352.19521
348.63445
344.9262
341.08487
337.131
333.09253
329.006
324.9173
320.88168
316.96258
313.22869
309.74922
306.5875
303.79398
301.39995
299.41375
297.82053
296.58573
295.66116
294.99222
294.52443
294.20822
294.00171
293.87156
293.79262
293.74672
293.72128
293.70794
293.7014
293.69844
293.69721
293.69676
293.69661
293.69657
293.69656
293.69656
293.69656
293.69656
293.69656
293.69656
379.1355
377.15373
375.03196
372.76447
370.34594
367.77164
365.03756
362.14074
359.07948
355.85387
352.46624
348.92188
345.22987
341.40413
337.46456
333.43832
329.36095
325.27727
321.24142
317.31582
313.56845
310.06831
306.87926
304.05299
301.62272
299.59911
297.96963
296.70163
295.74827
295.05557
294.56901
294.23858
294.0217
293.88426
293.80036
293.75121
293.72372
293.70916
293.70192
293.69859
293.69719
293.69666
293.69648
293.69643
293.69642
293.69641
293.69641
293.69641
293.69642
293.69642
379.26806
377.29565
375.18393
372.92722
370.52022
367.95821
365.23719
362.35415
359.30737
356.09682
352.72469
349.19602
345.51958
341.70883
337.78308
333.76872
329.70041
325.62193
321.58634
317.65509
313.89544
310.37617
307.16153
304.30435
301.83965
299.78026
298.11587
296.81575
295.83438
295.11842
294.61342
294.26896
294.04179
293.89709
293.80823
293.75581
293.72626
293.71044
293.70249
293.69877
293.69717
293.69656
293.69635
293.69629
293.69627
293.69627
293.69627
293.69627
293.69627
293.69627
379.39464
377.43117
375.32906
373.08264
370.68666
368.13639
365.42785
362.55798
359.52504
356.3289
352.97159
349.45796
345.79647
342.00015
338.08776
334.08497
330.0256
325.95244
321.91755
317.9814
314.21057
310.67354
307.4349
304.54852
302.05104
299.95738
298.25937
296.92814
295.9195
295.18079
294.65766
294.29934
294.06198
293.91004
293.81623
293.76053
293.72888
293.71179
293.70309
293.69897
293.69717
293.69647
293.69622
293.69615
293.69613
293.69612
293.69612
293.69612
293.69612
293.69612
379.51572
377.5608
375.46788
373.23132
370.84588
368.30686
365.61024
362.753
359.73331
356.55096
353.20787
349.70869
346.06157
342.27916
338.37968
334.38817
330.33761
326.26988
322.23605
318.29568
314.51464
310.9611
307.69992
304.78588
302.25717
300.13066
298.40023
297.03885
296.00363
295.24266
294.7017
294.3297
294.08224
293.92311
293.82434
293.76534
293.73158
293.71319
293.70373
293.69919
293.69719
293.69638
293.6961
293.69601
293.69598
293.69598
293.69598
293.69598
293.69598
293.69598
379.63173
377.68501
375.6009
373.37379
370.99845
368.4702
365.78503
362.93988
359.93289
356.76379
353.43436
349.94905
346.31577
342.54678
338.65981
334.67928
330.6374
326.57517
322.54273
318.59874
314.80837
311.23946
307.95706
305.0168
302.4583
300.30026
298.53855
297.14792
296.08681
295.30403
294.74555
294.36004
294.10256
293.93627
293.83255
293.77025
293.73436
293.71465
293.70441
293.69944
293.69721
293.6963
293.69597
293.69587
293.69584
293.69583
293.69583
293.69583
293.69583
293.69583
379.74306
377.80421
375.72855
373.51051
371.14487
368.62695
365.95277
363.11924
360.12445
356.96808
353.65177
350.17982
346.55987
342.80385
338.92901
334.95918
330.92584
326.86917
322.83839
318.89132
315.09241
311.50917
308.20679
305.24164
302.65466
300.46634
298.67443
297.2554
296.16904
295.3649
294.78918
294.39034
294.12294
293.94952
293.84086
293.77524
293.7372
293.71616
293.70513
293.69971
293.69725
293.69623
293.69585
293.69573
293.69569
293.69569
293.69568
293.69568
293.69568
293.69568
379.85003
377.91875
375.85122
373.64189
371.28557
368.7776
366.11398
363.29161
360.30857
357.16444
353.86077
350.4017
346.79461
343.05112
339.18805
335.22865
331.20372
327.15264
323.12377
319.17409
315.36737
311.77074
308.4495
305.46069
302.84649
300.62904
298.80794
297.36135
296.25034
295.42528
294.8326
294.42058
294.14335
293.96284
293.84925
293.78031
293.74012
293.71772
293.70588
293.70001
293.6973
293.69616
293.69573
293.69559
293.69555
293.69554
293.69554
293.69554
293.69554
293.69554
379.95296
378.02896
375.96926
373.76832
371.42097
368.92256
366.26911
363.45749
360.48576
357.35342
354.06194
350.61528
347.02063
343.28927
339.43762
335.48838
331.47173
327.42626
323.39951
319.44765
315.63378
312.02464
308.68558
305.67425
303.034
300.78851
298.93917
297.46579
296.33074
295.48517
294.8758
294.45077
294.16379
293.97624
293.85772
293.78546
293.74309
293.71933
293.70667
293.70032
293.69737
293.69611
293.69562
293.69545
293.69541
293.69539
293.69539
293.69539
293.69539
293.69539
380.05212
378.13514
376.08297
373.89012
371.55142
369.06223
366.41857
363.61732
360.65648
357.53552
354.2558
350.82114
347.23851
343.5189
339.67834
335.73903
331.73052
327.69066
323.66622
319.71257
315.89214
312.27128
308.91537
305.88259
303.21736
300.94488
299.06821
297.56878
296.41024
295.54456
294.91877
294.4809
294.18425
293.9897
293.86627
293.79068
293.74613
293.72098
293.70749
293.70066
293.69744
293.69605
293.69551
293.69532
293.69526
293.69525
293.69525
293.69524
293.69524
293.69524
380.14777
378.23755
376.19266
374.0076
371.67724
369.19695
366.56275
363.7715
360.82118
357.7112
354.44284
351.01978
347.44878
343.74056
339.91078
335.98117
331.98065
327.94641
323.92444
319.96934
316.1429
312.51107
309.1392
306.08596
303.39677
301.09827
299.19512
297.67035
296.48887
295.60347
294.96151
294.51095
294.20473
294.00321
293.87489
293.79596
293.74922
293.72268
293.70834
293.70102
293.69753
293.69601
293.6954
293.69519
293.69512
293.6951
293.6951
293.6951
293.6951
293.6951
380.24011
378.33643
376.29857
374.12104
371.79874
369.32704
366.70197
363.92038
360.98023
357.88087
354.62349
351.21165
347.65192
343.95476
340.13547
336.21531
332.22266
328.19403
324.17467
320.21843
316.38648
312.74435
309.35735
306.28458
303.5724
301.24878
299.31999
297.77055
296.56665
295.6619
295.00402
294.54092
294.22521
294.01677
293.88356
293.80131
293.75236
293.72442
293.70922
293.7014
293.69764
293.69597
293.6953
293.69505
293.69498
293.69496
293.69495
293.69495
293.69495
293.69495
380.32936
378.43201
376.40093
374.23069
371.91617
369.45278
366.83654
364.0643
361.13397
358.04489
354.79814
351.39717
347.84837
344.16195
340.35286
336.44195
332.45703
328.43399
324.41735
320.46027
316.62327
312.97147
309.57011
306.47867
303.7444
301.39654
299.44287
297.86941
296.6436
295.71986
295.04629
294.5708
294.24569
294.03037
293.8923
293.80671
293.75556
293.7262
293.71013
293.70179
293.69775
293.69594
293.69519
293.69492
293.69484
293.69481
293.69481
293.69481
293.69481
293.69481
380.41571
378.52447
376.49997
374.33677
372.0298
369.57444
366.96675
364.20354
361.28274
358.2036
354.96716
351.57672
348.03853
344.36254
340.56339
336.66151
332.6842
328.66671
324.65291
320.69525
316.85362
313.19272
309.77772
306.66844
303.91292
301.54164
299.56383
297.96697
296.71972
295.77734
295.08834
294.6006
294.26617
294.04401
293.90108
293.81217
293.7588
293.72802
293.71106
293.70221
293.69788
293.69591
293.6951
293.69479
293.6947
293.69467
293.69466
293.69466
293.69466
293.69466
380.49933
378.61402
376.59588
374.43951
372.13983
369.69226
367.09284
364.3384
361.42682
358.35732
355.13087
351.75066
348.22276
344.55691
340.76746
336.8744
332.90457
328.89261
324.88174
320.92372
317.07785
313.40841
309.98043
306.85406
304.07809
301.68418
299.68293
298.06327
296.79504
295.83436
295.13014
294.63031
294.28664
294.05768
293.90992
293.81767
293.76208
293.72987
293.71203
293.70265
293.69802
293.69589
293.695
293.69467
293.69456
293.69452
293.69452
293.69451
293.69451
293.69451
380.58037
378.7008
376.68883
374.53908
372.24648
369.80646
367.21506
364.46912
361.56648
358.50633
355.28957
351.91929
348.4014
344.74543
340.96541
337.08099
333.11851
329.11205
325.10418
321.14602
317.29627
313.61878
310.17846
307.03572
304.24006
301.82424
299.80024
298.15833
296.86957
295.89092
295.17171
294.65992
294.30709
294.07137
293.9188
293.82322
293.76541
293.73176
293.71302
293.7031
293.69817
293.69588
293.69491
293.69454
293.69442
293.69438
293.69437
293.69437
293.69437
293.69437
380.65898
378.78498
376.779
374.63566
372.34993
369.91724
367.33362
364.59592
361.70196
358.65089
355.44355
352.08291
348.57475
344.92839
341.15759
337.28162
333.32636
329.32536
325.32057
321.36246
317.50916
313.82409
310.37202
307.21357
304.39895
301.96193
299.9158
298.25219
296.94334
295.94703
295.21304
294.68943
294.32753
294.08509
293.92772
293.82882
293.76878
293.73369
293.71404
293.70358
293.69833
293.69588
293.69483
293.69442
293.69428
293.69424
293.69422
293.69422
293.69422
293.69422
380.73528
378.8667
376.86653
374.72942
372.45036
370.02477
367.44872
364.71902
361.83349
358.79125
355.59305
352.24179
348.74311
345.10611
341.34431
337.4766
333.52845
329.53286
325.5312
321.57333
317.71678
314.02457
310.56129
307.38778
304.55486
302.09731
300.02967
298.34489
297.01635
296.00269
295.25414
294.71885
294.34794
294.09883
293.93667
293.83446
293.77219
293.73564
293.71508
293.70407
293.6985
293.69588
293.69474
293.6943
293.69414
293.69409
293.69408
293.69408
293.69408
293.69407
380.80941
378.94608
376.95156
374.82051
372.54792
370.12925
367.56054
364.83862
361.96129
358.92762
355.73831
352.39618
348.90672
345.27886
341.52583
337.66623
333.72506
329.73485
325.73637
321.77889
317.91938
314.22042
310.74646
307.55849
304.70791
302.23046
300.1419
298.43645
297.08862
296.0579
295.295
294.74816
294.36833
294.11259
293.94566
293.84014
293.77563
293.73763
293.71615
293.70457
293.69869
293.69589
293.69466
293.69418
293.694
293.69395
293.69393
293.69393
293.69393
293.69393
380.88147
379.02326
377.03423
374.90907
372.64277
370.23082
367.66926
364.9549
362.08553
359.0602
355.87956
352.54632
349.06584
345.44689
341.70244
337.85076
333.91647
329.93158
325.93633
321.97938
318.11718
314.41186
310.9277
307.72583
304.8582
302.36146
300.25254
298.52689
297.16017
296.11269
295.33563
294.77736
294.38869
294.12636
293.95469
293.84585
293.77911
293.73964
293.71723
293.7051
293.69888
293.69591
293.69459
293.69406
293.69387
293.69381
293.69379
293.69378
293.69378
293.69378
380.95157
379.09833
377.11465
374.99521
372.73505
370.32963
367.77502
365.06802
362.20641
359.1892
356.01699
352.6924
349.22069
345.61042
341.87436
338.03045
334.10292
330.12332
326.13133
322.17505
318.31039
314.59907
311.10516
307.88994
305.00584
302.49038
300.36163
298.61626
297.23101
296.16704
295.37602
294.80646
294.40902
294.14013
293.96374
293.8516
293.78262
293.74169
293.71834
293.70564
293.69909
293.69593
293.69452
293.69394
293.69373
293.69366
293.69364
293.69364
293.69364
293.69364
381.01981
379.17141
377.19293
375.07907
372.82487
370.42582
367.87797
365.17814
362.32409
359.31479
356.15079
352.83464
349.37148
345.7697
342.04183
338.20554
334.28466
330.31029
326.32159
322.36611
318.49921
314.78223
311.27901
308.05093
305.1509
302.61729
300.46922
298.70456
297.30115
296.22097
295.41618
294.83545
294.42932
294.15392
293.97282
293.85738
293.78617
293.74376
293.71948
293.7062
293.69931
293.69596
293.69445
293.69383
293.6936
293.69352
293.6935
293.69349
293.69349
293.69349
381.08627
379.24259
377.26918
375.16075
372.91236
370.51951
367.97826
365.28541
362.43872
359.43713
356.28113
352.97322
349.51839
345.92491
342.20506
338.37623
334.4619
330.49271
326.50732
322.55275
318.68384
314.9615
311.44937
308.20892
305.29349
302.74224
300.57535
298.79184
297.37062
296.27449
295.45611
294.86433
294.44958
294.16771
293.98192
293.8632
293.78974
293.74585
293.72063
293.70677
293.69954
293.696
293.69439
293.69372
293.69346
293.69338
293.69335
293.69335
293.69334
293.69334
381.15104
379.31196
377.34348
375.24036
372.99763
370.61083
368.076
365.38996
362.55044
359.55637
356.40819
353.1083
349.66162
346.07624
342.36425
338.54274
334.63484
330.67079
326.68873
322.73517
318.86444
315.13704
311.61638
308.36401
305.43368
302.8653
300.68006
298.87812
297.43941
296.32759
295.49581
294.8931
294.46981
294.18151
293.99105
293.86904
293.79335
293.74798
293.72181
293.70736
293.69978
293.69604
293.69433
293.69361
293.69333
293.69324
293.69321
293.6932
293.6932
293.6932
381.21419
379.3796
377.41595
375.31798
373.08079
370.69987
368.17131
365.49192
362.6594
359.67266
356.5321
353.24006
349.80134
346.22387
342.51957
338.70524
334.80368
330.84471
326.86601
322.91355
319.04118
315.30899
311.78017
308.51631
305.57156
302.98652
300.78339
298.96341
297.50756
296.38029
295.53529
294.92176
294.48999
294.19531
294.00019
293.87491
293.79698
293.75013
293.723
293.70796
293.70003
293.69609
293.69427
293.6935
293.6932
293.6931
293.69306
293.69305
293.69305
293.69305
381.27581
379.44559
377.48664
375.39372
373.16192
370.78675
368.26431
365.59139
362.76571
359.78612
356.65301
353.36863
349.93769
346.36797
342.67119
338.86392
334.9686
331.01466
327.03931
323.08804
319.21421
315.47749
311.94086
308.66592
305.70719
303.10597
300.88538
299.04775
297.57506
296.43259
295.57453
294.95031
294.51014
294.2091
294.00936
293.88081
293.80064
293.7523
293.72422
293.70858
293.70029
293.69615
293.69422
293.69339
293.69307
293.69296
293.69292
293.69291
293.69291
293.69291
381.33596
379.51002
377.55565
375.46765
373.24111
370.87156
368.35509
365.6885
362.86949
359.8969
356.77106
353.49416
350.07082
346.50869
342.81929
339.01893
335.12976
331.18079
327.20882
323.25882
319.38368
315.64268
312.09855
308.81293
305.84065
303.22368
300.98606
299.13114
297.64193
296.48449
295.61356
294.97875
294.53024
294.2229
294.01854
293.88673
293.80432
293.75449
293.72545
293.70921
293.70057
293.69622
293.69418
293.69329
293.69294
293.69282
293.69278
293.69276
293.69276
293.69276
381.3947
379.57293
377.62305
375.53986
373.31846
370.95439
368.44376
365.78335
362.97085
360.00509
356.88636
353.61679
350.20088
346.64618
342.96401
339.17044
335.28731
331.34328
327.37468
323.42602
319.54972
315.80467
312.25336
308.95743
305.97202
303.33972
301.08547
299.21363
297.70818
296.53601
295.65236
295.00707
294.55031
294.23669
294.02775
293.89267
293.80803
293.75671
293.7267
293.70986
293.70085
293.69629
293.69414
293.69319
293.69281
293.69268
293.69263
293.69262
293.69261
293.69261
381.4521
379.6344
377.68891
375.61041
373.39403
371.03533
368.53039
365.87602
363.0699
360.11082
356.99904
353.73662
350.328
346.78057
343.10548
339.31859
335.44142
331.50226
327.53704
323.58979
319.71247
315.96359
312.40538
309.09949
306.10134
303.45413
301.18364
299.29522
297.77383
296.58715
295.69094
295.03529
294.57033
294.25048
294.03696
293.89864
293.81177
293.75895
293.72797
293.71052
293.70114
293.69637
293.6941
293.69309
293.69269
293.69254
293.69249
293.69247
293.69247
293.69247
381.5082
379.6945
377.75328
375.67938
373.46791
371.11445
368.61509
365.96662
363.16673
360.21418
357.1092
353.85379
350.45229
346.91198
343.24385
339.46351
335.59221
331.65788
327.69603
323.75025
319.87205
316.11954
312.55472
309.2392
306.22869
303.56695
301.28059
299.37594
297.83889
296.63791
295.7293
295.06339
294.5903
294.26426
294.04619
293.90464
293.81553
293.76122
293.72926
293.7112
293.70145
293.69646
293.69407
293.693
293.69256
293.6924
293.69235
293.69233
293.69232
293.69232
381.56307
379.75326
377.81624
375.74682
373.54016
371.19182
368.69792
366.05523
363.26143
360.31527
357.21694
353.96839
350.57388
347.04055
343.37924
339.60534
335.73982
331.81027
327.85179
323.90753
320.02857
316.27262
312.70145
309.37664
306.35412
303.67823
301.37637
299.4558
297.90337
296.6883
295.76745
295.09139
294.61023
294.27804
294.05543
293.91065
293.81931
293.7635
293.73057
293.71189
293.70176
293.69655
293.69404
293.69291
293.69244
293.69226
293.6922
293.69218
293.69218
293.69218
381.61674
379.81076
377.87783
375.81281
373.61085
371.26753
368.77896
366.14192
363.35408
360.41419
357.32237
354.08054
350.69286
347.16638
343.51176
339.74419
335.88437
331.95955
328.00443
324.06175
320.18214
316.42295
312.84567
309.51187
306.4777
303.78802
301.471
299.53483
297.96727
296.73833
295.80538
295.11927
294.63012
294.2918
294.06469
293.91668
293.82311
293.7658
293.7319
293.7126
293.70209
293.69666
293.69401
293.69282
293.69232
293.69213
293.69206
293.69204
293.69203
293.69203
381.66928
379.86703
377.93812
375.8774
373.68004
371.34163
368.85828
366.22678
363.44478
360.51101
357.42557
354.19032
350.80935
347.28958
343.64153
339.88019
336.02598
332.10583
328.15408
324.21302
320.33287
316.5706
312.98747
309.64496
306.59947
303.89634
301.56451
299.61305
298.03061
296.788
295.84311
295.14704
294.64996
294.30556
294.07395
293.92274
293.82694
293.76813
293.73324
293.71332
293.70242
293.69676
293.694
293.69273
293.6922
293.69199
293.69192
293.69189
293.69189
293.69188
381.72072
379.92213
377.99715
375.94065
373.74779
371.41419
368.93595
366.30987
363.53359
360.60582
357.52663
354.29783
350.92343
347.41025
343.76866
340.01343
336.16475
332.24923
328.30083
324.36144
320.48086
316.71568
313.12691
309.77598
306.71949
304.00325
301.65692
299.69046
298.09341
296.83731
295.88062
295.17471
294.66975
294.31931
294.08323
293.92881
293.83079
293.77048
293.7346
293.71405
293.70277
293.69688
293.69398
293.69265
293.69208
293.69186
293.69178
293.69175
293.69174
293.69174
381.77111
379.9761
378.05497
376.00259
373.81416
371.48526
369.01203
366.39126
363.62059
360.69869
357.62563
354.40315
351.0352
347.52848
343.89323
340.14402
336.3008
332.38986
328.4448
324.50712
320.62619
316.85826
313.26407
309.90499
306.8378
304.10877
301.74827
299.76709
298.15566
296.88628
295.91793
295.20226
294.68949
294.33305
294.09252
293.9349
293.83465
293.77284
293.73598
293.71479
293.70312
293.697
293.69397
293.69257
293.69196
293.69172
293.69164
293.69161
293.6916
293.69159
381.82048
380.02899
378.11163
376.0633
373.87918
371.5549
369.08659
366.47102
363.70584
360.78971
357.72265
354.50637
351.14474
347.64438
344.01535
340.27207
336.43422
332.52781
328.58608
324.65014
320.76896
316.99842
313.39902
310.03206
306.95446
304.21295
301.83857
299.84296
298.21738
296.9349
295.95503
295.2297
294.70919
294.34678
294.10181
293.94101
293.83854
293.77522
293.73737
293.71555
293.70349
293.69713
293.69397
293.69249
293.69185
293.69159