/*--------------------------------*- C++ -*----------------------------------*\
| =========                 |                                                 |
| \\      /  F ield         | OpenFOAM: The Open Source CFD Toolbox           |
|  \\    /   O peration     | Version:  4.0                                   |
|   \\  /    A nd           | Web:      www.OpenFOAM.org                      |
|    \\/     M anipulation  |                                                 |
\*---------------------------------------------------------------------------*/
FoamFile
{
    version     2.0;
    format      ascii;
    class       volVectorField;
    location    "792";
    object      U;
}
// * * * * * * * * * * * * * * * * * * * * * * * * * * * * * * * * * * * * * //

dimensions      [0 1 -1 0 0 0 0];

internalField   nonuniform List<vector> 
5000
(
(5.7190536e-06 4.5591465e-21 0.0066757126)
(2.4014057e-05 1.3360876e-20 0.0193373)
(6.9624041e-05 2.2489821e-20 0.031794071)
(0.00012961807 3.0570437e-20 0.043846148)
(0.00020466276 3.8089773e-20 0.05527795)
(0.00028955992 3.4248723e-20 0.065866153)
(0.00037788147 2.5520787e-20 0.07539041)
(0.00046246909 3.148204e-20 0.083646473)
(0.00053565486 3.0468479e-20 0.090460993)
(0.00059004936 2.5712075e-20 0.095706797)
(0.00061933581 2.1304691e-20 0.099316919)
(0.00061904282 -6.7813297e-21 0.10129536)
(0.0005871915 3.5266682e-21 0.10172251)
(0.00052467666 1.1078272e-20 0.10075353)
(0.00043528013 2.1115383e-20 0.098608925)
(0.0003252664 2.7436122e-20 0.095557838)
(0.00020259201 3.3860883e-20 0.091895759)
(7.591511e-05 3.4444097e-20 0.087919669)
(-4.5861502e-05 2.2459454e-20 0.083903919)
(-0.00015673146 8.6019869e-21 0.080080144)
(-0.00025258611 -4.7145579e-20 0.076622632)
(-0.00032952524 -1.8568543e-20 0.073641993)
(-0.00038683232 5.4739669e-21 0.071186007)
(-0.00042555842 1.2813977e-20 0.069247194)
(-0.00044801527 1.4303029e-20 0.067775468)
(-0.00045730513 1.6352478e-20 0.066693707)
(-0.00045687573 1.6163234e-20 0.065913666)
(-0.0004501261 1.5555559e-20 0.065349785)
(-0.00044007862 1.2057714e-20 0.064928966)
(-0.00042914237 -1.6679647e-21 0.06459548)
(-0.00041898729 -4.0153325e-21 0.064311343)
(-0.00041054228 6.8916938e-21 0.064053494)
(-0.00040410691 -7.1992667e-22 0.063809507)
(-0.00039953312 -6.7976277e-22 0.063573383)
(-0.00039643052 -6.3157751e-22 0.063342327)
(-0.00039435675 2.3161481e-21 0.063114734)
(-0.00039296747 3.7205123e-21 0.062889153)
(-0.00039211703 -2.8751976e-21 0.062663813)
(-0.00039201981 4.2926982e-22 0.062436458)
(-0.00039309317 8.0001193e-21 0.062204125)
(-0.00039642712 4.0327434e-21 0.061962963)
(-0.00040352124 -3.5584116e-21 0.061708409)
(-0.00041526814 -4.0886515e-21 0.061432547)
(-0.00043851676 -4.8242199e-21 0.061129765)
(-0.00046782017 1.1758002e-21 0.060782274)
(-0.00052598657 1.6241897e-22 0.060374575)
(-0.00061111918 3.0452151e-21 0.059902826)
(-0.00070254752 7.9933385e-22 0.05922427)
(-0.0010876686 4.0543763e-21 0.059100122)
(-0.00071155314 -1.1675546e-21 0.053223847)
(-5.7030625e-06 6.3071931e-22 0.007981489)
(-3.4355139e-05 1.7221792e-21 0.023308223)
(-9.1000259e-05 2.6359947e-21 0.038611318)
(-0.0001818289 4.4080984e-21 0.053675154)
(-0.00031036205 1.0285785e-20 0.068249352)
(-0.00048010373 2.7273907e-20 0.082051545)
(-0.0006942287 3.4188818e-20 0.094773885)
(-0.00095525759 1.2074167e-20 0.10609439)
(-0.0012646923 5.5549973e-20 0.11569412)
(-0.0016225246 8.4327595e-20 0.12328044)
(-0.0020266036 1.1565536e-19 0.12861581)
(-0.0024719093 1.081427e-19 0.13154964)
(-0.002949846 -5.4042832e-21 0.13204902)
(-0.0034477483 -8.0806411e-20 0.13022203)
(-0.0039488439 -1.5543213e-19 0.1263264)
(-0.0044328949 -1.9538408e-19 0.12075752)
(-0.0048776292 -2.3647863e-19 0.11401344)
(-0.0052608953 -2.1631705e-19 0.10664073)
(-0.0055631528 6.9042466e-20 0.099171466)
(-0.0057698874 3.6845659e-19 0.092064835)
(-0.0058733184 7.0105108e-20 0.085665597)
(-0.0058729873 -2.3213903e-19 0.080185722)
(-0.0057753901 -1.68256e-19 0.075708944)
(-0.0055925974 -1.1657052e-19 0.072212194)
(-0.0053403957 -1.1715542e-19 0.069595926)
(-0.0050363306 -1.4135795e-19 0.067716064)
(-0.0046979611 -1.9093459e-19 0.066412427)
(-0.0043414912 -3.8414458e-20 0.065530807)
(-0.0039808352 1.1081553e-19 0.064937671)
(-0.0036271159 -3.002179e-20 0.064527669)
(-0.0032885653 3.4897985e-20 0.064224953)
(-0.002970772 7.8315809e-20 0.063979927)
(-0.0026771756 -4.8033319e-20 0.063763366)
(-0.0024096716 -5.0477596e-21 0.063559864)
(-0.0021691862 2.3655927e-20 0.063362122)
(-0.0019561108 1.7568537e-20 0.063166827)
(-0.0017706272 -6.0531984e-21 0.062972196)
(-0.0016127301 -2.2058845e-20 0.062776728)
(-0.0014824234 3.8119279e-20 0.062578658)
(-0.0013801178 1.6271109e-20 0.062375975)
(-0.0013045827 -3.8002704e-20 0.062165321)
(-0.001260144 -1.5021407e-20 0.061944256)
(-0.0012417714 1.0023317e-21 0.061706998)
(-0.0012574521 1.7426406e-20 0.061444735)
(-0.0013257853 8.2960271e-21 0.061168847)
(-0.00137481 1.2767634e-21 0.060800125)
(-0.0016689046 -1.5742776e-20 0.060504105)
(-0.0016397935 -4.8101296e-21 0.060088609)
(-0.0024431711 -2.5293477e-20 0.060941051)
(-0.0017053959 -7.4091963e-22 0.049511354)
(-3.2095632e-06 -2.2536472e-20 0.0093864116)
(-2.236822e-05 -6.8034295e-20 0.02752501)
(-5.9962173e-05 -1.1639681e-19 0.045771219)
(-0.00012191081 -1.54889e-19 0.063892719)
(-0.00021208096 -1.9873214e-19 0.081614127)
(-0.00033464969 -2.2260647e-19 0.098617018)
(-0.00049388468 -2.6728303e-19 0.11454308)
(-0.00069390087 -3.3042736e-19 0.1290018)
(-0.00093839265 -3.5669276e-19 0.14158415)
(-0.0012302853 -3.2372134e-19 0.15188394)
(-0.0015712765 -2.9367778e-19 0.15952766)
(-0.0019612467 -3.1743565e-19 0.16421274)
(-0.002397533 -2.2498098e-19 0.16575155)
(-0.0028741019 -1.2359123e-19 0.16411579)
(-0.0033807398 -2.5502948e-20 0.15947189)
(-0.0039024932 9.3455723e-20 0.15219648)
(-0.0044196891 2.4508274e-19 0.14286107)
(-0.0049088587 1.584995e-19 0.13218126)
(-0.0053447338 5.3853101e-19 0.12093547)
(-0.0057031192 1.0270046e-18 0.10986911)
(-0.0059641115 6.1887393e-19 0.099606603)
(-0.0061148772 -8.8826037e-20 0.090591448)
(-0.0061512606 -1.654541e-19 0.083064852)
(-0.006077933 -1.9088112e-19 0.077080732)
(-0.0059071743 -2.2839331e-19 0.072545768)
(-0.0056567273 -2.7739946e-19 0.069270092)
(-0.0053472786 -3.495727e-19 0.067016464)
(-0.0050000469 -4.3125376e-20 0.06554047)
(-0.0046347931 1.9917758e-19 0.064618778)
(-0.0042684077 -5.2969563e-20 0.064065567)
(-0.0039141194 -2.8498629e-20 0.06373883)
(-0.0035812936 2.7945855e-19 0.06353895)
(-0.0032757272 -2.0907489e-20 0.063402172)
(-0.0030002989 2.4694761e-20 0.063291618)
(-0.0027558159 8.3266437e-20 0.06318821)
(-0.0025417934 1.0729151e-19 0.063083145)
(-0.0023572198 2.1293029e-19 0.0629727)
(-0.0022011898 -4.4847902e-20 0.062855249)
(-0.0020723018 -1.1479162e-19 0.06272956)
(-0.0019721553 8.372019e-20 0.0625949)
(-0.0018984057 1.980739e-19 0.062449558)
(-0.0018541709 -3.8229638e-20 0.062290846)
(-0.0018526104 -6.3518697e-20 0.062123718)
(-0.001848664 -1.5716195e-19 0.061920291)
(-0.0019913739 3.7513716e-21 0.061742709)
(-0.0019699873 -1.3671477e-20 0.061439332)
(-0.0024023567 8.5414615e-20 0.061317162)
(-0.0023741145 1.0015095e-20 0.061491739)
(-0.0030683592 1.145533e-19 0.062296674)
(-0.0020064449 -4.9532328e-21 0.045010568)
(-2.1431266e-06 -6.3877986e-20 0.010495118)
(-1.5833091e-05 -1.9215673e-19 0.030866611)
(-4.2596726e-05 -3.235215e-19 0.051468842)
(-8.7095161e-05 -4.7281165e-19 0.072063419)
(-0.0001525623 -6.4279746e-19 0.092364089)
(-0.00024269046 -7.6744761e-19 0.11203502)
(-0.00036153861 -8.187718e-19 0.13069166)
(-0.00051341824 -7.9667114e-19 0.14790561)
(-0.00070274758 -7.4569561e-19 0.16321488)
(-0.00093382006 -7.6206903e-19 0.17614172)
(-0.0012104523 -7.6528997e-19 0.18621947)
(-0.0015354849 -8.0026604e-19 0.19302975)
(-0.0019101176 -9.6096125e-19 0.1962495)
(-0.0023330854 -1.0622733e-18 0.1957045)
(-0.0027997274 -9.1153078e-19 0.19142232)
(-0.003301077 -8.4483986e-19 0.18367263)
(-0.0038232104 -7.228243e-19 0.17298077)
(-0.0043471761 -5.9790439e-19 0.16010111)
(-0.0048498459 -4.2915641e-19 0.14594562)
(-0.0053058706 5.5843767e-20 0.13147592)
(-0.0056905841 -9.9880742e-20 0.11758173)
(-0.0059832974 -1.0034423e-19 0.10497524)
(-0.0061701662 -1.6334787e-19 0.094126365)
(-0.0062458965 -2.3845881e-19 0.085248951)
(-0.0062139285 -4.124255e-19 0.078331827)
(-0.0060852225 -5.4561796e-19 0.073197462)
(-0.0058761194 -6.9837716e-19 0.069569084)
(-0.0056058574 -6.2736068e-19 0.06713145)
(-0.0052942331 -2.3624013e-19 0.065577316)
(-0.004959726 -1.4376261e-19 0.064637476)
(-0.0046182211 -9.458718e-20 0.064095865)
(-0.0042823548 1.7636917e-19 0.063792804)
(-0.0039614246 5.0956101e-20 0.06361991)
(-0.0036617279 5.7786368e-20 0.063510128)
(-0.0033872458 1.5367548e-19 0.063426057)
(-0.0031403593 2.3841289e-19 0.063349116)
(-0.0029223184 3.5809349e-19 0.063271109)
(-0.0027347396 -1.6522352e-19 0.063188893)
(-0.0025772761 -7.272806e-20 0.063100999)
(-0.0024518756 1.4689488e-19 0.063006577)
(-0.0023632652 4.4752227e-19 0.062906547)
(-0.0022928971 2.9828916e-20 0.06279341)
(-0.0023054761 6.7947789e-20 0.062685837)
(-0.0022572939 -1.9693623e-19 0.062537516)
(-0.0024406503 7.2433831e-21 0.062431026)
(-0.0023861611 1.2280633e-19 0.062231252)
(-0.0027932005 1.1358134e-19 0.062274391)
(-0.0028455587 2.5706588e-20 0.063076997)
(-0.0032181557 1.4466615e-19 0.062821582)
(-0.0018212685 9.6203699e-21 0.040467794)
(-1.6200414e-06 -3.5622571e-20 0.011343629)
(-1.227495e-05 -1.1028745e-19 0.033434024)
(-3.3041875e-05 -1.9179721e-19 0.055862612)
(-6.7651951e-05 -2.9732307e-19 0.078390365)
(-0.00011872666 -4.1107216e-19 0.10072774)
(-0.00018930291 -5.4473547e-19 0.12253181)
(-0.00028279237 -6.5048429e-19 0.14340563)
(-0.00040293551 -6.880068e-19 0.16290092)
(-0.00055374429 -6.7240065e-19 0.18052578)
(-0.00073939067 -6.7220155e-19 0.19575917)
(-0.00096400634 -6.9307451e-19 0.20807429)
(-0.0012313579 -6.8434153e-19 0.21697253)
(-0.0015443595 -8.8486387e-19 0.22202888)
(-0.001904395 -1.1530452e-18 0.22294739)
(-0.0023104522 -1.1794888e-18 0.21962181)
(-0.0027581307 -1.1005398e-18 0.21219161)
(-0.0032386792 -1.0473472e-18 0.20107895)
(-0.0037383301 -7.1363531e-19 0.18698976)
(-0.0042382847 -4.2614495e-19 0.17086599)
(-0.0047156855 -2.2158764e-19 0.15378767)
(-0.0051457172 -2.6662682e-19 0.13684009)
(-0.0055046091 -5.4229418e-19 0.12097646)
(-0.0057729147 -4.9961091e-19 0.10691033)
(-0.0059382467 -5.238994e-19 0.095061894)
(-0.0059967774 -5.7133673e-19 0.085563355)
(-0.0059532274 -6.286102e-19 0.078310055)
(-0.0058195273 -7.5547231e-19 0.073035329)
(-0.0056126326 -8.7547567e-19 0.069387554)
(-0.0053520436 -7.985519e-19 0.066994996)
(-0.0050574852 -6.0588779e-19 0.065512089)
(-0.0047470396 -2.985998e-19 0.064646831)
(-0.0044358731 -1.3268561e-19 0.064172149)
(-0.0041356184 1.5173203e-20 0.063925253)
(-0.0038543141 1.2887542e-19 0.06379904)
(-0.0035968635 1.9655654e-19 0.063729417)
(-0.0033659852 2.3193432e-19 0.0636819)
(-0.0031623328 1.5980443e-19 0.063639928)
(-0.0029869095 -2.3187524e-19 0.063596563)
(-0.0028402163 1.2493182e-19 0.063549356)
(-0.0027175581 2.0326127e-19 0.063496171)
(-0.0026399769 3.697055e-19 0.063440972)
(-0.0025554135 9.0741937e-20 0.06337275)
(-0.0025817697 2.5794757e-19 0.063314773)
(-0.0025121702 7.02005e-20 0.063226293)
(-0.0026807654 3.9326758e-20 0.063160308)
(-0.0026430457 1.4224548e-19 0.063085905)
(-0.0029682348 2.6251406e-20 0.063337351)
(-0.0030511531 3.0424007e-20 0.064505305)
(-0.0031694994 -2.7784668e-22 0.06255237)
(-0.0015522556 1.6965374e-21 0.0362046)
(-1.4743887e-06 -8.9544013e-21 0.01206866)
(-1.0922136e-05 -2.9168934e-20 0.035626824)
(-2.9386194e-05 -5.5832743e-20 0.059613963)
(-6.0112087e-05 -8.3798572e-20 0.083790701)
(-0.00010538546 -1.1096371e-19 0.10786528)
(-0.0001678428 -1.7625558e-19 0.13149001)
(-0.00025043689 -2.9616381e-19 0.15425955)
(-0.00035640308 -3.9596376e-19 0.17571235)
(-0.00048922492 -4.651179e-19 0.19533645)
(-0.00065256695 -5.1689294e-19 0.21258167)
(-0.00085014966 -5.2820277e-19 0.22688017)
(-0.001085539 -5.9113521e-19 0.23767737)
(-0.001361816 -6.5155806e-19 0.24447474)
(-0.001681089 -7.3845526e-19 0.24688422)
(-0.0020438234 -8.3844525e-19 0.24469129)
(-0.0024479991 -7.7026212e-19 0.23791896)
(-0.0028881746 -6.5101807e-19 0.22687991)
(-0.0033546357 -4.4013738e-19 0.21219954)
(-0.0038329197 4.2251179e-20 0.1947927)
(-0.0043040623 9.771264e-20 0.17578503)
(-0.0047458515 6.25612e-21 0.15638494)
(-0.0051351137 -3.768969e-19 0.13773153)
(-0.005450687 -5.0775911e-19 0.12075525)
(-0.005676396 -5.567311e-19 0.10608564)
(-0.005803262 -6.6540233e-19 0.094023783)
(-0.0058304224 -7.3392875e-19 0.084574896)
(-0.0057646615 -7.1361204e-19 0.077520658)
(-0.0056188437 -6.6671574e-19 0.072505741)
(-0.0054097502 -7.2279513e-19 0.069118027)
(-0.0051558113 -7.2622256e-19 0.066950856)
(-0.0048750992 -3.8963096e-19 0.065643888)
(-0.0045837808 -1.5796918e-19 0.064904343)
(-0.0042951582 1.7089339e-23 0.064512669)
(-0.0040192705 1.277617e-19 0.06431719)
(-0.0037628924 1.504162e-19 0.064222055)
(-0.0035305058 1.4768654e-19 0.064172496)
(-0.0033241398 7.9144907e-20 0.064140556)
(-0.0031444396 -8.2225452e-20 0.064113588)
(-0.0029961785 1.6061838e-19 0.064087381)
(-0.0028655722 2.5618784e-19 0.064058379)
(-0.0027894637 2.8032775e-19 0.064031102)
(-0.0026938963 1.3035236e-19 0.06399664)
(-0.0027130061 2.6438945e-19 0.063968927)
(-0.0026436198 1.6437974e-19 0.063930628)
(-0.002771894 6.5141507e-20 0.063892053)
(-0.0027525612 2.477684e-20 0.063937297)
(-0.0030186683 -8.9458088e-21 0.064430635)
(-0.0030620459 2.0067972e-20 0.06562686)
(-0.0029731096 -6.3227368e-20 0.061671053)
(-0.0012762244 -7.2970783e-22 0.032505945)
(-1.2997475e-06 1.899337e-20 0.012698562)
(-9.6347083e-06 5.6662203e-20 0.037533418)
(-2.5927041e-05 9.3286001e-20 0.0628781)
(-5.3061834e-05 1.4040425e-19 0.088493515)
(-9.3091164e-05 1.9961626e-19 0.11408672)
(-0.0001483884 2.1006219e-19 0.13930676)
(-0.00022162171 1.4917249e-19 0.16374226)
(-0.00031572895 2.9651118e-20 0.1869217)
(-0.00043389377 -4.8275727e-20 0.2083179)
(-0.00057949578 -3.687777e-20 0.22735841)
(-0.00075601546 -1.2009973e-19 0.24344385)
(-0.00096687302 -1.8133021e-19 0.25597641)
(-0.0012151729 -2.2480705e-19 0.26440022)
(-0.0015033218 -2.6758034e-19 0.26825417)
(-0.0018324923 -5.7128381e-19 0.26723538)
(-0.0022019208 -3.40069e-19 0.26126729)
(-0.0026080745 -4.3567347e-20 0.25056138)
(-0.0030438034 -2.3605923e-20 0.23565608)
(-0.0034976899 2.7534256e-19 0.2174142)
(-0.0039539018 4.9011411e-19 0.19696459)
(-0.0043928607 4.207278e-19 0.17558657)
(-0.0047928955 -1.0402643e-19 0.15455507)
(-0.0051327456 -3.3762602e-19 0.13498136)
(-0.0053944244 -4.232709e-19 0.11768905)
(-0.0055657412 -4.1571482e-19 0.10315341)
(-0.0056418431 -3.279118e-19 0.091509723)
(-0.0056254682 -1.3218669e-19 0.082615181)
(-0.0055260039 5.9181332e-20 0.076138039)
(-0.0053577225 -2.7831172e-19 0.071648748)
(-0.0051376636 -6.3232702e-19 0.068696203)
(-0.004883571 -4.2051704e-19 0.066861857)
(-0.0046121364 5.2172601e-21 0.065791612)
(-0.0043377253 1.8612144e-23 0.065209074)
(-0.0040717105 2.1656279e-19 0.064914904)
(-0.0038220507 3.7417285e-19 0.064776932)
(-0.0035940398 1.1417538e-19 0.064715402)
(-0.0033908489 9.7350469e-20 0.064687129)
(-0.0032114354 1.4629976e-19 0.064671157)
(-0.0030642999 -3.0039868e-21 0.064659695)
(-0.0029296588 2.7880401e-19 0.064648297)
(-0.0028494498 1.7651243e-19 0.064639113)
(-0.0027501334 8.4720248e-20 0.064629462)
(-0.002749773 4.4302447e-20 0.064619973)
(-0.0026824828 -1.7437159e-20 0.064614333)
(-0.0027736391 5.7707863e-20 0.064606185)
(-0.0027519514 -1.0746798e-19 0.064762781)
(-0.0029753262 8.4458571e-20 0.065471537)
(-0.0029467857 2.2381523e-20 0.066402325)
(-0.0026871818 6.6922795e-20 0.060390871)
(-0.0010200326 -2.410829e-21 0.029375423)
(-1.1914707e-06 1.7588982e-20 0.013264772)
(-8.7805516e-06 5.3295582e-20 0.039247222)
(-2.3624257e-05 9.2251684e-20 0.065812236)
(-4.8343097e-05 1.4842156e-19 0.092721113)
(-8.4810979e-05 2.1586418e-19 0.11968008)
(-0.00013519491 2.9095813e-19 0.14633571)
(-0.00020193356 3.7686437e-19 0.1722718)
(-0.0002877179 3.7277064e-19 0.1970089)
(-0.00039547489 3.645975e-19 0.22000761)
(-0.0005283306 5.0800309e-19 0.24067756)
(-0.0006895361 7.1414634e-19 0.25839389)
(-0.00088233909 8.0596324e-19 0.27252375)
(-0.0011097775 9.0926048e-19 0.28246447)
(-0.0013743667 7.7226808e-19 0.28769475)
(-0.0016776529 3.4592005e-19 0.28783774)
(-0.0020196152 8.5043814e-21 0.28273136)
(-0.0023979328 -8.6395821e-20 0.27249641)
(-0.0028071894 -4.6851251e-19 0.25758707)
(-0.0032381749 -8.3696095e-19 0.23880498)
(-0.0036775361 -6.2351642e-19 0.21725945)
(-0.0041080695 -2.173595e-19 0.19426672)
(-0.0045098875 -4.2360292e-20 0.17119919)
(-0.0048624595 -1.7027663e-19 0.14931515)
(-0.0051472069 -2.1880322e-19 0.12961064)
(-0.0053500624 -2.6058625e-19 0.11272874)
(-0.0054633497 -2.4095263e-19 0.098941947)
(-0.0054865459 -1.9084665e-19 0.088198875)
(-0.0054258633 1.1759183e-20 0.080210618)
(-0.005292906 2.0752467e-19 0.074548634)
(-0.0051028079 -5.0521105e-20 0.070732555)
(-0.0048722715 -7.0646673e-20 0.068296606)
(-0.0046177938 3.1276426e-20 0.066832106)
(-0.0043542345 8.4465831e-20 0.06600876)
(-0.0040939768 1.9219433e-19 0.06557948)
(-0.003846268 3.8567697e-19 0.065373668)
(-0.0036173402 3.8563502e-19 0.065283488)
(-0.0034120057 4.730909e-19 0.06524743)
(-0.0032285928 4.8063056e-19 0.065233976)
(-0.0030771692 2.0416479e-19 0.065229712)
(-0.0029379163 3.8325246e-19 0.065229138)
(-0.0028480189 2.163493e-19 0.065230845)
(-0.0027458249 2.2334282e-19 0.065236808)
(-0.0027258708 -4.0927767e-19 0.065239625)
(-0.0026541385 -2.0453518e-19 0.065252053)
(-0.002719186 3.0077345e-20 0.06528056)
(-0.0026849592 -1.1939174e-19 0.065545164)
(-0.0028689986 8.260721e-20 0.066394797)
(-0.0027665393 4.2252037e-20 0.066835953)
(-0.0023758365 1.1337265e-19 0.058883222)
(-0.00080665952 1.7746684e-20 0.02675825)
(-1.0918429e-06 -2.685993e-20 0.013779171)
(-8.0395976e-06 -7.8072703e-20 0.040804704)
(-2.162841e-05 -1.2639654e-19 0.068479559)
(-4.4264004e-05 -1.7293301e-19 0.096565618)
(-7.7677604e-05 -2.3249893e-19 0.12476866)
(-0.00012387307 -2.4313397e-19 0.15273338)
(-0.00018510968 -1.829173e-19 0.18003976)
(-0.00026388754 -2.3072241e-19 0.20620185)
(-0.00036293692 -2.866856e-19 0.23067014)
(-0.00048519037 -3.6224028e-19 0.25283928)
(-0.00063372338 -2.9364925e-19 0.27206308)
(-0.00081164875 -3.1937739e-19 0.28767914)
(-0.0010219438 -3.9724648e-19 0.29904516)
(-0.0012671851 -1.9885543e-19 0.30558851)
(-0.0015491639 1.8441377e-19 0.3068685)
(-0.0018683646 -2.9962399e-19 0.30264807)
(-0.0022233084 -7.8070624e-19 0.29296623)
(-0.0026098129 -1.0290604e-18 0.27819752)
(-0.0030202894 -1.4779444e-18 0.25907954)
(-0.0034432851 -1.6225544e-18 0.23668959)
(-0.0038635403 -1.4357051e-18 0.21235891)
(-0.0042628026 -6.6675771e-19 0.18752945)
(-0.0046214842 -3.2508352e-19 0.16357889)
(-0.0049209719 -1.6248861e-19 0.14165454)
(-0.0051461102 -4.8036301e-20 0.12255685)
(-0.0052872491 -3.7028175e-19 0.10669611)
(-0.0053413653 -5.0901295e-19 0.094121398)
(-0.0053120653 -1.635076e-19 0.084600264)
(-0.0052086156 3.8967168e-19 0.07771971)
(-0.0050443394 3.1848208e-19 0.072983097)
(-0.0048347836 4.0036386e-19 0.069887597)
(-0.0045959687 2.0791161e-19 0.067976902)
(-0.0043428738 1.7319737e-19 0.066870658)
(-0.0040884375 2.008755e-19 0.066275144)
(-0.003842841 1.3104467e-19 0.065980331)
(-0.0036130146 4.2881186e-19 0.065848046)
(-0.0034048277 7.1257257e-19 0.065795698)
(-0.0032171012 3.6416138e-19 0.065778939)
(-0.0030592219 2.883188e-19 0.065776933)
(-0.0029146403 2.4086694e-19 0.065781876)
(-0.0028134916 -5.7443257e-20 0.065789616)
(-0.0027051576 1.3003153e-19 0.065802964)
(-0.002668709 -3.7451903e-19 0.065813364)
(-0.0025870612 -2.3362449e-19 0.065835958)
(-0.0026318626 9.4720354e-21 0.065904609)
(-0.0025834464 6.9128281e-21 0.066270825)
(-0.0027251122 -1.6451186e-20 0.067169044)
(-0.0025569085 3.5583834e-20 0.066971032)
(-0.0020697541 -4.4579773e-20 0.057283816)
(-0.00063321695 1.5462952e-20 0.024612512)
(-1.0146848e-06 -2.6260315e-20 0.014252919)
(-7.4564656e-06 -7.9317261e-20 0.04223929)
(-2.0054918e-05 -1.3649309e-19 0.070936735)
(-4.1041327e-05 -1.9535326e-19 0.1001078)
(-7.202916e-05 -2.5589565e-19 0.12945804)
(-0.00011488606 -3.1946119e-19 0.15863069)
(-0.00017171992 -3.8293225e-19 0.1872026)
(-0.00024486766 -4.4064463e-19 0.2146824)
(-0.00033688875 -4.9401343e-19 0.24051202)
(-0.00045054444 -5.6378821e-19 0.26407341)
(-0.00058875009 -6.6357806e-19 0.28470214)
(-0.00075448721 -6.0608022e-19 0.30171045)
(-0.00095065685 -6.3079312e-19 0.31442185)
(-0.0011798516 -8.0676042e-19 0.32221906)
(-0.0014440205 -8.7124245e-19 0.32460541)
(-0.0017440061 -8.8581429e-19 0.32127706)
(-0.0020789516 -9.6917464e-19 0.31219874)
(-0.0024456101 -1.2383833e-18 0.29767013)
(-0.0028376538 -1.410956e-18 0.27836455)
(-0.0032451563 -1.5320628e-18 0.25532006)
(-0.0036544873 -1.4106344e-18 0.22986812)
(-0.0040488661 -9.4584303e-19 0.20349972)
(-0.0044097093 -6.0792551e-19 0.17768968)
(-0.0047186712 -4.2909644e-19 0.15371774)
(-0.0049599969 -7.7286481e-20 0.13253002)
(-0.0051226396 1.7755173e-19 0.11467164)
(-0.0052016211 -2.0546231e-19 0.1002967)
(-0.0051983666 -4.0580878e-19 0.089238491)
(-0.005120055 7.4054503e-20 0.081110674)
(-0.0049782692 4.1689314e-19 0.075411067)
(-0.0047873135 3.7707108e-19 0.071608805)
(-0.0045625271 2.4845628e-19 0.069206709)
(-0.004318764 1.9734033e-19 0.067778742)
(-0.0040692706 1.8629488e-19 0.066986663)
(-0.0038249417 2.0474713e-19 0.066581188)
(-0.0035934871 3.7515518e-19 0.066392573)
(-0.0033814297 5.6620457e-19 0.066315118)
(-0.0031887957 4.0678763e-19 0.066289523)
(-0.003023758 2.6624946e-19 0.066286042)
(-0.0028728442 1.7263924e-19 0.066292709)
(-0.0027614522 -1.6941376e-19 0.066303398)
(-0.0026447936 -3.7703996e-20 0.066319089)
(-0.002594637 -3.0957914e-19 0.066333525)
(-0.0025021055 -1.8877586e-19 0.066364804)
(-0.0025285423 2.7859199e-21 0.066475404)
(-0.0024678414 2.866595e-20 0.066929014)
(-0.0025634725 -3.7607308e-20 0.067784501)
(-0.00234212 2.067206e-20 0.066861896)
(-0.0017888112 -7.2360707e-20 0.055676955)
(-0.00049504659 9.0201511e-21 0.02286043)
(-9.4837476e-07 -5.3978606e-20 0.014692874)
(-6.9615822e-06 -1.6227399e-19 0.043571754)
(-1.8718863e-05 -2.7823581e-19 0.073219349)
(-3.8305255e-05 -4.0219897e-19 0.10339894)
(-6.7235779e-05 -5.1176295e-19 0.13381603)
(-0.00010726402 -6.2623458e-19 0.1641127)
(-0.00016037082 -7.4401818e-19 0.19386322)
(-0.0002287559 -7.6074728e-19 0.22257158)
(-0.00031483442 -7.830188e-19 0.2496724)
(-0.0004212215 -6.9576373e-19 0.2745366)
(-0.00055069314 -4.6797584e-19 0.29648391)
(-0.00070611199 -1.2445801e-19 0.31480443)
(-0.00089030164 2.4811843e-19 0.32879168)
(-0.0011058478 -6.7088376e-20 0.33778901)
(-0.0013548027 -7.4835952e-19 0.34124994)
(-0.0016382708 -9.312614e-19 0.33881057)
(-0.0019558682 -9.7204463e-19 0.33036766)
(-0.002305079 -3.4125134e-19 0.31615053)
(-0.0026805825 -1.0147845e-19 0.2967692)
(-0.0030737001 2.7474675e-19 0.27321819)
(-0.0034721776 -6.2831938e-19 0.24681881)
(-0.0038605409 -7.5993922e-19 0.21909559)
(-0.0042211893 -7.6113871e-19 0.19160257)
(-0.0045361926 -8.199754e-19 0.16573546)
(-0.0047895015 -9.8917601e-19 0.14257466)
(-0.0049690724 -4.8662116e-19 0.12279551)
(-0.0050683924 1.3384494e-19 0.10665893)
(-0.0050870702 6.9027014e-20 0.094070336)
(-0.0050304637 -2.5452747e-19 0.084678682)
(-0.0049085602 2.4315379e-19 0.077985063)
(-0.004734444 3.9130764e-19 0.073438384)
(-0.0045226813 3.1973374e-19 0.070506763)
(-0.0042878258 3.2940021e-19 0.068722803)
(-0.0040432278 4.2262828e-19 0.067706254)
(-0.0038002233 5.6045228e-19 0.067169397)
(-0.0035672393 3.9035634e-19 0.066910375)
(-0.0033512492 5.2425889e-19 0.066798977)
(-0.0031534368 8.7872106e-19 0.066759094)
(-0.0029813806 4.7689351e-19 0.066750734)
(-0.002823319 1.3453036e-19 0.066756172)
(-0.0027026375 9.0429898e-20 0.066767188)
(-0.0025770988 -1.1695644e-19 0.066782381)
(-0.0025145537 -3.7232636e-19 0.066798432)
(-0.0024129437 -1.8043879e-19 0.066840101)
(-0.0024214325 -2.7448575e-21 0.06699288)
(-0.0023516964 2.6272753e-20 0.067512259)
(-0.0024003353 -2.8881296e-20 0.068244966)
(-0.0021384844 1.1420501e-20 0.066561308)
(-0.0015439711 -7.6498478e-20 0.054112143)
(-0.00038757283 9.8338447e-22 0.021428401)
(-8.9251195e-07 -2.5297733e-20 0.015104553)
(-6.5442982e-06 -7.5973671e-20 0.044818719)
(-1.7591266e-05 -1.3014089e-19 0.075355734)
(-3.5994095e-05 -1.8655902e-19 0.10647965)
(-6.3183829e-05 -2.4518638e-19 0.13789603)
(-0.00010081636 -3.0387428e-19 0.16924608)
(-0.00015076326 -3.5864744e-19 0.20010186)
(-0.00021510548 -4.0446644e-19 0.22996337)
(-0.00029613232 -4.2450757e-19 0.25825884)
(-0.00039632996 -4.0848414e-19 0.28434954)
(-0.0005183495 -2.8567588e-19 0.30754123)
(-0.00066494361 -2.6477642e-19 0.32710448)
(-0.00083885739 -2.4180719e-19 0.34230618)
(-0.0010426535 -2.5692328e-19 0.35245454)
(-0.001278449 -3.6117639e-19 0.35695834)
(-0.0015475416 -4.1371105e-19 0.3553992)
(-0.0018499149 -4.8341134e-19 0.34761135)
(-0.0021836362 -3.2199553e-19 0.33375798)
(-0.0025442073 -1.295327e-19 0.31438738)
(-0.0029239926 -7.5268452e-20 0.290448)
(-0.0033119192 -2.2692794e-19 0.26324358)
(-0.0036936791 -5.4258944e-19 0.23432014)
(-0.0040526107 -6.4837664e-19 0.20529625)
(-0.0043712817 -6.4815094e-19 0.17766934)
(-0.0046335491 -5.537357e-19 0.15264332)
(-0.0048266579 -4.8191317e-19 0.13101833)
(-0.0049428744 -2.8258354e-19 0.11316224)
(-0.0049802831 1.88288e-19 0.099056955)
(-0.0049426482 2.8078907e-19 0.088393386)
(-0.0048385007 9.8931461e-20 0.080683234)
(-0.0046797546 2.9335839e-19 0.075361917)
(-0.0044801711 3.1324311e-19 0.071868402)
(-0.0042538972 3.3816852e-19 0.069698071)
(-0.0040142579 3.937254e-19 0.068431333)
(-0.00377286 5.6347055e-19 0.067743297)
(-0.0035387144 5.7023007e-19 0.067399994)
(-0.0033192596 7.3689163e-19 0.067245806)
(-0.0031164981 9.2384014e-19 0.067186345)
(-0.0029380816 5.8740058e-19 0.067170002)
(-0.002773026 2.2565483e-19 0.067172103)
(-0.0026438613 1.5437103e-19 0.06718148)
(-0.0025103667 -1.4795245e-19 0.067194921)
(-0.0024360717 -3.5892938e-19 0.067211748)
(-0.0023281102 -1.8083444e-19 0.067266609)
(-0.0023188228 -2.6194155e-21 0.067460133)
(-0.0022425062 2.1638251e-20 0.068018907)
(-0.0022459537 -2.2771495e-20 0.068564339)
(-0.0019535658 -5.2204171e-23 0.066117693)
(-0.0013369515 -6.3258693e-20 0.052618341)
(-0.00030509337 -4.4218865e-21 0.020256746)
(-8.4418449e-07 1.0978184e-22 0.015492072)
(-6.1843502e-06 3.6397413e-22 0.045992619)
(-1.6617827e-05 7.0235214e-22 0.077367137)
(-3.3998166e-05 1.2866827e-21 0.10938047)
(-5.9683989e-05 -1.5536322e-20 0.14173834)
(-9.5246695e-05 -3.1373695e-20 0.17408125)
(-0.00014246293 -4.2039457e-20 0.20597938)
(-0.00020331019 -1.4617196e-19 0.23692926)
(-0.00027996766 -2.4497415e-19 0.26635347)
(-0.00037480778 -3.4564377e-19 0.29360471)
(-0.00049036976 -5.2924601e-19 0.31797633)
(-0.00062930551 -7.8199548e-19 0.33872141)
(-0.00079428388 -9.9786404e-19 0.35508298)
(-0.00098783525 -8.1927451e-19 0.36633762)
(-0.001212115 -2.1478094e-19 0.37185356)
(-0.0014685651 -2.1140852e-19 0.37116268)
(-0.0017574587 -4.7633726e-20 0.36404138)
(-0.0020773362 -3.5969886e-19 0.35059062)
(-0.0024243806 -2.629865e-19 0.33129888)
(-0.0027918389 -5.4053326e-19 0.30706722)
(-0.0031696627 -7.4832226e-20 0.27917632)
(-0.0035445871 -2.7734388e-19 0.24918423)
(-0.0039008374 -3.585563e-19 0.21876189)
(-0.0042215204 -2.6003437e-19 0.18949603)
(-0.0044905374 -2.3075896e-20 0.16270405)
(-0.0046946328 -9.1992244e-20 0.13930518)
(-0.0048250972 -5.0278996e-19 0.11977324)
(-0.0048787284 -1.1315304e-19 0.10416952)
(-0.004857893 4.2367304e-19 0.092232169)
(-0.0047698013 3.1661471e-19 0.083489589)
(-0.0046252621 3.8202498e-19 0.077369535)
(-0.0044372299 3.4264864e-19 0.073286783)
(-0.0042193808 3.6139285e-19 0.070703333)
(-0.0039849109 3.6489217e-19 0.069162914)
(-0.0037455775 2.8109472e-19 0.068304957)
(-0.0035108095 5.3305302e-19 0.067863778)
(-0.0032885456 6.3625987e-19 0.067657864)
(-0.0030813621 5.981191e-19 0.067573472)
(-0.0028972615 3.5484562e-19 0.067546084)
(-0.0027259305 3.2712811e-19 0.067543155)
(-0.0025888934 -1.4936695e-19 0.067549557)
(-0.0024489978 -1.3521769e-19 0.067560978)
(-0.0023635594 -9.2251344e-20 0.067579215)
(-0.0022517688 -1.7814519e-19 0.067650002)
(-0.002225474 -1.2101708e-20 0.067881091)
(-0.0021437613 1.4769937e-20 0.068450883)
(-0.0021059116 -1.6861969e-20 0.068759723)
(-0.0017904866 -4.1838388e-21 0.06557025)
(-0.0011656349 -6.1818393e-20 0.051207215)
(-0.00024263021 -8.2745009e-21 0.019289704)
(-8.0205888e-07 -2.2556085e-20 0.015858701)
(-5.8710005e-06 -6.7576249e-20 0.047103329)
(-1.5769686e-05 -1.1468722e-19 0.07927042)
(-3.2258169e-05 -1.6307048e-19 0.11212562)
(-5.66319e-05 -2.116878e-19 0.1453749)
(-9.0388329e-05 -2.6516998e-19 0.17865819)
(-0.00013522099 -3.2501228e-19 0.21154405)
(-0.00019301623 -4.0180493e-19 0.24352595)
(-0.00026585543 -4.9381939e-19 0.27402143)
(-0.00035600949 -5.9265866e-19 0.30237554)
(-0.00046591695 -7.0649337e-19 0.32787043)
(-0.00059813703 -7.4925339e-19 0.34974345)
(-0.00075526502 -7.195032e-19 0.36721604)
(-0.00093979352 -7.125642e-19 0.37953606)
(-0.0011538983 -5.859652e-19 0.38603476)
(-0.0013991293 -4.1151022e-19 0.38619828)
(-0.001675991 -3.6446478e-19 0.37974936)
(-0.0019834124 -4.6739983e-19 0.36673033)
(-0.0023181483 -5.4801559e-19 0.34757188)
(-0.0026742002 -5.7353259e-19 0.32312716)
(-0.0030424143 -2.8595833e-19 0.29464981)
(-0.0034104641 -9.722556e-20 0.26370231)
(-0.0037634083 -1.1452602e-19 0.23199781)
(-0.0040849101 -3.4323251e-20 0.20120146)
(-0.0043590094 9.1355286e-20 0.17273495)
(-0.0045721098 1.308911e-19 0.14763078)
(-0.004714721 -1.3581919e-19 0.12646701)
(-0.0047825484 -1.5704478e-19 0.10938616)
(-0.0047767315 1.7701391e-19 0.096177766)
(-0.0047032843 3.3626686e-19 0.086392047)
(-0.0045719816 4.0635877e-19 0.079454175)
(-0.0043949909 3.5633853e-19 0.074759156)
(-0.0041854841 3.4069504e-19 0.07173914)
(-0.003956449 3.0398912e-19 0.069903736)
(-0.0037197115 2.6754447e-19 0.068858301)
(-0.0034849822 4.0802295e-19 0.068306092)
(-0.0032606616 4.7363789e-19 0.068039531)
(-0.0030498274 4.83744e-19 0.067924773)
(-0.0028607489 2.432088e-19 0.067883274)
(-0.0026841472 9.637848e-20 0.067873789)
(-0.0025398473 -2.5332343e-19 0.067876401)