/*--------------------------------*- C++ -*----------------------------------*\
| =========                 |                                                 |
| \\      /  F ield         | OpenFOAM: The Open Source CFD Toolbox           |
|  \\    /   O peration     | Version:  4.0                                   |
|   \\  /    A nd           | Web:      www.OpenFOAM.org                      |
|    \\/     M anipulation  |                                                 |
\*---------------------------------------------------------------------------*/
FoamFile
{
    version     2.0;
    format      ascii;
    class       surfaceScalarField;
    location    "2000";
    object      phi;
}
// * * * * * * * * * * * * * * * * * * * * * * * * * * * * * * * * * * * * * //

dimensions      [1 0 -1 0 0 0 0];

internalField   nonuniform List<scalar> 
9850
(
1.1433406e-10
3.3485691e-10
4.6434438e-10
1.1255896e-09
1.0759062e-09
2.1490465e-09
1.9710772e-09
3.4499736e-09
3.1610577e-09
5.0791545e-09
4.6424105e-09
7.0909239e-09
6.3938824e-09
9.5416083e-09
8.3745634e-09
1.2487693e-08
1.0524109e-08
1.5984128e-08
1.2765524e-08
2.0083441e-08
1.5010589e-08
2.4836483e-08
1.7167432e-08
3.0295703e-08
1.9149195e-08
3.6521593e-08
2.0882439e-08
4.3592572e-08
2.2313899e-08
5.161794e-08
2.3414778e-08
6.0753026e-08
2.4180358e-08
7.1216494e-08
2.4628658e-08
8.3302534e-08
2.4794866e-08
9.7396094e-08
2.4724216e-08
1.1398308e-07
2.4464024e-08
1.3365892e-07
2.405596e-08
1.5713688e-07
2.3529851e-08
1.852591e-07
2.2900101e-08
2.1901387e-07
2.2165439e-08
2.5956261e-07
2.1311721e-08
3.0827895e-07
2.03168e-08
3.6680095e-07
1.9155995e-08
4.3709631e-07
1.7806729e-08
5.2154019e-07
1.6251907e-08
6.2300629e-07
1.4481715e-08
7.4497354e-07
1.2494554e-08
8.9165234e-07
1.0297362e-08
1.068136e-06
7.9057092e-09
1.2805839e-06
5.3438419e-09
1.5364439e-06
2.6417077e-09
1.8447227e-06
-1.5002867e-10
2.2162804e-06
-2.9317888e-09
2.6642519e-06
-5.6314861e-09
3.2045843e-06
-8.1703037e-09
3.8565286e-06
-1.0453218e-08
4.6433756e-06
-1.2384823e-08
5.5932681e-06
-1.3847217e-08
6.7402809e-06
-1.4728378e-08
8.1255776e-06
-1.4885687e-08
9.7990223e-06
-1.4193105e-08
1.1820836e-05
-1.2489547e-08
1.4264009e-05
-9.6477763e-09
1.7216658e-05
-5.540895e-09
2.0785688e-05
2.5099764e-05
4.3354985e-11
2.9150197e-10
1.8342074e-10
9.8552371e-10
4.3768469e-10
1.8947827e-09
8.1819644e-10
3.069462e-09
1.3291622e-09
4.5681887e-09
1.9619357e-09
6.4581502e-09
2.6891162e-09
8.8144278e-09
3.4584978e-09
1.1718311e-08
4.188238e-09
1.5254388e-08
4.7652595e-09
1.950642e-08
5.0492986e-09
2.4552444e-08
4.8848057e-09
3.0460195e-08
4.121628e-09
3.728477e-08
2.6429655e-09
4.5071235e-08
3.9584439e-10
5.3865063e-08
-2.5833738e-09
6.3732244e-08
-6.1562428e-09
7.4789364e-08
-1.010543e-08
8.7251723e-08
-1.4168375e-08
1.0145904e-07
-1.8081311e-08
1.1789602e-07
-2.1621503e-08
1.3719911e-07
-2.4636752e-08
1.6015213e-07
-2.7056735e-08
1.8767909e-07
-2.8886564e-08
2.208437e-07
-3.0187404e-08
2.6086344e-07
-3.1051225e-08
3.0914276e-07
-3.157669e-08
3.6732642e-07
-3.1851394e-08
4.3737102e-07
-3.1942817e-08
5.2163161e-07
-3.189745e-08
6.2296092e-07
-3.1745244e-08
7.4482134e-07
-3.1506027e-08
8.9141312e-07
-3.1194874e-08
1.0678248e-06
-3.0825007e-08
1.280214e-06
-3.0405891e-08
1.5360248e-06
-2.99402e-08
1.844257e-06
-2.9456168e-08
2.2157963e-06
-2.8994908e-08
2.6637906e-06
-2.8546762e-08
3.2041361e-06
-2.8082129e-08
3.856064e-06
-2.7550504e-08
4.6428439e-06
-2.6880474e-08
5.5925981e-06
-2.5973079e-08
6.7393735e-06
-2.4707974e-08
8.1243125e-06
-2.2938858e-08
9.7972532e-06
-2.0497291e-08
1.1818395e-05
-1.7207899e-08
1.426072e-05
-1.2839912e-08
1.721229e-05
-7.2670871e-09
2.0780115e-05
2.5092497e-05
-1.9650321e-11
3.1115242e-10
-8.588682e-11
1.0517602e-09
-2.1231909e-10
2.0212147e-09
-4.1547732e-10
3.2726204e-09
-7.1550286e-10
4.8682141e-09
-1.1370575e-09
6.8797053e-09
-1.7105276e-09
9.3878983e-09
-2.4734863e-09
1.248127e-08
-3.4722154e-09
1.6253116e-08
-4.7627685e-09
2.0796973e-08
-6.4106306e-09
2.6200306e-08
-8.4876057e-09
3.253717e-08
-1.1064417e-08
3.9861581e-08
-1.4198044e-08
4.8204861e-08
-1.7914428e-08
5.7581446e-08
-2.2190127e-08
6.8007944e-08
-2.6938541e-08
7.9537778e-08
-3.1994704e-08
9.2307888e-08
-3.7124837e-08
1.0658917e-07
-4.205603e-08
1.2282721e-07
-4.6519111e-08
1.4166219e-07
-5.0293393e-08
1.6392641e-07
-5.3240804e-08
1.906265e-07
-5.5321009e-08
2.2292391e-07
-5.658543e-08
2.6212786e-07
-5.7154132e-08
3.0971147e-07
-5.7183446e-08
3.6735573e-07
-5.6833409e-08
4.3702098e-07
-5.6242678e-08
5.2104087e-07
-5.5514843e-08
6.2223309e-07
-5.4715977e-08
7.4402247e-07
-5.387974e-08
8.9057688e-07
-5.301569e-08
1.0669608e-06
-5.2117701e-08
1.279316e-06
-5.1170882e-08
1.5350779e-06
-5.0152342e-08
1.8432385e-06
-4.9033099e-08
2.2146771e-06
-4.7782427e-08
2.6625399e-06
-4.6373853e-08
3.2027276e-06
-4.4774997e-08
3.8544651e-06
-4.2943229e-08
4.6410122e-06
-4.0830925e-08
5.5904858e-06
-3.8368094e-08
6.7369106e-06
-3.5470885e-08
8.1214152e-06
-3.2022837e-08
9.7938051e-06
-2.7875402e-08
1.1814247e-05
-2.2869176e-08
1.4255713e-05
-1.6739784e-08
1.7206161e-05
-9.3474084e-09
2.0772723e-05
2.508315e-05
-2.086336e-11
3.3201584e-10
-9.2115692e-11
1.1230121e-09
-2.2998987e-10
2.1590889e-09
-4.5475986e-10
3.4973903e-09
-7.9157176e-10
5.2050261e-09
-1.2713669e-09
7.3595002e-09
-1.9318653e-09
1.0048397e-08
-2.818543e-09
1.3367948e-08
-3.9854498e-09
1.7420023e-08
-5.4955827e-09
2.2307106e-08
-7.4203053e-09
2.8125029e-08
-9.8369843e-09
3.4953848e-08
-1.2823659e-08
4.2848255e-08
-1.6449438e-08
5.183064e-08
-2.0759707e-08
6.1891717e-08
-2.5756599e-08
7.3004835e-08
-3.1377842e-08
8.5159022e-08
-3.7481005e-08
9.8411054e-08
-4.3840949e-08
1.1294912e-07
-5.0166767e-08
1.2915303e-07
-5.6138601e-08
1.4763402e-07
-6.1456068e-08
1.6924388e-07
-6.5885377e-08
1.9505581e-07
-6.9292292e-08
2.2633083e-07
-7.1653291e-08
2.6448885e-07
-7.3043832e-08
3.1110201e-07
-7.3609161e-08
3.6792106e-07
-7.3526703e-08
4.3693852e-07
-7.2970644e-08
5.204848e-07
-7.2086783e-08
6.2134923e-07
-7.0981452e-08
7.4291713e-07
-6.9722484e-08
8.8931789e-07
-6.8347261e-08
1.0655856e-06
-6.6872074e-08
1.2778409e-06
-6.5300051e-08
1.5335059e-06
-6.3624376e-08
1.8415628e-06
-6.1832856e-08
2.2128855e-06
-5.9913369e-08
2.6606205e-06
-5.7836585e-08
3.2006508e-06
-5.5560405e-08
3.8521889e-06
-5.3028283e-08
4.63848e-06
-5.0171261e-08
5.5876287e-06
-4.6904039e-08
6.7336434e-06
-4.3120753e-08
8.1176319e-06
-3.8701993e-08
9.7893863e-06
-3.3474169e-08
1.1809019e-05
-2.7289378e-08
1.4249529e-05
-1.9844547e-08
1.7198716e-05
-1.0959243e-08
2.0763837e-05
2.507219e-05
-1.8398871e-11
3.5041479e-10
-8.1509584e-11
1.1861229e-09
-2.0418795e-10
2.2817673e-09
-4.0522596e-10
3.6984282e-09
-7.0827882e-10
5.5080791e-09
-1.1429395e-09
7.7941608e-09
-1.7459486e-09
1.0651406e-08
-2.5624883e-09
1.4184488e-08
-3.6474327e-09
1.8504968e-08
-5.0662915e-09
2.3725964e-08
-6.8954015e-09
2.9954139e-08
-9.2206207e-09
3.7279067e-08
-1.2133414e-08
4.5761049e-08
-1.5722922e-08
5.5420148e-08
-2.0062641e-08
6.6231435e-08
-2.5191267e-08
7.8133461e-08
-3.1089459e-08
9.1057213e-08
-3.7657687e-08
1.0497928e-07
-4.4703433e-08
1.1999487e-07
-5.1946335e-08
1.3639593e-07
-5.9045711e-08
1.547334e-07
-6.5647005e-08
1.7584518e-07
-7.1435959e-08
2.0084477e-07
-7.618617e-08
2.3108104e-07
-7.9787929e-08
2.6809061e-07
-8.2252196e-08
3.1356628e-07
-8.3690632e-08
3.6935949e-07
-8.4278598e-08
4.3752649e-07
-8.4212142e-08
5.2041834e-07
-8.3670349e-08
6.2080743e-07
-8.2791587e-08
7.4203838e-07
-8.1666184e-08
8.881925e-07
-8.034201e-08
1.0642614e-06
-7.8836224e-08
1.2763351e-06
-7.7147801e-08
1.5318175e-06
-7.526654e-08
1.8396815e-06
-7.3174734e-08
2.2107937e-06
-7.0853854e-08
2.6582996e-06
-6.8280882e-08
3.1980778e-06
-6.5424482e-08
3.8493325e-06
-6.2240618e-08
4.6352961e-06
-5.8669633e-08
5.5840577e-06
-5.4633969e-08
6.7296077e-06
-5.0024639e-08
8.1130226e-06
-4.4721939e-08
9.7840836e-06
-3.8532029e-08
1.1802829e-05
-3.1293133e-08
1.424229e-05
-2.2683121e-08
1.7190106e-05
-1.2447948e-08
2.0753602e-05
2.5059742e-05
-1.6121412e-11
3.6653625e-10
-7.1541309e-11
1.2415428e-09
-1.7952251e-10
2.3897484e-09
-3.5696135e-10
3.8758668e-09
-6.2529336e-10
5.7764111e-09
-1.0115801e-09
8.1804478e-09
-1.5497849e-09
1.118961e-08
-2.2822118e-09
1.4916915e-08
-3.2610294e-09
1.9483785e-08
-4.549687e-09
2.5014622e-08
-6.223859e-09
3.1628312e-08
-8.3712724e-09
3.9426481e-08
-1.1089399e-08
4.8479175e-08
-1.4479599e-08
5.8810348e-08
-1.8636093e-08
7.0387927e-08
-2.3628553e-08
8.3125921e-08
-2.9478777e-08
9.6907437e-08
-3.6134927e-08
1.1163543e-07
-4.3450658e-08
1.273106e-07
-5.1178674e-08
1.4412395e-07
-5.8986436e-08
1.6254116e-07
-6.6495073e-08
1.8335381e-07
-7.333392e-08
2.0768362e-07
-7.9197031e-08
2.3694415e-07
-8.388715e-08
2.7278073e-07
-8.7336919e-08
3.1701605e-07
-8.9603494e-08
3.7162606e-07
-9.0839545e-08
4.3876254e-07
-9.1249606e-08
5.2082839e-07
-9.1043823e-08
6.2060165e-07
-9.0401419e-08
7.4139597e-07
-8.945095e-08
8.8724203e-07
-8.8268017e-08
1.0630785e-06
-8.6884494e-08
1.2749516e-06
-8.5301957e-08
1.5302349e-06
-8.3504537e-08
1.8378841e-06
-8.1463544e-08
2.2087527e-06
-7.9142267e-08
2.6559783e-06
-7.6499656e-08
3.1954352e-06
-7.348784e-08
3.8463207e-06
-7.0049924e-08
4.6318582e-06
-6.6115816e-08
5.5801236e-06
-6.1604455e-08
6.7250964e-06
-5.64014e-08
8.1078196e-06
-5.038917e-08
9.7780714e-06
-4.3369185e-08
1.1795809e-05
-3.5165876e-08
1.4234086e-05
-2.5462812e-08
1.7180403e-05
-1.3941444e-08
2.0742081e-05
2.5045801e-05
-1.4499615e-11
3.8103588e-10
-6.4396295e-11
1.2914392e-09
-1.6172131e-10
2.4870734e-09
-3.2185e-10
4.0359955e-09
-5.643597e-10
6.0189207e-09
-9.1407429e-10
8.5301625e-09
-1.4023187e-09
1.1677854e-08
-2.068376e-09
1.5582972e-08
-2.9611068e-09
2.0376517e-08
-4.1406037e-09
2.6194119e-08
-5.6795876e-09
3.3167295e-08
-7.6640389e-09
4.1410932e-08
-1.019218e-08
5.1007316e-08
-1.3370483e-08
6.1988652e-08
-1.7305049e-08
7.4322491e-08
-2.2086692e-08
8.7907564e-08
-2.7769228e-08
1.0258997e-07
-3.4342881e-08
1.1820908e-07
-4.1708613e-08
1.3467633e-07
-4.9662578e-08
1.5207792e-07
-5.7900172e-08
1.7077876e-07
-6.6044519e-08
1.9149816e-07
-7.3695886e-08
2.1533499e-07
-8.0490696e-08
2.4373896e-07
-8.6155345e-08
2.7844538e-07
-9.0542042e-08
3.2140274e-07
-9.3639059e-08
3.7472308e-07
-9.5554255e-08
4.4067775e-07
-9.6477174e-08
5.2175129e-07
-9.6630251e-08
6.2075473e-07
-9.6222981e-08
7.409887e-07
-9.542003e-08
8.8643908e-07
-9.4328903e-08
1.0619873e-06
-9.3004136e-08
1.2736268e-06
-9.1460072e-08
1.5286908e-06
-8.9685724e-08
1.8361098e-06
-8.7653262e-08
2.2067203e-06
-8.5322398e-08
2.6536475e-06
-8.2644931e-08
3.1927577e-06
-7.9562495e-08
3.8432382e-06
-7.600566e-08
4.6283014e-06
-7.1887898e-08
5.5760058e-06
-6.7112903e-08
6.7203214e-06
-6.1547758e-08
8.1022544e-06
-5.5059097e-08
9.7715827e-06
-4.7437732e-08
1.1788188e-05
-3.8479885e-08
1.4225129e-05
-2.7875611e-08
1.7169798e-05
-1.5251366e-08
2.0729457e-05
2.5030549e-05
-1.3209234e-11
3.9424516e-10
-5.8698026e-11
1.3369281e-09
-1.4749228e-10
2.5758677e-09
-2.9371119e-10
4.1822143e-09
-5.1537531e-10
6.2405849e-09
-8.3540169e-10
8.8501887e-09
-1.2828094e-09
1.2125262e-08
-1.8941522e-09
1.6194315e-08
-2.7151535e-09
2.1197518e-08
-3.8024588e-09
2.7281424e-08
-5.2252918e-09
3.4590128e-08
-7.0666038e-09
4.3252243e-08
-9.4229589e-09
5.3363671e-08
-1.2402007e-08
6.4967699e-08
-1.6115899e-08
7.8036382e-08
-2.066888e-08
9.2460543e-08
-2.6137839e-08
1.0805893e-07
-3.2546575e-08
1.2461782e-07
-3.983799e-08
1.4196774e-07
-4.7852354e-08
1.6009228e-07
-5.6321674e-08
1.7924808e-07
-6.4887585e-08
2.0006406e-07
-7.3142878e-08
2.2359028e-07
-8.0688437e-08
2.5128451e-07
-8.7191779e-08
2.8494873e-07
-9.2433501e-08
3.2664447e-07
-9.633135e-08
3.7862092e-07
-9.893747e-08
4.4328386e-07
-1.0041031e-07
5.2322413e-07
-1.0096871e-07
6.2131312e-07
-1.0084085e-07
7.4086084e-07
-1.00222e-07
8.8582023e-07
-9.9250768e-08
1.0610161e-06
-9.8005506e-08
1.2723815e-06
-9.6514532e-08
1.5271999e-06
-9.4771815e-08
1.834367e-06
-9.2749534e-08
2.204698e-06
-9.0404519e-08
2.6513024e-06
-8.7684243e-08
3.1900374e-06
-8.4524932e-08
3.8400789e-06
-8.0851628e-08
4.624628e-06
-7.6569466e-08
5.5717237e-06
-7.1573226e-08
6.7153251e-06
-6.5718207e-08
8.0963994e-06
-5.8853263e-08
9.7647178e-06
-5.0760722e-08
1.1780096e-05
-4.1202395e-08
1.421557e-05
-2.9868163e-08
1.7158464e-05
-1.6335049e-08
2.0715924e-05
2.5014214e-05
-1.2169431e-11
4.0641456e-10
-5.4097556e-11
1.3788563e-09
-1.3598327e-10
2.6577533e-09
-2.7090428e-10
4.3171352e-09
-4.7557883e-10
6.4452595e-09
-7.7130889e-10
9.1459192e-09
-1.1851349e-09
1.2539088e-08
-1.7512203e-09
1.67604e-08
-2.5124659e-09
2.1958764e-08
-3.5222926e-09
2.8291251e-08
-4.8464411e-09
3.5914277e-08
-6.5644396e-09
4.4970241e-08
-8.7701291e-09
5.556936e-08
-1.1570214e-08
6.7767784e-08
-1.5079338e-08
8.1545506e-08
-1.940987e-08
9.6791076e-08
-2.4654823e-08
1.1330388e-07
-3.0863763e-08
1.3082676e-07
-3.8014599e-08
1.4911858e-07
-4.5988055e-08
1.6806574e-07
-5.4554638e-08
1.8781466e-07
-6.3383005e-08
2.0889243e-07
-7.2072817e-08
2.3228009e-07
-8.0206866e-08
2.5941856e-07
-8.7410544e-08
2.921524e-07
-9.3404812e-08
3.3263873e-07
-9.8041199e-08
3.8325731e-07
-1.01312e-07
4.4655467e-07
-1.0333375e-07
5.2524588e-07
-1.0430823e-07
6.222876e-07
-1.0447109e-07
7.4102369e-07
-1.0404224e-07
8.8539138e-07
-1.0319123e-07
1.0601651e-06
-1.0202388e-07
1.2712141e-06
-1.0058727e-07
1.5257632e-06
-9.8884549e-08
1.8326643e-06
-9.6889736e-08
2.2027032e-06
-9.4557144e-08
2.6489699e-06
-9.1828785e-08
3.1873091e-06
-8.8633658e-08
3.8368837e-06
-8.4889177e-08
4.6208836e-06
-8.0491795e-08
5.5673263e-06
-7.5326478e-08
6.7101598e-06
-6.9240607e-08
8.0903135e-06
-6.2066056e-08
9.7575432e-06
-5.358163e-08
1.1771611e-05
-4.3519472e-08
1.4205508e-05
-3.1567166e-08
1.7146512e-05
-1.7263975e-08
2.070162e-05
2.499695e-05
-1.1315023e-11
4.1772977e-10
-5.0313709e-11
1.4178549e-09
-1.265047e-10
2.7339444e-09
-2.5209415e-10
4.4427244e-09
-4.4270253e-10
6.635868e-09
-7.1826111e-10
9.4214778e-09
-1.1041125e-09
1.2924939e-08
-1.6323448e-09
1.7288632e-08
-2.3433671e-09
2.2669786e-08
-3.2876878e-09
2.9235571e-08
-4.5277781e-09
3.7154367e-08
-6.1397498e-09
4.6582213e-08
-8.2143222e-09
5.7643932e-08
-1.0856175e-08
7.0409637e-08
-1.4180337e-08
8.4869667e-08
-1.8303816e-08
1.0091455e-07
-2.3330731e-08
1.183308e-07
-2.9330191e-08
1.3682622e-07
-3.6308651e-08
1.5609704e-07
-4.4182352e-08
1.7593943e-07
-5.2758901e-08
1.9639121e-07
-6.173762e-08
2.1787115e-07
-7.0733986e-08
2.4127646e-07
-7.9325667e-08
2.6801024e-07
-8.7110309e-08
2.9993704e-07
-9.3761833e-08
3.3929024e-07
-9.9073228e-08
3.8856872e-07
-1.0297763e-07
4.5045907e-07
-1.0554335e-07
5.2781159e-07
-1.0694407e-07
6.2368833e-07
-1.074111e-07
7.4149069e-07
-1.071801e-07
8.851604e-07
-1.0644776e-07
1.0594327e-06
-1.0534802e-07
1.2701144e-06
-1.0395008e-07
1.5243653e-06
-1.0227038e-07
1.8309846e-06
-1.0028876e-07
2.2007215e-06
-9.7960241e-08
2.6466413e-06
-9.5224143e-08
3.1845729e-06
-9.2004412e-08
3.833664e-06
-8.8211872e-08
4.617091e-06
-8.3735042e-08
5.5628495e-06
-7.8447635e-08
6.7048723e-06
-7.2189228e-08
8.0840551e-06
-6.4773108e-08
9.7501271e-06
-5.5973381e-08
1.1762811e-05
-4.549623e-08
1.4195031e-05
-3.3023166e-08
1.7134039e-05
-1.8066461e-08
2.0686664e-05
2.4978884e-05
-1.0598664e-11
4.2832849e-10
-4.7136925e-11
1.4543933e-09
-1.1854083e-10
2.8053479e-09
-2.3627383e-10
4.5604576e-09
-4.1502104e-10
6.8146154e-09
-6.7353787e-10
9.6799945e-09
-1.0357014e-09
1.3287103e-08
-1.5317945e-09
1.7784725e-08
-2.2000315e-09
2.3338023e-08
-3.0883149e-09
3.0123856e-08
-4.2561266e-09
3.8322179e-08
-5.7763284e-09
4.8102415e-08
-7.7364414e-09
5.9604045e-08
-1.0238607e-08
7.2911802e-08
-1.3396996e-08
8.8028055e-08
-1.7330982e-08
1.0484854e-07
-2.2152257e-08
1.2315207e-07
-2.7944675e-08
1.4261864e-07
-3.4737772e-08
1.6289013e-07
-4.2478327e-08
1.8367999e-07
-5.100818e-08
2.0492107e-07
-6.0058088e-08
2.2692106e-07
-6.9264454e-08
2.5048282e-07
-7.8208916e-08
2.7695471e-07
-8.6472894e-08
3.0820102e-07
-9.369487e-08
3.4651222e-07
-9.9618386e-08
3.9449223e-07
-1.0412149e-07
4.5496218e-07
-1.072223e-07
5.3091241e-07
-1.090591e-07
6.2552511e-07
-1.0984873e-07
7.4228031e-07
-1.0983353e-07
8.8514519e-07
-1.0923145e-07
1.0588306e-06
-1.0820295e-07
1.2690859e-06
-1.0684046e-07
1.5230028e-06
-1.0517602e-07
1.8293202e-06
-1.0319735e-07
2.1987428e-06
-1.0086198e-07
2.6443059e-06
-9.8108175e-08
3.1818191e-06
-9.4856864e-08
3.8304127e-06
-9.1014081e-08
4.6132482e-06
-8.646346e-08
5.5582989e-06
-8.1069116e-08
6.699478e-06
-7.4665222e-08
8.0776512e-06
-6.704842e-08
9.7425103e-06
-5.7987097e-08
1.175375e-05
-4.7165755e-08
1.418421e-05
-3.4255348e-08
1.7121128e-05
-1.8748011e-08
2.0671156e-05
2.4960136e-05
-9.9852133e-12
4.3831373e-10
-4.4415595e-11
1.4888237e-09
-1.1171384e-10
2.8726461e-09
-2.227043e-10
4.671448e-09
-3.9126076e-10
6.983172e-09
-6.3511699e-10
9.9238509e-09
-9.7687266e-10
1.3628859e-08
-1.4452256e-09
1.8253078e-08
-2.0764518e-09
2.396925e-08
-2.9161257e-09
3.096353e-08
-4.0210122e-09
3.9427065e-08
-5.4609456e-09
4.9542349e-08
-7.3203315e-09
6.1463431e-08
-9.698558e-09
7.5290028e-08
-1.2708225e-08
9.1037721e-08
-1.646959e-08
1.0860991e-07
-2.1099397e-08
1.2778188e-07
-2.6692632e-08
1.4821187e-07
-3.3297442e-08
1.6949495e-07
-4.0886617e-08
1.9126916e-07
-4.9332856e-08
2.1336731e-07
-5.839745e-08
2.3598565e-07
-6.7740283e-08
2.5982566e-07
-7.6952999e-08
2.8616742e-07
-8.5609511e-08
3.1685753e-07
-9.3322744e-08
3.5422545e-07
-9.9795624e-08
4.0096511e-07
-1.0485693e-07
4.6002349e-07
-1.0847562e-07
5.3453108e-07
-1.1075045e-07
6.2779994e-07
-1.1187623e-07
7.4340609e-07
-1.1209353e-07
8.853625e-07
-1.1163539e-07
1.0583725e-06
-1.1068604e-07
1.2681365e-06
-1.0936144e-07
1.5216782e-06
-1.0771114e-07
1.8276699e-06
-1.057328e-07
2.1967645e-06
-1.0338776e-07
2.6419609e-06
-1.0061407e-07
3.1790454e-06
-9.7330428e-08
3.827129e-06
-9.343857e-08
4.6093564e-06
-8.8818502e-08
5.5536788e-06
-8.3326178e-08
6.6939857e-06
-7.6791844e-08
8.0711169e-06
-6.8998917e-08
9.7347173e-06
-5.9709945e-08
1.1744461e-05
-4.8593342e-08
1.4173093e-05
-3.5307526e-08
1.7107843e-05
-1.9329891e-08
2.0655179e-05
2.4940806e-05
-9.4530278e-12
4.4776674e-10
-4.2053529e-11
1.5214242e-09
-1.0578573e-10
2.9363782e-09
-2.1091504e-10
4.7765772e-09
-3.7060565e-10
7.1428626e-09
-6.0169475e-10
1.015494e-08
-9.2565637e-10
1.395282e-08
-1.3697876e-09
1.8697209e-08
-1.9686409e-09
2.4568103e-08
-2.7657017e-09
3.1760591e-08
-3.8152719e-09
4.0476634e-08
-5.1843886e-09
5.0911466e-08
-6.9544834e-09
6.3233526e-08
-9.2221466e-09
7.7557691e-08
-1.2098e-08
9.3913575e-08
-1.5702204e-08
1.1221411e-07
-2.0154774e-08
1.3223445e-07
-2.5559085e-08
1.5361618e-07
-3.1978318e-08
1.7591418e-07
-3.9407327e-08
1.9869817e-07
-4.7746292e-08
2.2170628e-07
-5.6785369e-08
2.4502473e-07
-6.6208805e-08
2.6924909e-07
-7.5622102e-08
2.9558073e-07
-8.4598136e-08
3.2583356e-07
-9.2732244e-08
3.6235955e-07
-9.9694804e-08
4.0792766e-07
-1.052716e-07
4.6560027e-07
-1.0938521e-07
5.3864469e-07
-1.1209339e-07
6.3050813e-07
-1.1356346e-07
7.4487615e-07
-1.1402693e-07
8.8582596e-07
-1.1372545e-07
1.058071e-06
-1.1286334e-07
1.2672744e-06
-1.115795e-07
1.5203943e-06
-1.0994245e-07
1.8260328e-06
-1.0796169e-07
2.1947837e-06
-1.056042e-07
2.6396034e-06
-1.0280893e-07
3.1762501e-06
-9.9493234e-08
3.8238133e-06
-9.5555204e-08
4.6054183e-06
-9.0871879e-08
5.5489954e-06
-8.5291996e-08
6.6884058e-06
-7.8641962e-08
8.0644668e-06
-7.0694688e-08
9.7267701e-06
-6.1206012e-08
1.1734972e-05
-4.9832802e-08
1.416172e-05
-3.621999e-08
1.709423e-05
-1.9834644e-08
2.0638793e-05
2.4920971e-05
-8.9864975e-12
4.5675325e-10
-3.9982232e-11
1.55242e-09
-1.0058531e-10
2.9969813e-09
-2.005684e-10
4.8765604e-09
-3.5246918e-10
7.2947633e-09
-5.7233174e-10
1.0374802e-08
-8.8063081e-10
1.426112e-08
-1.3034159e-09
1.9119995e-08
-1.8736969e-09
2.5138384e-08
-2.6330811e-09
3.2519976e-08
-3.6336301e-09
4.1477182e-08
-4.9398065e-09
5.2217642e-08
-6.6302372e-09
6.4923957e-08
-8.7987545e-09
7.9726208e-08
-1.1553787e-08
9.6668608e-08
-1.5014748e-08
1.1567507e-07
-1.9303636e-08
1.3652333e-07
-2.4530145e-08
1.5884269e-07
-3.0769613e-08
1.8215365e-07
-3.8035626e-08
2.0596418e-07
-4.6252708e-08
2.2992336e-07
-5.5237841e-08
2.5400986e-07
-6.4699559e-08
2.7871081e-07
-7.425959e-08
3.0514075e-07
-8.3494407e-08
3.3506838e-07
-9.198815e-08
3.7085328e-07
-9.938563e-08
4.1532514e-07
-1.0543581e-07
4.7165046e-07
-1.1001877e-07
5.4322765e-07
-1.131515e-07
6.3364085e-07
-1.1497036e-07
7.4669499e-07
-1.1569181e-07
8.8654741e-07
-1.1555997e-07
1.0579392e-06
-1.1479489e-07
1.2665093e-06
-1.1355692e-07
1.5191564e-06
-1.119341e-07
1.82441e-06
-1.0994941e-07
2.1927991e-06
-1.0757694e-07
2.6372309e-06
-1.0475772e-07
3.1734309e-06
-1.0140873e-07
3.8204643e-06
-9.7425136e-08
4.6014347e-06
-9.2681609e-08
5.5442519e-06
-8.7021148e-08
6.6827453e-06
-8.0266257e-08
8.0577119e-06
-7.2181863e-08
9.7186857e-06
-6.2516289e-08
1.1725307e-05
-5.0918041e-08
1.4150122e-05
-3.7018311e-08
1.708033e-05
-2.0276362e-08
2.0622051e-05
2.4900695e-05
-8.5735335e-12
4.653268e-10
-3.8147953e-11
1.5819946e-09
-9.5978814e-11
3.0548122e-09
-1.914004e-10
4.9719821e-09
-3.3639234e-10
7.4397554e-09
-5.4629122e-10
1.0584701e-08
-8.4067858e-10
1.4555508e-08
-1.2444864e-09
1.9523803e-08
-1.7893374e-09
2.5683234e-08
-2.5151387e-09
3.3245777e-08
-3.4719133e-09
4.2433957e-08
-4.7217513e-09
5.346748e-08
-6.340654e-09
6.6542861e-08
-8.4197789e-09
8.1805333e-08
-1.1065266e-08
9.9314093e-08
-1.4395348e-08
1.1900516e-07
-1.8533081e-08
1.4066107e-07
-2.3592886e-08
1.639025e-07
-2.9659968e-08
1.8822073e-07
-3.6763833e-08
2.1306804e-07
-4.4850523e-08
2.3801005e-07
-5.3761695e-08
2.6292103e-07
-6.3229548e-08
2.8817866e-07
-7.2893303e-08
3.1480451e-07
-8.2336413e-08
3.4451149e-07
-9.1136797e-08
3.7965366e-07
-9.891961e-08
4.2310795e-07
-1.0540274e-07
4.781336e-07
-1.1042798e-07
5.4825288e-07
-1.1397309e-07
6.3718595e-07
-1.1614168e-07
7.4886358e-07
-1.1713069e-07
8.8753641e-07
-1.17181e-07
1.0579895e-06
-1.1652394e-07
1.2658523e-06
-1.1533899e-07
1.5179714e-06
-1.1373373e-07
1.8228047e-06
-1.1174581e-07
2.1908112e-06
-1.0935778e-07
2.6348429e-06
-1.0651376e-07
3.1705869e-06
-1.0313102e-07
3.8170816e-06
-9.9102515e-08
4.5974062e-06
-9.4300884e-08
5.5394503e-06
-8.8564602e-08
6.677009e-06
-8.1712274e-08
8.0508596e-06
-7.3503086e-08
9.7104765e-06
-6.3677644e-08
1.1715481e-05
-5.1878564e-08
1.4138323e-05
-3.7723761e-08
1.7066175e-05
-2.0666216e-08
2.0604994e-05
2.4880029e-05
-8.2048204e-12
4.7353161e-10
-3.6510209e-11
1.6102998e-09
-9.1863881e-11
3.1101661e-09
-1.832082e-10
5.0633264e-09
-3.2202164e-10
7.5785689e-09
-5.2300495e-10
1.0785684e-08
-8.0493773e-10
1.483744e-08
-1.1917424e-09
1.9910608e-08
-1.7137844e-09
2.6205277e-08
-2.4094305e-09
3.3941423e-08
-3.3268393e-09
4.3351366e-08
-4.5259168e-09
5.4666558e-08
-6.0802058e-09
6.809715e-08
-8.0783039e-09
8.3803431e-08
-1.0624027e-08
1.0185982e-07
-1.3834163e-08
1.2221529e-07
-1.7832137e-08
1.4465904e-07
-2.2735876e-08
1.6880623e-07
-2.8638606e-08
1.9412346e-07
-3.5583393e-08
2.2001283e-07
-4.3535276e-08
2.4596194e-07
-5.2358542e-08
2.7174429e-07
-6.1808018e-08
2.9762814e-07
-7.1541055e-08
3.2453755e-07
-8.1150382e-08
3.5412081e-07
-9.0211596e-08
3.8871489e-07
-9.8335132e-08
4.3123149e-07
-1.0521289e-07
4.8501136e-07
-1.1065267e-07
5.5369265e-07
-1.145953e-07
6.4112858e-07
-1.1711116e-07
7.5137944e-07
-1.1837436e-07
8.8879962e-07
-1.1861785e-07
1.058233e-06
-1.1807964e-07
1.265314e-06
-1.1695565e-07
1.5168474e-06
-1.1537244e-07
1.8212215e-06
-1.1338318e-07
2.1888219e-06
-1.1098009e-07
2.6324398e-06
-1.0811146e-07
3.1677182e-06
-1.0469555e-07
3.8136657e-06
-1.0062366e-07
4.5933343e-06
-9.5766446e-08
5.5345931e-06
-8.9958967e-08
6.6712015e-06
-8.3015752e-08
8.0439164e-06
-7.469185e-08
9.7021526e-06
-6.4720305e-08
1.170551e-05
-5.2739501e-08
1.4126342e-05
-3.8354963e-08
1.7051791e-05
-2.101439e-08
2.0587653e-05
2.4859015e-05
-7.8731902e-12
4.8140476e-10
-3.5036421e-11
1.637463e-09
-8.8161295e-11
3.1632908e-09
-1.7583505e-10
5.1510002e-09
-3.0908423e-10
7.7118183e-09
-5.0203495e-10
1.0978635e-08
-7.7274012e-10
1.5108145e-08
-1.1442065e-09
2.0282074e-08
-1.6456596e-09
2.670673e-08
-2.3140567e-09
3.460982e-08
-3.1958495e-09
4.4233159e-08
-4.3489235e-09
5.5819631e-08
-5.8445294e-09
6.9592755e-08
-7.7688214e-09
8.5727723e-08
-1.0223319e-08
1.0431432e-07
-1.3323174e-08
1.2531515e-07
-1.7191697e-08
1.4852757e-07
-2.1949355e-08
1.7356389e-07
-2.7695916e-08
1.9987002e-07
-3.4486022e-08
2.2680294e-07
-4.2301514e-08
2.5377743e-07
-5.1027321e-08
2.804701e-07
-6.0439761e-08
3.0704058e-07
-7.0214401e-08
3.3431219e-07
-7.9954888e-08
3.6386129e-07
-8.9237483e-08
3.9799748e-07
-9.7661897e-08
4.3965589e-07
-1.0489854e-07
4.9224801e-07
-1.1072535e-07
5.5951944e-07
-1.1504889e-07
6.4545213e-07
-1.1790677e-07
7.5423732e-07
-1.1944816e-07
8.90341e-07
-1.1989405e-07
1.0586789e-06
-1.194849e-07
1.2649049e-06
-1.1843013e-07
1.5157926e-06
-1.1687411e-07
1.8196655e-06
-1.1488601e-07
2.1868338e-06
-1.124689e-07
2.6300227e-06
-1.0957626e-07
3.1648256e-06
-1.0612791e-07
3.8102173e-06
-1.020142e-07
4.5892206e-06
-9.7103896e-08
5.5296828e-06
-9.1229466e-08
6.6653271e-06
-8.4201296e-08
8.0368882e-06
-7.5771438e-08
9.6937228e-06
-6.5665589e-08
1.1695404e-05
-5.3518864e-08
1.4114195e-05
-3.8925642e-08
1.7037198e-05
-2.1328669e-08
2.0570056e-05
2.4837686e-05
-7.5729284e-12
4.8897776e-10
-3.3702263e-11
1.6635924e-09
-8.4808635e-11
3.2143971e-09
-1.6915743e-10
5.2353493e-09
-2.9736563e-10
7.8400264e-09
-4.8303591e-10
1.1164305e-08
-7.4355915e-10
1.5368668e-08
-1.1011093e-09
2.0639624e-08
-1.5838683e-09
2.7189489e-08
-2.2275036e-09
3.5253455e-08
-3.0768958e-09
4.5082551e-08
-4.1880609e-09
5.6930797e-08
-5.630105e-09
7.10348e-08
-7.4868685e-09
8.7584486e-08
-9.8576166e-09
1.0668507e-07
-1.2855763e-08
1.2831329e-07
-1.6604129e-08
1.5227593e-07
-2.1224988e-08
1.7818474e-07
-2.6823425e-08
2.0546846e-07
-3.3464011e-08
2.3344352e-07
-4.1143439e-08
2.6145686e-07
-4.9765469e-08
2.8909213e-07
-5.9126692e-08
3.164018e-07
-6.8920684e-08
3.4410618e-07
-7.8763048e-08
3.7370366e-07
-8.823303e-08
4.0746746e-07
-9.6922919e-08
4.4834577e-07
-1.0448554e-07
4.9981062e-07
-1.1067267e-07
5.6570657e-07
-1.1535958e-07
6.5013904e-07
-1.1855213e-07
7.5742987e-07
-1.2037334e-07
8.9216222e-07
-1.2102916e-07
1.0593347e-06
-1.2075862e-07
1.2646344e-06
-1.1978139e-07
1.5148154e-06
-1.1825831e-07
1.8181424e-06
-1.1627464e-07
2.1848501e-06
-1.1384509e-07
2.6275932e-06
-1.1092939e-07
3.1619099e-06
-1.0744954e-07
3.8067375e-06
-1.0329554e-07
4.5850666e-06
-9.8334424e-08
5.5247216e-06
-9.2396651e-08
6.6593894e-06
-8.5288638e-08
8.0297802e-06
-7.676011e-08
9.6851943e-06
-6.6529957e-08
1.1685174e-05
-5.4230551e-08
1.4101896e-05
-3.9446122e-08
1.7022413e-05
-2.1614878e-08
2.0552225e-05
2.4816071e-05
-7.2997377e-12
4.9627755e-10
-3.248799e-11
1.6887805e-09
-8.1756145e-11
3.2636654e-09
-1.630768e-10
5.3166704e-09
-2.8669201e-10
7.9636414e-09
-4.6572692e-10
1.134334e-08
-7.1696711e-10
1.5619908e-08
-1.0618229e-09
2.098448e-08
-1.5275189e-09
2.7655185e-08
-2.1485376e-09
3.5874473e-08
-2.9683083e-09
4.5902322e-08
-4.0411145e-09
5.8003602e-08
-5.4340567e-09
7.2427741e-08
-7.2287758e-09
8.9379205e-08
-9.5223502e-09
1.0897864e-07
-1.24264e-08
1.3121735e-07
-1.6062988e-08
1.5591252e-07
-2.0555602e-08
1.8267736e-07
-2.6013667e-08
2.1092652e-07
-3.251026e-08
2.3994011e-07
-4.0055258e-08
2.6900185e-07
-4.856957e-08
2.9760644e-07
-5.7868833e-08
3.2570106e-07
-6.7664232e-08
3.5390158e-07
-7.7583981e-08
3.836234e-07
-8.7212047e-08
4.1709553e-07
-9.6136009e-08
4.5726973e-07
-1.039944e-07
5.0766901e-07
-1.1051634e-07
5.7222851e-07
-1.1554862e-07
6.5517132e-07
-1.1906686e-07
7.6094811e-07
-1.2116755e-07
8.942629e-07
-1.2203913e-07
1.0602063e-06
-1.2191582e-07
1.264511e-06
-1.2102445e-07
1.513924e-06
-1.1954047e-07
1.8166584e-06
-1.1756496e-07
2.1828746e-06
-1.1512505e-07
2.6251533e-06
-1.1218761e-07
3.1589724e-06
-1.0867745e-07
3.8032273e-06
-1.0448484e-07
4.580874e-06
-9.9475112e-08
5.5197119e-06
-9.3477325e-08
6.6533916e-06
-8.6293954e-08
8.0225969e-06
-7.7672978e-08
9.6765733e-06
-6.7326966e-08
1.1674828e-05
-5.4885849e-08
1.4089455e-05
-3.9924907e-08
1.7007452e-05
-2.1877739e-08
2.0534178e-05
2.4794193e-05
-7.0498049e-12
5.0332741e-10
-3.1377028e-11
1.7131075e-09
-7.8963246e-11
3.3112517e-09
-1.5751252e-10
5.3952198e-09
-2.7692239e-10
8.0830513e-09
-4.4988064e-10
1.1516298e-08
-6.9261647e-10
1.5862644e-08
-1.0258376e-09
2.1317701e-08
-1.4758883e-09
2.8105236e-08
-2.0761544e-09
3.6474739e-08
-2.8687241e-09
4.6694891e-08
-3.9062656e-09
5.9041145e-08
-5.2540049e-09
7.377548e-08
-6.9915026e-09
9.1116702e-08
-9.2137208e-09
1.1120086e-07
-1.2030458e-08
1.3403408e-07
-1.5562822e-08
1.5944488e-07
-1.9935057e-08
1.8704959e-07
-2.5260104e-08
2.1625157e-07
-3.1618366e-08
2.4629838e-07
-3.9031422e-08
2.7641491e-07
-4.7435837e-08
3.0601086e-07
-5.6665062e-08
3.3493029e-07
-6.6447361e-08
3.6368388e-07
-7.6423931e-08
3.9359996e-07
-8.6184787e-08
4.268564e-07
-9.531501e-08
4.6639995e-07
-1.0344165e-07
5.1579565e-07
-1.1027424e-07
5.790611e-07
-1.1563386e-07
6.6053093e-07
-1.1946766e-07
7.6478192e-07
-1.2184566e-07
8.966409e-07
-1.229372e-07
1.0612978e-06
-1.2296867e-07
1.2645425e-06
-1.2217106e-07
1.5131264e-06
-1.2073246e-07
1.8152198e-06
-1.1876925e-07
2.1809113e-06
-1.1632137e-07
2.6227054e-06
-1.1336375e-07
3.1560148e-06
-1.0982459e-07
3.7996881e-06
-1.0559503e-07
4.5766445e-06
-1.0053894e-07
5.5146558e-06
-9.448415e-08
6.6473368e-06
-8.7229581e-08
8.0153423e-06
-7.8521604e-08
9.6678653e-06
-6.8067124e-08
1.1664373e-05
-5.5493695e-08
1.4076881e-05
-4.0368612e-08
1.6992327e-05
-2.2120984e-08
2.0515931e-05
2.4772072e-05
-6.8201973e-12
5.101476e-10
-3.0355681e-11
1.736643e-09
-7.6395736e-11
3.3572918e-09
-1.5239636e-10
5.4712207e-09
-2.679392e-10
8.1985938e-09
-4.3530793e-10
1.1683667e-08
-6.7021783e-10
1.6097554e-08
-9.9272945e-10
2.1640212e-08
-1.4283721e-09
2.8540878e-08
-2.009518e-09
3.7055885e-08
-2.7770068e-09
4.746238e-08
-3.7820054e-09
6.0046143e-08
-5.0879746e-09
7.508145e-08
-6.7725073e-09
9.2801235e-08
-8.9285282e-09
1.1335688e-07
-1.1664015e-08
1.3676957e-07
-1.509898e-08
1.6287985e-07
-1.935805e-08
1.9130866e-07
-2.4557015e-08
2.2145053e-07
-3.0782588e-08
2.5252395e-07
-3.8066765e-08
2.8369908e-07
-4.6360389e-08
3.1430448e-07
-5.5513581e-08
3.4408348e-07
-6.5271061e-08