/*--------------------------------*- C++ -*----------------------------------*\
| =========                 |                                                 |
| \\      /  F ield         | OpenFOAM: The Open Source CFD Toolbox           |
|  \\    /   O peration     | Version:  3.0.1                                 |
|   \\  /    A nd           | Web:      www.OpenFOAM.org                      |
|    \\/     M anipulation  |                                                 |
\*---------------------------------------------------------------------------*/
FoamFile
{
    version     2.0;
    format      ascii;
    class       surfaceScalarField;
    location    "2417";
    object      phi;
}
// * * * * * * * * * * * * * * * * * * * * * * * * * * * * * * * * * * * * * //

dimensions      [1 0 -1 0 0 0 0];

internalField   nonuniform List<scalar> 
7860
(
3.3647982e-09
1.4331671e-08
9.6061719e-09
4.3911145e-08
1.5571135e-08
7.7582976e-08
1.9762953e-08
1.1322811e-07
2.2126077e-08
1.4971205e-07
2.3239509e-08
1.8706907e-07
2.370978e-08
2.2604615e-07
2.3941513e-08
2.6756773e-07
2.4138231e-08
3.1242628e-07
2.4372896e-08
3.6118809e-07
2.4652205e-08
4.1420687e-07
2.4956467e-08
4.7166786e-07
2.5259406e-08
5.3362945e-07
2.5535782e-08
6.0005467e-07
2.5763441e-08
6.7083417e-07
2.5923392e-08
7.4580548e-07
2.6000671e-08
8.2477144e-07
2.5992355e-08
9.0751581e-07
2.5893705e-08
9.9385194e-07
2.5673364e-08
1.0836616e-06
2.5315882e-08
1.1768526e-06
2.4812056e-08
1.2734429e-06
2.4157017e-08
1.3735735e-06
2.3350197e-08
1.4775142e-06
2.2395888e-08
1.5856441e-06
2.1303665e-08
1.6983929e-06
2.0088379e-08
1.8161249e-06
1.8771173e-08
1.9389314e-06
1.737927e-08
2.0663108e-06
1.5945452e-08
2.1966951e-06
1.4506458e-08
2.3267815e-06
1.310077e-08
2.4506369e-06
1.1763842e-08
2.558555e-06
1.052187e-08
2.6356852e-06
9.3782352e-09
2.6604887e-06
8.2997748e-09
2.6031597e-06
7.1726397e-09
2.4241041e-06
5.7505135e-09
2.0726745e-06
3.4645306e-09
1.4858032e-06
5.8594629e-07
-6.7977069e-10
1.5011441e-08
-2.3461796e-09
4.5577553e-08
-4.8028167e-09
8.0039613e-08
-7.8126433e-09
1.1623793e-07
-1.0914578e-08
1.5281399e-07
-1.3548558e-08
1.8970304e-07
-1.5309843e-08
2.2780743e-07
-1.6062021e-08
2.6831991e-07
-1.5885297e-08
3.1224955e-07
-1.4967604e-08
3.602704e-07
-1.3516766e-08
4.1275603e-07
-1.1714222e-08
4.6986532e-07
-9.7011574e-09
5.3161639e-07
-7.5818702e-09
5.9793537e-07
-5.4330593e-09
6.6868536e-07
-3.3127607e-09
7.4368519e-07
-1.2655629e-09
8.2272424e-07
6.7693998e-10
9.0557331e-07
2.4849414e-09
9.9204393e-07
4.1161383e-09
1.0820304e-06
5.5380781e-09
1.1754307e-06
6.7273308e-09
1.2722537e-06
7.6682946e-09
1.3726326e-06
8.3534506e-09
1.4768291e-06
8.7849335e-09
1.5852126e-06
8.9845252e-09
1.6981933e-06
8.9596507e-09
1.8161498e-06
8.7318675e-09
1.9391591e-06
8.3415509e-09
2.0667011e-06
7.8398234e-09
2.1971968e-06
7.284977e-09
2.3273363e-06
6.7384911e-09
2.4511835e-06
6.2572166e-09
2.5590361e-06
5.8834593e-09
2.6360591e-06
5.6236878e-09
2.6607484e-06
5.4242496e-09
2.6033593e-06
5.1117976e-09
2.4244165e-06
4.3110011e-09
2.0734753e-06
2.4061111e-09
1.4877079e-06
5.8835261e-07
-9.0102483e-10
1.5912466e-08
-3.5372001e-09
4.8213729e-08
-7.7990661e-09
8.4301479e-08
-1.3252842e-08
1.2169171e-07
-1.9153478e-08
1.5871463e-07
-2.4609404e-08
1.9515897e-07
-2.8882285e-08
2.3208032e-07
-3.1597468e-08
2.7103508e-07
-3.2746537e-08
3.1339863e-07
-3.2557099e-08
3.6008096e-07
-3.1347229e-08
4.1154615e-07
-2.9426076e-08
4.6794417e-07
-2.7047839e-08
5.2923815e-07
-2.4402772e-08
5.9529031e-07
-2.1626849e-08
6.6590943e-07
-1.881655e-08
7.4087489e-07
-1.6042733e-08
8.1995041e-07
-1.3366983e-08
9.0289758e-07
-1.084002e-08
9.8951695e-07
-8.4877783e-09
1.0796781e-06
-6.3433362e-09
1.1732863e-06
-4.434549e-09
1.2703448e-06
-2.7815108e-09
1.3709796e-06
-1.3962634e-09
1.4754438e-06
-2.8019843e-10
1.5840965e-06
5.8072091e-10
1.6973324e-06
1.1951939e-09
1.8155353e-06
1.5838063e-09
1.9387705e-06
1.785358e-09
2.0664995e-06
1.8518645e-09
2.1971303e-06
1.8446015e-09
2.3273435e-06
1.8291051e-09
2.451199e-06
1.8662677e-09
2.558999e-06
1.9993001e-09
2.6359261e-06
2.2325748e-09
2.6605151e-06
2.5059405e-09
2.6030857e-06
2.6747899e-09
2.4242476e-06
2.3643911e-09
2.0737859e-06
1.1840495e-09
1.4888884e-06
5.8953652e-07
-8.2677377e-10
1.673924e-08
-3.4296985e-09
5.0816653e-08
-7.9798307e-09
8.8851611e-08
-1.4277074e-08
1.2798895e-07
-2.1660175e-08
1.6609773e-07
-2.9120503e-08
2.026193e-07
-3.563057e-08
2.3859038e-07
-4.0476859e-08
2.7588137e-07
-4.3392686e-08
3.1631446e-07
-4.4485044e-08
3.6117332e-07
-4.4072584e-08
4.1113369e-07
-4.2537233e-08
4.6640882e-07
-4.0230991e-08
5.269319e-07
-3.7436275e-08
5.924956e-07
-3.4361988e-08
6.6283514e-07
-3.1156519e-08
7.3766944e-07
-2.7926025e-08
8.1671989e-07
-2.47525e-08
8.9972406e-07
-2.1699298e-08
9.8646376e-07
-1.8807901e-08
1.0767867e-06
-1.611736e-08
1.1705958e-06
-1.3661186e-08
1.2678886e-06
-1.1464847e-08
1.3687832e-06
-9.5446818e-09
1.4735236e-06
-7.9068912e-09
1.5824587e-06
-6.5544684e-09
1.6959799e-06
-5.4655745e-09
1.8144464e-06
-4.6108336e-09
1.9379158e-06
-3.9513885e-09
2.0658401e-06
-3.4352657e-09
2.1966141e-06
-2.9996618e-09
2.326908e-06
-2.5769867e-09
2.4507762e-06
-2.1036122e-09
2.5585257e-06
-1.5348193e-09
2.6353573e-06
-8.6561413e-10
2.6598459e-06
-1.5377992e-10
2.6023741e-06
4.5883787e-10
2.4236348e-06
6.7977948e-10
2.073565e-06
3.2705572e-10
1.4892412e-06
5.8986356e-07
-7.3204988e-10
1.7471291e-08
-3.1198821e-09
5.3204485e-08
-7.478831e-09
9.3210559e-08
-1.3833021e-08
1.3434314e-07
-2.1740541e-08
1.7400525e-07
-3.0290302e-08
2.1116906e-07
-3.8357241e-08
2.4665732e-07
-4.4975933e-08
2.8250006e-07
-4.9593996e-08
3.2093253e-07
-5.2105197e-08
3.6368452e-07
-5.2728149e-08
4.1175664e-07
-5.1842908e-08
4.6552359e-07
-4.9858915e-08
5.2494791e-07
-4.713772e-08
5.897744e-07
-4.3963729e-08
6.5966114e-07
-4.0545688e-08
7.3425141e-07
-3.703275e-08
8.1320693e-07
-3.3533662e-08
8.9622499e-07
-3.0128194e-08
9.8305831e-07
-2.6871778e-08
1.0735303e-06
-2.3810122e-08
1.1675341e-06
-2.0981204e-08
1.2650597e-06
-1.841407e-08
1.3662161e-06
-1.6127949e-08
1.4712376e-06
-1.4131879e-08
1.5804626e-06
-1.2427463e-08
1.6942756e-06
-1.0995378e-08
1.8130143e-06
-9.8046947e-09
1.9367251e-06
-8.813859e-09
2.0648492e-06
-7.9673571e-09
2.1957676e-06
-7.1984192e-09
2.326139e-06
-6.4339156e-09
2.4500118e-06
-5.6050363e-09
2.5576967e-06
-4.6606413e-09
2.6344129e-06
-3.5899295e-09
2.6587752e-06
-2.4478019e-09
2.601232e-06
-1.4040146e-09
2.4225909e-06
-6.6923794e-10
2.0728304e-06
-3.032106e-10
1.4888751e-06
5.8956026e-07
-6.6110535e-10
1.8132397e-08
-2.8532444e-09
5.5396624e-08
-6.9477995e-09
9.7305114e-08
-1.310809e-08
1.4050343e-07
-2.1091153e-08
1.8198831e-07
-3.0157718e-08
2.2023562e-07
-3.9223781e-08
2.5572339e-07
-4.7200158e-08
2.9047643e-07
-5.3307823e-08
3.2704019e-07
-5.7211158e-08
3.6758785e-07
-5.8968897e-08
4.1351438e-07
-5.8892611e-08
4.654473e-07
-5.7398748e-08
5.2345404e-07
-5.490035e-08
5.8727599e-07
-5.1748682e-08
6.5650948e-07
-4.8215445e-08
7.3071817e-07
-4.4499491e-08
8.0949099e-07
-4.0744048e-08
8.9246953e-07
-3.7051263e-08
9.7936555e-07
-3.3492894e-08
1.0699719e-06
-3.0123779e-08
1.164165e-06
-2.6987433e-08
1.2619234e-06
-2.4116675e-08
1.3633453e-06
-2.1533448e-08
1.4686543e-06
-1.9248631e-08
1.5781778e-06
-1.7263225e-08
1.6922901e-06
-1.5558623e-08
1.8113097e-06
-1.4102834e-08
1.9352693e-06
-1.2851021e-08
2.0635975e-06
-1.174422e-08
2.1946608e-06
-1.0710736e-08
2.3251055e-06
-9.6723556e-09
2.4489735e-06
-8.5536062e-09
2.556578e-06
-7.2974262e-09
2.6331567e-06
-5.8864244e-09
2.6573641e-06
-4.3701738e-09
2.5997158e-06
-2.9013944e-09
2.4211222e-06
-1.6656555e-09
2.0715945e-06
-7.1460948e-10
1.4879243e-06
5.8884567e-07
-6.045935e-10
1.873699e-08
-2.6296985e-09
5.7421728e-08
-6.4660305e-09
1.0114145e-07
-1.2357834e-08
1.4639524e-07
-2.0211579e-08
1.8984205e-07
-2.9459659e-08
2.294837e-07
-3.9123552e-08
2.6538729e-07
-4.8088496e-08
2.9944137e-07
-5.5428982e-08
3.3438069e-07
-6.0610442e-08
3.727693e-07
-6.3514165e-08
4.1641811e-07
-6.433958e-08
4.6627272e-07
-6.3463931e-08
5.225784e-07
-6.1317565e-08
5.8512962e-07
-5.8300401e-08
6.5349232e-07
-5.4741756e-08
7.2715953e-07
-5.0892661e-08
8.056419e-07
-4.6936267e-08
8.8851312e-07
-4.3002755e-08
9.7543206e-07
-3.9183488e-08
1.0661526e-06
-3.5545287e-08
1.1605268e-06
-3.2138658e-08
1.2585167e-06
-2.9000901e-08
1.3602076e-06
-2.6157035e-08
1.4658104e-06
-2.3619798e-08
1.5756406e-06
-2.1389731e-08
1.6900601e-06
-1.9448983e-08
1.809369e-06
-1.7764322e-08
1.9335846e-06
-1.6288261e-08
2.0621214e-06
-1.4958112e-08
2.1933306e-06
-1.3697925e-08
2.3238454e-06
-1.242424e-08
2.4476997e-06
-1.1055724e-08
2.5552094e-06
-9.5289171e-09
2.63163e-06
-7.8203527e-09
2.6556556e-06
-5.9735804e-09
2.5978689e-06
-4.1256737e-09
2.4192743e-06
-2.4438875e-09
2.0699124e-06
-1.0015478e-09
1.4864821e-06
5.8784414e-07
-5.5888264e-10
1.9295874e-08
-2.4433257e-09
5.9306171e-08
-6.0468288e-09
1.0474495e-07
-1.1660165e-08
1.5200857e-07
-1.929681e-08
1.974787e-07
-2.8537132e-08
2.3872402e-07
-3.8527491e-08
2.7537765e-07
-4.8186997e-08
3.0910087e-07
-5.6513015e-08
3.4270671e-07
-6.2818979e-08
3.7907528e-07
-6.6819597e-08
4.2041873e-07
-6.8582645e-08
4.6803577e-07
-6.8412391e-08
5.2240814e-07
-6.6723568e-08
5.8344079e-07
-6.394162e-08
6.5071038e-07
-6.044206e-08
7.2365995e-07
-5.6525584e-08
8.0172543e-07
-5.2418196e-08
8.8440573e-07
-4.8282696e-08
9.7129656e-07
-4.4233645e-08
1.0621036e-06
-4.0352887e-08
1.1566461e-06
-3.6699997e-08
1.2548638e-06
-3.3317936e-08
1.3568255e-06
-3.0235145e-08
1.4627277e-06
-2.7466466e-08
1.5728719e-06
-2.5012727e-08
1.6876063e-06
-2.285649e-08
1.8072128e-06
-2.096354e-08
1.9316917e-06
-1.9284053e-08
2.0604419e-06
-1.7752135e-08
2.1917987e-06
-1.6287849e-08
2.3223811e-06
-1.4802899e-08
2.4462148e-06
-1.3210646e-08
2.5536171e-06
-1.1442018e-08
2.6298614e-06
-9.4677566e-09
2.6536813e-06
-7.3250293e-09
2.5957262e-06
-5.1377066e-09
2.417087e-06
-3.0605189e-09
2.0678353e-06
-1.2075479e-09
1.4846293e-06
5.8663645e-07
-5.2098701e-10
1.9816861e-08
-2.2859357e-09
6.1071119e-08
-5.6835006e-09
1.0814251e-07
-1.1030849e-08
1.5735592e-07
-1.8417584e-08
2.0486543e-07
-2.7545114e-08
2.4785155e-07
-3.7682683e-08
2.8551522e-07
-4.7814154e-08
3.1923235e-07
-5.6910221e-08
3.5180277e-07
-6.417868e-08
3.8634374e-07
-6.9192264e-08
4.2543231e-07
-7.1886101e-08
4.707296e-07
-7.2471739e-08
5.2299379e-07
-7.1321684e-08
5.8229073e-07
-6.8863326e-08
6.4825202e-07
-6.5502948e-08
7.2029957e-07
-6.1584274e-08
7.9780677e-07
-5.7375832e-08
8.8019727e-07
-5.3075776e-08
9.6699652e-07
-4.8825356e-08
1.0578531e-06
-4.4724367e-08
1.1525451e-06
-4.0843849e-08
1.2509833e-06
-3.7233802e-08
1.3532155e-06
-3.3926928e-08
1.4594208e-06
-3.0940504e-08
1.5698854e-06
-2.827606e-08
1.6849419e-06
-2.5916774e-08
1.8048534e-06
-2.382769e-08
1.9296026e-06
-2.1957004e-08
2.0585712e-06
-2.0236022e-08
2.1900777e-06
-1.8581277e-08
2.3207264e-06
-1.6900223e-08
2.4445337e-06
-1.5101498e-08
2.5518184e-06
-1.3111013e-08
2.6278709e-06
-1.0894276e-08
2.6514645e-06
-8.4823444e-09
2.5933142e-06
-5.9876021e-09
2.4145924e-06
-3.5589489e-09
2.0654066e-06
-1.3608141e-09
1.4824314e-06
5.8527549e-07
-4.8896469e-10
2.0305826e-08
-2.1512395e-09
6.2733395e-08
-5.3670875e-09
1.1135836e-07
-1.046804e-08
1.6245688e-07
-1.7598117e-08
2.1199551e-07
-2.655607e-08
2.5680951e-07
-3.6723422e-08
2.9568256e-07
-4.7162142e-08
3.2967106e-07
-5.6849699e-08
3.6149033e-07
-6.4927e-08
3.9442104e-07
-7.0853338e-08
4.3135865e-07
-7.4441326e-08
4.7431758e-07
-7.5802228e-08
5.243547e-07
-7.5247798e-08
5.817363e-07
-7.318653e-08
6.4619075e-07
-7.0038786e-08
7.1715183e-07
-6.6181544e-08
7.9394953e-07
-6.1922436e-08
8.7593816e-07
-5.7495892e-08
9.6256998e-07
-5.307225e-08
1.0534295e-06
-4.8772267e-08
1.1482451e-06
-4.4680773e-08
1.2468918e-06
-4.0856448e-08
1.3493911e-06
-3.7337208e-08
1.4559016e-06
-3.4143432e-08
1.5666916e-06
-3.127781e-08
1.6820764e-06
-2.8724179e-08
1.8022998e-06
-2.6447118e-08
1.9273255e-06
-2.4393271e-08
2.0565173e-06
-2.2491517e-08
2.188176e-06
-2.0655246e-08
2.3188901e-06
-1.8788116e-08
2.4426666e-06
-1.6794688e-08
2.5498249e-06
-1.4596386e-08
2.6256727e-06
-1.2154119e-08
2.6490222e-06
-9.4930779e-09
2.5906532e-06
-6.7162896e-09
2.4118156e-06
-3.9718635e-09
2.0626621e-06
-1.4796661e-09
1.4799391e-06
5.8379576e-07
-4.6147481e-10
2.0767301e-08
-2.0345477e-09
6.4306468e-08
-5.0895218e-09
1.1441333e-07
-9.9648935e-09
1.6733225e-07
-1.6843916e-08
2.1887453e-07
-2.5603342e-08
2.6556893e-07
-3.5723948e-08
3.0580317e-07
-4.6349194e-08
3.4029631e-07
-5.6484206e-08
3.7162534e-07
-6.5232786e-08
4.0316962e-07
-7.1967836e-08
4.380937e-07
-7.6394964e-08
4.7874471e-07
-7.8526259e-08
5.2648599e-07
-7.860207e-08
5.818121e-07
-7.699554e-08
6.4458423e-07
-7.4125205e-08
7.142815e-07
-7.0389777e-08
7.9021409e-07
-6.6130233e-08
8.7167863e-07
-6.1616028e-08
9.5805579e-07
-5.7048032e-08
1.0488615e-06
-5.2570248e-08
1.1437673e-06
-4.8283732e-08
1.2426053e-06
-4.4257623e-08
1.345365e-06
-4.0536276e-08
1.4521803e-06
-3.7143736e-08
1.5632991e-06
-3.4084567e-08
1.6790172e-06
-3.1343367e-08
1.7995585e-06
-2.8884562e-08
1.9248667e-06
-2.665342e-08
2.0542862e-06
-2.4576843e-08
2.1860993e-06
-2.2565252e-08
2.3168786e-06
-2.051922e-08
2.4406206e-06
-1.833949e-08
2.5476452e-06
-1.5943763e-08
2.6232769e-06
-1.3288418e-08
2.646367e-06
-1.0393671e-08
2.5877583e-06
-7.3545415e-09
2.4087765e-06
-4.3231226e-09
2.0596308e-06
-1.5759122e-09
1.4771919e-06
5.8221986e-07
-4.375673e-10
2.1204868e-08
-1.932353e-09
6.5801255e-08
-4.8441533e-09
1.1732513e-07
-9.5137851e-09
1.7200188e-07
-1.6152959e-08
2.255137e-07
-2.4701108e-08
2.7411709e-07
-3.4725449e-08
3.1582751e-07
-4.5449059e-08
3.5101992e-07
-5.5916899e-08
3.8209318e-07
-6.5217579e-08
4.124703e-07
-7.2660909e-08
4.4553704e-07
-7.7862548e-08
4.8394635e-07
-8.0741874e-08
5.2936532e-07
-8.1463586e-08
5.825338e-07
-8.0353992e-08
6.4347464e-07
-7.7815889e-08
7.1174339e-07
-7.4257939e-08
7.8665613e-07
-7.0047017e-08
8.6746771e-07
-6.5484509e-08
9.5349328e-07
-6.0801786e-08
1.0441788e-06
-5.6168029e-08
1.1391335e-06
-5.1702436e-08
1.2381398e-06
-4.7486546e-08
1.341149e-06
-4.3572528e-08
1.4482663e-06
-3.9988903e-08
1.5597154e-06
-3.6742684e-08
1.675771e-06
-3.381956e-08
1.7966354e-06
-3.1183988e-08
1.9222312e-06
-2.8780245e-08
2.0518825e-06
-2.6533292e-08
2.1838523e-06
-2.435119e-08
2.3146965e-06
-2.2131685e-08
2.438401e-06
-1.9771978e-08
2.5452855e-06
-1.7186309e-08
2.6206913e-06
-1.4327489e-08
2.6435081e-06
-1.1210405e-08
2.5846412e-06
-7.9246987e-09
2.4054908e-06
-4.6298123e-09
2.056336e-06
-1.6575946e-09
1.4742196e-06
5.8056228e-07
-4.1654491e-10
2.1621413e-08
-1.8420034e-09
6.7226713e-08
-4.6256404e-09
1.2010877e-07
-9.1076402e-09
1.7648388e-07
-1.5520412e-08
2.3192648e-07
-2.3854041e-08
2.8245071e-07
-3.3750518e-08
3.2572399e-07
-4.4508128e-08
3.6177753e-07
-5.5218167e-08
3.9280322e-07
-6.496963e-08
4.2222176e-07
-7.3028333e-08
4.5359574e-07
-7.8936397e-08
4.8985441e-07
-8.2529718e-08
5.3295864e-07
-8.389782e-08
5.8390191e-07
-8.3313165e-08
6.4288999e-07
-8.1151753e-08
7.0958198e-07
-7.7821072e-08
7.8332543e-07
-7.3705548e-08
8.6335219e-07
-6.9133968e-08
9.489217e-07
-6.4367035e-08
1.0394118e-06
-5.9599724e-08
1.1343662e-06
-5.497149e-08
1.2335115e-06
-5.0577793e-08
1.3367553e-06
-4.6480114e-08
1.4441686e-06
-4.2712527e-08
1.5559478e-06
-3.9285086e-08
1.6723436e-06
-3.6184876e-08
1.7935352e-06
-3.3376835e-08
1.9194231e-06
-3.0804258e-08
2.04931e-06
-2.8390672e-08
2.1814387e-06
-2.6041872e-08
2.3123478e-06
-2.3652844e-08
2.4360119e-06
-2.1118184e-08
2.5427508e-06
-1.8348467e-08
2.6179217e-06
-1.5293345e-08
2.6404529e-06
-1.1963009e-08
2.5813109e-06
-8.4431335e-09
2.401971e-06
-4.9037371e-09
2.0527965e-06
-1.7292828e-09
1.4710452e-06
5.7883301e-07
-3.9788531e-10
2.2019299e-08
-1.7614609e-09
6.8590287e-08
-4.4297204e-09
1.2277703e-07
-8.7402944e-09
1.8079446e-07
-1.4940659e-08
2.3812684e-07
-2.306205e-08
2.905721e-07
-3.2811084e-08
3.3547302e-07
-4.3555702e-08
3.7252215e-07
-5.4436426e-08
4.0368395e-07
-6.4553482e-08
4.3233882e-07
-7.3143836e-08
4.6218609e-07
-7.969075e-08
4.9640134e-07
-8.3957001e-08
5.3722489e-07
-8.5960462e-08
5.8590537e-07
-8.5916426e-08
6.4284595e-07
-8.4166023e-08
7.0783158e-07
-8.1105813e-08
7.8026522e-07
-7.7129332e-08
8.5937569e-07
-7.2587131e-08
9.4437954e-07
-6.7766895e-08
1.0345916e-06
-6.2889377e-08
1.1294887e-06
-5.8115367e-08
1.2287375e-06
-5.3556111e-08
1.3321961e-06
-4.9283722e-08
1.4398963e-06
-4.5338918e-08
1.5520031e-06
-4.1735575e-08
1.6687402e-06
-3.8462745e-08
1.7902624e-06
-3.548577e-08
1.9164462e-06
-3.2747734e-08
2.0465719e-06
-3.0170453e-08
2.1788614e-06
-2.7658064e-08
2.3098353e-06
-2.5102835e-08
2.4334568e-06
-2.2396821e-08
2.5400448e-06
-1.9447948e-08
2.6149728e-06
-1.6201892e-08
2.6372069e-06
-1.2665492e-08
2.5777744e-06
-8.9216397e-09
2.3982272e-06
-5.1530343e-09
2.0490278e-06
-1.7942181e-09
1.4676868e-06
5.7703856e-07
-3.8119082e-10
2.240049e-08
-1.6891374e-09
6.9898231e-08
-4.252954e-09
1.2534085e-07
-8.4065124e-09
1.8494801e-07
-1.4408158e-08
2.4412849e-07
-2.232277e-08
2.9848671e-07
-3.1912851e-08
3.4506311e-07
-4.2610225e-08
3.8321952e-07
-5.3605208e-08
4.1467893e-07
-6.4016635e-08
4.4275024e-07
-7.3064366e-08
4.7123383e-07
-8.0185585e-08
5.0352256e-07
-8.5080105e-08
5.421194e-07
-8.7699521e-08
5.8852479e-07
-8.8201528e-08
6.4334795e-07
-8.6887028e-08
7.0651709e-07
-8.4133649e-08
7.7751183e-07
-8.0335915e-08
8.5557797e-07
-7.5860222e-08
9.3990383e-07
-7.1017606e-08
1.029749e-06
-6.6053864e-08
1.124525e-06
-6.1151684e-08
1.2238353e-06
-5.6439461e-08
1.3274839e-06
-5.2001434e-08
1.4354582e-06
-4.7886078e-08
1.5478877e-06
-4.4111864e-08
1.664966e-06
-4.0670342e-08
1.7868208e-06
-3.7527845e-08
1.9133036e-06
-3.4626972e-08
2.0436711e-06
-3.1888593e-08
2.176123e-06
-2.9215006e-08
2.3071617e-06
-2.6496381e-08
2.4307382e-06
-2.3622117e-08
2.5371705e-06
-2.0497363e-08
2.6118481e-06
-1.7065031e-08
2.6337745e-06
-1.3327944e-08
2.5740375e-06
-9.3687692e-09
2.3942678e-06
-5.383325e-09
2.0450426e-06
-1.85487e-09
1.4641579e-06
5.7518393e-07
-3.6614742e-10
2.2766638e-08
-1.6237717e-09
7.1155855e-08
-4.0925754e-09
1.2780965e-07
-8.1018748e-09
1.8895731e-07
-1.3917782e-08
2.4994439e-07
-2.1632817e-08
3.0620175e-07
-3.1057934e-08
3.5448822e-07
-4.1683169e-08
3.9384476e-07
-5.2747828e-08
4.2574359e-07
-6.3394199e-08
4.5339661e-07
-7.2834164e-08
4.806738e-07
-8.0469426e-08
5.1115782e-07
-8.5946427e-08
5.4759641e-07
-8.9156724e-08
5.9173507e-07
-9.0201948e-08
6.4439318e-07
-8.9339835e-08
7.0565497e-07
-8.6922809e-08
7.7509481e-07
-8.3339243e-08
8.5199442e-07
-7.8965059e-08
9.3552962e-07
-7.4130703e-08
1.0249146e-06
-6.9105131e-08
1.1194994e-06
-6.4093108e-08
1.2188233e-06
-5.9241091e-08
1.3226319e-06
-5.464672e-08
1.4308638e-06
-5.0367456e-08
1.5436084e-06
-4.6427318e-08
1.6610259e-06
-4.2820799e-08
1.7832143e-06
-3.9515607e-08
1.9099985e-06
-3.6454444e-08
2.0406099e-06
-3.3557111e-08
2.1732257e-06
-3.0724347e-08
2.304329e-06
-2.7844374e-08
2.4278582e-06
-2.4804152e-08
2.5341303e-06
-2.150651e-08
2.6085504e-06
-1.7891184e-08
2.6301592e-06
-1.3958343e-08
2.5701047e-06
-9.7903884e-09
2.3900998e-06
-5.5994384e-09
2.0408516e-06
-1.9115024e-09
1.4604701e-06
5.7327265e-07
-3.5250692e-10
2.3119146e-08
-1.5643572e-09
7.2367704e-08
-3.9463156e-09
1.3019161e-07
-7.8226748e-09
1.9283368e-07
-1.3464943e-08
2.5558666e-07
-2.0988475e-08
3.1372528e-07
-3.0246328e-08
3.6374608e-07
-4.0781463e-08
4.0437989e-07
-5.1880515e-08
4.3684265e-07
-6.2712329e-08
4.6422842e-07
-7.2487669e-08
4.9044914e-07
-8.0581612e-08
5.1925177e-07
-8.6595895e-08
5.5361068e-07
-9.0368392e-08
5.9550759e-07
-9.1947685e-08
6.4597247e-07
-9.1547096e-08
7.0525438e-07
-8.9489497e-08
7.7303722e-07
-8.615092e-08
8.4865584e-07
-8.191076e-08
9.3128946e-07
-7.7114491e-08
1.0201183e-06
-7.2051741e-08
1.1144367e-06
-6.6948714e-08
1.2137203e-06
-6.1970685e-08
1.3176538e-06
-5.7229692e-08
1.4261228e-06
-5.2793301e-08
1.5391721e-06
-4.8692e-08
1.6569246e-06
-4.4924083e-08
1.7794464e-06
-4.1458938e-08
1.9065333e-06
-3.8239518e-08
2.0373905e-06
-3.5185043e-08
2.1701712e-06
-3.2194793e-08
2.3013387e-06
-2.9155169e-08
2.4248185e-06
-2.5950933e-08
2.5309262e-06
-2.2482511e-08
2.6050819e-06
-1.868697e-08
2.6263637e-06
-1.4562132e-08
2.5659797e-06
-1.0191449e-08
2.3857293e-06
-5.8033732e-09
2.0364635e-06
-1.9652831e-09
1.4566321e-06
5.7130727e-07
-3.4007276e-10
2.3459219e-08
-1.5100754e-09
7.3537706e-08
-3.8123096e-09
1.3249384e-07
-7.5657863e-09
1.9658715e-07
-1.3045586e-08
2.6106646e-07
-2.0386013e-08
3.2106571e-07
-2.9476848e-08
3.7283691e-07
-3.9909073e-08
4.1481211e-07
-5.1014578e-08
4.4794816e-07
-6.1990525e-08
4.7520437e-07
-7.2051816e-08
5.0051043e-07
-8.0554159e-08
5.2775412e-07
-8.7062099e-08
5.6011861e-07
-9.1366225e-08
5.9981172e-07
-9.3465643e-08
6.4807188e-07
-9.3529598e-08
7.0531835e-07
-9.1848533e-08
7.7135614e-07
-8.8781092e-08
8.4558841e-07
-8.4704645e-08
9.2721303e-07
-7.9975048e-08
1.0153887e-06
-7.4899676e-08
1.1093613e-06
-6.972509e-08
1.2085457e-06
-6.4635333e-08
1.3125641e-06
-5.9757833e-08
1.4212454e-06
-5.5171456e-08
1.5345856e-06
-5.0913904e-08
1.6526671e-06
-4.6987995e-08
1.7755205e-06
-4.3365368e-08
1.9029107e-06
-3.9989593e-08
2.0340147e-06
-3.6779522e-08
2.1669611e-06
-3.3633139e-08
2.2981923e-06
-3.0435186e-08
2.4216206e-06
-2.706839e-08
2.5275594e-06
-2.3430985e-08
2.6014444e-06
-1.9457352e-08
2.6223901e-06
-1.5143578e-08
2.5616659e-06
-1.0575456e-08
2.3811612e-06
-5.99793e-09
2.031886e-06
-2.0169731e-09
1.4526512e-06
5.692902e-07
-3.2868167e-10
2.37879e-08
-1.4602525e-09
7.4669277e-08
-3.689011e-09
1.347226e-07
-7.3285592e-09
2.002267e-07
-1.2656159e-08
2.6639405e-07
-1.9821887e-08
3.2823144e-07
-2.8747646e-08
3.8176267e-07
-3.9068013e-08
4.2513248e-07
-5.0157814e-08
4.5903795e-07
-6.1243412e-08
4.8628997e-07
-7.1547769e-08
5.1081478e-07
-8.0413114e-08
5.3661947e-07
-8.7373394e-08
5.6707888e-07
-9.2177798e-08
6.0461613e-07
-9.4779993e-08
6.5067407e-07
-9.5306532e-08
7.0584488e-07
-9.4013702e-08
7.7006332e-07
-9.1239044e-08
8.4281374e-07
-8.7352964e-08
9.2332695e-07
-8.2717038e-08
1.0107528e-06
-7.7653268e-08
1.1042976e-06
-7.2426722e-08
1.2033191e-06
-6.7240178e-08
1.3073775e-06
-6.2236897e-08
1.4162421e-06
-5.7507774e-08
1.5298565e-06
-5.3099062e-08
1.6482584e-06
-4.9018592e-08
1.7714401e-06
-4.5240854e-08
1.8991329e-06
-4.1710549e-08
2.0304844e-06
-3.8346107e-08
2.1635967e-06
-3.5044748e-08
2.2948909e-06
-3.168944e-08
2.4182653e-06
-2.8161364e-08
2.5240313e-06
-2.4356087e-08
2.5976392e-06
-2.0206213e-08
2.6182403e-06
-1.570612e-08
2.5571657e-06
-1.0944864e-08
2.3764001e-06
-6.1845323e-09
2.0271254e-06
-2.0669411e-09
1.4485335e-06
5.6722339e-07
-3.1819879e-10
2.4106099e-08
-1.4143318e-09
7.576541e-08
-3.5751303e-09
1.368834e-07
-7.1087505e-09
2.0376032e-07
-1.2293557e-08
2.7157886e-07
-1.9292795e-08
3.3523068e-07
-2.805657e-08
3.9052644e-07
-3.8259039e-08
4.3533495e-07
-4.9315549e-08
4.7009447e-07
-6.0481965e-08
4.9745639e-07
-7.0992185e-08
5.2132501e-07
-8.0179765e-08
5.4580705e-07
-8.7553664e-08
5.7445279e-07
-9.2827105e-08
6.0988957e-07
-9.5912457e-08
6.5375941e-07
-9.6895512e-08
7.0682795e-07
-9.5998025e-08
7.6916583e-07
-9.353346e-08
8.4034917e-07
-8.9861162e-08
9.1965467e-07
-8.5344171e-08
1.0062358e-06
-8.0315524e-08
1.0992689e-06
-7.5056892e-08
1.1980605e-06
-6.978885e-08
1.3021095e-06
-6.467091e-08
1.4111241e-06
-5.9806903e-08
1.5249925e-06
-5.5252209e-08
1.6437037e-06
-5.102075e-08
1.7672086e-06
-4.7090215e-08
1.8952024e-06
-4.3406933e-08
2.026801e-06
-3.9889332e-08
2.1600791e-06
-3.6433745e-08
2.2914354e-06
-3.292207e-08
2.4147536e-06
-2.9233322e-08
2.5203426e-06
-2.5261382e-08
2.5936673e-06
-2.0936686e-08
2.6139156e-06
-1.6252434e-08
2.5524815e-06
-1.1302114e-08
2.3714497e-06
-6.3643584e-09
2.0221876e-06
-2.1149833e-09
1.4442843e-06
5.6510833e-07
-3.0851482e-10
2.4414614e-08
-1.3718462e-09
7.6828743e-08
-3.4695754e-09
1.3898113e-07
-6.9044373e-09
2.0719518e-07
-1.1955071e-08
2.766295e-07
-1.879572e-08
3.4207133e-07
-2.7401328e-08
3.9913205e-07
-3.7482051e-08
4.4541568e-07
-4.8491357e-08
4.8110378e-07
-5.9714423e-08
5.0867945e-07
-7.0398234e-08
5.3200882e-07
-7.9871529e-08
5.5528035e-07
-8.7623115e-08
5.8220437e-07
-9.3335059e-08
6.1560152e-07
-9.6882494e-08
6.5730685e-07
-9.8312961e-08
7.0825841e-07
-9.7813829e-08
7.686667e-07
-9.5672687e-08
8.3820804e-07
-9.2234479e-08
9.1621643e-07
-8.7859545e-08
1.0018609e-06
-8.2888678e-08
1.094298e-06
-7.7617644e-08
1.1927894e-06
-7.2283804e-08
1.2967757e-06
-6.7062909e-08
1.4059032e-06
-6.2072168e-08
1.5200018e-06
-5.7377049e-08
1.6390086e-06
-5.2998169e-08
1.7628297e-06
-4.8917318e-08
1.8911215e-06
-4.5082441e-08
2.0229662e-06
-4.1412766e-08
2.1564094e-06
-3.7803782e-08
2.2878265e-06
-3.4136164e-08
2.4110859e-06
-3.0287425e-08
2.5164938e-06
-2.6149598e-08
2.5895294e-06
-2.1651043e-08
2.6094172e-06
-1.6784679e-08
2.5476151e-06
-1.1648563e-08
2.3663136e-06
-6.5381379e-09
2.0170772e-06
-2.161743e-09
1.439908e-06
5.629465e-07
-2.9953528e-10
2.4714149e-08
-1.3324063e-09
7.7861615e-08
-3.3714207e-09
1.4102014e-07
-6.7139743e-09
2.1053774e-07
-1.1638322e-08
2.8155384e-07
-1.8327923e-08
3.4876093e-07
-2.6779647e-08
4.0758378e-07
-3.673642e-08
4.5537245e-07
-4.768753e-08
4.9205488e-07
-5.8946964e-08
5.1993889e-07
-6.9776343e-08
5.4283819e-07
-7.9502703e-08
5.6500672e-07
-8.7598785e-08
5.9030044e-07
-9.3719822e-08
6.2172256e-07
-9.7707574e-08
6.6129459e-07
-9.9573886e-08
7.1012475e-07
-9.9472762e-08
7.6856557e-07
-9.7664836e-08
8.3640011e-07
-9.4477765e-08
9.1302938e-07
-9.0266023e-08
9.9764913e-07
-8.53744e-08
1.0894064e-06
-8.011038e-08
1.1875254e-06
-7.4726726e-08
1.291392e-06
-6.9414947e-08
1.4005914e-06
-6.4306115e-08
1.5148929e-06
-5.9476412e-08
1.6341789e-06
-5.4953939e-08
1.7583072e-06
-5.0725016e-08
1.8868927e-06
-4.6740274e-08
2.0189814e-06
-4.2919251e-08
2.1525884e-06
-3.915753e-08
2.2840647e-06
-3.5334454e-08
2.4072629e-06
-3.1326138e-08
2.5124855e-06
-2.7022842e-08
2.585226e-06
-2.2351453e-08
2.6047458e-06
-1.7304555e-08
2.5425683e-06
-1.1985657e-08
2.3609946e-06
-6.7070322e-09
2.0117986e-06
-2.2071104e-09
1.4354083e-06
5.6073911e-07
-2.9118259e-10
2.5005332e-08
-1.2956752e-09
7.8866107e-08
-3.2798736e-09
1.4300434e-07
-6.5359432e-09
2.1379381e-07
-1.1341236e-08
2.8635914e-07
-1.7886929e-08
3.5530662e-07
-2.6189316e-08
4.1588617e-07
-3.6021197e-08
4.6520433e-07
-4.6905455e-08
5.0293914e-07
-5.818422e-08
5.3121765e-07
-6.9134797e-08
5.5378877e-07
-7.9085072e-08
5.7495699e-07
-8.7495121e-08
5.9871048e-07
-9.3997183e-08
6.2822462e-07
-9.8403204e-08
6.6570062e-07
-1.0069218e-07
7.1241371e-07
-1.0098588e-07
7.6885928e-07
-9.9517658e-08
8.3493186e-07
-9.6595945e-08
9.1010768e-07
-9.2566113e-08
9.9361931e-07
-8.7774027e-08
1.0846143e-06
-8.2535955e-08
1.1822874e-06
-7.7118545e-08
1.2859746e-06
-7.1728321e-08
1.3952012e-06
-6.6510459e-08
1.5096751e-06
-6.1552408e-08
1.6292208e-06
-5.6890354e-08
1.7536452e-06
-5.251601e-08
1.8825183e-06
-4.8382697e-08
2.0148481e-06
-4.4411343e-08
2.1486171e-06
-4.0497264e-08
2.2801506e-06
-3.6519064e-08
2.4032847e-06
-3.2351432e-08
2.5083179e-06
-2.7883054e-08
2.5807576e-06
-2.3039323e-08
2.5999022e-06
-1.7813479e-08
2.5373424e-06
-1.2314293e-08
2.3554954e-06
-6.8712636e-09
2.0063555e-06
-2.2517981e-09
1.4307886e-06
5.5848749e-07
-2.8338904e-10
2.5288721e-08
-1.2613686e-09
7.9844086e-08
-3.1942531e-09
1.4493723e-07
-6.3691082e-09
2.1696866e-07
-1.1061985e-08
2.9105202e-07
-1.7470505e-08
3.6171514e-07
-2.5628226e-08
4.2404389e-07
-3.5335216e-08
4.7491132e-07
-4.6145867e-08
5.1374979e-07
-5.7429618e-08
5.4250141e-07
-6.8480185e-08
5.6483933e-07
-7.8628335e-08
5.8510513e-07
-8.7324362e-08
6.0740652e-07
-9.4180907e-08
6.3508115e-07
-9.8983367e-08
6.7050309e-07
-1.0168051e-07
7.1511086e-07
-1.0236364e-07
7.695424e-07
-1.0123879e-07
8.33807e-07
-9.8593806e-08
9.0746272e-07
-9.4762497e-08
9.89788e-07
-9.0088656e-08
1.0799405e-06
-8.4894915e-08
1.1770936e-06
-7.9459726e-08
1.2805394e-06
-7.4003862e-08
1.3897454e-06
-6.8686414e-08
1.5043576e-06
-6.360652e-08
1.6241409e-06
-5.8809178e-08
1.7488479e-06
-5.429206e-08
1.8780012e-06
-5.0011839e-08
2.0105678e-06
-4.5890961e-08
2.1444962e-06
-4.1824958e-08
2.2760846e-06
-3.7691775e-08
2.3991515e-06
-3.3364944e-08
2.5039911e-06
-2.8731679e-08
2.5761243e-06
-2.3716312e-08
2.5948869e-06
-1.83126e-08
2.5319387e-06
-1.2635678e-08
2.3498185e-06
-7.0314983e-09
2.0007514e-06
-2.2949508e-09
1.426052e-06
5.5619268e-07
-2.7609716e-10
2.5564818e-08
-1.2292388e-09
8.0797227e-08
-3.1139765e-09
1.4682197e-07
-6.2123979e-09
2.2006708e-07
-1.0798953e-08
2.9563857e-07
-1.7076649e-08
3.6799283e-07
-2.509439e-08
4.3206163e-07
-3.4677211e-08
4.8449414e-07
-4.540902e-08
5.244816e-07
-5.6685683e-08
5.5377807e-07
-6.7817749e-08
5.759714e-07
-7.8140492e-08
5.9542786e-07
-8.7096928e-08
6.1636296e-07
-9.4282935e-08
6.4226717e-07
-9.946043e-08
6.7568058e-07
-1.0255057e-07
7.1820099e-07
-1.0361585e-07
7.7060769e-07
-1.0283558e-07
8.3302674e-07
-1.004762e-07
9.0510332e-07
-9.6857751e-08
9.8616956e-07
-9.2319415e-08
1.0754021e-06
-8.7187514e-08
1.1719617e-06
-8.1750378e-08
1.2751022e-06
-7.6241868e-08
1.3842369e-06
-7.0834641e-08
1.4989504e-06
-6.5639839e-08
1.6189461e-06
-6.0711838e-08
1.7439199e-06
-5.6054752e-08
1.8733441e-06
-5.1629198e-08
2.0061423e-06
-4.7359665e-08
2.1402267e-06
-4.314211e-08
2.2718671e-06
-3.8854104e-08
2.3948634e-06
-3.4368061e-08
2.4995051e-06
-2.9569935e-08
2.5713262e-06
-2.4383342e-08
2.5897002e-06
-1.8802863e-08
2.5263582e-06
-1.2950443e-08
2.343966e-06
-7.1879981e-09
1.9949891e-06
-2.3374895e-09
1.4212009e-06
5.5385546e-07
-2.6925622e-10
2.5834075e-08
-1.1990746e-09
8.1727046e-08
-3.0385296e-09
1.4866142e-07
-6.0648796e-09
2.2309343e-07
-1.0550723e-08
3.0012442e-07
-1.670355e-08
3.7414566e-07
-2.4585974e-08
4.3994405e-07
-3.4045877e-08
4.9395404e-07
-4.4694858e-08
5.3513059e-07
-5.5954249e-08
5.6503746e-07
-6.7151678e-08
5.8716884e-07
-7.7628201e-08
6.0590438e-07
-8.682167e-08
6.2555643e-07
-9.4313722e-08
6.4975923e-07
-9.9845474e-08
6.8121233e-07
-1.0331294e-07
7.2166847e-07
-1.0475176e-07
7.7204648e-07
-1.0431523e-07
8.3259021e-07
-1.0224788e-07
9.0303597e-07
-9.8854554e-08
9.8277622e-07
-9.4467406e-08
1.071015e-06
-8.9413988e-08
1.1669083e-06
-8.3990349e-08
1.2696786e-06
-7.8442345e-08
1.3786889e-06
-7.2955479e-08
1.4934635e-06
-6.765302e-08
1.6136437e-06
-6.259925e-08