/*--------------------------------*- C++ -*----------------------------------*\
| =========                 |                                                 |
| \\      /  F ield         | OpenFOAM: The Open Source CFD Toolbox           |
|  \\    /   O peration     | Version:  3.0.1                                 |
|   \\  /    A nd           | Web:      www.OpenFOAM.org                      |
|    \\/     M anipulation  |                                                 |
\*---------------------------------------------------------------------------*/
FoamFile
{
    version     2.0;
    format      ascii;
    class       volScalarField;
    location    "2417";
    object      Qr;
}
// * * * * * * * * * * * * * * * * * * * * * * * * * * * * * * * * * * * * * //

dimensions      [1 0 -3 0 0 0 0];

internalField   uniform 0;

boundaryField
{
    LeftWedge
    {
        type            wedge;
    }
    RightWedge
    {
        type            wedge;
    }
    Inlet
    {
        type            calculated;
        value           nonuniform List<scalar> 
40
(
67.959912
67.959912
67.959912
67.959912
67.959912
67.959912
67.959912
67.959912
67.959912
67.959912
67.959912
67.959912
67.959912
67.959912
67.959912
67.959912
67.959912
67.959912
67.959912
67.959912
67.959912
67.959912
67.959912
67.959912
67.959912
67.959912
67.959912
67.959912
67.959912
67.959912
67.959912
67.959912
67.959912
67.959912
67.959912
67.959912
67.959912
67.959912
67.959912
67.959912
)
;
    }
    Outlet
    {
        type            calculated;
        value           nonuniform List<scalar> 
40
(
-2662.7133
-2206.1794
-1822.4704
-1495.3381
-1214.6657
-973.9849
-768.82439
-595.68009
-451.39763
-332.91157
-237.12198
-161.11777
-101.96482
-56.635801
-22.414723
3.0611159
21.796657
35.39078
45.145259
52.094111
57.007861
60.458949
62.867857
64.539825
65.694129
66.486889
67.028439
67.396269
67.644524
67.810871
67.921411
67.994161
68.041505
68.071903
68.091086
68.102888
68.109833
68.11356
68.115166
68.115513
)
;
    }
    Outterwall
    {
        type            calculated;
        value           nonuniform List<scalar> 
100
(
67.961399
67.963117
67.964819
67.966513
67.968202
67.969889
67.971574
67.973258
67.97494
67.976623
67.978305
67.979986
67.981668
67.983348
67.985029
67.98671
67.98839
67.99007
67.99175
67.99343
67.99511
67.996789
67.998469
68.000148
68.001828
68.003507
68.005186
68.006865
68.008544
68.010222
68.011901
68.01358
68.015258
68.016937
68.018615
68.020293
68.021971
68.023649
68.025326
68.027004
68.028681
68.030358
68.032035
68.033711
68.035387
68.037063
68.038738
68.040412
68.042086
68.043759
68.04543
68.047101
68.04877
68.050438
68.052104
68.053768
68.05543
68.057089
68.058746
68.060399
68.062049
68.063695
68.065336
68.066973
68.068604
68.070229
68.071848
68.07346
68.075064
68.076659
68.078246
68.079822
68.081388
68.082942
68.084484
68.086012
68.087526
68.089025
68.090508
68.091973
68.09342
68.094847
68.096253
68.097638
68.098999
68.100336
68.101647
68.10293
68.104186
68.105411
68.106605
68.107766
68.108892
68.109983
68.111036
68.11205
68.113022
68.113948
68.114811
68.115513
)
;
    }
    Innerwall
    {
        type            calculated;
        value           nonuniform List<scalar> 
100
(
-1562.7693
-1912.9795
-2062.4381
-2151.0461
-2212.3563
-2258.4198
-2294.9033
-2324.8668
-2350.1382
-2371.8895
-2390.9133
-2407.7685
-2422.863
-2436.5024
-2448.9216
-2460.3044
-2470.7971
-2480.5181
-2489.5643
-2498.0159
-2505.9402
-2513.3938
-2520.4252
-2527.0757
-2533.3813
-2539.373
-2545.0782
-2550.5207
-2555.7218
-2560.7002
-2565.4728
-2570.0543
-2574.4584
-2578.6971
-2582.7813
-2586.7212
-2590.5255
-2594.2027
-2597.7602
-2601.205
-2604.5434
-2607.7812
-2610.9238
-2613.9763
-2616.9431
-2619.8286
-2622.6368
-2625.3713
-2628.0356
-2630.633
-2633.1664
-2635.6386
-2638.0523
-2640.41
-2642.714
-2644.9664
-2647.1694
-2649.325
-2651.4348
-2653.5007
-2655.5243
-2657.5072
-2659.4509
-2661.3566
-2663.2259
-2665.0598
-2666.8597
-2668.6267
-2670.3617
-2672.066
-2673.7404
-2675.386
-2677.0035
-2678.594
-2680.1581
-2681.6967
-2683.2105
-2684.7002
-2686.1666
-2687.6103
-2689.0319
-2690.4321
-2691.8114
-2693.1704
-2694.5096
-2695.8296
-2697.1308
-2698.4138
-2699.6791
-2700.927
-2702.1583
-2703.374
-2704.5764
-2705.7721
-2706.9853
-2708.2837
-2709.9099
-2712.1274
-2716.9748
-2722.8191
)
;
    }
}


// ************************************************************************* //
