/*--------------------------------*- C++ -*----------------------------------*\
| =========                 |                                                 |
| \\      /  F ield         | OpenFOAM: The Open Source CFD Toolbox           |
|  \\    /   O peration     | Version:  4.0                                   |
|   \\  /    A nd           | Web:      www.OpenFOAM.org                      |
|    \\/     M anipulation  |                                                 |
\*---------------------------------------------------------------------------*/
FoamFile
{
    version     2.0;
    format      ascii;
    class       volScalarField;
    location    "2000";
    object      Qr;
}
// * * * * * * * * * * * * * * * * * * * * * * * * * * * * * * * * * * * * * //

dimensions      [1 0 -3 0 0 0 0];

internalField   uniform 0;

boundaryField
{
    LeftWedge
    {
        type            wedge;
    }
    RightWedge
    {
        type            wedge;
    }
    Inlet
    {
        type            calculated;
        value           nonuniform List<scalar> 
50
(
69.612188
69.612196
69.612212
69.612235
69.612265
69.612298
69.612335
69.612371
69.612406
69.612437
69.612462
69.612482
69.612495
69.612503
69.612505
69.612504
69.6125
69.612495
69.612489
69.612483
69.612479
69.612475
69.612472
69.61247
69.612469
69.612468
69.612467
69.612467
69.612467
69.612466
69.612466
69.612466
69.612466
69.612466
69.612466
69.612465
69.612465
69.612465
69.612465
69.612465
69.612465
69.612465
69.612465
69.612464
69.612464
69.612464
69.612464
69.612464
69.612464
69.612464
)
;
    }
    Outlet
    {
        type            calculated;
        value           nonuniform List<scalar> 
50
(
-2903.9777
-2815.0842
-2721.615
-2623.6504
-2521.312
-2414.7636
-2304.2114
-2189.9045
-2072.1387
-1951.2607
-1827.6769
-1701.8632
-1574.377
-1445.868
-1317.0859
-1188.883
-1062.2111
-938.11635
-817.7375
-702.24547
-592.81342
-490.57295
-396.55606
-311.62565
-236.40204
-171.19785
-115.97594
-70.343065
-33.584028
-4.7285554
17.377856
33.732954
45.584138
53.962168
59.731655
63.596439
66.109263
67.689711
68.646481
69.200057
69.503274
69.658588
69.731869
69.763164
69.775026
69.778937
69.780036
69.780295
69.780346
69.780354
)
;
    }
    Outterwall
    {
        type            calculated;
        value           nonuniform List<scalar> 
100
(
69.614135
69.615816
69.617496
69.619177
69.620857
69.622537
69.624217
69.625897
69.627577
69.629257
69.630937
69.632616
69.634296
69.635976
69.637655
69.639335
69.641014
69.642694
69.644373
69.646052
69.647732
69.649411
69.651091
69.65277
69.654449
69.656128
69.657808
69.659487
69.661166
69.662845
69.664525
69.666204
69.667883
69.669562
69.671241
69.67292
69.6746
69.676279
69.677958
69.679637
69.681316
69.682995
69.684674
69.686353
69.688032
69.689711
69.69139
69.693069
69.694748
69.696427
69.698106
69.699785
69.701464
69.703143
69.704822
69.706501
69.708179
69.709858
69.711537
69.713216
69.714895
69.716574
69.718252
69.719931
69.72161
69.723289
69.724968
69.726646
69.728325
69.730004
69.731683
69.733361
69.73504
69.736719
69.738398
69.740076
69.741755
69.743434
69.745112
69.746791
69.74847
69.750148
69.751827
69.753505
69.755184
69.756863
69.758541
69.76022
69.761898
69.763577
69.765255
69.766934
69.768612
69.770291
69.77197
69.773648
69.775327
69.777007
69.778686
69.780354
)
;
    }
    fluid_to_cencil
    {
        type            calculated;
        value           nonuniform List<scalar> 
100
(
-1579.6005
-1955.7156
-2107.9455
-2191.3238
-2247.224
-2288.8422
-2321.6793
-2348.637
-2371.3987
-2391.0246
-2408.2251
-2423.4992
-2437.2094
-2449.6267
-2460.9588
-2471.3682
-2480.9843
-2489.9116
-2498.2359
-2506.028
-2513.3475
-2520.2446
-2526.7622
-2532.937
-2538.8008
-2544.3814
-2549.703
-2554.787
-2559.6521
-2564.3153
-2568.7913
-2573.0937
-2577.2345
-2581.2246
-2585.0737
-2588.7908
-2592.384
-2595.8608
-2599.2279
-2602.4915
-2605.6575
-2608.731
-2611.7169
-2614.6197
-2617.4436
-2620.1925
-2622.87
-2625.4795
-2628.0239
-2630.5064
-2632.9296
-2635.2961
-2637.6084
-2639.8685
-2642.0788
-2644.2411
-2646.3575
-2648.4295
-2650.4591
-2652.4476
-2654.3967
-2656.3077
-2658.1821
-2660.021
-2661.8258
-2663.5975
-2665.3373
-2667.0462
-2668.7252
-2670.3753
-2671.9974
-2673.5923
-2675.161
-2676.704
-2678.2223
-2679.7166
-2681.1875
-2682.6358
-2684.062
-2685.4668
-2686.8507
-2688.2144
-2689.5583
-2690.883
-2692.189
-2693.4768
-2694.7469
-2695.9997
-2697.2356
-2698.4551
-2699.6588
-2700.8469
-2702.0203
-2703.1797
-2704.3266
-2705.4643
-2706.6002
-2707.8577
-2710.1944
-2721.3688
)
;
    }
}


// ************************************************************************* //
