/*--------------------------------*- C++ -*----------------------------------*\
| =========                 |                                                 |
| \\      /  F ield         | OpenFOAM: The Open Source CFD Toolbox           |
|  \\    /   O peration     | Version:  4.0                                   |
|   \\  /    A nd           | Web:      www.OpenFOAM.org                      |
|    \\/     M anipulation  |                                                 |
\*---------------------------------------------------------------------------*/
FoamFile
{
    version     2.0;
    format      ascii;
    class       volScalarField;
    location    "2000";
    object      rho;
}
// * * * * * * * * * * * * * * * * * * * * * * * * * * * * * * * * * * * * * //

dimensions      [1 -3 0 0 0 0 0];

internalField   nonuniform List<scalar> 
5000
(
0.91179423
0.92631033
0.94224347
0.95955396
0.97813777
0.9978148
1.0183216
1.0393116
1.0603657
1.0810153
1.1007764
1.1191916
1.135873
1.1505384
1.1630336
1.1733374
1.1815496
1.1878654
1.1925436
1.195873
1.1981431
1.1996206
1.2005351
1.2010707
1.2013661
1.2015188
1.2015922
1.2016248
1.2016382
1.2016432
1.2016449
1.2016454
1.2016455
1.2016456
1.2016456
1.2016456
1.2016456
1.2016456
1.2016456
1.2016456
1.2016456
1.2016456
1.2016456
1.2016456
1.2016456
1.2016456
1.2016456
1.2016456
1.2016456
1.2016456
0.87791809
0.88861954
0.90040191
0.91335168
0.92754584
0.94304179
0.95986397
0.97798737
0.99731899
1.0176797
1.0387903
1.0602662
1.081627
1.1023234
1.1217843
1.1394781
1.1549089
1.1678041
1.1781085
1.1859637
1.1916647
1.195596
1.1981656
1.1997532
1.2006771
1.2011813
1.201438
1.2015592
1.201612
1.201633
1.2016406
1.2016431
1.2016438
1.201644
1.2016441
1.2016441
1.2016441
1.2016441
1.2016441
1.2016441
1.2016441
1.2016441
1.2016441
1.2016441
1.2016441
1.2016441
1.2016441
1.2016441
1.2016441
1.2016441
0.86580198
0.87516152
0.88544264
0.89672988
0.90910941
0.92266467
0.93746946
0.9535775
0.97100792
0.98972627
1.0096221
1.0304856
1.051989
1.07368
1.0949958
1.1153052
1.1339761
1.1504669
1.164409
1.1756582
1.184299
1.1906044
1.1949663
1.1978197
1.1995794
1.2005984
1.2011498
1.2014272
1.2015559
1.2016107
1.201632
1.2016394
1.2016417
1.2016424
1.2016425
1.2016426
1.2016426
1.2016426
1.2016426
1.2016426
1.2016426
1.2016426
1.2016426
1.2016426
1.2016426
1.2016426
1.2016426
1.2016426
1.2016426
1.2016426
0.85949454
0.86816244
0.87766781
0.88808794
0.89950381
0.91199771
0.92564912
0.94052815
0.95668557
0.9741387
0.99285265
1.0127175
1.033524
1.0549432
1.0765183
1.0976793
1.1177873
1.1362094
1.1524106
1.166037
1.1769649
1.1853012
1.1913373
1.1954762
1.1981563
1.1997893
1.2007213
1.2012168
1.2014606
1.2015708
1.2016162
1.2016332
1.2016388
1.2016405
1.201641
1.2016411
1.2016411
1.2016411
1.2016411
1.2016411
1.2016411
1.2016411
1.2016411
1.2016411
1.2016411
1.2016411
1.2016411
1.2016411
1.2016411
1.2016411
0.85538647
0.86360672
0.87261046
0.88246938
0.89325936
0.90505891
0.91794642
0.93199546
0.94726754
0.96380136
0.98159774
1.0006001
1.0206712
1.0415699
1.0629328
1.0842723
1.1049982
1.1244726
1.1420905
1.1573722
1.1700374
1.1800394
1.187549
1.1928978
1.1965027
1.1987942
1.2001623
1.2009252
1.2013202
1.2015085
1.2015906
1.2016231
1.2016346
1.2016383
1.2016393
1.2016395
1.2016396
1.2016396
1.2016396
1.2016396
1.2016396
1.2016396
1.2016396
1.2016396
1.2016396
1.2016396
1.2016396
1.2016396
1.2016396
1.2016396
0.85238797
0.86028295
0.86892264
0.87837445
0.88871011
0.90000451
0.91233369
0.9257713
0.94038291
0.9562175
0.97329511
0.9915902
1.0110109
1.0313756
1.0523919
1.0736447
1.0946034
1.1146581
1.133186
1.1496387
1.1636281
1.1749833
1.1837608
1.1902088
1.1946999
1.1976571
1.1994908
1.2005562
1.2011325
1.2014207
1.2015528
1.2016078
1.2016285
1.2016354
1.2016374
1.2016379
1.2016381
1.2016381
1.2016381
1.2016381
1.2016381
1.2016381
1.2016381
1.2016381
1.2016381
1.2016381
1.2016381
1.2016381
1.2016381
1.2016381
0.85005705
0.85770006
0.86605804
0.87519507
0.8851795
0.89608308
0.90797942
0.92094114
0.93503527
0.95031621
0.96681532
0.98452666
1.0033884
1.0232608
1.0439044
1.0649632
1.0859625
1.1063312
1.1254539
1.1427492
1.1577575
1.1702124
1.1800713
1.1874998
1.1928165
1.1964218
1.19873
1.2001188
1.2008992
1.201306
1.201501
1.2015862
1.2016197
1.2016316
1.2016353
1.2016363
1.2016365
1.2016366
1.2016366
1.2016366
1.2016366
1.2016366
1.2016366
1.2016366
1.2016366
1.2016366
1.2016366
1.2016366
1.2016366
1.2016366
0.84816589
0.85560502
0.8637353
0.87261809
0.88231893
0.89290692
0.90445337
0.91702955
0.93070278
0.94553045
0.96155113
0.97877202
0.99715229
1.0165828
1.0368643
1.0576884
1.0786294
1.0991564
1.1186729
1.1365857
1.1523894
1.1657451
1.1765274
1.1848253
1.1909009
1.1951239
1.1979018
1.1996237
1.2006239
1.2011645
1.2014341
1.2015571
1.2016078
1.2016266
1.2016328
1.2016345
1.201635
1.2016351
1.2016351
1.2016351
1.2016351
1.2016351
1.2016351
1.2016351
1.2016351
1.2016351
1.2016351
1.2016351
1.2016351
1.2016351
0.84658446
0.85385351
0.86179398
0.87046499
0.87992971
0.89025493
0.90150993
0.91376451
0.92708573
0.94153267
0.95714868
0.97395021
0.99191183
1.0109474
1.030889
1.0514669
1.0722975
1.0928879
1.1126658
1.1310384
1.1474718
1.161573
1.1731477
1.1822162
1.1889856
1.1937906
1.197025
1.199082
1.2003115
1.2009975
1.2013519
1.2015198
1.2015921
1.2016201
1.2016297
1.2016326
1.2016334
1.2016336
1.2016336
1.2016336
1.2016336
1.2016336
1.2016336
1.2016336
1.2016336
1.2016336
1.2016336
1.2016336
1.2016336
1.2016336
0.84523198
0.85235586
0.86013445
0.86862494
0.8778885
0.8879899
0.89899656
0.91097689
0.92399737
0.93811803
0.95338548
0.96982294
0.98741662
1.0060982
1.0257248
1.0460584
1.0667513
1.0873457
1.107295
1.126014
1.1429524
1.1576766
1.1699357
1.1796892
1.1870917
1.1924417
1.1961152
1.1985037
1.1999671
1.2008068
1.2012544
1.2014741
1.2015722
1.2016118
1.201626
1.2016305
1.2016317
1.201632
1.2016321
1.2016321
1.2016321
1.2016321
1.2016321
1.2016321
1.2016321
1.2016321
1.2016321
1.2016321
1.2016321
1.2016321
0.84405493
0.8510527
0.85869074
0.8670246
0.87611369
0.886021
0.89681231
0.90855466
0.92131386
0.93515037
0.9501131
0.96623038
0.98349744
1.0018602
1.0211958
1.0412929
1.0618349
1.0823953
1.1024533
1.1214355
1.1387832
1.1540331
1.1668872
1.1772519
1.1852328
1.1910918
1.1951848
1.1978975
1.1995961
1.2005949
1.2011424
1.2014195
1.2015478
1.2016014
1.2016215
1.2016281
1.20163
1.2016305
1.2016306
1.2016306
1.2016306
1.2016306
1.2016306
1.2016306
1.2016306
1.2016306
1.2016306
1.2016306
1.2016306
1.2016306
0.8430161
0.84990273
0.857417
0.86561298
0.87454856
0.88428516
0.89488703
0.90641996
0.918949
0.93253477
0.94722782
0.96306038
0.98003485
0.99810861
1.0171757
1.0370468
1.0574322
1.0779341
1.0980561
1.1172391
1.1349219
1.150619
1.1639941
1.1749066
1.1834167
1.1897509
1.194243
1.1972709
1.1992032
1.2003644
1.2010167
1.2013564
1.2015185
1.2015887
1.201616
1.2016253
1.2016282
1.2016289
1.2016291
1.2016291
1.2016291
1.2016291
1.2016291
1.2016291
1.2016291
1.2016291
1.2016291
1.2016291
1.2016291
1.2016291
0.84208868
0.84887624
0.85628021
0.8643534
0.87315232
0.88273696
0.89317024
0.90451675
0.91684075
0.93020282
0.94465469
0.96023167
0.97694192
0.99475231
1.0135708
1.0332273
1.0534553
1.0738826
1.0940364
1.1133727
1.1313318
1.1474123
1.1612462
1.1726518
1.1816476
1.1884256
1.1932972
1.1966298
1.1987926
1.2001175
1.2008785
1.2012848
1.2014844
1.2015736
1.2016094
1.2016222
1.2016262
1.2016273
1.2016275
1.2016276
1.2016276
1.2016276
1.2016276
1.2016276
1.2016276
1.2016276
1.2016276
1.2016276
1.2016276
1.2016276
0.84125278
0.84795115
0.8552559
0.86321865
0.8718947
0.88134279
0.89162455
0.90280348
0.91494308
0.92810374
0.94233803
0.9576837
0.97415367
0.99172268
1.0103106
1.0297637
1.0498361
1.0701786
1.0903403
1.1097931
1.1279815
1.144393
1.1586334
1.1704849
1.1799276
1.1871207
1.1923525
1.1959792
1.1983681
1.1998568
1.2007289
1.2012052
1.2014453
1.2015558
1.2016016
1.2016186
1.2016241
1.2016256
1.201626
1.2016261
1.2016261
1.2016261
1.2016261
1.2016261
1.2016261
1.2016261
1.2016261
1.2016261
1.2016261
1.2016261
0.84049326
0.84711069
0.85432542
0.86218803
0.87075271
0.88007703
0.8902215
0.90124858
0.91322098
0.92619885
0.94023538
0.95537024
0.9716203
0.988967
1.0073404
1.026601
1.0465211
1.0667723
1.0869243
1.1064648
1.1248445
1.1415432
1.1561456
1.1684019
1.1782571
1.1858389
1.1914129
1.1953228
1.1979329
1.1995844
1.2005691
1.201118
1.2014014
1.2015353
1.2015925
1.2016144
1.2016218
1.2016239
1.2016245
1.2016246
1.2016246
1.2016246
1.2016246
1.2016246
1.2016246
1.2016246
1.2016246
1.2016246
1.2016246
1.2016246
0.83979835
0.84634181
0.85347429
0.86124545
0.86970846
0.87891982
0.888939
0.89982748
0.91164724
0.92445811
0.93831369
0.95325524
0.96930294
0.98644394
1.0046172
1.0236955
1.0434675
1.0636236
1.0837526
1.103358
1.1218977
1.1388472
1.1537733
1.1663986
1.1766356
1.1845821
1.1904813
1.1946637
1.1974894
1.1993021
1.2004002
1.2010238
1.2013527
1.201512
1.2015821
1.2016096
1.2016192
1.2016221
1.2016229
1.2016231
1.2016231
1.2016231
1.2016231
1.2016231
1.2016231
1.2016231
1.2016231
1.2016231
1.2016231
1.2016231
0.83915872
0.84563416
0.85269105
0.86037818
0.86874779
0.87785542
0.88775955
0.89852077
0.91020033
0.9228577
0.93654678
0.95131011
0.96717066
0.98412054
1.0021064
1.021012
1.0406406
1.0606995
1.0807956
1.1004476
1.1191216
1.1362909
1.1515079
1.1644704
1.1750617
1.1833512
1.1895597
1.1940044
1.19704
1.1990116
1.2002233
1.2009231
1.2012995
1.201486
1.2015701
1.2016042
1.2016164
1.2016203
1.2016213
1.2016216
1.2016216
1.2016216
1.2016216
1.2016216
1.2016216
1.2016216
1.2016216
1.2016216
1.2016216
1.2016216
0.83856689
0.84497944
0.85196648
0.85957598
0.86785934
0.8768712
0.88666912
0.89731286
0.90886295
0.92137851
0.9349136
0.94951182
0.96519856
0.98197018
0.9997801
1.018522
1.0380119
1.0579729
1.0780286
1.0977123
1.1164992
1.1338619
1.1493412
1.1626132
1.1735342
1.1821465
1.1886496
1.1933466
1.1965864
1.1987145
1.2000395
1.2008165
1.201242
1.2014573
1.2015567
1.2015981
1.2016134
1.2016183
1.2016197
1.20162
1.2016201
1.2016201
1.2016201
1.2016201
1.2016201
1.2016201
1.2016201
1.2016201
1.2016201
1.2016201
0.83801673
0.84437089
0.85129306
0.85883052
0.86703384
0.87595685
0.88565626
0.89619102
0.90762101
0.92000495
0.93339698
0.9478416
0.96336624
0.97997103
0.99761538
1.0162017
1.0355578
1.0554211
1.0754308
1.0951342
1.1140159
1.1315494
1.1472659
1.1608228
1.1720511
1.1809681
1.187752
1.192692
1.1961302
1.1984119
1.1998496
1.2007045
1.2011804
1.2014258
1.2015417
1.2015912
1.20161
1.2016162
1.201618
1.2016185
1.2016186
1.2016186
1.2016186
1.2016186
1.2016186
1.2016186
1.2016186
1.2016186
1.2016186
1.2016186
0.8375032
0.8438029
0.8506646
0.8581349
0.86626365
0.87510388
0.88471153
0.89514478
0.90646289
0.91872416
0.93198276
0.94628393
0.96165688
0.97810503
0.99559315
1.0140315
1.0332586
1.053025
1.0729842
1.0926975
1.1116587
1.1293435
1.1452755
1.1590951
1.1706108
1.1798157
1.1868676
1.1920415
1.1956726
1.198105
1.1996544
1.2005876
1.2011149
1.2013918
1.2015252
1.2015835
1.2016062
1.201614
1.2016164
1.201617
1.2016171
1.2016171
1.2016171
1.2016171
1.2016171
1.2016171
1.2016171
1.2016171
1.2016171
1.2016171
0.8370221
0.84327081
0.85007593
0.8574834
0.86554239
0.87430522
0.88382707
0.89416542
0.9053789
0.91752542
0.93065914
0.94482587
0.96005639
0.97635705
0.99369741
1.0119949
1.0310975
1.0507682
1.0706739
1.0903889
1.1094167
1.1272358
1.1433638
1.1574266
1.1692114
1.1786888
1.1859967
1.1913961
1.1952146
1.1977947
1.1994547
1.2004663
1.2010459
1.2013552
1.2015072
1.201575
1.2016021
1.2016117
1.2016146
1.2016154
1.2016156
1.2016156
1.2016156
1.2016156
1.2016156
1.2016156
1.2016156
1.2016156
1.2016156
1.2016156
0.83656989
0.84277072
0.84952269
0.85687118
0.86486471
0.8735549
0.88299626
0.89324557
0.90436089
0.91639972
0.92941615
0.94345651
0.95855291
0.97471434
0.99191463
1.0100776
1.0290604
1.0486368
1.0684867
1.0881968
1.10728
1.1252186
1.1415255
1.1558136
1.167851
1.1775868
1.1851396
1.1907563
1.1947571
1.1974819
1.1992512
1.200341
1.2009735
1.2013162
1.2014876
1.2015656
1.2015976
1.2016092
1.2016128
1.2016138
1.2016141
1.2016141
1.2016141
1.2016141
1.2016141
1.2016141
1.2016141
1.2016141
1.2016141
1.2016141
0.83614355
0.84229927
0.84900119
0.85629415
0.86422604
0.87284787
0.88221348
0.89237901
0.90340195
0.9153394
0.92824536
0.94216658
0.95713636
0.97316601
0.99023327
1.0082679
1.0271349
1.0466188
1.0664113
1.0861108
1.1052399
1.123285
1.1397556
1.1542531
1.1665279
1.176509
1.1842963
1.1901228
1.1943006
1.1971672
1.1990443
1.2002122
1.2008981
1.2012749
1.2014665
1.2015554
1.2015927
1.2016065
1.201611
1.2016122
1.2016125
1.2016126
1.2016126
1.2016126
1.2016126
1.2016126
1.2016126
1.2016126
1.2016126
1.2016126
0.83574051
0.84185361
0.84850827
0.85574878
0.8636225
0.8721798
0.88147392
0.89156039
0.90249615
0.9143379
0.92713955
0.94094815
0.95579808
0.97170275
0.98864341
1.0065552
1.0253106
1.0447038
1.0644377
1.084122
1.1032888
1.1214289
1.1380495
1.152742
1.1652404
1.1754547
1.1834668
1.1894959
1.1938458
1.1968512
1.1988348
1.2000803
1.2008197
1.2012313
1.2014439
1.2015444
1.2015873
1.2016036
1.2016091
1.2016106
1.201611
1.2016111
1.2016111
1.2016111
1.2016111
1.2016111
1.2016111
1.2016111
1.2016111
1.2016111
0.83535855
0.84143129
0.8480412
0.85523207
0.86305072
0.87154697
0.88077344
0.89078511
0.90163839
0.91338959
0.92609247
0.93979438
0.95453062
0.97031648
0.98713645
1.0049305
1.0235783
1.0428827
1.0625572
1.0822226
1.1014198
1.1196448
1.1364032
1.1512775
1.1639869
1.1744231
1.1826509
1.1888758
1.1933932
1.1965344
1.1986229
1.1999455
1.2007388
1.2011857
1.2014198
1.2015325
1.2015815
1.2016006
1.2016071
1.201609
1.2016095
1.2016096
1.2016096
1.2016096
1.2016096
1.2016096
1.2016096
1.2016096
1.2016096
1.2016096
0.83499575
0.84103018
0.84759761
0.85474137
0.86250779
0.87094613
0.88010846
0.8900492
0.90082425
0.91248957
0.92509874
0.93869934
0.9533275
0.96900023
0.98570493
1.0033862
1.0219299
1.0411475
1.0607622
1.0804054
1.0996269
1.1179277
1.1348129
1.1498571
1.1627657
1.1734135
1.1818484
1.1882627
1.1929431
1.1962173
1.1984092
1.1998083
1.2006554
1.2011381
1.2013944
1.2015197
1.2015753
1.2015973
1.201605
1.2016074
1.201608
1.2016081
1.2016081
1.2016081
1.2016081
1.2016081
1.2016081
1.2016081
1.2016081
1.2016081
0.83465041
0.8406484
0.84717543
0.85427441
0.86199116
0.87037446
0.87947583
0.88934916
0.90004988
0.91163356
0.92415363
0.93765784
0.95218306
0.96774785
0.98434232
1.0019152
1.0203584
1.0394911
1.059046
1.0786642
1.0979045
1.1162732
1.1332753
1.1484784
1.1615755
1.1724252
1.1810592
1.1876567
1.1924957
1.1959002
1.1981938
1.1996689
1.2005699
1.2010887
1.2013676
1.201506
1.2015685
1.2015938
1.2016029
1.2016057
1.2016064
1.2016066
1.2016066
1.2016066
1.2016066
1.2016066
1.2016066
1.2016066
1.2016066
1.2016066
0.83432107
0.84028432
0.84677286
0.85382917
0.86149862
0.86982949
0.87887281
0.88868195
0.89931189
0.91081783
0.923253
0.93666533
0.95109234
0.96655399
0.98304287
1.0005116
1.0188576
1.0379073
1.0574025
1.0769935
1.0962478
1.1146773
1.1317871
1.1471393
1.1604149
1.1714574
1.180283
1.1870578
1.1920514
1.1955834
1.1979773
1.1995276
1.2004823
1.2010375
1.2013395
1.2014915
1.2015613
1.2015901
1.2016006
1.201604
1.2016049
1.2016051
1.2016051
1.2016051
1.2016051
1.2016051
1.2016051
1.2016051
1.2016051
1.2016051
0.83400641
0.8399365
0.84638829
0.85340387
0.86102818
0.86930903
0.87829697
0.88804488
0.8986073
0.91003906
0.92239322
0.93571781
0.95005095
0.96541388
0.98180148
0.99916991
1.0174219
1.0363906
1.0558262
1.0753882
1.0946524
1.1131361
1.1303456
1.1458376
1.1592825
1.1705094
1.1795195
1.1864662
1.1916102
1.1952672
1.1977598
1.1993846
1.2003928
1.2009846
1.2013102
1.2014762
1.2015536
1.2015861
1.2015983
1.2016022
1.2016033
1.2016036
1.2016036
1.2016036
1.2016036
1.2016036
1.2016036
1.2016036
1.2016036
1.2016036
0.83370529
0.83960366
0.84602032
0.85299696
0.86057811
0.86881115
0.87774616
0.88743557
0.89793346
0.90929433
0.92157105
0.93481173
0.94905501
0.96432332
0.98061364
0.99788548
1.0160464
1.034936
1.0543124
1.0738439
1.0931141
1.1116464
1.128948
1.1445714
1.1581771
1.1695804
1.1787683
1.1858816
1.1911725
1.1949518
1.1975416
1.1992401
1.2003017
1.2009303
1.2012797
1.2014601
1.2015455
1.2015819
1.2015958
1.2016004
1.2016017
1.201602
1.2016021
1.2016021
1.2016021
1.2016021
1.2016021
1.2016021
1.2016021
1.2016021
0.83341668
0.83928466
0.84566766
0.85260702
0.86014686
0.86833413
0.87721848
0.88685189
0.89728802
0.90858103
0.92078361
0.93394391
0.94810105
0.96327855
0.97947533
0.99665401
1.0147266
1.0335391
1.0528568
1.0723564
1.0916295
1.110205
1.127592
1.143339
1.1570975
1.1686699
1.1780293
1.1853042
1.1907382
1.1946374
1.1973229
1.1990943
1.2002091
1.2008745
1.201248
1.2014431
1.2015368
1.2015775
1.2015932
1.2015986
1.2016001
1.2016005
1.2016006
1.2016006
1.2016006
1.2016006
1.2016006
1.2016006
1.2016006
1.2016006
0.83313966
0.83897849
0.84532921
0.85223281
0.85973303
0.86787643
0.87671221
0.88629194
0.89666889
0.90789685
0.92002833
0.93311153
0.94718599
0.96227621
0.97838294
0.99547169
1.0134588
1.0321958
1.0514553
1.070922
1.0901951
1.1088092
1.1262753
1.1421388
1.1560426
1.1677772
1.1773021
1.1847339
1.1903074
1.1943242
1.1971039
1.1989474
1.2001151
1.2008173
1.2012152
1.2014254
1.2015277
1.2015728
1.2015905
1.2015967
1.2015985
1.201599
1.2015991
1.2015991
1.2015991
1.2015991
1.2015991
1.2015991
1.2015991
1.2015991
0.8328734
0.83868423
0.84500395
0.8518732
0.85933539
0.86743667
0.87622583
0.88575404
0.89607417
0.9072397
0.91930292
0.93231207
0.94630705
0.9613133
0.97733324
0.99433509
1.0122392
1.0309025
1.0501045
1.0695374
1.088808
1.1074564
1.1249959
1.1409692
1.1550115
1.1669016
1.1765864
1.1841705
1.1898802
1.1940122
1.1968847
1.1987996
1.2000198
1.2007589
1.2011814
1.201407
1.201518
1.2015678
1.2015877
1.2015948
1.2015969
1.2015975
1.2015976
1.2015976
1.2015976
1.2015976
1.2015976
1.2015976
1.2015976
1.2015976
0.83261717
0.83840107
0.84469097
0.8515272
0.85895282
0.8670136
0.87575796
0.88523666
0.89550218
0.9066077
0.9186053
0.93154323
0.94546174
0.96038709
0.9763233
0.99324113
1.0110646
1.0296561
1.0488012
1.0681996
1.0874653
1.1061442
1.1237519
1.1398288
1.154003
1.1660426
1.1758818
1.183614
1.1894568
1.1937017
1.1966655
1.198651
1.1999233
1.2006994
1.2011466
1.2013878
1.201508
1.2015626
1.2015848
1.2015928
1.2015953
1.2015959
1.2015961
1.2015961
1.2015961
1.2015961
1.2015961
1.2015961
1.2015961
1.2015961
0.83237029
0.83812825
0.84438944
0.85119389
0.85858431
0.86660612
0.87530736
0.8847384
0.89495138
0.90599916
0.9179336
0.93080296
0.94464779
0.95949515
0.97535049
0.99218698
1.0099323
1.0284534
1.0475423
1.0669056
1.0861645
1.1048704
1.1225414
1.1387162
1.1530164
1.1651996
1.1751882
1.1830643
1.1890369
1.1933927
1.1964464
1.1985017
1.1998259
1.2006388
1.2011109
1.2013679
1.2014974
1.201557
1.2015817
1.2015908
1.2015936
1.2015944
1.2015946
1.2015946
1.2015946
1.2015946
1.2015946
1.2015946
1.2015946
1.2015946
0.83213216
0.83786512
0.84409863
0.85087244
0.85822893
0.86621319
0.87487289
0.88425804
0.8944204
0.90541254
0.91728613
0.9300894
0.94386317
0.95863523
0.97441241
0.99117012
1.0088393
1.0272918
1.0463252
1.0656531
1.0849033
1.103633
1.1213628
1.1376302
1.1520506
1.1643721
1.1745052
1.1825213
1.1886208
1.1930853
1.1962276
1.1983518
1.1997275
1.2005771
1.2010742
1.2013473
1.2014864
1.2015513
1.2015785
1.2015887
1.201592
1.2015929
1.2015931
1.2015931
1.2015931
1.2015931
1.2015931
1.2015931
1.2015931
1.2015931
0.83190222
0.83761105
0.84381786
0.8505621
0.85788587
0.86583391
0.87445355
0.88379442
0.89390797
0.90484645
0.91666134
0.92940084
0.94310602
0.95780533
0.97350689
0.99018823
1.0077835
1.0261688
1.0451475
1.0644396
1.0836796
1.1024301
1.1202147
1.1365697
1.151105
1.1635594
1.1738325
1.1819848
1.1882084
1.1927795
1.1960091
1.1982015
1.1996283
1.2005146
1.2010368
1.201326
1.2014749
1.2015452
1.2015752
1.2015865
1.2015903
1.2015913
1.2015916
1.2015916
1.2015916
1.2015916
1.2015916
1.2015916
1.2015916
1.2015916
0.83167998
0.83736549
0.8435465
0.8502622
0.85755437
0.86546743
0.87404838
0.88334652
0.89341294
0.90429962
0.91605784
0.92873574
0.94237464
0.9570036
0.97263194
0.98923919
1.0067625
1.0250822
1.044007
1.063263
1.0824914
1.10126
1.1190955
1.1355335
1.1501787
1.1627612
1.1731699
1.1814548
1.1877996
1.1924755
1.195791
1.1980509
1.1995283
1.2004511
1.2009985
1.2013041
1.201463
1.2015389
1.2015717
1.2015843
1.2015885
1.2015898
1.2015901
1.2015901
1.2015901
1.2015901
1.2015901
1.2015901
1.2015901
1.2015901
0.83146496
0.83712793
0.843284
0.8499721
0.85723372
0.86511299
0.87365655
0.88291339
0.89293428
0.9037709
0.91547434
0.9280927
0.94166749
0.95622835
0.97178574
0.98832107
1.0057743
1.0240298
1.0429014
1.0621213
1.0813367
1.100121
1.118004
1.1345206
1.149271
1.161977
1.172517
1.1809311
1.1873945
1.1921732
1.1955734
1.1978999
1.1994277
1.2003869
1.2009594
1.2012816
1.2014506
1.2015323
1.2015681
1.201582
1.2015868
1.2015882
1.2015885
1.2015886
1.2015886
1.2015886
1.2015886
1.2015886
1.2015886
1.2015886
0.83125676
0.83689791
0.84302985
0.84969124
0.85692331
0.86476987
0.87327728
0.88249417
0.89247102
0.90325922
0.91490968
0.92747043
0.94098315
0.95547805
0.97096663
0.98743209
1.0048172
1.0230098
1.041829
1.0610126
1.080214
1.0990118
1.1169389
1.13353
1.1483812
1.1612062
1.1718737
1.1804135
1.1869931
1.1918727
1.1953563
1.1977488
1.1993264
1.2003219
1.2009197
1.2012585
1.2014379
1.2015254
1.2015643
1.2015797
1.201585
1.2015866
1.201587
1.2015871
1.2015871
1.2015871
1.2015871
1.2015871
1.2015871
1.2015871
0.83105499
0.836675
0.84278356
0.84941909
0.85662254
0.86443744
0.87290984
0.88208806
0.89202228
0.90276362
0.91436278
0.92686773
0.94032033
0.95475128
0.97017308
0.98657063
1.0038892
1.0220205
1.040788
1.0599353
1.0791216
1.0979308
1.115899
1.1325609
1.1475087
1.1604485
1.1712396
1.1799021
1.1865953
1.1915741
1.1951399
1.1975975
1.1992247
1.2002563
1.2008792
1.2012348
1.2014247
1.2015183
1.2015603
1.2015772
1.2015832
1.201585
1.2015855
1.2015856
1.2015856
1.2015856
1.2015856
1.2015856
1.2015856
1.2015856
0.83085929
0.83645881
0.84254471
0.84915517
0.85633088
0.86411511
0.87255358
0.88169435
0.89158726
0.90228319
0.91383264
0.92628353
0.93967784
0.95404674
0.96940369
0.98573518
1.0029889
1.0210601
1.0397767
1.0588877
1.0780581
1.0968768
1.1148833
1.1316124
1.1466527
1.1597035
1.1706145
1.1793967
1.186201
1.1912772
1.1949241
1.1974461
1.1991224
1.20019
1.2008382
1.2012106
1.2014111
1.2015109
1.2015563
1.2015747
1.2015814
1.2015834
1.201584
1.2015841
1.2015841
1.2015841
1.2015841
1.2015841
1.2015841
1.2015841
0.83066934
0.83624898
0.84231289
0.84889903
0.85604785
0.86380232
0.87220791
0.88131234
0.89116521
0.90181711
0.91331836
0.92571681
0.93905456
0.95336322
0.96865715
0.98492436
1.0021149
1.0201272
1.0387937
1.0578685
1.0770221
1.0958486
1.1138907
1.1306837
1.1458128
1.1589707
1.1699983
1.178897
1.1858103
1.1909823
1.1947091
1.1972948
1.1990198
1.2001231
1.2007965
1.2011858
1.2013971
1.2015033
1.201552
1.2015722
1.2015795
1.2015818
1.2015825
1.2015826
1.2015826
1.2015826
1.2015826
1.2015826
1.2015826
1.2015826
0.83048482
0.83604516
0.84208773
0.84865027
0.85577298
0.86349858
0.87187225
0.88094143
0.89075544
0.90136463
0.9128191
0.92516664
0.93844948
0.95269962
0.96793227
0.98413688
1.0012657
1.0192204
1.0378375
1.0568762
1.0760123
1.094845
1.1129203
1.129774
1.1449884
1.1582498
1.1693905
1.1784032
1.1854231
1.1906892
1.1944948
1.1971435
1.1989168
1.2000557
1.2007543
1.2011606
1.2013827
1.2014954
1.2015477
1.2015695
1.2015776
1.2015802
1.2015809
1.2015811
1.2015811
1.2015811
1.2015811
1.2015811
1.2015811
1.2015811
0.83030547
0.83584705
0.84186889
0.8484085
0.85550586
0.86320341
0.87154608
0.88058104
0.89035732
0.90092503
0.91233408
0.92463218
0.93786166
0.95205491
0.96722794
0.98337155
1.0004402
1.0183384
1.0369069
1.0559096
1.0750276
1.093865
1.1119711
1.1288825
1.1441789
1.1575404
1.1687912
1.1779149
1.1850394
1.190398
1.1942813
1.1969923
1.1988134
1.1999878
1.2007115
1.2011349
1.2013679
1.2014872
1.2015431
1.2015668
1.2015757
1.2015786
1.2015794
1.2015796
1.2015796
1.2015796
1.2015796
1.2015796
1.2015796
1.2015796
0.83013102
0.83565437
0.84165606
0.84817338
0.85524608
0.86291639
0.87122894
0.88023064
0.88997026
0.90049766
0.91186258
0.92411263
0.93729023
0.95142814
0.96654311
0.98262727
0.99963706
1.01748
1.0360006
1.0549674
1.0740668
1.0929075
1.1110424
1.1280087
1.1433838
1.1568421
1.1681999
1.1774321
1.1846591
1.1901087
1.1940686
1.1968412
1.1987098
1.1999194
1.2006682
1.2011087
1.2013528
1.2014788
1.2015385
1.201564
1.2015737
1.201577
1.2015779
1.2015781
1.2015781
1.2015781
1.2015781
1.2015781
1.2015781
1.2015781
0.82996123
0.83546685
0.84144892
0.84794457
0.8549933
0.86263711
0.87092037
0.87988974
0.88959371
0.90008192
0.91140393
0.92360724
0.93673438
0.95081843
0.96587685
0.98190302
0.99885533
1.0166441
1.0351175
1.0540486
1.0731289
1.0919717
1.1101332
1.1271519
1.1426027
1.1561547
1.1676165
1.1769548
1.1842822
1.1898213
1.1938567
1.1966902
1.198606
1.1998506
1.2006245
1.2010821
1.2013374
1.2014701
1.2015336
1.2015611
1.2015717
1.2015753
1.2015763
1.2015766
1.2015766
1.2015766
1.2015766
1.2015766
1.2015766
1.2015766
0.82979588
0.83528423
0.84124722
0.84772177
0.85474718
0.86236519
0.87061996
0.87955787
0.88922716
0.89967725
0.9109575
0.92311534
0.93619335
0.95022494
0.96522825
0.98119784
0.99809397
1.0158296
1.0342565
1.0531522
1.0722129
1.0910566
1.109243
1.1263114
1.141835
1.1554778
1.1670409
1.1764827
1.1839086
1.1895357
1.1936457
1.1965395
1.198502
1.1997814
1.2005802
1.2010551
1.2013215
1.2014612
1.2015286
1.2015582
1.2015697
1.2015736
1.2015748
1.2015751
1.2015751
1.2015751
1.2015751
1.2015752
1.2015752
1.2015752
0.82963476
0.83510629
0.84105069
0.8475047
0.85450739
0.8621003
0.87032732
0.87923461
0.88887014
0.89928311
0.91052271
0.92263628
0.93566644
0.94964692
0.96459649
0.98051085
0.99735202
1.0150356
1.0334167
1.0522772
1.0713179
1.0901615
1.1083708
1.1254867
1.1410804
1.1548111
1.1664727
1.1760157
1.1835383
1.189252
1.1934356
1.196389
1.1983978
1.1997119
1.2005356
1.2010276
1.2013054
1.2014521
1.2015235
1.2015551
1.2015676
1.2015719
1.2015732
1.2015736
1.2015736
1.2015736
1.2015737
1.2015737
1.2015737
1.2015737
0.82947767
0.83493281
0.8408591
0.84729309
0.85427365
0.8618421
0.8700421
0.87891955
0.88852221
0.89889903
0.91009903
0.92216946
0.93515301
0.94908365
0.96398078
0.9798412
0.99662862
1.0142611
1.0325971
1.0514226
1.070443
1.0892854
1.1075162
1.1246773
1.1403385
1.1541543
1.1659119
1.1755539
1.1831712
1.1889702
1.1932264
1.1962388
1.1982935
1.199642
1.2004906
1.2009998
1.201289
1.2014427
1.2015182
1.201552
1.2015655
1.2015702
1.2015717
1.2015721
1.2015721
1.2015722
1.2015722
1.2015722
1.2015722
1.2015722
0.82932443
0.83476359
0.84067223
0.84708669
0.85404569
0.86159029
0.86976395
0.87861233
0.88818295
0.89852454
0.90968595
0.92171433
0.93465242
0.94853445
0.96338042
0.97918812
0.99592295
1.0135053
1.0317969
1.0505877
1.0695875
1.0884278
1.1066783
1.1238826
1.1396088
1.1535072
1.1653582
1.175097
1.1828073
1.1886902
1.1930181
1.1960888
1.1981892
1.1995719
1.2004452
1.2009716
1.2012722
1.2014331
1.2015128
1.2015488
1.2015633
1.2015685
1.2015701
1.2015705
1.2015706
1.2015707
1.2015707
1.2015707
1.2015707
1.2015707
0.82917488
0.83459844
0.84048985
0.84688528
0.85382324
0.86134459
0.86949257
0.8783126
0.88785197
0.89815921
0.90928299
0.92127037
0.93416412
0.94799872
0.9627947
0.97855089
0.99523422
1.0127674
1.0310152
1.0497715
1.0687504
1.0875878
1.1058567
1.1231021
1.1388909
1.1528694
1.1648116
1.174645
1.1824466
1.1884121
1.1928108
1.1959392
1.1980847
1.1995014
1.2003994
1.2009431
1.2012551
1.2014232
1.2015072
1.2015455
1.2015611
1.2015668
1.2015686
1.201569
1.2015691
1.2015692
1.2015692
1.2015692
1.2015692
1.2015692
0.82902884
0.83443719
0.84031179
0.84668864
0.85360606
0.86110473
0.86922765
0.87802002
0.88752892
0.89780265
0.90888972
0.92083709
0.93368756
0.94747585
0.96222301
0.97792882
0.99456171
1.0120466
1.0302513
1.0489734
1.0679312
1.0867649
1.1050508
1.1223354
1.1381846
1.1522407
1.1642717
1.1741977
1.182089
1.1881359
1.1926043
1.1957899
1.1979802
1.1994307
1.2003534
1.2009142
1.2012378
1.2014132
1.2015015
1.2015421
1.2015589
1.201565
1.201567
1.2015675
1.2015676
1.2015677
1.2015677
1.2015677
1.2015677
1.2015677
0.82888618
0.83427966
0.84013785
0.84649656
0.85339394
0.86087046
0.86896892
0.8777343
0.88721345
0.89745448
0.90850572
0.92041403
0.93322225
0.9469653
0.96166475
0.97732126
0.99390476
1.0113423
1.0295045
1.0481926
1.0671292
1.0859583
1.1042599
1.1215819
1.1374894
1.1516209
1.1637384
1.1737551
1.1817344
1.1878614
1.1923988
1.1956409
1.1978757
1.1993598
1.200307
1.200885
1.2012201
1.2014029
1.2014956
1.2015386
1.2015566
1.2015633
1.2015654
1.201566
1.2015661
1.2015662
1.2015662
1.2015662
1.2015662
1.2015662
0.82874675
0.83412571
0.83996786
0.84630885
0.85318666
0.86064155
0.86871612
0.87745514
0.88690525
0.89711434
0.90813059
0.92000076
0.9327677
0.94646654
0.96111934
0.97672763
0.99326271
1.0106537
1.0287741
1.0474285
1.0663436
1.0851676
1.1034837
1.1208414
1.1368051
1.1510098
1.1632117
1.1733171
1.1813829
1.1875888
1.1921942
1.1954923
1.1977712
1.1992887
1.2002603
1.2008555
1.2012023
1.2013925
1.2014896
1.2015351
1.2015543
1.2015615
1.2015638
1.2015645
1.2015646
1.2015647
1.2015647
1.2015647
1.2015647
1.2015647
0.82861041
0.83397519
0.83980166
0.84612534
0.85298402
0.86041778
0.86846901
0.87718228
0.88660401
0.89678191
0.90776397
0.91959688
0.93232348
0.94597911
0.96058627
0.97614734
0.99263496
1.0099803
1.0280594
1.0466804
1.065574
1.0843922
1.1027215
1.1201133
1.1361312
1.150407
1.1626912
1.1728836
1.1810343
1.1873179
1.1919906
1.1953441
1.1976667
1.1992174
1.2002133
1.2008257
1.2011841
1.2013818
1.2014834
1.2015314
1.2015519
1.2015597
1.2015622
1.2015629
1.2015631
1.2015632
1.2015632
1.2015632
1.2015632
1.2015632
0.82847705
0.83382795
0.8396391
0.84594586
0.85278583
0.86019893
0.86822736
0.87691546
0.88630945
0.89645686
0.90740552
0.919202
0.93188917
0.94550253
0.96006504
0.97557986
0.99202096
1.0093213
1.0273598
1.0459477
1.0648196
1.0836314
1.101973
1.1193973
1.1354676
1.1498124
1.162177
1.1724545
1.1806886
1.1870488
1.191788
1.1951963
1.1975622
1.199146
1.2001661
1.2007957
1.2011657
1.2013709
1.2014771
1.2015277
1.2015495
1.2015578
1.2015606
1.2015614
1.2015616
1.2015617
1.2015617
1.2015617
1.2015617
1.2015617
0.82834655
0.83368387
0.83948003
0.84577023