/*--------------------------------*- C++ -*----------------------------------*\
| =========                 |                                                 |
| \\      /  F ield         | OpenFOAM: The Open Source CFD Toolbox           |
|  \\    /   O peration     | Version:  3.0.1                                 |
|   \\  /    A nd           | Web:      www.OpenFOAM.org                      |
|    \\/     M anipulation  |                                                 |
\*---------------------------------------------------------------------------*/
FoamFile
{
    version     2.0;
    format      ascii;
    class       volScalarField;
    location    "2417";
    object      rho;
}
// * * * * * * * * * * * * * * * * * * * * * * * * * * * * * * * * * * * * * //

dimensions      [1 -3 0 0 0 0 0];

internalField   nonuniform List<scalar> 
4000
(
0.95584229
1.0411892
1.1074805
1.1511481
1.1765443
1.1899808
1.1965795
1.1996254
1.2009565
1.2015094
1.2017282
1.2018108
1.2018405
1.2018507
1.201854
1.2018551
1.2018554
1.2018555
1.2018555
1.2018555
1.2018555
1.2018555
1.2018555
1.2018555
1.2018555
1.2018555
1.2018555
1.2018555
1.2018555
1.2018555
1.2018555
1.2018555
1.2018555
1.2018555
1.2018555
1.2018555
1.2018555
1.2018555
1.2018555
1.2018555
0.9132062
0.98389357
1.0514751
1.1076419
1.1479933
1.1734421
1.1878633
1.1953648
1.1990028
1.2006634
1.2013808
1.2016748
1.2017893
1.2018318
1.2018467
1.2018517
1.2018533
1.2018538
1.201854
1.201854
1.201854
1.201854
1.201854
1.201854
1.201854
1.201854
1.201854
1.201854
1.201854
1.201854
1.201854
1.201854
1.201854
1.201854
1.201854
1.201854
1.201854
1.201854
1.201854
1.201854
0.89718486
0.95921878
1.0213676
1.0780336
1.1238589
1.1565842
1.1774498
1.1895322
1.1959886
1.1992102
1.2007225
1.2013933
1.201675
1.2017873
1.2018297
1.2018449
1.2018501
1.2018518
1.2018523
1.2018525
1.2018525
1.2018525
1.2018525
1.2018525
1.2018525
1.2018525
1.2018525
1.2018525
1.2018525
1.2018525
1.2018525
1.2018525
1.2018525
1.2018525
1.2018525
1.2018525
1.2018525
1.2018525
1.2018525
1.2018525
0.88820167
0.94514726
1.0029359
1.0577738
1.1050657
1.1416284
1.1670042
1.1829841
1.192237
1.1972205
1.1997373
1.2009353
1.2014742
1.2017037
1.2017962
1.2018317
1.2018445
1.2018489
1.2018504
1.2018508
1.201851
1.201851
1.201851
1.201851
1.201851
1.201851
1.201851
1.201851
1.201851
1.201851
1.201851
1.201851
1.201851
1.201851
1.201851
1.201851
1.201851
1.201851
1.201851
1.201851
0.88219243
0.93571942
0.99026969
1.0430846
1.090376
1.1288812
1.1572663
1.1763179
1.1880805
1.1948298
1.1984579
1.2002944
1.2011724
1.2015695
1.2017395
1.2018084
1.2018349
1.2018446
1.2018479
1.201849
1.2018494
1.2018495
1.2018495
1.2018495
1.2018495
1.2018495
1.2018495
1.2018495
1.2018495
1.2018495
1.2018495
1.2018495
1.2018495
1.2018495
1.2018495
1.2018495
1.2018495
1.2018495
1.2018495
1.2018495
0.87778289
0.92880701
0.98087721
1.0318728
1.0786369
1.118084
1.1484648
1.1698721
1.1837789
1.1921834
1.196944
1.1994846
1.2007658
1.2013772
1.2016534
1.2017716
1.2018195
1.2018379
1.2018446
1.2018469
1.2018477
1.2018479
1.201848
1.201848
1.201848
1.201848
1.201848
1.201848
1.201848
1.201848
1.201848
1.201848
1.201848
1.201848
1.201848
1.201848
1.201848
1.201848
1.201848
1.201848
0.87435207
0.92343649
0.97353744
1.0229587
1.0690208
1.1088744
1.1405912
1.1637993
1.1795015
1.1894021
1.1952611
1.198532
1.2002595
1.2011238
1.2015337
1.2017178
1.2017962
1.2018278
1.2018399
1.2018443
1.2018458
1.2018463
1.2018465
1.2018465
1.2018465
1.2018465
1.2018465
1.2018465
1.2018465
1.2018465
1.2018465
1.2018465
1.2018465
1.2018465
1.2018465
1.2018465
1.2018465
1.2018465
1.2018465
1.2018465
0.87157393
0.91909411
0.96758335
1.0156458
1.0609676
1.1009324
1.1335535
1.1581484
1.175346
1.1865751
1.1934682
1.1974664
1.1996643
1.2008107
1.2013781
1.2016446
1.2017632
1.2018133
1.2018333
1.2018409
1.2018437
1.2018446
1.2018449
1.201845
1.201845
1.201845
1.201845
1.201845
1.201845
1.201845
1.201845
1.201845
1.201845
1.201845
1.201845
1.201845
1.201845
1.201845
1.201845
1.201845
0.86925785
0.91547913
0.96261694
1.0094982
1.0540954
1.0940042
1.1272415
1.1529164
1.1713624
1.1837625
1.1916128
1.1963172
1.1989939
1.2004418
1.2011864
1.2015502
1.201719
1.2017932
1.2018242
1.2018365
1.2018411
1.2018427
1.2018433
1.2018435
1.2018435
1.2018435
1.2018435
1.2018435
1.2018435
1.2018435
1.2018435
1.2018435
1.2018435
1.2018435
1.2018435
1.2018435
1.2018435
1.2018435
1.2018435
1.2018435
0.86728377
0.91240202
0.95838441
1.0042291
1.0481381
1.0878946
1.1215514
1.1480771
1.1675716
1.1810025
1.1897312
1.1951098
1.1982627
1.2000233
1.2009599
1.2014341
1.2016624
1.2017667
1.201812
1.2018307
1.2018379
1.2018406
1.2018416
1.2018419
1.201842
1.201842
1.201842
1.201842
1.201842
1.201842
1.201842
1.201842
1.201842
1.201842
1.201842
1.201842
1.201842
1.201842
1.201842
1.201842
0.86557166
0.90973653
0.95471533
0.99964186
1.0429053
1.082454
1.116393
1.1435963
1.1639778
1.178318
1.1878493
1.1938655
1.1974843
1.1995621
1.200701
1.2012963
1.2015927
1.201733
1.2017961
1.2018231
1.201834
1.2018382
1.2018398
1.2018403
1.2018405
1.2018405
1.2018405
1.2018405
1.2018405
1.2018405
1.2018405
1.2018405
1.2018405
1.2018405
1.2018405
1.2018405
1.2018405
1.2018405
1.2018405
1.2018405
0.86406579
0.90739475
0.95149039
0.99559635
1.0382574
1.0775673
1.1116904
1.1394384
1.1605761
1.1757211
1.1859855
1.1926009
1.1966707
1.1990652
1.2004128
1.2011376
1.2015096
1.2016915
1.2017761
1.2018135
1.2018291
1.2018354
1.2018378
1.2018386
1.2018389
1.201839
1.201839
1.201839
1.201839
1.201839
1.201839
1.201839
1.201839
1.201839
1.201839
1.201839
1.201839
1.201839
1.201839
1.201839
0.86272592
0.90531327
0.9486232
0.99199004
1.0340898
1.0731443
1.1073804
1.1355699
1.1573569
1.1732174
1.1841518
1.1913289
1.1958322
1.1985392
1.2000988
1.2009593
1.2014132
1.2016418
1.2017514
1.2018014
1.2018231
1.2018321
1.2018356
1.2018369
1.2018373
1.2018375
1.2018375
1.2018375
1.2018375
1.2018375
1.2018375
1.2018375
1.2018375
1.2018375
1.2018375
1.2018375
1.2018375
1.2018375
1.2018375
1.2018375
0.86152217
0.90344506
0.94604945
0.9887458
1.0303222
1.069114
1.1034107
1.1319602
1.1543086
1.1708083
1.1823562
1.1900592
1.1949773
1.1979902
1.1997625
1.200763
1.201304
1.2015838
1.2017219
1.2017868
1.2018158
1.2018281
1.2018331
1.201835
1.2018357
1.2018359
1.201836
1.201836
1.201836
1.201836
1.201836
1.201836
1.201836
1.201836
1.201836
1.201836
1.201836
1.201836
1.201836
1.201836
0.86043179
0.9017543
0.94372012
0.98580441
1.026892
1.0654197
1.0997379
1.1285823
1.1514192
1.1684922
1.1806034
1.1887989
1.1941129
1.1974236
1.1994075
1.2005505
1.2011826
1.2015176
1.2016872
1.2017692
1.2018069
1.2018234
1.2018303
1.201833
1.201834
1.2018344
1.2018345
1.2018345
1.2018345
1.2018345
1.2018345
1.2018345
1.2018345
1.2018345
1.2018345
1.2018345
1.2018345
1.2018345
1.2018345
1.2018345
0.85943711
0.90021321
0.94159706
0.98311951
1.0237498
1.0620154
1.0963256
1.1254125
1.1486766
1.1662664
1.178896
1.1875532
1.1932445
1.1968439
1.1990368
1.2003236
1.2010498
1.2014432
1.2016473
1.2017485
1.2017963
1.2018178
1.201827
1.2018308
1.2018322
1.2018328
1.201833
1.201833
1.201833
1.201833
1.201833
1.201833
1.201833
1.201833
1.201833
1.201833
1.201833
1.201833
1.201833
1.201833
0.85852414
0.89879981
0.9396501
0.98065419
1.0208556
1.0588634
1.0931434
1.1224298
1.1460696
1.1641269
1.1772352
1.1863256
1.1923763
1.196255
1.1986534
1.2000841
1.2009066
1.2013612
1.2016023
1.2017246
1.2017839
1.2018113
1.2018233
1.2018284
1.2018304
1.2018311
1.2018314
1.2018315
1.2018315
1.2018315
1.2018315
1.2018315
1.2018315
1.2018315
1.2018315
1.2018315
1.2018315
1.2018315
1.2018315
1.2018315
0.85768165
0.89749648
0.93785496
0.97837869
1.0181769
1.0559327
1.0901654
1.1196162
1.1435877
1.1620698
1.175621
1.1851185
1.1915118
1.1956601
1.1982598
1.1998339
1.2007538
1.2012718
1.201552
1.2016974
1.2017696
1.2018037
1.2018191
1.2018257
1.2018284
1.2018295
1.2018298
1.20183
1.20183
1.20183
1.20183
1.20183
1.20183
1.20183
1.20183
1.20183
1.20183
1.20183
1.20183
1.20183
0.8569005
0.89628887
0.93619189
0.97626867
1.0156871
1.0531974
1.0873697
1.1169556
1.1412213
1.1600905
1.1740529
1.1839337
1.1906534
1.195062
1.1978583
1.1995744
1.2005925
1.2011755
1.2014968
1.2016669
1.2017532
1.2017949
1.2018143
1.2018227
1.2018263
1.2018277
1.2018283
1.2018284
1.2018285
1.2018285
1.2018285
1.2018285
1.2018285
1.2018285
1.2018285
1.2018285
1.2018285
1.2018285
1.2018285
1.2018285
0.85617315
0.89516515
0.93464462
0.97430399
1.0133638
1.0506355
1.0847375
1.1144341
1.1389616
1.1581848
1.1725298
1.182772
1.1898032
1.1944627
1.1974509
1.1993072
1.2004237
1.2010728
1.2014368
1.2016331
1.2017347
1.201785
1.2018087
1.2018194
1.201824
1.2018259
1.2018266
1.2018269
1.201827
1.201827
1.201827
1.201827
1.201827
1.201827
1.201827
1.201827
1.201827
1.201827
1.201827
1.201827
0.85549331
0.89411549
0.93319959
0.97246787
1.0111884
1.0482287
1.0822528
1.1120394
1.1368006
1.1563485
1.1710503
1.1816339
1.1889626
1.1938641
1.1970392
1.1990336
1.2002482
1.2009644
1.2013722
1.2015961
1.2017141
1.2017737
1.2018025
1.2018158
1.2018216
1.201824
1.201825
1.2018254
1.2018255
1.2018255
1.2018255
1.2018255
1.2018255
1.2018255
1.2018255
1.2018255
1.2018255
1.2018255
1.2018255
1.2018255
0.85485573
0.89313164
0.9318454
0.97074613
1.0091449
1.045961
1.0799014
1.1097607
1.134731
1.1545776
1.169613
1.1805197
1.1881326
1.1932676
1.1966246
1.1987548
1.200067
1.2008506
1.2013034
1.2015559
1.2016913
1.2017611
1.2017955
1.2018117
1.2018189
1.201822
1.2018233
1.2018238
1.201824
1.201824
1.201824
1.201824
1.201824
1.201824
1.201824
1.201824
1.201824
1.201824
1.201824
1.201824
0.85425591
0.89220659
0.93057239
0.96912673
1.00722
1.0438188
1.0776712
1.1075884
1.1327463
1.1528684
1.1682162
1.179429
1.187314
1.1926744
1.1962084
1.1984719
1.1998807
1.2007321
1.2012305
1.2015126
1.2016665
1.2017471
1.2017876
1.2018071
1.201816
1.2018199
1.2018215
1.2018222
1.2018224
1.2018225
1.2018225
1.2018225
1.2018225
1.2018225
1.2018225
1.2018225
1.2018225
1.2018225
1.2018225
1.2018225
0.85369004
0.89133434
0.92937229
0.96759937
1.0054018
1.0417904
1.0755515
1.1055139
1.1308406
1.1512173
1.1668583
1.1783617
1.1865073
1.1920852
1.1957915
1.1981857
1.1996903
1.2006092
1.201154
1.2014665
1.2016395
1.2017318
1.201779
1.2018021
1.2018129
1.2018177
1.2018197
1.2018206
1.2018209
1.201821
1.201821
1.201821
1.201821
1.201821
1.201821
1.201821
1.201821
1.201821
1.201821
1.201821
0.85315482
0.89050976
0.92823801
0.96615517
1.0036805
1.0398654
1.073533
1.1035297
1.1290084
1.1496209
1.1655378
1.1773174
1.1857128
1.191501
1.1953748
1.1978971
1.1994962
1.2004827
1.201074
1.2014176
1.2016106
1.2017151
1.2017694
1.2017965
1.2018094
1.2018153
1.2018179
1.2018189
1.2018193
1.2018195
1.2018195
1.2018195
1.2018195
1.2018195
1.2018195
1.2018195
1.2018195
1.2018195
1.2018195
1.2018195
0.8526474
0.88972839
0.92716338
0.96478642
1.0020471
1.0380348
1.0716074
1.101629
1.1272448
1.1480762
1.1642528
1.1762954
1.1849307
1.1909221
1.194959
1.1976068
1.1992991
1.2003527
1.2009909
1.2013661
1.2015797
1.201697
1.201759
1.2017904
1.2018057
1.2018128
1.2018159
1.2018172
1.2018177
1.2018179
1.201818
1.201818
1.201818
1.201818
1.201818
1.201818
1.201818
1.201818
1.201818
1.201818
0.85216529
0.88898634
0.92614304
0.96348639
1.000494
1.0362907
1.0697673
1.0998057
1.1255454
1.1465804
1.1630021
1.1752953
1.184161
1.190349
1.1945447
1.1973154
1.1990996
1.2002199
1.200905
1.2013122
1.2015468
1.2016775
1.2017476
1.2017838
1.2018016
1.2018101
1.2018139
1.2018155
1.2018161
1.2018164
1.2018165
1.2018165
1.2018165
1.2018165
1.2018165
1.2018165
1.2018165
1.2018165
1.2018165
1.2018165
0.85170631
0.88828022
0.92517229
0.96224919
0.9990145
1.0346261
1.0680061
1.0980543
1.1239061
1.1451307
1.1617839
1.1743163
1.1834037
1.1897821
1.1941324
1.1970234
1.1988981
1.2000845
1.2008165
1.201256
1.2015122
1.2016567
1.2017354
1.2017765
1.2017972
1.2018072
1.2018117
1.2018137
1.2018145
1.2018149
1.201815
1.201815
1.201815
1.201815
1.201815
1.201815
1.201815
1.201815
1.201815
1.201815
0.85126855
0.88760702
0.924247
0.96106961
0.99760259
1.0330348
1.0663181
1.0963699
1.1223231
1.1437246
1.160597
1.173358
1.1826588
1.1892216
1.1937224
1.1967313
1.1986951
1.1999469
1.2007257
1.2011978
1.2014759
1.2016347
1.2017222
1.2017687
1.2017925
1.2018041
1.2018095
1.2018119
1.2018129
1.2018133
1.2018135
1.2018135
1.2018135
1.2018135
1.2018135
1.2018135
1.2018135
1.2018135
1.2018135
1.2018135
0.8508503
0.8869641
0.92336351
0.95994305
0.99625297
1.0315112
1.0646979
1.094748
1.1207932
1.1423599
1.15944
1.1724195
1.181926
1.1886675
1.1933151
1.1964394
1.1984908
1.1998075
1.2006329
1.2011377
1.201438
1.2016114
1.2017082
1.2017603
1.2017873
1.2018007
1.2018071
1.20181
1.2018112
1.2018117
1.2018119
1.201812
1.201812
1.201812
1.201812
1.201812
1.201812
1.201812
1.201812
1.201812
0.85045005
0.8863491
0.92251855
0.9588654
0.99496092
1.0300503
1.0631409
1.0931847
1.119313
1.1410345
1.1583115
1.1715003
1.1812051
1.1881201
1.1929108
1.196148
1.1982858
1.1996665
1.2005383
1.2010758
1.2013986
1.2015869
1.2016933
1.2017514
1.2017818
1.2017972
1.2018046
1.201808
1.2018095
1.2018102
1.2018104
1.2018105
1.2018105
1.2018105
1.2018105
1.2018105
1.2018105
1.2018105
1.2018105
1.2018105
0.85006646
0.88575992
0.92170924
0.95783302
0.99372221
1.0286478
1.0616428
1.0916761
1.1178798
1.1397462
1.1572103
1.1705998
1.180496
1.1875793
1.1925096
1.1958575
1.1980802
1.1995242
1.2004421
1.2010123
1.2013577
1.2015612
1.2016775
1.2017418
1.201776
1.2017934
1.201802
1.201806
1.2018078
1.2018086
1.2018089
1.201809
1.201809
1.201809
1.201809
1.201809
1.201809
1.201809
1.201809
1.201809
0.84969832
0.88519469
0.92093298
0.95684263
0.99253305
1.0272995
1.0601997
1.0902189
1.116491
1.1384933
1.1561353
1.1697173
1.1797984
1.1870453
1.1921117
1.1955681
1.1978743
1.1993809
1.2003445
1.2009473
1.2013155
1.2015345
1.2016609
1.2017316
1.2017697
1.2017894
1.2017992
1.2018039
1.201806
1.2018069
1.2018073
1.2018075
1.2018075
1.2018075
1.2018075
1.2018075
1.2018075
1.2018075
1.2018075
1.2018075
0.84934455
0.88465172
0.92018742
0.95589127
0.99139002
1.0260019
1.058808
1.0888101
1.1151441
1.137274
1.1550854
1.1688522
1.1791121
1.1865179
1.1917173
1.19528
1.1976683
1.1992367
1.2002457
1.2008811
1.2012722
1.2015068
1.2016436
1.2017208
1.201763
1.2017852
1.2017963
1.2018017
1.2018042
1.2018053
1.2018058
1.2018059
1.201806
1.201806
1.201806
1.201806
1.201806
1.201806
1.201806
1.201806
0.84900416
0.88412947
0.91947047
0.95497629
0.99029001
1.0247516
1.0574647
1.0874468
1.1138369
1.1360867
1.1540595
1.168004
1.1784367
1.1859971
1.1913264
1.1949933
1.1974625
1.1990918
1.2001458
1.2008137
1.2012277
1.201478
1.2016254
1.2017095
1.2017559
1.2017806
1.2017933
1.2017994
1.2018023
1.2018036
1.2018042
1.2018044
1.2018045
1.2018045
1.2018045
1.2018045
1.2018045
1.2018045
1.2018045
1.2018045
0.84867627
0.88362658
0.91878021
0.95409528
0.98923023
1.0235456
1.0561667
1.0861265
1.1125672
1.1349299
1.1530566
1.167172
1.1777721
1.1854828
1.190939
1.1947082
1.1972569
1.1989465
1.200045
1.2007452
1.2011821
1.2014484
1.2016065
1.2016976
1.2017485
1.2017759
1.20179
1.2017971
1.2018004
1.201802
1.2018026
1.2018029
1.201803
1.201803
1.201803
1.201803
1.201803
1.201803
1.201803
1.201803
0.84836008
0.88314179
0.91811493
0.95324605
0.98820813
1.0223813
1.0549114
1.0848467
1.1113332
1.1338022
1.1520758
1.1663557
1.177118
1.1849751
1.1905553
1.1944248
1.1970518
1.1988008
1.1999435
1.2006758
1.2011356
1.2014179
1.2015869
1.2016852
1.2017407
1.2017708
1.2017867
1.2017946
1.2017985
1.2018002
1.201801
1.2018013
1.2018015
1.2018015
1.2018015
1.2018015
1.2018015
1.2018015
1.2018015
1.2018015
0.84805486
0.88267396
0.91747305
0.95242661
0.98722138
1.0212561
1.0536963
1.0836053
1.1101331
1.1327022
1.1511163
1.1655546
1.176474
1.1844737
1.1901753
1.1941432
1.1968473
1.1986549
1.1998413
1.2006056
1.2010883
1.2013866
1.2015666
1.2016723
1.2017324
1.2017655
1.2017831
1.2017921
1.2017964
1.2017985
1.2017994
1.2017998
1.2018
1.2018
1.2018
1.2018
1.2018
1.2018
1.2018
1.2018
0.84775993
0.88222206
0.91685314
0.95163514
0.98626786
1.0201677
1.0525193
1.0824002
1.1089652
1.1316288
1.1501771
1.1647682
1.17584
1.1839787
1.189799
1.1938635
1.1966434
1.198509
1.1997386
1.2005346
1.2010402
1.2013546
1.2015457
1.2016588
1.2017238
1.20176
1.2017794
1.2017894
1.2017944
1.2017967
1.2017978
1.2017982
1.2017984
1.2017985
1.2017985
1.2017985
1.2017985
1.2017985
1.2017985
1.2017985
0.84747469
0.88178514
0.91625389
0.95087
0.98534563
1.0191141
1.0513781
1.0812296
1.107828
1.1305808
1.1492575
1.163996
1.1752157
1.1834899
1.1894263
1.1935857
1.1964403
1.1983631
1.1996356
1.2004631
1.2009913
1.2013219
1.2015242
1.2016449
1.2017149
1.2017542
1.2017755
1.2017866
1.2017922
1.2017949
1.2017961
1.2017967
1.2017969
1.201797
1.201797
1.201797
1.201797
1.201797
1.201797
1.201797
0.84719857
0.88136233
0.91567409
0.95012964
0.9844529
1.0180933
1.0502709
1.0800918
1.10672
1.1295571
1.1483568
1.1632375
1.1746008
1.1830071
1.1890573
1.1933099
1.196238
1.1982173
1.1995322
1.2003909
1.2009419
1.2012886
1.2015021
1.2016305
1.2017055
1.2017481
1.2017714
1.2017838
1.20179
1.2017931
1.2017945
1.2017951
1.2017954
1.2017955
1.2017955
1.2017955
1.2017955
1.2017955
1.2017955
1.2017955
0.84693107
0.88095283
0.91511264
0.94941268
0.98358802
1.0171035
1.049196
1.078985
1.10564
1.1285566
1.1474742
1.1624923
1.173995
1.1825303
1.1886919
1.1930361
1.1960367
1.1980717
1.1994286
1.2003183
1.2008918
1.2012547
1.2014795
1.2016156
1.2016958
1.2017418
1.2017672
1.2017808
1.2017877
1.2017912
1.2017928
1.2017935
1.2017938
1.201794
1.201794
1.201794
1.201794
1.201794
1.201794
1.201794
0.84667171
0.88055591
0.91456853
0.94871782
0.98274948
1.016143
1.0481516
1.0779078
1.1045865
1.1275784
1.1466091
1.1617599
1.1733982
1.1820594
1.1883302
1.1927643
1.1958363
1.1979264
1.1993248
1.2002453
1.2008413
1.2012202
1.2014564
1.2016003
1.2016858
1.2017352
1.2017628
1.2017777
1.2017854
1.2017892
1.2017911
1.2017919
1.2017923
1.2017924
1.2017925
1.2017925
1.2017925
1.2017925
1.2017925
1.2017925
0.84642005
0.88017088
0.91404083
0.94804387
0.98193589
1.0152104
1.0471363
1.0768588
1.1035585
1.1266217
1.1457607
1.1610399
1.1728101
1.1815942
1.187972
1.1924946
1.195637
1.1977814
1.199221
1.200172
1.2007903
1.2011853
1.2014328
1.2015846
1.2016755
1.2017284
1.2017582
1.2017744
1.201783
1.2017873
1.2017893
1.2017903
1.2017907
1.2017909
1.201791
1.201791
1.201791
1.201791
1.201791
1.201791
0.84617569
0.87979713
0.91352865
0.94738974
0.98114593
1.0143042
1.0461485
1.0758368
1.1025549
1.1256855
1.1449287
1.160332
1.1722304
1.1811346
1.1876173
1.1922269
1.1954387
1.1976369
1.1991171
1.2000984
1.2007389
1.2011499
1.2014088
1.2015686
1.2016648
1.2017213
1.2017534
1.2017711
1.2017805
1.2017852
1.2017876
1.2017887
1.2017892
1.2017894
1.2017895
1.2017895
1.2017895
1.2017895
1.2017895
1.2017895
0.84593826
0.87943406
0.91303121
0.9467544
0.98037842
1.0134232
1.0451871
1.0748403
1.1015746
1.1247691
1.1441122
1.1596358
1.171659
1.1806806
1.1872662
1.1919614
1.1952415
1.1974928
1.1990133
1.2000246
1.2006871
1.2011141
1.2013844
1.2015521
1.2016539
1.201714
1.2017485
1.2017676
1.2017779
1.2017832
1.2017858
1.2017871
1.2017876
1.2017879
1.201788
1.201788
1.201788
1.201788
1.201788
1.201788
0.8457074
0.87908115
0.91254776
0.94613692
0.97963225
1.0125661
1.0442507
1.0738685
1.1006167
1.1238716
1.1433109
1.1589509
1.1710955
1.180232
1.1869185
1.1916979
1.1950454
1.1973492
1.1989095
1.1999506
1.200635
1.2010779
1.2013596
1.2015354
1.2016426
1.2017064
1.2017434
1.201764
1.2017752
1.2017811
1.201784
1.2017854
1.201786
1.2017863
1.2017865
1.2017865
1.2017865
1.2017865
1.2017865
1.2017865
0.8454828
0.87873788
0.91207761
0.9455364
0.97890636
1.0117317
1.0433383
1.07292
1.0996802
1.1229925
1.1425242
1.1582769
1.1705399
1.1797886
1.1865742
1.1914364
1.1948505
1.1972061
1.1988059
1.1998766
1.2005827
1.2010414
1.2013345
1.2015183
1.2016311
1.2016987
1.2017381
1.2017603
1.2017725
1.2017789
1.2017822
1.2017837
1.2017845
1.2017848
1.2017849
1.201785
1.201785
1.201785
1.201785
1.201785
0.84526415
0.8784038
0.91162012
0.94495204
0.9781998
1.0109191
1.0424487
1.071994
1.0987642
1.1221309
1.1417515
1.1576136
1.1699919
1.1793504
1.1862333
1.191177
1.1946568
1.1970636
1.1987025
1.1998024
1.2005302
1.2010046
1.2013091
1.2015009
1.2016193
1.2016907
1.2017326
1.2017565
1.2017697
1.2017767
1.2017803
1.201782
1.2017829
1.2017833
1.2017834
1.2017835
1.2017835
1.2017835
1.2017835
1.2017835
0.84505117
0.87807848
0.91117468
0.94438307
0.97751166
1.0101271
1.041581
1.0710896
1.0978681
1.1212863
1.1409925
1.1569606
1.1694512
1.1789173
1.1858956
1.1909197
1.1944642
1.1969216
1.1985992
1.1997282
1.2004774
1.2009676
1.2012833
1.2014832
1.2016073
1.2016825
1.201727
1.2017526
1.2017668
1.2017744
1.2017784
1.2017803
1.2017813
1.2017817
1.2017819
1.201782
1.201782
1.201782
1.201782
1.201782
0.84484361
0.8777615
0.91074074
0.94382878
0.9768411
1.009355
1.0407341
1.0702057
1.0969909
1.120458
1.1402466
1.1563175
1.1689178
1.1784891
1.1855612
1.1906643
1.1942728
1.1967803
1.1984962
1.199654
1.2004245
1.2009303
1.2012573
1.2014653
1.201595
1.2016741
1.2017213
1.2017485
1.2017638
1.2017721
1.2017764
1.2017786
1.2017797
1.2017802
1.2017804
1.2017805
1.2017805
1.2017805
1.2017805
1.2017805
0.84464122
0.87745249
0.91031777
0.9432885
0.97618734
1.0086017
1.0399072
1.0693416
1.096132
1.1196455
1.1395135
1.1556843
1.1683914
1.1780657
1.18523
1.190411
1.1940826
1.1966396
1.1983934
1.1995798
1.2003715
1.2008928
1.2012311
1.2014471
1.2015825
1.2016656
1.2017153
1.2017444
1.2017608
1.2017697
1.2017745
1.2017769
1.201778
1.2017786
1.2017788
1.2017789
1.201779
1.201779
1.201779
1.201779
0.84444377
0.87715109
0.90990529
0.94276162
0.97554963
1.0078666
1.0390995
1.0684966
1.0952907
1.1188482
1.1387928
1.1550604
1.1678719
1.1776471
1.184902
1.1901597
1.1938935
1.1964995
1.198291
1.1995056
1.2003184
1.2008552
1.2012046
1.2014287
1.2015698
1.2016568
1.2017093
1.2017401
1.2017576
1.2017673
1.2017725
1.2017751
1.2017764
1.201777
1.2017773
1.2017774
1.2017775
1.2017775
1.2017775
1.2017775
0.84425104
0.87685698
0.90950284
0.94224755
0.97492728
1.0071488
1.0383102
1.0676697
1.0944663
1.1180656
1.138084
1.1544457
1.167359
1.1772332
1.184577
1.1899103
1.1937057
1.1963601
1.1981888
1.1994315
1.2002652
1.2008173
1.201178
1.2014101
1.2015568
1.2016479
1.2017031
1.2017357
1.2017544
1.2017648
1.2017704
1.2017733
1.2017748
1.2017754
1.2017758
1.2017759
1.201776
1.201776
1.201776
1.201776
0.84406283
0.87656984
0.90910998
0.94174573
0.97431964
1.0064476
1.0375385
1.0668605
1.0936583
1.1172972
1.1373868
1.15384
1.1668526
1.1768238
1.1842551
1.1896629
1.193519
1.1962214
1.198087
1.1993576
1.200212
1.2007794
1.2011512
1.2013912
1.2015437
1.2016388
1.2016967
1.2017312
1.2017511
1.2017623
1.2017683
1.2017715
1.2017731
1.2017739
1.2017742
1.2017744
1.2017745
1.2017745
1.2017745
1.2017745
0.84387897
0.87628937
0.90872632
0.94125566
0.9737261
1.0057624
1.0367838
1.0660681
1.0928659
1.1165425
1.1367008
1.1532429
1.1663526
1.1764188
1.1839361
1.1894174
1.1933335
1.1960834
1.1979855
1.1992837
1.2001587
1.2007413
1.2011242
1.2013722
1.2015305
1.2016295
1.2016902
1.2017266
1.2017477
1.2017597
1.2017662
1.2017697
1.2017714
1.2017723
1.2017727
1.2017729
1.201773
1.201773
1.201773
1.201773
0.84369925
0.87601531
0.90835147
0.94077686
0.97314609
1.0050925
1.0360453
1.0652919
1.0920888
1.1158011
1.1360257
1.1526542
1.1658588
1.1760181
1.1836201
1.1891738
1.1931492
1.195946
1.1978843
1.19921
1.2001055
1.2007031
1.201097
1.2013531
1.201517
1.2016201
1.2016836
1.2017219
1.2017443
1.201757
1.2017641
1.2017678
1.2017697
1.2017707
1.2017711
1.2017713
1.2017714
1.2017715
1.2017715
1.2017715
0.84352353
0.87574739
0.90798508
0.94030885
0.97257905
1.0044373
1.0353226
1.0645315
1.0913264
1.1150726
1.1353612
1.1520738
1.165371
1.1756217
1.1833069
1.188932
1.1929661
1.1958093
1.1977835
1.1991364
1.2000522
1.2006649
1.2010697
1.2013338
1.2015034
1.2016105
1.2016769
1.201717
1.2017407
1.2017543
1.2017619
1.2017659
1.201768
1.2017691
1.2017696
1.2017698
1.2017699
1.20177
1.20177
1.20177
0.84335164
0.87548536
0.90762681
0.93985123
0.97202449
1.0037962
1.0346149
1.0637861
1.0905781
1.1143565
1.134707
1.1515013
1.1648891
1.1752295
1.1829966
1.1886921
1.1927841
1.1956733
1.1976831
1.199063
1.199999
1.2006266
1.2010424
1.2013143
1.2014897
1.2016009
1.20167
1.2017121
1.2017371
1.2017515
1.2017596
1.201764
1.2017663
1.2017674
1.201768
1.2017683
1.2017684
1.2017685
1.2017685
1.2017685
0.84318343
0.87522901
0.90727633
0.93940357
0.97148191
1.0031687
1.0339217
1.0630553
1.0898435
1.1136525
1.1340627
1.1509366
1.164413
1.1748414
1.182689
1.1884541
1.1926033
1.195538
1.1975831
1.1989897
1.1999458
1.2005882
1.2010149
1.2012947
1.2014758
1.201591
1.2016631
1.2017071
1.2017334
1.2017487
1.2017573
1.2017621
1.2017645
1.2017658
1.2017664
1.2017667
1.2017669
1.2017669
1.201767
1.201767
0.84301876
0.8749781
0.90693336
0.93896549
0.97095086
1.0025542
1.0332425
1.0623386
1.0891221
1.1129602
1.1334282
1.1503795
1.1639425
1.1744572
1.1823842
1.1882178
1.1924236
1.1954034
1.1974835
1.1989167
1.1998927
1.2005498
1.2009873
1.2012751
1.2014618
1.2015811
1.201656
1.201702
1.2017297
1.2017458
1.201755
1.2017601
1.2017628
1.2017642
1.2017649
1.2017652
1.2017654
1.2017654
1.2017655
1.2017655
0.8428575
0.87473244
0.9065976
0.93853664
0.9704309
1.0019524
1.0325768
1.0616354
1.0884136
1.1122792
1.132803
1.1498297
1.1634775
1.174077
1.182082
1.1879833
1.192245
1.1952695
1.1973842
1.1988438
1.1998396
1.2005114
1.2009597
1.2012553
1.2014477
1.201571
1.2016488
1.2016968
1.2017258
1.2017429
1.2017527
1.2017581
1.201761
1.2017625
1.2017633
1.2017637
1.2017638
1.2017639
1.2017639
1.201764
0.84269952
0.87449183
0.90626878
0.93811667
0.96992164
1.0013628
1.0319242
1.0609454
1.0877175
1.1116091
1.132187
1.1492872
1.1630178
1.1737005
1.1817825
1.1877505
1.1920676
1.1951362
1.1972854
1.1987712
1.1997866
1.200473
1.2009319
1.2012354
1.2014334
1.2015609
1.2016415
1.2016915
1.2017219
1.2017399
1.2017503
1.2017561
1.2017592
1.2017609
1.2017617
1.2017621
1.2017623
1.2017624
1.2017624
1.2017624
0.8425447
0.87425608
0.90594666
0.93770526
0.96942267
1.0007848
1.031284
1.060268
1.0870333
1.1109498
1.1315799
1.1487516
1.1625634
1.1733279
1.1814856
1.1875195
1.1918912
1.1950037
1.1971869
1.1986987
1.1997337
1.2004345
1.2009042
1.2012154
1.2014191
1.2015506
1.2016341
1.2016862
1.2017179
1.2017369
1.2017478
1.201754
1.2017574
1.2017592
1.2017601
1.2017606
1.2017608
1.2017609
1.2017609
1.2017609
0.84239293
0.87402502
0.90563099
0.93730208
0.96893363
1.0002182
1.0306561
1.0596029
1.0863608
1.1103008
1.1309814
1.1482229
1.1621141
1.1729589
1.1811911
1.1872901
1.191716
1.1948718
1.1970889
1.1986265
1.1996808
1.2003961
1.2008764
1.2011953
1.2014047
1.2015402
1.2016266
1.2016807
1.2017139
1.2017338
1.2017454
1.2017519
1.2017556
1.2017575
1.2017585
1.201759
1.2017592
1.2017594
1.2017594
1.2017594
0.8422441
0.87379848
0.90532153
0.93690687
0.96845417
0.99966241
1.0300398
1.0589497
1.0856996
1.1096618
1.1303914
1.1477009
1.1616698
1.1725935
1.1808992
1.1870624
1.1915418
1.1947406
1.1969912
1.1985545
1.1996281
1.2003577
1.2008485
1.2011752
1.2013902
1.2015297
1.2016191
1.2016752
1.2017098
1.2017306
1.2017428
1.2017498
1.2017537
1.2017558
1.2017569
1.2017574
1.2017577
1.2017578
1.2017579
1.2017579
0.84209811
0.87357631
0.90501808
0.93651932
0.96798396
0.9991172
1.0294349
1.058308
1.0850493
1.1090326
1.1298095
1.1471853
1.1612305
1.1722316
1.1806097
1.1868364
1.1913687
1.1946101
1.196894
1.1984827
1.1995755
1.2003193
1.2008207
1.201155
1.2013756
1.2015192
1.2016114
1.2016696
1.2017056
1.2017274
1.2017403
1.2017477
1.2017518
1.2017541
1.2017553
1.2017559
1.2017562
1.2017563
1.2017564
1.2017564
0.84195486
0.87335835
0.90472043
0.93613919
0.96752269
0.99858218
1.028841
1.0576773
1.0844096
1.108413
1.1292357
1.1466762
1.1607959
1.1718732
1.1803226
1.186612
1.1911967
1.1944803
1.1967971
1.1984111
1.1995229
1.200281
1.2007928
1.2011348
1.2013609
1.2015086
1.2016037
1.2016639
1.2017014
1.2017242
1.2017377
1.2017455
1.2017499
1.2017523
1.2017536
1.2017543
1.2017546
1.2017548
1.2017548
1.2017548
0.84181426
0.87314446
0.90442837
0.93576622
0.96707005
0.998057
1.0282577
1.0570575
1.0837802
1.1078025
1.1286697
1.1461732
1.160366
1.1715182
1.1800379
1.1863891
1.1910257
1.1943511
1.1967007
1.1983398
1.1994705
1.2002427
1.2007649
1.2011145
1.2013462
1.2014979
1.2015959
1.2016582
1.2016971
1.2017209
1.2017351
1.2017433
1.201748
1.2017506
1.201752
1.2017527
1.2017531
1.2017532
1.2017533
1.2017533
0.84167622
0.87293451
0.90414172
0.93540017
0.96662575
0.99754135
1.0276846
1.0564481
1.0831608
1.107201
1.1281112
1.1456763
1.1599407
1.1711664
1.1797555
1.1861678
1.1908557
1.1942225
1.1966047
1.1982687
1.1994183
1.2002044
1.2007369
1.2010942
1.2013314
1.2014871
1.201588
1.2016524
1.2016927
1.2017175
1.2017324
1.2017411
1.2017461
1.2017488
1.2017503
1.2017511
1.2017515
1.2017517
1.2017518
1.2017518
0.84154066
0.87272836
0.90386031
0.93504082
0.96618953
0.99703492
1.0271215
1.0558489
1.0825511
1.1066083
1.1275601
1.1451852
1.1595199
1.170818
1.1794754
1.1859481
1.1906867
1.1940947
1.1965091
1.1981979
1.1993661
1.2001662
1.200709
1.2010738
1.2013165
1.2014763
1.20158
1.2016465
1.2016883
1.2017141
1.2017297
1.2017388
1.2017441
1.2017471
1.2017487
1.2017495
1.2017499
1.2017502
1.2017502
1.2017503
0.8414075
0.8725259
0.90358396
0.93468794
0.96576113
0.99653742
1.0265681
1.0552595
1.0819509
1.1060241
1.1270163
1.1447
1.1591035
1.1704728
1.1791975
1.1857299
1.1905188
1.1939674
1.1964138
1.1981273
1.1993141
1.200128
1.2006811
1.2010534
1.2013017
1.2014654
1.201572
1.2016405
1.2016838
1.2017106
1.2017269
1.2017366
1.2017421
1.2017453
1.201747
1.2017479
1.2017484
1.2017486
1.2017487
1.2017487
0.84127665
0.872327
0.90331251
0.93434132
0.96534029
0.99604856
1.026024
1.0546796
1.0813598
1.1054481
1.1264795
1.1442204
1.1586914
1.1701306
1.1789218
1.1855132
1.1903518
1.1938408
1.196319
1.1980569
1.1992622
1.2000899
1.2006532
1.201033
1.2012867
1.2014544
1.201564
1.2016345
1.2016793
1.2017071
1.2017241
1.2017342
1.2017401
1.2017435
1.2017453
1.2017463
1.2017468
1.2017471
1.2017472
1.2017472
0.84114806
0.87213156
0.90304581
0.93400078
0.96492677
0.99556809
1.025489
1.054109
1.0807776
1.1048802
1.1259495
1.1437463
1.1582835
1.1697916
1.1786483
1.1852979
1.1901858
1.1937149
1.1962246