/*--------------------------------*- C++ -*----------------------------------*\
| =========                 |                                                 |
| \\      /  F ield         | OpenFOAM: The Open Source CFD Toolbox           |
|  \\    /   O peration     | Version:  4.0                                   |
|   \\  /    A nd           | Web:      www.OpenFOAM.org                      |
|    \\/     M anipulation  |                                                 |
\*---------------------------------------------------------------------------*/
FoamFile
{
    version     2.0;
    format      ascii;
    class       surfaceScalarField;
    location    "2000";
    object      snGradRho;
}
// * * * * * * * * * * * * * * * * * * * * * * * * * * * * * * * * * * * * * //

dimensions      [1 -4 0 0 0 0 0];

internalField   nonuniform List<scalar> 
9850
(
146.93435
-2.2584098
146.60524
-2.512719
144.78797
-2.7894373
141.29688
-3.0801519
135.99791
-3.3727952
128.83847
-3.651534
119.87674
-3.8971748
109.3039
-4.0882796
97.451054
-4.2031126
84.773966
-4.2223717
71.813183
-4.132409
59.133994
-3.9283609
47.258003
-3.6164029
36.601872
-3.2143315
27.437128
-2.7499537
19.878173
-2.2572904
13.897206
-1.7760484
9.3574108
-1.3374199
6.0537685
-0.96234422
3.7520478
-0.66062612
2.2200621
-0.43189105
1.2489742
-0.26831222
0.66503362
-0.1579641
0.33345784
-0.087830292
0.15659102
-0.045935465
0.068465926
-0.022499466
0.027698721
-0.010280331
0.010300806
-0.0043759252
0.0034972204
-0.0017485492
0.0010762435
-0.00067930006
0.00029800275
-0.00028421542
7.366774e-05
-0.00015265701
1.6111916e-05
-0.00011346862
3.0686824e-06
-0.00010309507
4.7985379e-07
-0.00010066243
3.6546989e-08
-0.00010015028
-2.90836e-08
-0.00010004306
-3.1162294e-08
-0.00010000965
-2.5960779e-08
-9.9990543e-05
-2.1604573e-08
-9.9975653e-05
-1.6709608e-08
-9.9963312e-05
-1.3648484e-08
-9.995323e-05
-1.0035511e-08
-9.9945021e-05
-8.1304303e-09
-9.9938543e-05
-5.5762168e-09
-9.9933402e-05
-4.4835115e-09
-9.9929515e-05
-2.7133693e-09
-9.992651e-05
-2.0689227e-09
-9.9924433e-05
-1.139216e-09
-9.9922933e-05
-9.9922557e-05
108.32195
-0.80774015
108.41281
-0.89720185
108.31417
-0.9972846
107.92139
-1.1081202
107.10034
-1.2290957
105.68908
-1.3584745
103.50533
-1.4929675
100.36145
-1.6273244
96.087721
-1.7540711
90.562985
-1.8635628
83.748978
-1.9445466
75.721929
-1.985374
66.692654
-1.9758631
57.006239
-1.9095623
47.115103
-1.7858982
37.351378
-1.611525
28.374433
-1.3955179
20.610901
-1.1558162
14.282823
-0.9132963
9.423078
-0.68703021
5.9067578
-0.49104569
3.5097447
-0.33276934
1.9712064
-0.21328897
1.0427343
-0.12890467
0.51726998
-0.073183717
0.23941244
-0.038859851
0.10278812
-0.019208341
0.04067519
-0.0088025353
0.014734137
-0.0037366436
0.004850588
-0.0014843299
0.001440495
-0.00057638401
0.00038303579
-0.00024702191
9.0555792e-05
-0.00014033188
1.8938156e-05
-0.00010970909
3.5170263e-06
-0.0001019812
6.1455453e-07
-0.00010028052
1.346248e-07
-9.9958504e-05
5.3957937e-08
-9.9908328e-05
3.4335328e-08
-9.9903106e-05
2.3825958e-08
-9.9903569e-05
1.7028966e-08
-9.9904043e-05
1.1321726e-08
-9.9903955e-05
7.8794977e-09
-9.9903436e-05
4.7907006e-09
-9.9902634e-05
3.3071747e-09
-9.9901733e-05
1.7590942e-09
-9.9900825e-05
1.2078365e-09
-9.9900014e-05
5.0584057e-10
-9.9899325e-05
-5.5201817e-10
-9.9898864e-05
-9.9898805e-05
94.738759
-0.42049651
94.59947
-0.46660487
94.408447
-0.51832168
94.124334
-0.57612927
93.687298
-0.64037314
93.014352
-0.71113083
91.995352
-0.78802248
90.491236
-0.86995688
88.336907
-0.95482349
85.351755
-1.0391711
81.360778
-1.1179614
76.227659
-1.1845393
69.897388
-1.2310015
62.439936
-1.2491185
54.079924
-1.2318297
45.194286
-1.1750579
36.285946
-1.0792559
27.887286
-0.95049822
20.454
-0.79989272
14.282123
-0.64141632
9.4739477
-0.48894356
5.9576131
-0.35354865
3.5427805
-0.2419342
1.986086
-0.15623315
1.0455127
-0.094871548
0.51433837
-0.053939292
0.23512416
-0.028570885
0.099240594
-0.014027289
0.038404076
-0.0063586205
0.013524427
-0.0026643931
0.0043007731
-0.0010505183
0.0012252874
-0.00041612075
0.00031031454
-0.00019352688
6.9351552e-05
-0.00012437073
1.3602393e-05
-0.00010549606
2.3504872e-06
-0.00010100497
3.8050837e-07
-0.00010008036
7.7223885e-08
-9.9917492e-05
3.2457373e-08
-9.9894018e-05
2.2081e-08
-9.9892473e-05
1.7323953e-08
-9.9893952e-05
1.2902378e-08
-9.9895784e-05
1.0096462e-08
-9.9897536e-05
7.0544354e-09
-9.9899092e-05
5.3821208e-09
-9.9900398e-05
3.4444815e-09
-9.9901429e-05
2.5097897e-09
-9.990223e-05
1.2965547e-09
-9.9902735e-05
-4.6063881e-10
-9.9903233e-05
-9.9903653e-05
87.73801
-0.27387133
87.461558
-0.30371482
87.155757
-0.33715679
86.797427
-0.3745707
86.351664
-0.41629691
85.76802
-0.46258648
84.976264
-0.5135135
83.882372
-0.56884605
82.36602
-0.62786834
80.281675
-0.68915608
77.466301
-0.75032746
73.757098
-0.80782746
69.021679
-0.85685101
63.19959
-0.8915538
56.347506
-0.90570007
48.672717
-0.89380356
40.53568
-0.852604
32.405941
-0.78245756
24.776283
-0.68800682
18.062381
-0.57764852
12.525442
-0.46183011
8.2443275
-0.35078416
5.1388778
-0.25255057
3.0249336
-0.17189481
1.6754583
-0.11023981
0.86924407
-0.06633643
0.42008263
-0.037265916
0.18789599
-0.019435167
0.077227324
-0.0093599662
0.028942184
-0.0041509274
0.0098100696
-0.001705505
0.0029825279
-0.00067159045
0.00080660089
-0.0002812158
0.00019248171
-0.0001507001
4.0235414e-05
-0.00011238112
7.3348316e-06
-0.00010257979
1.1786447e-06
-0.00010041115
1.8179262e-07
-9.9997903e-05
3.8717244e-08
-9.9929307e-05
1.6634914e-08
-9.9918297e-05
1.1192395e-08
-9.9915621e-05
7.57368e-09
-9.9914215e-05
5.7929501e-09
-9.9913212e-05
3.7713036e-09
-9.9912495e-05
3.0267199e-09
-9.9912035e-05
1.7802807e-09
-9.9911715e-05
1.5565465e-09
-9.9911605e-05
4.4175608e-10
-9.991144e-05
-1.115863e-09
-9.9911542e-05
-9.9911768e-05
83.206799
-0.19989959
82.845924
-0.22158446
82.461711
-0.24585476
82.038621
-0.27299506
81.552705
-0.30328318
80.968616
-0.33696019
80.236081
-0.37418186
79.286097
-0.41494426
78.027521
-0.4589758
76.345354
-0.50559094
74.102838
-0.55350885
71.150339
-0.60065875
67.344274
-0.64402446
62.578015
-0.67962099
56.822677
-0.70272961
50.168614
-0.70850764
42.85091
-0.69299038
35.23977
-0.65429944
27.786193
-0.59363805
20.933868
-0.51556826
15.028166
-0.42728591
10.2569
-0.33707674
6.6410114
-0.25254521
4.0687485
-0.17926314
2.3511293
-0.12018761
1.2759425
-0.075809732
0.64684553
-0.044764071
0.30437267
-0.024600946
0.13196998
-0.012506912
0.052303929
-0.0058530979
0.01878889
-0.0025219182
0.0060642937
-0.001017387
0.0017432226
-0.00040982719
0.00044245811
-0.00019243158
9.8359143e-05
-0.00012411177
1.9025542e-05
-0.0001054143
3.2037278e-06
-0.00010099364
4.8736655e-07
-0.00010009725
8.3303699e-08
-9.994211e-05
2.6484809e-08
-9.9918942e-05
1.5899349e-08
-9.9915502e-05
1.0625109e-08
-9.991449e-05
7.7747876e-09
-9.9913716e-05
4.9268931e-09
-9.9912947e-05
3.7579117e-09
-9.9912279e-05
2.0101034e-09
-9.9911601e-05
1.8683589e-09
-9.9911156e-05
2.6647662e-10
-9.9910654e-05
-1.4694614e-09
-9.9910486e-05
-9.9910536e-05
79.914331
-0.15539453
79.496158
-0.17219319
79.056619
-0.19097353
78.584311
-0.21195884
78.061322
-0.23537431
77.460814
-0.26142882
76.744082
-0.29028471
75.857204
-0.32201025
74.72768
-0.35650888
73.261881
-0.39341942
71.344803
-0.4319856
68.844428
-0.47090257
65.623668
-0.50816682
61.562642
-0.54098528
56.59189
-0.56583272
50.732023
-0.57876433
44.12793
-0.57605554
37.059809
-0.55512082
29.915467
-0.51547019
23.122653
-0.45930293
17.061276
-0.39137343
11.98875
-0.31806002
8.0058173
-0.24596612
5.068893
-0.18059885
3.0341028
-0.12555755
1.7102733
-0.082354453
0.90327047
-0.05072181
0.44418853
-0.029164148
0.20189601
-0.01555393
0.08412754
-0.0076472352
0.031854685
-0.0034551515
0.010860602
-0.0014450384
0.0033033219
-0.00058160269
0.00088814686
-0.0002525334
0.00020923876
-0.00014230365
4.285635e-05
-0.00011014234
7.5964603e-06
-0.00010203834
1.1784692e-06
-0.00010028843
1.7712006e-07
-9.9966741e-05
3.9148694e-08
-9.9916561e-05
1.9287705e-08
-9.990984e-05
1.2977398e-08
-9.9908966e-05
9.9012462e-09
-9.9908796e-05
6.6063398e-09
-9.9908634e-05
5.3080748e-09
-9.9908553e-05
2.9347448e-09
-9.9908331e-05
2.8148097e-09
-9.9908262e-05
5.5513633e-10
-9.9908025e-05
-1.5467735e-09
-9.9908037e-05
-9.9908152e-05
77.363748
-0.12607775
76.904111
-0.1396691
76.423747
-0.15484913
75.913815
-0.17179887
75.360183
-0.19070431
74.741412
-0.21174431
74.026244
-0.23507015
73.170673
-0.26077275
72.11482
-0.28883302
70.780184
-0.31905034
69.068354
-0.35094589
66.862954
-0.38364295
64.037345
-0.41573808
60.470866
-0.44519714
56.075376
-0.46933791
50.830376
-0.48498425
44.818895
-0.48887261
38.249457
-0.47832575
31.447372
-0.45206856
24.806829
-0.41089991
18.713594
-0.35787578
13.465783
-0.29781467
9.2232181
-0.23625939
6.0007383
-0.17830226
3.6989965
-0.12770419
2.1528161
-0.086524159
1.1774305
-0.055215219
0.60153259
-0.033001881
0.28498877
-0.018353401
0.12417559
-0.0094325796
0.049311103
-0.0044569282
0.017676891
-0.0019391862
0.0056648268
-0.00079496775
0.0016072378
-0.00033269675
0.00039996144
-0.00016833449
8.6543317e-05
-0.00011739793
1.6171831e-05
-0.00010376337
2.6114854e-06
-0.00010063698
3.8032337e-07
-0.00010002717
6.3889525e-08
-9.9926301e-05
2.2211613e-08
-9.9911923e-05
1.3495741e-08
-9.9909864e-05
1.0350624e-08
-9.99094e-05
6.807726e-09
-9.9909077e-05
5.8158431e-09
-9.9908953e-05
3.0775461e-09
-9.990873e-05
3.2626679e-09
-9.9908713e-05
5.3539261e-10
-9.9908549e-05
-1.7270606e-09
-9.9908633e-05
-9.990879e-05
75.300139
-0.10542864
74.808975
-0.11676746
74.297189
-0.12942108
73.757681
-0.14354013
73.178911
-0.15928127
72.543166
-0.17679868
71.824376
-0.19622931
70.98552
-0.21766915
69.975765
-0.2411365
68.727735
-0.26651849
67.155738
-0.29349703
65.15634
-0.3214542
62.613401
-0.3493642
59.410141
-0.37569368
55.450429
-0.39835322
50.689195
-0.41476609
45.167001
-0.42212804
39.037258
-0.41789914
32.570205
-0.40047188
26.121457
-0.36982055
20.067235
-0.32784006
14.726904
-0.27814274
10.302612
-0.2253189
6.85736
-0.17393989
4.3327554
-0.12769002
2.5908303
-0.088890685
1.459929
-0.058451263
0.77087971
-0.036114858
0.37873917
-0.020831161
0.17170925
-0.011136947
0.07117592
-0.0054835332
0.026709787
-0.0024816412
0.008982229
-0.0010455994
0.0026794658
-0.00043338205
0.00070202492
-0.00020326607
0.00016004439
-0.00012778992
3.1492544e-05
-0.00010639613
5.3280234e-06
-0.00010120187
7.8877519e-07
-0.00010013003
1.1681865e-07
-9.9943088e-05
2.909998e-08
-9.9915427e-05
1.49096e-08
-9.9911651e-05
1.1242502e-08
-9.9910968e-05
7.1193315e-09
-9.9910533e-05
6.3251674e-09
-9.9910307e-05
3.1138614e-09
-9.9909974e-05
3.5724398e-09
-9.9909854e-05
3.904275e-10
-9.9909622e-05
-1.9714704e-09
-9.9909645e-05
-9.9909771e-05
73.578539
-0.090165493
73.062532
-0.099843343
72.525776
-0.11063551
71.962429
-0.12266993
71.362837
-0.13608083
70.712007
-0.15100246
69.987686
-0.16755802
69.158034
-0.18584168
68.178999
-0.20589046
66.991691
-0.22764278
65.520383
-0.25088023
63.672265
-0.27515121
61.340732
-0.29968049
58.4145
-0.32327851
54.794866
-0.34428138
50.421893
-0.36057212
45.306579
-0.36974727
39.560132
-0.36947805
33.406189
-0.35805047
27.162279
-0.33495529
21.1873
-0.30129268
15.809139
-0.25975751
11.259495
-0.214133
7.6403671
-0.16846697
4.9298753
-0.12625678
3.0166798
-0.089921356
1.7439927
-0.060651513
0.9475704
-0.038556265
0.48061727
-0.022957038
0.22571776
-0.012710327
0.09724524
-0.0064969416
0.038046446
-0.0030528865
0.013375693
-0.001326898
0.0041806425
-0.00055376672
0.0011496129
-0.00024774057
0.00027537376
-0.00014186988
5.6946777e-05
-0.00011018772
1.0102753e-05
-0.000102064
1.545807e-06
-0.00010029418
2.1864491e-07
-9.9968801e-05
4.1736546e-08
-9.9918454e-05
1.6985404e-08
-9.9911674e-05
1.2445154e-08
-9.9910749e-05
7.6886234e-09
-9.9910363e-05
7.0860926e-09
-9.9910197e-05
3.362626e-09
-9.9909913e-05
4.0111296e-09
-9.9909806e-05
3.509909e-10
-9.9909594e-05
-2.1682963e-09
-9.9909605e-05
-9.990972e-05
72.109126
-0.078469653
71.573006
-0.086877383
71.015907
-0.096247127
70.432938
-0.10668939
69.815873
-0.11832088
69.151797
-0.13125968
68.421377
-0.14561674
67.596764
-0.16148174
66.639173
-0.17890101
65.496384
-0.19784444
64.100651
-0.21815855
62.367955
-0.23950393
60.20009
-0.2612788
57.491652
-0.2825382
54.144181
-0.30193111
50.088756
-0.31769508
45.315465
-0.32776224
39.902997
-0.3300268
34.036087
-0.32278084
27.996877
-0.30523569
22.123408
-0.27794394
16.743876
-0.24290359
12.10998
-0.20322908
8.3549826
-0.16248256
5.4890758
-0.12392969
3.4261669
-0.089992751
2.0249894
-0.06203118
1.1279088
-0.040410771
0.58830165
-0.024735679
0.28507582
-0.014125029
0.12715444
-0.0074680962
0.051672056
-0.003634643
0.018923926
-0.0016310662
0.0061770241
-0.00069195005
0.0017774463
-0.00030192747
0.00044616559
-0.00016007473
9.675669e-05
-0.00011538798
1.7986797e-05
-0.00010331771
2.863436e-06
-0.00010054741
4.0397857e-07
-0.0001000112
6.442519e-08
-9.9924088e-05
1.9799614e-08
-9.9912009e-05
1.3512394e-08
-9.9910462e-05
8.1056478e-09
-9.9910032e-05
7.7364055e-09
-9.9909879e-05
3.585284e-09
-9.9909636e-05
4.4109651e-09
-9.9909549e-05
3.3213654e-10
-9.9909383e-05
-2.3483986e-09
-9.9909411e-05
-9.9909535e-05
70.83256
-0.069255278
70.279801
-0.076664168
69.705793
-0.084916022
69.106386
-0.094107626
68.474474
-0.1043417
67.798776
-0.11572315
67.062267
-0.12835224
66.240264
-0.14231333
65.298187
-0.15765699
64.18919
-0.17437308
62.852052
-0.19235217
61.210106
-0.21133337
59.172489
-0.23083921
56.639544
-0.25010399
53.514536
-0.26801216
49.723232
-0.28307784
45.240722
-0.29351073
40.120399
-0.29741586
34.514613
-0.29314619
28.673521
-0.27975761
22.913138
-0.25742277
17.556713
-0.22760813
12.868844
-0.19287811
9.0076801
-0.15635983
6.0113637
-0.12107548
3.8173511
-0.089397676
2.2999474
-0.062781883
1.3091243
-0.041774579
0.69981073
-0.026194399
0.3486712
-0.015372041
0.16044528
-0.0083778454
0.067489052
-0.004211692
0.025663319
-0.0019502293
0.008721362
-0.00084533394
0.0026186601
-0.00036556751
0.00068706239
-0.00018269879
0.00015590649
-0.00012222533
3.0327674e-05
-0.0001050611
5.0348236e-06
-0.00010091994
7.2466361e-07
-0.0001000776
1.0484373e-07
-9.9934028e-05
2.450784e-08
-9.9913377e-05
1.4700719e-08
-9.9910749e-05
8.4899636e-09
-9.9910205e-05
8.291091e-09
-9.991002e-05
3.7653539e-09
-9.9909782e-05
4.7256567e-09
-9.9909677e-05
2.8400965e-10
-9.9909524e-05
-2.5423141e-09
-9.9909549e-05
-9.9909672e-05
69.707649
-0.061828086
69.140887
-0.068433142
68.552591
-0.075785883
67.939206
-0.083972057
67.29453
-0.093083043
66.6086
-0.10321282
65.86626
-0.11445248
65.045398
-0.12688094
64.114871
-0.14055025
63.032252
-0.15546329
61.741746
-0.17154146
60.172911
-0.18858062
58.2413
-0.20619504
55.852674
-0.22375385
52.912782
-0.24032248
49.344429
-0.25463378
45.11183
-0.26512692
40.248503
-0.27009741
34.879773
-0.26798388
29.227269
-0.25776304
23.585093
-0.23934249
18.268248
-0.21378064
13.548961
-0.18318982
9.6050416
-0.1503137
6.4988836
-0.11793552
4.1897078
-0.088348855
2.5671082
-0.063058102
1.4892426
-0.042737518
0.81354469
-0.027369437
0.41548853
-0.016453993
0.19662539
-0.0092149559
0.085341897
-0.0047721161
0.033592397
-0.0022770109
0.01185115
-0.001010917
0.0037031064
-0.00043803612
0.0010130621
-0.00020988369
0.00024001898
-0.00013089531
4.8775362e-05
-0.00010739334
8.4458754e-06
-0.00010144527
1.2531909e-06
-0.00010017609
1.7395007e-07
-9.9949383e-05
3.2503003e-08
-9.9915452e-05
1.6202929e-08
-9.991109e-05
8.9547669e-09
-9.9910384e-05
8.8365081e-09
-9.9910178e-05
3.982477e-09
-9.9909955e-05
5.0141846e-09
-9.9909838e-05
2.4134594e-10
-9.9909698e-05
-2.734451e-09
-9.9909715e-05
-9.9909832e-05
68.704787
-0.055726652
68.126068
-0.061672294
67.525532
-0.068287852
66.900113
-0.075650042
66.24435
-0.08384088
65.549366
-0.09294522
64.801549
-0.10304621
63.98092
-0.11421757
63.059191
-0.12651132
61.997637
-0.13993891
60.74504
-0.15444394
59.236289
-0.16986434
57.392571
-0.1858838
55.124663
-0.20197517
52.34116
-0.21734565
48.963438
-0.23090349
44.947776
-0.24127838
40.311916
-0.24693464
35.158536
-0.24640562
29.68397
-0.23863609
24.161199
-0.22334848
18.894981
-0.20128569
14.161246
-0.17418751
10.153202
-0.14446201
6.954221
-0.11466561
4.5435271
-0.086997406
2.8255357
-0.062979645
1.6669088
-0.043377199
0.9282569
-0.028298677
0.4846449
-0.017380244
0.23520833
-0.009974139
0.1050392
-0.0053071102
0.042678285
-0.0026048668
0.015588376
-0.0011855376
0.0050560938
-0.00051841779
0.0014388717
-0.00024161771
0.00035518921
-0.0001415504
7.5272334e-05
-0.00011041086
1.3585419e-05
-0.00010216049
2.087754e-06
-0.00010031699
2.8749573e-07
-9.9972301e-05
4.5771746e-08
-9.9918511e-05
1.8156726e-08
-9.9911412e-05
9.4731914e-09
-9.9910421e-05
9.345528e-09
-9.9910183e-05
4.2242306e-09
-9.9909981e-05
5.2800987e-09
-9.9909861e-05
2.1151439e-10
-9.9909738e-05
-2.9168632e-09
-9.9909755e-05
-9.9909869e-05
67.802045
-0.050634534
67.212994
-0.056030544
66.601853
-0.062031951
65.965962
-0.068707961
65.30048
-0.076132761
64.59744
-0.084383485
63.84453
-0.093536398
63.023562
-0.1036604
62.108665
-0.11480655
61.064252
-0.12699207
59.843023
-0.14017682
58.384476
-0.15423067
56.614773
-0.16889088
54.449297
-0.18371165
51.799632
-0.1980131
48.58674
-0.21084599
44.761088
-0.22099927
40.327788
-0.22708556
35.370442
-0.22773382
30.062996
-0.22188633
24.658444
-0.20913652
19.450159
-0.1899817
14.714854
-0.16585347
10.657653
-0.13886698
7.3800334
-0.11136719
4.8795372
-0.08545145
3.0748302
-0.062639123
1.8412275
-0.04375915
1.0430005
-0.029018718
0.55539732
-0.018164069
0.27573819
-0.010654644
0.12637174
-0.0058107579
0.052863839
-0.0029283319
0.019940375
-0.0013661049
0.006697571
-0.00060560104
0.0019783135
-0.0002777495
0.00050778697
-0.00015429329
0.0001120254
-0.00011420243
2.1050704e-05
-0.0001031046
3.35662e-06
-0.00010051231
4.6749547e-07
-0.00010000567
6.7364419e-08
-9.9923203e-05
2.0899042e-08
-9.9911951e-05
1.0070057e-08
-9.9910484e-05
9.8082057e-09
-9.991019e-05
4.4726877e-09
-9.9909997e-05
5.5121341e-09
-9.9909871e-05
1.8247054e-10
-9.9909762e-05
-3.0939165e-09
-9.9909779e-05
-9.9909888e-05
66.982755
-0.04632742
66.384684
-0.051259067
65.764264
-0.056741836
65.119175
-0.062838609
64.445106
-0.069616948
63.734862
-0.07714739
62.977236
-0.08550021
62.155572
-0.094739867
61.246064
-0.10491602
60.215826
-0.1160497
59.020943
-0.12811294
57.60494
-0.14100023
55.898392
-0.154491
53.820903
-0.16820426
51.28706
-0.18155141
48.218089
-0.19370038
44.560206
-0.20357422
40.308338
-0.20991553
35.529926
-0.21144555
30.379102
-0.20712231
25.09015
-0.19645021
19.944488
-0.17973435
15.21745
-0.15815024
11.123222
-0.13355735
7.7788754
-0.10810551
5.1986832
-0.08378809
3.3149366
-0.062107504
2.0116377
-0.043937465
1.1570738
-0.029563033
0.62713678
-0.01882046
0.31780393
-0.011258872
0.14912671
-0.0062795897
0.064074872
-0.0032430897
0.024901572
-0.0015497641
0.008641793
-0.00069836953
0.0026438399
-0.00031801063
0.00070425029
-0.00016917476
0.00016146306
-0.00011884526
3.1548218e-05
-0.00010431691
5.2216742e-06
-0.00010077526
7.434428e-07
-0.00010005275
1.0159411e-07
-9.993016e-05
2.4953551e-08
-9.991282e-05
1.0809924e-08
-9.9910618e-05
1.0248152e-08
-9.9910241e-05
4.734613e-09
-9.9910052e-05
5.719068e-09
-9.990992e-05
1.5373162e-10
-9.9909819e-05
-3.2650103e-09
-9.9909834e-05
-9.9909939e-05
66.233971
-0.042641777
65.627957
-0.047176481
64.999347
-0.052216098
64.346117
-0.057818124
63.664405
-0.064044452
62.947686
-0.070959933
62.1857
-0.078629595
61.363118
-0.08711385
60.457922
-0.096460702
59.439568
-0.10669369
58.267101
-0.11779407
56.887587
-0.12967568
55.235543
-0.14215156
53.234441
-0.15489318
50.801806
-0.16738666
47.859584
-0.17889732
44.350907
-0.18846196
40.262432
-0.19493713
35.647838
-0.19713107
30.643695
-0.1940286
25.466888
-0.18507387
20.386696
-0.17042078
15.675469
-0.15103109
11.55412
-0.12854092
8.1531195
-0.10492103
5.501996
-0.082061524
3.5460144
-0.061438395
2.1778166
-0.043955789
1.2699693
-0.029960915
0.69937456
-0.01936449
0.3610455
-0.011791136
0.17309799
-0.0067120219
0.076226709
-0.0035458929
0.030455701
-0.0017339839
0.010897394
-0.0007954751
0.0034461826
-0.00036204048
0.00095088754
-0.00018619476
0.00022618271
-0.00012440229
4.5890197e-05
-0.00010583584
7.8813578e-06
-0.00010112008
1.1536672e-06
-0.00010011733
1.5434243e-07
-9.9940108e-05
3.1042538e-08
-9.9914094e-05
1.1759178e-08
-9.9910788e-05
1.0677849e-08
-9.9910289e-05
5.010714e-09
-9.9910101e-05
5.9086991e-09
-9.9909964e-05
1.2776241e-10
-9.9909873e-05
-3.4276498e-09
-9.9909887e-05
-9.9909986e-05
65.545455
-0.039455853
64.932393
-0.043647766
64.296502
-0.048304837
63.636014
-0.053479926
62.947459
-0.059230033
62.224891
-0.065615065
61.458878
-0.07269543
60.635246
-0.080527861
59.733539
-0.089158591
58.725269
-0.098612769
57.572086
-0.10887872
56.224199
-0.11988567
54.61966
-0.13147389
52.685488
-0.14335775
50.342047
-0.15508534
47.512306
-0.16600367
44.137189
-0.17524676
40.196607
-0.18177124
35.732455
-0.18446627
30.865709
-0.18234987
25.797135
-0.17482684
20.783944
-0.16193167
16.094326
-0.14444697
11.954003
-0.12381331
8.5049262
-0.10183773
5.7905149
-0.080309613
3.7683498
-0.060672108
2.3396076
-0.043848972
1.3813289
-0.030237399
0.77172475
-0.019810436
0.40515403
-0.012256783
0.19809261
-0.007107869
0.089229539
-0.0038344381
0.036578124
-0.0019165986
0.013467744
-0.00089569559
0.0043941298
-0.00040941184
0.0012536985
-0.00020530614
0.00030889091
-0.00013092028
6.4986789e-05
-0.00010769773
1.1572662e-05
-0.00010156181
1.7467018e-06
-0.00010020375
2.3347676e-07
-9.9953985e-05
4.018351e-08
-9.9915925e-05
1.3012968e-08
-9.9911009e-05
1.110714e-08
-9.991033e-05
5.2951173e-09
-9.9910134e-05
6.0821457e-09
-9.9909994e-05
1.0268256e-10
-9.9909909e-05
-3.5812808e-09
-9.9909924e-05
-9.9910017e-05
64.908987
-0.036677352
64.289628
-0.040570579
63.647222
-0.044894446
62.980224
-0.049697787
62.285507
-0.055033342
61.557631
-0.06095669
60.787896
-0.067524145
59.96314
-0.074789097
59.064287
-0.082795985
58.064664
-0.091570925
56.928234
-0.10110773
55.608012
-0.111348
54.045238
-0.12215429
52.170187
-0.13327656
49.905946
-0.14431469
47.176703
-0.15468495
43.921845
-0.16360493
40.115747
-0.17011946
35.790178
-0.17319235
31.052228
-0.17187831
26.087763
-0.16555794
21.142164
-0.1541713
16.478607
-0.13835013
12.326048
-0.11936353
8.8362429
-0.098869016
6.0652449
-0.07855885
3.9822984
-0.059839092
2.4969673
-0.043644836
1.4909076
-0.030413683
0.84388672
-0.020171414
0.44986872
-0.012661644
0.22393432
-0.0074679602
0.10299256
-0.0041072316
0.043238052
-0.0020958228
0.016351499
-0.00099788056
0.0054944206
-0.00045965644
0.0016182228
-0.00022642042
0.00041234073
-0.00013842886
8.9834299e-05
-0.00010993562
1.657195e-05
-0.00010211592
2.5824952e-06
-0.00010031686
3.4925372e-07
-9.9972921e-05
5.3777855e-08
-9.9918525e-05
1.471943e-08
-9.9911322e-05
1.1555036e-08
-9.9910381e-05
5.5862548e-09
-9.9910166e-05
6.2420911e-09
-9.9910022e-05
7.7577297e-11
-9.9909943e-05
-3.7262266e-09
-9.9909957e-05
-9.9910044e-05
64.317868
-0.034235078
63.692851
-0.037865982
63.044583
-0.041897308
62.371712
-0.046374372
61.671418
-0.051346175
60.938709
-0.056864477
60.165528
-0.062981953
59.339615
-0.069748948
58.443117
-0.07720813
57.45098
-0.085386132
56.329229
-0.09428105
55.033403
-0.10384456
53.507629
-0.11395766
51.685181
-0.12440004
49.491737
-0.13481539
46.852831
-0.14467906
43.706828
-0.15328103
40.023551
-0.1597441
35.826017
-0.16310062
31.208929
-0.16244352
26.344392
-0.15714035
21.466302
-0.14705636
16.832214
-0.13269583
12.673019
-0.11517706
9.1488155
-0.096021162
6.3271356
-0.076827463
4.1882491
-0.058962226
2.6499291
-0.043365449
1.5985453
-0.030507497
0.91562948
-0.020459174
0.49497221
-0.013011612
0.25046519
-0.0077938053
0.11742706
-0.0043634396
0.05040055
-0.0022702355
0.019543271
-0.0011009806
0.0067517467
-0.00051228716
0.0020494211
-0.00024941481
0.00053927
-0.00014694051
0.00012150034
-0.00011257837
2.3194598e-05
-0.00010279784
3.7334416e-06
-0.00010046193
5.1472452e-07
-9.9998214e-05
7.3694227e-08
-9.9922135e-05
1.7086574e-08
-9.9911765e-05
1.2046229e-08
-9.9910448e-05
5.8845262e-09
-9.99102e-05
6.3920853e-09
-9.9910053e-05
5.2497444e-11
-9.9909978e-05
-3.8620252e-09
-9.9909993e-05
-9.9910074e-05
63.766579
-0.032073244
63.136451
-0.035472126
62.482879
-0.039244787
61.804687
-0.04343344
61.099321
-0.048083784
60.362193
-0.053244195
59.585819
-0.05896409
58.758743
-0.06529104
57.864205
-0.072265994
56.8786
-0.07991578
55.769811
-0.088241862
54.495653
-0.097204184
53.002882
-0.10669915
51.22754
-0.11653156
49.097762
-0.1263824
46.540505
-0.13577786
43.49351
-0.14407096
39.922844
-0.15045364
35.843939
-0.15402111
31.34041
-0.15390475
26.571663
-0.14946724
21.760515
-0.14051457
17.158484
-0.12744298
12.997327
-0.11123787
9.4442056
-0.093295865
6.5770714
-0.07512787
4.3866015
-0.058058743
2.7985764
-0.043028349
1.7041448
-0.030533606
0.98677794
-0.02068408
0.54028519
-0.013312393
0.2775458
-0.0080873437
0.13244855
-0.0046027506
0.05802826
-0.0024387504
0.023034335
-0.0012040648
0.008168836
-0.00056681679
0.0025515914
-0.00027413954
0.00069234352
-0.00015645118
0.00016110677
-0.00011564992
3.1793505e-05
-0.0001036227
5.285213e-06
-0.00010064458
7.4615308e-07
-0.00010003134
1.0237109e-07
-9.9927045e-05
2.0397651e-08
-9.9912377e-05
1.2611062e-08
-9.9910531e-05
6.1898701e-09
-9.9910234e-05
6.5339453e-09
-9.9910083e-05
2.7265129e-11
-9.9910012e-05
-3.9884687e-09
-9.9910027e-05
-9.9910102e-05
63.250518
-0.030147565
62.615751
-0.033339921
61.957359
-0.036882409
61.274322
-0.040814493
60.564328
-0.045178938
59.823145
-0.050021097
59.043807
-0.055387462
58.215578
-0.061323074
57.322684
-0.067867226
56.342825
-0.075046715
55.24556
-0.082865664
53.990772
-0.091290864
52.527619
-0.10023169
50.794702
-0.10951431
48.722488
-0.11885172
46.239395
-0.12781412
43.282846
-0.13580978
39.815809
-0.14209219
35.847112
-0.14581408
31.450429
-0.14614476
26.773436
-0.14244805
22.028321
-0.13448308
17.460288
-0.12255423
13.301084
-0.10752944
9.7238102
-0.090691772
6.8158697
-0.073468245
4.5777508
-0.05714153
2.9430247
-0.042647407
1.8076551
-0.030504229
1.0572015
-0.020855148
0.58566107
-0.01356934
0.3050545
-0.008350743
0.1479781
-0.0048252471
0.066082812
-0.0026005737
0.026813337
-0.0013063269
0.0097465973
-0.00062277257
0.0031283175
-0.00030042515
0.00087410145
-0.00016694161
0.00020981126
-0.00011916887
4.2756512e-05
-0.0001046049
7.3373281e-06
-0.00010087069
1.0634213e-06
-0.00010007396
1.4293275e-07
-9.99336e-05
2.5036345e-08
-9.9913213e-05
1.328962e-08
-9.9910638e-05
6.5032088e-09
-9.9910267e-05
6.6691805e-09
-9.9910111e-05
1.9565843e-12
-9.9910042e-05
-4.1057881e-09
-9.9910057e-05
-9.9910126e-05
62.765815
-0.028422498
62.12682
-0.031429968
61.46403
-0.034766461
60.776565
-0.038468987
60.062329
-0.042577689
59.317415
-0.047135212
58.53532
-0.052185407
57.705962
-0.057770997
56.814455
-0.063929704
55.839682
-0.070688121
54.752728
-0.07805248
53.515356
-0.085995283
52.078931
-0.09443691
50.384424
-0.10322186
48.364512
-0.11209076
45.949084
-0.12065221
43.075491
-0.12836305
39.70414
-0.1345318
35.838093
-0.13836389
31.542082
-0.13906547
26.952948
-0.13600586
22.272715
-0.12890735
17.74011
-0.11799595
13.586145
-0.10403564
9.9888796
-0.088205679
7.0442815
-0.0718538
4.7620801
-0.056220272
3.0834088
-0.04223366
1.9090589
-0.030429497
1.1268047
-0.0209802
0.63098091
-0.013787392
0.3328861
-0.0085862713
0.16394306
-0.0050313055
0.074525916
-0.0027551649
0.030866945
-0.0014070854
0.011484304
-0.0006797075
0.003782447
-0.00032808943
0.0010869154
-0.00017837896
0.00026878835
-0.00012314815
5.6502847e-05
-0.00010575784
1.0003439e-05
-0.0001011463
1.4904054e-06
-0.00010012791
1.9930994e-07
-9.9942207e-05
3.1508688e-08
-9.9914343e-05
1.4136262e-08
-9.9910778e-05
6.8279864e-09
-9.9910302e-05
6.7996078e-09
-9.9910138e-05
-2.3961805e-11
-9.9910071e-05
-4.2140066e-09
-9.9910086e-05
-9.991015e-05
62.309183
-0.026869153
61.66632
-0.02971025
60.999502
-0.032861423
60.307974
-0.036357484
59.589839
-0.040236221
58.84148
-0.044537839
58.056818
-0.049303795
57.226361
-0.054574688
56.336033
-0.060386743
55.365793
-0.06676624
54.288113
-0.073721082
53.066484
-0.081228565
51.654299
-0.089218477
49.994732
-0.097551124
48.02255
-0.10599118
45.669114
-0.11418086
42.871887
-0.12162003
39.589165
-0.12766652
35.818959
-0.13157404
31.617939
-0.1325842
27.112932
-0.130075
22.496264
-0.12373994
18.000106
-0.11373804
13.854145
-0.10074101
10.240534
-0.085833243
7.2629956
-0.070287587
4.9399551
-0.055302158
3.2198735
-0.041795833
2.0083631
-0.030317765
1.1955195
-0.021065955
0.67614899
-0.013971026
0.36095035
-0.0087961937
0.18027736
-0.0052215094
0.083320201
-0.0029021938
0.035180434
-0.0015057787
0.013379803
-0.00073720794
0.0045160958
-0.00035694357
0.0013329528
-0.00019071875
0.00033921076
-0.00012759505
7.3478787e-05
-0.00010709362
1.3411314e-05
-0.00010147752
2.0553118e-06
-0.00010019516
2.7636279e-07
-9.9953329e-05
4.0469892e-08
-9.9915848e-05
1.5222495e-08
-9.9910962e-05
7.1693996e-09
-9.9910341e-05
6.9264293e-09
-9.9910165e-05
-5.0261347e-11
-9.9910099e-05
-4.3134244e-09
-9.9910114e-05
-9.9910172e-05
61.877812
-0.025463882
61.231398
-0.028154555
60.560877
-0.031138218
59.86561
-0.034447701
59.143879
-0.038118667
58.392332
-0.042189115
57.605276
-0.046698323
56.773756
-0.05168494
55.884434
-0.057183773
54.918255
-0.063220705
53.848963
-0.069804965
52.641632
-0.076917901
51.25153
-0.084497384
49.623883
-0.09241744
47.695438
-0.10046378
45.399008
-0.10830823
42.672319
-0.11548889
39.471926
-0.12140794
35.791407
-0.12536339
31.68015
-0.12663078
27.25571
-0.12459905
22.701179
-0.11893942
18.242163
-0.10975352
14.106532
-0.097631012
10.479781
-0.08356947
7.4726427
-0.068771144
5.1117221
-0.05439254
3.3525683
-0.041340898
2.1055919
-0.030175962
1.2632991
-0.02111819
0.72108877
-0.014124276
0.38917027
-0.0089827112
0.1969215
-0.0053965807
0.092429806
-0.0030415026
0.039738205
-0.0016019554
0.015429728
-0.00079489847
0.0053306724
-0.00038679747
0.0016141509
-0.00020390689
0.00042223169
-0.00013251132
9.4152693e-05
-0.00010862285
1.7702535e-05
-0.00010187043
2.7909649e-06
-0.00010027784
3.8000796e-07
-9.9967491e-05
5.2752928e-08
-9.9917826e-05
1.6641717e-08
-9.9911203e-05
7.5349512e-09
-9.9910383e-05
7.0507908e-09
-9.9910191e-05
-7.6637121e-11
-9.9910125e-05