/*--------------------------------*- C++ -*----------------------------------*\
| =========                 |                                                 |
| \\      /  F ield         | OpenFOAM: The Open Source CFD Toolbox           |
|  \\    /   O peration     | Version:  4.0                                   |
|   \\  /    A nd           | Web:      www.OpenFOAM.org                      |
|    \\/     M anipulation  |                                                 |
\*---------------------------------------------------------------------------*/
FoamFile
{
    version     2.0;
    format      ascii;
    class       volScalarField;
    location    "2000";
    object      T;
}
// * * * * * * * * * * * * * * * * * * * * * * * * * * * * * * * * * * * * * //

dimensions      [0 0 0 1 0 0 0];

internalField   nonuniform List<scalar> 
5000
(
387.06442
380.99878
374.55617
367.79912
360.81124
353.696
346.57333
339.57392
332.83151
326.47374
320.61289
315.33752
310.70648
306.74605
303.45049
300.78569
298.69512
297.10698
295.94146
295.11753
294.5584
294.19559
293.97151
293.84041
293.76815
293.73083
293.71289
293.7049
293.70163
293.70041
293.7
293.69987
293.69984
293.69983
293.69983
293.69983
293.69983
293.69983
293.69983
293.69983
293.69983
293.69983
293.69983
293.69983
293.69983
293.69983
293.69983
293.69983
293.69983
293.69983
401.99933
397.15814
391.96106
386.40372
380.49061
374.23844
367.67969
360.8661
353.87122
346.79132
339.74373
332.86215
326.28854
320.16238
314.60816
309.72293
305.5847
302.21034
299.56706
297.58288
296.15922
295.18541
294.55234
294.16256
293.93622
293.81284
293.75007
293.72043
293.70753
293.70239
293.70053
293.69992
293.69974
293.6997
293.69969
293.69968
293.69968
293.69968
293.69968
293.69968
293.69968
293.69968
293.69968
293.69968
293.69968
293.69968
293.69968
293.69968
293.69968
293.69968
407.62423
403.26484
398.58242
393.56542
388.20616
382.50285
376.46226
370.10297
363.45931
356.58533
349.55839
342.48113
335.48057
328.70304
322.30432
316.43525
311.22514
306.76404
303.09098
300.19088
298.00064
296.42245
295.34045
294.6369
294.20469
293.95498
293.82002
293.7522
293.72072
293.70732
293.70213
293.70031
293.69975
293.69959
293.69955
293.69954
293.69954
293.69954
293.69954
293.69954
293.69954
293.69954
293.69954
293.69954
293.69954
293.69954
293.69954
293.69954
293.69954
293.69954
410.61489
406.51523
402.11257
397.39449
392.35104
386.97603
381.26894
375.23731
368.89995
362.29056
355.46187
348.48934
341.47369
334.54053
327.8358
321.51581
315.73204
310.61286
306.2461
302.6673
299.85709
297.74817
296.23959
295.21396
294.55361
294.1527
293.92438
293.80314
293.74352
293.71658
293.70547
293.70133
293.69994
293.69953
293.69942
293.6994
293.69939
293.69939
293.69939
293.69939
293.69939
293.69939
293.69939
293.69939
293.69939
293.69939
293.69939
293.69939
293.69939
293.69939
412.58619
408.65898
404.44237
399.92395
395.09314
389.94217
384.46758
378.67206
372.56701
366.1757
359.53693
352.70899
345.77309
338.8353
332.02534
325.49079
319.38571
313.85438
309.01284
304.9327
301.63193
299.0753
297.18407
295.85154
294.96017
294.39634
294.06076
293.87395
293.77734
293.73129
293.71121
293.70328
293.70046
293.69957
293.69932
293.69926
293.69925
293.69925
293.69925
293.69925
293.69925
293.69925
293.69925
293.69925
293.69925
293.69925
293.69925
293.69925
293.69925
293.69925
414.03684
410.23715
406.15817
401.78767
397.1149
392.1314
386.83217
381.21729
375.29396
369.07924
362.60331
355.91318
349.07639
342.18381
335.35038
328.71213
322.41818
316.6173
311.44052
306.98342
303.29279
300.36175
298.13457
296.51942
295.40476
294.67535
294.22486
293.96376
293.82271
293.75224
293.71994
293.7065
293.70145
293.69976
293.69926
293.69914
293.69911
293.6991
293.6991
293.6991
293.6991
293.6991
293.6991
293.6991
293.6991
293.6991
293.6991
293.6991
293.6991
293.6991
415.17144
411.47183
407.50088
403.24657
398.69813
393.84675
388.68657
383.21603
377.43967
371.37051
365.03291
358.46608
351.72763
344.89684
338.07637
331.39118
324.98305
318.99977
313.57962
308.83366
304.83016
301.58578
299.06617
297.19534
295.87066
294.97909
294.41109
294.07041
293.87928
293.77977
293.7321
293.71128
293.70307
293.70018
293.69927
293.69903
293.69897
293.69896
293.69895
293.69895
293.69895
293.69895
293.69895
293.69895
293.69895
293.69895
293.69895
293.69895
293.69895
293.69895
416.09643
412.47864
408.59601
404.43672
399.99005
395.24702
390.2012
384.84997
379.19602
373.24953
367.03071
360.57303
353.92667
347.16187
340.37123
333.6699
327.19188
321.08152
315.47989
310.50787
306.2496
302.74095
299.96648
297.86568
296.34605
295.29891
294.61413
294.19124
293.94616
293.81387
293.74793
293.71788
293.70547
293.70088
293.69938
293.69894
293.69884
293.69881
293.69881
293.69881
293.69881
293.69881
293.69881
293.69881
293.69881
293.69881
293.69881
293.69881
293.69881
293.69881
416.87297
413.32404
409.51571
405.43639
401.07542
396.42373
391.47453
386.22443
380.6748
374.8337
368.71824
362.35752
355.79592
349.09647
342.34352
335.64363
329.12338
322.92259
317.18255
312.03025
307.56153
303.82781
300.83014
298.52254
296.82292
295.62822
294.82941
294.32364
294.02217
293.85422
293.76753
293.72647
293.70879
293.70196
293.69961
293.6989
293.69871
293.69867
293.69866
293.69866
293.69866
293.69866
293.69866
293.69866
293.69866
293.69866
293.69866
293.69866
293.69866
293.69866
417.53929
414.04955
410.30511
406.29453
402.00727
397.43421
392.56831
387.40562
381.9465
376.1974
370.173
363.89896
357.41505
350.77843
344.06651
337.37847
330.83396
324.56795
318.72044
313.42199
308.77713
304.84986
301.65553
299.16148
297.29595
295.9621
295.05315
294.46515
294.10603
293.90037
293.79085
293.73715
293.71315
293.70348
293.70001
293.69891
293.6986
293.69853
293.69852
293.69852
293.69851
293.69851
293.69851
293.69851
293.69851
293.69851
293.69851
293.69851
293.69851
293.69851
418.12083
414.68284
410.99424
407.04375
402.82095
398.31668
393.52375
388.43777
383.05833
377.39059
371.4473
365.25135
358.83871
352.26168
345.59183
338.92187
332.36519
326.05181
320.11963
314.70107
309.90704
305.81181
302.44306
299.7803
297.76171
296.29701
295.28233
294.61364
294.19648
293.95172
293.81774
293.74997
293.71862
293.7055
293.7006
293.69898
293.69852
293.6984
293.69837
293.69837
293.69837
293.69837
293.69837
293.69837
293.69837
293.69837
293.69837
293.69837
293.69837
293.69837
418.63534
415.2432
411.60407
407.70684
403.54115
399.09788
394.3697
389.3519
384.04343
378.44844
372.57809
366.45296
360.1059
353.5851
346.95711
340.30899
333.74842
327.40067
321.40099
315.88254
310.9609
306.71868
303.19427
300.37821
298.21815
296.63044
295.51466
294.76732
294.29236
294.00767
293.84797
293.7649
293.72525
293.70809
293.70143
293.69914
293.69845
293.69827
293.69823
293.69822
293.69822
293.69822
293.69822
293.69822
293.69822
293.69822
293.69822
293.69822
293.69822
293.69822
419.09566
415.7446
412.1498
408.30026
404.18574
399.79714
395.12704
390.17046
384.92586
379.39652
373.5923
367.53184
361.24534
354.77748
348.19048
341.5664
335.00777
328.63528
322.58134
316.97896
311.94715
307.57534
303.91119
300.95524
298.66409
296.9607
295.74839
294.92472
294.39263
294.06762
293.88128
293.78189
293.73309
293.71128
293.70252
293.6994
293.69842
293.69815
293.69809
293.69808
293.69808
293.69808
293.69808
293.69808
293.69808
293.69808
293.69808
293.69808
293.69808
293.69808
419.51136
416.19744
412.6427
408.83628
404.76803
400.42887
395.81133
390.91021
385.72356
380.25394
374.51009
368.50904
362.27868
355.86067
349.31345
342.71464
336.16208
329.77216
323.67427
318.00079
312.87312
308.38629
304.596
301.51187
299.09893
297.28662
295.98219
295.08466
294.4964
294.131
293.91739
293.80085
293.74213
293.71512
293.70391
293.69977
293.69843
293.69805
293.69795
293.69793
293.69793
293.69793
293.69793
293.69793
293.69793
293.69793
293.69793
293.69793
293.69793
293.69793
419.88972
416.60964
413.0914
409.32427
405.29817
401.00408
396.43446
391.58396
386.45026
381.03533
375.34695
369.40075
363.22263
356.85163
350.34281
343.76986
337.22633
330.82457
324.69095
318.9568
313.74513
309.1556
305.2509
302.04888
299.52247
297.60744
296.2151
295.24618
294.60289
294.1973
293.956
293.82166
293.75236
293.71962
293.70562
293.70028
293.69848
293.69795
293.69782
293.69779
293.69778
293.69778
293.69778
293.69778
293.69778
293.69778
293.69778
293.69778
293.69778
293.69778
420.23644
416.9874
413.50264
409.77153
405.78411
401.53136
397.00572
392.2017
387.1167
381.75215
376.11502
370.2197
364.09037
357.76373
351.29189
344.74496
338.2126
331.80335
325.64062
319.85436
314.56866
309.88693
305.87799
302.56714
299.93473
297.92268
296.44638
295.40854
294.71147
294.26604
293.99684
293.84419
293.76374
293.72479
293.70767
293.70093
293.69859
293.69787
293.69769
293.69765
293.69764
293.69764
293.69764
293.69764
293.69764
293.69764
293.69764
293.69764
293.69764
293.69764
420.55602
417.33561
413.88174
410.18387
406.23212
402.01751
397.53247
392.77139
387.7314
382.41351
376.82395
370.97604
364.89243
358.60775
352.17145
345.65043
339.13078
332.71747
326.53097
320.69974
315.34843
310.58354
306.47923
303.06759
300.33592
298.23206
296.67553
295.57116
294.8216
294.33681
294.03965
293.86831
293.77624
293.73063
293.71007
293.70174
293.69876
293.69782
293.69756
293.69751
293.69749
293.69749
293.69749
293.69749
293.69749
293.69749
293.69749
293.69749
293.69749
293.69749
420.8521
417.65825
414.23301
410.56596
406.64728
402.46805
398.02067
393.29943
388.30127
383.02677
377.48155
371.67798
365.63734
359.39242
352.99026
346.49486
339.98901
333.57435
327.36852
321.49829
316.08856
311.24833
307.05646
303.55119
300.72634
298.53544
296.90216
295.73355
294.93284
294.40926
294.08419
293.89389
293.78979
293.73715
293.71284
293.70273
293.699
293.69779
293.69745
293.69737
293.69735
293.69735
293.69735
293.69735
293.69735
293.69735
293.69735
293.69735
293.69735
293.69735
421.12766
417.95854
414.55997
410.92161
407.03373
402.88745
398.47516
393.79107
388.83192
383.59796
378.09424
372.33228
366.33214
360.12495
353.75559
347.2854
340.79412
334.38028
328.15876
322.2546
316.79264
311.88389
307.61135
304.01886
301.10633
298.8328
297.12601
295.89536
295.04481
294.48308
294.13023
293.9208
293.80434
293.74432
293.71599
293.70391
293.69931
293.69778
293.69734
293.69723
293.6972
293.6972
293.6972
293.6972
293.6972
293.6972
293.6972
293.6972
293.6972
293.6972
421.38514
418.23915
414.86551
411.25399
407.39492
403.27944
398.89997
394.25064
389.32802
384.13206
378.66731
372.94452
366.98267
360.81136
354.47352
348.02804
341.55187
335.14058
328.90642
322.97265
317.4638
312.49252
308.14543
304.47148
301.47629
299.12417
297.3469
296.05631
295.15722
294.558
294.17757
293.9489
293.81984
293.75214
293.71951
293.70527
293.69972
293.69781
293.69724
293.69709
293.69706
293.69705
293.69705
293.69705
293.69705
293.69705
293.69705
293.69705
293.69705
293.69705
421.62661
418.50232
415.15208
411.56574
407.73369
403.64713
399.29846
394.68177
389.79348
384.63326
379.20521
373.5194
367.59381
361.45669
355.14915
348.72785
342.26712
335.8598
329.61556
323.65588
318.1048
313.07627
308.66009
304.90988
301.8366
299.40964
297.56473
296.21618
295.26981
294.63378
294.22603
293.97809
293.83622
293.76057
293.72342
293.70684
293.70021
293.69787
293.69715
293.69696
293.69692
293.69691
293.69691
293.69691
293.69691
293.69691
293.69691
293.69691
293.69691
293.69691
421.85378
418.74992
415.42172
411.85908
408.05246
403.99312
399.67346
395.08751
390.23157
385.10507
379.71169
374.06088
368.16974
362.06523
355.78684
349.38915
342.94408
336.54185
330.28971
324.30732
318.71809
313.637
309.15662
305.33485
302.18767
299.68931
297.77941
296.3748
295.38237
294.71023
294.27545
294.00826
293.85342
293.76959
293.72769
293.70861
293.7008
293.69797
293.69707
293.69683
293.69677
293.69676
293.69676
293.69676
293.69676
293.69676
293.69676
293.69676
293.69676
293.69676
422.06815
418.98358
415.67616
412.1359
408.3533
404.31966
400.02739
395.47048
390.64512
385.5505
380.18995
374.57236
368.71398
362.64065
356.39032
350.01568
343.58636
337.19015
330.93195
324.92961
319.30583
314.17634
309.63617
305.74712
302.52988
299.96334
297.99093
296.53204
295.49475
294.78719
294.32569
294.0393
293.87137
293.77919
293.73234
293.71059
293.70149
293.69811
293.69701
293.69671
293.69663
293.69662
293.69662
293.69661
293.69661
293.69661
293.69661
293.69661
293.69661
293.69661
422.27095
419.20464
415.91691
412.39783
408.63797
404.62866
400.36232
395.83291
391.03651
385.97212
380.64274
375.05674
369.2296
363.18611
356.96282
350.61064
344.19709
337.80765
331.54496
325.52511
319.86996
314.69579
310.09981
306.14739
302.86363
300.23186
298.19929
296.68782
295.60679
294.86451
294.37663
294.07111
293.89002
293.78932
293.73735
293.71278
293.70228
293.6983
293.69697
293.69659
293.69649
293.69647
293.69647
293.69647
293.69647
293.69647
293.69647
293.69647
293.69647
293.69647
422.46329
419.41431
416.14526
412.64627
408.90798
404.92175
400.68003
396.17672
391.40783
386.37218
381.07245
375.51653
369.71923
363.70435
357.50714
351.17684
344.77902
338.39695
332.13113
326.09589
320.41218
315.19669
310.54851
306.53628
303.18926
300.49505
298.40449
296.84205
295.7184
294.94205
294.42815
294.10362
293.90932
293.79997
293.74271
293.71518
293.70319
293.69853
293.69694
293.69647
293.69635
293.69633
293.69632
293.69632
293.69632
293.69632
293.69632
293.69632
293.69632
293.69632
422.64612
419.61361
416.36232
412.88245
409.16467
405.20039
400.98207
396.5036
391.76089
386.7526
381.48113
375.95394
370.18518
364.19776
358.02571
351.71674
345.33455
338.96035
332.69256
326.64379
320.93405
315.68026
310.98316
306.9144
303.50714
300.75306
298.60657
296.99469
295.82947
295.01973
294.48015
294.13674
293.92922
293.8111
293.74842
293.71779
293.70421
293.69882
293.69693
293.69636
293.69622
293.69618
293.69618
293.69618
293.69618
293.69618
293.69618
293.69618
293.69618
293.69618
422.82025
419.80345
416.56908
413.10742
409.40918
405.46582
401.26981
396.81501
392.09726
387.11507
381.87059
376.37087
370.62946
364.66843
358.5207
352.2325
345.86581
339.49987
333.23112
327.17048
321.43696
316.14759
311.40457
307.2823
303.8176
301.00606
298.80558
297.14572
295.93993
295.09745
294.53255
294.17041
293.94965
293.82268
293.75446
293.72062
293.70534
293.69916
293.69695
293.69626
293.69608
293.69604
293.69603
293.69603
293.69603
293.69603
293.69603
293.69603
293.69603
293.69603
422.98642
419.98461
416.7664
413.32212
409.64254
405.71915
401.54443
397.11224
392.41834
387.4611
382.24244
376.76902
371.05385
365.11823
358.99399
352.72604
346.37469
340.01733
333.74849
327.67744
321.92217
316.59969
311.81348
307.64048
304.12095
301.25422
299.00158
297.2951
296.04973
295.17512
294.58528
294.20456
293.97059
293.8347
293.76081
293.72365
293.70659
293.69955
293.69699
293.69617
293.69595
293.6959
293.69589
293.69588
293.69588
293.69588
293.69588
293.69588
293.69588
293.69588
423.14526
420.15779
416.95504
413.52737
409.86564
405.96134
401.80699
397.39643
392.72535
387.792
382.59807
377.14988
371.45993
365.54878
359.44727
353.19905
346.86287
340.51433
334.24616
328.16601
322.39081
317.03748
312.2106
307.98944
304.41749
301.49769
299.1946
297.44284
296.15881
295.2527
294.63826
294.23912
293.99198
293.84711
293.76747
293.72688
293.70796
293.70001
293.69705
293.69609
293.69582
293.69575
293.69574
293.69574
293.69574
293.69574
293.69574
293.69574
293.69574
293.69574
423.29736
420.32362
417.13567
413.72392
410.07927
406.19328
402.05844
397.66859
393.01938
388.10893
382.93873
377.51479
371.8491
365.96154
359.88205
353.65306
347.33184
340.99233
334.72549
328.63739
322.84391
317.46179
312.59655
308.32961
304.70751
301.73662
299.38473
297.58893
296.26713
295.33011
294.69143
294.27406
294.01378
293.8599
293.77443
293.73031
293.70944
293.70052
293.69714
293.69601
293.69569
293.69561
293.6956
293.69559
293.69559
293.69559
293.69559
293.69559
293.69559
293.69559
423.44321
420.48264
417.30889
413.91242
410.28416
406.41571
402.29959
397.92962
393.3014
388.41294
383.26555
377.86491
372.22259
366.35782
360.29966
354.08941
347.78296
341.45262
335.18769
329.09268
323.28243
317.87338
312.97192
308.66141
304.99127
301.97118
299.57203
297.73337
296.37467
295.40732
294.74474
294.30932
294.03596
293.87304
293.78166
293.73394
293.71105
293.7011
293.69725
293.69595
293.69556
293.69547
293.69545
293.69545
293.69545
293.69545
293.69545
293.69545
293.69545
293.69545
423.58326
420.63536
417.47524
414.09344
410.48093
406.62934
402.5312
398.18033
393.57228
388.70497
383.57951
378.20132
372.58154
366.73879
360.70132
354.50934
348.21744
341.89639
335.63386
329.53289
323.70721
318.27297
313.33725
308.98523
305.26904
302.2015
299.75655
297.87619
296.48141
295.48428
294.79816
294.34486
294.05849
293.88651
293.78916
293.73776
293.71277
293.70174
293.6974
293.69589
293.69544
293.69533
293.6953
293.6953
293.6953
293.6953
293.6953
293.6953
293.6953
293.6953
423.71794
420.7822
417.63521
414.26752
410.67016
406.83477
402.75393
398.42144
393.8328
388.98584
383.88152
378.52497
372.92695
367.1055
361.0881
354.91395
348.63638
342.3247
336.06502
329.95891
324.11905
318.6612
313.69305
309.30143
305.54104
302.42772
299.93837
298.01738
296.58733
295.56096
294.85163
294.38064
294.08132
293.90029
293.79692
293.74176
293.71461
293.70245
293.69757
293.69585
293.69533
293.69519
293.69516
293.69515
293.69515
293.69515
293.69515
293.69515
293.69515
293.69515
423.84759
420.92359
417.78923
414.43513
410.85235
407.03258
402.9684
398.65361
394.08367
389.25633
384.17238
378.83672
373.25972
367.4589
361.46099
355.30424
349.04077
342.73851
336.48207
330.37159
324.51867
319.03868
314.03978
309.61035
305.80751
302.64998
300.11756
298.15698
296.6924
295.63733
294.90512
294.41663
294.10444
293.91436
293.80492
293.74595
293.71656
293.70322
293.69778
293.69582
293.69521
293.69505
293.69502
293.69501
293.69501
293.69501
293.69501
293.69501
293.69501
293.69501
423.97257
421.05987
417.93769
414.59669
411.02798
407.22326
403.17514
398.87742
394.32552
389.51711
384.45283
379.13735
373.58068
367.79985
361.82088
355.68111
349.43153
343.13872
336.88584
330.77168
324.90674
319.40594
314.37787
309.91232
306.06866
302.86842
300.29417
298.295
296.79664
295.71336
294.95861
294.45279
294.12782
293.92868
293.81315
293.7503
293.71863
293.70405
293.69802
293.69581
293.69511
293.69492
293.69487
293.69486
293.69486
293.69486
293.69486
293.69486
293.69486
293.69486
424.09316
421.19137
418.08095
414.7526
411.19745
407.40727
403.37466
399.09341
394.55893
389.7688
384.72353
379.42756
373.89059
368.12913
362.16857
356.04539
349.80947
343.52612
337.27711
331.15987
325.28386
319.7635
314.70773
310.20761
306.32469
303.08315
300.46828
298.43146
296.90003
295.78904
295.01205
294.4891
294.15142
293.94326
293.8216
293.75483
293.72081
293.70495
293.69829
293.69581
293.695
293.69478
293.69473
293.69472
293.69472
293.69472
293.69472
293.69472
293.69472
293.69472
424.20963
421.31839
418.21933
414.9032
411.36117
407.58503
403.56739
399.30207
394.78442
390.01196
384.98508
379.708
374.1901
368.44746
362.50482
356.39783
350.17535
343.90145
337.65657
331.53682
325.65062
320.11185
315.02973
310.49653
306.5758
303.2943
300.63995
298.56639
297.00256
295.86435
295.06544
294.52553
294.17524
293.95806
293.83026
293.75951
293.7231
293.70592
293.69859
293.69582
293.69491
293.69465
293.69458
293.69457
293.69457
293.69457
293.69457
293.69457
293.69457
293.69457
424.32225
421.44121
418.35313
415.04882
411.51947
407.75691
403.75376
399.50384
395.00247
390.24712
385.23803
379.97926
374.47986
368.75548
362.83028
356.73912
350.52986
344.2654
338.02488
331.90312
326.00752
320.45142
315.34423
310.77932
306.82216
303.50197
300.80923
298.69982
297.10425
295.93927
295.11874
294.56206
294.19924
293.97308
293.83911
293.76436
293.7255
293.70695
293.69893
293.69585
293.69481
293.69451
293.69444
293.69443
293.69442
293.69442
293.69442
293.69442
293.69442
293.69442
424.43124
421.56007
418.48263
415.18975
411.67268
407.92326
403.93414
399.69912
395.21353
390.47474
385.4829
380.24187
374.76042
369.0538
363.14559
357.0699
350.87364
344.61858
338.38261
332.25932
326.35506
320.78262
315.65156
311.05624
307.06396
303.70628
300.9762
298.83176
297.20509
296.01379
295.17194
294.59866
294.22342
293.9883
293.84815
293.76935
293.72801
293.70805
293.69931
293.6959
293.69473
293.69438
293.6943
293.69428
293.69428
293.69428
293.69428
293.69428
293.69428
293.69428
424.5368
421.6752
418.60806
415.32627
411.82109
408.0844
404.10887
399.8883
395.41798
390.69525
385.72014
380.49633
375.03232
369.34296
363.45131
357.39074
351.20727
344.96158
338.73033
332.60593
326.69369
321.10583
315.95201
311.32751
307.30134
303.90734
301.1409
298.96225
297.30509
296.0879
295.22502
294.63532
294.24774
294.0037
293.85736
293.77449
293.73062
293.70921
293.69972
293.69596
293.69465
293.69426
293.69416
293.69414
293.69413
293.69413
293.69413
293.69413
293.69413
293.69413
424.63914
421.7868
418.72966
415.45861
411.96497
408.24062
404.27826
400.0717
395.61621
390.90906
385.95018
380.74308
375.29602
369.62346
363.74795
357.70219
351.5313
345.29491
339.06855
332.94341
327.02382
321.42141
316.24589
311.59336
307.53448
304.10524
301.3034
299.09131
297.40425
296.16159
295.27796
294.67202
294.27219
294.01927
293.86674
293.77976
293.73334
293.71044
293.70017
293.69604
293.69458
293.69413
293.69402
293.69399
293.69399
293.69398
293.69398
293.69398
293.69398
293.69398
424.73842
421.89508
418.84763
415.58701
412.10456
408.39219
404.44262
400.24966
395.80855
391.11652
386.1734
380.98255
375.55197
369.89578
364.03602
358.00473
351.84621
345.61908
339.39773
333.27221
327.34586
321.72971
316.53345
311.854
307.7635
304.30008
301.46376
299.21898
297.50257
296.23487
295.33076
294.70875
294.29677
294.03499
293.87628
293.78517
293.73615
293.71174
293.70065
293.69614
293.69451
293.69401
293.69387
293.69385
293.69384
293.69384
293.69384
293.69384
293.69384
293.69384
424.8348
422.00021
418.96218
415.71168
412.24009
408.53936
404.60221
400.42245
395.99531
391.31797
386.39018
381.21512
375.80058
370.16033
364.31594
358.29883
352.15248
345.93454
339.71831
333.59273
327.66017
322.03102
316.81496
312.10961
307.98856
304.49195
301.62202
299.34526
297.60008
296.30772
295.38341
294.74549
294.32145
294.05086
293.88597
293.79071
293.73906
293.7131
293.70117
293.69625
293.69446
293.69389
293.69374
293.6937
293.69369
293.69369
293.69369
293.69369
293.69369
293.69369
424.92845
422.10235
419.07347
415.83281
412.37178
408.68235
404.75727
400.59034
396.17679
391.51373
386.60083
381.44115
376.04222
370.41752
364.58814
358.5849
352.45052
346.24172
340.03071
333.90536
327.96708
322.32565
317.09066
312.36038
308.20979
304.68094
301.77825
299.4702
297.69676
296.38013
295.43589
294.78223
294.34623
294.06687
293.89579
293.79637
293.74206
293.71452
293.70173
293.69638
293.69441
293.69377
293.6936
293.69356
293.69355
293.69355
293.69355
293.69355
293.69355
293.69355
425.0195
422.20166
419.18167
415.95058
412.49982
408.82138
404.90804
400.75359
396.35324
391.70408
386.80569
381.66097
376.27726
370.66771
364.853
358.86335
352.74075
346.54099
340.3353
334.21045
328.26693
322.61386
317.36077
312.60649
308.42731
304.86713
301.93248
299.59381
297.79264
296.45212
295.48819
294.81896
294.37108
294.083
293.90575
293.80215
293.74516
293.716
293.70233
293.69654
293.69437
293.69366
293.69346
293.69341
293.6934
293.6934
293.6934
293.6934
293.6934
293.6934
425.10807
422.29827
419.28694
416.06516
412.62439
408.95665
405.05472
400.91242
396.52493
391.8893
387.00502
381.87488
376.506
370.91124
365.11087
359.13454
353.02352
346.83275
340.63243
334.50834
328.56
322.89593
317.62551
312.84811
308.64125
305.05061
302.08477
299.71612
297.88772
296.52367
295.54031
294.85567
294.39601
294.09925
293.91583
293.80804
293.74834
293.71755
293.70296
293.69671
293.69433
293.69355
293.69332
293.69327
293.69326
293.69325
293.69325
293.69325
293.69325
293.69325
425.1943
422.39232
419.38943
416.17671
412.74567
409.08834
405.19753
401.06705
396.69208
392.06962
387.1991
382.08317
376.72876
371.14844
365.36209
359.39881
353.29919
347.11732
340.92245
334.79933
328.84659
323.17209
317.88507
313.08538
308.85171
305.23145
302.23517
299.83717
297.98201
296.59479
295.59223
294.89234
294.421
294.1156
293.92603
293.81404
293.75161
293.71915
293.70363
293.6969
293.69431
293.69344
293.69318
293.69312
293.69311
293.69311
293.69311
293.69311
293.69311
293.69311
425.27828
422.48393
419.48925
416.28536
412.8638
409.21662
405.33664
401.21768
396.85491
392.24529
387.38818
382.2861
376.94581
371.37961
365.60696
359.65648
353.56808
347.39503
341.20565
335.08372
329.12695
323.44257
318.13965
313.31846
309.05881
305.40973
302.38372
299.95696
298.07552
296.66547
295.64397
294.92897
294.44603
294.13204
293.93634
293.82014
293.75496
293.72082
293.70433
293.69711
293.6943
293.69333
293.69305
293.69298
293.69296
293.69296
293.69296
293.69296
293.69296
293.69296
425.36013
422.57322
419.58654
416.39126
412.97893
409.34164
405.47222
401.36449
397.01362
392.41652
387.57248
382.48393
377.15743
371.60501
365.84577
359.90785
353.83048
347.66618
341.48234
335.36178
329.40133
323.7076
318.38943
313.5475
309.26264
305.58552
302.53048
300.07553
298.16826
296.73572
295.6955
294.96555
294.47112
294.14858
293.94676
293.82634
293.7584
293.72254
293.70508
293.69735
293.69429
293.69323
293.69292
293.69284
293.69282
293.69282
293.69282
293.69282
293.69282
293.69282
425.43994
422.66028
419.68141
416.49453
413.09121
409.46356
405.60443
401.50766
397.16839
392.58351
387.75223
382.67688
377.36384
371.8249
366.0788
360.15319
354.08669
347.93105
341.75278
335.63377
329.66998
323.96737
318.63457
313.77261
309.46332
305.75888
302.67547
300.1929
298.26025
296.80553
295.74683
295.00208
294.49623
294.1652
293.95727
293.83263
293.76191
293.72432
293.70586
293.6976
293.6943
293.69314
293.69278
293.69269
293.69267
293.69267
293.69267
293.69267
293.69267
293.69267
425.51781
422.74522
419.77397
416.59528
413.20075
409.58252
405.73344
401.64735
397.3194
392.74644
387.92763
382.86517
377.5653
372.03954
366.3063
360.39277
354.33697
348.1899
342.01723
335.89993
329.93311
324.22208
318.87524
313.99394
309.66093
305.92988
302.81874
300.3091
298.35148
296.87492
295.79795
295.03855
294.52137
294.18189
293.96787
293.83901
293.76549
293.72616
293.70667
293.69787
293.69431
293.69304
293.69265
293.69255
293.69253
293.69252
293.69252
293.69252
293.69252
293.69252
425.59382
422.82813
419.86432
416.69363
413.30768
409.69863
405.85937
401.78372
397.46682
392.90551
388.09887
383.04901
377.762
372.24913
366.5285
360.62683
354.58156
348.44299
342.27593
336.16049
330.19093
324.47192
319.11159
314.2116
309.85557
306.09859
302.96034
300.42414
298.44198
296.94387
295.84886
295.07495
294.54654
294.19865
293.97856
293.84548
293.76915
293.72805
293.70752
293.69817
293.69434
293.69296
293.69252
293.69241
293.69238
293.69238
293.69238
293.69238
293.69238
293.69238
425.66804
422.90911
419.95256
416.78968
413.41211
409.81204
405.98235
401.9169
397.6108
393.06086
388.26612
383.22857
377.95415
372.45391
366.74563
360.8556
354.8207
348.69054
342.52912
336.41567
330.44364
324.71705
319.34378
314.42571
310.04732
306.26506
303.1003
300.53805
298.53174
297.0124
295.89956
295.11128
294.57172
294.21547
293.98934
293.85203
293.77288
293.72999
293.70841
293.69848
293.69437
293.69287
293.6924
293.69227
293.69224
293.69223
293.69223
293.69223
293.69223
293.69223
425.74056
422.98822
420.03877
416.88353
413.51415
409.92285
406.10252
402.04703
397.75149
393.21267
388.42955
383.40405
378.14194
372.65407
366.9579
361.07929
355.05461
348.93277
342.777
336.66568
330.69142
324.95765
319.57193
314.63637
310.23627
306.42936
303.23865
300.65084
298.62079
297.08051
295.95004
295.14754
294.59691
294.23235
294.00019
293.85866
293.77668
293.73199
293.70933
293.69882
293.69442
293.69279
293.69227
293.69213
293.69209
293.69209
293.69209
293.69209
293.69209
293.69209
425.81145
423.06555
420.12305
416.97526
413.61389
410.03116
406.21999
402.17424
397.88901
393.36107
388.58933
383.57561
378.32555
372.84979
367.16549
361.29812
355.2835
349.1699
343.01978
336.91069
330.93446
325.19386
319.79618
314.84371
310.42249
306.59154
303.37545
300.76255
298.70913
297.1482
296.0003
295.18371
294.6221
294.24929
294.01111
293.86537
293.78055
293.73404
293.71029
293.69917
293.69448
293.69272
293.69214
293.69199
293.69195
293.69194
293.69194
293.69194
293.69194
293.69194
425.88077
423.14117
420.20546
417.06497
413.71143
410.13708
406.33486
402.29864
398.02351
393.5062
388.74559
383.74341
378.50515
373.04126
367.36861
361.51227
355.50756
349.40212
343.25765
337.15091
331.17292
325.42584
320.01665
315.04781
310.60606
306.75165
303.51071
300.87319
298.79678
297.21546
296.05035
295.2198
294.64729
294.26627
294.0221
293.87215
293.78448
293.73613
293.71129
293.69955
293.69454
293.69265
293.69202
293.69185
293.6918
293.69179
293.69179
293.69179
293.69179
293.69179
425.94858
423.21515
420.28608
417.15273
413.80686
410.24071
406.44725
402.42035
398.15509
393.64819
388.89848
383.90759
378.6809
373.22864
367.56741
361.72192
355.72698
349.62961
343.49079
337.38649
331.40696
325.65373
320.23347
315.24877
310.78706
306.90974
303.64448
300.98279
298.88373
297.28232
296.10017
295.2558
294.67248
294.28329
294.03315
293.87899
293.78847
293.73828
293.71231
293.69995
293.69462
293.69258
293.6919
293.69171
293.69166
293.69165
293.69165
293.69165
293.69165
293.69165
426.01494
423.28755
420.36498
417.23862
413.90025
410.34213
406.55725
402.53947
398.28388
393.78717
389.04812
384.0683
378.85293
373.41209
367.76208
361.92725
355.94194
349.85255
343.71938
337.6176
331.63673
325.87767
320.44675
315.44669
310.96555
307.06587
303.77678
301.09135
298.97001
297.34876
296.14978
295.2917
294.69766
294.30034
294.04427
293.8859
293.79252
293.74047
293.71337
293.70037
293.69471
293.69252
293.69178
293.69157
293.69151
293.6915
293.6915
293.6915
293.6915
293.6915
426.07992
423.35844
420.44223
417.32272
413.99169
410.44143
406.66494
402.65609
398.40998
393.92325
389.19465
384.22567
379.02141
373.59175
367.95276
362.12841
356.15258
350.0711
343.94357
337.8444
331.86237
326.09777
320.65659
315.64164
311.1416
307.22008
303.90766
301.19891
299.05562
297.41479
296.19917
295.32752
294.72282
294.31743
294.05544
293.89287
293.79662
293.74271
293.71447
293.70081
293.69482
293.69247
293.69167
293.69143