/*--------------------------------*- C++ -*----------------------------------*\
| =========                 |                                                 |
| \\      /  F ield         | OpenFOAM: The Open Source CFD Toolbox           |
|  \\    /   O peration     | Version:  3.0.1                                 |
|   \\  /    A nd           | Web:      www.OpenFOAM.org                      |
|    \\/     M anipulation  |                                                 |
\*---------------------------------------------------------------------------*/
FoamFile
{
    version     2.0;
    format      ascii;
    class       volScalarField;
    location    "2417";
    object      T;
}
// * * * * * * * * * * * * * * * * * * * * * * * * * * * * * * * * * * * * * //

dimensions      [0 0 0 1 0 0 0];

internalField   nonuniform List<scalar> 
4000
(
369.29188
339.0208
318.72779
306.63716
300.01828
296.63067
294.99485
294.24585
293.91972
293.78445
293.73097
293.71079
293.70353
293.70104
293.70022
293.69996
293.69988
293.69986
293.69986
293.69986
293.69985
293.69985
293.69986
293.69986
293.69986
293.69986
293.69986
293.69986
293.69986
293.69986
293.69986
293.69986
293.69986
293.69986
293.69986
293.69986
293.69986
293.69986
293.69986
293.69987
386.53283
358.76256
335.70378
318.68077
307.4793
300.8109
297.15893
295.2941
294.39813
293.99095
293.81541
293.74351
293.71552
293.70515
293.7015
293.70027
293.69988
293.69976
293.69972
293.69971
293.69971
293.69971
293.69971
293.69971
293.69971
293.69971
293.69971
293.69971
293.69971
293.69971
293.69971
293.69971
293.69971
293.69971
293.69971
293.69971
293.69971
293.69971
293.69972
293.69972
393.43459
367.99067
345.59895
327.4328
314.08173
305.19486
299.7865
296.74149
295.13956
294.34669
293.97596
293.81183
293.74295
293.71552
293.70515
293.70143
293.70016
293.69974
293.69961
293.69958
293.69957
293.69956
293.69956
293.69956
293.69956
293.69956
293.69956
293.69956
293.69956
293.69956
293.69956
293.69956
293.69956
293.69956
293.69956
293.69957
293.69957
293.69957
293.69957
293.69957
397.41307
373.46873
351.94965
333.70362
319.42259
309.19251
302.4693
298.38351
296.06776
294.83537
294.21686
293.92337
293.79153
293.73543
293.71281
293.70415
293.70101
293.69993
293.69957
293.69946
293.69943
293.69942
293.69942
293.69942
293.69942
293.69942
293.69942
293.69942
293.69942
293.69942
293.69942
293.69942
293.69942
293.69942
293.69942
293.69942
293.69942
293.69942
293.69942
293.69943
400.11943
377.23095
356.45071
338.40239
323.72533
312.68333
305.01393
300.07392
297.10305
295.42477
294.53044
294.0798
293.86484
293.76773
293.72617
293.70932
293.70284
293.70048
293.69966
293.69939
293.69931
293.69928
293.69927
293.69927
293.69927
293.69927
293.69927
293.69927
293.69927
293.69927
293.69927
293.69927
293.69927
293.69927
293.69927
293.69927
293.69927
293.69928
293.69928
293.69928
402.12873
380.03774
359.8633
342.07872
327.24796
315.70233
307.35092
301.72676
298.18212
296.08006
294.90244
294.27781
293.96383
293.81424
293.7467
293.71781
293.7061
293.7016
293.69996
293.69939
293.69921
293.69915
293.69913
293.69913
293.69912
293.69912
293.69912
293.69912
293.69912
293.69912
293.69912
293.69912
293.69913
293.69913
293.69913
293.69913
293.69913
293.69913
293.69913
293.69913
403.70591
382.2473
362.57578
345.05899
330.19105
318.32379
309.47204
303.30066
299.26294
296.77188
295.31714
294.51121
294.08732
293.87569
293.77546
293.73044
293.71128
293.70355
293.70059
293.69952
293.69915
293.69903
293.69899
293.69898
293.69898
293.69898
293.69898
293.69898
293.69898
293.69898
293.69898
293.69898
293.69898
293.69898
293.69898
293.69898
293.69898
293.69898
293.69898
293.69899
404.99202
384.0526
364.80628
347.5429
332.69675
320.61958
311.39287
304.78
300.32049
297.47843
295.76028
294.77276
294.23272
293.95182
293.81298
293.74783
293.71883
293.70659
293.70169
293.69984
293.69917
293.69894
293.69886
293.69884
293.69883
293.69883
293.69883
293.69883
293.69883
293.69883
293.69883
293.69883
293.69883
293.69883
293.69883
293.69883
293.69884
293.69884
293.69884
293.69884
406.07038
385.56845
366.68778
349.65874
334.86519
322.64947
313.13597
306.16259
301.3413
298.18471
296.22027
295.05542
294.39671
294.04163
293.85935
293.77038
293.72913
293.71098
293.70341
293.70041
293.69928
293.69888
293.69875
293.6987
293.69869
293.69869
293.69869
293.69869
293.69869
293.69869
293.69869
293.69869
293.69869
293.69869
293.69869
293.69869
293.69869
293.69869
293.69869
293.69869
406.99395
386.86812
368.30654
351.49274
336.76788
324.4609
314.72409
307.45256
302.31915
298.88102
296.68824
295.35299
294.57584
294.14365
293.91427
293.79826
293.74245
293.71695
293.70588
293.70132
293.69954
293.69888
293.69865
293.69857
293.69855
293.69854
293.69854
293.69854
293.69854
293.69854
293.69854
293.69854
293.69854
293.69854
293.69854
293.69854
293.69854
293.69854
293.69855
293.69855
407.79828
388.00095
369.72134
353.1051
338.45703
326.09111
316.17776
308.65668
303.25202
299.56144
297.15775
295.66031
294.76682
294.25624
293.97714
293.83146
293.75898
293.72468
293.70925
293.70266
293.69999
293.69896
293.69859
293.69846
293.69841
293.6984
293.69839
293.69839
293.69839
293.69839
293.69839
293.69839
293.69839
293.69839
293.6984
293.6984
293.6984
293.6984
293.6984
293.6984
408.50827
389.00161
370.97382
354.53929
339.97158
327.56936
317.51469
309.78245
304.14034
300.22257
297.62423
295.9733
294.96671
294.37768
294.04721
293.86977
293.77878
293.73432
293.71364
293.7045
293.70066
293.69914
293.69856
293.69835
293.69828
293.69826
293.69825
293.69825
293.69825
293.69825
293.69825
293.69825
293.69825
293.69825
293.69825
293.69825
293.69825
293.69825
293.69825
293.69825
409.142
389.89531
372.09442
355.82757
341.34115
328.91887
318.74992
310.83724
304.98578
300.86273
298.08459
296.28879
295.17302
294.50635
294.12363
293.91289
293.80183
293.74595
293.71915
293.70692
293.70162
293.69944
293.69858
293.69827
293.69816
293.69812
293.69811
293.6981
293.6981
293.6981
293.6981
293.6981
293.6981
293.6981
293.6981
293.6981
293.6981
293.69811
293.69811
293.69811
409.71295
390.70089
373.10606
356.99447
342.58875
330.15822
319.8961
311.82792
305.79065
301.48129
298.53677
296.60439
295.38367
294.6408
294.20555
293.96042
293.82803
293.75961
293.72586
293.71
293.70291
293.69989
293.69868
293.69821
293.69804
293.69798
293.69796
293.69796
293.69796
293.69795
293.69795
293.69796
293.69796
293.69796
293.69796
293.69796
293.69796
293.69796
293.69796
293.69796
410.23144
391.43276
374.02633
358.05903
343.73251
331.30246
320.9639
312.76068
306.55749
302.07833
298.97948
296.91831
295.59698
294.77971
294.29213
294.01194
293.85721
293.77529
293.73382
293.71378
293.70457
293.70053
293.69885
293.69819
293.69794
293.69785
293.69782
293.69781
293.69781
293.69781
293.69781
293.69781
293.69781
293.69781
293.69781
293.69781
293.69781
293.69781
293.69781
293.69781
410.70551
392.10217
374.86901
359.03626
344.78694
332.36389
321.96233
313.64106
307.28889
302.65432
299.41196
297.22926
295.8116
294.92198
294.38259
294.067
293.88919
293.79295
293.74305
293.71832
293.70664
293.70138
293.69913
293.69821
293.69786
293.69773
293.69768
293.69767
293.69766
293.69766
293.69766
293.69766
293.69766
293.69766
293.69766
293.69767
293.69767
293.69767
293.69767
293.69767
411.14154
392.71808
375.64508
359.93824
345.76384
333.35267
322.89903
314.47395
307.98734
303.21001
299.83383
297.53632
296.02646
295.06665
294.47624
294.12516
293.92373
293.81251
293.75356
293.72365
293.70916
293.70246
293.69952
293.69829
293.6978
293.69762
293.69755
293.69753
293.69752
293.69752
293.69752
293.69752
293.69752
293.69752
293.69752
293.69752
293.69752
293.69752
293.69752
293.69752
411.54468
393.2877
376.36345
360.77475
346.67288
334.27729
323.78053
315.26368
308.65522
303.74624
300.24499
297.83884
296.24074
295.21293
294.57245
294.186
293.96061
293.83386
293.76532
293.72978
293.71215
293.70381
293.70004
293.69843
293.69777
293.69751
293.69742
293.69739
293.69737
293.69737
293.69737
293.69737
293.69737
293.69737
293.69737
293.69737
293.69737
293.69737
293.69738
293.69738
411.91913
393.81691
377.03137
361.55386
347.5221
335.14488
324.61242
316.01409
309.2947
304.26394
300.64548
298.13638
296.45378
295.36017
294.67066
294.24911
293.99958
293.8569
293.77831
293.73673
293.71565
293.70544
293.70072
293.69864
293.69777
293.69743
293.69729
293.69725
293.69723
293.69723
293.69722
293.69722
293.69722
293.69723
293.69723
293.69723
293.69723
293.69723
293.69723
293.69723
412.26835
394.31058
377.65487
362.2823
348.31824
335.9615
325.39953
316.72854
309.9078
304.76405
301.03549
298.42869
296.6651
295.50784
294.77041
294.31415
294.04042
293.8815
293.79247
293.74448
293.71965
293.70736
293.70155
293.69894
293.69781
293.69735
293.69718
293.69711
293.69709
293.69708
293.69708
293.69708
293.69708
293.69708
293.69708
293.69708
293.69708
293.69708
293.69708
293.69708
412.59525
394.7728
378.23899
362.96569
349.06699
336.73232
326.14606
317.41004
310.49638
305.24748
301.41529
298.71559
296.87433
295.65548
294.87127
294.3808
294.08289
293.90753
293.80775
293.75302
293.72417
293.7096
293.70257
293.69932
293.6979
293.6973
293.69707
293.69698
293.69695
293.69694
293.69693
293.69693
293.69693
293.69693
293.69693
293.69693
293.69694
293.69694
293.69694
293.69694
412.90226
395.20698
378.788
363.60883
349.77321
337.46178
326.85564
318.06123
311.06214
305.71513
301.78517
298.99702
297.0812
295.80276
294.97292
294.44874
294.1268
293.93487
293.82408
293.76234
293.72922
293.71217
293.70377
293.69981
293.69804
293.69728
293.69697
293.69685
293.69681
293.69679
293.69679
293.69679
293.69679
293.69679
293.69679
293.69679
293.69679
293.69679
293.69679
293.69679
413.19146
395.61605
379.30552
364.21578
350.44107
338.15374
327.53148
318.6845
311.6066
306.16785
302.14547
299.27298
297.28551
295.94939
295.07504
294.51775
294.17194
293.96337
293.84139
293.7724
293.73478
293.71507
293.70517
293.70041
293.69823
293.69728
293.69689
293.69673
293.69667
293.69665
293.69664
293.69664
293.69664
293.69664
293.69664
293.69664
293.69664
293.69664
293.69664
293.69664
413.46462
396.0025
379.79465
364.79005
351.07418
338.81157
328.1764
319.28195
312.13119
306.60644
302.49655
299.54352
297.48711
296.09513
295.1774
294.58757
294.21813
293.99293
293.85961
293.78317
293.74085
293.71831
293.70678
293.70113
293.69849
293.69732
293.69682
293.69661
293.69654
293.69651
293.6965
293.6965
293.69649
293.69649
293.6965
293.6965
293.6965
293.6965
293.6965
293.6965
413.72328
396.36849
380.25809
365.3347
351.67568
339.43819
328.79288
319.85548
312.63719
307.03166
302.83876
299.80872
297.68592
296.23981
295.27978
294.65803
294.26522
294.02342
293.87866
293.79461
293.74742
293.72188
293.7086
293.70198
293.69882
293.69738
293.69676
293.6965
293.6964
293.69637
293.69635
293.69635
293.69635
293.69635
293.69635
293.69635
293.69635
293.69635
293.69635
293.69635
413.96877
396.71589
380.69816
365.85237
352.24832
340.0362
329.38313
320.40679
313.12576
307.44421
303.17246
300.06866
297.88189
296.38328
295.38201
294.72894
294.31306
294.05473
293.89848
293.80669
293.75447
293.7258
293.71064
293.70295
293.69922
293.69749
293.69673
293.69641
293.69628
293.69623
293.69621
293.6962
293.6962
293.6962
293.6962
293.6962
293.69621
293.69621
293.69621
293.69621
414.20225
397.04635
381.11692
366.34537
352.7945
340.60789
329.94913
320.93741
313.59799
307.84477
303.49798
300.32349
298.07499
296.52545
295.48394
294.80016
294.36152
294.08677
293.91899
293.81936
293.76198
293.73004
293.7129
293.70407
293.6997
293.69764
293.69671
293.69632
293.69615
293.69609
293.69607
293.69606
293.69606
293.69606
293.69606
293.69606
293.69606
293.69606
293.69606
293.69606
414.42474
397.36128
381.51614
366.81576
353.31636
341.15529
330.49264
321.44874
314.05485
308.23396
303.81567
300.57332
298.26521
296.66622
295.58545
294.87156
294.41048
294.11943
293.94013
293.83258
293.76993
293.7346
293.71538
293.70532
293.70027
293.69784
293.69673
293.69624
293.69604
293.69596
293.69593
293.69591
293.69591
293.69591
293.69591
293.69591
293.69591
293.69591
293.69591
293.69591
414.63713
397.66196
381.89742
367.26533
353.81579
341.68022
331.01525
321.94203
314.49725
308.61235
304.12584
300.8183
298.45257
296.80554
295.68645
294.94303
294.45983
294.15264
293.96184
293.84631
293.7783
293.73948
293.71808
293.70671
293.70092
293.69808
293.69676
293.69617
293.69592
293.69582
293.69578
293.69577
293.69577
293.69576
293.69577
293.69577
293.69577
293.69577
293.69577
293.69577
414.84023
397.94951
382.26216
367.6957
354.29448
342.18431
331.51837
322.41842
314.92602
308.98049
304.42881
301.05856
298.63709
296.94336
295.78685
295.01448
294.50949
294.1863
293.98405
293.86051
293.78706
293.74467
293.721
293.70825
293.70166
293.69838
293.69683
293.69612
293.69582
293.69569
293.69564
293.69563
293.69562
293.69562
293.69562
293.69562
293.69562
293.69562
293.69562
293.69562
415.03474
398.22494
382.61162
368.1083
354.75395
342.669
332.00332
322.87895
315.34192
309.33888
304.72487
301.29425
298.81882
297.07966
295.88659
295.08582
294.55938
294.22037
294.0067
293.87514
293.79619
293.75014
293.72413
293.70994
293.70249
293.69873
293.69692
293.69609
293.69572
293.69557
293.69551
293.69548
293.69548
293.69547
293.69547
293.69547
293.69547
293.69548
293.69548
293.69548
415.2213
398.48913
382.9469
368.50442
355.19554
343.13563
332.47124
323.32457
315.74565
309.68799
305.0143
301.5255
298.99779
297.21442
295.98562
295.15698
294.60941
294.25475
294.02976
293.89017
293.80566
293.7559
293.72747
293.71177
293.70341
293.69914
293.69705
293.69607
293.69563
293.69545
293.69537
293.69534
293.69533
293.69533
293.69533
293.69533
293.69533
293.69533
293.69533
293.69533
415.40047
398.74288
383.26902
368.8852
355.62048
343.58538
332.92322
323.75615
316.13786
310.02826
305.29738
301.75246
299.17406
297.34762
296.0839
295.22791
294.65954
294.28941
294.05315
293.90554
293.81546
293.76192
293.73101
293.71374
293.70443
293.69961
293.69721
293.69607
293.69555
293.69533
293.69524
293.6952
293.69519
293.69518
293.69518
293.69518
293.69518
293.69518
293.69518
293.69518
415.57277
398.98692
383.57889
369.25169
356.02988
344.01932
333.36021
324.1745
316.51915
310.36011
305.57435
301.97527
299.34768
297.47927
296.18138
295.29856
294.7097
294.32428
294.07685
293.92124
293.82556
293.76819
293.73475
293.71586
293.70555
293.70014
293.69741
293.69609
293.69548
293.69522
293.6951
293.69506
293.69504
293.69504
293.69504
293.69504
293.69504
293.69504
293.69504
293.69504
415.73866
399.2219
383.87731
369.60483
356.42473
344.43846
333.78312
324.58033
316.89008
310.68392
305.84546
302.19405
299.51871
297.60938
296.27805
295.36889
294.75984
294.35932
294.10082
293.93723
293.83593
293.7747
293.73867
293.71811
293.70677
293.70073
293.69765
293.69613
293.69543
293.69511
293.69497
293.69492
293.6949
293.69489
293.69489
293.69489
293.69489
293.69489
293.69489
293.69489
415.89855
399.44841
384.16504
369.94548
356.80595
344.84367
334.19274
324.97434
317.25116
311.00004
306.11093
302.40893
299.6872
297.73796
296.37389
295.43886
294.80994
294.39449
294.125
293.95348
293.84656
293.78143
293.74278
293.7205
293.70807
293.70138
293.69792
293.6962
293.69538
293.69501
293.69485
293.69478
293.69476
293.69475
293.69474
293.69474
293.69474
293.69475
293.69475
293.69475
416.05284
399.66699
384.44274
370.27441
357.17437
345.23579
334.58983
325.35714
317.60287
311.30883
306.37099
302.62004
299.85322
297.86501
296.46889
295.50844
294.85994
294.42975
294.14937
293.96996
293.85742
293.78837
293.74706
293.72303
293.70948
293.7021
293.69823
293.69629
293.69535
293.69492
293.69473
293.69465
293.69461
293.6946
293.6946
293.6946
293.6946
293.6946
293.6946
293.6946
416.20185
399.87812
384.71103
370.59234
357.53075
345.61556
334.97507
325.7293
317.94566
311.61059
306.62584
302.82751
300.01682
297.99057
296.56304
295.57761
294.90982
294.46507
294.1739
293.98664
293.86849
293.79551
293.75151
293.72568
293.71098
293.70288
293.69859
293.6964
293.69533
293.69483
293.69461
293.69451
293.69447
293.69446
293.69445
293.69445
293.69445
293.69445
293.69445
293.69445
416.34592
400.08225
384.97047
370.89991
357.87579
345.98368
335.3491
326.09138
318.27995
311.90562
306.87568
303.03144
300.17807
298.11464
296.65632
295.64635
294.95955
294.50041
294.19857
294.0035
293.87975
293.80283
293.75611
293.72846
293.71257
293.70373
293.69898
293.69654
293.69533
293.69475
293.69449
293.69438
293.69433
293.69432
293.69431
293.69431
293.69431
293.69431
293.69431
293.69431
416.48533
400.27979
385.22158
371.19772
358.21011
346.34078
335.71249
326.44385
318.60611
312.19421
307.1207
303.23195
300.33701
298.23726
296.74875
295.71464
295.0091
294.53576
294.22333
294.02052
293.89119
293.81032
293.76085
293.73135
293.71425
293.70464
293.69942
293.6967
293.69534
293.69468
293.69438
293.69425
293.69419
293.69417
293.69416
293.69416
293.69416
293.69416
293.69416
293.69416
416.62034
400.47111
385.46483
371.48631
358.53432
346.68745
336.06581
326.78719
318.92452
312.47661
307.36106
303.42915
300.49371
298.35844
296.84033
295.78248
295.05847
294.57108
294.24818
294.03767
293.90278
293.81796
293.76574
293.73436
293.71601
293.70561
293.69991
293.69689
293.69536
293.69462
293.69427
293.69412
293.69406
293.69403
293.69402
293.69402
293.69402
293.69402
293.69402
293.69402
416.7512
400.65657
385.70065
371.7662
358.84896
347.02423
336.40954
327.12182
319.23551
312.75307
307.59693
303.62313
300.64824
298.47822
296.93105
295.84984
295.10762
294.60636
294.27308
294.05494
293.91451
293.82574
293.77076
293.73748
293.71787
293.70664
293.70043
293.69711
293.69541
293.69457
293.69417
293.694
293.69392
293.69389
293.69387
293.69387
293.69387
293.69387
293.69387
293.69387
416.87813
400.83647
385.92944
372.03783
359.15452
347.35162
336.74415
327.44815
319.53941
313.02383
307.82848
303.81401
300.80063
298.59661
297.02092
295.91674
295.15655
294.64158
294.29803
294.07231
293.92638
293.83366
293.77589
293.7407
293.7198
293.70774
293.701
293.69736
293.69547
293.69453
293.69408
293.69387
293.69378
293.69375
293.69373
293.69373
293.69372
293.69372
293.69372
293.69372
417.00135
401.01112
386.15158
372.30166
359.45148
347.6701
337.07009
327.76655
319.83651
313.28911
308.05586
304.00187
300.95095
298.71364
297.10996
295.98315
295.20525
294.67672
294.323
294.08977
293.93835
293.84169
293.78115
293.74403
293.72182
293.7089
293.70161
293.69764
293.69555
293.6945
293.69399
293.69375
293.69365
293.6936
293.69359
293.69358
293.69358
293.69358
293.69358
293.69358
417.12105
401.18077
386.3674
372.55807
359.74026
347.9801
337.38774
328.07737
320.12708
313.54911
308.2792
304.1868
301.09924
298.82934
297.19816
296.04908
295.2537
294.71178
294.34798
294.10729
293.95042
293.84984
293.7865
293.74744
293.72391
293.71011
293.70226
293.69794
293.69565
293.69448
293.69391
293.69364
293.69352
293.69346
293.69344
293.69344
293.69343
293.69343
293.69343
293.69343
417.2374
401.3457
386.57723
372.80743
360.02126
348.28201
337.6975
328.38093
320.41141
313.80404
308.49865
304.3689
301.24557
298.94374
297.28554
296.11453
295.30189
294.74673
294.37295
294.12486
293.96258
293.85808
293.79196
293.75095
293.72608
293.71139
293.70296
293.69827
293.69576
293.69447
293.69383
293.69352
293.69339
293.69333
293.6933
293.69329
293.69329
293.69329
293.69329
293.69329
417.35056
401.50612
386.78135
373.05009
360.29486
348.57622
337.99972
328.67756
320.68972
314.05407
308.71433
304.54825
301.38998
299.05686
297.37211
296.17949
295.34982
294.78157
294.39791
294.14248
293.97481
293.86641
293.79751
293.75453
293.72832
293.71272
293.70369
293.69864
293.6959
293.69447
293.69376
293.69342
293.69326
293.69319
293.69316
293.69315
293.69314
293.69314
293.69314
293.69314
417.4607
401.66226
386.98005
373.28636
360.5614
348.86308
338.29472
328.96753
320.96227
314.29939
308.92637
304.72492
301.53252
299.16872
297.45787
296.24396
295.39749
294.81628
294.42285
294.16013
293.98711
293.87483
293.80314
293.7582
293.73062
293.7141
293.70447
293.69903
293.69606
293.69449
293.6937
293.69331
293.69313
293.69305
293.69302
293.693
293.693
293.693
293.693
293.693
417.56796
401.81432
387.17358
373.51655
360.8212
349.14292
338.58282
329.25111
321.22926
314.54016
309.13489
304.89901
301.67323
299.27935
297.54285
296.30796
295.44488
294.85087
294.44774
294.1778
293.99947
293.88332
293.80885
293.76194
293.73299
293.71554
293.70529
293.69945
293.69623
293.69452
293.69364
293.69321
293.69301
293.69292
293.69288
293.69286
293.69285
293.69285
293.69285
293.69285
417.67247
401.96249
387.36218
373.74094
361.07458
349.41604
338.86431
329.52857
321.49092
314.77654
309.34
305.07057
301.81217
299.38879
297.62704
296.37147
295.492
294.88532
294.47259
294.19548
294.01187
293.89187
293.81463
293.76575
293.73542
293.71702
293.70615
293.6999
293.69643
293.69456
293.6936
293.69312
293.69289
293.69278
293.69273
293.69272
293.69271
293.6927
293.6927
293.6927
417.77436
402.10695
387.54607
373.95977
361.32181
349.68273
339.13946
329.80014
321.74742
315.00869
309.5418
305.23968
301.94937
299.49704
297.71047
296.43451
295.53884
294.91963
294.49738
294.21317
294.02431
293.90048
293.82047
293.76962
293.73791
293.71856
293.70704
293.70038
293.69664
293.69461
293.69356
293.69302
293.69277
293.69265
293.6926
293.69257
293.69256
293.69256
293.69256
293.69256
417.87373
402.24785
387.72546
374.17331
361.56316
349.94326
339.40853
330.06606
321.99898
315.23673
309.7404
305.40641
302.08488
299.60414
297.79314
296.49708
295.58541
294.95379
294.52212
294.23086
294.03678
293.90914
293.82638
293.77355
293.74045
293.72014
293.70797
293.70088
293.69687
293.69468
293.69353
293.69294
293.69265
293.69252
293.69246
293.69243
293.69242
293.69241
293.69241
293.69241
417.97071
402.38537
387.90055
374.38177
361.79888
350.1979
339.67176
330.32653
322.24575
315.46082
309.9359
305.57083
302.21874
299.71012
297.87507
296.55917
295.6317
294.9878
294.54679
294.24853
294.04928
293.91785
293.83233
293.77754
293.74305
293.72177
293.70894
293.70142
293.69713
293.69476
293.6935
293.69286
293.69254
293.69239
293.69232
293.69229
293.69227
293.69227
293.69227
293.69227
418.0654
402.51963
388.07152
374.58537
362.02921
350.44687
339.92939
330.58177
322.48791
315.68108
310.12838
305.73299
302.35099
299.81498
297.95627
296.6208
295.6777
295.02165
294.57139
294.26619
294.0618
293.92659
293.83834
293.78158
293.74569
293.72344
293.70995
293.70198
293.6974
293.69486
293.69349
293.69278
293.69243
293.69226
293.69218
293.69215
293.69213
293.69213
293.69212
293.69212
418.15789
402.65078
388.23854
374.78432
362.25435
350.69041
340.18162
330.83196
322.72562
315.89763
310.31795
305.89297
302.48167
299.91877
298.03675
296.68198
295.72343
295.05535
294.59592
294.28383
294.07432
293.93537
293.84439
293.78567
293.74839
293.72515
293.71099
293.70257
293.6977
293.69497
293.69349
293.69271
293.69232
293.69213
293.69205
293.69201
293.69199
293.69198
293.69198
293.69198
418.24827
402.77895
388.40177
374.9788
362.47453
350.92872
340.42866
331.07728
322.95902
316.11059
310.50467
306.05081
302.61082
300.02149
298.11652
296.7427
295.76888
295.08889
294.62036
294.30144
294.08686
293.94418
293.85049
293.7898
293.75112
293.7269
293.71206
293.70318
293.69801
293.69509
293.69349
293.69265
293.69222
293.69201
293.69191
293.69187
293.69184
293.69184
293.69183
293.69183
418.33663
402.90426
388.56138
375.16899
362.68994
351.16201
340.67071
331.31791
323.18827
316.32007
310.68865
306.20658
302.73847
300.12318
298.1956
296.80297
295.81405
295.12227
294.64473
294.31902
294.0994
293.95301
293.85661
293.79398
293.75389
293.72869
293.71316
293.70382
293.69834
293.69523
293.69351
293.69259
293.69212
293.69189
293.69178
293.69173
293.6917
293.69169
293.69169
293.69169
418.42305
403.02682
388.71749
375.35506
362.90077
351.39047
340.90794
331.55401
323.4135
316.52619
310.86994
306.36032
302.86466
300.22385
298.274
296.86279
295.85895
295.15549
294.669
294.33656
294.11194
293.96186
293.86277
293.79819
293.75671
293.73051
293.7143
293.70448
293.69869
293.69538
293.69353
293.69254
293.69203
293.69177
293.69165
293.69159
293.69156
293.69155
293.69154
293.69154
418.5076
403.14674
388.87026
375.53717
363.10718
351.61428
341.14053
331.78574
323.63484
316.72903
311.04864
306.51209
302.98942
300.32352
298.35172
296.92219
295.90357
295.18855
294.69319
294.35407
294.12447
293.97073
293.86896
293.80243
293.75955
293.73237
293.71546
293.70517
293.69906
293.69554
293.69357
293.6925
293.69194
293.69165
293.69151
293.69145
293.69142
293.69141
293.6914
293.6914
418.59036
403.26412
389.01979
375.71547
363.30934
351.83361
341.36865
332.01325
323.85242
316.92871
311.2248
306.66194
303.11278
300.42222
298.42879
296.98115
295.94792
295.22144
294.71729
294.37154
294.137
293.97961
293.87517
293.80671
293.76244
293.73426
293.71665
293.70588
293.69945
293.69572
293.69361
293.69246
293.69185
293.69154
293.69139
293.69131
293.69128
293.69126
293.69126
293.69126
418.67139
403.37905
389.16623
375.8901
363.50741
352.04862
341.59244
332.23667
324.06635
317.12531
311.3985
306.80992
303.23478
300.51996
298.5052
297.03968
295.992
295.25417
294.7413
294.38896
294.14951
293.9885
293.8814
293.81101
293.76535
293.73618
293.71787
293.70662
293.69986
293.69591
293.69366
293.69243
293.69177
293.69143
293.69126
293.69118
293.69114
293.69112
293.69111
293.69111
418.75076
403.49163
389.30968
376.0612
363.70155
352.25946
341.81207
332.45614
324.27675
317.31892
311.56981
306.95608
303.35545
300.61677
298.58099
297.0978
296.03581
295.28673
294.76522
294.40634
294.16201
293.99739
293.88766
293.81534
293.76829
293.73813
293.71912
293.70738
293.70029
293.69611
293.69373
293.6924
293.69169
293.69132
293.69113
293.69104
293.691
293.69098
293.69097
293.69097
418.82853
403.60195
389.45025
376.2289
363.89188
352.46628
342.02766
332.67179
324.48372
317.50963
311.73879
307.10045
303.47481
300.71265
298.65614
297.1555
296.07936
295.31914
294.78904
294.42367
294.17449
294.00629
293.89393
293.81969
293.77126
293.7401
293.72039
293.70816
293.70073
293.69633
293.6938
293.69238
293.69162
293.69121
293.69101
293.69091
293.69086
293.69084
293.69083
293.69083
418.90476
403.71008
389.58804
376.39331
364.07854
352.66921
342.23936
332.88374
324.68737
317.69752
311.90551
307.24308
303.5929
300.80764
298.73069
297.2128
296.12265
295.35138
294.81277
294.44095
294.18695
294.01519
293.90021
293.82407
293.77425
293.7421
293.72168
293.70895
293.70119
293.69656
293.69388
293.69237
293.69155
293.69111
293.69089
293.69077
293.69072
293.6907
293.69069
293.69068
418.9795
403.8161
389.72316
376.55456
364.26166
352.86839
342.44728
333.09211
324.8878
317.88267
312.07001
307.38402
303.70974
300.90175
298.80462
297.26969
296.16568
295.38346
294.8364
294.45818
294.1994
294.02409
293.9065
293.82846
293.77726
293.74412
293.723
293.70977
293.70166
293.69681
293.69397
293.69237
293.69148
293.69101
293.69077
293.69064
293.69058
293.69056
293.69054
293.69054
419.05281
403.92008
389.8557
376.71274
364.44136
353.06395
342.65156
333.297
325.0851
318.06515
312.23235
307.5233
303.82536
300.99499
298.87797
297.32619
296.20845
295.41538
294.85994
294.47535
294.21181
294.03298
293.9128
293.83287
293.7803
293.74617
293.72433
293.71061
293.70216
293.69707
293.69408
293.69237
293.69142
293.69091
293.69065
293.69051
293.69045
293.69042
293.6904
293.6904
419.12473
404.02211
389.98573
376.86797
364.61776
353.256
342.85231
333.49852
325.27936
318.24504
312.3926
307.66096
303.93978
301.08738
298.95073
297.3823
296.25097
295.44714
294.88338
294.49248
294.22421
294.04187
293.91911
293.83729
293.78335
293.74823
293.72569
293.71147
293.70267
293.69734
293.69419
293.69238
293.69137
293.69082
293.69053
293.69038
293.69031
293.69028
293.69026
293.69026
419.1953
404.12223
390.11336
377.02035
364.79095
353.44465
343.04964
333.69678
325.47067
318.42241
312.5508
307.79704
304.05304
301.17894
299.02292
297.43803
296.29324
295.47874
294.90672
294.50955
294.23658
294.05075
293.92543
293.84173
293.78642
293.75032
293.72707
293.71234
293.70319
293.69762
293.69431
293.6924
293.69132
293.69073
293.69042
293.69026
293.69018
293.69014
293.69012
293.69012
419.26459
404.22052
390.23865
377.16996
364.96106
353.63001
343.24365
333.89187
325.65912
318.59732
312.707
307.93157
304.16516
301.26969
299.09455
297.49338
296.33527
295.51018
294.92997
294.52656
294.24892
294.05962
293.93174
293.84618
293.78951
293.75242
293.72847
293.71324
293.70373
293.69792
293.69444
293.69242
293.69128
293.69065
293.69031
293.69013
293.69004
293.69
293.68998
293.68998
419.33262
404.31704
390.36169
377.3169
365.12817
353.81219
343.43444
334.08389
325.84477
318.76984
312.86126
308.0646
304.27615
301.35963
299.16562
297.54836
296.37705
295.54147
294.95312
294.54352
294.26123
294.06848
293.93807
293.85064
293.79262
293.75454
293.72988
293.71414
293.70428
293.69822
293.69458
293.69245
293.69124
293.69056
293.6902
293.69001
293.68991
293.68986
293.68985
293.68984
419.39943
404.41183
390.48255
377.46125
365.29238
353.99129
343.62212
334.27291
326.02772
318.94002
313.01362
308.19615
304.38605
301.4488
299.23615
297.60297
296.41858
295.57261
294.97618
294.56043
294.27351
294.07733
293.94439
293.85511
293.79573
293.75668
293.73131
293.71507
293.70485
293.69854
293.69474
293.69249
293.6912
293.69048
293.69009
293.68989
293.68978
293.68973
293.68971
293.6897
419.46508
404.50497
390.60129
377.6031
365.45379
354.1674
343.80678
334.45903
326.20803
319.10794
313.16411
308.32625
304.49487
301.53719
299.30615
297.65722
296.45988
295.60359
294.99914
294.57727
294.28576
294.08617
293.95071
293.85958
293.79886
293.75883
293.73275
293.71601
293.70543
293.69887
293.6949
293.69254
293.69118
293.69041
293.68999
293.68977
293.68965
293.68959
293.68957
293.68957
419.52958
404.59649
390.71799
377.74252
365.61247
354.3406
343.9885
334.64234
326.38576
319.27364
313.3128
308.45494
304.60264
301.62482
299.37562
297.71111
296.50095
295.63442
295.02201
294.59406
294.29799
294.095
293.95703
293.86407
293.802
293.76099
293.73421
293.71696
293.70602
293.69922
293.69506
293.69259
293.69115
293.69034
293.68989
293.68965
293.68952
293.68946
293.68944
293.68943
419.59299
404.68646
390.8327
377.87959
365.76851
354.51099
344.16736
334.8229
326.561
319.43718
313.45972
308.58226
304.70938
301.71171
299.44457
297.76466
296.54179
295.6651
295.04478
294.6108
294.31018
294.10381
293.96335
293.86855
293.80515