/*--------------------------------*- C++ -*----------------------------------*\
| =========                 |                                                 |
| \\      /  F ield         | OpenFOAM: The Open Source CFD Toolbox           |
|  \\    /   O peration     | Version:  4.0                                   |
|   \\  /    A nd           | Web:      www.OpenFOAM.org                      |
|    \\/     M anipulation  |                                                 |
\*---------------------------------------------------------------------------*/
FoamFile
{
    version     2.0;
    format      ascii;
    class       volVectorField;
    location    "2000";
    object      U;
}
// * * * * * * * * * * * * * * * * * * * * * * * * * * * * * * * * * * * * * //

dimensions      [0 1 -1 0 0 0 0];

internalField   nonuniform List<vector> 
5000
(
(3.3023862e-05 1.726912e-20 0.013908285)
(0.00011681579 5.3247733e-20 0.040450357)
(0.00024313978 9.431056e-20 0.066736178)
(0.00042792844 1.2620816e-19 0.092361872)
(0.00065119934 1.6289367e-19 0.11689584)
(0.00090264965 1.7127523e-19 0.13989969)
(0.0011696645 1.8189007e-19 0.16095412)
(0.001437807 2.2806459e-19 0.17968836)
(0.0016921646 2.4517363e-19 0.19581005)
(0.0019190707 2.5208282e-19 0.20913205)
(0.0021072353 2.5628606e-19 0.21959193)
(0.0022486396 2.4153277e-19 0.22726099)
(0.0023390349 2.9527575e-19 0.23234039)
(0.0023779489 3.5701809e-19 0.23514439)
(0.0023680443 4.2619251e-19 0.2360723)
(0.0023123824 4.6040787e-19 0.23557267)
(0.002233317 5.0277258e-19 0.23410515)
(0.0021158375 5.5257933e-19 0.23209411)
(0.0019835021 4.242556e-19 0.22990135)
(0.0018401094 1.4408411e-19 0.22780207)
(0.0016923504 2.6512772e-19 0.2259751)
(0.001545048 1.5288606e-19 0.22450707)
(0.0014015099 0 0.22340851)
(0.001263421 -1.0982133e-19 0.22263739)
(0.0011313493 -1.8704455e-19 0.22212447)
(0.0010051532 -2.4685478e-19 0.221795)
(0.00088442309 -2.5129864e-19 0.22158352)
(0.00076880333 -2.181785e-19 0.22144074)
(0.00065816765 -3.4757992e-19 0.22133423)
(0.00055265969 -2.9974508e-19 0.22124522)
(0.00045264788 -2.5078299e-19 0.22116437)
(0.00035864267 -3.8660008e-19 0.22108779)
(0.00027121316 -3.3934571e-19 0.22101443)
(0.00019091665 -3.2143943e-19 0.22094439)
(0.00011826587 -3.379351e-19 0.2208782)
(5.4141434e-05 -3.9755139e-19 0.2208165)
(2.1794502e-05 -5.1279087e-19 0.22075746)
(-3.2843222e-06 -4.2242238e-19 0.2207016)
(-5.0052752e-05 -3.919705e-19 0.22065078)
(-8.6943581e-05 -3.3982836e-19 0.22060529)
(-0.00011602439 -5.1082503e-19 0.22056582)
(-0.00013477466 -4.8137923e-19 0.22053123)
(-0.00014652328 -4.8912564e-19 0.22050223)
(-0.00014874393 -4.8963869e-19 0.22047722)
(-0.00014503819 -4.3063326e-19 0.22045719)
(-0.00013299355 -3.9603975e-19 0.22044017)
(-0.00011624704 -3.7139666e-19 0.22042754)
(-9.2650122e-05 -3.3873574e-19 0.22041706)
(-6.5738187e-05 -3.2541371e-19 0.22041081)
(-3.4110576e-05 -3.2303973e-19 0.22040403)
(2.042303e-05 1.1835397e-20 0.012459103)
(3.3702769e-05 3.5874701e-20 0.03671555)
(0.00010548113 6.2142301e-20 0.06133834)
(0.00018706383 8.8346588e-20 0.08606633)
(0.00028816749 1.1655213e-19 0.11058398)
(0.00040275875 1.3724199e-19 0.13452117)
(0.00052119191 1.4941202e-19 0.1574585)
(0.00063053882 1.8268971e-19 0.17893966)
(0.00071605201 1.9340959e-19 0.19849263)
(0.00076195919 1.8284178e-19 0.2156603)
(0.00075350508 1.7445551e-19 0.23003945)
(0.00067947127 1.6782466e-19 0.24132497)
(0.0005348232 1.9007937e-19 0.24935365)
(0.00032366215 2.1512081e-19 0.2541404)
(6.7580173e-05 2.5194192e-19 0.25589835)
(-0.00011390228 2.9617284e-19 0.25503435)
(-0.00028790273 3.0615332e-19 0.25213699)
(-0.00058520522 2.6670722e-19 0.24790967)
(-0.00088141605 2.7109352e-19 0.24306088)
(-0.0011422478 2.4632907e-19 0.23821015)
(-0.001349323 1.297111e-19 0.23382013)
(-0.00149386 -1.1510394e-20 0.23016589)
(-0.0015753733 -7.5547846e-20 0.22734387)
(-0.0016000096 -1.4354532e-19 0.22531085)
(-0.0015781408 -2.1854523e-19 0.22393726)
(-0.0015218096 -2.7623875e-19 0.22305918)
(-0.001442587 -3.3044279e-19 0.22251843)
(-0.0013501869 -5.0124039e-19 0.22218606)
(-0.0012519008 -3.3525964e-19 0.22197032)
(-0.0011526946 -3.4212061e-19 0.22181363)
(-0.0010556828 -4.8629896e-19 0.22168409)
(-0.00096272823 -5.3761356e-19 0.22156632)
(-0.00087485524 -3.7009582e-19 0.22145409)
(-0.00079286846 -3.322472e-19 0.22134556)
(-0.00071541694 -3.4282311e-19 0.22124053)
(-0.0006510197 -4.0927772e-19 0.22113982)
(-0.00058883551 -5.7583807e-19 0.221043)
(-0.00052278084 -4.3684956e-19 0.22094883)
(-0.0004710836 -3.9021765e-19 0.22086048)
(-0.0004240726 -3.491551e-19 0.22077875)
(-0.00038258194 -4.5789164e-19 0.2207046)
(-0.00034303578 -4.86048e-19 0.22063788)
(-0.00030703512 -4.9001233e-19 0.22057915)
(-0.00027075496 -4.7677628e-19 0.22052772)
(-0.00023618296 -4.2975865e-19 0.22048417)
(-0.00019956446 -3.9677959e-19 0.2204473)
(-0.00016342622 -3.709354e-19 0.2204181)
(-0.00012392431 -3.3929979e-19 0.22039448)
(-8.5071746e-05 -3.249937e-19 0.2203792)
(-4.0973304e-05 -3.2311558e-19 0.22036369)
(2.1691724e-05 -2.5650276e-20 0.013486725)
(-2.1235936e-06 -7.7221114e-20 0.03978992)
(-2.1373116e-05 -1.325983e-19 0.066543142)
(-5.1573592e-05 -1.8302469e-19 0.093473428)
(-9.6220609e-05 -2.4078668e-19 0.12025076)
(-0.00015729729 -2.9711875e-19 0.1464865)
(-0.00023650884 -3.6429329e-19 0.17173545)
(-0.00033551608 -4.4608459e-19 0.19550337)
(-0.00045599987 -5.0834993e-19 0.21726204)
(-0.00059967995 -4.7658641e-19 0.23647412)
(-0.00076822116 -5.0028342e-19 0.25262931)
(-0.00096280654 -4.8171685e-19 0.26529209)
(-0.0011836538 -2.2702061e-19 0.27415813)
(-0.0014304299 -5.0261469e-21 0.27911287)
(-0.0017059465 2.1860731e-19 0.28028076)
(-0.0019852639 4.1780674e-19 0.27805128)
(-0.0022717035 6.7560365e-19 0.27306507)
(-0.002549355 4.900152e-19 0.26615469)
(-0.0028005928 6.4101665e-19 0.25823628)
(-0.0030072815 6.3561652e-19 0.25018661)
(-0.0031538549 4.9441086e-19 0.24272623)
(-0.0032301214 1.1879851e-19 0.23634308)
(-0.0032331139 -5.109147e-20 0.23127055)
(-0.0031673918 -1.5675254e-19 0.2275168)
(-0.0030437643 -2.7000473e-19 0.22492828)
(-0.0028769091 -3.5140454e-19 0.22326499)
(-0.0026826146 -4.4191782e-19 0.22226795)
(-0.0024753583 -4.2050413e-19 0.22170692)
(-0.0022667076 -3.1152635e-19 0.22140451)
(-0.0020647072 -4.3993168e-19 0.22124024)
(-0.0018740864 -6.9729149e-19 0.22114162)
(-0.0016970219 -2.6268895e-19 0.2210701)
(-0.0015337741 -3.4529295e-19 0.22100778)
(-0.0013847634 -3.3284304e-19 0.22094759)
(-0.0012457807 -3.4032601e-19 0.2208871)
(-0.0011198113 -3.7097583e-19 0.22082597)
(-0.0010071467 -2.1931413e-19 0.22076579)
(-0.00089805869 -4.4873264e-19 0.22070635)
(-0.00079961875 -6.5686691e-19 0.22064765)
(-0.00070798443 -3.5183182e-19 0.22059029)
(-0.00062430345 -2.7035908e-19 0.22053545)
(-0.00054561231 -4.8348773e-19 0.22048351)
(-0.0004737153 -4.9934633e-19 0.22043548)
(-0.00040515092 -7.1491948e-19 0.22039133)
(-0.00034212169 -4.3720282e-19 0.22035233)
(-0.00028042497 -3.9380409e-19 0.22031771)
(-0.00022339443 -2.3697668e-19 0.22028966)
(-0.00016463272 -3.3482722e-19 0.22026537)
(-0.00011192335 -1.3444061e-19 0.22025043)
(-5.1720441e-05 -3.2105307e-19 0.22023128)
(2.5828995e-06 -7.8696769e-20 0.014497759)
(-5.3346762e-06 -2.3771756e-19 0.042830284)
(-2.3727941e-05 -3.9770365e-19 0.071715148)
(-5.6574647e-05 -5.8752716e-19 0.10086985)
(-0.00010650156 -7.9822052e-19 0.12994955)
(-0.00017603647 -9.7756258e-19 0.1585439)
(-0.000267693 -1.0020691e-18 0.18617711)
(-0.00038390459 -9.4821479e-19 0.21231307)
(-0.00052691244 -8.9437282e-19 0.23636773)
(-0.00069862227 -8.3385469e-19 0.25773141)
(-0.00090042818 -7.8849967e-19 0.27580329)
(-0.0011329749 -7.5457532e-19 0.29003978)
(-0.0013958051 -8.1682507e-19 0.30001586)
(-0.0016868803 -8.1959593e-19 0.30549446)
(-0.0020025417 -5.719227e-19 0.30649376)
(-0.0023355274 -4.5518578e-19 0.30333585)
(-0.0026757658 -3.832829e-19 0.29665699)
(-0.0030093264 -3.7108377e-19 0.28736412)
(-0.0033190601 -3.7468897e-19 0.2765338)
(-0.0035860979 1.4011062e-19 0.26526933)
(-0.0037923759 1.323567e-19 0.25454904)
(-0.0039236355 2.9171101e-20 0.24510505)
(-0.0039720435 -7.8312338e-20 0.23736124)
(-0.0039376156 -1.6085221e-19 0.23143831)
(-0.00382802 -3.4622497e-19 0.22721302)
(-0.0036568773 -5.2191517e-19 0.22440654)
(-0.0034411037 -7.9468331e-19 0.22267576)
(-0.0031980478 -9.8011074e-19 0.22168741)
(-0.0029431161 -9.6563354e-19 0.22116476)
(-0.0026883426 -6.7578567e-19 0.22090606)
(-0.0024419732 -7.3377208e-19 0.22078112)
(-0.002208969 -2.9395702e-19 0.22071562)
(-0.001991285 -3.2142482e-19 0.22067224)
(-0.0017907907 -3.3042438e-19 0.22063486)
(-0.0016057236 -3.2289927e-19 0.22059765)
(-0.001434907 -2.9533646e-19 0.22055867)
(-0.0012811505 7.7525642e-20 0.22051908)
(-0.0011384538 -6.757333e-19 0.22047981)
(-0.0010089256 -6.208798e-19 0.22044037)
(-0.00088959057 -3.3485349e-19 0.2204011)
(-0.00078101724 -9.443011e-21 0.22036287)
(-0.00067986316 -4.4673123e-19 0.22032597)
(-0.0005875208 -2.3098624e-19 0.22029119)
(-0.00050002286 -6.8583953e-19 0.22025837)
(-0.0004200027 -4.3985151e-19 0.22022892)
(-0.00034182711 -3.1951562e-19 0.22020157)
(-0.0002712606 -2.4620975e-19 0.22017974)
(-0.00019765658 -3.3084263e-19 0.22015887)
(-0.00013466521 -1.4242459e-19 0.22014744)
(-6.190928e-05 -3.1901697e-19 0.22012775)
(2.2192607e-06 -2.836341e-20 0.015375677)
(-4.7260282e-06 -8.682674e-20 0.045477821)
(-2.1099256e-05 -1.4996784e-19 0.076231747)
(-5.0519382e-05 -2.419619e-19 0.10735053)
(-9.5524469e-05 -3.4317658e-19 0.13848131)
(-0.00015866384 -4.5881643e-19 0.16920074)
(-0.00024259041 -5.2752751e-19 0.1990133)
(-0.00035002064 -4.6959464e-19 0.22735411)
(-0.00048364704 -3.4486893e-19 0.25359863)
(-0.00064600931 -3.7465049e-19 0.27708187)
(-0.00083931449 -3.5623908e-19 0.29713016)
(-0.0010651908 -3.119987e-19 0.31310786)
(-0.0013243504 -5.7463371e-19 0.32447977)
(-0.0016161262 -8.7831443e-19 0.33088644)
(-0.001937904 -9.2798599e-19 0.33222382)
(-0.0022843679 -8.7441231e-19 0.32871169)
(-0.0026467888 -9.2211215e-19 0.32092939)
(-0.0030124889 -5.6338402e-19 0.30979681)
(-0.0033648986 -3.333087e-19 0.29648822)
(-0.0036845623 -5.0820489e-20 0.28228605)
(-0.0039512509 -2.1768758e-20 0.26840468)
(-0.004146907 -2.3694214e-19 0.25582888)
(-0.0042587123 -2.542566e-19 0.24520788)
(-0.0042813836 -3.3850967e-19 0.23682601)
(-0.0042180147 -5.0254055e-19 0.23064486)
(-0.0040792438 -7.284291e-19 0.22639353)
(-0.0038810372 -1.0943135e-18 0.22367619)
(-0.0036417354 -1.6382363e-18 0.22207031)
(-0.0033791357 -1.527786e-18 0.22119824)
(-0.0031082804 -9.7747964e-19 0.22076562)
(-0.0028402922 -8.0029751e-19 0.22056963)
(-0.0025824842 -6.8046863e-19 0.2204864)
(-0.0023383715 -3.9880073e-19 0.22044918)
(-0.0021100929 -3.269317e-19 0.22042655)
(-0.0018980725 -3.0983328e-19 0.22040593)
(-0.0017003001 -2.5335484e-19 0.22038291)
(-0.0015187111 -6.1385315e-20 0.22035726)
(-0.0013501146 -8.6256271e-19 0.22033008)
(-0.001195323 -3.3898593e-19 0.22030115)
(-0.0010520406 -3.000329e-19 0.22027093)
(-0.00092109814 -1.2881563e-20 0.22024041)
(-0.0007992762 -4.0521949e-19 0.22021009)
(-0.00068831875 -1.253057e-19 0.22018098)
(-0.00058347142 -5.3692649e-19 0.22015282)
(-0.00048869855 -4.3513518e-19 0.22012759)
(-0.00039564254 -2.9580868e-19 0.22010317)
(-0.0003138054 -3.8618376e-19 0.22008449)
(-0.00022710134 -3.3197516e-19 0.22006506)
(-0.00015471215 -3.4195418e-19 0.22005535)
(-7.1403655e-05 -3.194832e-19 0.22003492)
(1.9531897e-06 1.2065007e-20 0.016139993)
(-4.1489426e-06 3.7312822e-20 0.047787327)
(-1.8586029e-05 5.678551e-20 0.080179095)
(-4.4609078e-05 7.4910314e-20 0.11302662)
(-8.4559181e-05 9.755473e-20 0.14597273)
(-0.00014083733 7.5858386e-20 0.17858621)
(-0.00021600082 -3.2932684e-20 0.21035867)
(-0.00031274631 -1.3193152e-19 0.24070556)
(-0.0004338529 -1.9816889e-19 0.2689734)
(-0.00058208923 -2.3848569e-19 0.29445615)
(-0.00076007321 -2.1663926e-19 0.31642383)
(-0.0009700657 -3.512698e-19 0.33416643)
(-0.0012136726 -4.8598322e-19 0.34705511)
(-0.0014914236 -6.5596137e-19 0.35461953)
(-0.001802202 -6.2258846e-19 0.35663501)
(-0.0021425159 -4.8568737e-19 0.35320583)
(-0.0025056768 -2.9366608e-19 0.34482306)
(-0.0028810606 -2.4839526e-20 0.33237145)
(-0.003253778 5.0148245e-19 0.31706541)
(-0.0036051574 5.8953394e-19 0.30031128)
(-0.0039143404 5.234899e-19 0.2835195)
(-0.0041609374 4.2733066e-20 0.26791163)
(-0.0043282254 -2.0282039e-19 0.25437249)
(-0.0044060377 -3.6269207e-19 0.24338128)
(-0.0043925142 -6.0427459e-19 0.23502753)
(-0.0042942265 -8.569435e-19 0.22909257)
(-0.0041246914 -1.1169451e-18 0.22516469)
(-0.0039017248 -1.3216647e-18 0.22275598)
(-0.0036443466 -1.318797e-18 0.22139742)
(-0.0033699975 -1.0775178e-18 0.22069959)
(-0.0030926029 -8.0089535e-19 0.22037747)
(-0.0028220258 -6.1061424e-19 0.22024612)
(-0.0025639184 -4.5563331e-19 0.22019946)
(-0.0023210044 -3.2246108e-19 0.22018396)
(-0.0020947411 -2.9576102e-19 0.22017633)
(-0.0018835868 -2.4358214e-19 0.22016786)
(-0.0016882205 -1.5425189e-19 0.22015641)
(-0.00150641 -7.3940165e-19 0.22014239)
(-0.0013382968 -3.638422e-19 0.22012557)
(-0.0011815485 -1.7396947e-19 0.22010627)
(-0.0010371172 -3.1256358e-20 0.22008537)
(-0.00090154411 -3.7588094e-19 0.22006329)
(-0.00077749725 -1.8462863e-19 0.22004126)
(-0.00065892998 -4.6914961e-19 0.2200187)
(-0.00055241303 -4.3319288e-19 0.21999841)
(-0.00044610245 -3.617344e-19 0.21997728)
(-0.00035421549 -3.8036913e-19 0.21996185)
(-0.00025561467 -3.3281722e-19 0.21994418)
(-0.00017390711 -3.4359881e-19 0.2199359)
(-8.0675571e-05 -3.1998741e-19 0.21991486)
(1.7564016e-06 3.7261899e-20 0.016824722)
(-3.7400196e-06 1.0949579e-19 0.049858031)
(-1.6780407e-05 1.8048491e-19 0.083721125)
(-4.0325881e-05 2.7337801e-19 0.11812467)
(-7.6539316e-05 3.7734373e-19 0.15270891)
(-0.00012766218 4.1283845e-19 0.1870373)
(-0.00019610934 4.0410619e-19 0.22059234)
(-0.00028446487 2.7357661e-19 0.25277504)
(-0.00039544438 1.2463496e-19 0.28291022)
(-0.00053182872 1.4585474e-19 0.31026037)
(-0.00069635763 1.1515918e-19 0.33405133)
(-0.00089156565 9.4601606e-20 0.35351322)
(-0.0011195367 4.615714e-20 0.36793933)
(-0.0013815434 -1.5972918e-20 0.37676324)
(-0.0016775379 -3.5983302e-19 0.37964997)
(-0.0020054711 -2.3650161e-20 0.37658934)
(-0.0023604688 3.3556329e-19 0.36797148)
(-0.0027339858 2.9157089e-19 0.35461741)
(-0.0031132066 4.5375847e-19 0.33773928)
(-0.0034810837 8.5369478e-19 0.31881878)
(-0.0038173932 8.0191468e-19 0.2994184)
(-0.0041009354 2.1116556e-19 0.2809674)
(-0.0043125714 -1.4550863e-19 0.26457789)
(-0.004438373 -3.8666574e-19 0.25093623)
(-0.0044720134 -6.0614443e-19 0.24028747)
(-0.0044157392 -7.3660865e-19 0.23250029)
(-0.0042797008 -7.2180962e-19 0.22718164)
(-0.0040798719 -4.1902233e-19 0.22380562)
(-0.0038351273 -6.1859751e-19 0.2218283)
(-0.0035642118 -1.0729977e-18 0.2207703)
(-0.0032832403 -1.0958367e-18 0.22026054)
(-0.0030044112 -3.46001e-19 0.22004449)
(-0.0027356512 -4.2805695e-19 0.21996757)
(-0.0024810078 -2.3119975e-19 0.21994704)
(-0.0022427595 2.0287401e-19 0.21994441)
(-0.0020203255 -1.8203382e-19 0.21994433)
(-0.0018139333 -1.7441324e-19 0.21994204)
(-0.0016217983 -3.6143256e-19 0.219937)
(-0.0014438973 -5.6649991e-19 0.21992896)
(-0.0012776693 -1.3173317e-19 0.21991815)
(-0.0011242799 -5.3294232e-20 0.21990537)
(-0.00097941402 -3.6434208e-19 0.21989085)
(-0.00084701632 -3.5855315e-19 0.21987597)
(-0.00071875054 -5.6597345e-19 0.21985958)
(-0.00060440825 -4.3929144e-19 0.21984517)
(-0.00048806947 -4.8722257e-19 0.21982854)
(-0.00038849533 -2.4292029e-19 0.21981728)
(-0.00028046709 -3.2977543e-19 0.21980261)
(-0.0001907489 -1.8644381e-19 0.21979638)
(-8.9130103e-05 -3.1852468e-19 0.21977541)
(1.6021217e-06 1.5954381e-20 0.017446958)
(-3.4132327e-06 4.7244739e-20 0.0517409)
(-1.533327e-05 8.0060579e-20 0.086943769)
(-3.6882291e-05 1.4056015e-19 0.12276623)
(-7.0069315e-05 1.9917961e-19 0.15884697)
(-0.00011699114 2.7250497e-19 0.1947457)
(-0.00017992407 3.5884204e-19 0.22993814)
(-0.00026132702 3.3661184e-19 0.2638142)
(-0.00036381682 3.1338863e-19 0.29568173)
(-0.00049011917 4.43744e-19 0.32477816)
(-0.0006429866 6.3059346e-19 0.35029362)
(-0.00082506772 8.2220266e-19 0.371409)
(-0.0010387047 1.0694802e-18 0.38735217)
(-0.0012856284 9.8343526e-19 0.39747386)
(-0.0015665138 4.9667606e-19 0.40134035)
(-0.0018803666 1.7495687e-19 0.39883365)
(-0.0022237403 1.8173651e-19 0.39024044)
(-0.0025898649 -3.0976045e-19 0.37630297)
(-0.0029678947 -7.3724892e-19 0.35820302)
(-0.0033426258 -5.3515128e-19 0.33745997)
(-0.0036950892 -1.1930899e-19 0.3157489)
(-0.0040042696 -6.8373345e-21 0.29467467)
(-0.0042498271 -1.9915548e-19 0.27555908)
(-0.0044152541 -3.6321815e-19 0.25929527)
(-0.0044906393 -5.755075e-19 0.24629857)
(-0.0044742882 -6.8766301e-19 0.23654991)
(-0.0043727991 -7.1756081e-19 0.22970352)
(-0.0041996293 -4.62682e-19 0.22522193)
(-0.0039725555 -1.3928076e-19 0.2225058)
(-0.0037106664 -7.4100502e-19 0.22099594)
(-0.0034315449 -7.3580944e-19 0.22023653)
(-0.0031493315 -1.4552444e-19 0.21989847)
(-0.0028739877 -3.2969589e-19 0.21977111)
(-0.0026111483 -2.0066065e-19 0.21973543)
(-0.0023639162 1.0195736e-19 0.21973262)
(-0.0021325682 -7.6724334e-20 0.21973771)
(-0.001917309 1.5043808e-19 0.21974197)
(-0.001716546 -8.0429678e-20 0.21974343)
(-0.0015303715 -4.8807417e-19 0.21974161)
(-0.0013559218 -1.2304328e-19 0.21973667)
(-0.0011950088 -5.5012054e-20 0.21972954)
(-0.0010420994 -4.97013e-20 0.21972023)
(-0.00090306184 -9.0649908e-19 0.2197105)
(-0.00076670981 -8.6023976e-19 0.21969861)
(-0.00064635773 -4.5426849e-19 0.21968872)
(-0.00052208983 -4.8064842e-19 0.21967582)
(-0.00041638414 -2.5342905e-19 0.21966802)
(-0.00030103553 -3.2718909e-19 0.21965621)
(-0.00020463541 -2.0194338e-19 0.21965181)
(-9.6391533e-05 -3.1689733e-19 0.21963109)
(1.4780266e-06 -4.2145175e-20 0.018019213)
(-3.1493859e-06 -1.2103656e-19 0.053473267)
(-1.4161001e-05 -1.982459e-19 0.089910051)
(-3.4085606e-05 -2.7550759e-19 0.12704061)
(-6.4800696e-05 -3.6998465e-19 0.16450273)
(-0.00010827549 -3.8839203e-19 0.20185341)
(-0.00016665933 -3.5947652e-19 0.23856313)
(-0.0002422894 -4.4511167e-19 0.274013)
(-0.00033767425 -5.1801941e-19 0.30749712)
(-0.00045545723 -5.7547111e-19 0.33823241)
(-0.0005983522 -6.0690019e-19 0.36537943)
(-0.00076903759 -6.8230796e-19 0.38807772)
(-0.00096998778 -8.2321991e-19 0.40549946)
(-0.0012032141 -5.5438245e-19 0.41692343)
(-0.0014698789 1.7194308e-21 0.42182798)
(-0.0017697483 -5.2071411e-19 0.4199955)
(-0.0021004683 -1.0348534e-18 0.41161158)
(-0.0024567109 -1.2180084e-18 0.39733292)
(-0.002829349 -1.6383987e-18 0.37829298)
(-0.0032049602 -1.7647505e-18 0.35602105)
(-0.0035660566 -1.4746661e-18 0.33227202)
(-0.003892364 -7.5892676e-19 0.30879594)
(-0.0041631728 -4.8319118e-19 0.28710321)
(-0.0043603501 -4.0687075e-19 0.26828597)
(-0.0044712715 -3.6995771e-19 0.25293551)
(-0.0044908921 -7.5190072e-19 0.24116114)
(-0.0044224361 -9.596089e-19 0.23268644)
(-0.0042765898 -9.3250179e-19 0.22698543)
(-0.0040694421 -5.3369411e-21 0.22342295)
(-0.0038196866 -3.9188298e-19 0.22137305)
(-0.0035457099 -1.1852996e-19 0.22030035)
(-0.0032632059 -1.7410254e-19 0.21979976)
(-0.002983951 -2.8065817e-19 0.21959915)
(-0.0027152625 -2.4044753e-19 0.21953688)
(-0.0024612636 -4.3746179e-19 0.21952868)
(-0.00222304 -6.3557127e-20 0.21953656)
(-0.0020010257 3.7527493e-19 0.21954614)
(-0.0017936567 -3.4821815e-19 0.21955325)
(-0.0016012557 -5.3415908e-19 0.21955691)
(-0.0014203798 -2.7543886e-19 0.21955709)
(-0.0012537867 -4.2009659e-19 0.2195548)
(-0.0010942875 -1.0740464e-19 0.21954982)
(-0.00095008966 -8.6573054e-19 0.21954428)
(-0.00080696747 -8.7984042e-19 0.21953598)
(-0.00068164276 -4.6736079e-19 0.21952959)
(-0.00055086224 -3.8992201e-19 0.21951968)
(-0.00043983649 -3.9547531e-19 0.21951444)
(-0.00031855823 -3.2823896e-19 0.21950502)
(-0.00021630424 -3.6457725e-19 0.2195019)
(-0.00010261954 -3.1709187e-19 0.21948125)
(1.3758125e-06 -2.6738654e-20 0.018550612)
(-2.9323116e-06 -7.9868716e-20 0.055082438)
(-1.3194213e-05 -1.3596612e-19 0.092666203)
(-3.1774877e-05 -1.9275783e-19 0.13101357)
(-6.0439281e-05 -2.5021336e-19 0.16976184)
(-0.00010104539 -3.1067983e-19 0.20846601)
(-0.00015562901 -3.7333747e-19 0.24659238)
(-0.00022641446 -4.3831076e-19 0.28351489)
(-0.00031580412 -4.9509789e-19 0.31851624)
(-0.00042635083 -5.4803911e-19 0.35079615)
(-0.00056070632 -5.7470344e-19 0.37949014)
(-0.00072153404 -5.6141034e-19 0.40370247)
(-0.00091136769 -6.3579468e-19 0.42255722)
(-0.001132389 -7.2114363e-19 0.43527012)
(-0.0013860915 -7.6868101e-19 0.44124101)
(-0.0016727931 -8.1900421e-19 0.4401609)
(-0.0019909739 -9.9340936e-19 0.43211885)
(-0.0023364614 -1.1533162e-18 0.41768388)
(-0.002701582 -1.2792745e-18 0.39793013)
(-0.0030745285 -1.5204205e-18 0.37437667)
(-0.0034393181 -1.3229143e-18 0.34883188)
(-0.0037766959 -9.499772e-19 0.32316403)
(-0.0040661162 -7.8223687e-19 0.29905067)
(-0.0042885315 -7.2079383e-19 0.27777136)
(-0.0044293505 -5.9902684e-19 0.26009307)
(-0.0044807956 -5.2288693e-19 0.24626303)
(-0.0044430683 -8.4698583e-19 0.2360903)
(-0.00432409 -9.5666801e-19 0.22907935)
(-0.004137937 -4.2532938e-19 0.22457726)
(-0.0039023581 -2.6696982e-19 0.22190519)
(-0.0036359346 -1.6813989e-19 0.22045599)
(-0.0033554526 -1.8639599e-19 0.21975002)
(-0.0030742285 -2.5397186e-19 0.21945055)
(-0.0028012 -2.5352284e-19 0.21934806)
(-0.0025416733 -3.3361465e-19 0.21932785)
(-0.0022975791 -6.3514148e-20 0.21933538)
(-0.0020698083 1.9544663e-19 0.21934858)
(-0.0018567929 -3.021477e-19 0.2193602)
(-0.0016592865 -4.9947801e-19 0.21936844)
(-0.0014730475 -2.3731555e-19 0.21937294)
(-0.0013020602 -3.6677381e-19 0.21937479)
(-0.0011371777 -1.6329019e-19 0.21937355)
(-0.00098904195 -8.2995832e-19 0.21937165)
(-0.00084050886 -8.805269e-19 0.21936657)
(-0.00071115137 -4.7864074e-19 0.21936317)
(-0.00057522706 -4.179503e-19 0.219356)
(-0.00045962888 -3.9135077e-19 0.21935292)
(-0.00033359445 -3.2886358e-19 0.21934569)
(-0.00022624179 -3.4881541e-19 0.2193436)
(-0.00010798369 -3.1734077e-19 0.21932287)
(1.2896776e-06 -5.5041772e-20 0.01904787)
(-2.7500612e-06 -1.6446194e-19 0.056588565)
(-1.2380729e-05 -2.8242363e-19 0.095246439)
(-2.9827963e-05 -4.1093289e-19 0.13473391)
(-5.6759473e-05 -5.1447135e-19 0.1746881)
(-9.4936045e-05 -6.2598697e-19 0.2146625)
(-0.00014629262 -7.3860967e-19 0.25412001)
(-0.00021295116 -7.2986501e-19 0.29242859)
(-0.00029721432 -7.1704238e-19 0.32886127)
(-0.00040154432 -5.0737583e-19 0.3626031)
(-0.00052852158 -1.0702248e-19 0.39276803)
(-0.00068077173 2.301982e-19 0.41842975)
(-0.00086084499 7.5680115e-19 0.43867024)
(-0.0010710245 3.6898893e-19 0.45264949)
(-0.0013130309 -4.3931714e-19 0.45969688)
(-0.0015875873 -6.7551699e-19 0.45941969)
(-0.0018938157 -7.7181333e-19 0.45181579)
(-0.0022284705 -1.4264076e-19 0.43736708)
(-0.0025850932 -2.3935676e-20 0.4170819)
(-0.0029533005 2.4672348e-19 0.39245466)
(-0.0033185414 -5.3228251e-19 0.36532641)
(-0.0036626925 -7.6501171e-19 0.33766044)
(-0.0039656963 -8.9534904e-19 0.31128106)
(-0.0042080949 -1.1275786e-18 0.28764214)
(-0.0043739249 -1.7381687e-18 0.26768243)
(-0.0044532395 -1.3724363e-18 0.25179185)
(-0.0044436283 -7.7090398e-19 0.23987632)
(-0.0043504138 -6.1975375e-19 0.23148583)
(-0.0041855443 -1.2239744e-18 0.22596541)
(-0.003965473 -4.3895668e-19 0.22259689)
(-0.0037084902 -1.9065206e-19 0.22071044)
(-0.0034320228 -1.7356557e-19 0.2197556)
(-0.0031506168 -2.1648382e-19 0.21932992)
(-0.0028746717 -1.2997925e-19 0.21917207)
(-0.0026107375 2.154381e-19 0.2191324)
(-0.0023616138 1.5808431e-23 0.21913614)
(-0.0021288107 1.976423e-19 0.21915128)
(-0.0019107213 1.6033541e-19 0.21916641)
(-0.0017087255 -1.404499e-19 0.21917838)
(-0.0015176306 -1.8122631e-19 0.21918641)
(-0.0013428477 2.0214147e-20 0.21919164)
(-0.0011732278 -2.1027015e-19 0.21919346)
(-0.0010217067 -1.0607833e-18 0.21919449)
(-0.00086867154 -8.8478632e-19 0.21919212)
(-0.0007358063 -4.8874467e-19 0.21919114)
(-0.00059577713 -4.2161931e-19 0.21918639)
(-0.00047620594 -3.8669781e-19 0.21918509)
(-0.00034635615 -3.291885e-19 0.21917984)
(-0.00023463766 -3.4045552e-19 0.21917862)
(-0.00011256469 -3.1723252e-19 0.21915772)
(1.2158506e-06 -1.9883932e-20 0.019515985)
(-2.593747e-06 -5.9019916e-20 0.058006686)
(-1.1682237e-05 -9.9883298e-20 0.09767635)
(-2.815477e-05 -1.4337383e-19 0.13823826)
(-5.3594141e-05 -1.9357191e-19 0.17932955)
(-8.9675253e-05 -2.4288826e-19 0.22050256)
(-0.00013824329 -2.8055257e-19 0.26121743)
(-0.00020132776 -2.9505474e-19 0.30083701)
(-0.00028113929 -2.9678279e-19 0.33862604)
(-0.00038005354 -2.832851e-19 0.37375682)
(-0.00050057737 -2.2247575e-19 0.4053245)
(-0.00064528713 -1.1588349e-19 0.43237588)
(-0.00081672518 -7.6370055e-21 0.45395572)
(-0.0010172323 -8.5596717e-20 0.46917428)
(-0.0012486865 -2.4171722e-19 0.4772973)
(-0.0015121132 -3.4882836e-19 0.47785522)
(-0.0018071342 -4.1014897e-19 0.47076018)
(-0.0021312511 -3.1692039e-19 0.45640897)
(-0.0024790208 -1.1872073e-19 0.43574059)
(-0.0028412996 7.4829697e-20 0.41021451)
(-0.0032048551 -2.8397161e-19 0.381688)
(-0.003552711 -6.1031767e-19 0.35219969)
(-0.0038654824 -7.6135745e-19 0.32370205)
(-0.0041236474 -8.8379498e-19 0.29780979)
(-0.004310325 -1.0332825e-18 0.27562742)
(-0.0044138765 -1.1049707e-18 0.2576891)
(-0.0044296812 -9.3140624e-19 0.24400536)
(-0.0043607014 -6.1119448e-19 0.23418338)
(-0.0042167815 -6.3883676e-19 0.22757944)
(-0.0040128854 -4.916728e-19 0.22344852)
(-0.0037666614 -2.3104067e-19 0.22106767)
(-0.0034957827 -1.940986e-19 0.21982073)
(-0.0032157161 -2.0123222e-19 0.21924024)
(-0.0029381321 -1.2312716e-19 0.21901051)
(-0.0026708206 1.3568365e-19 0.21894301)
(-0.0024174605 8.9333137e-20 0.2189392)
(-0.0021803172 2.9923651e-19 0.21895469)
(-0.0019577133 2.1116135e-19 0.21897257)
(-0.0017517978 -8.8312545e-20 0.21898779)
(-0.001556342 -1.4541797e-19 0.21899892)
(-0.0013782156 -2.6959449e-20 0.21900708)
(-0.0012044173 -2.7216064e-19 0.21901154)
(-0.0010498165 -9.4316e-19 0.219015)
(-0.00089295412 -8.8060186e-19 0.21901496)
(-0.00075685616 -4.9682133e-19 0.2190159)
(-0.00061343075 -4.1719087e-19 0.21901322)
(-0.00049029865 -3.8338576e-19 0.21901333)
(-0.00035727717 -3.2952744e-19 0.21900977)
(-0.00024177602 -3.3593264e-19 0.21900921)
(-0.00011647599 -3.1729503e-19 0.21898801)
(1.1517723e-06 4.8065942e-21 0.019958879)
(-2.4579828e-06 1.5184061e-20 0.059348608)
(-1.1074831e-05 2.8934142e-20 0.099976041)
(-2.6698603e-05 5.006007e-20 0.14155538)
(-5.0837132e-05 3.3090872e-20 0.18372396)
(-8.5089085e-05 1.616935e-20 0.22603324)
(-0.00013121919 -3.7853263e-21 0.26794103)
(-0.00019117324 -1.340644e-19 0.30880582)
(-0.00026707735 -2.2783919e-19 0.34788513)
(-0.00036122555 -3.6243562e-19 0.38434005)
(-0.00047605201 -5.6410746e-19 0.41724911)
(-0.00061407861 -7.982068e-19 0.44563525)
(-0.00077782475 -1.0678205e-18 0.46851)
(-0.00096966023 -8.6967448e-19 0.48493887)
(-0.0011915723 -2.5492042e-19 0.4941298)
(-0.0014448145 -2.5573061e-19 0.49554249)
(-0.0017294033 -1.5256147e-19 0.4890086)
(-0.0020434481 -5.8257737e-19 0.47484261)
(-0.0023823577 -4.9816374e-19 0.45391257)
(-0.0027380632 -6.1604184e-19 0.42763567)
(-0.0030985266 -4.0875667e-19 0.39787246)
(-0.003447886 -5.5153956e-19 0.3667203)
(-0.0037675241 -6.3631446e-19 0.33624312)
(-0.004038088 -5.6680429e-19 0.30820331)
(-0.0042421212 -2.3263902e-19 0.28386395)
(-0.0043666829 -4.4487838e-19 0.26390289)
(-0.0044053037 -1.2596606e-18 0.24844025)
(-0.0043588466 -9.5968063e-19 0.2371494)
(-0.0042351529 -2.3139196e-19 0.22940885)
(-0.0040476166 -3.4331737e-19 0.22445784)
(-0.0038130059 -2.1249256e-19 0.22152964)
(-0.0035489165 -1.9371893e-19 0.21994842)
(-0.0032714412 -1.9369413e-19 0.21918376)
(-0.0029933109 -1.7639353e-19 0.21886431)
(-0.0027235048 -3.8624563e-19 0.21875954)
(-0.0024665752 5.4411546e-20 0.2187438)
(-0.0022256546 2.4501099e-19 0.21875779)
(-0.0019989945 4.692658e-20 0.21877766)
(-0.0017896047 -3.2217913e-19 0.21879572)
(-0.0015902432 -4.5276333e-20 0.21880967)
(-0.0014091233 -3.0891228e-19 0.21882045)
(-0.0012316943 -3.2683908e-19 0.21882733)
(-0.0010742641 -6.3525393e-19 0.21883291)
(-0.00091417766 -8.6536491e-19 0.21883495)
(-0.0007750939 -5.0296906e-19 0.21883752)
(-0.00062882473 -4.1095219e-19 0.21883668)
(-0.00050248822 -3.818192e-19 0.21883796)
(-0.00036676023 -3.3054672e-19 0.21883586)
(-0.00024794662 -3.3375547e-19 0.21883581)
(-0.00011984738 -3.1710146e-19 0.21881418)
(1.0955035e-06 -2.1777341e-20 0.020379709)
(-2.3387948e-06 -6.6161243e-20 0.060623841)
(-1.0541282e-05 -1.1625983e-19 0.10216172)
(-2.5418656e-05 -1.7013882e-19 0.14470851)
(-4.8412128e-05 -2.1278687e-19 0.18790184)
(-8.1052258e-05 -2.6210255e-19 0.23129255)
(-0.00012503133 -3.2087579e-19 0.27433646)
(-0.00018221906 -3.8861375e-19 0.31638829)
(-0.00025466383 -4.6175079e-19 0.35669917)
(-0.00034458333 -5.2324539e-19 0.39442026)
(-0.00045434145 -5.7237837e-19 0.42861529)
(-0.00058640335 -6.2756436e-19 0.45828579)
(-0.00074325668 -6.6747277e-19 0.48241337)
(-0.00092728082 -6.7640769e-19 0.50002299)
(-0.0011405383 -6.1402009e-19 0.51026982)
(-0.0013844564 -5.0084486e-19 0.51254822)
(-0.0016593658 -5.1393669e-19 0.5066143)
(-0.0019638758 -6.3189995e-19 0.49270333)
(-0.0022941133 -7.684586e-19 0.4716121)
(-0.0026429425 -1.0318692e-18 0.44471038)
(-0.0029994002 -7.3096125e-19 0.41385174)
(-0.0033486806 -5.8607141e-19 0.3811783)
(-0.0036729749 -6.110168e-19 0.34885055)
(-0.0039532541 -5.7457424e-19 0.31876608)
(-0.0041717408 -5.0507171e-19 0.29233883)
(-0.0043145046 -5.5654095e-19 0.27038828)
(-0.0043735421 -8.7912097e-19 0.25314723)
(-0.0043478713 -8.3266513e-19 0.24036198)
(-0.0042434727 -4.6094002e-19 0.23144233)
(-0.0040721659 -3.2751408e-19 0.22562143)
(-0.0038496879 -2.209675e-19 0.22209756)
(-0.003593304 -1.9356746e-19 0.22014159)
(-0.0033194682 -1.9342049e-19 0.21916319)
(-0.0030417568 -1.9958018e-19 0.2187352)
(-0.0027702514 -2.8878682e-19 0.21858273)
(-0.0025103483 2.6055063e-21 0.21855001)
(-0.0022661234 1.6596984e-19 0.21856034)
(-0.0020357881 2.9332533e-21 0.2185813)
(-0.0018232388 -2.5487251e-19 0.21860176)
(-0.0016203457 -1.2455227e-19 0.21861826)
(-0.0014364448 -3.5190944e-19 0.21863139)
(-0.0012558326 -3.5198088e-19 0.21864049)
(-0.0010957349 -6.9374998e-19 0.21864792)
(-0.00093290034 -8.4626144e-19 0.21865187)
(-0.00079104639 -5.0767183e-19 0.21865584)