/*--------------------------------*- C++ -*----------------------------------*\
| =========                 |                                                 |
| \\      /  F ield         | OpenFOAM: The Open Source CFD Toolbox           |
|  \\    /   O peration     | Version:  3.0.1                                 |
|   \\  /    A nd           | Web:      www.OpenFOAM.org                      |
|    \\/     M anipulation  |                                                 |
\*---------------------------------------------------------------------------*/
FoamFile
{
    version     2.0;
    format      ascii;
    class       volVectorField;
    location    "2417";
    object      U;
}
// * * * * * * * * * * * * * * * * * * * * * * * * * * * * * * * * * * * * * //

dimensions      [0 1 -1 0 0 0 0];

internalField   nonuniform List<vector> 
4000
(
(0.0004355938 -1.3551292e-18 0.078797205)
(0.0010783323 -3.0870476e-18 0.17743639)
(0.0019084861 -4.5206057e-18 0.23838566)
(0.0021957252 -6.2941396e-18 0.27342101)
(0.0022075823 -7.1012302e-18 0.29176969)
(0.0020664022 -7.7160278e-18 0.29982565)
(0.0018818368 -8.3054403e-18 0.30168282)
(0.0017005322 -8.8016836e-18 0.29980086)
(0.0015407434 -8.2530843e-18 0.29557929)
(0.0014040646 -7.7905457e-18 0.2897819)
(0.0012871068 -7.2832921e-18 0.28281925)
(0.0011853542 -6.6093349e-18 0.2749206)
(0.0010950267 -5.9404328e-18 0.26623073)
(0.001013281 -5.3658081e-18 0.25686081)
(0.00093810585 -4.890331e-18 0.24691308)
(0.00086810224 -4.5217599e-18 0.23649155)
(0.00080227628 -4.1800755e-18 0.22570554)
(0.00074006886 -5.5387883e-18 0.21466961)
(0.00068152835 -7.1044395e-18 0.20350161)
(0.0006258673 -8.9701762e-18 0.19231928)
(0.00057233512 -1.1144448e-17 0.18123605)
(0.00052095346 -1.3743189e-17 0.17035813)
(0.00047158353 -1.504295e-17 0.1597808)
(0.00042432153 -1.2291239e-17 0.14958459)
(0.00037923044 -1.1716917e-17 0.13983149)
(0.00033646713 -9.8209432e-18 0.13056136)
(0.0002961827 -8.0437618e-18 0.12178863)
(0.00025855144 -7.9000695e-18 0.11349895)
(0.00022375985 -8.057285e-18 0.1056467)
(0.00019196507 -8.5450128e-18 0.098152987)
(0.00016332783 -8.2457946e-18 0.090904812)
(0.0001378968 -6.042998e-18 0.083755722)
(0.00011575686 -4.047957e-18 0.076528747)
(9.6690137e-05 -2.2143235e-18 0.069022686)
(8.0666387e-05 -5.2272129e-19 0.061021926)
(6.6849796e-05 1.1056936e-18 0.052310837)
(5.5145351e-05 1.4177692e-18 0.042689702)
(4.3077055e-05 7.3363532e-19 0.031992622)
(3.0751778e-05 7.4410318e-19 0.020096426)
(9.3927405e-06 2.3189406e-19 0.0069281203)
(-1.7738357e-05 -1.8736216e-18 0.085103627)
(-0.00028535226 -3.7513858e-18 0.1910891)
(-0.00053135543 -5.5811822e-18 0.25431606)
(-0.00079127802 -7.6839195e-18 0.28746754)
(-0.0010002329 -7.5986794e-18 0.30195805)
(-0.0011345785 -7.9200485e-18 0.30611239)
(-0.0011759679 -8.2695839e-18 0.30497223)
(-0.001134335 -8.4719726e-18 0.3011491)
(-0.0010325869 -8.272021e-18 0.29582685)
(-0.00089676448 -7.8507711e-18 0.28948357)
(-0.0007480392 -7.4178681e-18 0.28229912)
(-0.00060092925 -7.2711241e-18 0.2743506)
(-0.00046392187 -6.1306374e-18 0.26569396)
(-0.0003412294 -5.4039073e-18 0.25639272)
(-0.00023438089 -4.8024905e-18 0.2465251)
(-0.00014339397 -4.030739e-18 0.23618345)
(-6.7508091e-05 -3.7389183e-18 0.22547091)
(-5.5041257e-06 -5.5694858e-18 0.21449541)
(4.4187341e-05 -7.4793953e-18 0.20337762)
(8.2554723e-05 -9.1038312e-18 0.19224627)
(0.00011050676 -1.1293373e-17 0.18120738)
(0.00012933588 -1.420116e-17 0.17036586)
(0.00014021914 -1.5142817e-17 0.15981709)
(0.0001444361 -1.2353115e-17 0.14964208)
(0.00014313173 -1.2029202e-17 0.13990345)
(0.0001376509 -9.8651783e-18 0.13064179)
(0.00012908164 -8.0593977e-18 0.12187232)
(0.00011820551 -7.9260131e-18 0.11358148)
(0.00010600031 -8.0804795e-18 0.10572441)
(9.3380047e-05 -8.5413099e-18 0.098223067)
(8.116868e-05 -7.9896465e-18 0.090965315)
(6.9998537e-05 -5.8081347e-18 0.083805562)
(6.0412688e-05 -4.0326227e-18 0.07656776)
(5.257326e-05 -2.2212477e-18 0.069051647)
(4.6627642e-05 -5.280636e-19 0.061042714)
(4.1859931e-05 1.1002844e-18 0.052326441)
(3.7890397e-05 1.3013e-18 0.042704812)
(3.2008251e-05 8.0844924e-19 0.032014084)
(2.3101991e-05 7.5441676e-19 0.020135013)
(4.5382519e-06 2.0515355e-19 0.0069803335)
(-2.7195218e-05 -1.3969821e-18 0.09206129)
(-0.00038532825 -3.5320907e-18 0.20728435)
(-0.00086420866 -5.2846077e-18 0.27485092)
(-0.0013594906 -6.6333936e-18 0.3075094)
(-0.0017760572 -7.4873728e-18 0.31818821)
(-0.0020656575 -8.0771927e-18 0.31730933)
(-0.0022048221 -8.3706778e-18 0.31154123)
(-0.0022026076 -8.3854632e-18 0.30424838)
(-0.0020896581 -8.2092605e-18 0.2966854)
(-0.0019048377 -7.7018133e-18 0.28907573)
(-0.0016835424 -6.8092589e-18 0.28127932)
(-0.0014524356 -6.8520809e-18 0.27310891)
(-0.001228753 -6.1270375e-18 0.26444018)
(-0.0010221179 -5.4035786e-18 0.25522793)
(-0.0008369156 -4.8092502e-18 0.24549056)
(-0.00067435834 -4.2597766e-18 0.23528979)
(-0.00053388684 -4.2888028e-18 0.22471409)
(-0.00041424069 -5.7223017e-18 0.21386698)
(-0.00031391724 -7.5501995e-18 0.20286574)
(-0.00023090988 -9.6223836e-18 0.19183386)
(-0.00016320544 -1.0998974e-17 0.18088153)
(-0.00010912836 -1.361147e-17 0.17011409)
(-6.7013502e-05 -1.399291e-17 0.15962754)
(-3.5202556e-05 -1.2493241e-17 0.14950376)
(-1.2180714e-05 -1.1756179e-17 0.13980621)
(3.6979346e-06 -9.8860248e-18 0.13057499)
(1.3832773e-05 -8.2766143e-18 0.12183034)
(1.9325619e-05 -7.9739012e-18 0.11355854)
(2.1420963e-05 -8.0842083e-18 0.1057145)
(2.127383e-05 -8.3714042e-18 0.098221099)
(1.9950416e-05 -7.738765e-18 0.090967213)
(1.8314294e-05 -5.6266155e-18 0.083808307)
(1.709777e-05 -3.9960739e-18 0.076569396)
(1.6636991e-05 -2.2225547e-18 0.06905129)
(1.7166808e-05 -5.4953261e-19 0.061040638)
(1.8048255e-05 9.1981496e-19 0.052324142)
(1.8989569e-05 1.0712631e-18 0.042705397)
(1.7736965e-05 8.3890292e-19 0.032022427)
(1.2444934e-05 7.5558064e-19 0.020155145)
(1.0901192e-06 2.2826348e-19 0.0069969211)
(-2.3738428e-05 -9.9614679e-19 0.098321479)
(-0.00036088556 -2.9899358e-18 0.22260451)
(-0.0008709921 -4.6328816e-18 0.295704)
(-0.0014511514 -5.7053897e-18 0.32976489)
(-0.0019947261 -7.324784e-18 0.33816197)
(-0.0024255723 -8.6800342e-18 0.33278315)
(-0.0026948855 -8.4857783e-18 0.32198892)
(-0.0027919542 -8.4655318e-18 0.3103341)
(-0.0027381432 -8.2178394e-18 0.2995657)
(-0.0025730547 -7.6439105e-18 0.28989143)
(-0.0023396298 -6.8328136e-18 0.28092097)
(-0.0020745365 -6.0050815e-18 0.27217669)
(-0.0018043441 -5.9793712e-18 0.2632956)
(-0.0015458125 -5.4056864e-18 0.25406799)
(-0.0013080431 -4.8907355e-18 0.24441151)
(-0.0010949841 -4.5868628e-18 0.23433157)
(-0.00090746476 -5.08881e-18 0.22388761)
(-0.000744732 -5.936918e-18 0.21317023)
(-0.00060534851 -7.3169458e-18 0.20228957)
(-0.00048719959 -9.4780977e-18 0.19136401)
(-0.00038805703 -1.1058768e-17 0.18050501)
(-0.00030595681 -1.2774506e-17 0.16981827)
(-0.00023892546 -1.3183173e-17 0.15940022)
(-0.00018505544 -1.2668326e-17 0.14933343)
(-0.00014250492 -1.1311822e-17 0.13968221)
(-0.00010958915 -9.8905129e-18 0.13048844)
(-8.4649249e-05 -8.6483876e-18 0.12177202)
(-6.6042805e-05 -8.0547734e-18 0.11352092)
(-5.2323214e-05 -8.0614099e-18 0.10569131)
(-4.217834e-05 -8.0565406e-18 0.098207001)
(-3.4386305e-05 -7.5123656e-18 0.090957909)
(-2.7931559e-05 -5.6220402e-18 0.083800581)
(-2.1953401e-05 -3.963619e-18 0.076561187)
(-1.5989398e-05 -2.2234696e-18 0.069041745)
(-9.7437791e-06 -5.9424737e-19 0.061030174)
(-3.7277505e-06 6.3530623e-19 0.052314325)
(1.6857044e-06 1.0159843e-18 0.042697996)
(4.7536818e-06 8.3306347e-19 0.032022636)
(3.9238984e-06 6.0146914e-19 0.020165273)
(-5.0515246e-07 2.3392364e-19 0.0070055836)
(-2.0633883e-05 -1.1861681e-18 0.10366486)
(-0.00032373603 -2.9856749e-18 0.23616292)
(-0.00081012481 -4.5148787e-18 0.31501947)
(-0.0013975264 -5.8495549e-18 0.35162744)
(-0.0019909337 -7.0210326e-18 0.35920246)
(-0.0025070325 -8.1111416e-18 0.35041575)
(-0.0028796144 -8.5302566e-18 0.33499201)
(-0.0030767794 -8.7547412e-18 0.31876325)
(-0.0031028833 -8.1676696e-18 0.30425187)
(-0.002988851 -7.7813024e-18 0.29191403)
(-0.002777268 -7.5075444e-18 0.28126411)
(-0.0025099113 -6.450453e-18 0.2715857)
(-0.0022205926 -6.0406858e-18 0.26226654)
(-0.0019329847 -5.5407792e-18 0.25289775)
(-0.0016615662 -5.0359421e-18 0.24326065)
(-0.0014138866 -4.8731429e-18 0.23327715)
(-0.0011929112 -5.2752127e-18 0.22296019)
(-0.00099894249 -6.1305922e-18 0.2123767)
(-0.00083090976 -7.450953e-18 0.20162449)
(-0.00068683139 -9.0339781e-18 0.19081517)
(-0.00056442848 -1.1400943e-17 0.18005924)
(-0.00046152589 -1.2634017e-17 0.16946231)
(-0.00037594304 -1.3261353e-17 0.15912109)
(-0.00030558405 -1.2523184e-17 0.14911877)
(-0.0002483939 -1.1265636e-17 0.13952056)
(-0.00020250713 -9.8970243e-18 0.13036977)
(-0.00016608408 -8.7249016e-18 0.12168655)
(-0.00013728978 -8.1238101e-18 0.11346032)
(-0.00011452056 -8.0418656e-18 0.10564855)
(-9.6297473e-05 -7.9663095e-18 0.09817612)
(-8.1258709e-05 -7.3815566e-18 0.090934036)
(-6.8251685e-05 -5.788372e-18 0.083780021)
(-5.6308626e-05 -3.9571246e-18 0.076541483)
(-4.4849373e-05 -2.2266608e-18 0.069021739)
(-3.3540677e-05 -6.3849265e-19 0.061010065)
(-2.271422e-05 5.495714e-19 0.052295607)
(-1.3043013e-05 1.0638607e-18 0.042683855)
(-6.0010238e-06 8.0727617e-19 0.032015687)
(-2.5467488e-06 4.9728611e-19 0.020164888)
(-1.3453759e-06 1.7902001e-19 0.007005174)
(-1.8758636e-05 -1.6829014e-18 0.10840122)
(-0.00029490469 -3.6048712e-18 0.24835879)
(-0.00075132139 -5.4153744e-18 0.3328094)
(-0.0013216548 -7.2941531e-18 0.37249159)
(-0.0019261797 -7.0732672e-18 0.38024184)
(-0.0024860958 -7.1935021e-18 0.36906257)
(-0.002928994 -8.0619067e-18 0.34966025)
(-0.0032084452 -8.3188834e-18 0.3290254)
(-0.003312403 -8.2268167e-18 0.31056345)
(-0.0032593329 -7.8281799e-18 0.29516996)
(-0.0030860211 -7.4956601e-18 0.28242649)
(-0.0028345719 -7.212191e-18 0.27147026)
(-0.002542988 -6.1953397e-18 0.26146913)
(-0.0022405323 -5.6917664e-18 0.25180641)
(-0.0019469231 -5.257615e-18 0.24210358)
(-0.0016737527 -5.099245e-18 0.23217514)
(-0.0014266918 -5.190794e-18 0.22196904)
(-0.0012076111 -6.3330122e-18 0.21151624)
(-0.0010161868 -7.8717849e-18 0.2008954)
(-0.00085078812 -9.3052668e-18 0.19020829)
(-0.00070921929 -1.134364e-17 0.1795621)
(-0.00058919144 -1.2907194e-17 0.1690615)
(-0.00048837838 -1.3313348e-17 0.15880317)
(-0.00040452033 -1.2191083e-17 0.14887082)
(-0.00033539716 -1.1419167e-17 0.1393305)
(-0.00027896195 -9.902114e-18 0.13022679)
(-0.00023321166 -8.5832012e-18 0.12158038)
(-0.00019617215 -8.158877e-18 0.11338199)
(-0.00016608605 -8.0382299e-18 0.10559047)
(-0.0001413268 -8.0243078e-18 0.098131841)
(-0.00012040868 -7.2393696e-18 0.090898286)
(-0.00010205847 -5.7317177e-18 0.08374876)
(-8.5215614e-05 -3.9454547e-18 0.076511977)
(-6.9191823e-05 -2.2308179e-18 0.068992613)
(-5.3624869e-05 -6.6835158e-19 0.060981346)
(-3.8719394e-05 5.9909641e-19 0.052268684)
(-2.5200782e-05 9.6351214e-19 0.042661527)
(-1.432115e-05 7.9289663e-19 0.032000286)
(-6.9566749e-06 5.6052861e-19 0.020155735)
(-1.6690487e-06 1.409533e-19 0.0069988222)
(-1.7260574e-05 -1.2849844e-18 0.11267373)
(-0.00027150567 -2.3942277e-18 0.25946475)
(-0.00069959512 -4.6284458e-18 0.34925119)
(-0.0012461023 -6.2669873e-18 0.39222893)
(-0.0018442238 -6.9612397e-18 0.40079995)
(-0.0024231044 -7.418572e-18 0.38803925)
(-0.0029108051 -8.0647254e-18 0.3653259)
(-0.0032530177 -8.3953027e-18 0.34062753)
(-0.0034250465 -8.2222469e-18 0.31822764)
(-0.0034329852 -7.7945302e-18 0.29956767)
(-0.0033052603 -7.3480092e-18 0.28442689)
(-0.0030808262 -7.0172477e-18 0.27189574)
(-0.0027988822 -6.3631257e-18 0.26097478)
(-0.0024924104 -5.7765007e-18 0.25085309)
(-0.0021855964 -5.456443e-18 0.24098322)
(-0.0018940453 -5.365974e-18 0.23105489)
(-0.0016264507 -5.5229668e-18 0.22093419)
(-0.0013866529 -6.371357e-18 0.21060327)
(-0.0011754339 -7.2508522e-18 0.20011359)
(-0.00099174195 -8.8850744e-18 0.18955269)
(-0.00083361108 -1.1638172e-17 0.17902172)
(-0.00069874846 -1.2707807e-17 0.16862314)
(-0.00058474016 -1.3048554e-17 0.15845309)
(-0.00048919655 -1.2164212e-17 0.14859557)
(-0.00040976543 -1.1288837e-17 0.13911743)
(-0.00034423728 -9.9067593e-18 0.13006437)
(-0.00029046383 -8.6915825e-18 0.12145782)
(-0.00024635181 -8.2218712e-18 0.11328979)
(-0.0002100017 -8.2107735e-18 0.10552049)
(-0.00017965606 -7.8698157e-18 0.09807718)
(-0.00015371715 -6.8397754e-18 0.090853289)
(-0.00013080294 -5.6366745e-18 0.083709073)
(-0.000109768 -3.9237647e-18 0.076474615)
(-8.9828191e-05 -2.2330855e-18 0.06895602)
(-7.0584758e-05 -6.8917187e-19 0.060945421)
(-5.215718e-05 6.1305354e-19 0.052234755)
(-3.5265513e-05 7.8125603e-19 0.042632182)
(-2.0983852e-05 7.7047949e-19 0.031977585)
(-1.0158532e-05 5.2301622e-19 0.020139244)
(-1.7958041e-06 1.5737724e-19 0.0069883193)
(-1.605213e-05 -1.6959517e-19 0.11658429)
(-0.00025230712 -1.787708e-18 0.26969265)
(-0.00065520989 -2.8907911e-18 0.36454391)
(-0.0011770806 -2.9879587e-18 0.41088574)
(-0.0017612043 -5.7766374e-18 0.42069209)
(-0.0023448236 -7.0917321e-18 0.40696854)
(-0.0028595593 -7.8382213e-18 0.38154171)
(-0.0032478609 -8.2544118e-18 0.35317805)
(-0.0034763452 -8.1357687e-18 0.32697966)
(-0.003540554 -7.6544852e-18 0.30497714)
(-0.003460064 -7.032557e-18 0.28723753)
(-0.0032687034 -6.1632542e-18 0.27289223)
(-0.0030045099 -6.2306059e-18 0.26083454)
(-0.002702278 -5.9048557e-18 0.25008751)
(-0.0023895367 -5.739582e-18 0.23993869)
(-0.0020854977 -6.1046788e-18 0.22994374)
(-0.001801933 -6.57794e-18 0.21987357)
(-0.0015449152 -6.6896915e-18 0.20964941)
(-0.0013166345 -7.3351484e-18 0.19928683)
(-0.0011168469 -9.0803252e-18 0.1888538)
(-0.00094397408 -1.117453e-17 0.17844217)
(-0.00079583278 -1.1577001e-17 0.16815045)
(-0.00066998774 -1.2088643e-17 0.15807349)
(-0.00056395757 -1.2170441e-17 0.14829524)
(-0.00047528079 -1.0618841e-17 0.13888322)
(-0.00040160927 -9.8669476e-18 0.12988414)
(-0.00034066582 -8.9829935e-18 0.1213203)
(-0.0002902458 -8.2890791e-18 0.11318497)
(-0.00024832094 -8.1291391e-18 0.10543973)
(-0.00021301754 -7.5842565e-18 0.098013163)
(-0.0001826337 -6.7829613e-18 0.090800002)
(-0.00015568617 -5.7666859e-18 0.083661865)
(-0.00013095164 -3.9219598e-18 0.076430265)
(-0.00010756382 -2.2377934e-18 0.068912796)
(-8.5078833e-05 -7.307821e-19 0.060903102)
(-6.3552858e-05 3.6184772e-19 0.052194579)
(-4.367564e-05 7.5053971e-19 0.042596545)
(-2.6394821e-05 7.3353472e-19 0.031948424)
(-1.2535527e-05 4.341271e-19 0.02011672)
(-1.822922e-06 1.7723624e-19 0.0069750332)
(-1.5040911e-05 -1.3722182e-18 0.1202023)
(-0.0002362175 -3.6331709e-18 0.27919716)
(-0.00061697394 -4.6150776e-18 0.37885654)
(-0.0011153607 -6.0202875e-18 0.42855436)
(-0.0016824857 -6.2797382e-18 0.43986405)
(-0.0022628272 -6.9290556e-18 0.42564527)
(-0.0027926887 -7.4601404e-18 0.39801352)
(-0.0032140952 -7.4343816e-18 0.36638023)
(-0.0034881586 -7.8746372e-18 0.33658695)
(-0.0036020951 -7.5591128e-18 0.31125744)
(-0.0035672691 -7.1651027e-18 0.29080182)
(-0.0034115925 -6.9961406e-18 0.27446148)
(-0.0031703713 -6.3704913e-18 0.26107988)
(-0.0028785793 -6.0361726e-18 0.24954907)
(-0.0025658726 -5.8317161e-18 0.23900516)
(-0.0022544195 -5.7432935e-18 0.22886832)
(-0.0019588907 -6.3243181e-18 0.21880546)
(-0.0016876981 -7.1053869e-18 0.20866663)
(-0.0014446613 -8.6336389e-18 0.19842292)
(-0.0012305533 -9.8712164e-18 0.18811685)
(-0.0010443451 -1.0660697e-17 0.17782711)
(-0.00088408063 -1.19664e-17 0.16764617)
(-0.000747376 -1.2013481e-17 0.15766652)
(-0.00063170328 -1.1947416e-17 0.14797157)
(-0.00053451672 -1.1030266e-17 0.13862929)
(-0.00045335097 -9.8679612e-18 0.12968729)
(-0.00038581489 -8.9893542e-18 0.12116881)
(-0.00032960092 -8.3150981e-18 0.11306837)
(-0.00028256501 -7.8823705e-18 0.10534895)
(-0.00024272634 -7.5070814e-18 0.09794047)
(-0.00020828674 -6.6972308e-18 0.090739059)
(-0.00017767127 -5.4572979e-18 0.083607745)
(-0.0001495821 -3.8894648e-18 0.076379526)
(-0.00012308059 -2.2424319e-18 0.06886354)
(-9.7675584e-05 -7.8526914e-19 0.060854991)
(-7.3371986e-05 1.5216862e-19 0.052148755)
(-5.0812263e-05 6.9911382e-19 0.042555238)
(-3.0861117e-05 7.8416986e-19 0.031913524)
(-1.4347255e-05 4.3919765e-19 0.020089128)
(-1.8049575e-06 1.1900263e-19 0.0069596647)
(-1.4177568e-05 -1.6530952e-18 0.12357783)
(-0.0002225022 -2.5566661e-18 0.28809413)
(-0.00058375685 -4.8223287e-18 0.39232642)
(-0.0010603964 -6.9501154e-18 0.44533318)
(-0.0016096734 -6.8057588e-18 0.45832021)
(-0.002182263 -7.1117148e-18 0.44396134)
(-0.0027193381 -7.6527319e-18 0.41454939)
(-0.0031640875 -8.326789e-18 0.38001452)
(-0.0034744173 -8.0025854e-18 0.34685609)
(-0.0036312607 -7.5891005e-18 0.31827317)
(-0.0036388649 -7.1360062e-18 0.29504878)
(-0.0035191989 -6.9564096e-18 0.27658499)
(-0.0033039639 -6.4817894e-18 0.26172499)
(-0.0030270835 -6.1009107e-18 0.24926611)
(-0.002719214 -5.9883201e-18 0.23821231)
(-0.0024047192 -5.9193523e-18 0.22785324)
(-0.0021008177 -6.1748675e-18 0.21774777)
(-0.0018182195 -7.0920752e-18 0.20766696)
(-0.001562502 -7.9619476e-18 0.19752968)
(-0.0013356254 -9.3204963e-18 0.18734685)
(-0.001137264 -1.1266879e-17 0.17717986)
(-0.0009658096 -1.23019e-17 0.16711262)
(-0.00081900752 -1.2548248e-17 0.15723387)
(-0.00069433262 -1.1643129e-17 0.14762585)
(-0.00058918267 -1.1225672e-17 0.13835666)
(-0.00050099824 -9.877875e-18 0.12947466)
(-0.00042728698 -8.7978804e-18 0.12100404)
(-0.00036564567 -8.3265275e-18 0.11294056)
(-0.00031382712 -8.0106618e-18 0.10524862)
(-0.00026975165 -7.6185094e-18 0.097859548)
(-0.00023152979 -6.6381754e-18 0.09067088)
(-0.00019750379 -5.3954047e-18 0.083547125)
(-0.00016630589 -3.8555793e-18 0.076322817)
(-0.0001369318 -2.2437299e-18 0.068808689)
(-0.00010884221 -8.0605509e-19 0.060801543)
(-8.1998714e-05 3.7528252e-19 0.052097753)
(-5.6989195e-05 6.6134051e-19 0.042508767)
(-3.4626656e-05 6.4632867e-19 0.031873499)
(-1.5775705e-05 4.9348215e-19 0.020057248)
(-1.7718358e-06 1.4585987e-19 0.006942724)
(-1.3428069e-05 -1.0719553e-19 0.12674838)
(-0.00021064234 -1.8548488e-18 0.29647249)
(-0.00055463427 -3.0668457e-18 0.40506454)
(-0.0010113482 -3.1866041e-18 0.46131367)
(-0.0015429489 -5.6665901e-18 0.47609049)
(-0.0021053535 -6.8485831e-18 0.46186373)
(-0.0026443854 -7.5842512e-18 0.43102459)
(-0.003105231 -8.1101929e-18 0.39392011)
(-0.0034441756 -7.9928634e-18 0.35763082)
(-0.0036375449 -7.4527103e-18 0.32590234)
(-0.0036836472 -6.8945936e-18 0.29990319)
(-0.0035989 -6.248264e-18 0.27923145)
(-0.0034110419 -6.3817536e-18 0.26277048)
(-0.0031521188 -6.2680083e-18 0.24925673)
(-0.0028528487 -6.2699064e-18 0.23758384)
(-0.0025390312 -6.723742e-18 0.22692049)
(-0.0022299776 -7.2039779e-18 0.21671767)
(-0.0019385321 -7.3628915e-18 0.20666249)
(-0.0016720654 -7.9292803e-18 0.19661504)
(-0.0014338457 -9.3801147e-18 0.18654888)
(-0.0012243869 -1.085439e-17 0.17650369)
(-0.0010425446 -1.1171082e-17 0.16655195)
(-0.00088627627 -1.1574317e-17 0.15677704)
(-0.00075311318 -1.1768009e-17 0.14725918)
(-0.00064042836 -1.0492506e-17 0.13806615)
(-0.00054559085 -9.8281579e-18 0.12924687)
(-0.00046602114 -9.0653599e-18 0.12082648)
(-0.00039922875 -8.3629878e-18 0.11280195)
(-0.00034287121 -7.9717499e-18 0.1051391)
(-0.00029477786 -7.4516332e-18 0.097770695)
(-0.00025297476 -6.5851152e-18 0.090595747)
(-0.00021572684 -5.5249904e-18 0.083480285)
(-0.00018159982 -3.8431597e-18 0.076260428)
(-0.00014953062 -2.2471881e-18 0.068748548)
(-0.00011893255 -8.4697273e-19 0.060743086)
(-8.9727156e-05 1.264559e-19 0.052041918)
(-6.2445714e-05 6.0438064e-19 0.042457521)
(-3.7874134e-05 6.1398681e-19 0.031828845)
(-1.6944115e-05 3.7866776e-19 0.020021685)
(-1.7364204e-06 1.6847034e-19 0.0069245341)
(-1.2769696e-05 -9.210958e-19 0.12974283)
(-0.00020026424 -3.1893947e-18 0.30440204)
(-0.00052887805 -3.8356205e-18 0.41716118)
(-0.00096739119 -4.5110264e-18 0.476577)
(-0.0014819641 -5.658329e-18 0.49321485)
(-0.0020329444 -6.7117634e-18 0.47933094)
(-0.0025704327 -7.5388073e-18 0.44735846)
(-0.0030420095 -7.9325366e-18 0.40797946)
(-0.0034034007 -7.8704835e-18 0.36878668)
(-0.0036276314 -7.3918418e-18 0.33403889)
(-0.0037081611 -6.8552149e-18 0.30529167)
(-0.0036564306 -6.4492823e-18 0.28236261)
(-0.0034961961 -6.3942701e-18 0.26420698)
(-0.0032571354 -6.3650212e-18 0.24953016)
(-0.002969313 -6.4379084e-18 0.23713751)
(-0.0026592736 -6.8255009e-18 0.22608893)
(-0.0023479271 -7.2896241e-18 0.21573116)
(-0.0020500023 -7.7376579e-18 0.20566508)
(-0.0017746119 -8.8630827e-18 0.19568713)
(-0.0015263986 -9.9943855e-18 0.18572819)
(-0.0013068255 -1.0240187e-17 0.17580192)
(-0.0011153204 -1.108981e-17 0.1659663)
(-0.00095013525 -1.1447735e-17 0.15629747)
(-0.00080891654 -1.1481852e-17 0.14687253)
(-0.00068904849 -1.0544981e-17 0.13775845)
(-0.00058785117 -9.7836454e-18 0.12900447)
(-0.00050267261 -9.0471825e-18 0.12063653)
(-0.00043094349 -8.3749375e-18 0.11265286)
(-0.00037023497 -7.8185162e-18 0.10502064)
(-0.00031829126 -7.3771285e-18 0.097674137)
(-0.00027305895 -6.8224253e-18 0.090513868)
(-0.00023273175 -5.4600575e-18 0.08340743)
(-0.00019581169 -3.8250783e-18 0.076192574)
(-0.00016118028 -2.2530707e-18 0.068683348)
(-0.00012820553 -8.96099e-19 0.060679864)
(-9.6772722e-05 -4.9698757e-20 0.051981515)
(-6.735661e-05 6.3572322e-19 0.042401809)
(-4.0734853e-05 5.9398146e-19 0.031779961)
(-1.7936527e-05 3.9201145e-19 0.019982897)
(-1.707129e-06 1.4167182e-19 0.0069053055)
(-1.2185156e-05 -2.1928709e-18 0.13258401)
(-0.00019108957 -3.8668914e-18 0.31193866)
(-0.00050591781 -5.4815513e-18 0.4286905)
(-0.00092780004 -7.7154841e-18 0.49119393)
(-0.0014261976 -6.7383911e-18 0.50973596)
(-0.0019652224 -6.9021273e-18 0.49635959)
(-0.0024988399 -7.415944e-18 0.46349945)
(-0.0029771662 -7.8705042e-18 0.42210663)
(-0.0033560704 -7.8934324e-18 0.38022516)
(-0.0036062706 -7.4871503e-18 0.34259251)
(-0.003717319 -7.1317327e-18 0.31114591)
(-0.0036962999 -7.1373733e-18 0.28593736)
(-0.0035631662 -6.5944725e-18 0.26601835)
(-0.0033449914 -6.4816726e-18 0.25008845)
(-0.0030706815 -6.506415e-18 0.23688549)
(-0.0027669465 -6.4556706e-18 0.22537408)
(-0.0024558091 -6.698753e-18 0.21480269)
(-0.00215358 -7.9279318e-18 0.20468619)
(-0.0018709964 -9.2257263e-18 0.19475408)
(-0.0016140872 -9.9963345e-18 0.18489018)
(-0.0013853411 -1.0572392e-17 0.17507798)
(-0.001184853 -1.1826525e-17 0.16535784)
(-0.0010112516 -1.2049384e-17 0.15579653)
(-0.00086235735 -1.1157552e-17 0.14646684)
(-0.00073560442 -1.0973347e-17 0.13743423)
(-0.00062829094 -9.7779835e-18 0.12874791)
(-0.00053770733 -8.8246266e-18 0.12043456)
(-0.00046121347 -8.3486604e-18 0.11249354)
(-0.00039630284 -7.810717e-18 0.10489346)
(-0.00034063999 -7.3691743e-18 0.097570054)
(-0.00029209749 -6.6556048e-18 0.090425407)
(-0.00024880042 -5.1762059e-18 0.08332872)
(-0.0002091914 -3.7775174e-18 0.076119416)
(-0.0001721012 -2.2556968e-18 0.068613262)
(-0.00013685162 -9.2216764e-19 0.060612066)
(-0.00010329344 8.610884e-20 0.051916747)
(-7.1850235e-05 5.6415542e-19 0.042341874)
(-4.3305155e-05 5.8135153e-19 0.031727168)
(-1.8806945e-05 4.7483649e-19 0.019941239)
(-1.6842243e-06 1.1180025e-19 0.0068851777)
(-1.1661647e-05 -1.3952486e-18 0.13529032)
(-0.00018290771 -3.4828251e-18 0.31912787)
(-0.00048530359 -5.2091153e-18 0.43971412)
(-0.00089195989 -6.5897255e-18 0.50522586)
(-0.0013751033 -6.9551974e-18 0.52569565)
(-0.0019020635 -7.0801376e-18 0.51295667)
(-0.0024302728 -7.3550245e-18 0.47941543)
(-0.0029123826 -7.6803045e-18 0.43623868)
(-0.0033048607 -7.8425241e-18 0.39186844)
(-0.0035768678 -7.5311084e-18 0.35148715)
(-0.0037148307 -7.131186e-18 0.31740413)
(-0.0037220734 -7.1098044e-18 0.28991448)
(-0.0036150274 -6.8560096e-18 0.26818424)
(-0.0034181031 -6.6258908e-18 0.25092813)
(-0.0031587198 -6.6440213e-18 0.23683508)
(-0.0028632935 -6.7729855e-18 0.2247881)
(-0.0025545168 -7.127916e-18 0.21394494)
(-0.002249961 -8.0693583e-18 0.20373655)
(-0.0019618186 -9.2304509e-18 0.19382391)
(-0.0016974667 -1.0061175e-17 0.18404033)
(-0.0014604643 -1.0734599e-17 0.17433543)
(-0.0012516486 -1.1648433e-17 0.1647288)
(-0.0010701012 -1.1825025e-17 0.15527564)
(-0.00091387734 -1.1216234e-17 0.14604301)
(-0.00078050309 -1.0813929e-17 0.13709408)
(-0.00066728133 -9.7765702e-18 0.12847762)
(-0.00057146213 -8.8742012e-18 0.12022086)
(-0.00049034542 -8.3317447e-18 0.11232424)
(-0.00042135305 -7.7861771e-18 0.10475773)
(-0.00036207665 -7.2983347e-18 0.097458594)
(-0.00031031845 -6.4916722e-18 0.090330494)
(-0.00026413814 -5.1186871e-18 0.08324428)
(-0.00022192153 -3.7314724e-18 0.076041084)
(-0.00018245269 -2.2548771e-18 0.068538424)
(-0.00014500774 -9.4871099e-19 0.060539834)
(-0.00010940338 2.8541757e-20 0.051847771)
(-7.6018847e-05 5.222632e-19 0.042277913)
(-4.5653072e-05 5.6160202e-19 0.031670727)
(-1.9591793e-05 4.2737865e-19 0.01989698)
(-1.6688704e-06 1.2780053e-19 0.0068642439)
(-1.1189606e-05 -7.9608199e-19 0.13787683)
(-0.00017555643 -2.7919804e-18 0.32600727)
(-0.00046667675 -4.2652348e-18 0.45028373)
(-0.00085935561 -4.9601328e-18 0.51872606)
(-0.0013281644 -6.6941913e-18 0.54113348)
(-0.0018432028 -7.8602671e-18 0.52913491)
(-0.0023650048 -7.6672003e-18 0.4950873)
(-0.002848679 -7.8373864e-18 0.45032948)
(-0.0032515833 -7.8527411e-18 0.40365499)
(-0.0035418808 -7.4603749e-18 0.36065913)
(-0.0037035113 -6.9648576e-18 0.32401142)
(-0.0037365807 -6.4395685e-18 0.29425433)
(-0.0036543209 -6.7216014e-18 0.27068208)
(-0.003478534 -6.7399617e-18 0.25204163)
(-0.0032349636 -6.8079997e-18 0.23698948)
(-0.0029493888 -7.0381708e-18 0.22434003)
(-0.0026447908 -7.7532701e-18 0.21316868)
(-0.0023396817 -8.2626551e-18 0.20282605)
(-0.0020475118 -9.0182803e-18 0.19290442)
(-0.0017769279 -1.0041794e-17 0.1831842)
(-0.0015325679 -1.0737574e-17 0.17357794)
(-0.0013160675 -1.112291e-17 0.1640815)
(-0.0011270279 -1.1338462e-17 0.15473624)
(-0.00096379998 -1.1429378e-17 0.14560196)
(-0.00082404409 -1.0515602e-17 0.1367386)
(-0.000705097 -9.7621173e-18 0.128194)
(-0.00060418763 -9.1116612e-18 0.11999571)
(-0.00051856702 -8.3447821e-18 0.11214514)
(-0.00044559266 -7.7438385e-18 0.10461361)
(-0.00038278775 -7.081449e-18 0.097339881)
(-0.00032788914 -6.3573847e-18 0.090229237)
(-0.00027889554 -5.0832302e-18 0.083154209)
(-0.00023413758 -3.6959697e-18 0.075957676)
(-0.00019235231 -2.2549059e-18 0.06845894)
(-0.00015277387 -9.8861771e-19 0.060463282)
(-0.00011518597 -1.5906607e-19 0.051774715)
(-7.9929208e-05 4.6138281e-19 0.042210088)
(-4.7828609e-05 5.2790794e-19 0.031610855)
(-2.0314712e-05 3.6581931e-19 0.019850334)
(-1.6592653e-06 1.5064683e-19 0.0068425698)
(-1.0760962e-05 -1.6692617e-18 0.14035607)
(-0.00016890706 -3.3546944e-18 0.33260834)
(-0.00044974939 -4.9779699e-18 0.46044317)
(-0.00082955793 -6.8169467e-18 0.53174086)
(-0.0012849153 -7.0375629e-18 0.556086)
(-0.0017883233 -7.5459124e-18 0.5449101)
(-0.0023030892 -7.6236694e-18 0.51050478)
(-0.0027866628 -7.4573113e-18 0.46434529)
(-0.0031974695 -7.6338388e-18 0.41553607)
(-0.0035030942 -7.4517051e-18 0.37005532)
(-0.0036855091 -7.180276e-18 0.33091952)
(-0.0037420756 -7.3527431e-18 0.29891974)
(-0.0036831518 -6.899969e-18 0.27348843)
(-0.0035280543 -6.8556241e-18 0.25341864)
(-0.0033007667 -6.9439602e-18 0.23734855)
(-0.0030261883 -6.9203919e-18 0.22403605)
(-0.0027272741 -7.4369711e-18 0.21248276)
(-0.0024231809 -8.3913588e-18 0.20196355)
(-0.0021284036 -9.3175619e-18 0.19200302)
(-0.0018527497 -1.0102887e-17 0.18232729)
(-0.0016019142 -1.0809842e-17 0.17280927)
(-0.0013783664 -1.1514388e-17 0.16341838)
(-0.0011822832 -1.1352935e-17 0.15417985)
(-0.0010123647 -1.1298717e-17 0.14514462)
(-0.00086645141 -1.0734832e-17 0.13636837)
(-0.00074194523 -9.77243e-18 0.12789744)
(-0.00063607347 -9.0780681e-18 0.11975938)
(-0.00054604961 -8.3470914e-18 0.11195644)
(-0.00046917655 -7.7042697e-18 0.10446122)
(-0.00040291451 -7.0119319e-18 0.097214017)
(-0.00034493694 -5.9647598e-18 0.090121723)
(-0.00029318566 -4.8005113e-18 0.083058589)
(-0.00024593786 -3.6356223e-18 0.075869273)
(-0.00020188659 -2.2526223e-18 0.068374892)
(-0.0001602246 -1.0218925e-18 0.060382497)
(-0.00012070364 -1.8432388e-19 0.051697681)
(-8.36315e-05 2.9615776e-19 0.042138532)
(-4.9867498e-05 5.6689157e-19 0.031547729)
(-2.0991781e-05 3.4721391e-19 0.019801465)
(-1.653953e-06 9.4057075e-20 0.0068202051)
(-1.0369611e-05 -1.2870987e-18 0.14273858)
(-0.00016285749 -3.2062964e-18 0.33895773)
(-0.00043428697 -4.8462601e-18 0.47022993)
(-0.00080220866 -6.2018523e-18 0.54431074)
(-0.0012449456 -6.725817e-18 0.57058675)
(-0.0017370974 -6.5190082e-18 0.5602994)
(-0.0022444559 -7.4358359e-18 0.52566357)
(-0.0027266766 -8.1940648e-18 0.47826148)
(-0.0031433557 -7.7774983e-18 0.42747297)
(-0.0034618127 -7.5519507e-18 0.37963133)
(-0.0036624709 -7.2756646e-18 0.33808628)
(-0.0037403563 -7.3452098e-18 0.3038765)
(-0.0037032648 -7.1738112e-18 0.27657997)
(-0.0035681849 -7.0778149e-18 0.25504699)
(-0.0033573283 -7.2292907e-18 0.23790953)
(-0.0030945552 -7.628405e-18 0.22387987)
(-0.0028025447 -7.7463323e-18 0.21189422)
(-0.0025008359 -8.4906587e-18 0.20115683)
(-0.0022047541 -9.4044647e-18 0.19112664)
(-0.0019251373 -1.0180594e-17 0.18147499)
(-0.001668691 -1.0825715e-17 0.17203322)
(-0.0014387295 -1.1405031e-17 0.16274192)
(-0.0012360491 -1.1584463e-17 0.15360803)
(-0.0010597496 -1.0922581e-17 0.14467195)
(-0.00090789419 -1.0572618e-17 0.13598398)
(-0.0007779829 -9.7264635e-18 0.12758831)
(-0.00066726341 -8.8395021e-18 0.1195121)
(-0.00057292528 -8.313312e-18 0.1117583)
(-0.00049222413 -7.6834386e-18 0.1043007)
(-0.00042256331 -7.1213312e-18 0.097081092)
(-0.00036155796 -6.2237426e-18 0.090008025)
(-0.00030709429 -5.0028181e-18 0.082957484)
(-0.00025739886 -3.611751e-18 0.075775939)
(-0.00021112188 -2.2496919e-18 0.068286346)
(-0.00016741595 -1.0390553e-18 0.06029755)
(-0.00012600266 -7.3509918e-20 0.05161675)
(-8.7162381e-05 3.6144752e-19 0.042063359)
(-5.1794802e-05 4.2813496e-19 0.031481497)
(-2.1630653e-05 3.5098879e-19 0.019750509)
(-1.6513453e-06 1.092516e-19 0.0067971845)
(-1.0010951e-05 -6.8921785e-19 0.14503333)
(-0.00015732546 -2.5812209e-18 0.34507822)
(-0.00042009681 -3.9731472e-18 0.47967634)
(-0.0007770067 -4.6601384e-18 0.55647124)
(-0.0012078966 -6.3810176e-18 0.58466626)
(-0.0016892091 -7.5480221e-18 0.57532037)
(-0.0021889685 -7.696013e-18 0.54056347)
(-0.002668895 -8.0066911e-18 0.49206025)