/*--------------------------------*- C++ -*----------------------------------*\
| =========                 |                                                 |
| \\      /  F ield         | OpenFOAM: The Open Source CFD Toolbox           |
|  \\    /   O peration     | Version:  4.0                                   |
|   \\  /    A nd           | Web:      www.OpenFOAM.org                      |
|    \\/     M anipulation  |                                                 |
\*---------------------------------------------------------------------------*/
FoamFile
{
    version     2.0;
    format      ascii;
    class       surfaceScalarField;
    location    "522";
    object      phi;
}
// * * * * * * * * * * * * * * * * * * * * * * * * * * * * * * * * * * * * * //

dimensions      [1 0 -1 0 0 0 0];

internalField   nonuniform List<scalar> 
9850
(
9.3285853e-11
2.2741605e-10
3.8742525e-10
7.6164157e-10
9.115923e-10
1.4518016e-09
1.6908258e-09
2.328767e-09
2.7426732e-09
3.4262784e-09
4.0736055e-09
4.7797724e-09
5.6754534e-09
6.4246306e-09
7.5224151e-09
8.3937626e-09
9.5693104e-09
1.0714627e-08
1.1751753e-08
1.3405997e-08
1.3988712e-08
1.6475003e-08
1.6187571e-08
1.9915214e-08
1.825124e-08
2.3706613e-08
2.0086389e-08
2.7818258e-08
2.1611444e-08
3.221414e-08
2.2763023e-08
3.6862281e-08
2.3499761e-08
4.1746592e-08
2.380305e-08
4.6880595e-08
2.3674918e-08
5.2321818e-08
2.3133715e-08
5.8185725e-08
2.2208501e-08
6.4658128e-08
2.0932982e-08
7.2005239e-08
1.9339314e-08
8.0580623e-08
1.7451916e-08
9.0828479e-08
1.5281153e-08
1.0328314e-07
1.2817064e-08
1.1856572e-07
1.0023695e-08
1.3738048e-07
6.8352175e-09
1.6051506e-07
3.1554945e-09
1.8884834e-07
-1.1388353e-09
2.233721e-07
-6.1286743e-09
2.6522913e-07
-1.1929275e-08
3.1580361e-07
-1.8647612e-08
3.7674526e-07
-2.637056e-08
4.500701e-07
-3.5160642e-08
5.382488e-07
-4.506904e-08
6.44301e-07
-5.6112848e-08
7.7190997e-07
-6.835397e-08
9.255377e-07
-8.1743525e-08
1.1106373e-06
-9.6477347e-08
1.33369e-06
-1.1230669e-07
1.6028301e-06
-1.2982561e-07
1.9271977e-06
-1.481756e-07
2.3192529e-06
-1.6882579e-07
2.7911655e-06
-1.8936323e-07
3.3628209e-06
-2.1277436e-07
4.0487342e-06
-2.3310747e-07
4.8818147e-06
-2.541625e-07
5.8734838e-06
-2.5175343e-07
7.0530488e-06
7.8719171e-06
-3.710993e-11
2.6452672e-10
-1.664121e-10
8.9094365e-10
-4.2142533e-10
1.7068148e-09
-8.4611661e-10
2.7534584e-09
-1.4975236e-09
4.0776859e-09
-2.4486706e-09
5.7309201e-09
-3.7912436e-09
7.767205e-09
-5.6371891e-09
1.0239711e-08
-8.1178947e-09
1.3195336e-08
-1.1379134e-08
1.6667242e-08
-1.5569811e-08
2.0665684e-08
-2.0823084e-08
2.5168494e-08
-2.7230387e-08
3.0113923e-08
-3.4811935e-08
3.5399816e-08
-4.34911e-08
4.0893316e-08
-5.3082184e-08
4.6453374e-08
-6.3299514e-08
5.1963935e-08
-7.3789425e-08
5.7370523e-08
-8.4177921e-08
6.2710343e-08
-9.4120534e-08
6.8128372e-08
-1.0334044e-07
7.3878085e-08
-1.1164674e-07
8.0311601e-08
-1.1893247e-07
8.7866445e-08
-1.2515861e-07
9.7054709e-08
-1.3033254e-07
1.084572e-07
-1.3448936e-07
1.227227e-07
-1.3768032e-07
1.4057161e-07
-1.3996942e-07
1.6280434e-07
-1.4143803e-07
1.9031714e-07
-1.4219853e-07
2.2413285e-07
-1.4240741e-07
2.6543822e-07
-1.4223236e-07
3.1562875e-07
-1.4186716e-07
3.7638024e-07
-1.4153468e-07
4.4973783e-07
-1.4148695e-07
5.3820125e-07
-1.4200728e-07
6.448214e-07
-1.4340928e-07
7.7331211e-07
-1.4604048e-07
9.2816873e-07
-1.5025134e-07
1.1148483e-06
-1.564438e-07
1.3398819e-06
-1.649213e-07
1.6113078e-06
-1.7617832e-07
1.9384537e-06
-1.9033058e-07
2.3334053e-06
-2.0815402e-07
2.8089874e-06
-2.293719e-07
3.3840388e-06
-2.5536015e-07
4.0747204e-06
-2.8500932e-07
4.9114634e-06
-3.1585007e-07
5.9043214e-06
-3.1010201e-07
7.0473007e-06
7.5618059e-06
-3.1859728e-11
2.9638666e-10
-1.4132404e-10
1.000408e-09
-3.5459034e-10
1.9200813e-09
-7.0503989e-10
3.1039086e-09
-1.2349304e-09
4.6075772e-09
-1.9974305e-09
6.4934212e-09
-3.0589247e-09
8.8287014e-09
-4.501435e-09
1.1682223e-08
-6.4247742e-09
1.5118678e-08
-8.9476907e-09
1.9190163e-08
-1.2206669e-08
2.3924668e-08
-1.6350377e-08
2.9312209e-08
-2.1527242e-08
3.5290795e-08
-2.7863977e-08
4.1736558e-08
-3.5435033e-08
4.846438e-08
-4.4227339e-08
5.5245688e-08
-5.4110187e-08
6.184679e-08
-6.4823315e-08
6.8083649e-08
-7.5993079e-08
7.3880107e-08
-8.7176764e-08
7.931205e-08
-9.7923169e-08
8.4624478e-08
-1.0783171e-07
9.0220121e-08
-1.1659496e-07
9.6629677e-08
-1.2401863e-07
1.0447835e-07
-1.3002173e-07
1.1446027e-07
-1.3462486e-07
1.2732581e-07
-1.3793463e-07
1.4388135e-07
-1.4012947e-07
1.6499914e-07
-1.4144785e-07
1.9163549e-07
-1.4217226e-07
2.2485725e-07
-1.4261032e-07
2.6587629e-07
-1.4308011e-07
3.1609858e-07
-1.4388931e-07
3.7718949e-07
-1.4531189e-07
4.5116051e-07
-1.4757708e-07
5.4046666e-07
-1.5087188e-07
6.4811645e-07
-1.5535095e-07
7.777915e-07
-1.6117246e-07
9.3399054e-07
-1.6849562e-07
1.122172e-06
-1.7759737e-07
1.3489839e-06
-1.8870773e-07
1.6224191e-06
-2.0246064e-07
1.9522067e-06
-2.1908757e-07
2.3500334e-06
-2.4000037e-07
2.8299e-06
-2.6518027e-07
3.4092202e-06
-2.974143e-07
4.1069538e-06
-3.3550694e-07
4.949558e-06
-3.7569632e-07
5.9445085e-06
-3.5877747e-07
7.0303868e-06
7.2030191e-06
-2.7256484e-11
3.2364357e-10
-1.2111448e-10
1.0942661e-09
-3.0423551e-10
2.1032028e-09
-6.0547336e-10
3.4051465e-09
-1.0614675e-09
5.0635719e-09
-1.7185121e-09
7.1504664e-09
-2.6347377e-09
9.7449278e-09
-3.8825565e-09
1.2930043e-08
-5.5511833e-09
1.6787307e-08
-7.7488212e-09
2.1387804e-08
-1.06037e-08
2.677955e-08
-1.4262579e-08
3.2971092e-08
-1.8884643e-08
3.9912864e-08
-2.4628217e-08
4.7480138e-08
-3.1628176e-08
5.5464343e-08
-3.99642e-08
6.3581716e-08
-4.9624695e-08
7.1507288e-08
-6.0476772e-08
7.8935726e-08
-7.2255606e-08
8.565894e-08
-8.4582754e-08
9.1639197e-08
-9.7012416e-08
9.705414e-08
-1.0909289e-07
1.0230059e-07
-1.2042498e-07
1.0796176e-07
-1.3070261e-07
1.1475598e-07
-1.3972998e-07
1.2348763e-07
-1.4741819e-07
1.3501402e-07
-1.5376943e-07
1.5023259e-07
-1.5885678e-07
1.7008648e-07
-1.6280579e-07
1.9558448e-07
-1.657807e-07
2.2783211e-07
-1.679765e-07
2.6807204e-07
-1.6961496e-07
3.1773699e-07
-1.7094277e-07
3.7851719e-07
-1.7222738e-07
4.5244499e-07
-1.7375452e-07
5.4199371e-07
-1.758278e-07
6.5018952e-07
-1.7877026e-07
7.8073384e-07
-1.8292704e-07
9.3814715e-07
-1.8866961e-07
1.1279146e-06
-1.9640543e-07
1.3567195e-06
-2.0657159e-07
1.6325855e-06
-2.1971472e-07
1.9653493e-06
-2.3637458e-07
2.3666938e-06
-2.574512e-07
2.8509759e-06
-2.8366369e-07
3.4354339e-06
-3.1626931e-07
4.1395582e-06
-3.5466039e-07
4.9879519e-06
-3.8883559e-07
5.9786806e-06
-3.5126964e-07
6.9928268e-06
6.8517485e-06
-2.1088065e-11
3.4473092e-10
-9.3918457e-11
1.1670961e-09
-2.3651299e-10
2.2457972e-09
-4.7210667e-10
3.64074e-09
-8.3055902e-10
5.422024e-09
-1.350107e-09
7.6700145e-09
-2.079502e-09
1.0474323e-08
-3.0805338e-09
1.3931075e-08
-4.4308698e-09
1.8137645e-08
-6.226966e-09
2.3183904e-08
-8.5865022e-09
2.9139091e-08
-1.1649305e-08
3.60339e-08
-1.5575021e-08
4.3838584e-08
-2.0535065e-08
5.2440187e-08
-2.6696044e-08
6.1625324e-08
-3.4192773e-08
7.1078448e-08
-4.3092331e-08
8.0406844e-08
-5.335602e-08
8.919941e-08
-6.4811825e-08
9.7114736e-08
-7.715104e-08
1.039784e-07
-8.9956241e-08
1.0985933e-07
-1.0275556e-07
1.150999e-07
-1.1508756e-07
1.2029374e-07
-1.2655861e-07
1.26227e-07
-1.368806e-07
1.338096e-07
-1.4588602e-07
1.4401941e-07
-1.5352442e-07
1.5787096e-07
-1.5984738e-07
1.7640942e-07
-1.6498819e-07
2.007253e-07
-1.6914045e-07
2.3198438e-07
-1.7253849e-07
2.7147008e-07
-1.7543984e-07
3.2063838e-07
-1.781102e-07
3.8118759e-07
-1.8081056e-07
4.551454e-07
-1.8378978e-07
5.4497299e-07
-1.8728523e-07
6.5368506e-07
-1.9153358e-07
7.8498231e-07
-1.9678818e-07
9.4340176e-07
-2.0334539e-07
1.134472e-06
-2.115627e-07
1.3649367e-06
-2.2188725e-07
1.6429104e-06
-2.3487078e-07
1.9783324e-06
-2.5117084e-07
2.3829944e-06
-2.7161838e-07
2.8714225e-06
-2.9709644e-07
3.4609132e-06
-3.2835096e-07
4.1708106e-06
-3.6355078e-07
5.0231546e-06
-3.8985812e-07
6.0049843e-06
-3.3642807e-07
6.9394002e-06
6.5153193e-06
-1.8388871e-11
3.6311948e-10
-8.1907306e-11
1.2306142e-09
-2.0627552e-10
2.3701653e-09
-4.1175672e-10
3.8462212e-09
-7.2440749e-10
5.7346749e-09
-1.1776367e-09
8.123244e-09
-1.8141338e-09
1.1110821e-08
-2.688203e-09
1.4805145e-08
-3.8684889e-09
1.9317932e-08
-5.4409707e-09
2.4756386e-08
-7.5118707e-09
3.1209992e-08
-1.020975e-08
3.8731781e-08
-1.3685452e-08
4.7314287e-08
-1.8107777e-08
5.6862514e-08
-2.3652125e-08
6.7169675e-08
-3.0479398e-08
7.7905727e-08
-3.870439e-08
8.863184e-08
-4.8357283e-08
9.8852308e-08
-5.9348048e-08
1.081055e-07
-7.144767e-08
1.1607802e-07
-8.4298051e-08
1.2270971e-07
-9.7452519e-08
1.2825436e-07
-1.104364e-07
1.3327759e-07
-1.228099e-07
1.3860049e-07
-1.3421749e-07
1.4521715e-07
-1.4441568e-07
1.5421756e-07
-1.5328026e-07
1.6673549e-07
-1.6079833e-07
1.8392746e-07
-1.6705204e-07
2.0697897e-07
-1.7219913e-07
2.3713141e-07
-1.7645385e-07
2.7572476e-07
-1.8006987e-07
3.2425433e-07
-1.8332498e-07
3.8444262e-07
-1.8650788e-07
4.5832829e-07
-1.8990823e-07
5.4837333e-07
-1.9381077e-07
6.5758759e-07
-1.9849659e-07
7.8966813e-07
-2.0425023e-07
9.4915545e-07
-2.113775e-07
1.1415995e-06
-2.2021974e-07
1.373779e-06
-2.3119022e-07
1.6538813e-06
-2.4477935e-07
1.9919212e-06
-2.6161803e-07
2.3998339e-06
-2.824309e-07
2.8922344e-06
-3.0804246e-07
3.4865265e-06
-3.388942e-07
4.2016601e-06
-3.715945e-07
5.0558576e-06
-3.9063075e-07
6.0240174e-06
-3.2431404e-07
6.8730855e-06
6.1910026e-06
-1.617745e-11
3.7929676e-10
-7.2087819e-11
1.2865242e-09
-1.8162577e-10
2.479703e-09
-3.6273661e-10
4.0273319e-09
-6.3854148e-10
6.0104794e-09
-1.0387547e-09
8.5234564e-09
-1.6014515e-09
1.1673516e-08
-2.3752372e-09
1.557893e-08
-3.4218356e-09
2.036453e-08
-4.8190319e-09
2.6153582e-08
-6.6637455e-09
3.3054706e-08
-9.0746983e-09
4.1142735e-08
-1.2193638e-08
5.0433229e-08
-1.6183362e-08
6.0852241e-08
-2.1220013e-08
7.220633e-08
-2.7476733e-08
8.4162453e-08
-3.5096724e-08
9.6251836e-08
-4.4157016e-08
1.0791261e-07
-5.4629912e-08
1.185784e-07
-6.6354682e-08
1.278028e-07
-7.9033231e-08
1.3538826e-07
-9.2256818e-08
1.4147794e-07
-1.0555873e-07
1.465795e-07
-1.1847758e-07
1.5151933e-07
-1.3061387e-07
1.5735342e-07
-1.416682e-07
1.6527185e-07
-1.5145844e-07
1.765257e-07
-1.5991961e-07
1.9238858e-07
-1.6709226e-07
2.1415154e-07
-1.7310499e-07
2.4314408e-07
-1.7815503e-07
2.8077473e-07
-1.8248859e-07
3.2858782e-07
-1.8638257e-07
3.8833652e-07
-1.9012853e-07
4.6207421e-07
-1.9402075e-07
5.5226547e-07
-1.9834955e-07
6.6191637e-07
-2.0340295e-07
7.9472154e-07
-2.09475e-07
9.5522748e-07
-2.1688281e-07
1.1490075e-06
-2.2598151e-07
1.3828776e-06
-2.3719622e-07
1.6650964e-06
-2.5101702e-07
2.0057417e-06
-2.6806949e-07
2.4168873e-06
-2.8901861e-07
2.9131826e-06
-3.1450656e-07
3.5120163e-06
-3.4462217e-07
4.2317736e-06
-3.7453939e-07
5.0857773e-06
-3.8618322e-07
6.0356589e-06
-3.1016225e-07
6.7970666e-06
5.8808383e-06
-1.4614908e-11
3.9391103e-10
-6.5131207e-11
1.3370399e-09
-1.6411614e-10
2.5786879e-09
-3.2780806e-10
4.1910239e-09
-5.77141e-10
6.2598128e-09
-9.3904205e-10
8.8853579e-09
-1.448057e-09
1.2182531e-08
-2.1483607e-09
1.6279234e-08
-3.0961933e-09
2.1312362e-08
-4.3626874e-09
2.7420076e-08
-6.0369536e-09
3.4728971e-08
-8.2290137e-09
4.3334794e-08
-1.1071781e-08
5.3275995e-08
-1.4720632e-08
6.4501092e-08
-1.9348319e-08
7.6834016e-08
-2.5132384e-08
8.9946516e-08
-3.2232532e-08
1.0335199e-07
-4.0757728e-08
1.164378e-07
-5.0727533e-08
1.2854821e-07
-6.2038355e-08
1.3911362e-07
-7.4448525e-08
1.4779842e-07
-8.7592571e-08
1.5462197e-07
-1.0102445e-07
1.6001136e-07
-1.1427783e-07
1.6477268e-07
-1.2692589e-07
1.7000146e-07
-1.3862692e-07
1.7697284e-07
-1.4914959e-07
1.8704833e-07
-1.5837985e-07
2.016188e-07
-1.6631459e-07
2.2208623e-07
-1.7304777e-07
2.498772e-07
-1.7875286e-07
2.8647977e-07
-1.8366405e-07
3.3349895e-07
-1.8805709e-07
3.9272952e-07
-1.9223131e-07
4.6624837e-07
-1.9649393e-07
5.5652807e-07
-2.011496e-07
6.66572e-07
-2.0649688e-07
8.0006883e-07
-2.1283373e-07
9.6156424e-07
-2.2047201e-07
1.1566459e-06
-2.2975496e-07
1.3921605e-06
-2.4108929e-07
1.676431e-06
-2.5494333e-07
2.0195954e-06
-2.7190695e-07
2.4338519e-06
-2.9260218e-07
2.9338768e-06
-3.174598e-07
3.5368758e-06
-3.461666e-07
4.2604785e-06
-3.7284814e-07
5.112461e-06
-3.7739756e-07
6.0402063e-06
-2.9426623e-07
6.7139376e-06
5.5865706e-06
-1.336563e-11
4.0727632e-10
-5.9571586e-11
1.3832456e-09
-1.5012614e-10
2.6692422e-09
-2.9990591e-10
4.3408034e-09
-5.2810099e-10
6.4880077e-09
-8.5941254e-10
9.2166692e-09
-1.3255606e-09
1.2648679e-08
-1.9671616e-09
1.6920835e-08
-2.8360176e-09
2.2181219e-08
-3.9978252e-09
2.8581884e-08
-5.5351991e-09
3.6266345e-08
-7.5507277e-09
4.5350322e-08
-1.0169402e-08
5.5894669e-08
-1.3539208e-08
6.7870898e-08
-1.782793e-08
8.1122738e-08
-2.3213464e-08
9.5332051e-08
-2.9864884e-08
1.1000341e-07
-3.7912983e-08
1.244859e-07
-4.7413002e-08
1.3804822e-07
-5.8308079e-08
1.5000869e-07
-7.0406765e-08
1.598971e-07
-8.3386805e-08
1.6760199e-07
-9.6828875e-08
1.7345341e-07
-1.1027194e-07
1.7821571e-07
-1.2327392e-07
1.8300341e-07
-1.3546228e-07
1.8916116e-07
-1.4656592e-07
1.9815192e-07
-1.564282e-07
2.1148102e-07
-1.6500535e-07
2.3066333e-07
-1.7235607e-07
2.5722785e-07
-1.7862624e-07
2.9274988e-07
-1.8403155e-07
3.3890415e-07
-1.8883885e-07
3.9753672e-07
-1.9334773e-07
4.7075715e-07
-1.9787325e-07
5.6105356e-07
-2.0273281e-07
6.7143158e-07
-2.0823928e-07
8.0557528e-07
-2.1470227e-07
9.680272e-07
-2.2243927e-07
1.164383e-06
-2.317911e-07
1.4015123e-06
-2.4314993e-07
1.6877902e-06
-2.5696243e-07
2.0334075e-06
-2.7376444e-07
2.4506549e-06
-2.9411948e-07
2.9542308e-06
-3.1824386e-07
3.5610018e-06
-3.4533334e-07
4.2875664e-06
-3.6871942e-07
5.1358491e-06
-3.6682768e-07
6.0383128e-06
-2.7822727e-07
6.6253394e-06
5.3083417e-06
-1.23583e-11
4.1963444e-10
-5.5085807e-11
1.4259733e-09
-1.3883211e-10
2.7529883e-09
-2.7736681e-10
4.4793378e-09
-4.8845793e-10
6.6990989e-09
-7.9498847e-10
9.5231994e-09
-1.2263607e-09
1.3080052e-08
-1.8202586e-09
1.7514734e-08
-2.624809e-09
2.2985769e-08
-3.7011627e-09
2.9658237e-08
-5.1264402e-09
3.7691622e-08
-6.9968192e-09
4.72207e-08
-9.4302309e-09
5.8328081e-08
-1.2567665e-08
7.1008331e-08
-1.6571336e-08
8.5126409e-08
-2.161727e-08
1.0037799e-07
-2.7879458e-08
1.1626559e-07
-3.5503661e-08
1.321101e-07
-4.457219e-08
1.4711675e-07
-5.5066335e-08
1.6050283e-07
-6.6838597e-08
1.7166935e-07
-7.9607851e-08
1.8037123e-07
-9.2984143e-08
1.8682968e-07
-1.0651821e-07
1.9174975e-07
-1.1976127e-07
1.9624644e-07
-1.3231884e-07
2.0171867e-07
-1.4388789e-07
2.0972093e-07
-1.5427532e-07
2.2186839e-07
-1.6340066e-07
2.3978858e-07
-1.7128877e-07
2.6511586e-07
-1.7805702e-07
2.9951803e-07
-1.8389952e-07
3.4474657e-07
-1.890698e-07
4.0270691e-07
-1.9386241e-07
4.7554967e-07
-1.9859498e-07
5.6578605e-07
-2.0359273e-07
6.7642936e-07
-2.0917911e-07
8.1116161e-07
-2.1567343e-07
9.745215e-07
-2.2339918e-07
1.1721089e-06
-2.3269792e-07
1.410811e-06
-2.43953e-07
1.6990456e-06
-2.5759718e-07
2.0470513e-06
-2.7411765e-07
2.4671764e-06
-2.9400705e-07
2.9741193e-06
-3.1728769e-07
3.584284e-06
-3.4262156e-07
4.3128989e-06
-3.6268324e-07
5.1559126e-06
-3.5502629e-07
6.0306542e-06
-2.6237314e-07
6.5326886e-06
5.0459668e-06
-1.1519789e-11
4.3115443e-10
-5.135233e-11
1.4658059e-09
-1.2942967e-10
2.8310658e-09
-2.5859817e-10
4.6085063e-09
-4.5543862e-10
6.8959395e-09
-7.4131185e-10
9.8090724e-09
-1.1436787e-09
1.3482418e-08
-1.697759e-09
1.8068813e-08
-2.4485758e-09
2.3736586e-08
-3.4534246e-09
3.0663086e-08
-4.7847249e-09
3.9022923e-08
-6.5330915e-09
4.8969067e-08
-8.8101966e-09
6.0605186e-08
-1.1750556e-08
7.394869e-08
-1.5510733e-08
8.8886587e-08
-2.0263695e-08
1.0513095e-07
-2.6185535e-08
1.2218743e-07
-3.343224e-08
1.3935681e-07
-4.2106801e-08
1.5579131e-07
-5.2221679e-08
1.706177e-07
-6.3667518e-08
1.8311518e-07
-7.620133e-08
1.9290503e-07
-8.9463174e-08
2.0009151e-07
-1.030195e-07
2.0530606e-07
-1.1642083e-07
2.0964773e-07
-1.2925743e-07
2.1455523e-07
-1.4120085e-07
2.216643e-07
-1.5202685e-07
2.3269432e-07
-1.6162218e-07
2.4938384e-07
-1.6998019e-07
2.7347378e-07
-1.7719012e-07
3.0672785e-07
-1.8342317e-07
3.509795e-07
-1.8891644e-07
4.0820007e-07
-1.9395559e-07
4.805887e-07
-1.9885656e-07
5.7068699e-07
-2.0394923e-07
6.8152193e-07
-2.0956444e-07
8.1677681e-07
-2.1602953e-07
9.8098656e-07
-2.2367241e-07
1.1797519e-06
-2.3283368e-07
1.4199723e-06
-2.4388572e-07
1.710098e-06
-2.5724462e-07
2.0604098e-06
-2.7335015e-07
2.4832829e-06
-2.9260703e-07
2.9933754e-06
-3.1485995e-07
3.6065384e-06
-3.382633e-07
4.336301e-06
-3.5494434e-07
5.1725955e-06
-3.4213432e-07
6.0178425e-06
-2.4673138e-07
6.4372882e-06
4.7992336e-06
-1.0810672e-11
4.4196437e-10
-4.8190701e-11
1.5031853e-09
-1.2146371e-10
2.9043386e-09
-2.4269134e-10
4.7297337e-09
-4.2744472e-10
7.0806926e-09
-6.9578901e-10
1.0077416e-08
-1.0735295e-09
1.3860158e-08
-1.5937784e-09
1.8589063e-08
-2.2989032e-09
2.444171e-08
-3.2428793e-09
3.1607062e-08
-4.494054e-09
4.0274097e-08
-6.1381744e-09
5.0613187e-08
-8.281338e-09
6.2748352e-08
-1.1052135e-08
7.6719488e-08
-1.4601622e-08
9.2436075e-08
-1.9099085e-08
1.0962842e-07
-2.4720912e-08
1.2780925e-07
-3.1629993e-08
1.4626588e-07
-3.9945192e-08
1.641065e-07
-4.9704548e-08
1.8037705e-07
-6.0831702e-08
1.9424231e-07
-7.3118573e-08
2.0519188e-07
-8.6234767e-08
2.1320768e-07
-9.976475e-08
2.18836e-07
-1.1326257e-07
2.231455e-07
-1.263084e-07
2.2760101e-07
-1.3855342e-07
2.3390925e-07
-1.4974682e-07
2.4388766e-07
-1.597462e-07
2.5938312e-07
-1.6851575e-07
2.8224324e-07
-1.7611774e-07
3.1432969e-07
-1.8269989e-07
3.5756152e-07
-1.8848112e-07
4.1398118e-07
-1.9373512e-07
4.8584258e-07
-1.9877273e-07
5.757245e-07
-2.0392464e-07
6.8667376e-07
-2.095269e-07
8.2237905e-07
-2.1591312e-07
9.8737274e-07
-2.2341518e-07
1.187254e-06
-2.3237263e-07
1.4289297e-06
-2.4314682e-07
1.7208726e-06
-2.5613335e-07
2.0733961e-06
-2.7172561e-07
2.4988761e-06
-2.9022662e-07
3.0118757e-06
-3.1130528e-07
3.6276184e-06
-3.3266312e-07
4.3576578e-06
-3.4597727e-07
5.1859115e-06
-3.2856917e-07
6.0004328e-06
-2.3146194e-07
6.340184e-06
4.56777e-06
-1.0199973e-11
4.5216351e-10
-4.5469009e-11
1.5384539e-09
-1.1460707e-10
2.9734764e-09
-2.2899895e-10
4.8441254e-09
-4.0334444e-10
7.2550381e-09
-6.5658918e-10
1.0330661e-08
-1.013108e-09
1.4216677e-08
-1.5041905e-09
1.9080146e-08
-2.1698959e-09
2.5107416e-08
-3.06131e-09
3.2498477e-08
-4.2432133e-09
4.1456001e-08
-5.7970573e-09
5.2167032e-08
-7.8239648e-09
6.4775259e-08
-1.0447103e-08
7.9342626e-08
-1.381227e-08
9.5801243e-08
-1.8084797e-08
1.1390094e-07
-2.3440172e-08
1.3316463e-07
-3.0045824e-08
1.5287153e-07
-3.8032858e-08
1.7209353e-07
-4.7460388e-08
1.8980457e-07
-5.828062e-08
2.0506253e-07
-7.0317192e-08
2.1722844e-07
-8.3268224e-08
2.261587e-07
-9.67374e-08
2.3230515e-07
-1.1028531e-07
2.3669339e-07
-1.2348609e-07
2.4080171e-07
-1.3597463e-07
2.4639773e-07
-1.4747745e-07
2.5539038e-07
-1.5782612e-07
2.6973168e-07
-1.6695819e-07
2.9137516e-07
-1.7491019e-07
3.2228152e-07
-1.8180675e-07
3.6445794e-07
-1.8784758e-07
4.2002185e-07
-1.932922e-07
4.9128709e-07
-1.9844342e-07
5.8087561e-07
-2.0362966e-07
6.918599e-07
-2.0918928e-07
8.2793865e-07
-2.1546014e-07
9.9364362e-07
-2.2277717e-07
1.1945711e-06
-2.3147846e-07
1.4376309e-06
-2.4191486e-07
1.7313095e-06
-2.5445927e-07
2.0859403e-06
-2.6945973e-07
2.5138774e-06
-2.871127e-07
3.0295281e-06
-3.0690853e-07
3.6474155e-06
-3.2615785e-07
4.376906e-06
-3.3618219e-07
5.1959378e-06
-3.1468386e-07
5.9789329e-06
-2.1669529e-07
6.2421986e-06
4.3510729e-06
-9.6667625e-12
4.6183054e-10
-4.3096075e-11
1.5718834e-09
-1.0863052e-10
3.039011e-09
-2.1706436e-10
4.9525592e-09
-3.8233699e-10
7.4203102e-09
-6.2241725e-10
1.057074e-08
-9.6042613e-10
1.4554685e-08
-1.4260575e-09
1.9545776e-08
-2.0573449e-09
2.5738703e-08
-2.9028311e-09
3.3343963e-08
-4.0241471e-09
4.2577316e-08
-5.4989252e-09
5.364181e-08
-7.4238151e-09
6.6700147e-08
-9.9170299e-09
8.1835842e-08
-1.3119407e-08
9.9003623e-08
-1.7192218e-08
1.1797375e-07
-2.2309304e-08
1.3828171e-07
-2.8640906e-08
1.5920313e-07
-3.6327582e-08
1.797802e-07
-4.5445885e-08
1.9892287e-07
-5.5972822e-08
2.1558946e-07
-6.7760754e-08
2.2901636e-07
-8.0534914e-08
2.3893284e-07
-9.3918786e-08
2.4568898e-07
-1.0748169e-07
2.5025624e-07
-1.2079469e-07
2.5411466e-07
-1.3347996e-07
2.5908292e-07
-1.4524449e-07
2.671548e-07
-1.558967e-07
2.8038376e-07
-1.6534965e-07
3.0082797e-07
-1.736158e-07
3.3054751e-07
-1.8079735e-07
3.7163933e-07
-1.8707439e-07
4.262987e-07
-1.9269099e-07
4.9690351e-07
-1.9793953e-07
5.8612402e-07
-2.0314351e-07
6.9706382e-07
-2.0864117e-07
8.3343622e-07
-2.1477245e-07
9.9977488e-07
-2.218738e-07
1.2016725e-06
-2.3028097e-07
1.4460381e-06
-2.4033407e-07
1.741363e-06
-2.5238114e-07
2.0979872e-06
-2.6672345e-07
2.5282205e-06
-2.8345159e-07
3.0462558e-06
-3.0187646e-07
3.6658417e-06
-3.189785e-07
4.3940072e-06
-3.2582213e-07
5.2027833e-06
-3.0069984e-07
5.953809e-06
-2.0250327e-07
6.1440055e-06
4.1485678e-06
-9.1985259e-12
4.7102901e-10
-4.1008721e-11
1.6036933e-09
-1.0336999e-10
3.1013717e-09
-2.0655599e-10
5.0557442e-09
-3.6383438e-10
7.5775876e-09
-5.9231117e-10
1.0799216e-08
-9.1400213e-10
1.4876375e-08
-1.3571886e-09
1.9988961e-08
-1.9581127e-09
2.6339625e-08
-2.7630594e-09
3.4148908e-08
-3.8308531e-09
4.3645108e-08
-5.2357061e-09
5.5046662e-08
-7.0702316e-09
6.8534671e-08
-9.4481112e-09
8.4213721e-08
-1.2505517e-08
1.0206103e-07
-1.6399682e-08
1.2186791e-07
-2.1302304e-08
1.4318433e-07
-2.7385193e-08
1.6528602e-07
-3.4796189e-08
1.8719119e-07
-4.362636e-08
2.0775303e-07
-5.3874251e-08
2.2583733e-07
-6.5418202e-08
2.4056029e-07
-7.8009077e-08
2.5152369e-07
-9.1290223e-08
2.5897009e-07
-1.048412e-07
2.6380717e-07
-1.1823252e-07
2.6750593e-07
-1.3107636e-07
2.7192666e-07
-1.4306292e-07
2.7914124e-07
-1.5397997e-07
2.9130067e-07
-1.6371818e-07
3.1056602e-07
-1.7226742e-07
3.3909658e-07
-1.7970829e-07
3.7908004e-07
-1.8620136e-07
4.3279159e-07
-1.9197438e-07
5.0267638e-07
-1.9730779e-07
5.9145727e-07
-2.0251797e-07
7.0227391e-07
-2.0794049e-07
8.388587e-07
-2.139157e-07
1.0057501e-06
-2.2078013e-07
1.2085371e-06
-2.2886626e-07
1.4541242e-06
-2.3850275e-07
1.7509999e-06
-2.5001116e-07
2.1094956e-06
-2.6364403e-07
2.5418542e-06
-2.7938837e-07
3.0619997e-06
-2.9637914e-07
3.6828339e-06
-3.1132188e-07
4.4089491e-06
-3.1511823e-07
5.2065817e-06
-2.8679798e-07
5.9254872e-06
-1.8893987e-07
6.0461509e-06
3.9596263e-06
-8.7819959e-12
4.7981112e-10
-3.9152332e-11
1.6340638e-09
-9.8692353e-11
3.1609116e-09
-1.9721227e-10
5.1542638e-09
-3.473827e-10
7.7277577e-09
-5.6554143e-10
1.1017374e-08
-8.7271885e-10
1.5183552e-08
-1.2959379e-09
2.0412179e-08
-1.8698397e-09
2.6913526e-08
-2.6386906e-09
3.4917757e-08
-3.6587976e-09
4.4665213e-08
-5.001294e-09
5.6389158e-08
-6.7551269e-09
7.0288502e-08
-9.0298216e-09
8.6488414e-08
-1.1957181e-08
1.0498839e-07
-1.5690482e-08
1.2560121e-07
-2.0398974e-08
1.4789282e-07
-2.6255096e-08
1.7114214e-07
-3.3412308e-08
1.9434839e-07
-4.1973759e-08
2.1631447e-07
-5.1956785e-08
2.3582035e-07
-6.3263227e-08
2.5186672e-07
-7.5668023e-08
2.6392845e-07
-8.8834179e-08
2.721362e-07
-1.0235255e-07
2.7732549e-07
-1.1579502e-07
2.8094834e-07
-1.2876608e-07
2.8489763e-07
-1.4094157e-07
2.9131661e-07
-1.5209068e-07
3.0244966e-07
-1.6208355e-07
3.2055876e-07
-1.7088899e-07
3.4790184e-07
-1.7856695e-07
3.8675784e-07
-1.852588e-07
4.3948325e-07
-1.9117558e-07
5.0859297e-07
-1.9658446e-07
5.9686601e-07
-2.0179309e-07
7.074824e-07
-2.0713242e-07
8.4419794e-07
-2.1294121e-07
1.0115588e-06
-2.1955495e-07
1.2151509e-06
-2.2730156e-07
1.4618708e-06
-2.3649803e-07
1.7601967e-06
-2.4743863e-07
2.1204361e-06
-2.6032502e-07
2.5547414e-06
-2.7504455e-07
3.0767188e-06
-2.9056414e-07
3.6983547e-06
-3.033625e-07
4.4217467e-06
-3.0426453e-07
5.2074857e-06
-2.7313289e-07
5.8943539e-06
-1.7604514e-07
5.949067e-06
3.7835795e-06
-8.4090633e-12
4.8822039e-10
-3.7490556e-11
1.6631452e-09
-9.4504317e-11
3.2179251e-09
-1.8884513e-10
5.2486043e-09
-3.3264837e-10
7.8715606e-09
-5.4156238e-10
1.1226288e-08
-8.3573339e-10
1.5477723e-08
-1.2410535e-09
2.08175e-08
-1.7907243e-09
2.7463197e-08
-2.5271953e-09
3.5654228e-08
-3.5045012e-09
4.5642519e-08
-4.7909841e-09
5.767564e-08
-6.4722531e-09
7.1969769e-08
-8.6540034e-09
8.8670162e-08
-1.1463954e-08
1.0779834e-07
-1.505155e-08
1.291888e-07
-1.9583398e-08
1.5242466e-07
-2.52319e-08
1.7679064e-07
-3.2154775e-08
2.0127126e-07
-4.04653e-08
2.2462499e-07
-5.0197228e-08
2.4555226e-07
-6.1273663e-08
2.6294312e-07
-7.349209e-08
2.7614684e-07
-8.6534763e-08
2.8517883e-07
-1.0000456e-07
2.9079524e-07
-1.1347629e-07
2.9442e-07
-1.265487e-07
2.9796996e-07
-1.3888527e-07
3.0365306e-07
-1.5023861e-07
3.1380285e-07
-1.6045997e-07
3.3077993e-07
-1.6949839e-07
3.5694006e-07
-1.7739427e-07
3.9465351e-07
-1.8427025e-07
4.4635901e-07
-1.9032053e-07
5.1464304e-07
-1.9579836e-07
6.0234363e-07
-2.0100106e-07
7.1268495e-07
-2.0625332e-07
8.4945015e-07
-2.1189079e-07
1.0171963e-06
-2.182464e-07
1.2215066e-06
-2.2564289e-07
1.4692673e-06
-2.3438461e-07
1.7689388e-06
-2.4473826e-07
2.1307897e-06
-2.5685363e-07
2.5668576e-06
-2.7052252e-07
3.0903874e-06
-2.8455491e-07
3.7123884e-06
-2.9524569e-07
4.4324367e-06
-2.93417e-07
5.205659e-06
-2.5982336e-07
5.8607587e-06
-1.6384393e-07
5.8530915e-06
3.619734e-06
-8.0736926e-12
4.9629348e-10
-3.5993159e-11
1.6910642e-09
-9.0728274e-11
3.2726601e-09
-1.8129988e-10
5.3391757e-09
-3.1935963e-10
8.0096204e-09
-5.1993409e-10
1.1426863e-08
-8.0237156e-10
1.5760161e-08
-1.1915413e-09
2.1206669e-08
-1.7193427e-09
2.7990999e-08
-2.4265775e-09
3.6361464e-08
-3.3652186e-09
4.6581161e-08
-4.6010666e-09
5.8911489e-08
-6.2166711e-09
7.3585375e-08
-8.314197e-09
9.0767688e-08
-1.1017536e-08
1.1050168e-07
-1.4472448e-08
1.3264371e-07
-1.8842803e-08
1.5679502e-07
-2.4300441e-08
1.8224827e-07
-3.1006297e-08
2.0797711e-07
-3.9082131e-08
2.3270081e-07
-4.8576084e-08
2.550462e-07
-5.9430516e-08
2.7379753e-07
-7.1464008e-08
2.8818029e-07
-8.4377525e-08
2.980923e-07
-9.7786427e-08
3.0420408e-07
-1.1126966e-07
3.0790315e-07
-1.244219e-07
3.1112212e-07
-1.3689605e-07
3.1612708e-07
-1.4842977e-07
3.253364e-07
-1.5885696e-07
3.4120691e-07
-1.6810823e-07
3.6619112e-07
-1.7620541e-07
4.0275045e-07
-1.8325303e-07
4.5340641e-07
-1.8942862e-07
5.2081837e-07
-1.9497085e-07
6.0788566e-07
-2.0016589e-07
7.1787978e-07
-2.0533067e-07
8.5461484e-07
-2.1079616e-07
1.0226617e-06
-2.1689164e-07
1.2276022e-06
-2.2393366e-07
1.4763093e-06
-2.3221333e-07
1.7772189e-06
-2.4196962e-07
2.140546e-06
-2.5330023e-07
2.5781891e-06
-2.6590589e-07
3.1029928e-06
-2.7845292e-07
3.7249368e-06
-2.8708994e-07
4.4410729e-06
-2.8269937e-07
5.2012704e-06
-2.4695903e-07
5.8250169e-06
-1.5234886e-07
5.7584855e-06
3.4673835e-06
-7.7685346e-12
5.0406162e-10
-3.4633453e-11
1.7179287e-09
-8.7301616e-11
3.3253281e-09
-1.7445355e-10
5.4263275e-09
-3.0730291e-10
8.1424691e-09
-5.0031012e-10
1.161987e-08
-7.7209819e-10
1.6031949e-08
-1.1466076e-09
2.1581179e-08
-1.654554e-09
2.8498945e-08
-2.3352373e-09
3.7042148e-08
-3.2387505e-09
4.7484673e-08
-4.4285664e-09
6.0101304e-08
-5.9844274e-09
7.5141235e-08
-8.0052271e-09
9.2788488e-08
-1.0611274e-08
1.1310772e-07
-1.3944794e-08
1.3597723e-07
-1.816687e-08
1.6101709e-07
-2.3448412e-08
1.875298e-07
-2.9952718e-08
2.1448141e-07
-3.7808675e-08
2.4055676e-07
-4.7077066e-08
2.6431457e-07
-5.7717697e-08
2.8443814e-07
-6.9568859e-08
3.0003142e-07
-8.2349632e-08
3.1087302e-07
-9.5688109e-08
3.1754249e-07
-1.0916836e-07
3.2138333e-07
-1.2238244e-07
3.243361e-07
-1.3497416e-07
3.2871866e-07
-1.4666775e-07
3.3702982e-07
-1.5728115e-07
3.5182009e-07
-1.6672777e-07
3.756375e-07
-1.7501181e-07
4.1103423e-07
-1.8222044e-07
4.6061479e-07
-1.8851469e-07
5.2711234e-07
-1.9411855e-07
6.1348929e-07
-1.9930611e-07
7.2306712e-07
-2.0438549e-07
8.5969411e-07
-2.0968164e-07
1.0279578e-06
-2.1551903e-07
1.2334397e-06
-2.2220733e-07
1.4829976e-06
-2.3002378e-07
1.7850357e-06
-2.3917981e-07
2.149702e-06
-2.4972143e-07
2.5887315e-06
-2.6126302e-07
3.1145342e-06
-2.7234162e-07
3.7360168e-06
-2.7899248e-07
4.4477231e-06
-2.7221017e-07
5.19449e-06
-2.3460654e-07
5.7874117e-06
-1.4156294e-07
5.6654463e-06
3.3258188e-06
-7.4898444e-12
5.1155166e-10
-3.3392818e-11
1.7438316e-09
-8.4175488e-11
3.3761108e-09
-1.6820847e-10
5.5103602e-09
-2.963042e-10
8.2705644e-09
-4.8240838e-10
1.1805974e-08
-7.4448058e-10
1.629402e-08
-1.1056123e-09
2.194231e-08
-1.5954379e-09
2.8988769e-08
-2.2518851e-09
3.7698593e-08
-3.1233174e-09
4.8356106e-08
-4.2710736e-09
6.124906e-08
-5.7723047e-09
7.6642466e-08
-7.7228711e-09
9.4739054e-08
-1.0239723e-08
1.1562457e-07
-1.3461702e-08
1.3919921e-07
-1.7547101e-08
1.6510249e-07
-2.2665614e-08
1.9264831e-07
-2.8982231e-08
2.2079802e-07
-3.6631816e-08
2.4820633e-07
-4.5686292e-08
2.7336903e-07
-5.6121318e-08
2.9487314e-07
-6.7793585e-08
3.1170365e-07
-8.0439594e-08
3.2351899e-07
-9.3700319e-08
3.3080315e-07
-1.0716575e-07
3.3484869e-07
-1.2042649e-07
3.3759673e-07
-1.3311866e-07
3.4141069e-07
-1.4495438e-07
3.4886538e-07
-1.5573688e-07
3.626024e-07
-1.6536352e-07
3.8526392e-07
-1.7382187e-07
4.1949231e-07
-1.8118246e-07
4.6797507e-07
-1.8759013e-07
5.3351973e-07
-1.9325421e-07
6.1915309e-07
-1.9843609e-07
7.2824879e-07
-2.0343423e-07
8.6469212e-07
-2.0856642e-07
1.0330899e-06
-2.1415133e-07
1.2390247e-06
-2.2049082e-07
1.4893372e-06
-2.2784806e-07
1.7923933e-06
-2.3640694e-07
2.1582609e-06
-2.4616333e-07
2.5984887e-06
-2.5664996e-07
3.1250207e-06
-2.6628931e-07
3.7456575e-06
-2.7103206e-07
4.4524652e-06
-2.6202587e-07
5.1854859e-06
-2.2281248e-07
5.7481968e-06
-1.3148015e-07
5.5741186e-06
3.1943372e-06
-7.2359952e-12
5.1878688e-10
-3.2257988e-11
1.7688532e-09
-8.1313354e-11
3.425166e-09
-1.6248742e-10
5.5915344e-09
-2.8622614e-10
8.3943031e-09
-4.6600202e-10
1.198575e-08
-7.1916742e-10
1.6547186e-08
-1.0680346e-09
2.2291178e-08
-1.5412439e-09
2.9461977e-08
-2.1754606e-09
3.8332809e-08
-3.017463e-09
4.9198107e-08
-4.1266167e-09
6.2358212e-08
-5.5776756e-09
7.8093522e-08
-7.463675e-09
9.662505e-08
-9.8984065e-09
1.180593e-07
-1.3017491e-08
1.4231829e-07
-1.6976457e-08
1.6906145e-07
-2.1943568e-08
1.9761542e-07
-2.8084953e-08
2.2693939e-07
-3.5540501e-08
2.5566186e-07
-4.439196e-08
2.8222047e-07
-5.4629418e-08
3.0511057e-07
-6.6126725e-08
3.2320092e-07
-7.863715e-08
3.3602936e-07
-9.1814526e-08