/*--------------------------------*- C++ -*----------------------------------*\
| =========                 |                                                 |
| \\      /  F ield         | OpenFOAM: The Open Source CFD Toolbox           |
|  \\    /   O peration     | Version:  4.0                                   |
|   \\  /    A nd           | Web:      www.OpenFOAM.org                      |
|    \\/     M anipulation  |                                                 |
\*---------------------------------------------------------------------------*/
FoamFile
{
    version     2.0;
    format      ascii;
    class       surfaceScalarField;
    location    "2000";
    object      phi;
}
// * * * * * * * * * * * * * * * * * * * * * * * * * * * * * * * * * * * * * //

dimensions      [1 0 -1 0 0 0 0];

internalField   nonuniform List<scalar> 
9850
(
1.3826464e-10
3.4367755e-10
5.6380673e-10
1.1577752e-09
1.3100093e-09
2.2157589e-09
2.4051687e-09
3.5661006e-09
3.8643399e-09
5.26407e-09
5.6844841e-09
7.3691249e-09
7.8403163e-09
9.9430922e-09
1.0281802e-08
1.3047898e-08
1.2934274e-08
1.674329e-08
1.5701871e-08
2.1085305e-08
1.8474444e-08
2.6126498e-08
2.1137287e-08
3.1919033e-08
2.3582319e-08
3.8521513e-08
2.5718876e-08
4.6009907e-08
2.748226e-08
5.4492196e-08
2.883889e-08
6.4125605e-08
2.9785536e-08
7.5136258e-08
3.034682e-08
8.7832594e-08
3.0568027e-08
1.0262176e-07
3.0505837e-08
1.2001976e-07
3.021845e-08
1.4065914e-07
2.9756338e-08
1.6529613e-07
2.9155163e-08
1.9482072e-07
2.8432025e-08
2.3027394e-07
2.7585684e-08
2.7287605e-07
2.6600265e-08
3.2406826e-07
2.545117e-08
3.855686e-07
2.4111387e-08
4.5944137e-07
2.2556712e-08
5.4817956e-07
2.0769279e-08
6.5480074e-07
1.8739522e-08
7.8295887e-07
1.6467028e-08
9.3707678e-07
1.3960874e-08
1.1225049e-06
1.1239736e-08
1.3457139e-06
8.3317777e-09
1.6145273e-06
5.2747349e-09
1.9384051e-06
2.1102097e-09
2.3287908e-06
-1.087333e-09
2.7994689e-06
-4.1902965e-09
3.3671383e-06
-7.1144617e-09
4.052054e-06
-9.7564857e-09
4.8786921e-06
-1.201277e-08
5.8766213e-06
-1.375697e-08
7.0816402e-06
-1.4868409e-08
8.5369967e-06
-1.5195798e-08
1.0295077e-05
-1.4604343e-08
1.2419152e-05
-1.2925258e-08
1.4985904e-05
-1.0024116e-08
1.8087913e-05
-5.7733031e-09
2.1837493e-05
2.6369838e-05
4.5362324e-11
2.9831512e-10
1.923558e-10
1.0107818e-09
4.6019115e-10
1.9479235e-09
8.6275429e-10
3.1635376e-09
1.4059176e-09
4.7209067e-09
2.0819701e-09
6.6930726e-09
2.862847e-09
9.1622151e-09
3.6929276e-09
1.2217817e-08
4.4829264e-09
1.5953292e-08
5.1072678e-09
2.0460964e-08
5.4079749e-09
2.5825792e-08
5.2079787e-09
3.2119029e-08
4.3353298e-09
3.9394161e-08
2.6567093e-09
4.7688527e-08
1.143672e-10
5.7034539e-08
-3.2431007e-09
6.7483073e-08
-7.247628e-09
7.9140787e-08
-1.1641844e-08
9.222681e-08
-1.6121477e-08
1.0710139e-07
-2.0388831e-08
1.2428712e-07
-2.4201289e-08
1.444716e-07
-2.7402172e-08
1.6849702e-07
-2.9929082e-08
1.9734764e-07
-3.1802157e-08
2.3214701e-07
-3.309931e-08
2.741732e-07
-3.3927067e-08
3.2489602e-07
-3.4394547e-08
3.8603608e-07
-3.4595611e-08
4.5964243e-07
-3.4600995e-08
5.4818494e-07
-3.4458986e-08
6.5465872e-07
-3.4201252e-08
7.8270115e-07
-3.3850136e-08
9.3672566e-07
-3.3424224e-08
1.122079e-06
-3.2941147e-08
1.3452308e-06
-3.2417443e-08
1.6140036e-06
-3.1862434e-08
1.9378501e-06
-3.1274102e-08
2.3282025e-06
-3.0687901e-08
2.7988827e-06
-3.0139124e-08
3.3665895e-06
-2.9598719e-08
4.0515136e-06
-2.9009458e-08
4.8781029e-06
-2.8292863e-08
5.8759047e-06
-2.7340686e-08
7.0806881e-06
-2.6021165e-08
8.5356772e-06
-2.4175168e-08
1.0293231e-05
-2.1619577e-08
1.2416597e-05
-1.8165472e-08
1.498245e-05
-1.3563943e-08
1.8083311e-05
-7.6825991e-09
2.1831612e-05
2.6362155e-05
-2.0664669e-11
3.1897979e-10
-9.0478541e-11
1.0805957e-09
-2.2400771e-10
2.0814529e-09
-4.3901532e-10
3.3785453e-09
-7.5724258e-10
5.039134e-09
-1.2054576e-09
7.1412877e-09
-1.8168631e-09
9.7736205e-09
-2.6328653e-09
1.303382e-08
-3.7050078e-09
1.7025435e-08
-5.0964964e-09
2.1852452e-08
-6.8821887e-09
2.7611484e-08
-9.1453445e-09
3.4382185e-08
-1.1969116e-08
4.2217933e-08
-1.5421368e-08
5.1140778e-08
-1.9533454e-08
6.1146625e-08
-2.4277575e-08
7.2227196e-08
-2.954893e-08
8.441214e-08
-3.5148718e-08
9.7826599e-08
-4.0799232e-08
1.127519e-07
-4.6183371e-08
1.2967126e-07
-5.099829e-08
1.4928652e-07
-5.5007435e-08
1.7250616e-07
-5.8076162e-08
2.0041636e-07
-6.0182765e-08
2.3425362e-07
-6.1405363e-08
2.753958e-07
-6.189141e-08
3.2538207e-07
-6.1819854e-08
3.8596453e-07
-6.1366004e-08
4.5918858e-07
-6.0676431e-08
5.4749537e-07
-5.9856972e-08
6.5383927e-07
-5.8972461e-08
7.8181664e-07
-5.8053651e-08
9.3580686e-07
-5.7106757e-08
1.1211321e-06
-5.6121966e-08
1.344246e-06
-5.5080393e-08
1.612962e-06
-5.3959517e-08
1.9367293e-06
-5.272906e-08
2.3269721e-06
-5.1355109e-08
2.7975087e-06
-4.980283e-08
3.3650373e-06
-4.8044939e-08
4.0497557e-06
-4.6038478e-08
4.8760964e-06
-4.3734857e-08
5.8736011e-06
-4.1062126e-08
7.0780154e-06
-3.7932248e-08
8.5325473e-06
-3.4222627e-08
1.0289521e-05
-2.9773917e-08
1.2412148e-05
-2.4416798e-08
1.4977093e-05
-1.786489e-08
1.807676e-05
-9.9715887e-09
2.1823719e-05
2.6352183e-05
-2.1962526e-11
3.4094228e-10
-9.7116641e-11
1.1557499e-09
-2.4281178e-10
2.227148e-09
-4.8079646e-10
3.6165301e-09
-8.381717e-10
5.3965095e-09
-1.3484626e-09
7.6515783e-09
-2.0527969e-09
1.0477955e-08
-3.0011343e-09
1.3982157e-08
-4.2533934e-09
1.8277694e-08
-5.8801768e-09
2.3479237e-08
-7.9625076e-09
2.9693814e-08
-1.0589541e-08
3.7009219e-08
-1.385274e-08
4.5481132e-08
-1.7834633e-08
5.5122671e-08
-2.2590765e-08
6.5902757e-08
-2.8125221e-08
7.7761651e-08
-3.436395e-08
9.0650869e-08
-4.1135325e-08
1.0459797e-07
-4.8168978e-08
1.1978555e-07
-5.5120498e-08
1.3662278e-07
-6.1620469e-08
1.5578649e-07
-6.7334755e-08
1.7822045e-07
-7.2018211e-08
2.0509982e-07
-7.55471e-08
2.3778251e-07
-7.7923748e-08
2.7777244e-07
-7.9255742e-08
3.2671405e-07
-7.9718307e-08
3.864271e-07
-7.9511532e-08
4.589818e-07
-7.8823131e-08
5.4680696e-07
-7.7804819e-08
6.5282097e-07
-7.656397e-08
7.8057579e-07
-7.5167403e-08
9.3441031e-07
-7.3651497e-08
1.1196162e-06
-7.2032203e-08
1.3426267e-06
-7.03117e-08
1.6112415e-06
-6.8483482e-08
1.934901e-06
-6.6530078e-08
2.3250187e-06
-6.4431002e-08
2.7954097e-06
-6.2164943e-08
3.3627712e-06
-5.968865e-08
4.0472794e-06
-5.6941713e-08
4.8733495e-06
-5.3849677e-08
5.8705091e-06
-5.0321315e-08
7.074487e-06
-4.6243223e-08
8.5284692e-06
-4.1488431e-08
1.0284767e-05
-3.5870687e-08
1.240653e-05
-2.9233541e-08
1.4970455e-05
-2.1249931e-08
1.8068776e-05
-1.1730093e-08
2.1814199e-05
2.6340453e-05
-1.919701e-11
3.6013924e-10
-8.5176784e-11
1.2217295e-09
-2.1368088e-10
2.3556522e-09
-4.2470775e-10
3.8275569e-09
-7.4355561e-10
5.7153576e-09
-1.2020515e-09
8.110074e-09
-1.8399676e-09
1.1115871e-08
-2.7065936e-09
1.4848782e-08
-3.8623294e-09
1.943343e-08
-5.3800541e-09
2.4996962e-08
-7.345755e-09
3.1659515e-08
-9.8575349e-09
3.9520998e-08
-1.3021599e-08
4.8645197e-08
-1.6943311e-08
5.9044383e-08
-2.1711287e-08
7.0670733e-08
-2.7373647e-08
8.342401e-08
-3.3908528e-08
9.718575e-08
-4.1196021e-08
1.1188546e-07
-4.9003043e-08
1.2759257e-07
-5.6992903e-08
1.4461264e-07
-6.4764233e-08
1.6355782e-07
-7.1911919e-08
1.8536813e-07
-7.8093119e-08
2.1128102e-07
-8.3079311e-08
2.427687e-07
-8.6781546e-08
2.8147468e-07
-8.9245222e-08
3.2917773e-07
-9.0619273e-08
3.8780116e-07
-9.1110424e-08
4.5947296e-07
-9.0935427e-08
5.4663196e-07
-9.0282992e-08
6.5216854e-07
-8.9292815e-08
7.7958562e-07
-8.8052012e-08
9.3316949e-07
-8.6603901e-08
1.1181681e-06
-8.4962085e-08
1.3409849e-06
-8.3122499e-08
1.6094019e-06
-8.1073113e-08
1.9328517e-06
-7.8797145e-08
2.3227427e-06
-7.6271598e-08
2.7928841e-06
-7.3473208e-08
3.3599728e-06
-7.0370727e-08
4.044177e-06
-6.6918827e-08
4.8698976e-06
-6.3054339e-08
5.8666446e-06
-5.8694909e-08
7.0701276e-06
-5.3723826e-08
8.5234981e-06
-4.8013607e-08
1.0279056e-05
-4.1355261e-08
1.2399872e-05
-3.3577064e-08
1.4962677e-05
-2.4331098e-08
1.805953e-05
-1.3347013e-08
2.1803215e-05
2.6327106e-05
-1.678391e-11
3.7692316e-10
-7.4590079e-11
1.2795358e-09
-1.874291e-10
2.4684909e-09
-3.7322091e-10
4.013349e-09
-6.5480831e-10
5.9969448e-09
-1.0611805e-09
8.5164463e-09
-1.6289455e-09
1.1683636e-08
-2.4040308e-09
1.5623868e-08
-3.4435546e-09
2.0472953e-08
-4.8176802e-09
2.6371088e-08
-6.6110677e-09
3.3452902e-08
-8.9231799e-09
4.1833109e-08
-1.1866202e-08
5.1588218e-08
-1.5558728e-08
6.2736907e-08
-2.0112921e-08
7.5224924e-08
-2.5613272e-08
8.8924362e-08
-3.2087217e-08
1.0365969e-07
-3.9472271e-08
1.1927052e-07
-4.7589955e-08
1.3571026e-07
-5.6139927e-08
1.5316261e-07
-6.4724213e-08
1.7214211e-07
-7.2900865e-08
1.9354478e-07
-8.0253748e-08
2.186339e-07
-8.6458797e-08
2.4897374e-07
-9.132892e-08
2.863448e-07
-9.4828198e-08
3.3267701e-07
-9.7055141e-08
3.900281e-07
-9.8202282e-08
4.6062009e-07
-9.85043e-08
5.4693398e-07
-9.8188716e-08
6.5185296e-07
-9.7440536e-08
7.7883744e-07
-9.6386479e-08
9.3211545e-07
-9.5096876e-08
1.1168786e-06
-9.3598103e-08
1.3394861e-06
-9.188689e-08
1.6076907e-06
-8.9942436e-08
1.9309072e-06
-8.773504e-08
2.3205353e-06
-8.5224838e-08
2.7903739e-06
-8.2365952e-08
3.3571139e-06
-7.9107535e-08
4.0409186e-06
-7.5389782e-08
4.8661799e-06
-7.1138107e-08
5.862393e-06
-6.6266648e-08
7.0652562e-06
-6.0653133e-08
8.5178847e-06
-5.4173205e-08
1.0272577e-05
-4.661321e-08
1.2392312e-05
-3.7786724e-08
1.4953851e-05
-2.7352687e-08
1.8049096e-05
-1.497001e-08
2.1790832e-05
2.6312136e-05
-1.5070751e-11
3.9199387e-10
-6.7027258e-11
1.331492e-09
-1.6855209e-10
2.5700156e-09
-3.3591727e-10
4.1807141e-09
-5.8993455e-10
6.2509621e-09
-9.5712917e-10
8.8836408e-09
-1.4711693e-09
1.2197676e-08
-2.1745686e-09
1.6327266e-08
-3.1206302e-09
2.1419015e-08
-4.375529e-09
2.7625987e-08
-6.0202289e-09
3.5097602e-08
-8.1516725e-09
4.3964552e-08
-1.0882184e-08
5.4318731e-08
-1.4335433e-08
6.6190155e-08
-1.8636646e-08
7.9526138e-08
-2.3894732e-08
9.4182448e-08
-3.0175153e-08
1.0994012e-07
-3.7466053e-08
1.2656141e-07
-4.5645624e-08
1.4388983e-07
-5.4463845e-08
1.6198083e-07
-6.355155e-08
1.8122981e-07
-7.2461862e-08
2.024551e-07
-8.0736236e-08
2.2690828e-07
-8.7977147e-08
2.5621466e-07
-9.3907649e-08
2.922753e-07
-9.84037e-08
3.3717305e-07
-1.0149426e-07
3.9311866e-07
-1.0333224e-07
4.6245806e-07
-1.0414558e-07
5.4774733e-07
-1.0418232e-07
6.5188969e-07
-1.0366355e-07
7.7831866e-07
-1.0275488e-07
9.3120679e-07
-1.0155894e-07
1.1156826e-06
-1.0012371e-07
1.3380509e-06
-9.8457874e-08
1.6060249e-06
-9.6544766e-08
1.9289941e-06
-9.435372e-08
2.3183443e-06
-9.1841867e-08
2.7878621e-06
-8.8955413e-08
3.3542275e-06
-8.5631527e-08
4.0375947e-06
-8.1796188e-08
4.8623445e-06
-7.7356347e-08
5.8579531e-06
-7.2209165e-08
7.060109e-06
-6.6211699e-08
8.5118872e-06
-5.9222229e-08
1.0265587e-05
-5.1015589e-08
1.2384105e-05
-4.1374497e-08
1.494421e-05
-2.9965917e-08
1.8037688e-05
-1.6388974e-08
2.1777255e-05
2.6295747e-05
-1.3718729e-11
4.0571263e-10
-6.1045375e-11
1.3788186e-09
-1.5358802e-10
2.6625583e-09
-3.0626868e-10
4.3333948e-09
-5.3821514e-10
6.4829087e-09
-8.7387179e-10
9.2192974e-09
-1.3443673e-09
1.2668171e-08
-1.9891695e-09
1.6972069e-08
-2.8580261e-09
2.2287872e-08
-4.0131192e-09
2.878108e-08
-5.5312357e-09
3.6615719e-08
-7.5054959e-09
4.5938812e-08
-1.0045782e-08
5.6859018e-08
-1.3276416e-08
6.942079e-08
-1.7328941e-08
8.3578664e-08
-2.2327463e-08
9.918097e-08
-2.8364624e-08
1.1597728e-07
-3.5468914e-08
1.336657e-07
-4.3569103e-08
1.5199001e-07
-5.2467395e-08
1.7087913e-07
-6.1835502e-08
1.9059792e-07
-7.1242762e-08
2.1186236e-07
-8.0214017e-08
2.3587953e-07
-8.8302637e-08
2.6430328e-07
-9.5158846e-08
2.9913152e-07
-1.0057665e-07
3.4259085e-07
-1.0451013e-07
3.9705215e-07
-1.0705841e-07
4.6500634e-07
-1.0842482e-07
5.4911373e-07
-1.0886175e-07
6.5232662e-07
-1.0861584e-07
7.7807276e-07
-1.0788734e-07
9.3047829e-07
-1.0681104e-07
1.1146063e-06
-1.0545791e-07
1.3366978e-06
-1.0384902e-07
1.604416e-06
-1.0197184e-07
1.9271169e-06
-9.9794153e-08
2.3161666e-06
-9.7269795e-08
2.7853378e-06
-9.4340626e-08
3.3512983e-06
-9.0937885e-08
4.034192e-06
-8.6981614e-08
4.8583883e-06
-8.2369805e-08
5.8533413e-06
-7.6989804e-08
7.054729e-06
-7.0685804e-08
8.5055832e-06
-6.3296307e-08
1.0258198e-05
-5.4587023e-08
1.2375396e-05
-4.4302756e-08
1.4933925e-05
-3.2110643e-08
1.8025495e-05
-1.7556309e-08
2.1762701e-05
2.6278191e-05
-1.2630151e-11
4.1834281e-10
-5.6220716e-11
1.4224093e-09
-1.4149835e-10
2.7478358e-09
-2.82269e-10
4.4741655e-09
-4.9625687e-10
6.6968965e-09
-8.0615256e-10
9.5291932e-09
-1.240916e-09
1.3102935e-08
-1.8373685e-09
1.7568521e-08
-2.6420871e-09
2.3092591e-08
-3.7135713e-09
2.9852564e-08
-5.1245275e-09
3.8026676e-08
-6.9639315e-09
4.7778215e-08
-9.3381406e-09
5.9233227e-08
-1.2369834e-08
7.2452484e-08
-1.6192813e-08
8.7401643e-08
-2.0940145e-08
1.039283e-07
-2.6723276e-08
1.2176041e-07
-3.3601596e-08
1.4054402e-07
-4.1546241e-08
1.5993466e-07
-5.0407933e-08
1.7974082e-07
-5.9902797e-08
2.0009279e-07
-6.9628134e-08
2.2158769e-07
-7.9110176e-08
2.4536157e-07
-8.787343e-08
2.7306654e-07
-9.5513035e-08
3.0677112e-07
-1.0175192e-07
3.4882974e-07
-1.064711e-07
4.0177133e-07
-1.097087e-07
4.6824395e-07
-1.1163029e-07
5.5103531e-07
-1.1247835e-07
6.5317468e-07
-1.1251438e-07
7.7810879e-07
-1.1196858e-07
9.2993249e-07
-1.1100915e-07
1.1136469e-06
-1.0973457e-07
1.3354232e-06
-1.0818342e-07
1.6028649e-06
-1.0635113e-07
1.9252847e-06
-1.0420602e-07
2.3140215e-06
-1.0169826e-07
2.78283e-06
-9.8763943e-08
3.3483641e-06
-9.5326311e-08
4.0307543e-06
-9.1297094e-08
4.8543591e-06
-8.6564875e-08
5.8486092e-06
-8.1006523e-08
7.0491707e-06
-7.4457734e-08
8.4990345e-06
-6.6738594e-08
1.0250478e-05
-5.7611233e-08
1.2366269e-05
-4.6787968e-08
1.4923102e-05
-3.3933922e-08
1.8012641e-05
-1.8553807e-08
2.1747321e-05
2.6259637e-05
-1.1737609e-11
4.3008055e-10
-5.2260431e-11
1.4629321e-09
-1.315619e-10
2.8271373e-09
-2.6251628e-10
4.6051198e-09
-4.6166784e-10
6.8960482e-09
-7.5022396e-10
9.8177491e-09
-1.1552917e-09
1.3508003e-08
-1.7114048e-09
1.8124634e-08
-2.4623598e-09
2.3843546e-08
-3.4633513e-09
3.0853556e-08
-4.7833055e-09
3.934663e-08
-6.5071332e-09
4.9502043e-08
-8.7373138e-09
6.1463408e-08
-1.1593754e-08
7.5308924e-08
-1.5210151e-08
9.1018039e-08
-1.9724477e-08
1.0844263e-07
-2.5260986e-08
1.2729692e-07
-3.19024e-08
1.4718544e-07
-3.9654477e-08
1.6768673e-07
-4.8410866e-08
1.8849721e-07
-5.7931375e-08
2.0961329e-07
-6.7846924e-08
2.3150324e-07
-7.7697006e-08
2.5521166e-07
-8.6993028e-08
2.8236257e-07
-9.529105e-08
3.1506915e-07
-1.0225558e-07
3.5579427e-07
-1.0770064e-07
4.0721639e-07
-1.1160169e-07
4.72145e-07
-1.1407775e-07
5.5351137e-07
-1.1534884e-07
6.5444576e-07
-1.1567916e-07
7.7843913e-07
-1.1532085e-07
9.2957417e-07
-1.1447272e-07
1.1127988e-06
-1.1326236e-07
1.3342128e-06
-1.1174971e-07
1.6013522e-06
-1.0994246e-07
1.9234774e-06
-1.0781355e-07
2.3118926e-06
-1.0531293e-07
2.7803294e-06
-1.0237369e-07
3.3454248e-06
-9.8913423e-08
4.0272941e-06
-9.4836562e-08
4.8502822e-06
-9.0023164e-08
5.8437958e-06
-8.4337717e-08
7.0434853e-06
-7.7607639e-08
8.4923044e-06
-6.9632568e-08
1.0242503e-05
-6.017004e-08
1.2356806e-05
-4.8903953e-08
1.4911836e-05
-3.5493251e-08
1.7999231e-05
-1.941374e-08
2.1731242e-05
2.6240223e-05
-1.0990009e-11
4.4107058e-10
-4.8939831e-11
1.500882e-09
-1.232235e-10
2.9014211e-09
-2.4592495e-10
4.7278214e-09
-4.325842e-10
7.0827075e-09
-7.0313858e-10
1.0088304e-08
-1.0831018e-09
1.3887966e-08
-1.6050227e-09
1.8646555e-08
-2.3102604e-09
2.4548783e-08
-3.2510732e-09
3.1794368e-08
-4.4929511e-09
4.0588508e-08
-6.1169838e-09
5.1126075e-08
-8.2217648e-09
6.3568188e-08
-1.0923916e-08
7.8011074e-08
-1.435568e-08
9.4449803e-08
-1.8657315e-08
1.1274426e-07
-2.3961664e-08
1.3260127e-07
-3.0368976e-08
1.5359275e-07
-3.7913012e-08
1.7523077e-07
-4.6524552e-08
1.9710875e-07
-5.6004226e-08
2.1909297e-07
-6.6018551e-08
2.4151757e-07
-7.6127568e-08
2.6532068e-07
-8.5841074e-08
2.9207607e-07
-9.468948e-08
3.2391756e-07
-1.0229118e-07
3.6339596e-07
-1.0840164e-07
4.1332687e-07
-1.1293605e-07
4.7667941e-07
-1.1596279e-07
5.5653811e-07
-1.176703e-07
6.5615328e-07
-1.1831471e-07
7.7908354e-07
-1.1816104e-07
9.294205e-07
-1.1743384e-07
1.1120716e-06
-1.1628895e-07
1.3330679e-06
-1.1480927e-07
1.5998726e-06
-1.1301704e-07
1.9216852e-06
-1.1089196e-07
2.3097675e-06
-1.0838547e-07
2.7778229e-06
-1.0542927e-07
3.3424686e-06
-1.0193764e-07
4.0238025e-06
-9.7809776e-08
4.8461544e-06
-9.2920456e-08
5.8389064e-06
-8.7123792e-08
7.0376886e-06
-8.0241468e-08
8.4854221e-06
-7.2054931e-08
1.0234317e-05
-6.231567e-08
1.2347067e-05
-5.0684112e-08
1.4900205e-05
-3.68079e-08
1.7985355e-05
-2.0141461e-08
2.1714575e-05
2.6220082e-05
-1.0350371e-11
4.5142091e-10
-4.6097545e-11
1.5366292e-09
-1.1608268e-10
2.9714061e-09
-2.3170787e-10
4.8434466e-09
-4.0764514e-10
7.258645e-09
-6.6273128e-10
1.034339e-08
-1.0210925e-09
1.4246327e-08
-1.5135414e-09
1.9139004e-08
-2.1792886e-09
2.5214531e-08
-3.0679781e-09
3.2683058e-08
-4.2420005e-09
4.176253e-08
-5.7789126e-09
5.2662988e-08
-7.773566e-09
6.5562842e-08
-1.0339128e-08
8.0576636e-08
-1.3605628e-08
9.7716302e-08
-1.7713918e-08
1.1685255e-07
-2.2802448e-08
1.376898e-07
-2.8984634e-08
1.5977493e-07
-3.6316791e-08
1.8256293e-07
-4.4761435e-08
2.0555339e-07
-5.4156362e-08
2.284879e-07
-6.4203432e-08
2.5156463e-07
-7.4487257e-08
2.756045e-07
-8.4524071e-08
3.0211288e-07
-9.3829151e-08
3.3322264e-07
-1.0198567e-07
3.715525e-07
-1.0869947e-07
4.2004067e-07
-1.1383015e-07
4.8181008e-07
-1.1739479e-07
5.6010274e-07
-1.1954453e-07
6.5830302e-07
-1.2051865e-07
7.8005766e-07
-1.2058658e-07
9.2948844e-07
-1.1999292e-07
1.1114779e-06
-1.1891988e-07
1.3319949e-06
-1.1747424e-07
1.5984269e-06
-1.1569483e-07
1.9199058e-06
-1.135701e-07
2.3076428e-06
-1.110542e-07
2.775307e-06
-1.0807822e-07
3.3394927e-06
-1.0455382e-07
4.0202781e-06
-1.0037549e-07
4.8419761e-06
-9.5414195e-08
5.8339452e-06
-8.9515187e-08
7.0317896e-06
-8.2496182e-08
8.4784031e-06
-7.4124165e-08
1.0225945e-05
-6.4144629e-08
1.2337088e-05
-5.2200571e-08
1.488826e-05
-3.7926163e-08
1.797108e-05
-2.0760395e-08
2.1697409e-05
2.6199322e-05
-9.7957619e-12
4.6121663e-10
-4.3631881e-11
1.5704656e-09
-1.0988582e-10
3.0376599e-09
-2.1936473e-10
4.9529254e-09
-3.8598149e-10
7.4252618e-09
-6.2760831e-10
1.0585017e-08
-9.6715119e-10
1.458587e-08
-1.4338921e-09
1.9605745e-08
-2.0651357e-09
2.5845775e-08
-2.9081907e-09
3.3526112e-08
-4.0226447e-09
4.2876985e-08
-5.4828154e-09
5.4123158e-08
-7.3800165e-09
6.7460042e-08
-9.8239593e-09
8.3020579e-08
-1.294205e-08
1.0083439e-07
-1.687463e-08
1.2078513e-07
-2.1763671e-08
1.4257884e-07
-2.7732422e-08
1.6574369e-07
-3.4855406e-08
1.8968591e-07
-4.3122124e-08
2.1382011e-07
-5.2403734e-08
2.3776951e-07
-6.2435964e-08
2.6159686e-07
-7.2829959e-08
2.859985e-07
-8.3113803e-08
3.1239673e-07
-9.2795706e-08
3.4290454e-07
-1.0143278e-07
3.8018958e-07
-1.0868958e-07
4.2729747e-07
-1.1437589e-07
4.874964e-07
-1.1845909e-07
5.6418595e-07
-1.2104993e-07
6.6089386e-07
-1.2236424e-07
7.8137196e-07
-1.2266808e-07
9.2979229e-07
-1.2221995e-07
1.1110298e-06
-1.2122545e-07
1.3310004e-06
-1.1981533e-07
1.5970168e-06
-1.1804673e-07
1.9181372e-06
-1.1591885e-07
2.3055149e-06
-1.1339034e-07
2.7727785e-06
-1.1039259e-07
3.336495e-06
-1.0683566e-07
4.0167212e-06
-1.0260985e-07
4.8377503e-06
-9.7583091e-08
5.8289185e-06
-9.1592794e-08
7.0257993e-06
-8.4452709e-08
8.471263e-06
-7.5918485e-08
1.0217411e-05
-6.5728538e-08
1.2326898e-05
-5.3513535e-08
1.4876045e-05
-3.8893168e-08
1.795646e-05
-2.1295719e-08
2.1679812e-05
2.6178026e-05
-9.3098838e-12
4.705265e-10
-4.1471517e-11
1.6026273e-09
-1.0445332e-10
3.1006416e-09
-2.0853955e-10
5.0570112e-09
-3.6697297e-10
7.5836952e-09
-5.9677337e-10
1.0814817e-08
-9.1976634e-10
1.4908863e-08
-1.3638713e-09
2.004985e-08
-1.9646935e-09
2.6446597e-08
-2.7674439e-09
3.4328862e-08
-3.8291751e-09
4.3938716e-08
-5.2212317e-09
5.5515215e-08
-7.0316152e-09
6.9270426e-08
-9.3666737e-09
8.5355637e-08
-1.2350984e-08
1.038187e-07
-1.6123672e-08
1.2455782e-07
-2.0828714e-08
1.4728388e-07
-2.6596705e-08
1.7151168e-07
-3.3516858e-08
1.9660607e-07
-4.1601634e-08
2.2190488e-07
-5.0751882e-08
2.4691976e-07
-6.0735193e-08
2.7158017e-07
-7.1189855e-08
2.9645317e-07
-8.1659364e-08
3.2286623e-07
-9.1650911e-08
3.5289609e-07
-1.0070308e-07
3.8924175e-07
-1.0844668e-07
4.3504107e-07
-1.1464771e-07
4.9369742e-07
-1.1922677e-07
5.6876501e-07
-1.2225323e-07
6.6392033e-07
-1.2391481e-07
7.8303354e-07
-1.2446761e-07
9.3034508e-07
-1.2417784e-07
1.11074e-06
-1.2327069e-07
1.3300933e-06
-1.2189992e-07
1.5956461e-06
-1.2014205e-07
1.9163793e-06
-1.1800866e-07
2.3033815e-06
-1.154644e-07
2.7702342e-06
-1.1244209e-07
3.3334727e-06
-1.0885104e-07
4.0131301e-06
-1.0457826e-07
4.8334775e-06
-9.9489237e-08
5.8238294e-06
-9.3415053e-08
7.0197252e-06
-8.6165537e-08
8.4640135e-06
-7.7487621e-08
1.0208733e-05
-6.7111785e-08
1.2316522e-05
-5.4659874e-08
1.4863594e-05
-3.9736802e-08
1.7941537e-05
-2.1762872e-08
2.1661838e-05
2.6156263e-05
-8.8799707e-12
4.794065e-10
-3.9559315e-11
1.6333066e-09
-9.964392e-11
3.1607263e-09
-1.9895276e-10
5.1563198e-09
-3.5013306e-10
7.7348756e-09
-5.6944509e-10
1.1034129e-08
-8.777489e-10
1.5217167e-08
-1.3017463e-09
2.0473848e-08
-1.875516e-09
2.7020366e-08
-2.6423756e-09
3.5095722e-08
-3.6570778e-09
4.4953418e-08
-4.9882394e-09
5.6846376e-08
-6.720776e-09
7.1002963e-08
-8.9578027e-09
8.7592665e-08
-1.1821002e-08
1.066819e-07
-1.5447813e-08
1.2818463e-07
-1.998315e-08
1.5181922e-07
-2.5563029e-08
1.7709156e-07
-3.2288559e-08
2.033316e-07
-4.0191727e-08
2.2980805e-07
-4.9199736e-08
2.5592777e-07
-5.9109797e-08
2.8149023e-07
-6.9587106e-08
3.0693047e-07
-8.0192804e-08
3.3347193e-07
-9.04376e-08
3.6314088e-07
-9.9847576e-08
3.9865173e-07
-1.0802641e-07
4.432199e-07
-1.1470205e-07
5.0037307e-07
-1.1975209e-07
5.7381505e-07
-1.2320502e-07
6.6737328e-07
-1.2521754e-07
7.8504606e-07
-1.2603044e-07
9.3115798e-07
-1.2591189e-07
1.1106214e-06
-1.2510249e-07
1.3292839e-06
-1.237773e-07
1.5943209e-06
-1.2203258e-07
1.9146346e-06
-1.1989369e-07
2.3012426e-06
-1.1733268e-07
2.7676732e-06
-1.1428461e-07
3.3304246e-06
-1.1065879e-07
4.0095043e-06
-1.0633957e-07
4.8291583e-06
-1.0119029e-07
5.8186802e-06
-9.5037226e-08
7.0135721e-06
-8.7686054e-08
8.4566624e-06
-7.8877615e-08
1.0199924e-05
-6.8334194e-08
1.2305978e-05
-5.567145e-08
1.4850931e-05
-4.0480053e-08
1.7926345e-05
-2.2173928e-08
2.1643532e-05
2.6134089e-05
-8.496371e-12
4.879028e-10
-3.7852253e-11
1.6626626e-09
-9.5349537e-11
3.2182234e-09
-1.9038968e-10
5.25136e-09
-3.3508696e-10
7.879573e-09
-5.4501967e-10
1.1244062e-08
-8.4018044e-10
1.5512328e-08
-1.246174e-09
2.0879841e-08
-1.7956982e-09
2.7569891e-08
-2.5303585e-09
3.5830383e-08
-3.5028075e-09
4.5925868e-08
-4.779159e-09
5.8122727e-08
-6.441457e-09
7.2665261e-08
-8.5897398e-09
8.9740948e-08
-1.1342796e-08
1.0943496e-07
-1.483609e-08
1.3167793e-07
-1.921469e-08
1.5619781e-07
-2.4618579e-08
1.8249544e-07
-3.1158493e-08
2.0987151e-07
-3.888306e-08
2.3753262e-07
-4.7742855e-08
2.6478756e-07
-5.7562396e-08
2.9130977e-07
-6.803305e-08
3.1740113e-07
-7.873491e-08
3.4417379e-07
-8.9185511e-08
3.7359149e-07
-9.8903317e-08
4.0836954e-07
-1.0747041e-07
4.5178699e-07
-1.1458212e-07
5.0748478e-07
-1.2007693e-07
5.7930986e-07
-1.2394404e-07
6.7124039e-07
-1.2630763e-07
7.8740965e-07
-1.273891e-07
9.3223945e-07
-1.274534e-07
1.1106858e-06
-1.2675224e-07
1.3285827e-06
-1.254798e-07
1.5930485e-06
-1.2375195e-07
1.9129068e-06
-1.2160889e-07
2.2990996e-06
-1.190313e-07
2.7650956e-06
-1.1595757e-07
3.3273509e-06
-1.1229745e-07
4.0058442e-06
-1.0793329e-07
4.8247942e-06
-1.0272637e-07
5.8134733e-06
-9.6499239e-08
7.007345e-06
-8.9053318e-08
8.4492165e-06
-8.0125147e-08
1.0190996e-05
-6.9428811e-08
1.2295282e-05
-5.6575691e-08
1.4838078e-05
-4.114322e-08
1.7910913e-05
-2.2539983e-08
2.1624929e-05
2.6111549e-05
-8.1512897e-12
4.9605414e-10
-3.6317043e-11
1.6908283e-09
-9.1486568e-11
3.2733929e-09
-1.8268615e-10
5.3425596e-09
-3.2154803e-10
8.0184348e-09
-5.2303441e-10
1.1445548e-08
-8.0635418e-10
1.5795648e-08
-1.196117e-09
2.1269603e-08
-1.7237694e-09
2.8097543e-08
-2.4293548e-09
3.6535968e-08
-3.3636078e-09
4.686012e-08
-4.590335e-09
5.9349454e-08
-6.1889073e-09
7.4263834e-08
-8.2564502e-09
9.1808491e-08
-1.090891e-08
1.1208741e-07
-1.4279601e-08
1.3504862e-07
-1.8513178e-08
1.6043139e-07
-2.3752449e-08
1.8773472e-07
-3.0115971e-08
2.1623503e-07
-3.7666572e-08
2.4508322e-07
-4.6375528e-08
2.7349652e-07
-5.6092474e-08
3.0102672e-07
-6.6533896e-08
3.2784255e-07
-7.7299487e-08
3.5493937e-07
-8.7916013e-08
3.8420802e-07
-9.7898158e-08
4.1835169e-07
-1.0681116e-07
4.6069998e-07
-1.1432247e-07
5.1499609e-07
-1.202355e-07
5.8522289e-07
-1.2450225e-07
6.7550716e-07
-1.2721404e-07
7.9012144e-07
-1.2856991e-07
9.3359531e-07
-1.2882722e-07
1.110943e-06
-1.2824452e-07
1.328e-06
-1.2703245e-07
1.5918364e-06
-1.2532592e-07
1.9112003e-06
-1.231807e-07
2.2969544e-06
-1.2058723e-07
2.7625022e-06
-1.1748827e-07
3.324252e-06
-1.1379452e-07
4.0021504e-06
-1.0938709e-07
4.8203867e-06
-1.0412511e-07
5.8082113e-06
-9.7828425e-08
7.0010483e-06
-9.0294074e-08
8.4416821e-06
-8.1255443e-08
1.0181958e-05
-7.041883e-08
1.2284446e-05
-5.7392307e-08
1.4825051e-05
-4.1741329e-08
1.7895262e-05
-2.2869579e-08
2.1606057e-05
2.608868e-05
-7.8392287e-12
5.0389337e-10
-3.4927902e-11
1.7179169e-09
-8.7990796e-11
3.3264557e-09
-1.7571303e-10
5.4302819e-09
-3.0928978e-10
8.1520117e-09
-5.0312396e-10
1.1639382e-08
-7.7571111e-10
1.6068235e-08
-1.1507554e-09
2.1644647e-08
-1.6585613e-09
2.8605349e-08
-2.3377441e-09
3.7215151e-08
-3.2372756e-09
4.7759652e-08
-4.4188348e-09
6.0531012e-08
-5.9593036e-09
7.5804302e-08
-7.9530529e-09
9.380224e-08
-1.0513264e-08
1.1464762e-07
-1.3771009e-08
1.3830636e-07
-1.7870117e-08
1.645305e-07
-2.2955336e-08
1.9281994e-07
-2.9151556e-08
2.2243125e-07
-3.653377e-08
2.5246543e-07
-4.5091616e-08
2.8205436e-07
-5.4697735e-08
3.1063284e-07
-6.5092539e-08
3.3823735e-07
-7.5895515e-08
3.6574234e-07
-8.6644384e-08
3.9495689e-07
-9.6853127e-08
4.2856043e-07
-1.0607404e-07
4.6992089e-07
-1.1395099e-07
5.2287304e-07
-1.2025606e-07
5.9152795e-07
-1.2490659e-07
6.801577e-07
-1.2796137e-07
7.9317622e-07
-1.2959519e-07
9.3522912e-07
-1.3005407e-07
1.111402e-06
-1.2959949e-07
1.3275455e-06
-1.2845577e-07
1.5906927e-06
-1.267757e-07
1.9095202e-06
-1.2463102e-07
2.2948097e-06
-1.2202297e-07
2.7598941e-06
-1.1889956e-07
3.3211286e-06
-1.1517309e-07
3.998424e-06
-1.1072396e-07
4.8159376e-06
-1.0540931e-07
5.8028966e-06
-9.9046932e-08
6.994686e-06
-9.1429534e-08
8.4340647e-06
-8.2288263e-08
1.0172816e-05
-7.1322022e-08
1.2273479e-05
-5.8136231e-08
1.4811865e-05
-4.2285553e-08
1.7879411e-05
-2.3169035e-08
2.158694e-05
2.6065511e-05
-7.5552032e-12
5.1144861e-10
-3.3663676e-11
1.7440254e-09
-8.4808652e-11
3.3776007e-09
-1.6936488e-10
5.5148383e-09
-2.9812877e-10
8.2807755e-09
-4.8499176e-10
1.1826245e-08
-7.4779805e-10
1.6331041e-08
-1.1094235e-09
2.2006273e-08
-1.5991262e-09
2.9095052e-08
-2.2542091e-09
3.7870234e-08
-3.122021e-09
4.8627464e-08
-4.2622689e-09
6.167126e-08
-5.7495148e-09
7.7291549e-08
-7.6755309e-09
9.5728256e-08
-1.0150829e-08
1.1712292e-07
-1.3304194e-08
1.4145973e-07
-1.7278326e-08
1.6850463e-07
-2.2219231e-08
1.9776084e-07
-2.8256917e-08
2.2846894e-07
-3.5476814e-08
2.5968533e-07
-4.3884858e-08
2.9046241e-07
-5.3374764e-08
3.2012274e-07
-6.3709593e-08
3.4857218e-07
-7.4528504e-08
3.7656126e-07
-8.5381405e-08
4.0580979e-07
-9.5783939e-08
4.3896296e-07
-1.0527879e-07
4.7941574e-07
-1.1348993e-07
5.3108418e-07
-1.2016167e-07
5.9819969e-07
-1.2517928e-07
6.8517532e-07
-1.2857001e-07
7.9656694e-07
-1.3048322e-07
9.3714233e-07
-1.3115078e-07
1.1120695e-06
-1.3083337e-07
1.3272281e-06
-1.2976599e-07
1.5896253e-06
-1.2811798e-07
1.9078722e-06
-1.2597709e-07
2.2926688e-06
-1.2335619e-07
2.7572732e-06
-1.2020955e-07
3.317982e-06
-1.1645153e-07
3.9946659e-06
-1.1196242e-07
4.8114485e-06
-1.0659743e-07
5.7975317e-06
-1.0017282e-07
6.9882614e-06
-9.2477183e-08
8.4263691e-06
-8.3239852e-08
1.0163579e-05
-7.2153055e-08
1.2262392e-05
-5.8819729e-08
1.4798532e-05
-4.2785037e-08
1.7863376e-05
-2.3443419e-08
2.1567599e-05
2.6042067e-05
-7.2955754e-12
5.1874412e-10
-3.2507456e-11
1.7692373e-09
-8.1898001e-11
3.4269913e-09
-1.6355756e-10
5.5964977e-09
-2.8791644e-10
8.4051343e-09
-4.6839802e-10
1.2006727e-08
-7.2224775e-10
1.6584891e-08
-1.0715807e-09
2.2355606e-08
-1.5446911e-09
2.9568163e-08
-2.1776743e-09
3.8503217e-08
-3.0163764e-09
4.9466166e-08
-4.1186776e-09
6.277356e-08
-5.5569699e-09
7.8729842e-08
-7.4205715e-09
9.7591858e-08
-9.8174305e-09
1.1951978e-07
-1.2874033e-08
1.4451633e-07
-1.6731751e-08
1.7236235e-07
-2.153728e-08
2.0256637e-07
-2.7424778e-08
2.3435644e-07
-3.4488625e-08
2.6674917e-07
-4.2749264e-08
2.9872305e-07
-5.2119683e-08
3.2949316e-07
-6.238433e-08
3.5883683e-07
-7.3201688e-08
3.8737862e-07
-8.4134656e-08
4.1674276e-07
-9.4702478e-08
4.4953078e-07
-1.0444094e-07
4.8915421e-07
-1.1295734e-07
5.3960058e-07
-1.1997144e-07
6.0521378e-07
-1.2533907e-07
6.9054295e-07
-1.2905723e-07
8.002851e-07
-1.3124944e-07
9.3933455e-07
-1.321311e-07
1.1129512e-06
-1.3195894e-07
1.3270559e-06
-1.3097569e-07
1.5886421e-06
-1.2936556e-07
1.9062621e-06
-1.2723217e-07
2.2905354e-06
-1.2460054e-07
2.7546416e-06
-1.2143209e-07
3.3148135e-06
-1.1764382e-07
3.9908777e-06
-1.1311646e-07
4.8069211e-06
-1.0770346e-07
5.7921187e-06
-1.0121986e-07
6.9817778e-06
-9.3450356e-08
8.4185996e-06
-8.4122781e-08
1.0154251e-05
-7.2923259e-08
1.2251193e-05
-5.9452451e-08
1.4785061e-05
-4.3246975e-08
1.7847171e-05
-2.3696808e-08
2.1548049e-05
2.601837e-05
-7.0568805e-12
5.2580101e-10
-3.1444798e-11
1.7936254e-09
-7.9222919e-11
3.4747695e-09
-1.5821962e-10
5.6754944e-09
-2.7852861e-10
8.5254433e-09
-4.5314195e-10
1.218134e-08
-6.9875378e-10
1.6830503e-08
-1.0367765e-09
2.2693629e-08
-1.4946161e-09
3.0026002e-08
-2.1072466e-09
3.9115848e-08
-2.9191253e-09
5.0278045e-08
-3.9864273e-09
6.3840863e-08
-5.3795197e-09
8.0122934e-08
-7.1854035e-09
9.9397742e-08
-9.509565e-09
1.2184394e-07
-1.2476213e-08
1.4748298e-07
-1.6225231e-08
1.7611137e-07
-2.0903594e-08
2.0724473e-07
-2.6648768e-08
2.4010161e-07
-3.3562844e-08
2.7366325e-07
-4.1679192e-08
3.0683939e-07
-5.0928436e-08
3.3874241e-07
-6.1115153e-08
3.6902355e-07
-7.1916682e-08
3.9818014e-07