/*--------------------------------*- C++ -*----------------------------------*\
| =========                 |                                                 |
| \\      /  F ield         | OpenFOAM: The Open Source CFD Toolbox           |
|  \\    /   O peration     | Version:  4.0                                   |
|   \\  /    A nd           | Web:      www.OpenFOAM.org                      |
|    \\/     M anipulation  |                                                 |
\*---------------------------------------------------------------------------*/
FoamFile
{
    version     2.0;
    format      ascii;
    class       volScalarField;
    location    "522";
    object      rho;
}
// * * * * * * * * * * * * * * * * * * * * * * * * * * * * * * * * * * * * * //

dimensions      [1 -3 0 0 0 0 0];

internalField   nonuniform List<scalar> 
5000
(
0.85302204
0.86715561
0.88274008
0.899793
0.91828405
0.93812213
0.95914385
0.98110579
1.0036834
1.0264791
1.0490421
1.0708983
1.0915883
1.1107078
1.1279423
1.1430907
1.156073
1.1669234
1.1757694
1.1828055
1.1882649
1.1923946
1.195436
1.1976121
1.1991201
1.2001282
1.2007751
1.2011715
1.201402
1.2015284
1.2015932
1.2016239
1.2016374
1.2016428
1.2016448
1.2016455
1.2016457
1.2016458
1.2016458
1.2016458
1.2016458
1.2016458
1.2016458
1.2016458
1.2016458
1.2016458
1.2016458
1.2016458
1.2016458
1.2016458
0.81517608
0.82602799
0.83801874
0.85125848
0.86585671
0.88191449
0.89951279
0.9186962
0.93945175
0.96168378
0.98518748
1.0096266
1.0345237
1.0592726
1.0831815
1.1055465
1.1257455
1.1433259
1.158062
1.169964
1.1792396
1.1862278
1.1913267
1.194935
1.1974126
1.1990626
1.2001261
1.2007877
1.201183
1.2014087
1.2015309
1.2015932
1.2016229
1.201636
1.2016414
1.2016434
1.201644
1.2016442
1.2016443
1.2016443
1.2016443
1.2016443
1.2016443
1.2016443
1.2016443
1.2016443
1.2016443
1.2016443
1.2016443
1.2016443
0.80177475
0.81149141
0.82220255
0.83400938
0.84701905
0.86134145
0.87708345
0.89433964
0.91317815
0.93362078
0.95561698
0.97901347
1.003524
1.028708
1.0539705
1.0785957
1.1018197
1.1229331
1.1413896
1.1568842
1.1693784
1.1790669
1.1863052
1.191526
1.1951678
1.1976271
1.1992351
1.2002517
1.2008716
1.2012347
1.201438
1.201546
1.2016
1.2016253
1.2016362
1.2016405
1.2016421
1.2016426
1.2016428
1.2016428
1.2016428
1.2016428
1.2016428
1.2016428
1.2016428
1.2016428
1.2016428
1.2016428
1.2016428
1.2016427
0.79440572
0.80350663
0.81352335
0.82454884
0.83668317
0.85003179
0.86470221
0.88079808
0.89840963
0.91759914
0.93838037
0.96069164
0.98436415
1.0090908
1.0344049
1.0596827
1.0841825
1.1071257
1.127808
1.1457103
1.1605734
1.1724122
1.1814712
1.1881428
1.1928812
1.196132
1.1982882
1.1996709
1.2005269
1.2010374
1.2013293
1.2014887
1.2015711
1.2016112
1.2016293
1.201637
1.2016399
1.2016409
1.2016412
1.2016413
1.2016413
1.2016413
1.2016413
1.2016413
1.2016413
1.2016413
1.2016413
1.2016413
1.2016413
1.2016412
0.78933676
0.7980177
0.8075611
0.81805363
0.82958913
0.84226773
0.85619364
0.87147104
0.88819723
0.90645156
0.92627921
0.9476686
0.97052261
0.99462625
1.0196172
1.0449705
1.0700123
1.0939742
1.1160887
1.1357062
1.1523983
1.1660133
1.1766657
1.184673
1.1904671
1.1945106
1.1972359
1.1990107
1.2001269
1.2008037
1.2011981
1.201418
1.2015346
1.2015931
1.2016205
1.2016325
1.2016373
1.201639
1.2016396
1.2016398
1.2016398
1.2016398
1.2016398
1.2016398
1.2016398
1.2016398
1.2016398
1.2016398
1.2016398
1.2016397
0.78556678
0.79393732
0.80313138
0.81323085
0.8243247
0.83650844
0.84988259
0.86454966
0.88060879
0.89814713
0.91722649
0.93786437
0.96000853
0.9835063
1.0080728
1.033267
1.0584883
1.0830096
1.106052
1.1268952
1.1449926
1.1600543
1.1720704
1.1812702
1.1880423
1.1928446
1.1961306
1.1983022
1.1996884
1.2005419
1.2010477
1.2013352
1.2014909
1.2015709
1.2016096
1.201627
1.2016342
1.201637
1.2016379
1.2016382
1.2016383
1.2016383
1.2016383
1.2016383
1.2016383
1.2016383
1.2016383
1.2016383
1.2016383
1.2016382
0.78258504
0.79071125
0.79963062
0.80942122
0.82016807
0.83196278
0.84490243
0.85908725
0.87461634
0.89158059
0.91005154
0.93006507
0.95159898
0.97454455
0.99867495
1.0236169
1.0488371
1.0736585
1.0973169
1.1190581
1.1382555
1.1545098
1.1676993
1.1779639
1.1856375
1.1911593
1.1949908
1.1975576
1.1992186
1.200256
1.2008802
1.2012409
1.2014401
1.2015447
1.2015964
1.2016204
1.2016307
1.2016347
1.2016362
1.2016367
1.2016368
1.2016368
1.2016368
1.2016368
1.2016368
1.2016368
1.2016368
1.2016368
1.2016367
1.2016366
0.78013861
0.78806515
0.79676021
0.8062988
0.81676264
0.82824002
0.84082493
0.85461526
0.86970921
0.88619939
0.90416327
0.92364901
0.94465544
0.967106
0.99081814
1.0154733
1.0405969
1.0655623
1.0896321
1.1120416
1.1321114
1.1493574
1.163561
1.1747764
1.1832783
1.1894777
1.1938342
1.1967893
1.1987255
1.1999505
1.2006979
1.2011363
1.2013826
1.2015143
1.201581
1.2016126
1.2016266
1.2016323
1.2016344
1.2016351
1.2016353
1.2016353
1.2016353
1.2016353
1.2016353
1.2016353
1.2016353
1.2016353
1.2016352
1.2016351
0.77807424
0.78583282
0.79433937
0.8036663
0.81389255
0.82510353
0.83739053
0.85084913
0.8655763
0.88166528
0.8991973
0.91822903
0.93877467
0.96078192
0.98410289
1.0084635
1.0334397
1.0584524
1.0827963
1.1057099
1.1264807
1.1445597
1.1596457
1.171713
1.1809763
1.1878124
1.1926723
1.1960062
1.1982154
1.1996295
1.2005031
1.2010226
1.2013188
1.2014801
1.2015632
1.2016036
1.2016219
1.2016295
1.2016324
1.2016334
1.2016337
1.2016338
1.2016338
1.2016338
1.2016338
1.2016338
1.2016338
1.2016338
1.2016337
1.2016336
0.77629562
0.78390989
0.7922546
0.8013999
0.81142237
0.82240492
0.83443638
0.84761021
0.862022
0.87776499
0.8949228
0.91355823
0.93369702
0.9553057
0.97826404
1.0023347
1.0271368
1.0521351
1.0766578
1.0999551
1.1212957
1.1400806
1.1559391
1.168773
1.1787372
1.1861716
1.1915127
1.1952146
1.197693
1.1992963
1.2002979
1.2009008
1.2012494
1.2014421
1.2015433
1.2015934
1.2016165
1.2016265
1.2016304
1.2016317
1.2016322
1.2016323
1.2016323
1.2016323
1.2016323
1.2016323
1.2016323
1.2016323
1.2016322
1.2016321
0.77473786
0.78222605
0.79042943
0.79941624
0.80926095
0.82004428
0.83185286
0.84477818
0.85891441
0.87435443
0.89118338
0.90946856
0.92924458
0.95049292
0.97311582
0.99690654
1.0215217
1.0464655
1.0710995
1.0946907
1.1164984
1.1358864
1.1524255
1.1659518
1.176563
1.1845597
1.1903607
1.1944193
1.197162
1.1989535
1.200084
1.2007721
1.2011749
1.2014007
1.2015211
1.2015818
1.2016105
1.2016231
1.2016282
1.20163
1.2016306
1.2016308
1.2016308
1.2016308
1.2016308
1.2016308
1.2016308
1.2016308
1.2016307
1.2016306
0.77335545
0.78073199
0.78881029
0.7976569
0.80734443
0.81795165
0.82956321
0.84226877
0.85616108
0.87133247
0.887869
0.90584132
0.92529104
0.9462117
0.96852408
0.99204733
1.0164705
1.0413334
1.06603
1.0898464
1.1120401
1.1319472
1.1490892
1.1632436
1.1744532
1.1829793
1.1892196
1.1936236
1.1966253
1.1986032
1.1998629
1.2006374
1.2010958
1.2013561
1.2014969
1.2015691
1.2016038
1.2016194
1.2016258
1.2016282
1.201629
1.2016293
1.2016293
1.2016294
1.2016294
1.2016293
1.2016293
1.2016293
1.2016292
1.201629
0.77211532
0.7793919
0.78735827
0.79607947
0.80562647
0.81607625
0.82751171
0.84002079
0.85369487
0.86862558
0.88489954
0.90258989
0.92174384
0.94236483
0.96438916
0.98765806
1.0118889
1.0366537
1.0613769
1.0853657
1.1078803
1.1282367
1.1459156
1.1606416
1.1724064
1.1814314
1.1880917
1.1928298
1.196085
1.1982471
1.1996358
1.2004974
1.2010127
1.2013085
1.2014707
1.2015551
1.2015965
1.2016153
1.2016233
1.2016264
1.2016274
1.2016277
1.2016278
1.2016279
1.2016279
1.2016278
1.2016278
1.2016278
1.2016277
1.2016275
0.77099274
0.77817899
0.78604426
0.79465225
0.80407241
0.81438016
0.82565674
0.83798853
0.85146559
0.86617879
0.88221497
0.89964923
0.91853327
0.93887875
0.96063515
0.98366271
1.0077037
1.0323592
1.0570823
1.0812019
1.1039845
1.1247321
1.1428911
1.1581395
1.1704204
1.1799164
1.1869783
1.1920397
1.1955426
1.1978866
1.1994038
1.2003529
1.2009258
1.2012582
1.2014426
1.20154
1.2015884
1.2016109
1.2016206
1.2016244
1.2016258
1.2016262
1.2016263
1.2016264
1.2016264
1.2016263
1.2016263
1.2016262
1.2016261
1.201626
0.76996877
0.77707275
0.78484599
0.79335095
0.80265574
0.81283432
0.82396644
0.836137
0.84943482
0.86394995
0.87976928
0.89696938
0.91560564
0.93569663
0.95720309
0.98000177
1.003857
1.0283961
1.0530992
1.0773165
1.1003237
1.1214135
1.1400038
1.1557308
1.1684928
1.1784341
1.1858804
1.1912547
1.1949996
1.1975228
1.1991676
1.2002045
1.2008357
1.2012054
1.2014128
1.2015237
1.2015797
1.2016061
1.2016178
1.2016224
1.2016241
1.2016247
1.2016248
1.2016249
1.2016249
1.2016248
1.2016248
1.2016247
1.2016246
1.2016245
0.76902859
0.77605714
0.78374604
0.79215661
0.80135574
0.81141607
0.82241592
0.83443889
0.84757255
0.86190615
0.87752648
0.89451121
0.91291879
0.93277367
0.95404628
0.97662787
1.0003024
1.0247209
1.0493887
1.0736774
1.0968734
1.1182636
1.1372427
1.1534097
1.166621
1.1769839
1.1847984
1.1904755
1.1944568
1.1971565
1.198928
1.2000527
1.2007426
1.2011503
1.2013814
1.2015063
1.2015703
1.201601
1.2016147
1.2016203
1.2016224
1.2016231
1.2016233
1.2016234
1.2016234
1.2016233
1.2016233
1.2016232
1.2016231
1.201623
0.76816041
0.7751194
0.78273055
0.79105415
0.80015594
0.81010735
0.82098542
0.83287247
0.84585493
0.86002121
0.8754579
0.89224354
0.91043909
0.93007403
0.95112725
0.97350275
0.997002
1.0212978
1.0459189
1.0702576
1.0936122
1.1152673
1.1345981
1.1511706
1.1648024
1.175565
1.1837327
1.1897029
1.1939151
1.1967884
1.1986855
1.1998979
1.2006468
1.201093
1.2013484
1.2014879
1.2015602
1.2015955
1.2016114
1.2016181
1.2016207
1.2016215
1.2016218
1.2016219
1.2016219
1.2016218
1.2016218
1.2016217
1.2016216
1.2016215
0.7673547
0.77424923
0.78178833
0.79003137
0.79904304
0.80889362
0.81965897
0.83142021
0.84426268
0.85827399
0.87354042
0.89014116
0.90813929
0.92756861
0.94841543
0.97059509
0.99392478
1.0180971
1.0426628
1.0670341
1.0905222
1.1124113
1.1320612
1.1490085
1.1630346
1.1741766
1.1826831
1.1889374
1.193375
1.1964192
1.1984407
1.1997404
1.2005487
1.2010339
1.2013139
1.2014685
1.2015495
1.2015895
1.201608
1.2016158
1.2016189
1.2016199
1.2016203
1.2016203
1.2016204
1.2016203
1.2016203
1.2016202
1.2016201
1.20162
0.76660368
0.77343818
0.78091024
0.78907832
0.79800615
0.80776296
0.8184235
0.83006777
0.84278007
0.85664719
0.87175508
0.8881834
0.90599702
0.9252335
0.94588566
0.96787895
0.99104481
1.015094
1.0395975
1.0639872
1.0875873
1.109684
1.1296241
1.1469185
1.161315
1.1728177
1.1816498
1.1881792
1.192837
1.1960494
1.198194
1.1995807
1.2004485
1.200973
1.2012781
1.2014481
1.2015382
1.2015833
1.2016043
1.2016135
1.2016171
1.2016183
1.2016187
1.2016188
1.2016189
1.2016188
1.2016188
1.2016187
1.2016186
1.2016184
0.76590088
0.77267927
0.78008867
0.78818673
0.79703627
0.80670553
0.81726822
0.82880328
0.84139404
0.85512649
0.8700862
0.88635316
0.90399374
0.92304879
0.94351693
0.96533266
0.98834032
1.0122673
1.0367038
1.0611001
1.084794
1.107075
1.1272799
1.1448964
1.1596414
1.1714875
1.1806324
1.1874287
1.1923016
1.1956792
1.1979457
1.199419
1.2003463
1.2009104
1.201241
1.2014268
1.2015262
1.2015766
1.2016005
1.201611
1.2016152
1.2016167
1.2016172
1.2016173
1.2016173
1.2016173
1.2016173
1.2016172
1.2016171
1.2016169
0.7652409
0.77196666
0.7793173
0.78734971
0.79612586
0.80571307
0.81618409
0.82761684
0.84009371
0.85369993
0.86852066
0.8846361
0.90211391
0.92099782
0.94129159
0.96293791
0.98579285
1.0095991
1.0339648
1.058358
1.0821301
1.1045752
1.1250221
1.1429382
1.1580116
1.1701849
1.1796308
1.186686
1.1917691
1.1953092
1.1976962
1.1992556
1.2002424
1.2008463
1.2012027
1.2014046
1.2015137
1.2015696
1.2015964
1.2016084
1.2016133
1.2016151
1.2016157
1.2016158
1.2016158
1.2016158
1.2016158
1.2016157
1.2016156
1.2016154
0.76461917
0.7712954
0.77859076
0.78656141
0.79526856
0.80477863
0.81516346
0.82650005
0.83886987
0.8523574
0.86704736
0.8830201
0.90034437
0.91906642
0.93919465
0.96067913
0.98338663
1.007074
1.0313662
1.0557482
1.0795851
1.1021764
1.122845
1.1410401
1.1564235
1.168909
1.1786448
1.1859511
1.1912396
1.1949396
1.1974457
1.1990907
1.2001369
1.2007808
1.2011633
1.2013816
1.2015006
1.2015622
1.2015921
1.2016057
1.2016113
1.2016134
1.2016141
1.2016143
1.2016143
1.2016143
1.2016143
1.2016142
1.201614
1.2016139
0.76403181
0.77066129
0.77790448
0.78581688
0.79445894
0.80389628
0.81419986
0.82544578
0.83771467
0.85109028
0.86565686
0.88149485
0.89867391
0.91724254
0.93721328
0.95854293
0.98110808
1.0046787
1.0288954
1.0532595
1.0771495
1.0998713
1.1207433
1.1391989
1.1548753
1.1676589
1.1776739
1.1852242
1.1907135
1.1945706
1.1971945
1.1989245
1.2000301
1.2007141
1.2011228
1.2013578
1.201487
1.2015545
1.2015876
1.2016028
1.2016092
1.2016117
1.2016125
1.2016128
1.2016128
1.2016128
1.2016128
1.2016127
1.2016125
1.2016124
0.76347547
0.77006071
0.77725454
0.78511185
0.79369235
0.80306092
0.8132877
0.82444792
0.83662141
0.84989119
0.86434107
0.88005148
0.89709289
0.91551578
0.93533644
0.95651777
0.97894543
1.0024016
1.0265414
1.050882
1.0748151
1.0976534
1.1187124
1.1374115
1.1533651
1.1664337
1.1767179
1.1845051
1.1901908
1.1942024
1.1969427
1.1987572
1.1999219
1.2006462
1.2010814
1.2013333
1.2014728
1.2015464
1.2015829
1.2015999
1.2016072
1.20161
1.201611
1.2016113
1.2016113
1.2016113
1.2016112
1.2016111
1.201611
1.2016109
0.76294727
0.76949054
0.77663756
0.78444262
0.79296478
0.80226818
0.81242216
0.82350119
0.83558427
0.84875375
0.86309298
0.87868235
0.89559298
0.91387715
0.93355453
0.95459363
0.97688842
1.0002324
1.0242946
1.048607
1.0725743
1.0955167
1.1167479
1.1356749
1.1518912
1.1652324
1.1757765
1.183794
1.1896717
1.1938353
1.1966906
1.1985889
1.1998126
1.2005772
1.2010391
1.201308
1.2014581
1.201538
1.201578
1.2015969
1.201605
1.2016082
1.2016094
1.2016097
1.2016098
1.2016098
1.2016097
1.2016096
1.2016095
1.2016094
0.76244469
0.76894806
0.77605059
0.783806
0.79227272
0.80151421
0.81159906
0.82260097
0.8345982
0.84767241
0.86190649
0.87738077
0.89416692
0.91231881
0.9318592
0.95276172
0.97492805
0.9981622
1.0221463
1.0464266
1.0704205
1.0934559
1.1148459
1.1339866
1.1504521
1.1640544
1.1748493
1.1830908
1.1891563
1.1934693
1.1964384
1.1984198
1.1997024
1.2005072
1.2009959
1.2012821
1.201443
1.2015292
1.2015729
1.2015937
1.2016028
1.2016065
1.2016078
1.2016082
1.2016083
1.2016083
1.2016082
1.2016081
1.201608
1.2016079
0.76196554
0.76843089
0.77549105
0.78319918
0.79161313
0.80079568
0.81081474
0.82174326
0.83365878
0.84664232
0.8607763
0.87614092
0.89280836
0.9108339
0.93024311
0.95101434
0.9730564
0.99618316
1.0200891
1.044334
1.0683477
1.0914662
1.1130027
1.132344
1.1490461
1.1628988
1.173936
1.1823953
1.1886446
1.1931047
1.196186
1.19825
1.1995911
1.2004363
1.2009519
1.2012556
1.2014274
1.2015201
1.2015676
1.2015904
1.2016005
1.2016047
1.2016062
1.2016067
1.2016068
1.2016068
1.2016067
1.2016066
1.2016065
1.2016064
0.76150787
0.76793694
0.77495667
0.7826197
0.7909833
0.80010965
0.81006598
0.82092452
0.83276213
0.84565921
0.8596977
0.87495768
0.89151171
0.90941637
0.92869978
0.94934466
0.97126645
0.99428823
1.0181161
1.0423228
1.0663505
1.0895432
1.1112152
1.1307449
1.147672
1.1617647
1.1730362
1.1817075
1.1881367
1.1927414
1.1959338
1.1980796
1.1994791
1.2003646
1.2009072
1.2012284
1.2014113
1.2015108
1.2015621
1.201587
1.2015982
1.2016029
1.2016046
1.2016051
1.2016053
1.2016053
1.2016052
1.2016051
1.201605
1.2016049
0.76106998
0.76746437
0.77444544
0.78206536
0.79038087
0.79945352
0.80934992
0.82014163
0.83190483
0.84471931
0.85866657
0.8738265
0.89027203
0.90806086
0.9272235
0.94774665
0.96955196
0.99247113
1.0162213
1.0403876
1.0644239
1.0876829
1.1094801
1.1291872
1.1463283
1.1606516
1.1721497
1.1810273
1.1876327
1.1923797
1.1956818
1.1979088
1.1993664
1.2002921
1.2008618
1.2012007
1.2013948
1.2015011
1.2015564
1.2015835
1.2015958
1.201601
1.2016029
1.2016036
1.2016038
1.2016038
1.2016037
1.2016036
1.2016035
1.2016034
0.76065035
0.76701153
0.77395559
0.78153425
0.78980371
0.79882498
0.80866404
0.81939181
0.83108382
0.84381928
0.85767922
0.87274336
0.88908491
0.90676262
0.92580914
0.94621491
0.96790734
0.99072625
1.0143991
1.0385231
1.0625636
1.0858815
1.1077948
1.1276689
1.1450138
1.1595586
1.1712761
1.1803547
1.1871326
1.1920196
1.19543
1.1977376
1.199253
1.2002189
1.2008158
1.2011725
1.2013779
1.2014911
1.2015505
1.2015799
1.2015934
1.2015991
1.2016013
1.2016021
1.2016023
1.2016023
1.2016022
1.2016021
1.201602
1.2016019
0.76024763
0.76657695
0.77348552
0.78102462
0.78924995
0.79822198
0.80800609
0.81867259
0.8302964
0.84295613
0.85673238
0.87170468
0.88794646
0.9055174
0.92445216
0.94474463
0.96632761
0.98904855
1.0126448
1.0367249
1.0607654
1.0841358
1.1061567
1.1261882
1.1437275
1.1584852
1.170415
1.1796895
1.1866363
1.1916611
1.1951786
1.1975661
1.199139
1.200145
1.2007691
1.2011437
1.2013605
1.2014809
1.2015444
1.2015761
1.2015909
1.2015972
1.2015996
1.2016005
1.2016007
1.2016008
1.2016007
1.2016006
1.2016005
1.2016004
0.7598606
0.76615932
0.77303382
0.78053493
0.7887179
0.79764267
0.80737405
0.81798176
0.82954012
0.84212719
0.85582313
0.87070723
0.88685314
0.9043214
0.92314846
0.94333148
0.96480826
0.98743347
1.0109538
1.0349887
1.0590257
1.0824426
1.1045632
1.1247433
1.142468
1.1574306
1.1695662
1.1790315
1.186144
1.1913044
1.1949277
1.1973944
1.1990245
1.2000706
1.2007219
1.2011145
1.2013429
1.2014703
1.2015381
1.2015722
1.2015883
1.2015952
1.201598
1.2015989
1.2015992
1.2015992
1.2015992
1.2015991
1.201599
1.2015989
0.75948816
0.76575746
0.77259919
0.78006379
0.78820605
0.79708539
0.8067661
0.81731733
0.82881281
0.84133006
0.85494881
0.86974813
0.88580182
0.90317118
0.92189438
0.94197154
0.96334523
0.9858769
1.0093222
1.0333108
1.0573411
1.0807992
1.1030123
1.1233327
1.1412344
1.1563943
1.1687293
1.1783808
1.1856555
1.1909494
1.1946773
1.1972225
1.1989096
1.1999956
1.2006742
1.2010849
1.2013248
1.2014595
1.2015317
1.2015683
1.2015856
1.2015932
1.2015963
1.2015974
1.2015977
1.2015977
1.2015977
1.2015976
1.2015975
1.2015974
0.75912934
0.76537031
0.7721805
0.77960995
0.78771302
0.79654866
0.80618063
0.81667752
0.8281125
0.84056259
0.85410706
0.86882477
0.88478964
0.90206366
0.92068657
0.9406613
0.96193485
0.98437509
1.0077461
1.0316877
1.0557084
1.0792028
1.1015019
1.121955
1.1400258
1.1553756
1.1679041
1.1777371
1.1851709
1.1905962
1.1944275
1.1970506
1.1987943
1.1999201
1.2006259
1.2010548
1.2013065
1.2014485
1.2015251
1.2015642
1.2015829
1.2015912
1.2015946
1.2015958
1.2015962
1.2015962
1.2015962
1.2015961
1.201596
1.2015959
0.75878324
0.7649969
0.77177669
0.77917228
0.78723759
0.79603112
0.80561613
0.81606068
0.82743741
0.8398228
0.85329573
0.8679348
0.88381403
0.90099605
0.91952203
0.93939754
0.96057378
0.98292466
1.0062223
1.0301162
1.0541248
1.077651
1.10003
1.1206085
1.1388411
1.1543741
1.1670902
1.1771004
1.1846901
1.1902449
1.1941783
1.1968786
1.1986786
1.1998442
1.2005773
1.2010243
1.2012878
1.2014372
1.2015183
1.20156
1.2015801
1.2015891
1.2015928
1.2015942
1.2015946
1.2015947
1.2015947
1.2015946
1.2015945
1.2015944
0.75844906
0.76463636
0.77138682
0.77874974
0.78677863
0.79553156
0.80507128
0.81546537
0.82678592
0.83910894
0.85251286
0.86707608
0.88287266
0.8999658
0.91839803
0.93817738
0.95925897
0.9815225
1.0047478
1.0285934
1.0525877
1.0761417
1.0985948
1.1192922
1.1376795
1.1533891
1.1662875
1.1764705
1.1842132
1.1898954
1.1939298
1.1967067
1.1985626
1.1997679
1.2005282
1.2009934
1.2012688
1.2014257
1.2015113
1.2015556
1.2015773
1.201587
1.2015911
1.2015926
1.2015931
1.2015932
1.2015931
1.2015931
1.201593
1.2015929
0.75812605
0.7642879
0.77101003
0.77834139
0.78633512
0.79504884
0.80454486
0.81489023
0.82615657
0.83841938
0.8517567
0.86624666
0.88196339
0.89897059
0.91731207
0.93699813
0.95798765
0.98016576
1.0033196
1.0271167
1.0510946
1.0746726
1.0971948
1.1180047
1.1365402
1.1524202
1.1654955
1.1758474
1.1837401
1.1895478
1.193682
1.1965348
1.1984464
1.1996912
1.2004787
1.2009622
1.2012495
1.2014139
1.2015042
1.2015512
1.2015743
1.2015849
1.2015893
1.201591
1.2015916
1.2015917
1.2015916
1.2015915
1.2015914
1.2015914
0.75781356
0.76395079
0.77064553
0.77794639
0.78590613
0.79458197
0.80403575
0.81433406
0.82554801
0.83775265
0.85102561
0.86544477
0.88108428
0.89800833
0.91626187
0.93585739
0.95675727
0.97885184
1.0019352
1.0256834
1.0496432
1.073242
1.0958282
1.1167448
1.1354223
1.1514669
1.164714
1.1752308
1.1832707
1.1892021
1.1934349
1.1963631
1.19833
1.1996141
1.2004288
1.2009306
1.2012299
1.201402
1.2014969
1.2015467
1.2015714
1.2015827
1.2015876
1.2015894
1.20159
1.2015902
1.2015901
1.20159
1.2015899
1.2015899
0.75751096
0.76362437
0.7702926
0.77756395
0.78549081
0.79413
0.80354293
0.81379572
0.82495902
0.8371074
0.85031812
0.86466879
0.88023357
0.89707708
0.91524535
0.93475293
0.95556551
0.97757835
1.0005922
1.0242914
1.0482316
1.0718479
1.0944937
1.1155115
1.1343251
1.1505286
1.1639428
1.1746207
1.1828051
1.1888584
1.1931886
1.1961914
1.1982134
1.1995367
1.2003786
1.2008987
1.20121
1.2013898
1.2014894
1.2015421
1.2015683
1.2015805
1.2015858
1.2015878
1.2015885
1.2015886
1.2015886
1.2015885
1.2015884
1.2015884
0.75721768
0.76330802
0.76995058
0.77719335
0.78508838
0.79369208
0.80306547
0.81327421
0.82438848
0.83648241
0.84963287
0.86391722
0.87940962
0.89617506
0.9142606
0.9336827
0.95441021
0.97634308
0.9992885
1.0229386
1.0468576
1.0704886
1.0931899
1.1143037
1.1332479
1.149605
1.1631816
1.1740169
1.1823431
1.1885165
1.1929432
1.19602
1.1980966
1.199459
1.2003281
1.2008666
1.2011899
1.2013774
1.2014818
1.2015373
1.2015652
1.2015783
1.2015839
1.2015862
1.2015869
1.2015871
1.2015871
1.201587
1.2015869
1.2015869
0.75693322
0.76300118
0.76961886
0.77683393
0.78469811
0.79326744
0.80260251
0.81276857
0.82383534
0.83587653
0.84896861
0.86318871
0.87861093
0.89530064
0.91330585
0.93264482
0.95328939
0.975144
0.99802193
1.0216229
1.0455196
1.0691627
1.0919155
1.1131205
1.13219
1.1486956
1.1624302
1.1734194
1.1818848
1.1881765
1.1926985
1.1958487
1.1979797
1.1993811
1.2002773
1.2008341
1.2011695
1.2013648
1.2014741
1.2015325
1.201562
1.201576
1.2015821
1.2015845
1.2015854
1.2015856
1.2015856
1.2015855
1.2015854
1.2015854
0.75665709
0.76270335
0.76929689
0.77648509
0.78431935
0.79285534
0.80215327
0.81227795
0.82329867
0.83528872
0.8483242
0.86248198
0.87783613
0.89445233
0.91237948
0.93163756
0.95220124
0.97397923
0.99679066
1.0203426
1.0442158
1.0678686
1.0906693
1.111961
1.1311507
1.1478
1.1616883
1.1728279
1.1814302
1.1878384
1.1924547
1.1956777
1.1978627
1.1993029
1.2002261
1.2008013
1.201149
1.2013521
1.2014662
1.2015275
1.2015588
1.2015737
1.2015802
1.2015829
1.2015838
1.2015841
1.2015841
1.201584
1.2015839
1.2015839
0.75638886
0.76241404
0.76898415
0.77614627
0.78395149
0.79245513
0.80171701
0.81180153
0.82277758
0.83471802
0.84769858
0.86179589
0.87708394
0.89362874
0.91148
0.93065931
0.95114406
0.97284701
0.99559294
1.019096
1.0429447
1.0666049
1.0894501
1.1108242
1.1301295
1.1469178
1.1609557
1.1722425
1.180979
1.1875023
1.1922118
1.1955069
1.1977457
1.1992245
1.2001747
1.2007683
1.2011281
1.2013391
1.2014582
1.2015225
1.2015555
1.2015713
1.2015784
1.2015812
1.2015823
1.2015826
1.2015826
1.2015825
1.2015824
1.2015824
0.75612811
0.76213281
0.76868015
0.77581694
0.78359395
0.79206617
0.80129305
0.81133859
0.82227127
0.83416353
0.84709077
0.86112934
0.8763532
0.89282859
0.91060601
0.92970859
0.95011628
0.97174574
0.99442713
1.0178814
1.0417048
1.0653704
1.0882569
1.1097093
1.1291257
1.1460487
1.1602322
1.171663
1.1805314
1.187168
1.1919697
1.1953364
1.1976285
1.1991459
1.2001231
1.2007351
1.2011071
1.201326
1.2014501
1.2015174
1.2015521
1.2015689
1.2015765
1.2015796
1.2015807
1.201581
1.2015811
1.201581
1.2015809
1.2015809
0.75587447
0.76185926
0.76838447
0.77549664
0.78324623
0.79168792
0.80088078
0.81088844
0.82177898
0.83362444
0.84649987
0.86048136
0.8756428
0.89205068
0.90975623
0.92878402
0.94911645
0.97067391
0.99329172
1.0166974
1.0404947
1.0641638
1.0870887
1.1086156
1.1281389
1.1451922
1.1595176
1.1710893
1.1800873
1.1868357
1.1917285
1.1951662
1.1975114
1.1990671
1.2000712
1.2007016
1.2010858
1.2013127
1.2014418
1.2015122
1.2015486
1.2015664
1.2015745
1.2015779
1.2015791
1.2015795
1.2015796
1.2015795
1.2015794
1.2015794
0.75562758
0.76159301
0.76809668
0.7751849
0.78290783
0.79131982
0.80047961
0.81045045
0.82130001
0.83309997
0.84592502
0.859851
0.87495173
0.89129392
0.90892946
0.92788431
0.94814322
0.96963011
0.9921853
1.0155427
1.0393131
1.0629841
1.0859445
1.1075423
1.1271683
1.144348
1.1588116
1.1705212
1.1796466
1.1865052
1.1914882
1.1949963
1.1973942
1.1989882
1.2000191
1.2006679
1.2010644
1.2012992
1.2014334
1.2015068
1.2015451
1.201564
1.2015726
1.2015762
1.2015775
1.201578
1.201578
1.201578
1.2015779
1.2015779
0.75538713
0.7613337
0.76781641
0.77488132
0.7825783
0.7909614
0.80008901
0.81002402
0.82083372
0.83258941
0.84536545
0.85923743
0.87427907
0.89055727
0.90812459
0.92700829
0.94719533
0.96861304
0.99110654
1.0144158
1.0381589
1.06183
1.0848234
1.1064887
1.1262137
1.1435158
1.1581141
1.1699587
1.1792094
1.1861766
1.1912489
1.1948267
1.1972771
1.1989091
1.1999668
1.2006339
1.2010428
1.2012856
1.2014248
1.2015014
1.2015416
1.2015614
1.2015706
1.2015745
1.201576
1.2015764
1.2015765
1.2015765
1.2015764
1.2015764
0.7551528
0.761081
0.76754331
0.7745855
0.78225722
0.79061219
0.79970847
0.8096086
0.8203795
0.8320921
0.84482043
0.85863983
0.87362392
0.88983979
0.9073406
0.92615484
0.94627159
0.96762148
0.99005421
1.0133157
1.0370308
1.0607006
1.0837245
1.1054541
1.1252744
1.1426952
1.1574248
1.1694017
1.1787754
1.1858499
1.1910104
1.1946574
1.1971599
1.1988298
1.1999143
1.2005998
1.2010209
1.2012718
1.2014162
1.2014959
1.201538
1.2015589
1.2015686
1.2015728
1.2015744
1.2015749
1.201575
1.201575
1.2015749
1.2015749
0.75492432
0.76083462
0.76727703
0.7742971
0.7819442
0.79027177
0.79933753
0.80920368
0.81993679
0.83160743
0.84428929
0.85805746
0.87298548
0.88914058
0.9065765
0.92532291
0.94537092
0.96665429
0.98902716
1.0122412
1.0359279
1.059595
1.0826471
1.104438
1.12435
1.1418859
1.1567436
1.16885
1.1783448
1.185525
1.1907728
1.1944885
1.1970428
1.1987505
1.1998617
1.2005655
1.2009989
1.2012579
1.2014074
1.2014903
1.2015343
1.2015563
1.2015666
1.201571
1.2015728
1.2015734
1.2015735
1.2015735
1.2015734
1.2015734
0.75470142
0.76059426
0.76701727
0.77401578
0.78163888
0.78993973
0.79897575
0.80880879
0.81950506
0.8311348
0.84377138
0.85748962
0.87236298
0.88845882
0.90583141
0.92451154
0.94449229
0.9657104
0.9880243
1.0111912
1.0348491
1.0585122
1.0815904
1.1034396
1.12344
1.1410877
1.1560703
1.1683036
1.1779174
1.185202
1.1905361
1.19432
1.1969258
1.198671
1.1998088
1.200531
1.2009768
1.2012438
1.2013985
1.2014847
1.2015305
1.2015536
1.2015645
1.2015693
1.2015712
1.2015718
1.201572
1.201572
1.2015719
1.2015719
0.75448384
0.76035965
0.76676374
0.77374121
0.78134091
0.7896157
0.79862271
0.80842347
0.81908383
0.8306737
0.84326611
0.85693567
0.8717557
0.88779371
0.90510447
0.92371983
0.94363472
0.9647888
0.9870446
1.0101647
1.0337934
1.0574514
1.0805537
1.1024585
1.1225441
1.1403003
1.1554048
1.1677623
1.1774932
1.1848808
1.1903004
1.1941518
1.1968088
1.1985914
1.1997558
1.2004963
1.2009544
1.2012296
1.2013895
1.2014789
1.2015267
1.201551
1.2015625
1.2015676
1.2015696
1.2015703
1.2015705
1.2015704
1.2015704
1.2015704
0.75427137
0.76013056
0.76651618
0.77347311
0.78104996
0.78929933
0.79827805
0.8080473
0.81867264
0.8302236
0.84277294
0.856395
0.87116299
0.88714454
0.90439489
0.92294692
0.94279733
0.96388856
0.98608712
1.0091608
1.03276
1.0564117
1.0795362
1.101494
1.1216619
1.1395233
1.1547467
1.1672262
1.1770722
1.1845613
1.1900656
1.1939839
1.1966918
1.1985118
1.1997026
1.2004614
1.2009319
1.2012152
1.2013804
1.2014731
1.2015229
1.2015482
1.2015604
1.2015658
1.201568
1.2015687
1.2015689
1.2015689
1.2015689
1.2015689
0.75406378
0.75990673
0.76627431
0.7732112
0.78076575
0.7889903
0.79794139
0.8076799
0.81827104
0.82978404
0.84229133
0.85586702
0.87058421
0.88651062
0.90370194
0.92219202
0.94197926
0.96300879
0.98515094
1.0081786
1.031748
1.0553925
1.0785374
1.1005457
1.1207928
1.1387565
1.1540961
1.166695
1.1766543
1.1842437
1.1898317
1.1938165
1.196575
1.198432
1.1996493
1.2004264
1.2009093
1.2012007
1.2013711
1.2014671
1.2015189
1.2015455
1.2015583
1.201564
1.2015663
1.2015672
1.2015674
1.2015674
1.2015674
1.2015674
0.75386087
0.75968795
0.76603791
0.77295521
0.78048798
0.78868829
0.7976124
0.80732089
0.81787865
0.82935457
0.8418208
0.85535121
0.87001877
0.8858913
0.90302491
0.92145436
0.94117971
0.96214865
0.98423523
1.0072172
1.0307567
1.054393
1.0775565
1.099613
1.1199366
1.1379997
1.1534526
1.1661686
1.1762394
1.1839279
1.1895987
1.1936494
1.1964582
1.1983522
1.1995958
1.2003912
1.2008865
1.2011861
1.2013618
1.2014611
1.201515
1.2015427
1.2015561
1.2015622
1.2015647
1.2015656
1.2015659
1.2015659
1.2015659
1.2015659
0.75366244
0.75947402
0.76580675
0.77270491
0.78021639
0.78839302
0.79729077
0.80696993
0.81749507
0.82893477
0.8413609
0.85484707
0.86946613
0.88528599
0.90236315
0.92073326
0.94039794
0.96130737
0.98333917
1.0062758
1.0297852
1.0534124
1.076593
1.0986955
1.1190929
1.1372526
1.1528162
1.1656471
1.1758276
1.1836138
1.1893666
1.1934828
1.1963415
1.1982723
1.1995422
1.2003559
1.2008635
1.2011714
1.2013524
1.201455
1.2015109
1.2015399
1.201554
1.2015604
1.2015631
1.2015641
1.2015644
1.2015644
1.2015644
1.2015644
0.75346832
0.75926473
0.76558063
0.77246007
0.77995073
0.78810421
0.79697619
0.80662668
0.81711994
0.82852426
0.84091118
0.8543541
0.86892576
0.88469411
0.90171603
0.92002804
0.93963323
0.96048419
0.98246202
1.0053537
1.0288328
1.0524502
1.0756464
1.0977927
1.1182614
1.1365149
1.1521868
1.1651303
1.1754188
1.1833015
1.1891355
1.1933165
1.1962249
1.1981924
1.1994885
1.2003204
1.2008404
1.2011565
1.2013428
1.2014489
1.2015068
1.201537
1.2015518
1.2015586
1.2015614
1.2015625
1.2015628
1.2015629
1.2015629
1.2015629
0.75327833
0.7590599
0.76535933
0.77222046
0.77969077
0.7878216
0.79666839
0.80629085
0.81675294
0.82812265
0.84047124
0.85387188
0.86839717
0.88411513
0.90108299
0.91933807
0.93888492
0.95967844
0.98160305
1.0044503
1.0278989
1.0515056
1.0747161
1.0969041
1.1174417
1.1357865
1.151564
1.1646182
1.175013
1.1829909
1.1889052
1.1931506
1.1961084
1.1981124
1.1994347
1.2002848
1.2008172
1.2011415
1.2013332
1.2014426
1.2015027
1.2015341
1.2015496
1.2015567
1.2015598
1.2015609
1.2015613
1.2015614
1.2015614