/*--------------------------------*- C++ -*----------------------------------*\
| =========                 |                                                 |
| \\      /  F ield         | OpenFOAM: The Open Source CFD Toolbox           |
|  \\    /   O peration     | Version:  4.0                                   |
|   \\  /    A nd           | Web:      www.OpenFOAM.org                      |
|    \\/     M anipulation  |                                                 |
\*---------------------------------------------------------------------------*/
FoamFile
{
    version     2.0;
    format      ascii;
    class       volScalarField;
    location    "2000";
    object      rho;
}
// * * * * * * * * * * * * * * * * * * * * * * * * * * * * * * * * * * * * * //

dimensions      [1 -3 0 0 0 0 0];

internalField   nonuniform List<scalar> 
5000
(
0.87196261
0.88781978
0.90532515
0.92445839
0.9451272
0.96715147
0.99025155
1.0140449
1.038055
1.0617356
1.0845104
1.1058236
1.1251947
1.1422652
1.1568296
1.1688446
1.178415
1.1857646
1.1911956
1.1950483
1.1976643
1.1993584
1.2004005
1.2010065
1.2013379
1.2015075
1.2015882
1.2016236
1.2016379
1.2016431
1.2016449
1.2016454
1.2016455
1.2016456
1.2016456
1.2016456
1.2016456
1.2016456
1.2016456
1.2016456
1.2016456
1.2016456
1.2016456
1.2016456
1.2016456
1.2016456
1.2016456
1.2016456
1.2016456
1.2016456
0.82605285
0.83784203
0.85089076
0.86531295
0.88121509
0.89868492
0.91777561
0.93848545
0.96073392
0.98433667
1.008984
1.0342291
1.0594941
1.0841
1.1073245
1.1284837
1.1469166
1.1622738
1.1744789
1.1837123
1.19035
1.1948767
1.1977995
1.1995815
1.200604
1.2011537
1.2014291
1.2015571
1.2016118
1.2016331
1.2016407
1.2016431
1.2016438
1.201644
1.2016441
1.2016441
1.2016441
1.2016441
1.2016441
1.2016441
1.2016441
1.2016441
1.2016441
1.2016441
1.2016441
1.2016441
1.2016441
1.2016441
1.2016441
1.2016441
0.80879156
0.81910089
0.83048315
0.84304823
0.8569113
0.87218824
0.88898794
0.90740021
0.92747787
0.94921253
0.97250421
0.99712799
1.0227041
1.0486823
1.0743544
1.0989049
1.1215029
1.1414312
1.1582031
1.1716346
1.1818477
1.1892085
1.1942286
1.1974617
1.1994225
1.2005382
1.2011308
1.2014231
1.2015561
1.2016115
1.2016324
1.2016396
1.2016418
1.2016424
1.2016425
1.2016426
1.2016426
1.2016426
1.2016426
1.2016426
1.2016426
1.2016426
1.2016426
1.2016426
1.2016426
1.2016426
1.2016426
1.2016426
1.2016426
1.2016426
0.79965439
0.80919356
0.81970581
0.83129137
0.84405776
0.85811771
0.87358483
0.8905663
0.90915115
0.92939258
0.95128347
0.97472493
0.99949054
1.0251934
1.0512679
1.0769821
1.1014951
1.1239616
1.1436637
1.1601321
1.1732154
1.1830742
1.1901087
1.1948531
1.1978705
1.1996741
1.200683
1.2012081
1.2014608
1.2015725
1.2016174
1.2016337
1.201639
1.2016406
1.201641
1.201641
1.2016411
1.2016411
1.2016411
1.2016411
1.2016411
1.2016411
1.2016411
1.2016411
1.2016411
1.2016411
1.2016411
1.2016411
1.2016411
1.2016411
0.79365285
0.8026914
0.81263859
0.82358717
0.83563752
0.8488965
0.86347473
0.87948171
0.89701746
0.91615947
0.93694351
0.95933719
0.98320701
1.0082822
1.034124
1.0601141
1.0854796
1.1093655
1.1309525
1.149592
1.1649151
1.1768785
1.1857331
1.1919357
1.1960395
1.1985968
1.2000916
1.2009069
1.2013193
1.2015113
1.2015928
1.2016242
1.2016351
1.2016384
1.2016393
1.2016395
1.2016396
1.2016396
1.2016396
1.2016396
1.2016396
1.2016396
1.2016396
1.2016396
1.2016396
1.2016396
1.2016396
1.2016396
1.2016396
1.2016396
0.78925351
0.79792776
0.80746428
0.8179501
0.82947984
0.84215499
0.85608208
0.87136911
0.88811933
0.90642103
0.92633218
0.94785833
0.97092356
0.99533584
1.0207524
1.0466558
1.072357
1.0970404
1.1198588
1.1400623
1.157127
1.1708365
1.1812914
1.1888476
1.1940144
1.1973486
1.199372
1.2005212
1.2011282
1.2014241
1.2015563
1.2016098
1.2016293
1.2016357
1.2016375
1.2016379
1.201638
1.2016381
1.2016381
1.2016381
1.2016381
1.2016381
1.2016381
1.2016381
1.2016381
1.2016381
1.2016381
1.2016381
1.2016381
1.2016381
0.78582346
0.79421525
0.80343373
0.81356146
0.8246884
0.83691147
0.85033325
0.86505926
0.88119304
0.89882796
0.91803448
0.93884146
0.96121062
0.98500458
1.0099519
1.0356174
1.0613912
1.0865133
1.1101461
1.1314896
1.1499141
1.1650662
1.1769102
1.185696
1.1918712
1.1959754
1.1985467
1.2000585
1.2008878
1.2013091
1.2015057
1.2015892
1.2016212
1.2016321
1.2016354
1.2016363
1.2016365
1.2016366
1.2016366
1.2016366
1.2016366
1.2016366
1.2016366
1.2016366
1.2016366
1.2016366
1.2016366
1.2016366
1.2016366
1.2016366
0.78303501
0.7911982
0.80015954
0.80999799
0.82079965
0.83265758
0.84567078
0.8599421
0.87557422
0.89266281
0.91128581
0.93148729
0.95325489
0.97649059
1.0009769
1.0263444
1.0520529
1.0774005
1.101577
1.1237635
1.1432612
1.1596102
1.1726572
1.1825497
1.1896665
1.194516
1.1976379
1.1995291
1.2006011
1.2011658
1.2014399
1.2015614
1.2016101
1.2016275
1.2016331
1.2016346
1.201635
1.2016351
1.2016351
1.2016351
1.2016351
1.2016351
1.2016351
1.2016351
1.2016351
1.2016351
1.2016351
1.2016351
1.2016351
1.2016351
0.78069983
0.78867227
0.79741926
0.80701673
0.81754756
0.82910148
0.84177435
0.85566639
0.8708789
0.88750846
0.90563764
0.92532088
0.94656444
0.96929958
0.99335043
1.0184009
1.0439705
1.0694125
1.093952
1.11677
1.1371241
1.1544733
1.1685646
1.1794507
1.1874398
1.1930013
1.1966659
1.1989437
1.2002723
1.2009948
1.2013581
1.2015255
1.2015953
1.2016215
1.2016302
1.2016328
1.2016334
1.2016335
1.2016336
1.2016336
1.2016336
1.2016336
1.2016336
1.2016336
1.2016336
1.2016336
1.2016336
1.2016336
1.2016336
1.2016336
0.77870046
0.7865101
0.79507428
0.80446637
0.8147665
0.82606151
0.83844444
0.8520131
0.86686719
0.88310338
0.90080717
0.92004034
0.94082292
0.96310863
0.98675448
1.0114879
1.0368793
1.0623328
1.0871115
1.1104073
1.1314522
1.1496439
1.1646456
1.1764243
1.1852186
1.191455
1.1956479
1.1983128
1.1999066
1.2007979
1.2012603
1.2014808
1.2015765
1.2016138
1.2016268
1.2016307
1.2016318
1.201632
1.2016321
1.2016321
1.2016321
1.2016321
1.2016321
1.2016321
1.2016321
1.2016321
1.2016321
1.2016321
1.2016321
1.2016321
0.77695889
0.7846271
0.79303258
0.80224649
0.81234657
0.82341713
0.83554871
0.84883683
0.86337959
0.8792733
0.89660526
0.91544259
0.9358158
0.95769622
0.98096734
1.0053926
1.030586
1.0559977
1.0809286
1.1045883
1.1261956
1.1451024
1.1609019
1.1734843
1.1830214
1.1898948
1.1945979
1.1976458
1.199509
1.2005771
1.2011469
1.2014273
1.2015531
1.2016041
1.2016226
1.2016285
1.2016301
1.2016305
1.2016306
1.2016306
1.2016306
1.2016306
1.2016306
1.2016306
1.2016306
1.2016306
1.2016306
1.2016306
1.2016306
1.2016306
0.77542072
0.78296432
0.79123005
0.80028716
0.81021126
0.82108445
0.832995
0.84603634
0.86030496
0.87589655
0.89289952
0.91138491
0.93139139
0.95290437
0.975829
0.99995884
1.0249457
1.0502808
1.0753018
1.0992395
1.1213084
1.1408265
1.1573289
1.1706371
1.1808601
1.1883335
1.1935271
1.1969509
1.1990846
1.2003348
1.2010186
1.2013647
1.201525
1.2015923
1.2016175
1.2016259
1.2016283
1.2016289
1.201629
1.2016291
1.2016291
1.2016291
1.2016291
1.2016291
1.2016291
1.2016291
1.2016291
1.2016291
1.2016291
1.2016291
0.7740467
0.78147922
0.78962046
0.79853795
0.80830543
0.819003
0.8307169
0.84353864
0.85756314
0.8728853
0.88959417
0.90776372
0.92743907
0.9486171
0.97122094
0.99506968
1.0198479
1.0450837
1.0701495
1.0942994
1.1167498
1.1367939
1.1539187
1.1678847
1.1787418
1.1867805
1.1924441
1.1962348
1.1986378
1.2000734
1.2008764
1.2012932
1.2014919
1.201578
1.2016114
1.2016229
1.2016264
1.2016273
1.2016275
1.2016276
1.2016276
1.2016276
1.2016276
1.2016276
1.2016276
1.2016276
1.2016276
1.2016276
1.2016276
1.2016276
0.77280767
0.78014021
0.78816946
0.79696141
0.80658813
0.81712792
0.82866515
0.84128957
0.85509461
0.87017429
0.88661794
0.90450176
0.92387604
0.94474713
0.96705326
0.9906354
1.0152067
1.0403285
1.0654059
1.0897169
1.1124842
1.1329837
1.1506622
1.1652263
1.1766708
1.185242
1.1913557
1.1955033
1.1981726
1.1997954
1.2007213
1.2012131
1.2014538
1.2015612
1.2016042
1.2016196
1.2016244
1.2016257
1.201626
1.2016261
1.2016261
1.2016261
1.2016261
1.2016261
1.2016261
1.2016261
1.2016261
1.2016261
1.2016261
1.2016261
0.77168139
0.77892321
0.78685088
0.79552903
0.80502819
0.81542503
0.82680224
0.83924791
0.85285405
0.86771377
0.88391646
0.90153998
0.92063884
0.94122727
0.96325637
0.986586
1.0109544
1.035953
1.0610172
1.085449
1.1084806
1.1293763
1.1475497
1.1626595
1.1746495
1.1837228
1.1902669
1.1947608
1.1976926
1.1995029
1.2005545
1.2011248
1.2014107
1.2015416
1.2015958
1.2016157
1.2016222
1.201624
1.2016245
1.2016246
1.2016246
1.2016246
1.2016246
1.2016246
1.2016246
1.2016246
1.2016246
1.2016246
1.2016246
1.2016246
0.77065056
0.77780948
0.78564437
0.79421861
0.80360134
0.81386776
0.82509898
0.83738158
0.85080621
0.86546506
0.88144739
0.89883232
0.91767783
0.9380048
0.95977537
0.98286584
1.0070368
1.0319065
1.0569388
1.0814596
1.1047124
1.1259543
1.1445717
1.1601809
1.1726784
1.1822257
1.1891816
1.1940111
1.1972008
1.1991979
1.2003771
1.2010287
1.2013625
1.2015193
1.201586
1.2016113
1.2016198
1.2016223
1.2016229
1.2016231
1.2016231
1.2016231
1.2016231
1.2016231
1.2016231
1.2016231
1.2016231
1.2016231
1.2016231
1.2016231
0.76970145
0.77678415
0.78453379
0.79301257
0.80228839
0.81243507
0.8235323
0.83566522
0.8489232
0.8633975
0.87917714
0.89634221
0.91495354
0.93503766
0.95656627
0.97943012
1.0034096
1.0281474
1.053134
1.0777181
1.1011562
1.1227019
1.1417192
1.1577869
1.1707575
1.1807528
1.1881028
1.1932573
1.1966996
1.1988824
1.2001902
1.2009253
1.2013096
1.2014942
1.2015748
1.2016063
1.2016172
1.2016205
1.2016214
1.2016215
1.2016216
1.2016216
1.2016216
1.2016216
1.2016216
1.2016216
1.2016216
1.2016216
1.2016216
1.2016216
0.76882303
0.77583529
0.78350615
0.79189677
0.80107388
0.81111004
0.82208361
0.8340784
0.84718257
0.86148644
0.87707873
0.89404022
0.91243412
0.93229184
0.95359339
0.97624227
1.0000366
1.0246414
1.0495716
1.0741983
1.0977918
1.1196051
1.1389837
1.1554733
1.168886
1.1793054
1.1870327
1.1925017
1.1961913
1.1985579
1.1999948
1.2008152
1.2012519
1.2014663
1.2015621
1.2016006
1.2016143
1.2016186
1.2016198
1.20162
1.2016201
1.2016201
1.2016201
1.2016201
1.2016201
1.2016201
1.2016201
1.2016201
1.2016201
1.2016201
0.76800629
0.77495314
0.78255087
0.79085968
0.79994523
0.80987889
0.82073779
0.83260451
0.84556604
0.8597118
0.87513011
0.8919023
0.91009354
0.92973945
0.95082736
0.97327209
0.99688772
1.0213596
1.0462254
1.0708778
1.0946016
1.1166511
1.1363572
1.1532361
1.1670627
1.177884
1.1859728
1.1917463
1.1956776
1.1982258
1.1997919
1.2006989
1.2011898
1.2014355
1.2015479
1.2015942
1.2016112
1.2016166
1.2016181
1.2016185
1.2016186
1.2016186
1.2016186
1.2016186
1.2016186
1.2016186
1.2016186
1.2016186
1.2016186
1.2016186
0.76724379
0.77412964
0.78165921
0.78989178
0.79889203
0.80873022
0.81948236
0.83122983
0.84405852
0.85805699
0.87331312
0.88990859
0.90791026
0.92735741
0.9482438
0.97049439
0.99393767
1.0182776
1.043073
1.0677374
1.0915701
1.1138287
1.1338325
1.1510715
1.1652863
1.1764889
1.1849244
1.1909926
1.19516
1.1978874
1.1995824
1.2005769
1.2011235
1.2014021
1.2015322
1.201587
1.2016077
1.2016145
1.2016165
1.201617
1.2016171
1.2016171
1.2016171
1.2016171
1.2016171
1.2016171
1.2016171
1.2016171
1.2016171
1.2016171
0.76652932
0.77335808
0.78082387
0.78898514
0.79790561
0.80765456
0.8183069
0.8299429
0.84264743
0.85650818
0.87161256
0.88804251
0.90586629
0.92512636
0.94582224
0.96788797
0.99116508
1.0153746
1.0400953
1.0647602
1.0886837
1.1111278
1.1314028
1.1489757
1.1635552
1.1751202
1.1838883
1.1902418
1.1946399
1.1975439
1.199367
1.2004497
1.2010532
1.2013659
1.2015148
1.2015791
1.2016039
1.2016123
1.2016148
1.2016154
1.2016156
1.2016156
1.2016156
1.2016156
1.2016156
1.2016156
1.2016156
1.2016156
1.2016156
1.2016156
0.76585765
0.7726328
0.78003871
0.78813305
0.79697868
0.80664391
0.81720264
0.82873412
0.8413222
0.85505374
0.87001569
0.8862901
0.90394645
0.92303
0.94354536
0.96543479
0.98855173
1.0126329
1.0372756
1.0619317
1.0859303
1.1085394
1.129062
1.1469451
1.1618678
1.1737775
1.1828651
1.189495
1.1941183
1.197196
1.1991466
1.2003177
1.2009791
1.2013272
1.201496
1.2015703
1.2015997
1.20161
1.2016131
1.2016139
1.2016141
1.2016141
1.2016141
1.2016141
1.2016141
1.2016141
1.2016141
1.2016141
1.2016141
1.2016141
0.76522434
0.77194898
0.77929851
0.78732985
0.79610502
0.80569148
0.81616215
0.82759529
0.84007382
0.85368379
0.86851163
0.88463949
0.90213783
0.92105439
0.94139838
0.96311947
0.98608196
1.0100371
1.0345995
1.059239
1.0832994
1.1060553
1.1268045
1.1449762
1.1602224
1.1724604
1.1818551
1.1887529
1.193596
1.1968448
1.1989216
1.2001814
1.2009015
1.201286
1.2014755
1.2015607
1.2015951
1.2016074
1.2016113
1.2016123
1.2016125
1.2016126
1.2016126
1.2016126
1.2016126
1.2016126
1.2016126
1.2016126
1.2016126
1.2016126
0.76462557
0.77130252
0.7785988
0.78657065
0.79527935
0.80479147
0.81517905
0.82651943
0.83889461
0.85238987
0.86709112
0.8830805
0.90042937
0.91918762
0.93936859
0.96092871
0.98374224
1.0075738
1.0320544
1.0566708
1.0807814
1.1036681
1.1246251
1.1430659
1.1586174
1.1711686
1.1808587
1.188016
1.1930739
1.1964908
1.1986929
1.2000412
1.2008206
1.2012423
1.2014536
1.2015503
1.2015902
1.2016048
1.2016094
1.2016107
1.201611
1.2016111
1.2016111
1.2016111
1.2016111
1.2016111
1.2016111
1.2016111
1.2016111
1.2016111
0.76405807
0.77068985
0.77793572
0.78585128
0.79449706
0.80393886
0.81424786
0.8255005
0.83777794
0.85116468
0.86574613
0.88160439
0.89881151
0.91741936
0.937445
0.95885099
0.98152078
1.0052314
1.0296292
1.0542172
1.0783679
1.1013712
1.1225191
1.1412112
1.1570513
1.1699013
1.1798758
1.187285
1.1925525
1.1961347
1.1984607
1.1998974
1.2007366
1.2011964
1.2014301
1.201539
1.2015848
1.2016019
1.2016075
1.2016091
1.2016095
1.2016096
1.2016096
1.2016096
1.2016096
1.2016096
1.2016096
1.2016096
1.2016096
1.2016096
0.76351898
0.77010789
0.77730594
0.78516809
0.7937542
0.80312931
0.8133638
0.82453328
0.83671806
0.85000191
0.86446973
0.88020353
0.89727598
0.91574067
0.93561804
0.95687627
0.97940728
1.0029997
1.0273141
1.0518692
1.0760513
1.0991587
1.1204821
1.1394092
1.1555224
1.1686581
1.1789065
1.1865601
1.1920324
1.1957771
1.1982257
1.1997505
1.2006498
1.2011483
1.2014051
1.2015268
1.2015789
1.2015988
1.2016055
1.2016075
1.201608
1.2016081
1.2016081
1.2016081
1.2016081
1.2016081
1.2016081
1.2016081
1.2016081
1.2016081
0.76300582
0.76955395
0.77670652
0.78451789
0.79304729
0.80235904
0.81252274
0.8236132
0.83570994
0.84889604
0.86325587
0.8788713
0.89581554
0.91414371
0.93387933
0.95499574
0.97739268
1.0008696
1.0251005
1.0496189
1.0738248
1.097025
1.1185101
1.1376573
1.1540294
1.1674382
1.1779507
1.1858416
1.1915139
1.1954183
1.1979882
1.1996007
1.2005604
1.201098
1.2013788
1.2015137
1.2015726
1.2015956
1.2016035
1.2016058
1.2016064
1.2016066
1.2016066
1.2016066
1.2016066
1.2016066
1.2016066
1.2016066
1.2016066
1.2016066
0.76251639
0.76902567
0.7761349
0.78389791
0.7923733
0.80162471
0.81172101
0.82273625
0.8347492
0.84784222
0.86209921
0.87760186
0.89442381
0.91262159
0.9322215
0.95320164
0.97546899
0.99883307
1.0229806
1.0474593
1.0716823
1.0949652
1.1165994
1.1359531
1.1525707
1.166241
1.1770084
1.1851297
1.1909976
1.1950589
1.1977485
1.1994483
1.2004685
1.2010459
1.201351
1.2014998
1.2015658
1.2015921
1.2016014
1.2016042
1.2016049
1.2016051
1.2016051
1.2016051
1.2016051
1.2016051
1.2016051
1.2016051
1.2016051
1.2016051
0.76204878
0.76852095
0.77558882
0.78330568
0.79172953
0.80092338
0.8109554
0.82189891
0.83383194
0.8468362
0.86099507
0.87639007
0.8930952
0.91116824
0.93063803
0.95148707
0.97362908
0.996883
1.0209475
1.0453839
1.0696182
1.0929747
1.1147467
1.1342942
1.151145
1.1650659
1.1760793
1.1844245
1.1904835
1.1946991
1.1975071
1.1992936
1.2003744
1.2009918
1.2013218
1.201485
1.2015586
1.2015884
1.2015991
1.2016025
1.2016034
1.2016036
1.2016036
1.2016036
1.2016036
1.2016036
1.2016036
1.2016036
1.2016036
1.2016036
0.76160126
0.76803796
0.77506628
0.78273902
0.79111362
0.80025246
0.81022307
0.82109804
0.83295473
0.84587418
0.85993929
0.87523137
0.89182473
0.90977825
0.92912314
0.94984594
0.97186662
0.995013
1.0189951
1.043387
1.0676273
1.0910495
1.1129488
1.1326785
1.149751
1.1639123
1.1751633
1.1837263
1.1899721
1.1943392
1.1972642
1.1991369
1.2002781
1.200936
1.2012914
1.2014694
1.2015509
1.2015845
1.2015968
1.2016007
1.2016018
1.201602
1.2016021
1.2016021
1.2016021
1.2016021
1.2016021
1.2016021
1.2016021
1.2016021
0.76117232
0.76757504
0.77456549
0.78219598
0.79052343
0.79960963
0.80952147
0.82033087
0.83211451
0.84495282
0.85892819
0.87412172
0.89060797
0.90844684
0.92767167
0.94827276
0.97017596
0.99321735
1.0171177
1.0414634
1.0657053
1.0891858
1.1112029
1.131104
1.1483875
1.1627794
1.1742602
1.1830349
1.1894635
1.1939796
1.1970201
1.1989783
1.20018
1.2008785
1.2012597
1.2014529
1.2015427
1.2015803
1.2015944
1.2015989
1.2016002
1.2016005
1.2016006
1.2016006
1.2016006
1.2016006
1.2016006
1.2016006
1.2016006
1.2016006
0.76076059
0.76713072
0.77408484
0.78167483
0.78995709
0.79899283
0.80884834
0.8195949
0.83130854
0.84406909
0.85795845
0.87305749
0.88944097
0.9071697
0.926279
0.94676266
0.96855199
0.9914909
1.0153103
1.0396084
1.0638478
1.0873799
1.1095061
1.1295688
1.1470532
1.1616666
1.1733697
1.1823505
1.1889578
1.1936204
1.196775
1.198818
1.2000801
1.2008194
1.2012268
1.2014357
1.201534
1.2015759
1.2015918
1.2015971
1.2015986
1.201599
1.2015991
1.2015991
1.2015991
1.2015991
1.2015991
1.2015991
1.2015991
1.2015991
0.76036486
0.76670368
0.77362293
0.78117402
0.78941288
0.7984002
0.80820165
0.81888791
0.83053438
0.84322031
0.85702712
0.87203543
0.88832017
0.90594296
0.92494097
0.94531122
0.96699014
0.98982901
1.0135683
1.0378177
1.062051
1.0856289
1.1078561
1.1280712
1.145747
1.1605734
1.1724916
1.181673
1.1884553
1.1932618
1.1965291
1.1986563
1.1999786
1.2007589
1.2011928
1.2014176
1.2015249
1.2015713
1.2015892
1.2015953
1.201597
1.2015975
1.2015976
1.2015976
1.2015976
1.2015976
1.2015976
1.2015976
1.2015976
1.2015976
0.75998402
0.76629273
0.77317844
0.78069215
0.7888893
0.79783006
0.80757956
0.81820789
0.82978983
0.84240405
0.85613152
0.87105262
0.88724237
0.90476317
0.92365385
0.94391447
0.96548626
0.98822744
1.0118877
1.0360874
1.0603115
1.0839296
1.1062506
1.1266094
1.144468
1.1594992
1.1716256
1.1810024
1.1879559
1.192904
1.1962826
1.1984933
1.1998755
1.200697
1.2011576
1.2013988
1.2015152
1.2015664
1.2015864
1.2015934
1.2015954
1.201596
1.2015961
1.2015961
1.2015961
1.2015961
1.2015961
1.2015961
1.2015961
1.2015961
0.75961708
0.7658968
0.77275022
0.78022794
0.78838494
0.79728092
0.80698044
0.81755303
0.82907288
0.84161812
0.85526926
0.87010641
0.8862047
0.90362718
0.92241425
0.94256881
0.9640366
0.98668238
1.0102645
1.0344138
1.058626
1.0822794
1.1046873
1.125182
1.143215
1.1584433
1.1707715
1.1803387
1.1874599
1.1925472
1.1960356
1.1983292
1.1997711
1.2006338
1.2011214
1.2013792
1.2015051
1.2015612
1.2015836
1.2015914
1.2015938
1.2015944
1.2015946
1.2015946
1.2015946
1.2015946
1.2015946
1.2015946
1.2015946
1.2015946
0.75926315
0.76551492
0.77233722
0.77978025
0.78789858
0.7967514
0.80640278
0.81692168
0.82838174
0.84086055
0.85443816
0.86919441
0.88520452
0.90253214
0.92121911
0.94127098
0.96263773
0.98519033
1.0086954
1.0327938
1.0569915
1.0806758
1.1031643
1.1237874
1.1419871
1.1574053
1.1699291
1.1796818
1.1869672
1.1921915
1.1957884
1.1981641
1.1996655
1.2005694
1.2010841
1.2013588
1.2014945
1.2015557
1.2015805
1.2015894
1.2015922
1.2015929
1.2015931
1.2015931
1.2015931
1.2015931
1.2015931
1.2015931
1.2015931
1.2015931
0.75892139
0.76514619
0.77193846
0.77934804
0.78742906
0.79624026
0.80584522
0.81631235
0.82771476
0.84012952
0.85363623
0.86831446
0.88423947
0.90147547
0.92006564
0.94001799
0.96128653
0.98374811
1.0071773
1.0312242
1.0554053
1.0791163
1.1016798
1.1224243
1.1407834
1.1563846
1.169098
1.1790317
1.186478
1.191837
1.195541
1.197998
1.1995587
1.2005038
1.2010459
1.2013378
1.2014835
1.20155
1.2015774
1.2015874
1.2015905
1.2015914
1.2015916
1.2015916
1.2015916
1.2015916
1.2015916
1.2015916
1.2015916
1.2015916
0.75859108
0.76478983
0.77155309
0.77893035
0.78697535
0.79574638
0.80530652
0.8157237
0.82707047
0.8394234
0.85286167
0.86746457
0.88330738
0.90045481
0.91895128
0.93880714
0.95998018
0.9823528
1.0057071
1.0297024
1.0538648
1.0775989
1.1002319
1.1210914
1.139603
1.1553806
1.1682781
1.1783882
1.1859922
1.1914837
1.1952936
1.1978312
1.1994508
1.2004372
1.2010068
1.201316
1.201472
1.2015441
1.2015741
1.2015852
1.2015888
1.2015898
1.2015901
1.2015901
1.2015901
1.2015901
1.2015901
1.2015901
1.2015901
1.2015901
0.75827152
0.76444507
0.7711803
0.77852633
0.78653651
0.79526872
0.80478557
0.81515447
0.82644749
0.83874069
0.85211283
0.86664294
0.88240627
0.899468
0.91787372
0.93763595
0.95871604
0.98100172
1.0042822
1.0282257
1.0523678
1.0761215
1.098819
1.1197874
1.1384452
1.1543929
1.1674691
1.1777514
1.1855098
1.1911318
1.1950462
1.1976638
1.1993419
1.2003695
1.2009668
1.2012936
1.20146
1.2015378
1.2015707
1.2015831
1.2015871
1.2015883
1.2015885
1.2015886
1.2015886
1.2015886
1.2015886
1.2015886
1.2015886
1.2015886
0.75796209
0.76411127
0.77081936
0.77813518
0.78611168
0.79480634
0.80428131
0.81460353
0.82584457
0.83808002
0.85138822
0.8658479
0.88153433
0.89851307
0.91683081
0.93650212
0.95749174
0.97969241
1.0029002
1.0267918
1.050912
1.0746822
1.0974397
1.1185114
1.137309
1.153421
1.1666707
1.1771211
1.185031
1.1907814
1.1947989
1.1974958
1.1992322
1.2003009
1.200926
1.2012705
1.2014476
1.2015313
1.2015672
1.2015808
1.2015854
1.2015867
1.201587
1.2015871
1.2015871
1.2015871
1.2015871
1.2015871
1.2015871
1.2015871
0.75766221
0.76378778
0.77046961
0.77775616
0.78570005
0.79435836
0.8037928
0.81406984
0.82526058
0.83744014
0.85068644
0.86507795
0.88068989
0.89758822
0.91582061
0.93540358
0.95630506
0.9784226
1.0015588
1.0253985
1.0494955
1.0732792
1.0960924
1.117262
1.1361938
1.1524645
1.1658827
1.1764972
1.1845557
1.1904324
1.1945519
1.1973273
1.1991217
1.2002314
1.2008843
1.2012468
1.2014348
1.2015245
1.2015635
1.2015785
1.2015837
1.2015852
1.2015855
1.2015856
1.2015856
1.2015856
1.2015856
1.2015856
1.2015856
1.2015856
0.75737137
0.76347405
0.77013041
0.7773886
0.78530091
0.79392399
0.80331916
0.81355245
0.82469446
0.83681988
0.85000622
0.86433168
0.87987143
0.89669176
0.9148413
0.93433838
0.95515397
0.97719019
1.0002559
1.0240438
1.0481163
1.071911
1.0947758
1.1160384
1.1350988
1.1515229
1.1651048
1.1758796
1.1840838
1.190085
1.1943052
1.1971584
1.1990104
1.2001611
1.2008419
1.2012225
1.2014215
1.2015175
1.2015596
1.2015762
1.2015819
1.2015836
1.201584
1.2015841
1.2015841
1.2015841
1.2015841
1.2015841
1.2015841
1.2015841
0.75708908
0.76316955
0.76980121
0.7770319
0.78491356
0.7935025
0.8028596
0.81305046
0.82414524
0.83621818
0.8493464
0.86360782
0.87907754
0.89582218
0.91389123
0.93330475
0.9540366
0.97599324
0.99898956
1.0227258
1.0467728
1.0705759
1.0934888
1.1148396
1.1340235
1.1505957
1.1643369
1.1752683
1.1836155
1.1897392
1.1940589
1.1969892
1.1988985
1.2000901
1.2007988
1.2011976
1.2014078
1.2015102
1.2015557
1.2015737
1.2015801
1.201582
1.2015825
1.2015826
1.2015826
1.2015826
1.2015826
1.2015826
1.2015826
1.2015826
0.75681488
0.7628738
0.76948147
0.77668547
0.7845374
0.79309319
0.80241336
0.81256306
0.82361203
0.83563406
0.84870589
0.86290516
0.87830692
0.89497804
0.91296885
0.93230104
0.95295121
0.97482995
0.99775795
1.0214427
1.0454632
1.0692726
1.09223
1.1136646
1.132967
1.1496826
1.1635787
1.1746632
1.1831506
1.189395
1.193813
1.1968197
1.1987859
1.2000183
1.200755
1.2011722
1.2013937
1.2015026
1.2015515
1.2015712
1.2015782
1.2015804
1.201581
1.2015811
1.2015811
1.2015811
1.2015811
1.2015811
1.2015811
1.2015811
0.75654836
0.76258634
0.76917072
0.77634879
0.78417184
0.79269546
0.80197976
0.81208951
0.82309399
0.8350666
0.84808368
0.86222261
0.87755835
0.89415803
0.91207274
0.93132573
0.95189618
0.97369867
0.99655939
1.0201929
1.044186
1.0679997
1.0909983
1.1125126
1.1319289
1.1487831
1.16283
1.1740641
1.1826893
1.1890525
1.1935676
1.19665
1.1986728
1.1999458
1.2007106
1.2011462
1.2013792
1.2014948
1.2015473
1.2015687
1.2015764
1.2015788
1.2015794
1.2015796
1.2015796
1.2015796
1.2015796
1.2015796
1.2015796
1.2015796
0.75628914
0.76230675
0.76886849
0.77602136
0.78381635
0.7923087
0.80155816
0.81162909
0.82259037
0.83451496
0.84747886
0.86155916
0.87683073
0.89336093
0.91120159
0.93037739
0.95087001
0.97259782
0.99539232
1.0189748
1.0429398
1.0667559
1.0897928
1.1113828
1.1309085
1.147897
1.1620906
1.173471
1.1822313
1.1887117
1.1933228
1.1964802
1.1985592
1.1998727
1.2006655
1.2011197
1.2013643
1.2014867
1.2015428
1.201566
1.2015745
1.2015772
1.2015779
1.2015781
1.2015781
1.2015781
1.2015781
1.2015781
1.2015781
1.2015781
0.75603685
0.76203466
0.76857437
0.77570274
0.78347044
0.79193239
0.80114797
0.81118116
0.82210043
0.83397835
0.84689055
0.86091385
0.87612302
0.89258562
0.91035417
0.92945472
0.94987132
0.97152597
0.99425527
1.017787
1.0417234
1.06554
1.0886123
1.1102743
1.1299053
1.1470238
1.1613602
1.1728837
1.1817768
1.1883725
1.1930785
1.1963102
1.1984451
1.199799
1.2006199
1.2010926
1.201349
1.2014784
1.2015383
1.2015633
1.2015726
1.2015756
1.2015764
1.2015766
1.2015766
1.2015766
1.2015766
1.2015766
1.2015766
1.2015766
0.75579117
0.7617697
0.76828798
0.77539249
0.78313364
0.79156601
0.80074864
0.81074512
0.82162354
0.83345606
0.84631797
0.86028581
0.87543425
0.89183104
0.90952932
0.92855648
0.9488988
0.97048177
0.99314688
1.0166283
1.0405353
1.0643509
1.087456
1.1091865
1.1289187
1.1461631
1.1606387
1.1723022
1.1813257
1.1880351
1.1928348
1.1961403
1.1983307
1.1997248
1.2005737
1.2010651
1.2013334
1.2014698
1.2015335
1.2015605
1.2015706
1.2015739
1.2015749
1.2015751
1.2015751
1.2015751
1.2015751
1.2015751
1.2015751
1.2015751
0.75555178
0.76151153
0.76800894
0.77509023
0.78280552
0.7912091
0.80035965
0.8103204
0.82115905
0.83294739
0.84576035
0.85967421
0.87476353
0.89109621
0.908726
0.92768153
0.94795124
0.96946396
0.99206588
1.0154972
1.0393744
1.0631875
1.0863229
1.1081187
1.1279483
1.1453147
1.1599258
1.1717263
1.1808779
1.1876994
1.1925918
1.1959703
1.1982159
1.19965
1.2005269
1.2010372
1.2013174
1.2014609
1.2015287
1.2015576
1.2015686
1.2015723
1.2015733
1.2015736
1.2015736
1.2015736
1.2015736
1.2015736
1.2015736
1.2015736
0.7553184
0.76125985
0.76773692
0.77479559
0.78248569
0.79086122
0.79998053
0.80990648
0.82070641
0.83245173
0.84521702
0.8590783
0.87411001
0.89038021
0.90794321
0.92682881
0.94702752
0.96847135
0.99101105
1.0143927
1.0382397
1.0620489
1.0852123
1.1070701
1.1269934
1.1444782
1.1592214
1.1711561
1.1804335
1.1873655
1.1923495
1.1958003
1.1981007
1.1995748
1.2004797
1.2010088
1.201301
1.2014519
1.2015236
1.2015546
1.2015666
1.2015706
1.2015718
1.2015721
1.2015721
1.2015721
1.2015721
1.2015721
1.2015721
1.2015721
0.75509075
0.76101436
0.7674716
0.77450821
0.78217377
0.79052196
0.79961082
0.80950287
0.82026506
0.83196846
0.84468731
0.85849735
0.87347292
0.88968219
0.90718001
0.92599731
0.94612657
0.96750285
0.98998129
1.0133137
1.03713
1.0609341
1.0841232
1.1060401
1.1260538
1.1436533
1.1585253
1.1705913
1.1799924
1.1870333
1.1921079
1.1956305
1.1979853
1.1994991
1.2004319
1.2009799
1.2012843
1.2014425
1.2015185
1.2015516
1.2015645
1.2015689
1.2015702
1.2015705
1.2015706
1.2015706
1.2015706
1.2015706
1.2015706
1.2015706
0.75486858
0.76077479
0.76721269
0.77422779
0.78186941
0.79019094
0.79925011
0.8091091
0.81983452
0.83149705
0.84417061
0.8579307
0.87285151
0.88900135
0.90643555
0.92518611
0.94524739
0.96655742
0.98897553
1.012259
1.0360445
1.0598422
1.083055
1.1050282
1.1251289
1.1428397
1.1578373
1.1700319
1.1795545
1.1867028
1.191867
1.1954607
1.1978696
1.199423
1.2003838
1.2009506
1.2012673
1.201433
1.2015131
1.2015485
1.2015624
1.2015672
1.2015687
1.201569
1.2015691
1.2015691
1.2015691
1.2015691
1.2015691
1.2015691
0.75465165
0.76054088
0.7669599
0.77395401
0.78157227
0.7898678
0.79889801
0.80872476
0.8194143
0.83103697
0.84366637
0.85737772
0.87224511
0.88833694
0.905709
0.92439432
0.94438906
0.96563408
0.98799278
1.0112278
1.034982
1.0587723
1.0820069
1.1040337
1.1242183
1.1420371
1.1571572
1.1694778
1.1791199
1.1863741
1.1916269
1.195291
1.1977537
1.1993466
1.2003352
1.200921
1.2012499
1.2014232
1.2015077
1.2015453
1.2015603
1.2015655
1.2015671
1.2015675
1.2015676
1.2015676
1.2015676
1.2015676
1.2015676
1.2015676
0.75443974
0.76031238
0.76671298
0.77368659
0.78128206
0.7895522
0.79855415
0.80834943
0.81900396
0.83058774
0.84317404
0.85683784
0.87165308
0.88768825
0.9049996
0.92362112
0.9435507
0.96473193
0.98703211
1.0102191
1.0339418
1.0577237
1.0809783
1.1030561
1.1233216
1.1412452
1.1564849
1.1689289
1.1786886
1.1860472
1.1913875
1.1951215
1.1976376
1.1992697
1.2002862
1.2008909
1.2012323
1.2014132
1.2015021
1.201542
1.2015581
1.2015638
1.2015656
1.201566
1.2015661
1.2015661
1.2015661
1.2015661
1.2015661
1.2015661
0.75423264
0.76008908
0.76647167
0.77342528
0.78099847
0.78924384
0.79821819
0.80798274
0.81860309
0.83014889
0.84269312
0.85631048
0.8710748
0.88705463
0.90430663
0.92286574
0.94273149
0.96385009
0.98609264
1.009232
1.0329231
1.0566956
1.0799684
1.1020949
1.1224383
1.1404638
1.1558201
1.1683851
1.1782603
1.185722
1.1911489
1.1949522
1.1975214
1.1991926
1.2002368
1.2008605
1.2012143
1.2014029
1.2014963
1.2015386
1.2015558
1.201562
1.201564
1.2015645
1.2015646
1.2015646
1.2015646
1.2015646
1.2015646
1.2015646
0.75403016
0.75987076
0.76623576
0.77316981
0.78072125
0.7889424
0.79788979
0.80762433
0.8182113
0.82972001
0.84222314
0.85579514
0.8705097
0.88643545
0.90362942
0.92212745
0.94193065
0.96298776
0.98517353
1.0082657
1.031925
1.0556873
1.0789768
1.1011496
1.1215682
1.1396926
1.1551628
1.1678463
1.1778352
1.1853985
1.1909112
1.1947831
1.197405
1.1991151
1.200187
1.2008298
1.201196
1.2013925
1.2014904
1.2015352
1.2015536
1.2015603
1.2015624
1.201563
1.2015631
1.2015631
1.2015631
1.2015631
1.2015631
1.2015631
0.7538321
0.75965722
0.76600503
0.77291996
0.78045013
0.78864761
0.79756865
0.80727387
0.81782821
0.82930069
0.84176366
0.85529133
0.86995726
0.88583012
0.90296734
0.92140556
0.94114745
0.96214417
0.98427401
1.0073194
1.0309468
1.0546981
1.0780026
1.1002197
1.1207109
1.1389314
1.1545128
1.1673125
1.1774132
1.1850768
1.1906742
1.1946143
1.1972885
1.1990373
1.2001369
1.2007987
1.2011775
1.2013818
1.2014844
1.2015316
1.2015513
1.2015585
1.2015608
1.2015615
1.2015616
1.2015616