/*--------------------------------*- C++ -*----------------------------------*\
| =========                 |                                                 |
| \\      /  F ield         | OpenFOAM: The Open Source CFD Toolbox           |
|  \\    /   O peration     | Version:  4.0                                   |
|   \\  /    A nd           | Web:      www.OpenFOAM.org                      |
|    \\/     M anipulation  |                                                 |
\*---------------------------------------------------------------------------*/
FoamFile
{
    version     2.0;
    format      ascii;
    class       surfaceScalarField;
    location    "522";
    object      snGradRho;
}
// * * * * * * * * * * * * * * * * * * * * * * * * * * * * * * * * * * * * * //

dimensions      [1 -4 0 0 0 0 0];

internalField   nonuniform List<scalar> 
9850
(
143.06239
-2.5230638
143.39703
-2.7418413
142.63359
-2.9814225
140.59158
-3.2356348
137.11099
-3.4951562
132.07363
-3.7471759
125.42783
-3.975404
117.21307
-4.1606398
107.57923
-4.2821077
96.793877
-4.3196884
85.231792
-4.2569753
73.34426
-4.0847771
61.611138
-3.8043061
50.484596
-3.4290133
40.337013
-2.9840577
31.424794
-2.5029415
23.874892
-2.0218361
17.693888
-1.57317
12.793512
-1.1804923
9.0237087
-0.85609945
6.2049253
-0.60168727
4.154059
-0.41112372
2.7018323
-0.2739529
1.7019994
-0.17847468
1.0342878
-0.11382873
0.6033986
-0.071038748
0.33608052
-0.043264929
0.17763493
-0.025587969
0.088537667
-0.014599266
0.041266246
-0.0079803663
0.017788535
-0.0041522859
0.0071012127
-0.0020463267
0.0026089168
-0.00096593009
0.0008766294
-0.0004539665
0.00026771336
-0.0002318536
7.3808224e-05
-0.00014434767
1.8214812e-05
-0.00011327322
3.9425677e-06
-0.00010338934
7.0483542e-07
-0.00010058263
4.0381259e-08
-9.9868571e-05
-3.8652142e-08
-9.9699962e-05
-7.9705675e-08
-9.9661323e-05
-2.9870383e-08
-9.9651782e-05
-7.6969476e-08
-9.9651871e-05
-1.2230414e-08
-9.9658244e-05
-8.5032602e-08
-9.9667168e-05
-3.0993598e-08
-9.9694352e-05
-2.4246087e-07
-9.9777621e-05
-1.0139925e-06
-0.00010016711
-0.00010153876
109.84484
-0.89342187
110.33024
-0.96910558
110.73945
-1.0544127
110.99359
-1.1499399
110.98345
-1.2558437
110.56522
-1.3715361
109.55921
-1.4952891
107.75392
-1.6237703
104.91893
-1.7515732
100.8294
-1.8708671
95.304533
-1.9713669
88.25791
-2.0408764
79.751415
-2.0666485
70.035565
-2.0376429
59.553773
-1.9473967
48.893042
-1.7967198
38.683416
-1.5950555
29.475497
-1.359515
21.640995
-1.1114934
15.331352
-0.8719858
10.499795
-0.65741318
6.9643629
-0.47739071
4.4800196
-0.33476879
2.7964507
-0.22726687
1.6928237
-0.14965874
0.99195616
-0.095696146
0.56088761
-0.059403136
0.30467236
-0.035733638
0.15809678
-0.020760451
0.077836876
-0.01159456
0.036077309
-0.0061917227
0.015630274
-0.0031477477
0.0062829288
-0.0015259775
0.0023255975
-0.00071799674
0.00078664017
-0.00034571164
0.00024132402
-0.00018872967
6.6650279e-05
-0.00012874052
1.6445691e-05
-0.00010815131
3.5964171e-06
-0.00010185472
6.610642e-07
-0.00010014968
9.0646192e-08
-9.9740248e-05
-5.0680447e-08
-9.9651314e-05
-3.0118076e-08
-9.9630874e-05
-9.2989953e-08
-9.9623602e-05
-3.2622702e-08
-9.9621031e-05
-1.415004e-07
-9.9621095e-05
-1.8823241e-07
-9.9652183e-05
-9.1103955e-07
-9.9794162e-05
-3.1543462e-06
-0.00010036787
-0.00010180036
98.353598
-0.49126894
98.556218
-0.53231833
98.754362
-0.5786137
98.915435
-0.63070283
98.989321
-0.68905887
98.902641
-0.75397705
98.552581
-0.82541614
97.801461
-0.90277063
96.474228
-0.98456822
94.362334
-1.0681092
91.238574
-1.1491071
86.887514
-1.2214559
81.15344
-1.2773229
74.000908
-1.3078118
65.572113
-1.3043708
56.215185
-1.2608671
46.457586
-1.1758135
36.916953
-1.0538308
28.173321
-0.90544087
20.651252
-0.74492722
14.557093
-0.58700159
9.8863467
-0.44364351
6.4821365
-0.32226751
4.1103508
-0.22554607
2.5233056
-0.15243775
1.4996978
-0.099676239
0.86190492
-0.063125605
0.47777333
-0.038722117
0.25442264
-0.022979034
0.12945156
-0.013158852
0.06251209
-0.0072447753
0.028433144
-0.0038203665
0.012081253
-0.0019276461
0.0047542237
-0.00093870649
0.0017175732
-0.00045575226
0.00056471285
-0.0002379494
0.00016754674
-0.00014831994
4.449516e-05
-0.00011504141
1.0501045e-05
-0.00010400453
2.1682455e-06
-0.00010076043
3.8824943e-07
-9.9914448e-05
1.1498875e-08
-9.9715266e-05
-1.0010664e-08
-9.9663699e-05
-8.6526392e-08
-9.9648305e-05
-3.2768933e-08
-9.9635608e-05
-2.0607917e-07
-9.9642404e-05
-4.5633303e-07
-9.9687263e-05
-1.8958451e-06
-9.990031e-05
-5.3896368e-06
-0.00010053435
-0.00010168382
92.120966
-0.33793046
92.166567
-0.36592901
92.219125
-0.39748286
92.260024
-0.4330141
92.259084
-0.47293575
92.170163
-0.51760376
91.925841
-0.56723834
91.431592
-0.62180266
90.560445
-0.68082699
89.150192
-0.74317231
87.006532
-0.80674415
83.916865
-0.8682025
79.679719
-0.92276952
74.152102
-0.96430396
67.309737
-0.98585124
59.303361
-0.98081728
50.483704
-0.94467976
41.369134
-0.87676351
32.551167
-0.78128354
24.566703
-0.66694294
17.788059
-0.54500626
12.373052
-0.42659782
8.2834777
-0.32036573
5.3480694
-0.23132084
3.3353028
-0.16094202
2.0110436
-0.10809109
1.1722568
-0.070155014
0.65977486
-0.044012179
0.35762456
-0.026668096
0.18595024
-0.015578587
0.092250672
-0.0087501379
0.043374998
-0.0047117375
0.019178195
-0.0024290769
0.0079048073
-0.0012047553
0.0030091856
-0.00058737303
0.0010478864
-0.00029782614
0.00033062655
-0.00017300327
9.3661286e-05
-0.00012412971
2.36381e-05
-0.00010695036
5.282453e-06
-0.00010158677
1.0547831e-06
-0.00010011028
1.6836503e-07
-9.9752239e-05
3.2558543e-08
-9.9669774e-05
-5.4611099e-08
-9.9651244e-05
-4.8296644e-08
-9.9643903e-05
-2.9926335e-07
-9.9663732e-05
-8.5863412e-07
-9.9744135e-05
-2.9842134e-06
-0.00010001767
-7.1833008e-06
-0.00010068018
-0.00010163319
87.869877
-0.2513324
87.81153
-0.27202534
87.761284
-0.29531473
87.707025
-0.32151855
87.628236
-0.35096218
87.492559
-0.3839529
87.251471
-0.42073623
86.835157
-0.4614256
86.147081
-0.50589546
85.059404
-0.5536286
83.411523
-0.60351486
81.01534
-0.6536152
77.672097
-0.70093854
73.205333
-0.74132985
67.510803
-0.76962341
60.615463
-0.78023322
52.725326
-0.76826349
44.233844
-0.7309763
35.669691
-0.66911529
27.58988
-0.58739665
20.456717
-0.49371607
14.549495
-0.39726435
9.9418507
-0.30635392
6.5395779
-0.22685031
4.1486762
-0.1616503
2.5417717
-0.11106925
1.5047288
-0.073688088
0.86028512
-0.047231247
0.47416606
-0.029235357
0.25118416
-0.01745082
0.12732134
-0.01002199
0.061395188
-0.0055227038
0.027964312
-0.0029149562
0.011932341
-0.0014772534
0.0047262538
-0.0007293387
0.0017207801
-0.0003658191
0.00057012905
-0.00020258199
0.00017019038
-0.00013566931
4.5358068e-05
-0.00011093428
1.0717672e-05
-0.00010278452
2.2529165e-06
-0.0001004152
4.1922211e-07
-9.981171e-05
8.3798181e-08
-9.9674593e-05
-3.6158433e-08
-9.9648474e-05
-9.3606721e-08
-9.9648823e-05
-4.6628145e-07
-9.9685613e-05
-1.3751541e-06
-9.980575e-05
-4.1214607e-06
-0.00010013385
-8.6703957e-06
-0.00010080567
-0.00010162037
84.728015
-0.19878268
84.597148
-0.21507092
84.473685
-0.23338423
84.349028
-0.25397523
84.208002
-0.27710828
84.026068
-0.30304382
83.765728
-0.33201071
83.372131
-0.36416056
82.768098
-0.39949663
81.84927
-0.43776897
80.480903
-0.47833
78.498988
-0.51995318
75.71973
-0.5606368
71.962138
-0.59745001
67.087026
-0.62652531
61.050066
-0.64334027
53.956014
-0.64341342
46.089875
-0.62340396
37.898484
-0.58234384
29.912503
-0.52247232
22.63052
-0.44913856
16.412033
-0.36963379
11.422527
-0.29140444
7.6434095
-0.2204239
4.9271163
-0.16031769
3.0647367
-0.11235023
1.8411942
-0.075987267
1.0683307
-0.049641497
0.59801172
-0.031320484
0.32215367
-0.019063057
0.16639447
-0.0111698
0.081981738
-0.0062845337
0.03828172
-0.0033882982
0.016811411
-0.0017522394
0.0068819943
-0.00087793376
0.0026007569
-0.00043988165
0.00089803139
-0.00023626563
0.00028037786
-0.00014947941
7.8360699e-05
-0.00011597474
1.9439561e-05
-0.00010440211
4.2724076e-06
-0.00010086673
8.3632937e-07
-9.9920746e-05
1.5602422e-07
-9.9699622e-05
-3.703613e-08
-9.9658339e-05
-1.7767575e-07
-9.9664695e-05
-7.1583712e-07
-9.9718466e-05
-1.9947201e-06
-9.98728e-05
-5.2746742e-06
-0.00010023882
-9.9416671e-06
-0.00010088764
-0.00010156441
82.254931
-0.16309497
82.069559
-0.17640715
81.890284
-0.19136048
81.710741
-0.20816135
81.519198
-0.22702881
81.296205
-0.24818437
81.011541
-0.27183324
80.620386
-0.29813276
80.058837
-0.32714215
79.239205
-0.35874685
78.046154
-0.39255117
76.335693
-0.42773758
73.940315
-0.46290269
70.684594
-0.4959039
66.415402
-0.52378693
61.04741
-0.54290428
54.616439
-0.5493471
47.321812
-0.53974619
39.531419
-0.51231566
31.730667
-0.46776817
24.422377
-0.4096069
18.014767
-0.34349562
12.744469
-0.275886
8.6610035
-0.21249929
5.6653333
-0.15728257
3.573457
-0.11211053
2.176247
-0.077100732
1.280135
-0.051216811
0.72682705
-0.032869411
0.39755997
-0.020362241
0.20881957
-0.012153951
0.10484572
-0.0069724737
0.050022594
-0.003835576
0.022515001
-0.0020230125
0.0094797268
-0.001030066
0.0036984078
-0.00051869751
0.001323323
-0.00027358016
0.0004296316
-0.00016544952
0.00012522428
-0.00012208017
3.2453943e-05
-0.00010646172
7.4380074e-06
-0.00010147323
1.5089823e-06
-0.00010007653
2.7018456e-07
-9.9738216e-05
-5.3014968e-08
-9.9674514e-05
-3.0054857e-07
-9.9686223e-05
-1.0364282e-06
-9.9757665e-05
-2.6858853e-06
-9.9940489e-05
-6.3884062e-06
-0.00010032973
-1.0997724e-05
-0.00010094042
-0.00010149182
80.23371
-0.13762494
80.005711
-0.14882189
79.782404
-0.16138921
79.558938
-0.17549996
79.325946
-0.1913396
79.067516
-0.20909885
78.758536
-0.22896031
78.361322
-0.25107542
77.821571
-0.27552726
77.063929
-0.30227367
75.987924
-0.3310648
74.465838
-0.36133194
72.345157
-0.39205155
69.459437
-0.42160522
65.651817
-0.44768359
60.813481
-0.46731785
54.933324
-0.47714567
48.144817
-0.47399164
40.746406
-0.4557206
33.17266
-0.42211704
25.912375
-0.37537524
19.399927
-0.31984439
13.924984
-0.26102322
9.5958185
-0.20422204
6.3605289
-0.15346795
4.0632464
-0.11101609
2.5054263
-0.077462528
1.4922443
-0.052210241
0.85826698
-0.034010008
0.47597585
-0.021400105
0.25381706
-0.012986815
0.12960958
-0.0075830398
0.06303012
-0.0042498213
0.028992553
-0.0022839798
0.012512239
-0.001182425
0.0050197837
-0.00060068816
0.001853212
-0.00031392924
0.00062282963
-0.00018342996
0.00018847151
-0.00012925514
5.0817489e-05
-0.00010899575
1.2111847e-05
-0.00010225699
2.538139e-06
-0.00010028849
4.4633723e-07
-9.9792337e-05
-8.2446832e-08
-9.9695767e-05
-4.6380239e-07
-9.9710853e-05
-1.4162009e-06
-9.9799908e-05
-3.4208913e-06
-0.0001000068
-7.4367035e-06
-0.00010040877
-1.1858138e-05
-0.00010097835
-0.00010142424
78.533649
-0.11857462
78.271179
-0.12819497
78.012033
-0.13898512
77.752454
-0.15109305
77.484798
-0.16467848
77.195755
-0.17990768
76.863997
-0.19694349
76.45717
-0.21592792
75.928219
-0.23695364
75.211246
-0.26001971
74.217447
-0.28496659
72.832366
-0.3113864
70.916642
-0.33850966
68.313576
-0.36508087
64.867585
-0.3892568
60.456646
-0.40859089
55.037425
-0.42019385
48.693008
-0.42115513
41.662909
-0.40923174
34.33153
-0.38364741
27.163915
-0.34566948
20.605033
-0.29860602
14.982849
-0.24710237
10.455082
-0.19600192
7.0138612
-0.14927065
4.5326629
-0.10938894
2.8265728
-0.077303962
1.7026523
-0.052770451
0.99078655
-0.034826474
0.55635016
-0.022216571
0.30074505
-0.013681842
0.15592327
-0.008116579
0.077137618
-0.0046267784
0.036178618
-0.0025306531
0.015962049
-0.0013318517
0.0065656405
-0.00068410494
0.0024927173
-0.00035653626
0.00086416294
-0.00020316074
0.00027051231
-0.00013745269
7.5624098e-05
-0.0001120178
1.8699146e-05
-0.0001032361
4.0474249e-06
-0.00010056752
7.1338176e-07
-9.9867513e-05
-1.203697e-07
-9.9724909e-05
-6.6730427e-07
-9.9739935e-05
-1.8459687e-06
-9.9844696e-05
-4.1799401e-06
-0.00010007063
-8.4144237e-06
-0.00010047554
-1.2553914e-05
-0.00010100132
-0.00010135358
77.072968
-0.10385078
76.781931
-0.1122562
76.49294
-0.12167777
76.203058
-0.13224409
75.905948
-0.1440947
75.590287
-0.15737618
75.237654
-0.17223453
74.819822
-0.18880161
74.295395
-0.20717257
73.605938
-0.22737065
72.672019
-0.24929465
71.390124
-0.27264527
69.632287
-0.29682974
67.251306
-0.3208523
64.095342
-0.34321469
60.03536
-0.36187519
55.005697
-0.37434114
49.050748
-0.37797606
42.360696
-0.37055387
35.273117
-0.35096601
28.224618
-0.31982219
21.66022
-0.27961177
15.934545
-0.23423936
11.246239
-0.18807748
7.627639
-0.14495014
4.9815338
-0.10745693
3.1385782
-0.076801324
1.9100978
-0.053020699
1.1233061
-0.035396664
0.6378846
-0.02285514
0.34907544
-0.014259404
0.18347309
-0.0085798915
0.092180073
-0.0049666871
0.043999077
-0.0027610607
0.019803311
-0.0014763216
0.008331494
-0.00076759033
0.0032443266
-0.00040070473
0.0011568735
-0.00022436983
0.0003735114
-0.00014660381
0.00010795114
-0.00011552807
2.7629149e-05
-0.00010442214
6.1768365e-06
-0.00010092087
1.1077201e-06
-9.9966496e-05
-1.5814127e-07
-9.9762417e-05
-9.066934e-07
-9.9773091e-05
-2.315293e-06
-9.9890646e-05
-4.944539e-06
-0.00010013041
-9.316961e-06
-0.00010052999
-1.3103579e-05
-0.00010100954
-0.00010127619
75.796752
-0.092160726
75.481574
-0.099604038
75.167262
-0.10794248
74.851516
-0.11728928
74.529023
-0.12776782
74.190023
-0.13950862
73.8184
-0.15264341
73.38921
-0.16729421
72.865592
-0.1835552
72.195149
-0.20146402
71.306123
-0.22095854
70.104149
-0.2418154
68.471125
-0.2635689
66.268721
-0.28541463
63.350004
-0.30611545
59.582739
-0.32394729
54.885724
-0.336747
49.273438
-0.34213658
42.894935
-0.33796957
36.045266
-0.32294849
29.13087
-0.29721504
22.589793
-0.26261527
16.794264
-0.22242025
11.976382
-0.18055303
8.2046577
-0.14065164
5.4104078
-0.10536211
3.4410088
-0.076073011
2.1138445
-0.053049644
1.2551071
-0.035780962
0.72000186
-0.023352901
0.39839801
-0.014739445
0.21199709
-0.0089817115
0.10800834
-0.0052719748
0.052380157
-0.002974805
0.024006223
-0.0016146725
0.010309297
-0.00085015121
0.0041084471
-0.00044584821
0.0015032989
-0.00024679929
0.00049935326
-0.00015663146
0.0001488341
-0.00011952023
3.9345616e-05
-0.00010582446
9.0800256e-06
-0.00010135555
1.6720566e-06
-0.00010009205
-1.8497539e-07
-9.9808501e-05
-1.1753195e-06
-9.9809528e-05
-2.8133444e-06
-9.9936531e-05
-5.6990804e-06
-0.00010018535
-1.0140137e-05
-0.00010057376
-1.3519663e-05
-0.00010100655
-0.00010119623
74.666615
-0.082675146
74.330709
-0.089339566
73.994588
-0.096801618
73.656457
-0.10516211
73.311823
-0.11453123
72.95219
-0.12502624
72.563308
-0.13676667
72.122909
-0.14986549
71.597844
-0.16441418
70.940696
-0.18045891
70.086101
-0.19796441
68.947437
-0.21676204
67.415182
-0.23647998
65.359145
-0.25645834
62.637764
-0.27566164
59.118
-0.2926184
54.707838
-0.30543929
49.398462
-0.31198067
43.304619
-0.31020506
36.683275
-0.298717
29.91067
-0.27732465
23.413293
-0.24736736
17.573999
-0.21157814
12.651909
-0.17346333
8.747762
-0.13645355
5.8201643
-0.10319134
3.7338089
-0.075196454
2.3134831
-0.052918252
1.3857156
-0.036022938
0.80228841
-0.023738115
0.44839987
-0.015138261
0.24128316
-0.0093299608
0.12449356
-0.0055454287
0.061253071
-0.0031720695
0.02853998
-0.0017461559
0.012488809
-0.00093099167
0.0050838766
-0.00049143669
0.0019049708
-0.0002701894
0.00064963597
-0.00016744548
0.00019925075
-0.00012397929
5.4300139e-05
-0.00010744923
1.2923567e-05
-0.00010187827
2.4561508e-06
-0.0001002475
-1.8755937e-07
-9.9864044e-05
-1.4655331e-06
-9.984897e-05
-3.3301985e-06
-9.9981725e-05
-6.4325326e-06
-0.00010023519
-1.0883038e-05
-0.00010060829
-1.3815655e-05
-0.00010099488
-0.00010111546
73.654739
-0.0748383
73.300803
-0.080860524
72.945659
-0.087600362
72.587924
-0.095148388
72.223778
-0.10360387
71.845762
-0.11307296
71.44117
-0.12366475
70.989951
-0.135484
70.462053
-0.14861865
69.814233
-0.1631198
68.986533
-0.17897106
67.898964
-0.19604411
66.449502
-0.21403816
64.515368
-0.23240472
61.960476
-0.25026692
58.652491
-0.26635677
54.491935
-0.27901349
49.451736
-0.28630204
43.617945
-0.28630526
37.213656
-0.2775877
30.585839
-0.25972013
24.146529
-0.23364169
18.28385
-0.20162943
13.278482
-0.16680969
9.259666
-0.13239823
6.2118146
-0.10099994
4.0171324
-0.074224654
2.5088052
-0.052670406
1.5148189
-0.036155434
0.88444501
-0.024033195
0.49884088
-0.015469613
0.2711597
-0.0096319759
0.14152553
-0.005790146
0.070555112
-0.0033535621
0.033374059
-0.0018704365
0.014858357
-0.0010095416
0.0061680881
-0.00053702596
0.0023626656
-0.0002942962
0.0008256532
-0.00017894943
0.00026010093
-0.00012888303
7.2942539e-05
-0.00010929902
1.7884308e-05
-0.00010249458
3.5165211e-06
-0.00010043595
-1.4966537e-07
-9.992993e-05
-1.7688947e-06
-9.9891152e-05
-3.8567011e-06
-0.0001000257
-7.1370686e-06
-0.00010027975
-1.1546641e-05
-0.00010063447
-1.4003811e-05
-0.00010097579
-0.00010103353
72.74037
-0.06826474
72.370576
-0.073749282
71.998664
-0.079884725
71.62359
-0.086753095
71.242093
-0.094444494
70.847582
-0.10305565
70.428648
-0.11268667
69.967109
-0.12343491
69.435531
-0.13538446
68.794219
-0.14858905
67.987845
-0.16304577
66.942155
-0.17865663
65.561729
-0.1951756
63.730518
-0.21214167
61.317815
-0.22880465
58.192944
-0.2440625
54.251372
-0.25644634
49.451639
-0.2642054
43.855707
-0.26554437
37.656647
-0.25902482
31.173588
-0.24404952
24.802384
-0.22124039
18.932333
-0.19248831
13.861066
-0.16057642
9.7428843
-0.12850668
6.5864026
-0.09882318
4.2912489
-0.073194331
2.6997303
-0.052338066
1.6422135
-0.036203389
0.9662551
-0.024255923
0.54953665
-0.015745037
0.30148856
-0.0098943845
0.15901122
-0.0060093045
0.080230379
-0.0035203422
0.038479329
-0.0019875138
0.017405589
-0.0010854442
0.0073575734
-0.00058227029
0.0028765024
-0.00031890522
0.0010283981
-0.0001910485
0.00033219328
-0.00013420502
9.5712566e-05
-0.00011137357
2.4146624e-05
-0.00010320909
4.915795e-06
-0.00010066027
-5.218758e-08
-0.00010000703
-2.0763429e-06
-9.9935853e-05
-4.3844394e-06
-0.00010006802
-7.8068946e-06
-0.00010031908
-1.2132538e-05
-0.00010065325
-1.4093912e-05
-0.00010095058
-0.00010095113
71.907638
-0.062678887
71.523767
-0.067707302
71.13694
-0.073330245
70.746399
-0.079622511
70.349352
-0.086666414
69.939947
-0.094550617
69.507877
-0.10336741
69.036555
-0.11320755
68.500791
-0.12415117
67.863942
-0.13625318
67.074687
-0.14952039
66.063782
-0.16387801
64.741652
-0.17912297
62.998361
-0.19486401
60.708385
-0.21045353
57.743305
-0.22492639
53.995279
-0.23697593
49.411466
-0.2450136
44.033521
-0.24736234
38.027929
-0.2426042
31.687654
-0.2300245
25.391446
-0.2099929
19.526661
-0.18407293
14.404004
-0.15473947
10.199712
-0.1247868
6.9449519
-0.096683053
4.5564889
-0.072130805
2.886259
-0.051944376
1.7677714
-0.036185516
1.0475618
-0.024420087
0.60034545
-0.015973816
0.33215886
-0.010122789
0.1768728
-0.0062057962
0.090229885
-0.0036735415
0.043828774
-0.0020975574
0.020118094
-0.0011584814
0.008648181
-0.00062689819
0.0034460676
-0.0003438277
0.001258587
-0.00020365052
0.00041624003
-0.00013991552
0.00012303378
-0.00011367009
3.1900044e-05
-0.00010402544
6.7221804e-06
-0.00010092328
1.2674451e-07
-0.00010009637
-2.3783568e-06
-9.9983053e-05
-4.9059499e-06
-0.00010010849
-8.4379266e-06
-0.00010035342
-1.2642913e-05
-0.00010066564
-1.4094779e-05
-0.00010092058
-0.00010086948
71.144161
-0.057878882
70.747693
-0.062515942
70.347496
-0.067699341
69.943053
-0.073497687
69.531977
-0.079986609
69.109045
-0.0872478
68.664901
-0.095366729
68.184336
-0.10442819
67.644101
-0.11450851
67.010209
-0.12566277
66.234838
-0.13790488
65.253153
-0.15117803
63.980788
-0.16531334
62.313371
-0.17997593
60.13031
-0.19460235
57.305803
-0.20834149
53.72999
-0.22002479
49.340996
-0.22820651
44.163295
-0.23132165
38.339818
-0.22798732
32.139121
-0.21740844
25.922485
-0.19975357
20.072967
-0.17630826
14.9111
-0.14927142
10.632227
-0.1212388
7.2884395
-0.094592825
4.8132102
-0.071051499
3.0684429
-0.051506148
1.8914162
-0.036115891
1.1282512
-0.024536384
0.6511575
-0.016163381
0.36308109
-0.010321862
0.19504506
-0.0063821746
0.10051092
-0.0038142657
0.049397674
-0.002200826
0.022983746
-0.0012285294
0.010035354
-0.00067069635
0.0040705168
-0.0003688976
0.0015166832
-0.00021666671
0.00051285428
-0.00014598224
0.00015530815
-0.00011618339
4.1336731e-05
-0.0001049463
9.0088111e-06
-0.00010122758
4.1160726e-07
-0.00010019905
-2.6650057e-06
-0.0001000329
-5.4147276e-06
-0.00010014709
-9.0274922e-06
-0.00010038314
-1.3080537e-05
-0.00010067253
-1.4015039e-05
-0.0001008869
-0.00010078942
70.440105
-0.053713725
70.032284
-0.058011671
69.620021
-0.062814343
69.203002
-0.068185005
68.77919
-0.074193492
68.343911
-0.08091543
67.888631
-0.088430278
67.399346
-0.09681749
66.854502
-0.10614972
66.222441
-0.11648161
65.458424
-0.12783224
64.501528
-0.14015896
63.272052
-0.15332039
61.670699
-0.16702781
59.58154
-0.18078753
56.8816
-0.19384436
53.459947
-0.20514803
49.247531
-0.21337876
44.254235
-0.21707621
38.6021
-0.21490135
32.537022
-0.20600598
26.402823
-0.19039814
20.576502
-0.16912682
15.385691
-0.14414432
11.042308
-0.11785844
7.6177842
-0.092560219
5.0617786
-0.069968567
3.2463655
-0.051035848
2.0131072
-0.036005314
1.2082406
-0.024613252
0.70188699
-0.016319769
0.39418248
-0.010495514
0.21347318
-0.0065406763
0.1110363
-0.0039435612
0.055163578
-0.0022976343
0.025990906
-0.0012955386
0.011514304
-0.00071350242
0.0047486619
-0.00039397228
0.0018029215
-0.00023001372
0.0006225493
-0.00015237149
0.00019291139
-0.00011890627
5.2648951e-05
-0.00010597329
1.1852988e-05
-0.00010157554
8.2928845e-07
-0.00010031621
-2.9259421e-06
-0.00010008564
-5.9050803e-06
-0.00010018386
-9.5739446e-06
-0.00010040862
-1.3448516e-05
-0.0001006747
-1.3862936e-05
-0.00010085042
-0.00010071163
69.787537
-0.050068274
69.369423
-0.054069808
68.946203
-0.058539813
68.517744
-0.063536898
68.08231
-0.069125838
67.635705
-0.075376929
67.170122
-0.082364316
66.672612
-0.090162638
66.123118
-0.098841068
65.492039
-0.10845341
64.737373
-0.11902253
63.801687
-0.13051698
62.609486
-0.14281782
61.066108
-0.1556745
59.060024
-0.16865172
56.471179
-0.18107566
53.188287
-0.19199805
49.136596
-0.20021042
44.313552
-0.20434947
38.822643
-0.2031249
32.888787
-0.19565556
26.838622
-0.18182124
21.041776
-0.16246924
15.830709
-0.13933155
11.431646
-0.11463938
7.9338429
-0.090589604
5.3025558
-0.068890754
3.4201294
-0.050542946
2.1328283
-0.035862226
1.2874703
-0.024657429
0.75246655
-0.016447909
0.42540347
-0.010647045
0.23211089
-0.0066832664
0.12177361
-0.0040624101
0.061106196
-0.0023883244
0.02912854
-0.0013595119
0.013080146
-0.00075519568
0.0054790504
-0.00041892967
0.0021173353
-0.00024361406
0.0007457409
-0.00015904904
0.00023618968
-0.00012182984
6.6026765e-05
-0.00010710709
1.5335389e-05
-0.00010196926
1.4089002e-06
-0.00010044903
-3.1503822e-06
-0.00010014165
-6.3719811e-06
-0.00010021898
-1.0076384e-05
-0.00010043029
-1.3750156e-05
-0.00010067288
-1.3646361e-05
-0.00010081198
-0.00010063684
69.179974
-0.046853288
68.752477
-0.05059373
68.319256
-0.054770806
67.880335
-0.059439037
67.434243
-0.064658745
66.977208
-0.07049552
66.502062
-0.077018772
65.996792
-0.084298794
65.44267
-0.092401486
64.811926
-0.10137955
64.065004
-0.11125861
63.147607
-0.12201619
61.988041
-0.1335518
60.4959
-0.14564676
58.563786
-0.15791511
56.074603
-0.16975256
52.917232
-0.18029933
49.012411
-0.18844562
44.346951
-0.19291759
39.007831
-0.19247599
33.200581
-0.18622179
27.235099
-0.17393232
21.472693
-0.15628251
16.248745
-0.13480762
11.801771
-0.11157369
8.2374113
-0.088682563
5.5358944
-0.067823871
3.5898493
-0.050034392
2.2505813
-0.03569313
1.365898
-0.024674263
0.80284297
-0.016551813
0.45669504
-0.010779203
0.25091898
-0.0068116298
0.13269462
-0.0041716916
0.06720725
-0.0024732368
0.032386282
-0.0014204845
0.014728001
-0.00079568608
0.0062600313
-0.00044366525
0.0024597831
-0.00025739593
0.0008827516
-0.00016598048
0.00028545714
-0.00012494378
8.1655897e-05
-0.00010834747
1.9539254e-05
-0.00010241057
2.1815827e-06
-0.00010059872
-3.3270786e-06
-0.00010020142
-6.810928e-06
-0.00010025271
-1.0534477e-05
-0.00010044858
-1.3988921e-05
-0.00010066773
-1.337308e-05
-0.00010077228
-0.00010056573
68.612053
-0.043998605
68.17596
-0.04750748
67.733568
-0.051424834
67.285036
-0.055801576
66.829129
-0.060694082
66.362451
-0.066163758
65.878403
-0.07227578
65.365807
-0.079096498
64.807121
-0.086688749
64.176218
-0.095103984
63.435739
-0.10436978
62.534216
-0.11447092
61.403416
-0.12532225
59.956839
-0.13673188
58.090975
-0.14835589
55.691665
-0.15964982
52.648358
-0.1698311
48.878237
-0.17787768
44.358995
-0.182598
39.162891
-0.18280445
33.477558
-0.17759126
27.596701
-0.16665405
21.872641
-0.15052025
16.642094
-0.13054922
12.154065
-0.10865312
8.5292257
-0.086839402
5.7621325
-0.066772163
3.7556447
-0.049515621
2.3663804
-0.035503205
1.4434938
-0.024668079
0.85297403
-0.016634773
0.48801656
-0.01089428
0.26986401
-0.0069272108
0.1437746
-0.0042721897
0.073450272
-0.0025526971
0.035754438
-0.0014785117
0.016453062
-0.00083490763
0.0070898078
-0.00046808978
0.0028299719
-0.00027129312
0.0010338152
-0.00017313166
0.00034099417
-0.00012823654
9.9715791e-05
-0.0001096933
2.4549524e-05
-0.00010290097
3.1802962e-06
-0.00010076647
-3.444289e-06
-0.0001002655
-7.2177932e-06
-0.00010028539
-1.0948295e-05
-0.00010046394
-1.4168392e-05
-0.00010065983
-1.305078e-05
-0.00010073196
-0.00010049883
68.079292
-0.041448334
67.63529
-0.044750557
67.18445
-0.048436201
66.727053
-0.052552962
66.262074
-0.057153703
65.786449
-0.062296088
65.294092
-0.068041486
64.774571
-0.074452666
64.211415
-0.081589601
63.579973
-0.089502394
62.844873
-0.098220004
61.957212
-0.10773311
60.851916
-0.11796935
59.44609
-0.12875963
57.639872
-0.13979604
55.321997
-0.15058597
52.382776
-0.16041456
48.736612
-0.16833802
44.353365
-0.17324037
39.292142
-0.17398513
33.724058
-0.1696681
27.927245
-0.15991995
22.244582
-0.14514152
17.012794
-0.12653497
12.489777
-0.10586929
8.8099677
-0.085059259
5.9815929
-0.065738419
3.9176385
-0.048990729
2.4802486
-0.035296592
1.5202381
-0.024642454
0.90282617
-0.016699572
0.51933411
-0.010994269
0.28891728
-0.007031291
0.15499182
-0.0043646218
0.079820396
-0.0026270212
0.039223972
-0.0015336651
0.018250635
-0.00087281446
0.0079664807
-0.00049212739
0.0032274788
-0.00028524509
0.0011990824
-0.00018046914
0.00040304636
-0.00013169569
0.00012037788
-0.00011114263
3.0451999e-05
-0.00010344163
4.4396074e-06
-0.00010095345
-3.4897377e-06
-0.00010033452
-7.5886865e-06
-0.00010031739
-1.1318191e-05
-0.0001004768
-1.429222e-05
-0.0001006497
-1.2686994e-05
-0.00010069157
-0.00010043655
67.577907
-0.039157432
67.126601
-0.042274207
66.667951
-0.045751975
66.202346
-0.049635559
65.728949
-0.053974672
65.244998
-0.058823619
64.744864
-0.06424033
64.218793
-0.070284308
63.651276
-0.077012853
63.019003
-0.084474679
62.288403
-0.092699682
61.412915
-0.10168335
60.330353
-0.11136411
58.961159
-0.12159233
57.208901
-0.13209119
54.965135
-0.14241328
52.121257
-0.1519034
48.589526
-0.15968781
44.333052
-0.16471993
39.399174
-0.16591315
33.943759
-0.16237094
28.23002
-0.15367263
22.59111
-0.14011034
17.362662
-0.12274545
12.810042
-0.10321412
9.0802676
-0.083340738
6.194582
-0.064724634
4.0759527
-0.048462975
2.5922147
-0.035076664
1.5961184
-0.024600331
0.95237271
-0.016748534
0.55061937
-0.011080847
0.30805414
-0.0071249793
0.16632718
-0.0044496337
0.086304206
-0.0026965134
0.042786478
-0.0015860272
0.020116173
-0.00090937717
0.0088880822
-0.00051571416
0.0036517711
-0.00029919666
0.0013786264
-0.00018796047
0.00047182408
-0.00013530803
0.00014380409
-0.00011269277
3.733251e-05
-0.00010403342
5.9954624e-06
-0.00010116079
-3.4505861e-06
-0.00010040913
-7.9198287e-06
-0.0001003491
-1.1644691e-05
-0.00010048757
-1.4364092e-05
-0.00010063782
-1.2289054e-05
-0.00010065157
-0.0001003792
67.10468
-0.037089212
66.646602
-0.040038722
66.180706
-0.043329049
65.707478
-0.04700243
65.226246
-0.051105746
64.734523
-0.055690265
64.227094
-0.060810803
63.694817
-0.066523871
63.12306
-0.07288428
62.489732
-0.079939336
61.762903
-0.087719534
60.898154
-0.096224302
59.835959
-0.10540121
58.499848
-0.11511738
56.796615
-0.12512299
54.620563
-0.13501022
51.864327
-0.14417669
48.438546
-0.15181158
44.300508
-0.15693201
39.486996
-0.15849963
34.139799
-0.15563001
28.507879
-0.14786222
22.914514
-0.13539482
17.693326
-0.11916305
13.115893
-0.1006798
9.3407081
-0.081681995
6.40139
-0.063732029
4.2307082
-0.047934824
2.7023122
-0.034846107
1.6711287
-0.024544141
1.0015926
-0.016783627
0.58184849
-0.011155467
0.32725326
-0.0072092492
0.17776377
-0.0045278014
0.092889601
-0.0027614543
0.046434155
-0.0016356869
0.022045299
-0.00094457988
0.0098526057
-0.00053879722
0.0041022244
-0.00031309808
0.0015724497
-0.00019557443
0.00054750264
-0.0001390599
0.0001701456
-0.00011434038
4.5276121e-05
-0.00010467683
7.8849501e-06
-0.00010138954
-3.3134108e-06
-0.00010049005
-8.2074481e-06
-0.00010038099
-1.1928417e-05
-0.00010049664
-1.4387697e-05
-0.00010062459
-1.1864036e-05
-0.00010061236
-0.00010032696
66.656848
-0.035213508
66.192474
-0.038011461
65.719835
-0.04113199
65.239501
-0.044615002
64.750957
-0.04850481
64.251959
-0.052849938
63.737671
-0.05770236
63.199509
-0.063115849
62.62364
-0.069142887
61.989083
-0.075829387
61.265417
-0.083206178
60.410184
-0.091275936
59.366315
-0.099994037
58.06021
-0.10924206
56.401699
-0.11879379
54.287742
-0.12827627
51.612332
-0.13713408
48.284916
-0.14461304
44.257753
-0.14978886
39.558143
-0.15166942
34.314867
-0.14938567
28.763306
-0.14244548
23.216815
-0.1309668
18.006246
-0.11577176
13.408268
-0.098258984
9.5918293
-0.080080997
6.6022912
-0.062761368
4.3820233
-0.047408246
2.8105773
-0.03460718
1.7452668
-0.024475941
1.0504692
-0.016806537
0.61300143
-0.011219396
0.34649617
-0.0072849727
0.18928665
-0.004599659
0.099565616
-0.002822117
0.050159768
-0.0016827395
0.024033818
-0.00097841819
0.010858031
-0.00056133294
0.0045781389
-0.00032690461
0.0017804901
-0.0002032813
0.00063022282
-0.00014293737
0.00019954184
-0.0001160815
5.4366389e-05
-0.00010537204
1.0146056e-05
-0.00010164067
-3.0641944e-06
-0.00010057798
-8.4476887e-06
-0.00010041349
-1.2170021e-05
-0.0001005044
-1.4366708e-05
-0.00010061037
-1.1418685e-05
-0.00010057427
-0.00010027989
66.232028
-0.033505314
65.761781
-0.036165361
65.282847
-0.039131426
64.795875
-0.042441298
64.300487
-0.046136964
63.794663
-0.050264444