/*--------------------------------*- C++ -*----------------------------------*\
| =========                 |                                                 |
| \\      /  F ield         | OpenFOAM: The Open Source CFD Toolbox           |
|  \\    /   O peration     | Version:  4.0                                   |
|   \\  /    A nd           | Web:      www.OpenFOAM.org                      |
|    \\/     M anipulation  |                                                 |
\*---------------------------------------------------------------------------*/
FoamFile
{
    version     2.0;
    format      ascii;
    class       surfaceScalarField;
    location    "2000";
    object      snGradRho;
}
// * * * * * * * * * * * * * * * * * * * * * * * * * * * * * * * * * * * * * //

dimensions      [1 -4 0 0 0 0 0];

internalField   nonuniform List<scalar> 
9850
(
160.50887
-3.0606511
161.07181
-3.3318497
160.03371
-3.6289588
157.14963
-3.9430291
152.22084
-4.2608074
145.13138
-4.5644362
135.88723
-4.8317289
124.65011
-5.0372961
111.75518
-5.1547384
97.702239
-5.1599289
83.114581
-5.0350898
68.668667
-4.772964
55.008274
-4.3800383
42.663378
-3.8776791
31.993387
-3.3003403
23.166026
-2.6907257
16.171784
-2.0998967
10.863204
-1.5660494
7.0052091
-1.114445
4.32384
-0.7557351
2.5454434
-0.48761874
1.4233326
-0.29877575
0.75243055
-0.17339549
0.37411136
-0.094995619
0.17397209
-0.04893072
0.075214461
-0.023590092
0.030040411
-0.010601696
0.011009919
-0.0044350418
0.0036769837
-0.0017408255
0.0011108761
-0.00066535274
0.00030132271
-0.00027604505
7.2800808e-05
-0.00014922468
1.5518267e-05
-0.00011232414
2.8662014e-06
-0.00010279542
4.2567051e-07
-0.00010061495
2.1664423e-08
-0.00010016267
-3.1285589e-08
-0.00010006582
-3.6424217e-08
-0.00010003266
-2.9404796e-08
-0.00010000982
-2.4326798e-08
-9.9991589e-05
-1.8774662e-08
-9.9976453e-05
-1.5241878e-08
-9.9964073e-05
-1.1203778e-08
-9.9953989e-05
-9.0128534e-09
-9.9946007e-05
-6.1958829e-09
-9.9939668e-05
-4.9370686e-09
-9.993485e-05
-3.0078231e-09
-9.9931128e-05
-2.2616844e-09
-9.992853e-05
-1.2497675e-09
-9.9926671e-05
-9.9926085e-05
119.33211
-1.150752
120.06504
-1.2494092
120.62964
-1.3605078
120.90754
-1.4843144
120.74285
-1.6202525
119.9415
-1.7664457
118.27687
-1.9191781
115.50446
-2.0723496
111.38775
-2.2170695
105.73552
-2.3416097
98.44764
-2.4319866
89.561939
-2.4734101
79.290473
-2.4526671
68.031152
-2.3611748
56.342635
-2.1980106
44.618179
-1.971921
33.791769
-1.6942455
24.412805
-1.3895106
16.788657
-1.0850542
10.971251
-0.80517419
6.8015358
-0.5668207
3.9920759
-0.3778844
2.2125506
-0.23806186
1.1539868
-0.14132018
0.56396321
-0.078762666
0.25692298
-0.041033408
0.10846496
-0.01988792
0.042157026
-0.0089304271
0.014979305
-0.0037124521
0.0048300319
-0.001444732
0.0014026684
-0.00055195674
0.00036410771
-0.00023602577
8.3899343e-05
-0.00013632279
1.709062e-05
-0.00010848463
3.1077859e-06
-0.00010166302
5.4376366e-07
-0.00010020898
1.311981e-07
-9.9943187e-05
6.5345306e-08
-9.9904297e-05
4.4408298e-08
-9.9901905e-05
3.1391037e-08
-9.9903289e-05
2.2653424e-08
-9.9904161e-05
1.5434563e-08
-9.9904215e-05
1.0868689e-08
-9.9903668e-05
6.9218896e-09
-9.9902733e-05
4.8139047e-09
-9.9901641e-05
2.794219e-09
-9.9900523e-05
1.8981845e-09
-9.9899512e-05
9.2993657e-10
-9.9898642e-05
-3.3558122e-10
-9.9898058e-05
-9.9897871e-05
104.35275
-0.60914526
104.7313
-0.66048892
105.09655
-0.71848883
105.40402
-0.78379122
105.58662
-0.85690272
105.54787
-0.93803517
105.1551
-1.0268745
104.23461
-1.1222604
102.57167
-1.2217819
99.919846
-1.3213302
96.024573
-1.4147155
90.664918
-1.4935373
83.712876
-1.5475703
75.200448
-1.5659295
65.373111
-1.5390999
54.700179
-1.4615199
43.849749
-1.3338512
33.547487
-1.1646359
24.4221
-0.96929669
16.88075
-0.76683898
11.059731
-0.57548202
6.8567071
-0.40895184
4.0142686
-0.27465802
2.2130812
-0.17390632
1.1446148
-0.10346758
0.55274976
-0.057600823
0.24781709
-0.029856313
0.10248063
-0.014334764
0.038811151
-0.0063504929
0.013358942
-0.0026000642
0.0041463066
-0.0010035769
0.001151201
-0.00039263576
0.00028367471
-0.00018418032
6.1591833e-05
-0.00012128165
1.1730564e-05
-0.00010463262
1.9765702e-06
-0.00010079687
3.2177825e-07
-0.00010003376
7.5999653e-08
-9.9904613e-05
3.8803385e-08
-9.9887634e-05
2.8182576e-08
-9.9887683e-05
2.2472668e-08
-9.9889994e-05
1.7097529e-08
-9.9892516e-05
1.3456028e-08
-9.9894869e-05
9.6665029e-09
-9.9896929e-05
7.3691183e-09
-9.989864e-05
4.8946034e-09
-9.9899976e-05
3.5400147e-09
-9.9901008e-05
1.9318348e-09
-9.990165e-05
-4.3633874e-11
-9.9902263e-05
-9.9902708e-05
96.557109
-0.40010251
96.726201
-0.43347749
96.903544
-0.47114814
97.065771
-0.51361319
97.175413
-0.56134954
97.175586
-0.61474759
96.983663
-0.67400623
96.484515
-0.73897257
95.524741
-0.8089123
93.910585
-0.88220681
91.413892
-0.95599777
87.791786
-1.025849
82.825463
-1.0855688
76.379317
-1.1274141
68.471813
-1.1429259
59.335647
-1.1245294
49.43481
-1.0677039
39.408299
-0.97307789
29.943928
-0.84740956
21.625065
-0.70267348
14.812944
-0.55335672
9.608068
-0.41304782
5.8906692
-0.29171155
3.4056041
-0.19449849
1.8505021
-0.12206648
0.94089729
-0.071823398
0.4452127
-0.039425116
0.19478462
-0.020076597
0.078225028
-0.0094343019
0.028610593
-0.0040803607
0.009451901
-0.0016360714
0.0027968273
-0.00063185367
0.00073505537
-0.00026376673
0.00017020286
-0.00014443154
3.4477346e-05
-0.0001104991
6.0903304e-06
-0.00010210443
9.5464057e-07
-0.00010031013
1.5163293e-07
-9.9979863e-05
3.8608624e-08
-9.9926632e-05
1.9675594e-08
-9.9917948e-05
1.4033231e-08
-9.9915522e-05
9.9383977e-09
-9.991412e-05
7.7605425e-09
-9.9913127e-05
5.3636765e-09
-9.9912441e-05
4.3176036e-09
-9.9912036e-05
2.7505238e-09
-9.9911767e-05
2.3278735e-09
-9.9911727e-05
8.7858258e-10
-9.9911593e-05
-7.3717917e-10
-9.9911747e-05
-9.9911995e-05
91.489701
-0.29328891
91.526928
-0.31757556
91.575769
-0.34495415
91.621518
-0.37580441
91.6395
-0.41051171
91.591002
-0.44943372
91.418181
-0.49284377
91.038059
-0.54084011
90.336294
-0.59320878
89.162206
-0.64922938
87.327941
-0.70742205
84.616268
-0.76525752
80.802816
-0.81889643
75.697742
-0.8630898
69.206608
-0.89143857
61.398897
-0.89721812
52.558006
-0.8748372
43.178758
-0.82166981
33.891457
-0.73958235
25.327076
-0.63530773
17.975188
-0.51920794
12.09396
-0.40280157
7.7011663
-0.29611096
4.6318729
-0.2058686
2.6237408
-0.13500871
1.3941514
-0.083211204
0.69127787
-0.047969401
0.31781733
-0.025716397
0.13449048
-0.012743239
0.051961512
-0.005808713
0.018172826
-0.0024375917
0.0057026455
-0.00096022622
0.0015914422
-0.00038187509
0.00039156336
-0.00018146988
8.4259322e-05
-0.00012055149
1.5763052e-05
-0.0001044459
2.5730886e-06
-0.0001007723
3.8876447e-07
-0.00010005461
7.3775269e-08
-9.9935163e-05
2.8603911e-08
-9.9918008e-05
1.872364e-08
-9.9915454e-05
1.2960287e-08
-9.9914569e-05
9.6578505e-09
-9.9913813e-05
6.3809152e-09
-9.9913027e-05
4.9327707e-09
-9.9912341e-05
2.8347778e-09
-9.9911623e-05
2.5808175e-09
-9.9911167e-05
6.1281745e-10
-9.9910629e-05
-1.124271e-09
-9.9910453e-05
-9.9910494e-05
87.802199
-0.22867056
87.748158
-0.24750109
87.705214
-0.26870365
87.663208
-0.29257611
87.604354
-0.31942936
87.500004
-0.34956781
87.306471
-0.38325499
86.959925
-0.4206567
86.37065
-0.46175235
85.417562
-0.50620453
83.944853
-0.55317971
81.764094
-0.60112477
78.666671
-0.64752956
74.452122
-0.68875073
68.975762
-0.72003122
62.211517
-0.73589395
54.312831
-0.73105385
45.641648
-0.70180609
36.735441
-0.64751362
28.205539
-0.57151854
20.598724
-0.48085487
14.279796
-0.38468297
9.381841
-0.2920765
5.8315257
-0.21010782
3.4209021
-0.1428782
1.8871866
-0.091549964
0.97428088
-0.055025521
0.4677965
-0.030846711
0.20736657
-0.016024694
0.084166694
-0.0076677275
0.031002706
-0.0033699803
0.010268369
-0.001372584
0.0030296131
-0.00054175163
0.00078896845
-0.00023544447
0.00017976852
-0.00013630319
3.5566653e-05
-0.00010838788
6.090093e-06
-0.00010160819
9.2087454e-07
-0.00010019897
1.4324799e-07
-9.9950003e-05
3.8005496e-08
-9.9912817e-05
2.1685443e-08
-9.9908147e-05
1.5257954e-08
-9.9907662e-05
1.1833348e-08
-9.9907666e-05
8.1036384e-09
-9.9907623e-05
6.5732842e-09
-9.9907653e-05
3.7832502e-09
-9.9907495e-05
3.5953051e-09
-9.9907494e-05
9.1636753e-10
-9.9907284e-05
-1.1888787e-09
-9.9907321e-05
-9.9907448e-05
84.943112
-0.18589624
84.821798
-0.20113653
84.710114
-0.21827889
84.600639
-0.23756471
84.479823
-0.25925006
84.325296
-0.28359316
84.102373
-0.31083162
83.75966
-0.341144
83.223924
-0.37458851
82.394754
-0.41101055
81.140306
-0.44991165
79.296585
-0.4902779
76.674191
-0.5303816
73.077683
-0.56759966
68.342172
-0.59833832
62.387254
-0.6182019
55.278173
-0.62255327
47.270599
-0.607521
38.80813
-0.57127198
30.453364
-0.51507111
22.76622
-0.44353044
16.177083
-0.36373622
10.908426
-0.28353943
6.9697184
-0.2097565
4.2108413
-0.14698496
2.398166
-0.0972914
1.2817754
-0.060582447
0.63914982
-0.035295346
0.29519132
-0.019113506
0.12522417
-0.0095557331
0.048348688
-0.0043887415
0.016827275
-0.0018565854
0.0052277697
-0.00074313389
0.0014357231
-0.00030834469
0.00034531161
-0.0001591001
7.2114541e-05
-0.00011450285
1.2995895e-05
-0.00010300652
2.0299635e-06
-0.00010047096
2.9383336e-07
-9.999578e-05
5.5196288e-08
-9.9920293e-05
2.3308834e-08
-9.9909918e-05
1.5246381e-08
-9.9908436e-05
1.1953e-08
-9.9908113e-05
8.0274301e-09
-9.9907871e-05
6.9352945e-09
-9.9907841e-05
3.7848799e-09
-9.9907683e-05
3.9914789e-09
-9.9907742e-05
8.5263878e-10
-9.9907625e-05
-1.387183e-09
-9.990775e-05
-9.9907935e-05
82.629141
-0.15567881
82.455823
-0.16839497
82.290464
-0.18268528
82.127461
-0.19875053
81.956111
-0.21680595
81.758321
-0.23707275
81.505597
-0.25976211
81.155217
-0.28504767
80.645643
-0.31302095
79.891505
-0.34362289
78.779081
-0.37654462
77.164126
-0.41109351
74.875207
-0.44602985
71.727053
-0.47940023
67.54878
-0.50842801
62.229262
-0.52956426
55.774323
-0.53882962
48.358188
-0.53253772
40.340951
-0.50833428
32.227072
-0.46623252
24.564601
-0.40913704
17.820124
-0.34245459
12.28256
-0.2728376
8.0324361
-0.20659582
4.975623
-0.14844654
2.9117266
-0.10098074
1.6033646
-0.064798622
0.8262237
-0.039024877
0.39563554
-0.021916334
0.17458576
-0.011395594
0.070338682
-0.0054515442
0.025617284
-0.0023963978
0.008347954
-0.00098309577
0.00240933
-0.00040110172
0.0006097818
-0.00019005362
0.0001340888
-0.0001233544
2.5421277e-05
-0.00010516061
4.1467774e-06
-0.00010091495
5.9951712e-07
-0.00010007388
9.3389129e-08
-9.9933159e-05
2.8269857e-08
-9.9913149e-05
1.622714e-08
-9.9910437e-05
1.2622318e-08
-9.9909916e-05
8.1024476e-09
-9.9909519e-05
7.2961885e-09
-9.990934e-05
3.6623734e-09
-9.9909032e-05
4.2126686e-09
-9.9908952e-05
6.3909158e-10
-9.9908744e-05
-1.6759196e-09
-9.9908787e-05
-9.9908937e-05
80.698414
-0.13329113
80.483485
-0.1441447
80.274876
-0.15633216
80.06827
-0.17002401
79.855
-0.18540435
79.620057
-0.20266493
79.339454
-0.22199339
78.976838
-0.24355273
78.479362
-0.26744763
77.773022
-0.29367194
76.758143
-0.32203135
75.306436
-0.35203659
73.262205
-0.38276847
70.451596
-0.41273043
66.704556
-0.43973034
61.89285
-0.46086909
55.981991
-0.47274556
49.084369
-0.47197695
41.489234
-0.45603293
33.642641
-0.42417995
26.067472
-0.37812777
19.246411
-0.32196351
13.516248
-0.26126749
9.0168993
-0.20176091
5.7061195
-0.14807637
3.4179169
-0.10308809
1.9311427
-0.067868576
1.0240109
-0.042059084
0.50619974
-0.024383876
0.23137079
-0.013129466
0.09687048
-0.0065194257
0.036774427
-0.0029738917
0.012524527
-0.0012563
0.0037861161
-0.00051347008
0.0010053209
-0.00022994068
0.00023216767
-0.00013548015
4.6226932e-05
-0.00010829354
7.8935049e-06
-0.00010159766
1.1693752e-06
-0.00010019816
1.6704855e-07
-9.9951565e-05
3.7345681e-08
-9.9915009e-05
1.781369e-08
-9.9910234e-05
1.3720259e-08
-9.9909592e-05
8.5528503e-09
-9.9909259e-05
7.9992705e-09
-9.9909139e-05
3.8290671e-09
-9.9908878e-05
4.6055439e-09
-9.9908802e-05
5.6382661e-10
-9.9908609e-05
-1.909057e-09
-9.9908632e-05
-9.9908766e-05
79.050489
-0.11610489
78.801381
-0.12553351
78.557062
-0.13611343
78.314167
-0.14799185
78.065551
-0.16132863
77.798528
-0.17629187
77.492526
-0.19304899
77.116058
-0.21175103
76.622969
-0.23250624
75.94812
-0.25533882
75.002985
-0.28012706
73.672311
-0.30651663
71.813954
-0.33380785
69.265243
-0.36082685
65.860231
-0.38580937
61.461632
-0.4063566
56.007359
-0.41955303
49.562742
-0.42234212
42.357992
-0.41219294
34.784413
-0.38793438
27.333287
-0.35043937
20.489928
-0.30276849
14.624499
-0.24957927
9.9257747
-0.19600207
6.3984871
-0.14647816
3.9106402
-0.10401339
2.2593754
-0.069999577
1.2283492
-0.04446428
0.6244742
-0.026505042
0.29451819
-0.014721116
0.12766095
-0.0075608013
0.050333748
-0.0035711838
0.017855308
-0.0015559096
0.0056357387
-0.00064414158
0.0015654898
-0.00027912933
0.00037872494
-0.0001513356
7.9039756e-05
-0.00011263571
1.4127871e-05
-0.00010260033
2.1679848e-06
-0.00010039186
3.0161867e-07
-9.9982406e-05
5.3323148e-08
-9.9918719e-05
1.9767417e-08
-9.9910199e-05
1.4640914e-08
-9.990913e-05
8.8538878e-09
-9.9908772e-05
8.5957317e-09
-9.9908664e-05
3.988504e-09
-9.9908447e-05
4.9692646e-09
-9.990839e-05
5.2494903e-10
-9.9908246e-05
-2.1184719e-09
-9.9908286e-05
-9.9908429e-05
77.618919
-0.10254473
77.341149
-0.11085237
77.066764
-0.12016855
76.793129
-0.13062214
76.514274
-0.14235368
76.219322
-0.15551206
75.890376
-0.17024761
75.499775
-0.1866996
75.006673
-0.20497528
74.35302
-0.22511646
73.459327
-0.24704921
72.221139
-0.27051204
70.507955
-0.29496096
68.167533
-0.31945676
65.039533
-0.34255556
60.982489
-0.36224778
55.915304
-0.37601976
49.86725
-0.38112585
43.019619
-0.37512146
35.714027
-0.35658899
28.40768
-0.32581356
21.579648
-0.28505843
15.622321
-0.23820033
10.764211
-0.18981208
7.0520179
-0.14409188
4.3864958
-0.10408191
2.5841211
-0.071388013
1.4359711
-0.046328024
0.74831343
-0.028296126
0.36292251
-0.0161539
0.16230797
-0.0085532977
0.066243089
-0.0041726861
0.024398442
-0.0018746577
0.00801692
-0.00079105626
0.002323331
-0.00033759519
0.00058734789
-0.00017126257
0.00012821761
-0.00011840537
2.396599e-05
-0.00010400864
3.8260796e-06
-0.00010067972
5.3606187e-07
-0.00010003148
8.1833948e-08
-9.9925778e-05
2.3017429e-08
-9.9911163e-05
1.5631608e-08
-9.9909345e-05
9.1269425e-09
-9.9908901e-05
9.0898003e-09
-9.990875e-05
4.1074435e-09
-9.9908531e-05
5.2419432e-09
-9.9908447e-05
4.5608742e-10
-9.9908312e-05
-2.3417693e-09
-9.9908346e-05
-9.9908487e-05
76.357549
-0.091601316
76.055336
-0.099006655
75.75523
-0.10730626
75.455166
-0.11661427
75.150111
-0.12705555
74.830632
-0.1387632
74.48098
-0.15187301
74.076583
-0.16651343
73.580899
-0.18278842
72.941668
-0.20075002
72.086868
-0.22035662
70.921102
-0.24141272
69.323918
-0.2634879
67.152591
-0.28581819
64.252986
-0.30720458
60.482448
-0.32594429
55.746774
-0.33985557
50.047402
-0.34647475
43.525074
-0.34348386
36.477042
-0.32933774
29.326208
-0.30390778
22.539659
-0.26883637
16.523505
-0.22734419
11.538251
-0.18349363
7.6677694
-0.14121893
4.8438856
-0.10353834
2.902822
-0.072198625
1.6444331
-0.0477376
0.87591809
-0.029786248
0.43553301
-0.017424185
0.2003505
-0.0094823143
0.084384598
-0.0047655841
0.032174707
-0.002205438
0.010975103
-0.00095165451
0.0033097152
-0.00040496085
0.00087228988
-0.0001954745
0.00019876807
-0.00012579867
3.8795372e-05
-0.00010591127
6.4511238e-06
-0.00010108936
9.251846e-07
-0.00010010485
1.3074285e-07
-9.9936715e-05
2.8547727e-08
-9.9912603e-05
1.6859475e-08
-9.99096e-05
9.5051929e-09
-9.9909055e-05
9.591074e-09
-9.9908881e-05
4.2816709e-09
-9.9908674e-05
5.4961172e-09
-9.9908571e-05
3.9850794e-10
-9.9908443e-05
-2.5613246e-09
-9.9908465e-05
-9.9908597e-05
75.233178
-0.082602197
74.909831
-0.089267267
74.587424
-0.096733335
74.264355
-0.10510245
73.936348
-0.11448662
73.595152
-0.12500574
73.226777
-0.13678322
72.809192
-0.1499377
72.309414
-0.16456885
71.680001
-0.18073444
70.855192
-0.19841526
69.747285
-0.21746387
68.244554
-0.23753487
66.212891
-0.25799799
63.504484
-0.27784501
59.977349
-0.29561826
55.528303
-0.30941116
50.137138
-0.31701027
43.910895
-0.31623964
37.107528
-0.30550114
30.116638
-0.28437504
23.389735
-0.2540184
17.340178
-0.2171017
12.253959
-0.17722733
8.2476719
-0.13806201
5.2823304
-0.10256193
3.2139055
-0.072563134
1.8519638
-0.048771605
1.0058331
-0.031009102
0.51140373
-0.018536475
0.24131198
-0.010339376
0.10459536
-0.0053398555
0.041172252
-0.0025416819
0.014541495
-0.0011230965
0.0045520091
-0.00048054845
0.0012478975
-0.00022404921
0.00029622532
-0.00013497981
6.0275582e-05
-0.00010839732
1.0437937e-05
-0.00010165225
1.5441128e-06
-0.00010021066
2.1143193e-07
-9.995309e-05
3.7681479e-08
-9.9914648e-05
1.836717e-08
-9.9909761e-05
9.9419019e-09
-9.9909037e-05
1.0064881e-08
-9.9908838e-05
4.4957806e-09
-9.9908651e-05
5.737349e-09
-9.9908542e-05
3.6082464e-10
-9.990843e-05
-2.7669512e-09
-9.9908449e-05
-9.9908576e-05
74.221204
-0.075085195
73.87937
-0.081133204
73.537413
-0.087904833
73.194106
-0.095492106
72.845804
-0.10399624
72.485233
-0.11352604
72.09987
-0.12419427
71.669813
-0.13611077
71.165067
-0.14937054
70.542258
-0.1640343
69.740943
-0.18009858
68.680037
-0.19745176
67.255442
-0.21581332
65.34083
-0.23465706
62.794584
-0.25312587
59.476549
-0.26996042
55.27749
-0.28348362
50.160259
-0.291702
44.203776
-0.29258396
37.631307
-0.28452519
30.800808
-0.26690213
24.146071
-0.24049076
18.082799
-0.20749995
12.917025
-0.17112102
8.7940165
-0.13475927
5.7020155
-0.10128493
3.5164748
-0.072586301
2.0573113
-0.04949873
1.13691
-0.031999374
0.58971271
-0.019500574
0.2847293
-0.011120957
0.12668521
-0.0058882417
0.051352468
-0.0028776758
0.018733199
-0.0013024891
0.0060730985
-0.00056345735
0.0017280519
-0.00025693454
0.00042649153
-0.00014607311
9.0322934e-05
-0.00011155181
1.6275694e-05
-0.00010240224
2.4922573e-06
-0.00010035866
3.4007237e-07
-9.9977163e-05
5.254695e-08
-9.9917846e-05
2.0371276e-08
-9.9910074e-05
1.0440195e-08
-9.9909039e-05
1.0493563e-08
-9.9908797e-05
4.7228359e-09
-9.9908619e-05
5.9487274e-09
-9.9908501e-05
3.2713073e-10
-9.99084e-05
-2.9643315e-09
-9.9908418e-05
-9.990854e-05
73.302919
-0.068722228
72.944756
-0.074248897
72.585494
-0.080434099
72.224224
-0.087361413
71.857825
-0.095122943
71.47985
-0.10381803
71.079017
-0.11355025
70.637228
-0.12442158
70.127034
-0.13652227
69.508536
-0.14991425
68.725868
-0.16460529
67.703687
-0.18051083
66.344605
-0.19740085
64.529326
-0.21483144
62.122177
-0.23206695
58.985541
-0.24801046
55.006237
-0.26117759
50.133798
-0.26976756
44.423571
-0.27188868
38.068236
-0.26595962
31.39606
-0.25121566
24.821974
-0.22813247
18.76032
-0.19853085
13.532627
-0.16523646
9.3091851
-0.13140445
6.1035112
-0.099804619
3.8100914
-0.072350513
2.2596166
-0.049977324
1.2682619
-0.032790187
0.66976533
-0.020329178
0.33017175
-0.011827193
0.15045176
-0.0064059471
0.062656503
-0.0032087035
0.023554321
-0.0014870615
0.0078908372
-0.00065264501
0.0023256825
-0.00029396347
0.00059566146
-0.0001591591
0.00013108168
-0.00011545203
2.45512e-05
-0.00010337423
3.8966181e-06
-0.00010055969
5.3856759e-07
-0.00010001145
7.6188768e-08
-9.9922662e-05
2.3232711e-08
-9.9910633e-05
1.1048782e-08
-9.9909113e-05
1.0900258e-08
-9.9908812e-05
4.9690482e-09
-9.9908639e-05
6.1385822e-09
-9.9908511e-05
2.9559669e-10
-9.9908418e-05
-3.1540199e-09
-9.9908433e-05
-9.9908548e-05
72.463791
-0.063273779
72.091079
-0.068354809
71.716375
-0.074038962
71.339034
-0.08040263
70.956382
-0.087530126
70.562677
-0.095512654
70.147701
-0.10444578
69.694904
-0.11442446
69.179029
-0.12553435
68.563181
-0.13783743
67.795473
-0.15134953
66.805583
-0.16600695
65.502075
-0.1816195
63.772012
-0.19780929
61.485361
-0.2139396
58.507461
-0.22904791
54.722719
-0.24181288
50.070157
-0.25060245
44.58528
-0.25365709
38.433783
-0.24943625
31.916303
-0.23707949
25.428441
-0.21682502
19.380395
-0.19016657
14.1054
-0.15960522
9.795505
-0.12805989
6.487596
-0.098191712
4.0946229
-0.071919572
2.4583125
-0.050255638
1.3992167
-0.033411489
0.75098696
-0.021035984
0.37725146
-0.012460624
0.17569201
-0.0068901627
0.075011548
-0.0035310319
0.028997691
-0.0016742706
0.010017887
-0.0007469949
0.0030523844
-0.00033487284
0.00080984584
-0.00017427352
0.00018488481
-0.00012016474
3.5948746e-05
-0.00010460324
5.9147958e-06
-0.00010082563
8.3568291e-07
-0.00010005887
1.1277975e-07
-9.9929603e-05
2.7435893e-08
-9.9911464e-05
1.1806027e-08
-9.9909209e-05
1.1295891e-08
-9.9908827e-05
5.2345098e-09
-9.9908657e-05
6.3152433e-09
-9.9908524e-05
2.6878894e-10
-9.9908437e-05
-3.3334062e-09
-9.9908451e-05
-9.990856e-05
71.692326
-0.058561337
71.306557
-0.063257537
70.917973
-0.068509197
70.526155
-0.074386522
70.128813
-0.080967107
69.720813
-0.088335093
69.292856
-0.096579024
68.829738
-0.10578759
68.308106
-0.11604205
67.69369
-0.12740372
66.938087
-0.13989426
65.975408
-0.15346618
64.719519
-0.16796117
63.06326
-0.18305502
60.881904
-0.19819249
58.043983
-0.2125234
54.432613
-0.22486529
49.978508
-0.23373408
44.700399
-0.23749324
38.740144
-0.23465352
32.372793
-0.22429181
25.974609
-0.20645811
19.94957
-0.18236977
14.63946
-0.15423995
10.255175
-0.12476632
6.855145
-0.096497401
4.3701344
-0.07134258
2.6530431
-0.050373011
1.529273
-0.033889533
0.83290957
-0.021634565
0.425627
-0.013025269
0.20221027
-0.0073396236
0.088336252
-0.0038418351
0.035046835
-0.0018618641
0.012461849
-0.00084537437
0.0039181414
-0.00037932425
0.0010750033
-0.00019140876
0.00025420684
-0.00012574407
5.1246257e-05
-0.00010612334
8.7373742e-06
-0.00010116927
1.2682547e-06
-0.00010012286
1.6795921e-07
-9.9939362e-05
3.3670648e-08
-9.9912668e-05
1.2766482e-08
-9.9909331e-05
1.1685098e-08
-9.9908831e-05
5.5107645e-09
-9.9908657e-05
6.4788226e-09
-9.990852e-05
2.4436976e-10
-9.990844e-05
-3.5023056e-09
-9.9908454e-05
-9.9908556e-05
70.97929
-0.054449422
70.581727
-0.058810324
70.180589
-0.063685308
69.77565
-0.06913921
69.364955
-0.075243778
68.943898
-0.082076978
68.503984
-0.089721171
68.031186
-0.098259409
67.503824
-0.10776883
66.889936
-0.11830962
66.144197
-0.12990762
65.204658
-0.14252815
63.989938
-0.15603865
62.398132
-0.17015907
60.309499
-0.18440198
57.595867
-0.19801192
54.139893
-0.20992556
49.865721
-0.21878897
44.77785
-0.22307909
38.997042
-0.22136365
32.774724
-0.21268111
26.468122
-0.1969321
20.47346
-0.17509982
15.138447
-0.14914193
10.690232
-0.12155006
7.2070626
-0.094758948
4.6368153
-0.070657501
2.8436042
-0.050361468
1.6580625
-0.034247026
0.91515637
-0.022137821
0.47500283
-0.013526007
0.22982314
-0.0077542428
0.10254515
-0.0041390982
0.041677972
-0.0020479156
0.015225615
-0.00094668261
0.0049311541
-0.00042692614
0.0013967899
-0.00021051745
0.0003416116
-0.00013223009
7.1307849e-05
-0.00010796663
1.2589404e-05
-0.00010160402
1.882298e-06
-0.00010020731
2.4916088e-07
-9.9952792e-05
4.2900243e-08
-9.9914403e-05
1.4023955e-08
-9.9909514e-05
1.2081104e-08
-9.9908842e-05
5.7949218e-09
-9.9908658e-05
6.631053e-09
-9.9908517e-05
2.2056041e-10
-9.9908441e-05
-3.6614341e-09
-9.9908455e-05
-9.990855e-05
70.317163
-0.050833412
69.908886
-0.054899854
69.496328
-0.059444162
69.079434
-0.064526478
68.656539
-0.070213422
68.223503
-0.076577526
67.772538
-0.083695664
67.290654
-0.091645821
66.757652
-0.10050127
66.143615
-0.11032079
65.405959
-0.12113323
64.486255
-0.13291405
63.307409
-0.14555181
61.772311
-0.15880307
59.76589
-0.17223737
57.1633
-0.18517985
53.84735
-0.19666992
49.737004
-0.20546849
44.824637
-0.21015671
39.212308
-0.20936183
33.129671
-0.20210165
26.915413
-0.18815829
20.9569
-0.16831598
15.605575
-0.14430554
11.102546
-0.11842739
7.5442434
-0.093003357
4.8949305
-0.069893628
3.0298989
-0.050246938
1.7853201
-0.034503355
0.99742722
-0.022557622
0.52512654
-0.013968093
0.25836247
-0.0081347806
0.11755213
-0.0044214955
0.048861938
-0.0022308288
0.01830787
-0.0010498855
0.0060977676
-0.00047725438
0.0017804333
-0.0002315175
0.00044969837
-0.00013964818
9.707336e-05
-0.00011016234
1.7730965e-05
-0.00010214359
2.7340025e-06
-0.00010031651
3.659395e-07
-9.9970877e-05
5.6420292e-08
-9.9916839e-05
1.5712816e-08
-9.9909782e-05
1.2501262e-08
-9.9908865e-05
6.0865206e-09
-9.9908662e-05
6.7748417e-09
-9.9908519e-05
1.9710681e-10
-9.9908447e-05
-3.8104222e-09
-9.990846e-05
-9.9908549e-05
69.699745
-0.047631284
69.281684
-0.051437299
68.858687
-0.055689253
68.430848
-0.060443152
67.996756
-0.065761089
67.552684
-0.071710785
67.09147
-0.078364223
66.601049
-0.085794809
66.062537
-0.094072212
65.447845
-0.10325366
64.716839
-0.1133701
63.814261
-0.12440512
62.666891
-0.1362647
61.182019
-0.14873609
59.248941
-0.16143712
56.746112
-0.17376189
53.556948
-0.1848391
49.596342
-0.19353127
44.846316
-0.19851499
39.39231
-0.19847752
33.443923
-0.19242914
27.321935
-0.18005801
21.404071
-0.16197891
16.04369
-0.13972098
11.493821
-0.11540766
7.8675501
-0.09125006
5.1447877
-0.069073545
3.2119062
-0.050050368
1.9108598
-0.034674934
1.0794852
-0.022904669
0.57578476
-0.014356834
0.28767655
-0.0084825753
0.13327305
-0.0046882643
0.056565899
-0.0024093211
0.021703682
-0.0011540379
0.0074224832
-0.00052987021
0.0022306344
-0.00025429787
0.00058104933
-0.00014800904
0.00012954546
-0.00011273607
2.4456784e-05
-0.00010280167
3.890607e-06
-0.0001004551
5.3032151e-07
-9.9994753e-05
7.5934647e-08
-9.9920184e-05
1.8017781e-08
-9.9910163e-05
1.2965326e-08
-9.99089e-05
6.3839925e-09
-9.9908666e-05
6.9118938e-09
-9.990852e-05
1.7398354e-10
-9.9908451e-05
-3.9494084e-09
-9.9908464e-05
-9.9908547e-05
69.121868
-0.044777885
68.694833
-0.048352108
68.262251
-0.052343942
67.824346
-0.056805723
67.379936
-0.061795527
66.925658
-0.067376784
66.454913
-0.073617096
65.956458
-0.080585725
65.412591
-0.08834899
64.796862
-0.09696247
64.071345
-0.10645854
63.183644
-0.11682739
62.06407
-0.12798945
60.623947
-0.13975792
58.756664
-0.1517918
56.343915
-0.16354474
53.270057
-0.17422332
49.446813
-0.18278037
44.847338
-0.1879798
39.542268
-0.18856803
33.72274
-0.18355744
27.692333
-0.17256193
21.818603
-0.15605163
16.455313
-0.13537625
11.865605
-0.11249554
8.177801
-0.089512986
5.3867153
-0.068214699
3.3896574
-0.049788666
2.0345555
-0.034775582
1.1611448
-0.023188459
0.62679856
-0.01469737
0.31763028
-0.0087993312
0.14962746
-0.0049390897
0.064754821
-0.0025823979
0.025405115
-0.0012582974
0.0089080355
-0.00058433528
0.0027514976
-0.0002787246
0.00073818033
-0.00015730933
0.00016977502
-0.00011570922
3.3094923e-05
-0.00010359166
5.4310936e-06
-0.00010062803
7.5715906e-07
-0.00010002571
1.0364636e-07
-9.9924688e-05
2.1192145e-08
-9.9910691e-05
1.3499209e-08
-9.9908948e-05
6.6868764e-09
-9.9908668e-05
7.0431598e-09
-9.9908519e-05
1.5050453e-10
-9.9908452e-05
-4.0785545e-09
-9.9908466e-05
-9.9908543e-05
68.579185
-0.042220846
68.143883
-0.045587583
67.702464
-0.049346644
67.255267
-0.053547098
66.801312
-0.058243427
66.337566
-0.063495223
65.85793
-0.069366145
65.351905
-0.075921687
64.802851
-0.083225053
64.185798
-0.091330142
63.46482
-0.10027027
62.590117
-0.11004095
61.495225
-0.12057477
60.095188
-0.13170698
58.287228
-0.14313199
55.956191
-0.1543551
52.987625
-0.16465128
49.290814
-0.17305384
44.831295
-0.17840652
39.666495
-0.17951329
33.970554
-0.17539564
28.030589
-0.16560909
22.203661
-0.15050007
16.842682
-0.13125832
12.219306
-0.10969247
8.4757654
-0.087801989
5.6210487
-0.067330571
3.5632196
-0.049475506
2.1563265
-0.03481692
1.2422624
-0.023417363
0.67801888
-0.014994568
0.34810449
-0.0090869677
0.16653982
-0.0051740033
0.073392678
-0.0027493188
0.029401839
-0.0013619291
0.010555518
-0.00064022389
0.0033464872
-0.00030464693
0.0009234969
-0.00016753268
0.00021884535
-0.00011909866
4.4004578e-05
-0.00010452639
7.4466692e-06
-0.00010084047
1.0644687e-06
-0.0001000652
1.4235177e-07
-9.9930652e-05
2.5574491e-08
-9.9911418e-05
1.4137885e-08
-9.9909018e-05
6.9965559e-09
-9.9908672e-05
7.1700091e-09
-9.9908519e-05
1.264665e-10
-9.9908453e-05
-4.1981146e-09
-9.9908467e-05
-9.9908538e-05
68.068005
-0.03991764
67.62506
-0.043097683
67.175464
-0.04664736
66.719658
-0.050612809
66.256845
-0.055045292
65.784286
-0.060000941
65.296336
-0.065539852
64.783166
-0.071724085
64.2291
-0.078613953
63.610509
-0.086261672
62.893284
-0.094701126
62.029996
-0.10393216
60.957135
-0.11389761
59.593183
-0.12445163
57.838954
-0.13531925
55.582352
-0.14605086
52.710293
-0.15598173
49.130216
-0.16421716
44.801109
-0.16967395
39.768584
-0.17121147
34.19112
-0.16786539
28.340137
-0.15914573
22.56202
-0.14529287
17.20779
-0.12735383
12.556199
-0.10699768
8.7621619
-0.086123899
5.8481209
-0.066431561
3.7326836
-0.049121933
2.2761263
-0.034808684
1.3227275
-0.023598682
0.72932224
-0.015252932
0.37899492
-0.0093474955
0.18394012
-0.0053932967
0.082443406
-0.0029095638
0.033681688
-0.001464306
0.012364543
-0.00069713201
0.0040184089
-0.00033190291
0.0011392566
-0.00017865109
0.0002778561
-0.00012291647
5.7573096e-05
-0.00010561782
1.0041018e-05
-0.00010109774
1.4737482e-06
-0.00010011479
1.9553935e-07
-9.9938421e-05
3.1607595e-08
-9.99124e-05
1.4927495e-08
-9.9909117e-05
7.3158908e-09
-9.9908679e-05
7.2933365e-09
-9.9908518e-05
1.0214895e-10
-9.9908454e-05
-4.3085505e-09
-9.9908469e-05
-9.9908534e-05
67.585171
-0.037833369
67.135137
-0.040844631
66.677949
-0.044205068
66.214141
-0.047958177
65.74308
-0.052152315
65.262294
-0.05684049
64.76655
-0.062079562
64.246628
-0.067928454
63.687725
-0.074444788
63.067438
-0.081679121
62.353314
-0.089665617
61.500097
-0.098407671
60.446993
-0.10785682
59.115669
-0.1178835
57.410312
-0.12823939
55.221776
-0.13851443
52.438477
-0.14809733
48.966495
-0.15615798
44.759175
-0.16168009
39.851543
-0.16357599
34.387642
-0.1608992
28.623949
-0.15312459
22.896117
-0.1404016
17.552418
-0.12364966
12.877446
-0.10440904
9.0376591
-0.084483376
6.0682564
-0.065525735
3.8981552
-0.048736925
2.3939341
-0.03475906
1.4024566
-0.023738782
0.7806068
-0.01547659
0.41021087
-0.0095829402
0.20176417
-0.0055974476
0.09187164
-0.0030627978
0.038231176
-0.0015649045
0.014333416
-0.00075468379
0.0047694119
-0.00036032449
0.0013875384
-0.00019062647
0.00034790734
-0.00012716992
7.4212345e-05
-0.00010687689
1.3330315e-05
-0.00010140522
2.0102642e-06
-0.00010017621
2.6749485e-07
-9.9948389e-05
3.9859705e-08
-9.9913705e-05
1.592869e-08
-9.9909254e-05
7.6488786e-09
-9.9908688e-05
7.4140363e-09
-9.9908519e-05
7.7450246e-11
-9.9908455e-05
-4.4098393e-09
-9.990847e-05
-9.990853e-05
67.127964