/*--------------------------------*- C++ -*----------------------------------*\
| =========                 |                                                 |
| \\      /  F ield         | OpenFOAM: The Open Source CFD Toolbox           |
|  \\    /   O peration     | Version:  4.0                                   |
|   \\  /    A nd           | Web:      www.OpenFOAM.org                      |
|    \\/     M anipulation  |                                                 |
\*---------------------------------------------------------------------------*/
FoamFile
{
    version     2.0;
    format      ascii;
    class       volScalarField;
    location    "2000";
    object      T;
}
// * * * * * * * * * * * * * * * * * * * * * * * * * * * * * * * * * * * * * //

dimensions      [0 0 0 1 0 0 0];

internalField   nonuniform List<scalar> 
5000
(
404.74567
397.51659
389.83021
381.76201
373.41333
364.90985
356.39742
348.03498
339.98497
332.40205
325.4216
319.14954
313.65514
308.96775
305.07785
301.94186
299.48964
297.63336
296.27636
295.3212
294.67615
294.25992
294.00446
293.85611
293.77503
293.73357
293.71386
293.7052
293.70171
293.70042
293.7
293.69987
293.69984
293.69983
293.69983
293.69983
293.69983
293.69983
293.69983
293.69983
293.69983
293.69983
293.69983
293.69983
293.69983
293.69983
293.69983
293.69983
293.69983
293.69983
427.23958
421.22794
414.76825
407.8553
400.49527
392.70991
384.54113
376.05535
367.34674
358.53838
349.78005
341.24205
333.10471
325.54422
318.71639
312.74043
307.71416
303.6483
300.49281
298.14887
296.48631
295.36308
294.64236
294.20466
293.95411
293.81959
293.75222
293.72095
293.70758
293.70235
293.7005
293.6999
293.69974
293.69969
293.69968
293.69968
293.69968
293.69968
293.69968
293.69968
293.69968
293.69968
293.69968
293.69968
293.69968
293.69968
293.69968
293.69968
293.69968
293.69968
436.357
430.86494
424.95969
418.62594
411.85343
404.63955
396.99285
388.93738
380.51782
371.80489
362.90009
353.93838
345.08697
336.53838
328.4967
321.15779
314.68653
309.19241
304.715
301.22177
298.61874
296.77039
295.52287
294.72496
294.24314
293.96972
293.82467
293.75318
293.72068
293.70713
293.70201
293.70026
293.69972
293.69958
293.69954
293.69954
293.69954
293.69954
293.69954
293.69954
293.69954
293.69954
293.69954
293.69954
293.69954
293.69954
293.69954
293.69954
293.69954
293.69954
441.34222
436.13946
430.54623
424.54579
418.12452
411.2737
403.99196
396.28857
388.18765
379.73323
370.99482
362.07266
353.10114
344.24846
335.71011
327.69464
320.402
313.99759
308.58832
304.20782
300.81538
298.30863
296.54538
295.36788
294.62387
294.18092
293.93375
293.80525
293.74345
293.71616
293.70518
293.70119
293.69989
293.69951
293.69942
293.69939
293.69939
293.69939
293.69939
293.69939
293.69939
293.69939
293.69939
293.69939
293.69939
293.69939
293.69939
293.69939
293.69939
293.69939
444.67884
439.67162
434.28977
428.51643
422.33698
415.74047
408.72143
401.28251
393.43786
385.21747
376.67226
367.87965
358.94845
350.02168
341.27497
332.90815
325.12876
318.12837
312.0561
306.99643
302.95825
299.87857
297.63919
296.09033
295.07439
294.44483
294.07808
293.87842
293.77754
293.73061
293.71066
293.70299
293.70034
293.69953
293.69931
293.69926
293.69925
293.69924
293.69924
293.69924
293.69924
293.69924
293.69924
293.69924
293.69924
293.69924
293.69924
293.69924
293.69924
293.69924
447.15672
442.29569
437.07198
431.46888
425.47148
419.06777
412.25021
405.01782
397.37905
389.3555
380.98646
372.33414
363.48898
354.5738
345.74498
337.18821
329.10683
321.70192
315.14689
309.56203
304.9968
301.42554
298.7578
296.85891
295.57434
294.75126
294.25399
293.97233
293.82378
293.7514
293.71909
293.706
293.70123
293.69968
293.69924
293.69913
293.6991
293.6991
293.6991
293.6991
293.6991
293.6991
293.6991
293.6991
293.6991
293.6991
293.6991
293.6991
293.6991
293.6991
449.10774
444.36241
439.26386
433.79562
427.94272
421.69263
415.03657
407.97135
400.5018
392.64399
384.42935
375.90948
367.16136
358.29214
349.44178
340.78163
332.50643
324.81828
317.90357
311.9069
306.90935
302.91789
299.86942
297.64745
296.10531
295.08918
294.45612
294.08517
293.88208
293.77901
293.73093
293.71052
293.7027
293.70003
293.69922
293.69901
293.69896
293.69895
293.69895
293.69895
293.69895
293.69895
293.69895
293.69895
293.69895
293.69895
293.69895
293.69895
293.69895
293.69895
450.70626
446.0561
441.06052
435.70328
429.96946
423.84624
417.32409
410.39831
403.07124
395.35509
387.27563
378.87665
370.22499
361.41545
352.57437
343.86
335.45726
327.56507
320.37596
314.05076
308.6948
304.34261
300.95649
298.43886
296.65355
295.44919
294.67903
294.21445
293.95175
293.81355
293.74651
293.71681
293.70491
293.70065
293.6993
293.69892
293.69883
293.69881
293.69881
293.6988
293.6988
293.6988
293.6988
293.6988
293.6988
293.6988
293.6988
293.6988
293.6988
293.6988
452.0536
447.48393
442.57542
437.31208
431.67907
425.66341
419.25508
412.44832
405.24368
397.65048
389.69026
381.40085
372.84114
364.09607
355.28063
346.54148
338.05378
330.01127
322.60846
316.01687
310.36029
305.69625
302.00998
299.22247
297.20932
295.82379
294.91787
294.35759
294.03174
293.85486
293.766
293.72509
293.70801
293.70161
293.69948
293.69886
293.6987
293.69867
293.69866
293.69866
293.69866
293.69866
293.69866
293.69866
293.69866
293.69866
293.69866
293.69866
293.69866
293.69866
453.21349
448.71331
443.87998
438.69771
433.15177
427.22914
420.91942
414.21611
407.11836
399.63334
391.77925
383.58922
375.11581
366.43587
357.65488
348.90931
340.36513
332.20997
324.63786
317.82711
311.91556
306.97989
303.02571
299.99172
297.76579
296.20721
295.16846
294.51204
294.12086
293.90254
293.7894
293.73548
293.7121
293.70298
293.69981
293.69884
293.69859
293.69853
293.69851
293.69851
293.69851
293.69851
293.69851
293.69851
293.69851
293.69851
293.69851
293.69851
293.69851
293.69851
454.22858
449.78938
445.02199
439.91085
434.44135
428.60043
422.37745
415.76534
408.76219
401.37342
393.61462
385.5151
377.12222
368.50614
359.76421
351.02402
342.44298
334.20238
326.49422
319.50088
313.3709
308.19685
304.00238
300.74279
298.31829
296.59508
295.42738
294.67554
294.21783
293.95608
293.81662
293.74806
293.71729
293.70483
293.70032
293.69889
293.69849
293.69839
293.69837
293.69837
293.69837
293.69837
293.69837
293.69837
293.69837
293.69837
293.69837
293.69837
293.69837
293.69837
455.12882
450.74381
446.03503
440.98711
435.58555
429.81732
423.6716
417.14085
410.22235
402.92009
395.24752
387.23082
378.91302
370.35859
361.65795
352.93085
344.32685
336.02092
328.20212
321.055
314.73617
309.35144
304.94039
301.47372
298.8638
296.98423
295.69192
294.84611
294.32146
294.01491
293.8475
293.76286
293.72365
293.70722
293.70105
293.699
293.69841
293.69826
293.69823
293.69822
293.69822
293.69822
293.69822
293.69822
293.69822
293.69822
293.69822
293.69822
293.69822
293.69822
455.93593
451.5996
446.94347
441.95233
436.61182
430.90893
424.8327
418.37527
411.5332
404.30937
396.7154
388.77485
380.52711
372.03178
363.37325
354.66431
346.0474
337.69134
329.78168
322.50379
316.02039
310.44826
305.84104
302.18368
299.40035
297.37236
295.95995
295.02209
294.43066
294.07843
293.88179
293.77982
293.73123
293.71019
293.70202
293.6992
293.69836
293.69813
293.69808
293.69808
293.69807
293.69807
293.69807
293.69807
293.69807
293.69807
293.69807
293.69807
293.69807
293.69807
456.66613
452.37393
447.7655
442.82582
437.54064
431.89699
425.88383
419.493
412.72052
405.56828
398.04641
390.17623
381.99398
373.55508
364.93863
356.25124
347.6288
339.23428
331.24942
323.85943
317.23156
311.49177
306.70608
302.87257
299.92677
297.75782
296.22983
295.20211
294.54444
294.14607
293.91924
293.7989
293.74004
293.7138
293.70327
293.69951
293.69834
293.69802
293.69795
293.69793
293.69793
293.69793
293.69793
293.69793
293.69793
293.69793
293.69793
293.69793
293.69793
293.69793
457.33185
453.07993
448.51506
443.62237
438.38772
432.79819
426.84267
420.51278
413.80407
406.71761
399.26225
391.45737
383.3365
374.95139
366.37647
357.71283
349.09038
340.6665
332.61901
325.13225
318.37676
312.48617
307.53742
303.5407
300.44238
298.13947
296.50029
295.38505
294.66197
294.21728
293.95956
293.81999
293.75008
293.71806
293.70482
293.69994
293.69836
293.69792
293.69781
293.69779
293.69778
293.69778
293.69778
293.69778
293.69778
293.69778
293.69778
293.69778
293.69778
293.69778
457.94278
453.7279
449.20306
444.35355
439.16534
433.62556
427.72305
421.44927
414.79934
407.77366
400.37995
392.63592
384.57272
376.23886
367.70464
359.06615
350.44784
342.00179
333.90187
326.33106
319.4622
313.43532
308.33704
304.18864
300.94684
298.51648
296.77036
295.56999
294.78251
294.29159
294.0025
293.84299
293.76133
293.723
293.7067
293.70051
293.69843
293.69783
293.69767
293.69764
293.69764
293.69764
293.69764
293.69764
293.69764
293.69764
293.69764
293.69764
293.69764
293.69764
458.50666
454.32601
449.83817
445.02856
439.88327
434.38947
428.53601
422.31414
415.71869
408.74944
401.41312
393.72601
385.71712
377.43211
368.93758
360.32508
351.71404
343.25159
335.10764
327.46342
320.49335
314.34277
309.10685
304.81711
301.44009
298.88833
297.03931
295.7562
294.90545
294.36853
294.04777
293.86776
293.77377
293.72863
293.70893
293.70122
293.69856
293.69776
293.69755
293.6975
293.69749
293.69749
293.69749
293.69749
293.69749
293.69749
293.69749
293.69749
293.69749
293.69749
459.02973
454.88086
450.42738
445.65484
440.54941
435.09833
429.29043
423.11685
416.57211
409.65546
402.3728
394.73909
386.78149
378.54308
370.08712
361.50107
352.89971
344.42549
336.24446
328.53584
321.475
315.21171
309.84871
305.42691
301.92219
299.25466
297.30658
295.94308
295.03026
294.44772
294.09513
293.89419
293.78735
293.73494
293.71152
293.7021
293.69875
293.6977
293.69742
293.69736
293.69735
293.69734
293.69734
293.69734
293.69734
293.69734
293.69734
293.69734
293.69734
293.69734
459.51709
455.39787
450.97645
446.23846
441.17022
435.759
429.99361
423.86512
417.36777
410.50037
403.26804
395.68461
387.77554
379.58162
371.16308
362.60365
354.0138
345.5316
337.31929
329.55395
322.41137
316.04501
310.56433
306.01886
302.39335
299.61526
297.57175
296.13015
295.1565
294.5288
294.14435
293.92215
293.80203
293.74194
293.71447
293.70316
293.69901
293.69768
293.69731
293.69722
293.6972
293.6972
293.6972
293.6972
293.6972
293.6972
293.6972
293.6972
293.6972
293.6972
459.97296
455.88152
451.4901
446.78449
441.75105
436.37716
430.65161
424.56537
418.11247
411.29132
404.10637
396.57039
388.70735
380.55597
372.17369
363.64084
355.06391
346.57682
338.33814
330.52266
323.30621
316.8453
311.25533
306.5938
302.8538
299.97001
297.83452
296.31704
295.2838
294.61148
294.19521
293.95151
293.81774
293.74961
293.71781
293.70439
293.69934
293.69768
293.6972
293.69708
293.69706
293.69705
293.69705
293.69705
293.69705
293.69705
293.69705
293.69705
293.69705
293.69705
460.40089
456.33554
451.97232
447.29712
442.2964
436.95758
431.26947
425.22296
418.81191
412.03433
404.89409
397.40302
389.58374
381.47305
373.1259
364.61945
356.05651
347.56708
339.30619
331.44625
324.16283
317.61492
311.92321
307.15251
303.30385
300.31888
298.09465
296.50343
295.41185
294.69549
294.24752
293.98215
293.83443
293.75793
293.72153
293.70582
293.69976
293.69771
293.6971
293.69694
293.69691
293.69691
293.6969
293.6969
293.6969
293.6969
293.6969
293.6969
293.6969
293.6969
460.80386
456.76312
452.42647
447.77993
442.81004
437.50428
431.85147
425.84245
419.47088
412.73448
405.63655
398.18809
390.41047
382.33878
374.02565
365.54531
356.99716
348.50751
340.22796
332.3285
324.98418
318.35599
312.56934
307.69578
303.74382
300.6619
298.35199
296.68907
295.54038
294.7806
294.30111
294.01397
293.85204
293.76689
293.72563
293.70745
293.70027
293.69777
293.69701
293.69681
293.69677
293.69676
293.69676
293.69676
293.69676
293.69676
293.69676
293.69676
293.69676
293.69676
461.18443
457.16693
452.85541
448.23596
443.29521
438.0207
432.40127
426.42769
420.09349
413.3961
406.33831
398.93036
391.19249
383.15821
374.878
366.42344
357.89068
349.40257
341.1074
333.17273
325.77288
319.07044
313.19501
308.22435
304.17405
300.99911
298.60643
296.87377
295.66918
294.8666
294.35581
294.04685
293.87052
293.77647
293.73011
293.70929
293.70088
293.69787
293.69693
293.69668
293.69663
293.69661
293.69661
293.69661
293.69661
293.69661
293.69661
293.69661
293.69661
293.69661
461.54477
457.54931
453.26159
448.66781
443.75468
438.50978
432.92198
426.98201
420.68327
414.02291
407.00328
399.63393
391.93405
383.93569
375.68739
367.25818
358.74126
350.25616
341.94799
333.9819
326.53128
319.76002
313.8014
308.73892
304.59487
301.3306
298.85789
297.05738
295.79806
294.95332
294.41148
294.08069
293.88981
293.78663
293.73497
293.71133
293.70158
293.69801
293.69687
293.69656
293.69648
293.69647
293.69647
293.69647
293.69647
293.69647
293.69647
293.69647
293.69647
293.69647
461.88677
457.91224
453.64714
449.07774
444.19084
438.97407
433.41633
427.5083
421.24327
414.61814
407.63488
400.30236
392.63885
384.67502
376.45762
368.05335
359.55257
351.0717
342.75282
334.75864
327.26152
320.42631
314.38959
309.24015
305.00663
301.65648
299.10633
297.23977
295.92686
295.04061
294.46799
294.11541
293.90984
293.79735
293.7402
293.71359
293.70239
293.6982
293.69683
293.69644
293.69634
293.69632
293.69632
293.69632
293.69632
293.69632
293.69632
293.69632
293.69632
293.69632
462.21208
458.25748
454.0139
449.46771
444.60577
439.41579
433.88665
428.00904
421.77613
415.1846
408.23604
400.93874
393.31009
385.37952
377.19206
368.81226
360.32783
351.85224
343.52462
335.50531
327.96549
321.07075
314.96059
309.72868
305.40964
301.97686
299.35173
297.42085
296.05547
295.12834
294.52524
294.15091
293.93058
293.80861
293.74579
293.71605
293.70331
293.69843
293.6968
293.69632
293.6962
293.69618
293.69617
293.69617
293.69617
293.69617
293.69617
293.69617
293.69617
293.69617
462.52214
458.58654
454.36349
449.83943
445.00131
439.83687
434.33503
428.48644
422.28418
415.72474
408.80937
401.54581
393.95062
386.05208
377.89367
369.53786
361.06991
352.60046
344.26584
336.22401
328.64493
321.69467
315.51533
310.20509
305.80424
302.29188
299.59409
297.60054
296.18377
295.21639
294.58312
294.18713
293.95196
293.82038
293.75173
293.71873
293.70434
293.69872
293.69679
293.69621
293.69607
293.69603
293.69603
293.69603
293.69603
293.69603
293.69603
293.69603
293.69603
293.69603
462.81821
458.90077
454.69733
450.19442
445.37905
440.23901
434.76326
428.94241
422.76946
416.24073
409.35714
402.12594
394.56292
386.69529
378.56504
370.23276
361.78133
353.31877
344.97865
336.91664
329.30139
322.29927
316.05467
310.66994
306.19073
302.60166
299.83343
297.77878
296.31166
295.30467
294.64154
294.22399
293.97395
293.83264
293.75801
293.72162
293.70548
293.69905
293.6968
293.69611
293.69593
293.69589
293.69588
293.69588
293.69588
293.69588
293.69588
293.69588
293.69588
293.69588
463.1014
459.20134
455.01668
450.53402
445.74042
440.62374
435.17295
429.37866
423.23379
416.73449
409.88139
402.68126
395.1492
387.31141
379.2085
370.89926
362.46437
354.0093
345.66502
337.58493
329.9363
322.88565
316.5794
311.12374
306.56942
302.90634
300.06977
297.95554
296.43909
295.39309
294.70042
294.26142
293.99649
293.84535
293.76462
293.72472
293.70673
293.69944
293.69683
293.69601
293.6958
293.69575
293.69574
293.69574
293.69574
293.69574
293.69574
293.69574
293.69574
293.69574
463.37271
459.48932
455.32266
450.85939
446.08667
440.99238
435.56553
429.79671
423.67877
417.20772
410.3839
403.21365
395.71143
387.90248
379.82612
371.53945
363.12106
354.674
346.32673
338.23042
330.55095
323.45483
317.09026
311.56699
306.94058
303.20605
300.30314
298.13078
296.56597
295.48158
294.75969
294.29938
294.01955
293.85849
293.77155
293.72803
293.7081
293.69989
293.69689
293.69593
293.69566
293.6956
293.69559
293.69559
293.69559
293.69559
293.69559
293.69559
293.69559
293.69559
463.63302
459.76563
455.61625
451.17161
446.41893
441.34614
435.94227
430.19791
424.10584
417.66193
410.86627
403.7248
396.25136
388.47031
380.41975
372.15518
363.75321
355.3146
346.96538
338.85455
331.14654
324.00775
317.58793
312.00015
307.30449
303.50094
300.53358
298.30449
296.69227
295.57007
294.81929
294.33779
294.04308
293.87205
293.77879
293.73154
293.70959
293.70039
293.69697
293.69585
293.69554
293.69546
293.69545
293.69544
293.69544
293.69544
293.69544
293.69544
293.69544
293.69544
463.88313
460.03112
455.89835
451.47162
446.7382
441.68607
436.3043
430.58346
424.51628
418.09848
411.32995
404.21623
396.77058
389.01653
380.99105
372.74812
364.36248
355.93267
347.58242
339.45858
331.72415
324.54526
318.07306
312.42364
307.66142
303.79112
300.76114
298.47665
296.81793
295.6585
294.87916
294.37662
294.06704
293.88599
293.78632
293.73525
293.7112
293.70096
293.69707
293.69578
293.69541
293.69532
293.6953
293.6953
293.6953
293.6953
293.6953
293.6953
293.6953
293.6953
464.12375
460.28655
456.16977
451.76027
447.04539
442.01316
436.65265
430.95445
424.91123
418.51861
411.77622
404.68928
397.27049
389.54261
381.54153
373.31979
364.95035
356.52965
348.17918
340.04371
332.28478
325.06817
318.54622
312.83787
308.01161
304.07675
300.98587
298.64726
296.94293
295.74683
294.93925
294.41582
294.09141
293.90029
293.79414
293.73915
293.71293
293.70159
293.69721
293.69572
293.69529
293.69518
293.69516
293.69515
293.69515
293.69515
293.69515
293.69515
293.69515
293.69515
464.35552
460.53259
456.43122
452.03833
447.34131
442.32825
436.98824
431.31187
425.29176
418.92341
412.20626
405.14519
397.75239
390.04989
382.07254
373.87156
365.51817
357.10684
348.75687
340.61102
332.82934
325.5772
319.00799
313.24324
308.3553
304.35793
301.20781
298.81631
297.06723
295.83501
294.99951
294.45535
294.11615
293.91493
293.80222
293.74324
293.71477
293.70228
293.69737
293.69567
293.69517
293.69504
293.69501
293.69501
293.69501
293.69501
293.69501
293.69501
293.69501
293.69501
464.57902
460.76986
456.68335
452.30649
447.62671
442.63214
437.31191
431.6566
425.65879
419.31388
412.62112
405.58506
398.21743
390.53956
382.58533
374.40466
366.06718
357.66541
349.31659
341.16149
333.35869
326.07306
319.45887
313.64008
308.69273
304.63481
301.42701
298.98382
297.1908
295.923
295.0599
294.49517
294.14123
293.92989
293.81057
293.74752
293.71673
293.70303
293.69756
293.69564
293.69505
293.6949
293.69487
293.69486
293.69486
293.69486
293.69486
293.69486
293.69486
293.69486
464.79477
460.99891
456.92676
452.56538
447.90225
442.92554
437.62441
431.98945
426.01319
419.69093
413.02175
406.00991
398.66668
391.01272
383.081
374.92024
366.5985
358.20646
349.85936
341.69604
333.8736
326.55636
319.89934
314.02875
309.0241
304.90749
301.64354
299.14978
297.31364
296.01079
295.12039
294.53524
294.16662
293.94515
293.81917
293.75198
293.71881
293.70385
293.69779
293.69562
293.69494
293.69476
293.69472
293.69471
293.69471
293.69471
293.69471
293.69471
293.69471
293.69471
465.00327
461.22026
457.16199
452.81557
448.16854
443.2091
437.92644
432.31114
426.35572
420.05538
413.40903
406.42065
399.10108
391.47036
383.5606
375.41933
367.11315
358.73098
350.38612
342.21552
334.37481
327.0277
320.32986
314.40957
309.34963
305.1761
301.85744
299.31421
297.43572
296.09832
295.18095
294.57555
294.1923
293.96069
293.828
293.75662
293.72099
293.70473
293.69804
293.69561
293.69483
293.69463
293.69458
293.69457
293.69457
293.69457
293.69457
293.69457
293.69457
293.69457
465.20493
461.43437
457.38954
453.05759
448.42613
443.4834
438.21862
432.62236
426.68711
420.408
413.78377
406.81813
399.52153
391.91341
384.02505
375.90288
367.61208
359.23989
350.89772
342.72069
334.86298
327.48763
320.75086
314.78283
309.66951
305.44075
302.06876
299.47712
297.55704
296.1856
295.24154
294.61605
294.21825
293.9765
293.83706
293.76143
293.7233
293.70568
293.69833
293.69561
293.69473
293.69449
293.69443
293.69442
293.69442
293.69442
293.69442
293.69442
293.69442
293.69442
465.40018
461.64166
457.60984
453.29192
448.67554
443.74899
438.50152
432.92371
427.00801
420.74946
414.14667
407.20311
399.92882
392.34269
384.47522
376.37176
368.09616
359.73402
351.39495
343.21229
335.33874
327.93667
321.16272
315.14882
309.98392
305.70154
302.27756
299.63854
297.67758
296.27258
295.30215
294.65673
294.24444
293.99255
293.84633
293.7664
293.72571
293.70669
293.69865
293.69563
293.69464
293.69436
293.69429
293.69428
293.69427
293.69427
293.69427
293.69427
293.69427
293.69427
465.58936
461.84253
457.82332
453.51899
448.91723
444.00637
438.77568
433.21575
427.319
421.08041
414.49843
407.5763
400.3237
392.75898
384.91189
376.82678
368.56619
360.21416
351.87856
343.69097
335.80268
328.3753
321.56582
315.50782
310.29305
305.95859
302.48389
299.79846
297.79734
296.35925
295.36274
294.69756
294.27085
294.00884
293.85581
293.77153
293.72823
293.70777
293.699
293.69566
293.69455
293.69423
293.69415
293.69413
293.69413
293.69413
293.69413
293.69413
293.69413
293.69413
465.77282
462.03733
458.03035
453.73921
449.15164
444.256
439.04159
433.499
427.62065
421.40142
414.83965
407.93834
400.70684
393.16299
385.3358
377.26867
369.0229
360.68102
352.34922
344.15737
336.25534
328.80397
321.96051
315.86007
310.59707
306.212
302.68781
299.95692
297.91632
296.44561
295.4233
294.73852
294.29746
294.02535
293.86549
293.77681
293.73086
293.70891
293.69939
293.69571
293.69446
293.6941
293.69401
293.69399
293.69398
293.69398
293.69398
293.69398
293.69398
293.69398
465.95087
462.22638
458.23129
453.95295
449.37914
444.49828
439.29968
433.77394
427.91345
421.71303
415.1709
408.28984
401.07888
393.55536
385.74761
377.69812
369.46697
361.13528
352.80756
344.61206
336.69722
329.22309
322.34713
316.20582
310.89614
306.46187
302.88936
300.11392
298.03451
296.53163
295.4838
294.77959
294.32426
294.04206
293.87535
293.78224
293.73359
293.71012
293.69982
293.69578
293.69438
293.69397
293.69386
293.69384
293.69384
293.69384
293.69384
293.69384
293.69384
293.69384
466.12379
462.41
458.42645
454.16055
449.60012
444.73362
439.55037
434.041
428.19786
422.01574
415.49271
408.63136
401.44039
393.9367
386.14796
378.11576
369.89905
361.57754
353.25417
345.05557
337.12879
329.63307
322.72598
316.5453
311.19041
306.70829
303.08859
300.2695
298.15192
296.6173
295.54424
294.82075
294.35123
294.05896
293.88539
293.78782
293.73643
293.71139
293.70028
293.69586
293.69431
293.69384
293.69372
293.6937
293.69369
293.69369
293.69369
293.69369
293.69369
293.69369
466.29186
462.58846
458.61613
454.36233
449.81491
444.96236
439.79405
434.30059
428.47434
422.31
415.80555
408.96339
401.79192
394.30757
386.53741
378.52217
370.31971
362.00839
353.68961
345.48842
337.55051
330.03428
323.09736
316.87872
311.48004
306.95135
303.28555
300.42366
298.26854
296.70262
295.6046
294.86198
294.37835
294.07604
293.8956
293.79353
293.73936
293.71273
293.70078
293.69596
293.69425
293.69372
293.69358
293.69355
293.69355
293.69354
293.69354
293.69354
293.69354
293.69354
466.45531
462.76203
458.80062
454.55858
450.02382
445.18484
440.03106
434.55309
428.74326
422.59624
416.10988
409.28641
402.13395
394.66849
386.91651
378.91791
370.72951
362.42835
354.11437
345.91107
337.96278
330.42707
323.46154
317.20629
311.76516
307.19114
303.4803
300.57644
298.38438
296.78757
295.66486
294.90328
294.40561
294.09329
293.90596
293.79938
293.7424
293.71413
293.70131
293.69608
293.69419
293.6936
293.69344
293.69341
293.6934
293.6934
293.6934
293.6934
293.6934
293.6934
466.61438
462.93095
458.98016
454.74958
450.22713
445.40138
440.26173
434.79884
429.00501
422.87485
416.40612
409.60088
402.46695
395.01994
387.28574
379.30348
371.12895
362.83794
354.52894
346.32397
338.36601
330.81176
323.8188
317.52821
312.04592
307.42775
303.67288
300.72784
298.49944
296.87215
295.72501
294.94462
294.43301
294.11069
293.91648
293.80535
293.74553
293.7156
293.70188
293.69621
293.69414
293.69348
293.6933
293.69326
293.69325
293.69325
293.69325
293.69325
293.69325
293.69325
466.76927
463.09543
459.155
454.93557
450.42513
445.61225
440.48638
435.03817
429.25992
423.1462
416.69466
409.90718
402.79135
395.36237
387.64558
379.67936
371.5185
363.23761
354.93377
346.72752
338.76055
331.18867
324.16938
317.84466
312.32243
307.66126
303.86333
300.87789
298.61373
296.95636
295.78504
294.986
294.46051
294.12824
293.92715
293.81145
293.74875
293.71712
293.70248
293.69637
293.6941
293.69337
293.69316
293.69312
293.69311
293.69311
293.69311
293.69311
293.69311
293.69311
466.92019
463.2557
459.32536
455.11681
450.61805
445.81772
440.70528
435.27139
429.50833
423.41063
416.97585
410.20572
403.10755
395.6962
387.99646
380.04598
371.89862
363.6278
355.32927
347.12212
339.14675
331.5581
324.51351
318.15583
312.59483
307.89174
304.0517
301.02661
298.72724
297.04018
295.84494
295.0274
294.48812
294.14593
293.93795
293.81766
293.75206
293.71871
293.70313
293.69654
293.69407
293.69325
293.69303
293.69297
293.69296
293.69296
293.69296
293.69296
293.69296
293.69296
467.06731
463.41194
459.49145
455.29349
450.80614
446.01805
440.9187
435.49877
429.75053
423.66846
417.25004
410.49683
403.41593
396.02182
388.33877
380.40376
372.26971
364.00893
355.71583
347.50813
339.52494
331.92031
324.85142
318.46187
312.86323
308.11928
304.23803
301.17403
298.83999
297.12361
295.90471
295.06882
294.51583
294.16374
293.94888
293.82399
293.75546
293.72036
293.70381
293.69673
293.69404
293.69315
293.69289
293.69283
293.69282
293.69281
293.69281
293.69281
293.69281
293.69281
467.21081
463.56434
459.65345
455.46584
450.98962
446.21346
441.12689
435.72058
429.9868
423.91999
417.51753
410.78086
403.71683
396.33958
388.6729
380.75308
372.63217
364.38138
356.09383
347.8859
339.89542
332.27558
325.18332
318.76296
313.12775
308.34395
304.42237
301.32015
298.95197
297.20666
295.96433
295.11024
294.54362
294.18168
293.95993
293.83043
293.75895
293.72207
293.70452
293.69694
293.69403
293.69304
293.69275
293.69268
293.69267
293.69267
293.69267
293.69267
293.69267
293.69267
467.35086
463.71307
459.81155
455.63404
451.16868
446.40418
441.33008
435.93707
430.21741
424.16549
417.77863
411.05812
404.01059
396.64985
388.99921
381.09431
372.98636
364.7455
356.46361
348.25574
340.2585
332.62415
325.50941
319.05924
313.38849
308.56582
304.60475
301.46501
299.06321
297.28932
296.0238
295.15165
294.57149
294.19972
293.97111
293.83698
293.76252
293.72383
293.70527
293.69717
293.69402
293.69294
293.69262
293.69254
293.69252
293.69252
293.69252
293.69252
293.69252
293.69252
467.48759
463.85829
459.96592
455.79828
451.34352
446.5904
441.52849
436.14846
430.44259
424.40523
418.03361
411.3289
404.29751
396.95293
389.31802
381.42779
373.33263
365.10163
356.8255
348.61797
340.61443
332.96626
325.82988
319.35086
313.64557
308.78495
304.78522
301.60861
299.17369
297.37158
296.08311
295.19306
294.59942
294.21787
293.98239
293.84363
293.76617
293.72566
293.70606
293.69742
293.69402
293.69284
293.69249
293.6924
293.69238
293.69238
293.69238
293.69238
293.69238
293.69238
467.62116
464.00014
460.11672
455.95872
451.51433
446.77233
441.72231
436.35498
430.66258
424.63944
418.28274
411.59347
404.57788
397.24913
389.62965
381.75384
373.67129
365.4501
357.17981
348.97288
340.96349
333.30213
326.14493
319.63796
313.89907
309.00142
304.96382
301.75099
299.28344
297.45345
296.14226
295.23444
294.62741
294.23612
293.99378
293.85037
293.7699
293.72754
293.70688
293.6977
293.69403
293.69275
293.69236
293.69226
293.69223
293.69223
293.69223
293.69223
293.69223
293.69223
467.75169
464.13878
460.2641
456.11552
451.68126
446.95013
441.91175
436.55682
430.8776
424.86837
418.52624
411.8521
404.85196
397.53873
389.93438
382.07275
374.00265
365.79121
357.52683
349.32073
341.30591
333.63198
326.45471
319.92068
314.1491
309.21528
305.14058
301.89216
299.39246
297.53493
296.20124
295.27579
294.65546
294.25446
294.00527
293.85721
293.77371
293.72948
293.70774
293.69799
293.69405
293.69266
293.69223
293.69211
293.69209
293.69208
293.69208
293.69208
293.69208
293.69208
467.8793
464.27432
460.4082
456.26883
451.84448
447.12398
442.09697
436.75419
431.08785
425.09223
418.76436
412.10502
405.12003
397.822
390.23251
382.38482
374.32699
366.12524
357.86683
349.66178
341.64193
333.956
326.7594
320.19914
314.39575
309.4266
305.31554
302.03213
299.50074
297.61601
296.26005
295.31711
294.68355
294.27288
294.01686
293.86414
293.77759
293.73147
293.70864
293.6983
293.69409
293.69257
293.6921
293.69197
293.69194
293.69194
293.69194
293.69194
293.69194
293.69194
468.00413
464.40691
460.54915
456.41879
452.00413
447.29404
442.27816
436.94725
431.29352
425.31122
418.99731
412.35246
405.3823
398.09918
390.52428
382.6903
374.6446
366.45246
358.20007
349.99628
341.97178
334.27439
327.05916
320.47347
314.6391
309.63544
305.48874
302.17094
299.60831
297.6967
296.31869
295.35839
294.71168
294.29138
294.02854
293.87115
293.78155
293.73351
293.70957
293.69863
293.69413
293.69249
293.69197
293.69183
293.6918
293.69179
293.69179
293.69179
293.69179
293.69179
468.12627
464.53664
460.68707
456.56554
452.16036
447.46045
442.45547
437.13618
431.49479
425.52553
419.22529
412.59463
405.63902
398.37053
390.80994
382.98946
374.95571
366.77311
358.5268
350.32446
342.29566
334.58732
327.35413
320.74378
314.87925
309.84186
305.66021
302.3086
299.71517
297.777
296.37714
295.39963
294.73985
294.30995
294.0403
293.87825
293.78557
293.73561
293.71053
293.69898
293.69418
293.69241
293.69184
293.69169
293.69165
293.69165
293.69164
293.69164
293.69164
293.69164
468.24584
464.66364
460.82209
456.70919
452.31331
447.62336
442.62905
437.32113
431.69184
425.73534
419.4485
412.83175
405.8904
398.63625
391.08973
383.28252
375.26058
367.08745
358.84726
350.64654
342.61377
334.89499
327.64446
321.01019
315.11628
310.0459
305.82999
302.44511
299.82133
297.8569
296.43541
295.44082
294.76804
294.32859
294.05215
293.88542
293.78966
293.73776
293.71153
293.69935
293.69424
293.69234
293.69172
293.69155
293.69151
293.6915
293.6915
293.6915
293.6915
293.6915
468.36293
464.788
460.95431
456.84987
452.46309
447.78291
442.79904
437.50227
431.88482
425.94083
419.66711
413.064
406.13663
398.89656
391.36387
383.56972
375.55943
367.3957
359.16165
350.96272
342.9263
335.19754
327.93029
321.2728
315.35025
310.24763
305.9981
302.58052
299.92679
297.93641
296.4935
295.48195
294.79625
294.34729
294.06407
293.89268
293.79381
293.73996
293.71257
293.69975
293.69432
293.69227
293.6916
293.69141
293.69136
293.69135
293.69135