/*--------------------------------*- C++ -*----------------------------------*\
| =========                 |                                                 |
| \\      /  F ield         | OpenFOAM: The Open Source CFD Toolbox           |
|  \\    /   O peration     | Version:  4.0                                   |
|   \\  /    A nd           | Web:      www.OpenFOAM.org                      |
|    \\/     M anipulation  |                                                 |
\*---------------------------------------------------------------------------*/
FoamFile
{
    version     2.0;
    format      ascii;
    class       volScalarField;
    location    "522";
    object      T;
}
// * * * * * * * * * * * * * * * * * * * * * * * * * * * * * * * * * * * * * //

dimensions      [0 0 0 1 0 0 0];

internalField   nonuniform List<scalar> 
5000
(
413.7328
406.98946
399.80421
392.2271
384.32901
376.20176
367.95648
359.71982
351.62802
343.81917
336.42424
329.55809
323.31163
317.7462
312.89117
308.74471
305.27759
302.43904
300.16362
298.37805
297.00716
295.97852
295.2255
294.68907
294.31848
294.07126
293.91282
293.81582
293.75946
293.72856
293.71272
293.70521
293.70191
293.70058
293.70009
293.69992
293.69987
293.69986
293.69985
293.69985
293.69985
293.69985
293.69985
293.69985
293.69985
293.69985
293.69985
293.69985
293.69985
293.69986
432.9403
427.25256
421.13924
414.5892
407.59929
400.17777
392.34859
384.15591
375.66865
366.98401
358.22885
349.55752
341.14498
333.17445
325.82036
319.22905
313.50121
308.68066
304.75274
301.65251
299.27978
297.51671
296.24332
295.34877
294.73764
294.33208
294.07124
293.90922
293.8125
293.75731
293.72743
293.7122
293.70494
293.70173
293.70042
293.69994
293.69977
293.69972
293.69971
293.69971
293.69971
293.69971
293.69971
293.69971
293.69971
293.69971
293.69971
293.69971
293.69971
293.69972
440.17595
434.90536
429.23968
423.16306
416.66355
409.73526
402.38128
394.61738
386.47657
378.01425
369.3132
360.48734
351.68263
343.07303
334.84994
327.20504
320.30828
314.28582
309.20376
305.06247
301.80304
299.3231
297.49677
296.19326
295.29073
294.68434
294.28922
294.03996
293.88818
293.79933
293.74963
293.72323
293.71002
293.70385
293.70118
293.70012
293.69973
293.69961
293.69957
293.69956
293.69956
293.69956
293.69956
293.69956
293.69956
293.69956
293.69956
293.69956
293.69956
293.69958
444.25831
439.22643
433.81834
428.01752
421.81002
415.18606
408.14207
400.6836
392.82899
384.61386
376.09626
367.36173
358.52722
349.74191
341.18297
333.04435
325.5184
318.77262
312.9268
308.03716
304.09223
301.02154
298.71346
297.03614
295.85624
295.05218
294.52125
294.18181
293.97204
293.8471
293.77569
293.73672
293.71658
293.70678
293.70234
293.70048
293.69976
293.69952
293.69944
293.69942
293.69941
293.69941
293.69941
293.69941
293.69941
293.69941
293.69941
293.69941
293.69942
293.69944
447.11047
442.24675
437.02047
431.41515
425.41629
419.01253
412.19733
404.97127
397.345
389.34318
381.00902
372.40944
363.63988
354.82748
346.13063
337.73273
329.82868
322.60425
316.21207
310.75003
306.24892
302.67299
299.93288
297.90562
296.45569
295.45215
294.77961
294.34328
294.06951
293.90377
293.80727
293.75349
293.72497
293.71068
293.70398
293.70106
293.69988
293.69946
293.69932
293.69928
293.69927
293.69926
293.69926
293.69926
293.69926
293.69926
293.69926
293.69927
293.69928
293.6993
449.2554
444.51886
439.43011
433.97286
428.1324
421.89666
415.25749
408.21266
400.76833
392.94243
384.76878
376.30187
367.62185
358.83869
350.09387
341.55753
333.419
325.8698
319.08094
313.17918
308.22918
304.22723
301.1083
298.76324
297.06022
295.86429
295.0515
294.51679
294.17649
293.96734
293.84353
293.77324
293.73515
293.71559
293.70614
293.70188
293.70011
293.69944
293.69921
293.69914
293.69912
293.69912
293.69912
293.69912
293.69912
293.69912
293.69912
293.69912
293.69913
293.69916
450.96633
446.3317
441.35316
436.01464
430.30143
424.20107
417.70444
410.80752
403.5135
395.83578
387.80166
379.45678
370.86998
362.13788
353.38776
344.77695
336.48647
328.7074
321.62041
315.37191
310.05298
305.68774
302.23491
299.6013
297.66221
296.28236
295.33241
294.6994
294.29123
294.03686
293.88402
293.79578
293.74706
293.7215
293.70884
293.70298
293.70047
293.69948
293.69912
293.69901
293.69898
293.69897
293.69897
293.69897
293.69897
293.69897
293.69897
293.69898
293.69899
293.69902
452.37971
447.82958
442.9424
437.70235
432.09479
426.10702
419.72933
412.95645
405.78952
398.23869
390.3265
382.09198
373.59535
364.92265
356.18936
347.54127
339.15042
331.20436
323.88811
317.36122
311.73513
307.05757
303.3093
300.41367
298.25518
296.70072
295.61799
294.88806
294.41176
294.11119
293.92813
293.82085
293.76062
293.7284
293.71211
293.70437
293.70096
293.69957
293.69906
293.69889
293.69884
293.69883
293.69882
293.69882
293.69882
293.69882
293.69882
293.69883
293.69885
293.69888
453.57917
449.10095
444.29154
439.13533
433.61776
427.72604
421.45003
414.7836
407.72635
400.286
392.48146
384.34667
375.93501
367.32401
358.61928
349.9564
341.49865
333.42855
325.93228
319.17801
313.29276
308.34413
304.33285
301.19855
298.83603
297.11616
295.90548
295.08064
294.53659
294.18938
293.97531
293.84816
293.77569
293.73627
293.71593
293.70606
293.7016
293.69973
293.69902
293.69878
293.6987
293.69868
293.69868
293.69867
293.69867
293.69868
293.69868
293.69869
293.6987
293.69873
454.6176
450.20181
445.4599
440.37646
434.93705
429.12882
422.94135
416.36786
409.40678
402.06394
394.35541
386.31106
377.97877
369.42902
360.7591
352.09562
343.59361
335.42997
327.78998
320.84731
314.74093
309.555
305.30816
301.95568
299.40316
297.52664
296.19293
295.27555
294.66454
294.27061
294.02506
293.87744
293.79215
293.74504
293.7203
293.70806
293.70239
293.69996
293.69901
293.69867
293.69857
293.69854
293.69853
293.69853
293.69853
293.69853
293.69853
293.69854
293.69856
293.69859
455.5309
451.17014
446.48772
441.46843
436.09794
430.36339
424.25416
417.76296
410.88731
403.63155
396.00944
388.04754
379.78918
371.29896
362.66704
354.01216
345.48168
337.24671
329.49042
322.38974
316.09274
310.69746
306.23847
302.68577
299.95592
297.93097
296.47906
295.47164
294.79471
294.35424
294.07695
293.90842
293.80986
293.75465
293.7252
293.71036
293.70335
293.70027
293.69904
293.69858
293.69844
293.69839
293.69838
293.69838
293.69838
293.69838
293.69839
293.6984
293.69842
293.69845
456.34439
452.03274
447.40341
442.44138
437.13241
431.46367
425.42439
419.00689
412.20797
405.03072
397.48704
389.6007
381.41126
372.97829
364.3858
355.74554
347.1979
338.90818
331.05675
323.82216
317.35942
311.77816
307.12708
303.38996
300.49424
298.32848
296.76303
295.66811
294.92642
294.43975
294.13063
293.94089
293.82869
293.76505
293.73061
293.71296
293.70447
293.70067
293.6991
293.69851
293.69831
293.69825
293.69824
293.69823
293.69823
293.69824
293.69824
293.69825
293.69828
293.69831
457.07654
452.80918
448.22772
443.3173
438.06381
432.45444
426.47832
420.12746
413.39806
406.2922
398.82019
391.00349
382.87839
374.50019
365.9475
357.3259
348.76932
340.4375
332.50752
325.15843
318.55049
312.80298
307.97714
304.06958
301.01832
298.71882
297.04425
295.86434
295.05914
294.52673
294.18579
293.97464
293.84853
293.77617
293.7365
293.71586
293.70576
293.70114
293.6992
293.69845
293.69819
293.69811
293.69809
293.69809
293.69809
293.69809
293.6981
293.69811
293.69814
293.69817
457.74125
453.51415
448.97623
444.11274
438.90971
433.35435
427.43573
421.14561
414.47968
407.43919
400.0331
392.28087
384.21601
375.89005
367.37692
358.77663
350.21722
341.8531
333.85781
326.41008
319.67405
313.77712
308.79161
304.72598
301.52856
299.10185
297.32235
296.05992
295.19247
294.61485
294.24219
294.00951
293.86927
293.78796
293.74285
293.71905
293.70722
293.70171
293.69934
293.69841
293.69808
293.69798
293.69795
293.69794
293.69794
293.69794
293.69795
293.69797
293.69799
293.69803
458.3492
454.15898
449.66092
444.84042
439.68361
434.17774
428.31183
422.07744
415.46986
408.4896
401.14446
393.45219
385.44386
377.16773
368.69352
360.11626
351.55861
343.16988
335.11998
327.58672
320.73703
314.70513
309.57315
305.36053
302.02545
299.47756
297.5971
296.25451
295.32611
294.70385
294.29962
294.04536
293.89081
293.80036
293.74962
293.72252
293.70884
293.70237
293.69953
293.69839
293.69798
293.69784
293.6978
293.69779
293.69779
293.6978
293.69781
293.69782
293.69785
293.69788
458.90876
454.75254
450.29121
445.51033
440.39611
434.93587
429.11858
422.93565
416.382
409.45752
402.16901
394.53273
386.5776
378.34897
369.91282
361.3597
352.80728
344.40007
336.30431
328.69645
321.74539
315.59103
310.32422
305.97449
302.50951
299.84605
297.86835
296.44789
295.45979
294.79351
294.35793
294.08205
293.91308
293.81333
293.75681
293.72626
293.71062
293.70311
293.69976
293.69839
293.69788
293.69771
293.69766
293.69765
293.69765
293.69765
293.69766
293.69768
293.69771
293.69774
459.42662
455.3019
450.87462
446.13044
441.0557
435.63774
429.86554
423.73034
417.22679
410.35422
403.11857
395.53476
387.62982
379.4465
371.04745
362.5191
353.97455
345.5538
337.41941
329.74616
322.70427
316.43835
311.04701
306.56909
302.98128
300.20743
298.13601
296.63989
295.59334
294.88365
294.41695
294.11948
293.93601
293.82681
293.76436
293.73025
293.71257
293.70395
293.70005
293.69841
293.69779
293.69758
293.69752
293.6975
293.6975
293.69751
293.69752
293.69754
293.69756
293.6976
459.9082
455.81282
451.41723
446.70723
441.66923
436.29065
430.56043
424.46974
418.01294
411.18888
404.00274
396.46827
388.61079
380.47075
372.10774
363.60448
355.06985
346.63954
338.47255
330.74175
323.61811
317.25021
311.74351
307.14545
303.4413
300.56189
298.40006
296.83037
295.7266
294.97413
294.47658
294.15756
293.95951
293.84077
293.77228
293.73449
293.71467
293.70489
293.70038
293.69846
293.69772
293.69746
293.69738
293.69736
293.69736
293.69736
293.69737
293.69739
293.69742
293.69745
460.35796
456.29
451.92404
447.24598
442.24234
436.90058
431.20964
425.1606
418.74757
411.96902
404.82942
397.34148
389.52899
381.43032
373.10229
364.62422
356.10106
347.66447
339.46994
331.6883
324.49083
318.02938
312.41551
307.7046
303.89008
300.9096
298.66049
297.01925
295.85945
295.06484
294.5367
294.19621
293.98355
293.85516
293.78053
293.73896
293.71693
293.70591
293.70076
293.69853
293.69765
293.69734
293.69724
293.69721
293.69721
293.69722
293.69723
293.69725
293.69728
293.69731
460.77959
456.73736
452.3992
447.75112
442.77971
437.47251
431.81844
425.80851
419.43664
412.70092
405.6052
398.16126
390.39152
382.33243
374.03832
365.58536
357.07487
348.63469
340.41691
332.5902
325.32582
318.7783
313.06465
308.24753
304.32813
301.25076
298.91733
297.20647
295.99178
295.15566
294.59723
294.23536
294.00806
293.86996
293.78909
293.74366
293.71933
293.70702
293.70119
293.69863
293.6976
293.69722
293.6971
293.69707
293.69707
293.69707
293.69708
293.69711
293.69714
293.69717
461.17618
457.15818
452.84619
448.22633
443.28528
438.01061
432.39127
426.41819
420.08513
413.38983
406.33561
398.93339
391.20434
383.18318
374.92194
366.4939
357.99699
349.55545
341.31808
333.45132
326.1261
319.49919
313.69239
308.77513
304.75591
301.58557
299.17061
297.39196
296.12353
295.24651
294.65809
294.27494
294.033
293.88513
293.79794
293.74857
293.72188
293.70823
293.70167
293.69875
293.69755
293.69711
293.69697
293.69693
293.69692
293.69693
293.69694
293.69696
293.69699
293.69702
461.55036
457.55525
453.26798
448.67477
443.76237
438.51842
432.93189
426.99363
420.69726
414.04024
407.02536
399.66277
391.97253
383.98776
375.75838
367.35498
358.87234
350.43129
342.17746
334.27502
326.89434
320.19399
314.30007
309.28821
305.17388
301.91423
299.42038
297.57572
296.25463
295.33732
294.71921
294.3149
294.05833
293.90064
293.80707
293.75368
293.72457
293.70952
293.7022
293.6989
293.69752
293.69701
293.69683
293.69678
293.69678
293.69678
293.6968
293.69682
293.69685
293.69688
461.90438
457.93093
453.66707
449.09908
444.21382
438.99897
433.44351
427.53825
421.27666
414.65594
407.67844
400.35361
392.70044
384.75063
376.55211
368.17302
359.70516
351.26616
342.99857
335.06427
327.63291
320.86449
314.88891
309.78754
305.58246
302.23694
299.6667
297.75772
296.38502
295.42804
294.78054
294.35518
294.084
293.91647
293.81645
293.75898
293.72739
293.7109
293.70279
293.69907
293.69751
293.69691
293.6967
293.69664
293.69663
293.69664
293.69665
293.69667
293.69671
293.69673
462.24016
458.28728
454.04563
449.50159
444.64209
439.45486
433.92889
428.05496
421.82643
415.24025
408.29834
401.00952
393.39184
385.47564
377.30704
368.95188
360.49918
352.06353
343.78451
335.82173
328.34395
321.51227
315.46001
310.27383
305.98205
302.55388
299.90962
297.93794
296.51466
295.5186
294.84203
294.39576
294.10999
293.93258
293.82607
293.76447
293.73034
293.71236
293.70342
293.69928
293.69751
293.69681
293.69657
293.6965
293.69649
293.69649
293.69651
293.69653
293.69656
293.69659
462.55937
458.62606
454.40554
449.88429
445.04929
439.88833
434.39043
428.54633
422.34928
415.796
408.88806
401.63366
394.05
386.16614
378.02656
369.69491
361.25765
352.82643
344.53801
336.54974
329.02934
322.13878
316.01439
310.74773
306.37303
302.86525
300.14923
298.1164
296.64353
295.60897
294.90363
294.43658
294.13626
293.94896
293.83591
293.77013
293.73342
293.71391
293.70411
293.69951
293.69752
293.69673
293.69645
293.69636
293.69634
293.69635
293.69636
293.69639
293.69642
293.69644
462.86347
458.94881
454.74844
450.24891
445.43726
440.30136
434.83021
429.01456
422.84754
416.32568
409.45021
402.22878
394.67776
386.82508
378.71364
370.40509
361.98342
353.55756
345.26152
337.25039
329.6908
322.74533
316.55299
311.20985
306.75576
303.17122
300.38559
298.29309
296.77159
295.69909
294.9653
294.47761
294.16279
293.96558
293.84596
293.77595
293.73661
293.71553
293.70485
293.69977
293.69754
293.69665
293.69632
293.69622
293.6962
293.6962
293.69622
293.69624
293.69627
293.6963
463.15373
459.25689
455.07576
450.59697
445.80764
440.69566
435.25008
429.4616
423.32329
416.83149
409.9871
402.79728
395.27764
387.45503
379.37091
371.08502
362.67906
354.25933
345.95721
337.92559
330.32989
323.33312
317.07665
311.66075
307.13056
303.47197
300.61876
298.46802
296.89882
295.78895
295.027
294.51883
294.18955
293.98243
293.85621
293.78193
293.73992
293.71724
293.70563
293.70006
293.69758
293.69657
293.6962
293.69609
293.69606
293.69606
293.69607
293.6961
293.69613
293.69615
463.43127
459.55148
455.38877
450.92982
446.16184
441.07275
435.65163
429.88917
423.77835
417.31534
410.50076
403.34129
395.85185
388.05829
380.00069
371.73703
363.3468
354.93386
346.62703
338.57702
330.948
323.90323
317.58616
312.10096
307.49776
303.76767
300.84882
298.64122
297.02521
295.87852
295.08871
294.56019
294.21651
293.99948
293.86664
293.78806
293.74334
293.71902
293.70647
293.70038
293.69764
293.69651
293.69609
293.69595
293.69591
293.69592
293.69593
293.69596
293.69599
293.69601
463.6971
459.83365
455.68858
451.24866
446.50113
441.43398
436.0363
430.29878
424.21432
417.77895
410.993
403.86272
396.40238
388.63689
380.60505
372.36317
363.98869
355.58309
347.27274
339.20624
331.54642
324.45666
318.08226
312.53096
307.85766
304.05847
301.07583
298.81268
297.15074
295.96776
295.1504
294.60169
294.24366
294.01673
293.87724
293.79432
293.74686
293.72087
293.70735
293.70073
293.69771
293.69645
293.69597
293.69581
293.69577
293.69577
293.69579
293.69581
293.69584
293.69586
463.9521
460.10434
455.9762
451.55453
446.82663
441.78054
436.40537
430.6918
424.63265
418.22383
411.46541
404.36324
396.93096
389.19263
381.18584
372.9653
364.60652
356.20872
347.89593
339.81462
332.12632
324.99432
318.5656
312.9512
308.21054
304.34454
301.29987
298.98244
297.27541
296.05666
295.21204
294.64328
294.27097
294.03415
293.88799
293.80071
293.75049
293.7228
293.70828
293.7011
293.6978
293.6964
293.69586
293.69568
293.69563
293.69563
293.69564
293.69567
293.6957
293.69572
464.19706
460.36437
456.25251
451.84839
447.13936
442.1135
436.75997
431.06941
425.03462
418.65134
411.91943
404.84435
397.43918
389.72715
381.7447
373.54509
365.20194
356.81233
348.49802
340.40344
332.68874
325.51707
319.03683
313.36212
308.55665
304.62601
301.52101
299.15052
297.39921
296.1452
295.27362
294.68496
294.29842
294.05173
293.8989
293.80723
293.75421
293.72479
293.70925
293.70151
293.6979
293.69636
293.69575
293.69555
293.69549
293.69548
293.6955
293.69552
293.69555
293.69557
464.43269
460.61451
456.51832
452.13108
447.4402
442.43383
437.10112
431.43272
425.42137
419.0627
412.35635
405.30742
397.92845
390.2419
382.28315
374.10402
365.77641
357.39532
349.08033
340.97386
333.23468
326.02568
319.49651
313.76412
308.89626
304.90303
301.73931
299.31693
297.52214
296.23336
295.3351
294.7267
294.32601
294.06945
293.90994
293.81386
293.75802
293.72685
293.71027
293.70194
293.69802
293.69632
293.69565
293.69542
293.69535
293.69534
293.69535
293.69538
293.69541
293.69543
464.65962
460.85543
456.77434
452.40336
447.72999
442.74238
437.42973
431.7827
425.79395
419.45902
412.77733
405.75366
398.40004
390.7382
382.80251
374.64347
366.33127
357.95897
349.64405
341.52694
333.76504
326.52087
319.94518
314.15757
309.22961
305.17574
301.95485
299.4817
297.6442
296.32114
295.39649
294.76849
294.35371
294.08731
293.92111
293.82061
293.76191
293.72898
293.71134
293.7024
293.69816
293.6963
293.69555
293.69529
293.69521
293.6952
293.69521
293.69524
293.69526
293.69528
464.87845
461.08774
457.02121
452.66593
448.00944
443.03994
437.74665
432.12022
426.15329
419.84127
413.18341
406.18417
398.85511
391.21725
383.30402
375.16465
366.86774
358.50446
350.19026
342.06365
334.28063
327.0033
320.38335
314.54281
309.55691
305.44427
302.16767
299.64485
297.76538
296.40852
295.45776
294.81032
294.38151
294.1053
293.9324
293.82746
293.76589
293.73116
293.71245
293.70289
293.69831
293.69628
293.69546
293.69516
293.69507
293.69505
293.69507
293.69509
293.69512
293.69513
465.08968
461.312
457.25953
452.91941
448.27922
443.3272
438.05261
432.44609
426.50024
420.21037
413.57555
406.59996
399.29469
391.68013
383.78879
375.6687
367.38693
359.03286
350.71995
342.58489
334.78223
327.47359
320.81148
314.92018
309.87839
305.70875
302.37786
299.80641
297.8857
296.49549
295.5189
294.85216
294.40941
294.12339
293.9438
293.8344
293.76995
293.73341
293.7136
293.7034
293.69848
293.69627
293.69537
293.69503
293.69493
293.69491
293.69492
293.69495
293.69497
293.69499
465.29379
461.52871
457.48984
453.16437
448.53993
443.60482
438.34831
432.76103
426.83556
420.56713
413.95462
407.00193
399.71975
392.12783
384.25783
376.15662
367.88985
359.54513
351.23406
343.09147
335.27054
327.93232
321.23001
315.29
310.19424
305.96928
302.58547
299.9664
298.00515
296.58206
295.57989
294.89401
294.43738
294.14159
293.95531
293.84144
293.77409
293.73572
293.71479
293.70395
293.69866
293.69627
293.69528
293.69491
293.69479
293.69477
293.69478
293.6948
293.69483
293.69484
465.49122
461.73833
457.71262
453.40133
448.79214
443.87338
438.63436
433.06571
427.15997
420.91229
414.32139
407.39091
400.13114
392.56125
384.71206
376.62937
368.37742
360.04218
351.73341
343.58417
335.74621
328.38002
321.63936
315.65254
310.50466
306.22599
302.79056
300.12485
298.12374
296.6682
295.64074
294.93585
294.46541
294.15989
293.96692
293.84857
293.7783
293.73808
293.71602
293.70451
293.69886
293.69628
293.6952
293.69479
293.69466
293.69463
293.69464
293.69466
293.69468
293.6947
465.68236
461.94128
457.92831
453.63075
449.03633
444.13342
438.91133
433.36073
427.47411
421.24654
414.6766
407.76768
400.52968
392.98121
385.15234
377.0878
368.85051
360.52484
352.21879
344.06367
336.20986
328.81718
322.03989
316.0081
310.80983
306.47899
302.99318
300.28179
298.24147
296.75392
295.70142
294.97768
294.49351
294.17828
293.97861
293.85578
293.78257
293.74049
293.71729
293.70511
293.69908
293.6963
293.69512
293.69467
293.69452
293.69449
293.69449
293.69451
293.69454
293.69455
465.86757
462.13793
458.13732
453.85307
449.27297
444.38541
439.17975
433.64665
427.77857
421.5705
415.0209
408.13291
400.91608
393.38848
385.57944
377.53269
369.30988
360.99386
352.69091
344.53064
336.66205
329.24429
322.43199
316.35692
311.10992
306.72839
303.19341
300.43724
298.35836
296.83922
295.76194
295.01949
294.52166
294.19674
293.9904
293.86307
293.78692
293.74295
293.71859
293.70573
293.69931
293.69633
293.69505
293.69455
293.69438
293.69434
293.69435
293.69437
293.69439
293.69441
466.04719
462.32866
458.34003
454.0687
449.50248
444.62982
439.4401
433.92397
428.07388
421.88475
415.3549
408.48725
401.29101
393.78375
385.99407
377.96478
369.75628
361.44996
353.15044
344.98568
337.10331
329.66176
322.81598
316.69926
311.4051
306.97428
303.39129
300.59122
298.47441
296.92409
295.82228
295.06127
294.54985
294.21528
294.00226
293.87043
293.79132
293.74547
293.71994
293.70637
293.69956
293.69637
293.69498
293.69444
293.69425
293.6942
293.69421
293.69423
293.69425
293.69426
466.22152
462.51377
458.53678
454.27799
449.72525
444.86706
439.69281
434.19316
428.36054
422.18981
415.67916
408.83129
401.65509
394.16765
386.39691
378.38473
370.19037
361.89379
353.598
345.42936
337.53414
330.07002
323.19219
317.03535
311.69553
307.21677
303.58688
300.74376
298.58963
297.00853
295.88244
295.10301
294.57808
294.23388
294.0142
293.87787
293.79579
293.74803
293.72132
293.70704
293.69983
293.69641
293.69492
293.69432
293.69412
293.69406
293.69406
293.69408
293.6941
293.69411
466.39084
462.69357
458.72789
454.48128
449.94165
445.09751
439.93829
434.45466
428.63903
422.48618
415.99419
409.16558
402.0089
394.5408
386.78855
378.79317
370.61277
362.32594
354.03415
345.86219
337.95498
330.46944
323.56091
317.3654
311.98136
307.45594
303.78023
300.89489
298.70402
297.09254
295.94242
295.1447
294.60633
294.25255
294.02621
293.88537
293.80031
293.75064
293.72273
293.70774
293.70011
293.69647
293.69486
293.69421
293.69398
293.69392
293.69392
293.69394
293.69396
293.69397
466.55542
462.86834
458.91365
454.67889
450.15199
445.32152
440.17692
434.70887
428.90975
422.7743
416.30048
409.49061
402.35296
394.90373
387.16958
379.19067
371.02405
362.74699
354.45945
346.28468
338.36628
330.86039
323.92243
317.68964
312.26273
307.69189
303.97139
301.04463
298.8176
297.17612
296.00221
295.18635
294.63461
294.27127
294.03828
293.89293
293.80489
293.7533
293.72418
293.70846
293.70041
293.69653
293.69481
293.69411
293.69385
293.69378
293.69378
293.69379
293.69381
293.69382
466.7155
463.03833
459.09434
454.8711
450.3566
445.53942
440.40905
434.95615
429.1731
423.05459
416.59845
409.80686
402.68776
395.25695
387.5405
379.57777
371.42476
363.15745
354.87438
346.69728
338.76844
331.2432
324.27703
318.00825
312.53978
307.92471
304.16041
301.19301
298.93038
297.25927
296.06181
295.22794
294.66291
294.29005
294.05042
293.90056
293.80953
293.75599
293.72566
293.7092
293.70072
293.69661
293.69476
293.694
293.69372
293.69364
293.69363
293.69365
293.69367
293.69368
466.8713
463.20378
459.2702
455.05819
450.55575
445.75152
440.63499
435.19684
429.42945
423.32743
416.88854
410.11474
403.01376
395.60095
387.90182
379.95496
371.81538
363.55782
355.27941
347.10041
339.16184
331.61819
324.62494
318.32143
312.81264
308.15447
304.34734
301.34004
299.04235
297.342
296.12121
295.26947
294.69122
294.30887
294.06262
293.90824
293.81421
293.75873
293.72717
293.70996
293.70105
293.69669
293.69472
293.6939
293.69359
293.6935
293.69349
293.6935
293.69352
293.69353
467.02302
463.36491
459.44148
455.24039
450.74971
445.95809
440.85505
435.43128
429.67913
423.59319
417.17111
410.41468
403.33136
395.93614
388.25398
380.32271
372.19638
363.94855
355.67497
347.49449
339.54683
331.98567
324.96641
318.62936
313.08143
308.38126
304.53222
301.48576
299.15354
297.42429
296.18041
295.31094
294.71954
294.32774
294.07487
293.91598
293.81895
293.76151
293.72872
293.71075
293.70139
293.69679
293.69468
293.6938
293.69347
293.69336
293.69335
293.69336
293.69338
293.69339
467.17087
463.52192
459.60838
455.41795
450.93872
446.1594
441.0695
435.65975
429.92247
423.85221
417.44651
410.70704
403.64098
396.26296
388.5974
380.68145
372.5682
364.33007
356.06148
347.87988
339.92375
332.34592
325.30168
318.9322
313.34627
308.60516
304.71511
301.63019
299.26396
297.50617
296.23941
295.35234
294.74786
294.34664
294.08718
293.92378
293.82373
293.76433
293.73029
293.71156
293.70175
293.69689
293.69465
293.6937
293.69334
293.69323
293.6932
293.69322
293.69323
293.69324
467.31502
463.67501
459.77112
455.59108
451.12302
446.35568
441.27861
435.88253
430.15976
424.10479
417.71509
410.99217
403.94297
396.58178
388.9325
381.03158
372.93125
364.70278
356.43931
348.25695
340.29291
332.6992
325.63095
319.23012
313.60729
308.82623
304.89604
301.77334
299.37361
297.58762
296.29821
295.39367
294.77619
294.36558
294.09953
293.93162
293.82855
293.76719
293.7319
293.71239
293.70212
293.69701
293.69463
293.69361
293.69322
293.69309
293.69306
293.69307
293.69309
293.69309
467.45564
463.82436
459.92988
455.75997
451.30282
446.54718
441.48262
436.09988
430.39126
424.35122
417.97715
411.27039
404.23768
396.89295
389.25962
381.37349
373.28589
365.06705
356.80883
348.62603
340.65462
333.04577
325.95443
319.52327
313.86457
309.04455
305.07505
301.91524
299.48249
297.66865
296.35681
295.43493
294.80451
294.38456
294.11193
293.93951
293.83342
293.77008
293.73353
293.71325
293.70251
293.69713
293.69461
293.69352
293.69309
293.69295
293.69292
293.69293
293.69294
293.69295
467.59289
463.97012
460.08483
455.92483
451.47833
446.7341
441.68176
436.31204
430.61724
424.59179
418.23297
411.54202
404.52544
397.19681
389.57913
381.70752
373.6325
365.42323
357.17038
348.98743
341.00916
333.38587
326.27231
319.81181
314.11824
309.26019
305.2522
302.05592
299.59064
297.74926
296.4152
295.47611
294.83283
294.40356
294.12437
293.94745
293.83834
293.77301
293.73519
293.71412
293.70291
293.69726
293.69459
293.69343
293.69297
293.69282
293.69278
293.69278
293.6928
293.6928
467.72691
464.11247
460.23615
456.08582
451.64971
446.91664
441.87623
436.51924
430.83795
424.82674
418.48284
411.80734
404.80653
397.49369
389.89134
382.03402
373.9714
365.77166
357.52427
349.34144
341.35679
333.71974
326.58478
320.09587
314.36839
309.47322
305.42751
302.19539
299.69804
297.82946
296.47339
295.51721
294.86114
294.42259
294.13686
293.95543
293.84329
293.77598
293.73688
293.71502
293.70333
293.6974
293.69459
293.69335
293.69285
293.69268
293.69264
293.69264
293.69265
293.69266
467.85785
464.25154
460.384
456.24312
451.81717
447.095
442.06625
436.72169
431.05359
425.05631
418.727
412.06661
405.08124
397.78386
390.19657
382.35328
374.30291
366.11264
357.8708
349.68836
341.69776
334.04758
326.89202
320.37559
314.61512
309.68369
305.60102
302.33368
299.80471
297.90925
296.53137
295.55823
294.88944
294.44165
294.14938
293.96345
293.84828
293.77898
293.7386
293.71593
293.70376
293.69755
293.69458
293.69327
293.69273
293.69255
293.6925
293.6925
293.69251
293.69251
467.98583
464.38747
460.52851
456.39686
451.98085
447.26933
442.25199
436.91958
431.26439
425.28073
418.96569
412.32009
405.34983
398.06761
390.49508
382.6656
374.62732
366.44646
358.21025
350.02844
342.03232
334.36959
327.19419
320.65109
314.85852
309.89167
305.77278
302.47081
299.91067
297.98863
296.58915
295.59917
294.91772
294.46073
294.16194
293.97152
293.85331
293.78201
293.74034
293.71687
293.70421
293.69772
293.69459
293.69319
293.69262
293.69241
293.69236
293.69235
293.69236
293.69237
468.11098
464.5204
460.66982
456.54722
452.14092
447.43982
442.43363
437.11312
431.47055
425.50022
419.19913
412.56801
405.61257
398.3452
390.78717
382.97127
374.94492
366.77342
358.5429
350.36193
342.36068
334.68599
327.49145
320.9225
315.09868
310.09723
305.94282
302.60679
300.01591
298.0676
296.64672
295.64002
294.946
294.47983
294.17454
293.97962
293.85838
293.78507
293.74211
293.71782
293.70467
293.69789
293.6946
293.69311
293.6925
293.69228
293.69222
293.69221
293.69222
293.69222
468.23341
464.65044
460.80807
456.69431
452.29751
447.60662
442.61134
437.30246
431.67225
425.71496
419.42754
412.8106
405.86967
398.61687
391.07308
383.27054
375.25596
367.09376
358.86899
350.68908
342.68307
334.99695
327.78396
321.18994
315.33568
310.3004
306.11118
302.74165
300.12046
298.14617
296.70408
295.68079
294.97425
294.49894
294.18717
293.98776
293.86348
293.78816
293.7439
293.7188
293.70514
293.69807
293.69461
293.69304
293.69239
293.69215
293.69208
293.69207
293.69207
293.69208
468.35322
464.7777
460.94337
456.83827
452.45078
447.76987
442.78527
437.48778
431.86967
425.92515
419.65112
413.04807
406.12137
398.88286
391.35305
383.56366
375.5607
367.40773
359.18876
351.0101
342.99968
335.30264
328.07186
321.45352
315.56961
310.50126
306.27788
302.8754
300.22432
298.22435
296.76124
295.72148
295.00248
294.51807
294.19983
293.99594
293.86862
293.79129
293.74572
293.71979
293.70563
293.69826
293.69464
293.69298
293.69228
293.69202
293.69194
293.69192
293.69193
293.69193
468.47053
464.90231
461.07585
456.97922
452.60084
447.92971
442.95557
437.66924
432.06297
426.13096
419.87005
413.28062
406.36786
399.14338
391.6273
383.85085
375.85938
367.71557
359.50245
351.32521
343.31071
335.60324
328.35528
321.71334
315.80054
310.69986
306.44297
303.00807
300.32749
298.30213
296.8182
295.76207
295.0307
294.53722
294.21253
294.00415
293.87379
293.79444
293.74757
293.72081
293.70613
293.69846
293.69466
293.69291
293.69217
293.69189
293.6918
293.69178
293.69178
293.69179
468.58543
465.02435
461.2056
457.11727
452.74783
448.08627
443.12238
437.84698
432.25231
426.33257
420.08451
413.50843
406.60935
399.39864
391.89606
384.13235
376.1522
368.01749
359.81026
351.63461
343.61635
335.89891
328.63437
321.96952
316.02855
310.89624
306.60647
303.13967
300.42999
298.37951
296.87495
295.80257
295.05889
294.55638
294.22525
294.01239
293.879
293.79762
293.74943
293.72184
293.70665
293.69867
293.6947
293.69285
293.69206
293.69176
293.69166
293.69164
293.69164
293.69164
468.698
465.14393
461.33274
457.25255
452.89185
448.23968
443.28583
438.02114
432.43785
426.53012
420.29467
413.73168
406.84603
399.64883
392.15952
384.40835
376.43939
368.31372
360.1124
351.9385
343.91677
336.18979
328.90925
322.22215
316.25371
311.09045
306.76841
303.27022
300.53183
298.45651
296.93149
295.84299
295.08706
294.57555
294.23799
294.02067
293.88424
293.80084
293.75132
293.72289
293.70718
293.69888
293.69474