/*--------------------------------*- C++ -*----------------------------------*\
| =========                 |                                                 |
| \\      /  F ield         | OpenFOAM: The Open Source CFD Toolbox           |
|  \\    /   O peration     | Version:  4.0                                   |
|   \\  /    A nd           | Web:      www.OpenFOAM.org                      |
|    \\/     M anipulation  |                                                 |
\*---------------------------------------------------------------------------*/
FoamFile
{
    version     2.0;
    format      ascii;
    class       volVectorField;
    location    "522";
    object      U;
}
// * * * * * * * * * * * * * * * * * * * * * * * * * * * * * * * * * * * * * //

dimensions      [0 1 -1 0 0 0 0];

internalField   nonuniform List<vector> 
5000
(
(3.6804862e-05 3.2759543e-20 0.010012464)
(9.1341454e-05 1.0001498e-19 0.029089348)
(0.00022108545 1.702508e-19 0.047944858)
(0.00039149797 2.3371181e-19 0.066274744)
(0.00060095787 2.9818091e-19 0.083747054)
(0.0008411821 3.5576593e-19 0.10001413)
(0.0011009346 3.9838962e-19 0.1147288)
(0.0013665693 4.720247e-19 0.12756407)
(0.0016238519 4.7722684e-19 0.13823513)
(0.0018588634 4.8780552e-19 0.14652157)
(0.0020591708 5.2715698e-19 0.15228744)
(0.0022148899 4.9992029e-19 0.15549655)
(0.0023194389 5.4446118e-19 0.15622064)
(0.0023698717 5.9597913e-19 0.15463911)
(0.0023667847 6.4423932e-19 0.15102957)
(0.0023138584 6.7054578e-19 0.14575003)
(0.0022171506 7.0598579e-19 0.13921427)
(0.0020842762 7.5489354e-19 0.13186284)
(0.0019235905 6.1523735e-19 0.1241326)
(0.0017434586 2.9822585e-19 0.11642797)
(0.0015516602 2.1508259e-19 0.10909647)
(0.0013549514 3.5756858e-19 0.10241071)
(0.0011587798 3.2221788e-19 0.096557851)
(0.00096713123 2.9494949e-19 0.09163694)
(0.00078248544 2.7393623e-19 0.087663862)
(0.00060587572 2.7409303e-19 0.084583367)
(0.00043709101 2.9110592e-19 0.082286912)
(0.00027535953 2.7978986e-19 0.080634065)
(0.00012374886 2.4560568e-19 0.079473889)
(4.2981962e-05 2.7494505e-19 0.078663903)
(-4.6223542e-05 3.3542836e-19 0.07809315)
(-0.00019275902 1.6115253e-19 0.077671806)
(-0.00034317675 8.5823926e-20 0.077338571)
(-0.00049115984 4.3526238e-20 0.07705739)
(-0.00063829161 -2.2576772e-20 0.076809619)
(-0.00077607808 -8.4985696e-20 0.076586036)
(-0.00091747891 -1.6497832e-19 0.076384829)
(-0.0010330565 -2.468916e-19 0.076201483)
(-0.0011706894 -2.6854809e-19 0.076042553)
(-0.0012489215 -4.9060946e-19 0.075893576)
(-0.0013910332 -5.4038086e-19 0.07577777)
(-0.0014179426 -4.0518016e-19 0.075651966)
(-0.0015754604 -3.3947408e-19 0.075579036)
(-0.0015421927 -2.3772742e-19 0.075457379)
(-0.0017213953 -1.2036541e-19 0.075424576)
(-0.0016239036 -1.0389064e-19 0.075280753)
(-0.001817726 -1.1072018e-19 0.075277701)
(-0.0016470335 -1.2151718e-19 0.075053203)
(-0.0018102169 -1.2202371e-19 0.074794302)
(-0.0015135509 -1.2363439e-19 0.070220361)
(2.0412816e-05 1.5003615e-20 0.012178019)
(-7.5310871e-06 4.4633166e-20 0.035710496)
(-4.4282384e-05 7.7703949e-20 0.059371017)
(-0.00010787409 1.1507122e-19 0.082843184)
(-0.0002057177 1.5447438e-19 0.10575042)
(-0.00034445002 2.0414294e-19 0.12765658)
(-0.0005309443 2.4135099e-19 0.14807183)
(-0.00077218698 2.6520518e-19 0.16646589)
(-0.00107474 3.2064528e-19 0.1822909)
(-0.0014438636 3.7411486e-19 0.19501586)
(-0.001882307 4.5154675e-19 0.20417316)
(-0.0023888464 4.9042411e-19 0.2094153)
(-0.0029567825 4.4723896e-19 0.21057598)
(-0.0035727597 4.2329596e-19 0.20772434)
(-0.0042163633 4.0456902e-19 0.20119722)
(-0.0048609271 3.6748762e-19 0.19159323)
(-0.0054757663 3.6195721e-19 0.17971968)
(-0.0060296451 2.8787719e-19 0.16649743)
(-0.0064948097 4.7927337e-19 0.15284463)
(-0.0068505951 8.7767797e-19 0.13956928)
(-0.0070856643 5.3219487e-19 0.12729561)
(-0.0071983859 7.6477705e-20 0.11643481)
(-0.0071954926 1.2228507e-19 0.10719482)
(-0.0070896798 1.5240965e-19 0.099614724)
(-0.0068969135 1.0406281e-19 0.093608725)
(-0.0066338884 8.9952586e-20 0.089009092)
(-0.0063163572 5.9107025e-20 0.085602784)
(-0.0059605359 1.5767812e-19 0.083160626)
(-0.0055865317 2.6857823e-19 0.081459698)
(-0.0051872118 1.7815165e-19 0.080300532)
(-0.004789443 2.6379179e-19 0.079514557)
(-0.0044005131 1.5115614e-19 0.078972215)
(-0.0040287165 -3.5767578e-20 0.078577271)
(-0.0036800214 2.8034886e-20 0.078267587)
(-0.0033610057 1.0435125e-20 0.078005853)
(-0.0030722325 -2.8950877e-20 0.077771918)
(-0.0028239906 -1.3155029e-19 0.077555789)
(-0.0026019242 -2.9740935e-19 0.077353525)
(-0.0024362219 -3.1231657e-19 0.077163148)
(-0.0022739448 -5.9492242e-19 0.076984062)
(-0.0021978258 -5.2294504e-19 0.076816538)
(-0.0020768211 -4.2505231e-19 0.076656133)
(-0.002091564 -3.437873e-19 0.0765097)
(-0.0019887886 -2.4081185e-19 0.076356836)
(-0.0020895106 -1.1831564e-19 0.076225358)
(-0.001985478 -1.049109e-19 0.076054138)
(-0.0021665424 -1.1064397e-19 0.07591302)
(-0.0020320783 -1.2083642e-19 0.075581307)
(-0.0022964131 -1.2076102e-19 0.074636967)
(-0.0017064872 -1.1583669e-19 0.066240097)
(4.3360246e-06 -2.2287946e-20 0.013869818)
(-8.6814489e-06 -6.6526842e-20 0.040811754)
(-3.8828268e-05 -1.1477928e-19 0.068069792)
(-9.2835984e-05 -1.4517028e-19 0.095314701)
(-0.00017527447 -1.871794e-19 0.1221472)
(-0.00029066548 -2.1940723e-19 0.14809483)
(-0.00044365669 -2.5472032e-19 0.172613)
(-0.00063894355 -3.1271143e-19 0.19509266)
(-0.00088110079 -3.4729873e-19 0.21487738)
(-0.0011743292 -3.3148178e-19 0.23129325)
(-0.0015220825 -3.3884862e-19 0.24369424)
(-0.0019265136 -3.5528908e-19 0.25152422)
(-0.0023876693 -1.180155e-19 0.2543932)
(-0.0029023852 8.7433144e-20 0.2521592)
(-0.0034629387 2.6230489e-19 0.24499973)
(-0.0040557286 4.0275057e-19 0.23345094)
(-0.0046605117 5.6309095e-19 0.21839156)
(-0.00525087 5.3154805e-19 0.20095998)
(-0.005796384 8.3613143e-19 0.18241333)
(-0.0062663844 1.1976922e-18 0.16396089)
(-0.0066344101 1.0408754e-18 0.14661603)
(-0.0068820784 3.9383785e-19 0.13110294)
(-0.0070012831 1.6673381e-19 0.11783143)
(-0.006994327 7.5620967e-20 0.10692937)
(-0.0068723596 -4.5278035e-20 0.098308271)
(-0.0066528104 -1.3416782e-19 0.091737716)
(-0.0063564288 -1.912642e-19 0.086911912)
(-0.0060050428 -2.9025349e-20 0.083500888)
(-0.0056218078 2.1166411e-19 0.081186048)
(-0.0052245324 6.8436607e-20 0.079682555)
(-0.0048310419 4.6142484e-20 0.078748963)
(-0.0044548244 3.2113243e-19 0.078192941)
(-0.0041059417 4.7656591e-20 0.077870393)
(-0.0037904402 4.4722085e-20 0.077681435)
(-0.0035117138 5.7114585e-20 0.077562038)
(-0.003268023 3.8223778e-20 0.077474699)
(-0.0030616697 9.566394e-20 0.077399173)
(-0.0028803179 -3.2950726e-19 0.077326334)
(-0.0027399594 -4.3472176e-19 0.077251173)
(-0.0026029925 -3.9757535e-19 0.077173841)
(-0.0025273935 -1.6648147e-19 0.077091599)
(-0.0024176573 -4.1186047e-19 0.077007057)
(-0.0024145722 -3.7721583e-19 0.076918094)
(-0.0023203472 -4.2215044e-19 0.076822896)
(-0.0024035378 -1.2438843e-19 0.076728548)
(-0.0023155783 -9.3133874e-20 0.076605541)
(-0.0025156925 1.0968724e-21 0.076483547)
(-0.002381169 -1.0203993e-19 0.076079622)
(-0.0027524985 9.2966169e-21 0.074492334)
(-0.0019691741 -1.0832383e-19 0.063103518)
(3.4176035e-06 -7.881395e-20 0.015290838)
(-7.5504243e-06 -2.3769116e-19 0.04509353)
(-3.3646436e-05 -3.9994542e-19 0.075368818)
(-8.0579411e-05 -5.8878802e-19 0.10577955)
(-0.00015240031 -7.9284263e-19 0.13591259)
(-0.00025319326 -9.4464528e-19 0.16527355)
(-0.00038722488 -9.5114048e-19 0.19328483)
(-0.00055889195 -8.8478431e-19 0.21928962)
(-0.00077259973 -7.9652168e-19 0.24256439)
(-0.0010325805 -7.2375169e-19 0.26234388)
(-0.0013426336 -6.5290168e-19 0.27786215)
(-0.0017057521 -7.2758676e-19 0.28841277)
(-0.0021235852 -8.5539207e-19 0.29342866)
(-0.0025956781 -9.4619254e-19 0.29257633)
(-0.0031184512 -7.5043904e-19 0.2858516)
(-0.003683973 -6.5535396e-19 0.27365413)
(-0.0042787727 -5.7503155e-19 0.25681197)
(-0.0048831832 -4.5128146e-19 0.23653136)
(-0.0054718431 -2.2570999e-19 0.21426487)
(-0.0060158021 3.5367617e-19 0.19152045)
(-0.0064860915 1.6342047e-19 0.16965978)
(-0.0068579076 8.950058e-20 0.14974004)
(-0.0071141804 1.3050413e-22 0.13243513)
(-0.0072475197 -8.912298e-20 0.11804015)
(-0.0072602028 -3.1011113e-19 0.10653671)
(-0.0071625578 -5.4061815e-19 0.097686538)
(-0.0069704218 -7.6251384e-19 0.091124897)
(-0.0067024316 -6.7786774e-19 0.086437505)
(-0.0063781984 -1.7898371e-19 0.083215141)
(-0.0060161269 -5.3355667e-20 0.081087548)
(-0.0056330081 -1.2844899e-20 0.079740457)
(-0.0052433692 3.5577853e-19 0.078921824)
(-0.0048594836 8.7188915e-20 0.078440637)
(-0.0044912516 4.3651789e-20 0.078161023)
(-0.0041467142 7.6606158e-20 0.07799294)
(-0.0038306539 8.8439812e-20 0.077881459)
(-0.0035492744 1.3663078e-19 0.077795914)
(-0.0032989254 -4.2495344e-19 0.077721481)
(-0.0030929422 -3.9033499e-19 0.077650791)
(-0.0029066312 -2.6973558e-19 0.07758303)
(-0.002782711 -1.1096565e-20 0.077514747)
(-0.0026473593 -3.2698462e-19 0.07744996)
(-0.0026112925 -2.0392294e-19 0.077383119)
(-0.0025080583 -3.6682747e-19 0.077318718)
(-0.0025721458 -1.1259971e-19 0.077254844)
(-0.0024707473 9.3471596e-20 0.077168971)
(-0.0026801117 -1.4899564e-20 0.07706338)
(-0.0024825156 -9.1162387e-20 0.076536856)
(-0.0028302592 -8.0743072e-21 0.074186576)
(-0.0020213271 -9.1412524e-20 0.060245658)
(2.8250938e-06 -3.4862041e-20 0.01639174)
(-5.8371568e-06 -1.0586794e-19 0.048425719)
(-2.624613e-05 -1.7789669e-19 0.081073212)
(-6.3093703e-05 -2.8662594e-19 0.11399673)
(-0.00011978749 -4.0303438e-19 0.14677939)
(-0.00019986226 -5.3364642e-19 0.17891801)
(-0.00030713559 -6.0327397e-19 0.20981902)
(-0.00044570445 -5.1838983e-19 0.23879927)
(-0.00061988835 -3.7827873e-19 0.26509465)
(-0.00083412411 -4.1848194e-19 0.28788013)
(-0.0010927929 -3.953379e-19 0.30630552)
(-0.0013999458 -3.9971205e-19 0.31955113)
(-0.0017588797 -7.2818325e-19 0.32690562)
(-0.0021715013 -1.1242165e-18 0.32786451)
(-0.0026374217 -1.0323718e-18 0.32223963)
(-0.003152771 -8.969705e-19 0.31025977)
(-0.0037088555 -8.3153249e-19 0.29263209)
(-0.0042910008 -4.8136628e-19 0.27053144)
(-0.0048781542 -1.7994522e-19 0.24549615)
(-0.0054438619 2.9251079e-20 0.21923798)
(-0.0059588951 3.3789356e-22 0.19340854)
(-0.0063951367 -3.2438885e-19 0.16938578)
(-0.006729704 -3.2482562e-19 0.14813612)
(-0.0069481166 -3.533993e-19 0.13017597)
(-0.0070457187 -4.5371342e-19 0.11561931)
(-0.0070272508 -5.6519782e-19 0.10427657)
(-0.0069050295 -7.1442949e-19 0.095767212)
(-0.0066964172 -7.5700626e-19 0.089620019)
(-0.0064213153 -7.9322578e-19 0.085348542)
(-0.0060999051 -5.3025351e-19 0.082500339)
(-0.0057510395 -1.7885017e-19 0.080684068)
(-0.0053911552 -1.0966471e-19 0.079580631)
(-0.0050337223 -6.9186979e-20 0.078943709)
(-0.0046890173 5.4113587e-20 0.078593702)
(-0.0043644583 6.0366244e-20 0.078407633)
(-0.004064213 4.6287938e-20 0.078307156)
(-0.0037923181 -3.7987565e-20 0.07824622)
(-0.0035462816 -4.4659655e-19 0.07820054)
(-0.0033351542 -1.9101707e-19 0.078157964)
(-0.0031414955 -6.1036344e-21 0.078115054)
(-0.0029986189 -7.7367617e-20 0.078068121)
(-0.002849328 -2.6103185e-19 0.078021278)
(-0.002787495 -4.4622893e-20 0.077969239)
(-0.0026669393 -1.4767609e-19 0.077918298)
(-0.0027125888 -8.0277409e-20 0.077864404)
(-0.0025799755 4.5691048e-20 0.07777865)
(-0.0027883241 -1.1639712e-19 0.077627431)
(-0.0025503916 -9.6157589e-20 0.076880695)
(-0.0028018512 -1.4990124e-19 0.073598655)
(-0.0019750324 -8.7238543e-20 0.057254006)
(2.4587303e-06 3.9810897e-21 0.017349615)
(-5.1174566e-06 1.1754058e-20 0.051324895)
(-2.3015839e-05 1.3740028e-20 0.086036408)
(-5.5355406e-05 1.29926e-20 0.1211469)
(-0.00010514785 1.7043504e-20 0.15623727)
(-0.00017553143 -3.2318377e-20 0.19079861)
(-0.00026991378 -1.7296494e-19 0.22422654)
(-0.00039198054 -2.5937072e-19 0.25581991)
(-0.00054566317 -3.1283911e-19 0.28478641)
(-0.00073507281 -3.4500081e-19 0.31025883)
(-0.00096438538 -3.6768334e-19 0.33132619)
(-0.0012376521 -4.6062802e-19 0.34708448)
(-0.0015584952 -5.672393e-19 0.35671085)
(-0.0019296313 -7.7309004e-19 0.35956159)
(-0.0023521577 -7.5622401e-19 0.35528806)
(-0.002824553 -5.9346758e-19 0.34395386)
(-0.0033414242 -3.9726294e-19 0.32612464)
(-0.0038922045 -1.608425e-19 0.30289381)
(-0.0044602486 3.8392525e-19 0.27581247)
(-0.0050229434 4.967142e-19 0.24671601)
(-0.0055533376 3.9932227e-19 0.21747849)
(-0.006023291 1.595138e-22 0.18975867)
(-0.0064074527 -1.7527579e-19 0.16480775)
(-0.0066869403 -2.768805e-19 0.14338192)
(-0.0068516955 -4.0578092e-19 0.12576114)
(-0.006901052 -4.7387544e-19 0.11184187)
(-0.0068426907 -5.2413221e-19 0.1012611)
(-0.0066905652 -4.8666157e-19 0.093516053)
(-0.0064624687 -6.2423492e-19 0.088059873)
(-0.0061777366 -5.6576875e-19 0.084367524)
(-0.0058553946 -2.5355348e-19 0.08197463)
(-0.0055128494 -1.8147579e-19 0.080495643)
(-0.0051650882 -1.3741588e-19 0.079627821)
(-0.0048242596 2.1494142e-20 0.079146196)
(-0.0044996866 3.481362e-20 0.078893207)
(-0.004197596 -9.234284e-21 0.078765617)
(-0.0039229649 -9.6428955e-20 0.078700686)
(-0.0036754476 -3.4476336e-19 0.078663604)
(-0.0034619307 -1.1848364e-19 0.078636354)
(-0.0032690927 1.5939206e-19 0.07861176)
(-0.0031227202 -8.7331395e-20 0.078584782)
(-0.0029743798 -2.1037307e-19 0.07855748)
(-0.0029071997 2.1882734e-20 0.07852468)
(-0.0027809922 -2.7454112e-20 0.078489788)
(-0.0028258658 -7.3706183e-20 0.078447941)
(-0.0026754264 -1.5609896e-19 0.078357324)
(-0.0028733478 -9.309296e-20 0.078130311)
(-0.0026315466 -1.0128191e-19 0.077115503)
(-0.0027799994 -1.4794497e-19 0.072865669)
(-0.0019103214 -8.2973012e-20 0.054347268)
(2.18873e-06 3.9673579e-20 0.018191813)
(-4.5141768e-06 1.1847097e-19 0.053876047)
(-2.033933e-05 1.9341035e-19 0.090407232)
(-4.8963057e-05 2.9119379e-19 0.12744925)
(-9.3091536e-05 4.0012141e-19 0.1645823)
(-0.00015556218 4.3074551e-19 0.20129403)
(-0.00023947711 3.7193851e-19 0.23697277)
(-0.00034821931 1.9957281e-19 0.27090444)
(-0.00048543538 5.5941729e-20 0.30227591)
(-0.00065499142 1.8882797e-19 0.33018801)
(-0.00086089095 1.4210059e-19 0.35368285)
(-0.0011071338 1.0645716e-19 0.37179005)
(-0.0013974823 1.3499412e-19 0.38359674)
(-0.0017350856 2.0710922e-19 0.38834333)
(-0.0021219 -1.6319387e-19 0.38554177)
(-0.0025578462 -1.9703536e-20 0.37510311)
(-0.0030396864 3.3843938e-19 0.35744831)
(-0.0035597388 2.2124855e-19 0.33356505)
(-0.0041047522 4.5671164e-19 0.30497189)
(-0.0046554892 7.1123716e-19 0.27356967)
(-0.005187597 6.7422335e-19 0.24139774)
(-0.0056740229 2.1635408e-19 0.21035373)
(-0.0060885995 -1.4525494e-20 0.1819547)
(-0.0064098487 -1.1535188e-19 0.15720045)
(-0.0066239149 -1.2916025e-19 0.13655652)
(-0.0067259152 -9.9617618e-20 0.12003253)
(-0.0067196174 4.2150442e-20 0.10731012)
(-0.0066158666 2.2082535e-19 0.097877826)
(-0.0064303712 -4.0435789e-20 0.091145234)
(-0.006181399 -4.3146945e-19 0.086525409)
(-0.0058877603 -4.4090346e-19 0.083486354)
(-0.0055672464 3.6044448e-20 0.081577502)
(-0.0052355666 -3.4139154e-20 0.08043849)
(-0.004905732 1.175518e-19 0.079796386)
(-0.0045878887 3.2268284e-19 0.079455933)
(-0.0042891785 5.0248364e-20 0.079286011)
(-0.0040150195 3.9444628e-23 0.079204688)
(-0.0037665203 1.1293141e-20 0.079164959)
(-0.0035496663 -2.1880298e-19 0.079142022)
(-0.003354536 4.7766609e-20 0.079124962)
(-0.0032030743 -1.2877864e-19 0.079107793)
(-0.0030521808 -2.2265584e-19 0.079091025)
(-0.0029815535 -2.446362e-19 0.079070748)
(-0.0028487623 -2.0531161e-19 0.079046724)
(-0.002893115 -9.662993e-20 0.079012022)
(-0.0027362975 -2.3749178e-19 0.078912014)
(-0.0029094857 6.7016608e-20 0.07858777)
(-0.002672257 -8.7382099e-20 0.077266552)
(-0.002738789 -1.5026199e-20 0.072067623)
(-0.0018320334 -7.601008e-20 0.051633872)
(1.9846402e-06 2.0144075e-20 0.018952177)
(-4.0901714e-06 5.9337695e-20 0.056179879)
(-1.8440694e-05 9.8429471e-20 0.094355298)
(-4.4412015e-05 1.5490555e-19 0.13314372)
(-8.4476603e-05 2.2036995e-19 0.17212522)
(-0.00014123502 2.814092e-19 0.21078521)
(-0.00021754045 3.4381993e-19 0.24850661)
(-0.00031651798 2.8930801e-19 0.28456551)
(-0.00044155592 2.2965415e-19 0.3181325)
(-0.00059627552 3.4576372e-19 0.34828325)
(-0.00078447042 5.2281595e-19 0.37402233)
(-0.0010099988 7.3812174e-19 0.39432562)
(-0.0012765998 1.0571177e-18 0.40820612)
(-0.0015875927 9.7229765e-19 0.4148067)
(-0.0019454024 4.351118e-19 0.41351847)
(-0.0023508477 8.5145689e-20 0.40411454)
(-0.002802153 3.6767443e-20 0.38687628)
(-0.0032937408 -4.2406445e-19 0.36267561)
(-0.0038150293 -8.5440734e-19 0.33297099)
(-0.0043496956 -8.5713854e-19 0.29968694)
(-0.004875986 -2.83288e-19 0.26498147)
(-0.005368478 5.0031396e-20 0.23095124)
(-0.0058011788 -2.8638756e-20 0.19935519)
(-0.0061512252 -4.2775872e-20 0.17143105)
(-0.0064021228 -9.9420809e-20 0.1478394)
(-0.0065456671 -9.8695093e-20 0.12872096)
(-0.0065822385 -8.3528099e-20 0.11382258)
(-0.006519715 1.0956679e-19 0.10264302)
(-0.0063715507 4.2837058e-19 0.094563367)
(-0.0061545837 5.2036365e-20 0.088945612)
(-0.0058869869 -3.7566808e-20 0.085196975)
(-0.0055865888 5.9784331e-20 0.082805426)
(-0.0052696389 4.5367923e-20 0.081354068)
(-0.0049500037 1.1698497e-19 0.080521414)
(-0.0046387823 2.9148005e-19 0.08007291)
(-0.0043440973 2.8643984e-19 0.079847478)
(-0.0040719309 3.1931334e-19 0.079741828)
(-0.0038243714 3.2932565e-19 0.079694815)
(-0.0036066904 -2.3445213e-20 0.079673202)
(-0.0034108087 -1.7860209e-20 0.079661245)
(-0.0032564332 -1.2529147e-19 0.079651164)
(-0.0031022469 -1.3770493e-20 0.079641522)
(-0.003028632 -7.2497496e-19 0.079629306)
(-0.002889032 -4.5403065e-19 0.07961088)
(-0.0029263259 -1.2222937e-19 0.079573528)
(-0.0027691267 -1.8138309e-19 0.079450247)
(-0.0029106755 1.2762746e-20 0.079002774)
(-0.002671909 -8.5500816e-20 0.077329179)
(-0.0026735743 -3.0085823e-20 0.071194784)
(-0.0017421574 -5.7183412e-20 0.049063026)
(1.8221062e-06 -4.2452828e-20 0.019647335)
(-3.7494797e-06 -1.2534225e-19 0.058286705)
(-1.691607e-05 -2.064484e-19 0.097966699)
(-4.0757063e-05 -2.8977429e-19 0.13835418)
(-7.7556594e-05 -3.9475124e-19 0.17902955)
(-0.00012972369 -4.2231384e-19 0.21947674)
(-0.00019990899 -3.798778e-19 0.25907463)
(-0.00029102618 -4.488733e-19 0.29709151)
(-0.00040624855 -5.2315837e-19 0.33268488)
(-0.00054898791 -6.5544082e-19 0.36490982)
(-0.00072284855 -6.2800986e-19 0.39273998)
(-0.00093154188 -6.7952273e-19 0.41510642)
(-0.0011787383 -8.0768582e-19 0.43095964)
(-0.00146782 -5.590511e-19 0.43935898)
(-0.0018014835 -1.1963497e-19 0.43958981)
(-0.0021811326 -6.2260439e-19 0.43130089)
(-0.0026060097 -1.1527446e-18 0.41464184)
(-0.0030720821 -1.2254622e-18 0.3903662)
(-0.0035708403 -1.6420839e-18 0.35985592)
(-0.0040883804 -1.6529477e-18 0.32502957)
(-0.0046053131 -1.3644754e-18 0.2881268)
(-0.0050979866 -6.3277108e-19 0.25140812)
(-0.0055410988 -3.313186e-19 0.21684951)
(-0.0059111707 -2.2544375e-19 0.1859164)
(-0.0061899139 -2.3883673e-19 0.15946747)
(-0.0063665569 -3.4888305e-19 0.1377866)
(-0.0064386487 -5.7979479e-19 0.12070161)
(-0.0064114189 -8.1519247e-20 0.10773701)
(-0.0062961571 4.7853266e-19 0.098258564)
(-0.006108167 3.6156834e-19 0.091587147)
(-0.0058647399 4.6079933e-19 0.087075995)
(-0.0055834143 1.7869054e-19 0.084155674)
(-0.005280633 9.0176034e-20 0.082354607)
(-0.0049708103 8.4710311e-20 0.081302961)
(-0.0046657999 -1.9683292e-20 0.080725985)
(-0.0043746012 2.2639812e-19 0.080431137)
(-0.0041038876 4.4169642e-19 0.080292078)
(-0.0038567158 2.9808814e-20 0.080231986)
(-0.0036382263 -3.6659977e-20 0.080207922)
(-0.003441506 -3.102241e-19 0.08019849)
(-0.0032855438 -4.9362401e-19 0.080193437)
(-0.0031287689 -1.9056612e-19 0.080189114)
(-0.0030530329 -5.8731929e-19 0.080182306)
(-0.0029103868 -4.3109887e-19 0.08016644)
(-0.0029375551 -1.3883635e-19 0.080118995)
(-0.002783589 -7.5379483e-20 0.079957841)
(-0.0028954557 -1.8566915e-19 0.079365343)
(-0.0026498863 -9.3825205e-20 0.077304138)
(-0.0025964713 -1.6653602e-19 0.07025334)
(-0.0016482323 -5.5302939e-20 0.04661623)
(1.6892757e-06 -2.8683584e-20 0.020289978)
(-3.474316e-06 -8.5288119e-20 0.060234729)
(-1.5682123e-05 -1.4304587e-19 0.10130648)
(-3.779605e-05 -1.9749529e-19 0.14317376)
(-7.1944838e-05 -2.563087e-19 0.18541757)
(-0.00012037841 -3.110207e-19 0.22752088)
(-0.00018557774 -3.5919695e-19 0.26885943)
(-0.00027027718 -3.9500827e-19 0.3086952)
(-0.00037746504 -4.2768766e-19 0.34617487)
(-0.00051036867 -4.6025374e-19 0.38033629)
(-0.0006724187 -4.8133797e-19 0.41012701)
(-0.00086718049 -4.890839e-19 0.43444001)
(-0.0010982319 -6.9692478e-19 0.45217214)
(-0.0013689562 -7.4341449e-19 0.46231017)
(-0.001682205 -7.917072e-19 0.46404615)
(-0.0020397729 -7.8835948e-19 0.45691649)
(-0.0024416319 -9.5511359e-19 0.4409477)
(-0.0028849121 -1.0896098e-18 0.4167762)
(-0.0033627366 -1.2102087e-18 0.38569795)
(-0.0038632079 -1.3184888e-18 0.34960456)
(-0.0043690368 -1.2032177e-18 0.31078809)
(-0.0048583271 -8.1964534e-19 0.27164248)
(-0.0053067361 -6.267593e-19 0.2343368)
(-0.0056906665 -4.7355683e-19 0.2005515)
(-0.0059906429 -2.6390616e-19 0.17134243)
(-0.0061939146 2.7621449e-20 0.1471443)
(-0.0062956707 -1.0942282e-19 0.12787796)
(-0.0062988047 -2.6950286e-19 0.11310651)
(-0.0062125908 5.2838626e-20 0.10219177)
(-0.0060507997 4.3641908e-19 0.094422506)
(-0.0058297275 3.4690936e-19 0.089104472)
(-0.0055664341 2.1322856e-19 0.085615095)
(-0.005277335 1.3483141e-19 0.083430498)
(-0.0049771736 1.0545266e-19 0.082133366)
(-0.004678369 8.8301281e-20 0.08140848)
(-0.0043906332 1.8940633e-19 0.081030799)
(-0.004121269 3.4945069e-19 0.080849507)
(-0.003874141 2.077711e-19 0.080770645)
(-0.0036545645 -8.2879182e-20 0.080740308)
(-0.0034562658 -2.5585648e-19 0.080730573)
(-0.0032984799 -4.3171381e-19 0.080728055)
(-0.0031390329 -3.6103201e-19 0.08072684)
(-0.0030599512 -5.9985379e-19 0.080722472)
(-0.0029165546 -3.8509236e-19 0.080705823)
(-0.0029321961 -1.5404211e-19 0.080642275)
(-0.0027813588 -1.2176967e-19 0.080429804)
(-0.0028670013 -1.8198896e-19 0.079674908)
(-0.0026122188 -1.0231066e-19 0.077205062)
(-0.0025118087 -1.5606923e-19 0.069269383)
(-0.0015541193 -4.9893257e-20 0.044309686)
(1.5781347e-06 -6.0064009e-20 0.02088898)
(-3.2447825e-06 -1.7822733e-19 0.062050735)
(-1.4651923e-05 -3.0333279e-19 0.10442039)
(-3.5322536e-05 -4.3625935e-19 0.14766817)
(-6.7254537e-05 -5.4196386e-19 0.19137584)
(-0.00011256313 -6.5455257e-19 0.23502582)
(-0.00017358497 -7.7068445e-19 0.27799136)
(-0.00025290097 -8.009448e-19 0.31952923)
(-0.00035333923 -8.7323148e-19 0.35877698)
(-0.00047796509 -7.3861537e-19 0.39475779)
(-0.0006300533 -3.3073059e-19 0.42639678)
(-0.00081303153 1.3836622e-19 0.45255401)
(-0.0010303779 6.8604763e-19 0.47207957)
(-0.001285445 2.7252156e-19 0.48389645)
(-0.0015811688 -5.6899297e-19 0.48711354)
(-0.0019196116 -7.1881158e-19 0.48116539)
(-0.0023012805 -7.220427e-19 0.46596381)
(-0.002724197 2.6580928e-20 0.44203138)
(-0.0031827857 2.2885678e-19 0.41057299)
(-0.0036668179 4.9609128e-19 0.3734384)
(-0.0041608448 -3.5514724e-19 0.33294898)
(-0.0046446341 -5.4893974e-19 0.29160614)
(-0.0050949262 -6.2602482e-19 0.25174971)
(-0.005488325 -6.8110575e-19 0.21526149)
(-0.0058046042 -8.2393053e-19 0.18339094)
(-0.0060294886 -5.6017166e-19 0.15672814)
(-0.0061562035 3.3852009e-19 0.13529623)
(-0.0061855941 2.4039258e-19 0.11870756)
(-0.0061250847 -7.8564735e-20 0.10632987)
(-0.0059869676 2.1669175e-19 0.09742788)
(-0.0057865027 3.2017495e-19 0.091265922)
(-0.0055401597 2.7123388e-19 0.087172462)
(-0.0052641694 2.6834729e-19 0.084573919)
(-0.0049734318 3.4660769e-19 0.083006775)
(-0.0046807767 4.3455944e-19 0.082115559)
(-0.0043965047 2.6060292e-19 0.081642161)
(-0.0041284973 3.3584302e-19 0.081410227)
(-0.0038812967 6.0239305e-19 0.081307414)
(-0.0036605899 1.5199667e-19 0.081267659)
(-0.003460391 -8.7908264e-21 0.081255593)
(-0.0033003925 -8.2363554e-20 0.081253902)
(-0.0031384096 -3.3465372e-19 0.08125422)
(-0.0030544972 -5.8536194e-19 0.081249865)
(-0.0029108255 -3.8827268e-19 0.081228765)
(-0.0029144202 -1.6479088e-19 0.08114326)
(-0.0027645767 -1.3598683e-19 0.080866552)
(-0.0028261776 -1.7112617e-19 0.079933332)
(-0.0025608231 -1.0530346e-19 0.077041908)
(-0.0024205455 -1.4534538e-19 0.068259199)
(-0.0014610071 -4.7954108e-20 0.042145344)
(1.4833845e-06 -2.330952e-20 0.021451047)
(-3.0503179e-06 -6.6456457e-20 0.063754974)
(-1.3777217e-05 -1.1069118e-19 0.10734301)
(-3.3220693e-05 -1.4959702e-19 0.15188708)
(-6.3266467e-05 -2.0794283e-19 0.19696985)
(-0.00010591386 -2.6012978e-19 0.24207345)
(-0.00016337483 -2.976865e-19 0.28656917)
(-0.00023809678 -3.244071e-19 0.3297094)
(-0.00033276778 -3.437488e-19 0.37062387)
(-0.00045031007 -3.3323199e-19 0.40832304)
(-0.00059385789 -2.7333258e-19 0.44171254)
(-0.00076671083 -1.8784425e-19 0.46962354)
(-0.00097224632 -2.0353668e-20 0.49086493)
(-0.0012137684 -1.4378606e-19 0.50430298)
(-0.0014942547 -2.7041016e-19 0.50897195)
(-0.0018159518 -3.0135283e-19 0.50421352)
(-0.0021797673 -2.8870899e-19 0.48983272)
(-0.002584419 -1.8776875e-19 0.46624258)
(-0.0030253831 6.6668649e-21 0.43455463)
(-0.0034938275 2.623442e-19 0.39656617)
(-0.003975911 -2.0060934e-20 0.35460969)
(-0.0044529443 -3.3214289e-19 0.31127193)
(-0.0049027921 -3.8737664e-19 0.26904308)
(-0.0053024636 -3.6707486e-19 0.22999243)
(-0.0056312986 -2.0362725e-19 0.19555773)
(-0.005873851 -3.5132959e-19 0.16648675)
(-0.0060217053 -3.484985e-19 0.14291197)
(-0.0060739111 1.8527516e-19 0.12450384)
(-0.0060362068 3.3768938e-19 0.11064467)
(-0.0059194819 3.8066957e-20 0.10058236)
(-0.005737961 2.3259479e-19 0.093545399)
(-0.0055074615 2.2282119e-19 0.088817294)
(-0.005243923 1.8933477e-19 0.085777389)
(-0.0049622722 1.7793873e-19 0.083917456)
(-0.004675619 3.2595176e-19 0.082842316)
(-0.0043947325 4.5219282e-19 0.08226057)
(-0.0041280158 4.6116127e-19 0.081969577)
(-0.0038805872 5.3393252e-19 0.081837583)
(-0.0036586244 2.6005573e-19 0.081785305)
(-0.0034563499 -3.2147551e-20 0.081769049)
(-0.0032937049 -1.9737661e-19 0.08176677)
(-0.0031294381 -3.8912138e-19 0.08176731)
(-0.0030399219 -4.2016016e-19 0.081760988)
(-0.0028957464 -3.765845e-19 0.08173176)
(-0.0028876675 -1.6698312e-19 0.08161846)
(-0.0027368353 -1.3430854e-19 0.081265665)
(-0.0027760192 -1.5835721e-19 0.080139972)
(-0.0024994599 -1.0947806e-19 0.076819849)
(-0.0023248059 -1.3612203e-19 0.067230633)
(-0.001369882 -4.9962698e-20 0.040114641)
(1.4016031e-06 4.490121e-21 0.021981366)
(-2.8824569e-06 1.2510722e-20 0.065363118)
(-1.3022393e-05 2.0366057e-20 0.11010111)
(-3.1406707e-05 3.1423631e-20 0.15586898)
(-5.9823562e-05 1.7345197e-20 0.20225037)
(-0.00010017118 9.9862325e-21 0.24872733)
(-0.00015455246 1.4875462e-20 0.29466959)
(-0.00022529789 -6.3120057e-20 0.3393258)
(-0.0003149718 -8.3983616e-20 0.38181893)
(-0.00042636874 -2.0196573e-19 0.42114831)
(-0.00056249603 -5.2323608e-19 0.45620234)
(-0.00072653458 -8.409786e-19 0.48578662)
(-0.0009217642 -1.1737704e-18 0.50867334)
(-0.0011514312 -1.0153185e-18 0.52367792)
(-0.0014185255 -3.1199117e-19 0.52976707)
(-0.0017254222 -2.332877e-19 0.52619748)
(-0.0020733331 -5.815623e-20 0.51267467)
(-0.0024615277 -4.0516184e-19 0.48950671)
(-0.0028863424 -2.0478629e-19 0.45771139)
(-0.0033401236 -3.1923837e-19 0.41902605)
(-0.0038104347 1.8758122e-19 0.37577988)
(-0.0042800017 -6.008267e-20 0.33062613)
(-0.0047278088 -1.1414524e-19 0.28618687)
(-0.0051313988 6.8028562e-21 0.24470526)
(-0.0054699075 3.0846362e-19 0.20780098)
(-0.0057269978 2.0037865e-19 0.17638008)
(-0.0058928821 -4.3773017e-19 0.15068968)
(-0.0059650325 -2.0975841e-19 0.13046581)
(-0.0059476538 1.9323575e-19 0.11511285)
(-0.0058503173 2.2626731e-19 0.10386846)
(-0.0056862336 3.0417812e-19 0.095930397)
(-0.0054705379 2.3342715e-19 0.090540961)
(-0.0052188097 1.9949309e-19 0.087035012)
(-0.0049459045 1.5632126e-19 0.084861204)
(-0.0046651037 3.3934143e-20 0.083585399)
(-0.0043875404 2.6773998e-19 0.082882961)
(-0.0041220766 3.9862504e-19 0.082524464)
(-0.0038743143 3.7799818e-19 0.082357916)
(-0.0036509432 -6.8887883e-20 0.082289866)
(-0.0034464771 -1.8602246e-19 0.082267463)
(-0.0032807449 -4.6476751e-19 0.082263155)
(-0.0031142091 -3.8760106e-19 0.082262507)
(-0.0030187579 -2.1792509e-19 0.082252287)
(-0.0028734532 -3.5019558e-19 0.082211254)
(-0.0028542768 -1.7066012e-19 0.082064337)
(-0.0027009557 -1.3149767e-19 0.081625001)
(-0.0027190617 -1.4671194e-19 0.080295274)
(-0.0024314726 -1.1081287e-19 0.076544843)
(-0.0022267383 -1.2886347e-19 0.066191889)
(-0.0012816223 -4.6808e-20 0.038212328)
(1.3302201e-06 -2.3052921e-20 0.022484047)
(-2.735613e-06 -7.083704e-20 0.066887583)
(-1.2362839e-05 -1.2073853e-19 0.11271592)
(-2.9821727e-05 -1.7303023e-19 0.15964439)
(-5.6814766e-05 -2.3253128e-19 0.20725768)
(-9.5151315e-05 -2.956252e-19 0.25503793)
(-0.00014683784 -3.61155e-19 0.30235359)
(-0.00021410087 -4.2569581e-19 0.34845013)
(-0.00029939448 -4.9286363e-19 0.39244457)
(-0.00040539858 -5.5800161e-19 0.43332641)
(-0.00053500552 -6.1450969e-19 0.46996872)
(-0.00069128686 -6.6894131e-19 0.5011542)
(-0.00087742848 -6.9648068e-19 0.52562207)
(-0.0010966142 -6.9172431e-19 0.5421418)
(-0.0013518281 -6.1330624e-19 0.54961862)
(-0.0016455341 -4.1378423e-19 0.54723103)
(-0.0019791781 -3.1988189e-19 0.53459164)
(-0.0023524728 -4.5060216e-19 0.51190833)
(-0.0027624659 -5.4677921e-19 0.48010584)
(-0.0032025046 -7.5103588e-19 0.4408564)
(-0.0036613846 -2.7087591e-19 0.39647437)
(-0.0041231233 2.0152996e-20 0.34966357)
(-0.0045677914 6.6346712e-21 0.30316128)
(-0.0049735431 7.9616179e-20 0.25937141)
(-0.0053194826 1.9215744e-19 0.2200886)
(-0.0055886001 2.9058186e-19 0.18637646)
(-0.0057699586 -1.3120499e-20 0.15860071)
(-0.005859643 -1.6880588e-19 0.13656917)
(-0.005860463 8.9407367e-20 0.11971499)
(-0.0057807553 2.496503e-19 0.10727144)
(-0.0056327509 2.7817113e-19 0.098410308)
(-0.0054308954 2.2046827e-19 0.092336216)
(-0.0051903637 1.8764913e-19 0.088342024)
(-0.0049258693 1.4533008e-19 0.085834888)
(-0.0046507786 8.7017208e-20 0.084342595)
(-0.0043764962 1.5565541e-19 0.083507509)
(-0.0041122824 3.7304463e-19 0.083073142)
(-0.0038641567 3.2558738e-19 0.082866617)
(-0.0036392696 1.3113965e-20 0.082779488)
(-0.0034325606 -1.6224119e-19 0.082748949)
(-0.0032634347 -4.5804625e-19 0.082741211)
(-0.0030944635 -4.0615967e-19 0.082737947)
(-0.0029929738 -3.1128139e-19 0.082721905)
(-0.0028457717 -3.1089591e-19 0.082665478)