/*--------------------------------*- C++ -*----------------------------------*\
| =========                 |                                                 |
| \\      /  F ield         | OpenFOAM: The Open Source CFD Toolbox           |
|  \\    /   O peration     | Version:  4.0                                   |
|   \\  /    A nd           | Web:      www.OpenFOAM.org                      |
|    \\/     M anipulation  |                                                 |
\*---------------------------------------------------------------------------*/
FoamFile
{
    version     2.0;
    format      ascii;
    class       volVectorField;
    location    "2000";
    object      U;
}
// * * * * * * * * * * * * * * * * * * * * * * * * * * * * * * * * * * * * * //

dimensions      [0 1 -1 0 0 0 0];

internalField   nonuniform List<vector> 
5000
(
(4.1877183e-05 3.1324527e-20 0.014924523)
(0.00014797433 9.4580611e-20 0.043407001)
(0.00030792312 1.6410942e-19 0.071608754)
(0.00054183969 2.3218974e-19 0.099088244)
(0.00082375262 2.9660039e-19 0.12537314)
(0.0011401968 3.4951127e-19 0.14998345)
(0.00147485 3.6530863e-19 0.17246019)
(0.001809221 4.4427104e-19 0.192398)
(0.0021244362 4.488049e-19 0.2094783)
(0.0024034709 4.5566477e-19 0.22349896)
(0.0026325681 4.5957805e-19 0.23439586)
(0.002802304 4.2604092e-19 0.2422527)
(0.0029081096 4.8884413e-19 0.24729667)
(0.0029501489 5.5203675e-19 0.2498797)
(0.0029323628 6.1775538e-19 0.25044731)
(0.0028587618 6.6788018e-19 0.24949885)
(0.002759827 7.1446326e-19 0.24754505)
(0.0026113913 7.5292629e-19 0.24505542)
(0.0024479129 5.8742483e-19 0.24242802)
(0.0022718734 2.4567139e-19 0.2399619)
(0.0020910195 2.5645647e-19 0.23784646)
(0.0019112948 3.6277e-19 0.23616688)
(0.0017365139 2.8976084e-19 0.23492338)
(0.001568519 2.1703242e-19 0.23405897)
(0.0014078985 1.5758067e-19 0.23348868)
(0.0012544929 8.9599194e-20 0.23312422)
(0.0011078591 4.4085167e-20 0.23289017)
(0.00096762815 1.4462677e-19 0.23273093)
(0.00083369293 -1.8642285e-19 0.23261063)
(0.00070624243 -2.2496234e-19 0.232509)
(0.00058570265 -2.6474557e-19 0.23241612)
(0.00047264222 -3.0678475e-19 0.23232807)
(0.00036767943 -3.0072691e-19 0.23224382)
(0.00027140753 -3.5233924e-19 0.23216358)
(0.00018433686 -4.2080132e-19 0.2320879)
(0.00010687927 -5.3014418e-19 0.23201741)
(3.9704442e-05 -6.6257858e-19 0.2319528)
(9.5601877e-06 -6.54878e-19 0.23189134)
(-1.9359373e-05 -7.038983e-19 0.23183423)
(-6.4619764e-05 -8.1311084e-19 0.2317826)
(-0.00010109028 -7.0372595e-19 0.23173786)
(-0.00012576551 -7.1308824e-19 0.2316988)
(-0.00014213941 -6.4069656e-19 0.23166611)
(-0.00014777173 -6.1752508e-19 0.23163805)
(-0.00014641624 -4.6780151e-19 0.23161555)
(-0.00013577265 -3.9633112e-19 0.23159657)
(-0.00011960546 -3.3806501e-19 0.23158242)
(-9.5895765e-05 -2.9618456e-19 0.23157081)
(-6.82894e-05 -2.9288033e-19 0.23156379)
(-3.5548958e-05 -3.015521e-19 0.23155649)
(2.2735111e-05 1.9759959e-20 0.013549531)
(3.7650596e-05 6.0424243e-20 0.039936415)
(0.00011729947 1.0532936e-19 0.066725127)
(0.00020817625 1.513402e-19 0.093625426)
(0.00032083031 1.9465648e-19 0.1202854)
(0.00044850966 2.2837428e-19 0.1462909)
(0.00058035259 2.5998541e-19 0.17117118)
(0.00070171333 3.2084655e-19 0.19441263)
(0.00079579644 3.4557386e-19 0.21548269)
(0.00084460615 3.6280919e-19 0.23386489)
(0.00083133864 3.6742149e-19 0.24910392)
(0.0007433538 3.7383755e-19 0.26085703)
(0.0005752716 3.9721743e-19 0.26894558)
(0.00033237416 4.1749712e-19 0.2733978)
(3.9877038e-05 4.5452302e-19 0.27447287)
(-0.0001654992 5.1561205e-19 0.27265554)
(-0.00035931317 5.3708123e-19 0.26865126)
(-0.0006907806 5.3927081e-19 0.26328389)
(-0.0010173865 5.7689041e-19 0.25737053)
(-0.0013008994 5.2185916e-19 0.25160932)
(-0.001521728 3.7978999e-19 0.24650277)
(-0.0016714113 2.5063162e-19 0.24232862)
(-0.0017508226 2.2707447e-19 0.23915862)
(-0.0017679901 1.8471346e-19 0.23691066)
(-0.0017352091 1.205346e-19 0.235414)
(-0.0016661488 6.3544149e-20 0.23446935)
(-0.001573563 3.1710045e-20 0.23389264)
(-0.0014679128 2.9632728e-19 0.23353858)
(-0.0013569025 -9.1404821e-20 0.23330661)
(-0.0012457022 -2.3973935e-19 0.23313519)
(-0.0011375333 -2.8375296e-19 0.23299117)
(-0.0010343075 -3.2349916e-19 0.23285898)
(-0.00093717387 -3.2972695e-19 0.23273257)
(-0.00084669094 -3.59884e-19 0.23261029)
(-0.00076362157 -4.2414207e-19 0.23249227)
(-0.00068548774 -5.1781556e-19 0.23237889)
(-0.00062361574 -4.58003e-19 0.23227157)
(-0.00056040477 -6.5479162e-19 0.23216896)
(-0.00049690085 -7.0600919e-19 0.23207023)
(-0.00044602622 -8.0643701e-19 0.23197863)
(-0.00040182329 -7.4619112e-19 0.23189542)
(-0.00036008242 -7.1459783e-19 0.23182066)
(-0.00032226795 -6.4360436e-19 0.23175494)
(-0.00028434594 -5.9218692e-19 0.23169751)
(-0.00024820411 -4.6769145e-19 0.23164894)
(-0.00020995235 -3.9595468e-19 0.23160791)
(-0.00017207081 -3.3815891e-19 0.23157541)
(-0.00013061882 -2.9711069e-19 0.23154924)
(-8.969318e-05 -2.9233413e-19 0.23153224)
(-4.3145373e-05 -3.0150964e-19 0.23151544)
(2.4017674e-05 -2.4983088e-20 0.014799631)
(-2.4433991e-06 -7.4054539e-20 0.043677107)
(-2.4024307e-05 -1.260329e-19 0.07305923)
(-5.7893696e-05 -1.7224404e-19 0.10264106)
(-0.00010788989 -2.2056158e-19 0.13205186)
(-0.00017615378 -2.7142465e-19 0.16085258)
(-0.0002644908 -3.0195762e-19 0.18853751)
(-0.00037462283 -3.555826e-19 0.21454218)
(-0.00050826788 -4.0384756e-19 0.23826017)
(-0.00066721394 -3.3601415e-19 0.25907166)
(-0.0008532898 -2.6125019e-19 0.27638605)
(-0.0010678811 -3.029965e-19 0.28969895)
(-0.0013113198 -8.5011442e-20 0.29866077)
(-0.0015836303 1.394967e-19 0.30314856)
(-0.0018891882 3.4742895e-19 0.30332695)
(-0.0021953899 5.6538922e-19 0.29967982)
(-0.0025124451 7.1559797e-19 0.29299162)
(-0.0028182098 6.402077e-19 0.28426875)
(-0.0030929785 7.5385748e-19 0.27460118)
(-0.0033161418 9.8610523e-19 0.26500812)
(-0.0034703983 1.0040908e-18 0.25629833)
(-0.0035450697 4.8233636e-19 0.24898704)
(-0.0035380352 2.8713618e-19 0.24328353)
(-0.0034557268 1.8897531e-19 0.23913965)
(-0.0033113151 8.7091925e-20 0.23633421)
(-0.0031217772 6.4935821e-21 0.23456446)
(-0.0029047418 -8.0239963e-20 0.23352267)
(-0.0026758943 -4.7229465e-20 0.23294613)
(-0.0024474081 -1.4088014e-19 0.23263906)
(-0.0022274797 -3.4763993e-19 0.23247237)
(-0.0020207398 -6.079489e-19 0.2323706)
(-0.001829101 -3.926307e-20 0.23229477)
(-0.0016528293 -3.0964054e-19 0.23222729)
(-0.00149078 -3.6230903e-19 0.23216144)
(-0.0013435335 -4.1485063e-19 0.23209538)
(-0.0012045984 -4.6011005e-19 0.23202856)
(-0.0010806796 -1.8315727e-19 0.23196159)
(-0.00096763588 -6.5946714e-19 0.23189624)
(-0.00085936278 -9.6594312e-19 0.23183211)
(-0.00076006965 -7.9740814e-19 0.23176927)
(-0.00066955107 -5.3608458e-19 0.23170886)
(-0.00058459906 -7.0516408e-19 0.23165161)
(-0.00050703628 -6.4662739e-19 0.23159861)
(-0.00043328706 -7.3359692e-19 0.23154992)
(-0.00036554586 -4.7152538e-19 0.23150687)
(-0.00029945026 -3.9321965e-19 0.23146871)
(-0.00023837763 -2.1629631e-19 0.23143774)
(-0.0001756019 -2.9362323e-19 0.23141101)
(-0.00011930281 -1.2129112e-19 0.2313945)
(-5.4985072e-05 -2.9971921e-19 0.23137386)
(3.1783844e-06 -8.1263087e-20 0.01600116)
(-5.9927862e-06 -2.4667643e-19 0.047290252)
(-2.6788872e-05 -4.2190117e-19 0.07920568)
(-6.382185e-05 -6.1829026e-19 0.11143138)
(-0.00012001235 -8.2971129e-19 0.14357913)
(-0.00019812509 -9.9564049e-19 0.17518413)
(-0.0003008762 -1.0457229e-18 0.20570398)
(-0.000430859 -9.9854055e-19 0.2345236)
(-0.00059041837 -9.1979542e-19 0.2609685)
(-0.00078150181 -8.2718497e-19 0.28433001)
(-0.0010054976 -6.7399598e-19 0.30390562)
(-0.0012630172 -7.3113398e-19 0.31905686)
(-0.0015535171 -8.275032e-19 0.32928414)
(-0.0018747897 -8.4481274e-19 0.33431313)
(-0.0022230279 -5.8605782e-19 0.33417951)
(-0.0025900699 -4.2208473e-19 0.32929066)
(-0.002964874 -2.6731887e-19 0.32043747)
(-0.0033315987 -2.1450943e-19 0.30873565)
(-0.0036706197 -2.8897589e-19 0.29549205)
(-0.003960333 3.4080855e-19 0.28201943)
(-0.0041803034 2.8191498e-19 0.26944685)
(-0.0043149195 3.1481038e-19 0.2585781)
(-0.0043564003 2.3957818e-19 0.24983226)
(-0.0043061737 1.5093936e-19 0.24326934)
(-0.0041742496 -1.3831883e-20 0.2386777)
(-0.0039769061 -2.109783e-19 0.23568794)
(-0.0037334682 -5.09175e-19 0.2338812)
(-0.0034630908 -8.8710913e-19 0.23287039)
(-0.0031822844 -6.034326e-19 0.23234627)
(-0.0029035785 -5.8248302e-19 0.2320909)
(-0.0026353342 -8.4931545e-19 0.23196796)
(-0.002382303 -2.1082503e-19 0.23190204)
(-0.0021468869 -3.0320938e-19 0.23185647)
(-0.0019287819 -3.6447695e-19 0.23181589)
(-0.0017299053 -4.0604407e-19 0.23177518)
(-0.0015458386 -4.0257576e-19 0.23173307)
(-0.0013775349 -1.4677893e-19 0.23168918)
(-0.0012252956 -9.3880157e-19 0.23164548)
(-0.0010850189 -9.3779219e-19 0.23160269)
(-0.000956164 -7.5560568e-19 0.23156017)
(-0.00083903059 -1.5182664e-19 0.23151857)
(-0.00073003811 -6.6310826e-19 0.23147837)
(-0.00063055562 -3.8286707e-19 0.23144047)
(-0.00053643 -6.9600873e-19 0.23140469)
(-0.00045034753 -4.7004045e-19 0.23137255)
(-0.00036638762 -2.3382527e-19 0.23134269)
(-0.00029060869 -2.2896114e-19 0.23131883)
(-0.00021166531 -2.9094548e-19 0.23129604)
(-0.0001441591 -1.3723231e-19 0.23128351)
(-6.6142976e-05 -2.9794249e-19 0.23126247)
(2.7001194e-06 -3.6500049e-20 0.017031221)
(-5.2795479e-06 -1.1311432e-19 0.050397329)
(-2.3677709e-05 -1.9836908e-19 0.084507471)
(-5.6655645e-05 -3.0575199e-19 0.11904076)
(-0.00010702979 -4.2405081e-19 0.15359998)
(-0.00017759534 -5.5242061e-19 0.18770547)
(-0.00027123935 -6.1627713e-19 0.220792)
(-0.00039089713 -5.4510343e-19 0.25221076)
(-0.00053945608 -4.4007693e-19 0.28123926)
(-0.00071961838 -4.5263109e-19 0.30710254)
(-0.00093371658 -5.0157664e-19 0.32900975)
(-0.0011834659 -3.8780113e-19 0.34620966)
(-0.0014696198 -6.2020284e-19 0.35806654)
(-0.0017914787 -9.7516994e-19 0.36415387)
(-0.002146267 -8.9547719e-19 0.36435525)
(-0.0025282205 -7.4331856e-19 0.35895242)
(-0.0029277 -5.8826018e-19 0.348671)
(-0.0033304367 -2.392851e-19 0.33465396)
(-0.0037175163 1.5645897e-19 0.31834557)
(-0.004066585 3.3562278e-19 0.30129764)
(-0.0043544996 3.0610436e-19 0.2849423)
(-0.0045610012 1.0586105e-19 0.27039421)
(-0.0046724039 9.0421451e-20 0.2583348)
(-0.0046841275 6.7723674e-21 0.24899922)
(-0.0046012994 -1.7059001e-19 0.2422504)
(-0.004437336 -4.1603555e-19 0.23770325)
(-0.0042110428 -8.2833293e-19 0.2348582)
(-0.0039431122 -1.4438978e-18 0.23321375)
(-0.003652928 -1.3330586e-18 0.23234108)
(-0.0033563417 -8.661142e-19 0.23191821)
(-0.0030647343 -7.8034047e-19 0.23173071)
(-0.0027850985 -6.5437675e-19 0.23165189)
(-0.0025214542 -3.979999e-19 0.23161571)
(-0.0022742813 -3.6727908e-19 0.23159208)
(-0.0020452028 -3.9728743e-19 0.23156939)
(-0.0018325689 -3.8172274e-19 0.23154427)
(-0.0016353091 -2.4338783e-19 0.23151566)
(-0.0014538754 -1.1382532e-18 0.23148485)
(-0.0012866696 -6.7330498e-19 0.23145314)
(-0.0011319815 -6.9283949e-19 0.23142024)
(-0.00099066224 -1.8218098e-19 0.23138686)
(-0.00085930754 -6.1651602e-19 0.23135369)
(-0.00073970053 -1.3501013e-19 0.23132186)
(-0.00062680956 -4.4909806e-19 0.23129109)
(-0.0005247921 -4.6271973e-19 0.23126354)
(-0.00042472768 -2.4272834e-19 0.23123688)
(-0.00033677048 -3.5966431e-19 0.23121648)
(-0.00024362499 -2.9222706e-19 0.23119526)
(-0.00016593379 -3.177854e-19 0.23118466)
(-7.6489215e-05 -2.9802965e-19 0.23116294)
(2.3625495e-06 8.9045808e-21 0.017924803)
(-4.6368739e-06 2.736972e-20 0.053097965)
(-2.0855616e-05 4.4583191e-20 0.089124248)
(-5.0021756e-05 4.9373034e-20 0.12568101)
(-9.4733012e-05 7.863767e-20 0.16236636)
(-0.00015762545 5.598274e-20 0.19869181)
(-0.00024148872 -3.4596139e-20 0.23407754)
(-0.00034924773 -1.3208801e-19 0.26785206)
(-0.00048390021 -1.9594259e-19 0.2992591)
(-0.00064841826 -2.8778056e-19 0.32747523)
(-0.00084560363 -3.3753461e-19 0.35164229)
(-0.0010778777 -3.3081794e-19 0.37091905)
(-0.0013469763 -3.3998716e-19 0.38455513)
(-0.0016535092 -4.5079323e-19 0.39198684)
(-0.0019963364 -4.5695678e-19 0.39294755)
(-0.0023717281 -3.2696203e-19 0.38757511)
(-0.0027723606 -1.1627919e-19 0.37648724)
(-0.0031863478 1.9449543e-19 0.36078976)
(-0.0035967403 8.8444105e-19 0.34198928)
(-0.003982057 9.1634708e-19 0.32180815)
(-0.0043182731 1.0056587e-18 0.3019369)
(-0.0045821734 4.112898e-19 0.28379011)
(-0.0047553054 1.2361191e-19 0.26833372)
(-0.0048273567 -4.6930355e-20 0.25602347)
(-0.0047979179 -2.9885023e-19 0.24685202)
(-0.0046761611 -5.5636704e-19 0.24047033)
(-0.0044786608 -8.8171456e-19 0.23633753)
(-0.0042260633 -1.164205e-18 0.2338602)
(-0.0039395235 -1.3933031e-18 0.23249611)
(-0.003637749 -1.0122177e-18 0.23181324)
(-0.003335236 -7.8076108e-19 0.2315067)
(-0.0030416143 -5.8672317e-19 0.23138548)
(-0.002762788 -4.4006593e-19 0.23134364)
(-0.0025006574 -3.757084e-19 0.23132963)
(-0.0022563317 -3.9344392e-19 0.23132165)
(-0.0020293286 -3.8070853e-19 0.23131226)
(-0.0018182407 -3.3976068e-19 0.23129915)
(-0.0016224183 -9.8282262e-19 0.23128274)
(-0.001441171 -6.8043267e-19 0.2312641)
(-0.0012721596 -5.758053e-19 0.23124302)
(-0.0011164067 -2.1337685e-19 0.23122009)
(-0.00097024861 -5.7714713e-19 0.23119587)
(-0.00083651865 -1.8455288e-19 0.23117172)
(-0.00070875884 -5.6134586e-19 0.23114702)
(-0.00059401948 -4.6174854e-19 0.23112483)
(-0.00047955086 -4.0768149e-19 0.23110172)
(-0.0003806866 -3.5153514e-19 0.23108485)
(-0.00027461517 -2.9300356e-19 0.23106554)
(-0.00018677753 -3.0602665e-19 0.23105649)
(-8.6577372e-05 -2.9759585e-19 0.23103421)
(2.116022e-06 4.3594437e-20 0.018723199)
(-4.1813775e-06 1.3093283e-19 0.055512958)
(-1.8829937e-05 2.1825873e-19 0.093256114)
(-4.5220019e-05 3.214092e-19 0.13162953)
(-8.575249e-05 4.3582284e-19 0.17022863)
(-0.00014289124 5.0535998e-19 0.20855913)
(-0.00021927554 4.6620333e-19 0.24603097)
(-0.00031771508 3.0876605e-19 0.28195625)
(-0.00044114853 1.7404781e-19 0.31555367)
(-0.00059257297 2.019846e-19 0.345963)
(-0.00077493449 2.5561962e-19 0.37227377)
(-0.00099096172 2.0396218e-19 0.39357287)
(-0.0012429153 2.3545081e-19 0.40901526)
(-0.0015322135 2.7912738e-19 0.41791901)
(-0.001858883 -1.9241885e-19 0.41988036)
(-0.0022207902 1.4204962e-19 0.41489406)
(-0.0026126564 6.1096529e-19 0.40345235)
(-0.0030249857 6.5901972e-19 0.38658505)
(-0.0034432445 1.0126128e-18 0.36580488)
(-0.0038478278 1.2328124e-18 0.34294231)
(-0.0042153523 1.2234163e-18 0.3198932)
(-0.004521451 5.5842072e-19 0.2983415)
(-0.0047445957 1.6302688e-19 0.27953526)
(-0.0048699074 -7.3060642e-20 0.26417347)
(-0.0048917984 -2.9641799e-19 0.25241709)
(-0.0048146977 -4.5920094e-19 0.24399681)
(-0.0046517644 -4.9130083e-19 0.23836971)
(-0.0044220754 -2.404857e-19 0.2348788)
(-0.004147093 -5.3366616e-19 0.23288321)
(-0.0038472907 -9.884865e-19 0.23184292)
(-0.0035397126 -1.0265271e-18 0.23135598)
(-0.0032365955 -2.9843182e-19 0.23115653)
(-0.0029458624 -4.3153483e-19 0.23108872)
(-0.0026712553 -3.0368826e-19 0.23107215)
(-0.0024142715 5.8319308e-20 0.23107061)
(-0.0021750333 -3.4876791e-19 0.23107039)
(-0.001952629 -3.7840134e-19 0.2310672)
(-0.0017457935 -6.1247417e-19 0.23106061)
(-0.0015542524 -9.2188411e-19 0.23105143)
(-0.0013752552 -5.3956763e-19 0.23103954)
(-0.0012100643 -2.4549818e-19 0.23102549)
(-0.0010540468 -5.6232736e-19 0.23100954)
(-0.00091146639 -5.0705117e-19 0.23099326)
(-0.00077331954 -7.3567101e-19 0.23097534)
(-0.00065022242 -4.6905458e-19 0.23095962)
(-0.00052494276 -4.7802091e-19 0.23094147)
(-0.00041779638 -2.1495931e-19 0.2309292)
(-0.00030154471 -2.8923516e-19 0.2309132)
(-0.00020501427 -1.2650701e-19 0.23090642)
(-9.5753728e-05 -2.9566122e-19 0.23088433)
(1.9246345e-06 2.5163417e-20 0.019447692)
(-3.8193199e-06 7.5478379e-20 0.057705751)
(-1.7216051e-05 1.3007091e-19 0.097010041)
(-4.1382151e-05 2.1510295e-19 0.13703766)
(-7.8549171e-05 2.8269585e-19 0.17738252)
(-0.0001310247 3.7126249e-19 0.21754635)
(-0.00020130027 4.6793141e-19 0.25693158)
(-0.00029205437 4.4959373e-19 0.29483784)
(-0.00040612471 4.2562469e-19 0.3304644)
(-0.00054645601 5.9557217e-19 0.36292198)
(-0.00071601551 7.4727651e-19 0.39125812)
(-0.00091766066 9.8623831e-19 0.41450102)
(-0.0011539339 1.241461e-18 0.43172661)
(-0.0014267481 1.1396273e-18 0.44215144)
(-0.0017369139 6.5523127e-19 0.44524939)
(-0.0020834551 3.3360255e-19 0.44088042)
(-0.0024626913 3.7416742e-19 0.42940728)
(-0.0028671568 -7.1303209e-20 0.41176303)
(-0.0032846071 -5.7610473e-19 0.38942848)
(-0.0036975858 -2.5465584e-19 0.36429287)
(-0.0040841209 2.1318944e-19 0.33840784)
(-0.0044199092 3.3426719e-19 0.31368975)
(-0.004681782 1.1430088e-19 0.29165276)
(-0.004851615 -7.2398086e-20 0.2732453)
(-0.0049195341 -2.9418047e-19 0.25882025)
(-0.0048854918 -4.376526e-19 0.24822113)
(-0.0047588594 -5.0591708e-19 0.24093728)
(-0.0045562829 -2.8380706e-19 0.23627712)
(-0.0042984545 1.042008e-20 0.2335204)
(-0.0040066135 -6.5663618e-19 0.23202737)
(-0.0036996314 -7.0421204e-19 0.23129773)
(-0.003392031 -1.6490928e-19 0.23098376)
(-0.0030936861 -3.654279e-19 0.23087088)
(-0.0028100792 -2.9019962e-19 0.23084223)
(-0.0025435696 -5.1430578e-20 0.23084213)
(-0.0022946574 -2.535459e-19 0.23084787)
(-0.0020629537 -2.6083639e-20 0.23085174)
(-0.0018469173 -3.3714304e-19 0.23085214)
(-0.0016465936 -8.2879175e-19 0.23084956)
(-0.0014588545 -3.7126621e-19 0.23084391)
(-0.001285694 -2.5411023e-19 0.2308359)
(-0.0011211054 -2.6205046e-19 0.23082555)
(-0.0009715051 -1.0512189e-18 0.23081484)
(-0.00082471768 -8.293049e-19 0.23080179)
(-0.00069525349 -4.8041069e-19 0.23079102)
(-0.00056148683 -5.0126206e-19 0.23077693)
(-0.00044778423 -2.1876991e-19 0.23076845)
(-0.00032369702 -2.8583783e-19 0.23075559)
(-0.0002199643 -1.3963828e-19 0.23075082)
(-0.00010360223 -2.9399917e-19 0.23072911)
(1.7715744e-06 -3.6674132e-20 0.020113253)
(-3.5264525e-06 -1.0680821e-19 0.05972105)
(-1.5907413e-05 -1.7089173e-19 0.10046156)
(-3.8262506e-05 -2.3456108e-19 0.14201256)
(-7.2678496e-05 -3.1280071e-19 0.18396716)
(-0.00012132492 -3.3977121e-19 0.22582429)
(-0.0001865573 -2.6025391e-19 0.26698069)
(-0.00027092542 -2.8594006e-19 0.30672614)
(-0.00037715428 -3.166744e-19 0.34424435)
(-0.00050810502 -3.3981188e-19 0.37862238)
(-0.00066670872 -3.5009956e-19 0.40887322)
(-0.00085585934 -3.9312187e-19 0.43397609)
(-0.0010782438 -5.2499257e-19 0.45293991)
(-0.0013360767 -2.2293845e-19 0.4648935)
(-0.0016306934 4.1027218e-19 0.46920206)
(-0.0019619475 -1.7492946e-19 0.46560113)
(-0.0023273735 -8.0134915e-19 0.45432659)
(-0.0027211456 -1.0521e-18 0.43620498)
(-0.0031330112 -1.6490299e-18 0.41266063)
(-0.0035475964 -1.5528432e-18 0.38560437)
(-0.003944635 -1.2302385e-18 0.35720152)
(-0.0043005865 -4.5187011e-19 0.32956419)
(-0.0045916531 -1.7304149e-19 0.30445032)
(-0.0047975728 -1.1090747e-19 0.28305372)
(-0.004905129 -9.5161841e-20 0.26593147)
(-0.0049103579 -6.0581155e-19 0.2530632)
(-0.0048189079 -1.0941061e-18 0.24399838)
(-0.0046445887 -7.7544707e-19 0.23803732)
(-0.0044065985 1.2975863e-19 0.23440097)
(-0.0041261377 -3.3715513e-19 0.23236192)
(-0.0038232346 -1.1928182e-19 0.23132475)
(-0.0035143144 -2.085349e-19 0.23085642)
(-0.0032111656 -3.3967038e-19 0.23067678)
(-0.0029209657 -3.4451235e-19 0.23062551)
(-0.0026472281 -5.6340371e-19 0.2306221)
(-0.002390921 -2.332157e-19 0.23063164)
(-0.0021521184 2.0185046e-19 0.23064139)
(-0.0019290939 -6.4163552e-19 0.23064793)
(-0.0017222002 -6.8583574e-19 0.23065115)
(-0.0015276417 -4.2066027e-19 0.23065091)
(-0.0013484885 -6.2907749e-19 0.23064806)
(-0.0011768674 -3.1847061e-19 0.23064232)
(-0.0010218174 -1.0035268e-18 0.2306361)
(-0.000867785 -8.6952093e-19 0.23062689)
(-0.00073304404 -4.8922354e-19 0.23061986)
(-0.00059231696 -4.3588699e-19 0.23060899)
(-0.00047292044 -3.5373783e-19 0.23060327)
(-0.00034250951 -2.872131e-19 0.23059299)
(-0.00023247723 -3.2132773e-19 0.23058962)
(-0.00011030989 -2.9413959e-19 0.23056807)
(1.6460558e-06 -2.3371882e-20 0.020730787)
(-3.2855777e-06 -7.0931272e-20 0.061591507)
(-1.4828683e-05 -1.2133391e-19 0.10366598)
(-3.5686179e-05 -1.789962e-19 0.1466329)
(-6.7820893e-05 -2.2004011e-19 0.19008509)
(-0.00011328167 -2.6984812e-19 0.23351944)
(-0.00017430213 -3.0519871e-19 0.27632822)
(-0.00025331198 -3.2227153e-19 0.31779331)
(-0.00035292461 -3.4052214e-19 0.35708552)
(-0.00047590708 -3.5432018e-19 0.39327226)
(-0.00062512729 -2.9831947e-19 0.42533741)
(-0.00080346625 -2.775909e-19 0.45221856)
(-0.0010136756 -2.8809194e-19 0.47286705)
(-0.001258152 -4.4303807e-19 0.48633509)
(-0.001538585 -5.2775234e-19 0.49189115)
(-0.0018554262 -5.4335254e-19 0.48915681)
(-0.0022071325 -7.2877037e-19 0.47824664)
(-0.0025891856 -9.1894954e-19 0.4598773)
(-0.0029930122 -1.0681874e-18 0.43540121)
(-0.0034051283 -1.2872265e-18 0.40672353)
(-0.0038070206 -1.0759526e-18 0.37608876)
(-0.0041762758 -6.6743895e-19 0.34577122)
(-0.0044891343 -4.7441208e-19 0.31774842)
(-0.0047240478 -4.1358074e-19 0.29344952)
(-0.0048652988 -3.3984451e-19 0.27364022)
(-0.0049056459 -3.5858949e-19 0.25845168)
(-0.0048473078 -7.2143803e-19 0.24751504)
(-0.0047011542 -7.8852351e-19 0.24014526)
(-0.0044844431 -2.8950657e-19 0.23552426)
(-0.0042176966 -2.1118153e-19 0.23285076)
(-0.0039214639 -1.7173416e-19 0.23144066)
(-0.0036135905 -2.3239804e-19 0.23077525)
(-0.0033076101 -3.2460341e-19 0.23050417)
(-0.0030123363 -3.6020631e-19 0.23041753)
(-0.0027325802 -4.6329385e-19 0.23040473)
(-0.0024699593 -2.2931826e-19 0.23041515)
(-0.0022250839 6.5069935e-20 0.23042913)
(-0.0019961024 -5.6640858e-19 0.23044062)
(-0.0017838558 -6.4128933e-19 0.23044871)
(-0.001583629 -4.4890146e-19 0.23045303)
(-0.0013998863 -6.0737945e-19 0.2304546)
(-0.0012225465 -4.5852939e-19 0.23045285)
(-0.0010633754 -9.7422309e-19 0.23045053)
(-0.00090358068 -8.7971367e-19 0.23044476)
(-0.00076457265 -4.9751004e-19 0.23044096)
(-0.00061837478 -4.1072268e-19 0.23043303)
(-0.00049408599 -3.5367647e-19 0.23042962)
(-0.00035862285 -2.8848603e-19 0.23042172)
(-0.00024310782 -3.1265173e-19 0.23041946)
(-0.00011607169 -2.941091e-19 0.23039791)
(1.5406913e-06 -5.7460043e-20 0.021308273)
(-3.0832499e-06 -1.7092372e-19 0.063341066)
(-1.3920886e-05 -2.9130996e-19 0.10666396)
(-3.3515205e-05 -4.2052544e-19 0.15095672)
(-6.3722e-05 -5.2687572e-19 0.19581221)
(-0.00010648439 -6.3860241e-19 0.24072584)
(-0.00016392745 -7.5162332e-19 0.28508631)
(-0.00023837162 -7.5763542e-19 0.32816891)
(-0.00033232471 -7.368434e-19 0.36913369)
(-0.00044845905 -5.6852756e-19 0.40703131)
(-0.00058956842 -2.1781664e-19 0.44082071)
(-0.00075849499 3.1595784e-19 0.46940356)
(-0.00095800906 9.8007744e-19 0.49168101)
(-0.0011906143 5.460352e-19 0.5066378)
(-0.0014582413 -3.219971e-19 0.51345579)
(-0.0017617781 -4.9789108e-19 0.51165235)
(-0.0021003875 -5.5686921e-19 0.50122744)
(-0.0024705942 1.0890873e-19 0.48278808)
(-0.0028652245 3.0941071e-19 0.45760554)
(-0.0032724604 7.0739129e-19 0.42755944)
(-0.0036754656 -3.0589411e-19 0.39494571)
(-0.0040531126 -5.415717e-19 0.36217139)
(-0.0043820999 -6.849214e-19 0.33140964)
(-0.0046402118 -9.3469243e-19 0.30431191)
(-0.0048099223 -1.4539765e-18 0.28185177)
(-0.0048813236 -1.0982097e-18 0.26432147)
(-0.0048535991 -2.1975778e-19 0.25144995)
(-0.0047347749 -3.2377285e-19 0.24258562)
(-0.0045399566 -1.1336449e-18 0.23688934)
(-0.0042885452 -3.9745879e-19 0.2335)
(-0.0040010825 -2.1115391e-19 0.23165318)
(-0.0036963542 -2.4789634e-19 0.23074676)
(-0.0033893701 -2.883238e-19 0.23035762)
(-0.0030904718 -2.3777816e-19 0.23022139)
(-0.0028058007 7.1025414e-20 0.23019236)
(-0.0025377338 -1.7439205e-19 0.23020054)
(-0.0022875206 3.7938582e-20 0.23021718)
(-0.0020531693 9.8448755e-20 0.23023257)
(-0.0018362164 -4.1818879e-19 0.23024463)
(-0.0016308471 -4.0832168e-19 0.23025266)
(-0.0014431491 -2.3318929e-19 0.23025781)
(-0.001260782 -4.9334446e-19 0.2302593)
(-0.0010980772 -1.2034087e-18 0.23026011)
(-0.00093351244 -8.8945227e-19 0.23025724)
(-0.00079080056 -5.0540005e-19 0.23025603)
(-0.00064026914 -4.0364351e-19 0.23025071)
(-0.00051174028 -3.5451275e-19 0.23024921)
(-0.00037225141 -2.8982467e-19 0.23024344)
(-0.00025205744 -3.0713967e-19 0.23024213)
(-0.00012097657 -2.9407193e-19 0.23022046)
(1.450654e-06 -1.9963381e-20 0.021851631)
(-2.9096301e-06 -5.6634833e-20 0.064987546)
(-1.314124e-05 -9.3477687e-20 0.10948583)
(-3.1648981e-05 -1.3014925e-19 0.15502744)
(-6.0194987e-05 -1.778161e-19 0.20120546)
(-0.00010062912 -2.2346717e-19 0.24751429)
(-0.00015497967 -2.5751424e-19 0.2933397)
(-0.00022546802 -2.6811524e-19 0.33795147)
(-0.00031450416 -2.7434144e-19 0.38050042)
(-0.0004246691 -2.5869923e-19 0.42002274)
(-0.00055867972 -1.8847244e-19 0.45545573)
(-0.00071932698 -1.2928533e-19 0.48566962)
(-0.00090937268 -4.2105645e-20 0.50952131)
(-0.0011313808 -2.6990679e-20 0.52593553)
(-0.0013874477 -1.1434462e-19 0.53401617)
(-0.0016787849 -1.2033256e-19 0.53318512)
(-0.0020051016 -1.7467096e-19 0.52333464)
(-0.0023637595 -1.4726894e-19 0.5049644)
(-0.0027487504 6.9229448e-20 0.47925923)
(-0.0031497037 2.1818651e-19 0.4480589)
(-0.0035513327 -5.9091399e-20 0.41368859)
(-0.0039338351 -4.4444732e-19 0.37866257)
(-0.0042746137 -6.7159166e-19 0.34532714)
(-0.0045512213 -8.2441438e-19 0.3155417)
(-0.0047448675 -9.1568091e-19 0.29048363)
(-0.0048435116 -9.1044305e-19 0.27061158)
(-0.0048437141 -7.1848786e-19 0.2557642)
(-0.0047508591 -4.9150811e-19 0.24533858)
(-0.0045778515 -6.0075543e-19 0.23849012)
(-0.004342698 -4.9644698e-19 0.23431139)
(-0.0040655268 -2.6342228e-19 0.23196693)
(-0.003765642 -2.5967827e-19 0.2307753)
(-0.003459229 -2.9149673e-19 0.23023997)
(-0.0031580151 -2.4071146e-19 0.23003848)
(-0.0028694621 -2.2716286e-20 0.22998558)
(-0.0025967657 -1.0217523e-19 0.22998817)
(-0.0023419337 5.4048637e-21 0.23000604)
(-0.002102796 4.5003038e-20 0.23002461)
(-0.0018817416 -4.0049287e-19 0.23004014)
(-0.0016717521 -3.9339407e-19 0.23005142)
(-0.0014805726 -2.7310809e-19 0.23005965)
(-0.0012937761 -4.4436721e-19 0.23006394)
(-0.0011278488 -1.1169138e-18 0.23006732)
(-0.00095924329 -8.8919701e-19 0.23006691)
(-0.00081311104 -5.1284876e-19 0.23006774)
(-0.00065901366 -4.0326872e-19 0.23006464)
(-0.00052668902 -3.5512922e-19 0.23006464)
(-0.00038387088 -2.9160457e-19 0.2300607)
(-0.00025963661 -3.0523311e-19 0.23006011)
(-0.00012514949 -2.942855e-19 0.23003818)
(1.3726879e-06 9.0384005e-21 0.022365492)
(-2.7586214e-06 2.7064746e-20 0.066544891)
(-1.246281e-05 4.6225151e-20 0.11215535)
(-3.0023992e-05 6.4655711e-20 0.15887905)
(-5.7121576e-05 6.4161406e-20 0.20630953)
(-9.5522374e-05 6.2407352e-20 0.25394043)
(-0.00014716774 6.5241311e-20 0.30115514)
(-0.00021418936 -6.4835044e-20 0.34721875)
(-0.00029890711 -2.2312243e-19 0.39127405)
(-0.00040381559 -2.8439039e-19 0.43234464)
(-0.00053155513 -4.8887722e-19 0.46934875)
(-0.00068485942 -8.1187334e-19 0.50112877)
(-0.00086646607 -1.2050042e-18 0.52650226)
(-0.0010789682 -1.0615532e-18 0.5443401)
(-0.0013245764 -1.6600305e-19 0.55367555)
(-0.0016047444 -1.1961398e-19 0.55384276)
(-0.0019196102 9.4064644e-21 0.54463299)
(-0.0022672138 -4.2531375e-19 0.52644192)
(-0.0026425203 -3.561963e-19 0.50036538)
(-0.0030364128 -5.8232882e-19 0.46819289)
(-0.0034350111 9.8169125e-20 0.43226122)
(-0.0038198107 -2.7810707e-19 0.39517008)
(-0.0041690554 -4.6028798e-19 0.3594182)
(-0.0044603692 -4.647827e-19 0.32705827)
(-0.0046741138 -2.0240102e-19 0.29946546)
(-0.0047965644 -3.6853641e-19 0.2772671)
(-0.0048220427 -1.182305e-18 0.2604201)
(-0.0047535345 -9.7265257e-19 0.24838248)
(-0.0046017986 -1.8923437e-19 0.24031755)
(-0.0043833005 -3.5715671e-19 0.23528392)
(-0.0041174597 -2.4976296e-19 0.23238455)
(-0.0038237432 -2.6319767e-19 0.23086399)
(-0.0035192105 -2.8414654e-19 0.23015325)
(-0.0032167983 -2.8558909e-19 0.22986943)
(-0.0029252494 -5.2510715e-19 0.22978395)
(-0.0026485989 -1.6184348e-19 0.22977704)
(-0.0023897309 -6.3980845e-20 0.22979452)
(-0.0021462873 -3.1972583e-19 0.22981557)
(-0.0019216066 -6.3428566e-19 0.22983417)
(-0.001707487 -3.2515002e-19 0.22984842)
(-0.0015131958 -6.7128566e-19 0.2298594)
(-0.0013225653 -4.7734366e-19 0.22986623)
(-0.0011536735 -7.8995885e-19 0.22987184)
(-0.00098168244 -8.7857125e-19 0.22987366)
(-0.00083238713 -5.1948464e-19 0.2298762)
(-0.00067531897 -4.0414898e-19 0.22987505)
(-0.00053958123 -3.5545135e-19 0.22987628)
(-0.00039393192 -2.93044e-19 0.22987391)
(-0.00026616795 -3.0525988e-19 0.22987388)
(-0.00012873482 -2.9436589e-19 0.22985154)
(1.3043937e-06 -2.0266537e-20 0.022853578)
(-2.6261214e-06 -6.3104782e-20 0.068024312)
(-1.186683e-05 -1.0971398e-19 0.11469161)
(-2.8595295e-05 -1.6016752e-19 0.16253895)
(-5.4417415e-05 -2.0563419e-19 0.21116041)
(-9.1025646e-05 -2.6040763e-19 0.26004912)
(-0.00014028307 -3.2279114e-19 0.30858653)
(-0.00020423961 -3.9276202e-19 0.35603364)
(-0.00028513216 -4.6696891e-19 0.40152627)
(-0.00038537426 -5.3897865e-19 0.44407685)
(-0.00050753198 -5.9753494e-19 0.48258667)
(-0.00065427911 -6.538859e-19 0.51587328)
(-0.00082831892 -7.0496529e-19 0.5427189)
(-0.0010322534 -7.0003261e-19 0.56194577)
(-0.0012683706 -5.997229e-19 0.57252279)
(-0.0015383078 -4.4150783e-19 0.57370324)
(-0.001842543 -3.7937937e-19 0.56518368)
(-0.0021796706 -4.6716393e-19 0.54725964)
(-0.0025454739 -5.6708858e-19 0.52093712)
(-0.0029319222 -6.9374998e-19 0.48794809)
(-0.0033264012 -3.4210352e-19 0.45062671)
(-0.0037116439 -2.1764107e-19 0.41163953)
(-0.004066802 -3.4809788e-19 0.37361898)
(-0.0043697771 -3.7325634e-19 0.33879664)
(-0.0046004003 -3.2827223e-19 0.30873819)
(-0.0047436303 -4.0108446e-19 0.28423987)
(-0.0047918954 -7.8876098e-19 0.26538291)
(-0.0047460357 -8.1086659e-19 0.25169594)
(-0.0046147731 -3.973426e-19 0.24236151)
(-0.0044129759 -3.2275558e-19 0.23641534)
(-0.0041591525 -2.6226121e-19 0.23290803)
(-0.0038726457 -2.6696191e-19 0.23101607)
(-0.003571109 -2.8379575e-19 0.23010016)
(-0.003268491 -3.1751109e-19 0.22971579)
(-0.0029747452 -4.3123734e-19 0.22958801)
(-0.002694737 -2.1410989e-19 0.22956707)
(-0.0024323149 -1.1927387e-19 0.22958225)
(-0.0021849602 -3.0101334e-19 0.22960498)
(-0.0019569823 -5.674545e-19 0.22962624)
(-0.0017391351 -4.1561329e-19 0.22964317)
(-0.0015419509 -6.5391708e-19 0.22965662)
(-0.0013479756 -5.2581833e-19 0.22966578)
(-0.0011762849 -8.178361e-19 0.22967333)
(-0.0010014266 -8.6514301e-19 0.22967717)
(-0.00084919707 -5.2534587e-19 0.22968118)
(-0.0006896121 -4.0504316e-19 0.22968178)
(-0.00055081427 -3.5471844e-19 0.22968408)