/*--------------------------------*- C++ -*----------------------------------*\
| =========                 |                                                 |
| \\      /  F ield         | OpenFOAM: The Open Source CFD Toolbox           |
|  \\    /   O peration     | Version:  4.0                                   |
|   \\  /    A nd           | Web:      www.OpenFOAM.org                      |
|    \\/     M anipulation  |                                                 |
\*---------------------------------------------------------------------------*/
FoamFile
{
    version     2.0;
    format      ascii;
    class       surfaceScalarField;
    location    "538";
    object      phi;
}
// * * * * * * * * * * * * * * * * * * * * * * * * * * * * * * * * * * * * * //

dimensions      [1 0 -1 0 0 0 0];

internalField   nonuniform List<scalar> 
9850
(
5.4340915e-11
2.0714519e-10
2.2466509e-10
6.9012048e-10
5.2662194e-10
1.3082082e-09
9.7334008e-10
2.0862012e-09
1.5735184e-09
3.0507714e-09
2.3295182e-09
4.2294987e-09
3.2355129e-09
5.649594e-09
4.2759631e-09
7.3362641e-09
5.4247494e-09
9.3108408e-09
6.6452717e-09
1.1588912e-08
7.8917312e-09
1.4178814e-08
9.1116391e-09
1.7080955e-08
1.0249355e-08
2.0288457e-08
1.1250238e-08
2.3789576e-08
1.206484e-08
2.757219e-08
1.2652506e-08
3.1630423e-08
1.2983896e-08
3.5973215e-08
1.3042135e-08
4.0634414e-08
1.2822567e-08
4.568376e-08
1.233133e-08
5.1238046e-08
1.1583049e-08
5.7471665e-08
1.0597971e-08
6.4625754e-08
9.398742e-09
7.3015212e-08
8.0067743e-09
8.3033071e-08
6.4383855e-09
9.5152259e-08
4.7007301e-09
1.0992571e-07
2.7879556e-09
1.2798696e-07
6.7899103e-10
1.5005376e-07
-1.6589076e-09
1.7693556e-07
-4.2452767e-09
2.0956925e-07
-7.1191631e-09
2.4905294e-07
-1.0308955e-08
2.9668249e-07
-1.3823954e-08
3.5401893e-07
-1.7650944e-08
4.2295934e-07
-2.1755706e-08
5.0581323e-07
-2.6090914e-08
6.0538835e-07
-3.0609568e-08
7.2508927e-07
-3.5282436e-08
8.6903295e-07
-4.0118928e-08
1.0421856e-06
-4.5190423e-08
1.2505252e-06
-5.0655699e-08
1.5012338e-06
-5.6790915e-08
1.8029224e-06
-6.403554e-08
2.1659012e-06
-7.3037744e-08
2.602442e-06
-8.48785e-08
3.1273184e-06
-1.0087377e-07
3.7573009e-06
-1.2468699e-07
4.5151088e-06
-1.5680514e-07
5.4145828e-06
-2.0187254e-07
6.4855087e-06
7.1247242e-06
-3.241696e-11
2.3956351e-10
-1.4542494e-10
8.0312865e-10
-3.6852807e-10
1.5313118e-09
-7.4029514e-10
2.457969e-09
-1.3103146e-09
3.6207912e-09
-2.1412528e-09
5.0604371e-09
-3.3104846e-09
6.8188267e-09
-4.9106276e-09
8.9364079e-09
-7.0480195e-09
1.1448235e-08
-9.8380091e-09
1.4378904e-08
-1.3395943e-08
1.7736752e-08
-1.7823324e-08
2.1508342e-08
-2.3189776e-08
2.5654917e-08
-2.9513271e-08
3.0113078e-08
-3.6742958e-08
3.4801884e-08
-4.4749993e-08
3.9637465e-08
-5.3330867e-08
4.4554096e-08
-6.222461e-08
4.9528166e-08
-7.1140835e-08
5.4599997e-08
-7.979183e-08
5.9889056e-08
-8.7920835e-08
6.560069e-08
-9.532061e-08
7.2025558e-08
-1.0184033e-07
7.9534962e-08
-1.0738269e-07
8.8575494e-08
-1.1189576e-07
9.9665394e-08
-1.1536381e-07
1.1339385e-07
-1.1780064e-07
1.3042389e-07
-1.1924716e-07
1.5150039e-07
-1.1977788e-07
1.7746643e-07
-1.1949394e-07
2.0928542e-07
-1.1851436e-07
2.4807346e-07
-1.1698102e-07
2.9514928e-07
-1.1505767e-07
3.5209566e-07
-1.129272e-07
4.2082899e-07
-1.1079245e-07
5.0367864e-07
-1.0887873e-07
6.0347469e-07
-1.0743586e-07
7.2364648e-07
-1.0674031e-07
8.6833742e-07
-1.0709708e-07
1.0425423e-06
-1.0884603e-07
1.2522741e-06
-1.1237755e-07
1.5047652e-06
-1.181615e-07
1.8087062e-06
-1.268063e-07
2.174546e-06
-1.390863e-07
2.6147217e-06
-1.5625701e-07
3.1444891e-06
-1.7933109e-07
3.7803739e-06
-2.1147414e-07
4.5472532e-06
-2.4874111e-07
5.4518451e-06
-2.5450044e-07
6.4912754e-06
6.8702185e-06
-3.0339757e-11
2.6990362e-10
-1.3423862e-10
9.0702799e-10
-3.3601159e-10
1.7330857e-09
-6.6633536e-10
2.7882933e-09
-1.1636053e-09
4.1180624e-09
-1.8754768e-09
5.77231e-09
-2.8604733e-09
7.8038241e-09
-4.1894706e-09
1.0265406e-08
-5.9466954e-09
1.3205462e-08
-8.2296148e-09
1.6661826e-08
-1.1146795e-08
2.0653935e-08
-1.48125e-08
2.5174053e-08
-1.9336739e-08
3.0179163e-08
-2.4809914e-08
3.558626e-08
-3.1282594e-08
4.127457e-08
-3.8743222e-08
4.7098098e-08
-4.7099148e-08
5.2910027e-08
-5.6167791e-08
5.8596811e-08
-6.5683412e-08
6.4115622e-08
-7.5320673e-08
6.9526317e-08
-8.4730361e-08
7.5010364e-08
-9.3578712e-08
8.0873897e-08
-1.0158156e-07
8.7537792e-08
-1.0852742e-07
9.5521337e-08
-1.1428845e-07
1.054264e-07
-1.1882146e-07
1.1792686e-07
-1.2216301e-07
1.3376544e-07
-1.2442097e-07
1.5375835e-07
-1.2576205e-07
1.7880752e-07
-1.2639744e-07
2.0992083e-07
-1.2656718e-07
2.4824323e-07
-1.2652084e-07
2.95103e-07
-1.2649635e-07
3.5207122e-07
-1.2670405e-07
4.2103681e-07
-1.2731995e-07
5.0429469e-07
-1.2849052e-07
6.0464541e-07
-1.3034962e-07
7.2550579e-07
-1.3304526e-07
8.7103324e-07
-1.3677196e-07
1.0462692e-06
-1.4180594e-07
1.2573082e-06
-1.485423e-07
1.5115019e-06
-1.5753272e-07
1.8176968e-06
-1.6955386e-07
2.1865675e-06
-1.8558795e-07
2.6307558e-06
-2.0729441e-07
3.1661966e-06
-2.3600936e-07
3.8090874e-06
-2.7481364e-07
4.5860612e-06
-3.1942682e-07
5.4964536e-06
-3.1579837e-07
6.4876551e-06
6.5544117e-06
-2.5839029e-11
2.9574198e-10
-1.1455882e-10
9.9574766e-10
-2.8718243e-10
1.9057093e-09
-5.7028166e-10
3.071393e-09
-9.9730927e-10
4.5450906e-09
-1.610093e-09
6.3850945e-09
-2.4604984e-09
8.6542304e-09
-3.6121554e-09
1.1417066e-08
-5.14204e-09
1.4735348e-08
-7.1414978e-09
1.8661285e-08
-9.7160715e-09
2.3228512e-08
-1.2983145e-08
2.8441129e-08
-1.7066124e-08
3.4262143e-08
-2.2083842e-08
4.0603981e-08
-2.8134396e-08
4.7325127e-08
-3.5274053e-08
5.4237759e-08
-4.3494311e-08
6.113029e-08
-5.2702783e-08
6.7805283e-08
-6.2714803e-08
7.4127637e-08
-7.326112e-08
8.0072636e-08
-8.4012395e-08
8.5761634e-08
-9.4615366e-08
9.1476863e-08
-1.0473204e-07
9.7654466e-08
-1.1407302e-07
1.0486231e-07
-1.2241936e-07
1.1377273e-07
-1.2963188e-07
1.2513939e-07
-1.3565032e-07
1.3978386e-07
-1.4048584e-07
1.5859386e-07
-1.4421115e-07
1.8253283e-07
-1.4695056e-07
2.1266021e-07
-1.4887096e-07
2.5016361e-07
-1.5017244e-07
2.9640443e-07
-1.5107927e-07
3.5297803e-07
-1.5183219e-07
4.2178968e-07
-1.5268286e-07
5.0514532e-07
-1.5389271e-07
6.0585524e-07
-1.5573656e-07
7.2734963e-07
-1.5851106e-07
8.7380772e-07
-1.6254764e-07
1.0503058e-06
-1.6823151e-07
1.2629921e-06
-1.7602933e-07
1.5192999e-06
-1.8652369e-07
1.8281912e-06
-2.0050083e-07
2.200545e-06
-2.1889982e-07
2.6491543e-06
-2.4328805e-07
3.1905864e-06
-2.7496838e-07
3.8407653e-06
-3.1459679e-07
4.6256938e-06
-3.5429311e-07
5.5361446e-06
-3.2391665e-07
6.4572844e-06
6.230491e-06
-2.0225588e-11
3.1596627e-10
-8.9879053e-11
1.0654002e-09
-2.2587828e-10
2.0417083e-09
-4.4987505e-10
3.2953899e-09
-7.8945562e-10
4.8846717e-09
-1.2795881e-09
6.875227e-09
-1.9643149e-09
9.338957e-09
-2.8986543e-09
1.2351405e-08
-4.1505849e-09
1.598728e-08
-5.8028414e-09
2.0313544e-08
-7.9540292e-09
2.5379703e-08
-1.071825e-08
3.1205352e-08
-1.422206e-08
3.7765957e-08
-1.8597304e-08
4.4979227e-08
-2.3968435e-08
5.2696255e-08
-3.043375e-08
6.0703071e-08
-3.8041933e-08
6.8738468e-08
-4.6767965e-08
7.6531309e-08
-5.6495124e-08
8.385479e-08
-6.7010231e-08
9.0587738e-08
-7.8016571e-08
9.6767974e-08
-8.9163442e-08
1.0262372e-07
-1.0008567e-07
1.0857669e-07
-1.1044404e-07
1.1522067e-07
-1.199583e-07
1.2328697e-07
-1.2842859e-07
1.3360967e-07
-1.3574477e-07
1.4710001e-07
-1.4188557e-07
1.6473463e-07
-1.4691095e-07
1.875582e-07
-1.509502e-07
2.1669946e-07
-1.5418726e-07
2.5340066e-07
-1.5684414e-07
2.9906132e-07
-1.591641e-07
3.5529803e-07
-1.6139662e-07
4.2402225e-07
-1.6378712e-07
5.0753588e-07
-1.6657482e-07
6.0864302e-07
-1.7000048e-07
7.3077537e-07
-1.7432328e-07
8.7813059e-07
-1.7984436e-07
1.0558269e-06
-1.8693369e-07
1.2700815e-06
-1.9605954e-07
1.5284259e-06
-2.0781072e-07
1.8399422e-06
-2.2297128e-07
2.2157062e-06
-2.424364e-07
2.6686185e-06
-2.6745572e-07
3.2156076e-06
-2.9916424e-07
3.8724707e-06
-3.3550487e-07
4.6620384e-06
-3.6544765e-07
5.5660827e-06
-3.1578034e-07
6.4076211e-06
5.9147084e-06
-1.7649063e-11
3.3361409e-10
-7.8451782e-11
1.1262021e-09
-1.9720053e-10
2.1604569e-09
-3.9283633e-10
3.4910255e-09
-6.8952653e-10
5.1813612e-09
-1.1179725e-09
7.3036724e-09
-1.7169775e-09
9.9379611e-09
-2.5352593e-09
1.3169687e-08
-3.6334516e-09
1.7085473e-08
-5.0861181e-09
2.1766211e-08
-6.983429e-09
2.7277013e-08
-9.4318831e-09
3.3653806e-08
-1.2553104e-08
4.0887177e-08
-1.6479352e-08
4.8905474e-08
-2.1344214e-08
5.7561117e-08
-2.7267292e-08
6.6626148e-08
-3.4332954e-08
7.5804131e-08
-4.2565691e-08
8.4764043e-08
-5.1907432e-08
9.3196529e-08
-6.2204211e-08
1.0088451e-07
-7.3208533e-08
1.0777229e-07
-8.4599677e-08
1.1401486e-07
-9.6018205e-08
1.1999521e-07
-1.0710651e-07
1.2630897e-07
-1.1754647e-07
1.3372692e-07
-1.2708764e-07
1.4315082e-07
-1.3556373e-07
1.5557607e-07
-1.4289813e-07
1.7206901e-07
-1.4910123e-07
1.9376125e-07
-1.5426207e-07
2.2186027e-07
-1.5853679e-07
2.5767531e-07
-1.6213434e-07
3.0265885e-07
-1.6530145e-07
3.5846509e-07
-1.6830699e-07
4.2702778e-07
-1.7142897e-07
5.1065789e-07
-1.749463e-07
6.1216037e-07
-1.7913801e-07
7.3496709e-07
-1.8429147e-07
8.8328411e-07
-1.9071908e-07
1.0622547e-06
-1.9878151e-07
1.278144e-06
-2.0891823e-07
1.5385627e-06
-2.2166867e-07
1.8526925e-06
-2.3774162e-07
2.2317799e-06
-2.5797494e-07
2.6888507e-06
-2.8325905e-07
3.240894e-06
-3.1457012e-07
3.9037788e-06
-3.4787066e-07
4.6953425e-06
-3.6885128e-07
5.5870597e-06
-3.0555671e-07
6.3443293e-06
5.6091495e-06
-1.5527268e-11
3.4914159e-10
-6.906049e-11
1.1797354e-09
-1.736908e-10
2.2650871e-09
-3.4622113e-10
3.6635555e-09
-6.0814417e-10
5.4432843e-09
-9.8684864e-10
7.6823767e-09
-1.5170758e-09
1.0468188e-08
-2.2426458e-09
1.3895256e-08
-3.2184108e-09
1.8061238e-08
-4.5123397e-09
2.3060141e-08
-6.2074591e-09
2.8972134e-08
-8.4031881e-09
3.5849536e-08
-1.1215245e-08
4.3699234e-08
-1.4772952e-08
5.246318e-08
-1.921242e-08
6.2000582e-08
-2.4664147e-08
7.2077876e-08
-3.1234407e-08
8.2374391e-08
-3.8981635e-08
9.2511269e-08
-4.789195e-08
1.0210684e-07
-5.7860466e-08
1.1085302e-07
-6.8685684e-08
1.1859749e-07
-8.0081321e-08
1.2541048e-07
-9.1704689e-08
1.3161856e-07
-1.0319512e-07
1.3779938e-07
-1.1421356e-07
1.4474533e-07
-1.2447565e-07
1.5341289e-07
-1.3377421e-07
1.6487459e-07
-1.419905e-07
1.8028527e-07
-1.4909628e-07
2.0086699e-07
-1.5514881e-07
2.2791276e-07
-1.6028106e-07
2.6280751e-07
-1.6468824e-07
3.0706598e-07
-1.6861207e-07
3.6238887e-07
-1.7232396e-07
4.3073966e-07
-1.7610996e-07
5.144439e-07
-1.8026011e-07
6.1631053e-07
-1.8506545e-07
7.3977241e-07
-1.9082408e-07
8.8904285e-07
-1.9785652e-07
1.0692872e-06
-2.0652649e-07
1.286814e-06
-2.1726858e-07
1.5493051e-06
-2.3060704e-07
1.8660306e-06
-2.4719433e-07
2.2483682e-06
-2.6783856e-07
2.7094936e-06
-2.9309986e-07
3.2661577e-06
-3.2356793e-07
3.9342443e-06
-3.5380532e-07
4.7255828e-06
-3.6627674e-07
5.5995285e-06
-2.9264269e-07
6.2706974e-06
5.3165047e-06
-1.403236e-11
3.6317433e-10
-6.242416e-11
1.2281271e-09
-1.5702774e-10
2.3596908e-09
-3.1306832e-10
3.8195958e-09
-5.5003968e-10
5.6802555e-09
-8.9281585e-10
8.0251524e-09
-1.3730061e-09
1.0948378e-08
-2.0305775e-09
1.4552827e-08
-2.9157335e-09
1.8946394e-08
-4.0909773e-09
2.4235384e-08
-5.6331659e-09
3.0514324e-08
-7.635189e-09
3.785156e-08
-1.0206593e-08
4.6270639e-08
-1.3472127e-08
5.5728716e-08
-1.7566807e-08
6.6095265e-08
-2.2625953e-08
7.7137024e-08
-2.8769097e-08
8.8517539e-08
-3.6078175e-08
9.9820346e-08
-4.4572841e-08
1.1060149e-07
-5.4188729e-08
1.204689e-07
-6.4765968e-08
1.2917473e-07
-7.6053815e-08
1.3669833e-07
-8.7732598e-08
1.4329733e-07
-9.944851e-08
1.4951527e-07
-1.1085312e-07
1.5614992e-07
-1.2163914e-07
1.6419888e-07
-1.3156708e-07
1.748025e-07
-1.4048114e-07
1.8919929e-07
-1.4831542e-07
2.0870124e-07
-1.5509269e-07
2.3469e-07
-1.6091764e-07
2.6863242e-07
-1.6596597e-07
3.1211424e-07
-1.7046998e-07
3.6689281e-07
-1.7470207e-07
4.349717e-07
-1.7895787e-07
5.1869961e-07
-1.8354199e-07
6.2089459e-07
-1.887605e-07
7.4499092e-07
-1.9492244e-07
8.9520487e-07
-2.0235141e-07
1.0767163e-06
-2.1140448e-07
1.2958671e-06
-2.2249918e-07
1.5604002e-06
-2.3613582e-07
1.8796669e-06
-2.5290006e-07
2.2651334e-06
-2.7354676e-07
2.730139e-06
-2.9836642e-07
3.2909794e-06
-3.2735916e-07
3.9632348e-06
-3.5416942e-07
4.7523955e-06
-3.5879783e-07
5.6041547e-06
-2.7758846e-07
6.1894902e-06
5.0389145e-06
-1.2832229e-11
3.760073e-10
-5.709688e-11
1.272392e-09
-1.4365383e-10
2.4462479e-09
-2.8646368e-10
3.9624055e-09
-5.0341782e-10
5.8972093e-09
-8.1737056e-10
8.3391048e-09
-1.2574082e-09
1.1388415e-08
-1.8603781e-09
1.5155796e-08
-2.672688e-09
1.9758703e-08
-3.7523175e-09
2.5315012e-08
-5.170913e-09
3.1932918e-08
-7.0156593e-09
3.9696305e-08
-9.3903685e-09
4.8645348e-08
-1.2414903e-08
5.8753251e-08
-1.6221639e-08
6.9902002e-08
-2.0947444e-08
8.1862827e-08
-2.6719841e-08
9.4289935e-08
-3.3637123e-08
1.0673763e-07
-4.1744349e-08
1.1870872e-07
-5.1010033e-08
1.2973458e-07
-6.1310499e-08
1.3947519e-07
-7.2428555e-08
1.4781638e-07
-8.4069475e-08
1.5493824e-07
-9.589167e-08
1.6133746e-07
-1.0754486e-07
1.6780309e-07
-1.1870719e-07
1.7536119e-07
-1.2911497e-07
1.8521024e-07
-1.3858213e-07
1.9866642e-07
-1.4700998e-07
2.1712905e-07
-1.5438905e-07
2.42069e-07
-1.6079502e-07
2.7503834e-07
-1.6638039e-07
3.1769953e-07
-1.7136197e-07
3.718743e-07
-1.7600551e-07
4.3961512e-07
-1.8060855e-07
5.2330258e-07
-1.8548464e-07
6.2577067e-07
-1.9095235e-07
7.5045862e-07
-1.9733236e-07
9.0158488e-07
-2.0495473e-07
1.0843388e-06
-2.1417494e-07
1.3050873e-06
-2.2539577e-07
1.5716213e-06
-2.3909465e-07
1.8933654e-06
-2.5579239e-07
2.2818322e-06
-2.7615694e-07
2.7505024e-06
-3.0027311e-07
3.3150973e-06
-3.274626e-07
3.9904225e-06
-3.5072195e-07
4.7756569e-06
-3.4846761e-07
5.6018984e-06
-2.6180082e-07
6.1028256e-06
4.777112e-06
-1.18656e-11
3.8787278e-10
-5.2799842e-11
1.3133262e-09
-1.3285726e-10
2.5263048e-09
-2.649678e-10
4.0945155e-09
-4.6571268e-10
6.097954e-09
-7.5629016e-10
8.6296825e-09
-1.1637081e-09
1.1795832e-08
-1.7222279e-09
1.5714317e-08
-2.4750851e-09
2.0511561e-08
-3.4764418e-09
2.6316371e-08
-4.7934805e-09
3.3249957e-08
-6.5083772e-09
4.1411201e-08
-8.719713e-09
5.0856681e-08
-1.1542513e-08
6.157605e-08
-1.5105786e-08
7.3465274e-08
-1.9546054e-08
8.6303095e-08
-2.4995463e-08
9.9739343e-08
-3.1563783e-08
1.1330595e-07
-3.9315488e-08
1.2646043e-07
-4.824583e-08
1.3866492e-07
-5.8262307e-08
1.4949166e-07
-6.9178575e-08
1.5873264e-07
-8.0725018e-08
1.6648467e-07
-9.2575127e-08
1.7318756e-07
-1.0438164e-07
1.7960959e-07
-1.1581408e-07
1.8679361e-07
-1.2659061e-07
1.9598673e-07
-1.3650041e-07
2.0857615e-07
-1.4541624e-07
2.2604481e-07
-1.5329908e-07
2.4995176e-07
-1.6019647e-07
2.8193566e-07
-1.6623639e-07
3.237394e-07
-1.716171e-07
3.7725493e-07
-1.7659314e-07
4.445911e-07
-1.8145895e-07
5.2816832e-07
-1.8653187e-07
6.3084356e-07
-1.9213863e-07
7.5606538e-07
-1.9860886e-07
9.080551e-07
-2.0627825e-07
1.0920083e-06
-2.155015e-07
1.3143105e-06
-2.2666926e-07
1.5827895e-06
-2.4023837e-07
1.906934e-06
-2.5667689e-07
2.2982716e-06
-2.7654191e-07
2.7703663e-06
-2.9975228e-07
3.3383094e-06
-3.2496297e-07
4.0156317e-06
-3.446368e-07
4.7953325e-06
-3.3638546e-07
5.5936452e-06
-2.4591794e-07
6.0123603e-06
4.5311924e-06
-1.1059578e-11
3.9893262e-10
-4.9219138e-11
1.3514859e-09
-1.23859e-10
2.6009451e-09
-2.4704884e-10
4.2177057e-09
-4.3427361e-10
6.2851791e-09
-7.0534242e-10
8.9007514e-09
-1.0855119e-09
1.2176003e-08
-1.6068651e-09
1.623567e-08
-2.3099434e-09
2.121464e-08
-3.2456477e-09
2.7252074e-08
-4.4772959e-09
3.4481604e-08
-6.0826662e-09
4.3016571e-08
-8.1556129e-09
5.2929626e-08
-1.0806568e-08
6.4227005e-08
-1.4160904e-08
7.6819607e-08
-1.8353714e-08
9.0495905e-08
-2.351959e-08
1.0490522e-07
-2.9776369e-08
1.1956272e-07
-3.720349e-08
1.3388754e-07
-4.5818039e-08
1.4727946e-07
-5.5554303e-08
1.5922792e-07
-6.6253857e-08
1.6943217e-07
-7.7671386e-08
1.7790219e-07
-8.9496874e-08
1.8501302e-07
-1.0138926e-07
1.9150194e-07
-1.1301373e-07
1.9841803e-07
-1.2407498e-07
2.0704792e-07
-1.3434191e-07
2.1884302e-07
-1.4366279e-07
2.3536562e-07
-1.5197194e-07
2.5826083e-07
-1.5929031e-07
2.8925393e-07
-1.6572127e-07
3.3017029e-07
-1.7144258e-07
3.8297618e-07
-1.7669433e-07
4.4984279e-07
-1.8176353e-07
5.3323748e-07
-1.8696714e-07
6.3604712e-07
-1.9263649e-07
7.6173475e-07
-1.9910785e-07
9.145264e-07
-2.0672125e-07
1.0996218e-06
-2.1583041e-07
1.3234196e-06
-2.2681417e-07
1.5937737e-06
-2.4010575e-07
1.9202252e-06
-2.5612716e-07
2.314294e-06
-2.7530864e-07
2.789547e-06
-2.9741243e-07
3.3604147e-06
-3.2050199e-07
4.0387201e-06
-3.3658192e-07
4.8114141e-06
-3.2308596e-07
5.5801476e-06
-2.3019097e-07
5.9194679e-06
4.3009997e-06
-1.0377343e-11
4.0931015e-10
-4.618653e-11
1.3872951e-09
-1.1623627e-10
2.6709945e-09
-2.3186324e-10
4.3333326e-09
-4.0761904e-10
6.4609347e-09
-6.6212751e-10
9.1552596e-09
-1.0191513e-09
1.2533027e-08
-1.5089008e-09
1.6725419e-08
-2.1696016e-09
2.187534e-08
-3.0493261e-09
2.8131797e-08
-4.2080233e-09
3.56403e-08
-5.71958e-09
4.4528126e-08
-7.6735837e-09
5.4883628e-08
-1.0176171e-08
6.6729592e-08
-1.3349029e-08
7.9992463e-08
-1.732521e-08
9.4472085e-08
-2.22403e-08
1.0982031e-07
-2.8217782e-08
1.2554021e-07
-3.5348713e-08
1.4101847e-07
-4.3668123e-08
1.5559886e-07
-5.3133336e-08
1.6869312e-07
-6.3611042e-08
1.7990987e-07
-7.4879002e-08
1.8917013e-07
-8.6644201e-08
1.9677819e-07
-9.857383e-08
2.0343153e-07
-1.1033179e-07
2.1017596e-07
-1.21613e-07
2.1832907e-07
-1.3216979e-07
2.2939976e-07
-1.4182926e-07
2.45025e-07
-1.5050185e-07
2.6693332e-07
-1.5818374e-07
2.9693572e-07
-1.6495442e-07
3.3694087e-07
-1.7097036e-07
3.8899205e-07
-1.76455e-07
4.5532732e-07
-1.8168456e-07
5.3846699e-07
-1.869718e-07
6.4133431e-07
-1.9264929e-07
7.6741224e-07
-1.990572e-07
9.2093432e-07
-2.0653871e-07
1.1071034e-06
-2.1544588e-07
1.3323267e-06
-2.2614649e-07
1.6044746e-06
-2.3904697e-07
1.9331254e-06
-2.545257e-07
2.3297736e-06
-2.7288146e-07
2.8079021e-06
-2.9371234e-07
3.3812469e-06
-3.1458795e-07
4.0595947e-06
-3.2713442e-07
4.8239622e-06
-3.0905506e-07
5.5620665e-06
-2.1483402e-07
5.8252497e-06
4.0861639e-06
-9.789931e-12
4.1910067e-10
-4.357589e-11
1.4210814e-09
-1.0967327e-10
2.7370923e-09
-2.1878751e-10
4.4424471e-09
-3.8466352e-10
6.6268106e-09
-6.2489977e-10
9.3954959e-09
-9.6196381e-10
1.2870091e-08
-1.4244406e-09
1.7187895e-08
-2.0485367e-09
2.2499436e-08
-2.8798512e-09
2.8963112e-08
-3.9753621e-09
3.673581e-08
-5.405497e-09
4.5958259e-08
-7.2559835e-09
5.6734113e-08
-9.6289726e-09
6.910258e-08
-1.264254e-08
8.3006026e-08
-1.6427345e-08
9.8256888e-08
-2.1119011e-08
1.1451197e-07
-2.6844912e-08
1.3126611e-07
-3.3705168e-08
1.4787872e-07
-4.1749653e-08
1.6364334e-07
-5.0955548e-08
1.77899e-07
-6.1212094e-08
1.901664e-07
-7.231871e-08
2.0027672e-07
-8.3999364e-08
2.084588e-07
-9.5930817e-08
2.1536293e-07
-1.0777802e-07
2.2202312e-07
-1.1922884e-07
2.2977983e-07
-1.3002209e-07
2.4019293e-07
-1.399665e-07
2.5496932e-07
-1.4895123e-07
2.7591793e-07
-1.569496e-07
3.0493396e-07
-1.6401821e-07
3.4400934e-07
-1.7029222e-07
3.9526595e-07
-1.7597694e-07
4.6101199e-07
-1.8133569e-07
5.4382564e-07
-1.8667374e-07
6.4667233e-07
-1.923218e-07
7.7306029e-07
-1.9862146e-07
9.2723396e-07
-2.0591724e-07
1.1143993e-06
-2.1455875e-07
1.3409682e-06
-2.2490273e-07
1.614819e-06
-2.3732739e-07
1.9455497e-06
-2.5216655e-07
2.3446135e-06
-2.6959213e-07
2.825327e-06
-2.8902802e-07
3.4006841e-06
-3.0764442e-07
4.0782102e-06
-3.1677789e-07
4.8330972e-06
-2.9469981e-07
5.5399867e-06
-2.0001133e-07
5.7305642e-06
3.8861509e-06
-9.279973e-12
4.2837989e-10
-4.1303832e-11
1.4531053e-09
-1.0395805e-10
2.7997464e-09
-2.0739598e-10
4.5458848e-09
-3.6465731e-10
6.7840716e-09
-5.9244452e-10
9.6232825e-09
-9.1209014e-10
1.3189736e-08
-1.3507522e-09
1.7626556e-08
-1.9428598e-09
2.3091542e-08
-2.7318265e-09
2.9752077e-08
-3.7719903e-09
3.7775974e-08
-5.1306777e-09
4.7316945e-08
-6.8901219e-09
5.8493558e-08
-9.148779e-09
7.1361238e-08
-1.2021244e-08
8.5878493e-08
-1.563562e-08
1.0187126e-07
-2.0126903e-08
1.1900325e-07
-2.5625079e-08
1.3676428e-07
-3.2237365e-08
1.5449101e-07
-4.0025968e-08
1.7143193e-07
-4.898527e-08
1.8685829e-07
-5.9024741e-08
2.0020585e-07
-6.9963995e-08
2.1121594e-07
-8.1543659e-08
2.2003844e-07
-9.3450921e-08
2.2727014e-07
-1.0535344e-07
2.3392559e-07
-1.1693429e-07
2.4136062e-07
-1.2792116e-07
2.5117972e-07
-1.3810695e-07
2.65155e-07
-1.4736168e-07
2.8517253e-07
-1.5563769e-07
3.1320984e-07
-1.6296996e-07
3.5134146e-07
-1.6947272e-07
4.0176857e-07
-1.7533267e-07
4.6687181e-07
-1.8079821e-07
5.4929109e-07
-1.8616495e-07
6.5203903e-07
-1.9175893e-07
7.7865425e-07
-1.9792075e-07
9.3339577e-07
-2.0499467e-07
1.1214733e-06
-2.1332658e-07
1.3493e-06
-2.2326207e-07
1.6247549e-06
-2.3514993e-07
1.9574374e-06
-2.4927674e-07
2.3587411e-06
-2.6569538e-07
2.8417452e-06
-2.836515e-07
3.4186415e-06
-2.99996e-07
4.0945538e-06
-3.0587114e-07
4.8389741e-06
-2.803113e-07
5.5144252e-06
-1.8582721e-07
5.6360833e-06
3.7003219e-06
-8.8293288e-12
4.3720896e-10
-3.9301735e-11
1.4835774e-09
-9.8922918e-11
2.8593675e-09
-1.9736021e-10
4.6443217e-09
-3.4703082e-10
6.9337417e-09
-5.6384454e-10
9.8400955e-09
-8.6812928e-10
1.3494021e-08
-1.2857797e-09
1.8044206e-08
-1.8496457e-09
2.3655408e-08
-2.6011955e-09
3.0503627e-08
-3.5924081e-09
3.8767185e-08
-4.8878139e-09
4.8612349e-08
-6.5664659e-09
6.0172206e-08
-8.723403e-09
7.3518171e-08
-1.1469895e-08
8.8624982e-08
-1.4931409e-08
1.0533277e-07
-1.9241876e-08
1.2331372e-07
-2.4532936e-08
1.4205534e-07
-3.0917383e-08
1.6087545e-07
-3.8467721e-08
1.7898226e-07
-4.7193284e-08
1.9558385e-07
-5.7021706e-08
2.1003426e-07
-6.7791362e-08
2.2198558e-07
-7.9259102e-08
2.3150614e-07
-9.1122922e-08
2.3913391e-07
-1.0305452e-07
2.4585712e-07
-1.1473394e-07
2.5303997e-07
-1.2587977e-07
2.6232547e-07
-1.3627112e-07
2.7554625e-07
-1.4576091e-07
2.9466222e-07
-1.542823e-07
3.2173105e-07
-1.6184984e-07
3.5890884e-07
-1.6855756e-07
4.0847609e-07
-1.7457327e-07
4.7288735e-07
-1.8012951e-07
5.5484721e-07
-1.8551031e-07
6.5741973e-07
-1.9103473e-07
7.8417862e-07
-1.9704024e-07
9.3940123e-07
-2.0386905e-07
1.1283022e-06
-2.1186229e-07
1.3572932e-06
-2.213538e-07
1.6342468e-06
-2.3266268e-07
1.968746e-06
-2.4602511e-07
2.3721042e-06
-2.6138322e-07
2.8571029e-06
-2.7780747e-07
3.4350669e-06
-2.9189574e-07
4.1086413e-06
-2.9468912e-07
4.8417691e-06
-2.6610674e-07
5.4858413e-06
-1.7235106e-07
5.542331e-06
3.5279693e-06
-8.4286961e-12
4.4563814e-10
-3.7521864e-11
1.5126707e-09
-9.44476e-11
2.9162934e-09
-1.8843982e-10
4.7383139e-09
-3.3136168e-10
7.0766634e-09
-5.3841707e-10
1.004715e-08
-8.2903834e-10
1.3784642e-08
-1.2279913e-09
1.8443157e-08
-1.7667132e-09
2.4194129e-08
-2.4849235e-09
3.1221837e-08
-3.4324733e-09
3.9714735e-08
-4.6713639e-09
4.9851241e-08
-6.2777439e-09
6.1778585e-08
-8.3434883e-09
7.5583911e-08
-1.0976715e-08
9.1258206e-08
-1.4300247e-08
1.086563e-07
-1.8446653e-08
1.2746012e-07
-2.3548515e-08
1.471572e-07
-2.9722986e-08
1.6704991e-07
-3.7051217e-08
1.8631048e-07
-4.5555568e-08
2.0408819e-07
-5.5180029e-08
2.196587e-07
-6.5780392e-08
2.3258592e-07
-7.7129089e-08
2.4285481e-07
-8.8935226e-08
2.5094e-07
-1.0087541e-07
2.5779725e-07
-1.1262814e-07
2.6479263e-07
-1.2390464e-07
2.7360188e-07
-1.3447201e-07
2.861135e-07
-1.4416777e-07
3.0435787e-07
-1.5290739e-07
3.3047054e-07
-1.6068646e-07
3.6668776e-07
-1.675795e-07
4.1536899e-07
-1.7373574e-07
4.7904343e-07
-1.7937118e-07
5.6048252e-07
-1.8475687e-07
6.6280527e-07
-1.9020302e-07
7.8962469e-07
-1.9604201e-07
9.4524016e-07
-2.0261256e-07
1.1348728e-06
-2.1024981e-07
1.3649304e-06
-2.1927495e-07
1.6432723e-06
-2.2997766e-07
1.9794487e-06
-2.425416e-07
2.3846688e-06
-2.5680608e-07
2.871367e-06
-2.7167528e-07
3.4499372e-06
-2.8354892e-07
4.1205142e-06
-2.834505e-07
4.8416724e-06
-2.5225375e-07
5.454643e-06
-1.5962794e-07
5.4497086e-06
3.3683399e-06
-8.0709638e-12
4.537093e-10
-3.5929503e-11
1.5405294e-09
-9.0441643e-11
2.9708057e-09
-1.8045285e-10
4.8283249e-09
-3.1732866e-10
7.2135394e-09
-5.1563874e-10
1.0245461e-08
-7.9401177e-10
1.4063016e-08
-1.1761972e-09
1.8825343e-08
-1.6923608e-09
2.4710293e-08
-2.3806435e-09
3.1910121e-08
-3.2889707e-09
4.0623063e-08
-4.4770434e-09
5.1039312e-08
-6.0183407e-09
6.3319878e-08
-8.0018006e-09
7.7567365e-08
-1.0532562e-08
9.378896e-08
-1.3730833e-08
1.1185456e-07
-1.7727627e-08
1.314569e-07
-2.2655918e-08
1.5208548e-07
-2.8636276e-08
1.7303026e-07
-3.5757126e-08
1.9343132e-07
-4.4052236e-08
2.1238328e-07
-5.3480314e-08
2.2908677e-07
-6.3913323e-08
2.4301891e-07
-7.5138632e-08
2.5408009e-07
-8.6876511e-08
2.6267783e-07
-9.8809207e-08
2.697299e-07
-1.1061486e-07
2.7659819e-07
-1.219987e-07
2.8498562e-07
-1.3271739e-07
2.9683206e-07
-1.4259466e-07
3.1423501e-07
-1.5152976e-07
3.3940548e-07
-1.595005e-07
3.7465833e-07
-1.6656289e-07
4.2243121e-07
-1.7284788e-07
4.8532821e-07
-1.7855462e-07
5.6618912e-07
-1.8394021e-07
6.6819072e-07
-1.8930463e-07
7.9498899e-07
-1.9497342e-07
9.5090885e-07
-2.0128028e-07
1.1411797e-06
-2.0855338e-07
1.3722034e-06
-2.1710051e-07
1.6518197e-06
-2.2718235e-07
1.9895305e-06
-2.3892913e-07
2.3964163e-06
-2.5208427e-07
2.8845218e-06
-2.6539904e-07
3.4632532e-06
-2.7512047e-07
4.1302349e-06
-2.7232572e-07
4.8388795e-06
-2.3887644e-07
5.4211923e-06
-1.476815e-07
5.3585176e-06
3.2206568e-06
-7.7492761e-12
4.6145774e-10
-3.4495354e-11
1.567275e-09
-8.6831186e-11
3.0231417e-09
-1.7325286e-10
4.914746e-09
-3.0467646e-10
7.3449627e-09
-4.9509937e-10
1.0435884e-08
-7.6242226e-10
1.4330339e-08
-1.1294743e-09
1.9192395e-08
-1.6252688e-09
2.5206088e-08
-2.2865147e-09
3.2571368e-08
-3.1593824e-09
4.1495931e-08
-4.3014638e-09
5.2181393e-08
-5.7837864e-09
6.48022e-08
-7.6925596e-09
7.9476136e-08
-1.0130105e-08
9.6226501e-08
-1.3214082e-08
1.1493853e-07
-1.7073808e-08
1.3531662e-07
-2.1842254e-08
1.5685392e-07
-2.7642628e-08
1.7883062e-07
-3.4569507e-08
2.0035818e-07
-4.2666659e-08
2.2048041e-07
-5.1906115e-08
2.3832621e-07
-6.2174815e-08
2.5328758e-07
-7.3274397e-08
2.6517964e-07
-8.4936236e-08
2.7433962e-07
-9.6848782e-08
2.8164239e-07
-1.0869072e-07
2.8844004e-07
-1.2016258e-07
2.9645738e-07
-1.3101192e-07
3.0768128e-07
-1.4105003e-07
3.2427298e-07
-1.5016129e-07
3.4851659e-07
-1.5830698e-07
3.8280383e-07
-1.6552551e-07
4.2964954e-07
-1.7193003e-07
4.9173253e-07
-1.7770296e-07
5.7196191e-07
-1.8308678e-07
6.7357436e-07
-1.8836993e-07
8.0027203e-07
-1.9386975e-07
9.5640861e-07
-1.9991365e-07
1.1472236e-06
-2.0682187e-07
1.3791116e-06
-2.1488812e-07
1.6598863e-06
-2.2434449e-07
1.9989869e-06
-2.3526803e-07
2.4073405e-06
-2.4731265e-07
2.8965661e-06
-2.5909271e-07
3.4750344e-06
-2.6673986e-07
4.1378814e-06
-2.6144424e-07
4.8335856e-06
-2.2606267e-07
5.3858091e-06
-1.3652e-07
5.2689789e-06
3.0841354e-06
-7.4572321e-12
4.6891352e-10
-3.3194024e-11
1.5930112e-09
-8.3556642e-11
3.0735037e-09
-1.6672099e-10
4.9979103e-09
-2.9319704e-10
7.471439e-09
-4.7646171e-10
1.0619149e-08
-7.337551e-10
1.4587632e-08
-1.087069e-09
1.9545708e-08
-1.5643642e-09
2.5683384e-08
-2.2010442e-09
3.3208048e-08
-3.0416723e-09
4.2336559e-08
-4.1419059e-09
5.3281626e-08
-5.5705057e-09
6.62308e-08
-7.4111408e-09
8.1316771e-08
-9.7634714e-09
9.857883e-08
-1.2742683e-08
1.1791774e-07
-1.6476326e-08
1.3905026e-07
-2.1097045e-08
1.6147463e-07
-2.6730065e-08
1.8446363e-07
-3.3475164e-08
2.0710328e-07
-4.1384939e-08
2.2839017e-07
-5.0443462e-08
2.4738471e-07
-6.0551578e-08
2.6339567e-07
-7.1524534e-08
2.7615255e-07
-8.3104674e-08
2.8591971e-07
-9.4987036e-08
2.9352468e-07
-1.0685165e-07
3.0030456e-07
-1.1839539e-07
3.0800101e-07
-1.293579e-07
3.1864365e-07
-1.395393e-07
3.3445421e-07
-1.4881028e-07
3.5778739e-07
-1.5711668e-07
3.9111006e-07
-1.6448038e-07
4.37013e-07
-1.7099739e-07
4.9824931e-07
-1.7683355e-07
5.7779783e-07
-1.8221619e-07
6.7895684e-07
-1.8742155e-07
8.0547725e-07
-1.9275747e-07
9.6174448e-07
-1.9854384e-07
1.1530101e-06
-2.0509219e-07
1.38566e-06
-2.1268148e-07
1.667476e-06
-2.2151586e-07
2.0078213e-06
-2.3162038e-07
2.4174458e-06
-2.4256563e-07
2.9075112e-06
-2.5284516e-07
3.4853152e-06
-2.5850789e-07
4.1435435e-06
-2.5090271e-07
4.8259822e-06
-2.1387163e-07
5.3487766e-06
-1.2613813e-07
5.1812496e-06
2.9579959e-06
-7.1888594e-12
4.7610248e-10
-3.2004356e-11
1.6178269e-09
-8.0566004e-11
3.1220659e-09
-1.6076011e-10
5.0781047e-09
-2.8272447e-10
7.5934031e-09
-4.5946033e-10
1.0795884e-08
-7.0760282e-10
1.4835773e-08
-1.0483784e-09
1.9886483e-08
-1.508787e-09
2.6143792e-08
-2.1230321e-09
3.3822292e-08
-2.9342012e-09
4.3147726e-08
-3.9961683e-09
5.4343591e-08
-5.3755944e-09
6.7610226e-08
-7.1537781e-09
8.3094955e-08
-9.4278637e-09
1.0085292e-07
-1.231065e-08
1.2080053e-07
-1.592787e-08
1.4266748e-07
-2.0411604e-08
1.6595836e-07
-2.5888595e-08
1.8994061e-07
-3.246304e-08
2.1367771e-07
-4.0195312e-08
2.3612243e-07
-4.9080415e-08
2.5626979e-07
-5.9032097e-08
2.7334732e-07
-6.9878562e-08
2.8699897e-07
-8.1372934e-08
2.9741404e-07
-9.3217111e-08
3.0536879e-07
-1.0509317e-07
3.1218053e-07
-1.1669523e-07
3.1960295e-07
-1.2775603e-07
3.2970433e-07
-1.3806562e-07
3.4476366e-07
-1.4748221e-07
3.6720381e-07
-1.559373e-07
3.9956492e-07
-1.6343703e-07
4.4451249e-07
-1.7006108e-07
5.0487311e-07
-1.7595897e-07
5.8369547e-07
-1.8134289e-07
6.8434056e-07
-1.8647606e-07
8.1061026e-07
-1.9165597e-07
9.6692428e-07
-1.9719386e-07
1.158548e-06
-2.0339172e-07
1.3918579e-06
-2.1051355e-07
1.6745982e-06
-2.1873582e-07
2.0160437e-06
-2.2803391e-07
2.4267446e-06
-2.379007e-07
2.9173779e-06
-2.4672539e-07
3.4941411e-06
-2.5050093e-07
4.1473185e-06
-2.4077057e-07
4.8162536e-06
-2.0233932e-07
5.3103439e-06
-1.1652028e-07
5.0954348e-06
2.8414742e-06
-6.9458694e-12
4.8304702e-10
-3.0919084e-11
1.6417994e-09
-7.7832612e-11
3.1689788e-09
-1.5530621e-10
5.1555777e-09
-2.7313596e-10
7.7112323e-09
-4.4388736e-10
1.0966635e-08
-6.8364043e-10
1.5075526e-08
-1.0129188e-09
2.0215761e-08
-1.4578385e-09
2.6588712e-08
-2.0514976e-09
3.4415951e-08
-2.8356223e-09
4.393185e-08
-3.862438e-09
5.5370405e-08
-5.196658e-09
6.8944444e-08
-6.9173639e-09
8.4815656e-08
-9.1193198e-09
1.0305487e-07
-1.1913016e-08
1.2359422e-07
-1.5422354e-08
1.4617681e-07
-1.9778678e-08
1.7031468e-07
-2.5109832e-08
1.9527175e-07
-3.1523757e-08
2.2009162e-07
-3.9087709e-08
2.4368637e-07
-4.7806635e-08
2.6498869e-07
-5.7606276e-08
2.8314693e-07
-6.8327154e-08