/*--------------------------------*- C++ -*----------------------------------*\
| =========                 |                                                 |
| \\      /  F ield         | OpenFOAM: The Open Source CFD Toolbox           |
|  \\    /   O peration     | Version:  4.0                                   |
|   \\  /    A nd           | Web:      www.OpenFOAM.org                      |
|    \\/     M anipulation  |                                                 |
\*---------------------------------------------------------------------------*/
FoamFile
{
    version     2.0;
    format      ascii;
    class       volScalarField;
    location    "538";
    object      rho;
}
// * * * * * * * * * * * * * * * * * * * * * * * * * * * * * * * * * * * * * //

dimensions      [1 -3 0 0 0 0 0];

internalField   nonuniform List<scalar> 
5000
(
0.95335684
0.96439577
0.97641488
0.98939528
1.0032824
1.0179793
1.0333426
1.0491807
1.0652569
1.0812983
1.0970101
1.1120951
1.1262757
1.1393153
1.1510365
1.1613314
1.1701647
1.177568
1.183628
1.1884716
1.1922498
1.1951229
1.1972497
1.1987785
1.1998426
1.2005569
1.2010174
1.2013009
1.2014669
1.2015584
1.2016058
1.2016287
1.201639
1.2016433
1.201645
1.2016456
1.2016457
1.2016458
1.2016458
1.2016458
1.2016458
1.2016458
1.2016458
1.2016458
1.2016458
1.2016458
1.2016458
1.2016458
1.2016458
1.2016458
0.9200609
0.92897302
0.93872143
0.94936519
0.96095665
0.97353531
0.98711963
1.0016967
1.01721
1.0335471
1.0505281
1.0678992
1.0853345
1.10245
1.1188317
1.134076
1.147836
1.1598631
1.1700334
1.178352
1.184936
1.1899823
1.1937304
1.1964296
1.1983139
1.1995881
1.200421
1.2009459
1.2012634
1.2014469
1.2015477
1.2015999
1.2016252
1.2016367
1.2016415
1.2016434
1.201644
1.2016442
1.2016443
1.2016443
1.2016443
1.2016443
1.2016443
1.2016443
1.2016443
1.2016443
1.2016443
1.2016443
1.2016443
1.2016443
0.90744981
0.91556689
0.92443612
0.93411711
0.94466872
0.95614574
0.96859393
0.98204288
0.99649649
1.0119209
1.0282304
1.0452734
1.0628208
1.0805618
1.0981129
1.1150417
1.1309089
1.1453193
1.1579733
1.1687027
1.1774833
1.1844204
1.1897149
1.193622
1.1964116
1.1983391
1.1996271
1.2004584
1.2009752
1.2012836
1.2014593
1.2015543
1.2016028
1.201626
1.2016363
1.2016405
1.2016421
1.2016426
1.2016428
1.2016428
1.2016428
1.2016428
1.2016428
1.2016428
1.2016428
1.2016428
1.2016428
1.2016428
1.2016428
1.2016427
0.90030756
0.90797914
0.91635423
0.92548976
0.93544361
0.94627238
0.95802802
0.97075277
0.9844719
0.99918405
1.0148488
1.0313726
1.0485937
1.0662714
1.0840819
1.1016284
1.1184686
1.1341592
1.1483103
1.1606375
1.1709967
1.1793911
1.1859524
1.1909031
1.1945117
1.1970546
1.198787
1.1999272
1.2006512
1.2010934
1.2013523
1.2014969
1.2015733
1.2016114
1.2016291
1.2016367
1.2016397
1.2016408
1.2016412
1.2016413
1.2016413
1.2016413
1.2016413
1.2016413
1.2016413
1.2016413
1.2016413
1.2016413
1.2016413
1.2016412
0.89532481
0.90268772
0.91072023
0.91947667
0.92901293
0.93938498
0.95064622
0.9628437
0.97601239
0.99016732
1.0052931
1.0213309
1.038164
1.0556036
1.0733799
1.0911413
1.1084711
1.1249205
1.1400585
1.1535283
1.1650948
1.1746704
1.1823124
1.1881948
1.1925654
1.1957026
1.1978791
1.1993382
1.2002826
1.2008714
1.201224
1.2014259
1.2015359
1.2015924
1.2016197
1.2016319
1.201637
1.2016389
1.2016395
1.2016397
1.2016398
1.2016398
1.2016398
1.2016398
1.2016398
1.2016398
1.2016398
1.2016398
1.2016398
1.2016397
0.89157658
0.89870853
0.90648485
0.91495772
0.92418126
0.93421026
0.94509821
0.95689413
0.96963796
0.9833539
0.99804146
1.0136638
1.0301343
1.0473017
1.0649383
1.0827342
1.1003046
1.1172138
1.1330173
1.1473162
1.1598112
1.1703411
1.1788942
1.1855921
1.1906524
1.1943441
1.1969465
1.1987195
1.1998862
1.2006268
1.2010789
1.2013435
1.2014911
1.2015692
1.201608
1.201626
1.2016337
1.2016368
1.2016378
1.2016382
1.2016383
1.2016383
1.2016383
1.2016383
1.2016383
1.2016383
1.2016383
1.2016383
1.2016383
1.2016382
0.88858615
0.89553459
0.90310742
0.91135505
0.92032999
0.93008581
0.94067556
0.95214907
0.96454908
0.97790553
0.99222767
1.0074938
1.0236384
1.0405382
1.0579986
1.0757451
1.0934244
1.1106203
1.1268893
1.1418094
1.155037
1.166352
1.1756827
1.1830993
1.1887852
1.192993
1.1960015
1.1980805
1.1994688
1.2003638
1.2009195
1.2012508
1.2014395
1.2015417
1.2015939
1.2016188
1.2016299
1.2016344
1.2016361
1.2016366
1.2016368
1.2016368
1.2016368
1.2016368
1.2016368
1.2016368
1.2016368
1.2016368
1.2016368
1.2016366
0.88611572
0.89291306
0.90031843
0.90838073
0.91715105
0.92668182
0.93702542
0.94823194
0.96034576
0.97340056
0.98741238
1.0023703
1.0182245
1.0348729
1.0521476
1.0698034
1.0875156
1.1048902
1.1214914
1.1368867
1.1507017
1.1626709
1.1726704
1.1807232
1.1869767
1.1916636
1.1950567
1.1974311
1.1990373
1.200087
1.2007484
1.2011492
1.2013817
1.2015102
1.2015774
1.2016103
1.2016254
1.2016317
1.2016341
1.201635
1.2016352
1.2016353
1.2016353
1.2016353
1.2016353
1.2016353
1.2016353
1.2016353
1.2016352
1.2016351
0.88401914
0.89068862
0.89795233
0.90585788
0.91445511
0.92379539
0.93393039
0.94491012
0.95677995
0.96957616
0.98331966
0.99800753
1.0136021
1.0300181
1.0471086
1.0646537
1.0823541
1.0998373
1.1166795
1.132445
1.1467389
1.1592599
1.1698403
1.1784596
1.1852301
1.1903619
1.1941189
1.1967775
1.1985967
1.1997999
1.200568
1.20104
1.2013184
1.201475
1.2015586
1.2016006
1.2016202
1.2016287
1.2016321
1.2016333
1.2016337
1.2016338
1.2016338
1.2016338
1.2016338
1.2016338
1.2016338
1.2016338
1.2016337
1.2016336
0.88220404
0.88876308
0.89590449
0.90367475
0.91212258
0.92129838
0.93125308
0.94203649
0.95369453
0.9662653
0.9797734
0.9942221
1.0095832
1.0257848
1.0426978
1.060123
1.0777841
1.095329
1.1123474
1.1284055
1.1430947
1.1560865
1.1671756
1.1763024
1.1835454
1.1890914
1.1931925
1.196124
1.1981505
1.1995052
1.20038
1.2009246
1.2012502
1.2014364
1.2015376
1.2015895
1.2016143
1.2016254
1.2016299
1.2016316
1.2016321
1.2016323
1.2016323
1.2016323
1.2016323
1.2016323
1.2016323
1.2016323
1.2016322
1.2016321
0.88060768
0.88706981
0.89410393
0.90175552
0.91007232
0.91910381
0.92890024
0.93951107
0.95098256
0.96335413
0.97665316
0.99088781
1.0060376
1.0220415
1.0387851
1.0560875
1.0736922
1.0912664
1.1084139
1.1247057
1.1397252
1.1531222
1.1646601
1.1742441
1.1819208
1.1878532
1.1922802
1.1954735
1.1977014
1.1992051
1.2001861
1.2008037
1.2011777
1.2013946
1.2015145
1.2015771
1.2016078
1.2016217
1.2016276
1.2016298
1.2016305
1.2016308
1.2016308
1.2016309
1.2016309
1.2016308
1.2016308
1.2016308
1.2016307
1.2016306
0.87918585
0.88556182
0.89250059
0.90004675
0.90824713
0.9171504
0.92680612
0.93726338
0.94856858
0.96076211
0.97387355
0.98791498
1.0028722
1.0186933
1.0352764
1.0524562
1.0699939
1.0875745
1.1048162
1.1212963
1.1365942
1.1503429
1.1622795
1.1722776
1.1803537
1.1866474
1.1913833
1.1948278
1.1972513
1.1989012
1.1999875
1.2006784
1.2011015
1.2013501
1.2014894
1.2015635
1.2016005
1.2016177
1.201625
1.2016279
1.2016289
1.2016292
1.2016293
1.2016294
1.2016294
1.2016293
1.2016293
1.2016293
1.2016292
1.201629
0.87790624
0.8842048
0.89105793
0.89850941
0.90660527
0.9153934
0.92492271
0.9352419
0.94639741
0.95843032
0.97137196
0.98523763
1.0000183
1.0156699
1.0321012
1.0491604
1.0666248
1.0841954
1.1015046
1.1181376
1.1336718
1.1477281
1.1600209
1.1703957
1.1788411
1.1854735
1.1905026
1.1941884
1.1968015
1.1985946
1.1997852
1.2005493
1.201022
1.201303
1.2014626
1.2015487
1.2015924
1.2016132
1.2016223
1.201626
1.2016273
1.2016277
1.2016278
1.2016279
1.2016279
1.2016278
1.2016278
1.2016278
1.2016277
1.2016275
0.87674457
0.88297297
0.8897485
0.8971142
0.90511537
0.91379918
0.92321395
0.93340795
0.94442756
0.95631441
0.96910121
0.98280593
0.99742394
1.0129178
1.0292055
1.0461473
1.0635345
1.0810834
1.0984396
1.115197
1.1309335
1.1452603
1.157873
1.1685921
1.1773799
1.1843306
1.1896385
1.1935559
1.1963531
1.1982864
1.19958
1.200417
1.2009396
1.2012535
1.201434
1.2015327
1.2015837
1.2016084
1.2016194
1.2016239
1.2016256
1.2016262
1.2016263
1.2016264
1.2016264
1.2016263
1.2016263
1.2016263
1.2016261
1.201626
0.87568217
0.88184649
0.88855117
0.89583857
0.90375332
0.91234192
0.92165211
0.93173176
0.94262713
0.95438023
0.96702492
0.98058141
0.9950488
1.0103954
1.0265473
1.0433752
1.0606834
1.0782019
1.0955892
1.112448
1.1283584
1.1429245
1.1558259
1.1668607
1.175967
1.1832174
1.1887908
1.1929311
1.1959068
1.1979774
1.1993725
1.200282
1.2008547
1.201202
1.2014039
1.2015157
1.2015743
1.2016031
1.2016163
1.2016218
1.2016239
1.2016246
1.2016248
1.2016249
1.2016249
1.2016248
1.2016248
1.2016247
1.2016246
1.2016245
0.87470438
0.88080981
0.88744938
0.89466485
0.90250021
0.91100134
0.92021545
0.93018998
0.94097106
0.95260097
0.96511449
0.97853374
0.99286105
1.0080698
1.0240929
1.0408109
1.0580393
1.0755211
1.0929269
1.1098685
1.1259292
1.140708
1.153871
1.1651963
1.1745997
1.1821329
1.1879594
1.1923142
1.1954633
1.1976681
1.1991632
1.2001448
1.2007676
1.2011486
1.2013723
1.2014977
1.2015643
1.2015975
1.2016129
1.2016195
1.2016221
1.201623
1.2016233
1.2016234
1.2016234
1.2016233
1.2016233
1.2016232
1.2016231
1.201623
0.87379952
0.87985051
0.88642991
0.89357892
0.90134093
0.90976127
0.9188866
0.92876398
0.93943935
0.95095519
0.96334706
0.97663869
0.9908352
1.0059143
1.0218154
1.0384273
1.0555761
1.0730166
1.0904308
1.1074399
1.1236309
1.1385995
1.1520005
1.1635941
1.1732752
1.1810759
1.1871439
1.1917055
1.1950228
1.1973589
1.1989526
1.2000056
1.2006786
1.2010935
1.2013393
1.2014786
1.2015535
1.2015915
1.2016094
1.2016172
1.2016203
1.2016214
1.2016218
1.2016218
1.2016219
1.2016218
1.2016218
1.2016217
1.2016216
1.2016215
0.87295808
0.87895852
0.88548205
0.89256935
0.90026328
0.90860861
0.91765151
0.92743867
0.93801581
0.94942555
0.96170409
0.97487654
0.98895049
1.0039075
1.0196927
1.0362024
1.0532722
1.070668
1.0880827
1.1051465
1.1214509
1.1365895
1.1502077
1.1620497
1.1719911
1.180045
1.1863441
1.1911049
1.1945858
1.1970503
1.1987411
1.1998649
1.2005878
1.2010368
1.2013051
1.2014587
1.2015422
1.2015851
1.2016056
1.2016147
1.2016184
1.2016198
1.2016202
1.2016203
1.2016204
1.2016203
1.2016203
1.2016202
1.2016201
1.20162
0.87217231
0.87812557
0.884597
0.89162676
0.8992572
0.90753259
0.91649864
0.92620165
0.93668713
0.94799778
0.96017033
0.97323109
0.98718983
1.0020316
1.0177064
1.0341176
1.0511096
1.0684582
1.085867
1.1029747
1.119378
1.1346696
1.1484866
1.1605592
1.170745
1.1790392
1.1855595
1.1905126
1.1941524
1.1967426
1.198529
1.1997229
1.2004956
1.2009788
1.2012698
1.2014378
1.2015302
1.2015783
1.2016016
1.2016122
1.2016165
1.2016181
1.2016187
1.2016188
1.2016189
1.2016188
1.2016188
1.2016187
1.2016186
1.2016185
0.87143572
0.87734482
0.88376746
0.89074335
0.89831437
0.90652431
0.91541842
0.92504264
0.93544227
0.94666004
0.95873311
0.97168886
0.98553897
1.0002715
1.0158412
1.0321576
1.0490731
1.0663729
1.0837704
1.1009131
1.1174029
1.1328323
1.1468318
1.1591191
1.1695349
1.1780574
1.1847897
1.1899284
1.1937228
1.196436
1.1983165
1.1995798
1.200402
1.2009194
1.2012334
1.2014162
1.2015177
1.2015711
1.2015974
1.2016095
1.2016146
1.2016165
1.2016171
1.2016173
1.2016173
1.2016173
1.2016173
1.2016172
1.2016171
1.201617
0.87074291
0.8766105
0.8829873
0.88991259
0.8974278
0.90557626
0.91440281
0.92395302
0.93427197
0.94540238
0.9573818
0.97023854
0.98398595
0.99861492
1.0140842
1.0303092
1.0471497
1.0643996
1.0817816
1.0989517
1.1155171
1.1310711
1.1452387
1.1577261
1.1683588
1.1770984
1.1840341
1.1893524
1.1932971
1.1961308
1.1981038
1.1994358
1.2003073
1.200859
1.201196
1.2013937
1.2015046
1.2015636
1.201593
1.2016067
1.2016125
1.2016148
1.2016156
1.2016158
1.2016158
1.2016158
1.2016158
1.2016157
1.2016156
1.2016154
0.87008927
0.87591775
0.88225135
0.88912896
0.89659158
0.90468213
0.91344502
0.92292548
0.93316837
0.94421639
0.9561074
0.9688705
0.98252059
0.99705105
1.0124244
1.0285613
1.0453283
1.0625276
1.0798907
1.0970816
1.1137133
1.1293802
1.1437029
1.1563773
1.1672147
1.1761614
1.1832925
1.1887843
1.1928755
1.195827
1.1978912
1.1992911
1.2002116
1.2007975
1.2011577
1.2013706
1.201491
1.2015557
1.2015884
1.2016038
1.2016104
1.2016131
1.201614
1.2016143
1.2016143
1.2016143
1.2016143
1.2016142
1.2016141
1.2016139
0.8694709
0.87526239
0.88155517
0.88838772
0.89580066
0.90383648
0.91253923
0.92195379
0.93212479
0.94309489
0.95490221
0.96757656
0.98113421
0.99557081
1.0108523
1.0269042
1.0435995
1.0607478
1.0780892
1.0952953
1.1119851
1.1277545
1.1422205
1.1550701
1.1661012
1.1752454
1.1825642
1.1882241
1.1924579
1.1955249
1.1976787
1.1991459
1.200115
1.2007351
1.2011185
1.2013468
1.2014769
1.2015474
1.2015835
1.2016007
1.2016083
1.2016113
1.2016124
1.2016128
1.2016128
1.2016128
1.2016128
1.2016127
1.2016125
1.2016124
0.8688844
0.87464085
0.88089495
0.88768482
0.89505069
0.90303468
0.91168046
0.92103259
0.93113546
0.94203169
0.9537596
0.96634963
0.9798193
0.99416633
1.0093598
1.0253297
1.0419548
1.0590521
1.0763694
1.093586
1.1103266
1.1261893
1.1407882
1.153802
1.1650166
1.1743494
1.181849
1.1876717
1.1920444
1.1952244
1.1974666
1.1990002
1.2000177
1.2006719
1.2010786
1.2013223
1.2014623
1.2015388
1.2015784
1.2015975
1.2016061
1.2016095
1.2016108
1.2016112
1.2016113
1.2016113
1.2016112
1.2016112
1.201611
1.2016109
0.86832687
0.87405004
0.88026739
0.88701674
0.89433792
0.9022727
0.91086439
0.92015723
0.9301954
0.94102144
0.95267384
0.96518361
0.97856938
0.99283075
1.0079398
1.0238304
1.040387
1.0574334
1.0747247
1.0919478
1.1087328
1.1246805
1.1394027
1.1525708
1.1639594
1.1734726
1.1811463
1.1871268
1.191635
1.1949258
1.1972549
1.1988542
1.1999197
1.2006079
1.201038
1.2012972
1.2014472
1.2015299
1.2015731
1.2015942
1.2016038
1.2016077
1.2016092
1.2016097
1.2016098
1.2016098
1.2016097
1.2016096
1.2016095
1.2016094
0.86779576
0.87348724
0.87966963
0.8863804
0.89365906
0.90154702
0.91008724
0.91932367
0.92930027
0.94005946
0.95163992
0.96407313
0.97737875
0.99155812
1.0065859
1.0224
1.0388898
1.0558855
1.0731493
1.0903752
1.1071992
1.1232244
1.1380612
1.1513746
1.1629285
1.1726144
1.1804558
1.1865894
1.1912296
1.1946291
1.1970438
1.198708
1.1998211
1.2005432
1.2009967
1.2012716
1.2014317
1.2015207
1.2015676
1.2015908
1.2016014
1.2016059
1.2016076
1.2016081
1.2016083
1.2016083
1.2016082
1.2016081
1.201608
1.2016079
0.86728883
0.87295009
0.87909914
0.88577313
0.89301125
0.90085457
0.90934573
0.91852838
0.92844624
0.93914168
0.95065346
0.96301353
0.97624246
0.99034317
1.0052929
1.0210329
1.0374576
1.0544028
1.071638
1.0888637
1.1057214
1.1218175
1.1367611
1.1502113
1.1619224
1.1717738
1.1797771
1.1860593
1.1908284
1.1943343
1.1968332
1.1985617
1.1997221
1.200478
1.2009549
1.2012455
1.2014158
1.2015112
1.2015619
1.2015872
1.201599
1.201604
1.2016059
1.2016066
1.2016068
1.2016068
1.2016067
1.2016066
1.2016065
1.2016064
0.86680412
0.8724365
0.8785537
0.88519256
0.89239195
0.90019264
0.90863694
0.91776821
0.92762998
0.93826448
0.94971059
0.96200066
0.97515609
0.98918128
1.0040557
1.0197241
1.0360852
1.0529806
1.070186
1.0874088
1.104296
1.1204569
1.1355
1.1490793
1.1609401
1.1709502
1.1791098
1.1855362
1.1904312
1.1940416
1.1966234
1.1984153
1.1996227
1.2004122
1.2009124
1.2012188
1.2013995
1.2015014
1.201556
1.2015836
1.2015965
1.2016021
1.2016043
1.201605
1.2016053
1.2016053
1.2016052
1.2016051
1.201605
1.2016049
0.86633989
0.87194463
0.87803134
0.88463658
0.89179893
0.89955882
0.90795829
0.91704042
0.92684849
0.93742468
0.94880789
0.96103086
0.97411575
0.98806833
1.0028702
1.0184692
1.0347682
1.0516143
1.0687893
1.0860068
1.1029194
1.1191396
1.1342757
1.1479771
1.1599804
1.170143
1.1784536
1.1850202
1.190038
1.1937508
1.1964144
1.198269
1.1995229
1.2003459
1.2008695
1.2011918
1.2013828
1.2014913
1.2015499
1.2015798
1.2015939
1.2016002
1.2016026
1.2016035
1.2016037
1.2016038
1.2016037
1.2016036
1.2016035
1.2016034
0.86589458
0.87147283
0.87753032
0.88410334
0.89123018
0.89895099
0.9073075
0.91634253
0.92609916
0.93661942
0.94794232
0.96010088
0.97311799
0.98700066
1.0017325
1.0172642
1.0335027
1.0503
1.0674439
1.0846541
1.1015886
1.1178633
1.1330862
1.146903
1.1590425
1.1693514
1.1778081
1.1845109
1.1896487
1.1934621
1.1962062
1.1981228
1.1994229
1.2002792
1.2008261
1.2011642
1.2013657
1.2014809
1.2015436
1.2015758
1.2015913
1.2015982
1.2016009
1.2016019
1.2016022
1.2016023
1.2016022
1.2016021
1.201602
1.2016019
0.86546681
0.87101963
0.87704907
0.88359117
0.89068394
0.89836724
0.90668253
0.91567236
0.9253796
0.93584619
0.94711115
0.9592078
0.97215969
0.98597498
1.0006391
1.0161056
1.0322851
1.0490343
1.0661466
1.0833478
1.1003009
1.1166254
1.1319298
1.1458558
1.1581252
1.168575
1.1771729
1.1840083
1.1892634
1.1931754
1.1959989
1.1979768
1.1993227
1.2002121
1.2007823
1.2011363
1.2013484
1.2014703
1.2015371
1.2015718
1.2015886
1.2015961
1.2015992
1.2016003
1.2016007
1.2016007
1.2016007
1.2016006
1.2016005
1.2016004
0.86505534
0.87058371
0.87658619
0.88309857
0.8901586
0.89780586
0.90608153
0.91502793
0.92468772
0.9351027
0.94631194
0.95834902
0.97123807
0.98498836
0.99958708
1.0149902
1.031112
1.0478138
1.0648942
1.0820848
1.0990538
1.115424
1.1308045
1.1448342
1.1572279
1.1678132
1.1765478
1.1835122
1.188882
1.1928908
1.1957924
1.197831
1.1992223
1.2001446
1.2007381
1.2011081
1.2013307
1.2014594
1.2015305
1.2015676
1.2015858
1.2015941
1.2015975
1.2015988
1.2015992
1.2015992
1.2015992
1.2015991
1.201599
1.2015989
0.86465906
0.87016389
0.87614042
0.88262421
0.88965272
0.8972653
0.90550287
0.91440747
0.92402159
0.9343869
0.9455425
0.95752217
0.97035063
0.98403815
0.99857352
1.0139152
1.0299807
1.0466357
1.063684
1.0808625
1.0978448
1.114257
1.129709
1.143837
1.1563495
1.1670654
1.1759325
1.1830224
1.1885043
1.1926083
1.1955869
1.1976855
1.1991218
1.2000769
1.2006936
1.2010794
1.2013127
1.2014483
1.2015237
1.2015634
1.201583
1.201592
1.2015958
1.2015972
1.2015976
1.2015977
1.2015977
1.2015976
1.2015975
1.2015974
0.86427694
0.8697591
0.87571063
0.88216686
0.88916502
0.89674419
0.90494504
0.91380939
0.92337951
0.93369696
0.94480084
0.95672515
0.96949511
0.98312193
0.99759595
1.0128779
1.0288885
1.0454974
1.0625134
1.0796787
1.0966718
1.1131225
1.1286417
1.1428631
1.1554894
1.1663311
1.1753266
1.1825388
1.1881305
1.1923278
1.1953824
1.1975402
1.1990212
1.2000089
1.2006487
1.2010505
1.2012944
1.201437
1.2015167
1.201559
1.2015801
1.2015898
1.201594
1.2015956
1.2015961
1.2015962
1.2015962
1.2015961
1.201596
1.2015959
0.86390809
0.86936836
0.87529578
0.88172543
0.88869431
0.89624127
0.90440671
0.91323223
0.92275992
0.9330312
0.94408516
0.95595602
0.96866944
0.98223754
0.99665208
1.0118759
1.0278328
1.0443963
1.06138
1.0785311
1.095533
1.112019
1.1276013
1.1419115
1.1546468
1.1656098
1.1747298
1.1820612
1.1877603
1.1920494
1.1951788
1.1973953
1.1989205
1.1999407
1.2006035
1.2010213
1.2012759
1.2014255
1.2015095
1.2015545
1.2015771
1.2015877
1.2015922
1.201594
1.2015945
1.2015947
1.2015947
1.2015946
1.2015945
1.2015944
0.86355166
0.8689908
0.87489493
0.88129891
0.88823954
0.89575539
0.90388664
0.91267469
0.9221614
0.93238809
0.94339384
0.95521303
0.96787177
0.98138299
0.99573983
1.0109072
1.0268116
1.0433305
1.0602817
1.0774177
1.0944264
1.1109449
1.1265865
1.1409811
1.1538211
1.1649012
1.1741419
1.1815895
1.1873938
1.1917731
1.1949763
1.1972507
1.1988199
1.1998722
1.2005581
1.2009917
1.2012571
1.2014137
1.2015022
1.2015499
1.201574
1.2015854
1.2015904
1.2015923
1.201593
1.2015932
1.2015931
1.2015931
1.201593
1.2015929
0.8632069
0.86862562
0.87450723
0.88088641
0.88779971
0.8952855
0.90338373
0.91213555
0.92158266
0.93176625
0.94272538
0.95449459
0.96710039
0.98055649
0.9948573
1.0099696
1.0258228
1.0422977
1.0592166
1.0763366
1.0933505
1.1098987
1.1255961
1.1400712
1.1530115
1.1642047
1.1735627
1.1811236
1.1870308
1.1914987
1.1947748
1.1971065
1.1987192
1.1998037
1.2005124
1.200962
1.2012381
1.2014018
1.2014948
1.2015452
1.2015709
1.2015832
1.2015886
1.2015907
1.2015915
1.2015916
1.2015916
1.2015916
1.2015915
1.2015914
0.86287312
0.86827207
0.87413191
0.88048709
0.88737396
0.89483067
0.90289695
0.91161373
0.92102253
0.93116442
0.94207843
0.95379924
0.96635374
0.97975638
0.99400276
1.0090615
1.0248646
1.0412962
1.0581828
1.0752862
1.0923036
1.1088791
1.1246291
1.1391808
1.1522176
1.16352
1.1729919
1.1806633
1.1866714
1.1912265
1.1945743
1.1969627
1.1986186
1.1997349
1.2004664
1.2009319
1.2012189
1.2013896
1.2014872
1.2015403
1.2015677
1.2015809
1.2015867
1.2015891
1.2015899
1.2015901
1.2015901
1.20159
1.20159
1.2015899
0.86254969
0.8679295
0.87376824
0.88010018
0.88696146
0.89439002
0.90242536
0.91110822
0.92047993
0.93058143
0.94145175
0.95312565
0.96563041
0.97898115
0.99317461
1.0081812
1.0239352
1.0403242
1.0571787
1.0742648
1.0912843
1.1078848
1.1236843
1.1383092
1.1514386
1.1628466
1.1724292
1.1802085
1.1863154
1.1909562
1.1943748
1.1968193
1.1985181
1.199666
1.2004203
1.2009017
1.2011994
1.2013773
1.2014794
1.2015354
1.2015644
1.2015785
1.2015848
1.2015874
1.2015883
1.2015886
1.2015886
1.2015885
1.2015885
1.2015884
0.86223602
0.86759727
0.87341556
0.87972498
0.88656147
0.89396275
0.90196811
0.9106181
0.91995386
0.93001623
0.94084418
0.9524726
0.96492908
0.9782294
0.99237139
1.0073271
1.0230331
1.0393802
1.0562027
1.0732711
1.0902913
1.1069146
1.1227609
1.1374555
1.150674
1.1621843
1.1718744
1.1797591
1.1859628
1.1906879
1.1941763
1.1966764
1.1984177
1.1995971
1.200374
1.2008712
1.2011798
1.2013648
1.2014716
1.2015304
1.2015611
1.2015761
1.2015829
1.2015857
1.2015868
1.2015871
1.2015871
1.201587
1.201587
1.2015869
0.86193158
0.86727483
0.87307329
0.87936086
0.8861733
0.89354812
0.90152441
0.91014252
0.91944343
0.92946784
0.94025468
0.95183895
0.96424855
0.97749986
0.99159174
1.0064978
1.0221569
1.0384628
1.0552534
1.0723035
1.0893234
1.1059676
1.1218579
1.1366192
1.1499234
1.1615325
1.1713273
1.1793149
1.1856136
1.1904215
1.1939789
1.1965339
1.1983173
1.199528
1.2003275
1.2008405
1.2011599
1.2013522
1.2014636
1.2015253
1.2015577
1.2015737
1.201581
1.2015841
1.2015852
1.2015855
1.2015856
1.2015855
1.2015854
1.2015854
0.86163588
0.86696165
0.87274085
0.87900723
0.88579632
0.89314546
0.90109354
0.90968071
0.91894779
0.92893534
0.93968228
0.95122367
0.96358771
0.97679135
0.99083442
1.005692
1.0213052
1.0375705
1.0543295
1.071361
1.0883793
1.1050426
1.1209746
1.1357995
1.1491863
1.1608911
1.1707877
1.1788758
1.1852676
1.1901571
1.1937826
1.1963919
1.1982171
1.1994589
1.2002808
1.2008097
1.2011399
1.2013394
1.2014554
1.2015201
1.2015542
1.2015712
1.2015791
1.2015824
1.2015836
1.201584
1.2015841
1.201584
1.2015839
1.2015839
0.86134845
0.86665724
0.87241775
0.87866352
0.88542994
0.89275414
0.90067482
0.90923194
0.91846616
0.92841792
0.93912608
0.9506258
0.96294553
0.97610277
0.99009828
1.0049086
1.0204768
1.0367022
1.0534298
1.0704423
1.0874581
1.1041388
1.12011
1.1349958
1.1484621
1.1602597
1.1702553
1.1784416
1.1849249
1.1898947
1.1935872
1.1962503
1.198117
1.1993897
1.200234
1.2007786
1.2011197
1.2013264
1.2014472
1.2015147
1.2015507
1.2015687
1.2015771
1.2015807
1.201582
1.2015825
1.2015826
1.2015825
1.2015824
1.2015824
0.86106888
0.86636117
0.87210349
0.87832924
0.88507362
0.89237358
0.90026763
0.90879555
0.91799783
0.9279148
0.93858525
0.95004444
0.96232106
0.97543312
0.98938226
1.0041464
1.0196705
1.0358566
1.052553
1.0695463
1.0865587
1.1032552
1.1192635
1.1342075
1.1477504
1.1596379
1.16973
1.1780124
1.1845853
1.1896341
1.193393
1.1961092
1.198017
1.1993205
1.2001871
1.2007474
1.2010993
1.2013133
1.2014388
1.2015093
1.2015471
1.2015662
1.2015751
1.201579
1.2015805
1.2015809
1.201581
1.201581
1.2015809
1.2015809
0.86079678
0.866073
0.87179764
0.87800391
0.88472686
0.89200324
0.89987139
0.90837091
0.91754213
0.92742525
0.93805904
0.94947878
0.96171342
0.97478145
0.98868535
1.0034043
1.0188853
1.0350328
1.0516982
1.0686719
1.0856801
1.102391
1.1184343
1.1334341
1.1470509
1.1590256
1.1692116
1.177588
1.1842488
1.1893754
1.1931997
1.1959687
1.1979172
1.1992512
1.20014
1.2007161
1.2010788
1.2013
1.2014303
1.2015039
1.2015435
1.2015636
1.2015731
1.2015772
1.2015789
1.2015794
1.2015795
1.2015795
1.2015794
1.2015794
0.86053178
0.86579237
0.87149979
0.87768711
0.88438919
0.89164263
0.89948558
0.90795746
0.91709844
0.92694863
0.93754671
0.94892804
0.96112178
0.97414689
0.98800664
1.0026815
1.0181202
1.0342296
1.0508643
1.0678183
1.0848215
1.1015454
1.1176218
1.1326749
1.1463631
1.1584223
1.1686999
1.1771682
1.1839153
1.1891186
1.1930075
1.1958286
1.1978176
1.1991819
1.2000928
1.2006846
1.2010581
1.2012866
1.2014217
1.2014983
1.2015397
1.2015609
1.201571
1.2015755
1.2015773
1.2015779
1.201578
1.201578
1.2015779
1.2015779
0.86027354
0.86551891
0.87120956
0.87737841
0.88406018
0.89129128
0.89910968
0.90755465
0.9166662
0.9264843
0.93704761
0.94839152
0.96054539
0.97352863
0.98734526
1.0019769
1.0173741
1.0334461
1.0500505
1.0669846
1.083982
1.1007176
1.1168254
1.1319296
1.1456866
1.1578279
1.1681948
1.1767529
1.1835849
1.1888636
1.1928162
1.1956889
1.1977181
1.1991126
1.2000456
1.2006529
1.2010373
1.2012731
1.2014129
1.2014926
1.2015359
1.2015582
1.201569
1.2015737
1.2015757
1.2015763
1.2015765
1.2015765
1.2015764
1.2015764
0.86002176
0.86525228
0.87092658
0.87707745
0.88373943
0.89094875
0.89874324
0.90716199
0.91624486
0.92603171
0.93656112
0.94786854
0.95998354
0.97292591
0.98670043
1.0012899
1.0166464
1.0326815
1.0492557
1.0661698
1.0831608
1.099907
1.1160444
1.1311977
1.1450211
1.1572421
1.167696
1.1763421
1.1832573
1.1886104
1.1926261
1.1955498
1.1976188
1.1990433
1.1999982
1.2006211
1.2010163
1.2012595
1.2014041
1.2014869
1.2015321
1.2015555
1.2015669
1.201572
1.201574
1.2015748
1.201575
1.201575
1.2015749
1.2015749
0.85977612
0.86499217
0.87065054
0.87678387
0.88342654
0.89061465
0.89838583
0.90677901
0.91583392
0.92559029
0.93608666
0.9473585
0.95943555
0.97233803
0.98607138
1.0006195
1.0159361
1.031935
1.0484793
1.0653732
1.0823573
1.0991129
1.1152783
1.1304786
1.1443662
1.1566646
1.1672034
1.1759357
1.1829327
1.1883589
1.1924369
1.1954112
1.1975197
1.1989741
1.1999507
1.2005892
1.2009952
1.2012457
1.2013952
1.201481
1.2015282
1.2015528
1.2015648
1.2015702
1.2015724
1.2015732
1.2015734
1.2015735
1.2015734
1.2015734
0.85953637
0.86473829
0.87038112
0.87649734
0.88312119
0.89028859
0.89803703
0.90640528
0.91543292
0.92515957
0.93562369
0.9468608
0.95890082
0.97176432
0.98545742
0.99996507
1.0152426
1.0312057
1.0477204
1.0645941
1.0815707
1.0983347
1.1145266
1.1297719
1.1437216
1.1560952
1.1667168
1.1755335
1.1826109
1.1881092
1.1922487
1.1952731
1.1974208
1.1989048
1.1999032
1.2005572
1.200974
1.2012318
1.2013861
1.2014751
1.2015242
1.20155
1.2015626
1.2015684
1.2015708
1.2015717
1.2015719
1.201572
1.2015719
1.2015719
0.85930223
0.86449038
0.87011803
0.87621755
0.88282302
0.88997022
0.89769647
0.90604039
0.91504142
0.92473905
0.93517171
0.94637492
0.95837875
0.97120416
0.9848579
0.99932591
1.014565
1.0304929
1.0469784
1.0638317
1.0808003
1.0975718
1.1137887
1.1290773
1.1430871
1.1555337
1.1662362
1.1751355
1.1822919
1.1878613
1.1920615
1.1951355
1.1973221
1.1988356
1.1998556
1.2005251
1.2009526
1.2012178
1.201377
1.2014692
1.2015202
1.2015471
1.2015604
1.2015666
1.2015692
1.2015701
1.2015704
1.2015704
1.2015704
1.2015704
0.85907348
0.86424816
0.869861
0.87594421
0.88253174
0.88965921
0.8973638
0.90568397
0.91465901
0.92432831
0.93473023
0.94590033
0.95786881
0.97065698
0.98427219
0.99870137
1.0139027
1.029796
1.0462525
1.0630855
1.0800456
1.0968236
1.1130642
1.1283944
1.1424622
1.1549799
1.1657612
1.1747416
1.1819755
1.1876151
1.1918753
1.1949984
1.1972236
1.1987664
1.1998079
1.2004929
1.2009312
1.2012037
1.2013678
1.2014631
1.2015161
1.2015442
1.2015582
1.2015647
1.2015675
1.2015686
1.2015689
1.2015689
1.2015689
1.2015689
0.85884988
0.86401141
0.86960977
0.87567704
0.88224705
0.88935525
0.89703868
0.90533564
0.9142853
0.92392693
0.93429883
0.94543656
0.95737049
0.97012222
0.98369973
0.99809084
1.0132551
1.0291144
1.0455421
1.0623547
1.079306
1.0960896
1.1123526
1.1277227
1.1418467
1.1544335
1.1652919
1.1743517
1.1816619
1.1873705
1.19169
1.1948618
1.1971253
1.1986972
1.1997602
1.2004605
1.2009096
1.2011895
1.2013585
1.201457
1.201512
1.2015413
1.201556
1.2015629
1.2015659
1.201567
1.2015673
1.2015674
1.2015674
1.2015674
0.85863122
0.86377989
0.8693641
0.8754158
0.88196867
0.88905805
0.8967208
0.90499509
0.91391994
0.92353452
0.93387707
0.94498316
0.95688329
0.96959938
0.98313996
0.99749375
1.0126217
1.0284473
1.0448466
1.0616388
1.0785808
1.0953693
1.1116535
1.127062
1.1412403
1.1538944
1.1648281
1.1739656
1.1813509
1.1871276
1.1915058
1.1947257
1.1970272
1.198628
1.1997125
1.2004281
1.2008879
1.2011751
1.2013491
1.2014507
1.2015078
1.2015383
1.2015538
1.201561
1.2015642
1.2015654
1.2015658
1.2015659
1.2015659
1.2015659
0.85841729
0.86355339
0.86912376
0.87516024
0.88169636
0.88876733
0.89640986
0.90466198
0.91356258
0.92315072
0.93346457
0.94453971
0.95640678
0.96908798
0.98259237
0.99690957
1.0120018
1.0277943
1.0441655
1.0609372
1.0778697
1.0946622
1.1109665
1.1264119
1.1406428
1.1533623
1.1643697
1.1735834
1.1810425
1.1868863
1.1913224
1.1945901
1.1969294
1.1985589
1.1996646
1.2003956
1.2008661
1.2011607
1.2013396
1.2014445
1.2015036
1.2015353
1.2015515
1.2015592
1.2015625
1.2015638
1.2015643
1.2015644
1.2015644
1.2015644
0.85820792
0.86333172
0.86888855
0.87491013
0.88142987
0.88848283
0.89610559
0.90433602
0.9132129
0.92277518
0.93306095
0.94410582
0.95594052
0.96858755
0.98205649
0.99633778
1.0113949
1.0271548
1.0434981
1.0602495
1.077172
1.093968
1.1102912
1.125772
1.140054
1.1528371
1.1639164
1.173205
1.1807366
1.1866467
1.1911401
1.194455
1.1968317
1.1984899
1.1996168
1.200363
1.2008443
1.2011462
1.20133
1.2014381
1.2014993
1.2015323
1.2015492
1.2015573
1.2015608
1.2015623
1.2015627
1.2015629
1.2015629
1.2015629
0.85800293
0.86311468
0.86865826
0.87466527
0.88116898
0.88820431
0.89580772
0.90401694
0.91287061
0.92240758
0.93266587
0.9436811
0.95548411
0.96809767
0.98153186
0.99577791
1.0108005
1.0265282
1.042844
1.0595751
1.0764873
1.0932861
1.1096273
1.1251421
1.1394735
1.1523187
1.1634683
1.1728302
1.1804332
1.1864086
1.1909587
1.1943205
1.1967343
1.1984209
1.1995689
1.2003303
1.2008223
1.2011316
1.2013203
1.2014317
1.2014949
1.2015292
1.2015468
1.2015553
1.2015591
1.2015607
1.2015612
1.2015614
1.2015614
1.2015614
0.85780213
0.8629021
0.86843271
0.87442544
0.88091346
0.88793154
0.89551601
0.90370446
0.91253541
0.9220476
0.932279
0.94326521
0.95503718