/*--------------------------------*- C++ -*----------------------------------*\
| =========                 |                                                 |
| \\      /  F ield         | OpenFOAM: The Open Source CFD Toolbox           |
|  \\    /   O peration     | Version:  4.0                                   |
|   \\  /    A nd           | Web:      www.OpenFOAM.org                      |
|    \\/     M anipulation  |                                                 |
\*---------------------------------------------------------------------------*/
FoamFile
{
    version     2.0;
    format      ascii;
    class       surfaceScalarField;
    location    "538";
    object      snGradRho;
}
// * * * * * * * * * * * * * * * * * * * * * * * * * * * * * * * * * * * * * //

dimensions      [1 -4 0 0 0 0 0];

internalField   nonuniform List<scalar> 
9850
(
111.73789
-2.2197297
110.59118
-2.3615168
108.57032
-2.5128965
105.58649
-2.6686728
101.5781
-2.8217138
96.523542
-2.9629335
90.453524
-3.0815341
83.460668
-3.165603
75.703581
-3.2031257
67.402716
-3.1834102
58.82657
-3.0987976
50.268778
-2.9463926
42.019259
-2.7294114
34.334568
-2.4576892
27.413358
-2.1469877
21.381642
-1.8170282
16.289947
-1.4885817
12.121346
-1.1803267
8.8069852
-0.90631061
6.2447242
-0.67464301
4.3169371
-0.48758164
2.9048377
-0.34270651
1.8982471
-0.23461614
1.2009923
-0.15659686
0.73287957
-0.10191161
0.42942714
-0.064587526
0.24040611
-0.039754302
0.12791651
-0.023667601
0.064126227
-0.013562968
0.030178527
-0.0074308063
0.013278159
-0.0038743177
0.0054307099
-0.0019234391
0.0020527878
-0.00092028131
0.00071298482
-0.00044097057
0.00022621523
-0.00022996441
6.5168383e-05
-0.00014506297
1.6931079e-05
-0.00011407137
3.9319783e-06
-0.00010387317
8.060849e-07
-0.00010085803
1.4726981e-07
-0.00010005105
3.4018205e-08
-9.9845447e-05
2.5688262e-08
-9.9784979e-05
3.3651122e-08
-9.9755819e-05
4.3909533e-08
-9.9732419e-05
5.2341912e-08
-9.9708778e-05
6.8448526e-08
-9.9685187e-05
5.1401031e-08
-9.9664697e-05
-4.3925114e-08
-9.9705108e-05
-1.0245836e-06
-0.00010006041
-0.00010129292
90.210001
-0.84073945
89.697872
-0.89374235
89.02623
-0.95235435
88.132417
-1.0165389
86.937489
-1.0858617
85.346518
-1.1593041
83.251585
-1.2350468
80.53864
-1.310253
77.099222
-1.3809018
72.847459
-1.4417489
67.741502
-1.4865135
61.806449
-1.5083871
55.153317
-1.5009171
47.986525
-1.4592119
40.592611
-1.3812551
33.307064
-1.2689534
26.464112
-1.1284762
20.342719
-0.96958627
15.125483
-0.80400678
10.882538
-0.64328609
7.5820939
-0.49684673
5.1193524
-0.37079529
3.3512788
-0.26770256
2.1268097
-0.1871742
1.3072955
-0.12682372
0.77684559
-0.08327064
0.44498905
-0.05292756
0.24473344
-0.032497809
0.12857013
-0.019213767
0.064154571
-0.010892383
0.030220166
-0.0058952582
0.013350019
-0.0030382098
0.0054924726
-0.0014955721
0.0020894973
-0.00071590806
0.00072969697
-0.00035043122
0.00023223759
-0.0001929822
6.6906814e-05
-0.00013119834
1.736357e-05
-0.00010930071
4.0739624e-06
-0.00010234288
9.04148e-07
-0.00010036927
2.3636455e-07
-9.9864582e-05
1.1439314e-07
-9.9738756e-05
9.8358495e-08
-9.969683e-05
1.0333853e-07
-9.9669239e-05
1.0624917e-07
-9.9641881e-05
1.1101121e-07
-9.9615723e-05
-2.4906784e-08
-9.9610508e-05
-6.538179e-07
-9.9716336e-05
-2.9478223e-06
-0.00010027272
-0.00010169249
82.162437
-0.47614956
81.608291
-0.50584957
80.973475
-0.53879259
80.226258
-0.57515636
79.323524
-0.61500744
78.208466
-0.6582246
76.808882
-0.7043939
75.036968
-0.75267397
72.791914
-0.80163923
69.966902
-0.8491232
66.462007
-0.89210709
62.203655
-0.92672427
57.169192
-0.94846991
51.411878
-0.95269459
45.078173
-0.93539889
38.407589
-0.89422041
31.708379
-0.82934922
25.310642
-0.7440084
19.508977
-0.64420018
14.51321
-0.53767755
10.423007
-0.43244257
7.2314772
-0.33528615
4.8510398
-0.25082981
3.1485391
-0.18126112
1.9775754
-0.12665786
1.2013473
-0.085630455
0.70480481
-0.056011015
0.39830666
-0.035413596
0.21602094
-0.021601443
0.11189338
-0.012674732
0.055031622
-0.0071282133
0.025528187
-0.0038302135
0.011087587
-0.0019659032
0.0044737095
-0.00097224685
0.0016633997
-0.00047759297
0.0005653013
-0.00024991437
0.0001742151
-0.00015401208
4.8358704e-05
-0.00011741376
1.2066136e-05
-0.00010487669
2.7619995e-06
-0.00010104915
6.5742148e-07
-0.00010000749
2.4192997e-07
-9.9746351e-05
1.7465508e-07
-9.9675071e-05
1.7211153e-07
-9.9643032e-05
1.6602244e-07
-9.9619558e-05
1.2184372e-07
-9.960478e-05
-2.2474245e-07
-9.9643268e-05
-1.6088873e-06
-9.9843246e-05
-5.1632593e-06
-0.00010052478
-0.00010170379
77.653011
-0.33218358
77.061522
-0.35276123
76.411181
-0.37559967
75.681309
-0.40087324
74.843089
-0.42871158
73.857434
-0.45915963
72.672864
-0.49211963
71.223869
-0.52727114
69.430571
-0.56396781
67.200929
-0.60111575
64.437073
-0.63705027
61.047362
-0.66944596
56.964986
-0.69531733
52.171836
-0.71118417
46.722925
-0.71346881
40.762969
-0.69913895
34.525109
-0.6665006
28.305213
-0.6159121
22.414273
-0.55011423
17.122301
-0.47394699
12.612693
-0.39346108
8.9617867
-0.31471248
6.1466878
-0.24266718
4.0729684
-0.18055284
2.6089853
-0.12975496
1.6157252
-0.090131815
0.96675289
-0.060524902
0.55798523
-0.03926711
0.30983322
-0.024576264
0.16488069
-0.014803377
0.083672431
-0.0085552489
0.04024576
-0.0047292284
0.018218378
-0.002496984
0.0077006165
-0.0012646956
0.0030135772
-0.00062644023
0.0010822903
-0.00031923203
0.00035356338
-0.00018322505
0.0001042078
-0.0001284243
2.7565832e-05
-0.00010853674
6.596529e-06
-0.00010209826
1.5312887e-06
-0.00010025112
4.5875978e-07
-9.9778644e-05
2.6325257e-07
-9.9663778e-05
2.3112023e-07
-9.9628979e-05
1.9979196e-07
-9.9615413e-05
4.1894282e-08
-9.9620871e-05
-6.0236572e-07
-9.970858e-05
-2.778773e-06
-9.9988301e-05
-7.0030295e-06
-0.00010069698
-0.00010166656
74.528654
-0.24988199
73.909379
-0.26527928
73.240294
-0.28235896
72.506392
-0.30126293
71.68646
-0.3221117
70.751256
-0.3449811
69.661534
-0.36986746
68.366169
-0.39663775
66.800904
-0.42496202
64.888577
-0.45422767
62.542087
-0.48344141
59.671688
-0.51113524
56.198042
-0.53530927
52.071451
-0.55346231
47.295289
-0.56277253
41.94802
-0.56047618
36.194816
-0.54443493
30.279363
-0.51378029
24.491657
-0.46941777
19.117789
-0.4141433
14.387507
-0.35223626
10.437824
-0.28861953
7.3035057
-0.22788291
4.932973
-0.17351235
3.2187838
-0.12753317
2.0299279
-0.090569518
1.2370993
-0.062174517
0.72782213
-0.041249995
0.41253811
-0.026421522
0.22457065
-0.016306585
0.11689873
-0.0096704762
0.057867945
-0.0054939109
0.027061667
-0.0029834667
0.011864317
-0.0015512893
0.0048353804
-0.00078191538
0.0018154751
-0.00039629447
0.00062211179
-0.00021780173
0.0001928012
-0.0001423246
5.3638566e-05
-0.00011348604
1.3396215e-05
-0.00010363509
3.1123477e-06
-0.00010065439
8.0817759e-07
-9.9858563e-05
3.594815e-07
-9.9667912e-05
2.6522394e-07
-9.9622797e-05
1.8731898e-07
-9.9618261e-05
-1.4029987e-07
-9.9646283e-05
-1.1305681e-06
-9.9778293e-05
-3.9952645e-06
-0.00010012299
-8.5159857e-06
-0.00010082694
-0.00010164601
72.190845
-0.1993619
71.552055
-0.21159623
70.868553
-0.22516193
70.128624
-0.24017788
69.31553
-0.25675151
68.405945
-0.27496333
67.368199
-0.29484343
66.160457
-0.31633729
64.729218
-0.33925818
63.0087
-0.36322479
60.922135
-0.38758558
58.386268
-0.41133814
55.32059
-0.4330626
51.662368
-0.45090303
47.387009
-0.46264457
42.530455
-0.46593642
37.206593
-0.45868355
31.610383
-0.43956409
25.999212
-0.40853429
20.652651
-0.36711536
15.821284
-0.31828376
11.682172
-0.26593648
8.3161036
-0.21410173
5.7113973
-0.1661825
3.7876526
-0.12447788
2.4271759
-0.090069143
1.5032073
-0.06299958
0.89925009
-0.042600798
0.51883767
-0.027829639
0.28796709
-0.017535035
0.15316926
-0.010630385
0.077686345
-0.0061823075
0.037339423
-0.0034403929
0.016883378
-0.0018321744
0.0071221859
-0.0009412033
0.0027776918
-0.00047905614
0.00099198377
-0.00025685448
0.00032126873
-0.00015889342
9.3530197e-05
-0.0001197376
2.436872e-05
-0.00010570697
5.7754724e-06
-0.00010124747
1.3881309e-06
-0.00010000045
4.842389e-07
-9.9694517e-05
2.7662463e-07
-9.9629158e-05
1.2328548e-07
-9.9631714e-05
-4.1451736e-07
-9.968369e-05
-1.7814649e-06
-9.9853924e-05
-5.2036305e-06
-0.00010024507
-9.7940957e-06
-0.00010091968
-0.00010159832
70.333277
-0.16469553
69.679728
-0.17476857
68.984613
-0.18593263
68.238429
-0.19828818
67.427463
-0.21192938
66.532428
-0.22693321
65.526881
-0.24334268
64.375526
-0.26114204
63.032645
-0.28022171
61.441106
-0.30033109
59.532728
-0.32101936
57.2311
-0.34156815
54.45825
-0.36092808
51.146454
-0.37768165
47.255527
-0.3900686
42.793796
-0.39611711
37.837644
-0.39391424
32.541377
-0.38200777
27.128871
-0.35985783
21.863333
-0.32818161
17.001073
-0.28901615
12.744143
-0.24540954
9.2085518
-0.20081564
6.4174536
-0.15840991
4.3172015
-0.12056641
2.8058809
-0.088632135
1.7626292
-0.06298849
1.0700155
-0.043291499
0.62702536
-0.028764463
0.35392898
-0.018453304
0.19179768
-0.011405633
0.099332061
-0.0067728467
0.048880505
-0.0038533277
0.022695687
-0.0020984959
0.0098628066
-0.0010993833
0.0039755341
-0.00056512215
0.0014720372
-0.00029942653
0.00049569667
-0.00017786143
0.00015034752
-0.00012727208
4.0784971e-05
-0.00010834563
9.9484376e-06
-0.00010205236
2.3187727e-06
-0.00010021188
6.6497347e-07
-9.9743996e-05
2.7020018e-07
-9.9646521e-05
4.5139659e-09
-9.9653853e-05
-7.6813588e-07
-9.9729419e-05
-2.5200667e-06
-9.9931006e-05
-6.3616428e-06
-0.00010034883
-1.0853062e-05
-0.0001009796
-0.00010152753
68.803861
-0.13977169
68.138873
-0.14829628
67.434454
-0.1577403
66.682673
-0.16819026
65.871977
-0.17972917
64.985986
-0.1924285
64.00206
-0.20633556
62.889725
-0.22145471
61.609121
-0.23772039
60.109836
-0.25496038
58.330726
-0.27284831
56.201663
-0.2908478
53.648444
-0.30815522
50.602182
-0.32365713
47.013937
-0.33592922
42.873779
-0.34331269
38.230625
-0.3441028
33.205948
-0.33685905
27.992808
-0.3207922
22.834363
-0.2961134
17.983867
-0.26419094
13.657766
-0.22739945
9.9983167
-0.18867173
7.0581414
-0.15090597
4.8086685
-0.1164435
3.1646372
-0.086776169
2.0131261
-0.062518335
1.2379586
-0.043572182
0.73538703
-0.0293755
0.42125718
-0.019139839
0.23203017
-0.012030155
0.12237985
-0.0072753758
0.06147373
-0.0042215701
0.029213463
-0.00234657
0.013031077
-0.0012531303
0.0054078431
-0.00065243178
0.002067761
-0.00034454583
0.00072105776
-0.00019889588
0.0002269906
-0.00013603192
6.3951623e-05
-0.00011157064
1.6107349e-05
-0.00010309154
3.742053e-06
-0.00010050381
9.345213e-07
-9.9819261e-05
2.5176742e-07
-9.9674082e-05
-1.6816146e-07
-9.9682395e-05
-1.1868858e-06
-9.9779109e-05
-3.3090535e-06
-0.00010000575
-7.4443907e-06
-0.00010043481
-1.1708068e-05
-0.00010101714
-0.00010145087
67.509552
-0.12100699
66.835416
-0.12836919
66.123376
-0.13652233
65.366679
-0.14554193
64.555404
-0.15550169
63.675373
-0.16646735
62.706846
-0.17848684
61.623058
-0.19157555
60.388719
-0.20569502
58.958764
-0.22072343
57.277845
-0.23641688
55.281365
-0.25236242
52.899138
-0.26792747
50.062957
-0.28221693
46.719026
-0.29405837
42.845091
-0.30204486
38.469709
-0.30466755
33.688006
-0.30055613
28.665897
-0.28880506
23.625816
-0.26930396
18.813064
-0.24294177
14.451205
-0.21156379
10.701667
-0.17765039
7.6415887
-0.14381634
5.2652473
-0.11231353
3.5040059
-0.084702087
2.2540742
-0.061756349
1.4020826
-0.043566869
0.84295529
-0.029745498
0.48917781
-0.019643706
0.27332208
-0.012528788
0.14648776
-0.0076994701
0.074929322
-0.0045465977
0.036346589
-0.0025746447
0.016593334
-0.0014001784
0.0070675913
-0.0007393138
0.0027815114
-0.00039130227
0.0010010987
-0.00022162726
0.00032604704
-0.00014592101
9.5164759e-05
-0.00011538201
2.4766812e-05
-0.0001043812
5.8244213e-06
-0.00010088659
1.3359817e-06
-9.99244e-05
2.3086924e-07
-9.9712668e-05
-3.8916302e-07
-9.9716945e-05
-1.6576681e-06
-9.9831027e-05
-4.1192654e-06
-0.00010007669
-8.4439858e-06
-0.00010050517
-1.2384878e-05
-0.00010103694
-0.00010136995
66.391731
-0.10642378
65.710125
-0.11288491
64.991754
-0.12003768
64.230784
-0.1279488
63.418566
-0.13668428
62.542647
-0.14630447
61.585573
-0.15685622
60.523524
-0.16836105
59.324873
-0.18079784
57.948905
-0.19407861
56.345111
-0.20801645
54.453715
-0.22228552
52.208438
-0.23637657
49.542654
-0.24955586
46.40003
-0.26084339
42.749865
-0.26903446
38.605409
-0.27279367
34.040576
-0.27084238
29.19777
-0.2622325
24.279414
-0.24664912
19.520252
-0.22463486
15.14601
-0.19761932
11.331792
-0.16769758
8.1749291
-0.13721442
5.6901861
-0.10830411
3.8250182
-0.082545915
2.4853992
-0.060822498
1.5618678
-0.043369389
0.9491167
-0.029940826
0.55714844
-0.020007196
0.31526132
-0.012925221
0.17137773
-0.0080560953
0.089080677
-0.0048318446
0.044008297
-0.0027825314
0.020512387
-0.0015391885
0.008943648
-0.00082451063
0.0036129955
-0.00043890731
0.0013383484
-0.00024569016
0.00044971537
-0.00015682253
0.00013566077
-0.00011976528
3.6461002e-05
-0.00010593177
8.7513661e-06
-0.00010136899
1.921481e-06
-0.00010006308
2.20117e-07
-9.9762828e-05
-6.4985224e-07
-9.9756767e-05
-2.1679714e-06
-9.9883664e-05
-4.9283783e-06
-0.00010014234
-9.3567922e-06
-0.00010056129
-1.2904526e-05
-0.00010104104
-0.0001012831
65.410722
-0.094788623
64.722906
-0.10053244
63.999205
-0.10688905
63.234517
-0.11391803
62.421216
-0.12167894
61.548241
-0.13022725
60.599987
-0.13960803
59.555028
-0.14984612
58.384739
-0.16093189
57.052019
-0.172801
55.510441
-0.18530732
53.704444
-0.19818864
51.5714
-0.21102737
49.046689
-0.22321215
46.072861
-0.23391272
42.613374
-0.24208788
38.669813
-0.24655213
34.2989
-0.24612307
29.622791
-0.23985106
24.825214
-0.22729195
20.129121
-0.20873604
15.759035
-0.18528516
11.899511
-0.15870871
8.6643787
-0.1311029
6.0866035
-0.10447238
4.1289303
-0.08038397
2.7073595
-0.059791636
1.7171117
-0.043042918
1.0535109
-0.030009358
0.62480435
-0.020263125
0.35754625
-0.013239546
0.19683119
-0.0083558265
0.10378719
-0.0050816412
0.052119326
-0.0029711034
0.024750563
-0.0016695804
0.011022354
-0.00090716331
0.0045598467
-0.000486722
0.0017342282
-0.00027074844
0.00059977949
-0.00016861179
0.00018658447
-0.00012469618
5.1729656e-05
-0.00010774929
1.272391e-05
-0.00010195886
2.7517505e-06
-0.00010023901
2.3535396e-07
-9.982519e-05
-9.3982587e-07
-9.9800965e-05
-2.7053173e-06
-9.9935724e-05
-5.7194732e-06
-0.00010020173
-1.0180321e-05
-0.00010060485
-1.3282237e-05
-0.00010103246
-0.00010119243
64.538624
-0.085307502
63.845572
-0.090467954
63.11733
-0.096177253
62.349398
-0.10248909
61.53499
-0.10945754
60.664189
-0.1171338
59.722919
-0.1255608
58.69174
-0.13476511
57.544536
-0.14474489
56.247249
-0.15545277
54.756948
-0.16677267
53.021762
-0.17849015
50.982432
-0.19025746
48.576516
-0.20155813
45.746329
-0.21168044
42.451283
-0.21971665
38.683975
-0.2246099
34.487081
-0.2252709
29.965328
-0.2207711
25.28527
-0.21058653
20.657651
-0.1948222
16.303523
-0.17432012
12.413642
-0.15057493
9.1152316
-0.12545795
6.457323
-0.10084154
4.4170184
-0.078259913
2.9203617
-0.058711479
1.8677892
-0.042630356
1.1559356
-0.029985319
0.69190238
-0.020436231
0.39995792
-0.01348787
0.22267885
-0.0086078607
0.11893308
-0.0053003003
0.060609896
-0.0031417017
0.029271842
-0.0017912441
0.013288864
-0.00098670843
0.0056182146
-0.00053423682
0.0021892178
-0.00029649893
0.00077761667
-0.00018116088
0.00024896907
-0.00013014217
7.1106479e-05
-0.00010983537
1.7955627e-05
-0.00010266287
3.8960814e-06
-0.00010045602
2.9625023e-07
-9.9900757e-05
-1.2477638e-06
-9.9849003e-05
-3.2578715e-06
-9.9986457e-05
-6.4806999e-06
-0.0001002546
-1.0914341e-05
-0.00010063767
-1.3531861e-05
-0.00010101405
-0.00010110025
63.755099
-0.07744465
63.057579
-0.082122168
62.325431
-0.087295732
61.554657
-0.093014091
60.739173
-0.099326686
59.870022
-0.10628087
58.934411
-0.11391742
57.914579
-0.12226363
56.786536
-0.13132304
55.518823
-0.14106076
54.071534
-0.15138341
52.396051
-0.16211318
50.4362
-0.17295675
48.13175
-0.18347257
45.425347
-0.19304431
42.273616
-0.2008742
38.662158
-0.20601573
34.62209
-0.20746639
30.243101
-0.20433087
25.676116
-0.19603809
21.119722
-0.18255639
16.790006
-0.16452053
12.88142
-0.14319316
9.5319857
-0.12024407
6.8048533
-0.097415866
4.6905023
-0.076197491
3.1248737
-0.057612184
2.0139751
-0.042160829
1.2562886
-0.029893163
0.75828185
-0.020545004
0.44233737
-0.013682843
0.24878999
-0.0088198889
0.13442386
-0.0054917786
0.069419694
-0.0032958334
0.034042891
-0.0019043554
0.015728043
-0.0010628027
0.0067832375
-0.00058105541
0.0027030158
-0.00032267476
0.00098421799
-0.00019434365
0.00032372215
-0.00013606463
9.5108157e-05
-0.00011218744
2.4668831e-05
-0.00010348628
5.4315282e-06
-0.0001007177
4.2634701e-07
-9.9990681e-05
-1.5618631e-06
-9.9900566e-05
-3.8148699e-06
-0.00010003537
-7.2040564e-06
-0.00010030104
-1.1560423e-05
-0.00010066119
-1.3666376e-05
-0.00010098779
-0.00010100754
63.0449
-0.070826683
62.343528
-0.075098381
61.607991
-0.079821864
60.834716
-0.085041694
60.018215
-0.090803316
59.150347
-0.097150696
58.219415
-0.1041225
57.209091
-0.11174612
56.097212
-0.12002888
54.85457
-0.12894523
53.443896
-0.13841928
51.81946
-0.14830191
49.927903
-0.15834291
47.711175
-0.16816094
45.112605
-0.17721745
42.086934
-0.18480623
38.614278
-0.19007559
34.716165
-0.19210249
30.469278
-0.19003081
26.010367
-0.18326437
21.526209
-0.17167035
17.226953
-0.15571732
13.308824
-0.13647157
9.9184655
-0.11542316
7.1314031
-0.094190355
4.950512
-0.074209163
3.3213766
-0.056513223
2.1557982
-0.041654618
1.35453
-0.02975073
0.82383782
-0.0206035
0.4845687
-0.013834495
0.27506335
-0.0089983256
0.15018266
-0.0056596247
0.078497092
-0.0034350486
0.039033459
-0.0020092816
0.018325041
-0.001135276
0.0080494192
-0.00062688282
0.0032746942
-0.00034904865
0.0012202201
-0.0002080406
0.00041161847
-0.00014242144
0.00012422527
-0.00011479951
3.3090761e-05
-0.0001044329
7.4419514e-06
-0.00010102744
6.5287276e-07
-0.00010009621
-1.8699156e-06
-9.9955538e-05
-4.366724e-06
-0.00010008216
-7.8841399e-06
-0.00010034131
-1.2121042e-05
-0.00010067669
-1.3697205e-05
-0.00010095529
-0.00010091528
62.396317
-0.065185671
61.691597
-0.069111964
60.953098
-0.07345246
60.177612
-0.07824813
59.360165
-0.083540953
58.493319
-0.089371897
57.566321
-0.095777597
56.564083
-0.10278521
55.466033
-0.11040467
54.244923
-0.11861759
52.865811
-0.12736176
51.285544
-0.13651087
49.453336
-0.14584944
47.31324
-0.15504519
44.809494
-0.16362379
41.895611
-0.17095599
38.547379
-0.17627196
34.778323
-0.17872067
30.653826
-0.17748757
26.297818
-0.17196624
21.885754
-0.16194899
17.621252
-0.14777036
13.70083
-0.13033
10.277935
-0.11095801
7.4389127
-0.09115516
5.1980794
-0.072300344
3.5103412
-0.055426923
2.2934159
-0.0411258
1.4506597
-0.029571051
0.88850385
-0.020622377
0.52656744
-0.013950718
0.30142033
-0.0091484356
0.16614691
-0.0058069167
0.087798176
-0.0035608169
0.044216479
-0.0021064803
0.021065682
-0.0012040751
0.009410932
-0.00067150437
0.0039028447
-0.00037542928
0.0014859462
-0.00022214057
0.00051329986
-0.00014916855
0.0001589156
-0.00011766274
4.3450076e-05
-0.00010550519
1.0017065e-05
-0.00010138831
1.0064852e-06
-0.00010021871
-2.1592716e-06
-0.00010001405
-4.9050416e-06
-0.00010012675
-8.5174365e-06
-0.00010037587
-1.259928e-05
-0.00010068536
-1.363477e-05
-0.00010091807
-0.00010082475
61.800179
-0.060324566
61.092525
-0.06395361
60.35142
-0.067964588
59.573975
-0.072395362
58.755656
-0.077284885
57.88964
-0.082671451
56.965999
-0.088589796
55.970728
-0.095066587
54.884648
-0.10211363
53.682244
-0.10971801
52.330634
-0.11782845
50.788978
-0.12633703
49.008847
-0.13505665
46.936304
-0.14369545
44.516631
-0.15183274
41.702596
-0.15890452
38.466557
-0.16421193
34.81532
-0.16696892
30.804415
-0.16640279
26.546176
-0.1619069
22.205308
-0.15321842
17.978564
-0.14056327
14.061614
-0.12469916
10.613196
-0.10681397
7.7290875
-0.088298439
5.4341396
-0.070472386
3.692216
-0.054361047
2.4269972
-0.04058428
1.5447028
-0.029363719
0.9522399
-0.020609741
0.56827188
-0.0140377
0.32779955
-0.0092744927
0.18226563
-0.0059362667
0.097285636
-0.0036744755
0.049567914
-0.002196436
0.023936658
-0.0012692198
0.010861833
-0.00071476463
0.0045857021
-0.00040165558
0.001781448
-0.00023654093
0.00062927853
-0.00015626094
0.00019959899
-0.00012076576
5.5973504e-05
-0.00010670425
1.3251363e-05
-0.00010180309
1.5209472e-06
-0.00010035961
-2.4168022e-06
-0.00010007643
-5.4225327e-06
-0.00010016923
-9.1018526e-06
-0.00010040525
-1.2998736e-05
-0.00010068829
-1.3489155e-05
-0.00010087741
-0.00010073709
61.249172
-0.056095427
60.538933
-0.059466189
59.795524
-0.063190905
59.016332
-0.067304724
58.197217
-0.071843939
57.331891
-0.076844451
56.41115
-0.082339226
55.42195
-0.088354307
54.346341
-0.094902792
53.160345
-0.10197609
51.832924
-0.10953165
50.325325
-0.11747664
48.591279
-0.12564735
46.578758
-0.1337857
44.23417
-0.14151619
41.509892
-0.1483306
38.375561
-0.15359194
34.832305
-0.15657271
30.927036
-0.15654102
26.761589
-0.15289684
22.490527
-0.14533697
18.303582
-0.13399904
14.394708
-0.11951945
10.926663
-0.10295955
8.0034296
-0.085607646
5.6595384
-0.068724101
3.8674223
-0.05332026
2.5567151
-0.040037003
1.6366998
-0.029135894
1.0150243
-0.020571868
0.60963699
-0.014100369
0.35415277
-0.0093799935
0.19849696
-0.0060498836
0.10692772
-0.0037772129
0.055066483
-0.0022796277
0.026925609
-0.0013307766
0.012396209
-0.00075655455
0.0053212407
-0.00042759293
0.0021065435
-0.0002511477
0.00075994281
-0.00016365352
0.0002466537
-0.00012409518
7.0882715e-05
-0.00010802986
1.7242968e-05
-0.00010227412
2.2327911e-06
-0.00010052041
-2.6288478e-06
-0.00010014321
-5.9128185e-06
-0.00010020986
-9.636314e-06
-0.00010043005
-1.3323364e-05
-0.00010068644
-1.3270197e-05
-0.00010083439
-0.00010065321
60.73738
-0.052385091
60.024851
-0.055529517
59.279394
-0.059003428
58.498642
-0.062839587
57.678801
-0.06707193
56.814059
-0.071734212
55.895856
-0.076857755
54.911996
-0.082467898
53.845629
-0.088578628
52.674152
-0.095184746
51.368182
-0.10225085
49.890859
-0.10969652
48.197901
-0.11737763
46.239087
-0.12506452
43.961988
-0.13242015
41.31886
-0.13898432
38.277179
-0.14417422
34.833256
-0.14731509
31.026427
-0.14771425
26.949021
-0.14478275
22.746058
-0.13818831
18.600234
-0.12799646
14.70312
-0.11473965
11.220429
-0.099366533
8.2632666
-0.08307045
5.8750391
-0.06705295
4.0363524
-0.052307272
2.6827399
-0.039488925
1.7267006
-0.028892959
1.0768482
-0.020513622
0.65063013
-0.014142648
0.38044192
-0.0094678073
0.21480636
-0.0061496476
0.11669732
-0.0038700865
0.06069335
-0.002356518
0.030021119
-0.0013888427
0.014008269
-0.00079680083
0.0061072537
-0.0004531295
0.002460853
-0.00026587577
0.00090556432
-0.00017130192
0.00030041388
-0.00012763599
8.8391531e-05
-0.00010948057
2.2092449e-05
-0.00010280334
3.1809965e-06
-0.00010070258
-2.7811575e-06
-0.00010021499
-6.3702077e-06
-0.00010024899
-1.0120457e-05
-0.00010045083
-1.357734e-05
-0.00010068064
-1.2987471e-05
-0.00010078995
-0.00010057391
60.259954
-0.049105598
59.545384
-0.052050186
58.7981
-0.055302697
58.015951
-0.058893782
57.19545
-0.062855278
56.331212
-0.067219005
55.415251
-0.072014762
54.436132
-0.077267144
53.377989
-0.082990729
52.219455
-0.089183014
50.932647
-0.09581446
49.482426
-0.10281504
47.826346
-0.1100571
45.915887
-0.11733513
43.699802
-0.12434509
41.130422
-0.13066841
38.173513
-0.13576997
34.82128
-0.13902255
31.106381
-0.13977068
27.112517
-0.13743944
22.975759
-0.13167607
18.871835
-0.12248715
14.989429
-0.11031569
11.496321
-0.096009896
8.5097752
-0.080675175
6.0813321
-0.065455663
4.1993699
-0.051323482
2.805237
-0.03894356
1.8147604
-0.028639043
1.1377117
-0.020438881
0.69122783
-0.014167735
0.40663674
-0.0095403205
0.23116521
-0.0062371612
0.12657118
-0.0039540345
0.066431849
-0.0024275424
0.033212691
-0.001443534
0.015692414
-0.00083545783
0.0069414154
-0.00047817288
0.0028438318
-0.00028064814
0.0010663066
-0.00017916288
0.00036116826
-0.00013137194
0.00010870349
-0.00011105382
2.7901634e-05
-0.00010339225
4.4066697e-06
-0.00010090758
-2.8588444e-06
-0.00010029255
-6.7894857e-06
-0.00010028708
-1.0554406e-05
-0.0001004682
-1.3764985e-05
-0.00010067166
-1.2650353e-05
-0.0001007449
-0.00010049988
59.81287
-0.046187598
59.096475
-0.048954556
58.347553
-0.052010308
57.564149
-0.055383621
56.743051
-0.059104453
55.879256
-0.063202876
54.965294
-0.067707274
53.990416
-0.072641489
52.939643
-0.078020465
51.792727
-0.08384386
50.523148
-0.090086996
49.09734
-0.096688591
47.474552
-0.10353498
45.607875
-0.11044138
43.447235
-0.11713221
40.945192
-0.12322524
38.066159
-0.12822749
34.798834
-0.13155471
31.169963
-0.13258649
27.255408
-0.13076377
23.182857
-0.12571993
19.121199
-0.11741321
15.255861
-0.10620953
11.755937
-0.092867352
8.7440028
-0.078410858
6.2790423
-0.063928554
4.3568118
-0.050369347
2.9243647
-0.038403388
1.9009373
-0.028377268
1.1976216
-0.020350675
0.73141366
-0.014178216
0.43271313
-0.0095995162
0.24754964
-0.0063137884
0.13652935
-0.0040298787
0.072267206
-0.0024931083
0.036490702
-0.0014949766
0.017443271
-0.00087250056
0.0078213317
-0.00050264711
0.0032547984
-0.00029539565
0.0012422338
-0.00018719468
0.0004291598
-0.00013528581
0.00013200978
-0.00011274599
3.4772442e-05
-0.00010404187
5.9527089e-06
-0.00010113681
-2.8463384e-06
-0.00010037669
-7.1657217e-06
-0.00010032462
-1.0938605e-05
-0.0001004827
-1.3890714e-05
-0.00010066015
-1.2268009e-05
-0.00010069993
-0.00010043159
59.392756
-0.043575707
58.674723
-0.04618382
57.924328
-0.04906365
57.139794
-0.052242281
56.318157
-0.055747975
55.454757
-0.059609218
54.542594
-0.063853085
53.571536
-0.068502665
52.52741
-0.073573105
51.390987
-0.079065799
50.136987
-0.084960136
48.733293
-0.091202243
47.140722
-0.097690448
45.313885
-0.10425783
43.203867
-0.11065358
40.763567
-0.11652731
37.956342
-0.12142354
34.767877
-0.12479686
31.219675
-0.12605972
27.38046
-0.12467004
23.370071
-0.1202524
19.350735
-0.11272542
15.504346
-0.10238831
12.000684
-0.089919291
8.9668848
-0.07626753
6.4687365
-0.062467985
4.5089892
-0.049444916
3.040274
-0.037870282
1.9852901
-0.028110171
1.2565887
-0.020251528
0.77117645
-0.014176252
0.45865191
-0.0096470667
0.2639397
-0.0063807071
0.14655458
-0.0040983533
0.078186318
-0.0025535908
0.039846339
-0.0015433002
0.01925572
-0.00090792112
0.0087445777
-0.00052649039
0.0036929605
-0.00031005657
0.0014333199
-0.00019535746
0.00050458593
-0.00013935977
0.00015848746
-0.00011455255
4.2805764e-05
-0.00010475276
7.8634633e-06
-0.00010139157
-2.7273627e-06
-0.00010046828
-7.4940976e-06
-0.00010036218
-1.1273688e-05
-0.00010049489
-1.3958985e-05
-0.00010064671
-1.1849299e-05
-0.0001006556
-0.00010036938
58.99676
-0.041225184
58.277251
-0.043690476
57.525529
-0.046412158
56.739975
-0.049415794
55.917852
-0.052728119
55.054812
-0.056376171
54.144277
-0.060385813
53.176683
-0.064779392
52.138588
-0.069572135
51.011692
-0.074766839
49.771855
-0.08034631
48.388292
-0.086263009
46.823279
-0.092425605
45.032861
-0.098682684
42.969259
-0.10480511
40.585792
-0.11047062
37.845003
-0.11525711
34.729987
-0.11865443
31.257578
-0.12010578
27.489987
-0.11908654
23.539712
-0.11521645
19.562518
-0.10838165
15.736569
-0.098823497
12.231807
-0.087148318
9.1792592
-0.074236016
6.6509301
-0.061070243
4.6561898
-0.048549727
3.153108
-0.037345459
2.0678779
-0.027839662
1.3146273
-0.020143444
0.81050924
-0.014163635
0.4844378
-0.0096844056
0.28031859
-0.0064389474
0.15663193
-0.0041601123
0.084177534
-0.002609343
0.043271533
-0.0015886406
0.021124903
-0.00094172487
0.0097087284
-0.00054965368
0.0041574369
-0.00032457619
0.0016394577
-0.00020361348
0.00058759956
-0.00014357566
0.00018829815
-0.00011646818
5.2100406e-05
-0.00010552501
1.0184382e-05
-0.00010167306
-2.4849199e-06
-0.00010056823
-7.7697665e-06
-0.00010040035
-1.1560363e-05
-0.00010050528
-1.3974246e-05
-0.00010063183
-1.1402675e-05
-0.0001006124
-0.00010031338
58.622448
-0.039099521
57.901606
-0.041435764
57.148685
-0.04401457
56.36221
-0.04686013
55.539649
-0.049997791
54.67694
-0.053453266
53.767892
-0.057251294
52.803455
-0.061413498
51.77086
-0.065955094
50.652659
-0.070880016
49.425758
-0.076173966
48.060605
-0.081794849
46.520835
-0.087660305
44.763847
-0.093632473
42.742967
-0.099501278
40.412002
-0.10496936
37.732873
-0.10964454
34.686442
-0.11304869
31.285377
-0.11465374
27.585938
-0.11395268
23.693753
-0.11056346
19.758342
-0.10434557
15.954007
-0.095490113
12.450412
-0.084538884
9.3818799
-0.07230787
6.8260929
-0.059731701
4.7986803
-0.047683107
3.2630019
-0.036829814
2.1487587
-0.027567285
1.371754
-0.0200281
0.84940819
-0.014141883
0.51005868
-0.0097127582
0.29667223
-0.0064894072
0.16674848
-0.0042157465
0.090230494
-0.0026606915
0.046758919
-0.0016311339
0.023046228
-0.00097393026
0.010711384
-0.0005720996
0.0046472779
-0.00033890688
0.001860468
-0.00021192753
0.00067831068
-0.0001479153
0.00022158696
-0.00011848687
6.2752132e-05
-0.00010635826
1.2961653e-05
-0.00010198232
-2.1012965e-06
-0.00010067743
-7.9877354e-06
-0.00010043971
-1.1799338e-05
-0.00010051435
-1.3940893e-05
-0.00010061598
-1.0936078e-05
-0.00010057073
-0.00010026361
58.267731
-0.037168621
57.545682
-0.039387733
56.791674
-0.041836878
56.004365
-0.044539001
55.181411
-0.047518182
54.319011
-0.050798921
53.411328
-0.054404912
52.449785
-0.058357078
51.422229
-0.062670555
50.311998
-0.067350199
49.096964
-0.07238417
47.748717
-0.077735086
46.232163
-0.083328416
44.505977
-0.089038207
42.52456
-0.09467123
40.242253
-0.099952308
37.620516
-0.10451613
34.638285
-0.10791379
31.304497
-0.10964399
27.669967
-0.1092172
23.83389
-0.10625193
19.939769
-0.1005859
16.157963
-0.092366463
12.657482
-0.08207739
9.5754265
-0.070475605
6.9946536
-0.058449076
4.9367073
-0.046844326
3.3700835
-0.036324003
2.2279892
-0.027294319
1.4279865
-0.019906915
0.88787202
-0.014112305
0.53550503
-0.0097332051
0.31298873
-0.0065328919
0.17689298
-0.0042657915
0.096335966
-0.0027079476
0.050301765
-0.0016709186
0.02501538
-0.0010045643
0.011750191
-0.00059380086
0.0051614834
-0.00035300741
0.0020961087
-0.00022026692
0.00077678849
-0.00015236073
0.00025848188
-0.00012060212
7.4852812e-05
-0.00010725172
1.6241844e-05
-0.00010232027
-1.5580893e-06
-0.00010079677
-8.142774e-06
-0.00010048088
-1.199125e-05
-0.00010052256
-1.3863227e-05
-0.00010059954
-1.0456837e-05
-0.0001005309
-0.00010021993
57.930797
-0.035407486
57.207653
-0.037519847
56.452658
-0.039850839
55.664594