/*--------------------------------*- C++ -*----------------------------------*\
| =========                 |                                                 |
| \\      /  F ield         | OpenFOAM: The Open Source CFD Toolbox           |
|  \\    /   O peration     | Version:  4.0                                   |
|   \\  /    A nd           | Web:      www.OpenFOAM.org                      |
|    \\/     M anipulation  |                                                 |
\*---------------------------------------------------------------------------*/
FoamFile
{
    version     2.0;
    format      ascii;
    class       volScalarField;
    location    "538";
    object      T;
}
// * * * * * * * * * * * * * * * * * * * * * * * * * * * * * * * * * * * * * //

dimensions      [0 0 0 1 0 0 0];

internalField   nonuniform List<scalar> 
5000
(
370.19003
365.95266
361.44799
356.70596
351.76857
346.68995
341.5355
336.3798
331.30336
326.38838
321.71372
317.34983
313.35418
309.76779
306.61338
303.89532
301.60129
299.70515
298.1707
296.95551
296.01449
295.30285
294.77828
294.40233
294.14124
293.96623
293.85353
293.78417
293.74359
293.72121
293.70963
293.70403
293.7015
293.70046
293.70005
293.69991
293.69987
293.69986
293.69985
293.69985
293.69985
293.69985
293.69985
293.69985
293.69985
293.69985
293.69985
293.69985
293.69985
293.69986
383.58611
379.90616
375.96092
371.74586
367.26171
362.51646
357.52767
352.3248
346.95153
341.46733
335.94776
330.48303
325.17401
320.1257
315.43849
311.19834
307.46777
304.27951
301.63463
299.50523
297.84104
296.57801
295.6468
294.97982
294.51596
294.20313
293.99899
293.87051
293.79283
293.74795
293.72332
293.71057
293.70436
293.70156
293.70038
293.69993
293.69978
293.69973
293.69971
293.69971
293.69971
293.69971
293.69971
293.69971
293.69971
293.69971
293.69971
293.69971
293.69971
293.69972
388.91624
385.46825
381.76999
377.8134
373.59336
369.10896
364.36525
359.37531
354.16278
348.76438
343.23236
337.63602
332.0616
326.60969
321.38952
316.5101
312.06932
308.14286
304.77557
301.97754
299.72566
297.97019
296.64415
295.67315
294.98374
294.50927
294.19305
293.98933
293.86282
293.78739
293.74443
293.72119
293.70934
293.70367
293.70116
293.70013
293.69974
293.69961
293.69957
293.69956
293.69956
293.69956
293.69956
293.69956
293.69956
293.69956
293.69956
293.69956
293.69956
293.69958
392.00087
388.68883
385.13638
381.33469
377.27699
372.95958
368.38312
363.55431
358.48798
353.20955
347.75755
342.18609
336.56634
330.98641
325.54861
320.36333
315.53978
311.17444
307.33972
304.07542
301.38544
299.24031
297.58474
296.34767
295.45239
294.82477
294.39872
294.11896
293.94161
293.83338
293.77006
293.73473
293.71603
293.70672
293.7024
293.70053
293.6998
293.69953
293.69945
293.69942
293.69941
293.69941
293.69941
293.69941
293.69941
293.69941
293.69941
293.69941
293.69942
293.69944
394.18179
390.96658
387.51827
383.82783
379.88786
375.69339
371.24297
366.54
361.59452
356.42535
351.06253
345.54985
339.94701
334.33073
328.79388
323.44182
318.38514
313.72949
309.56369
305.94891
302.91161
300.44235
298.5004
297.02263
295.93407
295.15761
294.62133
294.26289
294.03137
293.8872
293.80093
293.75156
293.72467
293.71085
293.70418
293.70119
293.69996
293.69949
293.69933
293.69928
293.69927
293.69927
293.69927
293.69926
293.69926
293.69926
293.69926
293.69927
293.69928
293.6993
395.83825
392.69697
389.3282
385.72287
381.87327
377.77375
373.42163
368.81835
363.97102
358.89431
353.61268
348.16287
342.59622
336.98037
331.3996
325.95269
320.74765
315.89309
311.48697
307.60493
304.291
301.55321
299.36539
297.67415
296.40902
295.49283
294.85037
294.41427
294.12798
293.94656
293.8359
293.77119
293.7351
293.71602
293.70653
293.70213
293.70024
293.6995
293.69923
293.69915
293.69913
293.69912
293.69912
293.69912
293.69912
293.69912
293.69912
293.69912
293.69913
293.69916
397.16971
394.08807
390.78352
387.24699
383.47061
379.44832
375.17664
370.65572
365.89066
360.89325
355.68399
350.29447
344.76971
339.17017
333.57275
328.06981
322.76536
317.76791
313.18029
309.08791
305.54823
302.58403
300.18262
298.30082
296.87406
295.82696
295.08283
294.57078
294.22983
294.01046
293.87441
293.79336
293.74721
293.72223
293.70947
293.70337
293.70067
293.69957
293.69916
293.69903
293.69898
293.69897
293.69897
293.69897
293.69897
293.69897
293.69897
293.69898
293.69899
293.69902
398.27629
395.2444
391.9934
388.51428
384.79909
380.84149
376.63747
372.18624
367.49148
362.56285
357.41792
352.08436
346.60225
341.0263
335.42717
329.89135
324.51844
319.41534
314.68711
310.42572
306.69884
303.54151
300.95317
298.90061
297.32586
296.15648
295.31561
294.73002
294.33519
294.07776
293.91576
293.8177
293.76083
293.72941
293.71299
293.70493
293.70126
293.69971
293.69912
293.69891
293.69885
293.69883
293.69882
293.69882
293.69882
293.69882
293.69882
293.69883
293.69885
293.69887
399.22017
396.2308
393.02562
389.59563
385.93285
382.03077
377.88498
373.49401
368.86043
363.99231
358.90493
353.62285
348.18225
342.63308
337.04074
331.48645
326.06544
320.88224
316.04258
311.64274
307.75818
304.43412
301.68071
299.47422
297.76351
296.4798
295.54701
294.89046
294.44288
294.14761
293.95943
293.84388
293.7758
293.7375
293.71707
293.70681
293.70201
293.69993
293.6991
293.69881
293.69871
293.69868
293.69868
293.69868
293.69868
293.69868
293.69868
293.69869
293.6987
293.69873
400.04085
397.08856
393.9233
390.53614
386.9191
383.06553
378.97072
374.63268
370.05314
365.23887
360.20334
354.96863
349.56767
344.04647
338.46592
332.90255
327.44745
322.20242
317.27286
312.75784
308.73876
305.26926
302.36894
300.02291
298.18684
296.79607
295.77595
295.05106
294.55202
294.21936
294.00494
293.87163
293.79196
293.74643
293.72169
293.70901
293.70293
293.70023
293.69912
293.69872
293.69858
293.69854
293.69853
293.69853
293.69853
293.69853
293.69853
293.69854
293.69856
293.69859
400.76534
397.84584
394.7159
391.36665
387.7901
383.97952
379.92996
375.63904
371.10779
366.34196
361.3535
356.16245
350.79906
345.30598
339.74018
334.17405
328.6948
323.40137
318.39823
313.78611
309.65099
306.05347
303.02148
300.54826
298.59617
297.10493
296.00176
295.2111
294.66195
294.29247
294.05192
293.90069
293.80918
293.75612
293.72683
293.71152
293.70402
293.70061
293.69919
293.69864
293.69846
293.6984
293.69839
293.69838
293.69838
293.69838
293.69839
293.6984
293.69842
293.69845
401.41276
398.52262
395.4243
392.10899
388.56871
384.79667
380.78775
376.53922
372.05156
367.32966
362.38423
357.23359
351.90569
346.44031
340.89101
335.32647
329.83031
324.49861
319.43452
314.73965
310.50346
306.79237
303.64161
301.05192
298.99208
297.4063
296.22407
295.37011
294.77223
294.36657
294.10007
293.93085
293.82731
293.76651
293.73243
293.71433
293.7053
293.70109
293.69929
293.69859
293.69834
293.69826
293.69824
293.69823
293.69823
293.69824
293.69824
293.69825
293.69828
293.69831
401.99715
399.13355
396.06381
392.7792
389.27173
385.53458
381.56248
377.35243
372.90445
368.2227
363.31685
358.20374
352.90935
347.47096
341.93914
336.37925
330.87157
325.5094
320.3943
315.62826
311.30332
307.49078
304.23229
301.53545
299.37521
297.70028
296.44269
295.52775
294.88249
294.44134
294.14915
293.96195
293.84625
293.77752
293.73849
293.71744
293.70674
293.70167
293.69944
293.69855
293.69823
293.69813
293.6981
293.69809
293.69809
293.69809
293.6981
293.69811
293.69814
293.69817
402.52908
399.68969
396.64601
393.38937
389.91183
386.2065
382.26804
378.09319
373.68158
369.03678
364.16753
359.08939
353.82667
348.41442
342.90059
337.3475
331.83238
326.44583
321.28774
316.45996
312.05654
308.15282
304.79612
302.00033
299.74624
297.98706
296.65751
295.68383
294.9925
294.51655
294.19896
293.99384
293.86589
293.7891
293.74496
293.72082
293.70836
293.70234
293.69964
293.69854
293.69813
293.69799
293.69795
293.69794
293.69794
293.69794
293.69795
293.69797
293.69799
293.69803
403.01674
400.19955
397.1798
393.94885
390.49878
386.82271
382.91517
378.77272
374.39467
369.78404
364.94879
359.90339
354.67062
349.28362
343.78794
338.2432
332.72377
327.3177
322.12309
317.24141
312.76814
308.78205
305.33541
302.4479
300.10584
298.26688
296.86853
295.83818
295.10206
294.59201
294.24935
294.02638
293.88615
293.80119
293.75182
293.72447
293.71015
293.7031
293.69989
293.69855
293.69804
293.69786
293.69781
293.6978
293.6978
293.6978
293.69781
293.69782
293.69785
293.69788
403.46655
400.66987
397.67221
394.46498
391.0403
387.39126
383.51231
379.39987
375.05293
370.47407
365.67056
360.65589
355.45151
350.08883
344.61126
339.07596
333.55468
328.13299
322.9072
317.97817
313.4424
309.38151
305.85219
302.87939
300.45466
298.53999
297.07578
295.99072
295.21104
294.66759
294.30019
294.05949
293.90696
293.81374
293.75903
293.72838
293.7121
293.70397
293.70019
293.69858
293.69796
293.69774
293.69767
293.69765
293.69765
293.69765
293.69766
293.69768
293.69771
293.69774
403.88365
401.10602
398.12887
394.94367
391.54256
387.91862
384.06626
379.98173
375.66378
371.11458
366.34081
361.35507
356.17764
350.83837
345.37875
339.85367
334.33244
328.89831
323.64578
318.67493
314.08297
309.95388
306.34826
303.29591
300.79331
298.80667
297.27932
296.14141
295.31934
294.74315
294.35136
294.09307
293.92824
293.82671
293.76658
293.73252
293.7142
293.70493
293.70055
293.69864
293.69789
293.69761
293.69753
293.69751
293.6975
293.69751
293.69752
293.69754
293.69757
293.6976
404.27224
401.51238
398.55435
395.3897
392.01057
388.41006
384.58251
380.52406
376.23324
371.71184
366.96602
362.00761
356.8558
351.53907
346.09714
340.58282
335.06316
329.6192
324.34365
319.3357
314.69299
310.50147
306.82522
303.69847
301.12236
299.06718
297.47921
296.29021
295.42686
294.81862
294.40278
294.12704
293.94995
293.84006
293.77442
293.73689
293.71647
293.70598
293.70096
293.69873
293.69783
293.6975
293.69739
293.69736
293.69736
293.69736
293.69737
293.69739
293.69742
293.69745
404.63576
401.89253
398.95241
395.807
392.44847
388.8699
385.06561
381.03161
376.76626
372.27103
367.55157
362.61902
357.49164
352.1966
346.77203
341.26884
335.75195
330.30033
325.00491
319.96391
315.27517
311.02632
307.28449
304.08797
301.44233
299.32178
297.67557
296.43711
295.53357
294.89391
294.45438
294.16134
293.97202
293.85375
293.78256
293.74147
293.71887
293.70713
293.70142
293.69884
293.69778
293.69739
293.69726
293.69722
293.69721
293.69722
293.69723
293.69725
293.69728
293.69731
404.97708
402.24947
399.32619
396.19885
392.85968
389.30174
385.51932
381.50835
377.26699
372.79644
368.10191
363.19392
358.08984
352.81569
347.40813
341.91629
336.40315
330.94567
325.63307
320.56252
315.83191
311.53022
307.72732
304.46526
301.7537
299.57072
297.86847
296.58212
295.6394
294.96896
294.50608
294.19592
293.99442
293.86775
293.79095
293.74625
293.72142
293.70837
293.70194
293.69899
293.69775
293.69728
293.69712
293.69708
293.69707
293.69707
293.69708
293.69711
293.69714
293.69716
405.29859
402.58573
399.67831
396.56802
393.2471
389.70862
385.94684
381.9576
377.73891
373.29172
368.62083
363.7362
358.65439
353.40036
348.00943
342.5291
337.02047
331.55864
326.23116
321.13412
316.36527
312.01477
308.15486
304.83106
302.05695
299.81424
298.05802
296.72524
295.74434
295.04372
294.55785
294.23073
294.0171
293.88203
293.79958
293.75122
293.72411
293.7097
293.70251
293.69916
293.69774
293.69718
293.69699
293.69693
293.69692
293.69693
293.69694
293.69696
293.69699
293.69702
405.60236
402.90343
400.01102
396.91684
393.61318
390.09311
386.35085
382.38218
378.18498
373.75994
369.11152
364.24915
359.18867
353.95405
348.57936
343.11058
337.6071
332.14219
326.80182
321.68095
316.87711
312.48136
308.56813
305.18608
302.35247
300.05257
298.24432
296.86651
295.84837
295.11815
294.60962
294.26572
294.04004
293.89656
293.80844
293.75637
293.72693
293.71112
293.70313
293.69937
293.69773
293.69709
293.69686
293.69679
293.69678
293.69678
293.6968
293.69682
293.69685
293.69688
405.89012
403.2044
400.32622
397.24732
393.96002
390.4574
386.73367
382.78453
378.60772
374.20375
369.57674
364.73563
359.69559
354.4797
349.12086
343.66364
338.1658
332.69891
327.34736
322.20501
317.36905
312.93128
308.96805
305.53094
302.64067
300.28593
298.42747
297.00595
295.95145
295.19223
294.66137
294.30085
294.06319
293.91132
293.8175
293.76168
293.72987
293.71262
293.70381
293.6996
293.69775
293.697
293.69674
293.69665
293.69663
293.69664
293.69665
293.69668
293.69671
293.69673
406.16338
403.49022
400.62556
397.56118
394.28943
390.8034
387.09728
383.16671
379.00933
374.62543
370.01885
365.19808
360.17766
354.97986
349.63649
344.19078
338.69898
333.23104
327.86982
322.70806
317.84253
313.36564
309.35544
305.8662
302.92189
300.51451
298.60755
297.14359
296.0536
295.26591
294.71305
294.3361
294.08653
293.92629
293.82675
293.76715
293.73293
293.71421
293.70454
293.69986
293.69778
293.69693
293.69661
293.69652
293.69649
293.69649
293.69651
293.69653
293.69656
293.69659
406.42346
403.76225
400.91047
397.85993
394.60298
391.13276
387.44342
383.53055
379.3917
375.02696
370.43991
365.63863
360.63709
355.45677
350.12848
344.69421
339.20877
333.74056
328.37099
323.19166
318.29887
313.78548
309.73107
306.19239
303.19648
300.73851
298.78467
297.27945
296.1548
295.33918
294.76464
294.37143
294.11003
293.94144
293.83617
293.77277
293.7361
293.71587
293.70532
293.70016
293.69782
293.69686
293.69649
293.69638
293.69635
293.69635
293.69636
293.69639
293.69642
293.69644
406.67149
404.0217
401.1822
398.14485
394.90205
391.44691
387.77359
383.87763
379.75648
375.41008
370.84173
366.05915
361.07578
355.91237
350.59878
345.17586
339.69703
334.22924
328.85247
323.6572
318.73922
314.19172
310.09563
306.50998
303.46475
300.95811
298.95892
297.41357
296.25505
295.41202
294.81612
294.40682
294.13367
293.95676
293.84576
293.77852
293.73938
293.71762
293.70615
293.70049
293.69789
293.69679
293.69638
293.69624
293.69621
293.69621
293.69622
293.69624
293.69627
293.6963
406.90848
404.2696
401.44184
398.41712
395.18783
391.74712
388.08912
384.20934
380.10513
375.77629
371.22589
366.46129
361.49542
356.34837
351.04913
345.63743
340.16542
334.69862
329.31567
324.10594
319.16464
314.58519
310.44974
306.81943
303.72698
301.17347
299.13038
297.54599
296.35436
295.48441
294.86746
294.44224
294.15744
293.97223
293.85549
293.7844
293.74276
293.71943
293.70703
293.70084
293.69797
293.69674
293.69627
293.69611
293.69606
293.69606
293.69608
293.6961
293.69613
293.69615
407.13531
404.50688
401.69037
398.67774
395.46139
392.03449
388.39117
384.5269
380.43894
376.12696
371.5938
366.84649
361.89751
356.76632
351.48106
346.08045
340.6154
335.15012
329.76189
324.53901
319.57607
314.96667
310.79399
307.12115
303.98345
301.38478
299.29914
297.67674
296.45273
295.55635
294.91864
294.47768
294.1813
293.98783
293.86536
293.7904
293.74623
293.72132
293.70796
293.70123
293.69806
293.69669
293.69616
293.69597
293.69592
293.69592
293.69593
293.69596
293.69598
293.696
407.35276
404.73436
401.92865
398.9276
395.72367
392.31003
388.68079
384.8314
380.75905
376.46326
371.94668
367.21604
362.28338
357.16755
351.89594
346.50627
341.04831
335.58497
330.19227
324.95741
319.97438
315.33683
311.1289
307.4155
304.2344
301.59216
299.46529
297.80586
296.55016
295.62782
294.96966
294.51312
294.20526
294.00355
293.87535
293.79651
293.7498
293.72327
293.70894
293.70164
293.69818
293.69666
293.69605
293.69584
293.69578
293.69577
293.69579
293.69581
293.69584
293.69586
407.56154
404.95277
402.15742
399.16751
395.97552
392.57461
388.95891
385.12382
381.06647
376.78626
372.28566
367.5711
362.65421
357.55329
352.29499
346.91611
341.46532
336.0043
330.60784
325.36209
320.36036
315.69633
311.45496
307.70285
304.48007
301.79578
299.62889
297.93338
296.64667
295.69882
295.02048
294.54854
294.22928
294.01938
293.88545
293.80273
293.75345
293.72529
293.70997
293.70209
293.69831
293.69663
293.69595
293.69571
293.69564
293.69563
293.69564
293.69567
293.6957
293.69571
407.76228
405.16276
402.37739
399.39819
396.21767
392.82901
389.22634
385.40501
381.36211
377.09692
372.61172
367.91268
363.01106
357.92461
352.67931
347.31107
341.8675
336.40914
331.00956
325.75386
320.73472
316.04574
311.77263
307.98352
304.72068
301.99577
299.79004
298.05933
296.74226
295.76935
295.07111
294.58393
294.25335
294.0353
293.89566
293.80904
293.75719
293.72738
293.71103
293.70256
293.69846
293.69661
293.69586
293.69559
293.6955
293.69549
293.6955
293.69552
293.69555
293.69557
407.95552
405.36493
402.58916
399.62028
396.45081
393.07396
389.48383
385.67577
381.64679
377.39609
372.92576
368.24173
363.35489
358.28251
353.04988
347.69212
342.25582
336.80039
331.39826
326.13351
321.09812
316.38561
312.08231
308.25782
304.95645
302.19226
299.94879
298.18376
296.83695
295.8394
295.12154
294.61927
294.27747
294.05131
293.90597
293.81545
293.761
293.72952
293.71215
293.70307
293.69862
293.6966
293.69577
293.69546
293.69536
293.69535
293.69536
293.69538
293.69541
293.69542
408.14178
405.55979
402.79329
399.83436
396.67555
393.31008
389.73205
385.93679
381.92125
377.68454
373.22858
368.55907
363.68656
358.62785
353.40761
348.06016
342.63115
337.1789
331.77474
326.50172
321.45117
316.71643
312.38441
308.52602
305.18756
302.38536
300.10523
298.30669
296.93075
295.90897
295.17175
294.65456
294.30163
294.06739
293.91636
293.82194
293.76488
293.73172
293.7133
293.7036
293.6988
293.69661
293.69568
293.69534
293.69523
293.6952
293.69521
293.69524
293.69526
293.69528
408.32151
405.74783
402.99028
400.04095
396.89243
393.53795
389.9716
386.18871
382.18616
377.96296
373.52091
368.86547
364.00686
358.96145
353.75331
348.41601
342.99429
337.54544
332.13969
326.85915
321.79441
317.03865
312.67926
308.78839
305.41419
302.57521
300.25942
298.42816
297.02367
295.97806
295.22174
294.68979
294.3258
294.08354
293.92684
293.8285
293.76883
293.73398
293.7145
293.70416
293.69901
293.69662
293.6956
293.69521
293.69509
293.69506
293.69507
293.69509
293.69512
293.69513
408.49514
405.92949
403.18057
400.24053
397.10196
393.75809
390.20305
386.4321
382.44211
378.232
373.80341
369.1616
364.31649
359.28402
354.08771
348.7604
343.34597
337.9007
332.49379
327.20637
322.12837
317.35271
312.96722
309.04519
305.63653
302.7619
300.41142
298.54821
297.11572
296.04666
295.2715
294.72494
294.35
294.09975
293.93738
293.83514
293.77285
293.73629
293.71573
293.70475
293.69922
293.69664
293.69553
293.6951
293.69495
293.69492
293.69493
293.69495
293.69497
293.69498
408.66303
406.10515
403.36459
400.43353
397.30458
393.97099
390.42687
386.6675
382.68967
378.49222
374.07668
369.4481
364.61611
359.59624
354.41149
349.09401
343.68684
338.24531
332.83761
327.54394
322.45351
317.65899
313.24859
309.29664
305.85472
302.94556
300.56131
298.66687
297.20691
296.1148
295.32104
294.76002
294.3742
294.11601
293.948
293.84185
293.77693
293.73865
293.717
293.70536
293.69946
293.69667
293.69545
293.69498
293.69482
293.69478
293.69478
293.6948
293.69483
293.69484
408.82553
406.27517
403.54271
400.62035
397.50071
394.17708
390.64354
386.89537
382.92932
378.74415
374.34127
369.72553
364.9063
359.89871
354.72527
349.41745
344.01752
338.57988
333.17173
327.87235
322.77027
317.95787
313.52367
309.54296
306.06894
303.12626
300.70913
298.78416
297.29727
296.18245
295.37033
294.79501
294.3984
294.13231
293.95867
293.84863
293.78107
293.74105
293.71831
293.706
293.69971
293.69671
293.69539
293.69487
293.69468
293.69464
293.69464
293.69466
293.69468
293.69469
408.98296
406.43989
403.71528
400.80134
397.69074
394.37674
390.85347
387.11616
383.16153
378.98828
374.59769
369.99443
365.1876
360.19199
355.0296
349.7313
344.33857
338.90493
333.49664
328.19207
323.07905
318.24968
313.79271
309.78437
306.27931
303.30412
300.85494
298.90012
297.3868
296.24964
295.4194
294.82991
294.42259
294.14865
293.96941
293.85546
293.78526
293.74351
293.71966
293.70667
293.69998
293.69676
293.69533
293.69475
293.69455
293.6945
293.6945
293.69451
293.69454
293.69455
409.13561
406.5996
403.8826
400.97684
397.875
394.57036
391.05704
387.33027
383.38673
379.22505
374.84639
370.25526
365.46052
360.47659
355.32502
350.03608
344.65051
339.22097
333.81281
328.50353
323.38025
318.53474
314.05599
310.02104
306.48599
303.47922
300.99881
299.01478
297.47552
296.31635
295.46822
294.86471
294.44677
294.16502
293.98019
293.86235
293.78951
293.74601
293.72104
293.70736
293.70026
293.69682
293.69528
293.69465
293.69442
293.69436
293.69435
293.69437
293.69439
293.6944
409.28373
406.75459
404.04498
401.14715
398.05381
394.75825
391.2546
387.53806
383.60529
379.45485
375.0878
370.50848
365.7255
360.75298
355.612
350.33226
344.9538
339.52846
334.12069
328.80712
323.6742
318.81336
314.31373
310.25316
306.68909
303.65166
301.14079
299.12817
297.56344
296.38261
295.5168
294.89942
294.47094
294.18142
293.99102
293.8693
293.7938
293.74855
293.72245
293.70807
293.70057
293.69689
293.69523
293.69454
293.69429
293.69422
293.69421
293.69423
293.69425
293.69426
409.42758
406.90511
404.20267
401.31256
398.22748
394.94074
391.44648
387.73989
383.81759
379.67807
375.32231
370.75448
365.98298
361.02159
355.89098
350.6203
345.2489
339.82783
334.42067
329.10323
323.96124
319.0858
314.56617
310.48091
306.88874
303.8215
301.28092
299.24032
297.65057
296.4484
295.56515
294.93402
294.49509
294.19785
294.0019
293.87629
293.79815
293.75113
293.7239
293.70881
293.70088
293.69697
293.69518
293.69444
293.69416
293.69408
293.69407
293.69408
293.6941
293.69411
409.56737
407.05139
404.35593
401.47331
398.39626
395.11811
391.63297
387.93605
384.02393
379.89505
375.55028
370.99365
366.23334
361.28283
356.16238
350.90061
345.53621
340.11947
334.71314
329.39218
324.24167
319.35233
314.81351
310.70444
307.08507
303.98884
301.41925
299.35126
297.73693
296.51374
295.61325
294.96852
294.51921
294.21429
294.01282
293.88333
293.80253
293.75375
293.72537
293.70957
293.70122
293.69707
293.69515
293.69434
293.69403
293.69394
293.69392
293.69394
293.69396
293.69396
409.70333
407.19365
404.50498
401.62965
398.56042
395.29061
391.81436
388.12685
384.22464
380.10611
375.77204
371.22633
366.47693
361.53706
356.42656
351.17356
345.81611
340.40376
334.99844
329.67431
324.51579
319.61319
315.05595
310.92391
307.27817
304.15374
301.55585
299.46101
297.82253
296.57862
295.66111
295.00291
294.5433
294.23075
294.02377
293.89041
293.80696
293.75641
293.72688
293.71036
293.70157
293.69717
293.69512
293.69424
293.69391
293.6938
293.69378
293.69379
293.69381
293.69382
409.83563
407.3321
404.65004
401.78181
398.72018
395.45849
391.99089
388.31254
384.41998
380.31155
375.98791
371.45284
366.71411
361.78463
356.68389
351.43951
346.08896
340.68104
335.2769
329.94992
324.78385
319.86861
315.29369
311.13946
307.46816
304.31629
301.69074
299.5696
297.90739
296.64307
295.70873
295.03719
294.56736
294.24722
294.03476
293.89754
293.81144
293.7591
293.72842
293.71116
293.70193
293.69728
293.69509
293.69415
293.69378
293.69366
293.69364
293.69365
293.69366
293.69367
409.96447
407.46691
404.79129
401.92998
398.87575
395.62199
392.16281
388.49339
384.61024
380.51163
376.19817
371.67349
366.94517
362.02586
356.93469
351.6988
346.35507
340.95162
335.54883
330.2193
325.04611
320.11882
315.52688
311.35124
307.65513
304.47654
301.82397
299.67706
297.99152
296.70707
295.7561
295.07136
294.59139
294.2637
294.04577
293.9047
293.81595
293.76183
293.72998
293.71199
293.70232
293.6974
293.69507
293.69406
293.69366
293.69353
293.6935
293.69351
293.69352
293.69353
410.09
407.59828
404.92893
402.07436
399.02735
395.7813
392.33034
388.66962
384.79564
380.70662
376.40309
371.88856
367.17041
362.26105
357.17926
351.95173
346.61477
341.21581
335.8145
330.48269
325.30281
320.364
315.75572
311.55936
307.83919
304.63456
301.95559
299.7834
298.07493
296.77064
295.80324
295.10541
294.61538
294.28018
294.05682
293.9119
293.82049
293.76459
293.73157
293.71284
293.70271
293.69753
293.69506
293.69397
293.69354
293.69339
293.69336
293.69336
293.69337
293.69338
410.21238
407.72635
405.06312
402.21512
399.17516
395.93663
392.49367
388.84145
384.97641
380.89675
376.60292
372.09829
367.39009
362.49048
357.41789
352.19859
346.86832
341.47389
336.0742
330.74036
325.55418
320.60436
315.98034
311.76396
308.02042
304.79043
302.08564
299.88867
298.15763
296.83378
295.85015
295.13935
294.63933
294.29667
294.06789
293.91913
293.82507
293.76739
293.73319
293.71372
293.70312
293.69768
293.69505
293.69389
293.69342
293.69326
293.69321
293.69322
293.69323
293.69324
410.33177
407.85128
405.19402
402.35243
399.31934
396.08815
392.65302
389.00908
385.15277
381.08225
376.79788
372.30294
367.60448
362.71441
357.65085
352.43964
347.11601
341.72612
336.32816
330.99254
325.80041
320.84008
316.20091
311.96515
308.19891
304.94419
302.21415
299.99287
298.23964
296.89649
295.89681
295.17318
294.66324
294.31317
294.07898
293.9264
293.82969
293.77021
293.73484
293.71461
293.70355
293.69783
293.69505
293.69381
293.6933
293.69312
293.69307
293.69307
293.69308
293.69309
410.44828
407.97321
405.32178
402.48645
399.46007
396.23605
392.80855
389.17269
385.32492
381.26332
376.98821
372.50273
367.81379
362.93308
357.87838
352.67515
347.35809
341.97274
336.57663
331.23944
326.04171
321.07132
316.41756
312.16304
308.37474
305.09591
302.34117
300.09603
298.32097
296.95879
295.94324
295.20689
294.68711
294.32966
294.0901
293.93369
293.83434
293.77307
293.73651
293.71552
293.70399
293.69799
293.69506
293.69373
293.69318
293.69299
293.69293
293.69293
293.69294
293.69295
410.56205
408.09227
405.44654
402.61732
399.5975
396.38048
392.96043
389.33248
385.49304
381.44016
377.17409
372.69788
368.01826
363.14671
358.10072
352.90534
347.59478
342.21399
336.81982
331.48128
326.27827
321.29825
316.63042
312.35775
308.54799
305.24564
302.46673
300.19817
298.40163
297.02068
295.98944
295.24049
294.71094
294.34615
294.10123
293.94102
293.83902
293.77595
293.73821
293.71645
293.70445
293.69816
293.69507
293.69366
293.69307
293.69285
293.69279
293.69279
293.6928
293.6928
410.6732
408.20859
405.56842
402.74518
399.73176
396.52158
393.10882
389.48859
385.6573
381.61295
377.35573
372.88858
368.21809
363.35553
358.31809
353.13044
347.82632
342.45009
337.05796
331.71824
326.51026
321.52103
316.83963
312.54936
308.71874
305.39343
302.59086
300.29932
298.48163
297.08216
296.0354
295.27396
294.73472
294.36264
294.11239
293.94837
293.84373
293.77886
293.73993
293.7174
293.70492
293.69835
293.69509
293.69359
293.69296
293.69272
293.69265
293.69264
293.69265
293.69265
410.78184
408.32228
405.68756
402.87016
399.86299
396.65951
393.25386
389.64119
385.81786
381.78186
377.53329
373.07502
368.41348
363.55972
358.53068
353.35065
348.0529
342.68124
337.29122
331.95052
326.73785
321.73979
317.04531
312.73798
308.88706
305.53934
302.7136
300.3995
298.56099
297.14324
296.08114
295.30732
294.75846
294.37912
294.12356
293.95575
293.84847
293.7818
293.74167
293.71837
293.7054
293.69854
293.69511
293.69352
293.69285
293.69259
293.69251
293.6925
293.69251
293.69251
410.88807
408.43346
405.80405
402.99237
399.99133
396.79438
393.39571
389.79043
385.97489
381.94705
377.70696
373.25737
368.6046
363.75949
358.73871
353.56618
348.27473
342.90763
337.5198
332.17829
326.96119
321.95468
317.24757
312.92369
309.05302
305.68341
302.83498
300.49872
298.63971
297.20392
296.12664
295.34057
294.78214
294.39559
294.13474
293.96316
293.85323
293.78477
293.74344
293.71936
293.7059
293.69874
293.69515
293.69346
293.69274
293.69246
293.69237
293.69236
293.69236
293.69236
410.99199
408.54222
405.91802
403.11193
400.11688
396.92633
393.53448
389.93643
386.12852
382.10867
377.87688
373.43581
368.79163
363.95501
358.94233
353.7772
348.492
343.12944
337.74388
332.40171
327.18044
322.16582
317.44652
313.10659
309.21669
305.8257
302.95504
300.597
298.71781
297.26421
296.17192
295.37369
294.80578
294.41206
294.14594
293.97059
293.85802
293.78776
293.74523
293.72037
293.70641
293.69895
293.69518
293.69341
293.69263
293.69233
293.69224
293.69221
293.69222
293.69222
411.09369
408.64866
406.02956
403.22894
400.23975
397.05548
393.6703
390.07933
386.27889
382.26687
378.0432
373.61048
368.97473
364.14644
359.14174
353.9839
348.70486
343.34685
337.96362
332.62093
327.39574
322.37335
317.64227
313.28677
309.37812
305.96625
303.0738
300.69437
298.79529
297.32412
296.21698
295.4067
294.82937
294.42852
294.15715
293.97804
293.86284
293.79077
293.74704
293.72139
293.70694
293.69917
293.69523
293.69335
293.69253
293.69221
293.6921
293.69207
293.69207
293.69208
411.19327
408.75287
406.13876
403.3435
400.36006
397.18192
393.80328
390.21924
386.42612
382.42177
378.20607
373.78153
369.15406
364.33394
359.33709
354.18643
348.9135
343.56003
338.17917
332.83611
327.60722
322.57738
317.83491
313.46429
309.53738
306.10509
303.19129
300.79084
298.87217
297.38365
296.26181
295.4396
294.85291
294.44497
294.16837
293.98551
293.86768
293.79381
293.74887
293.72243
293.70748
293.69941
293.69528
293.6933
293.69243
293.69208
293.69196
293.69193
293.69193
293.69193
411.29079
408.85494
406.24572
403.45572
400.4779
397.30578
393.93354
390.3563
386.57034
382.57351
378.36562
373.94911
369.32975
364.51766
359.52853
354.38495
349.11807
343.76911
338.39069
333.04739
327.81501
322.77801
318.02455
313.63923
309.69453
306.24228
303.30755
300.88643
298.94847
297.4428
296.30643
295.47238
294.8764
294.4614
294.17961
293.993
293.87255
293.79688
293.75072
293.72349
293.70803
293.69965
293.69534
293.69326
293.69233
293.69196
293.69182
293.69179
293.69178
293.69179
411.38635
408.95495
406.35053
403.56567
400.59337
397.42713
394.06117
390.49059
386.71166
382.7222
378.52197
374.11333
369.50194
364.69775
359.71621
354.57961
349.31871
343.97426
338.59832
333.25489
328.01924
322.97537
318.21126
313.81168
309.84962
306.37785
303.42259
300.98116
299.02417
297.50158
296.35082
295.50504
294.89984
294.47782
294.19085
294.00051
293.87744
293.79996
293.75259
293.72457
293.7086
293.6999
293.6954
293.69322
293.69223
293.69183
293.69169
293.69165
293.69164
293.69164
411.48001
409.05298
406.45325
403.67344
400.70654
397.54609
394.18628
390.62223
386.8502
382.86796
378.67525
374.27433
369.67076
364.87433
359.90026
354.77054
349.51556
344.1756
338.80219
333.45875
328.22001
323.16956
318.39515
313.9817
310.00271
306.51185
303.53645
301.07504
299.09931
297.56
296.395
295.53758
294.92323
294.49424
294.2021
294.00804
293.88235
293.80307
293.75449
293.72566
293.70918
293.70016