/*--------------------------------*- C++ -*----------------------------------*\
| =========                 |                                                 |
| \\      /  F ield         | OpenFOAM: The Open Source CFD Toolbox           |
|  \\    /   O peration     | Version:  4.0                                   |
|   \\  /    A nd           | Web:      www.OpenFOAM.org                      |
|    \\/     M anipulation  |                                                 |
\*---------------------------------------------------------------------------*/
FoamFile
{
    version     2.0;
    format      ascii;
    class       volVectorField;
    location    "538";
    object      U;
}
// * * * * * * * * * * * * * * * * * * * * * * * * * * * * * * * * * * * * * //

dimensions      [0 1 -1 0 0 0 0];

internalField   nonuniform List<vector> 
5000
(
(2.1281744e-05 1.2112858e-20 0.0081619509)
(4.4157419e-05 3.6260268e-20 0.023703733)
(0.00011587589 6.1618119e-20 0.03906351)
(0.0002050293 8.6240953e-20 0.05400322)
(0.00031535173 1.044178e-19 0.068264458)
(0.00044291514 1.1184406e-19 0.081577597)
(0.00058206207 1.207673e-19 0.093674147)
(0.00072572382 1.5232878e-19 0.1043017)
(0.00086649087 1.5300931e-19 0.11324048)
(0.00099686172 1.1320244e-19 0.12032012)
(0.0011098435 1.1143545e-19 0.1254347)
(0.0011995394 1.0209847e-19 0.12855433)
(0.0012616137 9.6425132e-20 0.12973134)
(0.0012935722 1.0228169e-19 0.1291001)
(0.0012948394 1.1550617e-19 0.12686994)
(0.0012666382 1.214066e-19 0.12331178)
(0.0012117116 1.3507478e-19 0.11873961)
(0.0011339431 1.5103325e-19 0.11348879)
(0.0010379368 8.778713e-20 0.10789325)
(0.00092860619 -4.9078518e-20 0.10226378)
(0.00081080285 1.0986047e-20 0.096869367)
(0.00068900718 2.6399389e-20 0.091923005)
(0.00056708784 3.3348839e-21 0.087573052)
(0.00044812827 -7.8274197e-21 0.083900582)
(0.00033432522 -1.1636551e-20 0.080922859)
(0.00022698599 -1.561086e-20 0.078602504)
(0.00012682314 -2.4012925e-20 0.076861206)
(3.6255063e-05 -3.9287925e-20 0.075595847)
(-1.3079832e-05 -2.2656103e-20 0.074694278)
(-7.1584481e-05 -2.0783692e-20 0.074058488)
(-0.00015189033 -1.6322803e-20 0.073599037)
(-0.00022998645 -1.8468416e-20 0.073249153)
(-0.00030356 -1.6432829e-20 0.072962857)
(-0.00037178234 -2.4147733e-21 0.072711715)
(-0.00043369319 2.2247003e-21 0.072479662)
(-0.00048824353 6.068714e-21 0.072258251)
(-0.0005345897 4.30924e-21 0.072043089)
(-0.00057237855 -4.9460606e-21 0.071831555)
(-0.00060195268 1.5646591e-20 0.071621519)
(-0.00062444841 6.9914095e-20 0.071410696)
(-0.00064183432 -1.7400565e-20 0.07119635)
(-0.00065669958 -1.1891388e-20 0.070975079)
(-0.00067277693 -9.6840222e-21 0.070742809)
(-0.00069277881 -2.29972e-20 0.070493711)
(-0.00072590519 -1.2238174e-21 0.070223397)
(-0.00076480874 0 0.069914578)
(-0.00085922018 0 0.069583584)
(-0.00089379697 -1.7136096e-22 0.069107055)
(-0.0012919035 -6.306564e-22 0.068524272)
(-0.00080593442 -3.9542003e-21 0.06344024)
(1.6439706e-05 4.8096391e-21 0.0097698413)
(-5.699054e-06 1.4627094e-20 0.028620552)
(-3.4436282e-05 2.4694685e-20 0.047548571)
(-8.4461756e-05 3.5247031e-20 0.06630666)
(-0.00016202778 4.7405262e-20 0.084604141)
(-0.00027284417 7.4595222e-20 0.10210845)
(-0.00042286161 8.8951203e-20 0.11845061)
(-0.00061813353 8.9943955e-20 0.13323594)
(-0.00086434153 1.3275442e-19 0.14606142)
(-0.0011660611 1.4374743e-19 0.15654057)
(-0.0015257903 1.7094948e-19 0.16433591)
(-0.0019428182 1.6166815e-19 0.16919723)
(-0.0024120977 1.0581533e-19 0.1710016)
(-0.0029233788 5.4977588e-20 0.16978822)
(-0.0034609119 2.1353338e-20 0.16577905)
(-0.0040040008 -2.9169011e-20 0.15937617)
(-0.0045285403 -8.2268452e-20 0.15113082)
(-0.005009417 -1.3698172e-19 0.14168607)
(-0.0054233636 1.3119741e-19 0.13170395)
(-0.0057516523 4.9901758e-19 0.12179303)
(-0.0059820153 -6.6143072e-22 0.11245209)
(-0.0061094086 -3.1506058e-19 0.10403897)
(-0.0061356069 -1.891835e-19 0.096765281)
(-0.0060678927 -1.4154585e-19 0.090711075)
(-0.0059171805 -1.4227532e-19 0.08585094)
(-0.0056963623 -1.5495172e-19 0.082083947)
(-0.0054203958 -2.2936015e-19 0.079262339)
(-0.0051072068 -1.5911327e-19 0.077216469)
(-0.0047542807 6.6037802e-20 0.075775215)
(-0.0043931198 -2.8495103e-20 0.074780236)
(-0.0040257994 0 0.074096988)
(-0.003663574 1.382744e-19 0.073618065)
(-0.0033147538 -3.7522819e-20 0.073265266)
(-0.0029860228 1.1783565e-20 0.072985777)
(-0.0026825168 4.3982054e-20 0.072746835)
(-0.0024079379 3.8082225e-20 0.072529761)
(-0.0021647112 -2.3223243e-20 0.072324652)
(-0.0019541442 -4.6344216e-20 0.07212642)
(-0.0017765885 5.8601736e-20 0.071932228)
(-0.0016315832 2.7728419e-19 0.071740034)
(-0.0015182691 -2.8142666e-20 0.071547859)
(-0.0014349362 -4.2838966e-20 0.071353364)
(-0.0013824622 -2.8093787e-20 0.071154091)
(-0.0013537482 -6.0926834e-20 0.070945123)
(-0.0013699132 -1.5419877e-21 0.070728396)
(-0.0013716613 7.0851823e-22 0.070476895)
(-0.0015288441 1.8046914e-21 0.070245025)
(-0.001408828 7.7829063e-22 0.069782199)
(-0.0019464698 5.3193509e-22 0.068885835)
(-0.0012593493 -6.3611772e-21 0.060462332)
(3.5031444e-06 -3.004218e-20 0.011159097)
(-7.3255496e-06 -8.9501383e-20 0.032795172)
(-3.2775237e-05 -1.5340079e-19 0.054644668)
(-7.8510799e-05 -2.1500606e-19 0.07644546)
(-0.00014849707 -2.663162e-19 0.097883858)
(-0.00024669887 -3.1008148e-19 0.1185937)
(-0.00037721003 -3.8146866e-19 0.13815881)
(-0.00054416642 -4.7038637e-19 0.15612055)
(-0.0007515701 -5.3936409e-19 0.17199207)
(-0.0010030263 -5.1479479e-19 0.18528136)
(-0.0013013688 -4.8340021e-19 0.19552417)
(-0.0016481418 -5.300503e-19 0.20232698)
(-0.0020429179 -3.7755369e-19 0.20541756)
(-0.0024824593 -2.5025273e-19 0.20469732)
(-0.0029598097 -1.1887396e-19 0.20028544)
(-0.0034635125 -7.1490784e-21 0.19254241)
(-0.0039772734 4.4167006e-20 0.1820604)
(-0.0044804239 3.7602195e-20 0.16961434)
(-0.0049494177 4.6561265e-19 0.15607785)
(-0.0053602873 9.1051216e-19 0.14232028)
(-0.0056916004 4.9741221e-19 0.12910837)
(-0.0059272065 -1.2474686e-19 0.11703453)
(-0.0060581115 -1.5613008e-19 0.10648342)
(-0.0060831207 -1.8693554e-19 0.097636352)
(-0.0060082361 -2.4806112e-19 0.090502915)
(-0.0058450896 -2.7644672e-19 0.084966192)
(-0.0056092428 -3.3358352e-19 0.080829518)
(-0.0053194404 -4.4855358e-20 0.077857464)
(-0.0049921452 1.9663304e-19 0.075807676)
(-0.004645956 -2.1232356e-20 0.074451873)
(-0.0042957301 -8.1892578e-20 0.073591237)
(-0.0039541587 3.6580327e-19 0.073063711)
(-0.0036307894 2.4775176e-20 0.072745636)
(-0.0033319272 4.6638932e-20 0.072549132)
(-0.003060906 9.7762548e-20 0.07241637)
(-0.0028186829 1.3531707e-19 0.072312326)
(-0.0026046385 1.8772792e-19 0.072217579)
(-0.002417414 -1.0774209e-19 0.072122281)
(-0.0022556456 -2.2478649e-19 0.072021833)
(-0.0021183489 1.4196009e-19 0.071914182)
(-0.0020057283 1.9493272e-19 0.071798344)
(-0.0019167328 -4.3334602e-20 0.071673511)
(-0.0018588106 -7.1761238e-20 0.071539731)
(-0.001814202 -2.2077812e-19 0.071392427)
(-0.0018441462 1.2085608e-22 0.07124294)
(-0.0017988051 2.2979257e-20 0.071045844)
(-0.0020463009 1.9386661e-19 0.070885421)
(-0.0018487411 2.1332835e-20 0.070370531)
(-0.0024415299 1.4258202e-19 0.068794169)
(-0.0016507342 8.7539113e-22 0.05750039)
(2.7957571e-06 -7.8483163e-20 0.012328505)
(-6.3225362e-06 -2.3593901e-19 0.036311413)
(-2.8225487e-05 -3.9613331e-19 0.06062697)
(-6.7731213e-05 -5.8017156e-19 0.085003979)
(-0.00012834769 -7.7551802e-19 0.10911449)
(-0.00021365289 -9.1812297e-19 0.13257124)
(-0.00032741443 -9.6538313e-19 0.15492809)
(-0.00047353856 -9.8065561e-19 0.17568501)
(-0.00065595183 -9.7157432e-19 0.19429973)
(-0.00087841824 -9.5050174e-19 0.21020797)
(-0.001144274 -9.0937161e-19 0.22285461)
(-0.0014560548 -9.7721769e-19 0.23173676)
(-0.0018149876 -1.1224365e-18 0.23645813)
(-0.0022203302 -1.2060184e-18 0.23679052)
(-0.0026685762 -1.0707977e-18 0.23273361)
(-0.0031526105 -1.0237902e-18 0.22455977)
(-0.003661008 -9.2486994e-19 0.21282792)
(-0.0041777714 -8.3881451e-19 0.19835327)
(-0.0046828387 -6.4783394e-19 0.18212945)
(-0.0051535616 -1.0650495e-19 0.16521411)
(-0.0055670639 -1.0717723e-19 0.14860249)
(-0.0059030251 -2.1518235e-19 0.13311869)
(-0.0061462208 -2.7665693e-19 0.11934779)
(-0.006288209 -2.7586724e-19 0.10761708)
(-0.0063278346 -4.5698083e-19 0.0980199)
(-0.0062705818 -6.1824748e-19 0.090466156)
(-0.0061271299 -7.1320472e-19 0.08474231)
(-0.0059117998 -6.1301004e-19 0.080567852)
(-0.005640382 -2.7066656e-19 0.077641014)
(-0.0053291877 -2.2121853e-19 0.075671259)
(-0.0049936669 -2.1997412e-19 0.074400301)
(-0.0046478029 1.9120543e-20 0.073613249)
(-0.0043036377 3.0294389e-20 0.073142126)
(-0.0039710322 6.8394803e-20 0.07286386)
(-0.0036576093 1.3329981e-19 0.072694418)
(-0.0033688626 2.0581896e-19 0.072580733)
(-0.0031084088 3.2345827e-19 0.072492055)
(-0.0028783278 -1.9598062e-19 0.072412131)
(-0.0026795898 -1.2056577e-19 0.07233311)
(-0.0025121842 -4.5518563e-20 0.072251433)
(-0.0023769253 3.9212032e-19 0.072165452)
(-0.0022694449 4.6634986e-20 0.072073879)
(-0.0022044819 1.8823185e-19 0.071977542)
(-0.0021383622 -1.5566875e-19 0.071868815)
(-0.0021903706 1.1384903e-20 0.0717677)
(-0.0020912407 1.5099304e-19 0.071608939)
(-0.00238474 1.6724458e-19 0.071472776)
(-0.0021337581 3.5145859e-20 0.070862162)
(-0.0026209263 1.2221038e-19 0.068474229)
(-0.0018062026 1.1603853e-20 0.054743882)
(2.3287445e-06 -3.7096087e-20 0.013245079)
(-4.9434289e-06 -1.1156822e-19 0.039079552)
(-2.2252794e-05 -1.8831211e-19 0.065355992)
(-5.3585681e-05 -2.8616084e-19 0.091800672)
(-0.00010190349 -4.0417713e-19 0.11807989)
(-0.00017030392 -5.3242911e-19 0.14379615)
(-0.00026214742 -5.9734537e-19 0.16848692)
(-0.00038104847 -5.6771373e-19 0.1916275)
(-0.0005308157 -4.9507495e-19 0.21263991)
(-0.00071534116 -5.2404258e-19 0.23091025)
(-0.00093841956 -5.1555294e-19 0.24581681)
(-0.0012034703 -5.0006229e-19 0.2567712)
(-0.0015131288 -7.6392792e-19 0.2632728)
(-0.0018686775 -1.1260344e-18 0.26497443)
(-0.002269303 -1.0955645e-18 0.26175206)
(-0.0027112176 -1.0144534e-18 0.25376621)
(-0.0031867701 -9.0931217e-19 0.24149766)
(-0.0036837876 -6.4728001e-19 0.2257399)
(-0.0041854786 -4.5535029e-19 0.20753724)
(-0.0046712117 -2.6397923e-19 0.18807238)
(-0.0051182874 -3.1120702e-19 0.16852451)
(-0.0055044873 -5.4110144e-19 0.14993095)
(-0.0058108535 -5.3371173e-19 0.13308457)
(-0.0060240324 -5.4728519e-19 0.11848561)
(-0.0061376543 -6.3450486e-19 0.10634837)
(-0.0061525468 -7.1804882e-19 0.096647969)
(-0.006075916 -8.4095037e-19 0.089187205)
(-0.0059198815 -9.4143077e-19 0.083665225)
(-0.005699654 -8.2030327e-19 0.079736571)
(-0.0054318349 -6.3142376e-19 0.077055524)
(-0.0051329024 -2.9132766e-19 0.075305674)
(-0.0048180455 -1.0129017e-19 0.074216829)
(-0.0045003483 -7.2051375e-20 0.073572079)
(-0.0041903321 7.9073938e-20 0.073207643)
(-0.0038958377 1.3684903e-19 0.073007677)
(-0.0036222188 1.7003037e-19 0.072895957)
(-0.003372787 1.7328092e-19 0.072826217)
(-0.0031493834 -1.4483954e-19 0.072772797)
(-0.0029530473 2.6749331e-19 0.072722832)
(-0.0027839241 3.8839544e-19 0.072670568)
(-0.0026447385 3.4530561e-19 0.072613843)
(-0.0025273996 1.2613441e-19 0.072551345)
(-0.0024612308 3.8237567e-19 0.072485797)
(-0.0023687913 7.0594584e-20 0.072406643)
(-0.002436274 3.6696334e-20 0.072339675)
(-0.002291345 1.2276909e-19 0.072207781)
(-0.0025800765 -2.8819393e-20 0.072042271)
(-0.002312689 2.2881139e-20 0.071259475)
(-0.0026496879 -4.0025703e-20 0.067955211)
(-0.0018197136 8.1261712e-21 0.051977934)
(2.0331558e-06 2.7563633e-21 0.014044305)
(-4.3332286e-06 7.8440017e-21 0.041493923)
(-1.9514465e-05 6.6944141e-21 0.069481856)
(-4.7014823e-05 8.9487423e-21 0.097732847)
(-8.9452681e-05 -1.8755586e-21 0.12590929)
(-0.00014957944 -5.7440932e-20 0.15360654)
(-0.00023039758 -1.7752813e-19 0.18035044)
(-0.00033516475 -2.5812353e-19 0.20559864)
(-0.00046735828 -3.193316e-19 0.22874739)
(-0.00063060306 -3.6069507e-19 0.24914642)
(-0.00082854733 -3.5848745e-19 0.26612432)
(-0.0010646629 -4.1620117e-19 0.27902705)
(-0.0013419397 -4.829286e-19 0.28727104)
(-0.0016624401 -5.7176479e-19 0.29040988)
(-0.0020266841 -6.4844706e-19 0.28820948)
(-0.0024328686 -5.7261257e-19 0.28072074)
(-0.0028759857 -4.2193221e-19 0.26833268)
(-0.0033470091 -1.8940627e-19 0.25178606)
(-0.0038324314 3.1782051e-19 0.23213088)
(-0.0043144897 3.4367322e-19 0.21062412)
(-0.0047723233 1.8816631e-19 0.18858302)
(-0.0051840447 -2.1873818e-19 0.16722618)
(-0.0055293577 -3.8508745e-19 0.14754075)
(-0.0057921115 -4.668151e-19 0.13020383)
(-0.0059621819 -5.8376798e-19 0.1155669)
(-0.0060363079 -6.5240882e-19 0.1036927)
(-0.0060178468 -6.5826384e-19 0.094423389)
(-0.0059156993 -6.1767002e-19 0.087457914)
(-0.0057427539 -7.0149821e-19 0.082422778)
(-0.005514215 -6.4007724e-19 0.07892783)
(-0.0052460591 -2.102774e-19 0.076605149)
(-0.0049537563 -6.3106718e-21 0.075132696)
(-0.0046513095 -1.0127229e-19 0.074245814)
(-0.0043506127 7.8446488e-20 0.073739687)
(-0.0040611099 1.1991811e-19 0.073465413)
(-0.0037897432 1.3006139e-19 0.073321893)
(-0.003541158 1.3216379e-19 0.073245525)
(-0.0033180942 -3.9878403e-20 0.07319957)
(-0.0031220632 2.0413436e-19 0.073164695)
(-0.0029527158 3.2434887e-19 0.073131703)
(-0.0028145051 2.8594491e-19 0.07309682)
(-0.0026919908 1.3225644e-19 0.073057461)
(-0.0026318306 1.7221894e-19 0.073017136)
(-0.0025201868 1.3415414e-19 0.072962198)
(-0.002598038 4.8925077e-20 0.072916283)
(-0.0024339849 -1.4776086e-20 0.072799284)
(-0.002692556 -2.3999765e-20 0.072560349)
(-0.0024381436 1.4928939e-20 0.071529756)
(-0.002642517 -3.7810829e-20 0.067273138)
(-0.0017809498 5.7108199e-21 0.049262255)
(1.8139421e-06 3.185848e-20 0.014747667)
(-3.8201137e-06 9.5156418e-20 0.043620802)
(-1.723789e-05 1.5511213e-19 0.073119851)
(-4.1568047e-05 2.3400181e-19 0.10296911)
(-7.9161295e-05 3.1481363e-19 0.13282867)
(-0.00013250266 3.4292992e-19 0.16228905)
(-0.00020432284 3.1832225e-19 0.19086776)
(-0.00029761012 2.1101786e-19 0.21800928)
(-0.00041558991 1.0840201e-19 0.24309024)
(-0.00056167535 1.5336266e-19 0.2654321)
(-0.00073937668 8.8819263e-20 0.28432411)
(-0.00095214892 6.0369839e-20 0.29905933)
(-0.0012031512 4.0824667e-20 0.3089857)
(-0.0014948842 5.3887676e-20 0.31357241)
(-0.0018286743 -3.7405004e-19 0.31248794)
(-0.0022039862 -1.9392523e-19 0.30568033)
(-0.0026175984 -4.2672653e-20 0.29344383)
(-0.0030627523 3.9704494e-20 0.27645091)
(-0.0035285044 3.1480442e-19 0.25572934)
(-0.0039995963 6.0655814e-19 0.23257426)
(-0.0044571419 5.7346229e-19 0.20840381)
(-0.0048802431 7.4854383e-20 0.18458768)
(-0.00524833 -1.645348e-19 0.16228949)
(-0.00554372 -2.7593756e-19 0.1423592)
(-0.0057537795 -3.2634311e-19 0.12529303)
(-0.0058722122 -2.7932501e-19 0.11125609)
(-0.0058993004 -1.1609609e-19 0.10014733)
(-0.0058412254 8.5551225e-20 0.091682307)
(-0.0057087706 -2.2293949e-19 0.085473529)
(-0.0055157514 -5.8182067e-19 0.081096858)
(-0.0052774482 -4.829662e-19 0.078139701)
(-0.0050092225 -6.28052e-21 0.076231853)
(-0.0047254069 5.9258217e-20 0.07506208)
(-0.0044385067 1.9492759e-19 0.074383886)
(-0.0041587238 3.7860627e-19 0.074013518)
(-0.003893795 1.8185943e-19 0.073822686)
(-0.0036491185 1.7937945e-19 0.073728145)
(-0.0034280867 2.098423e-19 0.073680175)
(-0.0032328767 3.2121862e-20 0.07365171)
(-0.0030627544 6.9388709e-20 0.07362945)
(-0.0029253987 1.9189442e-19 0.073607882)
(-0.0027970127 8.0105812e-20 0.073583183)
(-0.0027420894 -1.47888e-19 0.073559121)
(-0.0026179137 -3.8093201e-20 0.073520962)
(-0.002695533 3.2902969e-20 0.073482697)
(-0.0025317238 -1.2388719e-19 0.073365928)
(-0.0027477793 7.6043042e-20 0.073023821)
(-0.0025079358 2.5610841e-20 0.071686521)
(-0.0026089574 1.0361184e-19 0.066490087)
(-0.0017156105 1.1305852e-20 0.046685576)
(1.6475215e-06 1.1514331e-20 0.01538338)
(-3.4609609e-06 3.5015106e-20 0.045543799)
(-1.5628284e-05 6.0710136e-20 0.076410249)
(-3.7701885e-05 1.0613351e-19 0.10770699)
(-7.1828137e-05 1.5242143e-19 0.1390926)
(-0.00012028268 2.0985785e-19 0.17015398)
(-0.00018557485 2.7925744e-19 0.20040219)
(-0.00027046326 2.4357135e-19 0.22927133)
(-0.00037794434 2.156649e-19 0.25612236)
(-0.00051121752 3.2810961e-19 0.28025396)
(-0.00067361682 4.3991687e-19 0.30092332)
(-0.00086849216 6.6420783e-19 0.31737981)
(-0.0010990167 8.8244011e-19 0.32891396)
(-0.0013678891 7.1372959e-19 0.33492275)
(-0.0016768982 2.7127332e-19 0.33498885)
(-0.002026325 -6.86977e-20 0.32896605)
(-0.0024141901 -2.637512e-19 0.31705622)
(-0.002835421 -6.6552321e-19 0.29985684)
(-0.0032811172 -1.0951823e-18 0.27835645)
(-0.0037381909 -8.4206763e-19 0.25386265)
(-0.0041896964 -3.4632897e-19 0.22786497)
(-0.004616045 -9.5977089e-20 0.20185706)
(-0.0049970288 -1.3326172e-19 0.17715978)
(-0.0053142614 -1.328983e-19 0.15478728)
(-0.0055534611 -1.9099562e-19 0.13538179)
(-0.0057060469 -1.7484396e-19 0.11921922)
(-0.0057697596 -1.5826909e-19 0.10626753)
(-0.0057483357 7.0749048e-20 0.096271703)
(-0.0056504768 3.4592075e-19 0.088841959)
(-0.0054884374 1.0761431e-19 0.083529679)
(-0.0052765201 5.1890072e-20 0.07988465)
(-0.0050296804 1.3654209e-19 0.077493215)
(-0.0047623484 1.4143345e-19 0.076000193)
(-0.0044875186 1.8282746e-19 0.075118329)
(-0.004216135 3.6630078e-19 0.074628617)
(-0.0039567675 4.3308356e-19 0.074374284)
(-0.0037155896 5.0454512e-19 0.074250707)
(-0.0034965908 5.1541966e-19 0.0741934)
(-0.0033025856 1.8699472e-19 0.07416603)
(-0.0031319142 3.6361489e-19 0.074150035)
(-0.0029958814 2.0449688e-19 0.074137437)
(-0.0028623674 2.8967155e-19 0.074122917)
(-0.0028096664 -4.3796162e-19 0.074109242)
(-0.0026792283 -2.3837949e-19 0.074082378)
(-0.002746486 7.8752238e-21 0.074041487)
(-0.0025907594 -1.0979074e-19 0.073907572)
(-0.0027625515 2.2659983e-20 0.073438481)
(-0.0025277636 3.3385116e-20 0.071746606)
(-0.0025496079 8.2658291e-20 0.065632564)
(-0.0016334272 2.4334762e-20 0.044252897)
(1.5143679e-06 -4.6103481e-20 0.015964871)
(-3.171301e-06 -1.3534973e-19 0.047303419)
(-1.4330799e-05 -2.2153374e-19 0.079422161)
(-3.458533e-05 -3.146128e-19 0.11204565)
(-6.591631e-05 -4.1154833e-19 0.14483146)
(-0.00011042989 -4.5612537e-19 0.17736379)
(-0.0001704553 -4.7004978e-19 0.20914857)
(-0.00024856274 -5.3261443e-19 0.23961148)
(-0.00034755783 -6.0496779e-19 0.26810056)
(-0.00047045646 -7.2008266e-19 0.29389554)
(-0.00062043161 -7.6387381e-19 0.31622676)
(-0.00080071827 -7.9157803e-19 0.3343066)
(-0.0010144548 -9.3125922e-19 0.34737642)
(-0.0012644333 -7.2438876e-19 0.35477042)
(-0.0015527277 -1.1139095e-19 0.35599517)
(-0.0018801694 -6.2495073e-19 0.35081842)
(-0.0022456651 -1.0015458e-18 0.33935399)
(-0.0026454047 -1.3129185e-18 0.32212221)
(-0.0030720948 -1.7465819e-18 0.30006208)
(-0.0035144581 -1.8203299e-18 0.2744756)
(-0.0039573019 -1.5682157e-18 0.24690062)
(-0.0043823978 -8.1209199e-19 0.21893159)
(-0.0047701989 -4.0268332e-19 0.19202829)
(-0.0051021116 -1.8992905e-19 0.16735857)
(-0.0053628019 -9.454991e-20 0.14570866)
(-0.0055419897 -2.1649285e-19 0.12746993)
(-0.0056353697 -3.8519683e-19 0.11268794)
(-0.0056445901 -2.807602e-20 0.10114727)
(-0.0055764688 5.2205366e-19 0.092465473)
(-0.0054417431 4.0073591e-19 0.08617774)
(-0.0052536452 5.4170721e-19 0.081802698)
(-0.0050265263 2.841479e-19 0.07888785)
(-0.004774651 2.1099259e-19 0.077036987)
(-0.0045112237 2.3158785e-19 0.075923499)
(-0.004247682 1.3354286e-19 0.075293301)
(-0.0039932633 3.7423943e-19 0.074960401)
(-0.0037548575 5.8859482e-19 0.074797522)
(-0.0035370592 2.897162e-19 0.074723986)
(-0.0033435361 2.7019171e-19 0.074692909)
(-0.003171589 2.4316092e-19 0.07467948)
(-0.0030361265 -8.2370221e-20 0.074672529)
(-0.0028986168 1.1024097e-19 0.074665093)
(-0.0028447318 -2.8324582e-19 0.074657571)
(-0.0027132283 -2.332489e-19 0.074637112)
(-0.0027652196 -7.4813676e-21 0.07458574)
(-0.00261887 1.1834548e-20 0.074416473)
(-0.0027516691 -7.6453441e-20 0.07379942)
(-0.0025140158 2.4623099e-20 0.071718206)
(-0.0024734241 -6.6184437e-20 0.064714262)
(-0.0015432009 2.1748862e-20 0.041954162)
(1.4051872e-06 -3.0334385e-20 0.016502657)
(-2.9378109e-06 -9.0447718e-20 0.048931204)
(-1.3281666e-05 -1.5437804e-19 0.082209108)
(-3.2062286e-05 -2.2005502e-19 0.1160614)
(-6.1124935e-05 -2.8702647e-19 0.15014504)
(-0.00010243493 -3.5533363e-19 0.18404212)
(-0.00015817068 -4.2224245e-19 0.21725437)
(-0.00023074259 -4.8668445e-19 0.24920049)
(-0.00032279149 -5.3764137e-19 0.27921764)
(-0.00043717062 -5.7733511e-19 0.30656944)
(-0.00057690395 -5.4575249e-19 0.33046324)
(-0.00074510793 -5.9027695e-19 0.35007958)
(-0.00094485884 -7.116722e-19 0.36461706)
(-0.0011789804 -8.0428746e-19 0.37335466)
(-0.0014497216 -8.9997264e-19 0.37573094)
(-0.0017582939 -9.8752953e-19 0.37143505)
(-0.0021042543 -1.1122308e-18 0.36049773)
(-0.0024847603 -1.1722278e-18 0.3433625)
(-0.0028938022 -1.1827779e-18 0.32091276)
(-0.0033216166 -1.2643639e-18 0.29443199)
(-0.0037545638 -1.2636973e-18 0.26548839)
(-0.0041757359 -8.90523e-19 0.23575765)
(-0.0045663937 -6.5919718e-19 0.20682154)
(-0.0049080439 -4.9887935e-19 0.17999063)
(-0.0051847084 -1.9432862e-19 0.15619108)
(-0.0053848421 1.8580455e-19 0.13593179)
(-0.0055024845 -5.656473e-20 0.11934202)
(-0.0055374995 -2.7847924e-19 0.1062538)
(-0.0054950151 5.4589229e-20 0.096300096)
(-0.0053843352 3.5840482e-19 0.089007032)
(-0.0052176092 3.7195597e-19 0.083867912)
(-0.0050084912 2.6411777e-19 0.080395815)
(-0.004770933 2.3343604e-19 0.078156547)
(-0.0045181757 2.4153481e-19 0.076785931)
(-0.0042619791 2.5577372e-19 0.075995466)
(-0.0040121022 3.6790127e-19 0.075569678)
(-0.0037760454 5.2997506e-19 0.075357733)
(-0.0035589117 4.2087674e-19 0.075261539)
(-0.0033653009 3.1085595e-19 0.075222452)
(-0.0031915318 1.9848992e-19 0.075208419)
(-0.0030553927 -8.1886851e-20 0.075204265)
(-0.0029148964 -3.5957743e-20 0.0752012)
(-0.0028567798 -3.3128138e-19 0.075196277)
(-0.0027267534 -1.9085968e-19 0.075177049)
(-0.0027623445 -1.5182662e-20 0.075108501)
(-0.0026229651 1.4392156e-20 0.074887007)
(-0.0027228721 -3.4749955e-20 0.074103794)
(-0.0024776654 1.2871789e-20 0.071612125)
(-0.002386475 -5.982417e-20 0.063754368)
(-0.001450387 1.7922582e-20 0.039793324)
(1.3137242e-06 -5.4002891e-20 0.017004067)
(-2.7427479e-06 -1.6053714e-19 0.050449212)
(-1.2405079e-05 -2.7402739e-19 0.084808646)
(-2.995352e-05 -3.9309799e-19 0.11980801)
(-5.7118844e-05 -4.9311021e-19 0.15510393)
(-9.5747294e-05 -5.9610851e-19 0.19027681)
(-0.00014788873 -6.8684989e-19 0.22482494)
(-0.00021581675 -7.1830891e-19 0.25816107)
(-0.00030202987 -7.3883187e-19 0.28961302)
(-0.00040923826 -6.3305749e-19 0.31843053)
(-0.00054033059 -3.2427346e-19 0.34380095)
(-0.000698309 8.1248183e-21 0.36487694)
(-0.00088617694 4.0908825e-19 0.38081946)
(-0.0011067555 1.5021026e-19 0.39085838)
(-0.0013624013 -6.2204763e-19 0.394371)
(-0.0016545949 -7.3202273e-19 0.3909745)
(-0.0019833808 -7.1248888e-19 0.38062148)
(-0.0023466715 -1.0481724e-19 0.36368034)
(-0.0027394945 3.1795245e-20 0.34097546)
(-0.0031533562 4.8420728e-19 0.31376263)
(-0.0035759799 -4.0019587e-19 0.28362623)
(-0.0039916956 -6.3764076e-19 0.2523068)
(-0.004382626 -6.8802238e-19 0.22149287)
(-0.0047305677 -7.0092369e-19 0.19262676)
(-0.0050191847 -6.5534869e-19 0.16676944)
(-0.0052359927 -4.7403058e-19 0.14454762)
(-0.0053736881 1.1204458e-19 0.12617849)
(-0.0054306079 1.1042667e-19 0.11154775)
(-0.0054103777 -3.5182897e-19 0.10031051)
(-0.0053209753 1.4498209e-19 0.091990005)
(-0.0051734939 3.4413778e-19 0.086059409)
(-0.0049808485 3.1781098e-19 0.082001452)
(-0.0047565801 3.4840727e-19 0.079346929)
(-0.0045138347 4.4272837e-19 0.077696028)
(-0.0042645521 6.6211532e-19 0.076726801)
(-0.0040188868 4.5099597e-19 0.076194416)
(-0.003784868 5.9648172e-19 0.075923943)
(-0.0035680241 9.1584446e-19 0.075798927)
(-0.0033738792 4.5893503e-19 0.075747893)
(-0.0031980564 1.975696e-19 0.075730612)
(-0.0030600686 1.277545e-19 0.07572705)
(-0.002917352 -7.6132585e-20 0.075726186)
(-0.0028530453 -3.9760465e-19 0.075721153)
(-0.0027247697 -2.0054014e-19 0.075698187)
(-0.0027446385 -1.9666378e-20 0.075606298)
(-0.0026085794 1.433196e-20 0.075317861)
(-0.0026801049 -2.2374241e-20 0.074352706)
(-0.0024248789 6.1017305e-21 0.07143951)
(-0.002291903 -5.4198221e-20 0.062769762)
(-0.001357668 1.3325001e-20 0.037772569)
(1.2356994e-06 -2.4313312e-20 0.017474678)
(-2.5773917e-06 -7.2027018e-20 0.05187423)
(-1.166112e-05 -1.2263849e-19 0.08724936)
(-2.8162804e-05 -1.7513021e-19 0.12332641)
(-5.3714964e-05 -2.2795324e-19 0.15976186)
(-9.0061458e-05 -2.8148744e-19 0.1961348)
(-0.00013914141 -3.4380168e-19 0.23194061)
(-0.00020310953 -3.9631028e-19 0.26658691)
(-0.00028433947 -4.31164e-19 0.29939341)
(-0.00038541447 -4.4939485e-19 0.32959769)
(-0.00050910077 -4.4036213e-19 0.35636946)
(-0.000658293 -3.7532795e-19 0.37883675)
(-0.00083591742 -2.7931801e-19 0.39612695)
(-0.001044772 -3.2140631e-19 0.40742586)
(-0.0012872772 -4.093782e-19 0.41205527)
(-0.001565107 -4.2595148e-19 0.40956611)
(-0.0018786786 -3.626199e-19 0.3998377)
(-0.0022265031 -3.7463237e-19 0.38316558)
(-0.0026044573 -2.9787336e-19 0.36031345)
(-0.0030051197 -3.6676517e-19 0.33250283)
(-0.0034174095 -2.9021717e-19 0.3013232)
(-0.0038267976 -4.3959475e-19 0.26856604)
(-0.004216276 -4.3963615e-19 0.23601309)
(-0.0045680467 -3.2550269e-19 0.20522792)
(-0.0048656161 -3.0309956e-19 0.17740054)
(-0.005095806 -5.1120609e-19 0.15327454)
(-0.0052502188 -3.5370847e-19 0.13315787)
(-0.0053258852 9.5769286e-20 0.11699488)
(-0.005325094 2.2818043e-19 0.10446844)
(-0.0052546021 6.5521767e-20 0.095104298)
(-0.0051244938 2.5334581e-19 0.088360135)
(-0.0049469379 3.0385013e-19 0.083692052)
(-0.00473501 3.1794991e-19 0.080598654)
(-0.0045016689 3.5383958e-19 0.078646453)
(-0.0042589216 4.9717423e-19 0.077481197)
(-0.004017203 5.4285751e-19 0.076829081)
(-0.0037849911 5.9423916e-19 0.076490823)
(-0.0035681694 8.1568182e-19 0.076330902)
(-0.0033730863 5.125146e-19 0.076264096)
(-0.0031951022 2.1514491e-19 0.076241128)
(-0.0030543024 8.119314e-20 0.076236299)
(-0.0029096895 -1.3252796e-19 0.076235738)
(-0.002838323 -2.3376797e-19 0.076228362)
(-0.0027109077 -1.9255374e-19 0.076197016)
(-0.0027164063 -2.2631649e-20 0.076075701)
(-0.002580478 1.0387283e-20 0.075707706)
(-0.0026267795 -2.1262677e-20 0.07454726)
(-0.0023606558 -3.8239992e-21 0.071208559)
(-0.002192506 -5.0321045e-20 0.06177143)
(-0.0012667051 5.4383405e-21 0.035887297)
(1.1682467e-06 -9.78624e-22 0.0179188)
(-2.4347792e-06 -3.1195654e-21 0.053219236)
(-1.1019295e-05 -5.2814071e-21 0.089553367)
(-2.6617613e-05 -3.108896e-21 0.1266483)
(-5.0777058e-05 -2.6705711e-20 0.16416052)
(-8.5152266e-05 -4.7257017e-20 0.20166807)
(-0.00013158551 -6.4301272e-20 0.23866384)
(-0.00019212716 -1.8235264e-19 0.274551)
(-0.00026904057 -2.6520888e-19 0.30864213)
(-0.00036479582 -3.6833843e-19 0.340164)
(-0.00048204813 -5.6015848e-19 0.36827068)
(-0.00062359182 -8.4131803e-19 0.3920681)
(-0.00079227587 -1.0264855e-18 0.41065353)
(-0.00099086319 -9.2084692e-19 0.42317289)
(-0.0012218089 -3.4555771e-19 0.4288973)
(-0.0014869272 -3.6202143e-19 0.42731655)
(-0.0017869244 -2.8906725e-19 0.41824109)
(-0.0021207938 -5.684278e-19 0.40189626)
(-0.0024851147 -4.4856797e-19 0.37898457)
(-0.0028733787 -7.0985353e-19 0.35068858)
(-0.0032755545 -1.1196376e-19 0.318594)
(-0.0036781572 -2.1045913e-19 0.28453164)
(-0.0040650288 -2.3855311e-19 0.25036433)
(-0.0044188443 -1.88933e-19 0.21776697)
(-0.0047230951 -1.4642055e-19 0.18805257)
(-0.0049640996 -1.5248133e-19 0.16207988)
(-0.0051325657 -6.7299452e-19 0.14024936)
(-0.0052243982 -2.4402646e-19 0.12256794)
(-0.0052406955 3.4616209e-19 0.10875104)
(-0.0051870959 2.7287921e-19 0.098331647)
(-0.0050727306 3.6501695e-19 0.09075609)
(-0.0049090326 3.3851781e-19 0.085457242)
(-0.0047085828 3.3361976e-19 0.081904154)
(-0.0044840889 3.1434264e-19 0.079631577)
(-0.0042475418 1.3139892e-19 0.078254181)
(-0.004009563 4.2901723e-19 0.077469755)
(-0.0037789997 5.4528577e-19 0.077054633)
(-0.0035620458 5.0461562e-19 0.076853732)
(-0.003365709 3.0362231e-19 0.076767309)
(-0.0031855148 1.469841e-19 0.076736238)
(-0.0030412473 -1.8870334e-19 0.076728398)
(-0.0028946599 -8.4894435e-20 0.076726311)
(-0.0028160624 1.8379445e-20 0.076714466)
(-0.0026882368 -1.7240273e-19 0.076670397)
(-0.0026806747 -2.8616873e-20 0.076513552)
(-0.0025425609 3.8843612e-21 0.076055273)
(-0.0025658574 -2.1223135e-20 0.07468887)
(-0.0022890411 -6.2346015e-21 0.070926224)
(-0.0020907941 -4.7284676e-20 0.060767824)
(-0.001178681 1.2727402e-21 0.034131727)
(1.1090774e-06 -2.2193908e-20 0.018339849)
(-2.3108224e-06 -6.6924871e-20 0.054494532)
(-1.0459736e-05 -1.1162777e-19 0.091738232)
(-2.5269335e-05 -1.538245e-19 0.12979887)
(-4.8212023e-05 -2.1524693e-19 0.16833304)
(-8.0864002e-05 -2.7397426e-19 0.20691796)
(-0.00012498216 -3.3293694e-19 0.24504439)
(-0.00018252441 -3.9931431e-19 0.28211158)
(-0.00025565579 -4.624597e-19 0.31742576)
(-0.00034674475 -5.0197231e-19 0.35020407)
(-0.00045834554 -5.171673e-19 0.37958647)
(-0.00059315887 -5.7921923e-19 0.40465902)
(-0.00075395832 -6.2817097e-19 0.42449166)
(-0.00094346504 -6.6952746e-19 0.438194)
(-0.0011641486 -6.5741717e-19 0.44499066)
(-0.0014179257 -5.5117312e-19 0.44431475)
(-0.0017057305 -5.4086381e-19 0.43591198)
(-0.0020269487 -5.6806657e-19 0.41994024)
(-0.0023787475 -5.7982842e-19 0.39704103)
(-0.0027554006 -5.5479224e-19 0.36835467)
(-0.003147802 -3.4038655e-19 0.33545606)
(-0.0035434194 -1.1798676e-19 0.30020549)
(-0.0039269107 -1.2497763e-19 0.26453615)
(-0.0042814603 -7.6176713e-20 0.230225)
(-0.0045906486 -6.8975554e-21 0.19870193)
(-0.0048404371 6.1714219e-20 0.17093852)
(-0.0050208012 -1.087702e-19 0.1474287)
(-0.0051266727 -1.4103496e-19 0.12824509)
(-0.0051580869 1.2541518e-19 0.11313975)
(-0.0051196571 2.8380453e-19 0.10165707)
(-0.0050196173 3.4394126e-19 0.093235743)
(-0.0048686867 3.4854473e-19 0.087288534)
(-0.0046789402 3.3779923e-19 0.083257383)
(-0.0044627952 3.2920505e-19 0.080647117)
(-0.0042321602 2.9206856e-19 0.079042579)
(-0.0039977641 3.4386937e-19 0.078113832)
(-0.0037687511 5.1374465e-19 0.077612964)
(-0.0035515989 5.298114e-19 0.077365016)
(-0.0033537985 3.0262149e-19 0.077255093)
(-0.0031713635 1.25094e-19 0.077213473)
(-0.0030232759 -1.5846748e-19 0.077200925)
(-0.002874413 -1.6196728e-19 0.077195538)
(-0.002788746 -9.9686285e-20 0.077177099)
(-0.0026592945 -1.3669471e-19 0.077116276)