/*--------------------------------*- C++ -*----------------------------------*\
| =========                 |                                                 |
| \\      /  F ield         | OpenFOAM: The Open Source CFD Toolbox           |
|  \\    /   O peration     | Version:  3.0.1                                 |
|   \\  /    A nd           | Web:      www.OpenFOAM.org                      |
|    \\/     M anipulation  |                                                 |
\*---------------------------------------------------------------------------*/
FoamFile
{
    version     2.0;
    format      ascii;
    class       surfaceScalarField;
    location    "10000/fluid";
    object      phi;
}
// * * * * * * * * * * * * * * * * * * * * * * * * * * * * * * * * * * * * * //

dimensions      [1 0 -1 0 0 0 0];

internalField   nonuniform List<scalar> 
7860
(
5.0020054e-09
1.5901749e-08
1.4667336e-08
5.0337623e-08
2.4238787e-08
9.1579336e-08
3.1195363e-08
1.3738161e-07
3.522598e-08
1.8666159e-07
3.709614e-08
2.3999906e-07
3.7702422e-08
2.9908348e-07
3.7688755e-08
3.6594583e-07
3.7422545e-08
4.4250953e-07
3.7082769e-08
5.3046239e-07
3.6744503e-08
6.3127061e-07
3.6432729e-08
7.4622372e-07
3.615055e-08
8.7645438e-07
3.5891921e-08
1.0229274e-06
3.5646722e-08
1.1864107e-06
3.5402643e-08
1.3674169e-06
3.5146825e-08
1.5661518e-06
3.4874039e-08
1.7824386e-06
3.4574232e-08
2.0156758e-06
3.4225551e-08
2.264769e-06
3.3810276e-08
2.5280563e-06
3.3311563e-08
2.8032744e-06
3.2713503e-08
3.0875122e-06
3.2001694e-08
3.377184e-06
3.1163866e-08
3.6679899e-06
3.0189141e-08
3.9548887e-06
2.9071148e-08
4.2320193e-06
2.7807593e-08
4.4926004e-06
2.6400522e-08
4.7287726e-06
2.4855075e-08
4.9313384e-06
2.3180571e-08
5.0893855e-06
2.1390128e-08
5.1897429e-06
1.9498103e-08
5.2162468e-06
1.752094e-08
5.1487929e-06
1.5466789e-08
4.9621396e-06
1.333535e-08
4.6245717e-06
1.1068847e-08
4.0963978e-06
8.5121165e-09
3.3289209e-06
5.0692588e-09
2.2638223e-06
8.3471871e-07
-6.7478271e-10
1.657653e-08
-2.0405471e-09
5.1703386e-08
-3.7711974e-09
9.3309987e-08
-5.8307029e-09
1.3944111e-07
-8.0366433e-09
1.8886753e-07
-1.0007108e-08
2.4196953e-07
-1.1418856e-08
3.0049523e-07
-1.2155482e-08
3.6668246e-07
-1.2264824e-08
4.4261887e-07
-1.1858609e-08
5.3005617e-07
-1.1045013e-08
6.3045702e-07
-9.9055882e-09
7.450843e-07
-8.4973833e-09
8.7504618e-07
-6.8629367e-09
1.021293e-06
-5.0392714e-09
1.184587e-06
-3.0632287e-09
1.3654409e-06
-9.729189e-10
1.5640615e-06
1.1963488e-09
1.7802693e-06
3.4034878e-09
2.0134687e-06
5.5969745e-09
2.2625755e-06
7.7267113e-09
2.5259266e-06
9.7438014e-09
2.8012573e-06
1.1601837e-08
3.0856541e-06
1.3264931e-08
3.3755209e-06
1.4740009e-08
3.6665148e-06
1.5947318e-08
3.9536814e-06
1.6855981e-08
4.2311106e-06
1.7448727e-08
4.4920076e-06
1.7718664e-08
4.7285027e-06
1.7664202e-08
4.9313929e-06
1.7296445e-08
5.0897533e-06
1.6635441e-08
5.1904039e-06
1.5704522e-08
5.2171777e-06
1.453165e-08
5.1499658e-06
1.313561e-08
4.9635356e-06
1.1519681e-08
4.6261876e-06
9.6136296e-09
4.0983039e-06
7.2054901e-09
3.331329e-06
3.7304556e-09
2.2672974e-06
8.3844911e-07
-8.1768721e-10
1.7394218e-08
-3.2112203e-09
5.4096919e-08
-7.0208186e-09
9.7119585e-08
-1.181287e-08
1.4423316e-07
-1.6927522e-08
1.9398218e-07
-2.1601484e-08
2.4664349e-07
-2.5244215e-08
3.0413796e-07
-2.7627713e-08
3.6906596e-07
-2.8839526e-08
4.4383068e-07
-2.9113945e-08
5.3033059e-07
-2.8691093e-08
6.3003417e-07
-2.7753181e-08
7.4414639e-07
-2.6418291e-08
8.7371128e-07
-2.4758686e-08
1.0196334e-06
-2.2821835e-08
1.1826502e-06
-2.0645491e-08
1.3632645e-06
-1.8265936e-08
1.5616819e-06
-1.5726638e-08
1.77773e-06
-1.3073008e-08
2.0108151e-06
-1.0349928e-08
2.2598524e-06
-7.6088497e-09
2.5231855e-06
-4.902545e-09
2.798551e-06
-2.2829077e-09
3.0830345e-06
2.0759806e-10
3.3730304e-06
2.5568698e-09
3.6641655e-06
4.6845907e-09
3.9515537e-06
6.5443079e-09
4.2292509e-06
8.1176538e-09
4.4904343e-06
9.4249501e-09
4.7271954e-06
1.0388763e-08
4.9304291e-06
1.1000257e-08
5.0891418e-06
1.1266796e-08
5.1901374e-06
1.1196544e-08
5.2172479e-06
1.0809363e-08
5.150353e-06
1.0114944e-08
4.96423e-06
9.1055279e-09
4.627197e-06
7.6945554e-09
4.0997148e-06
5.6502652e-09
3.3333733e-06
2.6143778e-09
2.2703333e-06
8.4106348e-07
-7.8388784e-10
1.8178105e-08
-3.2602507e-09
5.6573282e-08
-7.5803655e-09
1.014397e-07
-1.3516251e-08
1.5016905e-07
-2.0385706e-08
2.0085164e-07
-2.7188313e-08
2.534461e-07
-3.2979427e-08
3.0992907e-07
-3.7219736e-08
3.7330626e-07
-3.9842863e-08
4.4645381e-07
-4.1085974e-08
5.3157371e-07
-4.1277923e-08
6.3022612e-07
-4.0705242e-08
7.4357371e-07
-3.9568101e-08
8.7257415e-07
-3.7990059e-08
1.0180554e-06
-3.6045422e-08
1.1807056e-06
-3.3784116e-08
1.3610032e-06
-3.1248007e-08
1.5591458e-06
-2.8482378e-08
1.7749644e-06
-2.5534897e-08
2.0078676e-06
-2.2454084e-08
2.2567716e-06
-1.9294415e-08
2.5200258e-06
-1.6112758e-08
2.7953693e-06
-1.2965835e-08
3.0798876e-06
-9.9083525e-09
3.3699729e-06
-7.0105551e-09
3.6612677e-06
-4.3045693e-09
3.9488477e-06
-1.8375985e-09
4.226784e-06
3.6704149e-10
4.4882296e-06
2.3161727e-09
4.7252462e-06
3.9386406e-09
4.9288066e-06
5.2295695e-09
5.0878509e-06
6.226354e-09
5.1891406e-06
6.8662669e-09
5.216608e-06
7.158888e-09
5.1500604e-06
7.1048913e-09
4.964284e-06
6.688327e-09
4.6276136e-06
5.8153776e-09
4.1005877e-06
4.2611913e-09
3.3349274e-06
1.8518183e-09
2.2727427e-06
8.4291542e-07
-7.0075782e-10
1.8878862e-08
-3.0066709e-09
5.8879195e-08
-7.2348119e-09
1.0566784e-07
-1.3394432e-08
1.5632867e-07
-2.0995827e-08
2.0845303e-07
-2.9059232e-08
2.615095e-07
-3.6444666e-08
3.1731451e-07
-4.2304095e-08
3.7916569e-07
-4.6314516e-08
4.5046423e-07
-4.859906e-08
5.3385826e-07
-4.9499719e-08
6.3112678e-07
-4.9379325e-08
7.4345331e-07
-4.8521419e-08
8.7171624e-07
-4.7112152e-08
1.0166461e-06
-4.5262943e-08
1.1788564e-06
-4.3041635e-08
1.3587819e-06
-4.0497024e-08
1.5566012e-06
-3.7675258e-08
1.7721426e-06
-3.4623553e-08
2.0048159e-06
-3.1390691e-08
2.2535387e-06
-2.8031174e-08
2.5166663e-06
-2.4602856e-08
2.791941e-06
-2.1164522e-08
3.0764493e-06
-1.7775032e-08
3.3665834e-06
-1.4504861e-08
3.6579976e-06
-1.1393665e-08
3.9457365e-06
-8.4905559e-09
4.2238809e-06
-5.8374223e-09
4.4855765e-06
-3.4807364e-09
4.7228896e-06
-1.4258785e-09
4.9267518e-06
3.2116595e-10
5.0861038e-06
1.7855351e-09
5.1876763e-06
2.9137883e-09
5.2154798e-06
3.7529873e-09
5.1492212e-06
4.2582851e-09
4.9637787e-06
4.3843964e-09
4.6274875e-06
4.0293931e-09
4.1009427e-06
2.9872092e-09
3.3359696e-06
1.2219016e-09
2.2745078e-06
8.4413741e-07
-6.4236663e-10
1.9521229e-08
-2.7896592e-09
6.1026486e-08
-6.8224069e-09
1.0970059e-07
-1.2900786e-08
1.6240705e-07
-2.0736276e-08
2.1628852e-07
-2.948956e-08
2.7026279e-07
-3.7986064e-08
3.2581101e-07
-4.5168035e-08
3.8634767e-07
-5.0451091e-08
4.5574728e-07
-5.3774579e-08
5.3718175e-07
-5.5419658e-08
6.3277186e-07
-5.5780841e-08
7.438145e-07
-5.5211449e-08
8.7114685e-07
-5.3964869e-08
1.0153995e-06
-5.2199958e-08
1.1770914e-06
-5.0011648e-08
1.3565936e-06
-4.746171e-08
1.5540512e-06
-4.4600792e-08
1.7692817e-06
-4.1477493e-08
2.0016926e-06
-3.8141455e-08
2.2502027e-06
-3.4647359e-08
2.5131722e-06
-3.1053583e-08
2.7883472e-06
-2.742007e-08
3.0728157e-06
-2.3807879e-08
3.3629712e-06
-2.0286755e-08
3.6544764e-06
-1.6901344e-08
3.9423511e-06
-1.3702061e-08
4.2206816e-06
-1.0734071e-08
4.4826085e-06
-8.0437981e-09
4.7201993e-06
-5.6411641e-09
4.9243491e-06
-3.547116e-09
5.0840098e-06
-1.7825922e-09
5.1859118e-06
-3.2821654e-10
5.2140254e-06
8.5413522e-10
5.1480388e-06
1.7285251e-09
4.9629043e-06
2.2883133e-09
4.6269277e-06
2.4030217e-09
4.1008281e-06
1.8658333e-09
3.3365068e-06
7.2795516e-10
2.2756457e-06
8.4486539e-07
-5.9412455e-10
2.0115352e-08
-2.5993642e-09
6.3031727e-08
-6.4198981e-09
1.1352112e-07
-1.2305529e-08
1.6829268e-07
-2.0127294e-08
2.2411029e-07
-2.921194e-08
2.7934744e-07
-3.8445239e-08
3.3504431e-07
-4.6663807e-08
3.9456623e-07
-5.3069388e-08
4.6215285e-07
-5.7397176e-08
5.4150954e-07
-5.9814246e-08
6.3518892e-07
-6.0699042e-08
7.4469929e-07
-6.044941e-08
8.7089722e-07
-5.9380588e-08
1.0143307e-06
-5.7703712e-08
1.1754146e-06
-5.5547847e-08
1.3544377e-06
-5.2993173e-08
1.5514966e-06
-5.0098317e-08
1.7663869e-06
-4.6914992e-08
1.9985092e-06
-4.3494381e-08
2.2467821e-06
-3.9891824e-08
2.5095696e-06
-3.6166381e-08
2.7846218e-06
-3.2379176e-08
3.0690285e-06
-2.8593126e-08
3.3591852e-06
-2.4877409e-08
3.6507607e-06
-2.1280717e-08
3.9387544e-06
-1.7854436e-08
4.2172553e-06
-1.4645801e-08
4.4793999e-06
-1.1700938e-08
4.7172544e-06
-9.0340013e-09
4.9216822e-06
-6.6663206e-09
5.0816421e-06
-4.6175858e-09
5.183863e-06
-2.8711293e-09
5.2122789e-06
-1.4410198e-09
5.1466087e-06
-3.1460223e-10
4.9617779e-06
5.2129656e-10
4.6260918e-06
9.6126433e-10
4.1003882e-06
8.6332047e-10
3.3366046e-06
3.1069545e-10
2.2761986e-06
8.4517602e-07
-5.5402539e-10
2.0669378e-08
-2.4354675e-09
6.4913169e-08
-6.0540194e-09
1.1713967e-07
-1.171239e-08
1.7395105e-07
-1.9399872e-08
2.3179777e-07
-2.8597763e-08
2.8854533e-07
-3.8295346e-08
3.447419e-07
-4.7301586e-08
4.0357247e-07
-5.4666041e-08
4.6951731e-07
-5.9932595e-08
5.4677609e-07
-6.3126213e-08
6.3838254e-07
-6.4569243e-08
7.4614232e-07
-6.4674456e-08
8.7100244e-07
-6.3806393e-08
1.0134626e-06
-6.2228219e-08
1.1738364e-06
-6.0108014e-08
1.3523175e-06
-5.7549439e-08
1.548938e-06
-5.4622721e-08
1.7634602e-06
-5.1384656e-08
1.9952712e-06
-4.7888842e-08
2.2432863e-06
-4.4191652e-08
2.5058725e-06
-4.0353003e-08
2.7807832e-06
-3.6435178e-08
3.0651107e-06
-3.2502651e-08
3.3552527e-06
-2.8624318e-08
3.6468824e-06
-2.4852155e-08
3.9349822e-06
-2.1238671e-08
4.2136418e-06
-1.7832631e-08
4.4759938e-06
-1.467996e-08
4.7141018e-06
-1.1797955e-08
4.9188002e-06
-9.2080871e-09
5.0790522e-06
-6.9287476e-09
5.1815837e-06
-4.9466045e-09
5.2102968e-06
-3.2721669e-09
5.1449342e-06
-1.8942147e-09
4.9604e-06
-8.4195213e-10
4.6250396e-06
-1.6820278e-10
4.0997144e-06
6.519515e-11
3.3363712e-06
-2.1694689e-11
2.2762855e-06
8.4515422e-07
-5.1987741e-10
2.1189254e-08
-2.2930694e-09
6.6686362e-08
-5.7262471e-09
1.2057285e-07
-1.1153208e-08
1.7937802e-07
-1.8649617e-08
2.3929418e-07
-2.7829378e-08
2.9772509e-07
-3.779872e-08
3.5471124e-07
-4.7389199e-08
4.1316295e-07
-5.55547e-08
4.7768281e-07
-6.1676841e-08
5.5289823e-07
-6.5631295e-08
6.42337e-07
-6.765609e-08
7.4816712e-07
-6.815056e-08
8.7149691e-07
-6.75116e-08
1.0128236e-06
-6.6049525e-08
1.1723743e-06
-6.3973598e-08
1.3502416e-06
-6.1415093e-08
1.5463795e-06
-5.8459425e-08
1.7605045e-06
-5.5170619e-08
1.9919824e-06
-5.1605675e-08
2.2397213e-06
-4.7822499e-08
2.5020893e-06
-4.3882064e-08
2.7768427e-06
-3.9847849e-08
3.0610765e-06
-3.5785664e-08
3.3511905e-06
-3.1764466e-08
3.6428612e-06
-2.7839054e-08
3.9310568e-06
-2.4063078e-08
4.2098658e-06
-2.0486526e-08
4.4724173e-06
-1.715518e-08
4.7107704e-06
-1.4089066e-08
4.9157341e-06
-1.1309707e-08
5.0762729e-06
-8.8343127e-09
5.1791083e-06
-6.6519219e-09
5.2081144e-06
-4.7697611e-09
5.1430521e-06
-3.1783728e-09
4.9588086e-06
-1.9031865e-09
4.6237643e-06
-9.9090041e-10
4.0988021e-06
-4.9151876e-10
3.3358719e-06
-2.5291902e-10
2.2760469e-06
8.4490134e-07
-4.9033047e-10
2.1679585e-08
-2.1682554e-09
6.8364287e-08
-5.4332526e-09
1.2383785e-07
-1.0636938e-08
1.845817e-07
-1.7918144e-08
2.4657539e-07
-2.7001072e-08
3.0680801e-07
-3.7107558e-08
3.6481773e-07
-4.7121045e-08
4.2317644e-07
-5.5944755e-08
4.8650651e-07
-6.2831699e-08
5.5978518e-07
-6.7514947e-08
6.4702025e-07
-7.0132031e-08
7.507842e-07
-7.1045004e-08
8.7240988e-07
-7.0664708e-08
1.0124434e-06
-6.9340265e-08
1.1710499e-06
-6.7321518e-08
1.3482228e-06
-6.4770271e-08
1.5438282e-06
-6.1790382e-08
1.7575246e-06
-5.845537e-08
1.9886474e-06
-5.4826804e-08
2.2360928e-06
-5.0964714e-08
2.4982272e-06
-4.6931258e-08
2.7728093e-06
-4.2791149e-08
3.0569364e-06
-3.8611482e-08
3.3470108e-06
-3.4461408e-08
3.6387111e-06
-3.039822e-08
3.9269936e-06
-2.647678e-08
4.2059444e-06
-2.274819e-08
4.4686887e-06
-1.9258163e-08
4.7072804e-06
-1.6029149e-08
4.9125051e-06
-1.308269e-08
5.0733264e-06
-1.0434939e-08
5.1764605e-06
-8.0768981e-09
5.2057564e-06
-6.0133781e-09
5.1409886e-06
-4.2357709e-09
4.957031e-06
-2.7661753e-09
4.6222947e-06
-1.6464863e-09
4.0976825e-06
-9.1090304e-10
3.3351362e-06
-4.1572524e-10
2.2755518e-06
8.4448562e-07
-4.6446282e-10
2.2144047e-08
-2.0579824e-09
6.9957806e-08
-5.170843e-09
1.2695071e-07
-1.0164139e-08
1.89575e-07
-1.7223174e-08
2.5363442e-07
-2.6162861e-08
3.157477e-07
-3.6312761e-08
3.7496763e-07
-4.6623588e-08
4.3348726e-07
-5.5981141e-08
4.9586406e-07
-6.3541953e-08
5.6734599e-07
-6.8910815e-08
6.5238911e-07
-7.2118488e-08
7.5399187e-07
-7.3471853e-08
8.7376325e-07
-7.3378086e-08
1.0123496e-06
-7.2214561e-08
1.1698864e-06
-7.0268691e-08
1.346277e-06
-6.7734273e-08
1.5412938e-06
-6.4736357e-08
1.7545267e-06
-6.1360291e-08
1.9852713e-06
-5.7673506e-08
2.232406e-06
-5.3738766e-08
2.4942924e-06
-4.9619737e-08
2.7686902e-06
-4.538235e-08
3.052699e-06
-4.109487e-08
3.3427233e-06
-3.6826877e-08
3.6344432e-06
-3.2637793e-08
3.9228045e-06
-2.8583785e-08
4.2018904e-06
-2.4716962e-08
4.4648218e-06
-2.1083164e-08
4.7036466e-06
-1.7706968e-08
4.9091289e-06
-1.4610061e-08
5.0702295e-06
-1.1807705e-08
5.1736582e-06
-9.2926066e-09
5.2032413e-06
-7.0675149e-09
5.1387635e-06
-5.124668e-09
4.9550881e-06
-3.4834444e-09
4.6206535e-06
-2.1812211e-09
4.0963802e-06
-1.2393794e-09
3.3341944e-06
-5.2935285e-10
2.2748418e-06
8.4395614e-07
-4.4160429e-10
2.2585651e-08
-1.9598695e-09
7.1476072e-08
-4.9350137e-09
1.2992585e-07
-9.7322439e-09
1.9437223e-07
-1.6571222e-08
2.604734e-07
-2.5341296e-08
3.2451777e-07
-3.5469495e-08
3.8509583e-07
-4.5980485e-08
4.4399825e-07
-5.5766139e-08
5.0564971e-07
-6.3914344e-08
5.7549419e-07
-6.9919215e-08
6.5839398e-07
-7.370562e-08
7.5777827e-07
-7.5513379e-08
8.7557101e-07
-7.573051e-08
1.0125667e-06
-7.4751231e-08
1.1689071e-06
-7.2895578e-08
1.3444213e-06
-7.03893e-08
1.5387875e-06
-6.7380752e-08
1.7515181e-06
-6.3969242e-08
1.9818598e-06
-6.0229557e-08
2.2286663e-06
-5.6227935e-08
2.4902908e-06
-5.2029884e-08
2.7644922e-06
-4.770258e-08
3.0483717e-06
-4.3315413e-08
3.3383362e-06
-3.8938518e-08
3.6300663e-06
-3.463325e-08
3.9184992e-06
-3.0457008e-08
4.1977142e-06
-2.6462913e-08
4.4608278e-06
-2.2697076e-08
4.6998808e-06
-1.9185964e-08
4.9056178e-06
-1.5951512e-08
5.066995e-06
-1.3008361e-08
5.170715e-06
-1.0350705e-08
5.2005836e-06
-7.9795997e-09
5.1363924e-06
-5.8880054e-09
4.9529965e-06
-4.0930624e-09
4.6188586e-06
-2.6275614e-09
4.0949147e-06
-1.5038345e-09
3.3330706e-06
-6.123809e-10
2.2739504e-06
8.4334374e-07
-4.2124603e-10
2.3006897e-08
-1.8720246e-09
7.2926851e-08
-4.7222201e-09
1.3277605e-07
-9.3376429e-09
1.9898765e-07
-1.5963428e-08
2.6709918e-07
-2.4550084e-08
3.3310443e-07
-3.4611524e-08
3.9515727e-07
-4.5247789e-08
4.5463452e-07
-5.5372866e-08
5.1577479e-07
-6.4028916e-08
5.8415024e-07
-7.0617474e-08
6.6498254e-07
-7.4963033e-08
7.6212383e-07
-7.7231663e-08
8.7783964e-07
-7.777968e-08
1.0131147e-06
-7.7006779e-08
1.1681342e-06
-7.5259366e-08
1.3426739e-06
-7.2793742e-08
1.5363219e-06
-6.9782846e-08
1.7485072e-06
-6.6341937e-08
1.9784188e-06
-6.2554604e-08
2.224879e-06
-5.8491472e-08
2.4862277e-06
-5.4220222e-08
2.7602209e-06
-4.9809459e-08
3.0439609e-06
-4.5329648e-08
3.3338564e-06
-4.0851527e-08
3.6255881e-06
-3.6438194e-08
3.9140859e-06
-3.2148329e-08
4.1934243e-06
-2.8035996e-08
4.4567154e-06
-2.4147682e-08
4.6959925e-06
-2.051159e-08
4.9019817e-06
-1.7149951e-08
5.0636334e-06
-1.4077077e-08
5.1676422e-06
-1.1288358e-08
5.1977949e-06
-8.7836808e-09
5.1338877e-06
-6.5565044e-09
4.9507693e-06
-4.6219582e-09
4.616924e-06
-3.0086619e-09
4.0933014e-06
-1.7220727e-09
3.331784e-06
-6.7507707e-10
2.2729035e-06
8.4266861e-07
-4.0299358e-10
2.340989e-08
-1.7929229e-09
7.4316781e-08
-4.5294154e-09
1.3551254e-07
-8.9765553e-09
2.0343479e-07
-1.5398359e-08
2.7352099e-07
-2.3795748e-08
3.4150182e-07
-3.3759481e-08
4.05121e-07
-4.4463394e-08
4.6533843e-07
-5.4854109e-08
5.2616549e-07
-6.3946399e-08
5.9324254e-07
-7.1066229e-08
6.7210237e-07
-7.5945945e-08
7.6700354e-07
-7.8675331e-08
8.8056903e-07
-7.9569461e-08
1.0140089e-06
-7.9023079e-08
1.1675878e-06
-7.7401904e-08
1.3410527e-06
-7.4990179e-08
1.5339102e-06
-7.1985956e-08
1.745503e-06
-6.8522001e-08
1.9749549e-06
-6.4692228e-08
2.2210492e-06
-6.0572577e-08
2.4821081e-06
-5.6233418e-08
2.7558818e-06
-5.174487e-08
3.0394724e-06
-4.7178529e-08
3.32929e-06
-4.2605818e-08
3.6210154e-06
-3.80914e-08
3.9095714e-06
-3.369522e-08
4.1890281e-06
-2.947226e-08
4.4524925e-06
-2.5469446e-08
4.6919897e-06
-2.1716612e-08
4.8982288e-06
-1.8236367e-08
5.0601532e-06
-1.5042787e-08
5.1644486e-06
-1.2132392e-08
5.1948845e-06
-9.504118e-09
5.1312595e-06
-7.1519374e-09
4.9484172e-06
-5.0891241e-09
4.6148612e-06
-3.3402634e-09
4.0915527e-06
-1.9064076e-09
3.3303501e-06
-7.2446254e-10
2.2717215e-06
8.4194423e-07
-3.8653032e-10
2.379642e-08
-1.7213196e-09
7.565157e-08
-4.354e-09
1.3814522e-07
-8.6453867e-09
2.0772618e-07
-1.4873422e-08
2.7974902e-07
-2.3080736e-08
3.4970913e-07
-3.2925823e-08
4.1496609e-07
-4.3653054e-08
4.7606567e-07
-5.4248284e-08
5.3676072e-07
-6.3713242e-08
6.027075e-07
-7.1313613e-08
6.7970274e-07
-7.6699041e-08
7.7238896e-07
-7.9883571e-08
8.8375356e-07
-8.1134403e-08
1.0152597e-06
-8.0832154e-08
1.1672856e-06
-7.9354597e-08
1.3395752e-06
-7.7010424e-08
1.531566e-06
-7.4022413e-08
1.742515e-06
-7.0542076e-08
1.9714746e-06
-6.6675032e-08
2.2171822e-06
-6.2503568e-08
2.4779366e-06
-5.8101259e-08
2.7514794e-06
-5.3539997e-08
3.0349111e-06
-4.8892502e-08
3.3246425e-06
-4.4230974e-08
3.6163539e-06
-3.9621525e-08
3.904962e-06
-3.5125293e-08
4.1845319e-06
-3.0798205e-08
4.4481654e-06
-2.6687724e-08
4.6878792e-06
-2.2825066e-08
4.8943662e-06
-1.9233383e-08
5.0565615e-06
-1.5926585e-08
5.1611418e-06
-1.290226e-08
5.1918602e-06
-1.0158648e-08
5.1285158e-06
-7.6900637e-09
4.9459486e-06
-5.5080458e-09
4.6126792e-06
-3.6338371e-09
4.0896784e-06
-2.0653537e-09
3.3287817e-06
-7.6461068e-10
2.2704208e-06
8.411795e-07
-3.7160212e-10
2.4168022e-08
-1.6561914e-09
7.693616e-08
-4.193771e-09
1.406828e-07
-8.3408665e-09
2.1187328e-07
-1.4385582e-08
2.8579374e-07
-2.2405192e-08
3.5772875e-07
-3.2117831e-08
4.2467873e-07
-4.2834289e-08
4.8678212e-07
-5.3583518e-08
5.4750995e-07
-6.3365227e-08
6.1248921e-07
-7.1398135e-08
6.8773565e-07
-7.7258946e-08
7.7824977e-07
-8.0888674e-08
8.8738328e-07
-8.2502472e-08
1.0168735e-06
-8.2459201e-08
1.1672423e-06
-8.11416e-08
1.3382576e-06
-7.8878649e-08
1.529303e-06
-7.591678e-08
1.7395531e-06
-7.2427007e-08
1.9679848e-06
-6.8527885e-08
2.213283e-06
-6.4309071e-08
2.4737178e-06
-5.9847946e-08
2.7470183e-06
-5.5218488e-08
3.0302817e-06
-5.049459e-08
3.3199186e-06
-4.5749308e-08
3.6116086e-06
-4.1050106e-08
3.9002628e-06
-3.645929e-08
4.1799411e-06
-3.2033674e-08
4.4437397e-06
-2.7821326e-08
4.6836668e-06
-2.3854811e-08
4.8903996e-06
-2.0157764e-08
5.0528644e-06
-1.6744096e-08
5.1577281e-06
-1.3612349e-08
5.1887285e-06
-1.0760203e-08
5.1256637e-06
-8.1823635e-09
4.9433707e-06
-5.8887189e-09
4.6103855e-06
-3.8971679e-09
4.0876869e-06
-2.2049298e-09
3.3270894e-06
-7.9860992e-10
2.2690145e-06
8.4038086e-07
-3.5799868e-10
2.452602e-08
-1.5966898e-09
7.8174851e-08
-4.0468562e-09
1.4313297e-07
-8.0600784e-09
2.158865e-07
-1.3931737e-08
2.916654e-07
-2.1767985e-08
3.6556499e-07
-3.1339478e-08
4.3425022e-07
-4.2018995e-08
4.9746164e-07
-5.2880487e-08
5.5837144e-07
-6.2930055e-08
6.2253878e-07
-7.1350803e-08
6.961564e-07
-7.7655996e-08
7.8455496e-07
-8.1717664e-08
8.9144495e-07
-8.3696854e-08
1.0188527e-06
-8.3924584e-08
1.16747e-06
-8.278193e-08
1.3371149e-06
-8.0613644e-08
1.5271348e-06
-7.7688104e-08
1.7366276e-06
-7.4196079e-08
1.9644927e-06
-7.0270095e-08
2.209357e-06
-6.6008213e-08
2.4694559e-06
-6.1492297e-08
2.7425024e-06
-5.6798685e-08
3.025588e-06
-5.2002609e-08
3.3151225e-06
-4.717804e-08
3.6067841e-06
-4.2393703e-08
3.8954784e-06
-3.7713073e-08
4.1752604e-06
-3.3193836e-08
4.4392205e-06
-2.8884663e-08
4.6793576e-06
-2.4819393e-08
4.8863344e-06
-2.1022165e-08
5.0490672e-06
-1.7507048e-08
5.154213e-06
-1.4273386e-08
5.1854948e-06
-1.1318475e-08
5.1227088e-06
-8.6372863e-09
4.9406896e-06
-6.2382259e-09
4.6079865e-06
-4.1364214e-09
4.0855851e-06
-2.3293667e-09
3.3252823e-06
-8.2827443e-10
2.2675134e-06
8.3955269e-07
-3.4554763e-10
2.4871568e-08
-1.5421046e-09
7.9371408e-08
-3.9116607e-09
1.4550253e-07
-7.8004475e-09
2.1977529e-07
-1.3508894e-08
2.9737384e-07
-2.11673e-08
3.732234e-07
-3.0592632e-08
4.4367555e-07
-4.1215174e-08
5.0808418e-07
-5.2154458e-08
5.6931072e-07
-6.2429287e-08
6.3281361e-07
-7.1196724e-08
7.0492384e-07
-7.7915479e-08
7.9127372e-07
-8.2393473e-08
8.9592295e-07
-8.4737173e-08
1.0211964e-06
-8.5245155e-08
1.167978e-06
-8.4290902e-08
1.3361607e-06
-8.2230275e-08
1.5250741e-06
-7.9351359e-08
1.7337487e-06
-7.5864441e-08
1.9610058e-06
-7.1916889e-08
2.2054095e-06
-6.7616105e-08
2.4651551e-06
-6.3049124e-08
2.7379354e-06
-5.8295022e-08
3.0208339e-06
-5.3430547e-08
3.3102581e-06
-4.8530639e-08
3.6018842e-06
-4.3665255e-08
3.8906131e-06
-3.8898998e-08
4.1704942e-06
-3.4290412e-08
4.4346119e-06
-2.9888829e-08
4.674956e-06
-2.5729222e-08
4.8821748e-06
-2.1836395e-08
5.0451744e-06
-1.8224437e-08
5.1506011e-06
-1.4893526e-08
5.1821639e-06
-1.1840791e-08
5.119656e-06
-9.0613113e-09
4.9379101e-06
-6.5620996e-09
4.6054873e-06
-4.3558671e-09
4.0833788e-06
-2.4416962e-09
3.3233682e-06
-8.5452392e-10
2.2659262e-06
8.3869814e-07
-3.3410471e-10
2.5205673e-08
-1.4918377e-09
8.0529141e-08
-3.7868288e-09
1.4779752e-07
-7.5597209e-09
2.2354818e-07
-1.3114264e-08
3.0292839e-07
-2.0601004e-08
3.8071014e-07
-2.9877811e-08
4.5295236e-07
-4.0428115e-08
5.1863449e-07
-5.1416693e-08
5.8029929e-07
-6.1879746e-08
6.4327666e-07
-7.0956281e-08
7.1400038e-07
-7.8058581e-08
7.9837601e-07
-8.2935686e-08
9.0080005e-07
-8.5640251e-08
1.023901e-06
-8.6435143e-08
1.1687729e-06
-8.5681089e-08
1.3354066e-06
-8.3740462e-08
1.5231335e-06
-8.0918422e-08
1.7309267e-06
-7.7444164e-08
1.9575316e-06
-7.3480436e-08
2.2014458e-06
-6.9144835e-08
2.4608195e-06
-6.4530306e-08
2.7333209e-06
-5.9719072e-08
3.0160227e-06
-5.4789596e-08
3.3053286e-06
-4.9817872e-08
3.5969124e-06
-4.4875066e-08
3.8856703e-06
-4.0026902e-08
4.165646e-06
-3.5332697e-08
4.4299177e-06
-3.0842544e-08
4.6704659e-06
-2.6592525e-08
4.8779248e-06
-2.260797e-08
5.0411898e-06
-1.8903224e-08
5.1468963e-06
-1.5479192e-08
5.1787399e-06
-1.2332804e-08
5.1165096e-06
-9.459313e-09
4.9350366e-06
-6.864474e-09
4.6028924e-06
-4.5589022e-09
4.0810732e-06
-2.5442237e-09
3.3213536e-06
-8.7841803e-10
2.2642603e-06
8.3781975e-07
-3.2354836e-10
2.5529221e-08
-1.4453839e-09
8.1650977e-08
-3.6711959e-09
1.5002333e-07
-7.3359263e-09
2.2721291e-07
-1.2745293e-08
3.0833775e-07
-2.0066855e-08
3.8803171e-07
-2.9194681e-08
4.6208018e-07
-3.9661206e-08
5.2910101e-07
-5.0675527e-08
5.9131362e-07
-6.1294642e-08
6.5389577e-07
-7.0646126e-08
7.2335186e-07
-7.8103131e-08
8.0583302e-07
-8.3361166e-08
9.0605809e-07
-8.6420702e-08
1.0269605e-06
-8.7506786e-08
1.169859e-06
-8.6963046e-08
1.3348629e-06
-8.5153957e-08
1.5213244e-06
-8.2398905e-08
1.7281716e-06
-7.8944981e-08
1.9540776e-06
-7.4970551e-08
2.1974713e-06
-7.0604209e-08
2.4564532e-06
-6.5945479e-08
2.7286622e-06
-6.1080207e-08
3.0111574e-06
-5.6088797e-08
3.3003372e-06
-5.1048424e-08
3.5918721e-06
-4.6031449e-08
3.8806533e-06
-4.1104612e-08
4.1607192e-06
-3.632816e-08
4.4251413e-06
-3.1752876e-08
4.6658906e-06
-2.7415812e-08
4.8735877e-06
-2.3342981e-08
5.037117e-06
-1.9548961e-08
5.1431023e-06
-1.6035342e-08
5.1752262e-06
-1.2798957e-08
5.1132733e-06
-9.8352017e-09
4.9320728e-06
-7.1485909e-09
4.6002058e-06
-4.7480109e-09
4.0786726e-06
-2.6387887e-09
3.3192444e-06
-9.0041814e-10
2.2625219e-06
8.3691939e-07
-3.1377576e-10
2.5842996e-08
-1.4023132e-09
8.2739515e-08
-3.5637618e-09
1.5218478e-07
-7.1273394e-09
2.3077649e-07
-1.2399667e-08
3.1361008e-07
-1.9562629e-08
3.9519467e-07
-2.854238e-08
4.7105993e-07
-3.8916508e-08
5.3947514e-07
-4.9937095e-08
6.023342e-07
-6.068434e-08
6.6464302e-07
-7.0279872e-08
7.3294739e-07
-7.8064202e-08
8.1361735e-07
-8.3684511e-08
9.1167839e-07
-8.7091338e-08
1.0303673e-06
-8.8470777e-08
1.1712384e-06
-8.8145778e-08
1.3345379e-06
-8.6478892e-08
1.5196575e-06
-8.3800662e-08
1.7254934e-06
-8.0374794e-08
1.9506518e-06
-7.6395252e-08
2.1934918e-06
-7.2002238e-08
2.4520602e-06
-6.7302561e-08
2.7239625e-06
-6.2386151e-08
3.006241e-06
-5.7335602e-08
3.2952866e-06
-5.2229434e-08
3.5867659e-06
-4.7141161e-08
3.875565e-06
-4.2138624e-08
4.1557166e-06
-3.728288e-08
4.4202855e-06
-3.262544e-08
4.6612332e-06
-2.8204408e-08
4.8691667e-06
-2.4046314e-08
5.0329588e-06
-2.01661e-08
5.1392222e-06
-1.6566012e-08
5.1716261e-06
-1.3242816e-08
5.1099501e-06
-1.0192017e-08
4.929022e-06
-7.4169429e-09
4.5974307e-06
-4.9253239e-09
4.076181e-06
-2.7266431e-09
3.3170458e-06
-9.2080236e-10
2.260716e-06
8.3599864e-07
-3.0469915e-10
2.6147695e-08
-1.3622562e-09
8.3797072e-08
-3.4636623e-09
1.5428619e-07
-6.9324463e-09
2.3424527e-07
-1.2075298e-08
3.1875293e-07
-1.9086172e-08
4.0220554e-07
-2.7919734e-08
4.798935e-07
-3.819514e-08
5.4975055e-07
-4.920588e-08
6.1334494e-07
-6.0057011e-08
6.7549416e-07
-6.9868696e-08
7.4275908e-07
-7.7954537e-08
8.2170319e-07
-8.3918372e-08
9.1764223e-07
-8.7663452e-08
1.0341124e-06
-8.9336522e-08
1.1729115e-06
-8.9237114e-08
1.3344384e-06
-8.7722106e-08
1.5181425e-06
-8.5130217e-08
1.7229015e-06
-8.1740105e-08
1.9472616e-06
-7.7761129e-08
2.1895128e-06
-7.3345544e-08
2.4476446e-06
-6.8608082e-08
2.7192251e-06
-6.3643262e-08
3.0012762e-06
-5.8536172e-08
3.2901795e-06
-5.3366775e-08
3.5815965e-06
-4.8209838e-08
3.8704081e-06
-4.3134212e-08
4.150641e-06
-3.8201856e-08
4.4153532e-06
-3.3464984e-08
4.6564963e-06
-2.8962623e-08
4.8646643e-06
-2.4721943e-08
5.0287182e-06
-2.0758315e-08
5.1352585e-06
-1.7074418e-08
5.1679422e-06
-1.3667257e-08
5.1065429e-06
-1.0532182e-08
4.925887e-06
-7.6716958e-09
4.5945702e-06
-5.0924684e-09
4.0736019e-06
-2.8089124e-09
3.3147621e-06
-9.3984454e-10
2.2588471e-06
8.3505867e-07
-2.9624446e-10
2.644394e-08
-1.3248983e-09
8.4825725e-08
-3.3701531e-09
1.5633144e-07
-6.7499292e-09
2.3762505e-07
-1.1770322e-08
3.2377333e-07
-1.8635458e-08
4.0907068e-07
-2.7325396e-08
4.8858343e-07
-3.7497567e-08
5.5992272e-07
-4.8485134e-08
6.243325e-07
-5.9419092e-08
6.8642811e-07
-6.9421801e-08
7.5276179e-07
-7.7784974e-08
8.3006636e-07
-8.407378e-08
9.2393104e-07
-8.8147059e-08
1.0381857e-06
-9.0112443e-08
1.1748769e-06
-9.0243932e-08
1.3345699e-06
-8.8889486e-08
1.516788e-06
-8.6393001e-08
1.720405e-06
-8.3046316e-08
1.943915e-06
-7.907366e-08
2.1855402e-06
-7.4639647e-08
2.4432106e-06
-6.9867534e-08
2.7144529e-06
-6.4856899e-08
2.9962656e-06
-5.9695661e-08
3.2850183e-06
-5.446543e-08
3.5763663e-06
-4.9242181e-08
3.8651848e-06
-4.4095854e-08
4.1454947e-06
-3.9089255e-08
4.4103466e-06
-3.4275328e-08
4.6516824e-06
-2.9694063e-08
4.860083e-06
-2.5373218e-08
5.0243974e-06
-2.1328553e-08
5.1312139e-06
-1.7563334e-08
5.164177e-06
-1.4074641e-08
5.1030542e-06
-1.0857804e-08
4.9226702e-06
-7.9144874e-09
4.5916269e-06
-5.250796e-09
4.0709382e-06
-2.8861932e-09
3.3123976e-06
-9.5811873e-10
2.256919e-06
8.3410062e-07
-2.8834721e-10
2.6732287e-08
-1.289963e-09
8.582734e-08
-3.2825834e-09
1.5832406e-07
-6.5786183e-09
2.4092108e-07
-1.1483059e-08
3.2867777e-07
-1.8208598e-08
4.1579621e-07
-2.6757946e-08
4.9713278e-07
-3.6823785e-08
5.6998856e-07
-4.7777182e-08
6.352859e-07
-5.8775655e-08
6.9742659e-07
-6.8946768e-08
7.629329e-07
-7.7564719e-08
8.386843e-07
-8.4160357e-08
9.3052668e-07
-8.8551047e-08
1.0425764e-06
-9.0806068e-08
1.1771319e-06
-9.1172371e-08
1.3349362e-06
-8.9986156e-08
1.5156018e-06
-8.7593632e-08
1.7180125e-06
-8.4297935e-08
1.9406192e-06
-8.0337384e-08
2.1815796e-06
-7.588917e-08
2.4387623e-06
-7.108551e-08
2.7096493e-06
-6.6031586e-08
2.9912117e-06
-6.081847e-08
3.2798052e-06
-5.5529557e-08
3.5710774e-06
-5.0242157e-08
3.8598974e-06
-4.5027285e-08
4.1402798e-06
-3.9948581e-08
4.4052679e-06
-3.5059814e-08
4.6467936e-06
-3.0401763e-08
4.855425e-06
-2.6002897e-08
5.0199985e-06
-2.1879378e-08
5.1270904e-06
-1.8034981e-08
5.1603326e-06
-1.4466925e-08
5.0994862e-06
-1.1170579e-08
4.9193738e-06
-8.146712e-09
4.588603e-06
-5.4013022e-09
4.0681928e-06
-2.9593564e-09
3.3099556e-06
-9.753724e-10
2.254935e-06
8.3312528e-07
-2.8095193e-10
2.7013239e-08
-1.2572139e-09
8.6803601e-08
-3.2003847e-09
1.6026724e-07
-6.4174915e-09
2.4413819e-07
-1.1212008e-08
3.3347228e-07
-1.780384e-08
4.2238804e-07
-2.6215941e-08
5.0554489e-07
-3.6173485e-08
5.799461e-07
-4.708364e-08
6.4619605e-07
-5.8130701e-08
7.0847365e-07
-6.8449872e-08
7.7325207e-07
-7.7301635e-08
8.4753607e-07
-8.4186521e-08
9.3741156e-07
-8.8883385e-08
1.0472732e-06
-9.1424211e-08
1.1796728e-06
-9.2027943e-08
1.33554e-06
-9.1016636e-08
1.5145905e-06
-8.8736112e-08
1.715732e-06
-8.5498768e-08
1.9373819e-06
-8.1556182e-08
2.1776371e-06
-7.7098017e-08
2.4343042e-06
-7.2265946e-08
2.7048172e-06
-6.717117e-08
2.9861169e-06
-6.1908278e-08
3.2745423e-06
-5.6562716e-08
3.5657318e-06
-5.1213147e-08
3.8545478e-06
-4.593168e-08
4.1349983e-06
-4.0782862e-08
4.400119e-06
-3.582117e-08
4.6418319e-06
-3.1088285e-08
4.8506921e-06
-2.6613344e-08
5.0155235e-06
-2.2412896e-08
5.1228899e-06
-1.8491225e-08
5.1564109e-06
-1.4845794e-08
5.0958407e-06
-1.1471891e-08
4.9159999e-06
-8.3695657e-09
4.5855008e-06
-5.5450245e-09
4.0653681e-06
-3.0288626e-09
3.3074395e-06
-9.9179027e-10
2.2528979e-06
8.3213347e-07
-2.7400906e-10
2.7287248e-08
-1.2264423e-09
8.7756034e-08
-3.1230584e-09
1.6216385e-07
-6.265642e-09
2.4728077e-07
-1.0955824e-08
3.3816247e-07
-1.7419566e-08
4.2885178e-07
-2.5697958e-08
5.1382328e-07
-3.5546132e-08
5.8979427e-07
-4.6405584e-08
6.570555e-07
-5.7487376e-08
7.1955544e-07
-6.7936297e-08
7.8370099e-07
-7.7002439e-08
8.5660221e-07
-8.4159639e-08
9.4456876e-07
-8.9151161e-08
1.0522648e-06
-9.1973042e-08
1.1824946e-06
-9.2815673e-08
1.3363826e-06
-9.1984969e-08
1.5137598e-06
-8.9823879e-08
1.7135709e-06
-8.6652057e-08
1.9342101e-06
-8.273327e-08
2.1737183e-06
-7.8269485e-08
2.4298404e-06
-7.3412129e-08
2.6999599e-06
-6.827893e-08
2.9809837e-06
-6.2968307e-08
3.2692317e-06
-5.756796e-08
3.5603315e-06
-5.2158043e-08
3.8491379e-06
-4.6811794e-08
4.1296521e-06
-4.1594621e-08
4.3949018e-06