/*--------------------------------*- C++ -*----------------------------------*\
| =========                 |                                                 |
| \\      /  F ield         | OpenFOAM: The Open Source CFD Toolbox           |
|  \\    /   O peration     | Version:  3.0.1                                 |
|   \\  /    A nd           | Web:      www.OpenFOAM.org                      |
|    \\/     M anipulation  |                                                 |
\*---------------------------------------------------------------------------*/
FoamFile
{
    version     2.0;
    format      ascii;
    class       surfaceScalarField;
    location    "3500/fluid";
    object      phi;
}
// * * * * * * * * * * * * * * * * * * * * * * * * * * * * * * * * * * * * * //

dimensions      [1 0 -1 0 0 0 0];

internalField   nonuniform List<scalar> 
9850
(
7.2046165e-11
5.5352305e-10
2.7956619e-10
1.8408024e-09
6.2793815e-10
3.4736629e-09
1.1200636e-09
5.5067376e-09
1.7510383e-09
7.9992476e-09
2.5071845e-09
1.1012183e-08
3.3659863e-09
1.4607562e-08
4.2971546e-09
1.8848645e-08
5.2648364e-09
2.3801433e-08
6.2307562e-09
2.953832e-08
7.1578402e-09
3.6143982e-08
8.0137266e-09
4.3723681e-08
8.7735994e-09
5.241365e-08
9.4219196e-09
6.2393052e-08
9.9528901e-09
7.389668e-08
1.0369719e-08
8.7227764e-08
1.068295e-08
1.0277073e-07
1.0908209e-08
1.2100355e-07
1.1063746e-08
1.4251103e-07
1.1168086e-08
1.6799957e-07
1.1238069e-08
1.9831581e-07
1.1287449e-08
2.3447038e-07
1.132616e-08
2.7766987e-07
1.1360155e-08
3.2935713e-07
1.1391598e-08
3.9126304e-07
1.1419755e-08
4.6546898e-07
1.1440731e-08
5.5448491e-07
1.1448452e-08
6.6133944e-07
1.1434107e-08
7.8969032e-07
1.1386728e-08
9.4395449e-07
1.1292758e-08
1.1294694e-06
1.113689e-08
1.3526808e-06
1.090242e-08
1.6213778e-06
1.0572852e-08
1.944969e-06
1.0133312e-08
2.3348257e-06
9.5728379e-09
2.8046893e-06
8.8863811e-09
3.3711675e-06
8.0770125e-09
4.0543372e-06
7.1574979e-09
4.8784717e-06
6.1513584e-09
5.8729157e-06
5.0932994e-09
7.0731587e-06
4.0290323e-09
8.5221127e-06
3.0175771e-09
1.0271679e-05
2.0457405e-09
1.2384773e-05
1.1668822e-09
1.4937214e-05
4.4209669e-10
1.8020859e-05
-9.6408608e-11
2.1746875e-05
-3.2885861e-10
2.6249637e-05
-3.1103484e-10
3.1692058e-05
3.8270667e-05
2.165041e-10
3.3701898e-10
9.0817139e-10
1.1491352e-09
2.1546061e-09
2.2272283e-09
4.0225732e-09
3.6387706e-09
6.5584888e-09
5.4633322e-09
9.7778227e-09
7.7928493e-09
1.3654585e-08
1.07308e-08
1.8112797e-08
1.4390434e-08
2.3022107e-08
1.8892124e-08
2.8199823e-08
2.4360605e-08
3.3420938e-08
3.0922868e-08
3.8436525e-08
3.8708096e-08
4.2999112e-08
4.7851065e-08
4.6891699e-08
5.8500469e-08
4.9955364e-08
7.083302e-08
5.2109648e-08
8.5073486e-08
5.3360495e-08
1.0151989e-07
5.379285e-08
1.205712e-07
5.3548772e-08
1.4275512e-07
5.2796065e-08
1.6875229e-07
5.1695434e-08
1.9941645e-07
5.0374563e-08
2.3579127e-07
4.8914874e-08
2.7912958e-07
4.7352061e-08
3.3091997e-07
4.5684588e-08
3.9293054e-07
4.3891953e-08
4.6726165e-07
4.1949084e-08
5.5642781e-07
3.9833994e-08
6.6345455e-07
3.7534461e-08
7.9198988e-07
3.5048094e-08
9.4644089e-07
3.2383624e-08
1.1321338e-06
2.9559272e-08
1.3555051e-06
2.6603205e-08
1.6243339e-06
2.3551934e-08
1.9480203e-06
2.0449873e-08
2.3379278e-06
1.7346742e-08
2.8077924e-06
1.4295861e-08
3.3742183e-06
1.1349942e-08
4.0572831e-06
8.5601935e-09
4.8812614e-06
5.968698e-09
5.8755071e-06
3.6153969e-09
7.0755119e-06
1.5115737e-09
8.5242164e-06
-3.1377248e-10
1.0273504e-05
-1.6608496e-09
1.238612e-05
-2.543354e-09
1.4938097e-05
-2.9348639e-09
1.8021251e-05
-2.8937153e-09
2.1746833e-05
-2.3673634e-09
2.6249111e-05
-1.4502194e-09
3.1691141e-05
3.8269217e-05
9.9643855e-12
3.2705468e-10
4.8197566e-11
1.1109022e-09
1.2980327e-10
2.1456228e-09
2.7475299e-10
3.493821e-09
5.0718566e-10
5.2308998e-09
8.534095e-10
7.446626e-09
1.3380549e-09
1.0246155e-08
1.9782062e-09
1.3750283e-08
2.7759846e-09
1.8094347e-08
3.7108713e-09
2.3425719e-08
4.7339317e-09
2.9899809e-08
5.7665541e-09
3.7675476e-08
6.7059805e-09
4.6911642e-08
7.438457e-09
5.7767997e-08
7.8584872e-09
7.0412995e-08
7.8901346e-09
8.5041846e-08
7.5046282e-09
1.0190541e-07
6.7286387e-09
1.213472e-07
5.6398119e-09
1.4384396e-07
4.3500044e-09
1.7004211e-07
2.9806837e-09
2.007858e-07
1.637946e-09
2.3713404e-07
3.9419589e-10
2.8037336e-07
-7.1732077e-10
3.3203152e-07
-1.695186e-09
3.9390845e-07
-2.5620564e-09
4.6812856e-07
-3.346955e-09
5.5721275e-07
-4.0740876e-09
6.6418173e-07
-4.7577445e-09
7.9267358e-07
-5.4029907e-09
9.4708617e-07
-6.0086986e-09
1.1327396e-06
-6.5716914e-09
1.3560682e-06
-7.0895834e-09
1.6248518e-06
-7.562606e-09
1.9484933e-06
-7.9935984e-09
2.3383588e-06
-8.3872917e-09
2.8081861e-06
-8.7478373e-09
3.3745788e-06
-9.0766366e-09
4.0576118e-06
-9.3689447e-09
4.8815536e-06
-9.6100669e-09
5.8757481e-06
-9.7793389e-09
7.0756811e-06
-9.8220153e-09
8.524259e-06
-9.7305573e-09
1.0273413e-05
-9.4491292e-09
1.2385839e-05
-8.9351471e-09
1.4937583e-05
-8.0756885e-09
1.8020391e-05
-6.8546955e-09
2.1745612e-05
-5.1203429e-09
2.6247376e-05
-2.9106943e-09
3.1688931e-05
3.8266306e-05
-8.453771e-12
3.3550857e-10
-3.6684597e-11
1.1391331e-09
-9.0105369e-11
2.1990438e-09
-1.7486244e-10
3.5785783e-09
-2.9774353e-10
5.3537813e-09
-4.66096e-10
7.6149788e-09
-6.8784372e-10
1.0467904e-08
-9.717749e-10
1.4034215e-08
-1.3282759e-09
1.8450849e-08
-1.7706055e-09
2.386805e-08
-2.3164921e-09
3.0445698e-08
-2.989317e-09
3.8348304e-08
-3.8175788e-09
4.7739908e-08
-4.8311167e-09
5.878154e-08
-6.0532351e-09
7.163512e-08
-7.4896194e-09
8.647824e-08
-9.117222e-09
1.0353302e-07
-1.0877759e-08
1.2310775e-07
-1.2679908e-08
1.4564613e-07
-1.4411483e-08
1.7177371e-07
-1.5959074e-08
2.0233342e-07
-1.7229943e-08
2.3840494e-07
-1.8169313e-08
2.8131277e-07
-1.8769924e-08
3.3263218e-07
-1.9067315e-08
3.9420589e-07
-1.9127432e-08
4.6818874e-07
-1.9028685e-08
5.5711407e-07
-1.8845745e-08
6.6399886e-07
-1.8639229e-08
7.9246713e-07
-1.8451678e-08
9.4689868e-07
-1.8309424e-08
1.1325974e-06
-1.8225751e-08
1.3559845e-06
-1.8204003e-08
1.6248301e-06
-1.823911e-08
1.9485284e-06
-1.8318521e-08
2.3384382e-06
-1.8422182e-08
2.8082897e-06
-1.8524204e-08
3.3746808e-06
-1.8591518e-08
4.0576791e-06
-1.8590528e-08
4.8815525e-06
-1.8476556e-08
5.8756341e-06
-1.8218594e-08
7.075423e-06
-1.7756916e-08
8.5237972e-06
-1.7061832e-08
1.0272718e-05
-1.6064695e-08
1.2384842e-05
-1.4736223e-08
1.4936254e-05
-1.2966492e-08
1.8018621e-05
-1.0730299e-08
2.1743376e-05
-7.8744942e-09
2.624452e-05
-4.3766444e-09
3.1685433e-05
3.8261929e-05
-1.632615e-11
3.5183478e-10
-7.2020111e-11
1.1948272e-09
-1.7959768e-10
2.3066214e-09
-3.5440709e-10
3.7533878e-09
-6.1507035e-10
5.614445e-09
-9.8383117e-10
7.9837401e-09
-1.486771e-09
1.0970844e-08
-2.1537869e-09
1.4701232e-08
-3.0181948e-09
1.9315258e-08
-4.115781e-09
2.4965638e-08
-5.4830777e-09
3.1812997e-08
-7.154563e-09
4.0019792e-08
-9.1584111e-09
4.974376e-08
-1.151046e-08
6.1133594e-08
-1.420636e-08
7.4331028e-08
-1.7212768e-08
8.9484658e-08
-2.0459833e-08
1.067801e-07
-2.3838498e-08
1.2648644e-07
-2.7206135e-08
1.4901379e-07
-3.040194e-08
1.7496954e-07
-3.3269802e-08
2.0520131e-07
-3.5683165e-08
2.4081834e-07
-3.7565011e-08
2.8319466e-07
-3.8897505e-08
3.3396473e-07
-3.9719156e-08
3.950276e-07
-4.0108011e-08
4.6857767e-07
-4.0161125e-08
5.5716726e-07
-3.9972259e-08
6.6381007e-07
-3.9616758e-08
7.9211171e-07
-3.9145343e-08
9.4642735e-07
-3.8586497e-08
1.1320386e-06
-3.795282e-08
1.3553509e-06
-3.7248425e-08
1.6241257e-06
-3.6473636e-08
1.9477537e-06
-3.5628459e-08
2.337593e-06
-3.4711768e-08
2.807373e-06
-3.3723298e-08
3.3736923e-06
-3.2656615e-08
4.0566123e-06
-3.1506573e-08
4.8804024e-06
-3.0250277e-08
5.8743777e-06
-2.887047e-08
7.0740431e-06
-2.7317275e-08
8.5222439e-06
-2.5551908e-08
1.0270952e-05
-2.3510722e-08
1.23828e-05
-2.1139936e-08
1.4933883e-05
-1.830633e-08
1.8015787e-05
-1.4939727e-08
2.1740009e-05
-1.0858204e-08
2.6240438e-05
-5.9654505e-09
3.168054e-05
3.8255964e-05
-1.5330482e-11
3.6716536e-10
-6.7952808e-11
1.2474495e-09
-1.7031781e-10
2.4089867e-09
-3.3812684e-10
3.921197e-09
-5.9102503e-10
5.8673435e-09
-9.533577e-10
8.346073e-09
-1.4549347e-09
1.1472422e-08
-2.1317005e-09
1.5377998e-08
-3.0261104e-09
2.0209669e-08
-4.186914e-09
2.6126443e-08
-5.6678729e-09
3.3293958e-08
-7.524783e-09
4.1876705e-08
-9.8100423e-09
5.2029024e-08
-1.2564118e-08
6.3887676e-08
-1.5803788e-08
7.7570705e-08
-1.9508279e-08
9.3189159e-08
-2.3606342e-08
1.1087817e-07
-2.7969179e-08
1.3084929e-07
-3.241456e-08
1.5345919e-07
-3.6725084e-08
1.792801e-07
-4.0678561e-08
2.0915483e-07
-4.4083262e-08
2.4422309e-07
-4.6808528e-08
2.8591998e-07
-4.8801981e-08
3.3595825e-07
-5.0090376e-08
3.9631607e-07
-5.0763531e-08
4.6925091e-07
-5.0947954e-08
5.5735177e-07
-5.0777177e-08
6.6363939e-07
-5.0367677e-08
7.917023e-07
-4.9805544e-08
9.4586531e-07
-4.9144698e-08
1.1313779e-06
-4.8412502e-08
1.3546188e-06
-4.7618351e-08
1.6233316e-06
-4.676007e-08
1.9468954e-06
-4.582928e-08
2.3366623e-06
-4.481146e-08
2.8063552e-06
-4.369019e-08
3.372571e-06
-4.2441344e-08
4.0553635e-06
-4.1042494e-08
4.8790035e-06
-3.9458397e-08
5.8727935e-06
-3.7659256e-08
7.0722439e-06
-3.5595394e-08
8.5201799e-06
-3.3222629e-08
1.0268579e-05
-3.0465152e-08
1.2380043e-05
-2.7266908e-08
1.4930685e-05
-2.3502215e-08
1.8012023e-05
-1.9078918e-08
2.1735586e-05
-1.3813014e-08
2.6235172e-05
-7.5465539e-09
3.1674273e-05
3.8248417e-05
-1.5150438e-11
3.8231587e-10
-6.7211362e-11
1.2995106e-09
-1.6857408e-10
2.5103496e-09
-3.3492971e-10
4.0875529e-09
-5.8603916e-10
6.1184531e-09
-9.4661179e-10
8.7066462e-09
-1.4472789e-09
1.1973089e-08
-2.1255926e-09
1.6056313e-08
-3.0269083e-09
2.1110986e-08
-4.2048833e-09
2.730442e-08
-5.7211411e-09
3.4810218e-08
-7.6433892e-09
4.3798956e-08
-1.0041016e-08
5.4426655e-08
-1.2977044e-08
6.682371e-08
-1.6495604e-08
8.1089273e-08
-2.0605188e-08
9.7298753e-08
-2.5260191e-08
1.1553319e-07
-3.0346082e-08
1.359352e-07
-3.5675604e-08
1.5878874e-07
-4.100217e-08
1.8460669e-07
-4.6051414e-08
2.1420411e-07
-5.0564353e-08
2.4873608e-07
-5.4340253e-08
2.8969594e-07
-5.7266848e-08
3.3888492e-07
-5.9330412e-08
3.9837972e-07
-6.0604261e-08
4.7052485e-07
-6.1220633e-08
5.5796825e-07
-6.1334843e-08
6.6375371e-07
-6.10922e-08
7.9145977e-07
-6.0606079e-08
9.453793e-07
-5.9950547e-08
1.1307224e-06
-5.9164567e-08
1.3538329e-06
-5.8262476e-08
1.6224296e-06
-5.7243586e-08
1.9458766e-06
-5.6100311e-08
2.335519e-06
-5.4819916e-08
2.8050748e-06
-5.3388554e-08
3.3711397e-06
-5.1786082e-08
4.053761e-06
-4.9991816e-08
4.8772092e-06
-4.797332e-08
5.870775e-06
-4.5697272e-08
7.0699677e-06
-4.3110877e-08
8.5175934e-06
-4.0162202e-08
1.026563e-05
-3.6764764e-08
1.2376645e-05
-3.2840988e-08
1.4926761e-05
-2.8259369e-08
1.8007441e-05
-2.2893045e-08
2.1730219e-05
-1.6552441e-08
2.6228832e-05
-9.020168e-09
3.1666741e-05
3.8239397e-05
-1.39638e-11
3.9627975e-10
-6.2014763e-11
1.3475617e-09
-1.5572345e-10
2.6040583e-09
-3.0983663e-10
4.2416664e-09
-5.4306235e-10
6.351679e-09
-8.7900259e-10
9.0425869e-09
-1.3472369e-09
1.2441324e-08
-1.9845214e-09
1.6693598e-08
-2.8360069e-09
2.1962472e-08
-3.9562789e-09
2.8424693e-08
-5.4098274e-09
3.6263769e-08
-7.2702989e-09
4.5659431e-08
-9.6175211e-09
5.6773881e-08
-1.2530963e-08
6.9737157e-08
-1.6078237e-08
8.4636556e-08
-2.0297953e-08
1.0151848e-07
-2.5178176e-08
1.2041343e-07
-3.0635095e-08
1.4139214e-07
-3.6499904e-08
1.6465358e-07
-4.252287e-08
1.9062969e-07
-4.839971e-08
2.2008099e-07
-5.3816964e-08
2.5415339e-07
-5.8504644e-08
2.9438369e-07
-6.2280761e-08
3.4266111e-07
-6.5075349e-08
4.011744e-07
-6.692876e-08
4.7237836e-07
-6.7966789e-08
5.5900639e-07
-6.8361454e-08
6.641485e-07
-6.828946e-08
7.9138791e-07
-6.7899833e-08
9.4498981e-07
-6.7297647e-08
1.1301204e-06
-6.6543331e-08
1.3530787e-06
-6.5662377e-08
1.6215488e-06
-6.4656948e-08
1.9448713e-06
-6.3516336e-08
2.3343784e-06
-6.2221415e-08
2.8037799e-06
-6.0749128e-08
3.3696674e-06
-5.9070148e-08
4.0520819e-06
-5.7152747e-08
4.8752917e-06
-5.4955931e-08
5.8685781e-06
-5.2436289e-08
7.067448e-06
-4.9534396e-08
8.5146914e-06
-4.6188414e-08
1.0262284e-05
-4.2309153e-08
1.2372766e-05
-3.780148e-08
1.4922253e-05
-3.2533007e-08
1.8002172e-05
-2.6346513e-08
2.1724033e-05
-1.9048142e-08
2.6221533e-05
-1.0370638e-08
3.1658063e-05
3.8229026e-05
-1.3171617e-11
4.0945147e-10
-5.8515378e-11
1.3929056e-09
-1.4697965e-10
2.6925227e-09
-2.9254326e-10
4.3872302e-09
-5.1298464e-10
6.5721208e-09
-8.3081167e-10
9.3604144e-09
-1.2743659e-09
1.2884879e-08
-1.8790944e-09
1.7298327e-08
-2.6889261e-09
2.2772305e-08
-3.7576184e-09
2.9493387e-08
-5.1497625e-09
3.7655915e-08
-6.9409012e-09
4.7450573e-08
-9.2158354e-09
5.9048819e-08
-1.2063769e-08
7.2585096e-08
-1.5568639e-08
8.8141433e-08
-1.979323e-08
1.0574308e-07
-2.4757144e-08
1.2537736e-07
-3.0411746e-08
1.4704676e-07
-3.6619482e-08
1.7086134e-07
-4.3147762e-08
1.97158e-07
-4.9686061e-08
2.2661934e-07
-5.5887383e-08
2.6035476e-07
-6.1424967e-08
2.9992134e-07
-6.6048051e-08
3.4728427e-07
-6.9620487e-08
4.0474693e-07
-7.2132328e-08
4.7489031e-07
-7.3683221e-08
5.6055741e-07
-7.444447e-08
6.6490988e-07
-7.4612149e-08
7.9155572e-07
-7.4365137e-08
9.4474293e-07
-7.3838764e-08
1.1295941e-06
-7.3117273e-08
1.3523573e-06
-7.2240949e-08
1.6206725e-06
-7.1219191e-08
1.9438496e-06
-7.0043243e-08
2.3332026e-06
-6.8693631e-08
2.8024303e-06
-6.7144864e-08
3.3681186e-06
-6.5365096e-08
4.0503021e-06
-6.331765e-08
4.8732442e-06
-6.0956959e-08
5.8662173e-06
-5.8230924e-08
7.0647219e-06
-5.50736e-08
8.511534e-06
-5.1408767e-08
1.0258619e-05
-4.7140855e-08
1.2368498e-05
-4.2152999e-08
1.4917265e-05
-3.6307198e-08
1.7996326e-05
-2.9416318e-08
2.1717142e-05
-2.1278129e-08
2.6213395e-05
-1.1584226e-08
3.1648369e-05
3.8217442e-05
-1.228207e-11
4.2173361e-10
-5.4589424e-11
1.4352131e-09
-1.3718704e-10
2.7751205e-09
-2.7321456e-10
4.5232579e-09
-4.7943041e-10
6.7783369e-09
-7.7712573e-10
9.6581102e-09
-1.193227e-09
1.3300981e-08
-1.7615953e-09
1.7866697e-08
-2.5244891e-09
2.35352e-08
-3.5340947e-09
3.0502994e-08
-4.8538907e-09
3.8975713e-08
-6.5593866e-09
4.9156071e-08
-8.7374289e-09
6.1226865e-08
-1.1482808e-08
7.5330481e-08
-1.4890447e-08
9.154908e-08
-1.9041371e-08
1.0989402e-07
-2.3981587e-08
1.3031759e-07
-2.9695605e-08
1.527608e-07
-3.6080639e-08
1.772464e-07
-4.2931671e-08
2.0400907e-07
-4.9948305e-08
2.3363601e-07
-5.6768666e-08
2.6717518e-07
-6.3025161e-08
3.0617791e-07
-6.8407137e-08
3.5266634e-07
-7.2712195e-08
4.0905209e-07
-7.5872099e-08
4.7805033e-07
-7.7947786e-08
5.6263322e-07
-7.9097073e-08
6.6605931e-07
-7.9526151e-08
7.9198495e-07
-7.9439896e-08
9.4465682e-07
-7.9004983e-08
1.1291594e-06
-7.833333e-08
1.3516858e-06
-7.7484226e-08
1.6198236e-06
-7.6477169e-08
1.9428426e-06
-7.5306337e-08
2.3320318e-06
-7.3951217e-08
2.8010752e-06
-7.2382331e-08
3.3665497e-06
-7.0563301e-08
4.0484831e-06
-6.8450729e-08
4.8711316e-06
-6.5993512e-08
5.86376e-06
-6.3130331e-08
7.0618586e-06
-5.9789604e-08
8.5081932e-06
-5.5881831e-08
1.0254712e-05
-5.1305949e-08
1.2363922e-05
-4.5925931e-08
1.4911885e-05
-3.9597008e-08
1.7989997e-05
-3.2106249e-08
2.1709651e-05
-2.3239973e-08
2.6204529e-05
-1.2657032e-08
3.1637786e-05
3.8204785e-05
-1.1555398e-11
4.3328904e-10
-5.137355e-11
1.4750314e-09
-1.2914054e-10
2.8528877e-09
-2.5727009e-10
4.6513877e-09
-4.5162085e-10
6.9726879e-09
-7.3238149e-10
9.9388713e-09
-1.1251519e-09
1.3693752e-08
-1.6622364e-09
1.8403782e-08
-2.3841369e-09
2.4257102e-08
-3.3411824e-09
3.1460041e-08
-4.5951182e-09
4.0229651e-08
-6.2202771e-09
5.0781233e-08
-8.3036447e-09
6.3310237e-08
-1.0942664e-08
7.7969505e-08
-1.4239108e-08
9.4845532e-08
-1.8287047e-08
1.1394197e-07
-2.3153388e-08
1.3518394e-07
-2.8851523e-08
1.5845895e-07
-3.5312634e-08
1.8370753e-07
-4.2363979e-08
2.1106045e-07
-4.972611e-08
2.4099819e-07
-5.7037552e-08
2.7448668e-07
-6.3905848e-08
3.1304627e-07
-6.9972689e-08
3.5873326e-07
-7.4974549e-08
4.1405406e-07
-7.8781851e-08
4.8185776e-07
-8.1407039e-08
5.6525855e-07
-8.2981349e-08
6.6763377e-07
-8.3708729e-08
7.9271249e-07
-8.3811548e-08
9.447598e-07
-8.3484358e-08
1.1288323e-06
-8.2867365e-08
1.351069e-06
-8.2041731e-08
1.618998e-06
-8.1040368e-08
1.9418413e-06
-7.9863433e-08
2.3308549e-06
-7.8491951e-08
2.7997038e-06
-7.6894862e-08
3.3649526e-06
-7.5033396e-08
4.0466216e-06
-7.2859429e-08
4.8689576e-06
-7.0317865e-08
5.8612184e-06
-6.7339263e-08
7.0588799e-06
-6.3846833e-08
8.5047006e-06
-5.9738606e-08
1.0250603e-05
-5.4906915e-08
1.235909e-05
-4.9198545e-08
1.4906176e-05
-4.2459629e-08
1.7983258e-05
-3.4455447e-08
2.1701647e-05
-2.4957856e-08
2.6195031e-05
-1.3599922e-08
3.1626428e-05
3.8191185e-05
-1.0876027e-11
4.4416514e-10
-4.8367872e-11
1.5125234e-09
-1.2162243e-10
2.9261423e-09
-2.4237806e-10
4.7721436e-09
-4.2565336e-10
7.1559635e-09
-6.9060375e-10
1.0203822e-08
-1.0615737e-09
1.4064723e-08
-1.569373e-09
1.8911582e-08
-2.2527718e-09
2.4940501e-08
-3.1601827e-09
3.2367453e-08
-4.3513901e-09
4.142086e-08
-5.899024e-09
5.232887e-08
-7.8891864e-09
6.5300403e-08
-1.0420205e-08
8.0500529e-08
-1.3597939e-08
9.8023275e-08
-1.7525615e-08
1.1786965e-07
-2.2286282e-08
1.3994462e-07
-2.7917494e-08
1.6409019e-07
-3.4381344e-08
1.9017141e-07
-4.153797e-08
2.1821711e-07
-4.9134565e-08
2.4859483e-07
-5.6820629e-08
2.821728e-07
-6.4192189e-08
3.2041791e-07
-7.085592e-08
3.6539709e-07
-7.6495632e-08
4.1969388e-07
-8.092246e-08
4.8628471e-07
-8.4095839e-08
5.6843208e-07
-8.6111309e-08
6.696494e-07
-8.7160135e-08
7.9376148e-07
-8.7473799e-08
9.4507364e-07
-8.7270395e-08
1.1286291e-06
-8.6718069e-08
1.3505168e-06
-8.5921937e-08
1.6182021e-06
-8.4930908e-08
1.9408504e-06
-8.3753185e-08
2.3296773e-06
-8.2372406e-08
2.798323e-06
-8.0756479e-08
3.3633367e-06
-7.8864486e-08
4.0447296e-06
-7.6643978e-08
4.866737e-06
-7.403624e-08
5.8586105e-06
-7.0964851e-08
7.0558084e-06
-6.7348158e-08
8.5010838e-06
-6.3073809e-08
1.0246329e-05
-5.8027325e-08
1.2354043e-05
-5.2041337e-08
1.490019e-05
-4.4951675e-08
1.7976169e-05
-3.6506033e-08
2.1693201e-05
-2.6460069e-08
2.6184985e-05
-1.4426786e-08
3.1614395e-05
3.8176758e-05
-1.0286698e-11
4.5445192e-10
-4.5757474e-11
1.5479942e-09
-1.1508471e-10
2.9954698e-09
-2.2940865e-10
4.8864676e-09
-4.0299746e-10
7.3295526e-09
-6.5407437e-10
1.0454899e-08
-1.0058385e-09
1.4416487e-08
-1.4877125e-09
1.9393457e-08
-2.1368246e-09
2.5589615e-08
-2.9997094e-09
3.3230339e-08
-4.1341191e-09
4.2555272e-08
-5.6107104e-09
5.3805464e-08
-7.5140843e-09
6.720378e-08
-9.9422873e-09
8.2928737e-08
-1.3003314e-08
1.0108431e-07
-1.6806612e-08
1.2167296e-07
-2.1447481e-08
1.445855e-07
-2.6983266e-08
1.6962599e-07
-3.3403263e-08
1.9659143e-07
-4.0599107e-08
2.2541299e-07
-4.8347146e-08
2.5634291e-07
-5.6314907e-08
2.9014062e-07
-6.4097446e-08
3.2820052e-07
-7.1278019e-08
3.7257775e-07
-7.7497276e-08
4.2591324e-07
-8.2511861e-08
4.9129943e-07
-8.6227088e-08
5.7214745e-07
-8.8696338e-08
6.7211882e-07
-9.0088879e-08
7.951542e-07
-9.0636317e-08
9.4562126e-07
-9.057423e-08
1.1285672e-06
-9.0096527e-08
1.3500393e-06
-8.9333166e-08
1.6174388e-06
-8.8351339e-08
1.9398687e-06
-8.7169573e-08
2.3284956e-06
-8.5775864e-08
2.7969294e-06
-8.4138385e-08
3.3616992e-06
-8.2214944e-08
4.0428061e-06
-7.9949815e-08
4.8644718e-06
-7.7281242e-08
5.8559419e-06
-7.4127162e-08
7.0526542e-06
-7.0401214e-08
8.4973578e-06
-6.5982652e-08
1.024191e-05
-6.0749809e-08
1.234881e-05
-5.4523915e-08
1.4893964e-05
-4.7129708e-08
1.7968774e-05
-3.8300848e-08
2.1684372e-05
-2.777604e-08
2.617446e-05
-1.5152448e-08
3.1601771e-05
3.8161606e-05
-9.7562366e-12
4.6420822e-10
-4.3407113e-11
1.5816452e-09
-1.0919701e-10
3.0612598e-09
-2.1772443e-10
4.9949951e-09
-3.825777e-10
7.4944062e-09
-6.2113157e-10
1.0693453e-08
-9.5553638e-10
1.4750893e-08
-1.4139343e-09
1.9851855e-08
-2.0319188e-09
2.62076e-08
-2.8542331e-09
3.4052655e-08
-3.9366319e-09
4.3637673e-08
-5.3477063e-09
5.5216541e-08
-7.1702377e-09
6.9026316e-08
-9.5012838e-09
8.5259788e-08
-1.2449661e-08
1.0403269e-07
-1.6128912e-08
1.2535222e-07
-2.0643532e-08
1.4910014e-07
-2.606689e-08
1.7504936e-07
-3.2411734e-08
2.029363e-07
-3.9598747e-08
2.3260003e-07
-4.7433799e-08
2.6417801e-07
-5.5606595e-08
2.9831347e-07
-6.3718986e-08
3.3631299e-07
-7.1340606e-08
3.8019946e-07
-7.8078332e-08
4.3265108e-07
-8.364076e-08
4.9686199e-07
-8.7880766e-08
5.7638761e-07
-9.0806257e-08
6.7504447e-07
-9.2557445e-08
7.9690557e-07
-9.3357922e-08
9.4642193e-07
-9.3454299e-08
1.1286637e-06
-9.3063066e-08
1.3496482e-06
-9.2338907e-08
1.6167148e-06
-9.1368922e-08
1.9388988e-06
-9.018396e-08
2.3273107e-06
-8.8777798e-08
2.7955232e-06
-8.7119836e-08
3.3600413e-06
-8.5167037e-08
4.0408532e-06
-8.2861111e-08
4.8621658e-06
-8.0137415e-08
5.8532181e-06
-7.690943e-08
7.0494261e-06
-7.3086206e-08
8.4935344e-06
-6.8540433e-08
1.0237364e-05
-6.3143223e-08
1.2343413e-05
-5.6706929e-08
1.4887528e-05
-4.9045029e-08
1.7961112e-05
-3.988018e-08
2.1675207e-05
-2.893425e-08
2.6163514e-05
-1.5791742e-08
3.1588629e-05
3.8145814e-05
-9.2857048e-12
4.7349398e-10
-4.1320926e-11
1.6136806e-09
-1.0396733e-10
3.1239063e-09
-2.0733809e-10
5.098366e-09
-3.6440919e-10
7.6514777e-09
-5.9178786e-10
1.0920833e-08
-9.1067009e-10
1.5069776e-08
-1.3480238e-09
2.0289209e-08
-1.9380194e-09
2.6797597e-08
-2.7237154e-09
3.4838352e-08
-3.7589407e-09
4.4672901e-08
-5.1102169e-09
5.656782e-08
-6.8583422e-09
7.0774445e-08
-9.0989386e-09
8.750039e-08
-1.1940742e-08
1.068745e-07
-1.5499823e-08
1.2891131e-07
-1.9887498e-08
1.5348783e-07
-2.5190013e-08
1.803519e-07
-3.1440114e-08
2.0918643e-07
-3.8584731e-08
2.3974468e-07
-4.6458392e-08
2.7205172e-07
-5.4775163e-08
3.066303e-07
-6.3149207e-08
3.446871e-07
-7.1144485e-08
3.8819483e-07
-7.8342683e-08
4.3984939e-07
-8.4411292e-08
5.0293073e-07
-8.9154183e-08
5.8113065e-07
-9.2532706e-08
6.7842317e-07
-9.4652963e-08
7.9902601e-07
-9.5723377e-08
9.4749254e-07
-9.5994936e-08
1.1289355e-06
-9.5702581e-08
1.349356e-06
-9.5024646e-08
1.6160371e-06
-9.4069175e-08
1.9379435e-06
-9.2881148e-08
2.3261228e-06
-9.1461633e-08
2.7941038e-06
-8.9782433e-08
3.3583621e-06
-8.7800185e-08
4.038871e-06
-8.5454783e-08
4.8598203e-06
-8.2678914e-08
5.8504421e-06
-7.9382596e-08
7.0461297e-06
-7.5470393e-08
8.4896221e-06
-7.0809934e-08
1.0232704e-05
-6.5265176e-08
1.2337868e-05
-5.8641604e-08
1.4880904e-05
-5.0741619e-08
1.7953212e-05
-4.1279128e-08
2.1665744e-05
-2.9959962e-08
2.6152195e-05
-1.6358085e-08
3.1575027e-05
3.8129456e-05
-8.8631416e-12
4.8235717e-10
-3.9446749e-11
1.6442643e-09
-9.9267171e-11
3.1837268e-09
-1.9799895e-10
5.1970981e-09
-3.4806389e-10
7.8015428e-09
-5.6537163e-10
1.1138141e-08
-8.7024721e-10
1.5374652e-08
-1.288582e-09
2.0707545e-08
-1.8532317e-09
2.7362248e-08
-2.6056805e-09
3.5590802e-08
-3.5979297e-09
4.5665152e-08
-4.8944796e-09
5.7864372e-08
-6.5740879e-09
7.2454056e-08
-8.7306786e-09
8.9656985e-08
-1.1472298e-08
1.0961613e-07
-1.4916408e-08
1.3235543e-07
-1.9179311e-08
1.5775074e-07
-2.4357556e-08
1.8553016e-07
-3.0500829e-08
2.1532972e-07
-3.757946e-08
2.4682335e-07
-4.545507e-08
2.7992737e-07
-5.3866895e-08
3.1504218e-07
-6.2445109e-08
3.5326539e-07
-7.0754245e-08
3.9650406e-07
-7.8358251e-08
4.4745351e-07
-8.4890392e-08
5.09463e-07
-9.0109984e-08
5.863504e-07
-9.3932575e-08
6.8224594e-07
-9.6427027e-08
8.0152066e-07
-9.7780791e-08
9.488465e-07
-9.8242949e-08
1.1293979e-06
-9.8062293e-08
1.3491756e-06
-9.7438914e-08
1.6154138e-06
-9.6502173e-08
1.9370069e-06
-9.5312677e-08
2.3249334e-06
-9.3880222e-08
2.7926714e-06
-9.2180078e-08
3.3566619e-06
-9.0169083e-08
4.0368599e-06
-8.7785878e-08
4.8574371e-06
-8.4960638e-08
5.8476168e-06
-8.1600718e-08
7.0427696e-06
-7.7606322e-08
8.4856275e-06
-7.2841229e-08
1.0227938e-05
-6.7162455e-08
1.2332189e-05
-6.0370137e-08
1.4874112e-05
-5.2256209e-08
1.7945098e-05
-4.2527451e-08
2.1656016e-05
-3.0874759e-08
2.6140542e-05
-1.6863091e-08
3.1561015e-05
3.8112593e-05
-8.4835259e-12
4.9084073e-10
-3.7762167e-11
1.6735431e-09
-9.5040498e-11
3.2410054e-09
-1.8959657e-10
5.2916543e-09
-3.3334856e-10
7.9452951e-09
-5.4157207e-10
1.1346364e-08
-8.3379765e-10
1.5666878e-08
-1.2349284e-09
2.1108676e-08
-1.7766068e-09
2.7903927e-08
-2.4988512e-09
3.6313048e-08
-3.4519376e-09
4.661824e-08
-4.6984213e-09
5.9110859e-08
-6.3150213e-09
7.407066e-08
-8.3938176e-09
9.1735786e-08
-1.1041754e-08
1.1226407e-07
-1.4376853e-08
1.3569054e-07
-1.851898e-08
1.6189288e-07
-2.3572896e-08
1.9058409e-07
-2.9602588e-08
2.2135944e-07
-3.6599086e-08
2.5381987e-07
-4.4449215e-08
2.8777754e-07
-5.2917276e-08
3.235103e-07
-6.165182e-08
3.6200001e-07
-7.0222711e-08
4.0507504e-07
-7.8182474e-08
4.5541338e-07
-8.5136565e-08
5.1641723e-07
-9.0804634e-08
5.9201863e-07
-9.5058404e-08
6.8649989e-07
-9.7927951e-08
8.043904e-07
-9.9575283e-08
9.5049404e-07
-1.002419e-07
1.1300647e-06
-1.0018557e-07
1.3491194e-06
-9.9625648e-08
1.6148541e-06
-9.8712557e-08
1.936094e-06
-9.7523695e-08
2.3237446e-06
-9.6078942e-08
2.7912267e-06
-9.4358169e-08
3.3549412e-06
-9.231895e-08
4.0348207e-06
-8.9899261e-08
4.8550173e-06
-8.7026913e-08
5.8447443e-06
-8.3607198e-08
7.0393498e-06
-7.9536177e-08
8.4815564e-06
-7.4674571e-08
1.0223077e-05
-6.88729e-08
1.2326387e-05
-6.1926986e-08
1.4867166e-05
-5.3619051e-08
1.793679e-05
-4.3649884e-08
2.1646046e-05
-3.1696753e-08
2.6128589e-05
-1.7316639e-08
3.1546634e-05
3.8095276e-05
-8.1402134e-12
4.98981e-10
-3.6238416e-11
1.7016413e-09
-9.1216194e-11
3.2959832e-09
-1.8199037e-10
5.3824286e-09
-3.2002136e-10
8.0833263e-09
-5.2000551e-10
1.1546349e-08
-8.0074556e-10
1.5947618e-08
-1.1862369e-09
2.1494168e-08
-1.7070013e-09
2.8424692e-08
-2.4016937e-09
3.7007742e-08
-3.318971e-09
4.7535519e-08
-4.5195311e-09
6.0311421e-08
-6.0780939e-09
7.5629226e-08
-8.0848266e-09
9.3742524e-08
-1.06453e-08
1.1482455e-07
-1.3877488e-08
1.3892274e-07
-1.7903725e-08
1.6591913e-07
-2.2835287e-08
1.9551567e-07
-2.8748206e-08
2.2727238e-07
-3.5651743e-08
2.6072344e-07
-4.3455914e-08
2.9558175e-07
-5.1949411e-08
3.3200385e-07
-6.0800514e-08
3.7085118e-07
-6.9587978e-08
4.138626e-07
-7.7858128e-08
4.6368364e-07
-8.5194384e-08
5.2375363e-07
-9.1281681e-08
5.9810609e-07
-9.5950694e-08
6.9116908e-07
-9.9192475e-08
8.0763238e-07
-1.0114039e-07
9.5244216e-07
-1.0202341e-07
1.1309479e-06
-1.0210357e-07
1.3491998e-06
-1.0161642e-07
1.6143671e-06
-1.0073269e-07
1.9352104e-06
-9.9547317e-08
2.3225594e-06
-9.8091512e-08
2.7897709e-06
-9.6350833e-08
3.3532005e-06
-9.4284233e-08
4.032754e-06
-9.1829451e-08
4.8525625e-06
-8.8912185e-08
5.8418269e-06
-8.5436062e-08
7.0358735e-06
-8.1293239e-08
8.4774134e-06
-7.6342018e-08
1.0218125e-05
-7.0426844e-08
1.2320472e-05
-6.3339963e-08
1.4860079e-05
-5.4854707e-08
1.7928305e-05
-4.4666689e-08
2.1635858e-05
-3.2440854e-08
2.6116363e-05
-1.7726915e-08
3.153192e-05
3.8077549e-05
-7.8286794e-12
5.0680974e-10
-3.485496e-11
1.7286677e-09
-8.774265e-11
3.348871e-09
-1.7507942e-10
5.4697656e-09
-3.0790679e-10
8.216154e-09
-5.0039119e-10
1.1738834e-08
-7.7066702e-10
1.6217895e-08
-1.1418938e-09
2.1865396e-08
-1.6435568e-09
2.8926356e-08
-2.3130439e-09
3.7677229e-08
-3.1974916e-09
4.8419968e-08
-4.355836e-09
6.1469767e-08
-5.8608585e-09
7.7134252e-08
-7.8007948e-09
9.5682465e-08
-1.0279668e-08
1.1730343e-07
-1.341496e-08
1.4205804e-07
-1.7330624e-08
1.698348e-07
-2.2143077e-08
2.0032814e-07
-2.7938488e-08
2.3306781e-07
-3.4742128e-08
2.6752711e-07
-4.2485205e-08
3.0332487e-07
-5.0979778e-08
3.4049847e-07
-5.9914497e-08
3.7978597e-07
-6.8879596e-08
4.2282779e-07
-7.7419442e-08
4.722236e-07
-8.5100519e-08
5.3143484e-07
-9.1577795e-08
6.0458353e-07
-9.6644131e-08
6.962356e-07
-1.0025226e-07
8.1124071e-07
-1.0250485e-07
9.5469496e-07
-1.0361425e-07
1.1320575e-06
-1.0384223e-07
1.349428e-06
-1.0343728e-07
1.6139624e-06
-1.0258912e-07
1.9343624e-06
-1.0141061e-07
2.321381e-06
-9.9945389e-08
2.7883058e-06
-9.8185762e-08
3.3514409e-06
-9.6092721e-08
4.030661e-06
-9.3604216e-08
4.8500739e-06
-9.0644069e-08
5.8388667e-06
-8.711453e-08
7.0323439e-06
-8.2904206e-08
8.4732029e-06
-7.7869263e-08
1.021309e-05
-7.1848646e-08
1.2314451e-05
-6.4631493e-08
1.4852861e-05
-5.5983088e-08
1.7919656e-05
-4.5594373e-08
2.1625469e-05
-3.3119248e-08
2.6103887e-05
-1.8100673e-08
3.1516902e-05
3.8059448e-05
-7.5445868e-12
5.1435436e-10
-3.3592972e-11
1.7547163e-09
-8.457307e-11
3.3998512e-09
-1.6877127e-10
5.5539638e-09
-2.9684485e-10
8.3442277e-09
-4.824725e-10
1.1924462e-08
-7.431742e-10
1.6478597e-08
-1.1013375e-09
2.222356e-08
-1.5854875e-09
2.9410507e-08
-2.2318318e-09
3.8323575e-08
-3.0860842e-09
4.9274222e-08
-4.2055111e-09
6.2589197e-08
-5.6610292e-09
7.8589773e-08
-7.5389573e-09
9.7560397e-08
-9.9416631e-09
1.1970614e-07
-1.2985816e-08
1.451022e-07
-1.6796331e-08
1.7364533e-07
-2.1493647e-08
2.0502547e-07
-2.7172458e-08
2.3874665e-07
-3.3872077e-08
2.7422676e-07
-4.1542994e-08
3.1099583e-07
-5.0019416e-08
3.4897495e-07
-5.9010484e-08
3.8877711e-07
-6.8119745e-08
4.3193714e-07
-7.6893017e-08
4.8099698e-07
-8.4884234e-08
5.3942619e-07
-9.1722868e-08
6.1142232e-07
-9.7167363e-08
7.0168028e-07
-1.0113355e-07
8.1520711e-07
-1.0369228e-07
9.572539e-07
-1.0503603e-07
1.1334015e-06
-1.0542219e-07
1.3498144e-06
-1.0510873e-07
1.6136491e-06
-1.043027e-07
1.9335565e-06
-1.031349e-07
2.3202133e-06
-1.0166228e-07
2.7868333e-06
-9.9884893e-08
3.3496635e-06
-9.7766502e-08
4.0285425e-06
-9.5245661e-08
4.847553e-06
-9.2244609e-08
5.8358655e-06
-8.866443e-08
7.0287635e-06
-8.4390439e-08
8.4689288e-06
-7.9276973e-08
1.0207976e-05
-7.3157955e-08
1.2308332e-05
-6.5819709e-08
1.4845523e-05
-5.7020282e-08
1.7910857e-05
-4.6446343e-08
2.1614895e-05
-3.3741856e-08
2.6091183e-05
-1.8443414e-08
3.1501603e-05
3.8041005e-05
-7.2843977e-12
5.2163886e-10
-3.2437203e-11
1.7798691e-09
-8.1669512e-11
3.4490837e-09
-1.6299033e-10
5.6352848e-09
-2.8670363e-10
8.4679412e-09
-4.6603917e-10
1.2103797e-08
-7.1794856e-10
1.6730507e-08
-1.0641052e-09
2.2569717e-08
-1.5321427e-09
2.9878545e-08
-2.1571691e-09
3.8948603e-08
-2.9835641e-09
5.0100619e-08
-4.0670165e-09
6.3672651e-08
-5.4766558e-09
7.9999415e-08
-7.2969193e-09
9.9380664e-08
-9.6284633e-09
1.2203769e-07
-1.2586912e-08
1.4806065e-07
-1.6297627e-08
1.7735605e-07
-2.0884166e-08
2.0961203e-07
-2.6448384e-08
2.4431088e-07
-3.3041906e-08
2.8082031e-07
-4.0632718e-08
3.1858668e-07
-4.9075859e-08
3.5741814e-07
-5.8100733e-08
3.9780205e-07
-6.732543e-08
4.4116192e-07
-7.6299935e-08
4.899716e-07
-8.45694e-08
5.4769579e-07