/*--------------------------------*- C++ -*----------------------------------*\
| =========                 |                                                 |
| \\      /  F ield         | OpenFOAM: The Open Source CFD Toolbox           |
|  \\    /   O peration     | Version:  3.0.1                                 |
|   \\  /    A nd           | Web:      www.OpenFOAM.org                      |
|    \\/     M anipulation  |                                                 |
\*---------------------------------------------------------------------------*/
FoamFile
{
    version     2.0;
    format      ascii;
    class       volScalarField;
    location    "10000/fluid";
    object      Qin;
}
// * * * * * * * * * * * * * * * * * * * * * * * * * * * * * * * * * * * * * //

dimensions      [1 0 -3 0 0 0 0];

internalField   uniform 0;

boundaryField
{
    LeftWedge
    {
        type            wedge;
    }
    RightWedge
    {
        type            wedge;
    }
    Inlet
    {
        type            calculated;
        value           uniform 0;
    }
    Outlet
    {
        type            calculated;
        value           nonuniform List<scalar> 
40
(
2.3960387e-29
2.3960414e-29
2.396042e-29
2.3960422e-29
2.3960422e-29
2.3960422e-29
2.3960422e-29
2.3960422e-29
2.3960422e-29
2.3960422e-29
2.3960422e-29
2.3960422e-29
2.3960422e-29
2.3960422e-29
2.3960422e-29
2.3960422e-29
2.3960422e-29
2.3960422e-29
2.3960422e-29
2.3960422e-29
2.3960422e-29
2.3960422e-29
2.3960422e-29
2.3960422e-29
2.3960422e-29
2.3960422e-29
2.3960422e-29
2.3960422e-29
2.3960422e-29
2.3960422e-29
2.3960422e-29
2.3960422e-29
2.3960422e-29
2.3960422e-29
2.3960422e-29
2.3960422e-29
2.3960422e-29
2.3960422e-29
2.3960422e-29
2.3960422e-29
)
;
    }
    Outterwall
    {
        type            calculated;
        value           nonuniform List<scalar> 
100
(
1743.7443
1849.4158
1951.6138
2038.2091
2109.3338
2167.5244
2215.4942
2255.5339
2289.4331
2318.5472
2343.8917
2366.2278
2386.1295
2404.0337
2420.2772
2435.1227
2448.7779
2461.4088
2473.1502
2484.1125
2494.3871
2504.0507
2513.1678
2521.7935
2529.9752
2537.7536
2545.1645
2552.2388
2559.004
2565.4844
2571.7015
2577.6746
2583.4208
2588.9557
2594.2932
2599.4462
2604.426
2609.2432
2613.9074
2618.4274
2622.8111
2627.0661
2631.1992
2635.2167
2639.1244
2642.9278
2646.632
2650.2416
2653.761
2657.1943
2660.5453
2663.8176
2667.0145
2670.1393
2673.1948
2676.1839
2679.1092
2681.9731
2684.778
2687.5261
2690.2196
2692.8603
2695.4502
2697.991
2700.4844
2702.9321
2705.3356
2707.6963
2710.0156
2712.2948
2714.5352
2716.7381
2718.9045
2721.0356
2723.1323
2725.1958
2727.227
2729.2267
2731.196
2733.1356
2735.0463
2736.9291
2738.7845
2740.6135
2742.4169
2744.1954
2745.95
2747.6823
2749.394
2751.0886
2752.7715
2754.4532
2756.1525
2757.9037
2759.7681
2761.8468
2764.286
2767.2052
2770.6554
2773.3984
)
;
    }
    fluid_to_solid
    {
        type            calculated;
        value           nonuniform List<scalar> 
100
(
421.91926
421.91841
421.91756
421.91671
421.91587
421.91502
421.91418
421.91334
421.9125
421.91165
421.91081
421.90997
421.90913
421.90829
421.90745
421.90661
421.90577
421.90493
421.90408
421.90324
421.9024
421.90156
421.90072
421.89988
421.89904
421.8982
421.89736
421.89652
421.89568
421.89484
421.894
421.89316
421.89232
421.89148
421.89064
421.8898
421.88896
421.88812
421.88728
421.88644
421.8856
421.88476
421.88392
421.88308
421.88224
421.8814
421.88056
421.87972
421.87888
421.87804
421.8772
421.87636
421.87551
421.87467
421.87383
421.87299
421.87215
421.87131
421.87047
421.86964
421.8688
421.86796
421.86712
421.86628
421.86544
421.8646
421.86376
421.86292
421.86208
421.86124
421.8604
421.85956
421.85872
421.85788
421.85704
421.8562
421.85536
421.85452
421.85368
421.85284
421.852
421.85116
421.85032
421.84948
421.84864
421.8478
421.84697
421.84613
421.84529
421.84445
421.84361
421.84277
421.84193
421.8411
421.84026
421.83942
421.83858
421.83775
421.83692
421.83618
)
;
    }
}


// ************************************************************************* //
