/*--------------------------------*- C++ -*----------------------------------*\
| =========                 |                                                 |
| \\      /  F ield         | OpenFOAM: The Open Source CFD Toolbox           |
|  \\    /   O peration     | Version:  3.0.1                                 |
|   \\  /    A nd           | Web:      www.OpenFOAM.org                      |
|    \\/     M anipulation  |                                                 |
\*---------------------------------------------------------------------------*/
FoamFile
{
    version     2.0;
    format      ascii;
    class       volScalarField;
    location    "3500/fluid";
    object      Qin;
}
// * * * * * * * * * * * * * * * * * * * * * * * * * * * * * * * * * * * * * //

dimensions      [1 0 -3 0 0 0 0];

internalField   uniform 0;

boundaryField
{
    Outterwall
    {
        type            calculated;
        value           nonuniform List<scalar> 
100
(
642.81567
1036.9471
1377.5937
1641.7749
1836.6326
1978.478
2082.3946
2159.9818
2219.351
2266.0316
2303.7276
2334.9346
2361.3462
2384.1304
2404.1065
2421.8608
2437.8214
2452.3076
2465.5619
2477.7724
2489.0874
2499.6257
2509.4838
2518.7414
2527.4648
2535.71
2543.5246
2550.9493
2558.0194
2564.7657
2571.2152
2577.3915
2583.3157
2589.0064
2594.4804
2599.7527
2604.8369
2609.745
2614.4883
2619.0767
2623.5196
2627.8253
2632.0016
2636.0555
2639.9936
2643.8219
2647.546
2651.1712
2654.7021
2658.1433
2661.499
2664.7729
2667.9689
2671.0902
2674.1401
2677.1216
2680.0374
2682.8903
2685.6826
2688.4168
2691.0952
2693.7196
2696.2923
2698.815
2701.2895
2703.7176
2706.1007
2708.4405
2710.7384
2712.9958
2715.2139
2717.3941
2719.5375
2721.6453
2723.7185
2725.7583
2727.7655
2729.7412
2731.6863
2733.6016
2735.488
2737.3463
2739.1773
2740.9818
2742.7604
2744.514
2746.2434
2747.9496
2749.6337
2751.2975
2752.9437
2754.5771
2756.2061
2757.8468
2759.5289
2761.3093
2763.2958
2765.6931
2768.8297
2772.7975
)
;
    }
    symmetryleft
    {
        type            symmetry;
    }
    symmetryrigt
    {
        type            symmetry;
    }
    Outlet
    {
        type            calculated;
        value           nonuniform List<scalar> 
50
(
2.3975721e-29
2.3975721e-29
2.3975721e-29
2.3975721e-29
2.3975721e-29
2.3975721e-29
2.3975721e-29
2.3975721e-29
2.3975721e-29
2.3975721e-29
2.3975721e-29
2.3975721e-29
2.3975721e-29
2.3975721e-29
2.3975721e-29
2.3975721e-29
2.3975721e-29
2.3975721e-29
2.3975721e-29
2.3975721e-29
2.3975721e-29
2.3975721e-29
2.3975721e-29
2.3975721e-29
2.3975721e-29
2.3975721e-29
2.3975721e-29
2.3975721e-29
2.3975721e-29
2.3975721e-29
2.3975721e-29
2.3975721e-29
2.3975721e-29
2.3975721e-29
2.3975721e-29
2.3975721e-29
2.3975721e-29
2.3975721e-29
2.3975721e-29
2.3975721e-29
2.3975721e-29
2.3975721e-29
2.3975721e-29
2.3975721e-29
2.3975721e-29
2.3975721e-29
2.3975721e-29
2.3975721e-29
2.3975721e-29
2.3975721e-29
)
;
    }
    Inlet
    {
        type            calculated;
        value           uniform 0;
    }
    fluid_to_cilcen
    {
        type            calculated;
        value           nonuniform List<scalar> 
100
(
421.51729
421.51645
421.51561
421.51477
421.51393
421.51309
421.51225
421.51142
421.51058
421.50974
421.5089
421.50806
421.50722
421.50638
421.50554
421.5047
421.50386
421.50302
421.50218
421.50135
421.50051
421.49967
421.49883
421.49799
421.49715
421.49631
421.49547
421.49463
421.4938
421.49296
421.49212
421.49128
421.49044
421.4896
421.48876
421.48792
421.48708
421.48625
421.48541
421.48457
421.48373
421.48289
421.48205
421.48121
421.48037
421.47954
421.4787
421.47786
421.47702
421.47618
421.47534
421.4745
421.47366
421.47283
421.47199
421.47115
421.47031
421.46947
421.46863
421.46779
421.46695
421.46612
421.46528
421.46444
421.4636
421.46276
421.46192
421.46108
421.46024
421.45941
421.45857
421.45773
421.45689
421.45605
421.45521
421.45437
421.45354
421.4527
421.45186
421.45102
421.45018
421.44934
421.4485
421.44766
421.44683
421.44599
421.44515
421.44431
421.44347
421.44263
421.44179
421.44096
421.44012
421.43928
421.43844
421.4376
421.43676
421.43592
421.43508
421.43425
)
;
    }
}


// ************************************************************************* //
