/*--------------------------------*- C++ -*----------------------------------*\
| =========                 |                                                 |
| \\      /  F ield         | OpenFOAM: The Open Source CFD Toolbox           |
|  \\    /   O peration     | Version:  3.0.1                                 |
|   \\  /    A nd           | Web:      www.OpenFOAM.org                      |
|    \\/     M anipulation  |                                                 |
\*---------------------------------------------------------------------------*/
FoamFile
{
    version     2.0;
    format      ascii;
    class       volScalarField;
    location    "3500/fluid";
    object      Qr;
}
// * * * * * * * * * * * * * * * * * * * * * * * * * * * * * * * * * * * * * //

dimensions      [1 0 -3 0 0 0 0];

internalField   uniform 0;

boundaryField
{
    Outterwall
    {
        type            calculated;
        value           nonuniform List<scalar> 
100
(
221.29838
615.43065
956.07804
1220.2601
1415.1187
1556.9649
1660.8824
1738.4704
1797.8405
1844.5219
1882.2187
1913.4265
1939.839
1962.624
1982.601
2000.3561
2016.3176
2030.8046
2044.0597
2056.2711
2067.5869
2078.126
2087.985
2097.2434
2105.9677
2114.2137
2122.0291
2129.4546
2136.5256
2143.2728
2149.7231
2155.9002
2161.8253
2167.5168
2172.9917
2178.2648
2183.3498
2188.2588
2193.0029
2197.5922
2202.0359
2206.3424
2210.5195
2214.5743
2218.5132
2222.3424
2226.0673
2229.6933
2233.2251
2236.6671
2240.0236
2243.2984
2246.4952
2249.6174
2252.6681
2255.6504
2258.5671
2261.4208
2264.214
2266.9491
2269.6282
2272.2535
2274.827
2277.3506
2279.8259
2282.2548
2284.6388
2286.9794
2289.2782
2291.5363
2293.7553
2295.9364
2298.0806
2300.1892
2302.2633
2304.3039
2306.312
2308.2885
2310.2345
2312.1506
2314.0379
2315.897
2317.7288
2319.5341
2321.3136
2323.068
2324.7983
2326.5053
2328.1902
2329.8549
2331.5019
2333.1361
2334.766
2336.4075
2338.0904
2339.8717
2341.8591
2344.2572
2347.3946
2351.3632
)
;
    }
    symmetryleft
    {
        type            symmetry;
    }
    symmetryrigt
    {
        type            symmetry;
    }
    Outlet
    {
        type            calculated;
        value           nonuniform List<scalar> 
50
(
2.3975721e-29
2.3975721e-29
2.3975721e-29
2.3975721e-29
2.3975721e-29
2.3975721e-29
2.3975721e-29
2.3975721e-29
2.3975721e-29
2.3975721e-29
2.3975721e-29
2.3975721e-29
2.3975721e-29
2.3975721e-29
2.3975721e-29
2.3975721e-29
2.3975721e-29
2.3975721e-29
2.3975721e-29
2.3975721e-29
2.3975721e-29
2.3975721e-29
2.3975721e-29
2.3975721e-29
2.3975721e-29
2.3975721e-29
2.3975721e-29
2.3975721e-29
2.3975721e-29
2.3975721e-29
2.3975721e-29
2.3975721e-29
2.3975721e-29
2.3975721e-29
2.3975721e-29
2.3975721e-29
2.3975721e-29
2.3975721e-29
2.3975721e-29
2.3975721e-29
2.3975721e-29
2.3975721e-29
2.3975721e-29
2.3975721e-29
2.3975721e-29
2.3975721e-29
2.3975721e-29
2.3975721e-29
2.3975721e-29
2.3975721e-29
)
;
    }
    Inlet
    {
        type            calculated;
        value           nonuniform List<scalar> 
50
(
-6.3277868e-30
-6.3277867e-30
-6.3277865e-30
-6.3277861e-30
-6.3277857e-30
-6.3277853e-30
-6.3277847e-30
-6.3277842e-30
-6.3277838e-30
-6.3277833e-30
-6.327783e-30
-6.3277827e-30
-6.3277824e-30
-6.3277823e-30
-6.3277822e-30
-6.3277821e-30
-6.327782e-30
-6.327782e-30
-6.327782e-30
-6.327782e-30
-6.327782e-30
-6.327782e-30
-6.327782e-30
-6.327782e-30
-6.327782e-30
-6.327782e-30
-6.327782e-30
-6.327782e-30
-6.327782e-30
-6.327782e-30
-6.327782e-30
-6.327782e-30
-6.327782e-30
-6.327782e-30
-6.327782e-30
-6.327782e-30
-6.327782e-30
-6.327782e-30
-6.327782e-30
-6.327782e-30
-6.327782e-30
-6.327782e-30
-6.327782e-30
-6.327782e-30
-6.327782e-30
-6.327782e-30
-6.327782e-30
-6.327782e-30
-6.327782e-30
-6.327782e-30
)
;
    }
    fluid_to_cilcen
    {
        type            calculated;
        value           nonuniform List<scalar> 
100
(
-221.29838
-615.43065
-956.07804
-1220.2601
-1415.1187
-1556.9649
-1660.8824
-1738.4704
-1797.8405
-1844.5219
-1882.2187
-1913.4265
-1939.839
-1962.624
-1982.601
-2000.3561
-2016.3176
-2030.8046
-2044.0597
-2056.2711
-2067.5869
-2078.126
-2087.985
-2097.2434
-2105.9677
-2114.2137
-2122.0291
-2129.4546
-2136.5256
-2143.2728
-2149.7231
-2155.9002
-2161.8252
-2167.5168
-2172.9917
-2178.2648
-2183.3498
-2188.2587
-2193.0029
-2197.5922
-2202.0359
-2206.3424
-2210.5195
-2214.5743
-2218.5132
-2222.3424
-2226.0673
-2229.6933
-2233.2251
-2236.6671
-2240.0236
-2243.2984
-2246.4952
-2249.6174
-2252.6681
-2255.6504
-2258.5671
-2261.4208
-2264.214
-2266.949
-2269.6282
-2272.2535
-2274.827
-2277.3506
-2279.8259
-2282.2548
-2284.6388
-2286.9794
-2289.2781
-2291.5363
-2293.7553
-2295.9363
-2298.0806
-2300.1892
-2302.2633
-2304.3039
-2306.312
-2308.2885
-2310.2345
-2312.1506
-2314.0379
-2315.897
-2317.7288
-2319.5341
-2321.3136
-2323.068
-2324.7983
-2326.5053
-2328.1902
-2329.8548
-2331.5019
-2333.1361
-2334.766
-2336.4075
-2338.0904
-2339.8717
-2341.8591
-2344.2572
-2347.3946
-2351.3632
)
;
    }
}


// ************************************************************************* //
