/*--------------------------------*- C++ -*----------------------------------*\
| =========                 |                                                 |
| \\      /  F ield         | OpenFOAM: The Open Source CFD Toolbox           |
|  \\    /   O peration     | Version:  3.0.1                                 |
|   \\  /    A nd           | Web:      www.OpenFOAM.org                      |
|    \\/     M anipulation  |                                                 |
\*---------------------------------------------------------------------------*/
FoamFile
{
    version     2.0;
    format      ascii;
    class       volScalarField;
    location    "10000/fluid";
    object      Qr;
}
// * * * * * * * * * * * * * * * * * * * * * * * * * * * * * * * * * * * * * //

dimensions      [1 0 -3 0 0 0 0];

internalField   uniform 0;

boundaryField
{
    LeftWedge
    {
        type            wedge;
    }
    RightWedge
    {
        type            wedge;
    }
    Inlet
    {
        type            calculated;
        value           uniform -6.3277868e-30;
    }
    Outlet
    {
        type            calculated;
        value           nonuniform List<scalar> 
40
(
2.3960387e-29
2.3960414e-29
2.396042e-29
2.3960422e-29
2.3960422e-29
2.3960422e-29
2.3960422e-29
2.3960422e-29
2.3960422e-29
2.3960422e-29
2.3960422e-29
2.3960422e-29
2.3960422e-29
2.3960422e-29
2.3960422e-29
2.3960422e-29
2.3960422e-29
2.3960422e-29
2.3960422e-29
2.3960422e-29
2.3960422e-29
2.3960422e-29
2.3960422e-29
2.3960422e-29
2.3960422e-29
2.3960422e-29
2.3960422e-29
2.3960422e-29
2.3960422e-29
2.3960422e-29
2.3960422e-29
2.3960422e-29
2.3960422e-29
2.3960422e-29
2.3960422e-29
2.3960422e-29
2.3960422e-29
2.3960422e-29
2.3960422e-29
2.3960422e-29
)
;
    }
    Outterwall
    {
        type            calculated;
        value           nonuniform List<scalar> 
100
(
1321.825
1427.4974
1529.6962
1616.2924
1687.4179
1745.6094
1793.58
1833.6205
1867.5206
1896.6355
1921.9809
1944.3179
1964.2204
1982.1254
1998.3698
2013.2161
2026.8721
2039.5039
2051.2461
2062.2093
2072.4847
2082.1491
2091.2671
2099.8936
2108.0761
2115.8554
2123.2671
2130.3423
2137.1084
2143.5896
2149.8075
2155.7814
2161.5285
2167.0642
2172.4026
2177.5564
2182.5371
2187.3551
2192.0202
2196.5409
2200.9255
2205.1814
2209.3153
2213.3336
2217.2422
2221.0464
2224.7514
2228.3619
2231.8821
2235.3162
2238.6681
2241.9412
2245.139
2248.2646
2251.321
2254.3109
2257.237
2260.1018
2262.9075
2265.6565
2268.3508
2270.9923
2273.583
2276.1247
2278.619
2281.0675
2283.4718
2285.8333
2288.1535
2290.4336
2292.6749
2294.8785
2297.0458
2299.1777
2301.2753
2303.3396
2305.3716
2307.3722
2309.3423
2311.2827
2313.1943
2315.0779
2316.9342
2318.7641
2320.5682
2322.3476
2324.1031
2325.8362
2327.5488
2329.2441
2330.9279
2332.6104
2334.3105
2336.0626
2337.9279
2340.0074
2342.4475
2345.3675
2348.8185
2351.5623
)
;
    }
    fluid_to_solid
    {
        type            calculated;
        value           nonuniform List<scalar> 
100
(
-1321.8267
-1427.4991
-1529.698
-1616.2942
-1687.4198
-1745.6113
-1793.5819
-1833.6224
-1867.5225
-1896.6374
-1921.9828
-1944.3197
-1964.2222
-1982.1273
-1998.3716
-2013.218
-2026.8739
-2039.5057
-2051.2479
-2062.211
-2072.4865
-2082.1509
-2091.2688
-2099.8954
-2108.0779
-2115.8572
-2123.2688
-2130.344
-2137.1101
-2143.5913
-2149.8092
-2155.7831
-2161.5301
-2167.0658
-2172.4042
-2177.558
-2182.5387
-2187.3567
-2192.0217
-2196.5425
-2200.9271
-2205.1829
-2209.3168
-2213.3351
-2217.2437
-2221.048
-2224.753
-2228.3634
-2231.8836
-2235.3177
-2238.6696
-2241.9427
-2245.1405
-2248.2661
-2251.3224
-2254.3124
-2257.2385
-2260.1032
-2262.909
-2265.6579
-2268.3522
-2270.9937
-2273.5844
-2276.1261
-2278.6204
-2281.0689
-2283.4732
-2285.8347
-2288.1548
-2290.4349
-2292.6762
-2294.8799
-2297.0471
-2299.179
-2301.2766
-2303.3409
-2305.3729
-2307.3735
-2309.3436
-2311.284
-2313.1956
-2315.0792
-2316.9355
-2318.7653
-2320.5695
-2322.3488
-2324.1043
-2325.8374
-2327.55
-2329.2454
-2330.9292
-2332.6117
-2334.3117
-2336.0638
-2337.9291
-2340.0086
-2342.4486
-2345.3686
-2348.8196
-2351.5634
)
;
    }
}


// ************************************************************************* //
