/*--------------------------------*- C++ -*----------------------------------*\
| =========                 |                                                 |
| \\      /  F ield         | OpenFOAM: The Open Source CFD Toolbox           |
|  \\    /   O peration     | Version:  3.0.1                                 |
|   \\  /    A nd           | Web:      www.OpenFOAM.org                      |
|    \\/     M anipulation  |                                                 |
\*---------------------------------------------------------------------------*/
FoamFile
{
    version     2.0;
    format      ascii;
    class       volScalarField;
    location    "10000/fluid";
    object      rho;
}
// * * * * * * * * * * * * * * * * * * * * * * * * * * * * * * * * * * * * * //

dimensions      [1 -3 0 0 0 0 0];

internalField   nonuniform List<scalar> 
4000
(
0.89464678
1.0003577
1.0849641
1.1409228
1.1728646
1.1891272
1.1966679
1.1998884
1.2011614
1.2016279
1.2017862
1.201836
1.2018504
1.2018543
1.2018553
1.2018555
1.2018555
1.2018555
1.2018555
1.2018555
1.2018555
1.2018555
1.2018555
1.2018555
1.2018555
1.2018555
1.2018555
1.2018555
1.2018555
1.2018555
1.2018555
1.2018555
1.2018555
1.2018555
1.2018555
1.2018555
1.2018555
1.2018555
1.2018555
1.2018555
0.86401296
0.94382851
1.023799
1.0923025
1.1416913
1.1720557
1.1883834
1.1962482
1.199697
1.2010856
1.2016007
1.2017769
1.2018323
1.2018484
1.2018527
1.2018537
1.201854
1.201854
1.201854
1.201854
1.201854
1.201854
1.201854
1.201854
1.201854
1.201854
1.201854
1.201854
1.201854
1.201854
1.201854
1.201854
1.201854
1.201854
1.201854
1.201854
1.201854
1.201854
1.201854
1.201854
0.84831073
0.91814602
0.99066861
1.0588145
1.1146079
1.1539218
1.1779709
1.1909744
1.1972967
1.2000934
1.2012259
1.2016467
1.2017903
1.2018352
1.2018481
1.2018515
1.2018523
1.2018525
1.2018525
1.2018525
1.2018525
1.2018525
1.2018525
1.2018525
1.2018525
1.2018525
1.2018525
1.2018525
1.2018525
1.2018525
1.2018525
1.2018525
1.2018525
1.2018525
1.2018525
1.2018525
1.2018525
1.2018525
1.2018525
1.2018525
0.83706514
0.9016891
0.9692852
1.0351817
1.0928643
1.1371997
1.1670092
1.1847072
1.1941118
1.1986363
1.2006212
1.2014179
1.2017107
1.2018093
1.2018396
1.2018482
1.2018504
1.2018509
1.201851
1.201851
1.201851
1.201851
1.201851
1.201851
1.201851
1.201851
1.201851
1.201851
1.201851
1.201851
1.201851
1.201851
1.201851
1.201851
1.201851
1.201851
1.201851
1.201851
1.201851
1.201851
0.82851134
0.8896467
0.9537457
1.0173985
1.0753169
1.1224285
1.1563344
1.1779832
1.1903614
1.1967614
1.1997744
1.2010706
1.2015808
1.2017644
1.2018248
1.2018429
1.2018479
1.2018492
1.2018495
1.2018495
1.2018495
1.2018495
1.2018495
1.2018495
1.2018495
1.2018495
1.2018495
1.2018495
1.2018495
1.2018495
1.2018495
1.2018495
1.2018495
1.2018495
1.2018495
1.2018495
1.2018495
1.2018495
1.2018495
1.2018495
0.82182451
0.88033365
0.94173424
1.0033857
1.0608952
1.1095309
1.1463232
1.1711787
1.1862625
1.1945501
1.1986983
1.200596
1.2013903
1.2016944
1.2018007
1.2018347
1.2018446
1.2018472
1.2018479
1.201848
1.201848
1.201848
1.201848
1.201848
1.201848
1.201848
1.201848
1.201848
1.201848
1.201848
1.201848
1.201848
1.201848
1.201848
1.201848
1.201848
1.201848
1.201848
1.201848
1.201848
0.81647368
0.87287942
0.93208449
0.99197001
1.0488071
1.0982495
1.137088
1.1645163
1.1819885
1.1920906
1.1974206
1.1999946
1.2011331
1.201594
1.2017645
1.2018221
1.2018399
1.2018449
1.2018462
1.2018465
1.2018465
1.2018465
1.2018465
1.2018465
1.2018465
1.2018465
1.2018465
1.2018465
1.2018465
1.2018465
1.2018465
1.2018465
1.2018465
1.2018465
1.2018465
1.2018465
1.2018465
1.2018465
1.2018465
1.2018465
0.81210032
0.86676031
0.92412038
0.98244005
1.0385006
1.0883206
1.1286218
1.1581132
1.1776635
1.1894624
1.195976
1.1992742
1.2008065
1.2014591
1.2017133
1.2018038
1.2018332
1.2018419
1.2018443
1.2018449
1.201845
1.201845
1.201845
1.201845
1.201845
1.201845
1.201845
1.201845
1.201845
1.201845
1.201845
1.201845
1.201845
1.201845
1.201845
1.201845
1.201845
1.201845
1.201845
1.201845
0.80845581
0.86163286
0.91740956
0.97433203
1.0295851
1.0795169
1.1208696
1.1520225
1.1733707
1.186731
1.1943998
1.198447
1.2004114
1.2012871
1.2016448
1.2017784
1.201824
1.2018382
1.2018422
1.2018432
1.2018435
1.2018435
1.2018435
1.2018435
1.2018435
1.2018435
1.2018435
1.2018435
1.2018435
1.2018435
1.2018435
1.2018435
1.2018435
1.2018435
1.2018435
1.2018435
1.2018435
1.2018435
1.2018435
1.2018435
0.80536502
0.85726107
0.9116584
0.96732685
1.021778
1.0716528
1.1137616
1.1462605
1.1691631
1.1839474
1.1927242
1.1975274
1.1999511
1.2010768
1.201557
1.2017445
1.2018115
1.2018333
1.2018397
1.2018415
1.2018419
1.201842
1.201842
1.201842
1.201842
1.201842
1.201842
1.201842
1.201842
1.201842
1.201842
1.201842
1.201842
1.201842
1.201842
1.201842
1.201842
1.201842
1.201842
1.201842
0.80270274
0.85347758
0.90665925
0.96119613
1.0148691
1.0645783
1.1072275
1.1408235
1.1650721
1.1811494
1.1909774
1.1965302
1.1994304
1.2008284
1.2014486
1.2017009
1.2017949
1.2018269
1.2018368
1.2018396
1.2018403
1.2018405
1.2018405
1.2018405
1.2018405
1.2018405
1.2018405
1.2018405
1.2018405
1.2018405
1.2018405
1.2018405
1.2018405
1.2018405
1.2018405
1.2018405
1.2018405
1.2018405
1.2018405
1.2018405
0.80037798
0.8501608
0.90226082
0.95577153
1.008699
1.0581728
1.1012024
1.1356974
1.1611153
1.1783644
1.1891827
1.1954694
1.1988554
1.2005429
1.2013188
1.2016467
1.2017737
1.2018187
1.2018332
1.2018375
1.2018387
1.201839
1.201839
1.201839
1.201839
1.201839
1.201839
1.201839
1.201839
1.201839
1.201839
1.201839
1.201839
1.201839
1.201839
1.201839
1.201839
1.201839
1.201839
1.201839
0.79832362
0.84722058
0.89835031
0.95092602
1.0031444
1.0523384
1.0956282
1.1308635
1.1573006
1.1756118
1.1873591
1.1943579
1.1982324
1.2002222
1.2011674
1.201581
1.2017472
1.2018083
1.2018289
1.2018352
1.201837
1.2018374
1.2018375
1.2018375
1.2018375
1.2018375
1.2018375
1.2018375
1.2018375
1.2018375
1.2018375
1.2018375
1.2018375
1.2018375
1.2018375
1.2018375
1.2018375
1.2018375
1.2018375
1.2018375
0.7964893
0.84458882
0.89484192
0.94656185
0.99810829
1.0469955
1.090454
1.1263013
1.1536302
1.172905
1.1855215
1.1932069
1.1975675
1.1998686
1.2009945
1.2015033
1.2017148
1.2017955
1.2018236
1.2018325
1.2018351
1.2018358
1.201836
1.201836
1.201836
1.201836
1.201836
1.201836
1.201836
1.201836
1.201836
1.201836
1.201836
1.201836
1.201836
1.201836
1.201836
1.201836
1.201836
1.201836
0.79483666
0.84221325
0.89166927
0.9426026
0.99351359
1.0420783
1.0856356
1.1219903
1.1501024
1.1702528
1.1836817
1.1920264
1.1968669
1.1994847
1.2008008
1.2014133
1.2016761
1.2017797
1.2018171
1.2018295
1.2018332
1.2018342
1.2018345
1.2018345
1.2018345
1.2018345
1.2018345
1.2018345
1.2018345
1.2018345
1.2018345
1.2018345
1.2018345
1.2018345
1.2018345
1.2018345
1.2018345
1.2018345
1.2018345
1.2018345
0.79333601
0.84005309
0.88878023
0.93898763
0.98929804
1.0375326
1.0811346
1.1179109
1.1467133
1.1676609
1.1818487
1.1908246
1.1961361
1.1990734
1.2005871
1.2013109
1.2016308
1.2017608
1.2018093
1.2018259
1.2018311
1.2018325
1.2018329
1.201833
1.201833
1.201833
1.201833
1.201833
1.201833
1.201833
1.201833
1.201833
1.201833
1.201833
1.201833
1.201833
1.201833
1.201833
1.201833
1.201833
0.79196403
0.83807608
0.88613328
0.93566818
0.98541088
1.033313
1.0769179
1.1140446
1.1434574
1.1651324
1.1800296
1.1896085
1.1953803
1.1986374
1.2003543
1.2011962
1.2015784
1.2017385
1.2018
1.2018217
1.2018287
1.2018308
1.2018314
1.2018315
1.2018315
1.2018315
1.2018315
1.2018315
1.2018315
1.2018315
1.2018315
1.2018315
1.2018315
1.2018315
1.2018315
1.2018315
1.2018315
1.2018315
1.2018315
1.2018315
0.79070218
0.83625637
0.88369493
0.93260462
0.9818103
1.0293815
1.0729566
1.1103746
1.1403288
1.1626689
1.1782296
1.1883839
1.194604
1.1981795
1.2001037
1.2010693
1.201519
1.2017125
1.2017891
1.2018169
1.2018262
1.201829
1.2018298
1.20183
1.20183
1.20183
1.20183
1.20183
1.20183
1.2018301
1.2018301
1.2018301
1.2018301
1.20183
1.20183
1.20183
1.20183
1.20183
1.20183
1.20183
0.78953548
0.83457298
0.88143784
0.92976436
0.97846155
1.0257058
1.0692255
1.1068853
1.1373212
1.1602708
1.1764524
1.1871556
1.1938112
1.1977023
1.1998365
1.2009306
1.2014522
1.2016825
1.2017762
1.2018113
1.2018233
1.2018271
1.2018282
1.2018285
1.2018285
1.2018285
1.2018285
1.2018285
1.2018286
1.2018286
1.2018286
1.2018286
1.2018286
1.2018286
1.2018285
1.2018285
1.2018285
1.2018285
1.2018285
1.2018285
0.78845172
0.83300869
0.87933951
0.92712037
0.97533549
1.0222585
1.0657028
1.1035626
1.1344281
1.1579374
1.174701
1.1859275
1.1930055
1.1972081
1.199554
1.2007805
1.2013783
1.2016486
1.2017614
1.2018048
1.2018201
1.201825
1.2018265
1.2018269
1.201827
1.201827
1.201827
1.2018271
1.2018271
1.2018271
1.2018271
1.2018271
1.2018271
1.2018271
1.2018271
1.201827
1.201827
1.201827
1.201827
1.201827
0.7874408
0.83154922
0.87738116
0.92465
0.97240748
1.019016
1.0623693
1.1003938
1.1316433
1.1556677
1.1729773
1.1847029
1.1921899
1.1966994
1.1992574
1.2006195
1.2012971
1.2016104
1.2017445
1.2017973
1.2018165
1.2018229
1.2018248
1.2018254
1.2018255
1.2018255
1.2018255
1.2018256
1.2018256
1.2018256
1.2018256
1.2018256
1.2018256
1.2018256
1.2018256
1.2018255
1.2018255
1.2018255
1.2018255
1.2018255
0.78649432
0.83018263
0.87554703
0.92233412
0.96965656
1.0159581
1.0592081
1.0973673
1.1289609
1.1534602
1.1712827
1.1834842
1.1913672
1.196178
1.1989481
1.2004482
1.2012088
1.201568
1.2017252
1.2017888
1.2018125
1.2018205
1.2018231
1.2018238
1.201824
1.201824
1.201824
1.2018241
1.2018241
1.2018241
1.2018241
1.2018241
1.2018241
1.2018241
1.2018241
1.201824
1.201824
1.201824
1.201824
1.201824
0.7856052
0.82889884
0.87382378
0.92015647
0.96706477
1.0130672
1.0562044
1.0944725
1.126375
1.1513131
1.169618
1.1822737
1.1905395
1.1956459
1.1986271
1.2002671
1.2011135
1.2015213
1.2017037
1.2017791
1.2018079
1.201818
1.2018212
1.2018222
1.2018225
1.2018225
1.2018225
1.2018226
1.2018226
1.2018226
1.2018226
1.2018226
1.2018226
1.2018226
1.2018226
1.2018226
1.2018225
1.2018225
1.2018225
1.2018225
0.78476745
0.82768924
0.87220002
0.9181031
0.96461661
1.0103279
1.0533451
1.0917001
1.1238802
1.1492244
1.1679835
1.181073
1.189709
1.1951048
1.1982957
1.2000769
1.2010116
1.2014702
1.2016797
1.2017682
1.2018028
1.2018152
1.2018193
1.2018206
1.2018209
1.201821
1.201821
1.2018211
1.2018211
1.2018211
1.2018211
1.2018211
1.2018211
1.2018211
1.2018211
1.2018211
1.201821
1.201821
1.201821
1.201821
0.78397592
0.82654649
0.87066596
0.91616198
0.96229863
1.0077268
1.0506184
1.0890414
1.1214715
1.1471921
1.1663795
1.1798833
1.1888772
1.1945563
1.1979549
1.1998782
1.2009031
1.2014149
1.2016531
1.201756
1.2017971
1.2018122
1.2018173
1.2018189
1.2018194
1.2018195
1.2018195
1.2018196
1.2018196
1.2018196
1.2018196
1.2018196
1.2018196
1.2018196
1.2018196
1.2018196
1.2018196
1.2018195
1.2018195
1.2018195
0.78322619
0.82546421
0.86921312
0.9143227
0.9600991
1.0052522
1.048014
1.0864886
1.1191441
1.1452142
1.1648059
1.1787058
1.1880457
1.1940015
1.1976058
1.1996714
1.2007883
1.2013553
1.201624
1.2017425
1.2017908
1.2018089
1.2018152
1.2018172
1.2018178
1.201818
1.201818
1.2018181
1.2018181
1.2018181
1.2018181
1.2018181
1.2018181
1.2018181
1.2018181
1.2018181
1.2018181
1.201818
1.201818
1.201818
0.78251443
0.8244369
0.86783414
0.91257614
0.95800775
1.0028936
1.0455226
1.0840346
1.1168934
1.1432885
1.1632624
1.1775412
1.1872157
1.1934419
1.1972492
1.1994573
1.2006675
1.2012914
1.2015924
1.2017275
1.2017837
1.2018053
1.201813
1.2018155
1.2018163
1.2018165
1.2018165
1.2018166
1.2018166
1.2018166
1.2018166
1.2018166
1.2018166
1.2018166
1.2018166
1.2018166
1.2018166
1.2018166
1.2018165
1.2018165
0.78183728
0.82345974
0.86652258
0.91091431
0.95601552
1.0006418
1.0431358
1.0816729
1.1147154
1.1414131
1.1617486
1.1763901
1.1863881
1.1928784
1.196886
1.1992363
1.2005411
1.2012235
1.2015581
1.201711
1.2017759
1.2018014
1.2018106
1.2018137
1.2018147
1.201815
1.201815
1.2018151
1.2018151
1.2018151
1.2018151
1.2018151
1.2018151
1.2018151
1.2018151
1.2018151
1.2018151
1.2018151
1.2018151
1.201815
0.78119182
0.82252847
0.86527276
0.90933019
0.95411438
0.99848851
1.0408462
1.0793977
1.112606
1.139586
1.1602639
1.175253
1.185564
1.192312
1.1965171
1.1990091
1.2004092
1.2011516
1.2015212
1.201693
1.2017674
1.2017971
1.2018081
1.2018119
1.2018131
1.2018134
1.2018135
1.2018136
1.2018136
1.2018136
1.2018136
1.2018136
1.2018136
1.2018136
1.2018136
1.2018136
1.2018136
1.2018136
1.2018136
1.2018136
0.78057545
0.82163937
0.86407967
0.90781753
0.95229722
0.99642639
1.0386471
1.0772035
1.1105618
1.1378053
1.1588079
1.1741302
1.1847439
1.1917436
1.1961432
1.1987761
1.2002722
1.2010757
1.2014817
1.2016735
1.201758
1.2017924
1.2018055
1.20181
1.2018115
1.2018119
1.201812
1.201812
1.2018121
1.2018121
1.2018121
1.2018121
1.2018121
1.2018121
1.2018121
1.2018121
1.2018121
1.2018121
1.2018121
1.2018121
0.77998588
0.82078912
0.86293887
0.9063708
0.95055768
0.99444883
1.0365322
1.0750854
1.1085793
1.1360691
1.1573799
1.1730218
1.1839286
1.1911739
1.1957648
1.1985379
1.2001303
1.2009961
1.2014396
1.2016524
1.2017477
1.2017873
1.2018026
1.201808
1.2018098
1.2018104
1.2018105
1.2018105
1.2018106
1.2018106
1.2018106
1.2018106
1.2018106
1.2018106
1.2018106
1.2018106
1.2018106
1.2018106
1.2018106
1.2018106
0.77942108
0.81997476
0.8618464
0.90498505
0.94889007
0.99254989
1.0344961
1.0730389
1.1066553
1.1343756
1.1559792
1.171928
1.1831186
1.1906035
1.1953828
1.1982948
1.1999838
1.2009128
1.2013949
1.2016297
1.2017366
1.2017818
1.2017995
1.201806
1.2018081
1.2018088
1.201809
1.201809
1.2018091
1.2018091
1.2018091
1.2018091
1.2018091
1.2018091
1.2018091
1.2018091
1.2018091
1.2018091
1.2018091
1.2018091
0.77887922
0.81919366
0.86079871
0.90365586
0.94728928
0.9907242
1.0325337
1.0710598
1.104787
1.1327231
1.1546052
1.1708488
1.1823143
1.1900331
1.1949975
1.1980473
1.1998331
1.200826
1.2013477
1.2016055
1.2017245
1.2017758
1.2017962
1.2018038
1.2018064
1.2018072
1.2018075
1.2018075
1.2018076
1.2018076
1.2018076
1.2018076
1.2018076
1.2018076
1.2018076
1.2018076
1.2018076
1.2018076
1.2018076
1.2018076
0.77835866
0.81844345
0.85979261
0.90237923
0.9457507
0.9889669
1.0306404
1.0691444
1.1029715
1.13111
1.1532571
1.1697841
1.1815161
1.1894632
1.1946096
1.1977959
1.1996783
1.2007358
1.2012981
1.2015796
1.2017115
1.2017693
1.2017927
1.2018016
1.2018046
1.2018056
1.2018059
1.201806
1.2018061
1.2018061
1.2018061
1.2018061
1.2018061
1.2018061
1.2018061
1.2018061
1.2018061
1.2018061
1.2018061
1.2018061
0.77785793
0.817722
0.85882525
0.90115158
0.94427017
0.98727358
1.0288121
1.067289
1.1012063
1.1295348
1.1519344
1.168734
1.1807242
1.1888941
1.1942195
1.1975409
1.1995198
1.2006424
1.201246
1.2015521
1.2016976
1.2017622
1.201789
1.2017992
1.2018028
1.2018041
1.2018044
1.2018045
1.2018046
1.2018046
1.2018046
1.2018046
1.2018046
1.2018046
1.2018046
1.2018046
1.2018046
1.2018046
1.2018046
1.2018046
0.77737571
0.81702738
0.85789402
0.89996964
0.94284389
0.98564022
1.0270448
1.0654904
1.0994891
1.1279959
1.1506362
1.1676982
1.1799389
1.1883264
1.1938275
1.1972826
1.1993578
1.200546
1.2011916
1.2015229
1.2016827
1.2017547
1.2017849
1.2017967
1.201801
1.2018024
1.2018029
1.201803
1.2018031
1.2018031
1.2018031
1.2018031
1.2018031
1.2018031
1.2018031
1.2018031
1.2018031
1.2018031
1.2018031
1.2018031
0.77691079
0.81635785
0.85699658
0.89883048
0.94146844
0.98406316
1.0253351
1.0637457
1.0978175
1.126492
1.1493619
1.1666766
1.1791604
1.1877604
1.1934342
1.1970215
1.1991925
1.2004465
1.2011349
1.2014923
1.2016668
1.2017466
1.2017806
1.2017941
1.2017991
1.2018008
1.2018013
1.2018015
1.2018016
1.2018016
1.2018016
1.2018016
1.2018016
1.2018016
1.2018016
1.2018016
1.2018016
1.2018016
1.2018016
1.2018016
0.77646207
0.81571181
0.8561308
0.8977314
0.94014068
0.98253903
1.0236797
1.062052
1.0961894
1.1250217
1.1481108
1.1656691
1.1783888
1.1871963
1.1930398
1.1967578
1.1990242
1.2003443
1.201076
1.20146
1.2016499
1.2017379
1.201776
1.2017914
1.2017971
1.2017991
1.2017998
1.2018
1.2018
1.2018001
1.2018001
1.2018001
1.2018001
1.2018001
1.2018001
1.2018001
1.2018001
1.2018001
1.2018001
1.2018001
0.77602857
0.81508782
0.85529472
0.89666996
0.93885775
0.98106477
1.0220756
1.0604067
1.094603
1.1235837
1.1468823
1.1646755
1.1776243
1.1866345
1.1926446
1.1964917
1.1988531
1.2002394
1.2010149
1.2014262
1.201632
1.2017287
1.2017711
1.2017885
1.2017951
1.2017975
1.2017982
1.2017985
1.2017985
1.2017986
1.2017986
1.2017986
1.2017986
1.2017986
1.2017986
1.2017986
1.2017986
1.2017986
1.2017986
1.2017986
0.77560937
0.81448457
0.85448657
0.89564392
0.93761703
0.97963755
1.0205201
1.0588074
1.0930562
1.1221768
1.1456757
1.1636955
1.1768668
1.1860751
1.192249
1.1962237
1.1986793
1.200132
1.2009517
1.2013908
1.2016131
1.2017188
1.2017659
1.2017855
1.201793
1.2017958
1.2017967
1.201797
1.201797
1.2017971
1.2017971
1.2017971
1.2017971
1.2017971
1.2017971
1.2017971
1.2017971
1.2017971
1.2017971
1.2017971
0.77520365
0.81390084
0.85370472
0.89465121
0.93641609
0.97825476
1.0190106
1.0572519
1.0915475
1.1207999
1.1444904
1.1627289
1.1761165
1.1855184
1.1918531
1.1959538
1.1985032
1.2000221
1.2008864
1.201354
1.2015932
1.2017084
1.2017604
1.2017823
1.2017909
1.201794
1.2017951
1.2017954
1.2017955
1.2017956
1.2017956
1.2017956
1.2017956
1.2017956
1.2017956
1.2017956
1.2017956
1.2017956
1.2017956
1.2017956
0.77481062
0.81333551
0.85294766
0.89368996
0.93525273
0.976914
1.0175447
1.0557381
1.0900752
1.1194519
1.1433257
1.1617755
1.1753734
1.1849645
1.1914573
1.1956824
1.1983248
1.1999101
1.2008193
1.2013156
1.2015723
1.2016973
1.2017545
1.2017789
1.2017886
1.2017922
1.2017935
1.2017939
1.201794
1.2017941
1.2017941
1.2017941
1.2017941
1.2017941
1.2017941
1.2017941
1.2017941
1.2017941
1.2017941
1.2017941
0.77442959
0.81278758
0.85221403
0.89275843
0.93412491
0.97561306
1.0161203
1.054264
1.0886377
1.1181316
1.1421812
1.1608351
1.1746375
1.1844136
1.1910617
1.1954096
1.1981444
1.1997958
1.2007502
1.2012759
1.2015504
1.2016856
1.2017482
1.2017753
1.2017863
1.2017904
1.2017919
1.2017924
1.2017925
1.2017926
1.2017926
1.2017926
1.2017926
1.2017926
1.2017926
1.2017926
1.2017926
1.2017926
1.2017926
1.2017926
0.77405992
0.8122561
0.85150255
0.89185501
0.93303072
0.97434988
1.0147353
1.0528279
1.0872337
1.1168382
1.1410562
1.1599074
1.1739087
1.1838658
1.1906666
1.1951357
1.1979621
1.1996796
1.2006794
1.2012347
1.2015275
1.2016733
1.2017416
1.2017716
1.2017839
1.2017886
1.2017903
1.2017908
1.201791
1.2017911
1.2017911
1.2017911
1.2017911
1.2017911
1.2017911
1.2017911
1.2017911
1.2017911
1.2017911
1.2017911
0.773701
0.8117402
0.85081205
0.89097822
0.93196844
0.97312254
1.0133878
1.051428
1.0858617
1.1155706
1.1399501
1.1589922
1.1731871
1.1833213
1.190272
1.1948608
1.1977781
1.1995614
1.2006068
1.2011921
1.2015036
1.2016603
1.2017346
1.2017677
1.2017814
1.2017867
1.2017886
1.2017893
1.2017895
1.2017895
1.2017896
1.2017896
1.2017896
1.2017896
1.2017896
1.2017896
1.2017896
1.2017896
1.2017896
1.2017896
0.77335227
0.81123906
0.85014145
0.89012669
0.93093642
0.97192929
1.0120761
1.0500627
1.0845204
1.114328
1.1388624
1.1580892
1.1724726
1.18278
1.1898782
1.1945851
1.1975924
1.1994415
1.2005326
1.2011482
1.2014787
1.2016468
1.2017273
1.2017635
1.2017788
1.2017848
1.201787
1.2017877
1.201788
1.201788
1.2017881
1.2017881
1.2017881
1.2017881
1.2017881
1.2017881
1.2017881
1.2017881
1.2017881
1.2017881
0.77301324
0.81075196
0.84948974
0.88929914
0.92993318
0.97076846
1.0107984
1.0487305
1.0832087
1.1131095
1.1377926
1.1571982
1.1717652
1.1822422
1.1894852
1.1943088
1.1974054
1.1993199
1.2004568
1.201103
1.2014529
1.2016325
1.2017195
1.2017591
1.201776
1.2017828
1.2017853
1.2017862
1.2017865
1.2017865
1.2017866
1.2017866
1.2017866
1.2017866
1.2017866
1.2017866
1.2017866
1.2017866
1.2017866
1.2017866
0.77268341
0.81027819
0.84885597
0.88849441
0.92895731
0.96963853
1.0095533
1.04743
1.0819254
1.1119142
1.1367402
1.156319
1.1710649
1.1817078
1.1890933
1.1940319
1.1972171
1.1991966
1.2003795
1.2010565
1.2014262
1.2016177
1.2017114
1.2017546
1.2017732
1.2017807
1.2017836
1.2017846
1.2017849
1.201785
1.2017851
1.2017851
1.2017851
1.2017851
1.2017851
1.2017851
1.2017851
1.2017851
1.2017851
1.2017851
0.77236234
0.8098171
0.8482393
0.88771137
0.9280075
0.96853805
1.0083392
1.0461599
1.0806694
1.1107415
1.1357048
1.1554512
1.1703715
1.1811769
1.1887024
1.1937547
1.1970275
1.1990719
1.2003007
1.2010088
1.2013985
1.2016022
1.2017029
1.2017498
1.2017703
1.2017786
1.2017819
1.201783
1.2017834
1.2017835
1.2017836
1.2017836
1.2017836
1.2017836
1.2017836
1.2017836
1.2017836
1.2017836
1.2017836
1.2017836
0.77204962
0.80936811
0.8476389
0.88694902
0.92708254
0.96746568
1.0071549
1.044919
1.0794398
1.1095905
1.1346857
1.1545948
1.169685
1.1806496
1.1883128
1.1934772
1.196837
1.1989459
1.2002205
1.20096
1.2013699
1.201586
1.2016939
1.2017447
1.2017672
1.2017765
1.2017801
1.2017814
1.2017819
1.201782
1.2017821
1.2017821
1.2017821
1.2017821
1.2017821
1.2017821
1.2017821
1.2017821
1.2017821
1.2017821
0.77174486
0.80893064
0.84705401
0.88620638
0.92618129
0.96642018
1.005999
1.043706
1.0782354
1.1084606
1.1336827
1.1537494
1.1690053
1.1801259
1.1879245
1.1931996
1.1966454
1.1988185
1.2001391
1.2009099
1.2013404
1.2015693
1.2016846
1.2017395
1.201764
1.2017743
1.2017783
1.2017798
1.2017803
1.2017805
1.2017806
1.2017806
1.2017806
1.2017806
1.2017806
1.2017806
1.2017806
1.2017806
1.2017806
1.2017806
0.77144771
0.80850418
0.84648394
0.88548257
0.92530269
0.96540037
1.0048704
1.0425199
1.0770555
1.107351
1.1326951
1.1529148
1.1683324
1.1796057
1.1875376
1.1929219
1.196453
1.1986899
1.2000563
1.2008588
1.20131
1.2015519
1.2016749
1.201734
1.2017607
1.201772
1.2017765
1.2017782
1.2017788
1.201779
1.2017791
1.2017791
1.2017791
1.2017791
1.2017791
1.2017791
1.2017791
1.2017791
1.2017791
1.2017791
0.77115782
0.80808823
0.84592801
0.88477675
0.92444574
0.96440513
1.0037679
1.0413596
1.0758991
1.1062611
1.1317228
1.1520908
1.1676661
1.1790892
1.1871521
1.1926443
1.1962599
1.1985602
1.1999724
1.2008065
1.2012788
1.2015339
1.2016647
1.2017282
1.2017572
1.2017697
1.2017747
1.2017766
1.2017773
1.2017775
1.2017776
1.2017776
1.2017776
1.2017776
1.2017776
1.2017776
1.2017776
1.2017776
1.2017776
1.2017776
0.77087488
0.80768233
0.84538562
0.88408813
0.92360951
0.96343343
1.0026905
1.0402241
1.0747654
1.1051904
1.1307651
1.1512772
1.1670064
1.1785764
1.1867682
1.1923668
1.196066
1.1984294
1.1998873
1.2007533
1.2012467
1.2015152
1.2016542
1.2017222
1.2017536
1.2017672
1.2017728
1.2017749
1.2017757
1.201776
1.201776
1.2017761
1.2017761
1.2017761
1.2017761
1.2017761
1.2017761
1.2017761
1.2017761
1.2017761
0.77059859
0.80728606
0.84485618
0.88341597
0.92279311
0.96248431
1.0016372
1.0391125
1.0736537
1.1041381
1.1298218
1.1504737
1.1663533
1.1780671
1.1863859
1.1920895
1.1958716
1.1982976
1.1998011
1.200699
1.2012138
1.201496
1.2016432
1.2017159
1.2017499
1.2017648
1.2017709
1.2017733
1.2017741
1.2017744
1.2017745
1.2017746
1.2017746
1.2017746
1.2017746
1.2017746
1.2017746
1.2017746
1.2017746
1.2017746
0.77032868
0.80689901
0.84433914
0.88275959
0.92199573
0.96155683
1.000607
1.038024
1.0725631
1.1031037
1.1288924
1.1496802
1.1657065
1.1775615
1.1860051
1.1918126
1.1956767
1.198165
1.1997139
1.2006438
1.2011801
1.2014762
1.2016318
1.2017094
1.201746
1.2017622
1.201769
1.2017716
1.2017726
1.2017729
1.201773
1.2017731
1.2017731
1.2017731
1.2017731
1.2017731
1.2017731
1.2017731
1.2017731
1.2017731
0.77006488
0.80652079
0.84383399
0.88211833
0.92121658
0.96065013
0.99959907
1.0369576
1.0714929
1.1020868
1.1279766
1.1488963
1.1650661
1.1770596
1.1856261
1.1915359
1.1954813
1.1980314
1.1996257
1.2005876
1.2011457
1.2014558
1.20162
1.2017026
1.2017419
1.2017595
1.201767
1.2017699
1.201771
1.2017714
1.2017715
1.2017716
1.2017716
1.2017716
1.2017716
1.2017716
1.2017716
1.2017716
1.2017716
1.2017716
0.76980694
0.80615106
0.84334025
0.88149158
0.92045494
0.95976341
0.99861251
1.0359125
1.0704425
1.1010867
1.1270741
1.1481221
1.1644319
1.1765612
1.1852487
1.1912597
1.1952856
1.1978972
1.1995366
1.2005305
1.2011104
1.2014347
1.2016078
1.2016956
1.2017377
1.2017568
1.2017649
1.2017682
1.2017694
1.2017699
1.20177
1.2017701
1.2017701
1.2017701
1.2017701
1.2017701
1.2017701
1.2017701
1.2017701
1.2017701
0.76955463
0.80578946
0.84285746
0.88087876
0.91971011
0.95889587
0.99764655
1.0348881
1.0694113
1.100103
1.1261844
1.1473571
1.1638039
1.1760665
1.1848731
1.190984
1.1950896
1.1977622
1.1994467
1.2004726
1.2010744
1.2014132
1.2015952
1.2016883
1.2017334
1.201754
1.2017629
1.2017665
1.2017678
1.2017683
1.2017685
1.2017686
1.2017686
1.2017686
1.2017686
1.2017686
1.2017686
1.2017686
1.2017686
1.2017686
0.76930773
0.80543569
0.84238519
0.88027932
0.91898144
0.95804681
0.99670042
1.0338836
1.0683986
1.0991352
1.1253074
1.1466013
1.1631819
1.1755754
1.1844993
1.1907089
1.1948933
1.1976265
1.1993559
1.2004139
1.2010378
1.201391
1.2015822
1.2016807
1.2017289
1.2017511
1.2017607
1.2017647
1.2017662
1.2017668
1.201767
1.2017671
1.2017671
1.2017671
1.2017671
1.2017671
1.2017671
1.2017671
1.2017671
1.2017671
0.76906604
0.80508944
0.84192304
0.87969275
0.91826831
0.95721551
0.99577343
1.0328983
1.0674038
1.0981829
1.1244426
1.1458545
1.1625659
1.1750878
1.1841273
1.1904343
1.1946969
1.1974902
1.1992643
1.2003543
1.2010004
1.2013683
1.2015688
1.2016729
1.2017242
1.2017481
1.2017586
1.2017629
1.2017646
1.2017653
1.2017655
1.2017656
1.2017656
1.2017656
1.2017656
1.2017656
1.2017656
1.2017656
1.2017656
1.2017656
0.76882936
0.80475043
0.84147062
0.87911857
0.91757015
0.95640134
0.99486488
1.0319316
1.0664263
1.0972455
1.1235897
1.1451164
1.1619558
1.1746038
1.1837571
1.1901603
1.1945003
1.1973534
1.1991719
1.200294
1.2009623
1.2013451
1.201555
1.2016648
1.2017193
1.201745
1.2017564
1.2017611
1.201763
1.2017637
1.201764
1.2017641
1.2017641
1.2017641
1.2017641
1.2017641
1.2017641
1.2017641
1.2017641
1.2017641
0.7685975
0.80441839
0.84102757
0.8785563
0.91688639
0.95560367
0.99397412
1.0309829
1.0654657
1.0963227
1.1227485
1.1443869
1.1613515
1.1741233
1.1833887
1.189887
1.1943036
1.197216
1.1990789
1.200233
1.2009236
1.2013213
1.2015408
1.2016564
1.2017143
1.2017418
1.2017541
1.2017593
1.2017614
1.2017622
1.2017624
1.2017625
1.2017626
1.2017626
1.2017626
1.2017626
1.2017626
1.2017626
1.2017626
1.2017626
0.76837028
0.80409307
0.84059355
0.87800552
0.91621651
0.95482192
0.99310056
1.0300515
1.0645214
1.0954141
1.1219187
1.1436658
1.160753
1.1736463
1.1830222
1.1896144
1.1941069
1.1970782
1.1989852
1.2001713
1.2008842
1.201297
1.2015262
1.2016478
1.2017092
1.2017385
1.2017518
1.2017575
1.2017597
1.2017606
1.2017609
1.201761
1.2017611
1.2017611
1.2017611
1.2017611
1.2017611
1.2017611
1.2017611
1.2017611
0.76814755
0.80377421
0.84016823
0.87746581
0.91556003
0.95405551
0.99224359
1.0291369
1.0635929
1.0945193
1.1210999
1.142953
1.16016
1.1731728
1.1826575
1.1893425
1.1939102
1.19694
1.1988909
1.2001089
1.2008442
1.2012722
1.2015112
1.2016389
1.2017038
1.2017351
1.2017494
1.2017556
1.2017581
1.2017591
1.2017594
1.2017595
1.2017596
1.2017596
1.2017596
1.2017596
1.2017596
1.2017596
1.2017596
1.2017596
0.76792913
0.8034616
0.83975129
0.87693677
0.91491646
0.95330393
0.99140267
1.0282385
1.0626797
1.0936379
1.120292
1.1422482
1.1595726
1.1727028
1.1822948
1.1890714
1.1937136
1.1968014
1.198796
1.2000458
1.2008036
1.2012468
1.2014959
1.2016297
1.2016983
1.2017316
1.201747
1.2017537
1.2017564
1.2017575
1.2017579
1.201758
1.2017581
1.2017581
1.2017581
1.2017581
1.2017581
1.2017581
1.2017581
1.2017581
0.76771489
0.80315501
0.83934246
0.87641804
0.91428536
0.95256667
0.99057727
1.027356
1.0617815
1.0927695
1.1194947
1.1415513
1.1589906
1.1722362
1.1819339
1.1888011
1.1935171
1.1966625
1.1987006
1.1999822
1.2007625
1.201221
1.2014801
1.2016203
1.2016926
1.201728
1.2017445
1.2017517
1.2017547
1.2017559
1.2017564
1.2017565
1.2017566
1.2017566
1.2017566
1.2017566
1.2017566
1.2017566
1.2017566
1.2017566
0.76750468
0.80285424
0.83894144
0.87590926
0.91366631
0.95184325
0.98976688
1.0264887
1.0608977
1.0919138
1.1187077
1.1408623
1.158414
1.171773
1.1815749
1.1885317
1.1933206
1.1965232
1.1986046
1.1999179
1.2007208
1.2011947
1.201464
1.2016106
1.2016867
1.2017243
1.2017419
1.2017498
1.201753
1.2017543
1.2017548
1.201755
1.2017551
1.2017551
1.2017551
1.2017551
1.2017551
1.2017551
1.2017551
1.2017551
0.76729836
0.80255909
0.83854797
0.87541008
0.91305889
0.95113321
0.98897101
1.0256362
1.060028
1.0910706
1.1179308
1.1401808
1.1578427
1.1713131
1.1812177
1.188263
1.1931243
1.1963837
1.1985082
1.1998531
1.2006785
1.201168
1.2014475
1.2016006
1.2016806
1.2017205
1.2017393
1.2017477
1.2017513
1.2017527
1.2017533
1.2017535
1.2017536
1.2017536
1.2017536
1.2017536
1.2017536
1.2017536
1.2017536
1.2017536
0.7670958
0.80226937
0.8381618
0.8749202
0.91246272
0.95043612
0.98818922
1.024798
1.0591719
1.0902393
1.1171637
1.1395067
1.1572766
1.1708566
1.1808625
1.1879953
1.1929282
1.196244
1.1984113
1.1997878
1.2006357
1.2011408
1.2014307
1.2015904
1.2016744
1.2017166
1.2017366
1.2017457
1.2017496
1.2017512
1.2017518
1.201752
1.2017521
1.2017521
1.2017521
1.2017521
1.2017521
1.2017521
1.2017521
1.2017521
0.76689689
0.80198491
0.83778269
0.8744393
0.91187744
0.94975155
0.98742107
1.0239738
1.058329
1.0894198
1.1164063
1.13884
1.1567157
1.1704033
1.1805092
1.1877284
1.1927324
1.1961041
1.198314
1.1997219
1.2005924
1.2011131
1.2014135
1.2015799
1.201668
1.2017125
1.2017339
1.2017436
1.2017478
1.2017495
1.2017502
1.2017505
1.2017506
1.2017506
1.2017506
1.2017506
1.2017506
1.2017506
1.2017506
1.2017506
0.7667015
0.80170553
0.83741041
0.87396709
0.91130268
0.94907912
0.98666612
1.0231631
1.0574991
1.0886118
1.1156583
1.1381804
1.1561598
1.1699533
1.1801577
1.1874624
1.1925367
1.195964
1.1982162
1.1996556
1.2005486
1.201085
1.2013959
1.2015691
1.2016614
1.2017084
1.2017311
1.2017415
1.2017461
1.2017479
1.2017487
1.2017489
1.201749
1.2017491
1.2017491
1.2017491
1.2017491
1.2017491
1.2017491
1.2017491
0.76650951
0.80143107
0.83704474
0.8735033
0.91073813
0.94841843
0.98592399
1.0223655
1.0566818
1.0878149
1.1149194
1.1375279
1.1556088
1.1695066
1.1798082
1.1871973
1.1923413
1.1958237
1.1981182
1.1995888
1.2005044
1.2010565
1.201378
1.2015581
1.2016547
1.2017041
1.2017282
1.2017394
1.2017443
1.2017463
1.2017471
1.2017474
1.2017475
1.2017476
1.2017476
1.2017476
1.2017476
1.2017476