/*--------------------------------*- C++ -*----------------------------------*\
| =========                 |                                                 |
| \\      /  F ield         | OpenFOAM: The Open Source CFD Toolbox           |
|  \\    /   O peration     | Version:  3.0.1                                 |
|   \\  /    A nd           | Web:      www.OpenFOAM.org                      |
|    \\/     M anipulation  |                                                 |
\*---------------------------------------------------------------------------*/
FoamFile
{
    version     2.0;
    format      ascii;
    class       volScalarField;
    location    "3500/fluid";
    object      rho;
}
// * * * * * * * * * * * * * * * * * * * * * * * * * * * * * * * * * * * * * //

dimensions      [1 -3 0 0 0 0 0];

internalField   nonuniform List<scalar> 
5000
(
1.0816053
1.0900718
1.0991209
1.1086443
1.1184953
1.1284921
1.1384253
1.1480709
1.1572069
1.1656319
1.1731833
1.1797507
1.1852841
1.1897933
1.1933416
1.1960326
1.1979954
1.199369
1.2002884
1.2008753
1.201231
1.2014349
1.201545
1.2016006
1.2016268
1.2016382
1.2016428
1.2016445
1.201645
1.2016452
1.2016452
1.2016453
1.2016453
1.2016453
1.2016453
1.2016453
1.2016453
1.2016453
1.2016453
1.2016453
1.2016453
1.2016453
1.2016453
1.2016453
1.2016453
1.2016453
1.2016453
1.2016453
1.2016453
1.2016453
0.95933571
0.97116332
0.98406795
0.99802408
1.0129627
1.0287636
1.0452493
1.0621844
1.0792795
1.0962029
1.1125982
1.1281095
1.142408
1.1552198
1.1663493
1.175696
1.1832604
1.1891396
1.193511
1.1966076
1.1986883
1.2000083
1.2007948
1.2012327
1.2014593
1.2015675
1.2016149
1.2016339
1.2016407
1.2016429
1.2016436
1.2016437
1.2016438
1.2016438
1.2016438
1.2016438
1.2016438
1.2016438
1.2016438
1.2016438
1.2016438
1.2016438
1.2016438
1.2016438
1.2016438
1.2016438
1.2016438
1.2016438
1.2016438
1.2016438
0.89276422
0.90401834
0.91639971
0.92997976
0.94481257
0.9609235
0.97829481
0.99684905
1.0164318
1.0367971
1.0576
1.0784019
1.0986918
1.1179261
1.1355838
1.1512263
1.1645526
1.1754336
1.18392
1.1902203
1.194656
1.197606
1.1994509
1.2005308
1.2011184
1.2014143
1.2015513
1.2016092
1.2016314
1.2016391
1.2016414
1.2016421
1.2016422
1.2016423
1.2016423
1.2016423
1.2016423
1.2016423
1.2016423
1.2016423
1.2016423
1.2016423
1.2016423
1.2016423
1.2016423
1.2016423
1.2016423
1.2016423
1.2016423
1.2016423
0.8539599
0.86458602
0.87629109
0.8891657
0.90329648
0.91875912
0.93560827
0.95386349
0.97349114
0.9943826
1.0163313
1.0390128
1.0619759
1.0846526
1.1063949
1.1265409
1.1444996
1.1598379
1.1723426
1.1820414
1.1891754
1.1941356
1.1973837
1.1993782
1.2005207
1.2011277
1.2014248
1.2015579
1.201612
1.2016318
1.2016383
1.2016402
1.2016406
1.2016407
1.2016408
1.2016408
1.2016408
1.2016408
1.2016408
1.2016408
1.2016408
1.2016408
1.2016408
1.2016408
1.2016408
1.2016408
1.2016408
1.2016408
1.2016408
1.2016408
0.83000577
0.84009596
0.85121086
0.86344511
0.87689497
0.89165391
0.9078056
0.92541355
0.94450632
0.96505783
0.98696303
1.010011
1.0338605
1.0580266
1.0818887
1.1047322
1.1258243
1.144516
1.1603443
1.1731032
1.182861
1.1899193
1.1947329
1.1978163
1.1996629
1.2006913
1.2012205
1.2014701
1.2015774
1.2016189
1.2016333
1.2016377
1.2016389
1.2016392
1.2016393
1.2016393
1.2016393
1.2016393
1.2016393
1.2016393
1.2016393
1.2016393
1.2016393
1.2016393
1.2016393
1.2016393
1.2016393
1.2016393
1.2016393
1.2016393
0.8144431
0.82406508
0.8346591
0.84631865
0.85914159
0.87322731
0.88867182
0.90556016
0.92395477
0.94387912
0.96529581
0.98807956
1.0119879
1.0366352
1.0614811
1.0858452
1.1089598
1.1300613
1.1485056
1.1638737
1.176035
1.1851454
1.1915869
1.1958708
1.1985397
1.2000895
1.2009231
1.2013355
1.2015216
1.2015976
1.2016253
1.2016344
1.201637
1.2016376
1.2016377
1.2016378
1.2016378
1.2016378
1.2016378
1.2016378
1.2016378
1.2016378
1.2016378
1.2016378
1.2016378
1.2016378
1.2016378
1.2016378
1.2016378
1.2016378
0.80387236
0.81310144
0.82325653
0.83442832
0.84671328
0.86021176
0.87502452
0.89124694
0.90895996
0.92821657
0.94902291
0.97131345
0.99492137
1.0195479
1.0447391
1.0698811
1.09423
1.1169833
1.1373887
1.1548659
1.1691035
1.180097
1.1881183
1.1936313
1.1971874
1.19933
1.2005291
1.2011478
1.20144
1.2015651
1.2016132
1.2016296
1.2016346
1.2016359
1.2016362
1.2016363
1.2016363
1.2016363
1.2016363
1.2016363
1.2016363
1.2016363
1.2016363
1.2016363
1.2016363
1.2016363
1.2016363
1.2016363
1.2016363
1.2016363
0.79637805
0.80527478
0.81505771
0.82581424
0.83763824
0.85062878
0.86488765
0.88051492
0.89760173
0.91621914
0.93640197
0.95812668
0.98128328
1.0056437
1.030832
1.0563083
1.0813783
1.105245
1.1271026
1.1462593
1.1622552
1.1749329
1.18444
1.1911655
1.1956384
1.1984232
1.2000375
1.2009028
1.2013284
1.2015187
1.2015954
1.2016229
1.2016316
1.201634
1.2016346
1.2016347
1.2016348
1.2016348
1.2016348
1.2016348
1.2016348
1.2016348
1.2016348
1.2016348
1.2016348
1.2016348
1.2016348
1.2016348
1.2016348
1.2016348
0.79085171
0.79946854
0.80893772
0.81934337
0.8307764
0.84333369
0.85711619
0.87222554
0.88875823
0.90679627
0.92639344
0.94755563
0.97021502
0.99419911
1.0191986
1.0447431
1.0701973
1.0947939
1.1177106
1.1381857
1.1556448
1.1697966
1.180665
1.18855
1.1939371
1.1973895
1.1994545
1.2005998
1.2011842
1.2014562
1.2015706
1.2016135
1.2016278
1.2016319
1.201633
1.2016332
1.2016333
1.2016333
1.2016333
1.2016333
1.2016333
1.2016333
1.2016333
1.2016333
1.2016333
1.2016333
1.2016333
1.2016333
1.2016333
1.2016333
0.78662363
0.79500223
0.80420422
0.81431067
0.82540955
0.83759516
0.85096678
0.86562596
0.8816717
0.8991927
0.91825538
0.9388866
0.96105009
0.98461692
1.009333
1.0347899
1.0604119
1.0854729
1.1091573
1.1306644
1.1493356
1.1647668
1.1768667
1.1858417
1.1921207
1.196249
1.1987881
1.20024
1.2010062
1.2013759
1.2015375
1.2016008
1.2016228
1.2016295
1.2016313
1.2016317
1.2016318
1.2016318
1.2016318
1.2016318
1.2016318
1.2016318
1.2016318
1.2016318
1.2016318
1.2016318
1.2016318
1.2016318
1.2016318
1.2016318
0.78328059
0.79145496
0.80042785
0.8102776
0.82108935
0.83295482
0.84597122
0.86023908
0.87585831
0.89292149
0.91150357
0.93164644
0.95333757
0.97648232
1.0008718
1.0261517
1.0518019
1.0771421
1.1013776
1.1236903
1.1433624
1.1598981
1.1731023
1.1830895
1.1902243
1.1950232
1.1980489
1.1998271
1.2007941
1.2012765
1.2014951
1.2015841
1.2016164
1.2016266
1.2016294
1.2016301
1.2016302
1.2016303
1.2016303
1.2016303
1.2016303
1.2016303
1.2016303
1.2016303
1.2016303
1.2016303
1.2016303
1.2016303
1.2016303
1.2016303
0.7805592
0.78855657
0.79733096
0.80695818
0.81752082
0.82910808
0.84181498
0.85574062
0.87098479
0.88764227
0.90579372
0.925492
0.94674264
0.96947814
0.99352679
1.0185805
1.0441699
1.0696611
1.0942877
1.1172295
1.137729
1.1552172
1.169408
1.1803283
1.1882763
1.193731
1.1972474
1.1993653
1.200549
1.2011575
1.2014426
1.2015629
1.2016081
1.2016231
1.2016274
1.2016285
1.2016287
1.2016288
1.2016288
1.2016288
1.2016288
1.2016288
1.2016288
1.2016288
1.2016288
1.2016288
1.2016288
1.2016288
1.2016288
1.2016288
0.77828781
0.78613033
0.7947311
0.80416367
0.8145083
0.82585181
0.83828707
0.8519115
0.86682424
0.88312112
0.90088665
0.92018174
0.94102587
0.96337314
0.98708254
1.0118854
1.037358
1.0629106
1.0878094
1.1112424
1.132427
1.1507369
1.1658077
1.1775848
1.1862998
1.1923898
1.1963943
1.19886
1.2002723
1.2010187
1.2013792
1.2015364
1.2015977
1.2016188
1.2016252
1.2016268
1.2016272
1.2016273
1.2016273
1.2016273
1.2016273
1.2016273
1.2016273
1.2016273
1.2016273
1.2016273
1.2016273
1.2016273
1.2016273
1.2016273
0.77635135
0.78405709
0.79250453
0.80176521
0.81191726
0.82304531
0.83524015
0.84859748
0.86321541
0.87919015
0.89660877
0.91553812
0.93600857
0.95799166
0.9813718
1.0059142
1.0312353
1.0567871
1.0818696
1.1056857
1.1274392
1.1464595
1.1623152
1.1748776
1.1843129
1.1910138
1.1954992
1.1983163
1.1999664
1.2008606
1.2013046
1.2015044
1.2015849
1.2016137
1.2016227
1.2016251
1.2016256
1.2016258
1.2016258
1.2016258
1.2016258
1.2016258
1.2016258
1.2016258
1.2016258
1.2016258
1.2016258
1.2016258
1.2016258
1.2016258
0.77467086
0.78225471
0.79056554
0.79967313
0.80965361
0.82058965
0.83257005
0.84568877
0.86004277
0.87572812
0.89283357
0.91143043
0.93155765
0.95320096
0.97626601
1.000547
1.0256961
1.0512037
1.0764038
1.100518
1.1227451
1.1423811
1.1589379
1.1722194
1.1823296
1.1896152
1.1945708
1.1977397
1.1996336
1.2006837
1.2012186
1.2014664
1.2015694
1.2016075
1.2016198
1.2016233
1.2016241
1.2016242
1.2016243
1.2016243
1.2016243
1.2016243
1.2016243
1.2016243
1.2016243
1.2016243
1.2016243
1.2016243
1.2016243
1.2016243
0.77319073
0.78066506
0.7888532
0.79782329
0.80764973
0.81841331
0.83020098
0.84310504
0.85722117
0.87264505
0.88946645
0.90776004
0.92757159
0.94889853
0.97166439
0.99568834
1.0206542
1.0460876
1.0713553
1.0957005
1.118323
1.1384943
1.1556784
1.1696188
1.1803602
1.1882037
1.1936169
1.197135
1.1992766
1.2004889
1.2011214
1.2014221
1.201551
1.2016001
1.2016165
1.2016213
1.2016225
1.2016227
1.2016228
1.2016228
1.2016228
1.2016228
1.2016228
1.2016228
1.2016228
1.2016228
1.2016228
1.2016228
1.2016228
1.2016228
0.77187086
0.77924605
0.78732319
0.79616891
0.80585602
0.81646359
0.82807686
0.84078651
0.85468694
0.86987322
0.8864357
0.90445161
0.92397221
0.94500461
0.96748754
0.99126181
1.0160392
1.0413776
1.0666752
1.0911982
1.1141517
1.1347896
1.1525362
1.1670808
1.1784126
1.1867873
1.192644
1.1965069
1.198898
1.2002776
1.201013
1.2013715
1.2015293
1.2015913
1.2016127
1.2016192
1.2016208
1.2016212
1.2016213
1.2016213
1.2016213
1.2016213
1.2016213
1.2016213
1.2016213
1.2016213
1.2016213
1.2016213
1.2016213
1.2016213
0.77068166
0.77796652
0.78594254
0.79467502
0.80423526
0.8147008
0.82615525
0.83868775
0.85239144
0.86736064
0.88368599
0.90144663
0.92069828
0.9414562
0.96367207
0.98720555
1.0117933
1.0370227
1.0623216
1.0869795
1.1102106
1.1312567
1.149509
1.1646084
1.1764924
1.1853723
1.1916577
1.1958594
1.1985002
1.2000507
1.200894
1.2013144
1.2015043
1.201581
1.2016084
1.2016169
1.2016192
1.2016197
1.2016198
1.2016198
1.2016198
1.2016198
1.2016198
1.2016198
1.2016198
1.2016198
1.2016198
1.2016198
1.2016198
1.2016198
0.76960082
0.77680289
0.78468626
0.79331499
0.80275905
0.8130945
0.82440347
0.83677365
0.85029692
0.86506679
0.88117395
0.89869899
0.9177013
0.93820296
0.96016687
0.9834692
1.0078688
1.0329798
1.0582582
1.0830167
1.1064808
1.1278851
1.146593
1.1622027
1.1746035
1.1839636
1.1906626
1.1951963
1.1980857
1.1998096
1.2007646
1.2012509
1.2014758
1.2015691
1.2016034
1.2016144
1.2016174
1.2016181
1.2016183
1.2016183
1.2016183
1.2016183
1.2016183
1.2016183
1.2016183
1.2016183
1.2016183
1.2016183
1.2016183
1.2016183
0.76861118
0.77573695
0.78353496
0.79206815
0.80140522
0.81162091
0.82279594
0.83501662
0.84837361
0.86295959
0.87886513
0.8961719
0.91494229
0.93520424
0.95693033
0.9800113
1.0042259
1.0292126
1.0544538
1.0792852
1.102945
1.1246643
1.1437838
1.1598638
1.1727485
1.182565
1.1896626
1.1945207
1.1976568
1.1995555
1.2006254
1.201181
1.2014438
1.2015555
1.2015977
1.2016116
1.2016156
1.2016166
1.2016168
1.2016168
1.2016168
1.2016168
1.2016168
1.2016168
1.2016168
1.2016168
1.2016168
1.2016168
1.2016168
1.2016168
0.7676993
0.77475441
0.78247341
0.79091818
0.80015627
0.81026116
0.82131228
0.83339463
0.84659769
0.8610133
0.87673176
0.89383557
0.91238961
0.93242681
0.95392824
0.97679751
1.0008312
1.0256903
1.0508815
1.0757631
1.0995874
1.1215844
1.1410767
1.1575906
1.1709291
1.1811795
1.188661
1.1938355
1.1972154
1.1992897
1.200477
1.2011048
1.2014081
1.2015401
1.2015912
1.2016086
1.2016137
1.201615
1.2016152
1.2016153
1.2016153
1.2016153
1.2016153
1.2016153
1.2016153
1.2016153
1.2016153
1.2016153
1.2016153
1.2016153
0.76685447
0.77384387
0.78148941
0.78985199
0.7989981
0.80900005
0.81993605
0.83188986
0.84494985
0.85920697
0.87475121
0.89166565
0.91001726
0.92984327
0.95113218
0.97379909
0.9976567
1.0223864
1.0475179
1.0724314
1.0963935
1.1186361
1.1384667
1.155382
1.1691464
1.1798094
1.1876603
1.193143
1.1967635
1.1990133
1.20032
1.2010227
1.2013687
1.2015228
1.2015839
1.2016052
1.2016117
1.2016133
1.2016137
1.2016138
1.2016138
1.2016138
1.2016138
1.2016138
1.2016138
1.2016138
1.2016138
1.2016138
1.2016138
1.2016138
0.76606801
0.77299607
0.78057304
0.78885894
0.79791924
0.80782518
0.8186538
0.83048772
0.84341421
0.85752339
0.87290482
0.88964201
0.90780367
0.92743077
0.94851838
0.97099186
0.99467847
1.0192784
1.0443429
1.069273
1.0933504
1.1158105
1.1359489
1.1532359
1.1674006
1.1784563
1.1866628
1.1924454
1.1963026
1.1987275
1.2001549
1.2009347
1.2013257
1.2015035
1.2015757
1.2016015
1.2016096
1.2016117
1.2016122
1.2016123
1.2016123
1.2016123
1.2016123
1.2016123
1.2016123
1.2016123
1.2016123
1.2016123
1.2016123
1.2016123
0.76533284
0.77220341
0.77971616
0.78793025
0.79691022
0.80672628
0.8174544
0.8291761
0.84197763
0.85594822
0.87117702
0.88774782
0.90573077
0.92517012
0.94606676
0.96835527
0.99187614
1.0163468
1.0413388
1.0662731
1.0904465
1.1130995
1.1335185
1.1511505
1.1656918
1.1771214
1.1856701
1.1917444
1.1958343
1.1984333
1.1999823
1.2008411
1.2012791
1.2014822
1.2015665
1.2015974
1.2016073
1.20161
1.2016107
1.2016108
1.2016108
1.2016108
1.2016108
1.2016108
1.2016108
1.2016108
1.2016108
1.2016108
1.2016108
1.2016108
0.76464306
0.7714596
0.778912
0.78705862
0.79596314
0.80569481
0.81632857
0.8279449
0.84062905
0.85446944
0.86955474
0.8859689
0.90378331
0.92304506
0.94376025
0.96587176
0.98923216
1.0135748
1.0384902
1.0634182
1.0876712
1.1104956
1.1311709
1.1491236
1.1640197
1.1758055
1.1846838
1.1910416
1.1953599
1.1981316
1.1998029
1.2007421
1.201229
1.2014588
1.2015563
1.2015929
1.2016049
1.2016083
1.2016091
1.2016093
1.2016093
1.2016093
1.2016093
1.2016093
1.2016093
1.2016093
1.2016093
1.2016093
1.2016093
1.2016093
0.76399372
0.77075933
0.77815485
0.78623791
0.79507136
0.80472353
0.81526843
0.82678554
0.83935915
0.85307688
0.86802689
0.88429322
0.9019483
0.92104172
0.94158423
0.96352625
0.98673137
1.0109477
1.0357834
1.0606967
1.085015
1.1079918
1.1289017
1.1471529
1.1623838
1.1745093
1.1837048
1.1903382
1.1948806
1.1978233
1.1996172
1.2006382
1.2011754
1.2014335
1.2015451
1.201588
1.2016024
1.2016065
1.2016075
1.2016078
1.2016078
1.2016078
1.2016078
1.2016078
1.2016078
1.2016078
1.2016078
1.2016078
1.2016078
1.2016078
0.76338064
0.77009811
0.77743988
0.78546289
0.79422921
0.80380632
0.81426732
0.82569074
0.83815997
0.85176183
0.86658399
0.88271047
0.90021458
0.91914815
0.93952609
0.96130566
0.98436058
1.0084526
1.0332064
1.0580979
1.0824693
1.1055818
1.1267067
1.1452363
1.1607832
1.173233
1.1827342
1.1896353
1.1943974
1.1975093
1.1994256
1.2005295
1.2011184
1.201406
1.2015328
1.2015825
1.2015996
1.2016047
1.201606
1.2016062
1.2016063
1.2016063
1.2016063
1.2016063
1.2016063
1.2016063
1.2016063
1.2016063
1.2016063
1.2016063
0.76280024
0.76947209
0.77676296
0.7847291
0.79343185
0.8029379
0.81331948
0.82465422
0.83702465
0.85051681
0.86521785
0.88121175
0.89857255
0.91735403
0.93757489
0.95919862
0.98210826
1.0060782
1.0307487
1.0556124
1.0800262
1.1032597
1.124582
1.1433715
1.1592173
1.1719768
1.1817726
1.1889339
1.1939111
1.1971904
1.1992289
1.2004162
1.2010582
1.2013766
1.2015194
1.2015766
1.2015967
1.2016028
1.2016044
1.2016047
1.2016048
1.2016048
1.2016048
1.2016048
1.2016048
1.2016048
1.2016048
1.2016048
1.2016048
1.2016048
0.76224944
0.76887798
0.77612051
0.78403267
0.7926751
0.80211373
0.81241996
0.82367059
0.83594728
0.84933535
0.86392142
0.87978936
0.89701383
0.91565037
0.93572109
0.95719518
0.97996427
1.0038146
1.0284009
1.0532319
1.0776789
1.1010201
1.1225238
1.1415564
1.157685
1.1707407
1.1808205
1.1882348
1.1934227
1.196867
1.1990273
1.2002988
1.2009948
1.2013451
1.2015049
1.2015702
1.2015936
1.2016008
1.2016028
1.2016032
1.2016033
1.2016033
1.2016033
1.2016033
1.2016033
1.2016033
1.2016033
1.2016033
1.2016033
1.2016033
0.76172557
0.76831289
0.77550944
0.78337026
0.79195532
0.80132985
0.81156445
0.82273511
0.8349227
0.8482118
0.86268851
0.87843656
0.89553114
0.91402932
0.93395634
0.9552866
0.97791967
1.0016528
1.0261545
1.0509487
1.0754208
1.0988579
1.1205287
1.1397889
1.1561856
1.1695245
1.1798784
1.1875385
1.1929328
1.19654
1.1988213
1.2001774
1.2009284
1.2013116
1.2014893
1.2015631
1.2015902
1.2015988
1.2016011
1.2016017
1.2016018
1.2016018
1.2016018
1.2016018
1.2016018
1.2016018
1.2016018
1.2016018
1.2016018
1.2016018
0.7612263
0.76777432
0.77492704
0.78273893
0.79126934
0.8005828
0.81074918
0.82184368
0.8339464
0.84714122
0.86151371
0.87714745
0.89411804
0.91248395
0.93227324
0.95346513
0.97596655
0.99958498
1.024002
1.0487561
1.0732461
1.0967687
1.1185935
1.1380671
1.154718
1.1683282
1.1789466
1.1868457
1.192442
1.1962098
1.1986115
1.2000523
1.2008591
1.2012761
1.2014725
1.2015556
1.2015866
1.2015967
1.2015995
1.2016002
1.2016003
1.2016003
1.2016003
1.2016003
1.2016003
1.2016003
1.2016003
1.2016003
1.2016003
1.2016003
0.76074958
0.76726007
0.77437093
0.78213611
0.79061436
0.79986954
0.80997081
0.82099264
0.83301439
0.84611924
0.86039226
0.87591682
0.89276887
0.91100816
0.93066529
0.95172393
0.97409786
0.99760415
1.0219367
1.0466477
1.0711495
1.0947481
1.116715
1.1363889
1.1532813
1.1671514
1.1780252
1.1861569
1.1919509
1.1958769
1.1983981
1.1999238
1.200787
1.2012387
1.2014546
1.2015474
1.2015827
1.2015945
1.2015978
1.2015986
1.2015988
1.2015988
1.2015988
1.2015988
1.2015988
1.2015988
1.2015988
1.2015988
1.2015988
1.2015988
0.76029361
0.7667682
0.77383903
0.78155953
0.7899879
0.79918737
0.80922642
0.8201788
0.83212316
0.84514202
0.85931993
0.87474004
0.89147862
0.9095965
0.92912666
0.95005688
0.97230729
0.99570396
1.0199524
1.044618
1.0691262
1.0927924
1.1148905
1.1347527
1.1518745
1.1659938
1.1771145
1.1854722
1.1914598
1.1955418
1.1981815
1.1997921
1.2007123
1.2011995
1.2014355
1.2015386
1.2015786
1.2015921
1.2015961
1.2015971
1.2015973
1.2015973
1.2015973
1.2015973
1.2015973
1.2015973
1.2015973
1.2015973
1.2015973
1.2015973
0.75985678
0.76629697
0.77332945
0.78100718
0.78938778
0.79853391
0.80851339
0.8193993
0.83126958
0.84420612
0.85829296
0.87361303
0.8902428
0.90824414
0.92765219
0.94845852
0.97058919
0.99387875
1.0180436
1.042662
1.0671718
1.0908979
1.1131173
1.1331565
1.1504966
1.1648551
1.1762144
1.1847922
1.1909694
1.1952049
1.197962
1.1996574
1.2006351
1.2011584
1.2014153
1.2015292
1.2015742
1.2015897
1.2015943
1.2015955
1.2015958
1.2015958
1.2015958
1.2015958
1.2015958
1.2015958
1.2015958
1.2015958
1.2015958
1.2015958
0.75943767
0.76584485
0.77284055
0.78047724
0.78881205
0.79790703
0.80782941
0.81865159
0.83045086
0.84330849
0.85730801
0.87253209
0.88905742
0.90694676
0.92623723
0.94692393
0.96893849
0.99212339
1.0162054
1.040775
1.0652822
1.0890612
1.111393
1.1315988
1.1491468
1.1637349
1.1753251
1.1841171
1.1904798
1.1948665
1.19774
1.19952
1.2005554
1.2011156
1.2013939
1.2015192
1.2015695
1.2015872
1.2015926
1.201594
1.2015943
1.2015943
1.2015943
1.2015943
1.2015943
1.2015943
1.2015943
1.2015943
1.2015943
1.2015943
0.759035
0.76541047
0.77237083
0.77996811
0.78825893
0.79730482
0.80717237
0.81793339
0.82966449
0.84244637
0.85636205
0.87149395
0.8879189
0.90570046
0.92487761
0.94544871
0.96735059
0.99043325
1.0144333
1.0389528
1.0634535
1.0872794
1.1097151
1.130078
1.147824
1.1626329
1.1744464
1.183447
1.1899913
1.194527
1.1975157
1.1993801
1.2004736
1.201071
1.2013714
1.2015086
1.2015645
1.2015845
1.2015907
1.2015924
1.2015927
1.2015928
1.2015928
1.2015928
1.2015928
1.2015928
1.2015928
1.2015928
1.2015928
1.2015928
0.75864762
0.76499258
0.77191896
0.77947834
0.78772688
0.79672555
0.80654042
0.81724264
0.82890824
0.84161731
0.8554524
0.87049564
0.88682398
0.90450174
0.92356955
0.94402886
0.96582136
0.98880411
1.0127231
1.0371915
1.0616825
1.0855495
1.1080815
1.1285927
1.1465275
1.1615486
1.1735784
1.1827821
1.1895044
1.1941866
1.1972894
1.1992378
1.2003895
1.2010248
1.2013479
1.2014973
1.2015592
1.2015817
1.2015889
1.2015908
1.2015912
1.2015913
1.2015913
1.2015913
1.2015913
1.2015913
1.2015913
1.2015913
1.2015913
1.2015913
0.7582745
0.76459009
0.77148373
0.77900662
0.78721446
0.7961677
0.80593185
0.8165775
0.82818007
0.84081907
0.85457659
0.86953448
0.88576977
0.90334742
0.92230966
0.94266077
0.96434702
0.98723215
1.011071
1.0354875
1.059966
1.083869
1.1064901
1.1271412
1.1452564
1.1604817
1.172721
1.1821225
1.1890192
1.1938456
1.1970614
1.1990933
1.2003035
1.200977
1.2013232
1.2014854
1.2015535
1.2015788
1.2015869
1.2015892
1.2015897
1.2015898
1.2015898
1.2015898
1.2015898
1.2015898
1.2015898
1.2015898
1.2015898
1.2015898
0.7579147
0.76420196
0.77106406
0.77855178
0.78672038
0.79562985
0.80534515
0.81593629
0.82747814
0.84004965
0.85373243
0.86860805
0.8847536
0.90223464
0.92109484
0.94134114
0.96292413
0.98571387
1.0094737
1.0338376
1.0583009
1.0822352
1.1049391
1.1257224
1.1440097
1.1594317
1.171874
1.1814685
1.1885358
1.1935043
1.1968317
1.1989468
1.2002155
1.2009276
1.2012975
1.2014728
1.2015476
1.2015758
1.201585
1.2015876
1.2015882
1.2015883
1.2015883
1.2015883
1.2015883
1.2015883
1.2015883
1.2015883
1.2015883
1.2015883
0.75756738
0.7638273
0.77065895
0.77811274
0.7862435
0.79511073
0.80477891
0.8153175
0.82680078
0.8393072
0.8529179
0.86771416
0.88377308
0.90116078
0.91992227
0.94006699
0.96154958
0.98424608
1.0079279
1.0322389
1.0566847
1.0806461
1.1034266
1.124335
1.1427868
1.1583982
1.1710373
1.1808199
1.1880545
1.1931629
1.1966007
1.1987985
1.2001258
1.2008768
1.2012707
1.2014596
1.2015413
1.2015725
1.201583
1.2015859
1.2015867
1.2015868
1.2015868
1.2015868
1.2015868
1.2015868
1.2015868
1.2015868
1.2015868
1.2015868
0.75723176
0.76346527
0.77026751
0.77768852
0.78578273
0.79460919
0.80423188
0.81471972
0.82614649
0.83859007
0.85213117
0.86685078
0.88282601
0.90012346
0.91878938
0.93883557
0.96022048
0.98282585
1.0064308
1.0306884
1.0551147
1.0790993
1.101951
1.1229776
1.1415869
1.1573809
1.1702109
1.1801769
1.1875755
1.1928215
1.1963686
1.1986485
1.2000343
1.2008245
1.2012429
1.2014458
1.2015346
1.2015692
1.2015809
1.2015843
1.2015851
1.2015853
1.2015853
1.2015853
1.2015853
1.2015853
1.2015853
1.2015853
1.2015853
1.2015853
0.75690715
0.76311511
0.76988891
0.77727824
0.78533712
0.79412418
0.80370289
0.81414171
0.82551386
0.83789672
0.85137057
0.86601609
0.88191039
0.8991205
0.91769383
0.93764438
0.95893423
0.98145049
1.0049796
1.0291838
1.0535887
1.077593
1.1005107
1.1216493
1.1404092
1.1563793
1.1693946
1.1795395
1.1870988
1.1924803
1.1961354
1.198497
1.1999412
1.2007709
1.2012141
1.2014313
1.2015277
1.2015656
1.2015787
1.2015826
1.2015836
1.2015838
1.2015838
1.2015838
1.2015838
1.2015838
1.2015838
1.2015838
1.2015838
1.2015838
0.75659289
0.76277613
0.76952241
0.77688108
0.78490578
0.79365471
0.8031909
0.8135823
0.82490163
0.83722577
0.85063457
0.86520842
0.88102438
0.8981499
0.91663346
0.93649112
0.9576884
0.98011751
1.0035719
1.0277225
1.0521045
1.0761252
1.0991042
1.1203488
1.139253
1.155393
1.1685882
1.1789077
1.1866246
1.1921395
1.1959014
1.1983441
1.1998467
1.200716
1.2011843
1.2014162
1.2015203
1.2015619
1.2015765
1.2015809
1.201582
1.2015823
1.2015823
1.2015823
1.2015823
1.2015823
1.2015823
1.2015823
1.2015823
1.2015823
0.7562884
0.76244769
0.76916731
0.77649629
0.78448789
0.79319991
0.80269494
0.81304044
0.82430863
0.83657594
0.84992177
0.86442622
0.8801663
0.89720983
0.91560629
0.93537368
0.95648076
0.97882463
1.0022054
1.0263025
1.0506601
1.0746942
1.09773
1.1190752
1.1381177
1.1544216
1.1677915
1.1782815
1.1861529
1.1917992
1.1956667
1.1981899
1.1997507
1.2006598
1.2011535
1.2014005
1.2015126
1.2015581
1.2015742
1.2015792
1.2015805
1.2015808
1.2015808
1.2015808
1.2015808
1.2015808
1.2015808
1.2015808
1.2015808
1.2015808
0.75599313
0.7621292
0.76882298
0.77612318
0.78408271
0.79275897
0.80221411
0.81251514
0.82373381
0.83594606
0.84923088
0.86366808
0.87933461
0.89629861
0.91461049
0.9342901
0.95530928
0.97756974
1.000878
1.0249216
1.0492536
1.0732984
1.0963869
1.1178275
1.1370025
1.1534649
1.1670045
1.1776609
1.1856838
1.1914595
1.1954314
1.1980345
1.1996534
1.2006024
1.2011219
1.2013842
1.2015046
1.2015541
1.2015719
1.2015775
1.2015789
1.2015793
1.2015793
1.2015793
1.2015793
1.2015793
1.2015793
1.2015793
1.2015793
1.2015793
0.75570658
0.76182013
0.76848884
0.77576112
0.78368954
0.79233112
0.80174759
0.81200551
0.82317616
0.83533503
0.8485607
0.86293269
0.87852787
0.89541467
0.91364438
0.9332386
0.95417204
0.97635089
0.9995878
1.0235779
1.0478833
1.0719363
1.0950736
1.1166047
1.1359068
1.1525223
1.1662269
1.1770459
1.1852175
1.1911206
1.1951956
1.197878
1.1995548
1.2005439
1.2010893
1.2013673
1.2014962
1.2015498
1.2015695
1.2015757
1.2015774
1.2015778
1.2015778
1.2015778
1.2015778
1.2015778
1.2015778
1.2015778
1.2015778
1.2015778
0.7554283
0.76151997
0.76816435
0.77540953
0.78330776
0.79191569
0.80129463
0.81151072
0.82263478
0.83474187
0.84791015
0.86221885
0.87774476
0.89455658
0.91270642
0.93221749
0.9530673
0.97516625
0.99833287
1.0222698
1.0465474
1.0706064
1.093789
1.115406
1.1348301
1.1515936
1.1654586
1.1764365
1.1847539
1.1907825
1.1949595
1.1977206
1.1994551
1.2004843
1.2010559
1.2013497
1.2014875
1.2015454
1.201567
1.2015739
1.2015758
1.2015762
1.2015763
1.2015763
1.2015763
1.2015763
1.2015763
1.2015763
1.2015763
1.2015763
0.75515785
0.76122827
0.767849
0.77506787
0.78293678
0.79151201
0.80085452
0.81102999
0.82210883
0.83416564
0.84727819
0.86152545
0.87698407
0.89372301
0.91179514
0.93122523
0.95199342
0.97401413
0.99711156
1.0209955
1.0452446
1.0693073
1.0925318
1.1142304
1.1337717
1.1506784
1.1646994
1.1758326
1.1842931
1.1904453
1.1947231
1.1975623
1.1993543
1.2004236
1.2010217
1.2013316
1.2014784
1.2015409
1.2015644
1.2015721
1.2015742
1.2015747
1.2015748
1.2015748
1.2015748
1.2015748
1.2015748
1.2015748
1.2015748
1.2015748
0.75489484
0.7609446
0.76754235
0.77473563
0.78257604
0.79111952
0.80042661
0.81056263
0.82159752
0.83360548
0.8466639
0.86085144
0.87624466
0.89291273
0.91090923
0.9302604
0.95094889
0.97289298
0.99592227
1.0197535
1.0439733
1.0680378
1.0913012
1.1130773
1.1327311
1.1497763
1.1639492
1.1752341
1.1838351
1.1901091
1.1944866
1.1974032
1.1992525
1.200362
1.2009866
1.2013129
1.2014689
1.2015361
1.2015617
1.2015702
1.2015726
1.2015732
1.2015733
1.2015733
1.2015733
1.2015733
1.2015733
1.2015733
1.2015733
1.2015733
0.7546389
0.76066856
0.76724395
0.77441235
0.78222505
0.79073764
0.80001031
0.81010796
0.82110014
0.83306061
0.8460664
0.86019587
0.87552548
0.89212458
0.91004743
0.92932166
0.9499323
0.97180132
0.99476354
1.0185424
1.0427322
1.0667968
1.090096
1.1119458
1.1317078
1.1488871
1.1632077
1.174641
1.18338
1.189774
1.19425
1.1972434
1.1991497
1.2002994
1.2009507
1.2012936
1.2014591
1.2015311
1.201559
1.2015683
1.201571
1.2015717
1.2015718
1.2015718
1.2015718
1.2015718
1.2015718
1.2015718
1.2015718
1.2015718
0.75438969
0.76039978
0.76695342
0.7740976
0.78188333
0.79036587
0.79960505
0.80966538
0.820616
0.83253028
0.84548487
0.85955784
0.87482555
0.8913575
0.90920859
0.92840776
0.94894234
0.9707378
0.99363397
1.0173608
1.04152
1.065583
1.0889153
1.1108352
1.1307012
1.1480104
1.1624749
1.1740534
1.1829277
1.1894399
1.1940134
1.197083
1.199046
1.2002359
1.2009141
1.2012738
1.2014489
1.201526
1.2015561
1.2015664
1.2015694
1.2015702
1.2015703
1.2015703
1.2015703
1.2015703
1.2015703
1.2015703
1.2015703
1.2015703
0.7541469
0.76013793
0.76667038
0.77379098
0.78155044
0.79000372
0.7992103
0.8092343
0.82014448
0.8320138
0.84491855
0.85893653
0.87414395
0.89061049
0.90839163
0.92751756
0.94797776
0.96970113
0.99253228
1.0162074
1.0403355
1.0643954
1.0877583
1.1097448
1.1297109
1.1471459
1.1617505
1.173471
1.1824784
1.1891071
1.1937769
1.196922
1.1989415
1.2001715
1.2008767
1.2012534
1.2014384
1.2015206
1.2015532
1.2015645
1.2015678
1.2015686
1.2015688
1.2015688
1.2015688
1.2015688
1.2015688
1.2015688
1.2015688
1.2015688
0.75391022
0.75988268
0.76639448
0.7734921
0.78122598
0.78965077
0.79882559
0.80881421
0.819685
0.83151053
0.84436675
0.85833116
0.87347985
0.88988264
0.90759555
0.92664996
0.94703744
0.96869012
0.99145725
1.015081
1.0391777
1.063233
1.0866241
1.1086739
1.1287364
1.1462933
1.1610344
1.1728939
1.1820319
1.1887755
1.1935405
1.1967606
1.1988363
1.2001063
1.2008386
1.2012325
1.2014275
1.2015151
1.2015502
1.2015625
1.2015662
1.2015671
1.2015673
1.2015673
1.2015673
1.2015673
1.2015673
1.2015673
1.2015673
1.2015673
0.75367938
0.75963373
0.7661254
0.77320062
0.78090956
0.78930657
0.79845045
0.80840459
0.819237
0.83101987
0.84382879
0.857741
0.87283245
0.88917306
0.90681939
0.92580395
0.94612029
0.96770365
0.99040775
1.0139806
1.0380453
1.0620948
1.0855119
1.107622
1.1277772
1.1454523
1.1603265
1.1723219
1.1815884
1.1884451
1.1933042
1.1965987
1.1987303
1.2000404
1.2007999
1.201211
1.2014163
1.2015094
1.201547
1.2015604
1.2015645
1.2015656
1.2015658
1.2015658
1.2015658
1.2015658
1.2015658
1.2015658
1.2015658
1.2015658
0.75345412
0.75939081
0.76586283
0.77291621
0.78060083
0.78897076
0.79808445
0.80800498
0.81879997
0.83054126
0.84330407
0.85716537
0.87220099
0.88848094
0.90606229
0.92497858
0.9452253
0.96674066
0.9893827
1.0129051
1.0369376
1.06098
1.0844209
1.1065884
1.1268329
1.1446226
1.1596265
1.1717551
1.1811477
1.1881161
1.1930683
1.1964364
1.1986236
1.1999737
1.2007604
1.2011891
1.2014047
1.2015034
1.2015438
1.2015583
1.2015629
1.201564
1.2015643
1.2015643
1.2015643
1.2015644
1.2015644
1.2015644
1.2015644
1.2015644
0.7532342
0.75915364
0.7656065
0.77263856
0.78029946
0.78864295
0.79772721
0.80761495
0.81837344
0.83007416
0.84279199
0.85660364
0.87158479
0.88780554
0.9053234
0.92417297
0.94435153
0.96580019
0.98838109
1.0118534
1.0358534
1.0598877
1.0833504
1.1055726
1.1259031
1.143804
1.1589344
1.1711934
1.1807099
1.1877883
1.1928326
1.1962738
1.1985163
1.1999063
1.2007204
1.2011666
1.2013928
1.2014973
1.2015405
1.2015562
1.2015612
1.2015625
1.2015628
1.2015628
1.2015629
1.2015629
1.2015629
1.2015629
1.2015629
1.2015629
0.75301939
0.75892199
0.76535614
0.77236739
0.78000512
0.78832282
0.79737834
0.80723408
0.81795696
0.82961808
0.84229203
0.85605522
0.87098319
0.88714612
0.90460197
0.92338628
0.9434981
0.96488128
0.98740199
1.0108247
1.0347919
1.058817
1.0822997
1.1045739
1.1249873
1.1429961
1.1582499
1.1706367
1.1802751
1.187462
1.1925972
1.196111
1.1984084
1.1998382
1.2006797
1.2011437
1.2013806
1.201491
1.2015371
1.2015541
1.2015595
1.2015609
1.2015613
1.2015613
1.2015614
1.2015614
1.2015614
1.2015614