/*--------------------------------*- C++ -*----------------------------------*\
| =========                 |                                                 |
| \\      /  F ield         | OpenFOAM: The Open Source CFD Toolbox           |
|  \\    /   O peration     | Version:  3.0.1                                 |
|   \\  /    A nd           | Web:      www.OpenFOAM.org                      |
|    \\/     M anipulation  |                                                 |
\*---------------------------------------------------------------------------*/
FoamFile
{
    version     2.0;
    format      ascii;
    class       volScalarField;
    location    "3500/fluid";
    object      T;
}
// * * * * * * * * * * * * * * * * * * * * * * * * * * * * * * * * * * * * * //

dimensions      [0 0 0 1 0 0 0];

internalField   nonuniform List<scalar> 
5000
(
326.29551
323.76121
321.09567
318.33742
315.5337
312.73854
310.00978
307.40521
304.97829
302.77394
300.82509
299.15045
297.75391
296.62544
295.74346
295.07805
294.59459
294.25721
294.0318
293.88812
293.80109
293.75122
293.72431
293.71071
293.70431
293.70152
293.7004
293.69999
293.69985
293.69981
293.6998
293.6998
293.6998
293.6998
293.6998
293.6998
293.6998
293.6998
293.6998
293.6998
293.6998
293.6998
293.6998
293.6998
293.6998
293.6998
293.6998
293.6998
293.6998
293.6998
367.88202
363.40165
358.63617
353.62108
348.40606
343.05488
337.6442
332.26092
326.9981
321.94986
317.20557
312.84405
308.92847
305.50235
302.58718
300.18164
298.26262
296.788
295.70097
294.93574
294.42378
294.09994
293.9073
293.80015
293.74475
293.71829
293.7067
293.70207
293.7004
293.69986
293.6997
293.69966
293.69965
293.69965
293.69965
293.69965
293.69965
293.69965
293.69965
293.69965
293.69965
293.69965
293.69965
293.69965
293.69965
293.69965
293.69965
293.69965
293.69965
293.69965
395.31348
390.39223
385.11768
379.494
373.53624
367.2735
360.75192
354.03729
347.21635
340.39616
333.70057
327.26363
321.21996
315.69325
310.78441
306.56156
303.05349
300.24811
298.09592
296.518
295.41703
294.68935
294.23608
293.97142
293.8276
293.75524
293.72175
293.70758
293.70215
293.70028
293.69971
293.69955
293.69951
293.69951
293.69951
293.69951
293.69951
293.69951
293.69951
293.69951
293.69951
293.69951
293.69951
293.69951
293.69951
293.69951
293.69951
293.69951
293.69951
293.69951
413.27599
408.19665
402.74416
396.91266
390.70353
384.12802
377.21035
369.99122
362.53142
354.91482
347.25009
339.66966
332.32497
325.37711
318.98295
313.27857
308.36281
304.28488
301.03925
298.56917
296.77802
295.54526
294.74355
294.25341
293.97337
293.82482
293.75215
293.71961
293.70639
293.70155
293.69997
293.69951
293.69939
293.69936
293.69936
293.69936
293.69936
293.69936
293.69936
293.69936
293.69936
293.69936
293.69936
293.69936
293.69936
293.69936
293.69936
293.69936
293.69936
293.69936
425.20247
420.09547
414.60996
408.73531
402.4661
395.80436
388.7622
381.36518
373.65605
365.69881
357.58229
349.42244
341.36181
333.56488
326.20777
319.46249
313.47743
308.35786
304.15154
300.84352
298.36177
296.59196
295.397
294.6366
294.18306
293.93108
293.80161
293.74055
293.71434
293.70419
293.70067
293.69959
293.6993
293.69923
293.69922
293.69921
293.69921
293.69921
293.69921
293.69921
293.69921
293.69921
293.69921
293.69921
293.69921
293.69921
293.69921
293.69921
293.69921
293.69921
433.32664
428.26701
422.83118
417.00592
410.78199
404.15581
397.13186
389.7255
381.96663
373.90369
365.60802
357.1776
348.73925
340.44753
332.47872
325.0186
318.24409
312.30153
307.28616
303.22867
300.09302
297.78614
296.17638
295.11541
294.45824
294.07798
293.87385
293.77297
293.72746
293.7089
293.7021
293.6999
293.69927
293.69911
293.69907
293.69907
293.69907
293.69907
293.69907
293.69907
293.69907
293.69907
293.69907
293.69907
293.69907
293.69907
293.69907
293.69907
293.69907
293.69907
439.02402
434.04089
428.68688
422.94738
416.81084
410.27023
403.32501
395.98372
388.26713
380.21221
371.87645
363.34231
354.72077
346.1527
337.80614
329.86776
322.52751
315.95753
310.28907
305.59329
301.87172
299.05954
297.04052
295.66858
294.79034
294.26368
293.96979
293.81835
293.7469
293.71633
293.70457
293.70054
293.69933
293.69901
293.69894
293.69892
293.69892
293.69892
293.69892
293.69892
293.69892
293.69892
293.69892
293.69892
293.69892
293.69892
293.69892
293.69892
293.69892
293.69892
443.15468
438.25868
432.99837
427.35841
421.32587
414.89151
408.05145
400.8094
393.17957
385.19023
376.88799
368.34238
359.65013
350.93809
342.36292
334.10574
326.36002
319.31259
313.12027
307.88727
303.64989
300.37347
297.96247
296.28013
295.17173
294.48583
294.0897
293.87779
293.77368
293.72715
293.70841
293.70168
293.69954
293.69895
293.69881
293.69878
293.69878
293.69877
293.69877
293.69877
293.69877
293.69877
293.69877
293.69877
293.69877
293.69877
293.69877
293.69877
293.69877
293.69877
446.25059
441.44081
436.27344
430.73278
424.80509
418.47972
411.75053
404.61787
397.09117
389.19221
380.95914
372.451
363.7524
354.97723
346.27014
337.80367
329.76913
322.36025
315.75084
310.07071
305.38625
301.6918
298.91464
296.93159
295.59182
294.73955
294.23213
293.95145
293.80842
293.7419
293.71396
293.70346
293.69997
293.69895
293.6987
293.69864
293.69863
293.69863
293.69863
293.69863
293.69863
293.69863
293.69863
293.69863
293.69863
293.69863
293.69863
293.69863
293.69863
293.69863
448.64839
443.92005
438.84056
433.39409
427.56645
421.34607
414.72527
407.70199
400.28213
392.48253
384.33472
375.8893
367.22064
358.4312
349.65412
341.05225
332.81164
325.12781
318.18519
312.13278
307.06213
302.99406
299.87885
297.60922
296.0417
295.02003
294.39517
294.03904
293.85147
293.76103
293.72152
293.70605
293.70067
293.69904
293.6986
293.6985
293.69849
293.69848
293.69848
293.69848
293.69848
293.69848
293.69848
293.69848
293.69848
293.69848
293.69848
293.69848
293.69848
293.69848
450.56243
445.9089
440.91021
435.5505
429.81535
423.69262
417.17355
410.25434
402.93825
395.23834
387.18094
378.80981
370.19082
361.41649
352.6094
343.92266
335.53545
327.64183
320.43217
314.06946
308.66574
304.26535
300.8406
298.30104
296.51285
295.32215
294.5763
294.13973
293.90285
293.78482
293.73137
293.70961
293.70174
293.69923
293.69854
293.69838
293.69834
293.69834
293.69834
293.69834
293.69834
293.69834
293.69834
293.69834
293.69834
293.69834
293.69834
293.69834
293.69834
293.69834
452.13252
447.54709
442.62197
437.34137
431.69077
425.65765
419.23249
412.41024
405.19214
397.58832
389.62093
381.3282
372.76888
364.02698
355.21558
346.47846
337.98732
329.93273
322.5077
315.88514
310.19355
305.49771
301.79048
298.99834
296.99844
295.6413
294.77299
294.25246
293.96235
293.81342
293.74371
293.7143
293.70324
293.69958
293.69852
293.69826
293.6982
293.69819
293.69819
293.69819
293.69819
293.69819
293.69819
293.69819
293.69819
293.69819
293.69819
293.69819
293.69819
293.69819
453.45125
448.92757
444.06917
438.86039
433.28666
427.33524
420.99609
414.2632
407.13626
399.62308
391.74249
383.52813
375.03282
366.33321
357.53401
348.77029
340.20615
332.02752
324.42776
317.5865
311.64532
306.68659
302.72196
299.6944
297.49274
295.97334
294.98267
294.37598
294.02959
293.84685
293.7587
293.72025
293.70526
293.7001
293.69855
293.69815
293.69806
293.69805
293.69804
293.69804
293.69804
293.69804
293.69804
293.69804
293.69804
293.69804
293.69804
293.69804
293.69804
293.69804
454.58151
450.11386
445.31602
440.17246
434.66863
428.79166
422.53113
415.88029
408.83766
401.40914
393.61088
385.47272
377.04245
368.39043
359.61393
350.84004
342.22545
333.95087
326.2084
319.18199
313.02351
307.83031
303.63103
300.38445
297.99131
296.31476
295.20302
294.50902
294.10404
293.88505
293.77643
293.72757
293.70788
293.70085
293.69866
293.69807
293.69793
293.6979
293.6979
293.6979
293.6979
293.6979
293.6979
293.6979
293.6979
293.6979
293.6979
293.6979
293.6979
293.6979
455.56683
451.15017
446.40745
441.32326
435.88313
430.07409
423.88547
417.30996
410.34512
402.99534
395.27451
387.20931
378.84327
370.24129
361.49405
352.72142
344.07302
335.72403
327.86428
320.68022
314.33168
308.92874
304.51532
301.06509
298.49067
296.66262
295.43191
294.65029
294.18511
293.92784
293.79694
293.73635
293.71116
293.70185
293.69885
293.698
293.6978
293.69776
293.69775
293.69775
293.69775
293.69775
293.69775
293.69775
293.69775
293.69775
293.69775
293.69775
293.69775
293.69775
456.43813
452.06805
447.37568
442.34574
436.96385
431.217
425.09433
418.5881
411.69507
404.41842
396.77015
388.77426
380.47062
371.91936
363.20538
354.44197
345.7721
337.36539
329.40869
322.0896
315.57405
309.98287
305.37365
301.73399
298.98816
297.01451
295.6675
294.79861
294.27217
293.975
293.82021
293.74666
293.71516
293.70316
293.69914
293.69797
293.69768
293.69762
293.69761
293.69761
293.69761
293.69761
293.69761
293.69761
293.69761
293.69761
293.69761
293.69761
293.69761
293.69761
457.21783
452.89048
448.24428
443.26413
437.9357
432.246
426.18401
419.74165
412.91507
405.70638
398.12602
390.19569
381.95209
373.45121
364.77278
356.02413
347.34203
338.89063
330.85339
323.41799
316.75501
310.99431
306.20566
302.38962
299.48178
297.36846
295.90817
294.95285
294.3646
294.02626
293.8462
293.75852
293.71994
293.70479
293.69955
293.69797
293.69757
293.69748
293.69746
293.69746
293.69746
293.69746
293.69746
293.69746
293.69746
293.69746
293.69746
293.69746
293.69746
293.69746
457.92254
453.63456
449.03092
444.09663
438.81749
433.1805
427.17456
420.79129
414.02633
406.88093
399.36415
391.49573
383.30961
374.85812
366.21639
357.48634
348.799
340.31318
332.20872
324.67263
317.87889
311.96499
307.01152
303.03105
299.97006
297.72292
296.15258
295.11203
294.46178
294.08133
293.87482
293.77197
293.72554
293.70678
293.7001
293.69802
293.69747
293.69734
293.69732
293.69731
293.69731
293.69731
293.69731
293.69731
293.69731
293.69731
293.69731
293.69731
293.69731
293.69731
458.56485
454.3133
449.74904
444.8572
439.62368
434.03551
428.08151
421.75311
415.04547
407.95912
400.50195
392.69198
384.56074
376.15729
367.55266
358.84386
350.15656
341.6445
333.48372
325.86004
318.94984
312.89702
307.79177
303.65777
300.45194
298.07665
296.39958
295.27526
294.56313
294.13991
293.90598
293.787
293.73199
293.70918
293.70081
293.69812
293.69738
293.69721
293.69717
293.69717
293.69717
293.69717
293.69717
293.69717
293.69717
293.69717
293.69717
293.69717
293.69717
293.69717
459.15449
454.93678
450.40909
445.5567
440.36557
434.82279
428.91713
422.63982
415.98568
408.95457
401.55339
393.79864
385.7197
377.36278
368.79516
360.10939
351.42618
342.89442
334.68633
326.98611
319.97177
313.79254
308.54718
304.26959
300.92666
298.42865
296.6482
295.44174
294.66812
294.2017
293.93953
293.80358
293.73932
293.71199
293.70169
293.69828
293.69731
293.69708
293.69703
293.69702
293.69702
293.69702
293.69702
293.69702
293.69702
293.69702
293.69702
293.69702
293.69702
293.69702
459.69907
455.51293
451.01936
446.20375
441.05216
435.55173
429.69119
423.46164
416.85757
409.87828
402.52979
394.82727
386.7982
378.48617
369.95514
361.29357
352.61755
344.07137
335.82346
328.05609
320.94826
314.65367
309.27865
304.86654
301.3937
298.77817
296.89766
295.6108
294.77623
294.26639
293.97536
293.82169
293.74753
293.71525
293.70276
293.69851
293.69727
293.69695
293.69689
293.69688
293.69687
293.69687
293.69687
293.69687
293.69687
293.69687
293.69687
293.69687
293.69687
293.69687
460.20471
456.04812
451.58647
446.80528
441.69071
436.22993
430.41166
424.22688
417.66981
410.73926
403.44047
395.78741
387.80588
379.53712
371.04206
362.40539
353.73896
345.18266
336.90119
329.0747
321.88265
315.48244
309.98714
305.4488
301.85275
299.12462
297.14729
295.78185
294.88704
294.33371
294.01331
293.84128
293.75664
293.71898
293.70403
293.69882
293.69724
293.69684
293.69675
293.69673
293.69673
293.69673
293.69673
293.69673
293.69673
293.69673
293.69673
293.69673
293.69673
293.69673
460.67636
456.5475
452.11583
447.36696
442.28715
436.86361
431.08506
424.94238
418.42954
411.54496
404.29313
396.68701
388.75082
380.52374
372.06388
363.45251
354.79749
346.23459
337.92484
330.04612
322.77796
316.28079
310.67368
306.01667
302.30362
299.46756
297.39656
295.95437
295.00013
294.40338
294.05324
293.8623
293.76664
293.72318
293.70553
293.69921
293.69725
293.69673
293.69661
293.69659
293.69658
293.69658
293.69658
293.69658
293.69658
293.69658
293.69658
293.69658
293.69658
293.69658
461.11808
457.01534
452.61189
447.89346
442.84638
437.45793
431.71681
425.61382
419.14274
412.30159
405.09426
397.53273
389.63986
381.45288
373.02738
364.44146
355.79927
347.23266
338.89911
330.97413
323.63697
317.05055
311.33925
306.57051
302.74623
299.80664
297.64502
296.12793
295.11513
294.47515
294.09501
293.88469
293.77753
293.72788
293.70726
293.6997
293.69729
293.69663
293.69647
293.69644
293.69644
293.69644
293.69644
293.69644
293.69644
293.69644
293.69644
293.69644
293.69644
293.69644
461.53325
457.45518
453.07839
448.3887
443.37253
438.01721
432.31146
426.24599
419.81441
413.01441
405.84931
398.33023
390.47877
382.3304
373.93839
365.3779
356.74961
348.18169
339.82815
331.86209
324.4622
317.79342
311.98485
307.11073
303.18059
300.14163
297.89232
296.30216
295.23174
294.54878
294.13847
293.90839
293.78928
293.73307
293.70924
293.70029
293.69736
293.69653
293.69634
293.6963
293.69629
293.69629
293.69629
293.69629
293.69629
293.69629
293.69629
293.69629
293.69629
293.69629
461.92471
457.87
453.51844
448.85597
443.86906
438.54512
432.87286
426.84295
420.44883
413.68789
406.56295
399.08434
391.27251
383.16134
374.80192
366.2667
357.65314
349.08588
340.71563
332.713
325.25595
318.51099
312.61142
307.63778
303.60677
300.47235
298.13816
296.47673
295.34966
294.62406
294.1835
293.93333
293.80187
293.73876
293.71147
293.70099
293.69747
293.69646
293.69621
293.69615
293.69615
293.69614
293.69614
293.69614
293.69614
293.69614
293.69614
293.69614
293.69614
293.69614
462.29488
458.26234
453.93473
449.29807
444.33894
439.04477
433.40431
427.40816
421.04965
414.32587
407.23919
399.79922
392.02538
383.95003
375.62231
367.11212
358.51391
349.94898
341.56482
333.5296
326.02031
319.20474
313.2199
308.15209
304.02487
300.7987
298.38231
296.65138
295.46864
294.7008
294.22996
293.95944
293.8153
293.74496
293.71396
293.7018
293.69763
293.69639
293.69608
293.69601
293.696
293.696
293.696
293.696
293.696
293.696
293.696
293.696
293.696
293.696
462.64582
458.63437
454.32953
449.71742
444.7847
439.51885
433.90864
427.94463
421.62002
414.93165
407.88149
400.47848
392.74107
384.70027
376.40337
367.9179
359.33548
350.77426
342.37863
334.31431
326.7572
319.87604
313.81113
308.65414
304.43503
301.12059
298.62459
296.82587
295.58845
294.77881
294.27773
293.98665
293.82952
293.75165
293.71672
293.70274
293.69783
293.69634
293.69595
293.69587
293.69585
293.69585
293.69585
293.69585
293.69585
293.69585
293.69585
293.69585
293.69585
293.69585
462.97932
458.98795
454.70481
450.1161
445.20855
439.96969
434.38831
428.45494
422.16266
415.50811
408.49286
401.12525
393.42284
385.41537
377.14842
368.68732
360.12102
351.56466
343.15968
335.06934
327.46836
320.52616
314.38597
309.14437
304.83743
301.438
298.86484
297
295.70891
294.85792
294.32669
294.0149
293.84451
293.75884
293.71975
293.70381
293.69809
293.69631
293.69583
293.69573
293.69571
293.69571
293.69571
293.69571
293.69571
293.69571
293.69571
293.69571
293.69571
293.69571
463.29692
459.32473
455.06231
450.49593
445.6124
440.39931
434.84546
428.94135
422.67998
416.05777
409.07594
401.74229
394.07353
386.09824
377.8604
369.42329
360.87332
352.3228
343.91031
335.7967
328.15539
321.15628
314.94518
309.62322
305.23223
301.75093
299.10295
297.17361
295.82983
294.938
294.37674
294.04413
293.86025
293.76652
293.72306
293.70501
293.6984
293.69629
293.69572
293.69559
293.69556
293.69556
293.69556
293.69556
293.69556
293.69556
293.69556
293.69556
293.69556
293.69556
463.59998
459.64613
455.40352
450.8585
445.99794
440.80949
435.28197
429.40587
423.17408
416.58284
409.63306
402.33201
394.69565
386.75146
378.54192
370.12837
361.59487
353.05102
344.63262
336.49818
328.81974
321.76749
315.4895
310.09112
305.61964
302.05939
299.33883
297.34656
295.95108
295.0189
294.42777
294.07426
293.87669
293.77468
293.72665
293.70635
293.69877
293.6963
293.69561
293.69545
293.69542
293.69541
293.69541
293.69541
293.69541
293.69541
293.69541
293.69541
293.69541
293.69541
463.88968
459.9534
455.72976
451.2052
446.36665
441.20181
435.69951
429.85024
423.6468
417.08528
410.16627
402.89657
395.29143
387.3773
379.19528
370.80489
362.28792
353.75142
345.32853
337.17543
329.46276
322.3608
316.01964
310.54851
305.99983
302.36343
299.57243
297.51873
296.07251
295.10051
294.47968
294.10524
293.89382
293.78331
293.73053
293.70784
293.6992
293.69633
293.69551
293.69531
293.69527
293.69527
293.69527
293.69527
293.69527
293.69527
293.69527
293.69527
293.69527
293.69527
464.16708
460.24766
456.04222
451.53728
446.71984
441.57763
436.09954
430.27602
424.0998
417.56682
410.67739
403.43788
395.86285
387.97782
379.82256
371.45488
362.95446
354.42589
345.99976
337.82996
330.08568
322.93716
316.53625
310.99576
306.37303
302.66308
299.80369
297.69003
296.19401
295.18271
294.5324
294.13701
293.9116
293.79239
293.73468
293.70947
293.69969
293.69638
293.69542
293.69518
293.69513
293.69512
293.69512
293.69512
293.69512
293.69512
293.69512
293.69512
293.69512
293.69512
464.43312
460.52988
456.34193
451.85584
447.05867
441.93822
436.48337
430.68459
424.53455
418.02901
411.16806
403.95763
396.41169
388.55483
380.42561
372.08022
363.59631
355.07616
346.64787
338.46313
330.68963
323.49742
317.03994
311.43328
306.73941
302.95842
300.03258
297.86037
296.31548
295.2654
294.58585
294.16952
293.92999
293.80193
293.73911
293.71125
293.70026
293.69646
293.69533
293.69505
293.69499
293.69498
293.69497
293.69497
293.69497
293.69497
293.69497
293.69497
293.69497
293.69497
464.68861
460.80095
456.62982
452.16186
447.38419
442.28466
436.85218
431.0772
424.95234
418.47324
411.63973
404.45737
396.93953
389.10998
381.0061
372.68256
364.21511
355.70378
347.2743
339.07619
331.27565
324.04242
317.53128
311.86144
307.09919
303.2495
300.25908
298.02968
296.43682
295.34851
294.63994
294.20271
293.94897
293.81189
293.74382
293.71319
293.7009
293.69657
293.69526
293.69492
293.69484
293.69483
293.69483
293.69483
293.69483
293.69483
293.69483
293.69483
293.69483
293.69483
464.93432
461.06166
456.90672
452.45622
447.69733
442.61795
437.20701
431.45496
425.35437
418.90076
412.09372
404.93846
397.44781
389.64474
381.56554
373.26342
364.81233
356.31015
347.88036
339.67031
331.8447
324.57289
318.01084
312.28057
307.45255
303.53641
300.4832
298.19792
296.55797
295.43194
294.6946
294.23652
293.96851
293.82228
293.7488
293.71527
293.70161
293.69671
293.69519
293.69479
293.6947
293.69469
293.69468
293.69468
293.69468
293.69468
293.69468
293.69468
293.69468
293.69468
465.17091
461.31271
457.17339
452.73972
447.99894
442.93898
437.54882
431.81888
425.7417
419.31268
412.5312
405.40215
397.93782
390.16045
382.10528
373.82417
365.38931
356.89658
348.46722
340.24653
332.39767
325.08955
318.47912
312.69104
307.79969
303.81922
300.70492
298.36502
296.67886
295.51563
294.74979
294.27093
293.98857
293.83308
293.75405
293.71752
293.70239
293.69688
293.69514
293.69467
293.69456
293.69454
293.69454
293.69454
293.69454
293.69454
293.69454
293.69454
293.69454
293.69454
465.399
461.55475
457.4305
453.01308
448.28977
443.24856
437.87845
432.16987
426.11529
419.71002
412.95326
405.84956
398.41074
390.65832
382.62658
374.36605
365.9473
357.46424
349.036
340.80584
332.9354
325.59304
318.9366
313.09314
308.14078
304.09802
300.92426
298.53097
296.79941
295.59951
294.80543
294.30587
294.00913
293.84426
293.75957
293.71992
293.70326
293.69708
293.69509
293.69455
293.69442
293.69439
293.69439
293.69439
293.69439
293.69439
293.69439
293.69439
293.69439
293.69439
465.61912
461.78836
457.67867
453.27695
448.57052
443.54743
438.19669
432.50873
426.47601
420.09371
413.36086
406.28172
398.86763
391.13946
383.13055
374.89021
366.48741
358.01421
349.58769
341.34912
333.45863
326.08398
319.38373
313.4872
308.47602
304.37289
301.14123
298.69572
296.9196
295.68353
294.86148
294.34131
294.03017
293.85582
293.76535
293.72248
293.7042
293.69732
293.69506
293.69443
293.69428
293.69425
293.69424
293.69424
293.69424
293.69424
293.69424
293.69424
293.69424
293.69424
465.83178
462.01407
457.91846
453.53191
448.84182
443.83624
438.50423
432.83624
426.82465
420.46459
413.7549
406.69955
399.30947
391.60488
383.61824
375.39767
367.01067
358.54749
350.12322
341.87722
333.96809
326.56294
319.82095
313.87351
308.80558
304.6439
301.35585
298.85926
297.03936
295.76763
294.91788
294.37721
294.05165
293.86775
293.77139
293.72519
293.70523
293.69759
293.69504
293.69432
293.69414
293.6941
293.6941
293.6941
293.6941
293.6941
293.6941
293.6941
293.6941
293.6941
466.03743
462.23234
458.15037
453.77851
449.10422
444.1156
438.80174
433.15306
427.16195
420.82342
414.13618
407.10391
399.73714
392.05549
384.09058
375.8894
367.51803
359.06498
350.64344
342.3909
334.46444
327.03046
320.24866
314.25233
309.12963
304.91115
301.56815
299.02157
297.15866
295.85176
294.9746
294.41353
294.07355
293.88003
293.77768
293.72806
293.70634
293.6979
293.69504
293.69421
293.694
293.69396
293.69395
293.69395
293.69395
293.69395
293.69395
293.69395
293.69395
293.69395
466.23648
462.44363
458.37487
454.01725
449.35827
444.38608
439.08978
433.45983
427.48856
421.17091
414.50543
407.49558
400.15146
392.49214
384.54844
376.36628
368.01036
359.56753
351.14916
342.89088
334.94828
327.48704
320.66723
314.62395
309.44833
305.17473
301.77815
299.18263
297.27747
295.93589
295.03158
294.45023
294.09584
293.89264
293.78421
293.73108
293.70753
293.69825
293.69505
293.6941
293.69387
293.69382
293.69381
293.69381
293.69381
293.69381
293.69381
293.69381
293.69381
293.69381
466.42933
462.64834
458.59238
454.24856
449.60443
444.64817
439.36891
433.75711
427.80509
421.5077
414.86336
407.87526
400.55317
392.9156
384.99261
376.82911
368.48845
360.05592
351.64109
343.37782
335.42021
327.93314
321.07703
314.9886
309.76183
305.4347
301.98587
299.34244
297.39575
296.01998
295.0888
294.4873
294.11851
293.90557
293.79098
293.73426
293.70881
293.69864
293.69508
293.694
293.69373
293.69367
293.69366
293.69366
293.69366
293.69366
293.69366
293.69366
293.69366
293.69366
466.6163
462.84683
458.8033
454.47287
449.84314
444.90234
439.63962
434.04544
428.11209
421.83438
415.21056
408.24363
400.94297
393.3266
385.42385
377.27863
368.95305
360.53087
352.11993
343.85234
335.88074
328.36922
321.47841
315.34653
310.07031
305.69116
302.19135
299.501
297.5135
296.10398
295.14621
294.52469
294.14153
293.91881
293.79799
293.73759
293.71018
293.69907
293.69512
293.69391
293.6936
293.69353
293.69352
293.69351
293.69351
293.69351
293.69351
293.69351
293.69351
293.69351
466.79774
463.03944
459.00798
454.69056
450.07482
445.14902
439.90236
434.3253
428.4101
422.1515
415.54763
408.60128
401.32149
393.72579
385.84281
377.71553
369.40485
360.99305
352.5863
344.31501
336.33039
328.79567
321.87166
315.69798
310.37389
305.94419
302.39462
299.6583
297.63067
296.18788
295.20379
294.56238
294.16487
293.93234
293.80522
293.74107
293.71163
293.69955
293.69519
293.69382
293.69346
293.69338
293.69337
293.69337
293.69337
293.69337
293.69337
293.69337
293.69337
293.69337
466.97392
463.22649
459.20675
454.90197
450.29983
445.38862
440.15756
434.59713
428.69957
422.45955
415.8751
408.94877
401.68932
394.11378
386.25013
378.14045
369.84448
361.44307
353.04079
344.76639
336.76963
329.21291
322.25711
316.04315
310.67272
306.19387
302.59571
299.81435
297.74726
296.27165
295.26151
294.60034
294.18852
293.94616
293.81267
293.7447
293.71317
293.70006
293.69527
293.69374
293.69333
293.69324
293.69322
293.69322
293.69322
293.69322
293.69322
293.69322
293.69322
293.69322
467.14513
463.40827
459.39993
455.10744
450.51851
445.62149
440.40561
434.86135
428.98095
422.75901
416.19345
409.28663
402.047
394.49114
386.6464
378.55399
370.27254
361.88153
353.48395
345.20696
337.1989
329.62129
322.63504
316.38225
310.96695
306.44026
302.79467
299.96914
297.86325
296.35526
295.31933
294.63854
294.21247
293.96024
293.82033
293.74848
293.7148
293.70063
293.69536
293.69367
293.69321
293.6931
293.69308
293.69308
293.69308
293.69307
293.69307
293.69307
293.69307
293.69307
467.31161
463.58503
459.5878
455.30727
450.7312
445.84798
440.64687
435.11835
429.25464
423.05031
416.50315
409.61533
402.39503
394.85839
387.03215
378.95669
370.68957
362.30895
353.9163
345.63721
337.61862
330.02115
323.00572
316.71549
311.25669
306.68346
302.99151
300.12269
297.97863
296.43868
295.37725
294.67697
294.23668
293.97458
293.8282
293.7524
293.71651
293.70123
293.69548
293.6936
293.69308
293.69296
293.69293
293.69293
293.69293
293.69293
293.69293
293.69293
293.69293
293.69293
467.47361
463.75705
459.77061
455.50173
450.93818
446.0684
440.88166
435.36848
429.52103
423.33385
416.80461
409.93533
402.73389
395.21602
387.40788
379.34907
371.09609
362.72583
354.33831
346.05756
338.02916
330.41284
323.36942
317.04306
311.54208
306.92353
303.18628
300.275
298.09339
296.52191
295.43522
294.71561
294.26115
293.98917
293.83627
293.75646
293.71831
293.70189
293.69562
293.69355
293.69296
293.69282
293.69279
293.69278
293.69278
293.69278
293.69278
293.69278
293.69278
293.69278
467.63134
463.92453
459.94863
455.69108
451.13974
446.28305
441.11032
435.61207
429.78047
423.61
417.09824
410.24703
403.064
395.56449
387.77408
379.7316
371.49258
363.13266
354.75044
346.46845
338.43091
330.79665
323.72636
317.36512
311.82324
307.16055
303.379
300.42608
298.20751
296.60492
295.49324
294.75443
294.28586
294.00399
293.84454
293.76066
293.7202
293.70259
293.69578
293.69349
293.69284
293.69268
293.69264
293.69264
293.69264
293.69264
293.69264
293.69264
293.69264
293.69264
467.78501
464.0877
460.12206
455.87557
451.33612
446.49219
441.33312
435.84942
430.03328
423.8791
417.38439
410.55083
403.38578
395.90421
388.13116
380.10473
371.87948
363.52987
355.1531
346.87025
338.82421
331.17288
324.0768
317.68187
312.10029
307.39459
303.56973
300.57594
298.321
296.68769
295.55128
294.79341
294.31079
294.01903
293.85299
293.765
293.72218
293.70333
293.69597
293.69345
293.69272
293.69254
293.6925
293.69249
293.69249
293.69249
293.69249
293.69249
293.69249
293.69249
467.93479
464.24676
460.29113
456.05542
451.52757
446.69609
441.55033
436.08083
430.27976
424.14149
417.66342
410.84709
403.69961
396.23559
388.47955
380.46889
372.25722
363.91787
355.54669
347.26334
339.20939
331.54181
324.42094
317.99345
312.37334
307.62571
303.75848
300.72458
298.43385
296.77022
295.60932
294.83254
294.33593
294.03429
293.86162
293.76947
293.72424
293.70413
293.69617
293.69342
293.6926
293.6924
293.69235
293.69235
293.69234
293.69234
293.69234
293.69234
293.69234
293.69234
468.08088
464.40189
460.45603
456.23085
451.71431
446.89497
441.76221
436.30657
430.52021
424.39746
417.93564
411.13614
404.00583
396.55899
388.81962
380.82445
372.62619
364.29705
355.93159
347.64806
339.58674
331.9037
324.75901
318.30004
312.64249
307.85399
303.94529
300.87203
298.54605
296.85249
295.66736
294.87181
294.36126
294.04974
293.87042
293.77407
293.72638
293.70497
293.6964
293.69339
293.69249
293.69226
293.69221
293.6922
293.6922
293.6922
293.6922
293.6922
293.6922
293.6922
468.22342
464.55328
460.61695
456.40204
451.89655
447.08907
441.96899
436.52689
430.75489
424.64729
418.20135
411.4183
404.30479
396.87476
389.15174
381.17178
372.98676
364.66778
356.30814
348.02474
339.95658
332.25879
325.09119
318.60177
312.90785
308.07948
304.13021
301.01828
298.6576
296.93449
295.72537
294.91119
294.38678
294.06539
293.8794
293.7788
293.72861
293.70586
293.69665
293.69338
293.69238
293.69212
293.69206
293.69205
293.69205
293.69205
293.69205
293.69205
293.69205
293.69205
468.36259
464.70108
460.77406
456.56918
452.07449
447.27859
442.1709
436.74201
430.98405
424.89126
418.46084
411.69386
404.59679
397.18322
389.47623
381.51124
373.33927
365.03039
356.67667
348.39368
340.31916
332.60733
325.41769
318.8988
313.16953
308.30225
304.31325
301.16337
298.7685
297.01621
295.78335
294.95067
294.41247
294.08122
293.88854
293.78366
293.73092
293.7068
293.69692
293.69337
293.69227
293.69198
293.69192
293.69191
293.69191
293.69191
293.69191
293.69191
293.69191
293.69191
468.49852
464.84544
460.92752
456.73246
452.24831
447.46372
442.36815
436.95217
431.20792
425.12962
418.71436
411.96312
404.88213
397.48469
389.79342
381.84314
373.68405
365.38522
357.03749
348.75517
340.67476
332.94954
325.73868
319.19126
313.42761
308.52237
304.49446
301.30729
298.87875
297.09764
295.84127
294.99025
294.43831
294.09723
293.89783
293.78864
293.73332
293.70778
293.69722
293.69338
293.69217
293.69185
293.69178
293.69176
293.69176
293.69176
293.69176
293.69176
293.69176
293.69176
468.63135
464.98652
461.0775
456.89202
452.41818
447.64465
442.56092
437.15757
431.42673
425.36259
418.96216
412.22632
405.16108
397.77944
390.10361
382.16779
374.02141
365.73255
357.39091
349.1095
341.02362
333.28563
326.05433
319.47929
313.6822
308.73988
304.67387
301.45006
298.98834
297.17877
295.89913
295.0299
294.4643
294.1134
293.90728
293.79373
293.7358
293.70882
293.69754
293.69339
293.69207
293.69171
293.69163
293.69162
293.69161
293.69161
293.69161
293.69161
293.69161
293.69161
468.76121
465.12444
461.22412
457.04802
452.58426
447.82156
442.7494
437.35841
431.64068
425.59039
419.20449
412.48371
405.4339
398.06776
390.40707
382.48547
374.35164
366.07269
357.73719
349.45691
341.36598
333.6158
326.36482
319.763
313.93338
308.95486
304.85151
301.59169
299.09729
297.25961
295.95692
295.06962
294.49043
294.12973
293.91687
293.79895
293.73835
293.7099
293.69789
293.69342
293.69198
293.69158
293.69149
293.69147
293.69147
293.69147
293.69147
293.69147
293.69147
293.69147
468.88822
465.25934
461.36754
457.20061
452.74671
447.99459
442.93377
437.55486
431.84997
425.81324
419.44155
412.73553
405.70084
398.34989
390.70407
382.79646
374.67501
366.4059
358.0766
349.79767
341.70205
333.94025
326.6703
320.04253
314.18123
309.16735
305.0274
301.7322
299.20559
297.34013
296.01463
295.10939
294.51668
294.14621
293.9266
293.80427
293.74099
293.71103
293.69827
293.69346
293.69189
293.69145
293.69134
293.69133
293.69132
293.69132
293.69132