/*--------------------------------*- C++ -*----------------------------------*\
| =========                 |                                                 |
| \\      /  F ield         | OpenFOAM: The Open Source CFD Toolbox           |
|  \\    /   O peration     | Version:  3.0.1                                 |
|   \\  /    A nd           | Web:      www.OpenFOAM.org                      |
|    \\/     M anipulation  |                                                 |
\*---------------------------------------------------------------------------*/
FoamFile
{
    version     2.0;
    format      ascii;
    class       volScalarField;
    location    "10000/fluid";
    object      T;
}
// * * * * * * * * * * * * * * * * * * * * * * * * * * * * * * * * * * * * * //

dimensions      [0 0 0 1 0 0 0];

internalField   nonuniform List<scalar> 
4000
(
394.55213
352.85858
325.34237
309.38536
300.95954
296.84359
294.97305
294.18136
293.86957
293.75549
293.71679
293.70463
293.7011
293.70016
293.69992
293.69987
293.69986
293.69985
293.69985
293.69985
293.69985
293.69985
293.69985
293.69985
293.69985
293.69985
293.69985
293.69985
293.69985
293.69985
293.69985
293.69985
293.69986
293.69986
293.69986
293.69986
293.69986
293.69986
293.69986
293.69987
408.54037
373.99185
344.77879
323.15605
309.17656
301.16673
297.02886
295.07605
294.22778
293.88761
293.76162
293.71857
293.70501
293.70108
293.70004
293.69978
293.69972
293.69971
293.69971
293.69971
293.69971
293.69971
293.69971
293.69971
293.69971
293.69971
293.69971
293.69971
293.69971
293.69971
293.69971
293.69971
293.69971
293.69971
293.69971
293.69971
293.69971
293.69971
293.69971
293.69972
416.10173
384.45253
356.30841
333.3762
316.68855
305.89903
299.6539
296.38217
294.81711
294.13008
293.85278
293.74986
293.71478
293.7038
293.70065
293.69982
293.69962
293.69957
293.69956
293.69956
293.69956
293.69956
293.69956
293.69956
293.69956
293.69956
293.69956
293.69956
293.69956
293.69956
293.69956
293.69956
293.69956
293.69956
293.69956
293.69956
293.69956
293.69957
293.69957
293.69957
421.69113
391.46857
364.1683
340.98645
322.98881
310.39663
302.468
297.94952
295.60293
294.4871
294.00026
293.8053
293.73371
293.70962
293.70221
293.70012
293.69958
293.69945
293.69942
293.69942
293.69942
293.69942
293.69942
293.69942
293.69942
293.69942
293.69942
293.69942
293.69942
293.69942
293.69942
293.69942
293.69942
293.69942
293.69942
293.69942
293.69942
293.69942
293.69942
293.69942
426.04405
396.76686
370.1011
346.94599
328.2589
314.4809
305.25972
299.64973
296.53376
294.94796
294.20724
293.88973
293.76497
293.72008
293.70532
293.70088
293.69966
293.69936
293.69929
293.69927
293.69927
293.69927
293.69927
293.69927
293.69927
293.69927
293.69927
293.69927
293.69927
293.69927
293.69927
293.69927
293.69927
293.69927
293.69927
293.69927
293.69927
293.69927
293.69927
293.69928
429.50984
400.96356
374.82094
351.79064
332.72064
318.13599
307.92514
301.39014
297.55784
295.49343
294.47087
294.00541
293.81102
293.73668
293.71068
293.70239
293.69997
293.69932
293.69917
293.69913
293.69913
293.69912
293.69912
293.69912
293.69912
293.69912
293.69912
293.69912
293.69912
293.69912
293.69912
293.69912
293.69912
293.69912
293.69912
293.69912
293.69913
293.69913
293.69913
293.69913
432.32391
404.38701
378.70075
355.83848
336.55482
321.40337
310.4255
303.11392
298.63328
296.10259
294.78455
294.15225
293.87344
293.76071
293.71902
293.70494
293.7006
293.69938
293.69907
293.699
293.69898
293.69898
293.69898
293.69898
293.69898
293.69898
293.69898
293.69898
293.69898
293.69898
293.69898
293.69898
293.69898
293.69898
293.69898
293.69898
293.69898
293.69898
293.69898
293.69898
434.65133
407.24117
381.96375
359.28959
339.89436
324.33502
312.75356
304.78928
299.7295
296.75633
295.1401
294.32843
293.95284
293.79318
293.73102
293.7089
293.70171
293.69959
293.69901
293.69887
293.69884
293.69883
293.69883
293.69883
293.69883
293.69883
293.69883
293.69883
293.69883
293.69883
293.69883
293.69883
293.69883
293.69883
293.69883
293.69883
293.69883
293.69883
293.69884
293.69884
436.60997
409.66389
384.75713
362.27883
342.83699
326.97946
314.91609
306.40015
300.82552
297.43881
295.52908
294.53106
294.04908
293.83473
293.74726
293.7146
293.70346
293.7
293.69902
293.69876
293.6987
293.69869
293.69869
293.69869
293.69869
293.69868
293.69868
293.69868
293.69868
293.69868
293.69868
293.69868
293.69868
293.69869
293.69869
293.69869
293.69869
293.69869
293.69869
293.69869
438.2848
411.75234
387.18368
364.90174
345.45591
329.37838
316.92532
307.93982
301.90762
298.13761
295.94373
294.75671
294.16137
293.88565
293.76822
293.72237
293.70601
293.70069
293.6991
293.69868
293.69857
293.69855
293.69854
293.69854
293.69854
293.69854
293.69854
293.69854
293.69854
293.69854
293.69854
293.69854
293.69854
293.69854
293.69854
293.69854
293.69854
293.69854
293.69854
293.69854
439.73768
413.57693
389.31786
367.22852
347.80704
331.56663
318.79503
309.40688
302.96719
298.84335
296.37727
295.00186
294.28854
293.94594
293.79421
293.73251
293.70954
293.70173
293.69931
293.69862
293.69845
293.6984
293.6984
293.69839
293.69839
293.69839
293.69839
293.69839
293.69839
293.69839
293.69839
293.69839
293.69839
293.69839
293.69839
293.69839
293.69839
293.6984
293.6984
293.6984
441.01416
415.18971
391.21506
369.31213
349.93393
333.57314
320.53873
310.80288
303.99911
299.54913
296.82403
295.26312
294.42918
294.01532
293.82544
293.74526
293.71421
293.70322
293.69967
293.69862
293.69834
293.69827
293.69825
293.69825
293.69825
293.69825
293.69825
293.69825
293.69825
293.69825
293.69825
293.69825
293.69825
293.69825
293.69825
293.69825
293.69825
293.69825
293.69825
293.69825
442.14827
416.62987
392.91733
371.19334
351.87099
335.42194
322.16898
312.13087
305.00062
300.24997
297.27941
295.53739
294.58176
294.09337
293.86197
293.76081
293.72018
293.70524
293.70022
293.69868
293.69824
293.69813
293.69811
293.6981
293.6981
293.6981
293.6981
293.6981
293.6981
293.6981
293.6981
293.6981
293.6981
293.6981
293.6981
293.6981
293.6981
293.6981
293.6981
293.6981
443.16576
417.92737
394.45714
372.90409
353.64578
337.13306
323.6971
313.39464
305.97048
300.94235
297.73968
295.82194
294.74479
294.17953
293.90375
293.77929
293.72758
293.70787
293.701
293.69881
293.69818
293.69801
293.69797
293.69796
293.69795
293.69795
293.69795
293.69795
293.69795
293.69795
293.69795
293.69795
293.69795
293.69795
293.69795
293.69795
293.69796
293.69796
293.69796
293.69796
444.08643
419.10546
395.85997
374.46976
355.28067
338.72328
325.13321
314.59824
306.90847
301.62386
298.20194
296.11438
294.91681
294.27316
293.95065
293.80078
293.73652
293.7112
293.70207
293.69905
293.69814
293.69789
293.69783
293.69781
293.69781
293.69781
293.69781
293.69781
293.69781
293.69781
293.69781
293.69781
293.69781
293.69781
293.69781
293.69781
293.69781
293.69781
293.69781
293.69781
444.92567
420.18244
397.14605
375.91076
356.79395
340.20673
326.48622
315.7457
307.81501
302.29287
298.6639
296.41271
295.09647
294.3736
294.00247
293.82531
293.7471
293.71531
293.70346
293.69941
293.69815
293.69779
293.69769
293.69767
293.69766
293.69766
293.69766
293.69766
293.69766
293.69766
293.69766
293.69766
293.69766
293.69766
293.69766
293.69766
293.69766
293.69766
293.69766
293.69766
445.69567
421.17291
398.33166
377.24371
358.20077
341.59537
327.76402
316.84093
308.69094
302.94835
299.1238
296.71521
295.28254
294.48016
294.05896
293.85287
293.75938
293.72026
293.70521
293.69991
293.6982
293.6977
293.69756
293.69753
293.69752
293.69752
293.69752
293.69752
293.69752
293.69752
293.69752
293.69752
293.69752
293.69752
293.69752
293.69752
293.69752
293.69752
293.69752
293.69752
446.40616
422.08865
399.43007
378.48228
359.51377
342.89943
328.97354
317.88761
309.53732
303.58971
299.58026
297.02045
295.47392
294.59218
294.11985
293.8834
293.77341
293.72611
293.70738
293.70058
293.69832
293.69763
293.69743
293.69739
293.69737
293.69737
293.69737
293.69737
293.69737
293.69737
293.69737
293.69737
293.69737
293.69737
293.69737
293.69737
293.69737
293.69737
293.69737
293.69737
447.06503
422.9393
400.45218
379.63781
360.74356
344.12763
330.12092
318.88915
310.35535
304.21667
300.03228
297.32724
295.66962
294.70906
294.18484
293.91683
293.78921
293.73291
293.71
293.70144
293.6985
293.69758
293.69732
293.69725
293.69723
293.69722
293.69722
293.69722
293.69722
293.69722
293.69722
293.69722
293.69722
293.69722
293.69722
293.69722
293.69722
293.69723
293.69723
293.69723
447.67877
423.73279
401.40707
380.71981
361.89916
345.28751
331.21156
319.84872
311.14629
304.82916
300.47909
297.63462
295.86879
294.83018
294.25361
293.95306
293.80679
293.7407
293.71311
293.70251
293.69878
293.69757
293.69721
293.69711
293.69708
293.69708
293.69708
293.69708
293.69708
293.69708
293.69708
293.69708
293.69708
293.69708
293.69708
293.69708
293.69708
293.69708
293.69708
293.69708
448.25272
424.47575
402.30232
381.73631
362.98824
346.3856
332.25026
320.76923
311.91142
305.4273
300.92011
297.94177
296.07068
294.95501
294.32586
293.99196
293.82614
293.74952
293.71675
293.70383
293.69914
293.69759
293.69711
293.69698
293.69694
293.69693
293.69693
293.69693
293.69693
293.69693
293.69693
293.69693
293.69693
293.69693
293.69693
293.69693
293.69693
293.69693
293.69693
293.69693
448.79137
425.17374
403.14437
382.69414
364.0174
347.42758
333.24127
321.65335
312.65199
306.01129
301.35496
298.24804
296.27463
295.08306
294.40129
294.0334
293.84722
293.75938
293.72093
293.7054
293.69962
293.69765
293.69703
293.69685
293.6968
293.69679
293.69679
293.69678
293.69678
293.69678
293.69678
293.69678
293.69678
293.69678
293.69678
293.69679
293.69679
293.69679
293.69679
293.69679
449.29851
425.83151
403.9387
383.59916
364.99235
348.41841
334.18838
322.50352
313.36922
306.58145
301.78337
298.5529
296.48007
295.21385
294.4796
294.07724
293.87001
293.77029
293.72569
293.70725
293.70022
293.69775
293.69696
293.69672
293.69666
293.69664
293.69664
293.69664
293.69664
293.69664
293.69664
293.69664
293.69664
293.69664
293.69664
293.69664
293.69664
293.69664
293.69664
293.69664
449.77736
426.45308
404.69
384.45642
365.91805
349.36246
335.09496
323.32197
314.06428
307.13812
302.20514
298.8559
296.68653
295.347
294.56053
294.12334
293.89445
293.78225
293.73105
293.7094
293.70095
293.69792
293.69691
293.69661
293.69652
293.6965
293.69649
293.69649
293.69649
293.69649
293.69649
293.69649
293.69649
293.69649
293.69649
293.69649
293.69649
293.69649
293.69649
293.69649
450.23068
427.04194
405.40233
385.27031
366.79883
350.26359
335.96405
324.11074
314.73828
307.68169
302.6202
299.15671
296.89357
295.48212
294.64381
294.17155
293.92049
293.79528
293.73702
293.71187
293.70183
293.69814
293.69689
293.6965
293.69639
293.69636
293.69635
293.69635
293.69635
293.69635
293.69635
293.69635
293.69635
293.69635
293.69635
293.69635
293.69635
293.69635
293.69635
293.69635
450.66087
427.60109
406.07923
386.04466
367.6385
351.12522
336.79836
324.8717
315.39228
308.21256
303.0285
299.45504
297.10085
295.61888
294.7292
294.22173
293.94807
293.80934
293.74362
293.71467
293.70287
293.69843
293.69689
293.6964
293.69625
293.69621
293.6962
293.6962
293.6962
293.6962
293.6962
293.6962
293.6962
293.6962
293.6962
293.6962
293.6962
293.6962
293.6962
293.6962
451.07
428.13316
406.72378
386.78283
368.44042
351.95037
337.60034
325.60657
316.02728
308.73115
303.43006
299.75068
297.30805
295.75699
294.81647
294.27374
293.97712
293.82444
293.75085
293.71782
293.70408
293.69879
293.69692
293.69631
293.69612
293.69607
293.69606
293.69605
293.69605
293.69605
293.69605
293.69605
293.69605
293.69605
293.69605
293.69605
293.69605
293.69606
293.69606
293.69606
451.45988
428.64047
407.33868
387.48778
369.20757
352.74178
338.3722
326.31692
316.64421
309.23786
303.82492
300.04346
297.51492
295.89618
294.90541
294.32744
294.00757
293.84054
293.75872
293.72133
293.70547
293.69924
293.69698
293.69623
293.696
293.69593
293.69591
293.69591
293.69591
293.69591
293.69591
293.69591
293.69591
293.69591
293.69591
293.69591
293.69591
293.69591
293.69591
293.69591
451.83211
429.12502
407.92634
388.16214
369.94259
353.50186
339.11594
327.00418
317.24396
309.73313
304.21315
300.33324
297.72122
296.03622
294.99582
294.38271
294.03936
293.85763
293.76723
293.72522
293.70705
293.69978
293.69709
293.69617
293.69588
293.69579
293.69577
293.69576
293.69576
293.69576
293.69576
293.69576
293.69576
293.69576
293.69576
293.69576
293.69576
293.69576
293.69576
293.69576
452.1881
429.58863
408.48887
388.80824
370.64786
354.23282
339.83337
327.6697
317.82736
310.21734
304.59486
300.61993
297.92677
296.17691
295.08753
294.43941
294.07242
293.87567
293.77638
293.72947
293.70883
293.70041
293.69723
293.69612
293.69576
293.69566
293.69563
293.69562
293.69562
293.69561
293.69561
293.69561
293.69561
293.69561
293.69561
293.69562
293.69562
293.69562
293.69562
293.69562
452.52911
430.03289
409.02818
389.42816
371.32551
354.93663
340.52615
328.31468
318.39519
310.69089
304.97015
300.90345
298.13141
296.31805
295.18038
294.49743
294.10667
293.89464
293.78616
293.73412
293.71083
293.70114
293.69742
293.69609
293.69565
293.69552
293.69548
293.69547
293.69547
293.69547
293.69547
293.69547
293.69547
293.69547
293.69547
293.69547
293.69547
293.69547
293.69547
293.69547
452.85624
430.45923
409.54595
390.02379
371.97744
355.61507
341.19579
328.94027
318.94817
311.15418
305.33914
301.18377
298.335
296.45948
295.27421
294.55665
294.14205
293.91451
293.79657
293.73915
293.71304
293.70199
293.69765
293.69608
293.69555
293.69539
293.69534
293.69533
293.69532
293.69532
293.69532
293.69532
293.69532
293.69532
293.69532
293.69532
293.69532
293.69532
293.69532
293.69532
453.1705
430.86891
410.0437
390.5968
372.60538
356.26977
341.84365
329.5475
319.487
311.60756
305.70197
301.46086
298.53743
296.60106
295.36888
294.61698
294.17849
293.93524
293.80759
293.74458
293.71547
293.70294
293.69794
293.69609
293.69546
293.69526
293.6952
293.69518
293.69518
293.69518
293.69518
293.69518
293.69518
293.69518
293.69518
293.69518
293.69518
293.69518
293.69518
293.69518
453.47279
431.26311
410.5228
391.14871
373.2109
356.90221
342.47102
330.13733
320.01231
312.0514
306.05878
301.7347
298.7386
296.74267
295.46428
294.67831
294.21592
293.9568
293.81922
293.75039
293.71813
293.70402
293.69829
293.69613
293.69538
293.69513
293.69506
293.69504
293.69503
293.69503
293.69503
293.69503
293.69503
293.69503
293.69503
293.69503
293.69503
293.69503
293.69503
293.69503
453.76391
431.64285
410.98449
391.68089
373.79541
357.51372
343.07904
330.71067
320.52472
312.48603
306.40969
302.0053
298.93843
296.88417
295.56029
294.74054
294.25429
293.97916
293.83144
293.75661
293.72103
293.70523
293.6987
293.69619
293.6953
293.69501
293.69492
293.69489
293.69489
293.69488
293.69488
293.69488
293.69488
293.69488
293.69488
293.69488
293.69488
293.69489
293.69489
293.69489
454.04459
432.00907
411.42988
392.1946
374.36021
358.10555
343.66879
331.26833
321.02478
312.9118
306.75486
302.27266
299.13686
297.02549
295.65681
294.8036
294.29352
294.00227
293.84424
293.76321
293.72416
293.70656
293.69917
293.69629
293.69524
293.69489
293.69478
293.69475
293.69474
293.69474
293.69474
293.69474
293.69474
293.69474
293.69474
293.69474
293.69474
293.69474
293.69474
293.69474
454.31551
432.36262
411.86001
392.69098
374.90648
358.67883
344.24124
331.81109
321.51303
313.329
307.09443
302.5368
299.33384
297.16652
295.75374
294.8674
294.33357
294.02611
293.8576
293.7702
293.72753
293.70803
293.69971
293.69641
293.69519
293.69478
293.69465
293.69461
293.6946
293.69459
293.69459
293.69459
293.69459
293.69459
293.69459
293.69459
293.69459
293.69459
293.69459
293.69459
454.57726
432.7043
412.27579
393.17106
375.4353
359.23459
344.79731
332.33967
321.98998
313.73795
307.42853
302.79776
299.52931
297.30719
295.85099
294.93187
294.37437
294.05064
293.87151
293.77758
293.73115
293.70963
293.70032
293.69657
293.69516
293.69467
293.69451
293.69446
293.69445
293.69445
293.69445
293.69445
293.69444
293.69445
293.69445
293.69445
293.69445
293.69445
293.69445
293.69445
454.8304
433.0348
412.67809
393.63579
375.94767
359.77379
345.33784
332.85474
322.45609
314.13893
307.7573
303.05557
299.72326
297.44744
295.9485
294.99693
294.41588
294.07582
293.88595
293.78533
293.73501
293.71138
293.701
293.69676
293.69514
293.69457
293.69438
293.69432
293.69431
293.6943
293.6943
293.6943
293.6943
293.6943
293.6943
293.6943
293.6943
293.6943
293.6943
293.6943
455.07543
433.35477
413.06766
394.08605
376.4445
360.29731
345.86361
333.35692
322.91181
314.53222
308.08088
303.31026
299.91565
297.58721
296.04619
295.06252
294.45804
294.10163
293.9009
293.79347
293.73912
293.71328
293.70177
293.69699
293.69514
293.69447
293.69425
293.69418
293.69416
293.69415
293.69415
293.69415
293.69415
293.69415
293.69415
293.69415
293.69415
293.69415
293.69415
293.69415
455.31282
433.66482
413.44525
394.52264
376.92662
360.80597
346.37535
333.84679
323.35757
314.91807
308.39941
303.56187
300.10645
297.72643
296.144
295.12858
294.50081
294.12803
293.91635
293.80197
293.74348
293.71532
293.70261
293.69726
293.69515
293.69439
293.69412
293.69404
293.69402
293.69401
293.69401
293.69401
293.69401
293.69401
293.69401
293.69401
293.69401
293.69401
293.69401
293.69401
455.54298
433.96548
413.81149
394.9463
377.39482
361.30052
346.87373
334.3249
323.79375
315.29675
308.71302
303.81045
300.29567
297.86508
296.24187
295.19506
294.54413
294.155
293.93227
293.81083
293.74808
293.71751
293.70354
293.69757
293.69519
293.69431
293.694
293.6939
293.69387
293.69386
293.69386
293.69386
293.69386
293.69386
293.69386
293.69386
293.69386
293.69386
293.69386
293.69386
455.76632
434.25728
414.167
395.35771
377.84982
361.78167
347.35938
334.79177
324.22073
315.6685
309.02183
304.05605
300.48329
298.0031
296.33974
295.2619
294.58797
294.18249
293.94866
293.82004
293.75292
293.71986
293.70455
293.69793
293.69525
293.69424
293.69388
293.69376
293.69373
293.69372
293.69372
293.69371
293.69371
293.69371
293.69371
293.69371
293.69372
293.69372
293.69372
293.69372
455.98319
434.54067
414.51233
395.7575
378.29227
362.25007
347.83288
335.24787
324.63886
316.03353
309.32598
304.2987
300.6693
298.14047
296.43757
295.32906
294.63229
294.21048
293.96549
293.8296
293.75801
293.72235
293.70566
293.69833
293.69532
293.69418
293.69377
293.69363
293.69359
293.69357
293.69357
293.69357
293.69357
293.69357
293.69357
293.69357
293.69357
293.69357
293.69357
293.69357
456.19392
434.81608
414.84802
396.14626
378.7228
362.70632
348.29478
335.69365
325.04849
316.39207
309.62557
304.53846
300.85371
298.27715
296.53533
295.39648
294.67704
294.23895
293.98274
293.8395
293.76333
293.72501
293.70685
293.69878
293.69543
293.69413
293.69365
293.69349
293.69344
293.69343
293.69342
293.69342
293.69342
293.69342
293.69342
293.69342
293.69342
293.69342
293.69342
293.69342
456.39883
435.08393
415.17453
396.52454
379.14198
363.15098
348.7456
336.12953
325.44991
316.74434
309.92074
304.77539
301.03652
298.41312
296.63296
295.46414
294.7222
294.26786
294.0004
293.84973
293.76889
293.72782
293.70813
293.69928
293.69555
293.69409
293.69355
293.69336
293.6933
293.69328
293.69328
293.69328
293.69328
293.69328
293.69328
293.69328
293.69328
293.69328
293.69328
293.69328
456.59821
435.34457
415.49232
396.89284
379.55035
363.5846
349.18581
336.55593
325.84345
317.09052
310.21159
305.00952
301.21772
298.54835
296.73043
295.53199
294.76772
294.29719
294.01846
293.86027
293.77469
293.73078
293.70951
293.69983
293.6957
293.69406
293.69344
293.69323
293.69316
293.69314
293.69313
293.69313
293.69313
293.69313
293.69313
293.69313
293.69313
293.69313
293.69313
293.69313
456.79232
435.59835
415.8018
397.25162
379.9484
364.00765
349.61587
336.9732
326.22937
317.43082
310.49824
305.24091
301.39735
298.68284
296.82772
295.6
294.81357
294.32691
294.03689
293.87113
293.78072
293.7339
293.71099
293.70044
293.69588
293.69404
293.69335
293.6931
293.69302
293.69299
293.69299
293.69298
293.69298
293.69298
293.69298
293.69298
293.69298
293.69298
293.69298
293.69298
456.98141
435.84561
416.10337
397.60134
380.33661
364.42061
350.0362
337.38172
326.60795
317.76541
310.7808
305.4696
301.57539
298.81656
296.9248
295.66813
294.85974
294.35701
294.05567
293.88229
293.78698
293.73718
293.71256
293.7011
293.69609
293.69404
293.69326
293.69298
293.69288
293.69285
293.69284
293.69284
293.69284
293.69284
293.69284
293.69284
293.69284
293.69284
293.69284
293.69284
457.16571
436.08663
416.39738
397.94239
380.71541
364.82391
350.4472
337.7818
326.97944
318.09448
311.05936
305.69566
301.75186
298.9495
297.02163
295.73636
294.90618
294.38745
294.0748
293.89374
293.79346
293.74061
293.71423
293.70182
293.69633
293.69405
293.69317
293.69285
293.69274
293.69271
293.6927
293.69269
293.69269
293.69269
293.69269
293.69269
293.69269
293.69269
293.69269
293.69269
457.34544
436.3217
416.68417
398.27517
381.08522
365.21795
350.84924
338.17377
327.34409
318.41818
311.33404
305.91912
301.92677
299.08165
297.1182
295.80466
294.95287
294.41821
294.09425
293.90547
293.80016
293.74419
293.716
293.70259
293.6966
293.69408
293.69309
293.69273
293.6926
293.69256
293.69255
293.69255
293.69254
293.69254
293.69254
293.69255
293.69255
293.69255
293.69255
293.69255
457.52081
436.55109
416.96406
398.60003
381.4464
365.60311
351.24268
338.55794
327.70213
318.73668
311.60492
306.14004
302.10015
299.21301
297.21449
295.873
294.99978
294.44928
294.11402
293.91748
293.80707
293.74793
293.71787
293.70343
293.6969
293.69413
293.69302
293.69261
293.69247
293.69242
293.6924
293.6924
293.6924
293.6924
293.6924
293.6924
293.6924
293.6924
293.6924
293.6924
457.692
436.77504
417.23735
398.91731
381.79933
365.97977
351.62785
338.93457
328.05377
319.05014
311.87211
306.35846
302.272
299.34356
297.31047
295.94135
295.0469
294.48064
294.13408
293.92975
293.8142
293.75182
293.71983
293.70432
293.69723
293.69419
293.69296
293.6925
293.69233
293.69228
293.69226
293.69225
293.69225
293.69225
293.69225
293.69225
293.69225
293.69225
293.69225
293.69225
457.85919
436.99377
417.50432
399.22734
382.14434
366.34825
352.00506
339.30395
328.39924
319.3587
312.13569
306.57444
302.44233
299.4733
297.40614
296.00971
295.0942
294.51226
294.15442
293.94228
293.82153
293.75586
293.7219
293.70528
293.6976
293.69427
293.69291
293.69239
293.6922
293.69214
293.69212
293.69211
293.69211
293.69211
293.69211
293.69211
293.69211
293.69211
293.69211
293.69211
458.02255
437.20752
417.76523
399.53039
382.48176
366.70887
352.37462
339.66632
328.73872
319.66249
312.39576
306.78801
302.61118
299.60222
297.50147
296.07804
295.14166
294.54413
294.17503
293.95505
293.82906
293.76005
293.72407
293.70629
293.698
293.69436
293.69286
293.69228
293.69207
293.69199
293.69197
293.69196
293.69196
293.69196
293.69196
293.69196
293.69196
293.69196
293.69196
293.69196
458.18224
437.41647
418.02032
399.82677
382.81188
367.06194
352.7368
340.02194
329.07242
319.96167
312.6524
306.99923
302.77854
299.73034
297.59645
296.14633
295.18926
294.57623
294.1959
293.96806
293.83679
293.76439
293.72634
293.70737
293.69844
293.69448
293.69282
293.69218
293.69194
293.69185
293.69183
293.69182
293.69181
293.69181
293.69181
293.69181
293.69181
293.69181
293.69181
293.69182
458.3384
437.62083
418.26983
400.11673
383.13498
367.40775
353.09186
340.37102
329.4005
320.25635
312.90569
307.20813
302.94444
299.85764
297.69108
296.21457
295.23698
294.60854
294.21701
293.9813
293.84471
293.76887
293.72871
293.70852
293.69892
293.69461
293.6928
293.69208
293.69181
293.69171
293.69168
293.69167
293.69167
293.69167
293.69167
293.69167
293.69167
293.69167
293.69167
293.69167
458.49117
437.82078
418.51398
400.40052
383.45135
367.74655
353.44008
340.71379
329.72315
320.54667
313.15571
307.41477
303.10891
299.98412
297.78533
296.28273
295.28481
294.64106
294.23835
293.99476
293.85282
293.7735
293.73118
293.70972
293.69943
293.69477
293.69278
293.69198
293.69168
293.69157
293.69154
293.69153
293.69152
293.69152
293.69152
293.69152
293.69152
293.69152
293.69152
293.69152
458.64069
438.01649
418.75297
400.67837
383.76122
368.07862
353.78168
341.05046
330.04053
320.83274
313.40254
307.61919
303.27194
300.10979
297.87921
296.3508
295.33273
294.67375
294.25991
294.00843
293.86111
293.77826
293.73375
293.711
293.69998
293.69494
293.69277
293.69189
293.69156
293.69144
293.69139
293.69138
293.69138
293.69138
293.69138
293.69138
293.69138
293.69138
293.69138
293.69138
458.78709
438.20811
418.98701
400.95052
384.06483
368.40419
354.11689
341.38122
330.35279
321.11467
313.64626
307.82142
303.43358
300.23465
297.9727
296.41877
295.38072
294.70662
294.28168
294.02231
293.86957
293.78316
293.73641
293.71233
293.70057
293.69514
293.69278
293.69181
293.69144
293.6913
293.69125
293.69124
293.69123
293.69123
293.69123
293.69123
293.69123
293.69123
293.69123
293.69123
458.93047
438.39581
419.21627
401.21717
384.36243
368.72348
354.44593
341.70627
330.6601
321.39259
313.88694
308.02152
303.59382
300.3587
298.06579
296.48662
295.42878
294.73964
294.30364
294.03638
293.87821
293.7882
293.73918
293.71373
293.7012
293.69536
293.6928
293.69173
293.69132
293.69116
293.69111
293.69109
293.69109
293.69108
293.69108
293.69108
293.69108
293.69108
293.69108
293.69108
459.07095
438.57972
419.44093
401.47852
384.65421
369.03673
354.769
342.02578
330.96259
321.66659
314.12465
308.21952
303.7527
300.48194
298.15849
296.55436
295.47688
294.77281
294.32578
294.05064
293.88701
293.79338
293.74204
293.7152
293.70187
293.69561
293.69282
293.69166
293.6912
293.69103
293.69097
293.69095
293.69094
293.69094
293.69094
293.69094
293.69094
293.69094
293.69094
293.69094
459.20863
438.75999
419.66116
401.73476
384.94039
369.34413
355.08631
342.33993
331.26041
321.93678
314.35946
308.41546
303.91022
300.60438
298.25078
296.62195
295.52502
294.80611
294.3481
294.06508
293.89598
293.79868
293.745
293.71674
293.70258
293.69587
293.69287
293.69159
293.69109
293.69089
293.69083
293.6908
293.69079
293.69079
293.69079
293.69079
293.69079
293.69079
293.69079
293.69079
459.34362
438.93674
419.87711
401.98607
385.22116
369.64588
355.39804
342.64889
331.55369
322.20325
314.59143
308.60937
304.06641
300.72602
298.34266
296.68941
295.57318
294.83954
294.37059
294.07969
293.9051
293.80411
293.74806
293.71833
293.70334
293.69616
293.69292
293.69153
293.69097
293.69076
293.69068
293.69066
293.69065
293.69065
293.69064
293.69064
293.69065
293.69065
293.69065
293.69065
459.47601
439.1101
420.08893
402.23262
385.4967
369.94218
355.70436
342.9528
331.84255
322.46611
314.82062
308.80131
304.22129
300.84687
298.43413
296.75671
295.62136
294.87307
294.39323
294.09447
293.91437
293.80967
293.75121
293.72
293.70413
293.69648
293.69299
293.69148
293.69087
293.69063
293.69054
293.69051
293.6905
293.6905
293.6905
293.6905
293.6905
293.6905
293.6905
293.6905
459.6059
439.28018
420.29677
402.47458
385.7672
370.23319
356.00545
343.25182
332.12712
322.72544
315.04711
308.9913
304.37487
300.96693
298.52518
296.82385
295.66954
294.9067
294.41602
294.1094
293.92379
293.81535
293.75445
293.72173
293.70497
293.69682
293.69307
293.69143
293.69076
293.6905
293.6904
293.69037
293.69036
293.69035
293.69035
293.69035
293.69035
293.69035
293.69035
293.69035
459.73335
439.4471
420.50076
402.71209
386.0328
370.51909
356.30148
343.5461
332.40751
322.98133
315.27094
309.17938
304.52718
301.0862
298.61581
296.89082
295.71772
294.94043
294.43895
294.12449
293.93335
293.82115
293.75779
293.72353
293.70585
293.69719
293.69317
293.6914
293.69066
293.69037
293.69026
293.69023
293.69021
293.69021
293.69021
293.69021
293.69021
293.69021
293.69021
293.69021
459.85847
439.61096
420.70103
402.94531
386.29369
370.80005
356.59258
343.83577
332.68385
323.23386
315.49218
309.36559
304.67822
301.2047
298.70602
296.95761
295.76588
294.97423
294.46201
294.13972
293.94305
293.82706
293.76122
293.72539
293.70678
293.69758
293.69328
293.69137
293.69056
293.69025
293.69013
293.69008
293.69007
293.69006
293.69006
293.69006
293.69006
293.69006
293.69006
293.69006
459.98132
439.77187
420.8977
403.17437
386.55
371.07621
356.87892
344.12096
332.95623
323.48312
315.71088
309.54996
304.82802
301.32243
298.79581
297.02423
295.81402
295.00811
294.48519
294.1551
293.95289
293.8331
293.76473
293.72731
293.70774
293.698
293.6934
293.69134
293.69047
293.69012
293.68999
293.68994
293.68992
293.68992
293.68991
293.68991
293.68991
293.68991
293.68991
293.68991
460.10197
439.92991
421.09088
403.39941
386.80188
371.34773
357.16064
344.40181
333.22476
323.72919
315.9271
309.73252
304.9766
301.4394
298.88517
297.09066
295.86213
295.04206
294.50849
294.1706
293.96285
293.83924
293.76834
293.7293
293.70875
293.69845
293.69354
293.69133
293.69038
293.69
293.68985
293.6898
293.68978
293.68977
293.68977
293.68977
293.68977
293.68977
293.68977
293.68977
460.22051
440.08519
421.2807
403.62056
387.04947
371.61474
357.43786
344.67843
333.48955
323.97214
316.14089
309.91331
305.12397
301.5556
298.97411
297.15689
295.9102
295.07606
294.53189
294.18623
293.97294
293.84549
293.77203
293.73135
293.7098
293.69892
293.6937
293.69132
293.6903
293.68988
293.68971
293.68965
293.68963
293.68962
293.68962
293.68962
293.68962
293.68962
293.68962
293.68962
460.33699
440.23778
421.46725
403.83793
387.2929
371.87739
357.71073
344.95093
333.75069
324.21205
316.35231
310.09236
305.27015
301.67106
299.06262
297.22294
295.95823
295.11011
294.5554
294.20199
293.98315
293.85185
293.77581
293.73347
293.7109
293.69942
293.69387
293.69133
293.69022
293.68976
293.68958
293.68951
293.68949
293.68948
293.68948
293.68948
293.68948
293.68948
293.68948
293.68948
460.45149
440.38777
421.65063
404.05165
387.5323
372.13579
357.97937
345.21944
334.00827
324.44899
316.56139
310.2697
305.41515
301.78577
299.15071
297.28878
296.00621
295.14421
294.579
294.21786
293.99347
293.85831
293.77967
293.73565
293.71204
293.69995
293.69406
293.69134
293.69014
293.68964
293.68945
293.68937
293.68934
293.68933
293.68933
293.68933
293.68933
293.68933
293.68933
293.68933
460.56405
440.53525
421.83095
404.26182
387.76779
372.39008
358.24389
345.48405
334.26238
324.68302
316.76819
310.44536
305.559
301.89974
299.23837
297.35441
296.05413
295.17834
294.60269
294.23383
294.00391
293.86488
293.78362
293.73789
293.71323
293.70051