/*--------------------------------*- C++ -*----------------------------------*\
| =========                 |                                                 |
| \\      /  F ield         | OpenFOAM: The Open Source CFD Toolbox           |
|  \\    /   O peration     | Version:  3.0.1                                 |
|   \\  /    A nd           | Web:      www.OpenFOAM.org                      |
|    \\/     M anipulation  |                                                 |
\*---------------------------------------------------------------------------*/
FoamFile
{
    version     2.0;
    format      ascii;
    class       volVectorField;
    location    "3500/fluid";
    object      U;
}
// * * * * * * * * * * * * * * * * * * * * * * * * * * * * * * * * * * * * * //

dimensions      [0 1 -1 0 0 0 0];

internalField   nonuniform List<vector> 
5000
(
(1.555209e-05 6.7895594e-07 0.019375207)
(5.8227506e-05 2.542031e-06 0.056182383)
(0.00012282713 5.362473e-06 0.092434777)
(0.00021177898 9.2461911e-06 0.12755645)
(0.00031593495 1.3793678e-05 0.16095989)
(0.00043164372 1.8845572e-05 0.19208205)
(0.00055112359 2.4062162e-05 0.22042375)
(0.00066801391 2.9165712e-05 0.24558884)
(0.00077549663 3.3858558e-05 0.2673171)
(0.00086823094 3.7907501e-05 0.28550615)
(0.00094209945 4.1132753e-05 0.30021798)
(0.00099486289 4.3436518e-05 0.31166857)
(0.0010259549 4.4794088e-05 0.3202015)
(0.0010364282 4.5251387e-05 0.32624966)
(0.0010285345 4.4906748e-05 0.33029049)
(0.0010053501 4.3894473e-05 0.3328015)
(0.00097031477 4.2364771e-05 0.33422192)
(0.00092686691 4.0467765e-05 0.3349249)
(0.00087813235 3.8339941e-05 0.33520259)
(0.00082673687 3.6095946e-05 0.33526388)
(0.00077471015 3.3824402e-05 0.3352427)
(0.00072348898 3.1588044e-05 0.33521309)
(0.0006739825 2.9426546e-05 0.33520706)
(0.00062667811 2.7361192e-05 0.33523132)
(0.00058175251 2.5399739e-05 0.33528043)
(0.00053917947 2.3540954e-05 0.33534482)
(0.00049881294 2.177851e-05 0.33541696)
(0.00046041673 2.0102114e-05 0.33549077)
(0.00042373526 1.8500566e-05 0.33556309)
(0.00038848843 1.6961674e-05 0.33563186)
(0.00035442039 1.5474231e-05 0.33569624)
(0.00032130052 1.4028196e-05 0.33575561)
(0.0002889636 1.2616343e-05 0.3358097)
(0.00025731805 1.1234675e-05 0.33585823)
(0.00022637484 9.8836731e-06 0.33590106)
(0.00019624699 8.5682679e-06 0.33593809)
(0.00016715437 7.298069e-06 0.33596935)
(0.00013940465 6.0864955e-06 0.33599493)
(0.00011336999 4.9498071e-06 0.33601504)
(8.9451013e-05 3.9054861e-06 0.33602998)
(6.804121e-05 2.9707196e-06 0.33604012)
(4.9495674e-05 2.161011e-06 0.33604593)
(3.4104046e-05 1.4890017e-06 0.33604787)
(2.1538128e-05 9.4036458e-07 0.33604932)
(1.1512146e-05 5.0262423e-07 0.3360476)
(4.3832784e-06 1.913731e-07 0.33604349)
(6.8189336e-07 2.9768769e-08 0.33603822)
(-9.5681572e-07 -4.177771e-08 0.33603213)
(-2.4337545e-06 -1.0626123e-07 0.33602762)
(-1.4623244e-06 -6.3846687e-08 0.33602274)
(5.6100885e-05 2.449265e-06 0.013166107)
(0.00021302124 9.3001429e-06 0.039149048)
(0.00046949799 2.0497786e-05 0.065945862)
(0.00084410386 3.6852971e-05 0.093348556)
(0.0013051756 5.6983158e-05 0.12107751)
(0.0018447648 8.054143e-05 0.14877694)
(0.002432852 0.00010621717 0.17601926)
(0.0030410819 0.00013277232 0.20232068)
(0.0036336977 0.00015864585 0.22716913)
(0.0041765172 0.00018234532 0.2500628)
(0.0046370703 0.0002024531 0.27055524)
(0.0049897399 0.00021785069 0.28830018)
(0.0052174756 0.00022779378 0.30308917)
(0.0053140772 0.00023201148 0.3148755)
(0.0052841555 0.0002307052 0.32378007)
(0.0051421727 0.00022450626 0.33007756)
(0.0049098143 0.00021436149 0.33416379)
(0.0046126588 0.00020138762 0.33650805)
(0.0042764432 0.00018670836 0.3375973)
(0.0039238639 0.00017131466 0.33788162)
(0.0035723961 0.00015596953 0.33773105)
(0.0032335373 0.00014117499 0.33741215)
(0.0029133166 0.0001271942 0.33708694)
(0.0026132757 0.0001140945 0.33683073)
(0.0023355869 0.00010197087 0.33666155)
(0.0020729307 9.0503387e-05 0.33656279)
(0.0018311739 7.9948393e-05 0.33651027)
(0.0016035359 7.0009888e-05 0.33648249)
(0.0013933787 6.0834524e-05 0.33646499)
(0.0011978998 5.2300039e-05 0.33644972)
(0.0010188083 4.4480963e-05 0.33643317)
(0.00085500592 3.7329415e-05 0.33641415)
(0.00070724537 3.0878228e-05 0.3363926)
(0.00057497395 2.5103289e-05 0.33636885)
(0.00045828489 2.000866e-05 0.33634336)
(0.00035661197 1.5569624e-05 0.33631663)
(0.00026950663 1.1766617e-05 0.33628908)
(0.00019612867 8.5629329e-06 0.33626121)
(0.00013557498 5.9191597e-06 0.33623332)
(8.667992e-05 3.7843947e-06 0.33620594)
(4.8247018e-05 2.1064126e-06 0.33617907)
(1.8869457e-05 8.237887e-07 0.33615362)
(5.2620619e-06 2.2969377e-07 0.33612865)
(-3.9686885e-06 -1.7331602e-07 0.33610546)
(-1.6436213e-05 -7.1764725e-07 0.33608453)
(-2.2243662e-05 -9.7119672e-07 0.33606492)
(-2.3817035e-05 -1.0398859e-06 0.33604879)
(-2.0096528e-05 -8.774403e-07 0.3360332)
(-1.5667389e-05 -6.8405682e-07 0.33602358)
(-7.1592749e-06 -3.1258146e-07 0.3360141)
(8.5307194e-06 3.7242227e-07 0.013746001)
(-9.9647141e-08 -4.5426514e-09 0.040683567)
(3.6525754e-05 1.5944012e-06 0.068250959)
(5.8964585e-05 2.5739097e-06 0.096222627)
(0.00010952214 4.780981e-06 0.12432758)
(0.00017155461 7.4889793e-06 0.15224806)
(0.00025512786 1.1137379e-05 0.17962145)
(0.00035381551 1.5445609e-05 0.20604537)
(0.00046571678 2.0330723e-05 0.23108841)
(0.00058164904 2.5391792e-05 0.25430791)
(0.00069199094 3.0208804e-05 0.27527629)
(0.00078438422 3.424224e-05 0.29361562)
(0.0008476634 3.7004666e-05 0.30903808)
(0.00087279539 3.810168e-05 0.32138631)
(0.00085543474 3.734357e-05 0.33066585)
(0.0007965286 3.4771669e-05 0.33706009)
(0.00070250902 3.0666762e-05 0.34092087)
(0.00058391324 2.5488872e-05 0.34273161)
(0.00045343989 1.9792403e-05 0.34304737)
(0.00032350822 1.4119578e-05 0.34242247)
(0.00020420974 8.911026e-06 0.34134173)
(0.00010201107 4.4491003e-06 0.34017083)
(2.0416901e-05 8.8683635e-07 0.33913706)
(-1.3631479e-05 -5.9940401e-07 0.33833929)
(-3.4062757e-05 -1.4911014e-06 0.33778445)
(-7.8851152e-05 -3.4463206e-06 0.33742686)
(-0.00011214845 -4.8997831e-06 0.33720385)
(-0.00013652899 -5.9639093e-06 0.33706055)
(-0.0001536012 -6.7089499e-06 0.33695813)
(-0.00016552709 -7.2293027e-06 0.33687442)
(-0.00017292314 -7.5519019e-06 0.33679843)
(-0.00017680002 -7.7208715e-06 0.33672605)
(-0.00017750335 -7.7513121e-06 0.33665608)
(-0.00017576841 -7.6753298e-06 0.33658863)
(-0.00017197911 -7.5096735e-06 0.33652404)
(-0.00016683203 -7.2847674e-06 0.33646272)
(-0.0001605506 -7.0103672e-06 0.33640489)
(-0.00015381608 -6.7162017e-06 0.33635083)
(-0.00014628721 -6.3873837e-06 0.33630049)
(-0.00013893479 -6.0662836e-06 0.33625412)
(-0.00013013391 -5.6819621e-06 0.33621141)
(-0.00012240406 -5.3444199e-06 0.33617261)
(-0.00011363609 -4.9615641e-06 0.33613775)
(-0.00010069535 -4.3965302e-06 0.33610321)
(-9.0230245e-05 -3.9395912e-06 0.33607419)
(-7.700026e-05 -3.3619381e-06 0.33604767)
(-6.476507e-05 -2.8277275e-06 0.33602762)
(-4.8404047e-05 -2.1133796e-06 0.33600858)
(-3.4312006e-05 -1.498102e-06 0.33599779)
(-1.5370607e-05 -6.7109678e-07 0.33598615)
(2.3514898e-05 1.0266808e-06 0.014741127)
(-2.6288918e-07 -1.1500565e-08 0.043618665)
(-9.2817355e-06 -4.0532026e-07 0.073150071)
(-2.2128502e-05 -9.6630093e-07 0.10307862)
(-4.0785064e-05 -1.7809984e-06 0.13309387)
(-6.5743972e-05 -2.8708905e-06 0.16283165)
(-9.7122271e-05 -4.2411327e-06 0.19187678)
(-0.0001348292 -5.8877597e-06 0.21977104)
(-0.00017860749 -7.7995361e-06 0.24602713)
(-0.0002281983 -9.9651974e-06 0.27015021)
(-0.0002835125 -1.2380828e-05 0.29166761)
(-0.00034481802 -1.5058088e-05 0.31016651)
(-0.00041277825 -1.8025905e-05 0.32533719)
(-0.00048822778 -2.1320659e-05 0.33701729)
(-0.00057168123 -2.4964774e-05 0.34522928)
(-0.00066248199 -2.8929523e-05 0.35020101)
(-0.00075826419 -3.3111601e-05 0.35235948)
(-0.00085416171 -3.7298565e-05 0.3522919)
(-0.00094393193 -4.121791e-05 0.35067611)
(-0.0010192783 -4.4507439e-05 0.3481926)
(-0.0010745382 -4.6919972e-05 0.3454377)
(-0.0011020547 -4.8121243e-05 0.34285835)
(-0.0011048867 -4.824476e-05 0.34072305)
(-0.0010785947 -4.7096659e-05 0.33913178)
(-0.0010305256 -4.4997817e-05 0.33805492)
(-0.00096792342 -4.2264333e-05 0.3373914)
(-0.00089676101 -3.9157048e-05 0.33701526)
(-0.00082309478 -3.5940437e-05 0.33681455)
(-0.00075120795 -3.2801461e-05 0.33670738)
(-0.00068402981 -2.9868077e-05 0.3366432)
(-0.00062278522 -2.719374e-05 0.33659538)
(-0.00056794239 -2.4798932e-05 0.33655212)
(-0.00051909534 -2.2665927e-05 0.33650916)
(-0.00047577108 -2.0774076e-05 0.33646551)
(-0.00043700292 -1.9081172e-05 0.33642127)
(-0.00040218809 -1.75609e-05 0.33637689)
(-0.0003701808 -1.6163249e-05 0.33633285)
(-0.00034062693 -1.4872728e-05 0.33628954)
(-0.00031240554 -1.3640423e-05 0.33624749)
(-0.00028540107 -1.2461263e-05 0.33620675)
(-0.00025922348 -1.131823e-05 0.33616836)
(-0.0002323141 -1.0143271e-05 0.33613115)
(-0.00020810265 -9.086118e-06 0.33609816)
(-0.00018078319 -7.8932797e-06 0.33606575)
(-0.00015644803 -6.8307513e-06 0.33603831)
(-0.00012901184 -5.6328317e-06 0.33601156)
(-0.00010520631 -4.5934436e-06 0.33599174)
(-7.6910929e-05 -3.3580244e-06 0.33597175)
(-5.331427e-05 -2.3277631e-06 0.33596109)
(-2.420259e-05 -1.0567105e-06 0.33594849)
(3.6017222e-06 1.5725488e-07 0.015908634)
(-4.3142048e-06 -1.8836934e-07 0.047091629)
(-1.9150669e-05 -8.361585e-07 0.07899732)
(-4.5429851e-05 -1.9835581e-06 0.11134393)
(-8.5098126e-05 -3.7155589e-06 0.14378751)
(-0.00013982584 -6.1050913e-06 0.1759199)
(-0.00021109583 -9.2169023e-06 0.20727031)
(-0.0003000968 -1.3102904e-05 0.23731238)
(-0.00040758235 -1.7796006e-05 0.26547863)
(-0.00053372057 -2.3303557e-05 0.29118441)
(-0.00067795243 -2.9601173e-05 0.3138629)
(-0.00083886763 -3.6627277e-05 0.33301124)
(-0.0010141096 -4.4278989e-05 0.34824554)
(-0.0012002771 -5.2407744e-05 0.35935902)
(-0.0013928452 -6.0815973e-05 0.36637296)
(-0.0015860041 -6.9249949e-05 0.36956726)
(-0.0017726697 -7.7400319e-05 0.36947671)
(-0.001944418 -8.4899229e-05 0.36684427)
(-0.0020922594 -9.1354203e-05 0.36253318)
(-0.002207035 -9.6365364e-05 0.35741329)
(-0.0022816243 -9.9621879e-05 0.3522471)
(-0.0023109855 -0.00010090369 0.34760315)
(-0.0022948671 -0.00010019982 0.34381495)
(-0.0022364324 -9.7648377e-05 0.34099132)
(-0.0021426328 -9.3553033e-05 0.33906474)
(-0.002022783 -8.8320151e-05 0.33786296)
(-0.0018865852 -8.2373456e-05 0.33717827)
(-0.0017429243 -7.6100955e-05 0.33682074)
(-0.0015986667 -6.9802283e-05 0.3366459)
(-0.0014585428 -6.3684117e-05 0.33655994)
(-0.001325187 -5.7861376e-05 0.3365105)
(-0.0011999139 -5.239156e-05 0.33647257)
(-0.001083049 -4.7288861e-05 0.33643626)
(-0.0009746148 -4.2554256e-05 0.33639852)
(-0.00087433695 -3.8175782e-05 0.33635909)
(-0.00078191124 -3.4140152e-05 0.33631836)
(-0.00069711841 -3.0437827e-05 0.33627718)
(-0.00061917503 -2.7034552e-05 0.33623579)
(-0.00054848277 -2.3947911e-05 0.33619544)
(-0.00048282238 -2.1080972e-05 0.33615549)
(-0.00042453002 -1.8535757e-05 0.33611813)
(-0.00036843627 -1.6086566e-05 0.33608112)
(-0.00031984667 -1.3965022e-05 0.33604827)
(-0.00027113921 -1.1838348e-05 0.33601569)
(-0.0002295022 -1.0020395e-05 0.33598866)
(-0.00018571818 -8.1087038e-06 0.33596136)
(-0.00014894076 -6.5029452e-06 0.33594171)
(-0.0001077765 -4.7056525e-06 0.33592106)
(-7.3642742e-05 -3.2153281e-06 0.3359105)
(-3.3757469e-05 -1.4738866e-06 0.33589727)
(3.0591023e-06 1.3356322e-07 0.016919524)
(-4.1460864e-06 -1.8102667e-07 0.050122844)
(-1.8403679e-05 -8.0353568e-07 0.08414017)
(-4.3917453e-05 -1.9175055e-06 0.11867709)
(-8.2816169e-05 -3.6158878e-06 0.15337083)
(-0.00013712614 -5.9871527e-06 0.18778628)
(-0.00020886883 -9.1195604e-06 0.2214154)
(-0.00029998542 -1.3097874e-05 0.25368188)
(-0.00041221309 -1.7997942e-05 0.2839534)
(-0.00054691968 -2.3879493e-05 0.31156422)
(-0.00070489393 -3.077699e-05 0.33585072)
(-0.00088608729 -3.8688319e-05 0.35620138)
(-0.0010893101 -4.7561562e-05 0.37212047)
(-0.0013118859 -5.7279821e-05 0.38330053)
(-0.0015493009 -6.7646045e-05 0.38969279)
(-0.0017948796 -7.8368736e-05 0.39155908)
(-0.0020396409 -8.9055703e-05 0.38948547)
(-0.0022724186 -9.921937e-05 0.38434145)
(-0.0024805811 -0.0001083082 0.37718113)
(-0.0026512236 -0.00011575871 0.36910172)
(-0.0027730692 -0.00012107858 0.36109173)
(-0.0028382444 -0.0001239241 0.35390735)
(-0.0028439001 -0.00012417088 0.34800614)
(-0.0027927165 -0.00012193598 0.34354767)
(-0.0026923717 -0.00011755488 0.34044955)
(-0.0025540835 -0.00011151696 0.33847576)
(-0.0023905034 -0.00010437476 0.33732908)
(-0.0022137179 -9.6656085e-05 0.33672587)
(-0.0020336936 -8.8795857e-05 0.33644043)
(-0.0018575597 -8.1105528e-05 0.33631864)
(-0.0016897041 -7.377653e-05 0.33626951)
(-0.0015322307 -6.6900859e-05 0.33624665)
(-0.001385963 -6.0514438e-05 0.33622997)
(-0.0012505409 -5.4601536e-05 0.33621218)
(-0.0011258478 -4.9157083e-05 0.3361916)
(-0.0010104684 -4.4119277e-05 0.33616794)
(-0.0009048258 -3.9506639e-05 0.33614218)
(-0.00080630986 -3.5205141e-05 0.33611414)
(-0.00071699644 -3.1305476e-05 0.3360856)
(-0.00063220079 -2.7603061e-05 0.33605534)
(-0.0005566466 -2.4304165e-05 0.33602634)
(-0.00048300364 -2.1088749e-05 0.3359959)
(-0.00041864187 -1.8278563e-05 0.33596855)
(-0.00035390749 -1.5452127e-05 0.33593981)
(-0.00029845452 -1.3030947e-05 0.33591624)
(-0.00024044774 -1.0498267e-05 0.33589099)
(-0.00019170817 -8.3702246e-06 0.33587336)
(-0.0001383971 -6.042585e-06 0.33585371)
(-9.3846649e-05 -4.0974547e-06 0.33584414)
(-4.3446778e-05 -1.8969321e-06 0.33583109)
(2.6374715e-06 1.1515452e-07 0.017850529)
(-4.1840135e-06 -1.8268032e-07 0.052920671)
(-1.8450509e-05 -8.0557362e-07 0.088897313)
(-4.4077111e-05 -1.9244617e-06 0.12547763)
(-8.3224431e-05 -3.6336858e-06 0.16228576)
(-0.00013801124 -6.0257516e-06 0.19886735)
(-0.00021060714 -9.1953864e-06 0.23468712)
(-0.0003031775 -1.3237138e-05 0.26913133)
(-0.00041778675 -1.8241143e-05 0.30151749)
(-0.0005562637 -2.428725e-05 0.33111457)
(-0.00072001988 -3.1437116e-05 0.35717685)
(-0.00090980781 -3.97236e-05 0.37899413)
(-0.0011254063 -4.9137073e-05 0.39595917)
(-0.0013652214 -5.9607915e-05 0.40764933)
(-0.0016258129 -7.0985956e-05 0.41391298)
(-0.0019013838 -8.3018081e-05 0.41494346)
(-0.0021833556 -9.5329694e-05 0.41131713)
(-0.0024602151 -0.00010741806 0.40397143)
(-0.0027179218 -0.00011867013 0.39411046)
(-0.0029410718 -0.00012841328 0.38304695)
(-0.0031148606 -0.00013600112 0.37201498)
(-0.00322746 -0.0001409173 0.36200221)
(-0.0032722107 -0.00014287103 0.35364468)
(-0.0032489006 -0.00014185311 0.34720473)
(-0.0031637326 -0.00013813465 0.34262431)
(-0.0030279619 -0.00013220665 0.33962658)
(-0.0028556929 -0.0001246851 0.33783156)
(-0.0026613105 -0.00011619818 0.33685626)
(-0.0024575219 -0.00010730043 0.33638078)
(-0.0022538558 -9.840808e-05 0.33617572)
(-0.0020568179 -8.9804998e-05 0.33609852)
(-0.0018696206 -8.1631587e-05 0.33607229)
(-0.0016942453 -7.3974335e-05 0.3360616)
(-0.0015302652 -6.6814586e-05 0.33605242)
(-0.0013785764 -6.0191499e-05 0.33604081)
(-0.0012369301 -5.4006865e-05 0.33602562)
(-0.0011072354 -4.8344102e-05 0.33600796)
(-0.00098534351 -4.3021991e-05 0.33598732)
(-0.00087529943 -3.8217206e-05 0.33596588)
(-0.0007703806 -3.363619e-05 0.33594202)
(-0.00067733287 -2.9573501e-05 0.33591913)
(-0.0005866342 -2.561341e-05 0.33589402)
(-0.00050772621 -2.2168113e-05 0.33587177)
(-0.0004284739 -1.87078e-05 0.33584715)
(-0.00036078633 -1.5752439e-05 0.33582754)
(-0.0002903163 -1.2675594e-05 0.33580525)
(-0.00023089035 -1.0080969e-05 0.33579028)
(-0.00016678833 -7.2821814e-06 0.33577252)
(-0.00011260604 -4.9165121e-06 0.33576436)
(-5.2662415e-05 -2.2992967e-06 0.33575205)
(2.3082001e-06 1.0077802e-07 0.018676923)
(-3.9019297e-06 -1.7036406e-07 0.055411356)
(-1.7189527e-05 -7.5051663e-07 0.093143997)
(-4.1132526e-05 -1.7958949e-06 0.13156751)
(-7.7811075e-05 -3.3973259e-06 0.17029804)
(-0.00012931516 -5.6460585e-06 0.20886856)
(-0.00019783677 -8.637796e-06 0.24672479)
(-0.00028563432 -1.2471149e-05 0.28322562)
(-0.00039496191 -1.7244531e-05 0.3176504)
(-0.00052796479 -2.3051608e-05 0.34921633)
(-0.00068653082 -2.9974828e-05 0.37710974)
(-0.0008720812 -3.8076246e-05 0.40053458)
(-0.0010852806 -4.7384912e-05 0.41878055)
(-0.0013256443 -5.7879631e-05 0.43130961)
(-0.001591029 -6.9466875e-05 0.43785368)
(-0.001877024 -8.1954061e-05 0.43850744)
(-0.0021763274 -9.5022355e-05 0.43379123)
(-0.0024782916 -0.00010820682 0.42465459)
(-0.0027689436 -0.00012089735 0.41239826)
(-0.0030318044 -0.00013237437 0.39851377)
(-0.0032496902 -0.0001418876 0.38447085)
(-0.0034072853 -0.00014876838 0.37150696)
(-0.003493901 -0.00015255001 0.3604761)
(-0.0035055313 -0.0001530576 0.35179175)
(-0.0034456166 -0.00015044173 0.34546519)
(-0.0033241167 -0.0001451368 0.34121219)
(-0.0031554952 -0.00013777451 0.33858819)
(-0.0029557163 -0.00012905201 0.33711468)
(-0.0027399773 -0.00011963253 0.33637077)
(-0.0025202089 -0.00011003719 0.33603959)
(-0.0023053121 -0.0001006544 0.33591424)
(-0.0020997221 -9.1677977e-05 0.33587714)
(-0.0019067768 -8.3253629e-05 0.33587088)
(-0.0017257831 -7.5351071e-05 0.33587116)
(-0.0015585691 -6.8050158e-05 0.33587011)
(-0.00140168 -6.1200027e-05 0.33586509)
(-0.0012582372 -5.4937018e-05 0.33585702)
(-0.0011223688 -4.9004686e-05 0.33584511)
(-0.00099975957 -4.3651303e-05 0.33583173)
(-0.00088173545 -3.8498098e-05 0.33581505)
(-0.00077699372 -3.3924835e-05 0.33579876)
(-0.00067392863 -2.9424811e-05 0.33577934)
(-0.00058415489 -2.5505098e-05 0.33576231)
(-0.00049341395 -2.1543174e-05 0.33574205)
(-0.00041568318 -1.8149311e-05 0.33572636)
(-0.00033479919 -1.4617776e-05 0.33570728)
(-0.00026605329 -1.1616229e-05 0.33569498)
(-0.00019259006 -8.4087171e-06 0.33567941)
(-0.00012965344 -5.6608225e-06 0.33567268)
(-6.1186929e-05 -2.6714862e-06 0.33566133)
(2.0567818e-06 8.9800811e-08 0.019432953)
(-3.716731e-06 -1.6227766e-07 0.057692507)
(-1.6339976e-05 -7.1342286e-07 0.09703767)
(-3.912532e-05 -1.7082548e-06 0.13715829)
(-7.4069636e-05 -3.2339641e-06 0.177665)
(-0.00012320349 -5.3792053e-06 0.21808157)
(-0.00018867883 -8.2379329e-06 0.25783954)
(-0.00027274442 -1.1908335e-05 0.2962769)
(-0.00037769214 -1.6490474e-05 0.33264323)
(-0.00050577546 -2.2082741e-05 0.36611445)
(-0.00065909084 -2.8776687e-05 0.39582129)
(-0.00083940592 -3.6649493e-05 0.42089526)
(-0.0010479128 -4.5753235e-05 0.4405356)
(-0.0012848787 -5.6099553e-05 0.45409765)
(-0.0015491674 -6.7638887e-05 0.46119763)
(-0.001837623 -8.0233452e-05 0.46181976)
(-0.0021443611 -9.3626306e-05 0.45640114)
(-0.0024601098 -0.0001074126 0.44586188)
(-0.002771891 -0.00012102565 0.43155033)
(-0.0030634081 -0.00013375387 0.41509189)
(-0.0033164697 -0.00014480296 0.39816334)
(-0.0035134257 -0.00015340233 0.38224737)
(-0.0036401934 -0.00015893705 0.36843491)
(-0.0036889145 -0.00016106407 0.35732574)
(-0.0036595626 -0.0001597826 0.34904114)
(-0.0035596632 -0.00015542077 0.34332579)
(-0.0034027942 -0.0001485716 0.33969606)
(-0.003205399 -0.0001399532 0.33759018)
(-0.0029844527 -0.00013030639 0.3364867)
(-0.0027539326 -0.00012024166 0.33597372)
(-0.0025251775 -0.00011025383 0.33576923)
(-0.0023040155 -0.00010059756 0.335705)
(-0.0020954657 -9.1491922e-05 0.33569441)
(-0.0018988181 -8.2905916e-05 0.33569875)
(-0.001717079 -7.4970836e-05 0.33570424)
(-0.0015458276 -6.7493648e-05 0.3357061)
(-0.0013894849 -6.0667436e-05 0.33570471)
(-0.0012406972 -5.4171045e-05 0.3356991)
(-0.0011067306 -4.8321792e-05 0.33569173)
(-0.00097710892 -4.2662229e-05 0.33568065)
(-0.00086230918 -3.7649825e-05 0.33566967)
(-0.00074877617 -3.269276e-05 0.33565511)
(-0.0006499032 -2.8375761e-05 0.33564261)
(-0.00054965427 -2.3998704e-05 0.33562641)
(-0.00046344427 -2.0234626e-05 0.33561431)
(-0.00037388318 -1.6324236e-05 0.33559845)
(-0.00029705734 -1.2969907e-05 0.33558869)
(-0.00021560235 -9.4134628e-06 0.33557544)
(-0.00014486103 -6.3248047e-06 0.33557011)
(-6.8904473e-05 -3.0084426e-06 0.33555986)
(1.8587562e-06 8.1154766e-08 0.020123624)
(-3.4889507e-06 -1.523324e-07 0.059779074)
(-1.533064e-05 -6.693536e-07 0.1006035)
(-3.674003e-05 -1.6041092e-06 0.14228534)
(-6.962016e-05 -3.0396924e-06 0.18443165)
(-0.00011592696 -5.061499e-06 0.22655969)
(-0.00017775385 -7.7609281e-06 0.26809044)
(-0.00025731598 -1.1234699e-05 0.30834577)
(-0.0003569095 -1.5583062e-05 0.34655167)
(-0.00047884721 -2.0906994e-05 0.38185066)
(-0.0006253624 -2.7304022e-05 0.41332739)
(-0.00079846599 -3.4861947e-05 0.44005183)
(-0.00099973578 -4.3649681e-05 0.46114415)
(-0.0012300093 -5.3703767e-05 0.47586303)
(-0.0014889485 -6.5009497e-05 0.4837145)
(-0.0017744494 -7.7475009e-05 0.48456954)
(-0.002081916 -9.0899627e-05 0.47876719)
(-0.0024034927 -0.00010494035 0.46716976)
(-0.0027275041 -0.00011908738 0.45113394)
(-0.0030384656 -0.00013266457 0.43237664)
(-0.0033180852 -0.00014487325 0.41274709)
(-0.0035473842 -0.00015488477 0.39395576)
(-0.0037097362 -0.00016197317 0.37733421)
(-0.0037938877 -0.00016564712 0.36369063)
(-0.0037962913 -0.00016575214 0.353289)
(-0.003721513 -0.0001624871 0.34593718)
(-0.0035814417 -0.00015637132 0.34114071)
(-0.003392145 -0.00014810653 0.33827238)
(-0.0031717013 -0.00013848169 0.33671649)
(-0.0029357312 -0.00012817904 0.33596317)
(-0.0026979041 -0.00011779515 0.33564701)
(-0.002465516 -0.00010764875 0.33553981)
(-0.0022453937 -9.8037875e-05 0.33551809)
(-0.0020369515 -8.8936915e-05 0.33552388)
(-0.0018443633 -8.052817e-05 0.33553483)
(-0.0016623158 -7.2579621e-05 0.33554298)
(-0.0014963755 -6.5334381e-05 0.33554776)
(-0.0013378071 -5.8410965e-05 0.33554794)
(-0.0011952556 -5.2186896e-05 0.33554598)
(-0.0010566531 -4.6135228e-05 0.33553993)
(-0.00093398115 -4.0779118e-05 0.33553361)
(-0.00081213726 -3.5459193e-05 0.3355234)
(-0.00070585359 -3.0818633e-05 0.33551483)
(-0.00059790262 -2.6105295e-05 0.33550235)
(-0.00050455856 -2.2029733e-05 0.3354934)
(-0.00040782909 -1.7806361e-05 0.33548059)
(-0.0003240359 -1.4147826e-05 0.33547311)
(-0.00023582165 -1.0296263e-05 0.33546213)
(-0.00015822037 -6.9080903e-06 0.33545811)
(-7.5769532e-05 -3.3081787e-06 0.33544895)
(1.7013294e-06 7.4281315e-08 0.020763404)
(-3.3003345e-06 -1.4409716e-07 0.0617132)
(-1.4493677e-05 -6.3281056e-07 0.10391098)
(-3.4754287e-05 -1.5174086e-06 0.14704451)
(-6.5898568e-05 -2.8772015e-06 0.19071846)
(-0.00010980675 -4.7942799e-06 0.23444524)
(-0.00016850383 -7.3570558e-06 0.27763764)
(-0.00024414983 -1.0659841e-05 0.31960475)
(-0.00033900828 -1.480146e-05 0.3595535)
(-0.00045539483 -1.9883016e-05 0.3965989)
(-0.00059559896 -2.6004486e-05 0.42978709)
(-0.00076176475 -3.3259486e-05 0.45813566)
(-0.0009557122 -4.1727498e-05 0.48069594)
(-0.0011786708 -5.1462178e-05 0.49664016)
(-0.0014308904 -6.2474492e-05 0.50537224)
(-0.0017110973 -7.4708826e-05 0.50665256)
(-0.0020157879 -8.8012201e-05 0.50071591)
(-0.0023384179 -0.00010209889 0.48834883)
(-0.0026686907 -0.00011651928 0.47088692)
(-0.0029922683 -0.00013064731 0.45010221)
(-0.0032913773 -0.00014370694 0.42798139)
(-0.0035465354 -0.00015484753 0.40643856)
(-0.0037394212 -0.00016326908 0.38703875)
(-0.0038560308 -0.0001683602 0.37080896)
(-0.0038895588 -0.00016982414 0.35817938)
(-0.0038414276 -0.00016772253 0.3490503)
(-0.0037212794 -0.0001624766 0.34294417)
(-0.0035440583 -0.00015473905 0.339189)
(-0.003328219 -0.00014531525 0.33708582)
(-0.0030905077 -0.00013493661 0.33602827)
(-0.0028466554 -0.00012428968 0.33556246)
(-0.0026054395 -0.00011375787 0.33539221)
(-0.0023755819 -0.00010372197 0.33534975)
(-0.0021568523 -9.4171861e-05 0.33535254)
(-0.0019546508 -8.5343403e-05 0.33536666)
(-0.0017629959 -7.6975393e-05 0.33537965)
(-0.0015885118 -6.9357133e-05 0.33538938)
(-0.0014213251 -6.205744e-05 0.33539433)
(-0.0012712265 -5.5503867e-05 0.33539678)
(-0.0011248893 -4.9114499e-05 0.33539496)
(-0.00099539524 -4.3460534e-05 0.33539248)
(-0.00086655402 -3.7835101e-05 0.33538602)
(-0.00075389142 -3.291603e-05 0.33538073)
(-0.00063952749 -2.7922695e-05 0.33537153)
(-0.00054003092 -2.3578506e-05 0.33536524)
(-0.0004373081 -1.9093455e-05 0.33535519)
(-0.00034746364 -1.5170713e-05 0.33534969)
(-0.00025350943 -1.1068535e-05 0.33534081)
(-0.00016989675 -7.4178963e-06 0.33533794)
(-8.1822451e-05 -3.5724559e-06 0.33532981)
(1.5729597e-06 6.8676515e-08 0.021358891)
(-3.1191326e-06 -1.3618575e-07 0.063514562)
(-1.3696805e-05 -5.9801826e-07 0.1069933)
(-3.2862917e-05 -1.4348292e-06 0.15148279)
(-6.2351655e-05 -2.7223387e-06 0.19658614)
(-0.00010396918 -4.5394037e-06 0.24181221)
(-0.00015967151 -6.9714243e-06 0.28656737)
(-0.00023155938 -1.0110123e-05 0.33015041)
(-0.00032185395 -1.4052475e-05 0.37175258)
(-0.0004328554 -1.8898907e-05 0.41046592)
(-0.00056687791 -2.4750474e-05 0.44530391)
(-0.00072614945 -3.1704452e-05 0.47523903)
(-0.00091265833 -3.9847672e-05 0.49926237)
(-0.0011279203 -4.924629e-05 0.51646887)
(-0.0013726334 -5.9930834e-05 0.52616859)
(-0.0016461797 -7.1874333e-05 0.52801644)
(-0.0019459573 -8.4963169e-05 0.5221416)
(-0.0022665675 -9.8961638e-05 0.50924422)
(-0.0025990167 -0.00011347705 0.49061755)
(-0.0029302111 -0.00012793764 0.46805909)
(-0.0032432231 -0.00014160429 0.44366099)
(-0.0035186238 -0.00015362872 0.41951479)
(-0.0037370873 -0.00016316705 0.39740555)
(-0.0038825142 -0.00016951637 0.37858106)
(-0.0039452786 -0.0001722568 0.36365303)
(-0.0039237638 -0.00017131727 0.35263766)
(-0.0038251146 -0.00016701001 0.34509946)
(-0.0036626554 -0.00015991697 0.34034303)
(-0.0034546105 -0.00015083349 0.33759994)
(-0.0032183554 -0.00014051845 0.33617248)
(-0.0029713356 -0.00012973324 0.33551615)
(-0.0027237453 -0.00011892316 0.33526062)
(-0.0024861868 -0.00010855103 0.33518681)
(-0.002258977 -9.8630687e-05 0.33518208)
(-0.0020487212 -8.9450578e-05 0.33519752)
(-0.0018489865 -8.0729806e-05 0.33521448)
(-0.0016672774 -7.2796101e-05 0.33522855)
(-0.0014928525 -6.518039e-05 0.33523777)
(-0.0013363312 -5.83464e-05 0.3352441)
(-0.0011835182 -5.1674302e-05 0.33524603)
(-0.0010481627 -4.5764424e-05 0.33524685)
(-0.00091347645 -3.9883795e-05 0.3352437)
(-0.00079529015 -3.4723554e-05 0.33524117)
(-0.00067556314 -2.9496061e-05 0.33523488)
(-0.0005707174 -2.4918321e-05 0.33523086)
(-0.00046294478 -2.0212788e-05 0.33522327)
(-0.00036782433 -1.6059689e-05 0.33521946)
(-0.00026896672 -1.1743421e-05 0.33521249)
(-0.00018009295 -7.8630759e-06 0.33521064)
(-8.7138148e-05 -3.8045453e-06 0.33520342)
(1.4666811e-06 6.4036271e-08 0.021917412)
(-2.9601637e-06 -1.2924493e-07 0.065204823)
(-1.2998413e-05 -5.6752547e-07 0.1098867)
(-3.1202299e-05 -1.3623244e-06 0.15565101)
(-5.9230916e-05 -2.5860829e-06 0.2020999)
(-9.8820311e-05 -4.3145969e-06 0.24873952)
(-0.00015185858 -6.6303007e-06 0.29497112)
(-0.0002203841 -9.6221939e-06 0.34008504)
(-0.00030656679 -1.3385015e-05 0.3832594)
(-0.00041267438 -1.8017772e-05 0.42356678)
(-0.00054101827 -2.3621399e-05 0.45999265)
(-0.00069386842 -3.0295005e-05 0.49147036)
(-0.0008733209 -3.8130123e-05 0.51693794)
(-0.001081094 -4.7201753e-05 0.5354212)
(-0.0013182212 -5.7555066e-05 0.54614439)
(-0.001584599 -6.9185551e-05 0.54866309)
(-0.0018783632 -8.2011812e-05 0.5430026)
(-0.0021950963 -9.5840975e-05 0.52977102)
(-0.0025269896 -0.0001103321 0.51020439)
(-0.0028621875 -0.00012496748 0.48610214)
(-0.0031847799 -0.00013905244 0.45963387)
(-0.0034757656 -0.00015175735 0.43304274)
(-0.003715352 -0.00016221795 0.40831698)
(-0.0038859308 -0.00016966544 0.38692116)
(-0.0039755335 -0.00017357767 0.36965719)
(-0.0039797512 -0.00017376164 0.35667488)
(-0.0039031692 -0.00017041783 0.34760251)
(-0.003757175 -0.00016404367 0.34174175)
(-0.0035592602 -0.00015540247 0.33826997)
(-0.0033269615 -0.00014526019 0.33640601)
(-0.0030790389 -0.00013443558 0.33551545)
(-0.0028269839 -0.00012343058 0.33514954)
(-0.0025831959 -0.00011278649 0.33503175)
(-0.0023487338 -0.00010254952 0.33501387)
(-0.0021313701 -9.3059079e-05 0.33502826)
(-0.0019244909 -8.4026379e-05 0.3350481)
(-0.0017362938 -7.5809408e-05 0.33506585)
(-0.0015554889 -6.7915149e-05 0.33507881)
(-0.0013931948 -6.082912e-05 0.3350885)
(-0.0012347447 -5.3910905e-05 0.33509373)
(-0.0010941411 -4.7771895e-05 0.33509736)
(-0.00095442754 -4.1671771e-05 0.33509712)
(-0.00083132749 -3.6296991e-05 0.33509694)
(-0.00070701603 -3.0869337e-05 0.33509321)
(-0.00059744601 -2.6085329e-05 0.3350911)
(-0.00048534897 -2.1190986e-05 0.33508569)
(-0.0003855937 -1.6835524e-05 0.33508333)
(-0.00028250301 -1.2334434e-05 0.33507806)
(-0.00018901558 -8.2526495e-06 0.33507708)
(-9.180402e-05 -4.0082626e-06 0.33507068)
(1.3770406e-06 6.0122419e-08 0.022443836)
(-2.8152936e-06 -1.229199e-07 0.066798531)
(-1.2363926e-05 -5.3982326e-07 0.11261578)
(-2.9692528e-05 -1.2964063e-06 0.15958411)
(-5.6391116e-05 -2.4620941e-06 0.2073051)
(-9.4130139e-05 -4.1098183e-06 0.25528289)
(-0.00014473293 -6.3191855e-06 0.30291458)
(-0.00021017658 -9.1765203e-06 0.34948345)
(-0.00029257765 -1.277423e-05 0.39415652)
(-0.00039416459 -1.7209609e-05 0.43598964)
(-0.00051723228 -2.2582868e-05 0.47394396)
(-0.00066406892 -2.8993911e-05 0.50691854)
(-0.00083684089 -3.6537342e-05 0.5338044)
(-0.0010374131 -4.5294561e-05 0.5535652)
(-0.0012670746 -5.5321896e-05 0.56534677)
(-0.0015261283 -6.6632582e-05 0.56861177)
(-0.0018133132 -7.9171557e-05 0.56328492)
(-0.0021250437 -9.2782278e-05 0.54987995)
(-0.0024545608 -0.00010716963 0.52956556)
(-0.0027911776 -0.00012186696 0.50412482)
(-0.0031200589 -0.00013622651 0.47578088)
(-0.00342286 -0.00014944731 0.44690442)
(-0.0036797105 -0.0001606617 0.41966863)
(-0.0038719795 -0.00016905623 0.39574707)
(-0.0039858164 -0.00017402656 0.3761354)
(-0.0040143422 -0.00017527184 0.36112982)
(-0.0039596606 -0.0001728842 0.35044037)
(-0.0038310714 -0.00016726995 0.34338452)
(-0.0036449653 -0.00015914433 0.33910097)
(-0.0034186483 -0.00014926323 0.33673481)
(-0.0031717871 -0.00013848498 0.33556472)
(-0.0029170145 -0.00012736134 0.33506122)
(-0.0026683778 -0.00011650557 0.33488524)
(-0.0024278415 -0.00010600341 0.33484775)
(-0.0022042701 -9.6241939e-05 0.33485844)
(-0.0019911398 -8.6936312e-05 0.33488012)
(-0.001797141 -7.8466043e-05 0.334901)
(-0.0016107453 -7.0327683e-05 0.33491735)
(-0.0014432587 -6.3014952e-05 0.33493004)
(-0.0012798954 -5.5882227e-05 0.33493825)
(-0.0011345657 -4.9536876e-05 0.33494436)
(-0.00099048877 -4.3246247e-05 0.33494671)
(-0.00086297966 -3.7678965e-05 0.33494857)
(-0.00073469326 -3.2077762e-05 0.33494711)