/*--------------------------------*- C++ -*----------------------------------*\
| =========                 |                                                 |
| \\      /  F ield         | OpenFOAM: The Open Source CFD Toolbox           |
|  \\    /   O peration     | Version:  3.0.1                                 |
|   \\  /    A nd           | Web:      www.OpenFOAM.org                      |
|    \\/     M anipulation  |                                                 |
\*---------------------------------------------------------------------------*/
FoamFile
{
    version     2.0;
    format      ascii;
    class       volVectorField;
    location    "10000/fluid";
    object      U;
}
// * * * * * * * * * * * * * * * * * * * * * * * * * * * * * * * * * * * * * //

dimensions      [0 1 -1 0 0 0 0];

internalField   nonuniform List<vector> 
4000
(
(0.00065234166 1.4936429e-18 0.093043348)
(0.0016957489 3.8492115e-18 0.21225948)
(0.003004495 4.9214596e-18 0.28859695)
(0.0034742448 5.0699249e-18 0.33609169)
(0.0035115586 4.9898073e-18 0.36585067)
(0.003297374 5.3619128e-18 0.38535699)
(0.0029986683 6.177704e-18 0.39913637)
(0.002690035 5.5733123e-18 0.40966326)
(0.0024059068 5.1044829e-18 0.41813898)
(0.0021547952 4.0892192e-18 0.42504885)
(0.0019363078 2.6124561e-18 0.43051436)
(0.0017463989 4.1992056e-18 0.43449286)
(0.0015806982 6.5391893e-18 0.4368809)
(0.001435182 9.2489492e-18 0.43756388)
(0.0013064697 9.3261796e-18 0.43643898)
(0.001191785 9.5415341e-18 0.43342602)
(0.0010887788 9.9579117e-18 0.42847309)
(0.00099570432 7.3868102e-18 0.42155989)
(0.00091135653 4.7076853e-18 0.41269989)
(0.00083422956 1.9375846e-18 0.40194095)
(0.00076310683 -1.0517929e-18 0.38936455)
(0.00069714362 -4.5039697e-18 0.37508442)
(0.00063559752 -3.4479163e-18 0.35924364)
(0.00057792021 -2.350245e-18 0.34201066)
(0.00052368989 -1.1020043e-18 0.32357374)
(0.00047257024 -4.1155233e-18 0.30413517)
(0.00042434001 -7.498891e-18 0.28390174)
(0.00037884067 -7.7055622e-18 0.26307759)
(0.00033603972 -8.0938941e-18 0.24185559)
(0.00029583009 -8.6743281e-18 0.22040973)
(0.00025829837 -9.4939287e-18 0.19888769)
(0.00022328401 -5.8303871e-18 0.1774055)
(0.00019104064 -6.3533299e-18 0.15604315)
(0.00016115109 -6.9800459e-18 0.13484347)
(0.0001341743 -7.7776794e-18 0.1138123)
(0.00010900288 -6.0456715e-18 0.092924696)
(8.686632e-05 -6.5310874e-18 0.072131314)
(6.4539651e-05 -5.4986527e-18 0.051377397)
(4.4672809e-05 -3.2709896e-18 0.030618587)
(1.4155229e-05 -1.0439218e-18 0.0098680191)
(-3.074445e-05 1.0492389e-18 0.100112)
(-0.00028511177 2.7066447e-18 0.2276523)
(-0.00044401043 4.1782806e-18 0.30674625)
(-0.00060630418 3.6066758e-18 0.35213671)
(-0.00073955117 4.751882e-18 0.37748548)
(-0.00083672702 5.4695773e-18 0.39264138)
(-0.00087333383 6.0894997e-18 0.40321397)
(-0.00085297057 4.7808105e-18 0.41174803)
(-0.00079005387 4.6665645e-18 0.41911176)
(-0.00070228115 3.8377807e-18 0.42543805)
(-0.00060293817 2.6956768e-18 0.4306034)
(-0.00050069698 4.3702519e-18 0.43442584)
(-0.00040047093 6.584827e-18 0.43673175)
(-0.00030501994 8.7978837e-18 0.43737341)
(-0.000215921 9.2805992e-18 0.43623223)
(-0.00013413422 9.5515517e-18 0.43321963)
(-6.0329571e-05 9.9213583e-18 0.42827797)
(5.2073628e-06 7.3631797e-18 0.4213793)
(6.2496263e-05 4.7460454e-18 0.4125377)
(0.00011130308 2.4478188e-18 0.40180335)
(0.00015157063 -1.5730487e-18 0.38925351)
(0.0001834936 -4.6184861e-18 0.37500005)
(0.00020743301 -3.4447296e-18 0.35918486)
(0.00022371781 -2.3395311e-18 0.34197546)
(0.00023370672 -1.0723115e-18 0.32355953)
(0.00023789022 -4.1325729e-18 0.30413909)
(0.00023620322 -7.5298625e-18 0.28392057)
(0.00022963859 -7.7114872e-18 0.26310806)
(0.00021899615 -8.0981065e-18 0.24189456)
(0.00020505706 -8.6805285e-18 0.22045448)
(0.00018868896 -9.5001976e-18 0.19893581)
(0.00017055042 -5.8398929e-18 0.17745496)
(0.00015156394 -6.5503901e-18 0.1560924)
(0.00013198447 -6.996071e-18 0.13489137)
(0.00011283737 -7.7893878e-18 0.11385843)
(9.3569237e-05 -6.057471e-18 0.092969105)
(7.5504739e-05 -6.6479887e-18 0.072175649)
(5.5853227e-05 -5.6052402e-18 0.051425209)
(3.6404436e-05 -3.2002181e-18 0.030680529)
(6.8967259e-06 -1.0743777e-18 0.0099445623)
(-2.0491876e-05 9.7487729e-19 0.10683238)
(-0.00036602785 2.4391501e-18 0.24408295)
(-0.00080296631 3.5472387e-18 0.32815097)
(-0.0012386162 4.0989953e-18 0.37318899)
(-0.0015895734 4.7750141e-18 0.39435558)
(-0.0018255854 5.3745689e-18 0.40401371)
(-0.0019324675 5.6605971e-18 0.40973129)
(-0.0019245292 4.9819083e-18 0.41484004)
(-0.0018323475 4.4042326e-18 0.42013911)
(-0.001689762 3.7929996e-18 0.42536486)
(-0.0015234424 3.3376675e-18 0.4300037)
(-0.0013507373 4.6931678e-18 0.4336038)
(-0.0011812401 6.6265542e-18 0.43583746)
(-0.001019694 8.508819e-18 0.43647945)
(-0.00086823215 9.214539e-18 0.43537506)
(-0.00072777704 9.482047e-18 0.4324189)
(-0.00059870542 9.4499392e-18 0.42754467)
(-0.00048125626 7.2761672e-18 0.42072063)
(-0.00037553564 4.7204347e-18 0.41195633)
(-0.00028145266 2.1888187e-18 0.40129823)
(-0.00019878403 -2.012407e-18 0.3888224)
(-0.00012731509 -4.2134043e-18 0.37463896)
(-6.6553579e-05 -3.4112406e-18 0.35888843)
(-1.6220801e-05 -2.351364e-18 0.34173614)
(2.513204e-05 -1.41198e-18 0.32336315)
(5.8010727e-05 -4.1630049e-18 0.30398859)
(8.2393592e-05 -7.3047321e-18 0.28381029)
(9.9338634e-05 -7.7026686e-18 0.2630317)
(0.00011027272 -8.1031149e-18 0.24184608)
(0.0001158244 -8.6710699e-18 0.22042847)
(0.00011623425 -9.2194516e-18 0.19892711)
(0.00011258681 -5.8457458e-18 0.17745901)
(0.00010584094 -6.4934895e-18 0.15610554)
(9.6505085e-05 -6.9958238e-18 0.13491056)
(8.5737226e-05 -7.6276124e-18 0.1138815)
(7.3282707e-05 -6.193983e-18 0.092994753)
(6.0380434e-05 -6.5286462e-18 0.072204118)
(4.478419e-05 -5.454077e-18 0.051458687)
(2.7223924e-05 -3.128362e-18 0.030722905)
(3.1497641e-06 -1.0245166e-18 0.0099751661)
(-1.7839482e-05 6.099369e-19 0.11363479)
(-0.00035869931 1.5131335e-18 0.26068175)
(-0.00085245902 2.0917264e-18 0.35075311)
(-0.001404415 4.7029915e-18 0.3972196)
(-0.0019046122 4.7733427e-18 0.41563023)
(-0.0022855053 5.0369921e-18 0.4201034)
(-0.0025082378 4.9729776e-18 0.42029259)
(-0.0025736823 5.5931025e-18 0.42089487)
(-0.0025122689 4.7244487e-18 0.4231205)
(-0.0023663849 4.2194949e-18 0.42650925)
(-0.0021744654 4.5902232e-18 0.43015564)
(-0.0019641056 5.0812584e-18 0.43325941)
(-0.0017519216 6.7423799e-18 0.43526017)
(-0.001546631 8.354623e-18 0.4358021)
(-0.0013522859 9.1417916e-18 0.43466533)
(-0.0011706112 9.2923448e-18 0.4317139)
(-0.0010022579 8.674848e-18 0.42686689)
(-0.00084753734 7.0991257e-18 0.42008557)
(-0.00070660294 4.5740776e-18 0.41137373)
(-0.00057934847 1.3980017e-18 0.40077326)
(-0.00046554079 -1.8443747e-18 0.38835782)
(-0.00036496352 -3.9049054e-18 0.37423509)
(-0.00027712202 -3.3635925e-18 0.35854352)
(-0.00020156169 -2.4099718e-18 0.34144683)
(-0.0001376621 -2.0022822e-18 0.32312698)
(-8.4697199e-05 -4.204722e-18 0.30379868)
(-4.1704808e-05 -6.8706517e-18 0.28366167)
(-7.8771225e-06 -7.6668833e-18 0.26291724)
(1.8404208e-05 -8.1040531e-18 0.24175631)
(3.7837712e-05 -8.6328626e-18 0.22036529)
(5.0657484e-05 -8.7230342e-18 0.19888603)
(5.8609426e-05 -6.013341e-18 0.17743549)
(6.2339933e-05 -6.2803847e-18 0.15609573)
(6.1971373e-05 -6.9682966e-18 0.13491095)
(5.8872564e-05 -7.3604521e-18 0.11388954)
(5.2937929e-05 -6.3874994e-18 0.093008781)
(4.5295626e-05 -6.3074892e-18 0.07222413)
(3.423303e-05 -5.2323811e-18 0.051486602)
(1.9904836e-05 -3.2109378e-18 0.030760021)
(1.4347641e-06 -9.7486795e-19 0.010001927)
(-1.5158029e-05 7.5548793e-19 0.11953015)
(-0.00032615273 1.9328815e-18 0.27561042)
(-0.00080750762 2.9159353e-18 0.3719734)
(-0.0013841071 4.0299101e-18 0.42109277)
(-0.001952568 4.7414185e-18 0.43827327)
(-0.0024303404 4.9385003e-18 0.43859868)
(-0.0027556416 5.0063226e-18 0.43346689)
(-0.0029073235 5.1099938e-18 0.4291395)
(-0.0029032337 4.7487013e-18 0.4276349)
(-0.0027842947 4.3762834e-18 0.42859059)
(-0.0025951061 4.6230399e-18 0.43082363)
(-0.0023717783 5.3947163e-18 0.43317807)
(-0.0021382565 6.8401453e-18 0.4348091)
(-0.0019081213 8.2881062e-18 0.43518048)
(-0.0016880874 9.0024163e-18 0.43397419)
(-0.0014811037 9.1165089e-18 0.43100609)
(-0.0012883012 8.422206e-18 0.42617265)
(-0.0011101205 6.9052288e-18 0.41942451)
(-0.00094673151 4.4241984e-18 0.4107585)
(-0.00079803949 1.4297668e-18 0.40021136)
(-0.00066382916 -1.1390076e-18 0.38785375)
(-0.00054387001 -3.6011301e-18 0.37379056)
(-0.00043774202 -3.2969953e-18 0.35815793)
(-0.00034488614 -2.472001e-18 0.34111784)
(-0.00026485935 -2.255289e-18 0.32285235)
(-0.0001969188 -4.2557757e-18 0.30357254)
(-0.00013995354 -6.7162094e-18 0.28347926)
(-9.3243548e-05 -7.6285296e-18 0.26277338)
(-5.5779408e-05 -8.1015836e-18 0.24164655)
(-2.6517298e-05 -8.5907197e-18 0.22028328)
(-4.5101918e-06 -8.5496294e-18 0.19882605)
(1.1867181e-05 -6.3926603e-18 0.17739067)
(2.3180098e-05 -6.2880843e-18 0.15606712)
(2.99463e-05 -6.9422333e-18 0.13489521)
(3.3583323e-05 -7.2527128e-18 0.11388404)
(3.3567664e-05 -6.3948243e-18 0.093011599)
(3.0894198e-05 -6.2247624e-18 0.072235003)
(2.4257476e-05 -5.156975e-18 0.051506866)
(1.3581398e-05 -3.2613093e-18 0.030788461)
(4.0406042e-07 -1.0103678e-18 0.010019855)
(-1.4466694e-05 8.3160163e-19 0.12485156)
(-0.00030226666 2.2249466e-18 0.28925085)
(-0.00076195056 3.7535477e-18 0.39178027)
(-0.0013328729 2.9811689e-18 0.44414689)
(-0.0019259507 4.340157e-18 0.46118106)
(-0.0024594145 4.9838387e-18 0.45839499)
(-0.0028603108 5.6567725e-18 0.44848621)
(-0.0030891159 4.7771966e-18 0.43920638)
(-0.0031472824 4.5269657e-18 0.43359409)
(-0.0030675221 4.3018607e-18 0.4316479)
(-0.0028948597 3.9857816e-18 0.43207403)
(-0.0026708859 5.4133835e-18 0.43341284)
(-0.0024261135 6.8645778e-18 0.43451836)
(-0.0021793852 8.1224856e-18 0.43463617)
(-0.001940742 8.9096286e-18 0.43331752)
(-0.0017148726 9.0111103e-18 0.43030969)
(-0.0015036866 8.7272814e-18 0.42547614)
(-0.0013078945 6.7892793e-18 0.41875198)
(-0.0011277261 4.3820544e-18 0.4101253)
(-0.00096310331 2.0666459e-18 0.39962709)
(-0.00081381545 -1.0473137e-18 0.3873244)
(-0.00067959345 -3.3370593e-18 0.37331909)
(-0.00056004655 -3.22525e-18 0.35774478)
(-0.00045457323 -2.5038702e-18 0.34076159)
(-0.00036274563 -2.1735701e-18 0.32255114)
(-0.00028379794 -4.3044162e-18 0.30332116)
(-0.00021663205 -6.8345141e-18 0.28327308)
(-0.00016043988 -7.606334e-18 0.2626074)
(-0.00011431928 -8.0972274e-18 0.24151617)
(-7.7142937e-05 -8.5662274e-18 0.22018249)
(-4.7805549e-05 -8.6970161e-18 0.19875031)
(-2.5280415e-05 -6.5464365e-18 0.17733608)
(-8.6753985e-06 -6.5670723e-18 0.15602882)
(3.2226634e-06 -6.9417031e-18 0.1348674)
(1.1501366e-05 -7.3003486e-18 0.11386668)
(1.6020465e-05 -6.3109399e-18 0.09300402)
(1.7732406e-05 -6.3007099e-18 0.072236928)
(1.5215258e-05 -5.1835621e-18 0.051519047)
(8.3414629e-06 -3.1406578e-18 0.030808045)
(-1.4066953e-07 -1.0516594e-18 0.010031139)
(-1.3934999e-05 1.2140599e-18 0.12969931)
(-0.00028201627 2.2983046e-18 0.3017965)
(-0.00071914932 3.1783624e-18 0.4102627)
(-0.0012740718 3.6878726e-18 0.46616146)
(-0.0018706737 4.6367616e-18 0.483788)
(-0.0024335366 6.0544027e-18 0.47876623)
(-0.0028869174 6.4745805e-18 0.4647147)
(-0.0031792851 5.3866574e-18 0.45069067)
(-0.0032970072 4.660596e-18 0.44081734)
(-0.0032616463 4.3760874e-18 0.4356406)
(-0.0031143106 4.4098426e-18 0.43392306)
(-0.0028987365 5.5532528e-18 0.43398795)
(-0.0026504387 6.9269851e-18 0.43440327)
(-0.0023932944 8.0216086e-18 0.43417547)
(-0.0021410355 8.7895212e-18 0.4326972)
(-0.0019005316 8.878087e-18 0.42962598)
(-0.0016747774 8.4529051e-18 0.42477983)
(-0.0014649266 6.347046e-18 0.41807225)
(-0.001271349 4.2694558e-18 0.4094801)
(-0.0010940114 1.940245e-18 0.39902764)
(-0.00093271605 -9.427419e-19 0.38677778)
(-0.00078716764 -2.6850118e-18 0.37282915)
(-0.00065698372 -3.1112764e-18 0.35731267)
(-0.00054155468 -2.5363805e-18 0.3403865)
(-0.00044043074 -2.3608025e-18 0.32223141)
(-0.00035282219 -4.3697779e-18 0.30305215)
(-0.00027766656 -6.9734488e-18 0.28305029)
(-0.00021408452 -7.6117341e-18 0.26242602)
(-0.00016117315 -8.281559e-18 0.24137154)
(-0.00011779902 -8.5493129e-18 0.2200687)
(-8.2727035e-05 -8.6109822e-18 0.19866263)
(-5.5082231e-05 -6.967237e-18 0.1772704)
(-3.3747603e-05 -6.8610726e-18 0.1559805)
(-1.7737101e-05 -6.9530487e-18 0.13483364)
(-6.1811797e-06 -7.2279032e-18 0.11384423)
(1.557075e-06 -6.3256451e-18 0.092989281)
(6.2942996e-06 -6.2083742e-18 0.072231068)
(7.0216531e-06 -5.0823103e-18 0.051523545)
(3.8204422e-06 -3.2035011e-18 0.030819355)
(-5.0962377e-07 -1.0727477e-18 0.010037202)
(-1.3504405e-05 5.3580453e-19 0.13416266)
(-0.00026483297 1.3205326e-18 0.31342498)
(-0.00068074386 1.8357801e-18 0.42757015)
(-0.0012164843 4.4241223e-18 0.4871206)
(-0.0018063929 4.6705341e-18 0.50584013)
(-0.002382569 5.1824287e-18 0.49928239)
(-0.0028709672 5.3423876e-18 0.48169974)
(-0.0032134369 5.929291e-18 0.46324979)
(-0.0033844077 5.062759e-18 0.44911641)
(-0.0033940235 4.9073893e-18 0.44050352)
(-0.0032769182 5.7258248e-18 0.4363711)
(-0.0030761151 5.9939541e-18 0.4349235)
(-0.0028302529 7.0238785e-18 0.43448096)
(-0.0025675497 8.0326016e-18 0.43380709)
(-0.0023054851 8.7114377e-18 0.43211565)
(-0.0020534265 8.6407578e-18 0.42895447)
(-0.0018157457 7.6548815e-18 0.42408272)
(-0.0015942264 6.1764412e-18 0.41738487)
(-0.0013894755 4.0703653e-18 0.40882328)
(-0.0012015433 1.2628123e-18 0.39841423)
(-0.0010302557 -3.9579555e-19 0.38621583)
(-0.00087530521 -2.0324777e-18 0.37232319)
(-0.00073630646 -2.9662613e-18 0.35686442)
(-0.00061265354 -2.5996166e-18 0.33999561)
(-0.00050386493 -2.9149831e-18 0.32189634)
(-0.00040913215 -4.43632e-18 0.30276867)
(-0.00032742007 -6.6275213e-18 0.28281401)
(-0.00025780096 -7.5894643e-18 0.26223219)
(-0.00019934093 -8.247407e-18 0.24121545)
(-0.00015091109 -8.5095674e-18 0.21994454)
(-0.00011120402 -8.2692734e-18 0.19856562)
(-7.9380532e-05 -7.230782e-18 0.17719628)
(-5.4201268e-05 -6.6826245e-18 0.15592457)
(-3.4711544e-05 -6.9391776e-18 0.1347928)
(-2.0028632e-05 -7.0346638e-18 0.11381533)
(-9.5222867e-06 -6.516507e-18 0.092970699)
(-2.6280682e-06 -5.8680466e-18 0.072221632)
(4.9281938e-07 -4.7681428e-18 0.051522149)
(2.5383179e-07 -3.2029883e-18 0.030822982)
(-7.8127759e-07 -9.8148637e-19 0.010038349)
(-1.3095535e-05 -4.0982427e-19 0.13830651)
(-0.00024996821 -1.6200868e-19 0.32427582)
(-0.00064640711 1.1789185e-18 0.44384477)
(-0.0011624795 1.9164848e-18 0.50707673)
(-0.0017407938 3.5577391e-18 0.52723166)
(-0.0023205785 3.7378668e-18 0.519689)
(-0.002831519 4.0870841e-18 0.49912481)
(-0.0032125686 4.4742619e-18 0.4766073)
(-0.0034294697 4.8046679e-18 0.4583132)
(-0.0034820541 4.8672723e-18 0.44615747)
(-0.0033974006 5.5098765e-18 0.43940427)
(-0.0032157349 6.2633579e-18 0.43623369)
(-0.0029769986 7.0465188e-18 0.43476956)
(-0.0027127785 7.508162e-18 0.4335436)
(-0.0024440824 8.5292345e-18 0.43157925)
(-0.002182943 8.4367985e-18 0.42829771)
(-0.0019353546 7.4558682e-18 0.4233857)
(-0.0017039199 6.332356e-18 0.41669043)
(-0.0014895934 4.0369389e-18 0.40815569)
(-0.0012925582 1.8815387e-18 0.39778804)
(-0.0011126826 -8.8123496e-19 0.38564003)
(-0.00094966082 -2.4566592e-18 0.37180294)
(-0.00080310359 -2.887281e-18 0.35640191)
(-0.00067241325 -2.6531303e-18 0.33959088)
(-0.00055707576 -2.9994152e-18 0.32154796)
(-0.00045627144 -4.4784111e-18 0.30247272)
(-0.00036898182 -6.3199729e-18 0.28256616)
(-0.00029424461 -7.5319543e-18 0.26202774)
(-0.00023108878 -8.0242595e-18 0.24104962)
(-0.00017838414 -8.4562497e-18 0.21981159)
(-0.0001347852 -8.1690619e-18 0.19846069)
(-9.94373e-05 -6.9941214e-18 0.17711499)
(-7.1043265e-05 -6.7058909e-18 0.15586226)
(-4.8644464e-05 -6.9261435e-18 0.13474619)
(-3.1323055e-05 -6.9899351e-18 0.11378123)
(-1.8374669e-05 -6.5596933e-18 0.092947232)
(-9.3359292e-06 -5.9539797e-18 0.072207583)
(-4.1235397e-06 -4.801364e-18 0.051516537)
(-2.1949479e-06 -2.9609282e-18 0.030821856)
(-9.4185613e-07 -9.6210406e-19 0.010036826)
(-1.2693819e-05 1.5968853e-18 0.14218036)
(-0.00023694338 3.3166552e-18 0.33445977)
(-0.00061564397 3.9552248e-18 0.45921082)
(-0.0011126248 3.4384203e-18 0.52610385)
(-0.0016771017 4.0756862e-18 0.54793019)
(-0.0022546132 5.3584812e-18 0.53983662)
(-0.0027793179 6.1974687e-18 0.51677004)
(-0.0031896336 5.178268e-18 0.49054577)
(-0.0034453382 4.8830124e-18 0.46824816)
(-0.0035375625 4.7961134e-18 0.45251739)
(-0.0034857341 4.6095239e-18 0.44299662)
(-0.0033259755 6.1189304e-18 0.43792442)
(-0.0030979843 7.2310156e-18 0.43528447)
(-0.0028356452 8.3322647e-18 0.43339826)
(-0.0025630683 8.4803878e-18 0.43109611)
(-0.0022949655 8.3157777e-18 0.42765974)
(-0.002039133 7.8106026e-18 0.42269064)
(-0.0017991702 5.8230423e-18 0.41598999)
(-0.0015764948 3.9372372e-18 0.40747826)
(-0.0013714813 1.747286e-18 0.39715011)
(-0.0011840649 -8.4505464e-19 0.38505157)
(-0.001013956 -2.3193445e-18 0.37126971)
(-0.00086076311 -2.8137128e-18 0.35592655)
(-0.00072389981 -2.674088e-18 0.33917371)
(-0.00060282296 -2.7263003e-18 0.32118768)
(-0.00049670653 -4.5268892e-18 0.30216567)
(-0.00040454243 -6.7443208e-18 0.28230807)
(-0.00032534306 -7.520793e-18 0.26181394)
(-0.0002581022 -8.1998136e-18 0.24087525)
(-0.00020168172 -8.4352114e-18 0.21967097)
(-0.00015471842 -8.3679141e-18 0.19834886)
(-0.0001163166 -7.0796784e-18 0.17702746)
(-8.5153567e-05 -6.9332281e-18 0.15579437)
(-6.0251129e-05 -6.9340473e-18 0.13469455)
(-4.0665443e-05 -7.0724559e-18 0.1137426)
(-2.5634728e-05 -6.3094129e-18 0.092919643)
(-1.4725051e-05 -5.9933882e-18 0.072189658)
(-7.6926064e-06 -4.8567344e-18 0.05150692)
(-3.960234e-06 -3.016417e-18 0.030816745)
(-1.0257707e-06 -1.0028738e-18 0.010032626)
(-1.2299725e-05 6.6673012e-19 0.14582291)
(-0.00022542136 1.6768236e-18 0.34406583)
(-0.00058798517 2.2071726e-18 0.47377439)
(-0.0010668678 4.4343792e-18 0.54427953)
(-0.0016166462 4.5312184e-18 0.56794032)
(-0.0021883171 4.8651048e-18 0.55963941)
(-0.0027206205 4.8660011e-18 0.53448301)
(-0.0031528625 5.8124434e-18 0.5048966)
(-0.0034409483 5.1663214e-18 0.47878353)
(-0.0035689556 5.1864195e-18 0.45949904)
(-0.0035491245 6.046013e-18 0.44711408)
(-0.0034128002 6.4489424e-18 0.43999387)
(-0.0031982486 7.3378775e-18 0.43603714)
(-0.0029406202 8.2184586e-18 0.43338362)
(-0.0026665739 8.4183766e-18 0.43067513)
(-0.0023933799 8.1065477e-18 0.42704559)
(-0.0021307397 7.1969069e-18 0.42200011)
(-0.0018834019 5.7509577e-18 0.41528496)
(-0.0016533644 3.7539929e-18 0.40679202)
(-0.0014412589 1.1249205e-18 0.39650141)
(-0.0012471174 -3.4482532e-19 0.38445147)
(-0.001070681 -1.7398578e-18 0.37072457)
(-0.00091156205 -2.7039066e-18 0.35543941)
(-0.00076918594 -2.7225108e-18 0.33874518)
(-0.00064298495 -3.1836921e-18 0.32081656)
(-0.00053213046 -4.5722651e-18 0.30184853)
(-0.00043562084 -6.4100615e-18 0.28204071)
(-0.00035244977 -7.4910329e-18 0.26159169)
(-0.00028157993 -8.1619016e-18 0.24069319)
(-0.00022186113 -8.3958359e-18 0.21952346)
(-0.00017192401 -8.0411634e-18 0.19823086)
(-0.00013082202 -7.360536e-18 0.17693439)
(-9.7223219e-05 -6.7066657e-18 0.15572155)
(-7.012079e-05 -6.9179255e-18 0.13463843)
(-4.8549078e-05 -6.8645573e-18 0.11369996)
(-3.1708043e-05 -6.4105962e-18 0.092888401)
(-1.9163843e-05 -5.6846043e-18 0.072168326)
(-1.0552258e-05 -4.5587416e-18 0.051493929)
(-5.2573082e-06 -3.0392404e-18 0.030808497)
(-1.0392223e-06 -9.2281735e-19 0.010026921)
(-1.1917211e-05 1.0941777e-19 0.14926498)
(-0.00021515007 1.2657551e-18 0.35316641)
(-0.00056301899 2.5315491e-18 0.48762554)
(-0.0010249353 3.6337311e-18 0.56167786)
(-0.0015598923 4.090721e-18 0.58728504)
(-0.0021235807 3.7602782e-18 0.57905062)
(-0.0026591384 4.0942572e-18 0.55215812)
(-0.0031075809 5.2601537e-18 0.51952982)
(-0.0034224839 5.184383e-18 0.4898028)
(-0.0035823521 5.3688696e-18 0.46702302)
(-0.0035929639 6.011569e-18 0.45171813)
(-0.0034806692 6.7025125e-18 0.44243387)
(-0.0032814686 7.4037777e-18 0.43703482)
(-0.0030308667 8.0198753e-18 0.4335107)
(-0.0027574631 8.3026626e-18 0.43032528)
(-0.0024808611 7.9426973e-18 0.42646095)
(-0.0022126937 7.025726e-18 0.42131725)
(-0.0019589774 6.0212311e-18 0.4145771)
(-0.0017224024 3.6791668e-18 0.40609812)
(-0.001503927 1.2470418e-18 0.3958429)
(-0.0013037156 -3.6328308e-19 0.38384066)
(-0.0011215578 -2.2429231e-18 0.37016844)
(-0.00095707551 -2.6571902e-18 0.3549414)
(-0.00080970734 -2.766589e-18 0.33830617)
(-0.0006788659 -3.2744485e-18 0.32043546)
(-0.00056372243 -4.6049945e-18 0.30152211)
(-0.00046328005 -6.1194911e-18 0.28176482)
(-0.00037651709 -7.4336211e-18 0.26136169)
(-0.00030237042 -7.946416e-18 0.24050411)
(-0.0002396756 -8.3442708e-18 0.21936968)
(-0.00018706263 -8.0290147e-18 0.19810727)
(-0.00014353288 -7.1519623e-18 0.17683629)
(-0.00010775315 -6.5028604e-18 0.15564426)
(-7.868478e-05 -6.8911619e-18 0.13457831)
(-5.5342989e-05 -6.8555319e-18 0.11365374)
(-3.6899178e-05 -6.4450448e-18 0.092853908)
(-2.2902775e-05 -5.6538867e-18 0.072143965)
(-1.2904029e-05 -4.5022983e-18 0.051477965)
(-6.2405541e-06 -2.8883033e-18 0.030797597)
(-1.0187858e-06 -8.7412327e-19 0.010020083)
(-1.1549273e-05 7.745384e-19 0.15253152)
(-0.00020593385 2.0361522e-18 0.36182111)
(-0.00054039258 3.4377299e-18 0.5008407)
(-0.00098648564 2.3614356e-18 0.5783668)
(-0.0015068963 3.7416854e-18 0.60599598)
(-0.0020613553 4.2192855e-18 0.59804776)
(-0.0025970952 4.9521844e-18 0.56972243)
(-0.0030572843 4.4320773e-18 0.53434542)
(-0.0033942812 4.7939307e-18 0.50120867)
(-0.0035822716 5.12901e-18 0.47501675)
(-0.0036213789 5.2891092e-18 0.45676854)
(-0.0035330361 6.6736745e-18 0.44523144)
(-0.0033504489 7.4476562e-18 0.43828073)
(-0.0031087254 8.0113134e-18 0.43378851)
(-0.0028378015 8.2335736e-18 0.43005512)
(-0.0025593136 7.8795583e-18 0.42591173)
(-0.0022867839 7.3333432e-18 0.42064555)
(-0.002027577 5.8542897e-18 0.41386839)
(-0.0017851748 3.6966687e-18 0.40539783)
(-0.0015609351 1.8234858e-18 0.39517555)
(-0.0013551948 -9.0702336e-19 0.38321999)
(-0.00116781 -2.6003484e-18 0.36960214)
(-0.00099842173 -2.6751728e-18 0.35443332)
(-0.00084648333 -2.7904215e-18 0.33785744)
(-0.00071139193 -3.0664886e-18 0.32004512)
(-0.00059232027 -4.6346627e-18 0.30118709)
(-0.00048827531 -6.3479299e-18 0.28148105)
(-0.00039822326 -7.4013109e-18 0.26112453)
(-0.00032107906 -7.9422777e-18 0.24030854)
(-0.00025566349 -8.3111643e-18 0.21921011)
(-0.00020060878 -8.2793446e-18 0.19797853)
(-0.00015486619 -6.9454634e-18 0.17673358)
(-0.00011710439 -6.8428927e-18 0.1555629)
(-8.6253338e-05 -6.8911373e-18 0.13451455)
(-6.1310906e-05 -6.9879132e-18 0.11360428)
(-4.1426198e-05 -6.3307383e-18 0.092816481)
(-2.6121105e-05 -5.853802e-18 0.07211688)
(-1.4883965e-05 -4.6829164e-18 0.051459354)
(-7.0067468e-06 -2.7717273e-18 0.030784435)
(-9.8321651e-07 -9.3012619e-19 0.010012402)
(-1.1198356e-05 7.7230265e-19 0.15564297)
(-0.00019761666 2.1018392e-18 0.37007948)
(-0.00051980498 2.8454219e-18 0.51348496)
(-0.00095117135 3.1435672e-18 0.59440756)
(-0.0014575212 3.8002914e-18 0.62410812)
(-0.0020020759 4.2592152e-18 0.6166235)
(-0.0025358205 4.5983615e-18 0.58712585)
(-0.003004288 4.4471347e-18 0.5492664)
(-0.0033594129 4.5359369e-18 0.51292037)
(-0.0035720878 5.0117633e-18 0.4834152)
(-0.0036375725 5.6497855e-18 0.46222529)
(-0.0035726371 6.7178693e-18 0.44837029)
(-0.0034074036 7.4174581e-18 0.43977456)
(-0.0031759979 7.8541203e-18 0.4342239)
(-0.0029091318 8.1131775e-18 0.42987245)
(-0.0026301351 7.7935753e-18 0.42540388)
(-0.002354315 7.1387426e-18 0.41998877)
(-0.0020904259 5.683992e-18 0.413161)
(-0.0018428262 3.6458247e-18 0.40469247)
(-0.0016133432 1.7009296e-18 0.39450032)
(-0.0014025294 -7.6164818e-19 0.38259027)
(-0.0012103299 -2.4364974e-18 0.36902644)
(-0.0010364147 -2.6598329e-18 0.35391589)
(-0.00088025367 -2.824545e-18 0.33739966)
(-0.00074123383 -3.1752366e-18 0.31964616)
(-0.00061852989 -4.6636931e-18 0.30084405)
(-0.00051115246 -6.3164922e-18 0.28118992)
(-0.00041805811 -7.3727925e-18 0.26088068)
(-0.00033814303 -7.9291881e-18 0.24010693)
(-0.00027021323 -8.2744712e-18 0.21904515)
(-0.00021290473 -8.1716948e-18 0.19784499)
(-0.0001651225 -6.9923135e-18 0.17662661)
(-0.00012553739 -6.8698489e-18 0.15547777)
(-9.304992e-05 -6.8860964e-18 0.13444743)
(-6.6641167e-05 -6.9225973e-18 0.11355184)
(-4.5443201e-05 -6.3415821e-18 0.092776375)
(-2.8942789e-05 -5.7982478e-18 0.072087311)
(-1.6584458e-05 -4.6067815e-18 0.05143836)
(-7.6226525e-06 -2.7618813e-18 0.030769322)
(-9.4400447e-07 -8.9177661e-19 0.010004071)
(-1.08655e-05 4.0847092e-19 0.15861631)
(-0.00019007166 1.0717802e-18 0.37798309)
(-0.00050099973 1.5018074e-18 0.52561406)
(-0.00091866548 4.1447649e-18 0.60985478)
(-0.0014115439 4.0237519e-18 0.64165696)
(-0.0019458884 4.1256353e-18 0.63477999)
(-0.0024760967 3.6651169e-18 0.6043345)
(-0.0029501355 5.1077106e-18 0.56423344)
(-0.0033200748 4.7909135e-18 0.52487112)
(-0.0035543401 5.3331791e-18 0.49216086)
(-0.003644056 6.6247543e-18 0.46804985)
(-0.0036016762 6.8643407e-18 0.45183207)
(-0.0034541257 7.4035546e-18 0.44151307)
(-0.0032341181 7.8369256e-18 0.4348216)
(-0.0029726462 8.0384706e-18 0.42978408)
(-0.0026943797 7.5883888e-18 0.42494317)
(-0.0024162623 6.5128742e-18 0.41935075)
(-0.0021484396 5.4920032e-18 0.41245725)
(-0.0018962124 3.5064941e-18 0.40398344)
(-0.0016619441 9.7689888e-19 0.39381814)
(-0.0014464485 -6.8232963e-19 0.38195226)
(-0.001249784 -2.2882969e-18 0.36844198)
(-0.0010716608 -2.6417274e-18 0.35338971)
(-0.0009115686 -2.8946067e-18 0.3369334)
(-0.00076888886 -3.6002181e-18 0.31923912)
(-0.0006427995 -4.7008355e-18 0.30049348)
(-0.00053231415 -6.0485781e-18 0.28089188)
(-0.00043638185 -7.3241949e-18 0.26063056)
(-0.00035388326 -7.9077391e-18 0.23989965)
(-0.00028361 -8.2163577e-18 0.21887514)
(-0.00022420152 -7.7741094e-18 0.19770697)
(-0.0001745212 -6.9916307e-18 0.17651565)
(-0.00013324164 -6.5538088e-18 0.15538913)
(-9.9236533e-05 -6.8517581e-18 0.13437719)
(-7.1470367e-05 -6.7093264e-18 0.11349664)
(-4.9060688e-05 -6.502223e-18 0.09273379)
(-3.1457299e-05 -5.6311613e-18 0.072055451)
(-1.8071068e-05 -4.4441321e-18 0.051415198)
(-8.1312858e-06 -2.8102964e-18 0.030752502)
(-9.0647747e-07 -8.3387279e-19 0.0099952183)
(-1.0551121e-05 -1.5430833e-19 0.16146579)
(-0.00018319498 -5.655846e-19 0.38556715)
(-0.00048375911 7.7517754e-19 0.53727594)
(-0.00088867006 1.3246713e-18 0.62475707)
(-0.001368709 3.3246483e-18 0.65867699)
(-0.0018927778 4.0432312e-18 0.65252519)
(-0.0024183656 4.091472e-18 0.621326)
(-0.0028958563 3.8461432e-18 0.57920078)
(-0.0032778462 4.5973302e-18 0.53700569)
(-0.0035309531 5.3341459e-18 0.50120328)
(-0.0036428129 6.4680582e-18 0.47420594)
(-0.0036219469 7.0098058e-18 0.45559733)
(-0.0034920943 7.350506e-18 0.44349075)
(-0.003284258 7.4338469e-18 0.43558437)
(-0.0030292931 7.817901e-18 0.42979574)
(-0.0027528636 7.4223113e-18 0.424535)
(-0.0024733688 6.4547036e-18 0.41873538)
(-0.002202313 5.3065592e-18 0.41175956)
(-0.0019459842 3.4578928e-18 0.40327218)
(-0.0017073426 1.4984162e-18 0.39312997)
(-0.0014875084 -1.1846936e-18 0.38130667)
(-0.0012866795 -2.2316083e-18 0.3678494)
(-0.0011046204 -2.6332023e-18 0.35285536)
(-0.00094084511 -2.951434e-18 0.33645918)
(-0.00079473302 -3.6500101e-18 0.31882449)
(-0.0006654665 -4.7402932e-18 0.30013581)
(-0.00055206311 -6.0624169e-18 0.28058732)
(-0.00045346481 -7.2789005e-18 0.26037451)
(-0.00036853932 -7.8820789e-18 0.23968701)
(-0.00029606553 -8.1642806e-18 0.21870036)
(-0.0002346853 -7.7748429e-18 0.19756472)
(-0.00018322483 -7.0156143e-18 0.17640093)
(-0.00014035734 -6.8539849e-18 0.15529718)
(-0.00010493235 -6.8372544e-18 0.13430403)
(-7.5898127e-05 -6.7048031e-18 0.11343886)
(-5.2359782e-05 -6.4468942e-18 0.092688893)
(-3.3727877e-05 -5.7356662e-18 0.072021461)
(-1.9389141e-05 -4.5021051e-18 0.051390049)
(-8.5639664e-06 -2.7046964e-18 0.030734173)
(-8.7395725e-07 -8.8005463e-19 0.0099859314)
(-1.0254641e-05 1.117167e-18 0.16420348)
(-0.0001768998 3.0196204e-18 0.39286175)
(-0.0004678962 3.6374218e-18 0.54851209)
(-0.00086091903 2.9360764e-18 0.63915762)
(-0.0013287579 3.4727827e-18 0.67520098)
(-0.0018426405 4.2207847e-18 0.66987061)
(-0.0023628549 5.4130394e-18 0.6380862)
(-0.0028421336 4.599707e-18 0.59413315)
(-0.0032338685 4.583667e-18 0.54927846)
(-0.0035033933 5.1377279e-18 0.51049845)
(-0.0036354183 5.6509616e-18 0.48065991)
(-0.0036349205 6.8706426e-18 0.45964631)
(-0.0035225453 7.4632138e-18 0.44570033)
(-0.0033273956 8.081035e-18 0.43651321)
(-0.0030798476 7.7742999e-18 0.42991206)
(-0.0028062353 7.3353844e-18 0.42418434)
(-0.0025262139 6.8008414e-18 0.41814647)
(-0.0022525844 5.2330973e-18 0.4110704)
(-0.0019926467 3.3903657e-18 0.40256021)
(-0.0017500081 1.4188954e-18 0.39243674)
(-0.0015261411 -6.7359228e-19 0.38065419)
(-0.001321411 -2.1334977e-18 0.36724924)
(-0.0011356514 -2.6159746e-18 0.35231332)
(-0.00096840561 -2.9751056e-18 0.33597744)
(-0.00081905644 -3.3727414e-18 0.31840267)
(-0.00068679115 -4.7616417e-18 0.29977143)
(-0.00057063122 -6.3061521e-18 0.28027659)
(-0.00046951357 -7.2597627e-18 0.26011284)
(-0.00038229438 -7.8570574e-18 0.23946931)
(-0.00030774093 -8.1339693e-18 0.21852107)
(-0.00024449685 -8.071234e-18 0.19741847)
(-0.00019135554 -7.0591011e-18 0.17628266)
(-0.00014698926 -6.9481904e-18 0.15520211)
(-0.0001102264 -6.8370651e-18 0.13422811)
(-7.9998481e-05 -6.8565281e-18 0.11337864)
(-5.5399158e-05 -6.2229742e-18 0.09264182)
(-3.5801959e-05 -5.6561936e-18 0.071985472)
(-2.0573543e-05 -4.4306192e-18 0.051363063)
(-8.9402479e-06 -2.6862463e-18 0.030714494)
(-8.4665073e-07 -8.6385231e-19 0.0099762716)
(-9.9753039e-06 5.9878114e-19 0.16683969)
(-0.00017111379 1.4923345e-18 0.39989274)
(-0.00045325163 1.8286203e-18 0.55935861)
(-0.00083517665 4.3299058e-18 0.65309485)
(-0.0012914415 4.0012507e-18 0.69125958)
(-0.0017953275 4.2732481e-18 0.68682972)
(-0.0023096569 4.4268438e-18 0.6546069)
(-0.0027894148 5.2658112e-18 0.60900335)
(-0.0031889692 4.9402886e-18 0.56165166)
(-0.0034727847 5.4164404e-18 0.52000805)
(-0.0036231302 6.8069167e-18 0.48738087)
(-0.0036418112 7.0245905e-18 0.46395945)
(-0.003546523 7.4812365e-18 0.44813335)
(-0.0033643622 7.9056635e-18 0.43760765)
(-0.0031249585 7.7215486e-18 0.43013661)
(-0.0028550221 7.1224489e-18 0.42389564)
(-0.0025752579 6.0518149e-18 0.41758771)
(-0.0022996776 5.0916534e-18 0.41039229)