/*--------------------------------*- C++ -*----------------------------------*\
| =========                 |                                                 |
| \\      /  F ield         | OpenFOAM: The Open Source CFD Toolbox           |
|  \\    /   O peration     | Version:  4.0                                   |
|   \\  /    A nd           | Web:      www.OpenFOAM.org                      |
|    \\/     M anipulation  |                                                 |
\*---------------------------------------------------------------------------*/
FoamFile
{
    version     2.0;
    format      ascii;
    class       surfaceScalarField;
    location    "2000";
    object      phi;
}
// * * * * * * * * * * * * * * * * * * * * * * * * * * * * * * * * * * * * * //

dimensions      [1 0 -1 0 0 0 0];

internalField   nonuniform List<scalar> 
9850
(
8.5468642e-11
3.2934003e-10
3.4426133e-10
1.1038169e-09
7.9332597e-10
2.100676e-09
1.4474906e-09
3.3607347e-09
2.3135928e-09
4.9301611e-09
3.3879143e-09
6.8581248e-09
4.6540993e-09
9.1956109e-09
6.0820384e-09
1.1994167e-08
7.628178e-09
1.5304959e-08
9.2375628e-09
1.9178679e-08
1.0847611e-08
2.3666946e-08
1.2393297e-08
2.8825817e-08
1.3813039e-08
3.472186e-08
1.5054433e-08
4.1440889e-08
1.6078945e-08
4.9099084e-08
1.6864902e-08
5.7855803e-08
1.7408572e-08
6.7927183e-08
1.7721672e-08
7.9600782e-08
1.7828935e-08
9.324481e-08
1.7762958e-08
1.0932087e-07
1.7558253e-08
1.2839323e-07
1.7245439e-08
1.5113886e-07
1.6846405e-08
1.7836033e-07
1.6371385e-08
2.1100438e-07
1.5818479e-08
2.5018896e-07
1.5175591e-08
2.9724093e-07
1.4424083e-08
3.5374552e-07
1.3542882e-08
4.2160791e-07
1.2512194e-08
5.031271e-07
1.1316134e-08
6.0108304e-07
9.9443428e-09
7.1883921e-07
8.3928277e-09
8.6046461e-07
6.6644469e-09
1.0308802e-06
4.7691821e-09
1.2360361e-06
2.7244237e-09
1.4831259e-06
5.5321395e-10
1.780848e-06
-1.7035456e-09
2.1396957e-06
-3.9670155e-09
2.5723616e-06
-6.1771222e-09
3.0942402e-06
-8.2660782e-09
3.723921e-06
-1.0150007e-08
4.4838958e-06
-1.1743593e-08
5.4013438e-06
-1.2939492e-08
6.5091709e-06
-1.3634829e-08
7.8471318e-06
-1.3697222e-08
9.4633811e-06
-1.3009267e-08
1.1416079e-05
-1.1419904e-08
1.3775715e-05
-8.8098699e-09
1.662739e-05
-5.0581624e-09
2.0074341e-05
2.4240827e-05
5.1657671e-11
2.7768228e-10
2.1808042e-10
9.373941e-10
5.1929783e-10
1.7994586e-09
9.6961715e-10
2.9104152e-09
1.5753786e-09
4.3243997e-09
2.3302253e-09
6.1032781e-09
3.2097561e-09
8.31608e-09
4.1662974e-09
1.1037625e-08
5.1250165e-09
1.4346239e-08
5.9830378e-09
1.8320658e-08
6.6134176e-09
2.3036566e-08
6.875539e-09
2.8563696e-08
6.6323873e-09
3.4965012e-08
5.7733576e-09
4.2299918e-08
4.2388458e-09
5.0633594e-08
2.040834e-09
6.0053815e-08
-7.2692612e-10
7.0694942e-08
-3.8924741e-09
8.2766333e-08
-7.2398495e-09
9.6592187e-08
-1.0544452e-08
1.1262547e-07
-1.3608699e-08
1.3145748e-07
-1.6289706e-08
1.5381987e-07
-1.8512735e-08
1.8058336e-07
-2.0269198e-08
2.1276083e-07
-2.1602239e-08
2.5152201e-07
-2.2585665e-08
2.9822436e-07
-2.3302366e-08
3.5446221e-07
-2.3827527e-08
4.2213306e-07
-2.4219282e-08
5.0351886e-07
-2.4516738e-08
6.013805e-07
-2.4743062e-08
7.1906554e-07
-2.4910854e-08
8.6063238e-07
-2.5026864e-08
1.0309962e-06
-2.5095102e-08
1.2361043e-06
-2.5115981e-08
1.4831467e-06
-2.5084362e-08
1.7808164e-06
-2.5015174e-08
2.1396265e-06
-2.4932628e-08
2.5722791e-06
-2.4822457e-08
3.09413e-06
-2.4655606e-08
3.7237541e-06
-2.438607e-08
4.4836263e-06
-2.3951132e-08
5.4009089e-06
-2.3264579e-08
6.5084844e-06
-2.222191e-08
7.8460891e-06
-2.0695119e-08
9.4618543e-06
-1.8536007e-08
1.141392e-05
-1.5589275e-08
1.3772768e-05
-1.1648588e-08
1.6623449e-05
-6.602052e-09
2.0069295e-05
2.4234225e-05
-1.7683507e-11
2.953658e-10
-7.710059e-11
9.9681122e-10
-1.9016496e-10
1.912523e-09
-3.7118162e-10
3.0914316e-09
-6.3745656e-10
4.5906744e-09
-1.010078e-09
6.4758995e-09
-1.5149511e-09
8.8209534e-09
-2.1840475e-09
1.1706721e-08
-3.0566593e-09
1.521885e-08
-4.1801878e-09
1.9444187e-08
-5.6096583e-09
2.4466037e-08
-7.4048631e-09
3.0358901e-08
-9.6240116e-09
3.718416e-08
-1.2313291e-08
4.4989199e-08
-1.5492918e-08
5.381322e-08
-1.9142109e-08
6.3703006e-08
-2.3187587e-08
7.4740421e-08
-2.7501098e-08
8.7079845e-08
-3.1897911e-08
1.00989e-07
-3.615711e-08
1.1688467e-07
-4.0054552e-08
1.3535492e-07
-4.3398926e-08
1.5716425e-07
-4.6061788e-08
1.8324622e-07
-4.799383e-08
2.1469288e-07
-4.9224059e-08
2.5275224e-07
-4.9843443e-08
2.9884374e-07
-4.9978904e-08
3.5459767e-07
-4.97654e-08
4.2191955e-07
-4.9323232e-08
5.030767e-07
-4.8744863e-08
6.0080214e-07
-4.8091529e-08
7.184122e-07
-4.7396862e-08
8.5993772e-07
-4.6673793e-08
1.0302732e-06
-4.592136e-08
1.2353519e-06
-4.5130486e-08
1.4823559e-06
-4.4284558e-08
1.7799705e-06
-4.336069e-08
2.1387026e-06
-4.2332249e-08
2.5712507e-06
-4.1173609e-08
3.0929713e-06
-3.9852302e-08
3.7224328e-06
-3.8324921e-08
4.4820989e-06
-3.6542511e-08
5.3991265e-06
-3.4435399e-08
6.5063772e-06
-3.1921961e-08
7.8435757e-06
-2.8891721e-08
9.4588241e-06
-2.520696e-08
1.1410236e-05
-2.0721159e-08
1.3768282e-05
-1.5194714e-08
1.6617923e-05
-8.503757e-09
2.0062604e-05
2.4225722e-05
-1.9562846e-11
3.1492863e-10
-8.6301422e-11
1.0635497e-09
-2.1533165e-10
2.0415531e-09
-4.2546118e-10
3.3015609e-09
-7.3990328e-10
4.9051164e-09
-1.1870392e-09
6.9230354e-09
-1.8011891e-09
9.4351036e-09
-2.6233069e-09
1.2528839e-08
-3.7014428e-09
1.6296986e-08
-5.0907035e-09
2.0833448e-08
-6.8522765e-09
2.6227609e-08
-9.0508442e-09
3.2557469e-08
-1.1749549e-08
3.9882865e-08
-1.5001633e-08
4.8241285e-08
-1.8838393e-08
5.7649979e-08
-2.3254201e-08
6.8118813e-08
-2.8191089e-08
7.9677308e-08
-3.3527331e-08
9.241609e-08
-3.9075955e-08
1.0653762e-07
-4.45973e-08
1.2240601e-07
-4.9826127e-08
1.4058375e-07
-5.4508939e-08
1.6184706e-07
-5.8442315e-08
1.8717959e-07
-6.1502283e-08
2.1775286e-07
-6.3657477e-08
2.5490743e-07
-6.4963162e-08
3.0014942e-07
-6.5539025e-08
3.5517353e-07
-6.5537695e-08
4.2191821e-07
-6.5112985e-08
5.0265199e-07
-6.4396003e-08
6.0008517e-07
-6.3483322e-08
7.1749953e-07
-6.2436343e-08
8.5889076e-07
-6.128796e-08
1.0291248e-06
-6.0050875e-08
1.2341148e-06
-5.8725329e-08
1.4810303e-06
-5.7302783e-08
1.778548e-06
-5.5769925e-08
2.1371698e-06
-5.4112993e-08
2.5695937e-06
-5.2304722e-08
3.0911631e-06
-5.0307273e-08
3.7204354e-06
-4.8070097e-08
4.4798617e-06
-4.5531125e-08
5.3965875e-06
-4.2612853e-08
6.503459e-06
-3.9218251e-08
7.8401811e-06
-3.5237019e-08
9.4548429e-06
-3.0509048e-08
1.1405508e-05
-2.4897519e-08
1.3762671e-05
-1.8123929e-08
1.6611149e-05
-1.0024188e-08
2.0054504e-05
2.4215697e-05
-1.7909011e-11
3.3283755e-10
-7.9267174e-11
1.1249081e-09
-1.9840763e-10
2.1606934e-09
-3.9337679e-10
3.4965302e-09
-6.8677318e-10
5.1985126e-09
-1.106679e-09
7.3429414e-09
-1.6876748e-09
1.00161e-08
-2.4718552e-09
1.331302e-08
-3.5096988e-09
1.7334829e-08
-4.8605368e-09
2.2184286e-08
-6.5921932e-09
2.7959265e-08
-8.779158e-09
3.4744433e-08
-1.1498446e-08
4.2602154e-08
-1.4822152e-08
5.156499e-08
-1.8805921e-08
6.1633748e-08
-2.3473395e-08
7.2786286e-08
-2.8798324e-08
8.5002237e-08
-3.4688306e-08
9.8306072e-08
-4.0976001e-08
1.1282532e-07
-4.7423696e-08
1.288537e-07
-5.3744389e-08
1.4690444e-07
-5.9637415e-08
1.6774008e-07
-6.483127e-08
1.9237344e-07
-6.912339e-08
2.2204498e-07
-7.2406984e-08
2.5819102e-07
-7.467857e-08
3.0242101e-07
-7.6025024e-08
3.5651998e-07
-7.6594356e-08
4.2248754e-07
-7.6558844e-08
5.0261648e-07
-7.60808e-08
5.9960712e-07
-7.528923e-08
7.1670795e-07
-7.4271012e-08
8.5787253e-07
-7.3074177e-08
1.0279279e-06
-7.1717763e-08
1.2327584e-06
-7.0202627e-08
1.4795152e-06
-6.851983e-08
1.7768652e-06
-6.6652853e-08
2.1353028e-06
-6.4582608e-08
2.5675235e-06
-6.2285321e-08
3.0888658e-06
-5.9729414e-08
3.7178794e-06
-5.687163e-08
4.477004e-06
-5.3654857e-08
5.3933707e-06
-5.0005906e-08
6.49981e-06
-4.5823518e-08
7.8359987e-06
-4.0996691e-08
9.450016e-06
-3.5346974e-08
1.1399858e-05
-2.8725542e-08
1.3756049e-05
-2.0835475e-08
1.6603259e-05
-1.1445523e-08
2.0045114e-05
2.4204252e-05
-1.5749823e-11
3.4858734e-10
-6.9847552e-11
1.1790057e-09
-1.7517407e-10
2.2660199e-09
-3.4808909e-10
3.6694452e-09
-6.0926793e-10
5.4596917e-09
-9.8468522e-10
7.7183583e-09
-1.5067338e-09
1.0538148e-08
-2.2154431e-09
1.4021729e-08
-3.1596876e-09
1.8279074e-08
-4.3981689e-09
2.3422767e-08
-5.9998214e-09
2.9560918e-08
-8.0430377e-09
3.6787649e-08
-1.0612861e-08
4.5171979e-08
-1.3795078e-08
5.4747207e-08
-1.766608e-08
6.550475e-08
-2.2277965e-08
7.7398169e-08
-2.7639616e-08
9.0363889e-08
-3.3696852e-08
1.0436331e-07
-4.0317063e-08
1.1944553e-07
-4.7285237e-08
1.3582188e-07
-5.4316645e-08
1.5393585e-07
-6.1087225e-08
1.7451066e-07
-6.7276607e-08
1.9856282e-07
-7.261433e-08
2.273827e-07
-7.6918166e-08
2.6249487e-07
-8.0115594e-08
3.0561844e-07
-8.2243537e-08
3.5864793e-07
-8.3427099e-08
4.236711e-07
-8.3843302e-08
5.0303268e-07
-8.3680275e-08
5.994441e-07
-8.3102821e-08
7.161305e-07
-8.2232248e-08
8.5700196e-07
-8.1142097e-08
1.0268378e-06
-7.9865166e-08
1.2314814e-06
-7.8405522e-08
1.4780555e-06
-7.6750174e-08
1.7752098e-06
-7.4874159e-08
2.1334267e-06
-7.2744693e-08
2.565394e-06
-7.0324337e-08
3.0864454e-06
-6.7568908e-08
3.715124e-06
-6.4425429e-08
4.4738605e-06
-6.082809e-08
5.3897734e-06
-5.6700302e-08
6.4956823e-06
-5.1934594e-08
7.831233e-06
-4.6420291e-08
9.4445017e-06
-3.9972276e-08
1.139341e-05
-3.2427501e-08
1.3748505e-05
-2.3491547e-08
1.6594323e-05
-1.2872946e-08
2.0034496e-05
2.4191379e-05
-1.4235867e-11
3.6282319e-10
-6.3188391e-11
1.2279579e-09
-1.5860651e-10
2.361438e-09
-3.1546416e-10
3.8263028e-09
-5.5276236e-10
5.6969902e-09
-8.9449299e-10
8.0600889e-09
-1.3707647e-09
1.101442e-08
-2.0190785e-09
1.4670044e-08
-2.8856832e-09
1.9145678e-08
-4.0268486e-09
2.4563933e-08
-5.5097826e-09
3.1043851e-08
-7.4126645e-09
3.8690531e-08
-9.8230492e-09
4.7582362e-08
-1.2833529e-08
5.7757685e-08
-1.6533446e-08
6.9204667e-08
-2.0995619e-08
8.1860343e-08
-2.6258066e-08
9.5626337e-08
-3.2302684e-08
1.1040792e-07
-3.9035499e-08
1.2617835e-07
-4.6275368e-08
1.4306175e-07
-5.3757822e-08
1.6141831e-07
-6.1157669e-08
1.819105e-07
-6.8128098e-08
2.0553325e-07
-7.4348541e-08
2.3360314e-07
-7.9570392e-08
2.6771672e-07
-8.3650094e-08
3.0969814e-07
-8.6562188e-08
3.6156003e-07
-8.838949e-08
4.254984e-07
-8.9293076e-08
5.0393626e-07
-8.9470356e-08
5.9962138e-07
-8.9113031e-08
7.1577317e-07
-8.837593e-08
8.5626487e-07
-8.7363026e-08
1.0258249e-06
-8.6129121e-08
1.2302475e-06
-8.4690687e-08
1.4766171e-06
-8.3039225e-08
1.7735584e-06
-8.1149915e-08
2.1315374e-06
-7.8986025e-08
2.5632301e-06
-7.650313e-08
3.0839625e-06
-7.364741e-08
3.7122683e-06
-7.0354827e-08
4.4705679e-06
-6.6545423e-08
5.385964e-06
-6.2129752e-08
6.4912666e-06
-5.6984357e-08
7.8260877e-06
-5.0984799e-08
9.4385022e-06
-4.3935891e-08
1.1386361e-05
-3.5648434e-08
1.3740217e-05
-2.5832026e-08
1.6584507e-05
-1.4142325e-08
2.0022806e-05
2.4177237e-05
-1.29932e-11
3.758164e-10
-5.7708781e-11
1.2726734e-09
-1.4494182e-10
2.4486711e-09
-2.8848373e-10
3.9698449e-09
-5.0588577e-10
5.9143925e-09
-8.1938448e-10
8.3735878e-09
-1.2570054e-09
1.145204e-08
-1.85384e-09
1.5266879e-08
-2.6534575e-09
1.9945296e-08
-3.7093325e-09
2.5619808e-08
-5.08607e-09
3.2420588e-08
-6.8599997e-09
4.0464462e-08
-9.118472e-09
4.9840834e-08
-1.1956838e-08
6.0596052e-08
-1.5471874e-08
7.2719703e-08
-1.9750367e-08
8.6138838e-08
-2.4852291e-08
1.0072826e-07
-3.0789555e-08
1.1634518e-07
-3.7503957e-08
1.3289275e-07
-4.4850584e-08
1.5040838e-07
-5.2594025e-08
1.6916175e-07
-6.0422757e-08
1.8973923e-07
-6.7982151e-08
2.1309265e-07
-7.4920426e-08
2.4054142e-07
-8.0937704e-08
2.73734e-07
-8.5827312e-08
3.1458775e-07
-8.9500257e-08
3.6523297e-07
-9.1987503e-08
4.2798565e-07
-9.3419437e-08
5.053682e-07
-9.3987553e-08
6.0018949e-07
-9.3898855e-08
7.1568447e-07
-9.333578e-08
8.5570179e-07
-9.2431627e-08
1.0249207e-06
-9.1264517e-08
1.2290804e-06
-8.9865148e-08
1.4752177e-06
-8.8230725e-08
1.771924e-06
-8.6336844e-08
2.1296435e-06
-8.4144247e-08
2.5610375e-06
-8.1604268e-08
3.0814226e-06
-7.8657634e-08
3.7093217e-06
-7.5234531e-08
4.4671448e-06
-7.1246768e-08
5.3819762e-06
-6.6596165e-08
6.486616e-06
-6.1148169e-08
7.8206397e-06
-5.4761952e-08
9.432116e-06
-4.723421e-08
1.1378833e-05
-3.834413e-08
1.3731327e-05
-2.7800299e-08
1.6573963e-05
-1.5210903e-08
2.0010217e-05
2.4162026e-05
-1.1988945e-11
3.8780533e-10
-5.3270529e-11
1.3139551e-09
-1.3384927e-10
2.52925e-09
-2.6652752e-10
4.102523e-09
-4.6762783e-10
6.1154925e-09
-7.5787749e-10
8.6638376e-09
-1.1634774e-09
1.185764e-08
-1.7173521e-09
1.5820754e-08
-2.460573e-09
2.0688517e-08
-3.443859e-09
2.6603095e-08
-4.7289887e-09
3.3705718e-08
-6.3897657e-09
4.2125239e-08
-8.5119633e-09
5.1963031e-08
-1.1191335e-08
6.3275423e-08
-1.4528478e-08
7.6056844e-08
-1.8619185e-08
9.0229546e-08
-2.3539333e-08
1.0564841e-07
-2.9324549e-08
1.221304e-07
-3.5947327e-08
1.3951553e-07
-4.3296987e-08
1.5775804e-07
-5.116983e-08
1.7703459e-07
-5.9276031e-08
1.9784543e-07
-6.7265787e-08
2.210824e-07
-7.4771242e-08
2.4804688e-07
-8.1455852e-08
2.8041861e-07
-8.7060551e-08
3.2019245e-07
-9.1437067e-08
3.696095e-07
-9.45613e-08
4.3110988e-07
-9.6523426e-08
5.0733032e-07
-9.7496701e-08
6.0116277e-07
-9.769267e-08
7.1588043e-07
-9.7315156e-08
8.5532428e-07
-9.6525974e-08
1.0241315e-06
-9.5429514e-08
1.227984e-06
-9.4074977e-08
1.4738632e-06
-9.2468941e-08
1.7703179e-06
-9.0589377e-08
2.127764e-06
-8.8394881e-08
2.558843e-06
-8.5831872e-08
3.0788596e-06
-8.2834462e-08
3.7063242e-06
-7.9325693e-08
4.463636e-06
-7.5209087e-08
5.3778596e-06
-7.0377164e-08
6.4817841e-06
-6.4687327e-08
7.8149499e-06
-5.7982696e-08
9.4254113e-06
-5.0055732e-08
1.1370906e-05
-4.0657497e-08
1.3721929e-05
-2.9493606e-08
1.6562799e-05
-1.6135172e-08
1.9996858e-05
2.4145891e-05
-1.1158083e-11
3.9896337e-10
-4.9593747e-11
1.3523906e-09
-1.2464713e-10
2.6043033e-09
-2.4828385e-10
4.2261598e-09
-4.3578168e-10
6.3029902e-09
-7.0657345e-10
8.9346291e-09
-1.0852725e-09
1.2236339e-08
-1.6028946e-09
1.6338375e-08
-2.2982594e-09
2.1383881e-08
-3.2195261e-09
2.7524361e-08
-4.4257051e-09
3.4911898e-08
-5.9878858e-09
4.368742e-08
-7.9896425e-09
5.3964787e-08
-1.0525832e-08
6.5811612e-08
-1.3698638e-08
7.9229651e-08
-1.7609485e-08
9.4140394e-08
-2.2345606e-08
1.1038453e-07
-2.7961055e-08
1.2774585e-07
-3.445387e-08
1.4600834e-07
-4.1744028e-08
1.6504819e-07
-4.965905e-08
1.8494961e-07
-5.7934521e-08
2.0612091e-07
-6.6233483e-08
2.2938136e-07
-7.4183366e-08
2.5599677e-07
-8.1423589e-08
2.8765883e-07
-8.765395e-08
3.2642281e-07
-9.267406e-08
3.746296e-07
-9.6405779e-08
4.3484161e-07
-9.8893824e-08
5.0981836e-07
-1.0028332e-07
6.0255226e-07
-1.0077925e-07
7.1637637e-07
-1.0059832e-07
8.5514333e-07
-9.9926778e-08
1.02346e-06
-9.8895643e-08
1.2269528e-06
-9.7575637e-08
1.4725432e-06
-9.5986719e-08
1.768729e-06
-9.4112758e-08
2.12589e-06
-9.1913241e-08
2.5566435e-06
-8.9332015e-08
3.0762784e-06
-8.6298254e-08
3.7032905e-06
-8.2728738e-08
4.4600665e-06
-7.8519436e-08
5.3736503e-06
-7.3552283e-08
6.4768169e-06
-6.7677114e-08
7.8090747e-06
-6.0719563e-08
9.4184538e-06
-5.2467132e-08
1.1362654e-05
-4.2646014e-08
1.3712108e-05
-3.0955532e-08
1.6551109e-05
-1.6939389e-08
1.9982842e-05
2.4128951e-05
-1.0459015e-11
4.0942232e-10
-4.6496587e-11
1.3884284e-09
-1.1688867e-10
2.6746953e-09
-2.3288683e-10
4.3421577e-09
-4.0887065e-10
6.4789739e-09
-6.6315461e-10
9.1889129e-09
-1.0189714e-09
1.2592156e-08
-1.505656e-09
1.682506e-08
-2.1600208e-09
2.2038246e-08
-3.0278902e-09
2.839223e-08
-4.1656805e-09
3.6049689e-08
-5.641786e-09
4.5163526e-08
-7.537334e-09
5.5860334e-08
-9.9455861e-09
6.8219864e-08
-1.2968935e-08
8.2253001e-08
-1.6712148e-08
9.7883605e-08
-2.1270514e-08
1.149429e-07
-2.6712297e-08
1.3318763e-07
-3.3056541e-08
1.5235259e-07
-4.024997e-08
1.7224162e-07
-4.814937e-08
1.9284901e-07
-5.6516794e-08
2.1448833e-07
-6.5032821e-08
2.3789739e-07
-7.3328175e-08
2.6429212e-07
-8.1028366e-08
2.9535901e-07
-8.7802425e-08
3.3319686e-07
-9.3406138e-08
3.8023332e-07
-9.7711494e-08
4.3914697e-07
-1.0071634e-07
5.128232e-07
-1.0253125e-07
6.0436717e-07
-1.0334543e-07
7.1719056e-07
-1.0337959e-07
8.5517748e-07
-1.0283871e-07
1.0229191e-06
-1.0187846e-07
1.2259926e-06
-1.0059207e-07
1.4712568e-06
-9.901516e-08
1.7671521e-06
-9.7139739e-08
2.1240146e-06
-9.4927909e-08
2.5544317e-06
-9.2322597e-08
3.073673e-06
-8.9249866e-08
3.7002178e-06
-8.5621771e-08
4.4564384e-06
-8.1329258e-08
5.3693578e-06
-7.6245078e-08
6.4717328e-06
-7.0213459e-08
7.8030431e-06
-6.3044255e-08
9.4112846e-06
-5.4519122e-08
1.1354129e-05
-4.4343217e-08
1.3701932e-05
-3.2205698e-08
1.6538971e-05
-1.7629393e-08
1.9968266e-05
2.4111322e-05
-9.8588329e-12
4.1928119e-10
-4.3836766e-11
1.4224063e-09
-1.1022103e-10
2.7410794e-09
-2.1964417e-10
4.4515807e-09
-3.8570579e-10
6.6450356e-09
-6.2574358e-10
9.4289509e-09
-9.6177981e-10
1.2928192e-08
-1.4216625e-09
1.7284943e-08
-2.0404112e-09
2.2656995e-08
-2.86174e-09
2.9213559e-08
-3.9396667e-09
3.7127615e-08
-5.3400067e-09
4.6563867e-08
-7.1413883e-09
5.7661717e-08
-9.4351199e-09
7.0513596e-08
-1.2322958e-08
8.5140838e-08
-1.5911461e-08
1.0147211e-07
-2.0301586e-08
1.1933302e-07
-2.5572552e-08
1.384586e-07
-3.1760591e-08
1.5854063e-07
-3.8835487e-08
1.7931652e-07
-4.6680682e-08
2.0069421e-07
-5.5084255e-08
2.228919e-07
-6.3746717e-08
2.4655985e-07
-7.2307439e-08
2.7285284e-07
-8.0385715e-08
3.0343729e-07
-8.7628578e-08
3.4043973e-07
-9.375613e-08
3.8636087e-07
-9.859597e-08
4.4398681e-07
-1.0210042e-07
5.1632765e-07
-1.0434219e-07
6.0660893e-07
-1.054878e-07
7.1833617e-07
-1.0575395e-07
8.5544364e-07
-1.0535814e-07
1.0225233e-06
-1.0447784e-07
1.2251123e-06
-1.0322882e-07
1.4700078e-06
-1.0166407e-07
1.7655873e-06
-9.9785785e-08
2.1221363e-06
-9.756018e-08
2.5522061e-06
-9.4930075e-08
3.0710429e-06
-9.1819414e-08
3.6971071e-06
-8.8135958e-08
4.452755e-06
-8.3766866e-08
5.3649888e-06
-7.8576939e-08
6.4665428e-06
-7.2406138e-08
7.7968723e-06
-6.5051466e-08
9.40393e-06
-5.6288577e-08
1.1345366e-05
-4.5806615e-08
1.369145e-05
-3.3282608e-08
1.6526447e-05
-1.8223791e-08
1.9953207e-05
2.4093098e-05
-9.3372406e-12
4.2861849e-10
-4.1523582e-11
1.4545927e-09
-1.0441949e-10
2.8039752e-09
-2.081151e-10
4.5552764e-09
-3.6552563e-10
6.802446e-09
-5.9312811e-10
9.6565532e-09
-9.1187198e-10
1.3246936e-08
-1.3482848e-09
1.7721355e-08
-1.9357807e-09
2.324449e-08
-2.7161625e-09
2.9993941e-08
-3.7412429e-09
3.8152695e-08
-5.0744147e-09
4.7897039e-08
-6.7918484e-09
5.9379152e-08
-8.9827314e-09
7.2704479e-08
-1.1747653e-08
8.7905761e-08
-1.5193927e-08
1.0491839e-07
-1.9426417e-08
1.2356551e-07
-2.4532809e-08
1.4356499e-07
-3.0563394e-08
1.6457121e-07
-3.7507726e-08
1.8626085e-07
-4.5273218e-08
2.084597e-07
-5.3672713e-08
2.312914e-07
-6.2427616e-08
2.5531476e-07
-7.1189348e-08
2.8161457e-07
-7.9576651e-08
3.1182459e-07
-8.7221696e-08
3.4808477e-07
-9.3816179e-08
3.9295535e-07
-9.9149255e-08
4.4931988e-07
-1.0313064e-07
5.2030905e-07
-1.057941e-07
6.092724e-07
-1.0727871e-07
7.1982078e-07
-1.0779043e-07
8.5595537e-07
-1.0755295e-07
1.0222858e-06
-1.0676162e-07
1.224321e-06
-1.0555405e-07
1.4688002e-06
-1.0400174e-07
1.764035e-06
-1.0211901e-07
2.1202536e-06
-9.9877907e-08
2.549965e-06
-9.7222352e-08
3.0683874e-06
-9.4075048e-08
3.6939598e-06
-9.0340102e-08
4.44902e-06
-8.590156e-08
5.3605502e-06
-8.061719e-08
6.4612585e-06
-7.4322919e-08
7.790578e-06
-6.6805349e-08
9.3964124e-06
-5.7833372e-08
1.1336394e-05
-4.7084295e-08
1.3680701e-05
-3.4222079e-08
1.6513585e-05
-1.8742593e-08
1.9937728e-05
2.4074355e-05
-8.8794534e-12
4.3749794e-10
-3.9492137e-11
1.4852055e-09
-9.9322169e-11
2.8638052e-09
-1.9798064e-10
4.6539352e-09
-3.4777654e-10
6.9522415e-09
-5.6442222e-10
9.873199e-09
-8.6791315e-10
1.3550428e-08
-1.2835949e-09
1.8137037e-08
-1.8434366e-09
2.3804333e-08
-2.5875103e-09
3.0738014e-08
-3.5656035e-09
3.9130788e-08
-4.8388475e-09
4.9170283e-08
-6.4810446e-09
6.1021349e-08
-8.5792035e-09
7.4802637e-08
-1.1232437e-08
9.0558994e-08
-1.4548086e-08
1.0823403e-07
-1.8633643e-08
1.2765107e-07
-2.3583322e-08
1.4851467e-07
-2.9458949e-08
1.7044684e-07
-3.6267015e-08
1.9306892e-07
-4.393631e-08
2.1612899e-07
-5.2302867e-08
2.3965795e-07
-6.1109018e-08
2.6412091e-07
-7.0020343e-08
2.9052589e-07
-7.8659114e-08
3.2046336e-07
-8.6648276e-08
3.5607394e-07
-9.365747e-08
3.9996454e-07
-9.9443133e-08
4.5510555e-07
-1.0387619e-07
5.2474212e-07
-1.0695207e-07
6.1234828e-07
-1.0877949e-07
7.2164819e-07
-1.0954821e-07
8.5672409e-07
-1.0948214e-07
1.0222197e-06
-1.0879022e-07
1.2236291e-06
-1.0762997e-07
1.46764e-06
-1.0609198e-07
1.7624971e-06
-1.0420417e-07
2.1183658e-06
-1.019459e-07
2.5477067e-06
-9.9263492e-08
3.0657049e-06
-9.6079235e-08
3.6907756e-06
-9.2294411e-08
4.4452352e-06
-8.7790557e-08
5.3560464e-06
-8.2419644e-08
6.4558876e-06
-7.60136e-08
7.784172e-06
-6.8350956e-08
9.3887498e-06
-5.9193212e-08
1.1327236e-05
-4.8208824e-08
1.3669717e-05
-3.5048434e-08
1.6500424e-05
-1.919912e-08
1.9921878e-05
2.4055156e-05
-8.473688e-12
4.4597163e-10
-3.7691137e-11
1.5144231e-09
-9.4801731e-11
2.9209156e-09
-1.8898996e-10
4.7481233e-09
-3.3202266e-10
7.0952742e-09
-5.3893041e-10
1.0080107e-08
-8.288523e-10
1.384035e-08
-1.2260705e-09
1.8534255e-08
-1.7612497e-09
2.4339512e-08
-2.472885e-09
3.1449649e-08
-3.4089081e-09
4.0066812e-08
-4.6283426e-09
5.0389717e-08
-6.2027369e-09
6.2595743e-08
-8.2169296e-09
7.6816829e-08
-1.0768373e-08
9.3110437e-08
-1.3963933e-08
1.1142959e-07
-1.7912794e-08
1.3159994e-07
-2.271419e-08
1.5331606e-07
-2.8439432e-08
1.7617208e-07
-3.5109533e-08
1.9973902e-07
-4.2672298e-08
2.2369176e-07
-5.0985229e-08
2.4797088e-07
-5.9811103e-08
2.7294678e-07
-6.8830819e-08
2.995456e-07
-7.7673126e-08
3.2930567e-07
-8.5956141e-08
3.6435696e-07
-9.3332751e-08
4.0734114e-07
-9.9531997e-08
4.6130479e-07
-1.0439011e-07
5.2960023e-07
-1.0786589e-07
6.1582406e-07
-1.1003634e-07
7.2381865e-07
-1.1107102e-07
8.5775877e-07
-1.1118872e-07
1.0223374e-06
-1.1060747e-07
1.2230478e-06
-1.0950228e-07
1.4665348e-06
-1.0798258e-07
1.7609774e-06
-1.0609093e-07
2.1164741e-06
-1.0381552e-07
2.5454313e-06
-1.0110597e-07
3.0629954e-06
-9.7885006e-08
3.6875546e-06
-9.4051693e-08
4.4414019e-06
-8.9485406e-08
5.3514801e-06
-8.4033571e-08
6.4504358e-06
-7.7524107e-08
7.7776625e-06
-6.9729489e-08
9.3809552e-06
-6.0403696e-08
1.1317911e-05
-4.9208717e-08
1.3658522e-05
-3.578221e-08
1.6486998e-05
-1.9604093e-08
1.99057e-05
2.4035552e-05
-8.11095e-12
4.5408266e-10
-3.6080988e-11
1.5423932e-09
-9.0758893e-11
2.9755936e-09
-1.8094654e-10
4.838311e-09
-3.1792431e-10
7.2322519e-09
-5.1610777e-10
1.027829e-08
-7.9386422e-10
1.4118107e-08
-1.1745145e-09
1.8914905e-08
-1.6875376e-09
2.4852535e-08
-2.3699896e-09
3.2132101e-08
-3.2680971e-09
4.0964919e-08
-4.4389229e-09
5.1560543e-08
-5.9518827e-09
6.4108703e-08
-7.8896898e-09
7.8754637e-08
-1.0348036e-08
9.5568786e-08
-1.3432979e-08
1.1451453e-07
-1.725468e-08
1.3542164e-07
-2.1916221e-08
1.5797761e-07
-2.7496732e-08
1.817526e-07
-3.4029699e-08
2.0627198e-07
-4.1479827e-08
2.3114189e-07
-4.9724361e-08
2.5621541e-07
-5.854575e-08
2.8176817e-07
-6.7640743e-08
3.0864059e-07
-7.6646587e-08
3.3831152e-07
-8.5180001e-08
3.7289037e-07
-9.2881495e-08
4.1504263e-07
-9.9457432e-08
4.6788072e-07
-1.0471344e-07
5.3485623e-07
-1.0857406e-07
6.1968469e-07
-1.1108445e-07
7.2632905e-07
-1.1239109e-07
8.5906541e-07
-1.1270325e-07
1.0226496e-06
-1.1224358e-07
1.2225881e-06
-1.1120179e-07
1.465493e-06
-1.0970535e-07
1.7594809e-06
-1.0781224e-07
2.114581e-06
-1.0552062e-07
2.5431397e-06
-1.0278454e-07
3.0602593e-06
-9.9527831e-08
3.6842979e-06
-9.5648003e-08
4.4375221e-06
-9.1022334e-08
5.3468545e-06
-8.5494743e-08
6.4449082e-06
-7.8889034e-08
7.7710568e-06
-7.0973194e-08
9.3730394e-06
-6.1493752e-08
1.1308431e-05
-5.0107858e-08
1.3647136e-05
-3.6441066e-08
1.6473331e-05
-1.9967134e-08
1.9889226e-05
2.4015585e-05
-7.7844447e-12
4.6186725e-10
-3.4631457e-11
1.5692401e-09
-8.7118626e-11
3.0280806e-09
-1.7370193e-10
4.9248942e-09
-3.052215e-10
7.3637716e-09
-4.9553712e-10
1.0468606e-08
-7.6231531e-10
1.4384885e-08
-1.1280019e-09
1.9280592e-08
-1.6209955e-09
2.5345529e-08
-2.2770344e-09
3.278814e-08
-3.1407728e-09
4.1828656e-08
-4.2674488e-09
5.2687219e-08
-5.7244676e-09
6.5565721e-08
-7.5924866e-09
8.0622656e-08
-9.9653949e-09
9.7941695e-08
-1.2948196e-08
1.1749733e-07
-1.6651508e-08
1.3912495e-07
-2.1181346e-08
1.6250745e-07
-2.6623283e-08
1.8719454e-07
-3.3021548e-08
2.1267025e-07
-4.0355868e-08
2.3847621e-07
-4.8521593e-08
2.6438114e-07
-5.7319883e-08
2.9056646e-07
-6.6463459e-08
3.1778417e-07
-7.5599464e-08
3.4744751e-07
-8.4345803e-08
3.816367e-07
-9.2334209e-08
4.2303105e-07
-9.9252482e-08
4.7479899e-07
-1.048795e-07
5.4048324e-07
-1.0910831e-07
6.239135e-07
-1.1195284e-07
7.2917358e-07
-1.1353476e-07
8.6064734e-07
-1.1405025e-07
1.0231651e-06
-1.1372237e-07
1.2222602e-06
-1.127525e-07
1.4645231e-06
-1.1128492e-07
1.7580133e-06
-1.0939329e-07
2.1126894e-06
-1.0708683e-07
2.5408332e-06
-1.0432512e-07
3.0574976e-06
-1.0103372e-07
3.6810065e-06
-9.7109267e-08
4.4335976e-06
-9.2427111e-08
5.3421723e-06
-8.6828424e-08
6.4393095e-06
-8.0132809e-08
7.7643612e-06
-7.2104986e-08
9.3650116e-06
-6.2484237e-08
1.1298811e-05
-5.0923857e-08
1.3635575e-05
-3.7038297e-08
1.6459446e-05
-2.0295782e-08
1.9872484e-05
2.3995289e-05
-7.4889207e-12
4.6935622e-10
-3.3318383e-11
1.5950695e-09
-8.382031e-11
3.0785825e-09
-1.6713627e-10
5.0082102e-09
-2.9370696e-10
7.4903423e-09
-4.7688443e-10
1.0651784e-08
-7.3369715e-10
1.4641698e-08
-1.0857928e-09
1.9632687e-08
-1.5605788e-09
2.5820315e-08
-2.192583e-09
3.3420144e-08
-3.0250044e-09
4.2661078e-08
-4.1113865e-09
5.3773602e-08
-5.5172346e-09
6.697157e-08
-7.3212329e-09
8.2426654e-08
-9.6154597e-09
1.0023592e-07
-1.250371e-08
1.2038558e-07
-1.6096653e-08
1.4271789e-07
-2.0502505e-08
1.669133e-07
-2.581218e-08
1.9250421e-07
-3.2079165e-08
2.1893723e-07
-3.9296556e-08
2.456936e-07
-4.7376276e-08
2.7246086e-07
-5.6137171e-08
2.9932735e-07
-6.5307786e-08
3.2695478e-07
-7.4546019e-08
3.5668575e-07
-8.3472995e-08
3.9056368e-07
-9.1714627e-08
4.3127267e-07
-9.8943611e-08
4.8202798e-07
-1.0491566e-07
5.4645529e-07
-1.0949513e-07
6.2849297e-07
-1.1266599e-07
7.3234444e-07
-1.1452426e-07
8.625056e-07
-1.152501e-07
1.0238909e-06
-1.1506342e-07
1.2220735e-06
-1.1417403e-07
1.4636337e-06
-1.1274141e-07
1.7565807e-06
-1.1085487e-07
2.1108028e-06
-1.0853546e-07
2.5385138e-06
-1.0574933e-07
3.0547115e-06
-1.0242444e-07
3.6776816e-06
-9.845717e-08
4.4296304e-06
-9.3721101e-08
5.3374363e-06
-8.8055281e-08
6.4336437e-06
-8.1275292e-08
7.7575812e-06
-7.3143213e-08
9.3568796e-06
-6.3391563e-08
1.1289059e-05
-5.1670424e-08
1.3623854e-05
-3.7584132e-08
1.6445359e-05
-2.0595759e-08
1.9855496e-05
2.3974694e-05
-7.2197273e-12
4.7657598e-10
-3.2122414e-11
1.6199722e-09
-8.0815683e-11
3.1272756e-09
-1.6115428e-10
5.0885487e-09
-2.8321301e-10
7.6124011e-09
-4.5988101e-10
1.0828452e-08
-7.0760178e-10
1.4889419e-08
-1.0472888e-09
1.9972374e-08
-1.50544e-09
2.6278466e-08
-2.115466e-09
3.403017e-08
-2.9192187e-09
4.346483e-08
-3.9686596e-09
5.4823043e-08
-5.3275069e-09
6.8330418e-08
-7.0725523e-09
8.4171698e-08
-9.2940826e-09
1.0245745e-07
-1.2094577e-08
1.2318608e-07
-1.5584459e-08
1.4620777e-07
-1.9873566e-08
1.712024e-07
-2.5057217e-08
1.9768786e-07
-3.1196922e-08
2.2507694e-07
-3.8297684e-08
2.5279436e-07
-4.628659e-08
2.8044977e-07
-5.4999131e-08
3.0803989e-07
-6.4179313e-08
3.3613496e-07
-7.3496389e-08
3.6600282e-07
-8.2576178e-08
3.9964347e-07
-9.1041142e-08
4.3973763e-07
-9.855191e-08
4.8953875e-07
-1.0484421e-07
5.5274759e-07
-1.0975647e-07
6.3340523e-07
-1.1324436e-07
7.358323e-07
-1.1537797e-07
8.6463923e-07
-1.1631948e-07
1.0248324e-06
-1.162824e-07
1.2220365e-06
-1.1548189e-07
1.4628332e-06
-1.1409066e-07
1.7551895e-06
-1.1221331e-07
2.1089255e-06
-1.098833e-07
2.5361838e-06
-1.0707429e-07
3.0519024e-06
-1.0371731e-07
3.6743246e-06
-9.9709088e-08
4.4256222e-06
-9.4921601e-08
5.3326488e-06
-8.9192192e-08
6.4279143e-06
-8.2332677e-08
7.7507217e-06
-7.4102962e-08
9.3486499e-06
-6.4229296e-08
1.1279185e-05
-5.23589e-08
1.3611984e-05
-3.8087005e-08
1.6431088e-05
-2.0871751e-08
1.983828e-05
2.3953822e-05
-6.9733024e-12
4.8354934e-10
-3.1027344e-11
1.6440264e-09
-7.8064602e-11
3.1743126e-09
-1.5567633e-10
5.1661602e-09
-2.7360173e-10
7.7303265e-09
-4.4430374e-10
1.0999154e-08
-6.8368893e-10
1.5128804e-08
-1.0119946e-09
2.030068e-08
-1.4548783e-09
2.672135e-08
-2.0447179e-09
3.4620009e-08
-2.8221135e-09
4.4242225e-08
-3.8375458e-09
5.5838476e-08
-5.1530533e-09
6.9645925e-08
-6.8436163e-09
8.586226e-08
-8.9977688e-09
1.046116e-07
-1.1716606e-08
1.2590492e-07
-1.5110077e-08
1.4960124e-07
-1.9289164e-08
1.7538149e-07
-2.4352844e-08
2.0275154e-07
-3.0369571e-08
2.3109366e-07
-3.7354985e-08
2.5977977e-07
-4.5250045e-08
2.8834482e-07
-5.3905867e-08
3.1669572e-07
-6.3081464e-08
3.4531056e-07
-7.2457702e-08
3.7537906e-07
-8.1666284e-08
4.0885204e-07
-9.0328101e-08
4.4839945e-07
-9.8094274e-08
4.9730492e-07
-1.0468339e-07
5.593367e-07
-1.0991063e-07
6.3863248e-07
-1.137051e-07
7.3962678e-07
-1.1611142e-07
8.6704554e-07
-1.172723e-07
1.0259933e-06
-1.1739209e-07
1.2221563e-06
-1.1668839e-07
1.4621295e-06
-1.1534506e-07
1.7538461e-06
-1.1348131e-07
2.1070617e-06
-1.1114338e-07
2.5338459e-06
-1.0831323e-07
3.0490723e-06
-1.0492567e-07
3.6709371e-06
-1.0087834e-07
4.4215748e-06
-9.6041816e-08
5.3278123e-06
-9.0252154e-08
6.4221246e-06
-8.331751e-08
7.7437871e-06
-7.4995938e-08
9.3403283e-06
-6.500796e-08
1.1269197e-05
-5.2998137e-08
1.3599974e-05
-3.8553554e-08
1.6416643e-05
-2.1127461e-08
1.9820854e-05
2.3932694e-05
-6.7468213e-12
4.9029618e-10
-3.0020959e-11
1.6673004e-09
-7.5534961e-11
3.2198266e-09
-1.5063802e-10
5.2412633e-09
-2.6476047e-10
7.844449e-09
-4.2997207e-10
1.1164366e-08
-6.6168244e-10
1.5360514e-08
-9.7950556e-10
2.0618503e-08
-1.4083199e-09
2.7150165e-08
-1.9795422e-09
3.5191232e-08
-2.7326078e-09
4.4995291e-08
-3.7166162e-09
5.6822485e-08
-4.9920168e-09
7.0921325e-08
-6.6320622e-09
8.7502306e-08
-8.7235751e-09
1.0670312e-07
-1.1366241e-08
1.2854758e-07
-1.4669348e-08
1.5290435e-07
-1.8744663e-08
1.794568e-07
-2.3694166e-08
2.0770105e-07
-2.9592357e-08
2.3699185e-07
-3.6464372e-08
2.6665178e-07
-4.426388e-08
2.9614433e-07
-5.2856642e-08
3.2528847e-07
-6.2016127e-08
3.5447004e-07
-7.1434962e-08
3.8479791e-07