/*--------------------------------*- C++ -*----------------------------------*\
| =========                 |                                                 |
| \\      /  F ield         | OpenFOAM: The Open Source CFD Toolbox           |
|  \\    /   O peration     | Version:  4.0                                   |
|   \\  /    A nd           | Web:      www.OpenFOAM.org                      |
|    \\/     M anipulation  |                                                 |
\*---------------------------------------------------------------------------*/
FoamFile
{
    version     2.0;
    format      ascii;
    class       volScalarField;
    location    "2000";
    object      rho;
}
// * * * * * * * * * * * * * * * * * * * * * * * * * * * * * * * * * * * * * //

dimensions      [1 -3 0 0 0 0 0];

internalField   nonuniform List<scalar> 
5000
(
0.97199203
0.98427054
0.99763279
1.0120197
1.0273198
1.043363
1.059918
1.0766965
1.0933644
1.1095618
1.1249297
1.1391402
1.1519254
1.1631007
1.1725773
1.1803626
1.1865498
1.1912985
1.1948111
1.1973089
1.1990117
1.2001204
1.2008073
1.2012103
1.2014332
1.2015487
1.2016045
1.2016295
1.2016398
1.2016437
1.201645
1.2016455
1.2016456
1.2016456
1.2016456
1.2016456
1.2016456
1.2016456
1.2016456
1.2016456
1.2016456
1.2016456
1.2016456
1.2016456
1.2016456
1.2016456
1.2016456
1.2016456
1.2016456
1.2016456
0.93205546
0.94173506
0.95233154
0.96389933
0.97647939
0.99009075
1.0047201
1.0203098
1.0367458
1.0538475
1.0713615
1.0889635
1.1062704
1.1228644
1.1383278
1.1522856
1.1644487
1.1746353
1.1827837
1.1890152
1.1935599
1.1967132
1.1987888
1.2000809
1.2008388
1.2012557
1.2014697
1.2015717
1.2016164
1.2016345
1.2016411
1.2016432
1.2016439
1.2016441
1.2016441
1.2016441
1.2016441
1.2016441
1.2016441
1.2016441
1.2016441
1.2016441
1.2016441
1.2016441
1.2016441
1.2016441
1.2016441
1.2016441
1.2016441
1.2016441
0.91552778
0.92415381
0.93358935
0.94389731
0.95513811
0.96736518
0.98061841
0.99491508
1.0102381
1.026522
1.0436371
1.061376
1.0794448
1.0974649
1.1149901
1.1315425
1.1466632
1.1599698
1.1712094
1.180294
1.1873015
1.1924472
1.1960349
1.1984031
1.1998779
1.2007407
1.2012127
1.2014527
1.2015653
1.2016139
1.2016329
1.2016397
1.2016418
1.2016424
1.2016426
1.2016426
1.2016426
1.2016426
1.2016426
1.2016426
1.2016426
1.2016426
1.2016426
1.2016426
1.2016426
1.2016426
1.2016426
1.2016426
1.2016426
1.2016426
0.90645271
0.91450778
0.92330967
0.93291886
0.9433962
0.95480014
0.96718247
0.98058211
0.99501629
1.010469
1.0268766
1.0441116
1.0619677
1.0801489
1.0982707
1.1158765
1.1324757
1.1475985
1.1608592
1.1720114
1.1809797
1.1878574
1.1928744
1.1963461
1.1986175
1.200017
1.2008253
1.2012603
1.2014771
1.2015764
1.2016179
1.2016336
1.2016389
1.2016406
1.201641
1.2016411
1.2016411
1.2016411
1.2016411
1.2016411
1.2016411
1.2016411
1.2016411
1.2016411
1.2016411
1.2016411
1.2016411
1.2016411
1.2016411
1.2016411
0.90041944
0.90809823
0.91648219
0.92562893
0.93559747
0.94644629
0.95823023
0.9709959
0.98477488
0.99957439
1.0153651
1.0320664
1.04953
1.0675256
1.0857326
1.1037441
1.1210901
1.1372803
1.1518642
1.1644941
1.1749749
1.1832855
1.1895659
1.1940776
1.1971495
1.1991246
1.2003183
1.2009927
1.2013465
1.2015177
1.2015934
1.2016238
1.2016348
1.2016383
1.2016393
1.2016395
1.2016396
1.2016396
1.2016396
1.2016396
1.2016396
1.2016396
1.2016396
1.2016396
1.2016396
1.2016396
1.2016396
1.2016396
1.2016396
1.2016396
0.89595308
0.90335504
0.91143157
0.9202378
0.92983072
0.94026771
0.95160417
0.96388988
0.97716349
0.9914449
1.0067248
1.0229516
1.040016
1.0577351
1.0758407
1.093975
1.111703
1.1285436
1.144021
1.1577278
1.1693833
1.1788713
1.1862463
1.1917064
1.1955465
1.1981034
1.1997085
1.2006534
1.2011717
1.2014347
1.2015571
1.2016089
1.2016287
1.2016354
1.2016374
1.201638
1.2016381
1.2016381
1.2016381
1.2016381
1.2016381
1.2016381
1.2016381
1.2016381
1.2016381
1.2016381
1.2016381
1.2016381
1.2016381
1.2016381
0.89244703
0.89963274
0.90746923
0.91600955
0.92530885
0.93542319
0.94640766
0.95831334
0.97118275
0.98504335
0.99989854
1.0157159
1.0324132
1.0498424
1.0677761
1.0858992
1.103813
1.1210573
1.1371523
1.1516577
1.1642337
1.1746896
1.1830044
1.1893135
1.1938702
1.1969935
1.1990174
1.2002511
1.2009543
1.2013262
1.2015073
1.2015877
1.20162
1.2016316
1.2016353
1.2016363
1.2016365
1.2016366
1.2016366
1.2016366
1.2016366
1.2016366
1.2016366
1.2016366
1.2016366
1.2016366
1.2016366
1.2016366
1.2016366
1.2016366
0.88958064
0.89659023
0.90423134
0.91255523
0.92161543
0.93146671
0.94216351
0.95375736
0.96629301
0.97980279
0.99429867
1.0097618
1.0261294
1.0432799
1.0610181
1.0790644
1.0970539
1.1145509
1.1310828
1.1461928
1.159501
1.1707592
1.1798822
1.186947
1.1921638
1.1958271
1.1982652
1.1997962
1.2006979
1.2011926
1.2014432
1.2015593
1.2016082
1.2016266
1.2016327
1.2016345
1.201635
1.2016351
1.2016351
1.2016351
1.2016351
1.2016351
1.2016351
1.2016351
1.2016351
1.2016351
1.2016351
1.2016351
1.2016351
1.2016351
0.88716918
0.8940311
0.90150843
0.90965097
0.91851077
0.9281414
0.93859653
0.94992772
0.96218103
0.97539206
0.9895789
1.0047326
1.0208052
1.0376954
1.0552337
1.0731706
1.0911712
1.1088246
1.1256706
1.1412465
1.1551458
1.1670758
1.1768973
1.184635
1.1904563
1.1946287
1.1974693
1.1992987
1.2004073
1.2010349
1.2013643
1.2015231
1.2015926
1.20162
1.2016296
1.2016326
1.2016334
1.2016336
1.2016336
1.2016336
1.2016336
1.2016336
1.2016336
1.2016336
1.2016336
1.2016336
1.2016336
1.2016336
1.2016336
1.2016336
0.88509645
0.89183178
0.8991688
0.90715599
0.91584413
0.92528566
0.93553346
0.94663887
0.95864875
0.97160096
0.98551808
1.0003987
1.0162063
1.0328557
1.0501987
1.0680104
1.085983
1.103729
1.1208034
1.1367439
1.1511265
1.1636246
1.174054
1.1823924
1.1887667
1.1934163
1.1966438
1.1987681
1.2000873
1.2008553
1.2012711
1.2014785
1.2015729
1.2016116
1.2016258
1.2016304
1.2016317
1.201632
1.2016321
1.2016321
1.2016321
1.2016321
1.2016321
1.2016321
1.2016321
1.2016321
1.2016321
1.2016321
1.2016321
1.2016321
0.88328489
0.88990986
0.8971246
0.90497643
0.913515
0.92279173
0.93285869
0.94376692
0.95556368
0.96828847
0.98196726
0.99660452
1.0121729
1.0286002
1.0457557
1.0634359
1.0813562
1.0991515
1.1163926
1.1326218
1.1474045
1.1603876
1.1713495
1.1802263
1.1871071
1.1922027
1.1957998
1.1982124
1.199743
1.200656
1.2011641
1.2014256
1.2015487
1.2016012
1.2016212
1.201628
1.20163
1.2016305
1.2016306
1.2016306
1.2016306
1.2016306
1.2016306
1.2016306
1.2016306
1.2016306
1.2016306
1.2016306
1.2016306
1.2016306
0.88168021
0.88820762
0.89531431
0.90304657
0.91145303
0.92058416
0.93049128
0.94122501
0.95283284
0.96535545
0.97882142
0.9932399
1.0085909
1.0248132
1.0417905
1.0593377
1.0771909
1.0950053
1.1123679
1.128828
1.1439449
1.1573457
1.1687774
1.1781389
1.1854844
1.190997
1.1949459
1.1976384
1.1993789
1.2004395
1.2010444
1.2013644
1.2015199
1.2015885
1.2016156
1.2016252
1.2016281
1.2016289
1.2016291
1.2016291
1.2016291
1.2016291
1.2016291
1.2016291
1.2016291
1.2016291
1.2016291
1.2016291
1.2016291
1.2016291
0.88024304
0.88668325
0.89369339
0.90131882
0.90960728
0.91860833
0.92837259
0.93895024
0.95038883
0.9627299
0.97600409
0.99022435
1.0053768
1.0214093
1.0382179
1.0556335
1.0734104
1.0912226
1.1086729
1.125319
1.1407178
1.1544811
1.1663295
1.1761295
1.1839025
1.189805
1.1940884
1.1970516
1.1989988
1.200208
1.2009129
1.2012952
1.2014863
1.2015733
1.201609
1.201622
1.2016261
1.2016273
1.2016276
1.2016276
1.2016276
1.2016276
1.2016276
1.2016276
1.2016276
1.2016276
1.2016276
1.2016276
1.2016276
1.2016276
0.87894404
0.88530556
0.89222861
0.89975772
0.90793976
0.91682353
0.92645892
0.93689569
0.94818133
0.96035802
0.97345806
0.98749751
1.0024676
1.0183238
1.0349731
1.05226
1.0699552
1.0877499
1.105262
1.1220588
1.137697
1.151777
1.1639974
1.1741957
1.1823633
1.188631
1.1932321
1.1964563
1.1986062
1.1999639
1.2007708
1.2012184
1.201448
1.2015555
1.2016011
1.2016182
1.201624
1.2016256
1.201626
1.2016261
1.2016261
1.2016261
1.2016261
1.2016261
1.2016261
1.2016261
1.2016261
1.2016261
1.2016261
1.2016261
0.87776076
0.88405073
0.89089459
0.89833613
0.90642146
0.91519862
0.92471686
0.93502547
0.94617186
0.95819865
0.97113947
0.98501297
0.99981473
1.0155069
1.0320056
1.0491676
1.0667781
1.0845442
1.1020983
1.1190174
1.1348603
1.1492188
1.1617728
1.1723344
1.1808673
1.1874775
1.1923806
1.1958561
1.1982039
1.199709
1.2006192
1.2011345
1.201405
1.2015351
1.2015919
1.201614
1.2016216
1.2016239
1.2016245
1.2016246
1.2016246
1.2016246
1.2016246
1.2016246
1.2016246
1.2016246
1.2016246
1.2016246
1.2016246
1.2016246
0.87667568
0.88290012
0.88967149
0.89703289
0.90502972
0.91370931
0.92312033
0.9333116
0.94433036
0.95621958
0.96901397
0.98273437
0.99738007
1.0129189
1.0292752
1.0463164
1.0638411
1.0815706
1.0991511
1.1161697
1.1321885
1.146793
1.1596478
1.170542
1.1794138
1.1863461
1.1915363
1.1952538
1.1977945
1.1994453
1.2004594
1.201044
1.2013575
1.201512
1.2015813
1.2016091
1.201619
1.2016221
1.2016229
1.2016231
1.2016231
1.2016231
1.2016231
1.2016231
1.2016231
1.2016231
1.2016231
1.2016231
1.2016231
1.2016231
0.87567486
0.88183895
0.88854357
0.89583118
0.90374653
0.91233633
0.92164863
0.93173182
0.94263296
0.95439524
0.96705427
0.98063273
0.99513313
1.0105283
1.0267497
1.0436746
1.0611132
1.0788002
1.0963949
1.1134945
1.129665
1.144488
1.157615
1.1688147
1.1780021
1.1852375
1.1907012
1.1946514
1.1973798
1.1991742
1.2002922
1.2009474
1.2013056
1.2014862
1.2015692
1.2016035
1.2016161
1.2016202
1.2016213
1.2016216
1.2016216
1.2016216
1.2016216
1.2016216
1.2016216
1.2016216
1.2016216
1.2016216
1.2016216
1.2016216
0.87474708
0.88085528
0.88749812
0.89471745
0.90255741
0.9110641
0.92028505
0.93026819
0.94106038
0.95270497
0.96523829
0.97868462
0.99304926
1.0083094
1.024403
1.0412158
1.0585688
1.0762092
1.0938084
1.1109735
1.1272755
1.1422934
1.1556676
1.167149
1.1766308
1.1841523
1.1898764
1.1940506
1.1969616
1.1988972
1.2001186
1.2008454
1.2012497
1.2014578
1.2015557
1.2015972
1.201613
1.2016182
1.2016197
1.20162
1.2016201
1.2016201
1.2016201
1.2016201
1.2016201
1.2016201
1.2016201
1.2016201
1.2016201
1.2016201
0.87388315
0.87993937
0.88652475
0.89368059
0.90145047
0.90987992
0.91901594
0.92890606
0.93959689
0.95113188
0.96354798
0.97687082
0.99110817
1.0062411
1.0222133
1.0389182
1.0561869
1.0737776
1.0913734
1.1085913
1.1250076
1.1401999
1.1537995
1.1655413
1.1752985
1.1830902
1.189063
1.1934528
1.1965412
1.1986153
1.1999395
1.2007383
1.2011898
1.2014267
1.2015406
1.2015902
1.2016095
1.201616
1.201618
1.2016185
1.2016186
1.2016186
1.2016186
1.2016186
1.2016186
1.2016186
1.2016186
1.2016186
1.2016186
1.2016186
0.87307545
0.87908314
0.88561487
0.89271145
0.90041592
0.90877328
0.91783003
0.9276333
0.93822945
0.949662
0.96196838
0.97517543
0.98929307
1.0043059
1.0201625
1.0367637
1.0539493
1.0714883
1.0890745
1.1063345
1.1228503
1.1381993
1.152005
1.1639882
1.1740035
1.1820511
1.1882614
1.192859
1.1961197
1.1983297
1.1997557
1.2006267
1.2011264
1.2013932
1.2015241
1.2015824
1.2016056
1.2016138
1.2016163
1.2016169
1.2016171
1.2016171
1.2016171
1.2016171
1.2016171
1.2016171
1.2016171
1.2016171
1.2016171
1.2016171
0.87231765
0.87827984
0.88476131
0.89180236
0.89944554
0.90773537
0.91671787
0.92643976
0.93694718
0.94828363
0.96048698
0.97358512
0.98758985
1.0024889
1.0182355
1.0347369
1.0518411
1.0693269
1.0868985
1.1041916
1.1207942
1.1362843
1.150279
1.1624865
1.1727443
1.1810346
1.187472
1.1922699
1.1956981
1.1980412
1.1995678
1.200511
1.2010596
1.2013572
1.201506
1.2015737
1.2016014
1.2016114
1.2016145
1.2016154
1.2016156
1.2016156
1.2016156
1.2016156
1.2016156
1.2016156
1.2016156
1.2016156
1.2016156
1.2016156
0.87160436
0.87752378
0.88395798
0.89094684
0.89853243
0.90675879
0.91567149
0.92531689
0.93574087
0.9469869
0.95909323
0.97208861
0.98598659
1.0007777
1.0164194
1.0328246
1.0498492
1.0672809
1.0848337
1.1021523
1.1188309
1.1344483
1.1486169
1.1610333
1.1715194
1.1800401
1.1866949
1.1916861
1.195277
1.1977504
1.1993765
1.2003917
1.2009897
1.2013189
1.2014864
1.2015642
1.2015968
1.2016088
1.2016127
1.2016138
1.2016141
1.2016141
1.2016141
1.2016141
1.2016141
1.2016141
1.2016141
1.2016141
1.2016141
1.2016141
0.87093103
0.8768101
0.88319974
0.89013939
0.89767069
0.90583722
0.91468414
0.92425743
0.93460271
0.94576343
0.95777811
0.97067632
0.98447312
0.99916153
1.0147029
1.0310156
1.0479624
1.0653396
1.0828703
1.1002079
1.1169528
1.1326857
1.1470145
1.1596259
1.1703271
1.179067
1.1859303
1.191108
1.1948571
1.1974581
1.1991822
1.2002693
1.2009169
1.2012784
1.2014654
1.2015539
1.2015917
1.2016061
1.2016108
1.2016122
1.2016125
1.2016126
1.2016126
1.2016126
1.2016126
1.2016126
1.2016126
1.2016126
1.2016126
1.2016126
0.87029373
0.87613465
0.88248215
0.88937529
0.89685526
0.90496525
0.91375
0.92325511
0.93352599
0.944606
0.95653391
0.96934
0.98304069
0.99763132
1.0130768
1.0293003
1.0461711
1.0634935
1.0809995
1.0983506
1.1151535
1.130991
1.1454679
1.1582616
1.169166
1.1781148
1.185178
1.190536
1.1944389
1.1971648
1.1989856
1.2001439
1.2008415
1.2012358
1.2014429
1.2015427
1.2015862
1.2016031
1.2016089
1.2016106
1.201611
1.2016111
1.2016111
1.2016111
1.2016111
1.2016111
1.2016111
1.2016111
1.2016111
1.2016111
0.86968908
0.87549384
0.8818014
0.88865045
0.8960818
0.90413822
0.91286404
0.92230457
0.93250491
0.94350839
0.95535396
0.96807252
0.98168175
0.99617906
1.0115325
1.02767
1.0444668
1.0617346
1.0792136
1.0965735
1.113427
1.1293596
1.1439735
1.1569381
1.1680348
1.1771826
1.184438
1.1899703
1.1940228
1.1968709
1.1987869
1.2000161
1.2007636
1.2011913
1.2014191
1.2015307
1.2015803
1.2016
1.2016069
1.2016089
1.2016095
1.2016096
1.2016096
1.2016096
1.2016096
1.2016096
1.2016096
1.2016096
1.2016096
1.2016096
0.86911414
0.87488453
0.88115416
0.88796134
0.89534651
0.90335204
0.91202193
0.9214011
0.93153445
0.94246521
0.95423247
0.96686771
0.98038971
0.99479782
1.0100631
1.0261175
1.0428421
1.0600555
1.0775058
1.0948703
1.111768
1.1277873
1.1425282
1.1556532
1.166932
1.1762699
1.18371
1.1894109
1.193609
1.1965768
1.1985866
1.199886
1.2006835
1.2011449
1.2013939
1.2015178
1.2015739
1.2015966
1.2016047
1.2016073
1.201608
1.2016081
1.2016081
1.2016081
1.2016081
1.2016081
1.2016081
1.2016081
1.2016081
1.2016081
0.86856634
0.87430402
0.88053753
0.88730486
0.89464607
0.90260319
0.91121984
0.92054063
0.93061021
0.9414717
0.95316436
0.96572012
0.97915882
0.99348153
1.008662
1.0246363
1.0412905
1.0584499
1.07587
1.0932357
1.1101719
1.1262701
1.1411291
1.1544048
1.1658564
1.1753761
1.1829939
1.188858
1.1931979
1.1962828
1.198385
1.1997539
1.2006014
1.2010967
1.2013674
1.201504
1.201567
1.201593
1.2016025
1.2016056
1.2016064
1.2016066
1.2016066
1.2016066
1.2016066
1.2016066
1.2016066
1.2016066
1.2016066
1.2016066
0.86804341
0.87374988
0.87994895
0.88667827
0.89397758
0.90188854
0.91045442
0.91971955
0.92972831
0.94052374
0.95214517
0.964625
0.97798399
0.99222482
1.0073238
1.0232205
1.0398062
1.0569122
1.074301
1.0916647
1.1086343
1.1248046
1.1397734
1.1531911
1.1648068
1.1745004
1.1822894
1.1883117
1.1927897
1.1959893
1.1981824
1.1996202
1.2005175
1.2010469
1.2013396
1.2014895
1.2015596
1.2015892
1.2016002
1.2016038
1.2016048
1.2016051
1.2016051
1.2016051
1.2016051
1.2016051
1.2016051
1.2016051
1.2016051
1.2016051
0.86754335
0.87322001
0.87938617
0.88607918
0.89333846
0.90120533
0.90972273
0.91893468
0.92888535
0.93961763
0.95117096
0.96357814
0.97686075
0.99102298
1.0060435
1.0218652
1.0383841
1.0554371
1.0727938
1.0901529
1.1071514
1.1233875
1.1384587
1.1520102
1.163782
1.1736422
1.1815963
1.1877719
1.1923845
1.1956964
1.197979
1.1994849
1.2004318
1.2009956
1.2013107
1.2014741
1.2015518
1.2015851
1.2015978
1.2016021
1.2016033
1.2016036
1.2016036
1.2016036
1.2016036
1.2016036
1.2016036
1.2016036
1.2016036
1.2016036
0.8670644
0.87271251
0.87884718
0.88550546
0.89272643
0.90055112
0.90902214
0.91818321
0.92807829
0.93875013
0.95023825
0.96257579
0.97578511
0.98987178
1.0048166
1.0205658
1.0370195
1.0540204
1.0713441
1.0886963
1.1057197
1.1220161
1.1371828
1.1508606
1.162781
1.1728009
1.1809142
1.1872386
1.1919825
1.1954044
1.197775
1.1993484
1.2003447
1.2009429
1.2012806
1.201458
1.2015435
1.2015808
1.2015953
1.2016002
1.2016017
1.201602
1.2016021
1.2016021
1.2016021
1.2016021
1.2016021
1.2016021
1.2016021
1.2016021
0.86660497
0.87222573
0.87833021
0.88495519
0.89213946
0.89992373
0.9083503
0.91746263
0.92730443
0.93791834
0.94934391
0.96161461
0.97475352
0.98876747
1.0036393
1.0193182
1.0357084
1.0526577
1.069948
1.0872913
1.1043361
1.1206875
1.1359435
1.1497407
1.1618027
1.1719759
1.180243
1.1867118
1.1915837
1.1951134
1.1975707
1.1992107
1.2002561
1.2008888
1.2012494
1.201441
1.2015347
1.2015762
1.2015927
1.2015984
1.2016001
1.2016005
1.2016006
1.2016006
1.2016006
1.2016006
1.2016006
1.2016006
1.2016006
1.2016006
0.86616365
0.87175814
0.87783365
0.88442668
0.89157573
0.89932121
0.90770514
0.91677069
0.92656135
0.93711965
0.94848516
0.96069163
0.97376279
0.98770667
1.002508
1.0181188
1.034447
1.0513456
1.0686021
1.0859347
1.1029975
1.1193995
1.1347389
1.1486491
1.1608462
1.1711667
1.1795824
1.1861914
1.1911882
1.1948235
1.1973661
1.1990721
1.2001663
1.2008335
1.2012173
1.2014233
1.2015254
1.2015714
1.2015899
1.2015965
1.2015985
1.201599
1.2015991
1.2015991
1.2015991
1.2015991
1.2015991
1.2015991
1.2015991
1.2015991
0.86573917
0.87130841
0.87735608
0.88391839
0.8910336
0.89874181
0.90708476
0.91610537
0.9258469
0.93635174
0.9476595
0.95980416
0.97281008
0.98668637
1.0014196
1.0169642
1.0332321
1.0500806
1.067303
1.0846234
1.1017014
1.1181496
1.1335672
1.1475844
1.1599106
1.1703727
1.178932
1.1856773
1.190796
1.194535
1.1971615
1.1989327
1.2000754
1.2007771
1.2011841
1.2014049
1.2015157
1.2015663
1.201587
1.2015945
1.2015968
1.2015975
1.2015976
1.2015976
1.2015976
1.2015976
1.2015976
1.2015976
1.2015976
1.2015976
0.86533038
0.87087532
0.87689619
0.88342896
0.8905116
0.89818395
0.90648749
0.91546485
0.92515911
0.9356125
0.94686466
0.95894979
0.9718928
0.98570384
1.0003711
1.0158516
1.0320605
1.0488598
1.0660479
1.0833548
1.1004453
1.1169359
1.1324267
1.1465454
1.1589951
1.1695934
1.1782917
1.1851695
1.1904073
1.1942478
1.196957
1.1987926
1.1999835
1.2007196
1.20115
1.2013858
1.2015055
1.2015609
1.201584
1.2015925
1.2015952
1.2015959
1.2015961
1.2015961
1.2015961
1.2015961
1.2015961
1.2015961
1.2015961
1.2015961
0.86493625
0.87045778
0.87645283
0.88295713
0.8900084
0.89764622
0.90591179
0.9148475
0.92449621
0.93490004
0.94609861
0.95812632
0.97100861
0.98475658
0.99935997
1.0147782
1.0309296
1.0476804
1.0648342
1.0821264
1.099227
1.1157565
1.131316
1.145531
1.1580988
1.1688282
1.1776611
1.1846678
1.1900219
1.193962
1.1967526
1.198652
1.1998906
1.2006611
1.201115
1.201366
1.2014948
1.2015552
1.2015808
1.2015904
1.2015935
1.2015944
1.2015946
1.2015946
1.2015946
1.2015946
1.2015946
1.2015946
1.2015946
1.2015946
0.86455583
0.87005478
0.87602493
0.88250177
0.88952279
0.89712731
0.90535627
0.91425182
0.92385661
0.93421264
0.94535949
0.95733178
0.97015541
0.98384237
0.99838387
1.0137415
1.0298368
1.0465399
1.0636593
1.0809358
1.0980445
1.1146095
1.1302336
1.1445401
1.1572209
1.1680768
1.17704
1.1841722
1.18964
1.1936778
1.1965486
1.1985108
1.1997969
1.2006017
1.2010792
1.2013456
1.2014837
1.2015493
1.2015775
1.2015882
1.2015918
1.2015928
1.2015931
1.2015931
1.2015931
1.2015931
1.2015932
1.2015932
1.2015932
1.2015932
0.86418829
0.86966542
0.87561152
0.88206187
0.88905368
0.89662605
0.90481967
0.91367646
0.92323885
0.93354872
0.94464563
0.95656437
0.96933126
0.98295916
0.99744064
1.0127394
1.0287799
1.045436
1.0625211
1.079781
1.0968958
1.1134935
1.1291782
1.1435717
1.1563608
1.1673385
1.1764281
1.1836825
1.1892615
1.1933952
1.1963449
1.1983694
1.1997025
1.2005414
1.2010426
1.2013245
1.2014721
1.2015432
1.2015741
1.201586
1.2015901
1.2015913
1.2015916
1.2015916
1.2015916
1.2015917
1.2015917
1.2015917
1.2015917
1.2015917
0.86383282
0.86928888
0.87521174
0.88163647
0.88860007
0.89614137
0.90430085
0.91312018
0.9226416
0.93290686
0.94395549
0.95582243
0.96853441
0.98210508
0.99652831
1.0117698
1.0277567
1.0443667
1.0614175
1.07866
1.0957792
1.1124067
1.1281484
1.1426248
1.1555178
1.1666131
1.1758252
1.1831986
1.1888863
1.1931143
1.1961417
1.1982276
1.1996075
1.2004804
1.2010053
1.2013028
1.2014601
1.2015367
1.2015705
1.2015838
1.2015884
1.2015897
1.2015901
1.2015901
1.2015902
1.2015902
1.2015902
1.2015902
1.2015902
1.2015902
0.86348873
0.8689244
0.87482478
0.88122473
0.88816103
0.8956723
0.90379875
0.91258185
0.92206365
0.93228575
0.94328767
0.95510446
0.96776326
0.98127842
0.99564508
1.0108307
1.0267653
1.04333
1.0603467
1.0775711
1.094693
1.1113479
1.1271433
1.1416985
1.1546912
1.1659001
1.1752311
1.1827204
1.1885146
1.192835
1.195939
1.1980857
1.1995118
1.2004186
1.2009672
1.2012806
1.2014477
1.20153
1.2015667
1.2015814
1.2015866
1.2015881
1.2015885
1.2015886
1.2015887
1.2015887
1.2015887
1.2015887
1.2015887
1.2015887
0.86315537
0.86857128
0.87444989
0.88082585
0.88773574
0.89521792
0.9033124
0.91206044
0.92150388
0.9316842
0.94264088
0.95440909
0.96701632
0.98047762
0.99478929
1.0099206
1.0258041
1.0423241
1.0593068
1.0765126
1.0936359
1.1103157
1.1261616
1.140792
1.1538805
1.165199
1.1746454
1.1822479
1.1881462
1.1925574
1.1957369
1.1979436
1.1994157
1.2003562
1.2009285
1.2012577
1.2014349
1.201523
1.2015629
1.201579
1.2015848
1.2015866
1.201587
1.2015871
1.2015872
1.2015872
1.2015872
1.2015872
1.2015872
1.2015872
0.86283212
0.86822889
0.87408641
0.88043913
0.88732341
0.89477742
0.90284093
0.91155499
0.92096128
0.93110111
0.94201394
0.95373505
0.96629224
0.97970124
0.99395944
1.0090378
1.0248712
1.0413474
1.0582964
1.075483
1.0926062
1.1093089
1.1252025
1.1399045
1.153085
1.1645095
1.1740681
1.1817808
1.1877811
1.1922815
1.1955354
1.1978015
1.1993191
1.2002931
1.2008892
1.2012344
1.2014217
1.2015158
1.2015588
1.2015765
1.201583
1.201585
1.2015855
1.2015856
1.2015857
1.2015857
1.2015857
1.2015857
1.2015857
1.2015857
0.86251844
0.86789665
0.87373371
0.88006389
0.88692334
0.89435003
0.90238352
0.91106464
0.92043489
0.93053547
0.94140576
0.95308116
0.96558977
0.97894795
0.99315411
1.0081809
1.0239654
1.0403984
1.0573138
1.0744809
1.0916029
1.1083264
1.1242648
1.1390352
1.1523042
1.1638313
1.1734988
1.1813192
1.1874193
1.1920074
1.1953345
1.1976594
1.1992221
1.2002295
1.2008493
1.2012105
1.2014081
1.2015082
1.2015547
1.201574
1.2015811
1.2015834
1.201584
1.2015841
1.2015842
1.2015842
1.2015842
1.2015842
1.2015842
1.2015842
0.86221382
0.86757401
0.87339121
0.87969952
0.88653488
0.89393506
0.90193942
0.91058858
0.91992386
0.92998634
0.94081535
0.95244636
0.96490778
0.97821652
0.99237202
1.0073484
1.023085
1.0394756
1.0563577
1.0735049
1.0906245
1.107367
1.1233478
1.1381835
1.1515377
1.1631639
1.1729373
1.1808628
1.1870607
1.191735
1.1951344
1.1975173
1.1991247
1.2001654
1.2008088
1.2011861
1.2013941
1.2015005
1.2015503
1.2015713
1.2015792
1.2015817
1.2015825
1.2015826
1.2015827
1.2015827
1.2015827
1.2015827
1.2015827
1.2015827
0.86191779
0.86726048
0.87305839
0.87934545
0.88615742
0.89353186
0.90150793
0.91012605
0.91942739
0.92945286
0.94024177
0.95182965
0.96424518
0.97750583
0.99161198
1.0065392
1.022229
1.0385778
1.0554269
1.0725538
1.0896701
1.1064299
1.1224505
1.1373487
1.1507848
1.1625071
1.1723835
1.1804116
1.1867054
1.1914643
1.194935
1.1973753
1.1990271
1.2001008
1.2007678
1.2011613
1.2013797
1.2014925
1.2015458
1.2015686
1.2015773
1.2015801
1.2015809
1.2015811
1.2015812
1.2015812
1.2015812
1.2015812
1.2015812
1.2015812
0.86162991
0.86695559
0.87273476
0.87900117
0.88579041
0.89313983
0.90108841
0.90967638
0.91894472
0.92893423
0.93968416
0.9512301
0.96360099
0.97681483
0.99087286
1.0057521
1.021396
1.0377038
1.0545201
1.0716265
1.0887386
1.1055139
1.1215723
1.1365301
1.1500452
1.1618606
1.1718372
1.1799655
1.1863532
1.1911955
1.1947364
1.1972334
1.1989292
1.2000357
1.2007263
1.201136
1.201365
1.2014842
1.2015412
1.2015658
1.2015753
1.2015785
1.2015794
1.2015796
1.2015797
1.2015797
1.2015797
1.2015797
1.2015797
1.2015797
0.86134978
0.86665891
0.87241985
0.87866618
0.88543331
0.89275842
0.90068026
0.90923891
0.91847517
0.92842971
0.93914173
0.95064687
0.96297431
0.97614253
0.99015365
1.004986
1.020585
1.0368524
1.0536363
1.0707218
1.0878289
1.1046184
1.1207123
1.1357272
1.1493184
1.1612239
1.1712981
1.1795243
1.1860042
1.1909284
1.1945386
1.1970916
1.1988311
1.1999702
1.2006844
1.2011103
1.2013499
1.2014757
1.2015364
1.201563
1.2015733
1.2015768
1.2015778
1.2015781
1.2015782
1.2015782
1.2015782
1.2015782
1.2015782
1.2015782
0.86107701
0.86637004
0.87211324
0.87834003
0.88508565
0.89238709
0.90028293
0.90881306
0.9180181
0.92793862
0.93861373
0.95007916
0.96236427
0.97548804
0.98945338
1.0042399
1.0197948
1.0360226
1.0527743
1.0698389
1.0869401
1.1037423
1.1198698
1.1349394
1.148604
1.1605969
1.170766
1.179088
1.1856583
1.190663
1.1943416
1.1969501
1.1987328
1.1999044
1.200642
1.2010842
1.2013345
1.2014669
1.2015315
1.20156
1.2015712
1.2015751
1.2015763
1.2015766
1.2015767
1.2015767
1.2015767
1.2015767
1.2015767
1.2015767
0.86081127
0.86608861
0.87181454
0.87802231
0.88474699
0.89202539
0.89989591
0.90839826
0.91757292
0.9274603
0.93809949
0.94952622
0.96177009
0.9748505
0.98877116
1.0035129
1.0190247
1.0352134
1.0519332
1.0689767
1.0860714
1.1028851
1.1190443
1.1341662
1.1479016
1.1599792
1.1702409
1.1786565
1.1853154
1.1903995
1.1941455
1.1968088
1.1986344
1.1998382
1.2005992
1.2010577
1.2013188
1.2014579
1.2015264
1.2015569
1.2015692
1.2015735
1.2015747
1.2015751
1.2015752
1.2015752
1.2015752
1.2015752
1.2015752
1.2015752
0.86055222
0.86581428
0.87152338
0.87771261
0.88441689
0.89167285
0.89951871
0.90799401
0.91713906
0.92699418
0.93759835
0.94898738
0.96119103
0.97422915
0.98810616
1.0028041
1.0182736
1.0344239
1.0511121
1.0681343
1.0852218
1.1020458
1.118235
1.133407
1.1472107
1.1593706
1.1697225
1.1782296
1.1849755
1.1901376
1.1939502
1.1966678
1.1985358
1.1997718
1.2005561
1.2010308
1.2013028
1.2014487
1.2015211
1.2015538
1.201567
1.2015717
1.2015732
1.2015736
1.2015736
1.2015737
1.2015737
1.2015737
1.2015737
1.2015737
0.86029956
0.86554673
0.87123941
0.87741058
0.88409497
0.89132905
0.89915088
0.90759981
0.91671602
0.92653967
0.93710972
0.94846197
0.9606264
0.97362323
0.9874576
1.0021126
1.0175407
1.0336532
1.0503101
1.0673111
1.0843908
1.1012239
1.1174414
1.1326614
1.1465311
1.1587708
1.1692106
1.1778073
1.1846386
1.1898775
1.1937558
1.196527
1.1984372
1.199705
1.2005126
1.2010036
1.2012865
1.2014393
1.2015157
1.2015506
1.2015649
1.20157
1.2015716
1.2015721
1.2015721
1.2015722
1.2015722
1.2015722
1.2015722
1.2015722
0.86005301
0.86528564
0.87096232
0.87711587
0.88378086
0.89099361
0.89879201
0.90721523
0.9163033
0.92609628
0.93663303
0.94794942
0.96007556
0.97303206
0.98682475
1.0014378
1.0168252
1.0329005
1.0495265
1.066506
1.0835775
1.1004186
1.1166629
1.131929
1.1458624
1.1581796
1.1687051
1.1773895
1.1843046
1.1896191
1.1935622
1.1963866
1.1983385
1.199638
1.2004687
1.200976
1.2012698
1.2014296
1.2015102
1.2015473
1.2015627
1.2015683
1.2015701
1.2015705
1.2015706
1.2015707
1.2015707
1.2015707
1.2015707
1.2015707
0.85981229
0.86503074
0.87069181
0.87682816
0.88347423
0.89066617
0.89844169
0.90683983
0.91590046
0.9256635
0.93616777
0.94744914
0.95953789
0.97245499
0.98620693
1.0007789
1.0161264
1.0321651
1.0487605
1.0657185
1.0827812
1.0996294
1.1158989
1.1312092
1.1452042
1.1575967
1.1682059
1.176976
1.1839735
1.1893625
1.1933695
1.1962464
1.1982398
1.1995708
1.2004245
1.2009481
1.2012529
1.2014197
1.2015045
1.2015439
1.2015604
1.2015665
1.2015685
1.201569
1.2015691
1.2015692
1.2015692
1.2015692
1.2015692
1.2015692
0.85957716
0.86478176
0.87042758
0.87654714
0.88317474
0.89034636
0.89809957
0.90647323
0.91550706
0.92524088
0.93571344
0.94696061
0.95901284
0.97189143
0.9856035
1.0001352
1.0154436
1.0314462
1.0480113
1.0649479
1.0820012
1.0988557
1.1151491
1.1305018
1.1445563
1.157022
1.1677127
1.1765669
1.1836452
1.1891075
1.1931777
1.1961066
1.1981411
1.1995033
1.2003801
1.2009199
1.2012357
1.2014096
1.2014987
1.2015405
1.2015581
1.2015647
1.2015669
1.2015675
1.2015676
1.2015677
1.2015677
1.2015677
1.2015677
1.2015677
0.85934738
0.86453845
0.87016938
0.87627255
0.8828821
0.89003388
0.89776529
0.90611504
0.91512271
0.92482799
0.93526957
0.94648333
0.95849987
0.97134081
0.98501385
0.99950617
1.0147761
1.0307432
1.0472783
1.0641934
1.0812371
1.0980968
1.1144128
1.1298062
1.1439183
1.1564551
1.1672255
1.1761619
1.1833197
1.1888543
1.1929869
1.1959672
1.1980424
1.1994357
1.2003353
1.2008914
1.2012183
1.2013993
1.2014927
1.2015369
1.2015558
1.2015629
1.2015653
1.201566
1.2015661
1.2015662
1.2015662
1.2015662
1.2015662
1.2015662
0.85912273
0.86430058
0.86991695
0.8760041
0.88259603
0.88972842
0.89743854
0.90576493
0.91474703
0.92442443
0.93483573
0.94601684
0.95799848
0.97080258
0.98443743
0.99889109
1.0141233
1.0300555
1.0465608
1.0634545
1.0804882
1.0973523
1.1136897
1.1291221
1.1432899
1.155896
1.166744
1.1757611
1.1829969
1.1886027
1.1927969
1.1958281
1.1979437
1.1993679
1.2002903
1.2008626
1.2012006
1.2013888
1.2014866
1.2015333
1.2015534
1.2015611
1.2015637
1.2015645
1.2015646
1.2015647
1.2015647
1.2015647
1.2015647
1.2015647
0.858903
0.86406793
0.86967007
0.87574156
0.88231626
0.8894297
0.89711899
0.90542255
0.91437967
0.92402982
0.93441152
0.94556071
0.9575082
0.97027626
0.98387369
0.99828946
1.0134846
1.0293824
1.0458584
1.0627306
1.0797539
1.0966218
1.1129792
1.1284492
1.142671
1.1553443
1.1662683
1.1753644
1.1826769
1.1883528
1.1926078
1.1956894
1.1978451
1.1993
1.2002451
1.2008336
1.2011827
1.2013781
1.2014803
1.2015295
1.201551
1.2015593
1.2015621
1.2015629
1.2015631
1.2015632
1.2015632
1.2015632
1.2015632
1.2015632
0.858688
0.86384028
0.86942851
0.87548468
0.88204253
0.88913744
0.89680638
0.90508761
0.9140203
0.92364379
0.93399655
0.9451145
0.9570286
0.96976136
0.98332214
0.99770075
1.0128594
1.0287234
1.0451703
1.0620211
1.0790337
1.0959046
1.1122811
1.1277871
1.1420611
1.1547999
1.1657981
1.1749716
1.1823595
1.1881045
1.1924196
1.1955511
1.1977465
1.1992319
1.2001996
1.2008043
1.2011645
1.2013673
1.2014739
1.2015257
1.2015485
1.2015574
1.2015605
1.2015614
1.2015616
1.2015617
1.2015617
1.2015617
1.2015617
1.2015617
0.85847754
0.86361745
0.86919206
0.87523325
0.88177461
0.88885139
0.89650042
0.90475981
0.9136686
0.92326602
0.93359046
0.94467785
0.95655924
0.96925744