/*--------------------------------*- C++ -*----------------------------------*\
| =========                 |                                                 |
| \\      /  F ield         | OpenFOAM: The Open Source CFD Toolbox           |
|  \\    /   O peration     | Version:  4.0                                   |
|   \\  /    A nd           | Web:      www.OpenFOAM.org                      |
|    \\/     M anipulation  |                                                 |
\*---------------------------------------------------------------------------*/
FoamFile
{
    version     2.0;
    format      ascii;
    class       surfaceScalarField;
    location    "2000";
    object      snGradRho;
}
// * * * * * * * * * * * * * * * * * * * * * * * * * * * * * * * * * * * * * //

dimensions      [1 -4 0 0 0 0 0];

internalField   nonuniform List<scalar> 
9850
(
124.2851
-2.6624379
122.94986
-2.8356986
120.3343
-3.0200835
116.33013
-3.2080222
110.88263
-3.3893586
104.01081
-3.5514811
95.824343
-3.6798632
86.532476
-3.7591157
76.440005
-3.7745694
65.927472
-3.7142844
55.416065
-3.5712162
45.322334
-3.3451161
36.011518
-3.0436685
27.75946
-2.6824224
20.730835
-2.2832999
14.976675
-1.8718029
10.448886
-1.4734125
7.0258289
-1.1108836
4.5418199
-0.80182254
2.8143781
-0.55291915
1.6658742
-0.36345104
0.938146
-0.2271479
0.50039838
-0.13456216
0.25155489
-0.075289023
0.11854889
-0.039625525
0.052074169
-0.019535123
0.021191684
-0.0089887975
0.0079385415
-0.0038581992
0.00271913
-0.001559312
0.00084566571
-0.00061684698
0.00023708595
-0.00026579296
5.9464477e-05
-0.00014783757
1.3226677e-05
-0.00011234226
2.5706362e-06
-0.00010283994
4.1403564e-07
-0.00010058635
3.5835335e-08
-0.00010010926
-2.1805754e-08
-0.00010001212
-2.4783297e-08
-9.9985148e-05
-2.0991762e-08
-9.9971177e-05
-1.7765251e-08
-9.9960492e-05
-1.3884723e-08
-9.9951552e-05
-1.1524588e-08
-9.9944161e-05
-8.5459093e-09
-9.9938057e-05
-7.0321087e-09
-9.9933187e-05
-4.8525345e-09
-9.9929268e-05
-3.9583386e-09
-9.992628e-05
-2.4031222e-09
-9.9923936e-05
-1.8561887e-09
-9.9922317e-05
-1.0454113e-09
-9.9921124e-05
-9.9920922e-05
97.978491
-1.1018451
97.501197
-1.1720833
96.755028
-1.2494794
95.649008
-1.3334682
94.07498
-1.4227521
91.911968
-1.5150379
89.035005
-1.6067778
85.329041
-1.6929792
80.707519
-1.7671806
75.133781
-1.8217054
68.641794
-1.848296
61.35139
-1.8391632
53.472826
-1.7883693
45.296566
-1.6933002
37.166861
-1.5558457
29.441658
-1.3828709
22.414395
-1.1857003
16.298665
-0.97769667
11.330407
-0.77161851
7.5118624
-0.58141044
4.7378376
-0.41722691
2.8350076
-0.28440096
1.604302
-0.18359781
0.85533537
-0.11185954
0.42773927
-0.064060988
0.19961796
-0.034329133
0.08644017
-0.017133571
0.034515355
-0.007933541
0.012623651
-0.0034070631
0.0041993744
-0.0013725316
0.0012614455
-0.00054299868
0.00033967793
-0.00023843928
8.1418295e-05
-0.00013850379
1.7272072e-05
-0.00010941605
3.2432764e-06
-0.00010196144
5.5952641e-07
-0.00010029129
1.1035025e-07
-9.9966955e-05
3.7455236e-08
-9.9913255e-05
2.2276083e-08
-9.9905811e-05
1.5145908e-08
-9.9904875e-05
1.084713e-08
-9.9904484e-05
7.0433139e-09
-9.9903917e-05
4.9226854e-09
-9.9903194e-05
2.8187749e-09
-9.9902372e-05
1.9754964e-09
-9.9901557e-05
9.093281e-10
-9.9900787e-05
6.5574256e-10
-9.9900122e-05
1.9105919e-10
-9.989957e-05
-7.3020329e-10
-9.9899205e-05
-9.9899253e-05
87.314051
-0.60500493
86.819046
-0.64306819
86.217577
-0.68531173
85.466332
-0.73189647
84.50747
-0.78279387
83.266326
-0.83766949
81.650372
-0.8957291
79.550717
-0.95553181
76.847759
-1.0147897
73.422704
-1.0701976
69.176016
-1.1173665
64.052283
-1.1509609
58.068118
-1.1651451
51.3362
-1.1543958
44.075823
-1.1146269
36.600643
-1.0444002
29.279692
-0.94583059
22.48168
-0.8247545
16.518138
-0.69001805
11.582466
-0.55217197
7.7314332
-0.42145447
4.9002243
-0.30598674
2.9403563
-0.21069542
1.6645614
-0.13713192
0.88531117
-0.084026848
0.44018501
-0.048247831
0.20344174
-0.025827822
0.086844744
-0.012823988
0.03400488
-0.0058838519
0.012124114
-0.0024985912
0.0039063297
-0.0010004466
0.0011286066
-0.0004035433
0.00029016108
-0.00019111263
6.5902723e-05
-0.00012411461
1.3147568e-05
-0.00010553399
2.3079694e-06
-0.00010103672
3.7350168e-07
-0.00010009373
7.0620286e-08
-9.9924082e-05
2.6063944e-08
-9.9898669e-05
1.6586906e-08
-9.9896311e-05
1.2744207e-08
-9.9897142e-05
9.2434461e-09
-9.9898354e-05
7.1956891e-09
-9.9899532e-05
4.866053e-09
-9.9900592e-05
3.7358907e-09
-9.9901494e-05
2.2906323e-09
-9.9902217e-05
1.6968411e-09
-9.990279e-05
8.1866537e-10
-9.9903155e-05
-8.0550579e-10
-9.9903546e-05
-9.9903945e-05
81.53481
-0.40221772
80.988626
-0.42730338
80.372935
-0.4551657
79.661567
-0.4859957
78.818373
-0.51991549
77.794741
-0.55692348
76.527244
-0.59681585
74.936093
-0.63908013
72.925488
-0.6827609
70.387433
-0.72630733
67.210907
-0.76742931
63.298057
-0.80301355
58.587702
-0.82917761
53.083609
-0.84155395
46.880823
-0.83587236
40.179563
-0.80882349
33.275889
-0.75903971
26.524212
-0.68788022
20.27775
-0.59966599
14.823346
-0.50115551
10.333814
-0.40031688
6.8525169
-0.30479226
4.3104036
-0.22056933
2.5636265
-0.15122955
1.4359486
-0.097861995
0.75384243
-0.059495169
0.36881824
-0.033801137
0.16707779
-0.017843261
0.069581146
-0.0087056534
0.026436273
-0.0039151666
0.0090900145
-0.0016334299
0.002805615
-0.00065407048
0.00077095991
-0.0002784312
0.00018711465
-0.00015075508
3.9817213e-05
-0.00011261455
7.391437e-06
-0.00010267911
1.2048598e-06
-0.00010043819
1.8382947e-07
-0.00010000267
3.5612396e-08
-9.9929187e-05
1.3526882e-08
-9.991753e-05
8.6904347e-09
-9.9914978e-05
5.6594448e-09
-9.9913765e-05
4.2632327e-09
-9.9912908e-05
2.6006437e-09
-9.9912283e-05
2.0816776e-09
-9.9911863e-05
1.1017593e-09
-9.9911556e-05
1.0064931e-09
-9.9911424e-05
1.4890369e-10
-9.9911253e-05
-1.429223e-09
-9.9911325e-05
-9.9911544e-05
77.725993
-0.29775759
77.143091
-0.31621275
76.504924
-0.33670753
75.79307
-0.35940836
74.981659
-0.38445021
74.035251
-0.41190537
72.906583
-0.44173725
71.534516
-0.47373499
69.842879
-0.50742578
67.741271
-0.54196598
65.129406
-0.57601994
61.90682
-0.60765086
57.989475
-0.6342683
53.333253
-0.65269952
47.96121
-0.65946017
41.987141
-0.65127357
35.624555
-0.62580507
29.170925
-0.58244746
22.964523
-0.52287598
17.323438
-0.45108444
12.486722
-0.37277773
8.5780444
-0.29427578
5.6017883
-0.22130624
3.4671354
-0.15808051
2.0264123
-0.10687141
1.1133036
-0.068082701
0.57176285
-0.040654634
0.2727152
-0.022619096
0.11992517
-0.011653486
0.048234285
-0.005532535
0.017595062
-0.0024210126
0.0057710542
-0.00099302319
0.001687204
-0.00040662973
0.00043592685
-0.00019309315
9.8736307e-05
-0.00012473998
1.9471769e-05
-0.00010566865
3.3390758e-06
-0.00010106717
5.1118101e-07
-0.0001001139
8.2816826e-08
-9.9945068e-05
2.2920947e-08
-9.9919204e-05
1.275139e-08
-9.9915286e-05
8.264849e-09
-9.9914193e-05
5.9911134e-09
-9.9913423e-05
3.6579587e-09
-9.9912696e-05
2.7813769e-09
-9.9912075e-05
1.3762305e-09
-9.991146e-05
1.3297103e-09
-9.9911054e-05
2.6121671e-11
-9.9910603e-05
-1.7721035e-09
-9.9910458e-05
-9.9910528e-05
74.9239
-0.23373638
74.314417
-0.2481534
73.656819
-0.26415598
72.937089
-0.28188322
72.135311
-0.30145816
71.22387
-0.32296803
70.165427
-0.34643429
68.910894
-0.37176926
67.397812
-0.39871602
65.549931
-0.42677018
63.279155
-0.45508618
60.491475
-0.48237981
57.098578
-0.50685251
53.036196
-0.52618181
48.288199
-0.53763834
42.911866
-0.5383881
37.055602
-0.52599991
30.958263
-0.49908912
24.922564
-0.45791456
19.264897
-0.40467502
14.255978
-0.34330714
10.073017
-0.27878203
6.7793049
-0.21612947
4.3341017
-0.15953153
2.6233689
-0.11175331
1.4970241
-0.073993269
0.80113015
-0.04607247
0.39948566
-0.026815994
0.18425125
-0.014493963
0.077959453
-0.0072301194
0.029996146
-0.0033182081
0.010400267
-0.0014111535
0.0032196097
-0.00057758888
0.00088183323
-0.00025403472
0.00021183294
-0.0001435506
4.4277346e-05
-0.00011065958
8.0105577e-06
-0.00010219516
1.2632569e-06
-0.00010032664
1.8755498e-07
-9.9975079e-05
3.7343467e-08
-9.9918813e-05
1.6410262e-08
-9.991098e-05
1.0606826e-08
-9.9909834e-05
8.002219e-09
-9.9909512e-05
5.2181068e-09
-9.990924e-05
4.1855791e-09
-9.9909062e-05
2.2205539e-09
-9.9908782e-05
2.1811218e-09
-9.9908658e-05
2.7562429e-10
-9.99084e-05
-1.8816155e-09
-9.9908393e-05
-9.9908508e-05
72.734927
-0.19109309
72.105754
-0.20283396
71.432714
-0.21585978
70.704599
-0.23028808
69.905327
-0.24622769
69.012389
-0.26376508
67.995052
-0.28294349
66.812454
-0.3037321
65.411886
-0.32598255
63.727823
-0.34937076
61.682613
-0.37332437
59.190174
-0.39694137
56.16427
-0.4189154
52.532806
-0.43749703
48.258252
-0.45053599
43.361663
-0.4556572
37.943811
-0.45060761
32.193634
-0.43375568
26.374618
-0.40463381
20.786391
-0.36432797
15.710228
-0.31550988
11.356619
-0.2620248
7.8333856
-0.20814603
5.1429836
-0.15776116
3.2044942
-0.11375921
1.8876379
-0.077756768
1.0460248
-0.050142543
0.54193733
-0.030328763
0.26058818
-0.017090817
0.11533094
-0.008911387
0.046557573
-0.0042771362
0.016980743
-0.0018924879
0.0055415362
-0.00078929069
0.0016025837
-0.0003351321
0.00040688296
-0.00017042607
8.9907218e-05
-0.00011831141
1.7167153e-05
-0.00010405476
2.8293697e-06
-0.00010071065
4.1540519e-07
-0.00010004279
6.6178154e-08
-9.9929614e-05
2.024573e-08
-9.9913099e-05
1.1583937e-08
-9.9910708e-05
8.7557388e-09
-9.9910156e-05
5.6653465e-09
-9.9909781e-05
4.8252704e-09
-9.9909592e-05
2.4781743e-09
-9.9909322e-05
2.6693997e-09
-9.9909248e-05
2.8604246e-10
-9.9909048e-05
-2.0607939e-09
-9.9909103e-05
-9.9909244e-05
70.952281
-0.16076377
70.307941
-0.1706091
69.622502
-0.18152683
68.886713
-0.19361761
68.08718
-0.20697736
67.205
-0.22168732
66.214151
-0.23779866
65.079733
-0.25530953
63.756257
-0.27413221
62.18643
-0.2940484
60.301136
-0.31465173
58.021735
-0.33528055
55.266102
-0.35495021
51.959886
-0.37230503
48.053701
-0.38562325
43.545006
-0.39291895
38.50002
-0.39218098
33.067385
-0.38175579
27.473919
-0.36081281
21.996739
-0.32974864
16.91566
-0.29034645
12.460467
-0.24556561
8.7717539
-0.19899158
5.8879334
-0.15413575
3.7585702
-0.11383132
2.2739628
-0.079892026
1.2980069
-0.053059904
0.69497765
-0.033163115
0.34654717
-0.019376998
0.15960312
-0.010508046
0.067266565
-0.0052549673
0.025689801
-0.0024184612
0.0088007213
-0.0010369537
0.0026770542
-0.00043663495
0.00071593284
-0.00020638954
0.00016676177
-0.00012924847
3.355479e-05
-0.00010688987
5.8045185e-06
-0.00010133343
8.7371143e-07
-0.00010015872
1.2697033e-07
-9.9948637e-05
2.8246229e-08
-9.9916759e-05
1.3265321e-08
-9.9912344e-05
9.7915012e-09
-9.9911558e-05
6.1415365e-09
-9.9911101e-05
5.4420951e-09
-9.9910848e-05
2.6315535e-09
-9.9910503e-05
3.0466494e-09
-9.9910361e-05
1.9136411e-10
-9.9910115e-05
-2.2807419e-09
-9.9910128e-05
-9.9910243e-05
69.45744
-0.1381823
68.801085
-0.14662123
68.105561
-0.15597531
67.363056
-0.16633194
66.562161
-0.17777605
65.686654
-0.1903826
64.714045
-0.20420475
63.613943
-0.21925613
62.34641
-0.23548524
60.860625
-0.25273997
59.094453
-0.27072129
56.975828
-0.28892715
54.427234
-0.30659285
51.374694
-0.32264158
47.762295
-0.33567055
43.571801
-0.34400816
38.84411
-0.34588038
33.695742
-0.3397048
28.321163
-0.32448146
22.973637
-0.3001777
17.924918
-0.26795151
13.414658
-0.23007746
9.6071493
-0.1895524
6.5702845
-0.14950735
4.2808944
-0.11263751
2.649346
-0.080827793
1.5510447
-0.055034543
0.85435522
-0.035374773
0.43975245
-0.021328479
0.20978713
-0.011974495
0.091899625
-0.0062154061
0.036595945
-0.0029696852
0.013108798
-0.0013136633
0.0041790753
-0.00055749548
0.0011733941
-0.00025201062
0.00028729228
-0.00014402127
6.0783823e-05
-0.00011096314
1.1037523e-05
-0.00010228281
1.7244596e-06
-0.00010034433
2.4431821e-07
-9.9978685e-05
4.3021459e-08
-9.992059e-05
1.5655841e-08
-9.9912578e-05
1.1053917e-08
-9.9911458e-05
6.7782549e-09
-9.9911029e-05
6.2303858e-09
-9.9910828e-05
2.9259504e-09
-9.9910524e-05
3.5109439e-09
-9.9910396e-05
1.7007037e-10
-9.9910171e-05
-2.460082e-09
-9.9910176e-05
-9.9910283e-05
68.176136
-0.12077033
67.510042
-0.12812805
66.806192
-0.13628042
66.057873
-0.14530425
65.255207
-0.15527529
64.384044
-0.1662623
63.424636
-0.17831779
62.350125
-0.19146387
61.124964
-0.20567172
59.703545
-0.22083289
58.029501
-0.23672112
56.03648
-0.25294521
53.651497
-0.26889665
50.802213
-0.28370216
47.429274
-0.29620024
43.503823
-0.30497078
39.047939
-0.30845177
34.152492
-0.30516676
28.984023
-0.29405085
23.772622
-0.27480326
18.778514
-0.24813831
14.24492
-0.21580196
10.352949
-0.18029869
7.1944881
-0.14440498
4.7704446
-0.11064511
3.0101952
-0.080904515
1.8010682
-0.05626582
1.0167406
-0.03704581
0.53805502
-0.022952916
0.26480517
-0.013286474
0.12008643
-0.0071312549
0.049669211
-0.0035283251
0.018535296
-0.001611462
0.0061719258
-0.0006956061
0.0018137915
-0.00030736489
0.0004655017
-0.00016305077
0.00010332135
-0.00011653141
1.9672872e-05
-0.00010365939
3.2051549e-06
-0.00010062979
4.5817628e-07
-0.0001000279
6.9831145e-08
-9.9927453e-05
1.9062829e-08
-9.9913176e-05
1.2241628e-08
-9.9911304e-05
7.284102e-09
-9.9910818e-05
6.9245715e-09
-9.991063e-05
3.1913813e-09
-9.9910363e-05
3.9368313e-09
-9.9910254e-05
1.6036368e-10
-9.9910068e-05
-2.6265097e-09
-9.9910088e-05
-9.9910202e-05
67.058994
-0.10697898
66.38486
-0.11348256
65.674039
-0.12068588
64.920692
-0.12865721
64.116155
-0.13746458
63.247925
-0.1471711
62.298449
-0.15782742
61.243709
-0.16946026
60.05172
-0.18205554
58.681152
-0.1955347
57.080472
-0.20972278
55.188284
-0.22430823
52.935853
-0.23879704
50.253058
-0.25246836
47.078961
-0.26434655
43.377434
-0.27321334
39.156363
-0.27769008
34.486005
-0.276415
29.508982
-0.2683151
24.433726
-0.25292308
19.507302
-0.23063544
14.972297
-0.20278819
11.021434
-0.17147698
7.7660403
-0.13915925
5.228151
-0.10817978
3.3548922
-0.080385393
2.0454991
-0.056929321
1.1796648
-0.038267086
0.63964126
-0.024278156
0.32360755
-0.014437192
0.15137534
-0.0079850035
0.064801656
-0.0040797583
0.025107766
-0.0019224484
0.0087046428
-0.00084819814
0.0026696017
-0.00037208879
0.00071627774
-0.00018660234
0.00016640008
-0.00012382518
3.3168836e-05
-0.00010556719
5.6425392e-06
-0.00010104837
8.2793544e-07
-0.00010010455
1.1760944e-07
-9.993923e-05
2.4756001e-08
-9.991482e-05
1.3586486e-08
-9.9911646e-05
7.7566081e-09
-9.9911026e-05
7.5340559e-09
-9.9910815e-05
3.4186518e-09
-9.9910558e-05
4.287526e-09
-9.9910438e-05
1.2552632e-10
-9.9910269e-05
-2.8035168e-09
-9.9910289e-05
-9.9910402e-05
66.071539
-0.095811174
65.390663
-0.10162468
64.673936
-0.10806149
63.916226
-0.11518284
63.109854
-0.12305028
62.243665
-0.13172183
61.301898
-0.14124582
60.262869
-0.15165131
59.097543
-0.16293412
57.768163
-0.17503683
56.227296
-0.18782173
54.417862
-0.20103631
52.275032
-0.21427274
49.73114
-0.22692701
46.724803
-0.23816919
43.21489
-0.2469444
39.198448
-0.25203063
34.729029
-0.25217795
29.928783
-0.24633594
24.986304
-0.2339359
20.134915
-0.21514461
15.61379
-0.19097791
11.623319
-0.16319208
8.2905204
-0.13396194
5.6559055
-0.10545607
3.6830442
-0.079461322
2.2828364
-0.057166003
1.341387
-0.039122626
0.74306158
-0.025339705
0.38524696
-0.015430638
0.18528965
-0.0087668188
0.08183228
-0.0046127528
0.032816924
-0.002239345
0.011810573
-0.0010121531
0.0037695717
-0.00044545524
0.0010546962
-0.00021477855
0.00025587246
-0.00013303633
5.3298894e-05
-0.00010810995
9.4645482e-06
-0.00010163673
1.4365152e-06
-0.00010021797
1.9929513e-07
-9.9957426e-05
3.4411789e-08
-9.9917344e-05
1.5298729e-08
-9.9912063e-05
8.2883541e-09
-9.9911235e-05
8.1213839e-09
-9.9911002e-05
3.6672933e-09
-9.9910763e-05
4.6060191e-09
-9.9910637e-05
9.1756181e-11
-9.9910484e-05
-2.9792535e-09
-9.9910499e-05
-9.9910607e-05
65.188861
-0.086600026
64.502258
-0.091845526
63.780473
-0.097651625
63.018958
-0.10407365
62.210852
-0.11116766
61.346117
-0.11898716
60.410488
-0.12757801
59.384237
-0.13697033
58.240804
-0.14716663
56.945466
-0.15812487
55.454309
-0.16973515
53.714033
-0.18178974
51.663371
-0.19394724
49.237168
-0.205695
46.374303
-0.21631923
43.030216
-0.22489866
39.193586
-0.23034479
34.904308
-0.23151201
30.266982
-0.22738845
25.452196
-0.21734635
20.679578
-0.20138529
16.183055
-0.18026915
12.167702
-0.15547173
8.7731227
-0.12891914
6.0559635
-0.10261249
3.9949572
-0.078267596
2.5123034
-0.057084735
1.5007277
-0.03968452
0.8471976
-0.026174024
0.44890813
-0.016276856
0.22136479
-0.0094725262
0.10056886
-0.0051192009
0.04162364
-0.0025558022
0.015507464
-0.0011842506
0.0051375284
-0.00052645793
0.0014953512
-0.00024752253
0.00037802299
-0.00014430819
8.2135209e-05
-0.00011138672
1.5209845e-05
-0.00010243487
2.3956405e-06
-0.00010037973
3.3342371e-07
-9.9984549e-05
5.0474704e-08
-9.9921111e-05
1.7590563e-08
-9.9912515e-05
8.8732003e-09
-9.9911324e-05
8.666801e-09
-9.9911055e-05
3.9302334e-09
-9.9910835e-05
4.895134e-09
-9.9910707e-05
6.5304177e-11
-9.9910573e-05
-3.147737e-09
-9.9910589e-05
-9.9910694e-05
64.392423
-0.07888522
63.700905
-0.083655871
62.974748
-0.088934838
62.209899
-0.094772487
61.400183
-0.10122014
60.536508
-0.10832733
59.605875
-0.11613746
58.590214
-0.12468088
57.465081
-0.13396476
56.198355
-0.14395843
54.749175
-0.1545732
53.067576
-0.16563605
51.095527
-0.17685772
48.770349
-0.18779834
46.031623
-0.197838
42.832475
-0.20616584
39.155061
-0.21180743
35.028028
-0.21371228
30.54087
-0.2109148
25.847919
-0.20275606
21.155488
-0.18911345
16.691095
-0.17055106
12.662217
-0.14830658
9.2184925
-0.12408777
6.4306302
-0.099739271
4.2913069
-0.076900812
2.733591
-0.056769337
1.6569188
-0.040013232
0.95120858
-0.026815889
0.51391162
-0.016989259
0.25917036
-0.010102175
0.12080531
-0.0055938268
0.051466326
-0.0028666061
0.019798617
-0.0013613943
0.0067916685
-0.00061391215
0.0020517579
-0.00028463572
0.00053935306
-0.00015772963
0.00012201313
-0.00011548685
2.3532174e-05
-0.00010348431
3.8503871e-06
-0.00010060315
5.4571201e-07
-0.00010002388
7.6621869e-08
-9.9926839e-05
2.088361e-08
-9.9913227e-05
9.5508881e-09
-9.9911443e-05
9.1674996e-09
-9.9911106e-05
4.1966175e-09
-9.9910897e-05
5.1485532e-09
-9.9910764e-05
3.8115279e-11
-9.9910644e-05
-3.3121321e-09
-9.991066e-05
-9.9910762e-05
63.668084
-0.072338893
62.972306
-0.076707293
62.242342
-0.081539841
61.474555
-0.086882664
60.663361
-0.092782997
59.800476
-0.099286862
58.873985
-0.10643528
57.867245
-0.11425838
56.757639
-0.12276655
55.515305
-0.1319377
54.102053
-0.1416996
52.470879
-0.15190661
50.566698
-0.16231111
48.329215
-0.17253201
45.698992
-0.18202635
42.627637
-0.19007544
39.09219
-0.19580264
35.111961
-0.19824332
30.763391
-0.19648113
26.18616
-0.18984446
21.573842
-0.17812126
17.146832
-0.16171621
13.113269
-0.14166875
9.6307109
-0.11949486
6.7821131
-0.096894447
4.5729475
-0.075429611
2.9466871
-0.056283754
1.8094898
-0.040158379
1.0544783
-0.02729678
0.5797057
-0.017582586
0.29832219
-0.010658678
0.14233502
-0.0060337045
0.0622682
-0.0031677133
0.024674866
-0.0015407667
0.0087443405
-0.0007065488
0.0027358818
-0.00032580398
0.00074636173
-0.00017333407
0.00017548103
-0.00012048604
3.5199488e-05
-0.00010482638
5.9827821e-06
-0.00010090276
8.7044296e-07
-0.00010007916
1.1802766e-07
-9.9935275e-05
2.5818535e-08
-9.9914333e-05
1.0397663e-08
-9.9911631e-05
9.6449933e-09
-9.9911192e-05
4.4731797e-09
-9.9910987e-05
5.3746627e-09
-9.9910849e-05
1.0570638e-11
-9.991074e-05
-3.4717226e-09
-9.9910755e-05
-9.9910853e-05
63.004819
-0.066720987
62.305322
-0.070744717
61.572017
-0.075194846
60.801632
-0.08011385
59.989089
-0.08554541
59.126803
-0.091532413
58.203802
-0.098113663
57.204684
-0.10531875
56.108422
-0.1131603
54.887136
-0.12162281
53.504994
-0.13064701
51.917634
-0.14010918
50.072657
-0.14979545
47.912042
-0.15937287
45.377495
-0.16836228
42.41969
-0.17612257
39.011634
-0.18186146
35.164833
-0.18469136
30.9444
-0.1837454
26.476814
-0.17835157
21.943574
-0.1682326
17.557557
-0.15366519
13.526235
-0.1355215
10.013334
-0.11514894
7.1124559
-0.094114167
4.8407994
-0.073902258
3.1517619
-0.055676196
1.9581792
-0.040159848
1.1565663
-0.027644077
0.64585156
-0.018071431
0.33848683
-0.011146635
0.16496024
-0.006437693
0.073943681
-0.0034561508
0.030116942
-0.0017199063
0.01100223
-0.00080308788
0.0035578149
-0.00037062519
0.0010053409
-0.0001911019
0.0002452403
-0.00012644369
5.1088285e-05
-0.00010650091
9.0145907e-06
-0.00010129411
1.3519442e-06
-0.00010015471
1.817332e-07
-9.9947293e-05
3.3290285e-08
-9.991594e-05
1.1500859e-08
-9.9911867e-05
1.0113421e-08
-9.9911276e-05
4.760781e-09
-9.9911069e-05
5.5798914e-09
-9.9910927e-05
-1.5525624e-11
-9.9910828e-05
-3.6237366e-09
-9.9910843e-05
-9.9910936e-05
62.393886
-0.0618521
61.691119
-0.065577536
60.954866
-0.069696784
60.182171
-0.074249141
59.368401
-0.079275175
58.50658
-0.084814977
57.586563
-0.090905285
56.594034
-0.097574972
55.50937
-0.10483822
54.306437
-0.11268462
52.951504
-0.12106526
51.40258
-0.12987422
49.60972
-0.1389253
47.517054
-0.14792545
45.067534
-0.15644897
42.21132
-0.16392066
38.918231
-0.16962132
35.193215
-0.17273244
31.091511
-0.17243529
26.727693
-0.16806562
22.271891
-0.15929892
17.929277
-0.14630865
13.905654
-0.12982524
10.369452
-0.11104755
7.4235163
-0.09141996
5.0957832
-0.072352407
3.3490913
-0.054982825
2.1028707
-0.04004938
1.2571669
-0.027881066
0.7120059
-0.018469489
0.37938067
-0.011571516
0.18849767
-0.0068059526
0.086403518
-0.0037298742
0.036097866
-0.0018967398
0.013566816
-0.0009022951
0.0045255871
-0.00041863692
0.0013221953
-0.00021096534
0.00033407967
-0.00013340125
7.2173326e-05
-0.00010854486
1.3208958e-05
-0.00010179344
2.0460248e-06
-0.00010025541
2.7710683e-07
-9.9963993e-05
4.4552599e-08
-9.9918236e-05
1.298759e-08
-9.9912172e-05
1.0585976e-08
-9.9911352e-05
5.0552087e-09
-9.9911133e-05
5.7667832e-09
-9.9910989e-05
-4.1316962e-11
-9.9910898e-05
-3.767897e-09
-9.9910913e-05
-9.9911e-05
61.828243
-0.057595723
61.122584
-0.061060733
60.383716
-0.06489117
59.60896
-0.06912355
58.794075
-0.073795691
57.932625
-0.078945183
57.01519
-0.084606848
56.028419
-0.090808744
54.953931
-0.097566107
53.767151
-0.10487251
52.436223
-0.11268742
50.921301
-0.12091953
49.174685
-0.12940562
47.142538
-0.13788604
44.769099
-0.14598028
42.004337
-0.1531696
38.815546
-0.15879844
35.202131
-0.16211024
31.210689
-0.16233226
26.945046
-0.15881337
22.564662
-0.15119531
18.266983
-0.13956789
14.25537
-0.12454094
10.701745
-0.10718216
7.7169651
-0.088823876
5.3387848
-0.070803483
3.5390077
-0.054230813
2.2435453
-0.039852173
1.3560747
-0.028027326
0.777904
-0.018789213
0.42076624
-0.011939133
0.2127814
-0.00713956
0.099558667
-0.0039876206
0.042585192
-0.0020695862
0.016435001
-0.0010030247
0.0056451007
-0.00046934284
0.0017022943
-0.00023281543
0.00044480778
-0.0001413816
9.9513352e-05
-0.00011099118
1.8870722e-05
-0.00010241722
3.0212223e-06
-0.0001003867
4.1629694e-07
-9.9986687e-05
6.1322019e-08
-9.9921471e-05
1.5047185e-08
-9.9912591e-05
1.1086371e-08
-9.9911439e-05
5.3560938e-09
-9.9911195e-05
5.9380495e-09
-9.9911046e-05
-6.7514864e-11
-9.9910962e-05
-3.9039497e-09
-9.9910977e-05
-9.9911059e-05
61.302142
-0.053846163
60.59391
-0.057082038
59.85271
-0.060658419
59.07611
-0.064609371
58.260214
-0.06897027
57.399065
-0.073776458
56.483891
-0.079060988
55.502199
-0.084851054
54.436718
-0.091162582
53.264268
-0.097992292
51.954686
-0.1053065
50.470066
-0.11302602
48.764773
-0.12100686
46.786884
-0.12901763
44.481943
-0.13671638
41.799962
-0.14363302
38.706238
-0.14916776
35.195469
-0.15261961
31.306663
-0.1532593
27.133921
-0.1504522
22.826718
-0.14381653
18.57485
-0.13337414
14.57866
-0.11963178
11.01255
-0.1035411
7.9942981
-0.086331766
5.5706375
-0.06927167
3.7218683
-0.053440586
2.3802491
-0.039588204
1.4531596
-0.028099194
0.84334456
-0.019041701
0.46244716
-0.012255285
0.23766401
-0.0074402007
0.11332309
-0.0042287576
0.049542975
-0.0022371336
0.019599836
-0.0011042457
0.0069201701
-0.00052223549
0.0021503614
-0.00025650997
0.00058018842
-0.00015038935
0.00013423378
-0.00011386783
2.6345416e-05
-0.00010318173
4.35982e-06
-0.00010055442
6.1468133e-07
-0.00010001688
8.5877033e-08
-9.9925938e-05
1.7944029e-08
-9.9913171e-05
1.1645014e-08
-9.9911543e-05
5.6642974e-09
-9.9911256e-05
6.0976315e-09
-9.9911104e-05
-9.3763585e-11
-9.9911024e-05
-4.0313865e-09
-9.991104e-05
-9.9911116e-05
60.810831
-0.050520418
60.1003
-0.053553286
59.357014
-0.056904632
58.578757
-0.060606339
57.761944
-0.064691605
56.901046
-0.069193747
55.987873
-0.074144178
55.010698
-0.079569215
53.953249
-0.085485207
52.793606
-0.091891378
51.503132
-0.09875969
50.045696
-0.10602109
48.377562
-0.11354789
46.448608
-0.12113273
44.205678
-0.12846682
41.599003
-0.13512234
38.592307
-0.14054855
35.176277
-0.14409443
31.383224
-0.14507149
27.298439
-0.14286369
23.062066
-0.13707347
18.856398
-0.12766735
14.878333
-0.1150637
11.303903
-0.10011116
8.2568522
-0.083945377
5.7921155
-0.067767965
3.8980363
-0.05262748
2.5130705
-0.039273286
1.5483463
-0.028110222
0.90817692
-0.01923668
0.50426278
-0.012525515
0.26301636
-0.0077099179
0.12761561
-0.0044531399
0.056933443
-0.0023984028
0.023051268
-0.0012050559
0.0083526402
-0.00057681467
0.0026704003
-0.00028188157
0.00074288132
-0.00016041194
0.00017750739
-0.0001171972
3.6017023e-05
-0.00010410266
6.1586093e-06
-0.00010076472
8.9132187e-07
-0.00010005627
1.2117998e-07
-9.9931982e-05
2.2036836e-08
-9.9913963e-05
1.2300536e-08
-9.9911667e-05
5.9809263e-09
-9.9911315e-05
6.2477934e-09
-9.9911158e-05
-1.2036805e-10
-9.9911082e-05
-4.1499533e-09
-9.9911098e-05
-9.9911168e-05
60.350343
-0.047552383
59.63775
-0.050404275
58.892588
-0.053555043
58.112839
-0.057034627
57.295195
-0.060874272
56.434514
-0.065105457
55.523125
-0.069758085
54.549999
-0.074857596
53.499763
-0.080420569
52.351636
-0.086448227
51.078376
-0.092917223
49.645469
-0.099767077
48.010938
-0.10688395
46.126354
-0.11408118
43.939844
-0.12107864
41.401985
-0.12748542
38.475273
-0.13279418
35.146961
-0.13639893
31.44344
-0.13764927
27.441996
-0.13594888
23.274058
-0.13089041
19.114617
-0.12239518
15.156809
-0.11080555
11.577588
-0.096878579
8.5058219
-0.081663696
6.0039318
-0.066299552
4.0678685
-0.051802916
2.6421236
-0.03891988
1.6415998
-0.028071579
0.9722904
-0.01938258
0.54608285
-0.012754982
0.2887266
-0.0079509339
0.14236105
-0.0046609842
0.06471832
-0.0025527015
0.026776858
-0.0013046849
0.0099425623
-0.00063260152
0.0032656562
-0.00030874546
0.00093539062
-0.00017142128
0.00023053402
-0.00012099565
4.8304585e-05
-0.00010519475
8.529343e-06
-0.00010102402
1.2693945e-06
-0.00010010675
1.7100787e-07
-9.9940017e-05
2.7807601e-08
-9.9915035e-05
1.310486e-08
-9.9911821e-05
6.3081947e-09
-9.9911373e-05
6.3902684e-09
-9.9911208e-05
-1.4725203e-10
-9.9911135e-05
-4.2595808e-09
-9.9911151e-05
-9.9911216e-05
59.917333
-0.044888861
59.202884
-0.047578505
58.456031
-0.050549489
57.674934
-0.053830006
56.856537
-0.057449539
55.996046
-0.061437901
55.086265
-0.065823595
54.11679
-0.070631202
53.073071
-0.075877387
51.935362
-0.081564979
50.677694
-0.087674557
49.267039
-0.094152924
47.66305
-0.10089815
45.818892
-0.10774145
43.683944
-0.11442767
41.209232
-0.12059834
38.356296
-0.12578466
35.109447
-0.1294213
31.489816
-0.13089335
27.567411
-0.12962475
23.465521
-0.12520283
19.352061
-0.11751212
15.416185
-0.10682932
11.835175
-0.093829865
8.7422753
-0.079484124
6.2067407
-0.064871045
4.2317088
-0.050975458
2.7675379
-0.03853787
1.7329139
-0.027992489
1.0356055
-0.019486671
0.58780263
-0.012948415
0.31469871
-0.008165533
0.15749075
-0.0048527745
0.072859838
-0.0026995826
0.030762441
-0.0014024918
0.011688402
-0.00068914901
0.0039386066
-0.00033690676
0.0011600223
-0.00018337571
0.00029452009
-0.0001252734
6.3657825e-05
-0.00010647146
1.1598861e-05
-0.00010133882
1.7765776e-06
-0.00010017038
2.4008863e-07
-9.9950521e-05
3.5888876e-08
-9.9916474e-05
1.4128076e-08
-9.9912016e-05
6.6510223e-09
-9.9911432e-05
6.5269851e-09
-9.9911256e-05
-1.7444092e-10
-9.9911186e-05
-4.3604769e-09
-9.9911202e-05
-9.9911261e-05
59.508958
-0.042486551
58.792831
-0.045029998
58.044449
-0.047839012
57.262132
-0.05094021
56.443054
-0.054361483
55.582735
-0.058131123
54.67441
-0.062276337
53.708251
-0.066820875
52.670452
-0.071781375
51.542217
-0.077161962
50.298742
-0.082946522
48.908372
-0.089088098
47.33227
-0.095495042
45.525105
-0.10201414
43.437475
-0.10841212
41.020924
-0.11435914
38.236266
-0.11942077
35.065281
-0.1230685
31.524416
-0.12472047
27.677043
-0.12382092
23.638853
-0.11995537
19.570926
-0.11297832
15.658287
-0.1031097
12.078047
-0.09095198
8.96717
-0.077402964
6.4011409
-0.063485103
4.389884
-0.05015144
2.8894502
-0.038135064
1.822303
-0.027880548
1.0980672
-0.019555176
0.62933859
-0.013110067
0.34085089
-0.0083559584
0.17294273
-0.0050291695
0.081321494
-0.0028387973
0.0349927
-0.0014979567
0.013587266
-0.00074604816
0.004690978
-0.00036616655
0.0014188515
-0.00019622226
0.00037065894
-0.00013003456
8.2552e-05
-0.00010794467
1.5508872e-05
-0.00010171564
2.4453899e-06
-0.00010024941
3.3424059e-07
-9.9964041e-05
4.7094726e-08
-9.9918378e-05
1.5461716e-08
-9.9912267e-05
7.0166662e-09
-9.9911495e-05
6.6597045e-09
-9.9911303e-05
-2.0183311e-10
-9.9911234e-05
-4.4526416e-09
-9.991125e-05
-9.9911304e-05
59.12278
-0.040309871
58.405133
-0.04272097
57.655364
-0.045383382
56.871941
-0.0483223
56.052245
-0.051564164
55.192087
-0.055135875
54.285093
-0.059063442
53.321959
-0.063369808
52.289565
-0.06807151
51.169986
-0.073173715
49.93949
-0.078663114
48.567691
-0.084498124
47.017161
-0.090596041
45.243983
-0.096817265
43.199939
-0.10294781
40.837144
-0.10868322
38.115871
-0.11361987
35.015716
-0.11726269
31.548951
-0.11906049
27.772882
-0.11847761
23.7961
-0.11510043
19.77311
-0.10875901
15.884713
-0.099624037
12.307431
-0.08823266
9.1813652
-0.075415999
6.5876798
-0.062143094
4.5427025
-0.049335581
3.0079999
-0.037717675
1.9097957
-0.027742037
1.1596389
-0.01959344
0.67062468
-0.013243762
0.36711382
-0.0085243803
0.18866153
-0.0051909525
0.090068556
-0.002970262
0.03945166
-0.0015906716
0.015635127
-0.00080293281
0.0055237817
-0.00039632746
0.0017136988
-0.00020989892
0.00046011241
-0.00013527743
0.00010548217
-0.0001096245
2.0415418e-05
-0.00010216087
3.3134625e-06
-0.00010034617
4.6051174e-07
-9.9981188e-05
6.2456753e-08
-9.9920867e-05
1.7225933e-08
-9.9912592e-05
7.4151507e-09
-9.9911563e-05
6.7902157e-09
-9.9911349e-05
-2.2919988e-10