/*--------------------------------*- C++ -*----------------------------------*\
| =========                 |                                                 |
| \\      /  F ield         | OpenFOAM: The Open Source CFD Toolbox           |
|  \\    /   O peration     | Version:  4.0                                   |
|   \\  /    A nd           | Web:      www.OpenFOAM.org                      |
|    \\/     M anipulation  |                                                 |
\*---------------------------------------------------------------------------*/
FoamFile
{
    version     2.0;
    format      ascii;
    class       volScalarField;
    location    "2000";
    object      T;
}
// * * * * * * * * * * * * * * * * * * * * * * * * * * * * * * * * * * * * * //

dimensions      [0 0 0 1 0 0 0];

internalField   nonuniform List<scalar> 
5000
(
363.0926
358.56312
353.76054
348.73148
343.53774
338.25536
332.97208
327.78328
322.78636
318.07431
313.72902
309.81534
306.37671
303.43298
300.98069
298.99551
297.4364
296.25078
295.37985
294.76361
294.34502
294.07309
293.90488
293.80627
293.75176
293.72352
293.70987
293.70376
293.70124
293.70029
293.69997
293.69987
293.69984
293.69983
293.69983
293.69983
293.69983
293.69983
293.69983
293.69983
293.69983
293.69983
293.69983
293.69983
293.69983
293.69983
293.69983
293.69983
293.69983
293.69983
378.64967
374.75773
370.58785
366.14041
361.42339
356.45469
351.2645
345.8974
340.4137
334.88951
329.41495
324.0903
319.02011
314.30554
310.03592
306.28041
303.0812
300.45283
298.38295
296.81917
295.68897
294.90984
294.39922
294.08224
293.89665
293.79465
293.74232
293.71739
293.70644
293.70204
293.70043
293.6999
293.69974
293.6997
293.69969
293.69969
293.69969
293.69969
293.69969
293.69969
293.69969
293.69969
293.69969
293.69969
293.69969
293.69969
293.69969
293.69969
293.69969
293.69969
385.48462
381.88652
378.02689
373.89859
369.49827
364.82797
359.89726
354.72563
349.34523
343.80353
338.16534
332.51352
326.94758
321.57921
316.52468
311.8945
307.78165
304.25091
301.33114
299.01184
297.24706
295.96437
295.07658
294.49347
294.1315
293.92013
293.80465
293.74597
293.71842
293.70656
293.70191
293.70026
293.69973
293.69959
293.69955
293.69954
293.69954
293.69954
293.69954
293.69954
293.69954
293.69954
293.69954
293.69954
293.69954
293.69954
293.69954
293.69954
293.69954
293.69954
389.34327
385.9139
382.23499
378.29792
374.09655
369.62842
364.89626
359.90996
354.68893
349.26481
343.68421
338.01105
332.32769
326.73389
321.3427
316.27269
311.63694
307.53026
304.01729
301.12442
298.83771
297.10744
295.85785
294.99931
294.44028
294.09688
293.89893
293.7925
293.73949
293.71521
293.70506
293.70123
293.69992
293.69953
293.69942
293.6994
293.69939
293.69939
293.69939
293.69939
293.69939
293.69939
293.69939
293.69939
293.69939
293.69939
293.69939
293.69939
293.69939
293.69939
391.95138
388.63708
385.08184
381.2766
377.2142
372.89031
368.30465
363.46255
358.37698
353.07092
347.58004
341.95537
336.26542
330.59689
325.05301
319.7486
314.80132
310.31985
306.39085
303.06779
300.36441
298.25486
296.6802
295.55921
294.80081
294.31524
294.02256
293.85746
293.7709
293.72905
293.71054
293.70311
293.70043
293.69957
293.69932
293.69926
293.69925
293.69925
293.69925
293.69925
293.69925
293.69925
293.69925
293.69925
293.69925
293.69925
293.69925
293.69925
293.69925
293.69925
393.90459
390.67699
387.21506
383.5096
379.55299
375.33995
370.86852
366.14144
361.16784
355.96535
350.56256
345.00168
339.34097
333.65634
328.04117
322.60337
317.45891
312.72167
308.49086
304.83852
301.80014
299.37112
297.50991
296.14679
295.19558
294.5656
294.1715
293.93998
293.81314
293.74883
293.7189
293.70624
293.70141
293.69976
293.69927
293.69914
293.69911
293.6991
293.6991
293.6991
293.6991
293.6991
293.6991
293.6991
293.6991
293.6991
293.6991
293.6991
293.6991
293.6991
395.45139
392.29277
388.9051
385.27919
381.40716
377.28316
372.90423
368.27142
363.39136
358.27806
352.95523
347.45878
341.83932
336.16419
330.51818
325.002
319.72753
314.80945
310.35369
306.44472
303.13452
300.43631
298.3247
296.74214
295.60955
294.83822
294.34054
294.03798
293.86582
293.77484
293.73056
293.7109
293.70301
293.70018
293.69928
293.69903
293.69897
293.69896
293.69896
293.69895
293.69895
293.69895
293.69895
293.69895
293.69895
293.69895
293.69895
293.69895
293.69895
293.69895
396.72491
393.62329
390.29703
386.73692
382.935
378.88504
374.58339
370.02996
365.22959
360.19371
354.94244
349.50698
343.93205
338.27814
332.6228
327.06001
321.69686
316.64664
312.01853
307.90527
304.37127
301.44439
299.1136
297.33323
296.03215
295.12527
294.52478
294.14896
293.92805
293.80701
293.74573
293.71733
293.7054
293.7009
293.6994
293.69895
293.69884
293.69881
293.69881
293.69881
293.69881
293.69881
293.69881
293.69881
293.69881
293.69881
293.69881
293.69881
293.69881
293.69881
397.80258
394.74934
391.47519
387.97099
384.22868
380.24183
376.00628
371.52109
366.7898
361.82187
356.63471
351.25583
345.7253
340.09807
334.44552
328.85563
323.43063
318.28135
313.51816
309.23921
305.5183
302.39527
299.8717
297.91302
296.45623
295.42081
294.72002
294.27045
293.99871
293.84506
293.76449
293.72568
293.70869
293.70199
293.69964
293.69891
293.69872
293.69867
293.69866
293.69866
293.69866
293.69866
293.69866
293.69866
293.69866
293.69866
293.69866
293.69866
293.69866
293.69866
398.73346
395.72213
392.49312
389.03736
385.34676
381.41472
377.23672
372.81119
368.14064
363.23304
358.1036
352.77692
347.28929
341.69106
336.04839
330.44393
324.97523
319.7502
314.8791
310.46357
306.58451
303.2916
300.59739
298.47754
296.87705
295.72042
294.92282
294.40019
294.07657
293.8885
293.78678
293.73606
293.71299
293.70352
293.70005
293.69893
293.69861
293.69854
293.69852
293.69852
293.69852
293.69852
293.69852
293.69852
293.69852
293.69852
293.69852
293.69852
293.69852
293.69852
399.55054
396.57607
393.38678
389.97364
386.32858
382.44486
378.3177
373.94504
369.32856
364.47501
359.39788
354.11936
348.67261
343.10411
337.47554
331.86481
326.36512
321.08126
316.12261
311.59293
307.57851
304.13714
301.2909
299.02481
297.2916
296.02092
295.13046
294.53621
294.16045
293.93677
293.81243
293.74849
293.71839
293.70556
293.70067
293.69902
293.69853
293.6984
293.69838
293.69837
293.69837
293.69837
293.69837
293.69837
293.69837
293.69837
293.69837
293.69837
293.69837
293.69837
400.27703
397.33541
394.1815
390.80636
387.20189
383.3613
379.27958
374.95427
370.38641
365.58175
360.55232
355.31833
349.91029
344.37139
338.75943
333.1481
327.62656
322.29647
317.26584
312.63961
308.50815
304.93596
301.95343
299.55409
297.69801
296.3201
295.34085
294.67686
294.24925
293.98928
293.84122
293.76294
293.72492
293.70816
293.70152
293.69919
293.69847
293.69828
293.69823
293.69823
293.69822
293.69822
293.69822
293.69822
293.69822
293.69822
293.69822
293.69822
293.69822
293.69822
400.92986
398.01781
394.89575
391.55481
387.98692
384.1852
380.14449
375.86201
371.33825
366.57813
361.59246
356.39976
351.02831
345.51842
339.92451
334.31652
328.77986
323.41313
318.32268
313.61395
309.3804
305.69208
302.58664
300.06536
298.09525
296.61643
295.55243
294.82081
294.34202
294.04546
293.87288
293.77935
293.73262
293.71135
293.70264
293.69946
293.69844
293.69816
293.69809
293.69808
293.69808
293.69808
293.69808
293.69808
293.69808
293.69808
293.69808
293.69808
293.69808
293.69808
401.5217
398.63649
395.54336
392.23349
388.69881
384.93243
380.92904
376.68559
372.20212
367.48285
362.53755
357.38329
352.0464
346.56471
340.98963
335.38773
329.841
324.44507
319.30446
314.52462
310.20132
306.40922
303.19235
300.55901
298.48279
296.90888
295.764
294.96698
294.43792
294.10478
293.90714
293.79761
293.74148
293.71518
293.70406
293.69986
293.69846
293.69806
293.69796
293.69794
293.69793
293.69793
293.69793
293.69793
293.69793
293.69793
293.69793
293.69793
293.69793
293.69793
402.06228
399.20163
396.13496
392.8535
389.34922
385.61519
381.646
377.43837
372.99195
368.31036
363.40248
358.28411
352.97989
347.52546
341.96956
336.37572
330.82277
325.4035
320.22051
315.37891
310.97616
307.09078
303.77238
301.03569
298.86043
297.19678
295.9747
295.11451
294.53625
294.16674
293.94372
293.81762
293.75148
293.71966
293.70579
293.70039
293.69853
293.69797
293.69782
293.69779
293.69779
293.69779
293.69779
293.69779
293.69779
293.69779
293.69779
293.69779
293.69779
293.69779
402.55922
399.72118
396.67886
393.42356
389.94728
386.24305
382.30539
378.13081
373.71866
369.072
364.19895
359.11421
353.84091
348.41277
342.87612
337.29173
331.73552
326.29758
321.07858
316.18298
311.70948
307.73982
304.3285
301.49613
299.2282
297.4797
296.1839
295.26272
294.63642
294.23091
293.98236
293.83925
293.76259
293.7248
293.70787
293.70107
293.69865
293.6979
293.6977
293.69765
293.69764
293.69764
293.69764
293.69764
293.69764
293.69764
293.69764
293.69764
293.69764
293.69764
403.0186
400.20149
397.18171
393.95063
390.50026
386.82364
382.91519
378.77129
374.39096
369.77684
364.93635
359.88321
354.63924
349.23639
343.71887
338.14492
332.58777
327.13495
321.88516
316.94208
312.40524
308.35906
304.86239
301.94114
299.58627
297.75741
296.39112
295.41109
294.73794
294.29691
294.0228
293.86237
293.77475
293.73059
293.7103
293.70192
293.69884
293.69785
293.69757
293.69751
293.6975
293.69749
293.69749
293.69749
293.69749
293.69749
293.69749
293.69749
293.69749
293.69749
403.44535
400.6477
397.64889
394.44033
391.01407
387.36313
383.48188
379.36656
375.01594
370.43225
365.6223
360.59895
355.38282
350.00431
344.50567
338.94285
333.38658
327.92196
322.64576
317.66072
313.0669
308.95096
305.37557
302.37154
299.9349
298.02979
296.59604
295.5592
294.8404
294.3644
294.06481
293.88684
293.78792
293.73704
293.7131
293.70294
293.6991
293.69783
293.69746
293.69737
293.69735
293.69735
293.69735
293.69735
293.69735
293.69735
293.69735
293.69735
293.69735
293.69735
403.8435
401.06403
398.0848
394.89727
391.49353
387.86659
384.01078
379.92219
375.5994
371.04426
366.26306
361.26786
356.07821
350.72312
345.24304
339.69182
334.13787
328.66399
323.36506
318.34278
313.69747
309.51768
305.86947
302.7881
300.27439
298.29681
296.79843
295.70672
294.94348
294.4331
294.10818
293.91254
293.80204
293.74412
293.71627
293.70415
293.69944
293.69783
293.69735
293.69723
293.69721
293.6972
293.6972
293.6972
293.6972
293.6972
293.6972
293.6972
293.6972
293.6972
404.21639
401.45396
398.49309
395.32529
391.94266
388.33824
384.50628
380.4428
376.14617
371.61791
366.86384
361.89531
356.73091
351.39834
345.93645
340.39714
334.84665
329.36562
324.04707
318.9916
314.29961
310.06118
306.34539
303.19158
300.60508
298.5585
296.99814
295.85342
295.0469
294.50277
294.15273
293.93934
293.81704
293.75181
293.7198
293.70555
293.69987
293.69787
293.69726
293.6971
293.69706
293.69706
293.69705
293.69705
293.69705
293.69705
293.69705
293.69705
293.69705
293.69705
404.56684
401.82044
398.87684
395.72759
392.36483
388.78158
384.97209
380.93227
376.66029
372.15743
367.42902
362.48582
357.34551
352.03463
346.59053
341.06331
335.51721
330.03079
324.69528
319.61012
314.87564
310.58319
306.80451
303.5827
300.92732
298.81495
297.19506
295.99908
295.15043
294.57318
294.19829
293.96715
293.83287
293.76009
293.72371
293.70715
293.70039
293.69795
293.69718
293.69697
293.69692
293.69691
293.69691
293.69691
293.69691
293.69691
293.69691
293.69691
293.69691
293.69691
404.89722
402.16595
399.23864
396.10689
392.76288
389.19962
385.41134
381.39386
377.1452
372.66638
367.96233
363.04322
357.92594
352.63595
347.20923
341.6942
336.15321
330.66289
325.3127
320.20091
315.42764
311.08528
307.24793
303.96214
301.24144
299.06626
297.38914
296.14357
295.25389
294.64417
294.24471
293.99584
293.84946
293.76894
293.72798
293.70896
293.70101
293.69806
293.69711
293.69684
293.69678
293.69676
293.69676
293.69676
293.69676
293.69676
293.69676
293.69676
293.69676
293.69676
405.20954
402.49259
399.58069
396.46551
393.13923
389.5949
385.8267
381.83038
377.60383
373.14782
368.46694
363.5708
358.47557
353.20572
347.79594
342.29312
336.75784
331.26486
325.90197
320.76624
315.95745
311.56884
307.67663
304.33053
301.5478
299.31255
297.58036
296.28678
295.35713
294.71558
294.29185
294.02533
293.86676
293.77833
293.73261
293.71097
293.70173
293.69822
293.69705
293.69672
293.69664
293.69662
293.69662
293.69662
293.69662
293.69662
293.69662
293.69662
293.69662
293.69662
405.50556
402.80218
399.90491
396.80544
393.49599
389.96961
386.22047
382.24424
378.0387
373.60439
368.94557
364.07138
358.99729
353.74686
348.35361
342.86298
337.33386
331.83929
326.46541
321.30809
316.4667
312.03515
308.09153
304.68846
301.84673
299.55396
297.76873
296.42862
295.46003
294.78728
294.33961
294.05552
293.88471
293.78823
293.73759
293.7132
293.70256
293.69843
293.69702
293.6966
293.6965
293.69647
293.69647
293.69647
293.69647
293.69647
293.69647
293.69647
293.69647
293.69647
405.78678
403.09631
400.21294
397.1284
393.83495
390.32565
386.59463
382.63752
378.45198
374.03836
369.40061
364.54741
359.49363
354.26195
348.8848
343.40628
337.88372
332.38846
327.00508
321.82826
316.95687
312.48535
308.49345
305.03648
302.13854
299.79064
297.95425
296.56904
295.56249
294.85915
294.38787
294.08634
293.90325
293.79862
293.74291
293.71563
293.7035
293.69869
293.697
293.69649
293.69636
293.69633
293.69633
293.69632
293.69632
293.69632
293.69632
293.69632
293.69632
293.69632
406.05451
403.37634
400.50621
397.4359
394.1577
390.66466
386.95091
383.01204
378.84559
374.45172
369.83411
365.00104
359.96677
354.75321
349.39176
343.92525
338.40953
332.91437
327.5228
322.32833
317.42927
312.92047
308.88315
305.3751
302.42354
300.02273
298.13697
296.70799
295.66442
294.93111
294.43655
294.11771
293.92234
293.80946
293.74856
293.71827
293.70456
293.699
293.69701
293.69639
293.69622
293.69619
293.69618
293.69618
293.69618
293.69618
293.69618
293.69618
293.69618
293.69618
406.3099
403.64346
400.78599
397.72926
394.4656
390.98809
387.29085
383.36939
379.22118
374.84621
370.2479
365.43414
360.41865
355.22261
349.87646
344.42183
338.9132
333.41879
328.02019
322.80972
317.8851
313.34145
309.26133
305.7048
302.70202
300.25037
298.31693
296.84545
295.76576
295.00306
294.48557
294.14957
293.94193
293.82072
293.75453
293.72111
293.70573
293.69936
293.69703
293.69629
293.69609
293.69604
293.69603
293.69603
293.69603
293.69603
293.69603
293.69603
293.69603
293.69603
406.55396
403.89875
401.05336
398.00962
394.75988
391.29723
387.61576
383.71098
379.58023
375.22337
370.64357
365.84837
360.85099
355.6719
350.34066
344.89778
339.3964
333.90332
328.49871
323.27371
318.32542
313.74916
309.62863
306.02602
302.97426
300.47372
298.49416
296.98141
295.86647
295.07495
294.53486
294.18186
293.96198
293.83239
293.7608
293.72416
293.70701
293.69979
293.69709
293.69621
293.69596
293.6959
293.69589
293.69589
293.69589
293.69589
293.69589
293.69589
293.69589
293.69589
406.78759
404.14313
401.30932
398.27803
395.04162
391.59319
387.92685
384.03804
379.92404
375.58456
371.02254
366.2452
361.26528
356.10261
350.78591
345.35461
339.86063
334.36939
328.95966
323.72145
318.75122
314.14437
309.98565
306.33918
303.24052
300.6929
298.66874
297.11586
295.96649
295.14671
294.58436
294.21451
293.98244
293.84443
293.76736
293.7274
293.70841
293.70027
293.69716
293.69613
293.69583
293.69576
293.69574
293.69574
293.69574
293.69574
293.69574
293.69574
293.69574
293.69574
407.01158
404.37744
401.55474
398.53538
395.31176
391.87698
388.22515
384.35167
380.25376
375.93098
371.38607
366.62594
361.66288
356.51613
351.21359
345.79373
340.30725
334.81825
329.40421
324.154
319.16339
314.52781
310.33292
306.64465
303.50105
300.90807
298.84071
297.2488
296.0658
295.2183
294.63401
294.2475
294.00327
293.85682
293.77421
293.73084
293.70993
293.70081
293.69727
293.69606
293.6957
293.69562
293.6956
293.69559
293.69559
293.69559
293.69559
293.69559
293.69559
293.69559
407.22665
404.60242
401.79039
398.78249
395.57116
392.1495
388.51161
384.65287
380.57042
376.26372
371.73529
366.99176
362.045
356.91368
351.62497
346.21637
340.73745
335.25108
329.83344
324.57229
319.56272
314.90012
310.67095
306.94281
303.75608
301.11936
299.01014
297.38023
296.16438
295.28967
294.68377
294.28076
294.02445
293.86954
293.78131
293.73447
293.71157
293.70142
293.6974
293.696
293.69558
293.69548
293.69545
293.69545
293.69545
293.69545
293.69545
293.69545
293.69545
293.69545
407.43342
404.81873
402.01697
399.0201
395.82058
392.41154
388.78707
384.94252
380.87497
376.58374
372.07121
367.3437
362.41272
357.29638
352.02115
346.62363
341.15234
335.66891
330.24831
324.9772
319.94998
315.26192
311.00021
307.23398
304.00583
301.32689
299.17709
297.51018
296.26219
295.36079
294.7336
294.31426
294.04593
293.88256
293.78867
293.73828
293.71332
293.70209
293.69756
293.69596
293.69547
293.69534
293.69531
293.6953
293.6953
293.6953
293.6953
293.6953
293.6953
293.6953
407.63248
405.02697
402.2351
399.24886
396.06072
392.66384
389.05229
385.22142
381.16821
376.89192
372.39473
367.68272
362.76701
357.66523
352.40315
347.01655
341.5529
336.07269
330.64969
325.36952
320.32583
315.61376
311.32113
307.51848
304.25051
301.53079
299.3416
297.63865
296.35924
295.43163
294.78346
294.34797
294.06769
293.89586
293.79627
293.74227
293.71519
293.70283
293.69776
293.69593
293.69535
293.6952
293.69516
293.69516
293.69516
293.69516
293.69516
293.69516
293.69516
293.69516
407.82434
405.22768
402.44535
399.46935
396.29219
392.90703
389.30796
385.49027
381.45092
377.18905
372.70669
368.00967
363.10876
358.02112
352.77189
347.39602
341.94002
336.46327
331.03839
325.74996
320.6909
315.95617
311.6341
307.79661
304.49033
301.73118
299.50376
297.76567
296.45551
295.50216
294.83331
294.38186
294.08971
293.90942
293.8041
293.74643
293.71717
293.70363
293.69799
293.69591
293.69524
293.69506
293.69502
293.69501
293.69501
293.69501
293.69501
293.69501
293.69501
293.69501
408.00947
405.42136
402.64823
399.68212
396.51556
393.14172
389.55468
385.74973
381.72377
377.47584
373.00782
368.32531
363.43877
358.36488
353.12819
347.76288
342.31453
336.84145
331.41515
326.11919
321.04576
316.2896
311.93952
308.06863
304.72546
301.92818
299.66361
297.89125
296.55099
295.57236
294.88314
294.41589
294.11196
293.92323
293.81214
293.75075
293.71927
293.70449
293.69825
293.6959
293.69514
293.69493
293.69487
293.69486
293.69486
293.69486
293.69486
293.69486
293.69486
293.69486
408.18828
405.60844
402.8442
399.88765
396.73133
393.36843
389.79303
386.00039
381.98737
377.75293
373.2988
368.63036
363.75776
358.69726
353.47282
348.1179
342.67717
337.20794
331.78064
326.47782
321.39095
316.61451
312.23771
308.3348
304.95609
302.12189
299.82122
298.01541
296.64568
295.64221
294.93291
294.45003
294.1344
293.93726
293.82039
293.75524
293.72147
293.70543
293.69854
293.69592
293.69504
293.69479
293.69473
293.69472
293.69472
293.69472
293.69472
293.69472
293.69472
293.69472
408.36118
405.78932
403.03369
400.08639
396.93997
393.58765
390.02351
386.24279
382.2423
378.02092
373.58024
368.92545
364.0664
359.01893
353.80646
348.46175
343.02863
337.56341
332.13547
326.82641
321.72696
316.93131
312.52902
308.59538
305.18238
302.31243
299.97663
298.13819
296.73958
295.71171
294.98261
294.48428
294.15704
293.9515
293.82883
293.75988
293.72379
293.70642
293.69887
293.69594
293.69495
293.69466
293.69459
293.69457
293.69457
293.69457
293.69457
293.69457
293.69457
293.69457
408.5285
405.96439
403.21709
400.27873
397.14191
393.79984
390.2466
386.47742
382.48907
378.28035
373.85272
369.21118
364.3653
359.33052
354.12976
348.79509
343.36953
337.90845
332.48022
327.16548
322.05424
317.24038
312.81373
308.85058
305.4045
302.49988
300.12992
298.25959
296.83269
295.78083
295.03221
294.5186
294.17983
293.96593
293.83746
293.76467
293.7262
293.70749
293.69923
293.69598
293.69486
293.69453
293.69445
293.69443
293.69443
293.69442
293.69442
293.69442
293.69442
293.69442
408.69058
406.13397
403.39474
400.46506
397.33753
394.00539
390.46272
386.70473
382.72815
378.5317
374.11674
369.48808
364.655
359.6326
354.44329
349.1185
343.70046
338.24363
332.81541
327.49552
322.37322
317.54207
313.09214
309.10062
305.62258
302.68436
300.28113
298.37965
296.92502
295.84957
295.0817
294.55298
294.20277
293.98054
293.84625
293.7696
293.72873
293.70862
293.69963
293.69604
293.69478
293.6944
293.6943
293.69428
293.69428
293.69428
293.69428
293.69428
293.69428
293.69428
408.84771
406.29837
403.56698
400.64571
397.5272
394.20468
390.67226
386.92512
382.95997
378.77544
374.37279
369.75664
364.93603
359.9257
354.74758
349.43251
344.02194
338.56946
333.14153
327.81696
322.68428
317.83671
313.36452
309.3457
305.83679
302.86594
300.43031
298.4984
297.01657
295.91792
295.13107
294.5874
294.22584
293.99532
293.85521
293.77467
293.73135
293.70981
293.70007
293.69612
293.69471
293.69428
293.69416
293.69414
293.69413
293.69413
293.69413
293.69413
293.69413
293.69413
409.00017
406.45789
403.73409
400.82099
397.71123
394.39806
390.87559
387.13899
383.18493
379.01199
374.62129
370.01732
365.20885
360.2103
355.04314
349.73761
344.33446
338.88642
333.45903
328.13022
322.9878
318.12462
313.6311
309.58601
306.04724
303.04473
300.57753
298.61584
297.10735
295.98588
295.1803
294.62184
294.24903
294.01025
293.86432
293.77987
293.73407
293.71107
293.70054
293.69622
293.69465
293.69415
293.69402
293.69399
293.69399
293.69399
293.69399
293.69399
293.69399
293.69399
409.1482
406.61277
403.89636
400.99119
397.88993
394.58585
391.07304
387.34668
383.4034
379.24171
374.86266
370.27053
365.4739
360.48685
355.33042
350.03428
344.63848
339.19495
333.76834
328.43568
323.28411
318.40609
313.89213
309.82173
306.25407
303.22081
300.72282
298.73202
297.19736
296.05343
295.22938
294.65629
294.27232
294.02532
293.87357
293.7852
293.73689
293.7124
293.70105
293.69633
293.69459
293.69403
293.69388
293.69385
293.69384
293.69384
293.69384
293.69384
293.69384
293.69384
409.29204
406.76328
404.05404
401.15658
398.06358
394.76833
391.26491
387.54851
383.61571
379.46498
375.09725
370.51667
365.73158
360.75576
355.60983
350.32293
344.93443
339.49546
334.06983
328.73372
323.57354
318.68138
314.14782
310.05303
306.45741
303.39425
300.86624
298.84695
297.2866
296.12058
295.2783
294.69074
294.29569
294.04052
293.88297
293.79064
293.73979
293.71378
293.7016
293.69646
293.69454
293.69392
293.69374
293.6937
293.6937
293.69369
293.69369
293.69369
293.69369
293.69369
409.4319
406.90962
404.20737
401.3174
398.23244
394.94577
391.4515
387.74479
383.82219
379.68212
375.32542
370.75609
365.98226
361.01742
355.88178
350.60396
345.22269
339.78834
334.36387
329.02465
323.85639
318.95075
314.39839
310.28007
306.65736
303.56513
301.00784
298.96066
297.3751
296.18732
295.32705
294.72518
294.31915
294.05584
293.89249
293.79621
293.74279
293.71523
293.70218
293.69661
293.6945
293.6938
293.69361
293.69356
293.69355
293.69355
293.69355
293.69355
293.69355
293.69355
409.56798
407.05202
404.35655
401.47389
398.39675
395.11844
391.63307
387.93578
384.02312
379.89344
375.54748
370.98912
366.22629
361.27218
356.14662
350.87773
345.50363
340.07394
334.65081
329.3088
324.13292
319.21445
314.64403
310.503
306.85404
303.73354
301.14766
299.07317
297.46285
296.25366
295.37562
294.75959
294.34267
294.07127
293.90212
293.80188
293.74588
293.71674
293.70281
293.69678
293.69447
293.69369
293.69347
293.69341
293.6934
293.6934
293.6934
293.6934
293.6934
293.6934
409.70046
407.19065
404.5018
401.62625
398.55673
395.28656
391.80985
388.12176
384.21877
380.09921
375.76374
371.21608
366.46398
361.52036
356.40469
351.1446
345.77759
340.35259
334.93095
329.58645
324.40342
319.47269
314.88493
310.72197
307.04755
303.89953
301.28574
299.18451
297.54987
296.31958
295.42402
294.79397
294.36624
294.0868
293.91188
293.80765
293.74905
293.71831
293.70346
293.69697
293.69445
293.69359
293.69333
293.69327
293.69326
293.69326
293.69326
293.69326
293.69326
293.69326
409.82953
407.32571
404.64331
401.77468
398.71258
395.45035
391.98209
388.30295
384.4094
380.29971
375.97446
371.43725
366.69564
361.76229
356.65631
351.40486
346.04488
340.6246
335.2046
329.85788
324.66811
319.72569
315.12126
310.93711
307.23799
304.06319
301.42213
299.2947
297.63617
296.3851
295.47223
294.82831
294.38986
294.10242
293.92174
293.81353
293.7523
293.71993
293.70416
293.69719
293.69443
293.69348
293.6932
293.69313
293.69311
293.69311
293.69311
293.69311
293.69311
293.69311
409.95533
407.45735
404.78124
401.91937
398.86451
395.61001
392.14999
388.47958
384.59523
380.49518
376.1799
371.6529
366.92155
361.99824
356.90176
351.65883
346.30581
340.89026
335.47204
330.12336
324.92724
319.97366
315.35318
311.14855
307.42547
304.22457
301.55686
299.40376
297.72175
296.45021
295.52025
294.86261
294.41352
294.11812
293.9317
293.8195
293.75563
293.72162
293.70489
293.69742
293.69443
293.69338
293.69307
293.69298
293.69297
293.69296
293.69296
293.69296
293.69296
293.69296
410.07802
407.58574
404.91576
402.06048
399.01268
395.76573
392.31375
388.65186
384.7765
380.68584
376.38031
371.86328
367.14196
362.22849
357.14134
351.90678
346.56065
341.14985
335.73351
330.38312
325.18103
320.21677
315.58085
311.35642
307.61006
304.38374
301.68999
299.51171
297.80662
296.51492
295.56807
294.89685
294.43722
294.1339
293.94175
293.82556
293.75904
293.72336
293.70566
293.69767
293.69444
293.69329
293.69293
293.69284
293.69282
293.69282
293.69282
293.69282
293.69282
293.69282
410.19774
407.71102
405.04703
402.19818
399.15728
395.91769
392.47355
388.81998
384.95339
380.87191
376.5759
372.06862
367.35711
362.45329
357.37528
352.14897
346.80966
341.40361
335.98927
330.63739
325.42967
320.45522
315.80443
311.56083
307.79186
304.54076
301.82154
299.61858
297.8908
296.57921
295.6157
294.93102
294.46093
294.14976
293.95189
293.83171
293.76252
293.72516
293.70647
293.69794
293.69445
293.6932
293.6928
293.6927
293.69268
293.69267
293.69267
293.69267
293.69267
293.69267
410.31462
407.83333
405.17519
402.33262
399.29844
396.06605
392.62958
388.98413
385.12611
381.0536
376.7669
372.26915
367.56724
362.67287
357.60384
352.38565
347.05308
341.6518
336.23955
330.88639
325.67337
320.68916
316.02405
311.76189
307.97095
304.69568
301.95155
299.72438
297.97429
296.64311
295.66312
294.96514
294.48467
294.16567
293.96212
293.83794
293.76608
293.72701
293.70731
293.69824
293.69448
293.69311
293.69267
293.69256
293.69253
293.69253
293.69253
293.69253
293.69253
293.69253
410.42878
407.9528
405.30037
402.46393
399.43634
396.21097
392.78198
389.14447
385.29483
381.23109
376.95349
372.46507
367.77256
362.88745
357.82724
352.61705
347.29115
341.89463
336.48457
331.13031
325.91231
320.91876
316.23985
311.95971
308.14741
304.84857
302.08007
299.82914
298.0571
296.70661
295.71034
294.99918
294.50841
294.18165
293.97242
293.84426
293.7697
293.72891
293.70819
293.69855
293.69452
293.69303
293.69255
293.69242
293.69239
293.69238
293.69238
293.69238
293.69238
293.69238
410.54033
408.06954
405.42269
402.59226
399.57109
396.3526
392.93092
389.30118
385.45972
381.40456
377.13586
372.65657
367.97327
363.09724
358.0457
352.84337
347.52408
342.13232
336.72452
331.36936
326.14666
321.14417
316.45194
312.1544
308.32131
304.99947
302.20712
299.93288
298.13925
296.7697
295.75735
295.03314
294.53217
294.19768
293.9828
293.85064
293.77339
293.73087
293.7091
293.69889
293.69457
293.69295
293.69242
293.69227
293.69224
293.69223
293.69223
293.69223
293.69223
293.69223
410.64939
408.18367
405.54228
402.71771
399.70283
396.49106
393.07654
389.45439
385.62094
381.57417
377.31419
372.84384
368.16956
363.30243
358.25941
353.06483
347.75207
342.36506
336.95961
331.60371
326.37659
321.36554
316.66046
312.34603
308.49273
305.14844
302.33274
300.03562
298.22074
296.83241
295.80416
295.06703
294.55592
294.21375
293.99324
293.8571
293.77714
293.73287
293.71005
293.69924
293.69463
293.69288
293.6923
293.69213
293.6921
293.69209
293.69209
293.69209
293.69209
293.69209
410.75605
408.2953
405.65925
402.84042
399.83169
396.62649
393.21898
389.60425
385.77864
381.74009
377.48863
373.02704
368.36161
363.50322
358.46855
353.28162
347.97531
342.59306
337.19001
331.83354
326.60224
321.583
316.86552
312.53472
308.66174
305.29552
302.45696
300.13738
298.30158
296.89472
295.85076
295.10083
294.57967
294.22987
294.00375
293.86363
293.78096
293.73493
293.71103
293.69962
293.6947
293.69281
293.69218
293.69199
293.69195
293.69194
293.69194
293.69194
293.69194
293.69194
410.86042
408.40452
405.7737
402.96049
399.95777
396.75901
393.35835
389.75089
385.93295
381.90244
377.65935
373.20633
368.54958
363.69976
358.67332
353.49391
348.194
342.81647
337.4159
332.059
326.82379
321.79668
317.06723
312.72055
308.8284
305.44077
302.57982
300.23817
298.38179
296.95664
295.89715
295.13454
294.60342
294.24602
294.01432
293.87023
293.78483
293.73703
293.71204
293.70002
293.69478
293.69275
293.69206
293.69186
293.69181
293.6918
293.69179
293.69179
293.69179
293.69179
410.96257
408.51143
405.88574
403.07802
400.0812
396.88873
393.49478
389.89444
386.08402
382.06139
377.82648
373.38188
368.73363
363.89224
358.87388
353.70188
348.40829
343.03549
337.63743
332.28025
327.04135
322.00671
317.26569
312.90359
308.99278
305.58423
302.70133
300.33801
298.46137
297.01817
295.94333
295.16817
294.62715
294.26221
294.02494
293.87688
293.78876
293.73918
293.71309
293.70044
293.69487
293.69269
293.69194
293.69172
293.69166
293.69165
293.69165
293.69165
293.69165
293.69165
411.06261
408.61612
405.99544
403.19311
400.20206
397.01576
393.62839
390.03502
386.23196
382.21705
377.99017
373.55382
368.91391
364.08079
359.07038
353.90569
348.61836
343.25025
337.85478
332.49743
327.25507
322.2132
317.46101
313.08394
309.15494
305.72594
302.82154
300.43693
298.54032
297.07933
295.9893
295.20171
294.65086
294.27843
294.03562
293.8836
293.79275
293.74137
293.71417
293.70088
293.69498
293.69264
293.69182
293.69158
293.69152
293.6915
293.6915
293.6915
293.6915
293.6915
411.1606
408.71868
406.10291
403.30585
400.32046
397.14021
393.75927
390.17274
386.3769
382.36955
378.15054
373.72228
369.09057
364.26557
359.26298
354.10549
348.82434
343.46092
338.06807
332.71069
327.46507
322.41627
317.65327
313.26166
309.31494
305.86595
302.94047
300.53494
298.61867
297.1401
296.03506
295.23515
294.67456
294.29468
294.04635
293.89037
293.79679
293.74361
293.71529
293.70134
293.69509
293.69259
293.69171
293.69144
293.69137