/*--------------------------------*- C++ -*----------------------------------*\
| =========                 |                                                 |
| \\      /  F ield         | OpenFOAM: The Open Source CFD Toolbox           |
|  \\    /   O peration     | Version:  4.0                                   |
|   \\  /    A nd           | Web:      www.OpenFOAM.org                      |
|    \\/     M anipulation  |                                                 |
\*---------------------------------------------------------------------------*/
FoamFile
{
    version     2.0;
    format      ascii;
    class       volVectorField;
    location    "2000";
    object      U;
}
// * * * * * * * * * * * * * * * * * * * * * * * * * * * * * * * * * * * * * //

dimensions      [0 1 -1 0 0 0 0];

internalField   nonuniform List<vector> 
5000
(
(2.300162e-05 9.049174e-21 0.012837887)
(8.1507923e-05 2.7410281e-20 0.037342549)
(0.00016952486 4.9183401e-20 0.06162545)
(0.00029812759 6.8124515e-20 0.085325266)
(0.00045394642 8.1180874e-20 0.10805666)
(0.00063011141 8.7738247e-20 0.12942881)
(0.00081809614 8.2527778e-20 0.14906821)
(0.0010080199 9.4717349e-20 0.1666444)
(0.0011895226 5.6272704e-20 0.18189605)
(0.0013529218 9.1506509e-20 0.19465419)
(0.0014900056 1.2642998e-19 0.20485907)
(0.001594699 1.1208675e-19 0.21256775)
(0.0016634894 1.3399565e-19 0.2179506)
(0.0016955401 1.5297414e-19 0.22127648)
(0.0016924771 1.7185331e-19 0.22288811)
(0.0016577217 1.6561222e-19 0.22317074)
(0.0015939684 1.6167401e-19 0.22251806)
(0.0015220705 1.459416e-19 0.22130064)
(0.0014228954 -3.8940827e-20 0.21983194)
(0.0013204665 -2.8472556e-19 0.21835478)
(0.001213831 -3.0427448e-19 0.21703188)
(0.0011073391 -2.4706034e-19 0.21594937)
(0.001003342 -2.740022e-19 0.21512956)
(0.00090325725 -2.8639681e-19 0.21454992)
(0.00080745574 -2.9958816e-19 0.21416335)
(0.00071580886 -3.0703973e-19 0.21391583)
(0.00062795311 -2.8615183e-19 0.21375857)
(0.00054356548 -2.32608e-19 0.21365411)
(0.00046250133 -4.3850613e-19 0.2135774)
(0.00038483822 -5.2080159e-19 0.21351373)
(0.00031084566 -6.8680597e-19 0.21345569)
(0.00024092507 -5.795061e-19 0.21340014)
(0.00017554532 -5.5769854e-19 0.21334623)
(0.0001151876 -5.9561435e-19 0.21329404)
(6.0317507e-05 -6.3745874e-19 0.21324404)
(1.1706014e-05 -6.6753579e-19 0.21319678)
(-1.3001278e-05 -7.8288017e-19 0.21315092)
(-3.1935364e-05 -6.827771e-19 0.21310708)
(-6.7565479e-05 -6.1927699e-19 0.21306672)
(-9.5418194e-05 -3.8032739e-19 0.2130301)
(-0.00011735048 -4.4756774e-19 0.21299796)
(-0.00013087761 -5.8236787e-19 0.21296939)
(-0.00013893033 -6.7051015e-19 0.21294522)
(-0.00013899192 -8.7262493e-19 0.21292406)
(-0.00013427394 -5.5952402e-19 0.21290698)
(-0.00012236843 -4.6307829e-19 0.21289226)
(-0.00010655989 -3.9810149e-19 0.2128813)
(-8.4706547e-05 -3.3920736e-19 0.21287206)
(-6.0038624e-05 -3.1916032e-19 0.21286657)
(-3.113536e-05 -3.1629776e-19 0.21286032)
(2.1271321e-05 6.1341522e-21 0.011175242)
(4.1002462e-05 1.8644526e-20 0.032946185)
(0.00011791949 3.2006995e-20 0.055068306)
(0.00020994411 3.8887526e-20 0.077318282)
(0.00032449882 4.8989616e-20 0.099426467)
(0.00045570116 4.9697461e-20 0.12107684)
(0.00059427321 4.8942458e-20 0.14191153)
(0.00072785889 7.989844e-20 0.16154131)
(0.00084240349 7.7115088e-20 0.1795633)
(0.00092292433 5.7385021e-20 0.19558637)
(0.00095529724 4.8261798e-20 0.2092631)
(0.00092840318 1.2027978e-20 0.22032582)
(0.00083627257 1.843862e-20 0.22862214)
(0.00067986093 2.9759889e-20 0.23414416)
(0.00046863616 3.3641701e-20 0.23704518)
(0.00022646436 1.7392979e-20 0.23763787)
(5.9884452e-05 -6.6843994e-21 0.23636934)
(-9.3022799e-05 -4.1122103e-20 0.23378112)
(-0.00034545341 -8.2760588e-20 0.23046322)
(-0.00058600726 -1.3214692e-19 0.22694436)
(-0.00078837043 -2.3204595e-19 0.22363702)
(-0.00094155509 -3.0159123e-19 0.22080709)
(-0.001042956 -3.020794e-19 0.21857405)
(-0.0010961431 -3.0394075e-19 0.21693695)
(-0.0011088144 -3.1686528e-19 0.2158149)
(-0.0010905682 -3.1513528e-19 0.21508946)
(-0.0010509674 -3.0952951e-19 0.21463925)
(-0.00099820986 -2.6747902e-19 0.21436174)
(-0.0009385194 -4.0421396e-19 0.21418207)
(-0.00087614591 -5.5053631e-19 0.21405232)
(-0.00081373416 -6.6186176e-19 0.21394549)
(-0.00075283269 -5.9606847e-19 0.21384838)
(-0.00069427073 -5.8750508e-19 0.21375556)
(-0.00063867575 -6.0124476e-19 0.21366542)
(-0.00058508639 -6.3434262e-19 0.21357779)
(-0.00053990459 -6.7754165e-19 0.21349334)
(-0.00049520382 -8.3161646e-19 0.21341184)
(-0.00044622961 -6.8646634e-19 0.2133325)
(-0.00040714094 -6.1840719e-19 0.21325777)
(-0.00037047698 -4.3830607e-19 0.2131883)
(-0.00033735399 -4.9611921e-19 0.21312493)
(-0.00030476356 -5.831682e-19 0.21306757)
(-0.0002744658 -6.722463e-19 0.2130168)
(-0.00024315211 -8.3539793e-19 0.21297203)
(-0.0002128908 -5.6224847e-19 0.21293393)
(-0.00018034271 -4.6369834e-19 0.21290143)
(-0.00014800603 -3.9790764e-19 0.21287557)
(-0.00011238023 -3.4006718e-19 0.2128545)
(-7.7269188e-05 -3.1881936e-19 0.21284084)
(-3.7270823e-05 -3.1641725e-19 0.21282651)
(1.9584001e-05 -2.8451173e-20 0.01210616)
(-1.6393428e-06 -8.5242495e-20 0.035710265)
(-1.8159343e-05 -1.4713407e-19 0.05971562)
(-4.3872681e-05 -2.0182769e-19 0.083883667)
(-8.181951e-05 -2.6583878e-19 0.10792804)
(-0.00013367713 -3.3805438e-19 0.13151398)
(-0.00020088626 -4.184118e-19 0.15426083)
(-0.00028487392 -4.9618697e-19 0.17574916)
(-0.00038711675 -5.4779607e-19 0.1955339)
(-0.00050914796 -5.6159713e-19 0.21316521)
(-0.00065248154 -5.8497834e-19 0.22821789)
(-0.00081836145 -6.1570535e-19 0.24032947)
(-0.0010071432 -3.9836691e-19 0.24924425)
(-0.0012176701 -2.1034573e-19 0.2548584)
(-0.0014476625 -4.0607867e-20 0.25725731)
(-0.0016974212 1.126986e-19 0.25673491)
(-0.0019390301 2.6359797e-19 0.25378511)
(-0.0021767976 1.2825311e-19 0.24905753)
(-0.0023930764 2.3990381e-19 0.24328592)
(-0.0025731657 4.5847114e-19 0.2371876)
(-0.0027038113 4.9090494e-19 0.2313744)
(-0.002775929 -1.8828819e-20 0.22628529)
(-0.0027862139 -1.8927387e-19 0.22215952)
(-0.0027375911 -2.7188994e-19 0.2190504)
(-0.0026383971 -3.2414204e-19 0.21686949)
(-0.0025005606 -3.5812561e-19 0.21544466)
(-0.0023373338 -3.9281124e-19 0.21457605)
(-0.0021611871 -3.6852616e-19 0.2140783)
(-0.0019823295 -4.2072616e-19 0.21380431)
(-0.0018080553 -6.343232e-19 0.2136518)
(-0.0016428211 -9.1922425e-19 0.21355796)
(-0.0014888348 -3.2188901e-19 0.21348885)
(-0.0013466087 -5.6303518e-19 0.21342843)
(-0.0012165671 -6.0144252e-19 0.21337031)
(-0.0010956193 -6.255437e-19 0.21331232)
(-0.00098584038 -6.2184105e-19 0.21325416)
(-0.00088749111 -4.0216317e-19 0.21319709)
(-0.00079295295 -6.8450173e-19 0.21314112)
(-0.00070757161 -8.6362618e-19 0.21308627)
(-0.00062803197 -5.0939064e-19 0.21303304)
(-0.00055535858 -1.1698997e-19 0.21298237)
(-0.00048678101 -5.7089e-19 0.21293458)
(-0.0004239473 -6.780603e-19 0.2128905)
(-0.00036365069 -9.8027759e-19 0.21285007)
(-0.00030797424 -5.6955733e-19 0.21281438)
(-0.00025306295 -4.6104671e-19 0.21278271)
(-0.00020208558 -3.2613474e-19 0.21275703)
(-0.00014919197 -3.362075e-19 0.21273479)
(-0.00010164568 -1.5019833e-19 0.21272109)
(-4.7048308e-05 -3.146814e-19 0.21270309)
(2.5096035e-06 -7.604505e-20 0.013038132)
(-4.7019332e-06 -2.2968289e-19 0.038504882)
(-2.1105432e-05 -3.83459e-19 0.064456676)
(-5.0398913e-05 -5.5879938e-19 0.090643167)
(-9.4978222e-05 -7.5180484e-19 0.1167609)
(-0.00015714338 -8.9439455e-19 0.14245141)
(-0.00023918089 -9.1954879e-19 0.16730229)
(-0.00034330012 -9.0281336e-19 0.19085265)
(-0.00047152256 -9.1077816e-19 0.21260481)
(-0.00062553689 -8.9698078e-19 0.23204395)
(-0.00080651672 -8.1251979e-19 0.24866748)
(-0.0010148911 -8.4021456e-19 0.26202482)
(-0.0012500346 -9.3628622e-19 0.27176638)
(-0.0015098343 -9.9881481e-19 0.27769764)
(-0.0017901741 -7.954013e-19 0.27983016)
(-0.0020850604 -6.9577607e-19 0.27841751)
(-0.002384605 -5.7968085e-19 0.27396264)
(-0.002676876 -5.3661887e-19 0.26718476)
(-0.0029471916 -5.9389845e-19 0.2589446)
(-0.00317974 -4.4916131e-20 0.25013739)
(-0.0033594815 -7.4001328e-21 0.24157633)
(-0.0034744803 -9.6178273e-20 0.23389447)
(-0.0035180028 -1.8899038e-19 0.22748758)
(-0.0034897566 -2.7056041e-19 0.22250729)
(-0.0033958915 -4.1484643e-19 0.21889852)
(-0.0032477559 -5.5203255e-19 0.21646485)
(-0.0030597683 -8.2367701e-19 0.21494148)
(-0.0028469934 -1.2527301e-18 0.21405868)
(-0.0026230283 -1.1163008e-18 0.21358492)
(-0.0023986411 -8.8142238e-19 0.21334692)
(-0.0021812959 -1.1430797e-18 0.2132303)
(-0.0019755024 -5.2482425e-19 0.21316841)
(-0.0017831245 -5.6611636e-19 0.21312717)
(-0.0016056352 -5.9536694e-19 0.21309157)
(-0.0014417228 -6.0135913e-19 0.21305609)
(-0.0012903088 -5.332985e-19 0.21301898)
(-0.0011534496 -8.5160878e-20 0.21298111)
(-0.0010264032 -9.4908864e-19 0.21294337)
(-0.00091079223 -8.207441e-19 0.2129055)
(-0.00080402801 -4.6881314e-19 0.21286788)
(-0.00070672089 2.1848395e-19 0.21283128)
(-0.00061587414 -5.2787975e-19 0.21279603)
(-0.00053283423 -4.0071203e-19 0.21276285)
(-0.00045397756 -9.2872697e-19 0.21273163)
(-0.00038177446 -5.7104787e-19 0.21270365)
(-0.00031104033 -2.8783516e-19 0.21267777)
(-0.00024711822 -2.9167309e-19 0.2126571)
(-0.00018021441 -3.3242441e-19 0.21263748)
(-0.00012293984 -1.6356303e-19 0.21262664)
(-5.6534376e-05 -3.1285535e-19 0.2126078)
(2.1776493e-06 -3.2217193e-20 0.013873319)
(-4.346421e-06 -9.8451623e-20 0.041016391)
(-1.9520514e-05 -1.6969393e-19 0.068729763)
(-4.6785401e-05 -2.6468849e-19 0.096756276)
(-8.852005e-05 -3.6937583e-19 0.12478182)
(-0.00014710506 -4.8332038e-19 0.15243219)
(-0.00022500955 -5.4616973e-19 0.17927268)
(-0.00032474763 -5.207128e-19 0.20481173)
(-0.00044878566 -4.3955808e-19 0.2285106)
(-0.0005994065 -4.5575052e-19 0.24980117)
(-0.00077852221 -4.6632147e-19 0.26811386)
(-0.00098742203 -4.0744132e-19 0.28291735)
(-0.0012264412 -6.5705451e-19 0.29376994)
(-0.001494537 -9.4093564e-19 0.30037975)
(-0.0017887626 -9.5751335e-19 0.30266653)
(-0.0021037363 -8.8796016e-19 0.30081304)
(-0.0024310632 -8.4198428e-19 0.29529033)
(-0.002759102 -5.477816e-19 0.28684141)
(-0.0030731534 -3.0216801e-19 0.27641498)
(-0.003356407 -5.1686648e-20 0.26505448)
(-0.0035916826 -7.3770457e-20 0.25376325)
(-0.0037637622 -2.9936693e-19 0.24337725)
(-0.0038618085 -3.2330646e-19 0.23447568)
(-0.0038812289 -4.1476016e-19 0.22734733)
(-0.0038244518 -5.6627161e-19 0.22201311)
(-0.0037003838 -7.9480231e-19 0.21829004)
(-0.0035226955 -1.1975689e-18 0.21587498)
(-0.0033073933 -1.8206764e-18 0.2144263)
(-0.0030702998 -1.7168466e-18 0.21362749)
(-0.0028250371 -1.1649186e-18 0.21322479)
(-0.0025818746 -1.0326375e-18 0.21303909)
(-0.0023476646 -8.784842e-19 0.21295859)
(-0.0021258902 -6.4395838e-19 0.21292184)
(-0.0019185229 -5.8511593e-19 0.2128993)
(-0.0017260219 -5.8044942e-19 0.21287895)
(-0.0015467762 -4.8917043e-19 0.21285655)
(-0.0013821413 -2.422851e-19 0.21283175)
(-0.0012294459 -1.1500412e-18 0.21280544)
(-0.0010892584 -5.7495653e-19 0.21277759)
(-0.00095944357 -4.5201862e-19 0.21274864)
(-0.00084072871 1.1649288e-19 0.21271946)
(-0.00073015114 -4.8761134e-19 0.21269053)
(-0.00062932163 -1.6859312e-19 0.21266274)
(-0.00053388334 -6.5099545e-19 0.21263591)
(-0.00044751256 -5.6294493e-19 0.21261184)
(-0.0003625435 -2.9707429e-19 0.21258862)
(-0.00028775382 -3.4764589e-19 0.21257079)
(-0.00020833827 -3.3265711e-19 0.21255238)
(-0.00014205516 -3.398519e-19 0.21254306)
(-6.5514961e-05 -3.1326438e-19 0.2125233)
(1.9215025e-06 2.5472021e-21 0.014602715)
(-3.8357464e-06 8.9945316e-21 0.043215537)
(-1.7284978e-05 6.1585091e-21 0.072480734)
(-4.1533733e-05 7.7662515e-21 0.10213764)
(-7.8794948e-05 5.001114e-21 0.13186584)
(-0.00013133485 -4.475954e-20 0.16128105)
(-0.0002015648 -1.6614502e-19 0.18993346)
(-0.00029202077 -2.7306391e-19 0.21730973)
(-0.00040530163 -3.5548072e-19 0.24284079)
(-0.00054396823 -4.3189124e-19 0.26591737)
(-0.00071039271 -5.257109e-19 0.28591592)
(-0.00090654159 -5.1417019e-19 0.30223681)
(-0.0011336716 -5.8174713e-19 0.31435594)
(-0.00139192 -7.217733e-19 0.32188799)
(-0.001679778 -7.0721661e-19 0.32465574)
(-0.0019934695 -5.7921326e-19 0.32275413)
(-0.002326306 -3.8473632e-19 0.31659274)
(-0.0026681869 -1.2286503e-19 0.30689836)
(-0.0030054895 3.536318e-19 0.29466351)
(-0.0033216312 4.3155511e-19 0.28104004)
(-0.0035984813 4.3035332e-19 0.26719427)
(-0.0038185466 -4.3280497e-20 0.25415606)
(-0.0039675391 -2.8460496e-19 0.24269805)
(-0.0040367076 -4.5261388e-19 0.23327186)
(-0.0040243084 -6.760346e-19 0.22600907)
(-0.0039358124 -9.0555234e-19 0.22077651)
(-0.0037827924 -1.1885543e-18 0.21726367)
(-0.0035807869 -1.4194355e-18 0.21507786)
(-0.0033466752 -1.3748242e-18 0.21382646)
(-0.0030962069 -1.1890581e-18 0.21317363)
(-0.0028421938 -9.8008672e-19 0.2128672)
(-0.0025938496 -8.101369e-19 0.21273977)
(-0.0023566336 -6.7028935e-19 0.2126932)
(-0.0021332363 -5.8299503e-19 0.21267698)
(-0.0019250328 -5.6203609e-19 0.21266867)
(-0.0017308721 -4.7979642e-19 0.21265974)
(-0.001551213 -3.631763e-19 0.21264802)
(-0.0013841375 -1.033672e-18 0.21263376)
(-0.0012297272 -6.2105401e-19 0.21261692)
(-0.0010858365 -3.6191454e-19 0.21259785)
(-0.00095330063 3.3524176e-20 0.21257735)
(-0.00082892643 -4.6396161e-19 0.21255584)
(-0.00071512467 -3.9507888e-19 0.21253445)
(-0.00060632352 -6.6114374e-19 0.21251268)
(-0.00050853392 -5.6107955e-19 0.21249308)
(-0.0004108543 -4.7699348e-19 0.21247285)
(-0.00032638693 -3.7545408e-19 0.21245796)
(-0.00023559048 -3.3339906e-19 0.21244112)
(-0.00016042795 -3.3296547e-19 0.2124331)
(-7.4343387e-05 -3.1348822e-19 0.21241259)
(1.7307845e-06 2.4487284e-20 0.015259148)
(-3.4806448e-06 7.3992726e-20 0.045196767)
(-1.5701925e-05 1.2004935e-19 0.075863471)
(-3.7774661e-05 1.8320346e-19 0.10699649)
(-7.1753551e-05 2.6169994e-19 0.13827115)
(-0.00011976567 2.8852356e-19 0.169296)
(-0.00018410152 2.3513498e-19 0.19961009)
(-0.00026720756 1.0858095e-19 0.22868372)
(-0.0003716445 7.558371e-21 0.25592451)
(-0.00050001339 4.1437643e-20 0.28069094)
(-0.00065483965 7.6863062e-20 0.30231612)
(-0.00083839816 -2.3536149e-20 0.32014402)
(-0.0010524576 -9.4778658e-20 0.33358005)
(-0.0012979205 -1.5373521e-19 0.34215537)
(-0.0015743383 -4.8061524e-19 0.3456007)
(-0.0018793035 -1.694641e-19 0.34391968)
(-0.0022077631 2.3632541e-19 0.33744601)
(-0.0025513805 1.9329728e-19 0.32686406)
(-0.0028981673 4.9098774e-19 0.31317504)
(-0.0032326775 6.1556891e-19 0.29760102)
(-0.0035370163 6.2830735e-19 0.28143813)
(-0.0037927156 1.2894287e-19 0.26588896)
(-0.0039832248 -1.9035355e-19 0.25191443)
(-0.0040964726 -4.2799758e-19 0.24013955)
(-0.0041268495 -6.3717237e-19 0.23082926)
(-0.0040760903 -7.8261473e-19 0.22392922)
(-0.0039528344 -7.9138943e-19 0.21915074)
(-0.0037709846 -4.6263119e-19 0.21607392)
(-0.0035472683 -6.2075765e-19 0.21424504)
(-0.0032985937 -1.1174009e-18 0.21325134)
(-0.0030397701 -1.0277519e-18 0.21276471)
(-0.0027822019 -5.5529003e-19 0.21255467)
(-0.0025334628 -6.6631249e-19 0.21247807)
(-0.0022975682 -5.1779756e-19 0.21245663)
(-0.0020767043 -1.7533663e-19 0.2124531)
(-0.001870542 -4.3874431e-19 0.21245236)
(-0.0016792368 -3.9990955e-19 0.21244954)
(-0.0015012046 -6.478646e-19 0.21244397)
(-0.0013363928 -8.800337e-19 0.2124355)
(-0.0011824577 -3.434423e-19 0.21242439)
(-0.0010404328 -3.7931221e-20 0.21241144)
(-0.00090636743 -4.5628777e-19 0.21239687)
(-0.00078384146 -6.5930792e-19 0.21238198)
(-0.00066520446 -9.1756763e-19 0.21236578)
(-0.00055942017 -5.7033574e-19 0.21235147)
(-0.00045181253 -6.4128055e-19 0.21233523)
(-0.00035971416 -2.5080709e-19 0.21232409)
(-0.00025967761 -3.2963259e-19 0.2123099)
(-0.00017675431 -1.4698484e-19 0.21230372)
(-8.2481138e-05 -3.1152101e-19 0.2122831)
(1.5800343e-06 1.1396487e-20 0.015856764)
(-3.1863069e-06 3.3723277e-20 0.04700199)
(-1.4388904e-05 6.0125988e-20 0.078948186)
(-3.4647314e-05 1.0089666e-19 0.11143138)
(-6.5875483e-05 1.4819344e-19 0.14412396)
(-0.00011006965 2.0235132e-19 0.17662916)
(-0.00016939703 2.6407686e-19 0.20847752)
(-0.00024619641 2.3783677e-19 0.23912652)
(-0.00034294945 2.2561985e-19 0.2679652)
(-0.00046222565 3.6164655e-19 0.29432597)
(-0.0006065916 5.4248331e-19 0.31750629)
(-0.00077846941 7.1764746e-19 0.33680292)
(-0.00097992323 9.1464619e-19 0.35156087)
(-0.0012123489 8.4828397e-19 0.36123763)
(-0.0014760424 3.9699144e-19 0.36547941)
(-0.0017696338 1.099446e-19 0.36420121)
(-0.0020894108 1.3291881e-19 0.35765552)
(-0.0024286204 -3.5839662e-19 0.34646929)
(-0.0027769356 -7.9776281e-19 0.33162772)
(-0.0031203642 -7.3160536e-19 0.31439232)
(-0.0034418851 -2.430788e-19 0.29615789)
(-0.0037229659 -7.7898228e-20 0.27827503)
(-0.0039458377 -2.3764125e-19 0.26187971)
(-0.0040960895 -3.9708124e-19 0.24777053)
(-0.004164958 -6.0587615e-19 0.23635805)
(-0.0041507318 -7.1966182e-19 0.22768733)
(-0.0040589229 -7.8663446e-19 0.2215157)
(-0.0039011783 -5.6516747e-19 0.2174189)
(-0.0036931984 -2.84417e-19 0.21489955)
(-0.0034521509 -8.5397857e-19 0.21347762)
(-0.0031941453 -8.4178769e-19 0.21275081)
(-0.002932383 -3.4928151e-19 0.21242149)
(-0.0026763415 -5.686485e-19 0.21229467)
(-0.00243157 -4.823902e-19 0.21225772)
(-0.0022011202 -2.3886466e-19 0.21225374)
(-0.0019854519 -3.206814e-19 0.21225801)
(-0.001784778 -9.3299142e-21 0.21226166)
(-0.0015976783 -2.8953047e-19 0.21226254)
(-0.0014242033 -7.6422689e-19 0.21226023)
(-0.0012617322 -2.4938017e-19 0.21225492)
(-0.0011118669 -6.3724362e-20 0.21224748)
(-0.00096954826 -1.4401608e-19 0.21223796)
(-0.00084009906 -1.0088523e-18 0.212228)
(-0.00071325927 -1.1430854e-18 0.21221608)
(-0.00060124806 -5.8590121e-19 0.21220602)
(-0.00048565822 -6.2412475e-19 0.21219326)
(-0.00038736049 -2.6732355e-19 0.21218533)
(-0.00027997836 -3.2619406e-19 0.21217375)
(-0.00019045941 -1.6109718e-19 0.21216925)
(-8.9571729e-05 -3.0951657e-19 0.21214872)
(1.458435e-06 -3.7733993e-20 0.016407257)
(-2.9476412e-06 -1.1043936e-19 0.04866582)
(-1.33206e-05 -1.7853387e-19 0.08179287)
(-3.2095635e-05 -2.5285262e-19 0.11552379)
(-6.1064925e-05 -3.3760832e-19 0.14952886)
(-0.00010210726 -3.6948777e-19 0.18340725)
(-0.00015727388 -3.3500619e-19 0.21668277)
(-0.00022879402 -4.1348063e-19 0.24880252)
(-0.00031905522 -4.7787642e-19 0.27914031)
(-0.00043056157 -5.1945112e-19 0.30700693)
(-0.0005658617 -5.285897e-19 0.33166993)
(-0.00072743271 -5.3726416e-19 0.3523859)
(-0.00091750082 -5.7446051e-19 0.36844769)
(-0.0011377747 -2.8760067e-19 0.37924777)
(-0.0013890643 1.931168e-19 0.38435571)
(-0.0016707658 -4.329411e-19 0.38360283)
(-0.0019802187 -1.0526945e-18 0.37716013)
(-0.0023119958 -1.2318631e-18 0.36558915)
(-0.0026572764 -1.791019e-18 0.34984272)
(-0.003003551 -1.748759e-18 0.33119828)
(-0.0033349512 -1.4031329e-18 0.31112274)
(-0.0036334221 -7.377991e-19 0.29109059)
(-0.003880723 -4.9198859e-19 0.27239628)
(-0.0040609261 -4.2103918e-19 0.25600592)
(-0.0041628515 -3.8330307e-19 0.24248035)
(-0.0041818354 -8.3604176e-19 0.23197738)
(-0.0041204064 -1.3507605e-18 0.22431887)
(-0.0039877265 -1.0960028e-18 0.21909609)
(-0.0037979374 -2.0702778e-19 0.21578539)
(-0.0035677899 -5.9300041e-19 0.2138515)
(-0.0033140698 -4.8039045e-19 0.21282322)
(-0.0030513828 -4.2057533e-19 0.21233494)
(-0.0027908949 -5.2553724e-19 0.21213518)
(-0.0025397468 -5.0047627e-19 0.21207111)
(-0.0023020223 -6.2715362e-19 0.21206127)
(-0.0020789565 -2.7484975e-19 0.21206807)
(-0.0018710288 2.4083059e-19 0.21207689)
(-0.0016768648 -5.9243686e-19 0.21208335)
(-0.0014967273 -5.5145099e-19 0.21208644)
(-0.0013274818 -2.2842643e-19 0.21208617)
(-0.0011715795 -3.3649126e-19 0.21208346)
(-0.0010224571 -2.1965474e-19 0.21207819)
(-0.00088756907 -9.8142422e-19 0.21207233)
(-0.00075384677 -1.1050362e-18 0.2120639)
(-0.00063668431 -5.9321071e-19 0.21205724)
(-0.00051449887 -4.445794e-19 0.21204734)
(-0.00041082793 -4.181967e-19 0.2120419)
(-0.00029743419 -3.2764006e-19 0.21203257)
(-0.00020210712 -3.5298313e-19 0.2120293)
(-9.5721213e-05 -3.0975513e-19 0.21200873)
(1.357979e-06 -2.8518516e-20 0.016918984)
(-2.7495646e-06 -8.4726532e-20 0.050213141)
(-1.24322e-05 -1.4417063e-19 0.084439448)
(-2.9969624e-05 -2.0556624e-19 0.11933301)
(-5.7048859e-05 -2.6856937e-19 0.15456258)
(-9.5445401e-05 -3.3019905e-19 0.18972415)
(-0.00014710548 -3.8913047e-19 0.224336)
(-0.00021415521 -4.5562035e-19 0.25783667)
(-0.00029888718 -5.1174852e-19 0.28958719)
(-0.00040372823 -5.5316757e-19 0.31888)
(-0.00053118129 -5.7095316e-19 0.34495712)
(-0.00068372911 -5.3278129e-19 0.36704047)
(-0.00086368248 -5.23617e-19 0.38437731)
(-0.0010729489 -6.7348277e-19 0.39630244)
(-0.0013126964 -7.6595512e-19 0.40231603)
(-0.0015828882 -8.4176454e-19 0.40217139)
(-0.0018816823 -1.0383706e-18 0.39596012)
(-0.0022047358 -1.1629798e-18 0.38417483)
(-0.0025445325 -1.2310721e-18 0.36772531)
(-0.0028899488 -1.3318757e-18 0.34788752)
(-0.0032263447 -1.3274038e-18 0.32617872)
(-0.003536433 -9.749637e-19 0.30417554)
(-0.0038019939 -7.8308189e-19 0.28331369)
(-0.00400621 -7.0714926e-19 0.26471749)
(-0.0041361299 -6.559786e-19 0.24909773)
(-0.0041846702 -6.657752e-19 0.23673269)
(-0.0041516797 -9.4214544e-19 0.22752222)
(-0.0040438393 -1.0275234e-18 0.22108935)
(-0.0038734436 -5.915282e-19 0.21690008)
(-0.0036563308 -4.6978281e-19 0.21437655)
(-0.0034093991 -4.2789724e-19 0.21298616)
(-0.0031482148 -4.4539088e-19 0.21229716)
(-0.0028853625 -5.2074044e-19 0.21199906)
(-0.0026295031 -5.1696537e-19 0.21189415)
(-0.0023858842 -5.3388393e-19 0.21187171)
(-0.0021565681 -2.8263234e-19 0.21187782)
(-0.0019424992 4.4172934e-20 0.21189012)
(-0.0017423277 -5.1464354e-19 0.21190105)
(-0.0015567086 -5.7200936e-19 0.21190868)
(-0.0013817944 -2.4399991e-19 0.21191267)
(-0.001221142 -3.7402182e-19 0.21191405)
(-0.0010664058 -2.9423311e-19 0.21191245)
(-0.00092727867 -9.9313672e-19 0.21191013)
(-0.00078797307 -1.0695491e-18 0.21190483)
(-0.00066658571 -5.9992695e-19 0.21190107)
(-0.00053910729 -4.4780103e-19 0.21189381)
(-0.00043079644 -4.1886043e-19 0.21189046)
(-0.00031251888 -3.2920715e-19 0.21188322)
(-0.00021210608 -3.425115e-19 0.21188094)
(-0.00010106435 -3.0994621e-19 0.21186024)
(1.2732126e-06 -5.6827693e-20 0.017398227)
(-2.582474e-06 -1.6894177e-19 0.051662712)
(-1.168147e-05 -2.8757209e-19 0.086919616)
(-2.8170814e-05 -4.1228707e-19 0.12290401)
(-5.3646207e-05 -5.1714439e-19 0.15928356)
(-8.9792031e-05 -6.2663209e-19 0.19565166)
(-0.00013846054 -7.4015425e-19 0.23152204)
(-0.00020168313 -7.4333678e-19 0.26632597)
(-0.0002816616 -7.603547e-19 0.29941355)
(-0.00038074288 -6.9539375e-19 0.33006145)
(-0.00050137166 -4.3851986e-19 0.35748948)
(-0.0006460095 -6.5543554e-20 0.38088923)
(-0.00081700451 3.8432335e-19 0.39946776)
(-0.0010163899 -3.8391909e-20 0.41250831)
(-0.0012455858 -7.7665397e-19 0.41944806)
(-0.0015049792 -8.8724862e-19 0.41996792)
(-0.0017933678 -9.458318e-19 0.41408336)
(-0.0021072913 -3.3977599e-19 0.40221705)
(-0.0024403436 -1.1515496e-19 0.38522908)
(-0.0027826482 3.4253164e-19 0.36438108)
(-0.0031207686 -6.0553989e-19 0.34122321)
(-0.0034383193 -8.7656539e-19 0.31741529)
(-0.0037174096 -1.0213956e-18 0.29451779)
(-0.0039407839 -1.2623367e-18 0.2738025)
(-0.0040942412 -1.7706142e-18 0.25612679)
(-0.0041687697 -1.4485481e-18 0.24189316)
(-0.0041618992 -5.6202012e-19 0.23108881)
(-0.0040779806 -8.1006236e-19 0.22338132)
(-0.0039273644 -1.4167605e-18 0.21824008)
(-0.003724661 -6.4486448e-19 0.2150569)
(-0.003486438 -4.5031825e-19 0.21324635)
(-0.0032287935 -4.6143263e-19 0.21231437)
(-0.0029654265 -4.9339824e-19 0.21189088)
(-0.0027063611 -4.5144916e-19 0.21172988)
(-0.0024580474 -1.9099e-19 0.21168719)
(-0.0022234066 -2.5315079e-19 0.21168907)
(-0.002003998 4.6354035e-21 0.21170314)
(-0.0017984748 1.9029931e-19 0.21171753)
(-0.0016080624 -3.8830336e-19 0.21172889)
(-0.0014280625 -3.1450274e-19 0.21173643)
(-0.0012633228 -1.5736935e-19 0.21174117)
(-0.0011036596 -3.4891341e-19 0.21174261)
(-0.00096089526 -1.2464467e-18 0.2117432)
(-0.00081690639 -1.0529982e-18 0.21174056)
(-0.00069184093 -6.067155e-19 0.21173918)
(-0.00056007191 -4.5353399e-19 0.21173425)
(-0.00044770547 -4.1926513e-19 0.21173265)
(-0.00032544855 -3.3027641e-19 0.21172729)
(-0.00022063815 -3.3605158e-19 0.21172585)
(-0.00010567121 -3.1027092e-19 0.21170493)
(1.2005092e-06 -2.2807245e-20 0.01784968)
(-2.4386797e-06 -6.850015e-20 0.053028595)
(-1.103476e-05 -1.1445225e-19 0.089257201)
(-2.6619677e-05 -1.578812e-19 0.12627073)
(-5.0709107e-05 -2.1814059e-19 0.16373604)
(-8.4906823e-05 -2.7164576e-19 0.20124444)
(-0.00013098101 -3.2352893e-19 0.2383058)
(-0.00019087684 -3.7029679e-19 0.27434514)
(-0.00026671115 -3.9520548e-19 0.3087031)
(-0.00036075302 -3.7524199e-19 0.34064253)
(-0.00047538448 -2.8716984e-19 0.36936374)
(-0.00061303141 -3.1159819e-19 0.3940315)
(-0.00077605093 -3.0443104e-19 0.41381697)
(-0.00096655471 -3.6310699e-19 0.42795704)
(-0.0011861431 -5.1408067e-19 0.43583145)
(-0.0014355239 -5.9091869e-19 0.43705398)
(-0.0017139993 -6.4369004e-19 0.43156759)
(-0.0020188307 -6.1630307e-19 0.41972563)
(-0.0023445515 -5.0906574e-19 0.40233436)
(-0.0026823883 -2.8752819e-19 0.38063172)
(-0.0030200332 -5.0375865e-19 0.35618682)
(-0.0033420436 -8.0727251e-19 0.33072642)
(-0.0036310407 -9.3149466e-19 0.30592058)
(-0.0038696455 -1.0663345e-18 0.28317747)
(-0.0040428093 -1.2078792e-18 0.26349591)
(-0.0041400119 -1.2447128e-18 0.24740363)
(-0.0041568191 -1.0153265e-18 0.23498144)
(-0.0040954682 -7.5472029e-19 0.22595131)
(-0.0039643928 -7.5964228e-19 0.21979755)
(-0.0037768078 -7.1315835e-19 0.21589279)
(-0.0035486329 -4.9104047e-19 0.21360765)
(-0.0032961294 -4.7351741e-19 0.21239087)
(-0.0030338088 -4.9269819e-19 0.21181382)
(-0.0027728689 -4.5096248e-19 0.21158012)
(-0.0025209439 -2.7569963e-19 0.21150861)
(-0.0022818246 -2.0649303e-19 0.21150231)
(-0.0020578088 -7.2058324e-20 0.21151646)
(-0.0018475338 1.0973499e-19 0.21153353)
(-0.0016529304 -2.9556116e-19 0.21154814)
(-0.0014683728 -3.2433057e-19 0.21155879)
(-0.0013000389 -1.7763226e-19 0.21156646)
(-0.0011360281 -5.0960848e-19 0.21157056)
(-0.0009899831 -1.1752967e-18 0.21157357)
(-0.00084199148 -1.0359224e-18 0.21157324)
(-0.00071356143 -6.1285219e-19 0.21157379)
(-0.00057820963 -4.5949548e-19 0.21157089)
(-0.00046220459 -4.1909914e-19 0.2115707)
(-0.0003366082 -3.3169033e-19 0.21156698)
(-0.00022795846 -3.3276224e-19 0.2115662)
(-0.00010964092 -3.1049274e-19 0.21154494)
(1.13734e-06 -2.5272978e-22 0.018277043)
(-2.3134334e-06 3.7649969e-23 0.054321881)
(-1.0470853e-05 2.5655872e-21 0.091471022)
(-2.5266119e-05 1.0515359e-20 0.12945999)
(-4.8144116e-05 -2.0537867e-20 0.16795507)
(-8.0636791e-05 -4.770748e-20 0.20654586)
(-0.00012443649 -6.9864661e-20 0.24473893)
(-0.00018140998 -2.0141636e-19 0.28195387)
(-0.00025359564 -3.3121435e-19 0.31752299)
(-0.00034318807 -3.827651e-19 0.35069695)
(-0.00045250557 -5.968737e-19 0.38065872)
(-0.00058393095 -8.8808635e-19 0.40654908)
(-0.00073981301 -1.2145775e-18 0.42750695)
(-0.00092231005 -1.0801717e-18 0.44272719)
(-0.0011331512 -5.0191891e-19 0.45153696)
(-0.0013732906 -4.8791782e-19 0.45348767)
(-0.0016424331 -3.5556052e-19 0.44845357)
(-0.0019384338 -7.2850624e-19 0.43672003)
(-0.0022566235 -7.2879392e-19 0.41903725)
(-0.0025891966 -9.5223272e-19 0.39661261)
(-0.0029248831 -2.1879797e-19 0.37102298)
(-0.003249174 -5.7640433e-19 0.34404828)
(-0.0035453026 -7.2265122e-19 0.31745444)
(-0.0037959817 -7.092612e-19 0.29277519)
(-0.0039856184 -4.6141769e-19 0.27114466)
(-0.0041025283 -5.7759758e-19 0.25321507)
(-0.0041406351 -1.3794368e-18 0.23916478)
(-0.0041002985 -9.3872704e-19 0.22877757)
(-0.0039881328 -3.4879552e-19 0.22156215)
(-0.0038158912 -5.6095789e-19 0.21688185)
(-0.0035986332 -4.7612296e-19 0.2140719)
(-0.0033524855 -4.7268772e-19 0.21252968)
(-0.0030924902 -4.7700838e-19 0.21177027)
(-0.0028308106 -4.5413556e-19 0.21144604)
(-0.0025762036 -5.8140209e-19 0.21133607)
(-0.0023333205 -2.3964409e-19 0.21131703)
(-0.0021052988 -1.1851932e-19 0.2113293)
(-0.0018907648 -2.9597401e-19 0.21134822)
(-0.0016924443 -5.0969428e-19 0.21136565)
(-0.0015038015 -2.3074947e-19 0.21137913)
(-0.0013322531 -5.2925719e-19 0.21138944)
(-0.0011644425 -4.8700034e-19 0.21139596)
(-0.0010153987 -8.2568935e-19 0.2114011)
(-0.00086400352 -1.012963e-18 0.21140285)
(-0.00073247826 -6.1780124e-19 0.21140504)
(-0.00059410054 -4.6514567e-19 0.21140395)
(-0.00047481678 -4.193944e-19 0.21140494)
(-0.00034635554 -3.3282401e-19 0.21140266)
(-0.00023432615 -3.312948e-19 0.21140238)
(-0.00011308815 -3.1075453e-19 0.21138068)
(1.0818454e-06 -2.8541518e-20 0.018683302)
(-2.2032224e-06 -8.3699389e-20 0.05555153)
(-9.9744369e-06 -1.435032e-19 0.093576291)
(-2.4073822e-05 -2.0775572e-19 0.1324935)
(-4.5883175e-05 -2.683671e-19 0.17196906)
(-7.6869968e-05 -3.3598328e-19 0.21159113)
(-0.00011865819 -4.048829e-19 0.25086345)
(-0.00017304314 -4.7456139e-19 0.28920083)
(-0.00024199054 -5.6424491e-19 0.3259282)
(-0.00032762483 -6.8138683e-19 0.36028533)
(-0.00043220165 -8.4847154e-19 0.39143962)
(-0.00055805673 -9.1793936e-19 0.41851026)
(-0.00070751936 -1.0804599e-18 0.44060695)
(-0.00088277245 -9.3543204e-19 0.45688624)
(-0.0010856379 -8.032149e-19 0.46662693)
(-0.0013172607 -6.5619462e-19 0.46932237)
(-0.0015776703 -6.5983949e-19 0.46478175)
(-0.0018652134 -7.510346e-19 0.45322437)
(-0.0021759005 -8.4995554e-19 0.43534325)
(-0.0025027747 -9.4148222e-19 0.41231022)
(-0.0028355101 -6.9561433e-19 0.38570101)
(-0.0031604953 -5.9834902e-19 0.35733696)
(-0.0034616254 -6.633177e-19 0.32906761)
(-0.0037218494 -6.6419658e-19 0.3025419)
(-0.0039252587 -6.0396001e-19 0.27902279)
(-0.0040592806 -6.4745923e-19 0.25928497)
(-0.0041164772 -9.7327924e-19 0.24360665)
(-0.0040955602 -9.5093378e-19 0.23183898)
(-0.0040014585 -6.1460807e-19 0.22352275)
(-0.0038444674 -5.4415265e-19 0.21802052)
(-0.0036386555 -4.5191531e-19 0.21464012)
(-0.0033997852 -4.6787784e-19 0.21273361)
(-0.0031431779 -4.7261597e-19 0.21176296)
(-0.0028817532 -4.640742e-19 0.21132945)
(-0.002625295 -4.7515435e-19 0.21117041)
(-0.0023792822 -2.8618088e-19 0.2111334)
(-0.0021477619 -1.5220109e-19 0.21114149)
(-0.001929379 -2.8290204e-19 0.21116132)
(-0.0017276867 -4.3861837e-19 0.21118111)
(-0.0015353477 -3.0882109e-19 0.21119714)
(-0.0013608302 -4.9144227e-19 0.21120982)
(-0.0011896708 -3.7991914e-19 0.21121855)
(-0.0010378202 -8.1245356e-19 0.21122557)
(-0.00088349843 -9.8944855e-19 0.21122921)