/*--------------------------------*- C++ -*----------------------------------*\
| =========                 |                                                 |
| \\      /  F ield         | OpenFOAM: The Open Source CFD Toolbox           |
|  \\    /   O peration     | Version:  4.0                                   |
|   \\  /    A nd           | Web:      www.OpenFOAM.org                      |
|    \\/     M anipulation  |                                                 |
\*---------------------------------------------------------------------------*/
FoamFile
{
    version     2.0;
    format      ascii;
    class       surfaceScalarField;
    location    "3000";
    object      phi;
}
// * * * * * * * * * * * * * * * * * * * * * * * * * * * * * * * * * * * * * //

dimensions      [1 0 -1 0 0 0 0];

internalField   nonuniform List<scalar> 
19800
(
-6.8268224e-18
-1.7442295e-20
-1.000058e-18
-5.5417019e-20
-6.1385093e-18
-1.0314481e-19
-1.2452352e-17
-1.6445707e-19
-1.87682e-17
-2.4229616e-19
-1.564786e-17
-3.4030889e-19
-3.8294776e-17
-4.6291312e-19
-4.0753366e-17
-6.1540945e-19
-4.3377943e-17
-8.0409069e-19
-3.515447e-17
-1.0365222e-18
-5.5914943e-17
-1.3216415e-18
-4.5431923e-17
-1.6701408e-18
-1.6652731e-17
-2.0945846e-18
-3.3165974e-17
-2.6097221e-18
-3.7935767e-17
-3.2327864e-18
-9.0229992e-17
-3.984005e-18
4.7275463e-18
-4.8863327e-18
3.0263442e-17
-5.9669282e-18
3.8995091e-17
-7.2569171e-18
3.6322403e-17
-8.7931185e-18
-1.6405285e-17
-1.0615035e-17
-5.2141068e-17
-1.2768354e-17
7.4734062e-18
-1.5305389e-17
5.1159184e-17
-1.8282575e-17
4.5174856e-18
-2.1763981e-17
6.3591109e-18
-2.5820163e-17
1.4059948e-16
-3.0532689e-17
8.4085634e-17
-3.6005255e-17
1.3009217e-16
-4.2356693e-17
-6.4214164e-20
-4.9813752e-17
-1.9998201e-16
-5.8532082e-17
-2.2890828e-17
-6.8600973e-17
6.7098617e-17
-8.0392099e-17
1.3577979e-16
-9.4327742e-17
-4.8228427e-17
-1.1087527e-16
-2.6721051e-16
-1.3063742e-16
-8.4128428e-17
-1.5430733e-16
1.7707863e-16
-1.8329774e-16
2.1667801e-16
-2.1838054e-16
8.7378954e-17
-2.5909912e-16
5.0779408e-16
-3.0419107e-16
4.5628859e-16
-3.5674597e-16
2.829361e-16
-4.0953337e-16
3.845334e-16
-4.5124772e-16
4.1500879e-16
-4.6066769e-16
5.2038874e-16
-3.9551123e-16
2.0791096e-15
-1.9377148e-16
2.6204979e-15
2.2294067e-16
2.9815556e-15
7.7574461e-16
4.1987328e-15
3.0104138e-16
3.1473041e-15
3.8032477e-16
4.7789533e-15
1.4682702e-15
4.9172227e-15
1.0697819e-15
4.5861013e-15
6.8308193e-16
3.3772543e-15
4.1713801e-16
5.0626965e-15
2.3050743e-16
3.1400357e-15
9.7169534e-17
2.473423e-15
4.762994e-19
4.4957373e-16
-7.0393962e-17
4.2488758e-16
-1.2313676e-16
2.8030918e-16
-1.6364831e-16
-1.112987e-15
-1.9383458e-16
-8.6450521e-16
-2.1431803e-16
-6.0217766e-16
-2.25873e-16
-7.5929115e-16
-2.2925028e-16
-1.2411397e-15
-2.2835931e-16
-1.008403e-15
-2.2356753e-16
-5.4160755e-16
-2.141018e-16
2.79149e-16
-2.0150246e-16
3.3662226e-16
-2.1953064e-17
-1.1425501e-16
-1.9602844e-17
-4.8176436e-16
-1.7675731e-17
-5.3817388e-16
-1.5999412e-17
-2.540875e-16
-1.4552242e-17
-2.1841547e-16
-1.3254618e-17
-3.8509338e-16
-1.2008003e-17
-7.4561839e-16
-1.0831244e-17
-5.5269014e-16
-9.706031e-18
-4.646791e-16
-8.6226391e-18
-5.2634354e-16
-7.6128305e-18
-3.8944087e-16
-6.6840717e-18
-3.2378769e-16
-5.8413431e-18
-5.1632699e-16
-5.0781765e-18
-3.5924772e-16
-4.3781846e-18
-2.1880539e-16
-3.7338745e-18
-1.5825623e-16
-3.1520424e-18
-2.5697854e-16
-2.6362739e-18
-2.5607186e-16
-2.1991152e-18
-8.5871373e-17
-1.8085724e-18
-1.0574201e-16
-1.4666531e-18
-1.1831625e-16
-1.1648161e-18
-1.6946744e-16
-9.0921308e-19
-1.675752e-16
-6.9381508e-19
-1.3248895e-16
-5.13002e-19
-1.0626105e-16
-3.6228159e-19
-7.7587987e-17
-2.3863922e-19
-2.8435343e-17
-1.3734216e-19
3.6914632e-18
-5.4176559e-20
3.7274817e-18
2.0000351e-20
-1.9829276e-19
-1.4990884e-19
-8.3790147e-21
3.8812295e-18
-3.7580027e-20
-4.4477349e-18
-7.9351921e-20
-1.0267381e-17
-1.3271717e-19
-1.4035614e-17
-1.9996238e-19
-1.1562568e-17
-2.8387141e-19
-2.2253107e-17
-3.8768578e-19
-2.686664e-17
-5.151986e-19
-2.9001576e-17
-6.7079162e-19
-7.4321914e-18
-8.5942493e-19
-3.291947e-17
-1.0868417e-18
-1.1545487e-17
-1.3594398e-18
-1.1775386e-17
-1.6844308e-18
-4.9067395e-17
-2.069925e-18
-9.4570084e-17
-2.5247702e-18
-1.7339592e-16
-3.0587128e-18
-2.6790726e-16
-3.6828892e-18
-2.9399175e-16
-4.4091308e-18
-3.3283975e-16
-5.2500866e-18
-3.5366298e-16
-6.2190879e-18
-2.8848242e-16
-1.8456543e-17
-3.0925922e-16
-2.1574023e-17
-2.4382021e-16
-2.5105992e-17
-2.8697894e-16
-2.9096409e-17
-1.9915606e-16
-3.3594683e-17
-1.5317373e-16
-3.8659171e-17
-2.7595641e-16
-4.4352543e-17
-1.0807766e-16
-5.0741897e-17
4.3878539e-17
-5.789222e-17
3.977561e-16
-6.5801416e-17
3.828064e-16
-7.4852618e-17
4.9284842e-16
-8.5533579e-17
6.0441216e-16
-9.7806597e-17
6.6974923e-16
-1.1210616e-16
8.0162883e-16
-1.2918463e-16
8.5275294e-16
-1.5019265e-16
1.3075239e-15
-1.7655156e-16
1.3994621e-15
-2.094265e-16
1.1237838e-15
-2.5110973e-16
1.211729e-15
-3.055105e-16
1.0459508e-15
-3.7481452e-16
8.349314e-16
-4.5928272e-16
9.0734313e-16
-5.5954104e-16
2.1467977e-15
-6.714651e-16
2.6221532e-15
-7.8272028e-16
2.4371548e-15
-8.7134929e-16
2.9262915e-15
-8.9127646e-16
3.7363352e-15
1.5737619e-15
2.4697705e-15
2.3847606e-15
1.370217e-15
2.7384023e-15
-1.3116606e-15
2.6628018e-15
-1.4492609e-15
2.112092e-15
-1.0195927e-16
1.249653e-15
1.6831912e-15
-7.4453257e-16
4.7786444e-15
-6.9501267e-16
4.8113792e-15
-5.5608344e-16
4.1939326e-15
-3.8126797e-16
5.1970683e-15
-2.0577649e-16
6.6624769e-15
-4.8645672e-17
6.316015e-15
8.0877694e-17
5.8317441e-15
1.817925e-16
5.6417974e-15
2.5434744e-16
4.7488459e-15
2.9910824e-16
4.2158739e-15
3.2703018e-16
3.4302112e-15
3.4051335e-16
3.2200082e-15
3.4271445e-16
3.0471403e-15
3.3698509e-16
2.2990153e-15
3.2307125e-16
2.0263946e-15
3.0363928e-16
1.4151408e-15
2.810701e-16
1.4938526e-15
2.5701839e-16
1.4915581e-15
2.3257251e-16
9.6220829e-16
2.0848613e-16
2.5581525e-16
1.8530712e-16
4.6022807e-16
1.6336789e-16
3.6191298e-16
1.4287663e-16
3.4184292e-16
1.240355e-16
4.6154299e-17
1.0692435e-16
1.6960468e-16
9.1562227e-17
-9.0359127e-17
7.7973252e-17
-2.3513802e-16
6.6129112e-17
-1.4790973e-16
5.5943003e-17
-3.6286591e-17
4.7203559e-17
-4.3702165e-17
3.9614857e-17
-1.7402388e-17
3.2956688e-17
-4.1219495e-17
2.7136848e-17
7.5623523e-17
2.2106945e-17
5.0128116e-17
1.783888e-17
8.6068086e-17
1.4254313e-17
7.512952e-17
1.1294826e-17
1.0936607e-16
8.866595e-18
9.2496026e-17
6.922483e-18
4.4109944e-17
5.3866412e-18
1.7788667e-17
4.1876078e-18
2.8234583e-17
3.2666235e-18
2.9892877e-17
2.5519309e-18
1.0547521e-17
2.0029567e-18
-3.571273e-18
1.5868502e-18
1.199765e-17
1.2570032e-18
6.650375e-19
9.9282641e-19
1.5190379e-19
3.7357584e-18
2.7742107e-19
7.8569258e-18
3.3815674e-19
4.3387416e-18
4.173815e-19
3.8591692e-18
5.1694511e-19
1.1310437e-17
6.4458589e-19
4.5496821e-19
8.0725108e-19
1.0865659e-17
1.0136746e-18
6.383712e-18
1.274236e-18
1.2342796e-17
1.600532e-18
7.080783e-18
2.0045877e-18
3.517762e-19
2.4858747e-18
-2.295185e-18
3.0539089e-18
-7.5221286e-18
3.748175e-18
-2.6562991e-17
4.5624391e-18
-5.2029171e-17
5.5098574e-18
-8.8866384e-17
6.605812e-18
-6.0900246e-17
7.8666379e-18
-1.8229829e-17
9.308356e-18
6.4721896e-17
1.0946453e-17
-3.0889368e-17
1.2795737e-17
-6.4312424e-17
1.4871388e-17
-1.619291e-16
1.7189885e-17
-2.4940804e-16
1.9771894e-17
-2.850736e-16
2.2642736e-17
-3.6804827e-16
2.5826884e-17
-4.8654402e-16
2.9337169e-17
-5.7512059e-16
3.3173139e-17
-6.8417333e-16
3.7310168e-17
-9.668958e-16
4.1724563e-17
-1.1947747e-15
4.6737539e-17
-1.2925359e-15
5.2446077e-17
-1.3631772e-15
5.8114111e-17
-1.306096e-15
6.4081701e-17
-1.614863e-15
7.0473338e-17
-1.6392922e-15
7.6126455e-17
-1.958575e-15
8.0846547e-17
-1.9894769e-15
8.3993605e-17
-2.5659011e-15
8.4969468e-17
-3.2545104e-15
8.3823632e-17
-3.7376624e-15
8.1121616e-17
-4.3715824e-15
7.8931256e-17
-4.2504285e-15
8.2937154e-17
-4.6032569e-15
1.0471202e-16
-5.1873761e-15
1.660102e-16
-6.092223e-15
3.051711e-16
-8.8212612e-15
5.8365412e-16
-1.022722e-14
1.0863157e-15
-1.0201588e-14
1.8211363e-15
-1.0987034e-14
2.4005776e-15
-1.0151132e-14
2.3719593e-15
-1.1351147e-14
1.7755001e-15
-1.2902814e-14
1.0258169e-15
-1.4041621e-14
4.5539322e-16
-1.5560261e-14
8.4976191e-17
-1.3668176e-14
-1.4150242e-16
-1.5703963e-14
-2.7311286e-16
-1.5259144e-14
-3.4322312e-16
-1.4815539e-14
-3.7557092e-16
-1.4483367e-14
-3.8456876e-16
-1.4083866e-14
-3.7977882e-16
-1.2080128e-14
-3.660872e-16
-1.1370717e-14
-3.451543e-16
-1.0374516e-14
-7.169176e-16
-9.784591e-15
-6.8902124e-16
-8.9879289e-15
-6.5072496e-16
-7.7049459e-15
-6.0504291e-16
-6.796737e-15
-5.575595e-16
-6.6063344e-15
-5.0979019e-16
-5.8224035e-15
-4.6256073e-16
-5.1204677e-15
-4.1663922e-16
-4.4082693e-15
-3.7265748e-16
-3.7794675e-15
-3.3103794e-16
-3.3424796e-15
-2.9211588e-16
-2.94649e-15
-2.5611654e-16
-2.5818463e-15
-2.231943e-16
-2.1398157e-15
-1.9333614e-16
-1.8780764e-15
-1.6647497e-16
-1.4012916e-15
-1.4251814e-16
-1.0149227e-15
-1.2135647e-16
-1.0053671e-15
-1.0289179e-16
-8.8406756e-16
-8.6947998e-17
-6.1950933e-16
-7.3222302e-17
-5.5089137e-16
-6.1340776e-17
-4.7800332e-16
-5.1006747e-17
-3.4283891e-16
-4.2039428e-17
-2.2702481e-16
-3.4327608e-17
-1.8464708e-16
-2.7773397e-17
-3.4930578e-17
-2.2272616e-17
-1.1689277e-17
-1.7707238e-17
6.3019063e-17
-1.3947811e-17
2.67746e-17
-1.089925e-17
-1.6089347e-17
-8.4521394e-18
4.5051318e-17
-6.5051537e-18
5.9390712e-17
-4.9743478e-18
1.0373938e-17
-3.7649452e-18
-3.0821416e-19
-2.8192389e-18
1.4273715e-17
-2.0912443e-18
1.823868e-17
-1.5370918e-18
-7.6816049e-19
2.4544938e-18
-1.8087999e-19
5.077696e-18
-3.7583307e-19
4.4390429e-18
-5.2833161e-19
4.729191e-18
-7.265132e-19
5.4537098e-18
-9.764788e-19
1.3343816e-17
-1.2921026e-18
2.5347124e-17
-1.6878501e-18
3.4843809e-17
-2.1811817e-18
3.5719177e-17
-2.79266e-18
4.9561571e-17
-3.5456274e-18
8.6012753e-17
-4.4655535e-18
9.1819036e-17
-5.5672296e-18
1.1603833e-16
-6.8775699e-18
1.1302234e-16
-8.4555952e-18
1.3862257e-16
-1.0316883e-17
1.5368244e-16
-1.2498795e-17
1.7330467e-16
-1.5043404e-17
2.5936705e-16
-1.7994737e-17
2.9006586e-16
-2.1400671e-17
3.7397371e-16
-2.5307201e-17
3.8761488e-16
-2.9758354e-17
3.7927914e-16
-3.4799013e-17
4.4871713e-16
-4.0471324e-17
4.8663895e-16
-4.6807776e-17
5.6125958e-16
-5.3834791e-17
6.3311362e-16
-6.1564531e-17
7.2463397e-16
-6.9996364e-17
1.005096e-15
-7.9121752e-17
1.2250507e-15
-8.8921395e-17
1.2394206e-15
-9.9330278e-17
1.3468338e-15
-1.0986707e-16
1.4899484e-15
-1.2019843e-16
1.9805268e-15
-1.3070805e-16
2.2976035e-15
-1.4823261e-16
2.8991195e-15
-1.7199162e-16
3.4741806e-15
-1.986117e-16
3.6207458e-15
-2.2862586e-16
4.0433467e-15
-2.6233947e-16
5.1451708e-15
-3.0002107e-16
4.823412e-15
-3.4170015e-16
5.9499325e-15
-3.8581319e-16
6.7273093e-15
-4.2895781e-16
6.9503935e-15
-4.6374626e-16
8.1513765e-15
-4.7739007e-16
9.9391922e-15
-4.4680403e-16
9.9085219e-15
-3.3568644e-16
9.2030862e-15
-8.560687e-17
1.0052069e-14
3.8332269e-16
1.1500765e-14
1.1011176e-15
8.258858e-15
4.5622561e-15
7.8371701e-15
4.6859084e-15
5.3631672e-15
3.7356388e-15
2.6933911e-15
6.0922412e-16
4.323012e-15
1.2214241e-16
3.9535356e-15
-1.7620427e-16
4.1183256e-15
-3.4033987e-16
5.7151488e-15
-4.1737498e-16
4.2170512e-15
-4.3713269e-16
5.1421561e-15
-4.2587802e-16
5.5263603e-15
-3.977349e-16
4.6848406e-15
-3.6233041e-16
4.4051737e-15
-3.2497314e-16
4.4178095e-15
-2.8879238e-16
4.2521619e-15
-2.5511334e-16
3.7595707e-15
-2.2447763e-16
3.2767372e-15
-1.9688117e-16
3.63241e-15
-1.7214921e-16
2.9653127e-15
-1.5002973e-16
2.550381e-15
-1.3026532e-16
2.4402915e-15
-1.1264347e-16
2.2400186e-15
-9.6870769e-17
2.1071507e-15
-8.3002126e-17
1.5844595e-15
-7.0940923e-17
1.5155999e-15
-6.0491974e-17
1.2686323e-15
-5.1468213e-17
1.1003728e-15
-4.3693573e-17
1.0125176e-15
-3.6996811e-17
7.8973304e-16
-3.1225959e-17
8.4276427e-16
-2.6263812e-17
6.4979946e-16
-2.2009542e-17
6.8993455e-16
-1.8375811e-17
5.1848903e-16
-1.5284077e-17
3.9498671e-16
-1.2663092e-17
3.6212127e-16
-1.0448988e-17
2.689313e-16
-8.5844834e-18
1.6426675e-16
-7.0184355e-18
1.4414858e-16
-5.7070374e-18
9.1450246e-17
-4.6126634e-18
1.0083691e-16
-3.7028297e-18
4.9942121e-17
-2.949463e-18
6.8967897e-17
-2.3278871e-18
7.2103979e-17
-1.8171724e-18
3.9685445e-18
-1.3993514e-18
-1.0619367e-17
-1.0596794e-18
-1.4002028e-17
-7.845495e-19
-1.4758811e-17
-5.6308274e-19
-4.6885056e-18
-3.8617586e-19
1.8733056e-17
-2.4685426e-19
5.2347815e-19
-1.4247559e-19
-5.3665807e-20
3.4610234e-18
-8.1826637e-21
1.4470506e-19
-3.432934e-20
-8.2777018e-18
-7.1798098e-20
-1.3071012e-17
-1.2031984e-19
-5.2868918e-18
-1.814285e-19
-1.9633258e-17
-2.574097e-19
-6.8524156e-18
-3.5094923e-19
-1.6747649e-17
-4.6509657e-19
1.0475593e-17
-6.0331336e-19
-1.2229836e-17
-7.6937501e-19
1.9027677e-19
-9.6736528e-19
-6.6914685e-18
-1.2016078e-18
-2.5389902e-19
-1.476516e-18
1.2279217e-17
-1.796382e-18
-1.7096756e-17
-2.1650623e-18
-2.6550082e-17
-2.5854541e-18
-4.1225033e-17
-3.0587543e-18
-7.3624704e-17
-3.5848722e-18
-9.6042253e-17
-4.1580714e-18
-3.8149754e-17
-4.7705332e-18
-1.2734933e-16
-5.4082227e-18
-8.4928409e-17
-6.0450606e-18
-1.2615938e-16
-6.6422613e-18
-2.5869522e-16
-7.1493003e-18
-3.0670168e-16
-7.4920591e-18
-2.7765587e-16
-7.5733207e-18
-4.5330796e-16
-7.2697169e-18
-4.9658082e-16
-6.4229374e-18
-6.2249844e-16
-4.8503342e-18
-7.8769027e-16
-2.3413934e-18
-8.9641465e-16
1.3427536e-18
-8.8856784e-16
6.4494907e-18
-1.3194058e-15
1.3168164e-17
-1.5745252e-15
2.1633898e-17
-1.4768577e-15
3.1795471e-17
-1.5000669e-15
4.3330308e-17
-2.1066648e-15
5.5574436e-17
-2.9585503e-15
6.7508884e-17
-3.2714114e-15
7.7971478e-17
-3.9303407e-15
7.973655e-17
-4.3298675e-15
8.1740132e-17
-4.8478335e-15
7.8253134e-17
-5.5784983e-15
7.0506794e-17
-6.3886076e-15
4.1509403e-17
-6.7840132e-15
9.98986e-18
-7.2931516e-15
3.5305548e-17
-8.5822278e-15
8.1859224e-17
-8.4526974e-15
2.9589268e-16
-8.8995504e-15
6.215068e-16
-5.7761699e-15
3.2545109e-17
-3.3134925e-16
1.0442682e-16
3.5963869e-15
-7.1949612e-17
3.6020028e-15
-1.2014325e-16
4.12039e-15
-4.1342246e-16
6.0236494e-15
-5.5306311e-16
6.6106338e-15
-5.8731966e-16
6.358566e-15
-5.5797636e-16
5.3679449e-15
-4.9756673e-16
5.2656773e-15
-4.2424947e-16
4.4564641e-15
-3.5244101e-16
4.9644405e-15
-2.8783917e-16
4.6999687e-15
-2.3375664e-16
3.8866195e-15
-1.9024217e-16
2.9957469e-15
-1.5607928e-16
2.9101734e-15
-1.2943341e-16
2.9482063e-15
-1.0872457e-16
2.1692918e-15
-9.2503894e-17
2.0255807e-15
-7.957214e-17
2.2969656e-15
-6.9002706e-17
2.146729e-15
-6.0190574e-17
1.9849443e-15
-5.279335e-17
1.697493e-15
-4.6364635e-17
1.2254185e-15
-4.0707025e-17
1.0227965e-15
-3.5684665e-17
7.6199321e-16
-3.1199688e-17
5.6602283e-16
-2.7190823e-17
2.9336426e-16
-2.3610901e-17
3.1424921e-16
-2.0418587e-17
2.8188745e-16
-1.7581614e-17
1.5195475e-16
-1.5070539e-17
5.8084314e-17
-1.2855828e-17
-8.5582757e-17
-1.091063e-17
-1.8434055e-17
-9.2107724e-18
-5.0801849e-18
-7.7331818e-18
-1.1464642e-16
-6.4549012e-18
-2.3598212e-16
-5.3543829e-18
-2.4267403e-16
-4.4117495e-18
-1.1679275e-16
-3.6085309e-18
-1.695049e-16
-2.9274555e-18
-1.6837095e-16
-2.3531198e-18
-1.7184323e-16
-1.8714002e-18
-1.4530505e-16
-1.46952e-18
-1.1181903e-16
-1.136152e-18
-8.494444e-17
-8.613298e-19
-1.1991667e-16
-6.3627129e-19
-5.0395681e-17
-4.5332617e-19
-5.9177979e-17
-3.0590894e-19
-1.4799433e-17
-1.8856572e-19
1.2970484e-17
-9.7753342e-20
-2.8905158e-20
5.6398301e-18
-1.4382421e-20
-4.6383012e-18
-4.5278449e-20
-1.2768767e-18
-8.6189858e-20
1.0141448e-17
-1.4078292e-19
-4.4461044e-18
-2.1022321e-19
1.8600114e-18
-2.9730803e-19
-9.884921e-18
-4.055956e-19
-1.8732673e-17
-5.393551e-19
-1.6621971e-17
-7.0353969e-19
-8.5734286e-18
-9.0399619e-19
-1.0557034e-17
-1.147534e-18
-1.0244686e-17
-1.4420229e-18
-1.823029e-17
-1.7965325e-18
-5.4155557e-17
-2.2216086e-18
-1.390991e-17
-2.7293396e-18
-3.6317436e-18
-3.3335859e-18
-5.7458596e-18
-4.0499857e-18
-3.0637645e-17
-4.8963977e-18
1.6734504e-18
-5.8928739e-18
-4.9699087e-17
-7.061789e-18
4.9965999e-17
-8.4295588e-18
-1.7274322e-17
-1.0026531e-17
1.0951325e-18
-1.1887804e-17
2.4539015e-18
-1.4054498e-17
-2.3923596e-18
-1.6572846e-17
-1.0989764e-17
-1.9498363e-17
4.5154074e-17
-2.2902496e-17
2.0058706e-17
-2.687864e-17
-9.3922083e-17
-3.1539022e-17
-8.7696203e-17
-3.7036033e-17
1.4079163e-16
-4.3584749e-17
1.3929163e-16
-5.1509429e-17
2.6418609e-16
-6.1236086e-17
2.7874486e-16
-7.3431053e-17
3.8428689e-16
-8.8959431e-17
6.4760889e-16
-1.0907373e-16
1.1928562e-15
-1.3602645e-16
1.5307603e-15
-1.7323359e-16
2.11927e-15
-2.253594e-16
2.7595568e-15
-2.9218834e-16
3.0488531e-15
-3.9056308e-16
3.2458402e-15
-5.2058699e-16
4.1449527e-15
-6.923759e-16
5.4898482e-15
-8.9319134e-16
6.5483742e-15
-1.1282433e-15
9.3213378e-15
-1.4292691e-15
1.1143706e-14
-1.7035556e-15
1.3598871e-14
-2.0034522e-15
1.0887282e-14
2.6834438e-15
7.3426659e-15
3.932643e-15
3.9579506e-15
4.2036443e-15
-1.4865214e-16
3.4244688e-15
-3.0250014e-15
2.5132102e-15
-2.0692929e-15
-1.8285498e-15
1.9661999e-16
-1.544239e-15
6.7158641e-16
-1.2756386e-15
3.4166182e-16
-1.036929e-15
8.8394569e-16
-8.327465e-16
-3.5536168e-16
-6.6252934e-16
1.0041814e-15
-5.2246814e-16
9.9412807e-16
-4.0973144e-16
1.3538934e-15
-3.1978063e-16
2.8389213e-16
-2.5058529e-16
3.6577862e-16
-1.9732303e-16
3.58904e-16
-1.5566117e-16
7.5231784e-17
-1.2193771e-16
-3.994753e-16
-9.4358238e-17
3.4099201e-16
-7.3247883e-17
2.4226862e-16
-5.7968907e-17
-4.8466121e-17
-4.70985e-17
-2.6161931e-17
-3.9387432e-17
2.4641534e-16
-3.3781544e-17
1.0720309e-16
-2.9508098e-17
1.3451821e-16
-2.6068484e-17
2.8858398e-16
-2.3159321e-17
1.0838198e-16
-2.0602556e-17
-5.9914783e-17
-1.8295808e-17
-1.6965774e-16
-1.6184199e-17
-1.121553e-16
-1.4240748e-17
7.2164791e-17
-1.2455129e-17
3.2411793e-16
-1.0822597e-17
2.5324331e-16
-9.3405109e-18
1.5708209e-16
-8.0043297e-18
5.1720734e-17
-6.8093715e-18
3.1603624e-17
-5.7495645e-18
3.9120099e-17
-4.8166148e-18
8.8583865e-17
-4.0016262e-18
2.0260744e-16
-3.2952307e-18
1.7741195e-16
-2.6876723e-18
1.5640133e-16
-2.1686457e-18
2.178799e-17
-1.7284189e-18
6.3086362e-17
-1.3576282e-18
5.5365384e-17
-1.0475672e-18
6.2610378e-17
-7.901549e-19
9.0066671e-17
-5.781256e-19
8.146604e-17
-4.049351e-19
5.0489143e-17
-2.6486005e-19
5.0652541e-17
-1.5349474e-19
9.1510423e-18
-7.0242911e-20
-1.5894e-20
1.9358636e-18
1.9188753e-20
6.6865449e-19
4.1510119e-20
-1.0172704e-17
4.5866023e-20
-1.617952e-17
3.8472945e-20
-1.370132e-17
2.8122589e-20
-1.3318868e-17
1.6986791e-20
-1.4933504e-17
6.1639346e-21
-2.8263345e-17
-3.1588811e-21
-1.0196192e-17
-9.3260859e-21
4.4615664e-18
-1.0608148e-20
2.2171574e-17
-5.0025107e-21
3.7866692e-17
9.2632996e-21
1.0902914e-17
3.4378259e-20
1.5170546e-17
7.473607e-20
3.0390627e-17
1.3383198e-19
2.2740743e-17
2.1221307e-19
-7.7549229e-19
3.05074e-19
-1.2796662e-17
3.8577324e-19
-6.1274787e-17
3.9750963e-19
-6.780097e-17
3.1705807e-19
-8.2737464e-17
1.6966653e-19
-8.1813801e-17
-1.1374473e-19
-1.4795827e-16
-6.9950718e-19
-1.8604254e-16
-1.7609402e-18
-1.6081659e-16
-3.5246157e-18
-1.4780618e-16
-6.2784799e-18
-1.9386241e-16
-1.0376505e-17
-1.493006e-16
-1.6235261e-17
-1.2058275e-17
-2.4294692e-17
1.8333438e-16
-3.5864766e-17
2.7315298e-16
-5.2164988e-17
3.8807485e-16
-7.3359021e-17
5.877097e-16
-1.0066242e-16
5.5393571e-16
-1.1355255e-16
8.8475724e-16
-1.3969321e-16
7.7676947e-16
-1.7283559e-16
1.0944558e-15
-2.1341157e-16
1.4818961e-15
-2.6434569e-16
1.6919711e-15
-3.2733674e-16
2.1737551e-15
-4.0333269e-16
2.688073e-15
-4.9161169e-16
3.8185106e-15
-5.8861168e-16
3.86575e-15
-7.7353201e-16
3.3806068e-15
-8.0644525e-16
1.2689597e-15
-7.8290117e-16
9.6007872e-16
-6.7256184e-16
1.2837766e-15
-4.2633756e-16
-1.6973475e-15
3.2359417e-17
-7.2479917e-16
7.5367942e-16
-1.8981945e-16
1.6085272e-15
1.9022301e-15
1.6996678e-15
4.9168614e-15
8.7325492e-16
6.9240453e-15
1.1014138e-16
4.1006862e-15
-4.1672843e-16
1.5618252e-15
-7.222717e-16
4.3090965e-16
-8.5589892e-16
-1.7418499e-17
-8.8177448e-16
2.0410382e-16
-8.4800096e-16
-4.2843472e-16
-7.8474266e-16
-7.3483672e-16
-7.1076035e-16
-1.9112943e-15
-6.3617926e-16
-3.1458864e-15
-5.6610546e-16
-2.3439806e-15
-4.9712762e-16
-2.6172575e-15
-4.2444679e-16
-2.4599557e-15
-3.6487771e-16
-2.1742272e-15
-3.1547115e-16
-1.6201443e-15
-2.7261971e-16
-1.3414806e-15
-2.3445724e-16
-1.1660525e-16
-2.0027919e-16
1.7335049e-16
-1.6998565e-16
-4.6412382e-16
-1.4348311e-16
-1.2775599e-16
-1.2052449e-16
-1.9914188e-16
-1.0085423e-16
-3.1867603e-16
-8.4123316e-17
-5.9314023e-16
-6.995926e-17
-3.3625306e-16
-5.8031571e-17
-7.0865765e-17
-4.8036132e-17
-7.029703e-17
-3.968136e-17
7.5160961e-18
-3.2712965e-17
2.3337895e-16
-3.1736432e-17
1.2619308e-16
-2.5823285e-17
2.1016255e-16
-2.0967163e-17
2.3401309e-16
-1.6986757e-17
3.9649918e-17
-1.372927e-17
1.243017e-16
-1.1066711e-17
3.0277266e-16
-8.8943292e-18
2.5352441e-16
-7.1243929e-18
2.3429192e-16
-5.6842622e-18
1.7573555e-16
-4.5139842e-18
2.0655601e-16
-3.5644366e-18
1.1167677e-16
-2.7953152e-18
1.1433657e-16
-2.173589e-18
1.4253189e-16
-1.6722639e-18
8.8183244e-17
-1.2692795e-18
7.7920422e-17
-9.4654835e-19
6.9996004e-17
-6.8927087e-19
2.380079e-17
-4.8529041e-19
1.0883305e-17
-3.2467709e-19
2.5766958e-17
-1.9930733e-19
-6.2893229e-20
1.6881663e-19
-8.4141419e-20
-1.3816904e-18
-1.6151601e-19
-6.8701884e-18
-2.2397076e-19
-2.0532413e-17
-3.1904878e-19
-1.0340914e-17
-4.4373051e-19
-1.9029953e-17
-6.0297804e-19
-5.4896325e-18
-8.0437053e-19
1.9040615e-17
-1.055167e-18
-4.9160382e-18
-1.3699717e-18
2.1512072e-17
-1.7603459e-18
2.6504006e-17
-2.2415476e-18
3.9737748e-17
-2.8307718e-18
5.8713947e-18
-3.5473772e-18
5.1547758e-18
-4.4128924e-18
2.733235e-17
-5.4530045e-18
1.908747e-17
-6.6958939e-18
-3.8508395e-18
-8.1686544e-18
-8.985993e-17
-9.8899057e-18
-5.5082785e-17
-1.1859007e-17
1.3257416e-17
-1.405399e-17
-5.7005316e-19
-1.6463104e-17
8.4555812e-17
-1.911556e-17
-5.1399602e-18
-2.1991044e-17
9.0688566e-17
-2.4956512e-17
2.5261407e-17
-2.7825356e-17
-1.7072353e-16
-3.034839e-17
-2.1517886e-16
-3.2191696e-17
-1.7661554e-16
-3.2920256e-17
-3.0248572e-16
-3.1928877e-17
-3.8495233e-16
-8.0447194e-17
-4.5322023e-16
-8.0053767e-17
-7.0888996e-16
-7.7076848e-17
-5.9512588e-16
-7.0817922e-17
-4.57877e-16
-6.0406549e-17
-2.4648107e-16
-4.5588756e-17
-5.8231136e-16
-2.7270858e-17
-8.3772091e-16
-1.0380033e-17
-4.0910268e-16
6.452802e-19
-1.041207e-15
2.6795237e-18
-1.4022599e-15
-1.7407775e-17
-2.2472829e-15
-5.4304491e-17
-2.2604728e-15
-1.1122608e-16
-3.8099946e-15
-1.9303301e-16
-4.1795445e-15
-2.9950493e-16
-5.1870264e-15
-4.2007887e-16
-5.5629177e-15
-5.2660802e-16
-5.8212142e-15
-5.6988456e-16
-5.6269885e-15
-4.9114777e-16
-3.6356802e-15
-1.4482908e-15
4.2820202e-16
-1.9125939e-15
2.0450054e-15
-2.0343432e-15
5.6078016e-15
-1.7162274e-15
5.4337424e-15
-3.5283953e-16
4.3004002e-15
-4.8600132e-16
5.8702678e-15
-5.232114e-16
5.8208018e-15
-5.0528166e-16
5.495285e-15
-4.5413906e-16
4.8179508e-15
-3.8678487e-16
4.4231145e-15
-3.1512537e-16
3.12993e-15
-2.4834456e-16
3.0789995e-15
-1.9061553e-16
2.5657308e-15
-1.4351998e-16
1.312414e-15
-1.062815e-16
1.0977855e-15
-7.7150617e-17
1.2006068e-15
-5.377091e-17
6.6172468e-16
-3.597569e-17
1.1811522e-15
-2.3914505e-17
8.2205241e-16
-1.6849363e-17
5.8542445e-16
-1.3497911e-17
5.3614217e-16
-1.2452881e-17
1.0165068e-15
-1.2539801e-17
7.7005832e-16
-1.3037944e-17
3.8637296e-16
-1.3505508e-17
5.5282393e-16
-1.3743424e-17
5.6280965e-16
-1.3689685e-17
1.994203e-16
-1.3343125e-17
-6.7194153e-17
-1.2742247e-17
5.6429598e-17
-1.1942355e-17
1.1837204e-16
-1.10049e-17
8.9272178e-17
-9.9908983e-18
2.2704621e-16
-8.9489236e-18
1.8210714e-16
-7.917453e-18
1.7157818e-16
-6.9247284e-18
4.7757435e-17
-5.9910383e-18
4.6367127e-18
-5.1301161e-18
-2.1913577e-17
-4.3480626e-18
-1.8533629e-16
-3.6476855e-18
-1.2025468e-16
-3.0281127e-18
-1.2060308e-16
-2.4861127e-18
-1.5736547e-16
-2.0168396e-18
-1.1464762e-16
-1.6142646e-18
-3.0633057e-18
-1.2719919e-18
1.6976916e-17
-9.8345276e-19
-1.408181e-17
-7.4227015e-19
-8.6453569e-17
-5.4241212e-19
-2.8902444e-17
-3.7825398e-19
1.7467663e-17
-2.4458702e-19
3.8927892e-17
-1.3633644e-19
-1.0506414e-17
-4.666722e-20
5.5653704e-21
-1.7283329e-18
5.1866618e-20
-4.0999526e-18
6.2705565e-20
-6.4648212e-18
4.2878535e-20
2.5699887e-18
3.2016043e-20
-7.3045298e-18
2.2601303e-20
-1.5154423e-17
1.3749265e-20
-2.317878e-17
6.2241053e-21
-1.2974705e-17
-7.8095414e-22
-1.6934005e-17
-2.1236121e-21
4.2466167e-19
2.629893e-21
-1.9567718e-17
1.5720532e-20
-4.3890479e-17
3.9279484e-20
-5.8564259e-17
7.5234405e-20
-9.0511131e-17
1.2545356e-19
-7.4520642e-17
1.9222502e-19
-9.7435656e-17
2.7630157e-19
-5.9502231e-17
3.7633692e-19
-1.1292325e-16
4.7989983e-19
-1.6981706e-16
5.599127e-19
-2.0657644e-16
5.5356987e-19
-2.3129577e-16
4.347761e-19
-2.216263e-16
2.0112716e-19
-3.1817337e-16
-1.9820076e-19
-3.2854185e-16
-9.2742317e-19
-3.9104394e-16
-2.2773629e-18
-2.9821697e-16
-4.4658692e-18
-3.2156039e-16
-7.8021454e-18
-3.1245133e-16
-1.2629089e-17
-2.9970225e-16
-1.929412e-17
-3.79277e-16
-2.810418e-17
-2.2699568e-16
-3.9365852e-17
-2.9351086e-16
-5.3663586e-17
-1.2122086e-16
-7.0078205e-17
-5.9068111e-17
-9.3096034e-17
3.8149201e-17
-1.1882889e-16
2.6465146e-16
-1.4983431e-16
7.3365308e-17
-1.8519354e-16
7.0353188e-16
-2.2400412e-16
8.1951267e-16
-2.6878973e-16
7.2664991e-16
-3.1013361e-16
1.5107529e-15
-3.6318095e-16
2.3017455e-15
-4.2792457e-16
2.1870445e-15
-5.0411178e-16
2.8601446e-15
-5.9043264e-16
2.9917404e-15
-6.8082761e-16
3.6519422e-15
-7.6119578e-16
1.8229119e-15
-8.0522498e-16
2.7230072e-15
-7.6401272e-16
2.1741697e-15
-6.1224509e-16
-7.1265712e-16
-4.9790607e-16
-2.7220537e-15
-5.0425237e-16
-3.0120572e-15
-6.6063466e-16
-6.2029721e-16
-8.2285296e-16
5.4794392e-16
-8.6961392e-16
2.6847436e-16
-8.2116912e-16
1.0820823e-16
-7.2308801e-16
-3.1796896e-15
-6.0643955e-16
-3.3673675e-15
-4.9062191e-16
-3.503582e-15
-3.8687395e-16
-3.4597907e-15
-3.0041898e-16
-2.0523636e-15
-2.317806e-16
-1.7909321e-15
-1.7898977e-16
-9.3320961e-16
-1.3939464e-16
-4.031937e-16
-1.1027636e-16
-6.1579463e-16
-8.9126837e-17
1.0854911e-16
-7.3783636e-17
-1.3802359e-16
-6.2669214e-17
-4.4030428e-17
-5.4383409e-17
1.453505e-16
-4.7988969e-17
7.8067719e-16
-4.2821327e-17
8.2121625e-16
-3.8459369e-17
9.5069314e-16
-3.4625759e-17
5.3801079e-16
-3.1152801e-17
3.7535913e-16
-2.7947428e-17
1.6799452e-17
-2.4965554e-17
-3.5019723e-16
-2.2191436e-17
-7.0162763e-16
-1.9615583e-17
-4.3108618e-16
-1.7235342e-17
-3.4559067e-16
-1.5055008e-17
-4.9529024e-16
-1.3069387e-17
-4.3896368e-16
-1.1274685e-17
-7.5391531e-17
-9.6639904e-18
2.4652887e-17
-8.2303565e-18
1.7992439e-16
-6.9636144e-18
1.7258281e-16
-5.8526657e-18
1.2732687e-16
-4.884897e-18
8.0739948e-17
-4.0477092e-18
2.1171289e-16
-3.3271904e-18
1.6102613e-16
-2.7109178e-18
7.4210074e-17
-2.1870863e-18
7.3721364e-17
-1.7446497e-18
1.3626381e-16
-1.3733086e-18
1.4818939e-16
-1.0637176e-18
8.5660351e-17
-8.0736196e-19
2.2341684e-17
-5.9663906e-19
9.0650742e-17
-4.2480208e-19
-1.54928e-17
-2.8591222e-19
-2.1731279e-17
-1.7483715e-19
4.7803733e-18
-8.7833815e-20
-2.359835e-20
-5.9611203e-19
-3.5231884e-22
-9.753361e-19
-2.369845e-20
7.6808108e-19
-6.2017353e-20
6.4930495e-18
-1.0926448e-19
1.7504728e-17
-1.6822205e-19
4.0036028e-19
-2.4132212e-19
1.2724158e-17
-3.3117557e-19
3.7678878e-18
-4.4070462e-19
4.9838129e-19
-5.7318498e-19
-8.7428718e-18
-7.3214845e-19
-2.8429212e-17
-9.214839e-19
-5.3414748e-17
-1.1452518e-18
-3.1340355e-17
-1.4076884e-18
-3.7500673e-17
-1.7135089e-18
-1.1616737e-17
-2.0665757e-18
-1.9894662e-17
-2.4692835e-18
-2.1058305e-17
-2.9248332e-18
8.0864694e-17
-3.4344894e-18
1.492237e-16
-4.0030715e-18
1.1244822e-16
-4.6197738e-18
1.8189962e-16
-5.2958756e-18
1.679305e-16
-6.0233432e-18
2.3271613e-16
-6.7918861e-18
3.0018654e-16
-7.5933613e-18
4.4412054e-16
-8.3293712e-18
4.2575805e-16
-9.0182741e-18
2.5569316e-16
-9.6329802e-18
2.734845e-16
-1.0149139e-17
1.986319e-16
-1.060815e-17
1.2460381e-16
-1.1089742e-17
5.5428304e-17
-1.1704815e-17
1.6691356e-16
-1.2477846e-17
1.7796977e-17
-1.5346772e-17
8.2912598e-17
-1.7318366e-17
-3.3184335e-19
-2.3786822e-17
-8.4526456e-17
-3.385253e-17
-1.5178483e-16
-4.9131955e-17
-6.4096388e-16
-7.180907e-17
-8.0919085e-16
-1.0474321e-16
-6.8413004e-16
-1.5129598e-16
-4.4504941e-16
-2.1521348e-16
-1.0508966e-15
-3.0009021e-16
-4.4936206e-16
-4.0792956e-16
-6.8969717e-16
-5.3802631e-16
-1.5098764e-15
-6.8316646e-16
-1.5435617e-15
-8.2593781e-16
-1.8859017e-15
-9.2806757e-16
-2.6130768e-15
-9.1981354e-16
-3.1389924e-15
-7.1050859e-16
-3.0014458e-15
-3.7161637e-16
-4.227349e-15
-5.4104376e-16
-4.2149589e-15
-1.0985457e-15
-3.517555e-15
-1.4871843e-15
-1.9459277e-15
-1.6336959e-15
-3.6350466e-15
-1.614671e-15
-2.293849e-15
-1.4998702e-15
-2.8237079e-15
-1.3390021e-15
-3.4808805e-15
-1.1627966e-15
-3.1109929e-15
-9.9028821e-16
-2.5950926e-15
-8.3190487e-16
-1.4977618e-15
-6.9254452e-16
-3.4267958e-16
-5.7360148e-16
-1.3357679e-15
-4.7406206e-16
-7.0600983e-16
-3.9165089e-16
-8.9298956e-16
-3.2399997e-16
-1.2933653e-16
-2.6851144e-16
5.2542799e-16
-2.229593e-16
9.6826648e-16
-1.8552555e-16
9.4579201e-16
-1.5467043e-16
1.1354143e-15
-1.2913227e-16
7.2122179e-16
-1.0795442e-16
7.5314875e-16
-9.0332764e-17
4.3143649e-16
-7.5631486e-17
5.0456012e-16
-6.3341212e-17
5.3980863e-16
-5.3038898e-17
3.6944544e-16
-4.4392505e-17
4.3774017e-16
-3.7123972e-17
1.4714746e-16
-3.1010545e-17
1.9789726e-16
-2.5863325e-17
-4.9555781e-17
-2.1529878e-17
-3.597945e-17
-1.7884078e-17
-9.5019992e-19
-1.4817734e-17
-1.2497146e-16
-1.2241302e-17
-1.6941526e-16
-1.007893e-17
-1.835476e-16
-8.2665518e-18
-2.2085495e-16
-6.7502578e-18
-1.7410744e-16
-5.4840128e-18
-1.3692515e-16
-4.4299477e-18
-7.0191928e-17
-3.5550037e-18
-7.7787841e-17
-2.8308588e-18
2.9124164e-18
-2.2334432e-18
4.3852696e-17
-1.7423672e-18
1.5781467e-17
-1.3402837e-18
3.3386978e-17
-1.0125364e-18
1.309322e-17
-7.4674232e-19
3.2088835e-18
-5.3241679e-19
8.0546258e-18
-3.6070423e-19
1.6109728e-18
-2.2418526e-19
3.3335071e-18
-1.1697354e-19
-3.4246399e-20
1.2806585e-18
-1.6486131e-20
-2.446603e-18
-5.1985365e-20
5.3255924e-18
-9.6167638e-20
-2.5828902e-18
-1.5261938e-19
-5.7975307e-18
-2.2406399e-19
-9.5894705e-18
-3.1377614e-19
-1.0126881e-17
-4.2567843e-19
6.1850568e-20