/*--------------------------------*- C++ -*----------------------------------*\
| =========                 |                                                 |
| \\      /  F ield         | OpenFOAM: The Open Source CFD Toolbox           |
|  \\    /   O peration     | Version:  4.0                                   |
|   \\  /    A nd           | Web:      www.OpenFOAM.org                      |
|    \\/     M anipulation  |                                                 |
\*---------------------------------------------------------------------------*/
FoamFile
{
    version     2.0;
    format      ascii;
    class       surfaceScalarField;
    location    "3000";
    object      snGradRho;
}
// * * * * * * * * * * * * * * * * * * * * * * * * * * * * * * * * * * * * * //

dimensions      [1 -4 0 0 0 0 0];

internalField   nonuniform List<scalar> 
19800
(
2.0115989e-09
-0.00013979969
2.9368824e-09
-0.00013979969
3.5764504e-09
-0.00013979969
3.9379972e-09
-0.00013979969
4.2041803e-09
-0.0001397997
4.2758383e-09
-0.0001397997
4.2652781e-09
-0.0001397997
4.2525288e-09
-0.0001397997
4.2352316e-09
-0.0001397997
4.2634116e-09
-0.0001397997
4.3453758e-09
-0.0001397997
4.313096e-09
-0.0001397997
4.2507331e-09
-0.0001397997
4.181671e-09
-0.0001397997
4.186235e-09
-0.0001397997
4.1553664e-09
-0.0001397997
3.9761879e-09
-0.0001397997
3.855463e-09
-0.0001397997
3.7128459e-09
-0.0001397997
3.5742265e-09
-0.0001397997
3.4663029e-09
-0.0001397997
3.2743917e-09
-0.00013979969
3.0887099e-09
-0.00013979969
2.9097121e-09
-0.00013979969
2.7809784e-09
-0.00013979969
2.5897899e-09
-0.00013979968
2.451224e-09
-0.00013979968
2.3674986e-09
-0.00013979968
2.3209173e-09
-0.00013979968
2.3054119e-09
-0.00013979968
2.1549602e-09
-0.00013979968
2.0413292e-09
-0.00013979968
1.9218924e-09
-0.00013979968
1.9199194e-09
-0.00013979968
1.6571574e-09
-0.00013979969
1.6384215e-09
-0.00013979969
1.3418044e-09
-0.00013979969
1.2018465e-09
-0.00013979969
1.0892544e-09
-0.00013979969
9.9311268e-10
-0.0001397997
9.0276198e-10
-0.0001397997
8.230736e-10
-0.0001397997
7.370921e-10
-0.0001397997
6.5187041e-10
-0.0001397997
5.6596452e-10
-0.0001397997
4.6861471e-10
-0.0001397997
4.6918719e-10
-0.00013979969
3.7620485e-10
-0.00013979969
3.0314733e-10
-0.00013979969
2.3492944e-10
-0.00013979968
1.9883337e-10
-0.00013979967
1.9746453e-10
-0.00013979966
2.031036e-10
-0.00013979965
2.0794399e-10
-0.00013979964
2.1639616e-10
-0.00013979962
2.2957871e-10
-0.00013979961
2.4326144e-10
-0.00013979959
2.4270511e-10
-0.00013979957
2.4776003e-10
-0.00013979955
2.4701985e-10
-0.00013979953
2.5185519e-10
-0.00013979951
2.4453735e-10
-0.00013979949
2.509813e-10
-0.00013979947
2.6278413e-10
-0.00013979944
2.6028005e-10
-0.00013979941
2.547323e-10
-0.00013979938
2.7983015e-10
-0.00013979934
2.7603374e-10
-0.0001397993
2.7911054e-10
-0.00013979926
2.7254356e-10
-0.00013979921
2.8692285e-10
-0.00013979916
3.0149e-10
-0.00013979911
3.4625129e-10
-0.00013979905
3.8588158e-10
-0.00013979899
4.2390444e-10
-0.00013979892
4.6567408e-10
-0.00013979885
5.1886782e-10
-0.00013979878
4.8971428e-10
-0.0001397987
4.7623505e-10
-0.00013979862
4.8440931e-10
-0.00013979853
4.4699927e-10
-0.00013979844
3.7413009e-10
-0.00013979835
3.7246546e-10
-0.00013979827
3.5273081e-10
-0.00013979819
3.4098971e-10
-0.0001397981
3.5756372e-10
-0.00013979802
3.5538861e-10
-0.00013979792
2.2602593e-10
-0.00013979783
9.0290341e-11
-0.00013979774
4.9593782e-11
-0.00013979764
-5.4480702e-11
-0.00013979754
-1.4962307e-10
-0.00013979746
-2.6298725e-10
-0.00013979738
-3.250148e-10
-0.00013979731
-3.9671322e-10
-0.00013979724
-4.3580551e-10
-0.00013979719
-5.7449966e-10
-0.00013979715
-4.733333e-10
-0.00013979711
-2.8887578e-10
-0.0001397971
-0.00013979708
-6.0957541e-11
-0.00013979859
1.6623863e-10
-0.00013979859
6.044705e-10
-0.00013979859
1.2821386e-09
-0.00013979859
1.8315241e-09
-0.00013979859
2.0811602e-09
-0.00013979859
2.3390235e-09
-0.00013979859
2.6265619e-09
-0.00013979859
2.8140129e-09
-0.00013979859
3.2298573e-09
-0.0001397986
3.5937432e-09
-0.00013979861
3.8860568e-09
-0.00013979861
3.959587e-09
-0.00013979862
4.3228244e-09
-0.00013979863
4.4749408e-09
-0.00013979865
4.5198722e-09
-0.00013979866
4.6388859e-09
-0.00013979868
4.6627005e-09
-0.00013979871
4.6218908e-09
-0.00013979873
4.5399646e-09
-0.00013979876
4.4165949e-09
-0.00013979879
4.3192353e-09
-0.00013979882
4.2853046e-09
-0.00013979885
4.1606164e-09
-0.00013979889
4.0169688e-09
-0.00013979892
3.8256982e-09
-0.00013979896
3.1968046e-09
-0.00013979899
3.1752333e-09
-0.00013979902
2.3251372e-09
-0.00013979905
2.3284276e-09
-0.00013979908
1.9666628e-09
-0.00013979911
1.543676e-09
-0.00013979913
1.4349362e-09
-0.00013979915
1.3358238e-09
-0.00013979918
1.3238211e-09
-0.0001397992
1.1233035e-09
-0.00013979921
1.0171743e-09
-0.00013979923
1.0194234e-09
-0.00013979925
8.5839749e-10
-0.00013979926
8.0394836e-10
-0.00013979927
7.6573561e-10
-0.00013979929
7.4125472e-10
-0.0001397993
7.2710139e-10
-0.00013979931
7.154429e-10
-0.00013979932
7.0172262e-10
-0.00013979933
6.8374389e-10
-0.00013979934
6.5337537e-10
-0.00013979934
6.1873984e-10
-0.00013979935
6.0880002e-10
-0.00013979936
5.698545e-10
-0.00013979936
6.1746337e-10
-0.00013979937
7.3752654e-10
-0.00013979937
8.7449513e-10
-0.00013979937
1.0195149e-09
-0.00013979937
1.1763073e-09
-0.00013979937
1.3490289e-09
-0.00013979936
1.5488389e-09
-0.00013979935
1.7737086e-09
-0.00013979933
2.0386342e-09
-0.0001397993
2.3548239e-09
-0.00013979927
2.7379096e-09
-0.00013979923
3.2093295e-09
-0.00013979917
3.7960922e-09
-0.00013979911
4.5125636e-09
-0.00013979903
5.4161912e-09
-0.00013979894
6.5086703e-09
-0.00013979883
7.8181115e-09
-0.0001397987
9.3694637e-09
-0.00013979855
1.1185096e-08
-0.00013979838
1.3286499e-08
-0.00013979818
1.572254e-08
-0.00013979796
1.8509659e-08
-0.0001397977
2.1698414e-08
-0.00013979741
2.5187042e-08
-0.00013979708
2.8492434e-08
-0.00013979672
3.2098249e-08
-0.00013979631
3.7848119e-08
-0.00013979586
4.566385e-08
-0.00013979537
5.3523528e-08
-0.00013979484
5.9485463e-08
-0.00013979428
6.3229112e-08
-0.00013979366
6.6817296e-08
-0.00013979299
7.2579392e-08
-0.00013979223
8.0789463e-08
-0.0001397914
9.0656765e-08
-0.00013979056
1.1339878e-07
-0.00013978973
1.1338768e-07
-0.00013978896
1.2655397e-07
-0.00013978823
1.5152978e-07
-0.00013978757
1.5805532e-07
-0.00013978699
1.6011878e-07
-0.00013978648
1.5970765e-07
-0.00013978603
1.5973187e-07
-0.00013978565
1.5463482e-07
-0.00013978533
1.4214234e-07
-0.00013978506
1.232458e-07
-0.00013978483
1.0570794e-07
-0.00013978463
6.8002217e-08
-0.00013978448
4.0327055e-08
-0.00013978439
-0.00013978436
-6.0956476e-11
-0.00013978379
-3.878911e-10
-0.00013978384
-3.5260735e-10
-0.00013978394
-5.9527865e-10
-0.00013978414
-1.082265e-09
-0.00013978444
-1.589249e-09
-0.00013978485
-2.304626e-09
-0.00013978534
-3.1893969e-09
-0.00013978589
-5.7132985e-09
-0.00013978649
-7.1315252e-09
-0.00013978714
-8.2679581e-09
-0.00013978783
-9.2453991e-09
-0.00013978856
-1.050067e-08
-0.00013978932
-1.1962755e-08
-0.0001397901
-1.3585215e-08
-0.00013979089
-1.4959319e-08
-0.00013979167
-1.5971021e-08
-0.00013979241
-1.6397766e-08
-0.00013979312
-1.6329951e-08
-0.00013979379
-1.5810228e-08
-0.0001397944
-1.4942209e-08
-0.00013979497
-1.3862689e-08
-0.00013979548
-1.2609116e-08
-0.00013979595
-1.1285332e-08
-0.00013979637
-9.9991623e-09
-0.00013979674
-8.7637141e-09
-0.00013979707
-7.6192211e-09
-0.00013979736
-6.5825744e-09
-0.00013979761
-5.6124001e-09
-0.00013979783
-4.7450824e-09
-0.00013979801
-3.9926043e-09
-0.00013979817
-3.302896e-09
-0.00013979831
-2.7171583e-09
-0.00013979843
-2.1975612e-09
-0.00013979852
-1.7571582e-09
-0.0001397986
-1.3678764e-09
-0.00013979867
-1.0486536e-09
-0.00013979873
-7.7798098e-10
-0.00013979878
-5.6088473e-10
-0.00013979882
-3.709394e-10
-0.00013979885
-2.243471e-10
-0.00013979887
-9.6473013e-11
-0.0001397989
-1.1100785e-12
-0.00013979891
8.476333e-11
-0.00013979893
1.5777293e-10
-0.00013979894
2.1929834e-10
-0.00013979895
2.6983949e-10
-0.00013979896
3.0799188e-10
-0.00013979896
3.3383787e-10
-0.00013979897
3.8130856e-10
-0.00013979898
4.8914279e-10
-0.00013979898
6.6286681e-10
-0.00013979899
9.0745156e-10
-0.000139799
1.2367195e-09
-0.00013979901
1.6673602e-09
-0.00013979903
2.2307737e-09
-0.00013979905
2.9548454e-09
-0.00013979907
3.8857334e-09
-0.0001397991
5.0952389e-09
-0.00013979913
6.6355151e-09
-0.00013979917
8.5923241e-09
-0.00013979923
1.1063084e-08
-0.00013979929
1.417064e-08
-0.00013979936
1.8073948e-08
-0.00013979945
2.2947236e-08
-0.00013979956
2.901349e-08
-0.00013979968
3.6529255e-08
-0.00013979982
4.5783961e-08
-0.00013979999
5.7155635e-08
-0.00013980018
7.1043022e-08
-0.00013980041
8.7860766e-08
-0.00013980066
1.0812985e-07
-0.00013980095
1.323533e-07
-0.00013980128
1.6106146e-07
-0.00013980165
1.9482043e-07
-0.00013980206
2.3413427e-07
-0.00013980252
2.7950898e-07
-0.00013980301
3.3145629e-07
-0.00013980356
3.9090078e-07
-0.00013980414
4.6109954e-07
-0.00013980477
5.5002197e-07
-0.00013980546
6.6529683e-07
-0.0001398062
7.8874059e-07
-0.00013980702
8.8649717e-07
-0.0001398079
9.5415122e-07
-0.00013980881
1.0022511e-06
-0.0001398097
1.032591e-06
-0.00013981055
1.045e-06
-0.00013981135
1.0397611e-06
-0.00013981209
1.0181847e-06
-0.00013981276
9.814971e-07
-0.00013981335
9.3017664e-07
-0.00013981387
8.6651007e-07
-0.00013981432
8.0870908e-07
-0.0001398147
7.6343491e-07
-0.00013981503
7.0783532e-07
-0.00013981531
5.9297941e-07
-0.00013981555
3.8324219e-07
-0.00013981573
1.7263215e-07
-0.00013981584
-0.00013981588
-1.7915421e-07
-0.00013981413
-3.8728059e-07
-0.00013981409
-6.7489131e-07
-0.00013981399
-9.4072343e-07
-0.00013981379
-1.1419969e-06
-0.00013981349
-1.2545991e-06
-0.00013981308
-1.288286e-06
-0.00013981259
-1.2778536e-06
-0.00013981204
-1.2471762e-06
-0.00013981144
-1.2077858e-06
-0.00013981079
-1.1626581e-06
-0.0001398101
-1.1081668e-06
-0.00013980937
-1.039081e-06
-0.00013980861
-9.5329748e-07
-0.00013980782
-8.5412025e-07
-0.00013980703
-7.5034253e-07
-0.00013980624
-6.4982839e-07
-0.00013980549
-5.5637945e-07
-0.00013980477
-4.7184905e-07
-0.00013980409
-3.9664954e-07
-0.00013980346
-3.3058394e-07
-0.00013980287
-2.7322249e-07
-0.00013980234
-2.2395017e-07
-0.00013980186
-1.8215614e-07
-0.00013980142
-1.471014e-07
-0.00013980103
-1.1805734e-07
-0.00013980069
-9.415764e-08
-0.00013980038
-7.4692258e-08
-0.00013980012
-5.895974e-08
-0.00013979989
-4.6288528e-08
-0.00013979969
-3.6156606e-08
-0.00013979952
-2.8099974e-08
-0.00013979937
-2.1731504e-08
-0.00013979925
-1.6713514e-08
-0.00013979914
-1.2769159e-08
-0.00013979906
-9.7028319e-09
-0.00013979898
-7.314998e-09
-0.00013979893
-5.4744823e-09
-0.00013979888
-4.0611306e-09
-0.00013979884
-2.9808159e-09
-0.00013979881
-2.1521201e-09
-0.00013979879
-1.53502e-09
-0.00013979877
-1.0667854e-09
-0.00013979875
-7.1241564e-10
-0.00013979874
-4.430484e-10
-0.00013979874
-2.4598103e-10
-0.00013979874
-9.7778917e-11
-0.00013979873
2.7560795e-12
-0.00013979873
7.6413171e-11
-0.00013979873
1.1866949e-10
-0.00013979874
1.5944785e-10
-0.00013979874
2.2188594e-10
-0.00013979875
3.0120648e-10
-0.00013979875
3.9399914e-10
-0.00013979876
5.0677392e-10
-0.00013979877
6.4911857e-10
-0.00013979877
8.0901167e-10
-0.00013979878
9.9043298e-10
-0.0001397988
1.2132162e-09
-0.00013979881
1.4658483e-09
-0.00013979882
1.754862e-09
-0.00013979884
2.0741051e-09
-0.00013979886
2.4411853e-09
-0.00013979888
2.8453921e-09
-0.0001397989
3.2937257e-09
-0.00013979892
3.7897928e-09
-0.00013979894
4.3173794e-09
-0.00013979896
4.8650949e-09
-0.00013979899
5.3031001e-09
-0.00013979901
5.5795724e-09
-0.00013979904
5.863206e-09
-0.00013979906
6.344994e-09
-0.00013979909
7.0504793e-09
-0.00013979911
8.0318495e-09
-0.00013979914
9.3985669e-09
-0.00013979916
1.0830249e-08
-0.00013979919
1.2109352e-08
-0.00013979921
1.3254398e-08
-0.00013979924
1.4357605e-08
-0.00013979927
1.5501098e-08
-0.0001397993
1.6624116e-08
-0.00013979932
1.7771179e-08
-0.00013979935
1.8957208e-08
-0.00013979937
2.0119765e-08
-0.00013979939
2.2241829e-08
-0.00013979942
2.3054346e-08
-0.00013979944
2.341824e-08
-0.00013979946
2.3506696e-08
-0.00013979948
2.3159474e-08
-0.0001397995
2.3185083e-08
-0.00013979951
2.2663972e-08
-0.00013979953
2.0677907e-08
-0.00013979954
2.0644498e-08
-0.00013979955
1.3253382e-08
-0.00013979956
8.2119632e-09
-0.00013979957
4.7502798e-09
-0.00013979957
3.0161241e-09
-0.00013979957
1.9985184e-09
-0.00013979957
9.244024e-10
-0.00013979957
-0.00013979958
-1.8287273e-09
-0.00013979806
-1.7177991e-09
-0.00013979806
-2.6193722e-09
-0.00013979806
-3.1137652e-09
-0.00013979806
-3.7879249e-09
-0.00013979806
-4.3136776e-09
-0.00013979806
-4.7124443e-09
-0.00013979806
-4.9717065e-09
-0.00013979806
-5.2016602e-09
-0.00013979806
-5.477838e-09
-0.00013979806
-5.5902668e-09
-0.00013979806
-5.7009742e-09
-0.00013979806
-5.7841022e-09
-0.00013979807
-5.6990706e-09
-0.00013979807
-5.5816469e-09
-0.00013979807
-5.4238462e-09
-0.00013979807
-5.1292826e-09
-0.00013979807
-4.8554735e-09
-0.00013979807
-4.5780816e-09
-0.00013979807
-4.2611949e-09
-0.00013979807
-4.0726795e-09
-0.00013979808
-3.8420628e-09
-0.00013979808
-3.6122201e-09
-0.00013979808
-3.6439387e-09
-0.00013979809
-3.4298732e-09
-0.00013979809
-2.8538248e-09
-0.0001397981
-2.5686785e-09
-0.00013979811
-2.3396456e-09
-0.00013979812
-2.1394638e-09
-0.00013979812
-1.9409957e-09
-0.00013979814
-1.7609302e-09
-0.00013979815
-1.6102411e-09
-0.00013979816
-1.4695129e-09
-0.00013979817
-1.3410624e-09
-0.00013979819
-1.2166773e-09
-0.00013979821
-1.0843451e-09
-0.00013979823
-9.5815059e-10
-0.00013979824
-8.4057718e-10
-0.00013979826
-7.3158876e-10
-0.00013979828
-6.2660681e-10
-0.0001397983
-5.3198475e-10
-0.00013979832
-4.3962388e-10
-0.00013979833
-3.6410574e-10
-0.00013979834
-2.8254445e-10
-0.00013979836
-2.1739642e-10
-0.00013979837
-1.5509312e-10
-0.00013979837
-1.0611665e-10
-0.00013979838
-6.2700814e-11
-0.00013979839
-2.7558849e-11
-0.00013979839
-2.1685795e-11
-0.00013979839
-2.6045266e-11
-0.0001397984
-3.3492217e-11
-0.0001397984
-4.0620727e-11
-0.0001397984
-5.219646e-11
-0.0001397984
-5.9185284e-11
-0.00013979841
-7.1108441e-11
-0.00013979841
-9.3733766e-11
-0.00013979841
-1.1277207e-10
-0.00013979841
-1.1849392e-10
-0.00013979841
-1.3016616e-10
-0.00013979842
-1.4948823e-10
-0.00013979842
-1.6956971e-10
-0.00013979842
-2.0000072e-10
-0.00013979842
-2.3262857e-10
-0.00013979842
-2.8867422e-10
-0.00013979842
-3.5350606e-10
-0.00013979842
-4.2831147e-10
-0.00013979842
-5.207e-10
-0.00013979842
-6.2713728e-10
-0.00013979842
-7.3435345e-10
-0.00013979842
-8.6076861e-10
-0.00013979842
-9.8669452e-10
-0.00013979842
-1.1240622e-09
-0.00013979842
-1.2403336e-09
-0.00013979842
-1.3383269e-09
-0.00013979841
-1.4768521e-09
-0.00013979841
-1.4835235e-09
-0.00013979841
-1.5333677e-09
-0.00013979841
-1.5345351e-09
-0.00013979841
-1.5210452e-09
-0.00013979841
-1.5219261e-09
-0.0001397984
-1.5199034e-09
-0.0001397984
-1.5027057e-09
-0.0001397984
-1.4532507e-09
-0.0001397984
-1.4414565e-09
-0.0001397984
-1.4302548e-09
-0.0001397984
-1.3841453e-09
-0.0001397984
-1.3150599e-09
-0.0001397984
-1.3317824e-09
-0.0001397984
-1.1158598e-09
-0.0001397984
-1.0623737e-09
-0.0001397984
-9.5758733e-10
-0.0001397984
-9.8620242e-10
-0.0001397984
-6.861427e-10
-0.0001397984
-4.7605586e-10
-0.0001397984
-1.7432183e-10
-0.0001397984
-1.9149989e-10
-0.0001397984
-1.0518564e-10
-0.0001397984
-1.7332495e-10
-0.0001397984
-0.0001397984
-7.9244803e-10
-0.00013979881
-1.55156e-09
-0.00013979881
-2.7201172e-09
-0.00013979881
-4.2585319e-09
-0.00013979881
-4.0376785e-09
-0.00013979881
-4.6920704e-09
-0.00013979881
-5.1940077e-09
-0.00013979881
-5.1905869e-09
-0.0001397988
-5.429055e-09
-0.0001397988
-5.6845493e-09
-0.0001397988
-5.8486405e-09
-0.0001397988
-6.0639572e-09
-0.00013979879
-6.3663948e-09
-0.00013979879
-6.4224817e-09
-0.00013979878
-6.4798428e-09
-0.00013979878
-6.5465246e-09
-0.00013979877
-6.4281704e-09
-0.00013979876
-6.3615138e-09
-0.00013979876
-6.3195049e-09
-0.00013979875
-6.2524074e-09
-0.00013979874
-6.1723723e-09
-0.00013979873
-6.0716109e-09
-0.00013979872
-5.9754944e-09
-0.00013979871
-5.8398195e-09
-0.0001397987
-5.7720752e-09
-0.00013979868
-5.6851786e-09
-0.00013979867
-5.5561076e-09
-0.00013979865
-5.2456341e-09
-0.00013979863
-5.0595998e-09
-0.00013979861
-5.067303e-09
-0.00013979859
-4.9027089e-09
-0.00013979857
-4.7292906e-09
-0.00013979855
-4.5382018e-09
-0.00013979853
-4.3296408e-09
-0.0001397985
-4.0809881e-09
-0.00013979847
-3.8179334e-09
-0.00013979844
-3.50207e-09
-0.00013979841
-3.108347e-09
-0.00013979838
-2.6483514e-09
-0.00013979836
-2.2167694e-09
-0.00013979833
-1.8592598e-09
-0.0001397983
-1.5472318e-09
-0.00013979828
-1.2610491e-09
-0.00013979826
-9.9092374e-10
-0.00013979824
-7.5675968e-10
-0.00013979822
-5.5033046e-10
-0.00013979821
-3.8277792e-10
-0.0001397982
-2.528703e-10
-0.00013979819
-1.6347408e-10
-0.00013979818
-1.1264566e-10
-0.00013979817
-1.2387382e-10
-0.00013979817
-1.4443519e-10
-0.00013979816
-1.6478216e-10
-0.00013979816
-1.8268763e-10
-0.00013979816
-1.997503e-10
-0.00013979815
-2.1840452e-10
-0.00013979815
-2.2987091e-10
-0.00013979815
-2.4638245e-10
-0.00013979815
-2.5583918e-10
-0.00013979814
-2.5885313e-10
-0.00013979815
-2.7460337e-10
-0.00013979815
-2.9630074e-10
-0.00013979815
-3.0980504e-10
-0.00013979815
-3.4032703e-10
-0.00013979815
-3.5965968e-10
-0.00013979815
-3.8989636e-10
-0.00013979816
-4.2545603e-10
-0.00013979816
-4.6423861e-10
-0.00013979816
-4.9619654e-10
-0.00013979816
-5.0344842e-10
-0.00013979817
-5.572126e-10
-0.00013979817
-6.0754796e-10
-0.00013979817
-6.4232119e-10
-0.00013979817
-6.3394841e-10
-0.00013979817
-6.6007977e-10
-0.00013979818
-6.7190116e-10
-0.00013979818
-6.942597e-10
-0.00013979818
-7.1450131e-10
-0.00013979818
-7.4080999e-10
-0.00013979818
-7.8474325e-10
-0.00013979818
-7.9821281e-10
-0.00013979818
-8.1840967e-10
-0.00013979818
-8.4767981e-10
-0.00013979818
-8.6066328e-10
-0.00013979819
-9.1447228e-10
-0.00013979819
-9.5350323e-10
-0.00013979819
-1.010052e-09
-0.00013979819
-1.1712253e-09
-0.00013979819
-1.2414923e-09
-0.00013979819
-1.3142347e-09
-0.00013979819
-1.3892582e-09
-0.00013979819
-1.5560793e-09
-0.00013979819
-1.6436702e-09
-0.00013979819
-1.6973005e-09
-0.00013979819
-1.8248804e-09
-0.00013979819
-1.9611241e-09
-0.00013979819
-2.0107493e-09
-0.00013979819
-1.3148147e-09
-0.00013979819
-1.328829e-09
-0.00013979819
-0.00013979819
-2.438307e-10
-0.0001397989
-2.2165102e-10
-0.0001397989
-3.5260779e-10
-0.00013979889
-4.5790705e-10
-0.00013979889
-2.4975292e-10
-0.00013979888
-2.2703566e-10
-0.00013979888
-1.7198702e-10
-0.00013979887
-1.8761129e-10
-0.00013979886
-1.9897111e-10
-0.00013979885
-2.0671087e-10
-0.00013979884
-2.3488107e-11
-0.00013979883
-2.1352147e-11
-0.00013979882
1.9409401e-11
-0.00013979881
5.2932853e-11
-0.00013979879
4.8117503e-11
-0.00013979878
1.4580233e-11
-0.00013979877
1.5904752e-10
-0.00013979875
1.6867651e-10
-0.00013979873
2.1904696e-10
-0.00013979872
3.4846229e-10
-0.0001397987
3.9821749e-10
-0.00013979868
4.6071844e-10
-0.00013979866
4.9359529e-10
-0.00013979864
4.8268595e-10
-0.00013979861
5.3765583e-10
-0.00013979859
5.1121665e-10
-0.00013979856
5.1067161e-10
-0.00013979853
5.1992129e-10
-0.00013979851
5.1904147e-10
-0.00013979848
5.5237816e-10
-0.00013979845
5.2304863e-10
-0.00013979841
5.3252071e-10
-0.00013979838
5.1288881e-10
-0.00013979834
5.0289839e-10
-0.0001397983
4.8095659e-10
-0.00013979827
4.5668024e-10
-0.00013979823
4.2890521e-10
-0.00013979818
3.8988473e-10
-0.00013979814
3.4628535e-10
-0.00013979809
3.0000279e-10
-0.00013979804
2.6733576e-10
-0.00013979799
2.3202372e-10
-0.00013979794
2.0203427e-10
-0.0001397979
1.6952668e-10
-0.00013979786
1.4034452e-10
-0.00013979782
1.1840443e-10
-0.0001397978
1.0232677e-10
-0.00013979778
8.9572583e-11
-0.00013979776
8.5181896e-11
-0.00013979775
7.2285972e-11
-0.00013979774
5.9078296e-11
-0.00013979773
4.3260769e-11
-0.00013979773
1.9927156e-11
-0.00013979773
-4.2093925e-12
-0.00013979774
-3.6990716e-12
-0.00013979775
-3.860173e-11
-0.00013979776
-1.3613715e-10
-0.00013979777
-1.3606195e-10
-0.00013979778
-2.8276961e-10
-0.0001397978
-3.6387353e-10
-0.00013979781
-4.5333936e-10
-0.00013979783
-5.3548323e-10
-0.00013979785
-6.2157088e-10
-0.00013979788
-6.9142382e-10
-0.0001397979
-7.5954451e-10
-0.00013979793
-8.3697757e-10
-0.00013979797
-8.8232157e-10
-0.00013979801
-9.378874e-10
-0.00013979806
-9.855014e-10
-0.00013979811
-1.040965e-09
-0.00013979816
-1.0977918e-09
-0.00013979821
-1.1465756e-09
-0.00013979826
-1.1892979e-09
-0.0001397983
-1.2458462e-09
-0.00013979834
-1.2838249e-09
-0.00013979838
-1.3105399e-09
-0.00013979841
-1.3446715e-09
-0.00013979845
-1.3647775e-09
-0.00013979848
-1.3934284e-09
-0.00013979851
-1.3854106e-09
-0.00013979853
-1.4261406e-09
-0.00013979856
-1.426371e-09
-0.00013979858
-1.477018e-09
-0.0001397986
-1.4955789e-09
-0.00013979862
-1.518954e-09
-0.00013979864
-1.5153892e-09
-0.00013979866
-1.5711921e-09
-0.00013979867
-1.6027289e-09
-0.00013979869
-1.6026537e-09
-0.0001397987
-1.6117972e-09
-0.00013979871
-1.7161424e-09
-0.00013979873
-1.675778e-09
-0.00013979874
-1.8080378e-09
-0.00013979875
-1.8056375e-09
-0.00013979876
-1.9042231e-09
-0.00013979876
-1.8303828e-09
-0.00013979877
-1.8192485e-09
-0.00013979878
-1.1570383e-09
-0.00013979878
-1.2132779e-09
-0.00013979879
-0.00013979879
9.4484188e-09
-0.00013980816
9.5310146e-09
-0.00013980814
1.5162135e-08
-0.00013980809
1.8407847e-08
-0.00013980801
2.0729523e-08
-0.00013980789
2.0508888e-08
-0.00013980772
2.0638442e-08
-0.00013980751
1.9386528e-08
-0.00013980727
1.8703237e-08
-0.00013980698
1.8061362e-08
-0.00013980667
1.8086159e-08
-0.00013980632
1.6889401e-08
-0.00013980593
1.6381821e-08
-0.0001398055
1.5967984e-08
-0.00013980506
1.5959018e-08
-0.0001398046
1.5571689e-08
-0.00013980413
1.5003482e-08
-0.00013980365
1.4301358e-08
-0.00013980317
1.3778054e-08
-0.00013980264
1.3331168e-08
-0.00013980212
1.3032575e-08
-0.00013980164
1.2768482e-08
-0.00013980117
1.2474499e-08
-0.00013980071
1.1978768e-08
-0.00013980026
1.1383472e-08
-0.00013979982
1.0707461e-08
-0.00013979941
1.0182793e-08
-0.00013979904
9.7763764e-09
-0.0001397987
9.3680663e-09
-0.0001397984
8.9761461e-09
-0.00013979814
8.6163539e-09
-0.00013979792
8.2635795e-09
-0.00013979775
7.8690979e-09
-0.0001397976
7.4727558e-09
-0.00013979749
6.8476789e-09
-0.00013979741
6.6683973e-09
-0.00013979736
6.4768621e-09
-0.00013979734
6.1701941e-09
-0.00013979735
5.7665453e-09
-0.00013979738
5.2862561e-09
-0.00013979741
4.6911381e-09
-0.00013979744
3.984702e-09
-0.00013979748
3.2247779e-09
-0.00013979752
2.4450186e-09
-0.00013979755
1.7694417e-09
-0.00013979758
1.2740984e-09
-0.0001397976
9.4595414e-10
-0.00013979761
7.1313556e-10
-0.00013979762
4.9731195e-10
-0.00013979763
2.9336061e-10
-0.00013979763
6.9242291e-11
-0.00013979764
-1.458307e-10
-0.00013979763
-3.3722862e-10
-0.00013979762
-5.3543472e-10
-0.00013979761
-7.5276273e-10
-0.0001397976
-7.5273372e-10
-0.00013979758
-1.0054063e-09
-0.00013979757
-1.3140398e-09
-0.00013979755
-1.6844989e-09
-0.00013979753
-2.1403456e-09
-0.00013979751
-2.7021625e-09
-0.00013979749
-3.3842541e-09
-0.00013979746
-4.219623e-09
-0.00013979743
-5.1975255e-09
-0.0001397974
-6.2798477e-09
-0.00013979736
-8.8064597e-09
-0.00013979732
-1.0168114e-08
-0.00013979727
-1.1449127e-08
-0.00013979721
-1.2528962e-08
-0.00013979716
-1.3320566e-08
-0.00013979711
-1.3938629e-08
-0.00013979705
-1.444868e-08
-0.000139797
-1.4989168e-08
-0.00013979696
-1.5523465e-08
-0.00013979691
-1.5999365e-08
-0.00013979687
-1.6418337e-08
-0.00013979683
-1.6801086e-08
-0.0001397968
-1.7180141e-08
-0.00013979676
-1.7470771e-08
-0.00013979673
-1.7739069e-08
-0.0001397967
-1.8060899e-08
-0.00013979668
-1.8344066e-08
-0.00013979665
-1.8379244e-08
-0.00013979663
-1.8624186e-08
-0.00013979661
-1.8940428e-08
-0.00013979659
-1.9291413e-08
-0.00013979657
-1.9752126e-08
-0.00013979656
-2.0321786e-08
-0.00013979654
-2.0902215e-08
-0.00013979653
-2.1201333e-08
-0.00013979652
-2.1492637e-08
-0.0001397965
-2.1545721e-08
-0.00013979649
-2.1729321e-08
-0.00013979648
-2.1812105e-08
-0.00013979647
-2.1660541e-08
-0.00013979646
-2.1310889e-08
-0.00013979646
-2.0442614e-08
-0.00013979645
-1.8302221e-08
-0.00013979644
-1.3288285e-08
-0.00013979644
-0.00013979643
8.4852894e-08
-0.00013978767
1.8729552e-07
-0.00013978768
3.0389754e-07
-0.00013978772
4.0217941e-07
-0.00013978779
4.8668591e-07
-0.00013978791
5.5090203e-07
-0.00013978806
5.9328642e-07
-0.00013978826
6.163978e-07
-0.00013978849
6.2664373e-07
-0.00013978876
6.3137251e-07
-0.00013978906
6.329216e-07
-0.00013978939
6.294558e-07
-0.00013978976
5.9585961e-07
-0.00013979016
5.6523135e-07
-0.00013979057
5.2738541e-07
-0.00013979101
4.8593001e-07
-0.00013979145
4.4421971e-07
-0.0001397919
4.4420958e-07
-0.00013979235
4.0418544e-07
-0.00013979284
3.3240307e-07
-0.00013979333
3.0058186e-07
-0.00013979376
2.7020314e-07
-0.00013979419
2.4049309e-07
-0.00013979461
2.1101532e-07
-0.00013979502
1.8190071e-07
-0.00013979541
1.5373577e-07
-0.00013979577
1.273513e-07
-0.00013979611
1.0354325e-07
-0.00013979641
8.2763912e-08
-0.00013979666
6.5230498e-08
-0.00013979688
5.0746175e-08
-0.00013979705
3.9016647e-08
-0.00013979718
2.9482464e-08
-0.00013979729
2.1645585e-08
-0.00013979737
1.4931083e-08
-0.00013979743
9.224508e-09
-0.00013979746
5.1134158e-09
-0.00013979746
2.9277124e-09
-0.00013979745
2.9344838e-09
-0.00013979743
1.4009982e-09
-0.00013979742
1.0908374e-09
-0.0001397974
1.0856268e-09
-0.00013979739
8.7030153e-10
-0.00013979738
5.6912523e-10
-0.00013979737
5.7238551e-10
-0.00013979736
4.8529141e-10
-0.00013979736
4.1991874e-10
-0.00013979736
3.5140013e-10
-0.00013979736
2.9813663e-10
-0.00013979736
2.5781998e-10
-0.00013979736
2.4647717e-10
-0.00013979736
2.5188939e-10
-0.00013979736
2.5138861e-10
-0.00013979735
2.4077727e-10
-0.00013979735
2.3859064e-10
-0.00013979735
2.4075288e-10
-0.00013979735
2.3879793e-10
-0.00013979734
2.4025355e-10
-0.00013979734
2.3833433e-10
-0.00013979734
2.3666575e-10
-0.00013979733
2.2585726e-10
-0.00013979733
2.2668794e-10
-0.00013979733
2.196086e-10
-0.00013979732
2.240127e-10
-0.00013979732
2.0822408e-10
-0.00013979732
1.9754746e-10
-0.00013979731
1.770354e-10
-0.00013979731
1.4742706e-10
-0.00013979731
1.1026589e-10
-0.0001397973
9.084792e-11
-0.0001397973
3.7424792e-11
-0.00013979729
-4.1112433e-11
-0.00013979729
-6.5235663e-11
-0.00013979729
-1.1025188e-10
-0.00013979728
-2.7856578e-10
-0.00013979728
-2.527945e-10
-0.00013979728
-3.3616776e-10
-0.00013979727
-4.254896e-10
-0.00013979727
-4.8505421e-10
-0.00013979727
-5.1347387e-10
-0.00013979727
-5.6407052e-10
-0.00013979726
-6.1965317e-10
-0.00013979726
-6.8071276e-10
-0.00013979726
-6.6313366e-10
-0.00013979726
-6.8197943e-10
-0.00013979726
-6.8107344e-10
-0.00013979726
-6.9207291e-10
-0.00013979726
-6.5752961e-10
-0.00013979726
-7.4489576e-10
-0.00013979725
-7.4390642e-10
-0.00013979725
-7.3548948e-10
-0.00013979725
-8.6781375e-10
-0.00013979725
-6.9034207e-10
-0.00013979725
-7.5836789e-10
-0.00013979725
-7.537551e-10
-0.00013979725
-6.9728807e-10
-0.00013979725
-7.1812542e-10
-0.00013979725
-3.1555461e-10
-0.00013979725
-1.1555131e-10
-0.00013979725
-0.00013979725
2.8223341e-08
-0.00013979547
4.2667914e-08
-0.00013979547
4.9264346e-08
-0.00013979549
5.1285546e-08
-0.0001397955
5.2073561e-08
-0.00013979551
5.2218202e-08
-0.00013979553
5.2215258e-08
-0.00013979555
5.1843329e-08
-0.00013979557
5.1874481e-08
-0.00013979559
5.116094e-08
-0.00013979562
5.0594268e-08
-0.00013979564
4.9920884e-08
-0.00013979567
4.9126052e-08
-0.0001397957
4.8098039e-08
-0.00013979573
4.7010937e-08
-0.00013979577
4.569445e-08
-0.00013979581
4.4347749e-08
-0.00013979585
4.2855881e-08
-0.00013979589
4.1454636e-08
-0.00013979594
4.0112977e-08
-0.00013979599
3.8708558e-08
-0.00013979604
3.6824566e-08
-0.0001397961
3.4417054e-08
-0.00013979616
3.1823277e-08
-0.00013979621
2.9385672e-08
-0.00013979628
2.7043923e-08
-0.00013979634
2.4762469e-08
-0.0001397964
2.2983305e-08
-0.00013979646
2.1863041e-08
-0.00013979652
2.0648972e-08
-0.00013979659
1.8707705e-08
-0.00013979665
1.6343313e-08
-0.00013979672
1.4041052e-08
-0.00013979679
1.1849543e-08
-0.00013979684
9.8762769e-09
-0.0001397969
8.1098619e-09
-0.00013979695
6.5732674e-09
-0.00013979699
5.2598669e-09
-0.00013979703
4.15705e-09
-0.00013979706
3.2497839e-09
-0.00013979708
2.5067766e-09
-0.0001397971
1.9196909e-09
-0.00013979712
1.4453221e-09
-0.00013979713
1.086787e-09
-0.00013979714
8.1271404e-10
-0.00013979715
6.1370184e-10
-0.00013979715
4.6691327e-10
-0.00013979715
3.6311345e-10
-0.00013979715
2.8999425e-10
-0.00013979715
2.5962717e-10
-0.00013979715
2.7061666e-10
-0.00013979715
2.9933671e-10
-0.00013979715
3.3646218e-10
-0.00013979715
3.7379408e-10
-0.00013979715
4.1337213e-10
-0.00013979716
4.5610991e-10
-0.00013979716
4.9544991e-10
-0.00013979716
5.2463532e-10
-0.00013979716
5.4534137e-10
-0.00013979717
5.6503938e-10
-0.00013979717
6.0282758e-10
-0.00013979717
6.5507453e-10
-0.00013979717
7.1568883e-10
-0.00013979718
7.8189049e-10
-0.00013979718
8.3526238e-10
-0.00013979718
8.7596717e-10
-0.00013979719
8.9945403e-10
-0.00013979719
9.4102409e-10
-0.00013979719
9.6138085e-10
-0.0001397972
9.8797041e-10
-0.0001397972
9.9799251e-10
-0.0001397972
1.0323748e-09
-0.0001397972
1.0538083e-09
-0.00013979721
1.0584181e-09
-0.00013979721
1.0839841e-09
-0.00013979721
1.0577452e-09
-0.00013979721
1.0596599e-09
-0.00013979722
9.7942843e-10
-0.00013979722
9.3483206e-10
-0.00013979722
9.3975407e-10
-0.00013979722
8.9399837e-10
-0.00013979722
8.768674e-10
-0.00013979722
7.8346185e-10
-0.00013979722
7.0546161e-10
-0.00013979722
3.4098971e-10
-0.00013979723
1.8729528e-10
-0.00013979723
5.079081e-28
-0.00013979723
-1.2328687e-10
-0.00013979723
-2.7087065e-10
-0.00013979723
-1.9837505e-10
-0.00013979723
-3.2688517e-10
-0.00013979723
-3.2917021e-10
-0.00013979723
-2.6298781e-10
-0.00013979722
-1.4444977e-10
-0.00013979722
0
-0.00013979722
-8.7161103e-11
-0.00013979722
9.5748272e-11
-0.00013979722
1.051861e-10
-0.00013979722
1.0096007e-15
-0.00013979722
-0.00013979722
2.5602167e-09
-0.00013979713
3.3801844e-09
-0.00013979713
3.6771955e-09