/*--------------------------------*- C++ -*----------------------------------*\
| =========                 |                                                 |
| \\      /  F ield         | OpenFOAM: The Open Source CFD Toolbox           |
|  \\    /   O peration     | Version:  4.0                                   |
|   \\  /    A nd           | Web:      www.OpenFOAM.org                      |
|    \\/     M anipulation  |                                                 |
\*---------------------------------------------------------------------------*/
FoamFile
{
    version     2.0;
    format      ascii;
    class       volVectorField;
    location    "3000";
    object      U;
}
// * * * * * * * * * * * * * * * * * * * * * * * * * * * * * * * * * * * * * //

dimensions      [0 1 -1 0 0 0 0];

internalField   nonuniform List<vector> 
10000
(
(-1.7669554e-12 1.1367835e-29 -1.2814902e-11)
(7.3828695e-12 -1.4076527e-28 -3.7080347e-11)
(4.2353781e-12 1.6736228e-29 -6.3892598e-11)
(1.2664998e-12 -3.4262618e-29 -9.4155057e-11)
(-1.1412267e-12 -3.1435826e-29 -1.2710769e-10)
(-2.6557788e-12 -6.9789517e-29 -1.6270989e-10)
(-5.0489925e-12 -5.4479835e-29 -2.0104833e-10)
(-7.4385967e-12 -8.0907235e-29 -2.4222151e-10)
(-6.941461e-12 -7.8014776e-29 -2.8631231e-10)
(-6.4459351e-12 -1.0145359e-28 -3.3339444e-10)
(-9.0793871e-12 -1.4410417e-28 -3.835076e-10)
(-1.2267196e-11 -1.115991e-28 -4.3666738e-10)
(-8.8389002e-12 -5.9963121e-28 -4.9284115e-10)
(-7.3922318e-12 1.9248462e-27 -5.5195319e-10)
(-1.395817e-11 -8.3401706e-28 -6.138995e-10)
(-2.6767639e-11 -5.0538057e-28 -6.785322e-10)
(-3.2690768e-11 -7.5876635e-28 -7.4561174e-10)
(-2.6597403e-11 -8.321161e-28 -8.1483781e-10)
(6.3451357e-12 -1.305831e-27 -8.8588515e-10)
(4.6557982e-11 -2.207784e-28 -9.582994e-10)
(5.1566446e-11 -8.838159e-27 -1.0315961e-09)
(6.0060848e-11 -1.1333937e-27 -1.1052396e-09)
(7.4242429e-11 -3.0304095e-27 -1.1786646e-09)
(9.4692876e-11 -3.5391894e-27 -1.2511833e-09)
(1.1482846e-10 -4.2862747e-27 -1.3221719e-09)
(1.203806e-10 -5.5934953e-27 -1.390715e-09)
(1.2049175e-10 -5.3628729e-27 -1.4563889e-09)
(1.1120529e-10 -1.030238e-26 -1.5185514e-09)
(9.5159995e-11 1.1865394e-26 -1.5765983e-09)
(1.3321178e-10 -1.403949e-26 -1.6325813e-09)
(2.0099979e-10 -1.3305575e-26 -1.6851313e-09)
(2.5605471e-10 -1.0705095e-26 -1.7318893e-09)
(2.6967766e-10 -4.6276248e-26 -1.7772094e-09)
(3.3190142e-10 7.1815033e-27 -1.8249113e-09)
(5.1577223e-10 -2.7372e-26 -1.8764305e-09)
(7.3409684e-10 -2.3994309e-26 -1.9346692e-09)
(1.1097583e-09 -2.6793906e-26 -2.0029797e-09)
(1.3685471e-09 -2.5236219e-26 -2.0863498e-09)
(1.2969565e-09 -4.0499902e-26 -2.1816168e-09)
(1.288224e-10 -3.4299491e-26 -2.2799518e-09)
(2.2575915e-11 -2.7017631e-26 -2.3835744e-09)
(1.5265332e-09 1.1442673e-25 -2.4456329e-09)
(1.8002587e-09 -1.5546079e-26 -2.4174161e-09)
(2.1492238e-09 8.0480528e-26 -2.2151883e-09)
(2.4820161e-09 -1.1371817e-25 -1.7198685e-09)
(2.1865938e-09 1.3823973e-25 -7.5073336e-10)
(1.5419076e-09 -8.3189994e-26 8.6400229e-10)
(2.3843915e-09 4.3604235e-26 3.2246242e-09)
(4.4249097e-09 4.2395759e-26 5.7179162e-09)
(5.2966406e-09 -5.3009997e-26 6.3214863e-09)
(1.9434434e-09 -4.059858e-26 6.7819998e-09)
(1.2375699e-10 -4.1538624e-26 6.0984925e-09)
(3.6526153e-10 -3.8920283e-26 3.8063855e-09)
(2.6248644e-10 -3.5326844e-26 1.8083197e-09)
(1.5399891e-10 -3.6322945e-26 4.5168126e-10)
(1.5010714e-10 -3.124315e-26 -3.8468796e-10)
(7.9966574e-11 -2.1748677e-26 -8.6531185e-10)
(9.1390154e-12 -1.9498424e-26 -1.112588e-09)
(-1.7522801e-11 -1.9883191e-26 -1.2154365e-09)
(-3.4751615e-11 -1.6178219e-26 -1.2367726e-09)
(-3.0225053e-11 -1.1401606e-26 -1.2161373e-09)
(-7.0454616e-11 -2.1225347e-26 -1.1798768e-09)
(-1.0466204e-10 -9.3832275e-27 -1.1409563e-09)
(-9.9394822e-11 -1.8291521e-28 -1.1061164e-09)
(-8.7581351e-11 -8.1084479e-27 -1.0759551e-09)
(-9.7571997e-11 -5.7309149e-27 -1.0507906e-09)
(-9.9504517e-11 -4.9964678e-27 -1.0280525e-09)
(-6.8230316e-11 -4.6674989e-27 -1.0064895e-09)
(-1.2750617e-11 -1.4418455e-28 -9.8605018e-10)
(1.4440504e-11 -3.4747004e-27 -9.6067566e-10)
(-7.0585136e-12 -2.360563e-27 -9.3077278e-10)
(-3.8531432e-11 -1.9669661e-27 -8.9939459e-10)
(-5.5800704e-11 -1.7478825e-27 -8.6554501e-10)
(-5.0931951e-11 -1.3844847e-27 -8.3020186e-10)
(-4.4452075e-11 -1.4007205e-27 -7.9349853e-10)
(-4.6511708e-11 -1.0538394e-27 -7.5447017e-10)
(-5.279922e-11 -1.0348097e-27 -7.1417247e-10)
(-4.4705439e-11 -8.4394562e-28 -6.7320592e-10)
(-2.8362045e-11 -6.8342749e-28 -6.3184149e-10)
(-2.2762952e-11 -6.6209926e-28 -5.9081964e-10)
(-1.7967616e-11 -4.8186404e-28 -5.5005376e-10)
(-1.2529107e-11 -8.0911566e-28 -5.096382e-10)
(-1.7617276e-11 -3.4801691e-28 -4.6988735e-10)
(-1.9880461e-11 -3.9498713e-28 -4.3086692e-10)
(-1.3149274e-11 -3.2853467e-28 -3.9270678e-10)
(-8.3576447e-12 -3.0270083e-28 -3.5606754e-10)
(-7.8900828e-12 -2.6544904e-28 -3.2101348e-10)
(-7.2602455e-12 -2.3196813e-28 -2.8804318e-10)
(-2.0255841e-12 -1.8962595e-28 -2.5622239e-10)
(9.3406305e-15 -1.6279734e-28 -2.2598349e-10)
(-5.8319309e-12 -1.4470756e-28 -1.9695507e-10)
(-1.1927673e-11 -1.2096493e-28 -1.6953839e-10)
(-1.3564206e-11 -1.0363514e-28 -1.4371514e-10)
(-1.0937079e-11 -8.7495733e-29 -1.1944523e-10)
(-7.8459155e-12 -6.8809342e-29 -9.6695899e-11)
(-6.0405454e-12 -5.6101256e-29 -7.5501678e-11)
(-3.1555498e-12 -3.9284357e-29 -5.5696786e-11)
(5.7040704e-13 -2.7532394e-29 -3.7015709e-11)
(2.0891202e-13 -1.6240466e-29 -1.81315e-11)
(5.4379925e-14 -1.0919257e-29 -2.6814431e-12)
(-3.7395651e-13 -4.9970429e-29 -1.1088537e-11)
(-1.7097221e-12 -1.6608956e-28 -3.626225e-11)
(-4.3464373e-12 -2.6941986e-28 -6.4607318e-11)
(-7.3613498e-12 -4.0513851e-28 -9.5504769e-11)
(-8.3524627e-12 -5.4811806e-28 -1.2900865e-10)
(-8.4271003e-12 -7.2710447e-28 -1.6524061e-10)
(-1.0238002e-11 -9.0737551e-28 -2.0432666e-10)
(-4.5646089e-12 -1.1235267e-27 -2.4639306e-10)
(-5.4859792e-12 -1.3527964e-27 -2.9154455e-10)
(-1.6549721e-11 -1.6240669e-27 -3.3986944e-10)
(-1.7617206e-11 -1.9507634e-27 -3.914408e-10)
(-1.757812e-11 -2.2135151e-27 -4.4630347e-10)
(-1.2089951e-12 -3.0075596e-27 -5.0446375e-10)
(1.1359753e-11 -7.955413e-28 -5.6589364e-10)
(-1.3897837e-11 -3.9220461e-27 -6.3049991e-10)
(-3.3255155e-11 -3.9394743e-27 -6.9815752e-10)
(-3.4730609e-11 -4.4693457e-27 -7.6868392e-10)
(-5.4304873e-11 -4.9231566e-27 -8.4186682e-10)
(-7.1221273e-11 -5.6453722e-27 -9.1740955e-10)
(-6.472703e-11 -4.1433632e-27 -9.9501575e-10)
(-3.5271058e-11 -1.4688504e-26 -1.0741321e-09)
(-3.0847966e-11 -4.4819844e-27 -1.1542068e-09)
(-3.1748413e-11 -6.0405643e-27 -1.2346902e-09)
(-8.7321633e-12 -5.1823733e-27 -1.3149017e-09)
(5.2369905e-11 -4.570736e-27 -1.39416e-09)
(1.8982004e-10 -3.4503828e-27 -1.4717631e-09)
(3.1090596e-10 -1.2824212e-27 -1.5467e-09)
(3.8472785e-10 -4.7836782e-27 -1.6183146e-09)
(4.0370994e-11 2.4312538e-26 -1.6860355e-09)
(-4.8790379e-10 3.6104667e-27 -1.7490197e-09)
(6.2367555e-11 1.5455682e-26 -1.8073416e-09)
(8.7549621e-10 2.30717e-26 -1.860412e-09)
(8.9823933e-10 -6.8127152e-28 -1.9064036e-09)
(6.5731417e-10 5.2933026e-26 -1.9455242e-09)
(5.2530841e-10 3.6345249e-26 -1.979004e-09)
(6.7529334e-10 5.2494561e-26 -2.0094591e-09)
(3.1328301e-10 6.214598e-26 -2.0353332e-09)
(-4.5494083e-10 7.7215537e-26 -2.0575403e-09)
(1.672895e-10 8.2975129e-26 -2.073687e-09)
(1.058321e-09 9.9662827e-26 -2.0687056e-09)
(4.2876421e-10 6.4097127e-26 -2.011658e-09)
(-2.1965859e-10 1.4090305e-25 -1.9001567e-09)
(-3.0164249e-10 1.733846e-26 -1.6801474e-09)
(-4.3100471e-10 1.5858527e-25 -1.2826775e-09)
(2.3936894e-10 -7.5826449e-26 -6.1276268e-10)
(1.1769075e-09 1.9280923e-25 4.5493573e-10)
(1.4457449e-09 7.5664781e-26 2.0859623e-09)
(2.3607826e-10 1.338993e-25 4.3741591e-09)
(2.251524e-10 6.4061519e-26 6.6584634e-09)
(3.9903e-09 8.1147404e-26 6.7788362e-09)
(6.1621053e-09 6.2441162e-26 7.0147347e-09)
(7.1400851e-09 5.5371198e-26 6.580199e-09)
(7.031409e-09 5.8141394e-26 4.4986126e-09)
(6.4493601e-09 7.6164573e-26 2.6053268e-09)
(6.0230292e-09 -5.0774469e-26 1.3069326e-09)
(5.7058247e-09 -1.8327183e-26 4.3437668e-10)
(5.391798e-09 1.0216266e-25 -1.2884203e-10)
(5.2133951e-09 1.635189e-26 -4.8009717e-10)
(5.1842758e-09 -6.3621998e-26 -6.8891327e-10)
(5.1549376e-09 -6.6422605e-26 -8.1190492e-10)
(5.1111526e-09 -2.882762e-26 -8.9207907e-10)
(5.1271147e-09 -2.0485652e-25 -9.5032361e-10)
(5.1692411e-09 -6.295031e-26 -9.9225519e-10)
(5.2222944e-09 8.6159559e-26 -1.0193572e-09)
(5.2670015e-09 -1.1916962e-25 -1.0296766e-09)
(5.2652453e-09 -1.1462499e-25 -1.0491673e-09)
(5.2121139e-09 -9.1752179e-26 -1.0730262e-09)
(5.0843961e-09 -7.5864453e-26 -1.079961e-09)
(4.9067134e-09 8.6943015e-26 -1.0730432e-09)
(4.6943888e-09 -5.4616124e-26 -1.0612567e-09)
(4.470484e-09 -5.1668708e-27 -1.0458516e-09)
(4.221751e-09 -8.516989e-28 -1.0247684e-09)
(3.8673119e-09 -3.1515849e-27 -9.9959446e-10)
(3.5767361e-09 5.3377514e-27 -9.7022824e-10)
(3.3095762e-09 -8.2013962e-27 -9.3718929e-10)
(3.0126866e-09 -2.1960816e-27 -9.0093501e-10)
(3.0410527e-09 -7.8783844e-27 -8.6201359e-10)
(3.1197182e-09 -1.1600697e-27 -8.2095029e-10)
(2.805644e-09 9.57703e-27 -7.7844831e-10)
(2.1712377e-09 1.2901318e-27 -7.3521332e-10)
(1.5005222e-09 1.4653186e-26 -6.9174534e-10)
(1.1489929e-09 -5.5366952e-26 -6.4793521e-10)
(1.2167627e-09 1.3558878e-26 -6.018189e-10)
(1.4909391e-09 7.7040967e-28 -5.5390573e-10)
(1.682168e-09 3.8809875e-27 -5.0607812e-10)
(1.2983155e-09 1.8368057e-27 -4.5863528e-10)
(5.0252699e-13 1.5908662e-27 -4.1217873e-10)
(-8.287921e-10 9.5521523e-28 -3.6745494e-10)
(-8.8077177e-10 1.0137663e-27 -3.2486324e-10)
(-2.6559884e-10 6.9507389e-28 -2.8463088e-10)
(1.4420468e-10 7.2863493e-28 -2.4757018e-10)
(1.9259124e-11 4.4183672e-28 -2.1291459e-10)
(3.7290313e-12 2.7983128e-28 -1.8048688e-10)
(4.2949969e-11 2.6232815e-28 -1.5017645e-10)
(-1.1333243e-10 1.3536447e-28 -1.2138829e-10)
(-3.3468783e-10 -5.8369713e-28 -9.5175897e-11)
(-4.438879e-10 2.3410014e-29 -7.0476187e-11)
(1.7918217e-13 1.4144705e-28 -4.4762943e-11)
(9.7429875e-11 3.1702741e-28 -7.4911457e-12)
(-1.1575547e-10 4.8822208e-28 1.8951988e-11)
(8.8549293e-13 2.2057068e-29 1.0013794e-11)
(1.9178797e-12 8.8032846e-29 -2.3589545e-11)
(3.1070441e-12 1.5038833e-28 -6.7307665e-11)
(4.0275575e-12 2.5269746e-28 -1.0249928e-10)
(-1.9941247e-12 4.0184869e-28 -1.3930141e-10)
(1.4982953e-12 5.6182959e-28 -1.7866075e-10)
(1.8699952e-11 8.5317071e-28 -2.2093348e-10)
(3.5901526e-11 1.1707888e-27 -2.6614288e-10)
(6.1366432e-11 1.6095322e-27 -3.1433089e-10)
(7.2936163e-11 2.1487575e-27 -3.6550209e-10)
(7.0209944e-11 2.975849e-27 -4.1961164e-10)
(7.4634444e-11 3.7134966e-27 -4.7850319e-10)
(9.3983184e-11 6.2771752e-27 -5.4181667e-10)
(1.1815407e-10 -1.0110447e-28 -6.0514598e-10)
(1.3578351e-10 9.6166662e-27 -6.7087875e-10)
(1.324075e-10 1.020176e-26 -7.3835637e-10)
(9.8271967e-11 1.26434e-26 -8.0703196e-10)
(3.8591267e-11 1.612452e-26 -8.7662709e-10)
(-4.1819848e-11 2.1545121e-26 -9.4689684e-10)
(-1.4020395e-10 1.9897038e-26 -1.0174491e-09)
(-2.6851141e-10 6.3710217e-26 -1.0879129e-09)
(-4.2508543e-10 3.3298565e-26 -1.1578462e-09)
(-5.8648324e-10 4.5165346e-26 -1.2266772e-09)
(-7.518773e-10 4.9061005e-26 -1.2939118e-09)
(-9.0366275e-10 5.4397998e-26 -1.3590403e-09)
(-1.0515266e-09 6.4207123e-26 -1.4216122e-09)
(-1.2062669e-09 6.8784412e-26 -1.4810914e-09)
(-1.3565345e-09 9.2454877e-26 -1.536615e-09)
(-1.4989172e-09 3.9776349e-26 -1.5865782e-09)
(-1.6495606e-09 1.3013397e-25 -1.6278811e-09)
(-1.8080293e-09 1.4317523e-25 -1.6710141e-09)
(-1.9500055e-09 1.5476755e-25 -1.7230637e-09)
(-2.0689598e-09 2.2572781e-25 -1.7726596e-09)
(-2.1654061e-09 1.4788998e-25 -1.8226531e-09)
(-2.2722577e-09 2.2283845e-25 -1.8785644e-09)
(-2.3678737e-09 2.8693325e-25 -1.9476777e-09)
(-2.4263837e-09 3.588321e-25 -2.0347792e-09)
(-2.4611068e-09 3.8636322e-25 -2.1349519e-09)
(-2.500915e-09 4.0777679e-25 -2.2483394e-09)
(-2.5881624e-09 3.5093245e-25 -2.3801662e-09)
(-2.6521487e-09 2.3625883e-25 -2.5087611e-09)
(-2.695989e-09 8.870118e-26 -2.5835625e-09)
(-2.6949866e-09 5.1417503e-26 -2.5506472e-09)
(-2.676013e-09 1.5525435e-26 -2.3277537e-09)
(-2.7016537e-09 -4.7836397e-27 -1.7955444e-09)
(-2.7418238e-09 -7.8980872e-27 -8.0340394e-10)
(-2.8917151e-09 -4.4508694e-27 8.4298686e-10)
(-3.1603836e-09 9.3418115e-26 3.2948565e-09)
(-3.6588129e-09 2.3963848e-25 6.1271534e-09)
(-4.8388528e-09 2.980925e-25 7.2272121e-09)
(-8.7508551e-09 3.9962344e-25 7.2978342e-09)
(-1.2473626e-08 3.1007871e-25 6.0448156e-09)
(-1.3885848e-08 2.8101673e-25 3.6478774e-09)
(-1.5123484e-08 2.7223866e-25 1.5722292e-09)
(-1.6498405e-08 5.7168291e-25 1.2712819e-10)
(-1.7774758e-08 2.6657721e-25 -7.6130958e-10)
(-1.9088844e-08 -7.1069676e-26 -1.2765293e-09)
(-2.0436386e-08 3.191039e-25 -1.5524269e-09)
(-2.1687843e-08 6.2208176e-25 -1.6849177e-09)
(-2.2876984e-08 5.6722796e-25 -1.7356196e-09)
(-2.4007949e-08 5.8978476e-25 -1.7375774e-09)
(-2.5030026e-08 1.3541832e-25 -1.7204367e-09)
(-2.6001594e-08 4.211948e-25 -1.7205285e-09)
(-2.6939993e-08 1.093634e-24 -1.691177e-09)
(-2.780617e-08 5.3982291e-25 -1.6439971e-09)
(-2.8590678e-08 8.0754071e-25 -1.581697e-09)
(-2.9257287e-08 5.7481526e-25 -1.4998249e-09)
(-2.9803536e-08 1.8772465e-25 -1.4306458e-09)
(-3.0240958e-08 8.3893601e-25 -1.3724753e-09)
(-3.0516019e-08 1.2600853e-25 -1.319348e-09)
(-3.0588826e-08 1.0025171e-25 -1.2677407e-09)
(-3.0453819e-08 8.2587695e-27 -1.2161659e-09)
(-3.0099955e-08 2.0779681e-26 -1.1635473e-09)
(-2.9523192e-08 -6.3801829e-26 -1.1094741e-09)
(-2.8724534e-08 4.8866652e-26 -1.0544572e-09)
(-2.7720451e-08 -1.6431857e-26 -9.9975253e-10)
(-2.6568069e-08 3.9016761e-26 -9.4474276e-10)
(-2.5417266e-08 -2.8352529e-26 -8.8936436e-10)
(-2.4566858e-08 -1.1194785e-25 -8.3390279e-10)
(-2.4381848e-08 -6.7023527e-26 -7.781619e-10)
(-2.4626282e-08 5.3613398e-26 -7.2289233e-10)
(-2.3663998e-08 -6.1622173e-25 -6.684954e-10)
(-1.9897652e-08 1.6116598e-26 -6.152165e-10)
(-1.4715195e-08 -3.6213742e-26 -5.6345919e-10)
(-1.0107999e-08 -3.2913602e-26 -5.1353085e-10)
(-6.2654162e-09 -2.1466797e-26 -4.6516673e-10)
(-3.3419619e-09 -1.7552493e-26 -4.1855479e-10)
(-1.3736299e-09 -1.4484109e-26 -3.7338805e-10)
(-3.8924767e-11 -1.3022593e-26 -3.307453e-10)
(-8.0102728e-10 -1.1651286e-26 -2.9031433e-10)
(-1.915811e-09 -1.0641236e-26 -2.5251341e-10)
(-1.8976004e-09 -8.7937613e-27 -2.1694432e-10)
(-1.5838309e-09 -4.7749516e-27 -1.8358995e-10)
(3.1198993e-13 -6.3480588e-27 -1.5238157e-10)
(-3.9839151e-10 -5.2551172e-27 -1.2328222e-10)
(-2.033642e-09 -2.9187252e-27 -9.6150141e-11)
(1.3433076e-13 -2.3072081e-27 -7.1046649e-11)
(1.8747702e-09 -8.0569273e-27 -4.8207133e-11)
(1.6254548e-09 -9.4204493e-28 -2.9396127e-11)
(1.2150297e-10 3.4886183e-27 -1.188557e-11)
(5.7358324e-10 -2.1797352e-27 -1.2443396e-11)
(1.2970772e-09 6.2095984e-29 -3.8373833e-11)
(2.2598209e-09 -1.3460566e-26 -6.7325762e-11)
(2.36763e-10 -2.0679306e-26 -9.9347966e-11)
(-2.5472349e-09 -2.6594895e-26 -1.3404835e-10)
(-1.9174364e-09 -1.3579653e-26 -1.714191e-10)
(-9.6081925e-10 -1.8844806e-25 -2.1153389e-10)
(1.3624008e-11 -2.1792367e-25 -2.5443534e-10)
(8.5487435e-10 -3.7979891e-26 -3.0015263e-10)
(1.5790183e-09 -7.8747561e-26 -3.4868102e-10)
(2.0079489e-11 -8.415997e-26 -3.9997199e-10)
(-2.8264878e-09 -1.0551556e-25 -4.539322e-10)
(9.1180771e-10 -1.0124287e-25 -5.1042529e-10)
(7.2458264e-09 -1.1816164e-25 -5.6925413e-10)
(9.7094766e-09 -1.349267e-25 -6.3016124e-10)
(1.2211191e-08 -1.3597029e-25 -6.9282862e-10)
(1.4462968e-08 -1.2312022e-25 -7.5687897e-10)
(1.6413487e-08 -2.6170979e-26 -8.2175132e-10)
(1.8100026e-08 1.1155477e-27 -8.8699453e-10)
(1.9559652e-08 -1.9558088e-25 -9.5184012e-10)
(2.0825734e-08 3.4687041e-25 -1.0153416e-09)
(2.1896626e-08 -1.7140644e-25 -1.0765729e-09)
(2.2766739e-08 -9.6523333e-25 -1.1344365e-09)
(2.3409581e-08 -1.6464524e-24 -1.1873629e-09)
(2.3807351e-08 -1.0781489e-24 -1.2337425e-09)
(2.3965456e-08 -1.3551218e-24 -1.2719858e-09)
(2.3896234e-08 -1.5504706e-24 -1.3010708e-09)
(2.3646007e-08 -9.159529e-25 -1.320629e-09)
(2.3245554e-08 -1.7929119e-24 -1.3309701e-09)
(2.2688303e-08 -2.1050662e-24 -1.3314427e-09)
(2.200252e-08 -2.5743087e-24 -1.3061886e-09)
(2.1228965e-08 -2.7673446e-24 -1.253324e-09)
(2.0408713e-08 -2.5109285e-24 -1.1989992e-09)
(1.9551399e-08 -3.0329269e-24 -1.1266333e-09)
(1.8652868e-08 -3.2026876e-24 -1.0299758e-09)
(1.7733985e-08 -3.2390737e-24 -9.346036e-10)
(1.675142e-08 -4.2995394e-24 -8.3393372e-10)
(1.5734681e-08 -4.3718216e-24 -7.2872704e-10)
(1.477441e-08 -4.5023027e-24 -6.1616871e-10)
(1.3780477e-08 -4.0839391e-24 -4.8288343e-10)
(1.2770306e-08 -3.5089204e-24 -3.0963917e-10)
(1.1849347e-08 -2.843887e-24 -6.8351824e-11)
(1.0920342e-08 -2.3999021e-24 2.9298105e-10)
(1.005285e-08 -2.3096393e-24 8.5003779e-10)
(9.2849869e-09 -1.9426792e-24 1.7110762e-09)
(8.4395869e-09 -1.4016305e-24 3.0167421e-09)
(7.4714146e-09 -6.9197085e-25 4.9453002e-09)
(6.5724257e-09 -3.6121671e-25 7.6475672e-09)
(5.6901381e-09 -4.6949579e-25 1.0809585e-08)
(4.8695045e-09 -3.5108673e-25 1.266544e-08)
(4.8080963e-09 -1.6859114e-25 1.236412e-08)
(4.653753e-09 -1.6334503e-25 1.0128729e-08)
(4.4297819e-09 -3.7524581e-25 7.1629586e-09)
(4.4056603e-09 -3.6445581e-25 4.7366575e-09)
(4.4438891e-09 -3.5354075e-25 2.9969652e-09)
(4.4003465e-09 -3.8260801e-25 1.7961831e-09)
(4.3944277e-09 -2.5787256e-25 9.7867783e-10)
(4.2832088e-09 -1.5513429e-25 4.4052798e-10)
(4.1303255e-09 -2.7333896e-25 8.9030043e-11)
(3.9993961e-09 -2.8097816e-25 -1.3145001e-10)
(3.7781497e-09 -3.1538893e-25 -2.6443667e-10)
(3.5241514e-09 -3.1160166e-25 -3.3380848e-10)
(3.2791884e-09 -1.9552748e-25 -3.4480205e-10)
(3.0410359e-09 -1.6356834e-25 -3.6798544e-10)
(2.7898442e-09 -1.2319353e-25 -4.0642321e-10)
(2.4951633e-09 -1.1232132e-25 -4.365835e-10)
(2.1614241e-09 -7.2092939e-26 -4.7056292e-10)
(1.8037948e-09 -1.2822613e-25 -4.9732349e-10)
(1.4223642e-09 2.3314884e-26 -5.1420072e-10)
(1.0569847e-09 -5.0620106e-26 -5.2278974e-10)
(8.6450898e-10 -2.7098086e-26 -5.2402538e-10)
(9.0281203e-10 -2.068318e-26 -5.1905463e-10)
(9.9624286e-10 -1.6208151e-26 -5.0837241e-10)
(1.052658e-09 -1.1939294e-26 -4.9297501e-10)
(1.0772082e-09 -5.1543497e-27 -4.7358354e-10)
(1.006429e-09 -3.9136823e-26 -4.5096478e-10)
(8.3855739e-10 7.9135557e-28 -4.262073e-10)
(6.5726109e-10 -1.0927537e-26 -4.0007678e-10)
(5.2649482e-10 3.1402119e-26 -3.7285892e-10)
(4.3561406e-10 -7.0134507e-27 -3.4473162e-10)
(3.6853428e-10 3.5536617e-27 -3.1603262e-10)
(3.2041319e-10 -1.4951795e-26 -2.8762217e-10)
(2.9219786e-10 2.8580956e-27 -2.6211786e-10)
(2.7610944e-10 -2.2732695e-27 -2.3953129e-10)
(2.1516829e-10 1.331661e-26 -2.1847437e-10)
(1.1155289e-10 9.8972163e-27 -1.9902352e-10)
(3.9310389e-11 1.2153382e-26 -1.8089774e-10)
(7.3900671e-12 -2.0623341e-27 -1.6358824e-10)
(-3.9567195e-12 6.6321534e-27 -1.4686802e-10)
(-1.7945459e-11 -1.1951536e-28 -1.3064575e-10)
(-4.5005241e-11 9.7637202e-28 -1.1417726e-10)
(-7.5755443e-11 4.861631e-28 -9.8263619e-11)
(2.1323223e-12 1.3547025e-27 -8.3078188e-11)
(9.1193939e-11 -4.9159701e-27 -6.8701079e-11)
(8.952505e-11 9.4995439e-28 -5.5679629e-11)
(6.2723932e-11 2.8838915e-28 -4.2886711e-11)
(3.7643284e-11 -7.9463417e-29 -3.1311782e-11)
(2.2009748e-11 2.1795081e-28 -2.3573592e-11)
(5.4131484e-12 1.3000984e-28 -3.1218706e-11)
(-3.0962173e-12 5.6862547e-29 -3.1689658e-11)
(1.4739868e-12 -4.6600967e-29 -3.0899178e-11)
(3.5834491e-13 -1.1647427e-28 -4.443243e-11)
(-6.581901e-13 -3.2376467e-28 -5.3728831e-11)
(-1.001636e-11 -3.094387e-28 -7.6339215e-11)
(-1.8099027e-12 -4.5798454e-28 -1.0218093e-10)
(-4.6140855e-13 -5.269417e-28 -1.3051495e-10)
(-1.0709899e-11 -6.333073e-28 -1.6122016e-10)
(-9.6405184e-12 -9.1344093e-28 -1.9448206e-10)
(-8.2001325e-12 8.5525209e-30 -2.3046286e-10)
(-7.7292786e-12 -1.0502803e-27 -2.6930775e-10)
(-8.7647801e-12 -2.0805696e-27 -3.111959e-10)
(-5.9428169e-12 -2.4982001e-27 -3.5435601e-10)
(-2.231187e-12 -5.9961371e-28 -3.9916445e-10)
(4.8915487e-12 -5.3712613e-27 -4.4998448e-10)
(1.4248046e-11 2.4326057e-27 -5.0427046e-10)
(-4.0483977e-12 -2.5756397e-27 -5.6242609e-10)
(8.8551041e-12 -1.0948972e-27 -6.246678e-10)
(-1.0690697e-11 -6.1734522e-27 -6.9079954e-10)
(-9.5036289e-11 -1.3566687e-27 -7.6051351e-10)
(-2.6169659e-11 -2.1712502e-27 -8.3352558e-10)
(5.5364933e-11 -2.1854398e-27 -9.0953239e-10)
(-1.9138467e-11 -2.1069066e-27 -9.8834496e-10)
(-9.1319068e-11 -1.980922e-27 -1.069849e-09)
(-9.9788745e-11 1.0924515e-27 -1.1539577e-09)
(-2.1658043e-10 -1.0774973e-26 -1.2407791e-09)
(-3.671767e-10 4.629085e-27 -1.3305355e-09)
(-4.1970816e-10 1.9418089e-26 -1.4230357e-09)
(-4.248731e-10 1.2228475e-26 -1.517792e-09)
(-4.4659994e-10 -1.458638e-26 -1.614803e-09)
(-4.7916102e-10 1.0028673e-26 -1.7155265e-09)
(-5.2670857e-10 4.0094238e-27 -1.8266709e-09)
(-5.767487e-10 2.7986899e-27 -1.9490295e-09)
(-6.4996979e-10 5.0046095e-27 -2.0698354e-09)
(-7.6961612e-10 -1.9256901e-26 -2.2077721e-09)
(-8.7672608e-10 -1.28818e-26 -2.3701274e-09)
(-9.854468e-10 -4.616119e-26 -2.5329975e-09)
(-1.1505042e-09 1.3412676e-26 -2.7060725e-09)
(-1.3886661e-09 1.936167e-26 -2.8920255e-09)
(-1.6070215e-09 2.5602424e-26 -3.0925125e-09)
(-1.7921363e-09 -3.0693133e-26 -3.3482153e-09)
(-1.9798415e-09 2.3837774e-26 -3.5576179e-09)
(-2.1501271e-09 -1.3373162e-26 -3.7292646e-09)
(-2.3567789e-09 3.0993926e-26 -3.8158657e-09)
(-2.5838352e-09 7.8507477e-26 -3.8486662e-09)
(-2.7366796e-09 -2.7358453e-26 -3.6716612e-09)
(-2.816185e-09 3.2441486e-26 -3.0335701e-09)
(-2.9307958e-09 4.3025071e-26 -2.0364151e-09)
(-2.9706558e-09 6.2278744e-27 -2.7092855e-10)
(-2.7659683e-09 -7.1728524e-26 1.9202051e-09)
(-2.2478753e-09 -1.8630781e-26 3.3071176e-09)
(-4.660675e-10 -5.0447112e-26 3.4169741e-09)
(6.1266602e-10 4.1917727e-26 2.2126972e-09)
(7.0310223e-10 5.7838574e-26 4.4642882e-10)
(6.9880565e-10 -2.0642516e-28 -9.2555699e-10)
(7.3061599e-10 5.6533611e-26 -1.7747047e-09)
(3.8819188e-10 5.623113e-26 -2.2326931e-09)
(4.565029e-10 2.758552e-26 -2.4201944e-09)
(4.3200048e-10 5.7800674e-26 -2.4321727e-09)
(1.8026411e-10 5.9792897e-26 -2.3410705e-09)
(1.5935701e-10 5.970127e-26 -2.2003988e-09)
(1.5372907e-10 5.8216434e-26 -2.0425596e-09)
(1.4923145e-10 6.7613967e-26 -1.8875916e-09)
(8.3582676e-11 6.2415903e-26 -1.7459468e-09)
(-1.0814072e-11 3.8445434e-26 -1.6212363e-09)
(-6.8531706e-11 5.1943252e-26 -1.5130752e-09)
(-8.6128806e-11 4.9563788e-26 -1.4196491e-09)
(-1.1593424e-10 4.7288297e-26 -1.3381105e-09)
(-1.3662319e-10 4.3321622e-26 -1.2656359e-09)
(-1.2279168e-10 4.9783822e-26 -1.1996972e-09)
(1.3263567e-10 3.9351453e-26 -1.1384157e-09)
(3.1308568e-10 3.7893376e-26 -1.0798884e-09)
(2.7466949e-10 3.5097669e-26 -1.0238043e-09)
(2.3011393e-10 3.3813519e-26 -9.7025641e-10)
(1.876138e-10 3.0654785e-26 -9.1834884e-10)
(1.5486123e-10 3.3506891e-26 -8.6751001e-10)
(1.1908338e-10 2.6760959e-26 -8.1756439e-10)
(7.4225929e-11 2.5648622e-26 -7.6824874e-10)
(2.9592918e-11 2.4316439e-26 -7.19437e-10)
(1.2900695e-11 1.8885048e-26 -6.7134556e-10)
(1.249217e-11 1.7496494e-26 -6.2415768e-10)
(9.0518767e-12 1.9217777e-26 -5.7803121e-10)
(-7.5740967e-13 1.6850481e-26 -5.3311193e-10)
(-6.6580033e-12 1.7052667e-26 -4.8955444e-10)
(-8.6448409e-13 1.3938174e-26 -4.4749734e-10)
(-8.1089559e-13 1.3902302e-26 -4.0699796e-10)
(-7.8717254e-12 1.235574e-26 -3.6810267e-10)
(-1.3067013e-11 1.1272047e-26 -3.3091338e-10)
(-8.5902334e-12 9.1991223e-27 -2.9549829e-10)
(-8.104741e-12 8.6662603e-27 -2.6188848e-10)
(-7.3116179e-12 7.2222678e-27 -2.3010537e-10)
(-4.741061e-12 6.3418345e-27 -2.0012975e-10)
(-5.0294354e-12 5.4480126e-27 -1.719435e-10)
(-3.1593996e-12 4.6074871e-27 -1.4551124e-10)
(-1.2210273e-12 3.8321799e-27 -1.208244e-10)
(-2.813895e-12 3.107196e-27 -9.7797355e-11)
(-3.033916e-12 2.4213992e-27 -7.6375435e-11)
(-2.3930678e-12 1.8214435e-27 -5.651201e-11)
(-1.7016427e-12 1.2267682e-27 -3.8297896e-11)
(-5.1473482e-14 7.145552e-28 -2.2535884e-11)
(4.9093192e-13 2.3097807e-28 -8.2349347e-12)
(-5.1166552e-13 -2.4830167e-28 -1.1367609e-11)
(9.9916391e-14 -6.9969839e-28 -3.4520853e-11)
(1.1081594e-11 -1.3060109e-27 -6.0210345e-11)
(1.453053e-11 -1.9185074e-27 -8.8674858e-11)
(1.024594e-11 -2.5688524e-27 -1.1955431e-10)
(-9.8596315e-13 -3.2663962e-27 -1.5284854e-10)
(-7.8084835e-13 -3.9950632e-27 -1.8860168e-10)
(1.0416829e-12 -4.994284e-27 -2.2685919e-10)
(-9.6040785e-12 -4.767348e-27 -2.6764912e-10)
(-1.1765374e-11 -6.6828113e-27 -3.1097385e-10)
(-1.3251776e-11 -8.6181851e-27 -3.5679892e-10)
(-1.489402e-11 -9.970693e-27 -4.0505345e-10)
(-1.5148846e-11 -8.8518188e-27 -4.5561635e-10)
(-1.5578947e-11 -1.5223401e-26 -5.0831586e-10)
(-1.0635444e-11 -7.2614102e-27 -5.6291356e-10)
(-1.522118e-12 -1.4295686e-26 -6.190974e-10)
(5.4384034e-12 -1.3627969e-26 -6.7645537e-10)
(9.9494403e-12 -2.1373751e-26 -7.3458733e-10)
(-2.3725253e-12 -1.5936136e-26 -7.9279591e-10)
(-2.6066455e-12 -2.1133356e-26 -8.505246e-10)
(2.626555e-11 -6.2723976e-27 -9.0718492e-10)
(4.1084335e-11 -2.3792787e-26 -9.6181485e-10)
(4.9078904e-11 -2.2602251e-26 -1.0133773e-09)
(6.6224398e-11 -2.0726108e-26 -1.0610984e-09)
(9.1446453e-11 -4.3339701e-26 -1.1038908e-09)
(1.4343858e-10 -2.6705641e-26 -1.1405664e-09)
(2.1722477e-10 -8.7629062e-27 -1.1700637e-09)
(2.3638839e-10 -2.7143414e-26 -1.1917489e-09)
(1.623013e-10 -8.1589335e-26 -1.2054153e-09)
(1.5467047e-10 -2.6731934e-26 -1.2105942e-09)
(3.1877122e-10 -3.7604515e-26 -1.2067608e-09)
(5.0697235e-10 -3.7992216e-26 -1.1949039e-09)
(6.8855731e-10 -3.4615302e-26 -1.177297e-09)
(9.5049508e-10 -1.02887e-25 -1.1561484e-09)
(1.3104956e-09 -1.0427343e-25 -1.1350267e-09)
(1.8375713e-09 -3.1377417e-26 -1.1186123e-09)
(2.5523484e-09 -4.7066178e-26 -1.1119774e-09)
(3.3941803e-09 -5.1341058e-26 -1.118367e-09)
(2.9446968e-10 -5.399784e-26 -1.1344542e-09)
(4.5718442e-10 -6.9590004e-26 -1.1510508e-09)
(5.7224642e-09 5.9329572e-26 -1.1575958e-09)
(6.0648121e-09 -2.4798216e-25 -1.126795e-09)
(5.0944971e-10 -9.0877447e-26 -1.0040271e-09)
(-6.5035683e-09 -5.0649985e-27 -7.1297786e-10)
(6.6415794e-11 -1.6683705e-25 -1.560788e-10)
(9.2445964e-10 8.4629962e-26 7.888699e-10)
(-8.7319542e-11 -1.7851111e-25 2.275723e-09)
(8.3061205e-09 -1.1210174e-25 4.4320646e-09)
(7.4400559e-09 -1.3693627e-25 6.9628256e-09)
(3.4747071e-09 -7.9491334e-26 8.5601832e-09)
(2.98695e-11 -1.7995169e-25 8.5248438e-09)
(-8.981514e-10 -1.9379919e-26 6.8717092e-09)
(-1.1267135e-09 -7.2676742e-27 4.6414565e-09)
(-1.0211596e-09 -1.4128123e-25 2.8235881e-09)
(-7.1140144e-10 -1.1753349e-26 1.5487708e-09)
(-4.3493116e-10 -3.8632869e-26 7.1076816e-10)
(-2.7861048e-10 -2.9381019e-26 1.8674275e-10)
(-1.4566352e-10 -2.2458565e-26 -1.2536152e-10)
(-7.7872591e-11 -1.6292092e-26 -2.9715589e-10)
(-3.8904896e-11 -1.8318933e-26 -3.9061355e-10)
(-3.8251795e-11 -2.6257945e-26 -4.3970663e-10)
(-5.5350227e-11 -5.8775658e-27 -4.6931608e-10)
(-8.2226209e-11 -5.1257137e-27 -4.9191646e-10)
(-1.0124946e-10 -1.8816133e-26 -5.1307344e-10)
(-8.299484e-11 -1.4857511e-26 -5.3550466e-10)
(-8.5928605e-11 -1.3010494e-26 -5.5920009e-10)
(-1.1438887e-10 -1.2902476e-26 -5.8296534e-10)
(-9.8208002e-11 -1.4865332e-26 -6.0471015e-10)
(-5.5685285e-11 -6.5250803e-27 -6.2289316e-10)
(-4.6216402e-11 -1.2870555e-26 -6.3631478e-10)
(-5.0654619e-11 -1.0888465e-26 -6.4547465e-10)
(-3.8999962e-11 -1.1110527e-26 -6.4925737e-10)
(-2.7009145e-11 -9.805412e-27 -6.4751785e-10)
(-1.6311438e-11 -9.4911892e-27 -6.4043452e-10)
(2.1310566e-13 -8.3571302e-27 -6.284235e-10)
(3.9927529e-12 -1.0581738e-26 -6.120535e-10)
(-3.8391744e-12 -6.9146525e-27 -5.9186017e-10)
(-1.2841503e-11 -9.1770491e-27 -5.6837519e-10)
(-1.6487423e-11 -6.359671e-27 -5.4220654e-10)
(-7.936841e-12 -6.1693792e-27 -5.1396296e-10)
(9.1371257e-12 -5.6949036e-27 -4.8414039e-10)
(1.4391514e-11 -5.3330989e-27 -4.5323388e-10)
(7.8403201e-12 -4.1887732e-27 -4.2167633e-10)
(4.9150922e-13 -4.4190802e-27 -3.89874e-10)
(-4.5129286e-12 -4.0464738e-27 -3.5816902e-10)
(-6.8790618e-12 -2.9702345e-27 -3.2684337e-10)
(-8.314161e-12 -3.2804489e-27 -2.961456e-10)
(8.2584584e-12 -2.8941276e-27 -2.6628766e-10)
(1.8732841e-11 -2.2790682e-27 -2.374376e-10)
(1.4376256e-11 -2.2733217e-27 -2.0972082e-10)
(8.6922519e-12 -1.9318282e-27 -1.8323463e-10)
(5.6517779e-12 -1.6820852e-27 -1.5804048e-10)
(5.3099586e-12 -1.4192102e-27 -1.3418252e-10)
(4.5142382e-12 -1.1881266e-27 -1.1168226e-10)
(5.6407219e-12 -9.6220374e-28 -9.054612e-11)
(5.6492469e-12 -7.5334707e-28 -7.0766567e-11)
(2.3188285e-12 -5.6090544e-28 -5.23333e-11)
(4.6123705e-12 -3.8273149e-28 -3.5279516e-11)
(1.6838455e-12 -2.19781e-28 -1.9884993e-11)
(1.3372453e-12 -7.1728448e-29 -6.3057988e-12)
(2.6105564e-13 -5.4276215e-28 -1.4420283e-11)
(-2.2813026e-13 -1.6664516e-27 -3.8987567e-11)
(-8.6655249e-13 -2.9138098e-27 -6.5444807e-11)
(-2.4276249e-12 -4.2600213e-27 -9.5786977e-11)
(-2.8044544e-12 -5.729368e-27 -1.2898236e-10)
(-2.7553692e-12 -7.3014172e-27 -1.6497648e-10)
(-2.9986326e-12 -9.0168866e-27 -2.0387714e-10)
(-4.0761417e-12 -1.0890361e-26 -2.4581868e-10)
(-3.2727702e-12 -1.2802127e-26 -2.9091635e-10)
(8.3670275e-13 -1.5008696e-26 -3.3929346e-10)
(4.1409282e-12 -1.7299265e-26 -3.9105619e-10)
(7.3439299e-12 -1.9716203e-26 -4.4629132e-10)
(6.7994167e-12 -2.2311607e-26 -5.0506814e-10)
(4.2519717e-12 -2.516941e-26 -5.6744524e-10)
(7.2709237e-12 -2.8006013e-26 -6.3344349e-10)
(1.1893731e-11 -3.1159605e-26 -7.0306568e-10)
(1.2717461e-11 -3.4301969e-26 -7.7628004e-10)
(9.7935536e-12 -3.7846042e-26 -8.5304809e-10)
(7.2722743e-12 -4.1704671e-26 -9.3330691e-10)
(8.1868123e-12 -4.526938e-26 -1.0169305e-09)
(5.5492103e-12 -4.9895912e-26 -1.1038777e-09)
(-1.7174322e-12 -5.3627588e-26 -1.1941504e-09)
(-1.0683313e-11 -5.8040071e-26 -1.2877916e-09)
(-2.0926653e-11 -6.2790005e-26 -1.3848756e-09)
(-2.3664185e-11 -6.6324477e-26 -1.4855004e-09)
(-2.1902702e-11 -7.2047167e-26 -1.5900386e-09)
(-3.0346924e-11 -7.8253855e-26 -1.6992883e-09)
(-2.8271925e-11 -8.2803569e-26 -1.8142383e-09)
(-1.4213278e-11 -8.4469194e-26 -1.9358596e-09)
(8.9076906e-12 -9.3803347e-26 -2.0662321e-09)
(4.2325403e-11 -9.8859881e-26 -2.208451e-09)
(4.7075432e-11 -1.0470817e-25 -2.3668012e-09)
(5.55268e-11 -1.1144066e-25 -2.5457663e-09)
(4.5994889e-11 -1.1109601e-25 -2.7534801e-09)
(2.4274622e-11 -1.164663e-25 -2.9974652e-09)
(-1.4323921e-11 -1.2560418e-25 -3.2846763e-09)
(-6.5706912e-11 -1.2708562e-25 -3.6126713e-09)