/*--------------------------------*- C++ -*----------------------------------*\
| =========                 |                                                 |
| \\      /  F ield         | OpenFOAM: The Open Source CFD Toolbox           |
|  \\    /   O peration     | Version:  4.0                                   |
|   \\  /    A nd           | Web:      www.OpenFOAM.org                      |
|    \\/     M anipulation  |                                                 |
\*---------------------------------------------------------------------------*/
FoamFile
{
    version     2.0;
    format      ascii;
    class       surfaceScalarField;
    location    "12000";
    object      phi;
}
// * * * * * * * * * * * * * * * * * * * * * * * * * * * * * * * * * * * * * //

dimensions      [1 0 -1 0 0 0 0];

internalField   nonuniform List<scalar> 
9850
(
2.4808646e-14
-1.3708123e-12
1.1024897e-13
-4.708103e-12
2.7688861e-13
-9.1662525e-12
5.5227805e-13
-1.5055748e-11
9.7193586e-13
-2.2768715e-11
1.5814307e-12
-3.2800112e-11
2.4384689e-12
-4.5774243e-11
3.6198089e-12
-6.2477985e-11
5.2244614e-12
-8.3902399e-11
7.3781453e-12
-1.1129476e-10
1.0243848e-11
-1.4622354e-10
1.4036681e-11
-1.9065955e-10
1.9030212e-11
-2.4707685e-10
2.5583043e-11
-3.185785e-10
3.4159529e-11
-4.0905245e-10
4.536506e-11
-5.2336496e-10
5.9990041e-11
-6.6759977e-10
7.9066187e-11
-8.4935331e-10
1.0393655e-10
-1.078098e-09
1.3635351e-10
-1.3656286e-09
1.7861473e-10
-1.7266106e-09
2.3368502e-10
-2.179245e-09
3.0536594e-10
-2.7460828e-09
3.991721e-10
-3.4552622e-09
5.2221928e-10
-4.341364e-09
6.8389736e-10
-5.4469782e-09
8.9653254e-10
-6.8244762e-09
1.1763122e-09
-8.5380262e-09
1.5441565e-09
-1.0665951e-08
2.0270461e-09
-1.330343e-08
2.6593441e-09
-1.6565512e-08
3.4842403e-09
-2.0590322e-08
4.5554394e-09
-2.5542288e-08
5.938484e-09
-3.1615014e-08
7.7118459e-09
-3.9033197e-08
9.9673156e-09
-4.8052593e-08
1.2809036e-08
-5.8956497e-08
1.6349963e-08
-7.2046401e-08
2.0704127e-08
-8.7623328e-08
2.5973025e-08
-1.0595476e-07
3.2219283e-08
-1.2721992e-07
3.9422273e-08
-1.5142335e-07
4.7400945e-08
-1.7826281e-07
5.5683108e-08
-2.0693234e-07
6.3286249e-08
-2.358294e-07
6.8375799e-08
-2.6209719e-07
6.7814722e-08
-2.8078663e-07
5.6987005e-08
-2.8287e-07
3.1701536e-08
-2.494254e-07
-1.3333418e-07
-1.1382478e-14
-1.3594433e-12
-4.9039001e-14
-4.6703627e-12
-1.2048002e-13
-9.0948459e-12
-2.3498761e-13
-1.4941897e-11
-4.0159313e-13
-2.2602119e-11
-6.3280512e-13
-3.25689e-11
-9.4199747e-13
-4.5465057e-11
-1.3447634e-12
-6.2076285e-11
-1.854107e-12
-8.3393107e-11
-2.4848093e-12
-1.1066345e-10
-3.2507487e-12
-1.4545847e-10
-4.1562926e-12
-1.8975488e-10
-5.1945722e-12
-2.4603772e-10
-6.3451487e-12
-3.1742866e-10
-7.5544818e-12
-4.0784578e-10
-8.7184967e-12
-5.2220218e-10
-9.6663822e-12
-6.6665279e-10
-1.0118428e-11
-8.4890009e-10
-9.6439895e-12
-1.0785723e-09
-7.5838504e-12
-1.3676893e-09
-2.958763e-12
-1.7312348e-09
5.6607346e-12
-2.1878631e-09
2.0290544e-11
-2.760714e-09
4.365445e-11
-3.4786214e-09
7.9439363e-11
-4.3771506e-09
1.3268598e-10
-5.5002215e-09
2.1014584e-10
-6.9019261e-09
3.2074603e-10
-8.6486259e-09
4.7619364e-10
-1.0821405e-08
6.9164747e-10
-1.3518864e-08
9.8637551e-10
-1.686021e-08
1.3845986e-09
-2.0988524e-08
1.9163629e-09
-2.6074005e-08
2.618206e-09
-3.2316815e-08
3.533968e-09
-3.9948867e-08
4.7150265e-09
-4.9233559e-08
6.2204213e-09
-6.0461828e-08
8.1161873e-09
-7.3942035e-08
1.0472908e-08
-8.9979964e-08
1.3361492e-08
-1.0884323e-07
1.684365e-08
-1.3070177e-07
2.0952637e-08
-1.5553203e-07
2.565651e-08
-1.8296629e-07
3.0784263e-08
-2.1205946e-07
3.5882851e-08
-2.4092733e-07
3.9953411e-08
-2.6616714e-07
4.1015271e-08
-2.8184835e-07
3.5680176e-08
-2.7753424e-07
2.0215232e-08
-2.3396022e-07
-1.1311873e-07
1.97272e-14
-1.3792384e-12
8.752477e-14
-4.7382069e-12
2.195956e-13
-9.2268156e-12
4.360553e-13
-1.5158483e-11
7.6313617e-13
-2.2929387e-11
1.234173e-12
-3.3039976e-11
1.8917834e-12
-4.6121982e-11
2.7876262e-12
-6.2972359e-11
3.9905566e-12
-8.4595849e-11
5.5854381e-12
-1.1225835e-10
7.6814898e-12
-1.4755376e-10
1.0413296e-11
-1.9248754e-10
1.395639e-11
-2.4958121e-10
1.8531146e-11
-3.2200274e-10
2.4414904e-11
-4.1372899e-10
3.1959498e-11
-5.2974806e-10
4.1619054e-11
-6.7631058e-10
5.3960671e-11
-8.6124157e-10
6.9713076e-11
-1.0943265e-09
8.9817654e-11
-1.3877883e-09
1.1545818e-10
-1.7568752e-09
1.4817208e-10
-2.2205832e-09
1.9000593e-10
-2.8025433e-09
2.4329639e-10
-3.5319106e-09
3.1106871e-10
-4.4449202e-09
3.9717691e-10
-5.586324e-09
5.0644538e-10
-7.0111956e-09
6.4492534e-10
-8.7871085e-09
8.2017749e-10
-1.099664e-08
1.0414998e-09
-1.3740203e-08
1.3204529e-09
-1.7139163e-08
1.6710662e-09
-2.1339141e-08
2.1103381e-09
-2.6513257e-08
2.6585353e-09
-3.2864943e-08
3.3393641e-09
-4.0629639e-08
4.1801879e-09
-5.0074332e-08
5.2117673e-09
-6.1493243e-08
6.4669236e-09
-7.5197092e-08
7.9791192e-09
-9.1491955e-08
9.7778472e-09
-1.1064173e-07
1.1881543e-08
-1.3280508e-07
1.4283007e-08
-1.5793309e-07
1.6924057e-08
-1.8560678e-07
1.9648081e-08
-2.1478297e-07
2.2119759e-08
-2.4339833e-07
2.3694316e-08
-2.67741e-07
2.3232038e-08
-2.8138582e-07
1.9020478e-08
-2.7332253e-07
9.8034214e-09
-2.2474288e-07
-1.0331537e-07
2.5567638e-14
-1.404812e-12
1.1336403e-13
-4.8259889e-12
2.8364578e-13
-9.397548e-12
5.6348142e-13
-1.5438588e-11
9.8679523e-13
-2.3352444e-11
1.59525e-12
-3.3648544e-11
2.4432505e-12
-4.696989e-11
3.5982173e-12
-6.4127553e-11
5.146396e-12
-8.6143937e-11
7.195477e-12
-1.1430699e-10
9.8806072e-12
-1.5023808e-10
1.3371406e-11
-1.9597684e-10
1.7877289e-11
-2.5408711e-10
2.3663357e-11
-3.2778921e-10
3.1058248e-11
-4.2112448e-10
4.0471751e-11
-5.3916007e-10
5.2403538e-11
-6.8824316e-10
6.7475915e-11
-8.7631586e-10
8.6453511e-11
-1.1133048e-09
1.10268e-10
-1.4116011e-09
1.4004745e-10
-1.7866517e-09
1.7713936e-10
-2.2576826e-09
2.2318048e-10
-2.848583e-09
2.8024107e-10
-3.5889778e-09
3.5084534e-10
-4.5155251e-09
4.3799674e-10
-5.6734696e-09
5.4530485e-10
-7.1184891e-09
6.770694e-10
-8.9188613e-09
8.3841537e-10
-1.115797e-08
1.0353719e-09
-1.393714e-08
1.2749991e-09
-1.7378763e-08
1.5654759e-09
-2.1629578e-08
1.9161438e-09
-2.6863902e-08
2.3376631e-09
-3.3286381e-08
2.8416994e-09
-4.1133597e-08
3.4409101e-09
-5.0673442e-08
4.1483308e-09
-6.2200518e-08
4.9763296e-09
-7.6024919e-08
5.9349231e-09
-9.2450283e-08
7.0283098e-09
-1.1173488e-07
8.2498887e-09
-1.3402617e-07
9.5713763e-09
-1.5925403e-07
1.0926208e-08
-1.869608e-07
1.2180264e-08
-2.1603633e-07
1.3094609e-08
-2.4431186e-07
1.3289269e-08
-2.6793485e-07
1.22088e-08
-2.8030489e-07
9.1693104e-09
-2.7028267e-07
4.1543354e-09
-2.1972764e-07
-9.9160763e-08
2.048027e-14
-1.4253258e-12
9.0848837e-14
-4.896321e-12
2.2729801e-13
-9.5342744e-12
4.5149912e-13
-1.5662814e-11
7.8976819e-13
-2.3690956e-11
1.2767479e-12
-3.4135266e-11
1.9549864e-12
-4.7647687e-11
2.8774099e-12
-6.5050478e-11
4.1134733e-12
-8.7380018e-11
5.7479694e-12
-1.1594168e-10
7.8882317e-12
-1.5237849e-10
1.0668976e-11
-1.9875697e-10
1.4255428e-11
-2.5767427e-10
1.8856764e-11
-3.3239174e-10
2.4732805e-11
-4.2700123e-10
3.2204747e-11
-5.466318e-10
4.1666621e-11
-6.9770612e-10
5.3608149e-11
-8.8825802e-10
6.8625978e-11
-1.1283249e-09
8.7457263e-11
-1.430431e-09
1.1099019e-10
-1.810182e-09
1.4029334e-10
-2.2869921e-09
1.7668191e-10
-2.8849718e-09
2.2170672e-10
-3.6340043e-09
2.7722814e-10
-4.5710452e-09
3.4544428e-10
-5.7416779e-09
4.2891746e-10
-7.2019594e-09
5.3064132e-10
-9.0205855e-09
6.5406383e-10
-1.128139e-08
8.0312561e-10
-1.4086172e-08
9.8218037e-10
-1.7557802e-08
1.1961375e-09
-2.1843484e-08
1.4501873e-09
-2.7117947e-08
1.7500162e-09
-3.3586149e-08
2.1012979e-09
-4.1484803e-08
2.5095867e-09
-5.1081637e-08
2.9797596e-09
-6.2670592e-08
3.5153078e-09
-7.6560322e-08
4.1171259e-09
-9.3051801e-08
4.7812026e-09
-1.1239861e-07
5.4952636e-09
-1.3473999e-07
6.2322646e-09
-1.5999064e-07
6.9376092e-09
-1.8766532e-07
7.5091298e-09
-2.1660714e-07
7.7785584e-09
-2.4458074e-07
7.5387874e-09
-2.6769443e-07
6.530732e-09
-2.7929636e-07
4.5003448e-09
-2.6825159e-07
1.8099983e-09
-2.170358e-07
-9.7350715e-08
1.5034379e-14
-1.4404482e-12
6.6713397e-14
-4.9481603e-12
1.6768405e-13
-9.6350362e-12
3.329783e-13
-1.5828028e-11
5.8208014e-13
-2.3940318e-11
9.40491e-13
-3.4493694e-11
1.4397686e-12
-4.8146632e-11
2.1186082e-12
-6.5729557e-11
3.026583e-12
-8.8289019e-11
4.2288615e-12
-1.1714305e-10
5.8002256e-12
-1.5395037e-10
7.8411203e-12
-2.0079695e-10
1.0470646e-11
-2.6030392e-10
1.3842228e-11
-3.3576216e-10
1.8140743e-11
-4.3129971e-10
2.3599172e-11
-5.5208981e-10
3.0503083e-11
-7.0460886e-10
3.9199969e-11
-8.9695572e-10
5.012232e-11
-1.139246e-09
6.378784e-11
-1.4440975e-09
8.0830648e-11
-1.8272269e-09
1.0201857e-10
-2.3081789e-09
1.282575e-10
-2.9112159e-09
1.6065311e-10
-3.6663955e-09
2.0047306e-10
-4.6108711e-09
2.4925148e-10
-5.7904454e-09
3.087066e-10
-7.2614145e-09
3.8084391e-10
-9.092727e-09
4.6791299e-10
-1.1368476e-08
5.7246115e-10
-1.4190715e-08
6.971701e-10
-1.7682547e-08
8.4507668e-10
-2.1991373e-08
1.01915e-09
-2.7292056e-08
1.2226295e-09
-3.3789595e-08
1.4584274e-09
-4.1720622e-08
1.7293931e-09
-5.1352603e-08
2.0378052e-09
-6.2978968e-08
2.3849268e-09
-7.6907489e-08
2.7710097e-09
-9.34377e-08
3.1934862e-09
-1.1282101e-07
3.646438e-09
-1.3519275e-07
4.115187e-09
-1.6045904e-07
4.5672934e-09
-1.8811748e-07
4.9395253e-09
-2.1697877e-07
5.1068964e-09
-2.4474774e-07
4.9675845e-09
-2.6755474e-07
4.2383099e-09
-2.7856657e-07
2.8473352e-09
-2.6685981e-07
1.1275205e-09
-2.1531475e-07
-9.6223218e-08
1.1017135e-14
-1.4513895e-12
4.828258e-14
-4.9856568e-12
1.213236e-13
-9.7078753e-12
2.4063235e-13
-1.5947341e-11
4.2025981e-13
-2.412016e-11
6.7856283e-13
-3.4751759e-11
1.0368433e-12
-4.8505149e-11
1.5236903e-12
-6.6216381e-11
2.1737728e-12
-8.8938985e-11
3.0299726e-12
-1.1799963e-10
4.1483961e-12
-1.550677e-10
5.5936515e-12
-2.0224232e-10
7.4499786e-12
-2.6216078e-10
9.8220874e-12
-3.3813374e-10
1.2836116e-11
-4.3431346e-10
1.6649415e-11
-5.559026e-10
2.1453816e-11
-7.0941323e-10
2.7483103e-11
-9.0298718e-10
3.5029658e-11
-1.1467915e-09
4.4434826e-11
-1.4535052e-09
5.612317e-11
-1.8389168e-09
7.0591178e-11
-2.3226552e-09
8.8450213e-11
-2.9290794e-09
1.1040839e-10
-3.6883575e-09
1.3729258e-10
-4.6377657e-09
1.7008848e-10
-5.8232422e-09
2.0989559e-10
-7.3012293e-09
2.5798447e-10
-9.1408298e-09
3.1578062e-10
-1.1426296e-08
3.8491887e-10
-1.4259845e-08
4.670692e-10
-1.7764742e-08
5.6420933e-10
-2.2088555e-08
6.7844697e-10
-2.7406331e-08
8.1205976e-10
-3.392326e-08
9.676023e-10
-4.1876243e-08
1.1480752e-09
-5.1533182e-08
1.3569871e-09
-6.3188041e-08
1.5986251e-09
-7.714922e-08
1.8775677e-09
-9.3716764e-08
2.1992693e-09
-1.131428e-07
2.5691101e-09
-1.3556276e-07
2.988639e-09
-1.6087874e-07
3.4539093e-09
-1.8858287e-07
3.9476575e-09
-2.1747259e-07
4.3909399e-09
-2.4519079e-07
4.5403648e-09
-2.6770393e-07
4.1283613e-09
-2.781539e-07
3.0370249e-09
-2.6576771e-07
1.285267e-09
-2.1356179e-07
-9.4937764e-08
6.7400864e-15
-1.4583206e-12
3.0565423e-14
-5.0093751e-12
7.6641581e-14
-9.7538822e-12
1.5183825e-13
-1.6022617e-11
2.6528393e-13
-2.423355e-11
4.2838876e-13
-3.4914435e-11
6.5399711e-13
-4.8731182e-11
9.6128315e-13
-6.6523445e-11
1.37128e-12
-8.9349217e-11
1.9125391e-12
-1.1854067e-10
2.6197096e-12
-1.5577398e-10
3.5338132e-12
-2.0315651e-10
4.7070337e-12
-2.6333564e-10
6.2075145e-12
-3.3963419e-10
8.1144579e-12
-4.3621904e-10
1.0522092e-11
-5.5831037e-10
1.3551038e-11
-7.124411e-10
1.733956e-11
-9.0677789e-10
2.2066148e-11
-1.1515173e-09
2.7934046e-11
-1.4593739e-09
3.5195847e-11
-1.8461787e-09
4.4144466e-11
-2.3316126e-09
5.516173e-11
-2.9400984e-09
6.867792e-11
-3.7018827e-09
8.5250062e-11
-4.6543396e-09
1.0551741e-10
-5.8435296e-09
1.3031638e-10
-7.3260474e-09
1.60645e-10
-9.1711846e-09
1.9771794e-10
-1.146341e-08
2.430412e-10
-1.4305201e-08
2.981612e-10
-1.7819943e-08
3.6500972e-10
-2.2155495e-08
4.4584951e-10
-2.7487267e-08
5.4315558e-10
-3.4020744e-08
6.6069097e-10
-4.1993999e-08
8.0382041e-10
-5.1676553e-08
9.7967779e-10
-6.3364249e-08
1.1974104e-09
-7.7367286e-08
1.4658774e-09
-9.398574e-08
1.7890876e-09
-1.1346648e-07
2.1695507e-09
-1.3594378e-07
2.6060187e-09
-1.6131575e-07
3.1046383e-09
-1.8908206e-07
3.6888899e-09
-2.1805713e-07
4.3276786e-09
-2.4583027e-07
4.3936735e-09
-2.6776962e-07
3.6894335e-09
-2.7744945e-07
2.6398424e-09
-2.6471667e-07
1.6971766e-09
-2.1261807e-07
-9.3239822e-08
2.4436281e-15
-1.460814e-12
1.0777274e-14
-5.0177454e-12
2.6957441e-14
-9.7700498e-12
5.3333432e-14
-1.6049119e-11
9.334898e-14
-2.4273706e-11
1.5175839e-13
-3.4972592e-11
2.3350124e-13
-4.8813017e-11
3.4627265e-13
-6.6636348e-11
4.9925602e-13
-8.9502792e-11
7.0616107e-13
-1.1874737e-10
9.8180895e-13
-1.5604989e-10
1.3466745e-12
-2.035224e-10
1.8297085e-12
-2.6381822e-10
2.4626528e-12
-3.402677e-10
3.2928458e-12
-4.3704723e-10
4.3715771e-12
-5.5938883e-10
5.7698378e-12
-7.1384011e-10
7.5750883e-12
-9.0858563e-10
9.8980867e-12
-1.1538435e-09
1.2879806e-11
-1.4623533e-09
1.66686e-11
-1.8499754e-09
2.1472204e-11
-2.3364232e-09
2.7525408e-11
-2.9461556e-09
3.510336e-11
-3.7094595e-09
4.450216e-11
-4.6637542e-09
5.6103661e-11
-5.8551547e-09
7.0368699e-11
-7.3403281e-09
8.7798718e-11
-9.1886697e-09
1.0915334e-10
-1.1484814e-08
1.3534292e-10
-1.4331451e-08
1.6788528e-10
-1.7852576e-08
2.0874155e-10
-2.2196473e-08
2.6048198e-10
-2.7539187e-08
3.2668236e-10
-3.4087233e-08
4.105795e-10
-4.2078289e-08
5.148108e-10
-5.178119e-08
6.4047652e-10
-6.3490357e-08
7.8604399e-10
-7.7513557e-08
9.4743866e-10
-9.4147784e-08
1.1089056e-09
-1.1362881e-07
1.2232795e-09
-1.3605907e-07
1.2211381e-09
-1.6131446e-07
1.0065054e-09
-1.8886833e-07
4.503102e-10
-2.1750176e-07
-6.4403284e-10
-2.4473641e-07
-1.6341228e-09
-2.6677949e-07
-2.1025986e-09
-2.7698023e-07
-3.5982452e-09
-2.6322017e-07
-5.243225e-09
-2.1097061e-07
-9.8482508e-08
2.2468814e-16
-1.4610903e-12
1.8809936e-15
-5.0189685e-12
4.4275924e-15
-9.7726916e-12
9.538154e-15
-1.6053805e-11
1.6746215e-14
-2.4281274e-11
2.8384043e-14
-3.4984149e-11
4.503184e-14
-4.8830044e-11
7.0023985e-14
-6.6660858e-11
1.0477826e-13
-8.9537547e-11
1.5395316e-13
-1.187962e-10
2.2153944e-13
-1.5611817e-10
3.1628131e-13
-2.0361771e-10
4.482083e-13
-2.6395126e-10
6.3452801e-13
-3.4045367e-10
8.9450583e-13
-4.3730753e-10
1.2587599e-12
-5.5975338e-10
1.7695199e-12
-7.1435013e-10
2.4776596e-12
-9.0929684e-10
3.4617239e-12
-1.1548292e-09
4.8129048e-12
-1.463707e-09
6.6459618e-12
-1.851811e-09
9.0824732e-12
-2.3388722e-09
1.2278465e-11
-2.9493584e-09
1.6345518e-11
-3.7135437e-09
2.1373333e-11
-4.6688052e-09
2.742618e-11
-5.8612259e-09
3.4492742e-11
-7.3474302e-09
4.2709101e-11
-9.1969417e-09
5.2115305e-11
-1.1494273e-08
6.2605175e-11
-1.4342029e-08
7.3947936e-11
-1.7864035e-08
8.603612e-11
-2.2208732e-08
9.8417922e-11
-2.7551743e-08
1.0964197e-10
-3.4098782e-08
1.1753944e-10
-4.2086612e-08
1.1582866e-10
-5.1779996e-08
9.2650757e-11
-6.3467789e-08
2.8059047e-11
-7.7449762e-08
-1.0814272e-10
-9.4012599e-08
-3.5433394e-10
-1.1338388e-07
-7.4538902e-10
-1.3566924e-07
-1.3209003e-09
-1.6074026e-07
-2.1246564e-09
-1.8806591e-07
-3.2903742e-09
-2.1633691e-07
-4.38187e-09
-2.436456e-07
-5.1360572e-09
-2.6602546e-07
-5.3796626e-09
-2.7673623e-07
-2.1683353e-09
-2.664294e-07
3.0941642e-09
-2.1623052e-07
-9.5387605e-08
-7.8699412e-16
-1.4604253e-12
-2.6916478e-15
-5.0169245e-12
-6.2415602e-15
-9.7690093e-12
-1.1453566e-14
-1.6048044e-11
-2.0186601e-14
-2.4272792e-11
-3.1926765e-14
-3.4972038e-11
-4.8618284e-14
-4.881303e-11
-7.2344288e-14
-6.6637165e-11
-1.0461262e-13
-8.9504714e-11
-1.5037423e-13
-1.1875083e-10
-2.1290947e-13
-1.560556e-10
-2.9942827e-13
-2.0353156e-10
-4.1846898e-13
-2.638329e-10
-5.8008852e-13
-3.4029146e-10
-8.0220746e-13
-4.3708604e-10
-1.1048856e-12
-5.594525e-10
-1.5126004e-12
-7.1394428e-10
-2.0580218e-12
-9.0875466e-10
-2.7729707e-12
-1.1541144e-09
-3.7042323e-12
-1.4627814e-09
-4.8811287e-12
-1.8506404e-09
-6.3243355e-12
-2.3374373e-09
-8.0059106e-12
-2.9476747e-09
-9.867089e-12
-3.7116944e-09
-1.1752275e-11
-4.6669368e-09
-1.3615023e-11
-5.8593901e-09
-1.5098738e-11
-7.345974e-09
-1.628139e-11
-9.1958031e-09
-1.7325576e-11
-1.1493297e-08
-1.866268e-11
-1.4340752e-08
-2.1456876e-11
-1.7861375e-08
-2.8152266e-11
-2.2202181e-08
-4.2716447e-11
-2.7537412e-08
-7.1159209e-11
-3.4070672e-08
-1.2249827e-10
-4.2035714e-08
-2.0703018e-10
-5.1696001e-08
-3.3723754e-10
-6.3338256e-08
-5.2755477e-10
-7.7260269e-08
-7.9322532e-10
-9.3748086e-08
-1.1372594e-09
-1.13041e-07
-1.5529067e-09
-1.3525512e-07
-2.0104426e-09
-1.602841e-07
-2.4670943e-09
-1.8761073e-07
-2.5827214e-09
-2.1622252e-07
-2.4116647e-09
-2.4381733e-07
-1.9759938e-09
-2.6646123e-07
-1.3357053e-09
-2.7737609e-07
-1.5887008e-09
-2.6617472e-07
-1.4002208e-09
-2.1641615e-07
-9.6787209e-08
-7.5345234e-16
-1.4594664e-12
-4.2268624e-15
-5.0134341e-12
-1.0850062e-14
-9.7618943e-12
-2.3437653e-14
-1.6035907e-11
-4.2719124e-14
-2.4253818e-11
-7.042053e-14
-3.4943835e-11
-1.1023645e-13
-4.8772433e-11
-1.6733932e-13
-6.6579962e-11
-2.4597877e-13
-8.9425265e-11
-3.5462544e-13
-1.1864154e-10
-5.0377628e-13
-1.5590615e-10
-7.0785396e-13
-2.0332791e-10
-9.8474442e-13
-2.6355583e-10
-1.3609328e-12
-3.3991469e-10
-1.8736452e-12
-4.3657367e-10
-2.5715217e-12
-5.5875578e-10
-3.5193362e-12
-7.1299771e-10
-4.8066293e-12
-9.0747152e-10
-6.5441295e-12
-1.1523822e-09
-8.8625255e-12
-1.4604583e-09
-1.1952648e-11
-1.8475552e-09
-1.5996965e-11
-2.3333948e-09
-2.1221885e-11
-2.942466e-09
-2.7800182e-11
-3.7051243e-09
-3.5794456e-11
-4.6589562e-09
-4.4776927e-11
-5.8504301e-09
-5.5143896e-11
-7.3356515e-09
-6.7268479e-11
-9.1836972e-09
-8.191288e-11
-1.1478708e-08
-1.0007328e-10
-1.4322681e-08
-1.2315102e-10
-1.7838394e-08
-1.5297284e-10
-2.2172505e-08
-1.9212726e-10
-2.7498504e-08
-2.4388127e-10
-3.4019301e-08
-3.1110562e-10
-4.1968856e-08
-3.9626565e-10
-5.1611298e-08
-4.9956834e-10
-6.3235675e-08
-6.1584753e-10
-7.7144785e-08
-7.3145085e-10
-9.3633338e-08
-8.1623076e-10
-1.1295736e-07
-8.3300611e-10
-1.3523955e-07
-7.2409087e-10
-1.6039437e-07
-4.0084045e-10
-1.8793531e-07
8.5087408e-11
-2.1670946e-07
8.8343356e-10
-2.4461585e-07
1.9097544e-09
-2.6748768e-07
3.1007033e-09
-2.7856617e-07
4.0925672e-09
-2.6716506e-07
1.8060582e-09
-2.1412766e-07
-9.4980442e-08
1.1145917e-15
-1.4606587e-12
5.0833285e-15
-5.0171926e-12
1.1789374e-14
-9.7689303e-12
2.3097048e-14
-1.6047128e-11
3.9904639e-14
-2.4270367e-11
6.3657361e-14
-3.4967197e-11
9.5489575e-14
-4.8804523e-11
1.387337e-13
-6.6623243e-11
1.9621039e-13
-8.9482898e-11
2.7343389e-13
-1.1871757e-10
3.7333171e-13
-1.5600576e-10
5.0334675e-13
-2.0345764e-10
6.7080191e-13
-2.637239e-10
8.8917197e-13
-3.4013122e-10
1.1634162e-12
-4.3685074e-10
1.5161107e-12
-5.5910713e-10
1.9547146e-12
-7.134376e-10
2.4956133e-12
-9.0801204e-10
3.1372631e-12
-1.1530278e-09
3.8746217e-12
-1.4611956e-09
4.6470991e-12
-1.8483348e-09
5.3466196e-12
-2.3341021e-09
5.7549049e-12
-2.9428779e-09
5.467642e-12
-3.704842e-09
3.7658583e-12
-4.6572667e-09
-6.3445055e-13
-5.8460563e-09
-8.0103497e-12
-7.328289e-09
-1.9635629e-11
-9.1721109e-09
-3.6401515e-11
-1.1462e-08
-5.8839368e-11
-1.4300318e-08
-8.7116846e-11
-1.7810203e-08
-1.2070192e-10
-2.2139035e-08
-1.5775857e-10
-2.7461625e-08
-1.9458582e-10
-3.3982721e-08
-2.2501181e-10
-4.1938728e-08
-2.4077517e-10
-5.159591e-08
-2.3036205e-10
-6.3246644e-08
-1.7480539e-10
-7.720096e-08
-4.5631165e-11
-9.3763251e-08
1.8159979e-10
-1.1318554e-07
5.6576649e-10
-1.356246e-07
1.1547962e-09
-1.6098443e-07
1.9735411e-09
-1.887547e-07
3.0992492e-09
-2.1783577e-07
4.1508082e-09
-2.4566784e-07
5.0784339e-09
-2.6841497e-07
5.8612546e-09
-2.7934804e-07
4.5709871e-09
-2.6587327e-07
2.4980082e-09
-2.1205282e-07
-9.2481998e-08
1.2808662e-15
-1.4618752e-12
5.5389522e-15
-5.0215287e-12
1.441621e-14
-9.7774961e-12
2.8585043e-14
-1.6061447e-11
5.0634159e-14
-2.4292468e-11
8.371314e-14
-3.4999734e-11
1.3040152e-13
-4.8850986e-11
1.9566777e-13
-6.6688239e-11
2.8561599e-13
-8.9572528e-11
4.0777257e-13
-1.1883994e-10
5.7330971e-13
-1.5617169e-10
7.9729556e-13
-2.036816e-10
1.0997201e-12
-2.6402525e-10
1.5047166e-12
-3.4053584e-10
2.0463905e-12
-4.3739314e-10
2.7721027e-12
-5.59833e-10
3.7406455e-12
-7.144067e-10
5.0300208e-12
-9.093012e-10
6.7356657e-12
-1.1547331e-09
8.9642329e-12
-1.4634306e-09
1.1853036e-11
-1.8512236e-09
1.5526095e-11
-2.3377781e-09
2.0108985e-11
-2.9474633e-09
2.5728884e-11
-3.7104651e-09
3.2413235e-11
-4.6639462e-09
3.9995776e-11
-5.8536566e-09
4.7219546e-11
-7.3355278e-09
5.5054824e-11
-9.1799435e-09
6.4098416e-11
-1.1471057e-08
7.4705403e-11
-1.4310982e-08
8.7655636e-11
-1.7823208e-08
1.0430996e-10
-2.2155773e-08
1.2713418e-10
-2.7484535e-08
1.6031582e-10
-3.4016019e-08
2.1018978e-10
-4.1988728e-08
2.874939e-10
-5.1673429e-08
4.0642438e-10
-6.3365793e-08
5.8141194e-10
-7.7376323e-08
8.256667e-10
-9.4007886e-08
1.1483053e-09
-1.1350851e-07
1.5234958e-09
-1.3600041e-07
1.9132525e-09
-1.6137455e-07
2.271479e-09
-1.8911347e-07
2.2554637e-09
-2.1781983e-07
1.8497084e-09
-2.4526197e-07
9.1343462e-10
-2.6747819e-07
-1.259133e-09
-2.7717455e-07
-4.1558078e-09
-2.6297498e-07
-5.5663676e-09
-2.1064097e-07
-9.804837e-08
-1.3918287e-15
-1.4605473e-12
-5.6293725e-15
-5.0171728e-12
-1.3598935e-14
-9.7693216e-12
-2.690785e-14
-1.6048401e-11
-4.5910298e-14
-2.4273192e-11
-7.3123613e-14
-3.4972509e-11
-1.0986068e-13
-4.8813635e-11
-1.6009535e-13
-6.6638003e-11
-2.2593887e-13
-8.9505922e-11
-3.1390575e-13
-1.1875258e-10
-4.2728926e-13
-1.5605809e-10
-5.7482864e-13
-2.0353499e-10
-7.6200676e-13
-2.6383741e-10
-1.0000992e-12
-3.4029709e-10
-1.3003675e-12
-4.370926e-10
-1.6737757e-12
-5.5945946e-10
-2.129233e-12
-7.139506e-10
-2.6727256e-12
-9.0875864e-10
-3.2915462e-12
-1.1541142e-09
-3.9465181e-12
-1.4627761e-09
-4.5502076e-12
-1.8506209e-09
-4.9764131e-12
-2.3373583e-09
-4.887051e-12
-2.9475571e-09
-3.8451561e-12
-3.711514e-09
-1.1406583e-12
-4.6666582e-09
4.1925554e-12
-5.8589782e-09
1.4129841e-11
-7.3454596e-09
2.9397084e-11
-9.1952083e-09
5.0968212e-11
-1.1492629e-08
7.992156e-11
-1.4339948e-08
1.1715071e-10
-1.7860423e-08
1.6298668e-10
-2.2201618e-08
2.178183e-10
-2.7539372e-08
2.8163854e-10
-3.4079861e-08
3.5339762e-10
-4.2060533e-08
4.3021321e-10
-5.175028e-08
5.0957754e-10
-6.3445203e-08
5.8054688e-10
-7.744737e-08
6.1206737e-10
-9.4039544e-08
5.5792886e-10
-1.1345435e-07
3.6013818e-10
-1.3580262e-07
-5.965239e-11
-1.6095458e-07
-8.6182747e-10
-1.8831109e-07
-1.9007079e-09
-2.1678043e-07
-3.3865963e-09
-2.4377543e-07
-5.3195516e-09
-2.6554453e-07
-6.403737e-09
-2.7608952e-07
-3.2126957e-09
-2.6616499e-07
2.524961e-09
-2.1637885e-07
-9.552323e-08
-1.693345e-15
-1.4588791e-12
-7.4997519e-15
-5.0114533e-12
-1.8019589e-14
-9.7581457e-12
-3.6348399e-14
-1.6029962e-11
-6.4120298e-14
-2.424517e-11
-1.0461911e-13
-3.4931915e-11
-1.6169676e-13
-4.8756632e-11
-2.4093863e-13
-6.6559668e-11
-3.4726858e-13
-8.9399743e-11
-4.8895267e-13
-1.1861005e-10
-6.7893716e-13
-1.5586814e-10
-9.3023382e-13
-2.0328328e-10
-1.2614061e-12
-2.635054e-10
-1.6996804e-12
-3.3986088e-10
-2.2676827e-12
-4.3652147e-10
-3.013878e-12
-5.587144e-10
-3.9859608e-12
-7.1298291e-10
-5.2368111e-12
-9.075091e-10
-6.8354936e-12
-1.1525127e-09
-8.8654306e-12
-1.4607449e-09
-1.1377397e-11
-1.8481068e-09
-1.4333318e-11
-2.334402e-09
-1.7848179e-11
-2.9440432e-09
-2.1988358e-11
-3.7073619e-09
-2.673807e-11
-4.6619051e-09
-3.1677243e-11
-5.8540329e-09
-3.6911097e-11
-7.3402152e-09
-4.2289414e-11
-9.1898358e-09
-4.74051e-11
-1.1487499e-08
-5.157867e-11
-1.433575e-08
-5.404588e-11
-1.7857952e-08
-5.5027255e-11
-2.2200637e-08
-5.4285474e-11
-2.7540114e-08
-5.4860202e-11
-3.4079196e-08
-6.3865985e-11
-4.2051435e-08
-9.3494162e-11
-5.1720653e-08
-1.6477614e-10
-6.3373847e-08
-3.030504e-10
-7.7308959e-08
-5.2853618e-10
-9.3813748e-08
-8.6587922e-10
-1.1311661e-07
-1.3441795e-09
-1.3532408e-07
-1.9733286e-09
-1.6032488e-07
-2.6173303e-09
-1.8766642e-07
-3.2902624e-09
-2.1610646e-07
-3.320657e-09
-2.4374396e-07
-2.6647184e-09
-2.6619985e-07
-1.661759e-09
-2.7709157e-07
-1.8471484e-09
-2.6597953e-07
-1.658515e-09
-2.1656743e-07
-9.7182124e-08
8.8735875e-16
-1.4597639e-12
3.654124e-15
-5.0142107e-12
8.9483378e-15
-9.7632278e-12
1.658024e-14
-1.6037859e-11
2.8563682e-14
-2.425643e-11
4.3875986e-14
-3.4947172e-11
6.4066066e-14
-4.8776603e-11
8.9932958e-14
-6.6585136e-11
1.2209011e-13
-8.9431896e-11
1.6185965e-13
-1.1865054e-10
2.1280752e-13
-1.5591835e-10
2.7387305e-13
-2.0334496e-10
3.5013452e-13
-2.6358022e-10
4.3930811e-13
-3.3995002e-10
5.4319859e-13
-4.3662484e-10
6.6152544e-13
-5.5882904e-10
7.7733516e-13
-7.1310009e-10
8.7710485e-13
-9.0760899e-10
9.2204649e-13
-1.1525556e-09
8.3518418e-13
-1.4606549e-09
4.6201055e-13
-1.8477333e-09
-4.769676e-13
-2.3334566e-09
-2.2226785e-12
-2.9422973e-09
-5.2224074e-12
-3.7043604e-09
-1.012324e-11
-4.6569986e-09
-1.7903004e-11
-5.8462493e-09
-2.9426271e-11
-7.328681e-09
-4.5628581e-11
-9.173635e-09
-6.7288245e-11
-1.1465814e-08
-9.465342e-11
-1.4308368e-08
-1.2772309e-10
-1.7824843e-08
-1.650004e-10
-2.2163322e-08
-2.1047658e-10
-2.7494554e-08
-2.676943e-10
-3.4021871e-08
-3.3950839e-10
-4.1979533e-08
-4.300239e-10
-5.1629896e-08
-5.4336981e-10
-6.3260331e-08
-6.7781193e-10
-7.717416e-08
-8.2535068e-10
-9.3665611e-08
-9.5230364e-10
-1.1298909e-07
-1.0084568e-09
-1.3526717e-07
-9.1760964e-10
-1.6041462e-07
-6.1914651e-10
-1.8796371e-07
5.2309898e-12
-2.1672933e-07
6.4868373e-10
-2.4438657e-07
1.8632827e-09
-2.6741348e-07
3.220227e-09
-2.7844806e-07
4.569792e-09
-2.6732909e-07
1.9091849e-09
-2.1390674e-07
-9.5272875e-08
1.7164507e-15
-1.4615149e-12
7.8422581e-15
-5.020181e-12
1.9051194e-14
-9.7746625e-12
3.760164e-14
-1.6056415e-11
6.5821557e-14
-2.4284255e-11
1.056395e-13
-3.4986977e-11
1.609692e-13
-4.8831792e-11
2.3585372e-13
-6.6660038e-11
3.36017e-13
-8.9531881e-11
4.6739441e-13
-1.1878225e-10
6.4077925e-13
-1.5609123e-10
8.6526602e-13
-2.0357018e-10
1.156557e-12
-2.6387159e-10
1.5303326e-12
-3.4032454e-10
2.0096091e-12
-4.3710329e-10
2.6170347e-12
-5.5943645e-10
3.3845176e-12
-7.1386602e-10
4.3446008e-12
-9.0856748e-10
5.5346445e-12
-1.1537442e-09
6.9932372e-12
-1.462112e-09
8.7534908e-12
-1.8494919e-09
1.0834332e-11
-2.3355331e-09
1.3131275e-11
-2.9445859e-09
1.5734829e-11
-3.7069654e-09
1.8691044e-11
-4.6599512e-09
2.1905326e-11
-5.8494476e-09
2.506922e-11
-7.3318405e-09
2.7548807e-11
-9.1761055e-09
2.7983746e-11
-1.1466253e-08
2.3744242e-11
-1.4304079e-08
1.2750189e-11
-1.7813813e-08
-9.2801707e-12
-2.214123e-08
-4.0215937e-11
-2.7463584e-08
-7.930131e-11
-3.3982643e-08
-1.2240437e-10
-4.1936231e-08
-1.5957165e-10
-5.1592521e-08
-1.7411883e-10
-6.3245489e-08
-1.4394992e-10
-7.7203961e-08
-4.0022525e-11
-9.3768953e-08
1.6182107e-10
-1.1319022e-07
5.1704156e-10
-1.356216e-07
1.0688246e-09
-1.6096524e-07
1.8469209e-09
-1.8874063e-07
2.8867493e-09
-2.1776796e-07
4.2857182e-09
-2.4578442e-07
5.3314944e-09
-2.6845833e-07
6.3139534e-09
-2.7943033e-07
4.9727946e-09
-2.6598862e-07
2.0301843e-09
-2.1096487e-07
-9.3242453e-08
-2.353557e-16
-1.4611632e-12
-1.2701385e-15
-5.0192205e-12
-2.1426467e-15
-9.7732326e-12
-4.0759446e-15
-1.605477e-11
-5.6358986e-15
-2.4282798e-11
-5.9551273e-15
-3.4986349e-11
-4.707138e-15
-4.8832945e-11
-8.3495163e-16
-6.6664242e-11
8.1088619e-15
-8.9540677e-11
2.3810442e-14
-1.1879801e-10
4.782902e-14
-1.5611658e-10
8.6972373e-14
-2.0360911e-10
1.4552343e-13
-2.6392972e-10
2.308959e-13
-3.4040982e-10
3.560277e-13
-4.3722708e-10
5.3628813e-13
-5.5961524e-10
7.9489527e-13
-7.1412425e-10
1.163743e-12
-9.0894197e-10
1.7115386e-12
-1.1542913e-09
2.5216735e-12
-1.4629191e-09
3.7229415e-12
-1.8506958e-09
5.5378758e-12
-2.3373485e-09
8.3066062e-12
-2.9473522e-09
1.2341053e-11
-3.7110065e-09
1.8110961e-11
-4.6657248e-09
2.6220139e-11
-5.8575571e-09
3.7330501e-11
-7.3429516e-09
5.1990383e-11
-9.1907605e-09
7.046964e-11
-1.1484726e-08
9.2696154e-11
-1.4326291e-08
1.1662477e-10
-1.7837729e-08
1.4486537e-10
-2.2169486e-08
1.7674215e-10
-2.7495425e-08
2.1930555e-10
-3.4025131e-08
2.7934177e-10
-4.1996191e-08
3.6534606e-10
-5.1678416e-08
4.8825559e-10
-6.3368167e-08
6.6040208e-10
-7.7375858e-08
8.9428238e-10
-9.4002409e-08
1.2015505e-09
-1.1349688e-07
1.5604608e-09
-1.3597981e-07
1.924047e-09
-1.6132801e-07
2.1192727e-09
-1.8893494e-07
1.9414064e-09
-2.1758951e-07
1.1876454e-09
-2.4503033e-07
-9.6464735e-11
-2.6717396e-07
-2.9755673e-09
-2.7655105e-07
-5.6028405e-09
-2.6336151e-07
-2.8364159e-09
-2.1373173e-07
-9.6078545e-08
-1.5663016e-15
-1.4595411e-12
-7.2414082e-15
-5.013806e-12
-1.7403352e-14
-9.7628717e-12
-3.3718024e-14
-1.6037932e-11
-5.8869605e-14
-2.4257525e-11
-9.5384075e-14
-3.4950152e-11
-1.4501783e-13
-4.878272e-11
-2.1277357e-13
-6.6596216e-11
-3.0293672e-13
-8.9450446e-11
-4.2187996e-13
-1.1867935e-10
-5.7553088e-13
-1.5596208e-10
-7.7403581e-13
-2.0340992e-10
-1.0291558e-12
-2.636754e-10
-1.3500441e-12
-3.4008822e-10
-1.7533768e-12
-4.3682439e-10
-2.251559e-12
-5.5911615e-10
-2.8620871e-12
-7.1351233e-10
-3.6027836e-12
-9.0820036e-10
-4.4899436e-12
-1.1534036e-09
-5.5395907e-12
-1.4618709e-09
-6.7614704e-12
-1.8494763e-09
-8.1601578e-12
-2.3359543e-09
-9.7216038e-12
-2.9457934e-09
-1.1419805e-11
-3.7093205e-09
-1.3129402e-11
-4.6640062e-09
-1.4662434e-11
-5.8560363e-09
-1.5436499e-11
-7.3421822e-09
-1.4362837e-11
-9.1918501e-09
-9.9645795e-12
-1.1489125e-08
6.1723083e-13
-1.4336901e-08
2.2572279e-11
-1.7859692e-08
5.7552342e-11
-2.2204476e-08
1.0826464e-10
-2.7546143e-08
1.7297791e-10
-3.4089877e-08
2.4871989e-10
-4.2071951e-08
3.3227803e-10
-5.1761969e-08
4.1492163e-10
-6.3450806e-08
4.7989248e-10
-7.7440768e-08
4.9788035e-10
-9.4020338e-08
4.2280172e-10
-1.1342157e-07
1.9520473e-10
-1.3575197e-07
-2.7053622e-10
-1.6086212e-07
-9.4321966e-10
-1.8826194e-07
-1.9013244e-09
-2.1663136e-07
-3.2148547e-09
-2.4371678e-07
-4.8824111e-09
-2.6550643e-07
-5.2751453e-09
-2.7615796e-07
-3.8015955e-09
-2.6483443e-07
-2.1546724e-09
-2.1537705e-07
-9.8232252e-08
-1.957128e-16
-1.4591875e-12
-1.230406e-15
-5.0123883e-12
-4.633762e-15
-9.7597094e-12
-1.058464e-14
-1.6032091e-11
-1.9910991e-14
-2.4247757e-11
-3.541655e-14
-3.4934798e-11
-5.8305937e-14
-4.8759579e-11
-9.2070929e-14
-6.6562375e-11
-1.40134e-13
-8.9402016e-11
-2.0829881e-13
-1.186118e-10
-3.0100147e-13
-1.5586943e-10
-4.2718385e-13