/*--------------------------------*- C++ -*----------------------------------*\
| =========                 |                                                 |
| \\      /  F ield         | OpenFOAM: The Open Source CFD Toolbox           |
|  \\    /   O peration     | Version:  4.0                                   |
|   \\  /    A nd           | Web:      www.OpenFOAM.org                      |
|    \\/     M anipulation  |                                                 |
\*---------------------------------------------------------------------------*/
FoamFile
{
    version     2.0;
    format      ascii;
    class       surfaceScalarField;
    location    "12000";
    object      snGradRho;
}
// * * * * * * * * * * * * * * * * * * * * * * * * * * * * * * * * * * * * * //

dimensions      [1 -4 0 0 0 0 0];

internalField   nonuniform List<scalar> 
9850
(
-6.4720038e-05
0.00043724706
-0.00013209368
0.00043768061
-0.0002019715
0.00043865329
-0.00027412462
0.00044028796
-0.00034828586
0.00044272631
-0.00042413816
0.00044613082
-0.00050131283
0.0004506865
-0.00057938863
0.00045660259
-0.00065789121
0.00046411407
-0.00073629295
0.00047348287
-0.00081401323
0.00048499874
-0.00089041933
0.00049897948
-0.0009648279
0.00051577057
-0.0010365073
0.00053574382
-0.0011046811
0.00055929489
-0.0011685323
0.00058683945
-0.0012272102
0.0006188077
-0.0012798383
0.00065563689
-0.0013255251
0.00069776169
-0.0013633774
0.00074560205
-0.001392516
0.00079954832
-0.001412093
0.00085994355
-0.001421302
0.00092706255
-0.0014194861
0.0010010877
-0.0014060841
0.0010820858
-0.0013806846
0.0011699798
-0.0013430564
0.0012645202
-0.0012931738
0.0013652554
-0.0012312316
0.0014715032
-0.0011576518
0.0015823225
-0.0010730753
0.0016964865
-0.00097833706
0.0018124566
-0.0008744214
0.0019283562
-0.0007624011
0.0020419428
-0.00064336241
0.0021505739
-0.00051832189
0.0022511647
-0.00038814391
0.0023401312
-0.00025346414
0.0024133152
-0.00011462327
0.002465887
2.8394011e-05
0.0024922235
0.00017603601
0.0024857595
0.0003293133
0.0024388109
0.00049005232
0.0023423631
0.00066133581
0.0021858005
0.00084802423
0.0019565173
0.0010560911
0.0016393052
0.0012844506
0.0012156232
0.0014841526
0.00066489384
0.0014005575
-1.8685425e-05
-0.00072791815
1.1073858e-06
0.0002481487
2.1554239e-06
0.00024815114
3.117391e-06
0.00024815724
3.9654388e-06
0.00024816887
4.6685834e-06
0.00024818848
5.1929425e-06
0.00024821931
5.5019656e-06
0.0002482656
5.5568758e-06
0.00024833286
5.3172943e-06
0.00024842818
4.7420932e-06
0.00024856055
3.790496e-06
0.00024874128
2.4234818e-06
0.00024898448
6.0552784e-07
0.00024930753
-1.6933369e-06
0.00024973167
-4.4950831e-06
0.00025028255
-7.810911e-06
0.00025099075
-1.1638203e-05
0.00025189231
-1.5957302e-05
0.0002530291
-2.0728174e-05
0.00025444894
-2.5887227e-05
0.00025620556
-3.1344445e-05
0.00025835791
-3.6984425e-05
0.00026096913
-4.2657518e-05
0.0002641047
-4.8194211e-05
0.00026782986
-5.3398623e-05
0.00027220571
-5.8058611e-05
0.00027728501
-6.1954657e-05
0.00028310647
-6.4871675e-05
0.00028968844
-6.6612735e-05
0.00029702219
-6.7013687e-05
0.00030506511
-6.5956812e-05
0.00031373436
-6.3381378e-05
0.0003229018
-5.9288619e-05
0.0003323903
-5.3738955e-05
0.00034197198
-4.6839674e-05
0.00035136773
-3.8722276e-05
0.0003602472
-2.9509414e-05
0.0003682271
-1.9271649e-05
0.00037486463
-7.97309e-06
0.00037964153
4.5987458e-06
0.00038193215
1.8929572e-05
0.00038094537
3.5921835e-05
0.00037562445
5.7112794e-05
0.00036447775
8.4974017e-05
0.00034529458
0.00012315982
0.00031467918
0.00017599322
0.00026734614
0.00024449897
0.00019534538
0.00031074807
8.8554953e-05
0.00029385316
-5.7674832e-05
-0.00020897107
1.4770553e-06
7.2231333e-06
2.9971318e-06
7.2166126e-06
4.5770985e-06
7.202111e-06
6.2019105e-06
7.1777811e-06
7.8642498e-06
7.1415757e-06
9.555309e-06
7.0911666e-06
1.1264584e-05
7.0239297e-06
1.2979913e-05
6.9369354e-06
1.4687521e-05
6.826947e-06
1.637197e-05
6.6904265e-06
1.8016163e-05
6.5235548e-06
1.9601325e-05
6.3222665e-06
2.1107093e-05
6.0823072e-06
2.2511633e-05
5.7993142e-06
2.3791824e-05
5.4689271e-06
2.4923545e-05
5.0869333e-06
2.5882107e-05
4.6494506e-06
2.6642794e-05
4.1531516e-06
2.7181608e-05
3.5955285e-06
2.7476145e-05
2.9751968e-06
2.7506547e-05
2.2922295e-06
2.7255934e-05
1.548516e-06
2.6719797e-05
7.4816023e-07
2.5888726e-05
-1.0256077e-07
2.4771596e-05
-9.9439716e-07
2.3383875e-05
-1.9155417e-06
2.1751681e-05
-2.8515865e-06
1.9911921e-05
-3.7858776e-06
1.7911572e-05
-4.7001422e-06
1.580593e-05
-5.5753962e-06
1.3655914e-05
-6.3930985e-06
1.1524472e-05
-7.136487e-06
9.4724939e-06
-7.7919754e-06
7.5548373e-06
-8.3504742e-06
5.8173265e-06
-8.808514e-06
4.2956768e-06
-9.1691413e-06
3.0174384e-06
-9.4427398e-06
2.0080947e-06
-9.6482551e-06
1.302829e-06
-9.8158062e-06
9.6620298e-07
-9.9925013e-06
1.1239308e-06
-1.025465e-05
2.0138684e-06
-1.0732041e-05
4.0659671e-06
-1.1654328e-05
8.0143904e-06
-1.3436759e-05
1.499862e-05
-1.6831215e-05
2.6428903e-05
-2.3165645e-05
4.2844785e-05
-3.462077e-05
5.973593e-05
-5.4128833e-05
5.7766761e-05
-8.3247119e-05
-0.00011390008
4.869928e-07
-7.2382302e-05
9.9563266e-07
-7.2384658e-05
1.5246174e-06
-7.2389954e-05
2.072738e-06
-7.2398875e-05
2.6382125e-06
-7.2412213e-05
3.2188431e-06
-7.2430881e-05
3.8120344e-06
-7.2455927e-05
4.414721e-06
-7.2488541e-05
5.0233711e-06
-7.253007e-05
5.633928e-06
-7.2582025e-05
6.2417992e-06
-7.2646087e-05
6.8418255e-06
-7.2724113e-05
7.4282502e-06
-7.2818131e-05
7.994707e-06
-7.2930334e-05
8.5342142e-06
-7.3063066e-05
9.0391757e-06
-7.3218791e-05
9.5014273e-06
-7.3400053e-05
9.9122905e-06
-7.3609423e-05
1.026269e-05
-7.3849421e-05
1.0543332e-05
-7.412242e-05
1.0744933e-05
-7.4430526e-05
1.0858548e-05
-7.4775437e-05
1.0875961e-05
-7.5158272e-05
1.0789999e-05
-7.5579392e-05
1.0595223e-05
-7.603819e-05
1.0288546e-05
-7.653289e-05
9.8698146e-06
-7.7060365e-05
9.3423547e-06
-7.7615979e-05
8.7133836e-06
-7.8193499e-05
7.9942108e-06
-7.8785083e-05
7.2001079e-06
-7.9381375e-05
6.3497982e-06
-7.9971714e-05
5.464531e-06
-8.0544471e-05
4.5667844e-06
-8.1087466e-05
3.6787378e-06
-8.1588467e-05
2.820765e-06
-8.2035682e-05
2.0103208e-06
-8.2418234e-05
1.2617025e-06
-8.2726601e-05
5.8729854e-07
-8.2953143e-05
1.1849931e-09
-8.3093014e-05
-4.735874e-07
-8.3146179e-05
-7.9170193e-07
-8.3121981e-05
-8.6295447e-07
-8.3048983e-05
-5.1844293e-07
-8.2994951e-05
5.2375461e-07
-8.3104414e-05
2.6336265e-06
-8.3660211e-05
6.0073771e-06
-8.5158171e-05
9.7526582e-06
-8.8295119e-05
9.935113e-06
-9.3493208e-05
-9.9151837e-05
1.2940175e-07
-9.35443e-05
2.6457666e-07
-9.3544951e-05
4.0537527e-07
-9.3546416e-05
5.5160182e-07
-9.3548886e-05
7.0283099e-07
-9.3552584e-05
8.5853263e-07
-9.3557767e-05
1.0180728e-06
-9.3564729e-05
1.1806938e-06
-9.3573811e-05
1.3455292e-06
-9.3585395e-05
1.5115811e-06
-9.3599916e-05
1.6776905e-06
-9.3617859e-05
1.8425661e-06
-9.3639767e-05
2.0047363e-06
-9.3666236e-05
2.1625734e-06
-9.3697919e-05
2.3142624e-06
-9.3735521e-05
2.4578081e-06
-9.3779796e-05
2.5910275e-06
-9.3831536e-05
2.7115695e-06
-9.3891559e-05
2.8169201e-06
-9.3960689e-05
2.9044462e-06
-9.4039734e-05
2.9714323e-06
-9.4129449e-05
3.0151658e-06
-9.4230496e-05
3.0330223e-06
-9.4343397e-05
3.0225878e-06
-9.4468475e-05
2.9818045e-06
-9.4605786e-05
2.9091425e-06
-9.4755052e-05
2.8037817e-06
-9.4915584e-05
2.665797e-06
-9.508622e-05
2.496326e-06
-9.5265259e-05
2.2976872e-06
-9.5450429e-05
2.0734233e-06
-9.5638873e-05
1.828243e-06
-9.5827171e-05
1.5678229e-06
-9.601141e-05
1.2984711e-06
-9.6187283e-05
1.0266675e-06
-9.6350222e-05
7.5851201e-07
-9.6495548e-05
4.991844e-07
-9.6618611e-05
2.5252145e-07
-9.6714904e-05
2.088572e-08
-9.6780129e-05
-1.945254e-07
-9.6810229e-05
-3.9260963e-07
-9.6801505e-05
-5.6964403e-07
-9.6751157e-05
-7.1354251e-07
-9.665889e-05
-7.9360655e-07
-9.6531093e-05
-7.4630129e-07
-9.6390041e-05
-4.7802642e-07
-9.6288411e-05
8.3824578e-08
-9.6323871e-05
8.2982842e-07
-9.6637292e-05
1.1052481e-06
-9.7334788e-05
-9.8160939e-05
3.0695099e-08
-9.8628249e-05
6.2375676e-08
-9.862841e-05
9.5427645e-08
-9.8628774e-05
1.2985719e-07
-9.8629388e-05
1.6554559e-07
-9.8630308e-05
2.0235119e-07
-9.8631595e-05
2.4009482e-07
-9.8633325e-05
2.7859677e-07
-9.8635581e-05
3.1762221e-07
-9.8638458e-05
3.5691377e-07
-9.8642064e-05
3.9619096e-07
-9.8646519e-05
4.3511222e-07
-9.8651958e-05
4.7331309e-07
-9.865853e-05
5.1037104e-07
-9.8666396e-05
5.4583487e-07
-9.8675732e-05
5.7920591e-07
-9.8686726e-05
6.0993111e-07
-9.8699573e-05
6.3742325e-07
-9.8714479e-05
6.6105076e-07
-9.8731646e-05
6.8015656e-07
-9.8751276e-05
6.9406136e-07
-9.8773552e-05
7.0208701e-07
-9.8798637e-05
7.0357156e-07
-9.8826655e-05
6.9791968e-07
-9.8857676e-05
6.8461474e-07
-9.8891699e-05
6.6328026e-07
-9.8928636e-05
6.3372125e-07
-9.8968286e-05
5.9597301e-07
-9.9010318e-05
5.5034157e-07
-9.9054256e-05
4.9743709e-07
-9.9099468e-05
4.3818202e-07
-9.9145155e-05
3.7378923e-07
-9.9190367e-05
3.057077e-07
-9.9234007e-05
2.3552967e-07
-9.9274864e-05
1.6485648e-07
-9.9311632e-05
9.5103853e-08
-9.9342938e-05
2.730264e-08
-9.9367383e-05
-3.8037249e-08
-9.9383581e-05
-1.0100394e-07
-9.9390152e-05
-1.6241016e-07
-9.9385631e-05
-2.2412739e-07
-9.9368228e-05
-2.8897144e-07
-9.9335545e-05
-3.6014713e-07
-9.9284183e-05
-4.3903528e-07
-9.9210412e-05
-5.1406594e-07
-9.911391e-05
-5.5168658e-07
-9.9008153e-05
-5.0801404e-07
-9.8904893e-05
-3.6746511e-07
-9.8836563e-05
-1.8389839e-07
-9.8840478e-05
-9.8863354e-05
6.221281e-09
-9.9753313e-05
1.2119637e-08
-9.9753346e-05
1.8371614e-08
-9.9753415e-05
2.5025001e-08
-9.9753531e-05
3.202534e-08
-9.9753706e-05
3.9308165e-08
-9.9753953e-05
4.6845944e-08
-9.9754288e-05
5.4557833e-08
-9.9754729e-05
6.2373442e-08
-9.9755296e-05
7.0227302e-08
-9.9756013e-05
7.8025413e-08
-9.9756905e-05
8.5685115e-08
-9.9757999e-05
9.3092907e-08
-9.9759328e-05
1.0014933e-07
-9.9760923e-05
1.06735e-07
-9.9762819e-05
1.1271921e-07
-9.9765055e-05
1.1796715e-07
-9.9767666e-05
1.2233852e-07
-9.9770691e-05
1.2568667e-07
-9.9774164e-05
1.2785388e-07
-9.9778117e-05
1.2869868e-07
-9.9782577e-05
1.2807115e-07
-9.978756e-05
1.2584124e-07
-9.979307e-05
1.2189956e-07
-9.9799098e-05
1.1615983e-07
-9.9805613e-05
1.0858363e-07
-9.9812563e-05
9.9178364e-08
-9.9819868e-05
8.8008831e-08
-9.9827423e-05
7.520882e-08
-9.9835096e-05
6.0970913e-08
-9.9842729e-05
4.5553416e-08
-9.9850146e-05
2.9275725e-08
-9.9857151e-05
1.2503365e-08
-9.9863529e-05
-4.329827e-09
-9.9869058e-05
-2.0794294e-08
-9.9873473e-05
-3.6674109e-08
-9.9876485e-05
-5.207076e-08
-9.9877832e-05
-6.7311859e-08
-9.987733e-05
-8.2696456e-08
-9.9874907e-05
-9.8344075e-08
-9.9870609e-05
-1.1476167e-07
-9.9864303e-05
-1.3272954e-07
-9.9854947e-05
-1.5614943e-07
-9.983985e-05
-1.9645229e-07
-9.9813679e-05
-2.7239948e-07
-9.9766901e-05
-3.3718782e-07
-9.9683643e-05
-3.7898607e-07
-9.9584006e-05
-3.7418552e-07
-9.9451999e-05
-2.1959476e-07
-9.9310086e-05
-9.920658e-05
1.2586407e-09
-9.9959858e-05
2.5354803e-09
-9.9959856e-05
3.7998708e-09
-9.9959841e-05
5.1019061e-09
-9.9959812e-05
6.4271672e-09
-9.9959772e-05
7.7438913e-09
-9.995972e-05
9.0671206e-09
-9.9959657e-05
1.0362161e-08
-9.9959585e-05
1.1631558e-08
-9.9959503e-05
1.2849048e-08
-9.9959414e-05
1.3994681e-08
-9.9959317e-05
1.5053812e-08
-9.9959215e-05
1.5999773e-08
-9.9959108e-05
1.6806464e-08
-9.9958998e-05
1.7451064e-08
-9.9958886e-05
1.7904896e-08
-9.9958775e-05
1.8139095e-08
-9.9958668e-05
1.8133239e-08
-9.9958567e-05
1.785563e-08
-9.995848e-05
1.7286181e-08
-9.9958413e-05
1.6398358e-08
-9.9958377e-05
1.5169345e-08
-9.9958386e-05
1.357832e-08
-9.9958457e-05
1.1601892e-08
-9.9958608e-05
9.2108729e-09
-9.9958862e-05
6.3838977e-09
-9.9959236e-05
3.0926878e-09
-9.9959746e-05
-6.9531411e-10
-9.9960393e-05
-5.0041206e-09
-9.9961162e-05
-9.8909589e-09
-9.9962016e-05
-1.527703e-08
-9.9962882e-05
-2.1073885e-08
-9.9963689e-05
-2.7173732e-08
-9.9964363e-05
-3.313418e-08
-9.9964855e-05
-3.8657113e-08
-9.9965287e-05
-4.3935643e-08
-9.9965901e-05
-4.9611322e-08
-9.9966927e-05
-5.651435e-08
-9.9968376e-05
-6.5294078e-08
-9.9969872e-05
-7.5128432e-08
-9.9970683e-05
-8.3454269e-08
-9.9970136e-05
-8.6804421e-08
-9.9967475e-05
-8.3778819e-08
-9.9961434e-05
-7.8864858e-08
-9.9948774e-05
-8.2145723e-08
-9.9921112e-05
-1.3021577e-07
-9.9864113e-05
-1.2971599e-07
-9.9743295e-05
-1.3058208e-07
-9.9611233e-05
-5.8081583e-08
-9.9440298e-05
-9.9375997e-05
1.593529e-09
-9.993804e-05
4.6725572e-09
-9.9938087e-05
7.3620175e-09
-9.9938077e-05
9.7311009e-09
-9.9938072e-05
1.1823041e-08
-9.9938065e-05
1.3654694e-08
-9.9938055e-05
1.5278415e-08
-9.993804e-05
1.6709259e-08
-9.9938022e-05
1.7962897e-08
-9.9937999e-05
1.9050197e-08
-9.9937973e-05
1.9971125e-08
-9.9937944e-05
2.073451e-08
-9.9937913e-05
2.132039e-08
-9.9937883e-05
2.171526e-08
-9.9937855e-05
2.1889068e-08
-9.9937835e-05
2.1813413e-08
-9.9937826e-05
2.145217e-08
-9.9937834e-05
2.0754982e-08
-9.9937869e-05
1.9677288e-08
-9.9937941e-05
1.8172511e-08
-9.9938061e-05
1.6198516e-08
-9.9938246e-05
1.3729382e-08
-9.9938514e-05
1.0756625e-08
-9.9938888e-05
7.3088861e-09
-9.9939391e-05
3.4448223e-09
-9.9940047e-05
-7.4388375e-10
-9.9940879e-05
-5.1337714e-09
-9.9941901e-05
-9.5877364e-09
-9.9943122e-05
-1.3978931e-08
-9.9944553e-05
-1.8165102e-08
-9.9946189e-05
-2.2287305e-08
-9.9947997e-05
-2.6392664e-08
-9.9949922e-05
-3.0705481e-08
-9.9951847e-05
-3.5953198e-08
-9.9953683e-05
-4.2296042e-08
-9.9955232e-05
-4.9470471e-08
-9.9956257e-05
-5.6710208e-08
-9.9956403e-05
-6.3178485e-08
-9.9954996e-05
-6.8578881e-08
-9.9951022e-05
-7.3113138e-08
-9.9942952e-05
-7.455078e-08
-9.9928486e-05
-6.8427853e-08
-9.9906234e-05
-4.8770436e-08
-9.9876927e-05
-9.3281427e-09
-9.9842778e-05
4.8102751e-08
-9.9805735e-05
1.2075519e-07
-9.9761265e-05
1.1965836e-07
-9.9749021e-05
1.6283838e-07
-9.9762876e-05
4.2254937e-08
-9.9863937e-05
-9.9922438e-05
-5.5245335e-09
-9.9896608e-05
5.9597068e-09
-9.9896594e-05
8.0733326e-09
-9.9896663e-05
1.0487439e-08
-9.9896765e-05
1.2883493e-08
-9.9896909e-05
1.5032998e-08
-9.9897103e-05
1.6872453e-08
-9.9897352e-05
1.8469523e-08
-9.9897659e-05
1.981242e-08
-9.9898033e-05
2.0916258e-08
-9.9898477e-05
2.17696e-08
-9.9899001e-05
2.235127e-08
-9.9899611e-05
2.2646251e-08
-9.9900314e-05
2.2627163e-08
-9.9901117e-05
2.2254467e-08
-9.9902027e-05
2.1493615e-08
-9.9903047e-05
2.0299116e-08
-9.9904177e-05
1.8615128e-08
-9.9905414e-05
1.6395317e-08
-9.9906745e-05
1.3583782e-08
-9.9908148e-05
1.0148886e-08
-9.9909592e-05
6.0758658e-09
-9.9911027e-05
1.3930653e-09
-9.9912393e-05
-3.8068159e-09
-9.9913613e-05
-9.3528029e-09
-9.9914609e-05
-1.504128e-08
-9.9915306e-05
-2.0664795e-08
-9.9915648e-05
-2.6125191e-08
-9.9915611e-05
-3.1171407e-08
-9.9915186e-05
-3.5440411e-08
-9.99144e-05
-3.9006062e-08
-9.9913326e-05
-4.1587658e-08
-9.9912028e-05
-4.388628e-08
-9.9910494e-05
-4.6053263e-08
-9.9908478e-05
-4.8376959e-08
-9.9905513e-05
-5.0256019e-08
-9.9900737e-05
-4.9816759e-08
-9.9893192e-05
-4.5473115e-08
-9.9882146e-05
-3.590139e-08
-9.9867087e-05
-1.9860596e-08
-9.9847873e-05
-8.6192516e-11
-9.9825754e-05
2.0722508e-08
-9.980187e-05
4.5659956e-08
-9.9778813e-05
8.3790077e-08
-9.9760819e-05
1.4972011e-07
-9.9758552e-05
1.4618916e-07
-9.9808231e-05
9.3495656e-08
-9.9884492e-05
-1.0638178e-08
-9.9974973e-05
-4.9030869e-08
-0.00010006785
-0.00010011333
-3.4522715e-09
-9.98988e-05
-3.4753038e-09
-9.9898776e-05
-4.7061939e-09
-9.9898793e-05
-6.0034342e-09
-9.9898833e-05
-7.2221224e-09
-9.9898897e-05
-8.3800316e-09
-9.9898987e-05
-9.4970162e-09
-9.9899106e-05
-1.0588102e-08
-9.9899256e-05
-1.1675569e-08
-9.9899442e-05
-1.2776654e-08
-9.9899667e-05
-1.3895103e-08
-9.9899934e-05
-1.5036495e-08
-9.9900246e-05
-1.6194395e-08
-9.9900605e-05
-1.7349573e-08
-9.9901012e-05
-1.8480449e-08
-9.9901466e-05
-1.9550644e-08
-9.9901964e-05
-2.0512138e-08
-9.99025e-05
-2.1309265e-08
-9.9903065e-05
-2.1889761e-08
-9.9903644e-05
-2.2198613e-08
-9.9904219e-05
-2.2205109e-08
-9.9904766e-05
-2.1902717e-08
-9.9905254e-05
-2.1339565e-08
-9.9905635e-05
-2.0656049e-08
-9.9905839e-05
-2.0093695e-08
-9.9905816e-05
-1.9814603e-08
-9.9905611e-05
-2.0195846e-08
-9.9904935e-05
-2.1211444e-08
-9.990374e-05
-2.2910338e-08
-9.9901915e-05
-2.5187425e-08
-9.9899328e-05
-2.7733085e-08
-9.9895739e-05
-2.9472517e-08
-9.9890913e-05
-2.9423063e-08
-9.9884685e-05
-2.6709886e-08
-9.9876938e-05
-2.0053832e-08
-9.9867665e-05
-9.5813113e-09
-9.9857083e-05
4.3106186e-09
-9.9845529e-05
2.1611834e-08
-9.9833531e-05
4.1905776e-08
-9.9822025e-05
6.1562752e-08
-9.9812323e-05
7.9839632e-08
-9.9805406e-05
9.086205e-08
-9.9804097e-05
9.541646e-08
-9.9810433e-05
8.9490141e-08
-9.9830148e-05
3.6198018e-08
-9.987189e-05
-1.2224639e-08
-9.9913353e-05
-7.7361745e-08
-9.9961804e-05
-1.7005843e-07
-0.00010002297
-1.200093e-07
-0.00010002974
-9.9999195e-05
1.1013109e-10
-9.9886577e-05
-5.7513112e-09
-9.9886527e-05
-9.7838316e-09
-9.988648e-05
-1.3303448e-08
-9.9886385e-05
-1.6532921e-08
-9.9886241e-05
-1.9547362e-08
-9.988605e-05
-2.2388813e-08
-9.9885806e-05
-2.5071381e-08
-9.9885505e-05
-2.760242e-08
-9.988514e-05
-2.9971269e-08
-9.9884707e-05
-3.2157806e-08
-9.9884198e-05
-3.4130631e-08
-9.9883608e-05
-3.5856922e-08
-9.9882929e-05
-3.7290459e-08
-9.9882155e-05
-3.8369282e-08
-9.9881282e-05
-3.9019592e-08
-9.9880308e-05
-3.915545e-08
-9.9879233e-05
-3.8690136e-08
-9.9878065e-05
-3.7565217e-08
-9.9876818e-05
-3.5759274e-08
-9.9875517e-05
-3.3207408e-08
-9.9874194e-05
-2.9703626e-08
-9.9872896e-05
-2.5135827e-08
-9.9871688e-05
-2.0274615e-08
-9.9870647e-05
-1.6926127e-08
-9.9869808e-05
-1.0362392e-08
-9.9869049e-05
-4.9940846e-09
-9.9868494e-05
-1.2201795e-10
-9.9867955e-05
4.2816679e-09
-9.9867243e-05
9.1015715e-09
-9.9866121e-05
1.4174171e-08
-9.9864415e-05
1.969727e-08
-9.9861956e-05
2.6169957e-08
-9.9858652e-05
3.3780608e-08
-9.9854606e-05
4.2701958e-08
-9.985018e-05
5.2701242e-08
-9.9845982e-05
6.3106751e-08
-9.9842863e-05
7.2869075e-08
-9.9841925e-05
8.1194535e-08
-9.9844496e-05
8.7025772e-08
-9.985233e-05
8.4217617e-08
-9.9867215e-05
7.1588074e-08
-9.9887856e-05
4.0900312e-08
-9.9913872e-05
-1.5439948e-08
-9.9941305e-05
-5.8548653e-08
-9.9960592e-05
-1.1287114e-07
-9.9978835e-05
-1.9285831e-07
-9.9963806e-05
-1.816873e-07
-9.9879887e-05
-7.234166e-08
-9.9829455e-05
-9.9788061e-05
7.7383926e-09
-9.9870945e-05
6.1292836e-10
-9.9871033e-05
2.2360921e-09
-9.9870998e-05
3.0287292e-09
-9.9870957e-05
3.3240793e-09
-9.98709e-05
3.4359943e-09
-9.9870816e-05
3.4302883e-09
-9.9870699e-05
3.3049634e-09
-9.9870544e-05
3.0734557e-09
-9.9870344e-05
2.7624167e-09
-9.9870089e-05
2.3907508e-09
-9.986977e-05
1.9756898e-09
-9.9869378e-05
1.5283537e-09
-9.9868901e-05
1.0536968e-09
-9.9868327e-05
5.4928132e-10
-9.9867644e-05
7.5246533e-12
-9.986684e-05
-5.9607005e-10
-9.9865902e-05
-1.2795597e-09
-9.986482e-05
-2.0715697e-09
-9.9863584e-05
-2.9724158e-09
-9.9862186e-05
-3.9571314e-09
-9.9860624e-05
-4.9437301e-09
-9.9858901e-05
-5.7536655e-09
-9.9857028e-05
-6.0595788e-09
-9.9855032e-05
-5.2575629e-09
-9.985296e-05
-2.5928242e-09
-9.9850878e-05
1.8577212e-09
-9.9848772e-05
8.1093168e-09
-9.9847204e-05
1.6079395e-08
-9.9846071e-05
2.5396722e-08
-9.9845651e-05
3.5524064e-08
-9.9846248e-05
4.5785397e-08
-9.9848138e-05
5.5200285e-08
-9.9851553e-05
6.2657484e-08
-9.9856631e-05
6.7595522e-08
-9.9863424e-05
6.9518471e-08
-9.9872028e-05
6.7700715e-08
-9.9882784e-05
6.1417345e-08
-9.9896065e-05
4.9471368e-08
-9.9912108e-05
3.2229677e-08
-9.9930701e-05
1.5145759e-08
-9.9950943e-05
-7.5505795e-09
-9.997314e-05
-3.4959957e-08
-9.9993023e-05
-6.3923539e-08
-0.00010000726
-1.0023531e-07
-0.00010000861
-8.1652479e-08
-9.9978548e-05
-3.4393095e-08
-9.9928963e-05
-9.5117415e-08
-9.9845041e-05
-7.7495053e-09
-9.9590772e-05
-9.9495869e-05
-5.5942082e-09
-9.9889444e-05
5.4530193e-09
-9.9889427e-05
7.2933005e-09
-9.9889485e-05
9.5724049e-09
-9.9889567e-05
1.2039429e-08
-9.9889681e-05
1.4427549e-08
-9.988983e-05
1.6707596e-08
-9.9890017e-05
1.893178e-08
-9.9890242e-05
2.1114945e-08
-9.9890506e-05
2.3250976e-08
-9.9890809e-05
2.5330182e-08
-9.9891153e-05
2.7347167e-08
-9.9891537e-05
2.9270548e-08
-9.9891959e-05
3.106129e-08
-9.9892419e-05
3.2673075e-08
-9.9892911e-05
3.4050638e-08
-9.9893431e-05
3.5124648e-08
-9.9893969e-05
3.5815235e-08
-9.9894512e-05
3.6049188e-08
-9.9895037e-05
3.5752301e-08
-9.9895518e-05
3.4879205e-08
-9.9895917e-05
3.3420295e-08
-9.9896192e-05
3.1428192e-08
-9.9896292e-05
2.9017761e-08
-9.9896175e-05
2.6778077e-08
-9.9895814e-05
2.6881912e-08
-9.9895236e-05
2.179302e-08
-9.9894714e-05
2.1211958e-08
-9.9894036e-05
2.0484272e-08
-9.9893769e-05
1.9697068e-08
-9.9894153e-05
1.9108951e-08
-9.9895448e-05
1.883192e-08
-9.9897946e-05
1.8753879e-08
-9.9901915e-05
1.8347469e-08
-9.990764e-05
1.6571423e-08
-9.99153e-05
1.153409e-08
-9.9924851e-05
2.6184489e-09
-9.993576e-05
-1.0049122e-08
-9.9947146e-05
-2.5820748e-08
-9.9958042e-05
-4.2285225e-08
-9.996695e-05
-5.9135199e-08
-9.9971643e-05
-6.8032892e-08
-9.9968237e-05
-7.4321669e-08
-9.9954147e-05
-6.7320797e-08
-9.9921232e-05
-3.1544248e-08
-9.9871853e-05
2.1348762e-08
-9.9815548e-05
1.2407787e-07
-9.9752265e-05
3.4135032e-07
-9.9694875e-05
1.4034017e-07
-9.9829621e-05
-9.9899919e-05
-3.1218784e-09
-9.9910916e-05
-2.5211787e-09
-9.9910885e-05
-3.0105526e-09
-9.9910881e-05
-3.3832627e-09
-9.9910888e-05
-3.443783e-09
-9.9910906e-05
-3.1653557e-09
-9.9910938e-05
-2.5565476e-09
-9.9910989e-05
-1.6253918e-09
-9.9911065e-05
-3.845749e-10
-9.9911173e-05
1.1278281e-09
-9.9911322e-05
2.8955707e-09
-9.9911523e-05
4.8856998e-09
-9.9911787e-05
7.066489e-09
-9.9912129e-05
9.4143254e-09
-9.9912565e-05
1.1899125e-08
-9.9913114e-05
1.4512356e-08
-9.9913796e-05
1.7232287e-08
-9.9914634e-05
2.0045251e-08
-9.9915652e-05
2.2934226e-08
-9.9916873e-05
2.5848897e-08
-9.9918311e-05
2.8696459e-08
-9.9919995e-05
3.1374687e-08
-9.9922069e-05
3.3594569e-08
-9.9924344e-05
3.5133478e-08
-9.9926874e-05
3.5673423e-08
-9.9929651e-05
3.4179097e-08
-9.9932743e-05
3.0423102e-08
-9.9935807e-05
2.4297147e-08
-9.9938711e-05
1.6449956e-08
-9.9941203e-05
7.3255206e-09
-9.9943042e-05
-2.5809669e-09
-9.9944028e-05
-1.2501598e-08
-9.9944058e-05
-2.2332476e-08
-9.9943183e-05
-3.1623661e-08
-9.9941499e-05
-4.0068687e-08
-9.9939098e-05
-4.7274623e-08
-9.9935863e-05
-5.3176652e-08
-9.9931479e-05
-5.8587598e-08
-9.9924982e-05
-6.1892202e-08
-9.9914233e-05
-5.9561952e-08
-9.9897315e-05
-4.7738765e-08
-9.9873952e-05
-2.5171991e-08
-9.9845136e-05
1.6698767e-08
-9.9813123e-05
5.6804728e-08
-9.9786285e-05
9.7118579e-08
-9.9762281e-05
1.5280534e-07
-9.9752467e-05
2.3244817e-07
-9.9790322e-05
1.1005131e-07
-9.9932271e-05
3.0645047e-08
-0.00010006445
-0.00010014566
1.5058737e-09
-9.9899864e-05
-1.9675001e-09
-9.9899821e-05
-3.8685879e-09
-9.9899795e-05
-5.405792e-09
-9.9899734e-05
-6.755585e-09
-9.9899644e-05
-7.9684935e-09
-9.9899528e-05
-9.0582437e-09
-9.9899389e-05
-1.0045152e-08
-9.9899229e-05
-1.0956718e-08
-9.989905e-05
-1.1785994e-08
-9.9898859e-05
-1.2563348e-08
-9.989866e-05
-1.3298517e-08
-9.9898461e-05
-1.4007762e-08
-9.989827e-05
-1.4692566e-08
-9.9898097e-05
-1.5336124e-08
-9.9897954e-05
-1.5913553e-08
-9.9897855e-05
-1.6391926e-08
-9.9897815e-05
-1.6584532e-08
-9.9897855e-05
-1.6286308e-08
-9.9898001e-05
-1.5907691e-08
-9.9898294e-05
-1.8046134e-08
-9.989876e-05
-1.5219082e-08
-9.9899303e-05
-1.3538069e-08
-9.9900155e-05
-1.1868294e-08
-9.9901264e-05
-1.1913923e-08
-9.9902617e-05
-8.6927952e-09
-9.9904053e-05
-6.5120017e-09
-9.9905684e-05
-4.5119263e-09
-9.9907298e-05
-2.8719206e-09
-9.9908688e-05
-2.0983393e-09
-9.9909602e-05
-2.8414161e-09
-9.9909852e-05
-5.5876751e-09
-9.9909185e-05
-1.0248298e-08
-9.9907143e-05
-1.5961077e-08
-9.9903252e-05
-2.0888486e-08
-9.9896908e-05
-2.3641621e-08
-9.9887633e-05
-2.1336412e-08
-9.9875076e-05
-1.070176e-08
-9.9859366e-05
6.6149852e-09
-9.9841728e-05
2.6443612e-08
-9.9823667e-05
4.8688963e-08
-9.9806641e-05
7.2211473e-08
-9.9794873e-05
9.0913106e-08
-9.9793434e-05
1.1714484e-07
-9.9806067e-05
1.195435e-07
-9.9844378e-05
7.4171955e-08
-9.9902213e-05
-3.5597745e-08
-9.997431e-05
-1.16843e-07
-0.0001000453
-9.6081906e-08
-0.00010008602
-0.00010005204
8.0957566e-09
-9.9877023e-05
1.642648e-09
-9.9877115e-05
3.768298e-09
-9.9877092e-05
4.8486679e-09
-9.9877073e-05
5.217853e-09
-9.9877048e-05
5.1393435e-09
-9.9877009e-05
4.688272e-09
-9.9876951e-05
3.8433024e-09
-9.9876861e-05
2.6081934e-09
-9.9876691e-05
1.0163789e-09
-9.9876563e-05
-9.1525666e-10
-9.9876404e-05
-3.1548066e-09
-9.9876194e-05
-5.6604895e-09
-9.9875924e-05
-8.4094109e-09
-9.9875584e-05
-1.1358121e-08
-9.9875158e-05
-1.4469895e-08
-9.987463e-05
-1.769986e-08
-9.9873982e-05
-2.0991263e-08
-9.9873192e-05
-2.4275437e-08
-9.9872239e-05
-2.7443556e-08
-9.9871099e-05
-3.029686e-08
-9.9869751e-05
-3.2665437e-08
-9.9868169e-05
-3.4198332e-08
-9.9866266e-05
-3.4771341e-08
-9.9864285e-05
-3.4013548e-08
-9.9862123e-05
-3.1506127e-08
-9.9859884e-05
-2.7043887e-08
-9.9857728e-05
-2.058407e-08
-9.9855865e-05
-1.2469465e-08
-9.9854533e-05
-4.4908251e-09
-9.9853929e-05
2.954286e-09
-9.9853917e-05
1.0525957e-08
-9.9854139e-05
1.7680842e-08
-9.9854138e-05
2.541906e-08
-9.9853436e-05
3.4113741e-08
-9.9851705e-05
4.4050635e-08
-9.9848871e-05
5.5651832e-08
-9.984548e-05
6.787033e-08
-9.984295e-05
7.9753759e-08
-9.9843175e-05
8.9120462e-08
-9.9848605e-05
8.806859e-08
-9.9861637e-05
7.6586565e-08
-9.9881374e-05
5.5980943e-08
-9.9908033e-05
2.0840314e-08
-9.993886e-05
-1.2616745e-08
-9.9967064e-05
-7.5592619e-08
-9.999361e-05
-1.6964227e-07
-9.9992799e-05
-1.8675442e-07
-9.9941627e-05
-4.3056747e-08
-9.9849092e-05
-9.9835799e-05
-5.8346985e-09
-9.9881712e-05
4.797186e-09
-9.9881694e-05
6.0991083e-09
-9.9881749e-05
7.6950655e-09
-9.9881825e-05
9.2708971e-09
-9.9881929e-05
1.0598152e-08
-9.9882062e-05
1.244922e-08
-9.9882223e-05
1.7019351e-08
-9.988242e-05
1.1688144e-08
-9.9882688e-05
1.1289712e-08
-9.9882894e-05
1.1338965e-08
-9.9883097e-05
1.1186655e-08
-9.9883295e-05
1.0809381e-08
-9.9883476e-05
1.0296309e-08
-9.9883623e-05
9.712642e-09
-9.988372e-05
9.0671991e-09
-9.9883746e-05
8.3703868e-09
-9.9883679e-05
7.6142906e-09
-9.9883492e-05
6.8053748e-09
-9.9883157e-05
5.9785965e-09
-9.9882642e-05
5.3653644e-09
-9.9881912e-05
6.3260699e-09
-9.9880949e-05
2.6951526e-09
-9.9879804e-05
1.8232117e-09
-9.9878236e-05
4.3968698e-10
-9.9876378e-05
-1.3430084e-09
-9.9874212e-05
-3.3396811e-09
-9.9871747e-05
-5.191325e-09
-9.9869026e-05
-6.125758e-09
-9.9866131e-05
-4.3767019e-09
-9.9863191e-05
1.0326696e-09
-9.9860414e-05
1.0530164e-08
-9.9858293e-05
2.2721493e-08
-9.985721e-05
3.6710003e-08
-9.9857817e-05
5.0917266e-08
-9.9860849e-05
6.2332348e-08
-9.9867064e-05
6.8049421e-08
-9.987694e-05
6.6870766e-08
-9.9890529e-05
5.7762174e-08
-9.9907529e-05
4.1147641e-08
-9.9927018e-05
2.20209e-08
-9.9947598e-05
-4.5077515e-09
-9.9969248e-05
-2.9263121e-08
-9.9988232e-05
-5.00584e-08
-0.0001000051
-7.3278365e-08
-0.00010001392
-7.390717e-08
-9.9997222e-05
-7.3013505e-08
-9.9947392e-05
-2.7912098e-08
-9.9824089e-05
-2.2314742e-08
-9.9649566e-05
-9.9516584e-05
-3.0724317e-09
-9.9906792e-05
-2.6948417e-09
-9.9906787e-05
-3.4674286e-09
-9.9906816e-05
-4.1362244e-09
-9.9906872e-05
-4.5395321e-09
-9.9906948e-05
-4.6231771e-09
-9.9907033e-05
-4.3674354e-09
-9.9907149e-05
-3.8502189e-09
-9.9907363e-05
-2.9560923e-09
-9.9907554e-05
-1.7527058e-09
-9.9907765e-05
-2.3898851e-10
-9.9908004e-05
1.5734677e-09
-9.9908273e-05
3.6792108e-09
-9.9908575e-05
6.0522522e-09
-9.9908912e-05
8.6714317e-09
-9.9909289e-05
1.1507334e-08
-9.9909711e-05
1.4521634e-08
-9.9910184e-05
1.7666451e-08
-9.9910717e-05
2.0874769e-08
-9.9911319e-05
2.405752e-08
-9.9911999e-05
2.7086049e-08
-9.9912764e-05
2.9777323e-08
-9.9913617e-05
3.1892731e-08
-9.9914548e-05
3.3281195e-08
-9.9915528e-05
3.3770695e-08
-9.9916505e-05
3.3143417e-08
-9.9917397e-05
3.1262164e-08
-9.9918079e-05
2.8279587e-08
-9.9918401e-05
2.4770296e-08
-9.9918231e-05
2.215107e-08
-9.9917532e-05
1.9454759e-08
-9.991662e-05
1.9079079e-08
-9.991596e-05
1.8364968e-08
-9.991641e-05
1.6935353e-08
-9.9918529e-05
1.405947e-08
-9.9922681e-05
9.0941341e-09
-9.9928873e-05
1.4536541e-09
-9.9936853e-05
-8.8560149e-09
-9.9945893e-05
-2.1162306e-08
-9.9954744e-05
-3.4608926e-08
-9.996157e-05
-5.0426634e-08
-9.9963622e-05
-6.2259431e-08
-9.9956462e-05
-7.5898748e-08
-9.9936714e-05
-7.2228452e-08
-9.9896579e-05
-3.5128123e-08
-9.9845483e-05
2.9602732e-08
-9.979358e-05
1.5981999e-07
-9.9740447e-05
2.7166733e-07
-9.9722652e-05
1.8519399e-07
-9.9832125e-05
-0.00010003403
-2.2183541e-09
-9.991017e-05
-6.6870484e-09
-9.9910135e-05
-1.0511862e-08
-9.991007e-05
-1.2844243e-08
-9.9909967e-05
-1.3368446e-08
-9.990983e-05
-1.5578461e-08
-9.9909673e-05
-2.2679215e-08
-9.9909476e-05
-1.8709297e-08
-9.9909177e-05
-1.7890593e-08
-9.9908903e-05
-1.7130794e-08
-9.9908619e-05
-1.5994045e-08
-9.9908328e-05
-1.4474486e-08
-9.9908041e-05
-1.2626806e-08
-9.9907773e-05
-1.05103e-08
-9.9907541e-05
-8.17359e-09
-9.9907366e-05
-5.6800332e-09
-9.9907273e-05
-3.0692721e-09
-9.9907289e-05
-3.8995257e-10
-9.9907444e-05
2.3344018e-09
-9.9907773e-05
5.0871287e-09
-9.9908311e-05
7.8698906e-09
-9.9909097e-05
1.0703581e-08
-9.9910169e-05
1.3638145e-08
-9.9911564e-05
1.6732698e-08
-9.9913317e-05
2.0053144e-08
-9.9915455e-05
2.3599256e-08
-9.9917985e-05
2.717322e-08
-9.9920881e-05
3.0233928e-08
-9.9924086e-05
3.212581e-08
-9.992766e-05
3.0860069e-08
-9.9931494e-05
2.5187342e-08
-9.9935268e-05
1.5528279e-08
-9.9938599e-05
3.1581354e-09
-9.9940944e-05
-1.0149797e-08
-9.9941781e-05
-2.2664717e-08
-9.9940647e-05
-3.3921259e-08
-9.9937381e-05
-4.2847431e-08
-9.9931392e-05
-4.8286772e-08
-9.992178e-05
-4.8801423e-08
-9.990743e-05
-4.2163544e-08
-9.9887437e-05
-2.6466898e-08
-9.9861626e-05
-2.1855424e-09
-9.9830792e-05
3.5083989e-08
-9.9796901e-05
5.6215863e-08
-9.9769053e-05
8.3474966e-08
-9.9743542e-05
1.3997494e-07
-9.9746218e-05
1.9342217e-07
-9.9820971e-05
8.3749228e-08
-9.9991939e-05
-1.2986141e-07
-0.00010009686
-9.999264e-05
3.1218784e-09
-9.9888118e-05
2.1901974e-09
-9.9888071e-05
2.4459578e-09
-9.9888029e-05
2.7518553e-09
-9.9887939e-05
2.9496217e-09
-9.9887806e-05
3.0007405e-09
-9.9887633e-05
2.9040148e-09
-9.9887421e-05
2.6444318e-09
-9.988717e-05
2.2141876e-09
-9.9886883e-05
1.6041068e-09
-9.9886562e-05
7.9576242e-10
-9.9886212e-05
-2.1331155e-10
-9.9885836e-05
-1.4267496e-09