/*--------------------------------*- C++ -*----------------------------------*\
| =========                 |                                                 |
| \\      /  F ield         | OpenFOAM: The Open Source CFD Toolbox           |
|  \\    /   O peration     | Version:  4.0                                   |
|   \\  /    A nd           | Web:      www.OpenFOAM.org                      |
|    \\/     M anipulation  |                                                 |
\*---------------------------------------------------------------------------*/
FoamFile
{
    version     2.0;
    format      ascii;
    class       volVectorField;
    location    "12000";
    object      U;
}
// * * * * * * * * * * * * * * * * * * * * * * * * * * * * * * * * * * * * * //

dimensions      [0 1 -1 0 0 0 0];

internalField   nonuniform List<vector> 
5000
(
(-1.811327e-08 8.051402e-24 -4.2049568e-05)
(6.7346867e-08 1.6178685e-23 -0.00012739496)
(4.3063672e-08 8.6696841e-24 -0.00021834998)
(9.38582e-08 -3.7961246e-23 -0.00031507637)
(1.6381906e-07 -4.2666457e-23 -0.00041771351)
(2.5675471e-07 -1.0356836e-22 -0.0005263745)
(3.7906978e-07 -2.1569044e-22 -0.0006411431)
(5.3849758e-07 -3.7501925e-22 -0.00076207081)
(7.4211743e-07 -6.4480974e-22 -0.00088917419)
(9.9857656e-07 -9.9669783e-22 -0.0010224325)
(1.3180752e-06 -1.4010405e-21 -0.0011617856)
(1.7129062e-06 -2.0490874e-21 -0.0013071323)
(2.1976718e-06 -2.7858031e-21 -0.0014583291)
(2.7896788e-06 -3.5879063e-21 -0.0016151886)
(3.5096248e-06 -4.6010017e-21 -0.0017774792)
(4.3822364e-06 -5.8845775e-21 -0.0019449241)
(5.43738e-06 -7.5110779e-21 -0.0021172012)
(6.7109813e-06 -9.8359899e-21 -0.0022939424)
(8.2465379e-06 -1.3728838e-20 -0.0024747336)
(1.0100923e-05 -1.627863e-20 -0.002659115)
(1.2379148e-05 -1.9031774e-20 -0.0028465814)
(1.5469524e-05 -2.0696778e-20 -0.0030365822)
(1.7382713e-05 -2.419494e-20 -0.0032285186)
(2.2115e-05 -2.7942823e-20 -0.0034215797)
(2.6679488e-05 -3.2097036e-20 -0.0036151031)
(3.224704e-05 -3.612737e-20 -0.0038083063)
(3.9012366e-05 -4.2620362e-20 -0.0040003587)
(4.720148e-05 -5.6538451e-20 -0.0041903661)
(5.7064426e-05 -6.231798e-20 -0.0043773621)
(6.8916261e-05 -7.3535183e-20 -0.0045602902)
(8.3100498e-05 -9.9683616e-20 -0.0047379778)
(9.9982982e-05 -1.1774124e-19 -0.0049090989)
(0.00011994355 -1.195683e-19 -0.0050721222)
(0.00014335807 -1.425627e-19 -0.0052252408)
(0.00017056938 -1.6840219e-19 -0.0053662831)
(0.00020185289 -1.9694092e-19 -0.005492606)
(0.00023736904 -2.0584751e-19 -0.0056009703)
(0.00027709653 -2.164759e-19 -0.0056874094)
(0.0003207389 -2.4209517e-19 -0.0057470928)
(0.00036760306 -2.5913714e-19 -0.0057742085)
(0.0004164178 -2.1415015e-19 -0.0057618788)
(0.00046506295 -1.1393964e-19 -0.0057021434)
(0.00051017245 -4.8411456e-20 -0.005586044)
(0.00054653061 -4.4937063e-20 -0.0054038213)
(0.00056619203 -1.3265005e-20 -0.0051450902)
(0.00055737978 1.8085425e-21 -0.0047982423)
(0.00050380059 2.6146949e-21 -0.0043461914)
(0.00038747443 1.6886603e-21 -0.003749008)
(0.00020582411 -2.5816501e-21 -0.002886441)
(2.9312512e-05 1.6079512e-22 -0.001399687)
(-2.7163652e-10 2.8432615e-22 -4.2817661e-05)
(-2.3041812e-09 8.3944994e-22 -0.00012973971)
(-9.3092127e-09 1.4186534e-21 -0.00022239359)
(-2.2012077e-08 2.0073059e-21 -0.0003209499)
(-4.1255027e-08 2.6762832e-21 -0.00042555705)
(-6.7865393e-08 3.3511268e-21 -0.00053633782)
(-1.0273802e-07 4.0369791e-21 -0.00065338655)
(-1.4673449e-07 4.7169627e-21 -0.00077676644)
(-2.0037522e-07 5.3870819e-21 -0.00090650708)
(-2.6379158e-07 6.0385713e-21 -0.0010426023)
(-3.3696291e-07 6.6716666e-21 -0.0011850085)
(-4.1907092e-07 7.3031482e-21 -0.0013336432)
(-5.080974e-07 7.9190895e-21 -0.0014883838)
(-6.0102072e-07 8.5335706e-21 -0.001649067)
(-6.933347e-07 9.1578968e-21 -0.0018154881)
(-7.7815786e-07 9.7066322e-21 -0.0019874005)
(-8.4509732e-07 1.005503e-20 -0.0021645152)
(-8.7625229e-07 1.0132216e-20 -0.0023464999)
(-8.5431685e-07 9.377644e-21 -0.0025329779)
(-7.7686313e-07 9.6981541e-21 -0.002723527)
(-7.1476492e-07 8.2551814e-21 -0.0029176782)
(8.9882981e-08 9.3535344e-21 -0.0031148956)
(1.3740573e-06 9.4102437e-21 -0.003314648)
(2.3941817e-06 8.8676887e-21 -0.0035165238)
(4.0526889e-06 7.6136004e-21 -0.0037198756)
(6.2595015e-06 5.5542003e-21 -0.0039239593)
(9.1519326e-06 2.4992237e-21 -0.0041279797)
(1.2874306e-05 -3.1152041e-21 -0.0043310469)
(1.759956e-05 -1.1624218e-20 -0.0045321493)
(2.3512688e-05 -2.2357172e-20 -0.0047301265)
(3.0814048e-05 -3.8518628e-20 -0.0049236329)
(3.9713116e-05 -4.6747296e-20 -0.0051110895)
(5.0422384e-05 -6.2319398e-20 -0.0052906229)
(6.3146459e-05 -7.9390581e-20 -0.0054599917)
(7.8070543e-05 -9.6363051e-20 -0.0056164975)
(9.5345901e-05 -1.0950085e-19 -0.0057568814)
(0.0001150708 -1.1223157e-19 -0.0058772058)
(0.00013726991 -1.0376818e-19 -0.0059727229)
(0.00016186253 -1.0554873e-19 -0.0060377352)
(0.00018861926 -1.0354716e-19 -0.0060654486)
(0.0002170897 -1.1798415e-19 -0.0060478312)
(0.00024647029 -7.1396108e-20 -0.0059754844)
(0.0002753781 -2.4642384e-20 -0.0058375383)
(0.00030144487 -1.9404028e-21 -0.0056215647)
(0.00032060694 8.2739429e-21 -0.00531338)
(0.00032597548 8.7219747e-21 -0.0048962019)
(0.00030642799 -5.0130694e-21 -0.0043472547)
(0.00024667916 -2.2821081e-23 -0.0036259544)
(0.00013640434 -8.8873496e-21 -0.002637783)
(3.5309556e-06 -1.7746847e-21 -0.0011457267)
(2.8258412e-08 5.2776084e-22 -4.2467837e-05)
(-2.8424359e-08 1.6039049e-21 -0.00012870831)
(4.6043319e-08 2.7639047e-21 -0.00022067126)
(7.8602318e-08 3.9751182e-21 -0.00031853485)
(1.2825983e-07 5.2105e-21 -0.00042245737)
(1.9896932e-07 6.5408731e-21 -0.00053257369)
(2.9333863e-07 7.9578504e-21 -0.0006489928)
(4.1393798e-07 9.4845144e-21 -0.0007717954)
(5.6586737e-07 1.1095829e-20 -0.00090103187)
(7.5472594e-07 1.2253893e-20 -0.0010367205)
(9.8669483e-07 1.3463436e-20 -0.0011788463)
(1.2688358e-06 1.5081659e-20 -0.0013273596)
(1.6093306e-06 1.4734066e-20 -0.001482176)
(2.0177971e-06 1.4395374e-20 -0.0016431755)
(2.5050066e-06 1.3792292e-20 -0.0018102026)
(3.0833388e-06 1.3115906e-20 -0.0019830657)
(3.7676051e-06 1.2588825e-20 -0.0021615373)
(4.574702e-06 1.5239798e-20 -0.0023453529)
(5.5233326e-06 1.8209013e-20 -0.0025342106)
(6.6311395e-06 1.6901092e-20 -0.0027277678)
(7.8818567e-06 1.63163e-20 -0.0029256371)
(8.9927782e-06 2.4626223e-20 -0.0031274025)
(1.2075278e-05 3.2940024e-20 -0.0033325652)
(1.3294863e-05 3.9885709e-20 -0.003540574)
(1.5827502e-05 4.6740562e-20 -0.0037508434)
(1.872208e-05 5.3786392e-20 -0.0039626495)
(2.2046061e-05 6.0277669e-20 -0.0041751895)
(2.5875279e-05 6.7453495e-20 -0.0043875354)
(3.0304701e-05 6.0615914e-20 -0.0045986065)
(3.5404482e-05 5.8055801e-20 -0.0048071362)
(4.1254883e-05 5.2329771e-20 -0.0050116325)
(4.7940691e-05 -3.2495072e-21 -0.0052103284)
(5.5545053e-05 -2.8819605e-20 -0.0054011236)
(6.4145973e-05 -5.4216784e-20 -0.0055815143)
(7.3808263e-05 -7.8977047e-20 -0.0057485114)
(8.4576486e-05 -1.0145387e-19 -0.0058985437)
(9.6464905e-05 -1.2607969e-19 -0.0060273457)
(0.00010943726 -7.4317607e-20 -0.0061298258)
(0.00012338693 -3.8975318e-20 -0.0061999146)
(0.00013810403 -9.1805997e-20 -0.006230387)
(0.00015322011 -1.9098712e-19 -0.0062126571)
(0.00016812239 -9.7687523e-20 -0.0061365367)
(0.00018180773 -3.3025805e-20 -0.0059899411)
(0.00019265021 7.4384493e-20 -0.0057585097)
(0.00019805499 3.3412834e-20 -0.0054250041)
(0.0001940006 2.0770382e-20 -0.0049680532)
(0.00017462817 -2.7632645e-20 -0.0043589734)
(0.00013295076 6.861674e-21 -0.0035539412)
(6.6938169e-05 -2.1734986e-20 -0.0024761822)
(-5.830464e-06 -1.6663695e-21 -0.00098361652)
(5.5389304e-09 1.9488419e-21 -4.3085883e-05)
(2.2081881e-08 5.9180619e-21 -0.00013057826)
(5.1071895e-08 1.0141028e-20 -0.00022387354)
(9.8387762e-08 1.4692817e-20 -0.00032315248)
(1.6611657e-07 1.9552278e-20 -0.00042857505)
(2.582511e-07 2.4528414e-20 -0.00054027794)
(3.7939838e-07 2.9415947e-20 -0.00065837178)
(5.3484201e-07 3.4295634e-20 -0.00078293874)
(7.3049045e-07 3.9565096e-20 -0.00091403052)
(9.730799e-07 4.5228055e-20 -0.0010516668)
(1.2701767e-06 5.1246402e-20 -0.0011958339)
(1.6303304e-06 5.7682631e-20 -0.001346484)
(2.0629392e-06 6.4660524e-20 -0.001503535)
(2.5785312e-06 7.2029372e-20 -0.0016668698)
(3.1889133e-06 7.7289353e-20 -0.0018363368)
(3.9070311e-06 8.3222187e-20 -0.00201175)
(4.7469811e-06 8.9838306e-20 -0.002192889)
(5.7239465e-06 9.7540057e-20 -0.002379499)
(6.8545071e-06 1.0605228e-19 -0.0025712897)
(8.1562816e-06 1.0717466e-19 -0.0027679349)
(9.6473252e-06 1.1189683e-19 -0.0029690689)
(1.1345573e-05 1.1415691e-19 -0.0031742817)
(1.3270303e-05 1.1846863e-19 -0.0033830942)
(1.5443209e-05 1.2665913e-19 -0.0035948753)
(1.7893946e-05 1.3894197e-19 -0.0038089949)
(2.0646828e-05 1.5298029e-19 -0.0040247711)
(2.3728321e-05 1.690526e-19 -0.004241388)
(2.7163661e-05 1.8758913e-19 -0.0044578965)
(3.0978003e-05 1.7916167e-19 -0.0046731887)
(3.5194992e-05 1.492203e-19 -0.0048859602)
(3.9834787e-05 1.2735398e-19 -0.0050946672)
(4.4912999e-05 5.9668115e-20 -0.0052974756)
(5.0438667e-05 2.2500205e-20 -0.0054922012)
(5.6412662e-05 -1.5073309e-20 -0.0056762387)
(6.2823145e-05 -4.6267827e-20 -0.0058464791)
(6.9640568e-05 -6.8722796e-20 -0.0059992119)
(7.6812826e-05 -7.5198488e-20 -0.0061300091)
(8.4254684e-05 -1.5493844e-20 -0.0062335899)
(9.1833419e-05 -6.0506664e-20 -0.0063036558)
(9.9346292e-05 -8.8671281e-20 -0.0063326942)
(0.00010648979 -1.620502e-19 -0.0063117372)
(0.00011280058 -9.3102822e-20 -0.0062300598)
(0.00011756265 -1.1168378e-19 -0.0060747959)
(0.00011968521 -2.1172628e-20 -0.0058304463)
(0.00011759203 4.0210359e-20 -0.0054781957)
(0.00010922893 6.0688718e-20 -0.0049947069)
(9.2258463e-05 7.0983181e-20 -0.004349266)
(6.4656827e-05 5.1142169e-20 -0.0034987269)
(2.8139016e-05 3.5776748e-20 -0.0023808517)
(-6.3918213e-06 9.5752065e-21 -0.00090439632)
(4.3257143e-09 3.6014476e-22 -4.3885306e-05)
(1.7594253e-08 1.1011088e-21 -0.00013299812)
(4.0953584e-08 1.8867886e-21 -0.00022801704)
(7.8843146e-08 2.7890747e-21 -0.00032912503)
(1.3301588e-07 3.7813235e-21 -0.00043648388)
(2.0666824e-07 4.828349e-21 -0.0005502311)
(3.0355493e-07 5.7221948e-21 -0.00067047729)
(4.2773826e-07 6.408422e-21 -0.00079730364)
(5.8389128e-07 7.0861496e-21 -0.00093075978)
(7.7740477e-07 8.2526348e-21 -0.0010708621)
(1.0142083e-06 9.4207875e-21 -0.0012175922)
(1.3010124e-06 1.0497637e-20 -0.0013708962)
(1.6452003e-06 1.3604369e-20 -0.0015306839)
(2.054972e-06 1.6660122e-20 -0.0016968286)
(2.5395803e-06 1.867588e-20 -0.0018691668)
(3.1091425e-06 2.0234348e-20 -0.0020474981)
(3.7745648e-06 2.1477945e-20 -0.0022315852)
(4.5477151e-06 1.9902215e-20 -0.0024211529)
(5.4413888e-06 1.880649e-20 -0.0026158875)
(6.4693952e-06 1.8934717e-20 -0.0028154342)
(7.6462305e-06 2.0764687e-20 -0.0030193945)
(8.986234e-06 2.4144135e-20 -0.0032273213)
(1.0504689e-05 2.772756e-20 -0.0034387121)
(1.2217068e-05 3.2781516e-20 -0.0036530003)
(1.4138711e-05 3.8991488e-20 -0.0038695437)
(1.6283587e-05 4.8184468e-20 -0.0040876098)
(1.8663649e-05 6.1678985e-20 -0.0043063567)
(2.1289046e-05 7.9460264e-20 -0.0045248089)
(2.4166993e-05 7.5854246e-20 -0.0047418289)
(2.7300785e-05 4.2953312e-20 -0.0049560809)
(3.0687529e-05 1.7609803e-20 -0.0051659885)
(3.4318137e-05 7.2675087e-21 -0.0053696839)
(3.8175534e-05 -3.5292167e-20 -0.0055649468)
(4.2233814e-05 -6.33593e-20 -0.0057491334)
(4.6457116e-05 -7.5126933e-20 -0.0059190909)
(5.0794479e-05 -7.9341409e-20 -0.0060710575)
(5.5179518e-05 -6.8442696e-20 -0.0062005415)
(5.9525449e-05 -2.8817431e-20 -0.00630218)
(6.3718982e-05 -8.5349858e-20 -0.0063695669)
(6.760773e-05 -3.7725979e-20 -0.0063950429)
(7.0979229e-05 -2.8543931e-22 -0.0063694325)
(7.352525e-05 1.9386981e-20 -0.0062816993)
(7.4770699e-05 -1.6631212e-20 -0.0061185192)
(7.3982421e-05 -2.5608847e-22 -0.0058637853)
(7.013861e-05 8.5422173e-20 -0.0054980583)
(6.2181613e-05 1.0719809e-19 -0.0049977882)
(4.9566018e-05 1.3078994e-19 -0.0043322949)
(3.21604e-05 6.3937042e-20 -0.0034602548)
(1.154594e-05 6.1486236e-20 -0.0023297868)
(-4.6531333e-06 1.4704747e-20 -0.00087092162)
(3.1658268e-09 -1.6843927e-21 -4.452614e-05)
(1.2929426e-08 -5.1042762e-21 -0.00013493644)
(3.0197094e-08 -8.7358682e-21 -0.00023133465)
(5.816129e-08 -1.2614895e-20 -0.00033390539)
(9.8055716e-08 -1.6758256e-20 -0.0004428114)
(1.5226629e-07 -2.0981826e-20 -0.00055819056)
(2.2358638e-07 -2.5271468e-20 -0.00068015311)
(3.1500094e-07 -2.9842194e-20 -0.00080877907)
(4.29792e-07 -3.4774083e-20 -0.00094411596)
(5.7196851e-07 -4.0078615e-20 -0.001086177)
(7.4582392e-07 -4.5805265e-20 -0.0012349397)
(9.5609898e-07 -5.1931221e-20 -0.0013903445)
(1.2082839e-06 -5.8537381e-20 -0.0015522945)
(1.508301e-06 -6.5614614e-20 -0.0017206546)
(1.8626107e-06 -7.3284612e-20 -0.0018952514)
(2.2782303e-06 -8.1688381e-20 -0.0020758729)
(2.76301e-06 -9.0938118e-20 -0.0022622684)
(3.3252215e-06 -1.0115261e-19 -0.0024541474)
(3.9738679e-06 -1.1344678e-19 -0.0026511789)
(4.7183292e-06 -1.1814588e-19 -0.0028529892)
(5.5683248e-06 -1.2365101e-19 -0.0030591584)
(6.534128e-06 -1.1974367e-19 -0.0032692166)
(7.6256349e-06 -1.1764861e-19 -0.0034826369)
(8.8527952e-06 -1.1655286e-19 -0.003698827)
(1.0224667e-05 -1.1645163e-19 -0.0039171177)
(1.1749488e-05 -1.1746532e-19 -0.0041367482)
(1.3433693e-05 -1.1882878e-19 -0.0043568475)
(1.5280319e-05 -1.2210115e-19 -0.004576411)
(1.7290312e-05 -1.2604155e-19 -0.0047942723)
(1.9460966e-05 -1.2875063e-19 -0.0050090685)
(2.1783556e-05 -1.2909758e-19 -0.0052191985)
(2.4245016e-05 -1.2237172e-19 -0.0054227731)
(2.6826252e-05 -1.4368263e-19 -0.0056175544)
(2.9501122e-05 -1.5718787e-19 -0.0058008848)
(3.2237172e-05 -1.6274101e-19 -0.0059696)
(3.4994253e-05 -1.5588635e-19 -0.0061199277)
(3.7726829e-05 -1.4413069e-19 -0.0062473634)
(4.0378806e-05 -1.2235192e-19 -0.0063465256)
(4.2885914e-05 -7.5901599e-20 -0.0064109791)
(4.5170842e-05 -2.6324784e-20 -0.006433016)
(4.7131993e-05 3.2307418e-20 -0.0064033655)
(4.8615898e-05 1.0160347e-19 -0.0063107909)
(4.9347817e-05 1.7563345e-19 -0.0061416222)
(4.8870291e-05 1.8357428e-19 -0.0058792833)
(4.6395408e-05 1.4269332e-19 -0.005504)
(4.0724528e-05 1.0449304e-19 -0.0049930997)
(3.2241968e-05 5.3878574e-20 -0.0043161809)
(2.1284381e-05 2.3447442e-20 -0.003432505)
(5.9299445e-06 4.2362349e-21 -0.0022981818)
(-4.0771038e-06 1.6043441e-21 -0.00085126281)
(2.3064614e-09 -1.5940604e-21 -4.4998399e-05)
(9.3848367e-09 -4.8359206e-21 -0.00013636487)
(2.1851847e-08 -8.2839293e-21 -0.00023377932)
(4.2037008e-08 -1.200746e-20 -0.00033742736)
(7.0798113e-08 -1.6010916e-20 -0.00044747215)
(1.0985501e-07 -2.0060058e-20 -0.00056405157)
(1.6106647e-07 -2.4132765e-20 -0.00068727525)
(2.2652264e-07 -2.8234561e-20 -0.00081722195)
(3.0861894e-07 -3.2634634e-20 -0.0009539372)
(4.0989838e-07 -3.784455e-20 -0.0010974314)
(5.3334148e-07 -4.2788227e-20 -0.0012476784)
(6.8218522e-07 -4.8167432e-20 -0.0014046139)
(8.5986837e-07 -5.3902105e-20 -0.0015681352)
(1.0703773e-06 -5.9807945e-20 -0.0017381005)
(1.3179857e-06 -6.4902635e-20 -0.0019143284)
(1.6073323e-06 -7.313175e-20 -0.0020965976)
(1.9434459e-06 -8.2436501e-20 -0.0022846468)
(2.3315414e-06 -8.8462264e-20 -0.0024781739)
(2.7774657e-06 -9.7703798e-20 -0.0026768345)
(3.2871335e-06 -1.064981e-19 -0.0028802401)
(3.8664478e-06 -1.1866769e-19 -0.0030879551)
(4.5216385e-06 -1.2156892e-19 -0.0032994916)
(5.2588879e-06 -1.2769682e-19 -0.0035143036)
(6.0841397e-06 -1.3719529e-19 -0.0037317781)
(7.0022643e-06 -1.5024153e-19 -0.0039512237)
(8.0177341e-06 -1.6781887e-19 -0.0041718561)
(9.1335731e-06 -1.9161604e-19 -0.0043927803)
(1.0350592e-05 -2.2622579e-19 -0.0046129676)
(1.1667953e-05 -2.226101e-19 -0.0048312285)
(1.3083586e-05 -1.8899701e-19 -0.0050461787)
(1.4591573e-05 -1.6174332e-19 -0.0052561991)
(1.6183737e-05 -1.9993613e-19 -0.0054593866)
(1.7851982e-05 -1.9686211e-19 -0.0056534952)
(1.958584e-05 -2.1403646e-19 -0.0058358635)
(2.1375896e-05 -2.5915512e-19 -0.00600333)
(2.3217743e-05 -2.2075294e-19 -0.0061521298)
(2.5111406e-05 -2.0942498e-19 -0.0062777672)
(2.7056843e-05 -2.0784396e-19 -0.0063748682)
(2.9053735e-05 -1.0092044e-19 -0.0064369949)
(3.1105814e-05 -4.979459e-20 -0.0064564219)
(3.3189014e-05 1.9531189e-20 -0.0064238399)
(3.5274493e-05 1.1052694e-19 -0.0063278242)
(3.7271664e-05 2.7763418e-19 -0.0061543832)
(3.9086697e-05 2.8004225e-19 -0.0058864558)
(4.0309671e-05 1.4183192e-19 -0.0055036424)
(3.606188e-05 7.3461856e-20 -0.004987275)
(3.0171675e-05 2.6440931e-20 -0.0043036918)
(2.4837065e-05 1.1615687e-20 -0.0034163113)
(6.5906887e-06 -2.4365916e-20 -0.0022860657)
(-1.4189578e-05 -3.7764973e-21 -0.00084799875)
(1.4227685e-09 2.1183251e-22 -4.5339836e-05)
(5.8849976e-09 6.3234599e-22 -0.00013739765)
(1.3818985e-08 1.075634e-21 -0.00023554604)
(2.6551166e-08 1.4986505e-21 -0.00033997026)
(4.4707607e-08 1.9545538e-21 -0.00045083285)
(6.9384623e-08 2.4207523e-21 -0.00056827065)
(1.016923e-07 2.8780973e-21 -0.00069239188)
(1.4299122e-07 3.704603e-21 -0.00082327336)
(1.9483392e-07 4.5495135e-21 -0.00096095825)
(2.5884202e-07 4.9723013e-21 -0.001105454)
(3.3696377e-07 5.5948461e-21 -0.001256731)
(4.3114227e-07 5.7356462e-21 -0.0014147211)
(5.4347966e-07 5.974208e-21 -0.001579317)
(6.7657679e-07 8.2721775e-21 -0.0017503717)
(8.3320671e-07 1.2933845e-20 -0.0019276978)
(1.0159654e-06 1.7758262e-20 -0.0021110679)
(1.227695e-06 2.2756778e-20 -0.0023002132)
(1.4712394e-06 2.9842899e-20 -0.0024948235)
(1.7497594e-06 3.7185075e-20 -0.0026945454)
(2.0665476e-06 3.4593906e-20 -0.0028989804)
(2.4248277e-06 2.5398425e-20 -0.0031076816)
(2.8279883e-06 1.4836486e-20 -0.0033201489)
(3.2798845e-06 2.8592764e-21 -0.0035358229)
(3.7847835e-06 -1.0798491e-20 -0.0037540762)
(4.3474581e-06 -2.6044566e-20 -0.0039742022)
(4.9733407e-06 -4.3627589e-20 -0.0041954016)
(5.6686922e-06 -6.4146667e-20 -0.0044167644)
(6.4415307e-06 -8.9551702e-20 -0.0046372487)
(7.299997e-06 -1.197734e-19 -0.0048556542)
(8.25261e-06 -1.2332829e-19 -0.0050705897)
(9.3038047e-06 -1.3206981e-19 -0.005280433)
(1.0455519e-05 -1.503528e-19 -0.0054832836)
(1.171006e-05 -1.2541049e-19 -0.0056769041)
(1.3075306e-05 -1.1577635e-19 -0.0058586405)
(1.4569054e-05 -1.2381883e-19 -0.0060253519)
(1.6227684e-05 -1.5596781e-19 -0.0061733121)
(1.8102001e-05 -2.0132274e-19 -0.0062980613)
(2.0217074e-05 -2.0845267e-19 -0.0063942693)
(2.2588112e-05 -1.3892735e-19 -0.0064555241)
(2.5219335e-05 -1.1367736e-19 -0.0064741308)
(2.7800558e-05 -1.4603634e-20 -0.006441076)
(3.0397816e-05 3.2982676e-20 -0.0063448385)
(3.2997747e-05 2.4415641e-19 -0.0061715842)
(3.6244487e-05 1.9849981e-19 -0.0059045609)
(4.4946247e-05 8.0974971e-20 -0.0055224816)
(3.3988423e-05 3.9644713e-20 -0.0049959665)
(2.4280288e-05 3.9324621e-20 -0.0043011518)
(2.6307507e-05 3.5126504e-20 -0.0034094488)
(4.0325179e-06 2.9216031e-20 -0.0022683848)
(-9.5141193e-05 8.8600622e-21 -0.00082767891)
(4.7170114e-10 2.069613e-21 -4.555778e-05)
(2.0579816e-09 6.2650343e-21 -0.00013805359)
(4.8919029e-09 1.0726572e-20 -0.00023666523)
(9.3689417e-09 1.5479303e-20 -0.00034157857)
(1.5772889e-08 2.0598166e-20 -0.00045295653)
(2.45885e-08 2.5830751e-20 -0.00057093593)
(3.6324191e-08 3.1175839e-20 -0.00069562456)
(5.1541715e-08 3.7167384e-20 -0.00082709841)
(7.0970843e-08 4.3569119e-20 -0.0009653993)
(9.5548281e-08 5.038907e-20 -0.0011105329)
(1.2630609e-07 5.6972335e-20 -0.0012624669)
(1.6432244e-07 6.3968914e-20 -0.00142113)
(2.1113688e-07 7.1461694e-20 -0.001586411)
(2.684404e-07 7.7507383e-20 -0.0017581578)
(3.381667e-07 8.1608729e-20 -0.0019361779)
(4.2243628e-07 9.1544997e-20 -0.0021202372)
(5.2340858e-07 1.0271925e-19 -0.0023100605)
(6.4371072e-07 1.1064676e-19 -0.002505331)
(7.8621362e-07 1.2108055e-19 -0.002705689)
(9.5427789e-07 1.2376811e-19 -0.0029107308)
(1.1505912e-06 1.1890599e-19 -0.0031200057)
(1.3778678e-06 1.0415054e-19 -0.003333012)
(1.6394214e-06 9.1239095e-20 -0.0035491905)
(1.9375999e-06 7.9629961e-20 -0.0037679158)
(2.2736875e-06 6.9071518e-20 -0.0039884853)
(2.6489318e-06 7.3740854e-20 -0.0042101042)
(3.0656219e-06 8.0833567e-20 -0.004431868)
(3.5252946e-06 6.4839767e-20 -0.0046527394)
(4.0312489e-06 5.3946217e-21 -0.0048715147)
(4.5904872e-06 -2.4100474e-20 -0.0050868002)
(5.215314e-06 -5.7244124e-20 -0.0052969197)
(5.9298016e-06 -3.9229336e-20 -0.0054999738)
(6.7485363e-06 -2.4831441e-20 -0.0056937637)
(7.7579993e-06 -8.1412924e-21 -0.0058756194)
(8.9713796e-06 1.9878878e-20 -0.0060425168)
(1.0347144e-05 -4.8552338e-20 -0.0061908548)
(1.1872758e-05 -1.0517834e-19 -0.0063161926)
(1.330737e-05 -3.1301365e-20 -0.0064131893)
(1.4509626e-05 -2.185205e-20 -0.0064753193)
(1.6462457e-05 -3.1060681e-20 -0.0064944576)
(1.5875575e-05 5.8851135e-20 -0.0064609521)
(1.4292586e-05 2.6625658e-20 -0.0063634587)
(1.092296e-05 2.2960731e-20 -0.0061884767)
(4.7246961e-06 2.4133965e-20 -0.0059192456)
(-1.0588567e-06 1.581604e-20 -0.0055315327)
(-7.6599693e-06 1.4985758e-20 -0.0049968656)
(-1.6314048e-05 3.3730286e-20 -0.0042914519)
(-1.4931207e-05 3.707175e-20 -0.0033783023)
(-4.272708e-06 5.6507814e-20 -0.0022351931)
(-4.664875e-05 1.5360392e-20 -0.00083191209)
(-2.5242335e-08 4.6974927e-22 -4.5633441e-05)
(4.8983396e-08 1.4273549e-21 -0.00013828118)
(-6.3729672e-09 2.4539115e-21 -0.00023705371)
(-1.173598e-09 3.563276e-21 -0.00034213906)
(2.9344482e-09 4.7001182e-21 -0.00045370183)
(5.2529595e-09 5.915856e-21 -0.00057188078)
(7.1730403e-09 7.1987936e-21 -0.0006967855)
(1.0514722e-08 8.5469138e-21 -0.00082849369)
(1.5112987e-08 9.9705496e-21 -0.00096704875)
(2.1126819e-08 1.150017e-20 -0.0011124577)
(2.8981106e-08 1.3169832e-20 -0.0012646896)
(3.9272097e-08 1.4760865e-20 -0.0014236741)
(5.2803801e-08 1.6563587e-20 -0.0015893005)
(7.0579045e-08 1.8427254e-20 -0.0017614172)
(9.3899811e-08 2.0444559e-20 -0.0019398311)
(1.2428845e-07 2.2459869e-20 -0.0021243073)
(1.6386262e-07 2.3830367e-20 -0.0023145685)
(2.1486944e-07 2.7228251e-20 -0.0025102946)
(2.7997916e-07 3.0412089e-20 -0.002711121)
(3.6236595e-07 3.4706349e-20 -0.0029166375)
(4.6494645e-07 3.5178797e-20 -0.0031263847)
(5.8983798e-07 3.6648624e-20 -0.003339851)
(7.385706e-07 3.8425638e-20 -0.0035564666)
(9.1064118e-07 3.9965391e-20 -0.0037755963)
(1.1024108e-06 4.0622882e-20 -0.0039965306)
(1.3089611e-06 3.9901435e-20 -0.0042184715)
(1.5252615e-06 3.7868648e-20 -0.0044405195)
(1.747538e-06 3.4676886e-20 -0.0046616485)
(1.9662808e-06 2.9439062e-20 -0.0048806801)
(2.2052487e-06 2.0556443e-20 -0.0050962382)
(2.2925864e-06 8.6997993e-21 -0.0053067425)
(2.5625663e-06 -5.8505083e-21 -0.005510292)
(2.4514445e-06 -2.278767e-20 -0.0057046193)
(2.415899e-06 -4.1575025e-20 -0.0058871436)
(2.5618797e-06 -6.2050009e-20 -0.0060546552)
(2.2177796e-06 -8.2690839e-20 -0.0062033194)
(1.8748304e-06 -1.2067922e-19 -0.0063286302)
(8.0183808e-07 -1.1606312e-19 -0.0064250262)
(-3.9295019e-07 -1.0706462e-19 -0.0064857979)
(-2.0530145e-06 -8.7409327e-20 -0.0065024721)
(-5.216326e-06 -6.9844694e-20 -0.0064647803)
(-9.837836e-06 -4.279355e-20 -0.0063613071)
(-1.6045694e-05 -2.3517901e-20 -0.006178654)
(-2.0273866e-05 1.8496097e-21 -0.0058990045)
(-3.4819241e-05 3.7064926e-21 -0.0055028483)
(-3.9068734e-05 3.83603e-21 -0.004969396)
(-2.5652925e-05 6.4314574e-21 -0.0042719544)
(-5.0816461e-05 7.9082609e-21 -0.0033777655)
(-4.5899009e-05 9.6812914e-21 -0.0022561855)
(4.1466467e-05 4.1486775e-21 -0.00085035626)
(-7.0643686e-08 -5.9814938e-23 -4.5641714e-05)
(-1.0573137e-08 -1.795968e-22 -0.00013831383)
(-2.4763624e-09 -3.0727398e-22 -0.00023711692)
(-1.6664236e-09 -4.3578309e-22 -0.00034223806)
(-2.4018617e-09 -6.5330173e-22 -0.00045384229)
(-3.7721265e-09 -8.7766678e-22 -0.00057206861)
(-5.6063281e-09 -1.1195265e-21 -0.00069702722)
(-8.0582669e-09 -1.6531324e-21 -0.00082879683)
(-1.128108e-08 -2.2083108e-21 -0.00096742235)
(-1.5521734e-08 -3.2732023e-21 -0.0011129129)
(-2.105979e-08 -4.9717307e-21 -0.0012652401)
(-2.8210146e-08 -6.8993348e-21 -0.001424337)
(-3.7468195e-08 -9.0505618e-21 -0.0015900973)
(-4.929558e-08 -7.2196467e-21 -0.0017623738)
(-6.441937e-08 -2.9541153e-21 -0.0019409787)
(-8.3809289e-08 -8.0189728e-22 -0.0021256818)
(-1.0844473e-07 1.7039471e-21 -0.0023162096)
(-1.3953504e-07 -9.2995818e-22 -0.0025122435)
(-1.7812972e-07 8.8744818e-23 -0.0027134169)
(-2.2497551e-07 -8.5938781e-23 -0.0029193122)
(-2.801981e-07 1.9423234e-20 -0.0031294559)
(-3.435096e-07 3.8207079e-20 -0.0033433142)
(-4.1483602e-07 5.6976585e-20 -0.0035602881)
(-4.8945023e-07 7.6216125e-20 -0.003779706)
(-5.4635553e-07 9.6459382e-20 -0.0040008084)
(-6.0335855e-07 9.3197205e-20 -0.0042227141)
(-6.4176897e-07 6.5940791e-20 -0.0044446289)
(-6.7216624e-07 6.5507476e-20 -0.004665604)
(-6.8655642e-07 9.2867319e-20 -0.0048844102)
(-6.8391183e-07 6.8477898e-20 -0.0050996618)
(-6.6310176e-07 4.3778081e-20 -0.0053097874)
(-6.5787558e-07 1.7997015e-20 -0.0055129462)
(-7.8330654e-07 -1.079695e-20 -0.0057068558)
(-1.1140795e-06 -4.6675841e-20 -0.0058887944)
(-1.7355426e-06 -9.8980504e-20 -0.0060554519)
(-2.7708423e-06 -8.5305239e-20 -0.0062026965)
(-4.337816e-06 -9.0909194e-20 -0.006325697)
(-6.5615451e-06 -1.9645845e-19 -0.0064188)
(-8.4101715e-06 -1.6204963e-19 -0.0064752535)
(-1.2231465e-05 -9.5691504e-20 -0.0064870497)
(-1.6295473e-05 -1.1655796e-19 -0.0064446948)
(-2.0227353e-05 -3.80959e-20 -0.0063369765)
(-2.0831434e-05 4.3183384e-20 -0.0061506992)
(-2.7614158e-05 6.0786791e-21 -0.0058698052)
(-2.6636179e-05 -7.8875809e-22 -0.0054804839)
(-2.0347184e-05 -1.4144488e-21 -0.0049588404)
(-1.3666088e-05 -7.6567669e-22 -0.0042738148)
(-1.0397714e-05 2.4267105e-22 -0.0034027034)
(1.0637307e-06 1.1348981e-21 -0.0022904467)
(5.8821141e-05 4.0412363e-22 -0.00084152046)
(7.0747263e-08 3.170973e-22 -4.5622951e-05)
(9.9742323e-09 9.4232482e-22 -0.00013826112)
(1.0735391e-09 1.6035008e-21 -0.00023703166)
(-1.5325773e-09 2.2963849e-21 -0.00034212)
(-3.835301e-09 3.0174383e-21 -0.00045368932)
(-6.8587486e-09 3.7646504e-21 -0.00057187703)
(-1.0976655e-08 4.5340165e-21 -0.00069679178)
(-1.6618937e-08 5.3112383e-21 -0.00082851072)
(-2.4146845e-08 6.0618324e-21 -0.00096707716)
(-3.3957247e-08 6.7133962e-21 -0.0011124985)
(-4.6710232e-08 7.152013e-21 -0.0012647448)
(-6.3199622e-08 8.3588072e-21 -0.0014237474)
(-8.4261421e-08 9.547195e-21 -0.0015893982)
(-1.108332e-07 1.0180251e-20 -0.001761549)
(-1.4431399e-07 1.0911556e-20 -0.0019400112)
(-1.86889e-07 1.1636982e-20 -0.0021245551)
(-2.4220737e-07 1.2486582e-20 -0.0023149096)
(-3.1564808e-07 1.3643525e-20 -0.002510761)
(-4.1073232e-07 1.4580904e-20 -0.0027117517)
(-5.2328889e-07 1.4373538e-20 -0.0029174772)
(-6.5368645e-07 1.7608455e-20 -0.0031274827)
(-8.4094578e-07 1.9769761e-20 -0.0033412588)
(-1.1116467e-06 2.1537007e-20 -0.0035582345)
(-1.2405266e-06 2.3410133e-20 -0.0037777613)
(-4.4990345e-07 2.5481183e-20 -0.0039990889)
(-2.5749523e-06 2.7722196e-20 -0.0042214365)
(-2.2692213e-06 3.0337638e-20 -0.0044438587)
(-2.5515364e-06 3.2935571e-20 -0.0046651897)
(-2.7529966e-06 3.5314765e-20 -0.0048841869)
(-3.1414377e-06 3.8052127e-20 -0.0050994204)
(-3.4078646e-06 4.1379276e-20 -0.0053091929)
(-3.7344127e-06 4.5255622e-20 -0.0055114899)
(-4.394691e-06 5.0241258e-20 -0.0057040335)
(-5.0080818e-06 5.6043468e-20 -0.0058840489)
(-5.8646945e-06 6.2104552e-20 -0.0060482366)
(-6.8623284e-06 6.6848725e-20 -0.0061927602)
(-8.0189417e-06 7.5143416e-20 -0.0063130005)
(-9.2682794e-06 6.766096e-20 -0.0064034756)
(-1.0212346e-05 5.997884e-20 -0.0064577399)
(-1.0973091e-05 4.5300171e-20 -0.0064684274)
(-1.1713359e-05 2.9003005e-20 -0.0064260411)
(-1.075118e-05 -2.312097e-20 -0.0063200765)
(-8.8103174e-06 -3.1158129e-20 -0.0061370634)
(-1.6272963e-06 -1.7157548e-20 -0.0058641987)
(7.5680618e-06 -8.5889651e-21 -0.0054837146)
(1.4788857e-05 -5.1200192e-21 -0.004968436)
(2.6004496e-05 -3.7928095e-21 -0.0042860804)
(3.7999679e-05 -2.5033145e-21 -0.0034124751)
(-9.9043631e-07 -8.1073852e-22 -0.0022934188)
(1.3572544e-05 3.2521288e-22 -0.0008529664)
(2.5506019e-08 1.6621032e-22 -4.5594023e-05)
(-4.7740722e-08 5.039966e-22 -0.00013816604)
(9.2327895e-09 8.6514059e-22 -0.00023686082)
(6.6845229e-09 1.248987e-21 -0.00034186363)
(6.4411904e-09 1.7255456e-21 -0.00045333761)
(9.4162133e-09 2.2207052e-21 -0.00057141946)
(1.4512042e-08 2.7160712e-21 -0.00069621672)
(2.0276846e-08 3.5889587e-21 -0.00082780498)
(2.7414856e-08 4.4390435e-21 -0.00096622544)
(3.6376896e-08 5.2717042e-21 -0.0011114828)
(4.7385665e-08 6.7242752e-21 -0.0012635436)
(6.0676444e-08 8.4375033e-21 -0.001422335)
(7.6682823e-08 1.0298063e-20 -0.001587744)
(9.5927844e-08 9.8850567e-21 -0.0017596167)
(1.1863479e-07 6.8419334e-21 -0.0019377589)
(1.4519973e-07 6.0298814e-21 -0.0021219355)
(1.7595412e-07 4.7829412e-21 -0.0023118716)
(2.1041576e-07 8.8599923e-21 -0.0025072525)
(2.4756487e-07 8.9403669e-21 -0.0027077244)
(2.8496394e-07 9.9845621e-21 -0.0029128941)
(3.1808748e-07 4.4554895e-22 -0.0031223288)
(3.3915027e-07 -2.0682068e-21 -0.0033355517)
(3.3649629e-07 -4.2754378e-21 -0.0035520359)
(2.9328795e-07 -6.7073531e-21 -0.0037712033)
(1.9331505e-07 -9.6251581e-21 -0.0039924348)
(1.2517877e-07 9.6287782e-22 -0.0042150156)
(-3.5159256e-08 3.9662841e-20 -0.0044377544)
(-3.4603202e-07 4.1269246e-20 -0.004659141)
(-7.8691732e-07 2.0256085e-20 -0.0048780785)
(-1.3454715e-06 2.6664537e-20 -0.0050931037)
(-2.0000974e-06 3.4603614e-20 -0.0053025219)
(-2.7168198e-06 4.5079186e-20 -0.0055043406)
(-3.4555461e-06 5.8949569e-20 -0.0056962191)
(-4.1397357e-06 7.8781281e-20 -0.005875456)
(-4.6663063e-06 1.1265651e-19 -0.0060389066)
(-4.9268447e-06 7.6865492e-20 -0.0061828946)
(-4.7834432e-06 5.3459637e-20 -0.0063030252)
(-4.0942387e-06 1.1613136e-19 -0.0063941174)
(-3.0189936e-06 1.1724383e-19 -0.0064500154)
(1.0027364e-06 6.9492244e-20 -0.0064635841)
(7.5973301e-06 1.181334e-19 -0.0064261493)
(1.3633198e-05 2.3992713e-20 -0.0063264347)
(2.1233428e-05 -5.1727682e-20 -0.0061511697)
(3.2911816e-05 -1.2740913e-20 -0.0058859168)
(3.3800746e-05 -5.5708682e-21 -0.0055082555)
(3.8719424e-05 -5.0136842e-21 -0.0049946445)
(5.8417754e-05 -5.0004126e-21 -0.004316421)
(3.1966792e-05 -4.2044771e-21 -0.0034245694)
(1.4167352e-07 -1.8327156e-21 -0.0022703574)
(-9.1497075e-05 2.3063643e-22 -0.00082744341)
(-2.501727e-08 3.3554084e-22 -4.563008e-05)
(4.9814804e-08 1.0180292e-21 -0.00013826917)
(-4.5786487e-09 1.747515e-21 -0.00023703077)
(2.2975305e-09 2.5155503e-21 -0.00034210201)