/*--------------------------------*- C++ -*----------------------------------*\
| =========                 |                                                 |
| \\      /  F ield         | OpenFOAM: The Open Source CFD Toolbox           |
|  \\    /   O peration     | Version:  4.0                                   |
|   \\  /    A nd           | Web:      www.OpenFOAM.org                      |
|    \\/     M anipulation  |                                                 |
\*---------------------------------------------------------------------------*/
FoamFile
{
    version     2.0;
    format      ascii;
    class       surfaceScalarField;
    location    "669";
    object      phi;
}
// * * * * * * * * * * * * * * * * * * * * * * * * * * * * * * * * * * * * * //

dimensions      [1 0 -1 0 0 0 0];

internalField   nonuniform List<scalar> 
9850
(
5.0364245e-12
9.9854686e-11
2.043603e-11
3.3306783e-10
4.7591536e-11
6.3126333e-10
8.800649e-11
1.0069559e-09
1.4295625e-10
1.4743458e-09
2.1332538e-10
2.0491763e-09
2.9942085e-10
2.7486296e-09
4.0075962e-10
3.591156e-09
5.1585517e-10
4.5962515e-09
6.420119e-10
5.7842237e-09
7.7515311e-10
7.1760101e-09
9.0972401e-10
8.7931466e-09
1.0386663e-09
1.0658012e-08
1.1535153e-09
1.2794502e-08
1.2446123e-09
1.5229303e-08
1.3014426e-09
1.7993927e-08
1.3130814e-09
2.112766e-08
1.268709e-09
2.4681515e-08
1.1581694e-09
2.8723239e-08
9.7246256e-10
3.3343302e-08
7.041127e-10
3.8661725e-08
3.4731874e-10
4.4835391e-08
-1.0236737e-10
5.2065611e-08
-6.468372e-10
6.0606703e-08
-1.2886266e-09
7.0774919e-08
-2.0319886e-09
8.2952223e-08
-2.8844683e-09
9.7595103e-08
-3.858629e-09
1.1524384e-07
-4.9731577e-09
1.3653463e-07
-6.2527012e-09
1.6221643e-07
-7.7262522e-09
1.931744e-07
-9.4243928e-09
2.3046102e-07
-1.1375666e-08
2.7533588e-07
-1.3603904e-08
3.2931435e-07
-1.6127298e-08
3.9422539e-07
-1.8961001e-08
4.7227919e-07
-2.2123119e-08
5.6614579e-07
-2.5644865e-08
6.7904686e-07
-2.9585001e-08
8.1486296e-07
-3.4047275e-08
9.7825923e-07
-3.9203883e-08
1.1748321e-06
-4.5325573e-08
1.4112785e-06
-5.28273e-08
1.6955935e-06
-6.2326118e-08
2.0372655e-06
-7.4825378e-08
2.4476294e-06
-9.1662576e-08
2.9395389e-06
-1.1606565e-07
3.5299832e-06
-1.486874e-07
4.2279533e-06
-1.9022264e-07
5.047036e-06
5.4167018e-06
-6.9578545e-12
1.0681103e-10
-3.1817843e-11
3.5792644e-10
-8.2202925e-11
6.8164628e-10
-1.6858736e-10
1.0933396e-09
-3.0492878e-10
1.6106868e-09
-5.095045e-10
2.2537524e-09
-8.0578342e-10
3.0449088e-09
-1.2232081e-09
4.0085823e-09
-1.7977336e-09
5.1707786e-09
-2.5718711e-09
6.5583613e-09
-3.593953e-09
8.1980917e-09
-4.9163167e-09
1.0115509e-08
-6.5921261e-09
1.233382e-08
-8.6707184e-09
1.4873094e-08
-1.1191612e-08
1.7750196e-08
-1.4177655e-08
2.0979968e-08
-1.7628216e-08
2.4578219e-08
-2.1513635e-08
2.8566931e-08
-2.5772207e-08
3.2981811e-08
-3.0310808e-08
3.7881905e-08
-3.500963e-08
4.3360549e-08
-3.9730943e-08
4.9556706e-08
-4.4331055e-08
5.6665733e-08
-4.8671545e-08
6.4947177e-08
-5.2629563e-08
7.473291e-08
-5.6109456e-08
8.6432105e-08
-5.9050295e-08
1.0053593e-07
-6.1429569e-08
1.176231e-07
-6.3263323e-08
1.3836837e-07
-6.4603158e-08
1.6355627e-07
-6.5530859e-08
1.9410209e-07
-6.6152051e-08
2.3108221e-07
-6.6590742e-08
2.7577456e-07
-6.6986021e-08
3.2970963e-07
-6.7491996e-08
3.9473136e-07
-6.8280713e-08
4.7306788e-07
-6.9547304e-08
5.6741236e-07
-7.1516816e-08
6.8101635e-07
-7.4452694e-08
8.177988e-07
-7.8668751e-08
9.824752e-07
-8.4547954e-08
1.1807113e-06
-9.2572812e-08
1.4193033e-06
-1.033773e-07
1.7063978e-06
-1.1779395e-07
2.0516818e-06
-1.3707017e-07
2.4669054e-06
-1.6243852e-07
2.9649065e-06
-1.9654915e-07
3.5640944e-06
-2.3505777e-07
4.2664591e-06
-2.3734259e-07
5.0493248e-06
5.1793559e-06
-1.3494048e-11
1.2030508e-10
-5.9264808e-11
4.036971e-10
-1.4735652e-10
7.6973786e-10
-2.9020216e-10
1.2361858e-09
-5.0306255e-10
1.8235479e-09
-8.045052e-10
2.5551959e-09
-1.2168984e-09
3.4573026e-09
-1.7668743e-09
4.5585595e-09
-2.4856984e-09
5.8896042e-09
-3.4094339e-09
7.4820964e-09
-4.5787472e-09
9.3674067e-09
-6.0381849e-09
1.1574949e-08
-7.834645e-09
1.4130281e-08
-1.0014822e-08
1.7053273e-08
-1.2621414e-08
2.0356791e-08
-1.568803e-08
2.4046585e-08
-1.9232979e-08
2.8123167e-08
-2.3252526e-08
3.2586476e-08
-2.7714594e-08
3.7443878e-08
-3.2554258e-08
4.2721575e-08
-3.7672516e-08
4.8478823e-08
-4.2939439e-08
5.4823647e-08
-4.8201906e-08
6.1928213e-08
-5.3296984e-08
7.0042271e-08
-5.8067173e-08
7.9503103e-08
-6.2377899e-08
9.0742827e-08
-6.6133609e-08
1.0429163e-07
-6.929046e-08
1.2077996e-07
-7.1863604e-08
1.4094152e-07
-7.3927491e-08
1.6562019e-07
-7.5609224e-08
1.9578384e-07
-7.7075506e-08
2.325485e-07
-7.8516203e-08
2.7721526e-07
-8.0128085e-08
3.3132158e-07
-8.2103421e-08
3.9670677e-07
-8.4626359e-08
4.7559088e-07
-8.7879347e-08
5.7066546e-07
-9.2059427e-08
6.8519652e-07
-9.7402032e-08
8.2314155e-07
-1.0421152e-07
9.8928485e-07
-1.1289698e-07
1.1893969e-06
-1.240148e-07
1.4304213e-06
-1.3833367e-07
1.7207168e-06
-1.5686801e-07
2.0702162e-06
-1.8119198e-07
2.49123e-06
-2.1279853e-07
2.9965124e-06
-2.5389523e-07
3.6051931e-06
-2.9837552e-07
4.310937e-06
-2.8889203e-07
5.0398459e-06
4.8904589e-06
-1.2380452e-11
1.32687e-10
-5.4545982e-11
4.4586354e-10
-1.359455e-10
8.5113756e-10
-2.6832581e-10
1.3685663e-09
-4.6622065e-10
2.0214427e-09
-7.4747669e-10
2.8364508e-09
-1.1338193e-09
3.8436448e-09
-1.6514397e-09
5.0761785e-09
-2.3315284e-09
6.5696936e-09
-3.2107039e-09
8.3612725e-09
-4.3311767e-09
1.0487879e-08
-5.7404986e-09
1.298427e-08
-7.4906725e-09
1.5880455e-08
-9.6363565e-09
1.9198957e-08
-1.2231908e-08
2.2952337e-08
-1.5327054e-08
2.7141725e-08
-1.8961204e-08
3.1757311e-08
-2.3156622e-08
3.678189e-08
-2.7911156e-08
4.2198405e-08
-3.3191549e-08
4.8001968e-08
-3.8928804e-08
5.4216077e-08
-4.5016912e-08
6.0911762e-08
-5.1316288e-08
6.8227595e-08
-5.7662108e-08
7.6388111e-08
-6.3877565e-08
8.5718574e-08
-6.9789617e-08
9.6654867e-08
-7.5246396e-08
1.0974841e-07
-8.013389e-08
1.2566745e-07
-8.4389522e-08
1.4519713e-07
-8.8010931e-08
1.6924156e-07
-9.1058826e-08
1.9883171e-07
-9.3653562e-08
2.3514321e-07
-9.5966303e-08
2.7952797e-07
-9.8207112e-08
3.335624e-07
-1.0061356e-07
3.9911319e-07
-1.0344265e-07
4.7841993e-07
-1.0696947e-07
5.7419227e-07
-1.114933e-07
6.8972033e-07
-1.1735085e-07
8.2899912e-07
-1.2493713e-07
9.9687108e-07
-1.3473409e-07
1.1991939e-06
-1.4734907e-07
1.4430362e-06
-1.6358374e-07
1.7369517e-06
-1.8443818e-07
2.0910704e-06
-2.1139251e-07
2.5181851e-06
-2.4571854e-07
3.0308373e-06
-2.8713044e-07
3.6466071e-06
-3.2509439e-07
4.3488981e-06
-2.9054357e-07
5.0052985e-06
4.5999129e-06
-9.948455e-12
1.4263612e-10
-4.3926118e-11
4.7984139e-10
-1.0973449e-10
9.1694575e-10
-2.1718867e-10
1.4760197e-09
-3.7856696e-10
2.1828209e-09
-6.0914221e-10
3.0670259e-09
-9.2777875e-10
4.1622817e-09
-1.3575947e-09
5.5059958e-09
-1.9266518e-09
7.1387515e-09
-2.6686062e-09
9.1032292e-09
-3.623243e-09
1.1442517e-08
-4.8367118e-09
1.4197741e-08
-6.3612872e-09
1.7405034e-08
-8.2543566e-09
2.1092028e-08
-1.0576331e-08
2.5274308e-08
-1.3387169e-08
2.9952557e-08
-1.6741334e-08
3.5111466e-08
-2.0681184e-08
4.0721729e-08
-2.5229222e-08
4.6746437e-08
-3.0380093e-08
5.3152833e-08
-3.6093598e-08
5.9929586e-08
-4.2290461e-08
6.7108618e-08
-4.8852189e-08
7.478932e-08
-5.5626318e-08
8.316225e-08
-6.2437073e-08
9.2529345e-08
-6.9100663e-08
1.0331846e-07
-7.544365e-08
1.160914e-07
-8.1322381e-08
1.3154618e-07
-8.6640784e-08
1.5051553e-07
-9.136426e-08
1.7396504e-07
-9.5527402e-08
2.0299485e-07
-9.923402e-08
2.388498e-07
-1.0264931e-07
2.8294328e-07
-1.0598625e-07
3.3689937e-07
-1.0948955e-07
4.0261649e-07
-1.1342249e-07
4.823529e-07
-1.1806187e-07
5.7883168e-07
-1.2370328e-07
6.9536173e-07
-1.3067695e-07
8.3597282e-07
-1.3937238e-07
1.0055666e-06
-1.5026902e-07
1.2100907e-06
-1.6396757e-07
1.4567347e-06
-1.8124795e-07
1.7542322e-06
-2.0303507e-07
2.1128569e-06
-2.3049227e-07
2.5456432e-06
-2.6446549e-07
3.064809e-06
-3.0205284e-07
3.6841964e-06
-3.2944717e-07
4.3762899e-06
-2.77786e-07
4.9536396e-06
4.3221254e-06
-8.8484595e-12
1.5148473e-10
-3.9094584e-11
5.1008774e-10
-9.7713831e-11
9.755648e-10
-1.9348887e-10
1.571795e-09
-3.3743206e-10
2.3267643e-09
-5.4327617e-10
3.2728699e-09
-8.2804572e-10
4.4470508e-09
-1.2127038e-09
5.890652e-09
-1.7228508e-09
7.6488974e-09
-2.3894526e-09
9.7698278e-09
-3.2494959e-09
1.2302559e-08
-4.3464946e-09
1.5294741e-08
-5.730643e-09
1.8789185e-08
-7.4583843e-09
2.2819768e-08
-9.5910743e-09
2.7406996e-08
-1.219244e-08
3.2553921e-08
-1.5324504e-08
3.8243525e-08
-1.9041809e-08
4.4439027e-08
-2.3384121e-08
5.108874e-08
-2.8368188e-08
5.8136886e-08
-3.3979625e-08
6.5541015e-08
-4.0166526e-08
7.3295509e-08
-4.6836368e-08
8.145915e-08
-5.3857697e-08
9.0183577e-08
-6.1067341e-08
9.9738991e-08
-6.8282896e-08
1.1053401e-07
-7.531944e-08
1.2312794e-07
-8.2008771e-08
1.3823549e-07
-8.8218941e-08
1.567257e-07
-9.3871965e-08
1.7961806e-07
-9.8957097e-08
2.0807994e-07
-1.035378e-07
2.4343048e-07
-1.0775108e-07
2.8715653e-07
-1.1179878e-07
3.4094706e-07
-1.1593326e-07
4.0675094e-07
-1.2044118e-07
4.8686083e-07
-1.256313e-07
5.8402184e-07
-1.3183065e-07
7.0156112e-07
-1.3939186e-07
8.4353403e-07
-1.4871122e-07
1.014886e-06
-1.6025658e-07
1.2216362e-06
-1.7459476e-07
1.4710728e-06
-1.9244157e-07
1.7720792e-06
-2.1463405e-07
2.1350488e-06
-2.4198975e-07
2.5729999e-06
-2.7493637e-07
3.0977542e-06
-3.0866528e-07
3.717927e-06
-3.2657213e-07
4.3941947e-06
-2.6341199e-07
4.890481e-06
4.0587119e-06
-7.7972908e-12
1.5928253e-10
-3.4479025e-11
5.3676964e-10
-8.6247021e-11
1.0273329e-09
-1.7093943e-10
1.6564871e-09
-2.9841658e-10
2.4542415e-09
-4.8102537e-10
3.455479e-09
-7.3414413e-10
4.7001698e-09
-1.0768103e-09
6.2333181e-09
-1.5324226e-09
8.104509e-09
-2.1294909e-09
1.0366895e-08
-2.9023791e-09
1.3075446e-08
-3.8919532e-09
1.6284316e-08
-5.14599e-09
2.0043221e-08
-6.7191222e-09
2.4392898e-08
-8.6720503e-09
2.9359921e-08
-1.1069692e-08
3.4951557e-08
-1.3977892e-08
4.1151723e-08
-1.7458494e-08
4.7919624e-08
-2.1562672e-08
5.5192906e-08
-2.6322908e-08
6.289711e-08
-3.1744508e-08
7.0962605e-08
-3.7797961e-08
7.9348954e-08
-4.4413844e-08
8.8075021e-08
-5.1481856e-08
9.7251593e-08
-5.8855243e-08
1.0711236e-07
-6.6360597e-08
1.1803935e-07
-7.3812769e-08
1.3058011e-07
-8.1033191e-08
1.4545592e-07
-8.7869837e-08
1.6356233e-07
-9.4216456e-08
1.8596466e-07
-1.0002905e-07
2.1389254e-07
-1.053371e-07
2.4873852e-07
-1.1024744e-07
2.9206685e-07
-1.1493996e-07
3.4563957e-07
-1.1965582e-07
4.1146681e-07
-1.246814e-07
4.9188638e-07
-1.3033301e-07
5.8967348e-07
-1.3694902e-07
7.0817714e-07
-1.44892e-07
8.5147697e-07
-1.5456242e-07
1.0245564e-06
-1.664228e-07
1.2334967e-06
-1.8102004e-07
1.48567e-06
-1.9901429e-07
1.7900738e-06
-2.2116699e-07
2.157201e-06
-2.4796528e-07
2.5997992e-06
-2.7928568e-07
3.1290734e-06
-3.0898365e-07
3.7476264e-06
-3.1818367e-07
4.4033931e-06
-2.4695653e-07
4.8192554e-06
3.8117539e-06
-7.0941699e-12
1.6637706e-10
-3.1381031e-11
5.6105642e-10
-7.8521568e-11
1.0744735e-09
-1.5567712e-10
1.7336433e-09
-2.7187048e-10
2.5704359e-09
-4.3841826e-10
3.6220278e-09
-6.6944361e-10
4.9311965e-09
-9.8247759e-10
6.5463532e-09
-1.3991382e-09
8.5211708e-09
-1.9458788e-09
1.0913636e-08
-2.6547554e-09
1.3784324e-08
-3.5641584e-09
1.7193721e-08
-4.7193665e-09
2.1198429e-08
-6.1727506e-09
2.5846281e-08
-7.9833844e-09
3.1170554e-08
-1.0215726e-08
3.7183897e-08
-1.2937026e-08
4.3873017e-08
-1.6213122e-08
5.1195719e-08
-2.0102532e-08
5.908231e-08
-2.4648894e-08
6.7443468e-08
-2.9872529e-08
7.6186229e-08
-3.5762142e-08
8.5238557e-08
-4.2268382e-08
9.4581252e-08
-4.9300829e-08
1.0428404e-07
-5.6729919e-08
1.1454145e-07
-6.4394275e-08
1.2570371e-07
-7.2113405e-08
1.3829922e-07
-7.9704489e-08
1.5304699e-07
-8.7001804e-08
1.7085964e-07
-9.3876644e-08
1.9283948e-07
-1.002557e-07
2.2027156e-07
-1.0613568e-07
2.5461845e-07
-1.115918e-07
2.9752296e-07
-1.1677842e-07
3.5082619e-07
-1.21921e-07
4.1660939e-07
-1.2730134e-07
4.972667e-07
-1.3324037e-07
5.9561256e-07
-1.4008517e-07
7.1502191e-07
-1.4820466e-07
8.5959647e-07
-1.5799792e-07
1.0343496e-06
-1.6991344e-07
1.2454123e-06
-1.8446898e-07
1.5002253e-06
-2.0225469e-07
1.8078599e-06
-2.2393265e-07
2.1788784e-06
-2.4969113e-07
2.6255587e-06
-2.7876342e-07
3.1581446e-06
-3.0415577e-07
3.7730201e-06
-3.0563911e-07
4.4048749e-06
-2.2914528e-07
4.742763e-06
3.5826073e-06
-6.500244e-12
1.7287744e-10
-2.8763156e-11
5.8331967e-10
-7.1995813e-11
1.1177065e-09
-1.4279441e-10
1.8044418e-09
-2.4948048e-10
2.6771214e-09
-4.0250772e-10
3.7750551e-09
-6.1495194e-10
5.1436403e-09
-9.0308022e-10
6.834481e-09
-1.2870146e-09
8.905102e-09
-1.7914574e-09
1.1418075e-08
-2.4464783e-09
1.4439344e-08
-3.2882847e-09
1.8035524e-08
-4.3598644e-09
2.2270008e-08
-5.7113807e-09
2.7197796e-08
-7.4000552e-09
3.2859223e-08
-9.4892439e-09
3.9273082e-08
-1.20464e-08
4.6430171e-08
-1.5139515e-08
5.4288836e-08
-1.8831866e-08
6.2774657e-08
-2.3175011e-08
7.1786611e-08
-2.8200593e-08
8.1211808e-08
-3.3911804e-08
9.0949775e-08
-4.0276073e-08
1.0094552e-07
-4.7220511e-08
1.1122849e-07
-5.4631847e-08
1.2195279e-07
-6.2361592e-08
1.3343343e-07
-7.0236608e-08
1.4617423e-07
-7.8074428e-08
1.6088476e-07
-8.5701441e-08
1.7848663e-07
-9.2972949e-08
2.0011094e-07
-9.9792277e-08
2.2709085e-07
-1.0612753e-07
2.6095371e-07
-1.1202355e-07
3.0341895e-07
-1.1760645e-07
3.5640906e-07
-1.2307989e-07
4.2208282e-07
-1.2871315e-07
5.0289993e-07
-1.3482403e-07
6.017234e-07
-1.4176248e-07
7.2196041e-07
-1.4990172e-07
8.6773565e-07
-1.5963914e-07
1.044087e-06
-1.7140955e-07
1.2571828e-06
-1.8570144e-07
1.5145171e-06
-2.0303509e-07
1.825194e-06
-2.239524e-07
2.1997952e-06
-2.4838857e-07
2.6499958e-06
-2.749354e-07
3.1846905e-06
-2.9605904e-07
3.794145e-06
-2.9100317e-07
4.3998178e-06
-2.1128609e-07
4.6630475e-06
3.37132e-06
-6.0259607e-12
1.7890468e-10
-2.6674997e-11
6.0396904e-10
-6.6785945e-11
1.1578177e-09
-1.3249351e-10
1.8701503e-09
-2.3154661e-10
2.7761756e-09
-3.7369084e-10
3.9172007e-09
-5.7113205e-10
5.3410826e-09
-8.3908151e-10
7.1024315e-09
-1.1963911e-09
9.2624138e-09
-1.6662754e-09
1.1887959e-08
-2.2770766e-09
1.5050144e-08
-3.0630605e-09
1.8821507e-08
-4.0651326e-09
2.3272076e-08
-5.3313375e-09
2.8463997e-08
-6.9169588e-09
3.4444838e-08
-8.8839115e-09
4.1240032e-08
-1.1299136e-08
4.8845394e-08
-1.423159e-08
5.7221285e-08
-1.7747557e-08
6.6290626e-08
-2.190427e-08
7.5943321e-08
-2.6742003e-08
8.6049536e-08
-3.2275541e-08
9.6483318e-08
-3.8486308e-08
1.071563e-07
-4.5316736e-08
1.1805892e-07
-5.2668494e-08
1.2930454e-07
-6.0405798e-08
1.4117074e-07
-6.8364145e-08
1.5413255e-07
-7.6363774e-08
1.6888436e-07
-8.4226972e-08
1.8634978e-07
-9.1797294e-08
2.0768122e-07
-9.8959164e-08
2.3425268e-07
-1.0565584e-07
2.6765039e-07
-1.1190378e-07
3.0966686e-07
-1.1780068e-07
3.6230589e-07
-1.2352559e-07
4.2780771e-07
-1.2933044e-07
5.0870477e-07
-1.355242e-07
6.0791717e-07
-1.4245507e-07
7.2889127e-07
-1.5049676e-07
8.7577734e-07
-1.6004422e-07
1.0536345e-06
-1.7151908e-07
1.2686577e-06
-1.8538131e-07
1.5283791e-06
-2.0208667e-07
1.8418998e-06
-2.2204543e-07
2.2197535e-06
-2.4497393e-07
2.6729251e-06
-2.6888882e-07
3.2086047e-06
-2.8589378e-07
3.8111512e-06
-2.7534459e-07
4.3892673e-06
-1.9393676e-07
4.5816415e-06
3.1773821e-06
-5.6271345e-12
1.845326e-10
-2.4913569e-11
6.2325574e-10
-6.2387718e-11
1.195292e-09
-1.2379483e-10
1.9315578e-09
-2.1639744e-10
2.8687786e-09
-3.4933758e-10
4.0501425e-09
-5.3408116e-10
5.5258275e-09
-7.8493655e-10
7.3532884e-09
-1.1196698e-09
9.5971477e-09
-1.5601973e-09
1.2328489e-08
-2.1333596e-09
1.5623307e-08
-2.8717099e-09
1.9559858e-08
-3.8142726e-09
2.421464e-08
-5.0071338e-09
2.965686e-08
-6.5036925e-09
3.5941398e-08
-8.3643045e-09
4.3100645e-08
-1.0655012e-08
5.1136105e-08
-1.3444998e-08
6.0011276e-08
-1.6802444e-08
6.9648077e-08
-2.078864e-08
7.9929518e-08
-2.5450498e-08
9.0711396e-08
-3.081215e-08
1.0184497e-07
-3.6866732e-08
1.1321087e-07
-4.3569907e-08
1.2476209e-07
-5.0836875e-08
1.3657148e-07
-5.8543957e-08
1.488778e-07
-6.6535626e-08
1.621242e-07
-7.4636466e-08
1.7698517e-07
-8.266713e-08
1.943804e-07
-9.0462851e-08
2.154769e-07
-9.7892961e-08
2.4168275e-07
-1.0487947e-07
2.7463685e-07
-1.1141294e-07
3.1620027e-07
-1.1756341e-07
3.6845632e-07
-1.2348405e-07
4.3372832e-07
-1.2940595e-07
5.1462663e-07
-1.3562453e-07
6.1413576e-07
-1.424815e-07
7.3574825e-07
-1.5034777e-07
8.8364369e-07
-1.5961413e-07
1.0629007e-06
-1.7068814e-07
1.2797319e-06
-1.8399986e-07
1.5416907e-06
-1.9994404e-07
1.8578445e-06
-2.1879416e-07
2.2386032e-06
-2.4006662e-07
2.6941984e-06
-2.6130444e-07
3.2298419e-06
-2.743797e-07
3.8242275e-06
-2.5921953e-07
4.3741059e-06
-1.7732819e-07
4.499752e-06
3.0000527e-06
-5.2883939e-12
1.8982212e-10
-2.3418658e-11
6.4138684e-10
-5.8654557e-11
1.2305285e-09
-1.1640867e-10
1.9893125e-09
-2.0352783e-10
2.9558974e-09
-3.2863703e-10
4.1752517e-09
-5.0256192e-10
5.6997534e-09
-7.3883275e-10
7.5895595e-09
-1.0542694e-09
9.9125842e-09
-1.4696613e-09
1.274388e-08
-2.0105204e-09
1.6164165e-08
-2.7078749e-09
2.0257214e-08
-3.5990576e-09
2.5105822e-08
-4.7283439e-09
3.0786148e-08
-6.1473388e-09
3.7360392e-08
-7.9148001e-09
4.4868105e-08
-1.0095659e-08
5.3316965e-08
-1.2758869e-08
6.2674485e-08
-1.5973707e-08
7.2862913e-08
-1.9804382e-08
8.3760186e-08
-2.4302948e-08
9.5209963e-08
-2.9501117e-08
1.0704314e-07
-3.5401866e-08
1.1911162e-07
-4.197238e-08
1.313326e-07
-4.9139951e-08
1.4373906e-07
-5.6792268e-08
1.5653012e-07
-6.4782798e-08
1.7011471e-07
-7.2941291e-08
1.8514362e-07
-8.1088478e-08
2.0252754e-07
-8.9053818e-08
2.2344218e-07
-9.6694465e-08
2.4932335e-07
-1.0391422e-07
2.8185656e-07
-1.1068047e-07
3.2296648e-07
-1.1703712e-07
3.7481292e-07
-1.2311112e-07
4.3980229e-07
-1.2911066e-07
5.2062617e-07
-1.3531423e-07
6.2033938e-07
-1.4205316e-07
7.4248723e-07
-1.4969246e-07
8.9128303e-07
-1.5861636e-07
1.0718246e-06
-1.6921837e-07
1.2903341e-06
-1.8189696e-07
1.5543692e-06
-1.9698841e-07
1.8729363e-06
-2.1463203e-07
2.2562466e-06
-2.3415691e-07
2.713724e-06
-2.5273825e-07
3.2484227e-06
-2.6212874e-07
3.8336191e-06
-2.4311304e-07
4.355089e-06
-1.6164286e-07
4.4182839e-06
2.8384087e-06
-4.9953432e-12
1.9481937e-10
-2.2126596e-11
6.5851945e-10
-5.5428098e-11
1.2638307e-09
-1.1002295e-10
2.0439081e-09
-1.9239659e-10
3.0382707e-09
-3.1072317e-10
4.2935788e-09
-4.7527407e-10
5.8643043e-09
-6.9889349e-10
7.8131799e-09
-9.9757233e-10
1.0211265e-08
-1.3911066e-09
1.3137415e-08
-1.9038298e-09
1.6676891e-08
-2.5654126e-09
2.0918798e-08
-3.41165e-09
2.5952061e-08
-4.4851635e-09
3.1859664e-08
-5.8358606e-09
3.8711088e-08
-7.520924e-09
4.6553169e-08
-9.6040779e-09
5.5400117e-08
-1.2153738e-08
6.522414e-08
-1.5239735e-08
7.5948906e-08
-1.8928358e-08
8.7448809e-08
-2.3275704e-08
9.9557304e-08
-2.8319681e-08
1.120871e-07
-3.4071587e-08
1.248635e-07
-4.0508627e-08
1.3776962e-07
-4.7568961e-08
1.5079938e-07
-5.5150786e-08
1.6411193e-07
-6.3116358e-08
1.7808025e-07
-7.1301024e-08
1.9332826e-07
-7.9526865e-08
2.1075335e-07
-8.7619381e-08
2.3153466e-07
-9.5426068e-08
2.5712996e-07
-1.0283518e-07
2.8926559e-07
-1.0979337e-07
3.2992458e-07
-1.163201e-07
3.813396e-07
-1.2251667e-07
4.4599883e-07
-1.2856724e-07
5.2667678e-07
-1.3473104e-07
6.2650315e-07
-1.4132568e-07
7.490819e-07
-1.4870726e-07
8.9866469e-07
-1.5725173e-07
1.0803691e-06
-1.6733796e-07
1.3004205e-06
-1.7933271e-07
1.5663639e-06
-1.9351485e-07
1.8871187e-06
-2.0989938e-07
2.2726308e-06
-2.276397e-07
2.731465e-06
-2.4363669e-07
3.2644191e-06
-2.4962231e-07
3.8396057e-06
-2.2739466e-07
4.3328602e-06
-1.4699613e-07
4.3378874e-06
2.6914116e-06
-4.7425137e-12
1.9956169e-10
-2.1003889e-11
6.7478072e-10
-5.2617171e-11
1.2954442e-09
-1.0445342e-10
2.0957444e-09
-1.8268035e-10
3.1164968e-09
-2.9507752e-10
4.4059751e-09
-4.5142527e-10
6.0206506e-09
-6.6396673e-10
8.0257194e-09
-9.4795618e-10
1.0495254e-08
-1.3223046e-09
1.3511764e-08
-1.8102965e-09
1.7164883e-08
-2.4403765e-09
2.1548879e-08
-3.2469487e-09
2.6758635e-08
-4.2711142e-09
3.2883829e-08
-5.5611856e-09
4.0001163e-08
-7.1728332e-09
4.8164816e-08
-9.1685086e-09
5.7395795e-08
-1.1615909e-08
6.7671541e-08
-1.4585045e-08
7.8918039e-08
-1.8143673e-08
9.100744e-08
-2.2351047e-08
1.0376468e-07
-2.7250181e-08
1.1698623e-07
-3.2859463e-08
1.3047277e-07
-3.9164875e-08
1.4407502e-07
-4.6114356e-08
1.5774885e-07
-5.3615811e-08
1.7161337e-07
-6.1539926e-08
1.8600434e-07
-6.972794e-08
2.0151627e-07
-7.8004137e-08
2.190295e-07
-8.6191499e-08
2.3972197e-07
-9.4129794e-08
2.6506816e-07
-1.0169403e-07
2.9682971e-07
-1.0881246e-07
3.3704291e-07
-1.1548209e-07
3.880091e-07
-1.2177941e-07
4.5229607e-07
-1.278643e-07
5.327617e-07
-1.3397487e-07
6.3261377e-07
-1.4041282e-07
7.5551989e-07
-1.475227e-07
9.0577468e-07
-1.5567025e-07
1.0885166e-06
-1.6521898e-07
1.3099693e-06
-1.7650395e-07
1.5776488e-06
-1.8974813e-07
1.9003632e-06
-2.0485331e-07
2.2877357e-06
-2.2081226e-07
2.7474245e-06
-2.3432801e-07
3.2779343e-06
-2.3719702e-07
3.8424757e-06
-2.123049e-07
4.3079669e-06
-1.3344029e-07
4.2590249e-06
2.5579704e-06
-4.5177448e-12
2.0407928e-10
-2.00107e-11
6.9027362e-10
-5.013477e-11
1.325568e-09
-9.9536921e-11
2.1451457e-09
-1.7410195e-10
3.1910614e-09
-2.8126e-10
4.5131326e-09
-4.3035622e-10
6.1697455e-09
-6.3309674e-10
8.2284583e-09
-9.0408466e-10
1.0766239e-08
-1.261436e-09
1.3869111e-08
-1.7274878e-09
1.7630932e-08
-2.32958e-09
2.2150969e-08
-3.1008496e-09
2.7529905e-08
-4.0809968e-09
3.3863973e-08
-5.3168557e-09
4.1237017e-08
-6.8626347e-09
4.9710586e-08
-8.7795155e-09
5.9312669e-08
-1.1134351e-08
7.0026372e-08
-1.3997046e-08
8.1780736e-08
-1.7436388e-08
9.4446778e-08
-2.15141e-08
1.0784238e-07
-2.6277428e-08
1.2174956e-07
-3.1750868e-08
1.359462e-07
-3.7928102e-08
1.5025224e-07
-4.4765862e-08
1.6458659e-07
-5.2181039e-08
1.7902854e-07
-6.0052389e-08
1.9387567e-07
-6.8227151e-08
2.0969101e-07
-7.6532351e-08
2.2733465e-07
-8.4789665e-08
2.4797921e-07
-9.2832671e-08
2.7311108e-07
-1.0052517e-07
3.0452212e-07
-1.0777918e-07
3.442968e-07
-1.1457108e-07
3.9480083e-07
-1.209538e-07
4.5867873e-07
-1.2706334e-07
5.3887116e-07
-1.3311564e-07
6.3866604e-07
-1.3939453e-07
7.6179876e-07
-1.4623086e-07
9.1261111e-07
-1.539783e-07
1.0962641e-06
-1.6298435e-07
1.3189755e-06
-1.7355316e-07
1.5882175e-06
-1.8585283e-07
1.9126633e-06
-1.9968386e-07
2.3015664e-06
-2.1389587e-07
2.7616372e-06
-2.25055e-07
3.289093e-06
-2.2509256e-07
3.8425143e-06
-1.9800204e-07
4.2808752e-06
-1.2099057e-07
4.1820157e-06
2.4369787e-06
-4.3155852e-12
2.0839711e-10
-1.9124249e-11
7.0508332e-10
-4.7922477e-11
1.3543668e-09
-9.5157334e-11
2.1923805e-09
-1.6646363e-10
3.262367e-09
-2.6895719e-10
4.6156251e-09
-4.1159258e-10
6.3123794e-09
-6.0559488e-10
8.4224596e-09
-8.6497708e-10
1.102562e-08
-1.2071434e-09
1.4211275e-08
-1.6535782e-09
1.8077366e-08
-2.2306152e-09
2.2728005e-08
-2.9702377e-09
2.8269525e-08
-3.9108468e-09
3.480458e-08
-5.097897e-09
4.2424062e-08
-6.5842035e-09
5.1196886e-08
-8.4296995e-09
6.1158157e-08
-1.0700325e-08
7.2296988e-08
-1.3465696e-08
8.45461e-08
-1.6795259e-08
9.7776326e-08
-2.0752688e-08
1.117998e-07
-2.5388786e-08
1.2638563e-07
-3.073325e-08
1.4129065e-07
-3.6786607e-08
1.5630559e-07
-4.3513528e-08
1.713135e-07
-5.0839226e-08
1.8635422e-07
-5.865015e-08
2.0168657e-07
-6.6799524e-08
2.1784034e-07
-7.5117565e-08
2.3565264e-07
-8.3425519e-08
2.562871e-07
-9.1552197e-08
2.812377e-07
-9.9351894e-08
3.1232173e-07
-1.0672224e-07
3.5166704e-07
-1.1362079e-07
4.0169927e-07
-1.2007858e-07
4.6513642e-07
-1.2620805e-07
5.4500053e-07
-1.3220277e-07
6.4466069e-07
-1.383272e-07
7.6792319e-07
-1.44897e-07
9.1918089e-07
-1.5225192e-07
1.103619e-06
-1.6072268e-07
1.3274464e-06
-1.7058359e-07
1.5980784e-06
-1.8195036e-07
1.9240303e-06
-1.9453236e-07
2.3141483e-06
-2.0705598e-07
2.7741614e-06
-2.1599805e-07
3.2980346e-06
-2.1347868e-07
3.8399959e-06
-1.8458557e-07
4.251981e-06
-1.0963387e-07
4.1070664e-06
2.3273439e-06
-4.1389564e-12
2.1253607e-10
-1.8337131e-11
7.1928105e-10
-4.5949477e-11
1.3819786e-09
-9.1242952e-11
2.2376736e-09
-1.596266e-10
3.3307508e-09
-2.5793514e-10
4.7139333e-09
-3.9477179e-10
6.4492158e-09
-5.8092741e-10
8.6086159e-09
-8.2988346e-10
1.1274576e-08
-1.1583976e-09
1.4539788e-08
-1.5871776e-09
1.8506146e-08
-2.1416416e-09
2.3282468e-08
-2.8527112e-09
2.8980591e-08
-3.7575916e-09
3.5709457e-08
-4.9004424e-09
4.3566911e-08
-6.3327644e-09
5.2629203e-08
-8.1132645e-09
6.2938651e-08
-1.0306931e-08
7.4490649e-08
-1.2982957e-08
8.7222119e-08
-1.621117e-08
1.0100453e-07
-2.0056799e-08
1.1564542e-07
-2.4573604e-08
1.3090242e-07
-2.9795833e-08
1.4651287e-07
-3.5730055e-08
1.622398e-07
-4.2348161e-08
1.7793159e-07
-4.9583069e-08
1.935891e-07
-5.7328503e-08
2.0943199e-07
-6.5443607e-08
2.2595543e-07
-7.376217e-08
2.4397118e-07
-8.210577e-08
2.6463063e-07
-9.0299566e-08
2.8943141e-07
-9.8189777e-08
3.2021186e-07
-1.0566144e-07
3.5913857e-07
-1.126551e-07
4.0869279e-07
-1.1918117e-07
4.716624e-07
-1.253296e-07
5.5114886e-07
-1.3127149e-07
6.5060254e-07
-1.3725133e-07
7.7390295e-07
-1.435677e-07
9.2549728e-07
-1.505456e-07
1.1105969e-06
-1.5849798e-07
1.3353989e-06
-1.6767044e-07
1.6072508e-06
-1.781289e-07
1.9344891e-06
-1.8950217e-07
2.3255214e-06
-2.0041217e-07
2.785072e-06
-2.07284e-07
3.304906e-06
-2.0246631e-07
3.8351791e-06
-1.721059e-07
4.2216197e-06
-9.9334851e-08
4.0342976e-06
2.2280083e-06
-3.9765711e-12
2.165138e-10
-1.7621595e-11
7.3292707e-10
-4.4162485e-11
1.4085198e-09
-8.7704017e-11
2.2812153e-09
-1.5345236e-10
3.3964982e-09
-2.4798488e-10
4.8084647e-09
-3.7958782e-10
6.5808169e-09
-5.5865846e-10
8.7876849e-09
-7.9819295e-10
1.1514109e-08
-1.1143584e-09
1.4855954e-08
-1.5271573e-09
1.8918945e-08
-2.061166e-09
2.3816476e-08
-2.746327e-09
2.9665752e-08
-3.6187397e-09
3.6581872e-08
-4.7213617e-09
4.4669532e-08
-6.1044387e-09
5.4012278e-08
-7.8254917e-09
6.4659701e-08
-9.9485413e-09
7.6613698e-08
-1.2542249e-08
8.9815828e-08
-1.5676636e-08
1.0413892e-07
-1.9418137e-08
1.1938692e-07
-2.3822996e-08
1.3530727e-07
-2.8929443e-08
1.516193e-07
-3.4749448e-08
1.6805979e-07
-4.1261446e-08
1.8444355e-07
-4.8405479e-08
2.007331e-07
-5.6082245e-08
2.1710873e-07
-6.415671e-08
2.3402988e-07
-7.2466459e-08
2.5228089e-07
-8.0833926e-08
2.7299804e-07
-8.9081629e-08
2.9767904e-07
-9.7049078e-08
3.2817921e-07
-1.0461018e-07
3.6669955e-07
-1.1169016e-07
4.1577264e-07
-1.1828046e-07
4.7825256e-07
-1.2444943e-07
5.573177e-07
-1.3034616e-07
6.5649916e-07
-1.3619439e-07
7.7975111e-07
-1.4227487e-07
9.315778e-07
-1.4889652e-07
1.1172185e-06
-1.5635412e-07
1.3428566e-06
-1.6486548e-07
1.6157622e-06
-1.7445007e-07
1.9440739e-06
-1.8466503e-07
2.3357363e-06
-1.9404627e-07
2.794454e-06
-1.9899684e-07
3.3098562e-06
-1.9212044e-07
3.8283036e-06
-1.6057636e-07
4.1900747e-06
-9.0042719e-08
3.9637665e-06
2.1379646e-06
-3.8326093e-12
2.2034536e-10
-1.6979061e-11
7.4607277e-10
-4.2549676e-11
1.43409e-09
-8.4502804e-11
2.323168e-09
-1.4785762e-10
3.4598531e-09
-2.3896084e-10
4.8995679e-09
-3.6580844e-10
6.7076641e-09
-5.3843955e-10
8.9603153e-09
-7.6940743e-10
1.1745078e-08
-1.0743399e-09
1.5160889e-08
-1.4725921e-09
1.9317199e-08
-1.9879655e-09
2.4331851e-08
-2.649502e-09
3.0327289e-08
-3.4922758e-09
3.7424645e-08
-4.5581092e-09
4.5735364e-08
-5.896066e-09
5.5350232e-08
-7.5625183e-09
6.6326155e-08
-9.6205249e-09
7.8671704e-08
-1.2138151e-08
9.2333453e-08
-1.5185442e-08
1.0718621e-07
-1.8829767e-08
1.2303124e-07
-2.3129487e-08
1.3960698e-07
-2.8126287e-08
1.5661609e-07
-3.3836968e-08
1.7377045e-07
-4.024594e-08
1.908525e-07
-4.7299919e-08
2.0778704e-07
-5.4906187e-08
2.2471497e-07
-6.2935435e-08
2.420591e-07
-7.1229161e-08
2.6057458e-07
-7.9611223e-08
2.8138003e-07
-8.7902284e-08
3.0597001e-07
-9.5936239e-08
3.3621307e-07
-1.0357735e-07
3.7434055e-07
-1.1073701e-07
4.2293221e-07
-1.1738918e-07
4.8490459e-07
-1.2358186e-07
5.6351023e-07
-1.2944258e-07
6.6235976e-07
-1.3517426e-07
7.8548273e-07
-1.4103904e-07
9.3744257e-07
-1.4732871e-07
1.1235081e-06
-1.5431953e-07
1.3498475e-06
-1.6220244e-07
1.6236451e-06
-1.7095377e-07
1.9528256e-06
-1.8006772e-07
2.3448501e-06
-1.8801079e-07
2.8023977e-06
-1.9118671e-07
3.3130318e-06
-1.8247107e-07
3.8195889e-06
-1.4998298e-07
4.1575858e-06
-8.1696969e-08
3.8954829e-06
2.056267e-06
-3.6986228e-12
2.240437e-10
-1.6388417e-11
7.5876241e-10
-4.1073758e-11
1.458775e-09
-8.1577158e-11
2.3636716e-09
-1.4275004e-10
3.5210258e-09
-2.3072553e-10
4.987543e-09
-3.5323396e-10
6.8301724e-09
-5.199874e-10
9.1270668e-09
-7.4313335e-10
1.1968222e-08
-1.0378069e-09
1.545556e-08
-1.4227604e-09
1.970215e-08
-1.9210807e-09
2.4830171e-08
-2.5609742e-09
3.0967183e-08
-3.3765598e-09
3.8240231e-08
-4.4085994e-09
4.6767405e-08
-5.7050421e-09
5.6646674e-08
-7.3211524e-09
6.7942272e-08
-9.319033e-09
8.0669587e-08
-1.17661e-08
9.4780526e-08
-1.4732318e-08
1.1015242e-07
-1.8285763e-08
1.2658467e-07
-2.2486574e-08
1.4380778e-07
-2.7379484e-08
1.6150898e-07
-3.2985629e-08
1.7937658e-07
-3.9294914e-08
1.9716175e-07
-4.6260245e-08
2.1475232e-07
-5.3795163e-08
2.3224984e-07
-6.1775936e-08
2.5003983e-07
-7.0048148e-08
2.6884674e-07
-7.8437378e-08
2.8976922e-07
-8.676322e-08
3.1429578e-07
-9.4854986e-08
3.4430473e-07
-1.0256845e-07
3.8205395e-07
-1.0980278e-07
4.3016643e-07
-1.1651565e-07
4.9161739e-07
-1.2273607e-07
5.6973054e-07
-1.2857079e-07
6.6819435e-07
-1.3420198e-07
7.9111384e-07
-1.3987253e-07
9.4311308e-07
-1.4585641e-07
1.129492e-06
-1.5241089e-07
1.3564021e-06
-1.5970116e-07
1.6309354e-06
-1.6766397e-07
1.9607887e-06
-1.7573796e-07
2.3529239e-06
-1.8233487e-07
2.8089952e-06
-1.8387779e-07
3.3145745e-06
-1.7352248e-07
3.8092343e-06
-1.4029242e-07
4.1243551e-06
-7.4229903e-08
3.8294228e-06
1.9820365e-06
-3.5757748e-12
2.2762005e-10
-1.584797e-11
7.7103433e-10
-3.9722644e-11
1.482649e-09
-7.889956e-11
2.4028476e-09
-1.3807357e-10
3.5801986e-09
-2.2318249e-10
5.0726507e-09
-3.417128e-10
6.9487021e-09
-5.0307195e-10
9.2884261e-09
-7.1903684e-10
1.2184187e-08
-1.0042843e-09
1.5740809e-08
-1.3770168e-09
2.0074882e-08
-1.8596589e-09
2.5312815e-08
-2.4796395e-09
3.1587166e-08
-3.2701884e-09
3.903078e-08
-4.2710756e-09
4.7768288e-08
-5.5291834e-09
5.7904778e-08
-7.0987226e-09
6.9511811e-08
-9.0408483e-09
8.261171e-08
-1.142231e-08
9.7161982e-08
-1.4312857e-08
1.1304297e-07
-1.7781112e-08
1.3005293e-07
-2.1888735e-08
1.479154e-07
-2.668313e-08
1.6630337e-07
-3.2189382e-08
1.848828e-07