/*--------------------------------*- C++ -*----------------------------------*\
| =========                 |                                                 |
| \\      /  F ield         | OpenFOAM: The Open Source CFD Toolbox           |
|  \\    /   O peration     | Version:  4.0                                   |
|   \\  /    A nd           | Web:      www.OpenFOAM.org                      |
|    \\/     M anipulation  |                                                 |
\*---------------------------------------------------------------------------*/
FoamFile
{
    version     2.0;
    format      ascii;
    class       volScalarField;
    location    "669";
    object      rho;
}
// * * * * * * * * * * * * * * * * * * * * * * * * * * * * * * * * * * * * * //

dimensions      [1 -3 0 0 0 0 0];

internalField   nonuniform List<scalar> 
5000
(
1.1491546
1.1515509
1.1541028
1.1568027
1.1596381
1.1625911
1.1656381
1.1687501
1.1718923
1.175026
1.1781093
1.1810991
1.1839535
1.1866336
1.1891064
1.1913461
1.1933359
1.1950682
1.1965447
1.1977757
1.1987783
1.1995749
1.2001915
1.2006551
1.200993
1.2012309
1.2013924
1.2014977
1.2015632
1.2016021
1.201624
1.2016355
1.2016413
1.201644
1.2016451
1.2016456
1.2016457
1.2016458
1.2016458
1.2016458
1.2016458
1.2016458
1.2016458
1.2016458
1.2016458
1.2016458
1.2016458
1.2016458
1.2016458
1.2016458
1.1392854
1.141415
1.1436952
1.1461293
1.1487188
1.1514625
1.1543558
1.1573898
1.1605505
1.1638181
1.1671659
1.1705603
1.1739609
1.1773217
1.180592
1.1837197
1.1866544
1.1893507
1.1917721
1.1938942
1.195706
1.1972108
1.1984248
1.1993748
1.2000945
1.2006217
1.200994
1.2012471
1.2014121
1.2015149
1.2015759
1.2016101
1.2016283
1.2016373
1.2016415
1.2016432
1.2016439
1.2016442
1.2016443
1.2016443
1.2016443
1.2016443
1.2016443
1.2016443
1.2016443
1.2016443
1.2016443
1.2016443
1.2016443
1.2016443
1.1350905
1.1371051
1.1392631
1.1415692
1.144027
1.1466383
1.149403
1.1523178
1.1553759
1.1585658
1.1618708
1.1652676
1.1687257
1.1722076
1.1756686
1.1790585
1.1823237
1.1854099
1.1882668
1.1908519
1.1931339
1.195096
1.1967363
1.1980678
1.1991154
1.1999131
1.2004999
1.2009159
1.2011993
1.2013843
1.2014995
1.2015676
1.2016057
1.2016257
1.2016354
1.2016399
1.2016418
1.2016425
1.2016427
1.2016428
1.2016428
1.2016428
1.2016428
1.2016428
1.2016428
1.2016428
1.2016428
1.2016428
1.2016428
1.2016427
1.1326405
1.1345879
1.136674
1.138904
1.1412818
1.1438105
1.1464911
1.1493226
1.1523012
1.1554191
1.1586643
1.1620192
1.1654597
1.1689551
1.1724669
1.1759502
1.1793541
1.1826247
1.1857078
1.1885533
1.1911195
1.1933764
1.1953089
1.1969174
1.1982167
1.1992338
1.200004
1.2005671
1.2009637
1.2012319
1.2014054
1.2015123
1.2015747
1.2016091
1.2016268
1.2016353
1.201639
1.2016405
1.2016411
1.2016413
1.2016413
1.2016413
1.2016413
1.2016413
1.2016413
1.2016413
1.2016413
1.2016413
1.2016413
1.2016412
1.1308995
1.1327991
1.1348341
1.1370096
1.1393298
1.1417981
1.1444163
1.1471845
1.1501004
1.1531583
1.1563491
1.1596585
1.1630669
1.166548
1.1700687
1.1735887
1.1770611
1.1804343
1.1836542
1.1866678
1.1894277
1.1918958
1.1940473
1.1958722
1.1973763
1.1985789
1.1995104
1.200208
1.2007122
1.2010628
1.2012967
1.2014457
1.2015359
1.2015875
1.2016153
1.2016291
1.2016355
1.2016383
1.2016393
1.2016397
1.2016398
1.2016398
1.2016398
1.2016398
1.2016398
1.2016398
1.2016398
1.2016398
1.2016398
1.2016397
1.1295728
1.1314361
1.1334322
1.1355661
1.1378423
1.1402642
1.1428343
1.1455531
1.1484193
1.1514286
1.1545736
1.1578424
1.1612181
1.164678
1.1681926
1.1717254
1.1752334
1.1786675
1.1819751
1.1851027
1.1879999
1.1906237
1.1929423
1.1949382
1.1966089
1.1979672
1.1990379
1.1998551
1.2004579
1.2008865
1.2011795
1.2013713
1.2014909
1.2015616
1.2016009
1.2016214
1.2016313
1.2016356
1.2016374
1.201638
1.2016383
1.2016383
1.2016383
1.2016383
1.2016383
1.2016383
1.2016383
1.2016383
1.2016383
1.2016382
1.1284994
1.1303334
1.132298
1.1343982
1.1366386
1.1390229
1.1415536
1.1442317
1.1470566
1.150025
1.1531306
1.1563633
1.1597082
1.1631451
1.1666476
1.1701823
1.1737092
1.177182
1.1805499
1.1837597
1.1867599
1.1895041
1.1919558
1.1940913
1.1959017
1.1973935
1.1985865
1.1995112
1.2002046
1.2007067
1.2010568
1.2012911
1.2014409
1.2015318
1.201584
1.2016121
1.2016261
1.2016326
1.2016353
1.2016364
1.2016367
1.2016368
1.2016368
1.2016368
1.2016369
1.2016368
1.2016368
1.2016368
1.2016367
1.2016366
1.1276034
1.1294129
1.1313512
1.1334234
1.1356339
1.1379866
1.1404842
1.1431281
1.145918
1.1488514
1.1519228
1.1551234
1.1584401
1.1618545
1.1653424
1.1688732
1.1724095
1.1759074
1.179318
1.1825891
1.1856687
1.1885085
1.1910685
1.1933201
1.1952491
1.1968566
1.1981576
1.199179
1.1999556
1.2005265
1.2009312
1.201207
1.201387
1.2014989
1.2015648
1.2016013
1.2016201
1.2016291
1.201633
1.2016346
1.2016351
1.2016353
1.2016353
1.2016354
1.2016354
1.2016354
1.2016353
1.2016353
1.2016352
1.2016351
1.1268354
1.1286239
1.1305397
1.1325878
1.1347727
1.1370983
1.1395674
1.1421818
1.1449413
1.147844
1.1508853
1.1540573
1.1573481
1.1607409
1.1642135
1.1677373
1.1712773
1.1747917
1.1782336
1.1815518
1.1846944
1.187612
1.190262
1.192612
1.1946434
1.1963524
1.1977498
1.198859
1.1997122
1.2003474
1.2008041
1.2011202
1.2013302
1.2014634
1.2015436
1.2015891
1.2016132
1.2016251
1.2016305
1.2016327
1.2016335
1.2016338
1.2016338
1.2016339
1.2016339
1.2016339
1.2016338
1.2016338
1.2016337
1.2016336
1.1261647
1.127935
1.1298312
1.1318582
1.1340208
1.1363227
1.1387669
1.1413552
1.144088
1.1469637
1.1499781
1.1531243
1.1563912
1.1597637
1.1632208
1.166736
1.170276
1.1738013
1.1772664
1.1806216
1.1838153
1.1867974
1.1895233
1.1919579
1.1940787
1.1958777
1.1973619
1.198551
1.1994751
1.2001706
1.2006767
1.2010318
1.2012713
1.2014257
1.2015206
1.2015756
1.2016055
1.2016207
1.2016277
1.2016307
1.2016318
1.2016322
1.2016323
1.2016324
1.2016324
1.2016324
1.2016323
1.2016323
1.2016322
1.2016321
1.1255703
1.1273244
1.1292031
1.1312116
1.1333543
1.1356352
1.1380572
1.1406224
1.1433314
1.1461827
1.149173
1.1522957
1.1555408
1.158894
1.162336
1.1658416
1.1693794
1.1729116
1.1763942
1.1797789
1.1830146
1.1860509
1.1888419
1.1913501
1.1935498
1.1954294
1.196992
1.1982545
1.1992444
1.1999966
1.2005498
1.2009424
1.2012107
1.2013863
1.201496
1.2015609
1.201597
1.2016157
1.2016247
1.2016286
1.2016301
1.2016306
1.2016308
1.2016309
1.2016309
1.2016309
1.2016308
1.2016308
1.2016307
1.2016306
1.1250371
1.1267766
1.1286398
1.1306316
1.1327565
1.1350185
1.1374206
1.1399651
1.1426525
1.1454819
1.1484502
1.1515514
1.1547762
1.1581114
1.1615387
1.1650343
1.1685683
1.1721045
1.1756004
1.179009
1.1822797
1.1853623
1.1882097
1.1907826
1.1930525
1.1950046
1.1966389
1.1979689
1.1990201
1.1998258
1.2004237
1.2008525
1.2011489
1.2013455
1.2014701
1.2015452
1.2015877
1.2016103
1.2016213
1.2016263
1.2016283
1.2016291
1.2016293
1.2016294
1.2016294
1.2016294
1.2016293
1.2016293
1.2016292
1.201629
1.1245541
1.1262805
1.1281295
1.1301062
1.132215
1.1344599
1.136844
1.1393695
1.1420374
1.1448468
1.1477949
1.1508763
1.1540824
1.1574006
1.1608137
1.1642991
1.1678283
1.1713663
1.1748725
1.1783005
1.1816008
1.1847232
1.18762
1.1902502
1.1925831
1.194601
1.1963009
1.1976936
1.1988021
1.1996582
1.2002989
1.2007625
1.2010862
1.2013035
1.2014431
1.2015285
1.2015777
1.2016044
1.2016177
1.2016239
1.2016265
1.2016274
1.2016278
1.2016279
1.2016279
1.2016279
1.2016278
1.2016278
1.2016276
1.2016275
1.1241129
1.1258273
1.1276635
1.1296264
1.1317205
1.1339497
1.1363174
1.1388256
1.1414755
1.1442665
1.147196
1.1502592
1.1534477
1.1567499
1.1601494
1.1636246
1.1671482
1.1706867
1.1742005
1.1776445
1.1809701
1.1841271
1.1870674
1.1897488
1.1921386
1.1942166
1.1959769
1.1974279
1.1985902
1.199494
1.2001754
1.2006727
1.201023
1.2012607
1.2014151
1.2015109
1.2015671
1.201598
1.2016139
1.2016214
1.2016246
1.2016258
1.2016262
1.2016263
1.2016264
1.2016264
1.2016263
1.2016262
1.2016261
1.201626
1.1237073
1.1254106
1.127235
1.1291852
1.1312657
1.1334806
1.135833
1.1383254
1.1409587
1.1437327
1.146645
1.1496911
1.1528633
1.1561503
1.1595367
1.1630018
1.1665194
1.1700572
1.1735767
1.1770341
1.1803813
1.1835686
1.1865476
1.189275
1.1917165
1.1938495
1.1956658
1.1971711
1.198384
1.1993331
1.2000536
1.2005832
1.2009594
1.201217
1.2013863
1.2014926
1.2015558
1.2015912
1.2016097
1.2016187
1.2016226
1.2016241
1.2016247
1.2016248
1.2016249
1.2016249
1.2016248
1.2016247
1.2016246
1.2016245
1.1233319
1.1250251
1.1268385
1.128777
1.130845
1.1330466
1.135385
1.1378626
1.1404806
1.1432387
1.1461351
1.1491652
1.152322
1.1555947
1.1589685
1.1624237
1.165935
1.1694712
1.1729949
1.1764633
1.1798293
1.1830433
1.1860569
1.1888259
1.1913145
1.1934983
1.1953665
1.1969227
1.1981834
1.1991756
1.1999333
1.2004942
1.2008956
1.2011728
1.2013568
1.2014735
1.201544
1.201584
1.2016053
1.2016158
1.2016205
1.2016224
1.2016231
1.2016233
1.2016234
1.2016233
1.2016233
1.2016232
1.2016231
1.201623
1.1229829
1.1246666
1.1264699
1.1283974
1.1304539
1.1326431
1.1349684
1.1374322
1.1400359
1.1427793
1.1456607
1.1486759
1.1518181
1.1550772
1.158439
1.1618845
1.1653893
1.1689231
1.1724499
1.1759276
1.1793097
1.1825475
1.1855922
1.188399
1.1909309
1.1931616
1.1950782
1.1966822
1.197988
1.1990212
1.1998148
1.2004058
1.2008318
1.2011282
1.2013267
1.2014539
1.2015316
1.2015764
1.2016007
1.2016128
1.2016183
1.2016207
1.2016215
1.2016218
1.2016219
1.2016218
1.2016218
1.2016217
1.2016216
1.2016215
1.1226569
1.1243318
1.1261255
1.1280429
1.1300885
1.1322661
1.1345792
1.1370302
1.1396205
1.1423501
1.1452174
1.1482186
1.1513471
1.1545932
1.1579434
1.1613794
1.1648776
1.1684087
1.1719374
1.1754228
1.1788192
1.1820781
1.1851509
1.1879923
1.1905639
1.1928381
1.1948001
1.196449
1.1977977
1.19887
1.199698
1.2003182
1.200768
1.2010832
1.201296
1.2014337
1.2015188
1.2015685
1.2015957
1.2016096
1.2016161
1.2016189
1.2016199
1.2016203
1.2016203
1.2016203
1.2016203
1.2016202
1.2016201
1.20162
1.1223512
1.1240177
1.1258026
1.1277104
1.1297458
1.1319127
1.1342143
1.1366532
1.1392309
1.1419476
1.1448016
1.1477894
1.150905
1.1541388
1.1574779
1.1609046
1.1643961
1.1679241
1.171454
1.1749458
1.1783547
1.1816325
1.1847308
1.1876038
1.1902123
1.192527
1.1945314
1.1962228
1.1976121
1.1987219
1.199583
1.2002313
1.2007043
1.201038
1.2012649
1.2014131
1.2015055
1.2015601
1.2015905
1.2016063
1.2016138
1.201617
1.2016183
1.2016187
1.2016188
1.2016188
1.2016188
1.2016187
1.2016186
1.2016185
1.1220634
1.1237222
1.1254986
1.1273975
1.1294233
1.13158
1.1338708
1.1362984
1.1388643
1.1415686
1.1444101
1.1473854
1.1504886
1.1537107
1.1570391
1.1604568
1.1639417
1.1674661
1.1709966
1.1744938
1.1779136
1.1812084
1.1843299
1.187232
1.1898746
1.1922272
1.1942715
1.1960031
1.1974312
1.1985767
1.1994696
1.2001453
1.2006409
1.2009926
1.2012335
1.201392
1.2014918
1.2015515
1.2015851
1.2016028
1.2016114
1.2016151
1.2016167
1.2016172
1.2016173
1.2016173
1.2016173
1.2016172
1.2016171
1.201617
1.1217917
1.1234431
1.1252117
1.1271021
1.1291189
1.1312659
1.1335466
1.1359634
1.1385181
1.1412109
1.1440405
1.1470038
1.1500952
1.1533061
1.1566242
1.1600331
1.1635114
1.1670321
1.1705626
1.1740643
1.1774937
1.180804
1.1839467
1.1868756
1.18955
1.191938
1.1940199
1.1957896
1.1972545
1.1984344
1.199358
1.2000602
1.2005778
1.2009472
1.2012018
1.2013706
1.2014778
1.2015425
1.2015794
1.2015991
1.2016088
1.2016132
1.201615
1.2016156
1.2016158
1.2016158
1.2016158
1.2016157
1.2016156
1.2016155
1.1215345
1.1231789
1.12494
1.1268224
1.1288306
1.1309686
1.1332396
1.1356463
1.1381903
1.1408721
1.1436905
1.1466424
1.1497226
1.1529227
1.1562309
1.1596313
1.163103
1.1666198
1.1701498
1.1736552
1.1770932
1.1804174
1.1835796
1.1865334
1.1892373
1.1916586
1.193776
1.1955819
1.1970821
1.1982949
1.1992481
1.1999759
1.200515
1.2009017
1.2011698
1.2013488
1.2014634
1.2015333
1.2015736
1.2015953
1.2016062
1.2016112
1.2016133
1.2016141
1.2016143
1.2016143
1.2016143
1.2016142
1.2016141
1.201614
1.1212903
1.1229281
1.1246821
1.1265569
1.128557
1.1306863
1.1329482
1.1353452
1.1378792
1.1405505
1.1433581
1.1462993
1.1493687
1.1525585
1.1558572
1.1592493
1.1627145
1.1662273
1.1697564
1.1732648
1.1767104
1.1800472
1.1832273
1.1862042
1.1889358
1.1913884
1.1935394
1.1953797
1.1969136
1.1981581
1.1991399
1.1998926
1.2004526
1.2008563
1.2011377
1.2013268
1.2014487
1.2015238
1.2015675
1.2015914
1.2016035
1.2016092
1.2016116
1.2016125
1.2016127
1.2016128
1.2016127
1.2016127
1.2016125
1.2016125
1.1210579
1.1226895
1.1244367
1.1263043
1.1282967
1.1304177
1.1326709
1.1350588
1.1375831
1.1402444
1.1430419
1.1459726
1.1490318
1.1522117
1.1555012
1.1588852
1.162344
1.1658527
1.1693806
1.1728915
1.1763438
1.1796921
1.1828888
1.1858871
1.1886447
1.1911267
1.1933096
1.1951827
1.1967489
1.1980239
1.1990334
1.1998102
1.2003906
1.2008109
1.2011054
1.2013045
1.2014338
1.201514
1.2015612
1.2015873
1.2016008
1.2016071
1.2016099
1.2016109
1.2016112
1.2016113
1.2016112
1.2016111
1.201611
1.201611
1.1208363
1.1224619
1.1242027
1.1260634
1.1280484
1.1301617
1.1324065
1.1347857
1.1373008
1.1399526
1.1427403
1.1456611
1.1487105
1.1518808
1.1551614
1.1585376
1.1619901
1.1654946
1.169021
1.1725339
1.1759922
1.179351
1.1825629
1.1855813
1.1883632
1.1908731
1.1930863
1.1949907
1.1965879
1.1978922
1.1989284
1.1997288
1.200329
1.2007656
1.2010731
1.2012821
1.2014186
1.201504
1.2015547
1.2015831
1.2015979
1.201605
1.2016081
1.2016093
1.2016097
1.2016098
1.2016097
1.2016096
1.2016095
1.2016095
1.1206246
1.1222445
1.1239792
1.1258333
1.1278113
1.129917
1.1321539
1.1345247
1.1370311
1.1396738
1.1424521
1.1453635
1.1484034
1.1515645
1.1548365
1.158205
1.1616513
1.1651516
1.1686764
1.1721908
1.1756544
1.1790228
1.1822489
1.185286
1.1880908
1.1906271
1.1928691
1.1948034
1.1964303
1.1977629
1.1988251
1.1996482
1.2002679
1.2007205
1.2010407
1.2012594
1.2014032
1.2014938
1.2015481
1.2015787
1.2015949
1.2016028
1.2016063
1.2016077
1.2016081
1.2016082
1.2016082
1.2016081
1.201608
1.201608
1.120422
1.1220364
1.1237652
1.125613
1.1275843
1.1296829
1.1319122
1.134275
1.136773
1.1394069
1.1421762
1.1450785
1.1481093
1.1512616
1.1545253
1.1578864
1.1613266
1.1648225
1.1683455
1.171861
1.1753294
1.1787066
1.1819459
1.1850005
1.1878269
1.1903883
1.1926576
1.1946206
1.196276
1.197636
1.1987233
1.1995687
1.2002073
1.2006756
1.2010082
1.2012366
1.2013877
1.2014834
1.2015413
1.2015743
1.2015919
1.2016006
1.2016045
1.2016061
1.2016066
1.2016067
1.2016067
1.2016066
1.2016065
1.2016065
1.1202277
1.1218369
1.1235601
1.1254019
1.1273667
1.1294584
1.1316804
1.1340355
1.1365255
1.1391511
1.1419117
1.1448053
1.1478273
1.1509711
1.1542267
1.1575806
1.1610147
1.1645064
1.1680273
1.1715437
1.1750163
1.1784016
1.1816531
1.1847242
1.187571
1.1901561
1.1924516
1.194442
1.196125
1.1975114
1.198623
1.19949
1.2001472
1.2006308
1.2009757
1.2012137
1.2013719
1.2014729
1.2015343
1.2015696
1.2015887
1.2015983
1.2016026
1.2016044
1.201605
1.2016052
1.2016052
1.2016051
1.201605
1.201605
1.1200412
1.1216453
1.1233631
1.1251991
1.1271577
1.1292428
1.1314579
1.1338056
1.1362878
1.1389054
1.1416578
1.1445428
1.1475565
1.150692
1.1539398
1.1572866
1.1607149
1.1642023
1.167721
1.1712379
1.1747143
1.178107
1.18137
1.1844565
1.1873227
1.1899303
1.1922508
1.1942675
1.195977
1.1973889
1.1985242
1.1994123
1.2000876
1.2005862
1.2009433
1.2011907
1.201356
1.2014621
1.2015272
1.2015649
1.2015855
1.2015959
1.2016007
1.2016028
1.2016035
1.2016037
1.2016037
1.2016036
1.2016035
1.2016035
1.1198618
1.1214611
1.1231736
1.1250041
1.1269568
1.1290356
1.1312439
1.1335845
1.1360593
1.1386691
1.1414135
1.1442905
1.1472959
1.1504235
1.1536637
1.1570036
1.1604261
1.1639093
1.1674258
1.1709429
1.1744226
1.1778222
1.1810958
1.184197
1.1870814
1.1897105
1.1920549
1.1940969
1.195832
1.1972686
1.1984269
1.1993355
1.2000285
1.2005419
1.2009109
1.2011676
1.20134
1.2014513
1.2015199
1.2015601
1.2015822
1.2015935
1.2015988
1.2016011
1.2016019
1.2016022
1.2016022
1.2016021
1.201602
1.201602
1.119689
1.1212837
1.1229912
1.1248163
1.1267633
1.128836
1.1310379
1.1333717
1.1358393
1.1384416
1.1411783
1.1440474
1.147045
1.1501648
1.1533977
1.156731
1.1601478
1.1636266
1.1671408
1.170658
1.1741407
1.1775465
1.1808301
1.183945
1.1868468
1.1894964
1.1918637
1.19393
1.1956897
1.1971503
1.1983309
1.1992596
1.1999699
1.2004978
1.2008785
1.2011445
1.2013238
1.2014402
1.2015125
1.2015551
1.2015788
1.2015911
1.2015969
1.2015994
1.2016003
1.2016006
1.2016007
1.2016006
1.2016005
1.2016005
1.1195225
1.1211126
1.1228154
1.1246353
1.1265767
1.1286436
1.1308392
1.1331665
1.1356272
1.1382223
1.1409515
1.143813
1.146803
1.1499154
1.1531411
1.1564678
1.1598791
1.1633537
1.1668654
1.1703825
1.1738678
1.1772795
1.1805724
1.1837003
1.1866185
1.1892877
1.191677
1.1937667
1.1955502
1.197034
1.1982363
1.1991845
1.1999118
1.200454
1.2008463
1.2011213
1.2013076
1.2014291
1.201505
1.2015501
1.2015753
1.2015886
1.2015949
1.2015977
1.2015988
1.2015991
1.2015991
1.2015991
1.201599
1.201599
1.1193617
1.1209475
1.1226456
1.1244606
1.1263967
1.1284579
1.1306475
1.1329684
1.1354224
1.1380106
1.1407326
1.1435868
1.1465694
1.1496745
1.1528933
1.1562137
1.1596194
1.1630898
1.1665991
1.1701158
1.1736034
1.1770205
1.1803222
1.1834623
1.1863963
1.1890842
1.1914945
1.1936068
1.1954133
1.1969196
1.1981431
1.1991104
1.1998543
1.2004104
1.2008141
1.2010981
1.2012912
1.2014178
1.2014974
1.2015449
1.2015718
1.201586
1.2015929
1.201596
1.2015972
1.2015976
1.2015976
1.2015976
1.2015975
1.2015975
1.1192063
1.120788
1.1224816
1.1242917
1.1262227
1.1282784
1.1304622
1.132777
1.1352245
1.137806
1.1405211
1.1433682
1.1463436
1.1494417
1.1526537
1.1559679
1.1593683
1.1628345
1.1663412
1.1698574
1.1733471
1.1767691
1.1800791
1.1832308
1.1861797
1.1888855
1.1913161
1.1934501
1.1952789
1.1968071
1.1980511
1.199037
1.1997972
1.2003671
1.200782
1.2010748
1.2012748
1.2014065
1.2014896
1.2015397
1.2015682
1.2015834
1.2015909
1.2015942
1.2015956
1.201596
1.2015961
1.2015961
1.201596
1.201596
1.119056
1.1206336
1.1223229
1.1241284
1.1260544
1.1281048
1.130283
1.1325918
1.1350331
1.1376081
1.1403165
1.1431567
1.1461252
1.1492164
1.1524219
1.15573
1.1591251
1.1625872
1.1660912
1.1696069
1.1730983
1.176525
1.1798426
1.1830055
1.1859686
1.1886915
1.1911415
1.1932965
1.1951469
1.1966963
1.1979604
1.1989645
1.1997407
1.200324
1.20075
1.2010516
1.2012583
1.201395
1.2014818
1.2015343
1.2015645
1.2015807
1.2015888
1.2015925
1.201594
1.2015945
1.2015946
1.2015946
1.2015945
1.2015945
1.1189104
1.1204842
1.1221692
1.1239702
1.1258914
1.1279367
1.1301095
1.1324125
1.1348478
1.1374165
1.1401183
1.1429519
1.1459137
1.1489982
1.1521973
1.1554994
1.1588894
1.1623474
1.1658488
1.1693637
1.1728567
1.1762876
1.1796126
1.1827859
1.1857626
1.188502
1.1909707
1.1931459
1.1950172
1.1965873
1.1978709
1.1988929
1.1996846
1.2002813
1.2007181
1.2010284
1.2012418
1.2013835
1.2014738
1.2015289
1.2015607
1.201578
1.2015867
1.2015907
1.2015924
1.2015929
1.2015931
1.2015931
1.201593
1.201593
1.1187694
1.1203393
1.1220203
1.123817
1.1257335
1.1277738
1.1299413
1.1322388
1.1346682
1.1372308
1.1399263
1.1427533
1.1457086
1.1487867
1.1519796
1.1552759
1.1586607
1.1621147
1.1656135
1.1691275
1.1726218
1.1760567
1.1793886
1.1825718
1.1855615
1.1883166
1.1908034
1.1929982
1.1948898
1.1964799
1.1977826
1.198822
1.1996291
1.2002387
1.2006863
1.2010051
1.2012252
1.2013718
1.2014658
1.2015234
1.2015569
1.2015752
1.2015846
1.2015889
1.2015907
1.2015914
1.2015916
1.2015915
1.2015915
1.2015915
1.1186325
1.1201988
1.1218759
1.1236683
1.1255803
1.1276158
1.1297782
1.1320703
1.134494
1.1370506
1.13974
1.1425608
1.1455097
1.1485815
1.1517682
1.1550589
1.1584388
1.1618887
1.1653848
1.1688978
1.1723934
1.1758319
1.1791702
1.1823629
1.1853651
1.1881354
1.1906395
1.1928533
1.1947645
1.1963742
1.1976955
1.1987519
1.199574
1.2001965
1.2006546
1.2009819
1.2012085
1.2013601
1.2014577
1.2015178
1.201553
1.2015724
1.2015824
1.2015871
1.2015891
1.2015898
1.20159
1.20159
1.20159
1.20159
1.1184997
1.1200624
1.1217356
1.1235239
1.1254316
1.1274624
1.1296198
1.1319066
1.1343249
1.1368757
1.1395592
1.1423738
1.1453165
1.1483822
1.151563
1.1548482
1.1582231
1.1616691
1.1651625
1.1686745
1.172171
1.1756129
1.1789574
1.1821591
1.1851731
1.187958
1.1904789
1.192711
1.1946413
1.19627
1.1976095
1.1986826
1.1995195
1.2001545
1.2006231
1.2009588
1.2011919
1.2013484
1.2014495
1.2015122
1.2015491
1.2015696
1.2015802
1.2015853
1.2015874
1.2015883
1.2015885
1.2015885
1.2015885
1.2015885
1.1183706
1.1199298
1.1215993
1.1233837
1.1252871
1.1273134
1.129466
1.1317477
1.1341606
1.1367058
1.1393835
1.1421921
1.1451289
1.1481886
1.1513636
1.1546433
1.1580134
1.1614555
1.1649461
1.168457
1.1719543
1.1753995
1.1787497
1.18196
1.1849854
1.1877843
1.1903214
1.1925712
1.1945201
1.1961673
1.1975246
1.198614
1.1994654
1.2001129
1.2005917
1.2009356
1.2011752
1.2013365
1.2014413
1.2015064
1.2015451
1.2015667
1.201578
1.2015834
1.2015858
1.2015867
1.201587
1.201587
1.201587
1.201587
1.1182451
1.1198009
1.1214668
1.1232473
1.1251466
1.1271684
1.1293164
1.1315931
1.1340008
1.1365406
1.1392126
1.1420155
1.1449464
1.1480002
1.1511696
1.154444
1.1578094
1.1612476
1.1647355
1.1682452
1.1717432
1.1751913
1.1785469
1.1817654
1.1848018
1.1876141
1.1901669
1.1924339
1.1944009
1.1960661
1.1974407
1.1985461
1.1994117
1.2000714
1.2005604
1.2009125
1.2011584
1.2013246
1.2014329
1.2015007
1.201541
1.2015637
1.2015757
1.2015815
1.2015841
1.2015851
1.2015854
1.2015855
1.2015855
1.2015855
1.1181229
1.1196755
1.1213379
1.1231146
1.1250098
1.1270274
1.1291708
1.1314428
1.1338454
1.1363799
1.1390464
1.1418436
1.1447688
1.147817
1.1509808
1.15425
1.1576108
1.1610451
1.1645303
1.1680387
1.1715373
1.174988
1.1783489
1.1815752
1.184622
1.1874474
1.1900153
1.192299
1.1942835
1.1959664
1.1973579
1.198479
1.1993586
1.2000303
1.2005293
1.2008894
1.2011417
1.2013127
1.2014245
1.2014948
1.2015369
1.2015607
1.2015734
1.2015796
1.2015824
1.2015836
1.2015839
1.201584
1.201584
1.201584
1.118004
1.1195534
1.1212124
1.1229854
1.1248767
1.1268902
1.1290291
1.1312963
1.133694
1.1362234
1.1388845
1.1416763
1.1445959
1.1476385
1.1507969
1.1540611
1.1574172
1.1608477
1.1643302
1.1678373
1.1713363
1.1747896
1.1781554
1.1813891
1.184446
1.1872839
1.1898665
1.1921664
1.1941679
1.195868
1.1972761
1.1984125
1.1993059
1.1999894
1.2004983
1.2008664
1.2011249
1.2013007
1.2014161
1.2014889
1.2015327
1.2015577
1.2015711
1.2015777
1.2015807
1.201582
1.2015824
1.2015825
1.2015825
1.2015824
1.1178881
1.1194344
1.1210901
1.1228595
1.124747
1.1267564
1.128891
1.1311537
1.1335466
1.1360709
1.1387268
1.1415132
1.1444274
1.1474646
1.1506177
1.1538769
1.1572286
1.1606553
1.1641351
1.1676408
1.1711401
1.1745957
1.1779661
1.181207
1.1842736
1.1871236
1.1897203
1.192036
1.1940541
1.1957709
1.1971952
1.1983468
1.1992536
1.1999488
1.2004674
1.2008434
1.2011081
1.2012887
1.2014076
1.2014829
1.2015284
1.2015546
1.2015687
1.2015758
1.201579
1.2015804
1.2015808
1.201581
1.201581
1.2015809
1.1177751
1.1193184
1.1209708
1.1227368
1.1246206
1.126626
1.1287564
1.1310147
1.1334028
1.1359223
1.1385731
1.1413542
1.1442631
1.147295
1.150443
1.1536972
1.1570445
1.1604676
1.1639446
1.1674489
1.1709484
1.1744062
1.177781
1.1810287
1.1841047
1.1869663
1.1895767
1.1919077
1.1939419
1.1956751
1.1971153
1.1982817
1.1992018
1.1999085
1.2004366
1.2008205
1.2010914
1.2012766
1.201399
1.2014768
1.2015242
1.2015515
1.2015663
1.2015738
1.2015773
1.2015788
1.2015793
1.2015794
1.2015794
1.2015794
1.1176649
1.1192053
1.1208545
1.1226171
1.1244973
1.1264988
1.1286251
1.130879
1.1332626
1.1357773
1.1384231
1.1411992
1.1441028
1.1471296
1.1502725
1.153522
1.1568649
1.1602843
1.1637586
1.1672614
1.1707611
1.1742209
1.1775999
1.1808541
1.183939
1.1868119
1.1894357
1.1917814
1.1938315
1.1955806
1.1970364
1.1982172
1.1991504
1.1998684
1.200406
1.2007976
1.2010746
1.2012645
1.2013904
1.2014707
1.2015198
1.2015483
1.2015639
1.2015719
1.2015756
1.2015772
1.2015778
1.2015779
1.2015779
1.2015779
1.1175574
1.1190948
1.120741
1.1225003
1.1243769
1.1263747
1.128497
1.1307466
1.1331258
1.1356357
1.1382768
1.1410478
1.1439464
1.1469681
1.1501061
1.1533508
1.1566895
1.1601053
1.1635769
1.1670782
1.1705779
1.1740396
1.1774225
1.180683
1.1837765
1.1866603
1.189297
1.1916571
1.1937226
1.1954874
1.1969583
1.1981534
1.1990994
1.1998285
1.2003756
1.2007748
1.2010578
1.2012524
1.2013817
1.2014646
1.2015154
1.2015451
1.2015615
1.2015699
1.2015739
1.2015756
1.2015762
1.2015764
1.2015764
1.2015764
1.1174523
1.118987
1.1206301
1.1223862
1.1242593
1.1262534
1.1283718
1.1306174
1.1329922
1.1354976
1.1381338
1.1409
1.1437937
1.1468104
1.1499435
1.1531836
1.1565181
1.1599303
1.1633993
1.166899
1.1703987
1.173862
1.1772487
1.1805152
1.1836171
1.1865115
1.1891606
1.1915348
1.1936152
1.1953953
1.1968812
1.1980902
1.1990488
1.199789
1.2003453
1.200752
1.201041
1.2012402
1.201373
1.2014584
1.201511
1.2015419
1.201559
1.2015679
1.2015721
1.2015739
1.2015747
1.2015749
1.2015749
1.2015749
1.1173497
1.1188816
1.1205218
1.1222747
1.1241445
1.126135
1.1282496
1.1304911
1.1328616
1.1353626
1.1379942
1.1407556
1.1436444
1.1466563
1.1497846
1.1530203
1.1563506
1.1597593
1.1632255
1.1667238
1.1702232
1.1736882
1.1770785
1.1803507
1.1834606
1.1863652
1.1890265
1.1914143
1.1935093
1.1953044
1.1968048
1.1980276
1.1989986
1.1997496
1.2003151
1.2007293
1.2010242
1.201228
1.2013643
1.2014521
1.2015065
1.2015386
1.2015565
1.2015658
1.2015703
1.2015723
1.2015731
1.2015733
1.2015734
1.2015734
1.1172493
1.1187786
1.1204159
1.1221657
1.1240322
1.1260192
1.1281301
1.1303676
1.132734
1.1352306
1.1378577
1.1406145
1.1434985
1.1465056
1.1496293
1.1528605
1.1561868
1.1595919
1.1630555
1.1665522
1.1700515
1.1735179
1.1769116
1.1801894
1.1833069
1.1862214
1.1888945
1.1912957
1.1934049
1.1952146
1.1967294
1.1979657
1.1989489
1.1997105
1.200285
1.2007067
1.2010075
1.2012158
1.2013555
1.2014458
1.201502
1.2015352
1.2015539
1.2015638
1.2015686
1.2015707
1.2015715
1.2015718
1.2015719
1.2015719
1.1171512
1.1186778
1.1203123
1.1220592
1.1239224
1.125906
1.1280132
1.1302469
1.1326092
1.1351015
1.1377242
1.1404764
1.1433558
1.1463583
1.1494774
1.1527042
1.1560265
1.1594282
1.1628891
1.1663842
1.1698832
1.173351
1.1767479
1.180031
1.183156
1.1860801
1.1887646
1.1911787
1.1933019
1.1951258
1.1966547
1.1979043
1.1988995
1.1996717
1.2002551
1.2006841
1.2009907
1.2012035
1.2013466
1.2014395
1.2014974
1.2015319
1.2015514
1.2015617
1.2015668
1.201569
1.20157
1.2015703
1.2015704
1.2015704
1.1170552
1.1185792
1.120211
1.1219549
1.123815
1.1257952
1.1278988
1.1301288
1.1324871
1.1349753
1.1375936
1.1403414
1.1432162
1.1462141
1.1493287
1.1525512
1.1558696
1.1592679
1.1627262
1.1662196
1.1697183
1.1731873
1.1765873
1.1798755
1.1830077
1.1859411
1.1886367
1.1910635
1.1932003
1.1950382
1.1965808
1.1978434
1.1988505
1.1996331
1.2002253
1.2006615
1.200974
1.2011913
1.2013377
1.2014331
1.2014928
1.2015285
1.2015488
1.2015596
1.2015649
1.2015674
1.2015684
1.2015688
1.2015689
1.2015689
1.1169612
1.1184827
1.1201118
1.1218528
1.1237099
1.1256868
1.1277869
1.1300131
1.1323676
1.1348517
1.1374658
1.1402092
1.1430796
1.146073
1.1491832
1.1524015
1.1557159
1.1591109
1.1625666
1.1660584
1.1695566
1.1730268
1.1764297
1.1797228
1.182862
1.1858043
1.1885108
1.1909499
1.1931
1.1949516
1.1965078
1.1977831
1.1988019
1.1995948
1.2001957
1.2006391
1.2009572
1.201179
1.2013288
1.2014267
1.2014881
1.201525
1.2015461
1.2015575
1.2015631
1.2015657
1.2015668
1.2015672
1.2015673
1.2015674
1.1168691
1.1183882
1.1200147
1.1217529
1.1236069
1.1255806
1.1276773
1.1298999
1.1322506
1.1347307
1.1373406
1.1400797
1.1429457
1.1459347
1.1490407
1.1522548
1.1555654
1.1589571
1.1624101
1.1659002
1.1693981
1.1728693
1.176275
1.1795728
1.1827187
1.1856698
1.1883868
1.1908379
1.193001
1.194866
1.1964354
1.1977234
1.1987537
1.1995567
1.2001662
1.2006167
1.2009405
1.2011667
1.2013199
1.2014202
1.2014834
1.2015216
1.2015435
1.2015553
1.2015613
1.2015641
1.2015652
1.2015657
1.2015658
1.2015658
1.1167789
1.1182957
1.1199195
1.1216549
1.123506
1.1254766
1.1275699
1.129789
1.1321359
1.1346121
1.137218
1.1399529
1.1428146
1.1457993
1.148901
1.1521111
1.1554179
1.1588063
1.1622567
1.1657452
1.1692426
1.1727147
1.176123
1.1794254
1.1825778
1.1855374
1.1882646
1.1907274
1.1929032
1.1947814
1.1963638
1.1976642
1.1987058
1.1995188
1.2001368
1.2005943
1.2009238
1.2011544
1.2013109
1.2014137
1.2014787
1.2015181
1.2015408
1.2015531
1.2015594
1.2015624
1.2015637
1.2015641
1.2015643
1.2015643
1.1166905
1.1182049
1.1198263
1.121559
1.1234072
1.1253746
1.1274647
1.1296803
1.1320236
1.1344959
1.1370978
1.1398286
1.1426861
1.1456666
1.1487641
1.1519702
1.1552733
1.1586584
1.1621063
1.1655931
1.1690899
1.1725629
1.1759738
1.1792805
1.1824392
1.185407
1.1881443
1.1906184
1.1928067
1.1946977
1.196293
1.1976055
1.1986583
1.1994811
1.2001076
1.200572
1.2009071
1.2011421
1.2013019
1.2014071
1.2014739
1.2015145
1.2015381
1.201551
1.2015576
1.2015607
1.2015621
1.2015626
1.2015628
1.2015628
1.1166039
1.1181159
1.1197348
1.1214649
1.1233102
1.1252747
1.1273616
1.1295737
1.1319134
1.134382
1.13698
1.1397067
1.1425601
1.1455365
1.1486299
1.151832
1.1551315
1.1585134
1.1619587
1.1654438
1.16894
1.1724139
1.1758271
1.179138
1.1823029
1.1852786
1.1880256
1.1905109
1.1927113
1.194615
1.1962228
1.1975474
1.1986111
1.1994437
1.2000785
1.2005498
1.2008904
1.2011297
1.2012929
1.2014005
1.2014691
1.2015109
1.2015353
1.2015487
1.2015557
1.201559
1.2015605
1.201561
1.2015612
1.2015613
1.1165189
1.1180287
1.1196451
1.1213726
1.1232152
1.1251766
1.1272604
1.1294692
1.1318054
1.1342703
1.1368644
1.1395872
1.1424366
1.1454088
1.1484982
1.1516965
1.1549923
1.1583711
1.1618139
1.1652973
1.1687929
1.1722674
1.175683
1.1789979
1.1821687
1.1851521
1.1879086
1.1904048
1.1926171
1.1945332
1.1961534
1.1974897
1.1985643
1.1994065
1.2000495
1.2005277
1.2008738
1.2011174
1.2012838
1.2013939
1.2014642
1.2015073
1.2015325
1.2015465
1.2015538
1.2015573
1.2015589
1.2015595
1.2015597
1.2015598
1.1164355
1.1179431
1.1195571
1.121282
1.1231219
1.1250805
1.1271611
1.1293667
1.1316994
1.1341607
1.1367511
1.13947
1.1423154
1.1452836
1.148369
1.1515635
1.1548558
1.1582314
1.1616717
1.1651533
1.1686483
1.1721235
1.1755412
1.17886
1.1820365
1.1850276
1.1877933
1.1903001
1.192524
1.1944523
1.1960846
1.1974325
1.1985178
1.1993695
1.2000206
1.2005056
1.2008571
1.201105
1.2012747
1.2013873
1.2014593
1.2015037
1.2015297
1.2015443
1.2015519
1.2015556