/*--------------------------------*- C++ -*----------------------------------*\
| =========                 |                                                 |
| \\      /  F ield         | OpenFOAM: The Open Source CFD Toolbox           |
|  \\    /   O peration     | Version:  4.0                                   |
|   \\  /    A nd           | Web:      www.OpenFOAM.org                      |
|    \\/     M anipulation  |                                                 |
\*---------------------------------------------------------------------------*/
FoamFile
{
    version     2.0;
    format      ascii;
    class       surfaceScalarField;
    location    "669";
    object      snGradRho;
}
// * * * * * * * * * * * * * * * * * * * * * * * * * * * * * * * * * * * * * //

dimensions      [1 -4 0 0 0 0 0];

internalField   nonuniform List<scalar> 
9850
(
24.256086
-0.65794556
23.480808
-0.67572712
22.582204
-0.69384258
21.557933
-0.71155868
20.40968
-0.72794915
19.143942
-0.74190349
17.772608
-0.75215779
16.313224
-0.75735234
14.788801
-0.7561188
13.227096
-0.74719543
11.659318
-0.72956355
10.118333
-0.7025917
8.6365098
-0.66616774
7.2434609
-0.62079477
5.963969
-0.56762674
4.8163827
-0.50842551
3.811701
-0.44543269
2.9534431
-0.38116681
2.2382637
-0.31817326
1.657149
-0.25876817
1.1969583
-0.20482056
0.84205588
-0.15760961
0.57568893
-0.11777611
0.38129759
-0.085358038
0.24414804
-0.059895749
0.15063627
-0.040617013
0.089225389
-0.026559098
0.050531619
-0.016702829
0.027242398
-0.010074677
0.013915716
-0.0058135207
0.0067021278
-0.0032054506
0.0030279565
-0.0016931591
0.0012765144
-0.00086700574
0.0004994432
-0.00044438135
0.00018034897
-0.00024323543
5.9760225e-05
-0.00015476098
1.8061017e-05
-0.00011903999
4.9452071e-06
-0.00010588897
1.2181488e-06
-0.00010149886
2.711206e-07
-0.00010017248
6.1748962e-08
-9.9804647e-05
2.6532309e-08
-9.9702971e-05
2.7496598e-08
-9.9665636e-05
3.5782787e-08
-9.9640264e-05
4.4094355e-08
-9.9614426e-05
5.7299325e-08
-9.9587884e-05
2.7936439e-08
-9.9571162e-05
-1.2103093e-07
-9.9647348e-05
-1.2297706e-06
-0.00010012861
-0.00010152159
21.556267
-0.2796568
20.980526
-0.28732836
20.359496
-0.29547544
19.688627
-0.30400984
18.962997
-0.31279095
18.177569
-0.32161188
17.327606
-0.33018557
16.409284
-0.33813318
15.420477
-0.34497807
14.361691
-0.3501495
13.237037
-0.35300079
12.055126
-0.35284605
10.829673
-0.34901734
9.5796188
-0.34094079
8.3285866
-0.32822435
7.1035615
-0.31074464
5.9328393
-0.28871534
4.8434543
-0.26271869
3.858477
-0.23368554
2.9946726
-0.20281906
2.2609858
-0.17147033
1.6581497
-0.1409873
1.1794434
-0.112566
0.81237233
-0.087132386
0.54084691
-0.065274772
0.34730743
-0.047234157
0.21457269
-0.032940522
0.12715788
-0.022081741
0.072023601
-0.014186972
0.038831275
-0.0087089161
0.019835315
-0.0050942052
0.0095499253
-0.0028360888
0.0043094002
-0.0015075431
0.0018116318
-0.00077571303
0.00070501933
-0.00040068371
0.00025232451
-0.0002231052
8.2506964e-05
-0.00014595686
2.4501883e-05
-0.00011542306
6.5893416e-06
-0.00010448922
1.6251871e-06
-0.00010096627
4.0199372e-07
-9.9944335e-05
1.4010437e-07
-9.9669469e-05
9.7657862e-08
-9.9589383e-05
1.0073175e-07
-9.9551509e-05
1.0474633e-07
-9.951998e-05
9.2035707e-08
-9.949469e-05
-1.1592737e-07
-9.9509324e-05
-9.4714508e-07
-9.969283e-05
-3.4034138e-06
-0.00010041941
-0.00010197685
20.391474
-0.16333377
19.856073
-0.16781311
19.288748
-0.1726016
18.687155
-0.17767966
18.048509
-0.18300863
17.369578
-0.18852396
16.646756
-0.1941272
15.876248
-0.199677
15.054397
-0.20497997
14.178213
-0.20978291
13.246089
-0.21376877
12.258712
-0.2165595
11.220064
-0.21772944
10.138368
-0.21683263
9.0267618
-0.21344566
7.903414
-0.20722435
6.7908761
-0.19796789
5.714543
-0.1856786
4.7003289
-0.17060276
3.7719019
-0.15323779
2.9480042
-0.13429779
2.2404345
-0.11463913
1.6531193
-0.095159482
1.1824202
-0.076691424
0.81849116
-0.059912903
0.54727633
-0.045290571
0.35266945
-0.033061606
0.21842718
-0.023249898
0.1295934
-0.01570617
0.073363531
-0.010159908
0.039445468
-0.006272827
0.020037969
-0.0036867732
0.009561243
-0.0020619963
0.0042581602
-0.0011037831
0.0017580937
-0.00057692245
0.00066821489
-0.0003088178
0.00023213637
-0.00018352338
7.3209014e-05
-0.00013017272
2.0855623e-05
-0.00010963628
5.3871016e-06
-0.00010254077
1.3217914e-06
-0.00010034979
3.8372423e-07
-9.9740278e-05
2.0238992e-07
-9.9577506e-05
1.7998818e-07
-9.9524282e-05
1.6253704e-07
-9.949784e-05
6.1637021e-08
-9.9494202e-05
-4.6244565e-07
-9.9573954e-05
-2.1943678e-06
-9.9879832e-05
-5.8336836e-06
-0.00010071263
-0.00010194207
19.711363
-0.11607101
19.19517
-0.11925166
18.651641
-0.12266075
18.079395
-0.12629369
17.476721
-0.13013608
16.841523
-0.13415971
16.17132
-0.13831764
15.463286
-0.14253825
14.714402
-0.14671848
13.921726
-0.1507169
13.082845
-0.1543476
12.196502
-0.15737661
11.263412
-0.15952335
10.287189
-0.16046976
9.2752533
-0.15988025
8.2395031
-0.15743375
7.1964921
-0.15286712
6.1668672
-0.14602509
5.1739408
-0.13690733
4.2414815
-0.12570077
3.3910659
-0.11278508
2.6395261
-0.098704833
1.9970686
-0.084110131
1.4664794
-0.069677302
1.0435282
-0.056027208
0.71836037
-0.043658687
0.47745003
-0.032908765
0.30563819
-0.023942703
0.18787998
-0.016769121
0.11049781
-0.011271319
0.061903526
-0.007245671
0.032864576
-0.004440088
0.016437683
-0.00258833
0.0076951701
-0.0014378215
0.0033480053
-0.00076959427
0.0013436507
-0.00040953688
0.00049357869
-0.00023100941
0.00016469298
-0.00015023622
4.9589012e-05
-0.00011717183
1.3452502e-05
-0.00010502723
3.3614371e-06
-0.0001010534
8.7887303e-07
-9.9898093e-05
3.4956777e-07
-9.9594726e-05
2.4645919e-07
-9.951688e-05
1.7084934e-07
-9.9500703e-05
-1.0402828e-07
-9.9528817e-05
-1.0400411e-06
-9.9676012e-05
-3.6239218e-06
-0.00010007157
-7.7521263e-06
-0.00010089825
-0.00010186575
19.228436
-0.088444079
18.724651
-0.090864698
18.195843
-0.093460665
17.641178
-0.096230821
17.05958
-0.099167955
16.449676
-0.10225635
15.809753
-0.10546865
15.137757
-0.10876193
14.431357
-0.11207314
13.688094
-0.11531393
12.905663
-0.11836549
12.082353
-0.12107422
11.217666
-0.12324977
10.313092
-0.12466714
9.3729717
-0.12507555
8.4053106
-0.12421584
7.4223179
-0.1218477
6.4404295
-0.11778537
5.4795885
-0.11193719
4.5617002
-0.10434106
3.7084026
-0.095185433
2.9385368
-0.084807163
2.2658657
-0.073661991
1.6975745
-0.062271642
1.2338792
-0.051158631
0.8687525
-0.040783691
0.59147609
-0.03149914
0.38857004
-0.023525494
0.24565729
-0.016951323
0.14895586
-0.011750738
0.086268041
-0.0078106267
0.047483057
-0.0049606728
0.024694094
-0.0030015774
0.012054394
-0.0017292619
0.0054832143
-0.00095411601
0.0023060545
-0.0005146244
0.00088940378
-0.00028472168
0.00031198537
-0.00017475965
9.8768837e-05
-0.00012711014
2.8080909e-05
-0.00010857278
7.2274874e-06
-0.00010215315
1.8017049e-06
-0.00010018725
5.6483466e-07
-9.9655641e-05
2.8712384e-07
-9.95294e-05
1.0660658e-07
-9.9519118e-05
-4.0979139e-07
-9.9579256e-05
-1.7869791e-06
-9.9782829e-05
-5.0429725e-06
-0.00010023995
-9.2618399e-06
-0.00010102746
-0.00010180688
18.860908
-0.071558979
18.366358
-0.073515587
17.848292
-0.075615186
17.306202
-0.07785839
16.739398
-0.080241639
16.146947
-0.082755436
15.527626
-0.08538208
14.879901
-0.088092817
14.201945
-0.090844395
13.49173
-0.093575118
12.747215
-0.096200656
11.966671
-0.098610145
11.149155
-0.10066348
10.295146
-0.10219111
9.4073102
-0.10299815
8.4912943
-0.10287453
7.556398
-0.10161278
6.6158938
-0.099033546
5.6867654
-0.095016767
4.7886957
-0.089533423
3.9423053
-0.082670344
3.1668749
-0.074639677
2.4779997
-0.065767029
1.8857169
-0.056457665
1.393549
-0.047146841
0.99864398
-0.038245513
0.6928811
-0.030093794
0.46457225
-0.022931279
0.3003111
-0.016887405
0.18659675
-0.011989249
0.11101789
-0.008180706
0.062948899
-0.0053464323
0.033824631
-0.0033356334
0.017111109
-0.0019830699
0.0080894832
-0.0011264059
0.0035454116
-0.00061962948
0.0014282673
-0.00034211578
0.00052425029
-0.00020277438
0.00017383627
-0.00013924834
5.1712733e-05
-0.00011320808
1.3806077e-05
-0.00010370124
3.4188483e-06
-0.00010063692
9.1392636e-07
-9.977261e-05
3.1297139e-07
-9.956741e-05
-3.0815864e-08
-9.9555896e-05
-8.3266598e-07
-9.9645824e-05
-2.6501607e-06
-9.9892592e-05
-6.3947953e-06
-0.00010038225
-1.0478061e-05
-0.00010110489
-0.00010170819
18.563831
-0.059733723
18.076573
-0.061365419
17.566854
-0.063116764
17.034397
-0.064988965
16.478786
-0.066980171
15.89941
-0.069084168
15.295405
-0.071288686
14.665626
-0.073573253
14.00864
-0.075906552
13.322779
-0.078243325
12.606272
-0.080520952
11.857488
-0.08265605
11.075315
-0.084541681
10.259686
-0.086046126
9.412248
-0.087014513
8.5371067
-0.087274862
7.6415272
-0.086649987
6.7364103
-0.084976013
5.836318
-0.08212673
4.958852
-0.07804073
4.1232983
-0.072745805
3.3486544
-0.066373611
2.6513774
-0.05915824
2.0433485
-0.051415767
1.5305401
-0.043507385
1.1126871
-0.035793925
0.78397053
-0.028592407
0.53444384
-0.022144015
0.35178663
-0.016598628
0.22298073
-0.012015694
0.13563156
-0.0083771751
0.078822909
-0.0056067686
0.043531053
-0.0035902799
0.022699613
-0.0021940762
0.011094764
-0.0012804755
0.0050414294
-0.00072001616
0.002111103
-0.00040060891
0.00080724064
-0.00023316978
0.00027928686
-0.00015326026
8.6709159e-05
-0.00011890125
2.4060348e-05
-0.00010572718
6.0480612e-06
-0.00010126777
1.481361e-06
-9.995153e-05
3.4191597e-07
-9.9629141e-05
-2.3631204e-07
-9.9605895e-05
-1.3452669e-06
-9.9720292e-05
-3.5747976e-06
-9.9996976e-05
-7.6352368e-06
-0.00010049404
-1.1419467e-05
-0.0001011401
-0.00010158224
18.316087
-0.051203288
17.834854
-0.052600763
17.331962
-0.054101032
16.807303
-0.055705627
16.26066
-0.057413717
15.691654
-0.059221091
15.099693
-0.061118831
14.483924
-0.063091605
13.843222
-0.065115564
13.176215
-0.067155835
12.481379
-0.069163692
11.757222
-0.071073626
11.002596
-0.072800744
10.217136
-0.074239163
9.4018491
-0.075262417
8.559795
-0.075727125
7.6967779
-0.075481217
6.821898
-0.074377687
5.9477595
-0.072293744
5.0901291
-0.069153611
4.2669131
-0.064950987
3.4964802
-0.059765512
2.7955733
-0.053767258
2.1772369
-0.047205347
1.6492499
-0.040380953
1.2134368
-0.033609895
0.86597809
-0.02718343
0.59855256
-0.021336166
0.39994945
-0.016227214
0.25774043
-0.011936073
0.15969059
-0.0084706612
0.094741837
-0.005782618
0.05355065
-0.0037849578
0.028659547
-0.0023686193
0.014418395
-0.001416372
0.0067632864
-0.00081392775
0.0029316302
-0.00045853619
0.0011632147
-0.00026501989
0.00041842438
-0.00016879668
0.00013520532
-0.00012558304
3.8983107e-05
-0.00010824573
1.0052025e-05
-0.00010209963
2.372855e-06
-0.00010020123
4.0035233e-07
-9.9715292e-05
-4.977222e-07
-9.9665716e-05
-1.9200119e-06
-9.979656e-05
-4.513408e-06
-0.00010009173
-8.7442428e-06
-0.00010057901
-1.2109385e-05
-0.00010114798
-0.00010145156
18.103904
-0.044708757
17.627788
-0.045927981
17.130646
-0.047237055
16.612498
-0.048637625
16.073284
-0.050129453
15.51281
-0.051709608
14.930691
-0.053371382
14.326311
-0.055102917
13.698793
-0.056885478
13.047012
-0.058691384
12.369658
-0.060481619
11.665385
-0.062203306
10.933068
-0.063787308
10.172175
-0.065146512
9.3832877
-0.066175552
8.5687236
-0.066753003
7.7332006
-0.066747202
6.8844231
-0.066026654
6.0334035
-0.064475315
5.1943248
-0.062011726
4.3837819
-0.058609184
3.6193701
-0.05431241
2.9177824
-0.049245385
2.2927734
-0.043606103
1.7534561
-0.037647109
1.3033435
-0.031644984
0.94034078
-0.025865579
0.65761577
-0.020533096
0.44504577
-0.015809458
0.29084639
-0.011786651
0.18303435
-0.008490838
0.11051213
-0.00589436
0.063714741
-0.0039310511
0.034871594
-0.0025112574
0.017991004
-0.0015346264
0.0086791273
-0.00090026973
0.0038799474
-0.00051465847
0.0015918616
-0.00029751811
0.00059341889
-0.00018549564
0.00019902717
-0.00013315191
5.9550108e-05
-0.00011125407
1.5826895e-05
-0.00010314768
3.7166055e-06
-0.0001005313
5.249731e-07
-9.9828757e-05
-7.9671466e-07
-9.9734707e-05
-2.5331517e-06
-9.9872254e-05
-5.4335443e-06
-0.00010017584
-9.7209131e-06
-0.00010064141
-1.2583103e-05
-0.00010113456
-0.00010131738
17.918787
-0.039629579
17.447111
-0.040709463
16.954927
-0.041869047
16.442357
-0.043110011
15.909466
-0.044432497
15.356203
-0.045834434
14.782355
-0.047310644
14.187497
-0.048851701
13.570955
-0.050442491
12.931812
-0.052060457
12.268947
-0.053673574
11.581158
-0.055238129
10.867369
-0.056696565
10.12696
-0.057975758
9.3602232
-0.058986364
8.5689342
-0.059624093
7.7569828
-0.059773881
6.9309683
-0.059317909
6.1005954
-0.058147953
5.2786841
-0.056181509
4.4806215
-0.053379726
3.7231814
-0.049763506
3.0228084
-0.045423123
2.3936587
-0.040517147
1.8458286
-0.035258682
1.3841977
-0.029890595
1.0081567
-0.024655001
0.71222448
-0.019764119
0.48732211
-0.0153789
0.32233213
-0.011598918
0.20558294
-0.0084633754
0.12601123
-0.0059602749
0.073903627
-0.0040396734
0.041242711
-0.0026273811
0.02175286
-0.0016368888
0.010757876
-0.00097882414
0.0049440331
-0.00056821732
0.0020908897
-0.00033003361
0.00080538593
-0.0002030206
0.00027963714
-0.00014148976
8.6676932e-05
-0.00011473488
2.3785861e-05
-0.0001044211
5.6593261e-06
-0.00010094977
7.6138992e-07
-9.9972125e-05
-1.111024e-06
-9.9812153e-05
-3.1637771e-06
-9.9945583e-05
-6.3126972e-06
-0.00010024855
-1.0567428e-05
-0.00010068437
-1.2868378e-05
-0.00010110337
-0.00010117923
17.754825
-0.035547547
17.287066
-0.036515488
16.799232
-0.037554945
16.29153
-0.038667583
15.764123
-0.039853786
15.217083
-0.041112083
14.650337
-0.042438399
14.063616
-0.043825086
13.456421
-0.0452597
12.828009
-0.0467235
12.177429
-0.048189695
11.503608
-0.04962149
10.805537
-0.050970136
10.082554
-0.052173263
9.334751
-0.053154022
8.5634956
-0.053821747
7.7720325
-0.054074972
6.9660708
-0.053807717
6.1542281
-0.052919562
5.3481487
-0.051329353
4.5621229
-0.048991084
3.8121055
-0.045909088
3.1141773
-0.042148521
2.4826842
-0.037837116
1.9284432
-0.033155743
1.457444
-0.028318391
1.0703566
-0.023545518
0.76292081
-0.019036944
0.52704657
-0.01495043
0.35228677
-0.011389895
0.22732061
-0.0084039642
0.14117319
-0.0059927324
0.084038681
-0.0041191642
0.047704252
-0.0027216082
0.025655309
-0.0017250063
0.012971371
-0.0010498202
0.0061112407
-0.00061879685
0.0026566963
-0.00036209951
0.0010545563
-0.00022107883
0.00037812677
-0.00015047539
0.00012119045
-0.00011866138
3.4345554e-05
-0.0001059244
8.3627806e-06
-0.00010146367
1.1635209e-06
-0.00010014823
-1.4159269e-06
-9.9897772e-05
-3.793127e-06
-0.0001000156
-7.1356503e-06
-0.00010031007
-1.1286672e-05
-0.00010071131
-1.2986743e-05
-0.00010105915
-0.00010104153
17.60786
-0.032200768
17.143601
-0.033076964
16.659638
-0.03401795
16.156246
-0.035025356
15.633672
-0.036099723
15.09209
-0.037240013
14.531544
-0.038442966
13.951898
-0.039702271
13.3528
-0.041007509
12.733661
-0.042342851
12.093676
-0.043685525
11.431896
-0.045004088
10.747383
-0.046256649
10.039461
-0.047389293
9.3080807
-0.048335111
8.5543014
-0.049014449
7.7808534
-0.049337104
6.9927183
-0.0492073
6.1975994
-0.048532013
5.4061214
-0.047232678
4.6315841
-0.045259275
3.8891506
-0.042604476
3.194473
-0.039314445
2.5619395
-0.035492491
2.0028898
-0.031292952
1.5242169
-0.026905053
1.1276945
-0.022529713
0.81016389
-0.018354546
0.56446482
-0.014532833
0.38081214
-0.011170633
0.24826046
-0.008323401
0.15596385
-0.0060007025
0.094067983
-0.0041759495
0.05420565
-0.0027978058
0.029659291
-0.0018007707
0.015294927
-0.0011137013
0.0073691735
-0.00066619927
0.0032849031
-0.00039337326
0.0013404664
-0.00023941859
0.00049523999
-0.00015998868
0.00016381282
-0.00012299944
4.7914972e-05
-0.00010765772
1.2000356e-05
-0.00010207899
1.7931022e-06
-0.00010036031
-1.6851739e-06
-9.9992082e-05
-4.4048251e-06
-0.00010008228
-7.8933228e-06
-0.00010036139
-1.1883754e-05
-0.00010072542
-1.2959242e-05
-0.00010100596
-0.00010090793
17.474825
-0.029408677
17.013727
-0.030208358
16.533246
-0.031067209
16.033716
-0.031986811
15.515456
-0.032967807
14.978723
-0.034009477
14.423663
-0.035109183
13.850254
-0.036261641
13.258272
-0.037458005
12.647261
-0.038684727
12.016546
-0.039922195
11.365292
-0.041143198
10.692635
-0.042311307
9.9979022
-0.043379384
9.2809466
-0.044288571
8.5425862
-0.044968251
7.7851377
-0.045337646
7.0129791
-0.045309794
6.2330375
-0.044798487
5.455048
-0.043728346
4.6914172
-0.042047326
3.9565555
-0.039739836
3.2656531
-0.036837482
2.6330374
-0.03342403
2.0704194
-0.029631773
1.5854282
-0.025628637
1.1807923
-0.021598011
0.85434568
-0.017715826
0.59979873
-0.014130154
0.40801247
-0.01094767
0.26843146
-0.0082287616
0.17036914
-0.0059904914
0.10395798
-0.0042148363
0.060709874
-0.002859074
0.033733744
-0.0018657736
0.017707316
-0.0011709874
0.008706144
-0.0007103635
0.0039707271
-0.00042360735
0.0016621195
-0.0002578262
0.00063140415
-0.00016991391
0.00021515158
-0.00012770956
6.4885331e-05
-0.00010961698
1.6752978e-05
-0.00010280024
2.7187339e-06
-0.00010061164
-1.8912973e-06
-0.00010009607
-4.9845971e-06
-0.00010014607
-8.5807362e-06
-0.0001004037
-1.236531e-05
-0.00010072919
-1.2806267e-05
-0.00010094664
-0.00010078027
17.353407
-0.027045643
16.895189
-0.027780588
16.41787
-0.028569938
15.921835
-0.029415223
15.407463
-0.03031715
14.875086
-0.03127524
14.324935
-0.032287332
13.757089
-0.033348955
13.171434
-0.034452508
12.567631
-0.035586261
11.945124
-0.036733134
11.30318
-0.037869325
10.641008
-0.038962826
9.9579533
-0.039972029
9.2537988
-0.040844693
8.529174
-0.041517717
7.7860569
-0.041918288
7.02832
-0.041967077
6.2622245
-0.041584087
5.4967255
-0.040697367
4.7434228
-0.039254155
4.0160178
-0.037232972
3.3292253
-0.034654157
2.69724
-0.031585646
2.1320275
-0.028141314
1.6418169
-0.024470682
1.230164
-0.020741443
0.89579867
-0.017118472
0.63324399
-0.013744292
0.4339869
-0.010725142
0.28786926
-0.0081249233
0.18438684
-0.0059666814
0.11368735
-0.0042394981
0.067189734
-0.0029079242
0.037853958
-0.0019214116
0.020190442
-0.0012222199
0.010111378
-0.00075132103
0.0047092347
-0.00045263058
0.0020181222
-0.00027612428
0.00078676612
-0.00018014295
0.00027569568
-0.00013274902
8.5621668e-05
-0.00011179453
2.2805059e-05
-0.00010363049
4.0147595e-06
-0.00010090539
-2.0055452e-06
-0.00010021108
-5.519765e-06
-0.00010020769
-9.1953668e-06
-0.0001004383
-1.2738573e-05
-0.00010072474
-1.2546667e-05
-0.00010088355
-0.00010066035
17.241819
-0.025020844
16.786243
-0.025700334
16.311819
-0.026430143
15.818971
-0.027211745
15.308135
-0.028045888
14.779706
-0.028932275
14.233989
-0.029869125
13.671151
-0.030852611
13.091176
-0.031876141
12.493831
-0.032929454
11.878662
-0.033997538
11.245035
-0.035059376
10.592227
-0.0360866
9.9196091
-0.037042172
9.2269168
-0.037879366
8.5146299
-0.038541399
7.7844466
-0.038962249
7.0398109
-0.03906925
6.2864089
-0.038788027
5.5325071
-0.03805009
4.7889757
-0.036802802
4.0688516
-0.035020522
3.3863732
-0.032714771
2.7555523
-0.029940573
2.1885183
-0.026796261
1.6939892
-0.023415401
1.2762392
-0.019951609
0.93480665
-0.01655944
0.66497273
-0.013375722
0.45882745
-0.010505531
0.30661208
-0.00801521
0.19802188
-0.0059326017
0.12324315
-0.0042527374
0.073625314
-0.0029463695
0.042000298
-0.0019688819
0.022728959
-0.0012679228
0.011575096
-0.00078915748
0.0054955198
-0.00048032816
0.0024068006
-0.00029416639
0.00096123187
-0.00019057603
0.00034581673
-0.00013807334
0.00011045645
-0.00011417969
3.0340736e-05
-0.00010457135
5.7600735e-06
-0.00010124453
-1.9977804e-06
-0.00010033879
-5.9988056e-06
-0.00010026818
-9.7362679e-06
-0.00010046656
-1.3011176e-05
-0.00010071398
-1.2198381e-05
-0.00010081878
-0.00010054987
17.13865
-0.023267275
16.685516
-0.023898751
16.213757
-0.024577005
15.723839
-0.025303453
15.216241
-0.02607887
14.691416
-0.026903097
14.149736
-0.027774657
13.591445
-0.028690249
13.016613
-0.029644103
12.425101
-0.030627168
11.81655
-0.031626137
11.190413
-0.032622307
10.546038
-0.033590337
9.8828235
-0.03449702
9.2004739
-0.035300274
8.4993494
-0.035948694
7.780915
-0.036382101
7.0482485
-0.036533652
6.3065354
-0.036334052
5.5634311
-0.035718207
4.8291442
-0.034634147
4.116091
-0.03305331
3.4380399
-0.030980284
2.8087853
-0.028459458
2.2405496
-0.025575996
1.7424479
-0.022449542
1.3193792
-0.0192211
0.97161277
-0.016035607
0.69513604
-0.013024224
0.48261813
-0.010290346
0.32469806
-0.0079019447
0.21128337
-0.0058907168
0.13261805
-0.0042567127
0.080002019
-0.0029760267
0.046157119
-0.0020091946
0.025309881
-0.0013085767
0.013088499
-0.0008239865
0.0063248173
-0.00050662535
0.0028262919
-0.00031183179
0.0011545039
-0.00020112179
0.00042577324
-0.00014363723
0.00013968474
-0.00011675912
3.9540338e-05
-0.00010562294
8.0368707e-06
-0.00010163173
-1.836415e-06
-0.00010048106
-6.4108995e-06
-0.00010032876
-1.0203479e-05
-0.00010048983
-1.3191068e-05
-0.00010069852
-1.1778771e-05
-0.000100754
-0.00010044993
17.042772
-0.021734399
16.591904
-0.022323914
16.122615
-0.022957109
15.635404
-0.023635345
15.130792
-0.024359409
14.609279
-0.025129252
14.0713
-0.025943643
13.517165
-0.026799713
12.947023
-0.02769237
12.360818
-0.028613574
11.758279
-0.029551444
11.13894
-0.030489216
10.502212
-0.031404104
9.8475292
-0.032266138
9.1745747
-0.033037196
8.483613
-0.033670483
7.775913
-0.034110882
7.0542372
-0.034296681
6.3233319
-0.034163179
5.5903082
-0.033648534
4.8647727
-0.032701805
4.1585624
-0.031292417
3.4849878
-0.02941947
2.8576021
-0.027118539
2.2886656
-0.024463537
1.787614
-0.021561932
1.3598908
-0.018543397
1.0064266
-0.015543945
0.72386681
-0.012689177
0.50543514
-0.01008046
0.34216416
-0.0077867561
0.22418282
-0.0058428718
0.14180866
-0.0042531164
0.086309212
-0.0029982164
0.050311917
-0.0020432169
0.027922205
-0.0013446273
0.014643712
-0.00085594037
0.0071925669
-0.00053148001
0.0032746143
-0.00032902255
0.0013661151
-0.00021169784
0.00051571683
-0.00014939572
0.00017356067
-0.00011951741
5.0577146e-05
-0.00010678395
1.0929383e-05
-0.00010206926
-1.4884012e-06
-0.00010063982
-6.7454882e-06
-0.00010039077
-1.0597541e-05
-0.00010050939
-1.3286305e-05
-0.00010067971
-1.1304298e-05
-0.00010069052
-0.00010036108
16.953264
-0.020383458
16.504511
-0.020936003
16.037522
-0.021529494
15.552825
-0.022165241
15.05098
-0.022844036
14.532531
-0.023565917
13.997963
-0.024329851
13.447651
-0.025133329
12.881812
-0.02597183
12.300467
-0.026838164
11.703424
-0.027721651
11.090292
-0.028607176
10.460545
-0.029474121
9.8136496
-0.030295291
9.1492799
-0.031035962
8.4676228
-0.031653321
7.7697805
-0.032096675
7.0582427
-0.032308848
6.3373683
-0.032229297
5.6137805
-0.031799272
4.8965371
-0.030969075
4.1969346
-0.029706804
3.5278404
-0.028007188
2.9025511
-0.02589846
2.3333211
-0.023444869
1.8298435
-0.020743186
1.3980363
-0.017912877
1.0394298
-0.01508168
0.75128225
-0.012369809
0.52734748
-0.0098763697
0.35904543
-0.0076708286
0.23673295
-0.0057904915
0.15081422
-0.0042432993
0.092539213
-0.0030140238
0.054454686
-0.0020716902
0.030556613
-0.0013764803
0.016233714
-0.00088516138
0.0080944569
-0.00055487531
0.0037497232
-0.00034566106
0.0015954607
-0.00022223077
0.00061570011
-0.00015530496
0.0002122955
-0.00012243756
6.361458e-05
-0.00010805173
1.4522653e-05
-0.00010255889
-9.1929198e-07
-0.000100817
-6.9919054e-06
-0.00010045557
-1.0919148e-05
-0.00010052643
-1.3304864e-05
-0.0001006587
-1.0790233e-05
-0.00010062937
-0.00010028347
16.86937
-0.01918421
16.422597
-0.019703942
15.957759
-0.020262193
15.47541
-0.020860224
14.976141
-0.021498824
14.460537
-0.022178099
13.929131
-0.022897183
13.382354
-0.023653869
12.820485
-0.024444118
12.243615
-0.02526146
11.651625
-0.026096244
11.044193
-0.026934762
10.420852
-0.027758263
9.7811052
-0.028541938
9.1246214
-0.029254007
8.4515252
-0.029855133
7.7627776
-0.030298503
7.0606295
-0.030530974
6.3490968
-0.030495768
5.6343635
-0.030137052
4.9249858
-0.029406505
4.2317557
-0.028271398
3.5671134
-0.026722984
2.9440903
-0.024783323
2.3748999
-0.022508348
1.8694397
-0.019985376
1.4340421
-0.01732466
1.070781
-0.014646286
0.77748622
-0.012065273
0.54841758
-0.0096783276
0.37537484
-0.0075550303
0.24894707
-0.0057346899
0.15963588
-0.004228361
0.098686588
-0.003024367
0.058577413
-0.0020952648
0.033205209
-0.0014045095
0.017852265
-0.00091179764
0.0090264466
-0.00057681408
0.0042495567
-0.00036168697
0.0018418268
-0.00023265607
0.00072568592
-0.000161323
0.0002560568
-0.00012550151
7.8803834e-05
-0.00010942245
1.8901343e-05
-0.00010310188
-9.3380727e-08
-0.00010101446
-7.1391056e-06
-0.00010052457
-1.1168912e-05
-0.00010054207
-1.3254524e-05
-0.00010063648
-1.0250488e-05
-0.00010057136
-0.00010021693
16.790458
-0.018112742
16.345548
-0.018603164
15.882729
-0.019129935
15.402579
-0.01969427
14.905718
-0.020296952
14.39277
-0.020938139
13.864308
-0.021617107
13.320814
-0.022331901
12.762626
-0.023078894
12.189898
-0.023852236
11.602576
-0.024643158
11.000405
-0.025439168
10.382972
-0.02622313
9.7498175
-0.026972308
9.1006111
-0.027657488
8.4354271
-0.028242384
7.7551047
-0.028683612
7.0616858
-0.028931634
6.3588804
-0.028933088
5.652476
-0.028634873
4.9505686
-0.027990121
4.263479
-0.026965655
3.6032376
-0.025549954
2.9826054
-0.02375989
2.4137284
-0.021644161
1.9066633
-0.019281717
1.4681044
-0.016774486
1.1006194
-0.014235469
0.80257102
-0.011774704
0.56870198
-0.0094864103
0.39118321
-0.0074399914
0.2608386
-0.0056763446
0.16827612
-0.004209199
0.10474765
-0.0030300157
0.062673724
-0.0021145049
0.035861315
-0.0014290582
0.019493835
-0.00093600102
0.0099847763
-0.00059731661
0.00477207
-0.00037705594
0.002104417
-0.00024291803
0.00084555715
-0.0001674103
0.00030496886
-0.00012869055
9.6281972e-05
-0.00011089118
2.4148596e-05
-0.00010369894
1.0260906e-06
-0.00010123395
-7.1754706e-06
-0.00010059915
-1.1347187e-05
-0.00010055737
-1.3142734e-05
-0.0001006139
-9.6974281e-06
-0.00010051706
-0.00010016093
16.715996
-0.017149897
16.272843
-0.017613984
15.811926
-0.018112473
15.333844
-0.018646529
14.839245
-0.019216928
14.328783
-0.019823874
13.803074
-0.020466755
13.262643
-0.021143836
12.707882
-0.021851845
12.139003
-0.022585463
11.556013
-0.023336689
10.958719
-0.024094086
10.34676
-0.024841926
9.7197113
-0.025559287
9.0772492
-0.026219212
8.4194068
-0.026788099
7.7469186
-0.027225614
7.0616422
-0.02748545
6.3670139
-0.027517355
5.6684613
-0.027270791
4.9736577
-0.026700363
4.2924833
-0.025772736
3.6365758
-0.02447418
3.0184245
-0.022817164
2.4500863
-0.020844104
1.9417396
-0.018626504
1.5003944
-0.016258747
1.1290676
-0.013847254
0.82661908
-0.011497326
0.58825194
-0.0093006492
0.40649924
-0.0073262113
0.27242081
-0.0056161725
0.17673832
-0.0041865667
0.11072004
-0.003031634
0.066738553
-0.0021299153
0.038519282
-0.0014504461
0.021153542
-0.00095792423
0.010965975
-0.00061641588
0.0053152643
-0.00039173763
0.0023823748
-0.00025296963
0.000975127
-0.00017353035
0.00035911404
-0.00013198584
0.00011617052
-0.00011245215
3.034499e-05
-0.00010435024
2.4766716e-06
-0.00010147701
-7.0886846e-06
-0.00010068066
-1.1453938e-05
-0.00010057331
-1.2976503e-05
-0.00010059169
-9.1417074e-06
-0.00010046689
-0.00010011474
16.645532
-0.01628016
16.204042
-0.016720465
15.744922
-0.017193409
15.268791
-0.017700117
14.776321
-0.018241352
14.268197
-0.018817352
13.74507
-0.019427607
13.207508
-0.020070566
12.65595
-0.020743265
12.090662
-0.02144085
11.511709
-0.022155987
10.918953
-0.022878164
10.312085
-0.023592889
9.6907148
-0.024280834
9.0545267
-0.024917033
8.4035212
-0.02547027
7.7383425
-0.025902931
7.0606849
-0.026171616
6.3737387
-0.026228915
5.682604
-0.026026684
4.9945643
-0.025521
4.3190877
-0.024678587
3.6674361
-0.02348395
3.0518283
-0.021945825
2.484215
-0.020101133
1.9748647
-0.018014749
1.5310626
-0.015774188
1.1562345
-0.013479788
0.84970432
-0.011232325
0.60711425
-0.0091209403
0.42134973
-0.0072140392
0.28370666
-0.0055547452
0.18502648
-0.0041610924
0.11660246
-0.003029793
0.070767935
-0.0021419397
0.041174364
-0.0014689658
0.022827087
-0.00097771936
0.011966852
-0.00063415635
0.0058772082
-0.00040571408
0.0026748054
-0.00026277217
0.0011141494
-0.00017964995
0.00041853498
-0.0001353688
0.00013857458
-0.0001140989
3.7567599e-05
-0.00010505543
4.2964019e-06
-0.00010174501
-6.8656772e-06
-0.00010077041
-1.1488645e-05
-0.00010059081
-1.2762284e-05
-0.00010057047
-8.5921942e-06
-0.00010042111
-0.00010007749
16.57868
-0.015490823
16.138767
-0.015909547
15.681349
-0.016359312
15.207064
-0.0168412
14.716606
-0.017355965
14.210687
-0.017903871
13.68999
-0.018484492
13.155123
-0.019096439
12.606569
-0.019737016
12.044644
-0.020401774
11.469466
-0.021083968
10.880949
-0.021773898
10.278832
-0.022458161
9.6627607
-0.023118844
9.0324293
-0.023732745
8.3878119
-0.024270779
7.7294744
-0.024697769
7.0589658
-0.024972944
6.3792543
-0.025051493
5.6951414
-0.024887505
5.0135504
-0.02443851
4.3435629
-0.023671454
3.6960821
-0.022569445
3.0830588
-0.021138038
2.5163244
-0.019409328
2.0062103
-0.017442251
1.5602417
-0.015318082
1.1822168
-0.013131507
0.87189322
-0.01097901
0.62533137
-0.008947209
0.43575953
-0.0071037657
0.29470868
-0.0054925502
0.19314504
-0.0041333183
0.12239443
-0.0030249941
0.074758799
-0.0021509814
0.043822569
-0.001484894
0.0245107
-0.00099553807
0.012984497
-0.00065059191
0.0064560544
-0.00041897868
0.0029807935
-0.00027229484
0.0012623297
-0.0001857395
0.00048323743
-0.00013882148
0.00016358232
-0.00011582448
4.5889173e-05
-0.00010581366
6.5234848e-06
-0.00010203911
-6.4926174e-06
-0.0001008696
-1.1450238e-05
-0.00010061076
-1.2505896e-05
-0.00010055082
-8.0559913e-06
-0.00010037986
-0.00010004822
16.515104
-0.014771387
16.076691
-0.015170446
15.62089
-0.015599087
15.148356
-0.016058355
14.659803
-0.016548991
14.155968
-0.017071281
13.637566
-0.01762487
13.105239
-0.018208511
12.559511
-0.018819742
12.000745
-0.019454473
11.429108
-0.020106475
10.844564
-0.020766771
10.246898
-0.021422922
9.6357865
-0.022058272
9.0109391
-0.0226512
8.3723085
-0.023174526
7.7203921
-0.023595269
7.0566091
-0.023875041
6.3837269
-0.023971408
5.7062733
-0.023840554
5.0308381
-0.023441429
4.3661405
-0.022741313
3.7227407
-0.021722221
3.1123257
-0.020386986
2.5465976
-0.018763464
2.0359276
-0.016905262
1.5880495
-0.014887948
1.2071012
-0.012800963
0.89324575
-0.010736709
0.64294225
-0.0087793119
0.4497518
-0.0069956005
0.30543898
-0.0054299825
0.20109872
-0.0041037058
0.12809611
-0.0030176757
0.078708824
-0.0021573995
0.046460584
-0.0014984851
0.026201092
-0.0010115292