/*--------------------------------*- C++ -*----------------------------------*\
| =========                 |                                                 |
| \\      /  F ield         | OpenFOAM: The Open Source CFD Toolbox           |
|  \\    /   O peration     | Version:  4.0                                   |
|   \\  /    A nd           | Web:      www.OpenFOAM.org                      |
|    \\/     M anipulation  |                                                 |
\*---------------------------------------------------------------------------*/
FoamFile
{
    version     2.0;
    format      ascii;
    class       volScalarField;
    location    "669";
    object      T;
}
// * * * * * * * * * * * * * * * * * * * * * * * * * * * * * * * * * * * * * //

dimensions      [0 0 0 1 0 0 0];

internalField   nonuniform List<scalar> 
5000
(
307.11551
306.47642
305.79875
305.08504
304.3391
303.56607
302.77252
301.96636
301.15668
300.35352
299.56745
298.80913
298.08875
297.41548
296.797
296.23902
295.74507
295.31638
294.95195
294.64882
294.40239
294.20688
294.05575
293.94219
293.85951
293.8013
293.7618
293.73607
293.72004
293.71054
293.7052
293.70237
293.70096
293.70031
293.70003
293.69992
293.69987
293.69986
293.69986
293.69986
293.69986
293.69986
293.69986
293.69986
293.69986
293.69986
293.69986
293.69986
293.69986
293.69986
309.77539
309.19743
308.58098
307.92562
307.23148
306.49941
305.73121
304.92976
304.09928
303.24549
302.37569
301.49886
300.62549
299.76734
298.93697
298.14708
297.40975
296.73552
296.1326
295.60625
295.15833
294.78734
294.48872
294.25547
294.07899
293.94987
293.85873
293.79682
293.75647
293.73134
293.71643
293.70806
293.70363
293.70142
293.70041
293.69997
293.6998
293.69974
293.69972
293.69971
293.69971
293.69971
293.69971
293.69971
293.69971
293.69971
293.69971
293.69971
293.69971
293.69972
310.91966
310.36882
309.78093
309.15513
308.49095
307.78839
307.04807
306.27139
305.46074
304.61969
303.75319
302.86775
301.9716
301.07464
300.18831
299.32523
298.49861
297.72147
297.00565
296.36092
295.79409
295.30847
294.9037
294.57597
294.3186
294.12293
293.97917
293.87734
293.808
293.76277
293.7346
293.71795
293.70864
293.70376
293.70136
293.70028
293.69982
293.69965
293.69959
293.69957
293.69956
293.69956
293.69956
293.69956
293.69956
293.69956
293.69956
293.69956
293.69957
293.69958
311.59166
311.05687
310.48598
309.87806
309.23243
308.5488
307.82738
307.069
306.27527
305.44878
304.59327
303.71388
302.81728
301.91182
301.00751
300.1159
299.24968
298.4221
297.64614
296.93354
296.29383
295.73348
295.25535
294.85857
294.53884
294.28903
294.10014
293.96219
293.86513
293.79952
293.75709
293.73095
293.71569
293.70729
293.70296
293.70089
293.69998
293.69961
293.69948
293.69943
293.69942
293.69941
293.69941
293.69941
293.69941
293.69941
293.69941
293.69941
293.69942
293.69944
312.07083
311.5475
310.98883
310.39381
309.7617
309.09207
308.38492
307.64077
306.86081
306.04707
305.20259
304.3316
303.43976
302.53426
301.62394
300.71927
299.83212
298.97532
298.16203
297.40482
296.71474
296.10032
295.5668
295.11575
294.74505
294.44931
294.22066
294.04964
293.92617
293.84037
293.78316
293.74672
293.72467
293.71205
293.70527
293.70188
293.70032
293.69965
293.69939
293.6993
293.69928
293.69927
293.69927
293.69926
293.69926
293.69926
293.69927
293.69927
293.69928
293.6993
312.4368
311.92226
311.37294
310.78782
310.16612
309.50731
308.81128
308.07835
307.30947
306.50629
305.67139
304.80843
303.92233
303.01948
302.10783
301.19694
300.2979
299.42295
298.58506
297.79707
297.07083
296.41617
295.84005
295.34593
294.93355
294.59916
294.33609
294.13561
293.98792
293.88298
293.8113
293.7644
293.73516
293.71788
293.70826
293.70326
293.70085
293.69978
293.69935
293.69919
293.69914
293.69912
293.69912
293.69912
293.69912
293.69912
293.69912
293.69912
293.69914
293.69916
312.73344
312.22602
311.6843
311.10724
310.49402
309.84408
309.1572
308.43359
307.67401
306.87985
306.05337
305.19779
304.31751
303.41828
302.50737
301.5936
300.68734
299.80028
298.94502
298.13441
297.38072
296.69464
296.08438
295.55488
295.10745
294.73979
294.44642
294.21944
294.04945
293.92649
293.84081
293.7835
293.74688
293.72464
293.71188
293.70502
293.70159
293.70001
293.69934
293.69909
293.69901
293.69898
293.69897
293.69897
293.69897
293.69897
293.69897
293.69898
293.699
293.69902
312.98139
312.47994
311.94458
311.37427
310.76817
310.12569
309.44653
308.73082
307.97918
307.19282
306.37374
305.52483
304.65011
303.75482
302.84566
301.93086
301.02016
300.12473
299.25677
298.429
297.65389
296.94266
296.30445
295.74538
295.26806
294.8715
294.55131
294.30043
294.10995
293.9701
293.87104
293.80356
293.75953
293.73217
293.71606
293.70714
293.70254
293.70035
293.69939
293.69901
293.69888
293.69884
293.69883
293.69882
293.69882
293.69882
293.69883
293.69883
293.69885
293.69888
313.19417
312.69785
312.16796
311.60345
311.00348
310.36742
309.69494
308.98609
308.24137
307.46187
306.64938
305.80654
304.93703
304.0457
303.1388
302.22403
301.31062
300.40922
299.53167
298.69048
297.89815
297.1663
296.50471
295.92045
295.41726
294.99524
294.65107
294.37848
294.16911
294.01344
293.90162
293.82426
293.77291
293.74034
293.72074
293.70962
293.70371
293.70081
293.6995
293.69896
293.69876
293.6987
293.69868
293.69868
293.69867
293.69868
293.69868
293.69869
293.69871
293.69874
313.38013
312.88829
312.36318
311.80376
311.20916
310.57873
309.91212
309.20931
308.47072
307.69733
306.89076
306.05345
305.1888
304.30136
303.39696
302.48287
301.56787
300.66217
299.77721
298.92529
298.11886
297.36977
296.68831
296.08232
295.55645
295.11182
294.74603
294.45361
294.22676
294.05623
293.93228
293.84538
293.78681
293.74904
293.72585
293.7124
293.70509
293.70139
293.69967
293.69894
293.69866
293.69856
293.69854
293.69853
293.69853
293.69853
293.69853
293.69855
293.69857
293.6986
313.54509
313.05723
312.53637
311.98146
311.39162
310.76621
310.10483
309.40742
308.67433
307.90643
307.10523
306.27299
305.41288
304.52917
303.62738
302.71439
301.79857
300.88973
299.99896
299.13829
298.32011
297.5564
296.85783
296.23285
295.6869
295.22199
294.83658
294.52595
294.28284
294.09836
293.96285
293.86674
293.80112
293.75816
293.73134
293.71548
293.70666
293.70209
293.6999
293.69894
293.69857
293.69843
293.69839
293.69838
293.69838
293.69838
293.69839
293.6984
293.69843
293.69846
313.69315
313.20886
312.69181
312.14096
311.55542
310.93452
310.27784
309.5853
308.85718
308.09428
307.29799
306.47042
305.61455
304.73443
303.83527
302.92363
302.00753
301.09639
300.201
299.33312
298.50502
297.72875
297.01527
296.37352
295.80964
295.32641
294.92309
294.59564
294.33737
294.13972
293.99321
293.88823
293.81572
293.76763
293.73716
293.71882
293.70841
293.7029
293.7002
293.69898
293.69849
293.69831
293.69825
293.69824
293.69823
293.69824
293.69824
293.69826
293.69829
293.69832
313.82733
313.34629
312.8327
312.28552
311.70388
311.08708
310.43469
309.74658
309.023
308.26467
307.47289
306.64964
305.79776
304.92105
304.02451
303.11439
302.19838
301.2856
300.38649
299.51258
298.676
297.88883
297.16223
296.50557
295.92556
295.42567
295.00589
294.66284
294.39037
294.18029
294.02328
293.90974
293.83053
293.77738
293.74325
293.72239
293.71034
293.70383
293.70056
293.69906
293.69843
293.69819
293.69811
293.69809
293.69809
293.69809
293.6981
293.69812
293.69814
293.69817
313.94994
313.47186
312.96143
312.41762
311.83954
311.22649
310.57802
309.89398
309.17457
308.42046
307.63285
306.81363
305.96549
305.09204
304.19807
303.28957
302.37394
301.45998
300.55787
299.67888
298.83499
298.03827
297.30004
296.63
296.03537
295.52025
295.08528
294.72772
294.44192
294.22005
294.053
293.93123
293.84548
293.78736
293.74958
293.72617
293.71244
293.70487
293.70099
293.69917
293.69838
293.69808
293.69798
293.69795
293.69794
293.69795
293.69796
293.69797
293.698
293.69803
314.06274
313.58738
313.07987
312.53915
311.96435
311.35475
310.7099
310.02962
309.31407
308.56386
307.78014
306.96469
306.12006
305.24973
304.35827
303.45144
302.53639
301.62165
300.71709
299.83378
298.98354
298.17839
297.42976
296.74765
296.13971
295.6106
295.16155
294.79042
294.49206
294.259
294.08235
293.95263
293.86053
293.79751
293.75611
293.73014
293.71468
293.70602
293.70149
293.69932
293.69836
293.69798
293.69785
293.69781
293.6978
293.6978
293.69781
293.69783
293.69786
293.69789
314.16712
313.69429
313.18947
312.65162
312.07986
311.47347
310.83197
310.15517
309.44321
308.69664
307.91655
307.10463
306.26332
305.39597
304.50695
303.60183
302.68751
301.77227
300.86573
299.97872
299.12291
298.31027
297.5523
296.85924
296.23911
295.69708
295.23493
294.85108
294.54086
294.29716
294.1113
293.9739
293.87563
293.80781
293.76282
293.73428
293.71706
293.70727
293.70206
293.6995
293.69835
293.69789
293.69772
293.69766
293.69765
293.69766
293.69767
293.69769
293.69771
293.69774
314.26421
313.79373
313.29142
312.75624
312.1873
311.5839
310.94553
310.27198
309.56336
308.8202
308.04351
307.23492
306.39676
305.53225
304.6456
303.7422
302.82873
301.91321
301.00506
300.11487
299.25416
298.43482
297.66841
296.96536
296.33403
295.78001
295.30564
294.90983
294.58838
294.33453
294.13985
293.99503
293.89074
293.81822
293.76968
293.73856
293.71957
293.70861
293.70269
293.69973
293.69837
293.6978
293.69759
293.69752
293.69751
293.69751
293.69752
293.69754
293.69757
293.6976
314.35492
313.88664
313.38667
312.85399
312.2877
311.68708
311.05164
310.38113
309.67565
308.93569
308.16221
307.35676
306.52159
305.65979
304.77545
303.87376
302.96121
302.04562
301.13615
300.24321
299.37816
298.5528
297.77873
297.06652
296.42484
295.8597
295.37388
294.96679
294.63467
294.37114
294.16797
294.01598
293.90584
293.82871
293.77666
293.74298
293.72219
293.71005
293.70338
293.69999
293.6984
293.69773
293.69747
293.69739
293.69736
293.69737
293.69738
293.6974
293.69743
293.69745
314.44001
313.97379
313.47602
312.94568
312.38187
311.78387
311.15118
310.48354
309.78101
309.04406
308.2736
307.47113
306.6388
305.77961
304.8975
303.99752
303.08595
302.17043
301.2599
300.36458
299.49566
298.66486
297.8838
297.16318
296.51191
295.93637
295.4398
295.02206
294.67981
294.40701
294.19567
294.03675
293.92091
293.83925
293.78375
293.74752
293.72493
293.71157
293.70414
293.70029
293.69846
293.69766
293.69735
293.69725
293.69722
293.69722
293.69723
293.69726
293.69728
293.69731
314.5201
314.05582
313.56013
313.03199
312.47052
311.87499
311.24488
310.57994
309.88021
309.1461
308.37851
307.57886
306.74924
305.89254
305.0126
304.1143
303.20377
302.28843
301.37706
300.47966
299.60729
298.77157
297.9841
297.25571
296.59553
296.01027
295.50357
295.07574
294.72383
294.44215
294.22295
294.05731
293.93592
293.84984
293.79092
293.75215
293.72776
293.71317
293.70495
293.70063
293.69854
293.69761
293.69724
293.69711
293.69708
293.69708
293.69709
293.69711
293.69714
293.69716
314.59573
314.13328
313.63954
313.11349
312.55423
311.96103
311.33337
310.67098
309.97389
309.24248
308.47761
307.68065
306.85362
305.99932
305.12147
304.22483
303.31536
302.40031
301.48827
300.58907
299.7136
298.87339
298.08004
297.34445
296.67596
296.08158
295.56533
295.12791
294.76679
294.4766
294.24982
294.07766
293.95087
293.86045
293.79817
293.75688
293.73068
293.71485
293.70582
293.70101
293.69864
293.69757
293.69714
293.69698
293.69694
293.69693
293.69695
293.69697
293.697
293.69702
314.66734
314.20663
313.71475
313.19067
312.6335
312.04251
311.41717
310.7572
310.06261
309.33377
308.57149
307.77709
306.95253
306.10054
305.22472
304.32971
303.42133
302.50665
301.59409
300.69331
299.81505
298.97075
298.17198
297.4297
296.75344
296.15048
295.62519
295.17867
294.80875
294.51037
294.27627
294.09779
293.96573
293.87106
293.80547
293.76169
293.73368
293.7166
293.70675
293.70143
293.69876
293.69754
293.69704
293.69685
293.6968
293.69679
293.6968
293.69682
293.69685
293.69687
314.73532
314.27626
313.78614
313.26393
312.70875
312.11986
311.49673
310.83907
310.14686
309.42046
308.66064
307.86869
307.04651
306.19674
305.32288
304.42948
303.52219
302.60795
301.695
300.79284
299.91206
299.06401
298.26023
297.51172
296.82818
296.21714
295.68328
295.22808
294.84973
294.54348
294.30231
294.1177
293.9805
293.88167
293.81281
293.76657
293.73675
293.71841
293.70772
293.70188
293.69891
293.69752
293.69694
293.69672
293.69666
293.69665
293.69666
293.69668
293.69671
293.69673
314.8
314.34251
313.85407
313.33365
312.78036
312.19347
311.57244
310.91697
310.22703
309.50296
308.7455
307.9559
307.13599
306.28836
305.41642
304.52458
303.6184
302.70466
301.79142
300.88805
300.005
299.15351
298.34507
297.59075
296.90037
296.28168
295.7397
295.27622
294.88979
294.57596
294.32795
294.13738
293.99517
293.89226
293.82019
293.7715
293.73989
293.72028
293.70874
293.70236
293.69908
293.69752
293.69685
293.6966
293.69652
293.6965
293.69652
293.69654
293.69656
293.69658
314.86168
314.40569
313.91884
313.40012
312.84864
312.26366
311.64464
310.99126
310.30349
309.58165
308.82645
308.03909
307.22137
306.3758
305.50572
304.61543
303.71035
302.79714
301.88372
300.97929
300.09418
299.23951
298.42675
297.66699
296.97016
296.34426
295.79454
295.32315
294.92897
294.60783
294.3532
294.15684
294.00974
293.90283
293.8276
293.77648
293.74309
293.72221
293.70981
293.70288
293.69927
293.69753
293.69677
293.69648
293.69638
293.69636
293.69637
293.69639
293.69642
293.69644
314.92062
314.46605
313.98073
313.46364
312.91388
312.33072
311.71362
311.06224
310.37656
309.65685
308.90381
308.11861
307.303
306.45942
305.59113
304.70235
303.79839
302.88575
301.97222
301.06687
300.17988
299.32229
298.5055
297.74063
297.03773
296.40497
295.84789
295.36894
294.96729
294.63911
294.37806
294.17607
294.02419
293.91336
293.83502
293.78151
293.74634
293.72419
293.71093
293.70343
293.69948
293.69755
293.6967
293.69636
293.69625
293.69622
293.69623
293.69625
293.69627
293.69629
314.97702
314.52382
314.03997
313.52443
312.97633
312.39491
311.77964
311.13019
310.4465
309.72884
308.97788
308.19475
307.38117
306.53952
305.67298
304.78567
303.88281
302.97077
302.05722
301.15106
300.26236
299.40206
298.58151
297.81184
297.1032
296.46393
295.89983
295.41362
295.00481
294.66982
294.40254
294.19507
294.03852
293.92385
293.84244
293.78657
293.74963
293.72622
293.71208
293.70402
293.69971
293.69759
293.69663
293.69624
293.69611
293.69608
293.69608
293.6961
293.69613
293.69614
315.03109
314.57921
314.09676
313.58271
313.03619
312.45646
311.84295
311.19534
310.51356
309.79786
309.0489
308.26778
307.45615
306.61636
305.75152
304.86567
303.9639
303.05249
302.13896
301.2321
300.34184
299.47903
298.65496
297.88078
297.1667
296.52124
295.95043
295.45727
295.04155
294.69997
294.42666
294.21384
294.05274
293.9343
293.84987
293.79166
293.75297
293.72829
293.71327
293.70463
293.69997
293.69764
293.69657
293.69613
293.69598
293.69594
293.69594
293.69596
293.69598
293.696
315.08302
314.6324
314.15129
313.63868
313.09368
312.51555
311.90374
311.2579
310.57795
309.86415
309.11711
308.33792
307.52819
306.6902
305.82701
304.94257
304.0419
303.13113
302.21769
301.31021
300.41854
299.55339
298.72602
297.94758
297.22835
296.57699
295.99976
295.49992
295.07754
294.7296
294.45041
294.23239
294.06683
293.94469
293.8573
293.79678
293.75635
293.7304
293.7145
293.70527
293.70024
293.6977
293.69652
293.69603
293.69585
293.6958
293.6958
293.69582
293.69584
293.69585
315.13294
314.68353
314.20372
313.69249
313.14896
312.57238
311.96219
311.31806
310.63988
309.92791
309.18272
308.40539
307.59748
306.76124
305.89966
305.01662
304.11702
303.20692
302.2936
301.3856
300.49262
299.62531
298.79484
298.01237
297.28825
296.63127
296.04788
295.54162
295.11282
294.7587
294.47382
294.25073
294.0808
293.95503
293.86471
293.80191
293.75975
293.73255
293.71577
293.70594
293.70054
293.69777
293.69647
293.69592
293.69572
293.69566
293.69566
293.69567
293.69569
293.69571
315.18101
314.73277
314.25421
313.74431
313.20218
312.6271
312.01848
311.37598
310.69952
309.9893
309.24591
308.47037
307.66423
306.82969
305.96967
305.08799
304.18946
303.28003
302.36688
301.45843
300.56426
299.69493
298.86155
298.07526
297.34649
296.68414
296.09486
295.58241
295.1474
294.78731
294.49688
294.26884
294.09464
293.96531
293.87212
293.80706
293.76319
293.73473
293.71706
293.70664
293.70085
293.69786
293.69643
293.69582
293.69559
293.69552
293.69551
293.69553
293.69555
293.69556
315.22736
314.78024
314.30288
313.79426
313.2535
312.67985
312.07274
311.43183
310.75701
310.04849
309.30683
308.53303
307.72861
306.89572
306.03722
305.15687
304.2594
303.35065
302.43771
301.52887
300.63361
299.76239
298.92627
298.13637
297.40317
296.73568
296.14074
295.62234
295.18133
294.81543
294.51962
294.28674
294.10836
293.97554
293.8795
293.81222
293.76665
293.73694
293.71839
293.70736
293.70119
293.69796
293.6964
293.69572
293.69546
293.69538
293.69537
293.69538
293.6954
293.69541
315.27208
314.82606
314.34986
313.84247
313.30302
312.73076
312.12512
311.48574
310.81251
310.10563
309.36565
308.59353
307.79077
306.95948
306.10247
305.22342
304.32699
303.41894
302.50623
301.59706
300.70081
299.82782
298.98912
298.19579
297.45836
296.78596
296.18558
295.66144
295.21462
294.8431
294.54203
294.30443
294.12196
293.9857
293.88687
293.81738
293.77014
293.73918
293.71974
293.70811
293.70154
293.69807
293.69638
293.69563
293.69534
293.69524
293.69523
293.69524
293.69526
293.69527
315.3153
314.87033
314.39525
313.88906
313.35088
312.77996
312.17573
311.53783
310.86614
310.16085
309.42248
308.652
307.85086
307.02112
306.16555
305.28778
304.39239
303.48504
302.57259
301.66315
300.76597
299.89134
299.05019
298.25361
297.51215
296.83503
296.22942
295.69974
295.2473
294.87031
294.56412
294.32191
294.13543
293.99579
293.89422
293.82255
293.77364
293.74145
293.72112
293.70888
293.70191
293.6982
293.69637
293.69554
293.69522
293.69511
293.69509
293.6951
293.69511
293.69512
315.3571
314.91314
314.43915
313.93412
313.39716
312.82754
312.22468
311.58822
310.91802
310.21426
309.47747
308.70857
307.90899
307.08077
306.22662
305.3501
304.45572
303.54907
302.63692
301.72725
300.82923
299.95305
299.1096
298.30992
297.56459
296.88296
296.27231
295.73728
295.2794
294.89708
294.58591
294.3392
294.14878
294.00582
293.90154
293.82773
293.77716
293.74374
293.72252
293.70967
293.7023
293.69834
293.69636
293.69546
293.6951
293.69497
293.69494
293.69495
293.69497
293.69498
315.39757
314.9546
314.48166
313.97774
313.44198
312.87362
312.27208
311.637
310.96825
310.26598
309.53071
308.76335
307.9653
307.13854
306.28577
305.41048
304.51711
303.61117
302.69932
301.78947
300.89068
300.01305
299.16741
298.36478
297.61577
296.92979
296.31429
295.77408
295.31092
294.92344
294.6074
294.35628
294.16201
294.01579
293.90883
293.8329
293.78069
293.74605
293.72395
293.71048
293.70271
293.69849
293.69636
293.69538
293.69498
293.69484
293.6948
293.69481
293.69482
293.69483
315.43679
314.99477
314.52285
314.02002
313.48541
312.91826
312.31801
311.68428
311.01693
310.31611
309.58232
308.81645
308.01988
307.19456
306.34313
305.46905
304.57667
303.67143
302.75991
301.84992
300.95042
300.07143
299.22372
298.41827
297.66573
296.97558
296.35541
295.81019
295.3419
294.94939
294.62861
294.37317
294.17511
294.02569
293.9161
293.83807
293.78424
293.74838
293.7254
293.71132
293.70313
293.69865
293.69637
293.69531
293.69486
293.6947
293.69466
293.69467
293.69468
293.69468
315.47483
315.03373
314.5628
314.06102
313.52753
312.96157
312.36256
311.73013
311.06414
310.36473
309.63238
308.86796
308.07283
307.24891
306.3988
305.52589
304.63449
303.72996
302.81879
301.90869
301.00854
300.12828
299.27859
298.47046
297.71454
297.02038
296.39568
295.84562
295.37236
294.97495
294.64953
294.38987
294.1881
294.03552
293.92334
293.84323
293.7878
293.75073
293.72687
293.71217
293.70357
293.69882
293.69639
293.69524
293.69475
293.69457
293.69452
293.69452
293.69453
293.69454
315.51175
315.07155
314.60158
314.10083
313.56842
313.0036
312.40581
311.77465
311.10998
310.41193
309.68098
308.91797
308.12424
307.30169
306.45287
305.58112
304.69068
303.78685
302.87604
301.96586
301.06512
300.18366
299.33211
298.52141
297.76224
297.06421
296.43516
295.8804
295.4023
295.00012
294.67017
294.40638
294.20097
294.04529
293.93054
293.84839
293.79136
293.75309
293.72836
293.71304
293.70402
293.69901
293.69641
293.69517
293.69464
293.69444
293.69438
293.69438
293.69439
293.69439
315.54762
315.1083
314.63925
314.13949
313.60814
313.04444
312.44782
311.81789
311.15451
310.45779
309.72819
308.96656
308.1742
307.35298
306.50542
305.6348
304.74532
303.84219
302.93176
302.02154
301.12024
300.23765
299.38432
298.57118
297.80889
297.10714
296.47386
295.91455
295.43176
295.02493
294.69056
294.42271
294.21373
294.05499
293.93772
293.85354
293.79494
293.75547
293.72986
293.71393
293.70449
293.69921
293.69645
293.69512
293.69453
293.69431
293.69424
293.69424
293.69424
293.69425
315.58249
315.14401
314.67588
314.17708
313.64675
313.08414
312.48866
311.85994
311.1978
310.50238
309.7741
309.01381
308.22279
307.40287
306.55653
305.68703
304.79849
303.89606
302.98601
302.07577
301.17398
300.29032
299.43531
298.61981
297.85452
297.14918
296.51183
295.9481
295.46074
295.04937
294.71068
294.43887
294.22637
294.06463
293.94486
293.85868
293.79852
293.75787
293.73139
293.71483
293.70497
293.69941
293.69649
293.69506
293.69443
293.69418
293.6941
293.69409
293.6941
293.6941
315.61641
315.17876
314.71151
314.21365
313.68432
313.12276
312.5284
311.90084
311.23992
310.54575
309.81877
309.05979
308.27007
307.45141
306.60628
305.73787
304.85026
303.94853
303.03887
302.12864
301.22639
300.34173
299.48511
298.66737
297.89919
297.19039
296.54909
295.98108
295.48927
295.07347
294.73055
294.45485
294.2389
294.0742
293.95198
293.86381
293.8021
293.76027
293.73292
293.71575
293.70547
293.69963
293.69653
293.69501
293.69433
293.69406
293.69397
293.69395
293.69395
293.69396
315.64944
315.21259
314.74619
314.24925
313.72089
313.16036
312.56708
311.94066
311.28093
310.58799
309.86226
309.10455
308.3161
307.49869
306.65474
305.7874
304.90071
303.99967
303.09041
302.18021
301.27754
300.39194
299.53378
298.71388
297.94294
297.23078
296.58566
296.01349
295.51735
295.09724
294.75018
294.47066
294.25132
294.0837
293.95905
293.86894
293.80569
293.76269
293.73448
293.71669
293.70598
293.69986
293.69659
293.69497
293.69423
293.69393
293.69383
293.69381
293.69381
293.69381
315.68161
315.24554
314.77998
314.28393
313.75652
313.19699
312.60477
311.97945
311.32087
310.62913
309.90463
309.14816
308.36096
307.54476
306.70196
305.83568
304.94988
304.04954
303.14069
302.23055
301.32749
300.441
299.58137
298.75941
297.98579
297.2704
296.62158
296.04536
295.545
295.12067
294.76957
294.48631
294.26363
294.09314
293.9661
293.87405
293.80928
293.76512
293.73605
293.71764
293.7065
293.7001
293.69665
293.69493
293.69413
293.69381
293.69369
293.69367
293.69367
293.69367
315.71296
315.27766
314.81292
314.31774
313.79125
313.2327
312.6415
312.01727
311.35981
310.66924
309.94594
309.19068
308.40469
307.58968
306.74801
305.88276
304.99786
304.0982
303.18977
302.27969
301.37629
300.48895
299.62794
298.80399
298.02779
297.30928
296.65686
296.07671
295.57224
295.1438
294.78872
294.50179
294.27584
294.10252
293.97311
293.87914
293.81287
293.76756
293.73763
293.71861
293.70704
293.70036
293.69673
293.69489
293.69404
293.69368
293.69356
293.69352
293.69352
293.69352
315.74354
315.30899
314.84504
314.3507
313.82511
313.26752
312.67733
312.05415
311.39779
310.70835
309.98622
309.23215
308.44734
307.6335
306.79294
305.92871
305.04468
304.14571
303.23769
302.32771
301.42399
300.53586
299.67351
298.84766
298.06898
297.34743
296.69153
296.10756
295.59908
295.16661
294.80765
294.51712
294.28794
294.11183
293.98009
293.88423
293.81646
293.77001
293.73922
293.71958
293.70759
293.70062
293.6968
293.69486
293.69395
293.69356
293.69342
293.69338
293.69338
293.69338
315.77338
315.33955
314.87638
314.38288
313.85816
313.3015
312.71229
312.09013
311.43486
310.74653
310.02554
309.27263
308.48898
307.67627
306.8368
305.97357
305.09041
304.19211
303.28453
302.37465
301.47064
300.58175
299.71813
298.89045
298.10937
297.3849
296.72561
296.13792
295.62553
295.18912
294.82636
294.53229
294.29993
294.12108
293.98704
293.8893
293.82005
293.77246
293.74083
293.72058
293.70815
293.70089
293.69689
293.69484
293.69386
293.69344
293.69329
293.69324
293.69323
293.69323
315.80252
315.3694
314.90698
314.41429
313.89043
313.33467
312.74642
312.12527
311.47104
310.7838
310.06393
309.31215
308.52964
307.71805
306.87964
306.01739
305.13509
304.23746
303.33031
302.42055
301.51628
300.62668
299.76184
298.9324
298.149
297.4217
296.75912
296.16781
295.65161
295.21135
294.84486
294.54731
294.31183
294.13027
293.99395
293.89436
293.82364
293.77493
293.74245
293.72158
293.70872
293.70117
293.69699
293.69482
293.69378
293.69333
293.69316
293.6931
293.69309
293.69309
315.83098
315.39855
314.93688
314.44497
313.92195
313.36708
312.77976
312.1596
311.50639
310.82022
310.10143
309.35077
308.56937
307.75887
306.92151
306.06022
305.17876
304.2818
303.37508
302.46546
301.56095
300.67068
299.80468
298.97354
298.18791
297.45785
296.79208
296.19724
295.67731
295.23329
294.86314
294.56218
294.32363
294.1394
294.00083
293.89941
293.82724
293.7774
293.74408
293.72259
293.7093
293.70146
293.69709
293.6948
293.6937
293.69321
293.69302
293.69296
293.69295
293.69295
315.85879
315.42704
314.96609
314.47495
313.95276
313.39875
312.81235
312.19315
311.54094
310.85581
310.13809
309.38851
308.6082
307.79877
306.96244
306.1021
305.22147
304.32518
303.41889
302.50941
301.6047
300.7138
299.84668
299.0139
298.22611
297.49338
296.82451
296.22623
295.70267
295.25495
294.88122
294.57691
294.33533
294.14847
294.00768
293.90444
293.83083
293.77987
293.74572
293.72362
293.7099
293.70176
293.6972
293.69479
293.69362
293.6931
293.69289
293.69282
293.69281
293.6928
315.88599
315.4549
314.99466
314.50428
313.98288
313.42972
312.84422
312.22595
311.57473
310.89061
310.17394
309.42542
308.64617
307.83779
307.00247
306.14307
305.26326
304.36762
303.46178
302.55246
301.64755
300.75605
299.88786
299.05351
298.26362
297.52831
296.85642
296.25479
295.72768
295.27636
294.89911
294.59149
294.34694
294.15748
294.01449
293.90946
293.83441
293.78235
293.74736
293.72466
293.7105
293.70207
293.69731
293.69479
293.69355
293.69299
293.69276
293.69268
293.69266
293.69266
315.91259
315.48215
315.0226
314.53296
314.01234
313.46002
312.87539
312.25804
311.60778
310.92465
310.209
309.46153
308.68333
307.87598
307.04165
306.18316
305.30416
304.40918
303.50377
302.59462
301.68955
300.79748
299.92827
299.0924
298.30049
297.56267
296.88784
296.28294
295.75235
295.2975
294.9168
294.60594
294.35845
294.16643
294.02128
293.91446
293.838
293.78484
293.74902
293.72571
293.71112
293.70239
293.69744
293.69479
293.69348
293.69288
293.69263
293.69255
293.69252
293.69252
315.93862
315.50882
315.04995
314.56103
314.04118
313.48967
312.90589
312.28944
311.64012
310.95797
310.24333
309.49687
308.71969
307.91336
307.08
306.22242
305.34421
304.44988
303.54492
302.63595
301.73072
300.83811
299.96792
299.13059
298.33672
297.59646
296.91877
296.31068
295.7767
295.31838
294.93429
294.62025
294.36988
294.17532
294.02802
293.91945
293.84158
293.78733
293.75069
293.72677
293.71175
293.70272
293.69757
293.6948
293.69341
293.69277
293.69251
293.69241
293.69238
293.69238
315.96411
315.53493
315.07672
314.58851
314.06941
313.51869
312.93576
312.32019
311.67179
310.99059
310.27693
309.53148
308.7553
307.94996
307.11755
306.26087
305.38345
304.48976
303.58524
302.67646
301.77111
300.87799
300.00685
299.16811
298.37234
297.62971
296.94923
296.33804
295.80073
295.33902
294.95161
294.63443
294.38121
294.18415
294.03474
293.92442
293.84516
293.78982
293.75236
293.72784
293.71238
293.70306
293.6977
293.69481
293.69335
293.69267
293.69238
293.69227
293.69224
293.69223
315.98908
315.5605
315.10295
314.61542
314.09706
313.54712
312.96501
312.35031
311.70281
311.02254
310.30985
309.56537
308.79019
307.98582
307.15435
306.29854
305.4219
304.52885
303.62477
302.71619
301.81072
300.91712
300.04509
299.20498
298.40737
297.66244
296.97925
296.36501
295.82446
295.35942
294.96874
294.64848
294.39245
294.19293
294.04142
293.92938
293.84873
293.79232
293.75404
293.72892
293.71303
293.7034
293.69785
293.69483
293.69329
293.69256
293.69226
293.69214
293.6921
293.69209
316.01354
315.58556
315.12864
314.64179
314.12416
313.57498
312.99367
312.37982
311.7332
311.05385
310.3421
309.59859
308.82437
308.02096
307.19042
306.33547
305.4596
304.56717
303.66355
302.75516
301.8496
300.95555
300.08264
299.24122
298.44182
297.69466
297.00882
296.39162
295.84788
295.37959
294.9857
294.66241
294.40361
294.20165
294.04807
293.93432
293.85231
293.79483
293.75573
293.73001
293.71368
293.70375
293.698
293.69485
293.69323
293.69246
293.69213
293.692
293.69196
293.69195
316.03751
315.61012
315.15382
314.66764
314.15071
313.60229
313.02177
312.40874
311.76299
311.08454
310.37372
309.63115
308.85788
308.05541
307.22578
306.37168
305.49657
304.60477
303.70159
302.79341
301.88777
300.99329
300.11955
299.27685
298.47573
297.72638
297.03797
296.41786
295.87102
295.39953
295.00249
294.6762
294.41468
294.21032
294.05469
293.93924
293.85587
293.79733
293.75743
293.7311
293.71435
293.70412
293.69816
293.69488
293.69318
293.69237
293.69201
293.69187
293.69182
293.69181
316.06102
315.6342
315.17852
314.69299
314.17675
313.62906
313.04932
312.4371
311.7922
311.11464
310.40472
309.66308
308.89075
308.0892
307.26046
306.4072
305.53284
304.64166
303.73892
302.83097
301.92526
301.03036
300.15583
299.3119
298.50909
297.75763
297.0667
296.44376
295.89387
295.41924
295.01911
294.68988
294.42567
294.21894
294.06128
293.94416
293.85944
293.79984
293.75914
293.73221
293.71502
293.70449
293.69832
293.69491
293.69313
293.69227
293.69189
293.69174
293.69168
293.69167
316.08408
315.65782
315.20274
314.71785
314.20229
313.65532
313.07634
312.46492
311.82085
311.14416
310.43513
309.69441
308.92299
308.12235
307.29449
306.44206
305.56843
304.67787
303.77557
302.86784
301.96208
301.0668
300.1915
299.34637
298.54194
297.78841
297.09503
296.46932
295.91645
295.43874
295.03556
294.70344
294.43657
294.2275
294.06784
293.94905
293.86299
293.80235
293.76085
293.73332
293.71571
293.70487
293.6985
293.69495
293.69309