/*--------------------------------*- C++ -*----------------------------------*\
| =========                 |                                                 |
| \\      /  F ield         | OpenFOAM: The Open Source CFD Toolbox           |
|  \\    /   O peration     | Version:  4.0                                   |
|   \\  /    A nd           | Web:      www.OpenFOAM.org                      |
|    \\/     M anipulation  |                                                 |
\*---------------------------------------------------------------------------*/
FoamFile
{
    version     2.0;
    format      ascii;
    class       volVectorField;
    location    "669";
    object      U;
}
// * * * * * * * * * * * * * * * * * * * * * * * * * * * * * * * * * * * * * //

dimensions      [0 1 -1 0 0 0 0];

internalField   nonuniform List<vector> 
5000
(
(3.1591034e-06 -5.4565922e-22 0.0032690778)
(4.8374426e-07 -1.6973287e-21 0.0095901812)
(9.3014147e-06 -3.0540701e-21 0.015960594)
(1.6034115e-05 -5.455829e-21 0.022312159)
(2.478754e-05 -8.944368e-21 0.028568182)
(3.5469681e-05 -1.3083001e-20 0.034644881)
(4.7719745e-05 -1.4589551e-20 0.040453761)
(6.1001761e-05 -1.3250659e-20 0.045904787)
(7.4803111e-05 -8.310884e-21 0.050910343)
(8.8483117e-05 -1.4742225e-20 0.055389783)
(0.00010130929 -1.2175045e-20 0.059274298)
(0.00011250395 -2.3245441e-20 0.062511709)
(0.00012129191 -2.4888384e-20 0.065070692)
(0.00012694999 -2.3221301e-20 0.066943945)
(0.00012885951 -1.7899316e-20 0.068149833)
(0.00012655408 -8.6029966e-21 0.068732193)
(0.00011975744 5.9857093e-21 0.068758138)
(0.00010840711 2.5401261e-20 0.068313956)
(9.2663997e-05 3.939471e-20 0.067499406)
(7.2921227e-05 3.2108645e-21 0.066420905)
(4.9929391e-05 -1.6573953e-20 0.065184224)
(2.5932048e-05 -2.2223238e-20 0.063887286)
(1.714287e-05 -2.4951318e-20 0.062613956)
(-8.140534e-06 -2.3882649e-20 0.061431616)
(-3.7568433e-05 -2.1606051e-20 0.060386829)
(-6.7724354e-05 -1.804747e-20 0.059502984)
(-9.7862959e-05 -1.6724117e-20 0.058783936)
(-0.00012765194 -8.2467113e-21 0.058218027)
(-0.00015701631 -1.1116636e-21 0.057783201)
(-0.00018607165 -9.722049e-21 0.057452378)
(-0.00021503244 -1.4070075e-20 0.057198183)
(-0.0002441003 -3.4416107e-20 0.056996379)
(-0.00027335521 -1.4662189e-20 0.056827713)
(-0.00030268504 -1.3352166e-21 0.056678291)
(-0.00033178247 4.9777263e-21 0.056538908)
(-0.00036021482 6.1148009e-21 0.056403845)
(-0.00038755092 -3.2226653e-20 0.056269595)
(-0.00041351284 -8.8946947e-21 0.056133795)
(-0.00043812952 1.2557947e-20 0.055994461)
(-0.00046185122 3.2532334e-20 0.055849499)
(-0.00048564816 2.9202978e-20 0.055696395)
(-0.00051098126 -4.2808663e-22 0.055531983)
(-0.00054021967 -4.4602551e-21 0.055352307)
(-0.00057531516 -1.7488242e-21 0.055151893)
(-0.00062320517 2.5885381e-21 0.054925433)
(-0.00067881919 0 0.054658333)
(-0.00078258183 0 0.054357554)
(-0.0008373779 -5.480344e-22 0.053914379)
(-0.001224367 -7.436582e-22 0.053292183)
(-0.00075991098 -3.4590947e-21 0.048393606)
(5.9916427e-06 -1.2518722e-21 0.0035176423)
(-4.7648426e-07 -3.6532427e-21 0.010381146)
(-6.0073907e-06 -5.8091137e-21 0.017372624)
(-1.5463936e-05 -6.7715442e-21 0.02443135)
(-3.0706169e-05 -9.8510584e-21 0.031485284)
(-5.3488999e-05 -1.0581774e-20 0.038450996)
(-8.5808224e-05 -1.1615247e-20 0.045234197)
(-0.00012994101 -1.5596678e-20 0.05173107)
(-0.00018839492 -6.250115e-21 0.057830632)
(-0.00026378979 -9.9551401e-21 0.063418337)
(-0.00035866479 4.2323288e-22 0.068381063)
(-0.00047520653 -1.2584946e-20 0.0726135)
(-0.00061490395 -3.5180405e-20 0.076025757)
(-0.00077815386 -5.8853912e-20 0.078551688)
(-0.00096386393 -7.9074583e-20 0.080157139)
(-0.0011691231 -8.7299836e-20 0.08084692)
(-0.0013890239 -1.0781717e-19 0.080669141)
(-0.0016166869 -1.2876754e-19 0.079715558)
(-0.0018434627 -3.380858e-20 0.078116992)
(-0.0020596377 1.0283271e-19 0.0760337)
(-0.0022560839 -1.7464964e-20 0.073641639)
(-0.002426912 -1.4809557e-19 0.0711166)
(-0.0025494647 -1.2674785e-19 0.068618592)
(-0.0026401219 -1.0488219e-19 0.066278545)
(-0.0026839876 -1.0939651e-19 0.064190983)
(-0.0026833601 -1.1672007e-19 0.062410866)
(-0.0026414901 -1.5388931e-19 0.060956004)
(-0.0025635473 -9.7361844e-20 0.059813323)
(-0.0024562024 2.8858984e-20 0.058947599)
(-0.0023269589 -4.4169038e-20 0.058310921)
(-0.0021834852 -2.7218903e-20 0.0578514)
(-0.0020330444 -1.1231678e-20 0.057520072)
(-0.0018820852 -4.2789428e-20 0.057275392)
(-0.0017360162 1.3501651e-20 0.057085267)
(-0.0015991515 5.3822291e-20 0.056926984)
(-0.0014747871 5.5873872e-20 0.056785756)
(-0.0013653452 2.982023e-20 0.056652631)
(-0.0012725365 -1.2345097e-20 0.056522421)
(-0.0011975178 2.6752861e-20 0.056392023)
(-0.0011410205 5.6810134e-20 0.056259255)
(-0.0011035997 3.2713303e-20 0.056122145)
(-0.0010853986 -2.0330088e-20 0.055978494)
(-0.0010882148 -1.8315088e-20 0.055825812)
(-0.0011088279 -2.0452816e-20 0.055660063)
(-0.0011634146 4.1733035e-21 0.055480509)
(-0.0012097964 8.6720706e-22 0.055267517)
(-0.0013833818 1.4783209e-21 0.055050933)
(-0.0013188132 9.0266228e-22 0.054604222)
(-0.0018395483 2.026594e-22 0.053587452)
(-0.0011674526 -5.6651373e-22 0.045598206)
(1.1318645e-06 -1.2940642e-20 0.0039764089)
(-2.6262672e-06 -3.7993183e-20 0.011752632)
(-1.1725791e-05 -6.3626765e-20 0.019693701)
(-2.8155705e-05 -8.8080894e-20 0.027733369)
(-5.3389171e-05 -1.1625775e-19 0.03579219)
(-8.8932596e-05 -1.4093255e-19 0.043777139)
(-0.0001363697 -1.6521824e-19 0.05158181)
(-0.00019733737 -1.9842728e-19 0.059087416)
(-0.00027347511 -2.2183897e-19 0.066164848)
(-0.00036635123 -2.1483012e-19 0.072678057)
(-0.0004773612 -2.3120327e-19 0.078489012)
(-0.00060759487 -2.3539183e-19 0.083464364)
(-0.00075766914 -1.4423494e-19 0.087483817)
(-0.00092752532 -6.3069489e-20 0.090449892)
(-0.0011162 1.7241558e-20 0.092298388)
(-0.0013215866 1.0627359e-19 0.093008409)
(-0.0015402224 1.8742608e-19 0.092610369)
(-0.0017671477 1.5222258e-19 0.091190201)
(-0.0019958867 2.9701331e-19 0.088888068)
(-0.0022186012 4.4503742e-19 0.085890579)
(-0.0024265271 3.2948035e-19 0.082416624)
(-0.0026109749 1.7247438e-20 0.078698372)
(-0.0027627843 -5.6121044e-20 0.074960168)
(-0.0028754561 -9.4921582e-20 0.071398086)
(-0.0029439267 -1.4621829e-19 0.068165389)
(-0.0029661469 -1.9622235e-19 0.065364164)
(-0.0029431472 -2.5306029e-19 0.063043577)
(-0.0028789288 -1.7450586e-19 0.061205081)
(-0.0027800111 -3.254496e-20 0.059812323)
(-0.0026546929 -1.4268497e-19 0.058803504)
(-0.0025121417 -1.4198576e-19 0.058104061)
(-0.0023614472 2.213488e-19 0.057637861)
(-0.0022107788 4.574691e-20 0.057335695)
(-0.0020667757 5.3253311e-20 0.057140477)
(-0.0019342541 1.0919303e-19 0.057009179)
(-0.0018162462 1.5932773e-19 0.056912105)
(-0.0017143158 2.5847377e-19 0.056830483)
(-0.0016290448 -2.4272661e-20 0.056753397)
(-0.0015605657 -1.3141723e-19 0.056674927)
(-0.0015089608 9.9854333e-20 0.056591932)
(-0.001474879 2.9334564e-19 0.056502601)
(-0.0014583806 -1.0792058e-20 0.05640555)
(-0.0014646713 -6.5223815e-20 0.056299792)
(-0.0014835985 -2.1782365e-19 0.056181925)
(-0.0015580678 2.1129965e-21 0.056056687)
(-0.0015801008 1.8698523e-20 0.055891341)
(-0.0018385668 1.2235818e-19 0.055725958)
(-0.0017187121 1.8171559e-20 0.055192779)
(-0.0022792988 9.7601663e-20 0.053440771)
(-0.0015023204 -5.4198321e-22 0.042895171)
(9.5771058e-07 -3.6744704e-20 0.0043965886)
(-2.4267697e-06 -1.0999733e-19 0.013011578)
(-1.0818758e-05 -1.8576527e-19 0.021829069)
(-2.6034823e-05 -2.7112141e-19 0.030779007)
(-4.9478527e-05 -3.6015087e-19 0.039776626)
(-8.2613711e-05 -4.3268499e-19 0.048721769)
(-0.00012700788 -4.728312e-19 0.057498751)
(-0.00018431784 -5.0203869e-19 0.065977011)
(-0.00025625231 -5.168771e-19 0.074012823)
(-0.00034451409 -5.3615471e-19 0.081452384)
(-0.00045071787 -5.4472694e-19 0.088136581)
(-0.00057627766 -5.6631387e-19 0.093907703)
(-0.00072226092 -6.2920085e-19 0.098618193)
(-0.00088920676 -6.8352706e-19 0.1021413)
(-0.001076911 -6.2105485e-19 0.10438312)
(-0.001284188 -6.1072585e-19 0.10529486)
(-0.0015086317 -5.6909418e-19 0.10488393)
(-0.001746415 -5.3536983e-19 0.10322159)
(-0.0019921723 -4.9407407e-19 0.10044515)
(-0.0022390235 -2.5632024e-19 0.096752873)
(-0.002478791 -2.8814971e-19 0.092390991)
(-0.0027024747 -2.3847981e-19 0.087633632)
(-0.0029008422 -2.4736577e-19 0.082758327)
(-0.0030653188 -2.6400426e-19 0.078020821)
(-0.0031887935 -3.643887e-19 0.073633531)
(-0.003266386 -5.0401142e-19 0.069750844)
(-0.0032959686 -6.6339125e-19 0.066462934)
(-0.0032783938 -6.6080542e-19 0.063798081)
(-0.0032173902 -4.2312808e-19 0.061731863)
(-0.0031191436 -3.0311501e-19 0.060200751)
(-0.0029916385 -2.5573268e-19 0.059117439)
(-0.0028438574 2.1667662e-20 0.058385545)
(-0.0026849496 4.1392506e-20 0.057911887)
(-0.00252348 5.2194324e-20 0.057615206)
(-0.0023668619 1.1957588e-19 0.057430886)
(-0.0022210335 1.8734264e-19 0.057311961)
(-0.0020903895 2.7735956e-19 0.057227267)
(-0.0019779339 -1.2203907e-19 0.057157968)
(-0.0018855966 2.1533699e-21 0.057093684)
(-0.0018144582 2.38824e-19 0.057029125)
(-0.0017658177 4.6933145e-19 0.05696168)
(-0.0017382072 7.8228327e-20 0.056889803)
(-0.0017410446 1.2704564e-19 0.056813154)
(-0.0017481604 -2.4492328e-19 0.05672705)
(-0.0018411686 9.8911976e-21 0.056640976)
(-0.001825857 1.6464237e-19 0.056506217)
(-0.0021216249 1.1087156e-19 0.05634301)
(-0.0019552949 2.3807793e-20 0.055664946)
(-0.0024119838 8.8932454e-20 0.053079617)
(-0.0016103443 1.7228828e-20 0.040428178)
(8.1785301e-07 -1.9501096e-20 0.0047335558)
(-1.9410835e-06 -5.8531192e-20 0.014025321)
(-8.7168216e-06 -1.0001883e-19 0.023555066)
(-2.1038353e-05 -1.4919873e-19 0.033251071)
(-4.0101855e-05 -2.0755066e-19 0.043025903)
(-6.7178758e-05 -2.7152953e-19 0.05277548)
(-0.00010366224 -3.2420459e-19 0.062378632)
(-0.00015106672 -3.5470556e-19 0.071697388)
(-0.0002110105 -3.7530335e-19 0.080578279)
(-0.00028518199 -4.0602943e-19 0.088854985)
(-0.00037528582 -4.0540243e-19 0.096352692)
(-0.00048296215 -4.0006556e-19 0.10289448)
(-0.00060967236 -5.1026426e-19 0.10830996)
(-0.00075654564 -6.6619717e-19 0.11244626)
(-0.0009241825 -6.973384e-19 0.11518084)
(-0.0011124182 -6.655524e-19 0.11643545)
(-0.0013200604 -6.5520714e-19 0.11618965)
(-0.0015446277 -5.2332128e-19 0.11449172)
(-0.001782135 -4.0117394e-19 0.11146458)
(-0.0020269831 -3.1379619e-19 0.10730428)
(-0.0022720178 -3.4156314e-19 0.1022696)
(-0.0025088128 -4.6178079e-19 0.096662792)
(-0.0027281892 -4.4961043e-19 0.090803532)
(-0.0029209528 -4.6548732e-19 0.0849999)
(-0.0030787582 -5.2176998e-19 0.079521211)
(-0.0031949733 -6.0040719e-19 0.074577047)
(-0.0032654016 -7.1619379e-19 0.070305444)
(-0.0032887533 -8.1738855e-19 0.066771043)
(-0.0032667879 -8.1565093e-19 0.063972063)
(-0.003204108 -6.3198258e-19 0.061853637)
(-0.0031076398 -3.80375e-19 0.060324538)
(-0.0029858737 -2.5790897e-19 0.059274509)
(-0.0028479709 -6.8284321e-20 0.05858989)
(-0.0027028742 7.1047926e-20 0.058165932)
(-0.0025585582 1.2107746e-19 0.057914851)
(-0.0024215323 1.461393e-19 0.057769412)
(-0.0022966695 1.3707521e-19 0.057682601)
(-0.0021873327 -1.3428411e-19 0.057624515)
(-0.0020957614 2.0223029e-19 0.057577945)
(-0.0020232279 2.3762602e-19 0.057533992)
(-0.0019719451 3.2861583e-19 0.057488549)
(-0.0019384464 1.1392079e-19 0.057439656)
(-0.0019402972 2.1556879e-19 0.057387825)
(-0.001930162 6.0561923e-20 0.057326518)
(-0.0020338666 3.961516e-20 0.05726714)
(-0.0019838901 1.2861128e-19 0.057147483)
(-0.0022724197 -4.9239247e-21 0.056931816)
(-0.0020850085 1.8393557e-20 0.056028223)
(-0.0024028913 -1.8624042e-20 0.052538193)
(-0.0015886106 1.3396363e-20 0.03799212)
(7.233315e-07 -3.995378e-21 0.0050334236)
(-1.7292161e-06 -1.1953993e-20 0.014927918)
(-7.7679853e-06 -2.2796857e-20 0.025092601)
(-1.8757984e-05 -3.2063386e-20 0.035454519)
(-3.5773507e-05 -4.2179866e-20 0.045924212)
(-5.9961256e-05 -6.757393e-20 0.056394586)
(-9.2583927e-05 -1.1462272e-19 0.066740248)
(-0.00013502369 -1.6025816e-19 0.076817513)
(-0.00018877178 -2.0857344e-19 0.086465385)
(-0.00025540635 -2.1841441e-19 0.095507841)
(-0.00033655436 -2.3254468e-19 0.1037578)
(-0.00043383221 -2.5592601e-19 0.11102314)
(-0.00054875978 -2.7724815e-19 0.11711511)
(-0.00068263947 -3.0976158e-19 0.12185924)
(-0.00083639439 -3.3727875e-19 0.12510854)
(-0.0010103646 -2.8212917e-19 0.12675842)
(-0.0012040675 -1.9908669e-19 0.12676185)
(-0.0014159372 -7.9100783e-20 0.12514283)
(-0.0016430762 1.6881601e-19 0.12200553)
(-0.0018810706 2.1237537e-19 0.11753628)
(-0.0021239309 1.5107079e-19 0.1119963)
(-0.0023642209 -1.4735043e-19 0.10570442)
(-0.0025934178 -2.9498363e-19 0.099010955)
(-0.0028025037 -3.9079038e-19 0.092266469)
(-0.0029827389 -5.0953849e-19 0.08579024)
(-0.0031265125 -6.0400043e-19 0.079843793)
(-0.0032281381 -6.2057783e-19 0.074613463)
(-0.0032844696 -5.9389404e-19 0.07020388)
(-0.0032952424 -6.3598327e-19 0.066641886)
(-0.0032630983 -6.0359881e-19 0.06388862)
(-0.0031932952 -3.326946e-19 0.061856645)
(-0.0030931458 -1.9883826e-19 0.060428959)
(-0.0029712639 -1.4212918e-19 0.059477199)
(-0.0028367132 4.4802201e-20 0.058877031)
(-0.0026981737 1.0785808e-19 0.058519379)
(-0.0025632534 1.2247861e-19 0.058316845)
(-0.0024380526 1.0758555e-19 0.058205444)
(-0.0023270249 -4.6648928e-21 0.058142522)
(-0.0022332167 1.5378973e-19 0.058102327)
(-0.002158094 1.8997702e-19 0.058070869)
(-0.0021048823 2.367214e-19 0.058041381)
(-0.0020663013 1.2584305e-19 0.058010394)
(-0.0020697764 1.5188514e-19 0.057978311)
(-0.0020451723 5.8767205e-20 0.057935944)
(-0.0021540798 5.1535733e-20 0.057890541)
(-0.0020872771 -2.7716383e-20 0.057769541)
(-0.0023477046 -1.3934278e-21 0.057457075)
(-0.0021614111 1.1685176e-20 0.056259333)
(-0.0023578458 -2.5429214e-20 0.051859042)
(-0.0015220795 8.6654464e-21 0.035649767)
(6.5013051e-07 1.4253698e-20 0.005297633)
(-1.5222746e-06 4.1848979e-20 0.015724239)
(-6.8554434e-06 6.8257038e-20 0.026450781)
(-1.6571101e-05 1.0085126e-19 0.037403588)
(-3.1634449e-05 1.4386311e-19 0.048491856)
(-5.3081594e-05 1.6723532e-19 0.059606361)
(-8.2061565e-05 1.6956168e-19 0.070618593)
(-0.0001198428 1.4517855e-19 0.081380529)
(-0.0001678084 1.2608909e-19 0.091725324)
(-0.00022744189 1.4410929e-19 0.10146926)
(-0.00030029993 1.3538368e-19 0.11041536)
(-0.00038796764 1.106476e-19 0.11835903)
(-0.0004919906 9.132964e-20 0.12509614)
(-0.00061377614 5.8718288e-20 0.13043375)
(-0.00075445705 -9.1663223e-20 0.1342035)
(-0.00091471438 1.9620088e-21 0.136277)
(-0.0010945589 1.2099819e-19 0.13658221)
(-0.0012930822 1.1115513e-19 0.13511893)
(-0.001508201 2.0709194e-19 0.13197057)
(-0.0017364345 3.1917396e-19 0.1273094)
(-0.0019727732 3.2977583e-19 0.12139258)
(-0.0022107036 4.1933763e-20 0.11454728)
(-0.0024424416 -1.3406057e-19 0.1071456)
(-0.0026593974 -2.2962165e-19 0.099572277)
(-0.0028528514 -2.8209555e-19 0.09218994)
(-0.0030147564 -2.5469299e-19 0.085307984)
(-0.0031385508 -1.4592673e-19 0.079159813)
(-0.0032198568 1.5935477e-20 0.073891494)
(-0.0032569529 -1.4810907e-19 0.069562078)
(-0.0032509543 -4.2480645e-19 0.066153732)
(-0.0032056855 -3.303115e-19 0.063588485)
(-0.0031272722 -3.8181917e-23 0.061748176)
(-0.0030235013 -4.702358e-20 0.060494563)
(-0.0029030337 1.5252e-19 0.059687259)
(-0.0027745721 3.9292556e-19 0.059197842)
(-0.0026461052 2.0999352e-19 0.058919143)
(-0.0025243497 1.9313796e-19 0.058769392)
(-0.0024144567 2.3135448e-19 0.058691728)
(-0.002320179 -1.4496839e-20 0.058650324)
(-0.0022431631 1.9763662e-19 0.058624886)
(-0.0021884061 1.7510745e-19 0.058605246)
(-0.0021442823 9.2738692e-20 0.058585972)
(-0.0021485314 -4.1839149e-20 0.058566765)
(-0.0021129652 -9.9546352e-20 0.058536354)
(-0.0022186894 3.5008519e-20 0.058492356)
(-0.0021474099 -1.3082948e-19 0.058352797)
(-0.002369152 1.0651202e-19 0.057913546)
(-0.0021850607 2.8461866e-20 0.056375516)
(-0.0022866928 1.2145714e-19 0.051102987)
(-0.0014344602 1.0367242e-20 0.033477058)
(5.9408404e-07 9.6744556e-21 0.0055380874)
(-1.3856005e-06 2.9258906e-20 0.016449275)
(-6.2443464e-06 5.0894609e-20 0.027687882)
(-1.5099332e-05 7.8651386e-20 0.039179723)
(-2.8835032e-05 1.0569893e-19 0.050832945)
(-4.8403314e-05 1.3607227e-19 0.062536618)
(-7.4862749e-05 1.7368163e-19 0.074159699)
(-0.0001093864 1.9054238e-19 0.085550608)
(-0.00015326006 2.1111026e-19 0.096537678)
(-0.00020787253 2.5808275e-19 0.10693082)
(-0.00027469551 3.2204504e-19 0.1165248)
(-0.000355249 3.8052636e-19 0.12510456)
(-0.00045104691 4.4930948e-19 0.13245293)
(-0.00056351543 3.7716146e-19 0.13836118)
(-0.00069387876 1.4336456e-19 0.1426423)
(-0.00084300614 -7.255459e-20 0.14514674)
(-0.0010112176 -1.9783392e-19 0.14577962)
(-0.0011980533 -4.7929115e-19 0.14451767)
(-0.0014020247 -7.4127414e-19 0.14142329)
(-0.0016203781 -6.6417682e-19 0.13665264)
(-0.0018489218 -3.7366149e-19 0.1304547)
(-0.0020819752 -1.7066498e-19 0.12315921)
(-0.0023125025 -1.62361e-19 0.11515315)
(-0.002532467 -1.5758823e-19 0.10684829)
(-0.0027334029 -1.730013e-19 0.098644309)
(-0.0029071481 -1.6311386e-19 0.090893775)
(-0.0030466373 -1.2875798e-19 0.083874595)
(-0.003146633 7.9090336e-21 0.077773908)
(-0.0032042806 2.0120385e-19 0.072684586)
(-0.0032194104 4.0197488e-23 0.068612943)
(-0.0031945492 2.1865184e-20 0.065494581)
(-0.0031346545 1.7504719e-19 0.063214711)
(-0.0030466076 1.0688689e-19 0.06162962)
(-0.002938527 1.831168e-19 0.060586624)
(-0.002818979 3.6676253e-19 0.059940638)
(-0.0026961869 4.2273433e-19 0.059566092)
(-0.0025773711 5.5022741e-19 0.059363548)
(-0.002468293 4.9617691e-19 0.05926112)
(-0.0023733728 2.0509367e-19 0.059211635)
(-0.0022941887 2.9609802e-19 0.059187191)
(-0.0022377373 1.623308e-19 0.059173173)
(-0.0021879822 2.3311359e-19 0.059161489)
(-0.0021906936 -4.1283047e-19 0.059149991)
(-0.0021474826 -1.2912787e-19 0.059125651)
(-0.0022424564 1.321734e-20 0.059072453)
(-0.0021712685 -8.9759147e-20 0.058896003)
(-0.0023523218 7.158151e-20 0.058306607)
(-0.0021641303 3.2733924e-20 0.056395646)
(-0.0021929445 8.741157e-20 0.05029534)
(-0.0013352309 3.2046274e-20 0.03146982)
(5.4839072e-07 -2.6133819e-20 0.0057584391)
(-1.2695385e-06 -7.6720503e-20 0.017114055)
(-5.7268305e-06 -1.2801545e-19 0.028822746)
(-1.3853921e-05 -1.8211785e-19 0.040809989)
(-2.6468043e-05 -2.4446855e-19 0.052983139)
(-4.445058e-05 -2.8706323e-19 0.065229901)
(-6.8784718e-05 -3.0982374e-19 0.077417163)
(-0.00010056405 -3.6887129e-19 0.089390388)
(-0.00014099287 -4.3938224e-19 0.10097386)
(-0.00019137958 -5.2089903e-19 0.11197208)
(-0.00025312137 -5.6288237e-19 0.12217278)
(-0.00032767736 -6.2500097e-19 0.13135187)
(-0.00041652323 -7.1959343e-19 0.13928091)
(-0.0005210829 -6.5062077e-19 0.14573732)
(-0.00064263104 -4.4225773e-19 0.15051758)
(-0.00078215814 -6.7566719e-19 0.15345313)
(-0.00094019672 -8.8760971e-19 0.15442814)
(-0.0011166101 -1.0054947e-18 0.15339762)
(-0.0013103548 -1.2570407e-18 0.15040328)
(-0.0015192412 -1.3655321e-18 0.14558418)
(-0.0017397363 -1.1441585e-18 0.13917862)
(-0.0019668648 -6.7482032e-19 0.13151483)
(-0.0021942681 -3.8881144e-19 0.12298947)
(-0.0024144666 -2.1005348e-19 0.11403558)
(-0.0026193392 -8.1800242e-20 0.10508443)
(-0.0028007843 -2.9149671e-19 0.096527361)
(-0.0029514743 -5.0321727e-19 0.088683907)
(-0.0030655964 -1.9626434e-19 0.081781189)
(-0.0031394564 2.6120785e-19 0.075946468)
(-0.0031718631 2.6181946e-19 0.071212143)
(-0.0031642489 3.692249e-19 0.067530291)
(-0.0031205147 2.2964388e-19 0.064792943)
(-0.0030466399 1.6593756e-19 0.062854481)
(-0.0029500908 1.5693505e-19 0.061553201)
(-0.0028390991 8.8236478e-20 0.060729957)
(-0.0027218913 3.930571e-19 0.060242418)
(-0.0026059844 6.122489e-19 0.059974066)
(-0.0024976051 3.0144348e-19 0.059837677)
(-0.0024018503 2.1410441e-19 0.059773855)
(-0.0023201419 1.7100818e-19 0.059746028)
(-0.0022615184 -1.4652161e-19 0.059734166)
(-0.0022065287 8.1343453e-20 0.059726873)
(-0.0022054343 -2.4919219e-19 0.059718928)
(-0.0021574947 -1.6054651e-19 0.059695149)
(-0.0022380826 2.9422421e-21 0.059623796)
(-0.0021676306 4.8582523e-20 0.059392711)
(-0.0023117052 -4.7981512e-20 0.058634353)
(-0.002115102 2.0099406e-20 0.05633136)
(-0.0020864527 -8.1359699e-20 0.049450529)
(-0.0012326749 2.1064531e-20 0.029614558)
(5.1081481e-07 -2.0563265e-20 0.0059627987)
(-1.1771536e-06 -6.1413761e-20 0.017730798)
(-5.3141134e-06 -1.0470305e-19 0.029875942)
(-1.2859302e-05 -1.4956503e-19 0.042323477)
(-2.4574513e-05 -1.9632762e-19 0.054980129)
(-4.1282919e-05 -2.4519234e-19 0.067732477)
(-6.3904544e-05 -2.9193872e-19 0.080445655)
(-9.3465224e-05 -3.3800641e-19 0.092962604)
(-0.00013109808 -3.9548725e-19 0.10510412)
(-0.00017803988 -4.6815109e-19 0.11667002)
(-0.0002356193 -5.4306012e-19 0.12744192)
(-0.00030523419 -5.6933773e-19 0.13718786)
(-0.00038831476 -6.3468556e-19 0.14566946)
(-0.00048626521 -7.5898054e-19 0.1526519)
(-0.00060037858 -8.0575089e-19 0.15791691)
(-0.00073171851 -7.5686903e-19 0.16127876)
(-0.00088096312 -7.3957102e-19 0.16260239)
(-0.0010482115 -8.0012162e-19 0.16182244)
(-0.0012327578 -8.1252343e-19 0.15896066)
(-0.0014328565 -8.5861356e-19 0.15413867)
(-0.0016455142 -8.63048e-19 0.14758251)
(-0.0018663549 -6.7924696e-19 0.13961606)
(-0.0020896229 -5.2204541e-19 0.1306416)
(-0.0023083726 -4.0916501e-19 0.12110882)
(-0.0025148655 -2.3956247e-19 0.11147586)
(-0.0027011586 -4.0183196e-20 0.10216874)
(-0.0028598177 -1.7438882e-19 0.093545689)
(-0.0029846452 -3.2723775e-19 0.085872288)
(-0.0030713141 -1.5248227e-20 0.079310076)
(-0.0031178127 2.7485256e-19 0.073918655)
(-0.0031246453 2.732896e-19 0.069668618)
(-0.0030947743 2.3506241e-19 0.066461467)
(-0.0030333263 2.0459423e-19 0.0641526)
(-0.0029470931 2.1223784e-19 0.062574165)
(-0.0028438841 2.2821708e-19 0.061555432)
(-0.0027317945 3.4754112e-19 0.060939103)
(-0.00261849 5.3415211e-19 0.060592501)
(-0.0025105251 4.2702527e-19 0.060413122)
(-0.0024136347 2.0476191e-19 0.060328764)
(-0.0023290554 1.4807069e-19 0.060293291)
(-0.0022675379 -8.7371789e-20 0.06028029)
(-0.0022077347 -4.4179341e-20 0.060274397)
(-0.0022009174 -2.2655415e-19 0.060266271)
(-0.0021496874 -1.5203708e-19 0.060237522)
(-0.0022149035 -8.182605e-21 0.060140189)
(-0.0021436595 2.9319955e-20 0.059839086)
(-0.0022552504 -3.7612333e-20 0.05889746)
(-0.0020485695 9.1824726e-21 0.056196032)
(-0.0019735322 -6.6534281e-20 0.04858686)
(-0.0011316619 1.4204772e-20 0.027910613)
(4.7893703e-07 -2.741503e-20 0.0061536582)
(-1.099411e-06 -8.1405189e-20 0.018306977)
(-4.9656605e-06 -1.3872107e-19 0.030860152)
(-1.2018992e-05 -1.9882395e-19 0.043738285)
(-2.2974232e-05 -2.5285442e-19 0.056847602)
(-3.8604768e-05 -3.1045553e-19 0.070073735)
(-5.9776568e-05 -3.6980414e-19 0.083280322)
(-8.7457361e-05 -3.9633303e-19 0.096308113)
(-0.00012271905 -4.2487001e-19 0.10897485)
(-0.00016673534 -4.0028319e-19 0.12107627)
(-0.00022077312 -2.813611e-19 0.13238855)
(-0.00028617423 -1.3643829e-19 0.14267275)
(-0.00036432347 5.3747324e-20 0.15168167)
(-0.00045659857 -1.0837968e-19 0.15916949)
(-0.00056429573 -4.1520958e-19 0.16490468)
(-0.00068852437 -4.5346359e-19 0.16868582)
(-0.00083006572 -4.5708225e-19 0.17036018)
(-0.0009891944 -1.6151422e-19 0.16984329)
(-0.0011654671 0 0.16713773)
(-0.0013574941 2.7688198e-19 0.16234775)
(-0.0015627246 -2.9845951e-19 0.1556862)
(-0.0017772909 -4.9122902e-19 0.1474705)
(-0.0019959687 -6.0461704e-19 0.13810551)
(-0.0022123048 -7.1120166e-19 0.12805374)
(-0.0024189459 -8.829625e-19 0.11779622)
(-0.002608162 -5.8630124e-19 0.10778994)
(-0.0027725086 4.7200405e-20 0.098429036)
(-0.0029055389 5.4123445e-20 0.090015823)
(-0.0030024497 -2.7248045e-19 0.082745623)
(-0.0030605684 7.3779266e-20 0.076705823)
(-0.0030796186 2.4283721e-19 0.071886973)
(-0.0030617392 2.7482452e-19 0.068202071)
(-0.0030112697 3.2144399e-19 0.065509898)
(-0.0029343341 4.3457855e-19 0.063638887)
(-0.0028382687 6.0537031e-19 0.06240897)
(-0.0027309416 4.4851141e-19 0.061649662)
(-0.0026200495 6.0607996e-19 0.061213231)
(-0.0025123476 8.8153831e-19 0.060982242)
(-0.002414139 4.9298198e-19 0.060871383)
(-0.0023265528 2.0914162e-19 0.060824247)
(-0.0022615007 1.7546278e-19 0.06080714)
(-0.0021972197 -7.9263844e-20 0.060799985)
(-0.0021834343 -3.4840677e-19 0.060788472)
(-0.0021290522 -1.6932042e-19 0.060749529)
(-0.0021791309 -1.9188594e-20 0.060619177)
(-0.0021049642 1.5785414e-20 0.06023538)
(-0.0021875739 -3.0738015e-20 0.05909985)
(-0.0019707128 2.6400547e-21 0.056002127)
(-0.0018577265 -5.6432445e-20 0.047718888)
(-0.0010345034 7.4200053e-21 0.026354154)
(4.516625e-07 -1.2848478e-20 0.0063330785)
(-1.0333895e-06 -3.7737568e-20 0.018848755)
(-4.669796e-06 -6.4642239e-20 0.031785815)
(-1.1305344e-05 -9.4570334e-20 0.045069277)
(-2.1614642e-05 -1.2027628e-19 0.058604961)
(-3.6328359e-05 -1.4927159e-19 0.072277697)
(-5.6265505e-05 -1.784162e-19 0.085949818)
(-8.2343092e-05 -2.0900647e-19 0.099460149)
(-0.00011557925 -2.4138982e-19 0.11262374)
(-0.00015709196 -2.6397223e-19 0.12523266)
(-0.0002080925 -2.4356456e-19 0.13705828)
(-0.00026987012 -2.3776416e-19 0.14785538)
(-0.00034376536 -2.1836332e-19 0.15736881)
(-0.00043112601 -2.2915172e-19 0.16534285)
(-0.00053324107 -2.7411122e-19 0.17153385)
(-0.00065124677 -3.2303644e-19 0.17572608)
(-0.00078599748 -3.8155572e-19 0.17775039)
(-0.00093790172 -3.6974668e-19 0.17750445)
(-0.0011067232 -3.1378099e-19 0.17497249)
(-0.0012913604 -3.5063555e-19 0.17024163)
(-0.0014896309 -3.0519655e-19 0.16351099)
(-0.0016981006 -4.0710153e-19 0.15509007)
(-0.0019120124 -4.3445529e-19 0.1453839)
(-0.0021253641 -4.1582113e-19 0.1348647)
(-0.002331177 -3.9232013e-19 0.12403291)
(-0.0025219596 -3.958606e-19 0.11337327)
(-0.002690323 -2.6540883e-19 0.10331312)
(-0.0028296657 7.6721132e-21 0.09418977)
(-0.002934824 9.0138751e-20 0.086231575)
(-0.0030025902 2.9338201e-20 0.079553928)
(-0.003032027 2.0569847e-19 0.074168333)
(-0.0030245492 2.798623e-19 0.070000853)
(-0.0029837805 3.1958785e-19 0.066915574)
(-0.0029152082 3.8286368e-19 0.064739283)
(-0.0028256771 4.9230974e-19 0.063284569)
(-0.0027227644 5.4858871e-19 0.062369462)
(-0.0026141121 5.9344845e-19 0.061832364)
(-0.0025065758 7.2907558e-19 0.061541455)
(-0.002406924 5.3130875e-19 0.061398233)
(-0.0023163157 2.4618626e-19 0.061335495)
(-0.0022472609 9.4523013e-20 0.061311474)
(-0.0021786859 -7.1841644e-20 0.06130056)
(-0.0021573801 -2.4991416e-19 0.061282782)
(-0.0020994094 -1.7805414e-19 0.061228817)
(-0.0021351023 -2.8221657e-20 0.061058954)
(-0.0020563766 3.147343e-21 0.060582251)
(-0.0021127286 -2.5332767e-20 0.059245373)
(-0.0018865133 -5.4173572e-21 0.055758978)
(-0.0017420354 -4.7205065e-20 0.046855455)
(-0.00094255454 1.6485937e-22 0.024935606)
(4.2799898e-07 -5.8827288e-21 0.0065026185)
(-9.7626433e-07 -1.7372005e-20 0.019360808)
(-4.4139836e-06 -2.9298277e-20 0.032660866)
(-1.0688235e-05 -4.0170485e-20 0.046327774)
(-2.0438501e-05 -6.0112978e-20 0.060267026)
(-3.4358106e-05 -7.8832601e-20 0.074362759)
(-5.3225267e-05 -9.2743019e-20 0.088476162)
(-7.7912431e-05 -1.5236844e-19 0.10244435)
(-0.00010938984 -2.0328949e-19 0.11607996)
(-0.00014872593 -2.3898029e-19 0.12917178)
(-0.00019708184 -3.3609361e-19 0.14148681)
(-0.00025569887 -4.4575326e-19 0.15277419)
(-0.00032587525 -5.5838127e-19 0.16277154)
(-0.00040892742 -4.7309445e-19 0.17121409)
(-0.00050613145 -1.9051003e-19 0.17784713)
(-0.00061863747 -2.1714572e-19 0.18244172)
(-0.00074735264 -1.7764326e-19 0.18481348)
(-0.00089278894 -3.3099349e-19 0.18484324)
(-0.0010548756 -3.2871779e-19 0.18249776)
(-0.0012327477 -4.5821113e-19 0.1778474)
(-0.0014245327 -1.7408458e-19 0.17107727)
(-0.0016271705 -2.145678e-19 0.16248788)
(-0.0018363148 -2.1793849e-19 0.15248252)
(-0.0020463727 -1.4835172e-19 0.14154056)
(-0.0022507225 1.5897947e-20 0.13017893)
(-0.0024421219 -3.9519367e-21 0.11890719)
(-0.002613278 -4.3763438e-19 0.10818338)
(-0.0027575028 -2.7404104e-19 0.098378063)
(-0.002869361 2.0124769e-19 0.089751763)
(-0.0029452088 2.0349525e-19 0.082447833)
(-0.0029835482 2.8878059e-19 0.076499419)
(-0.00298516 2.8484481e-19 0.071846866)
(-0.0029530185 2.9174753e-19 0.068361128)
(-0.0028920092 3.1322324e-19 0.065869098)
(-0.0028084852 1.786693e-19 0.064177785)
(-0.0027096949 3.9619529e-19 0.063095307)
(-0.0026031625 4.7273269e-19 0.062447406)
(-0.0024957685 3.988713e-19 0.062088553)
(-0.0023946226 2.4233544e-19 0.061907151)
(-0.0023010574 1.3517249e-19 0.061824837)
(-0.0022277418 -2.2651657e-19 0.061791096)
(-0.0021549214 -7.1521378e-20 0.06177395)
(-0.0021259961 4.5146616e-20 0.061747146)
(-0.0020638823 -1.5196269e-19 0.061673721)
(-0.0020860116 -3.5462625e-20 0.061458382)
(-0.0020017532 -2.3550722e-21 0.060880744)
(-0.0020340558 -2.0501955e-20 0.05933805)
(-0.0017998127 -6.5756909e-21 0.055474474)
(-0.001628876 -4.0692512e-20 0.046003037)
(-0.00085665572 -3.5492855e-21 0.023645119)
(4.0704371e-07 -1.5527789e-20 0.0066635397)
(-9.2709082e-07 -4.6414696e-20 0.019846919)
(-4.1915803e-06 -7.8408942e-20 0.033491725)
(-1.0150343e-05 -1.1043599e-19 0.047522943)
(-1.9412131e-05 -1.5107839e-19 0.061845798)
(-3.2637454e-05 -1.9149127e-19 0.076343829)
(-5.0568403e-05 -2.3052841e-19 0.090877206)
(-7.4037992e-05 -2.6997494e-19 0.10528151)
(-0.00010397402 -3.1393363e-19 0.1193672)
(-0.00014140011 -3.5841684e-19 0.1329201)
(-0.00018743204 -4.1259958e-19 0.14570323)
(-0.00024326684 -4.4681483e-19 0.15746058)
(-0.00031016264 -4.6508135e-19 0.16792315)
(-0.00038940472 -4.5974825e-19 0.1768179)
(-0.00048225218 -4.1492227e-19 0.18387989)
(-0.0005898608 -3.2364889e-19 0.18886797)
(-0.00071317548 -2.745639e-19 0.19158353)
(-0.00085278835 -2.9643043e-19 0.19189158)
(-0.0010087634 -2.9364317e-19 0.18974216)
(-0.001180433 -2.3922886e-19 0.18518933)
(-0.0013661872 -2.1160318e-19 0.17840409)
(-0.0015632887 -1.2480748e-19 0.16967721)
(-0.001767755 -1.1233568e-19 0.15940874)
(-0.0019743653 -7.1715853e-20 0.14808305)
(-0.0021768347 -1.1839224e-20 0.13623102)
(-0.0023681727 3.8992956e-20 0.12438443)
(-0.0025412079 -9.2211019e-20 0.11302975)
(-0.0026892159 -1.3593401e-19 0.10256907)
(-0.0028065592 8.8749037e-20 0.093294126)
(-0.0028892371 2.1639736e-19 0.085376026)
(-0.0029352714 2.7275345e-19 0.078870002)
(-0.002944885 2.9642791e-19 0.073731627)
(-0.0029204652 3.0291409e-19 0.069840016)
(-0.0028663378 2.9320888e-19 0.067023653)
(-0.002788375 2.7532468e-19 0.065085504)
(-0.0026934739 3.1981099e-19 0.063825228)
(-0.0025889905 4.2665868e-19 0.063057076)