/*--------------------------------*- C++ -*----------------------------------*\
| =========                 |                                                 |
| \\      /  F ield         | OpenFOAM: The Open Source CFD Toolbox           |
|  \\    /   O peration     | Version:  3.0.1                                 |
|   \\  /    A nd           | Web:      www.OpenFOAM.org                      |
|    \\/     M anipulation  |                                                 |
\*---------------------------------------------------------------------------*/
FoamFile
{
    version     2.0;
    format      ascii;
    class       surfaceScalarField;
    location    "2277";
    object      phi;
}
// * * * * * * * * * * * * * * * * * * * * * * * * * * * * * * * * * * * * * //

dimensions      [1 0 -1 0 0 0 0];

internalField   nonuniform List<scalar> 
7860
(
1.6502399e-09
1.2113568e-08
4.5554802e-09
3.6035249e-08
7.168438e-09
6.2281646e-08
8.8320106e-09
8.9491515e-08
9.5889481e-09
1.1700872e-07
9.7736726e-09
1.4488267e-07
9.7190172e-09
1.7359472e-07
9.6416685e-09
2.0376738e-07
9.6409077e-09
2.3598493e-07
9.7370899e-09
2.7072509e-07
9.9101116e-09
3.0835605e-07
1.0125564e-08
3.4916025e-07
1.0348583e-08
3.9336376e-07
1.0549408e-08
4.4116331e-07
1.07045e-08
4.9274911e-07
1.0795655e-08
5.4832477e-07
1.0808807e-08
6.0812582e-07
1.0732892e-08
6.72438e-07
1.0559223e-08
7.4161608e-07
1.0281184e-08
8.1610241e-07
9.8942588e-09
8.9644392e-07
9.3962215e-09
9.833044e-07
8.7875052e-09
1.0774676e-06
8.0715214e-09
1.1798242e-06
7.2553076e-09
1.2913329e-06
6.349821e-09
1.4129414e-06
5.3707461e-09
1.5454491e-06
4.3389413e-09
1.689285e-06
3.2806678e-09
1.8441691e-06
2.2279064e-09
2.0086138e-06
1.2179918e-09
2.179219e-06
2.9083359e-10
2.3497044e-06
-5.2500702e-10
2.5096449e-06
-1.1816894e-09
2.6431323e-06
-1.6346774e-09
2.7264272e-06
-1.860004e-09
2.7255578e-06
-1.8437182e-09
2.5937034e-06
-1.5840369e-09
2.2679565e-06
-1.0113587e-09
1.6653488e-06
6.7683742e-07
-7.2000446e-10
1.2833573e-08
-2.6298316e-09
3.7945076e-08
-5.5175516e-09
6.5169363e-08
-9.0088777e-09
9.2982843e-08
-1.2585579e-08
1.2058542e-07
-1.5729699e-08
1.4802679e-07
-1.8079267e-08
1.7594429e-07
-1.9489199e-08
2.0517731e-07
-1.9997527e-08
2.3649325e-07
-1.9751319e-08
2.7047889e-07
-1.8937516e-08
3.0754226e-07
-1.7736976e-08
3.479597e-07
-1.6301912e-08
3.919287e-07
-1.4750121e-08
4.3961152e-07
-1.3168194e-08
4.9116718e-07
-1.1618314e-08
5.4677488e-07
-1.0145143e-08
6.0665267e-07
-8.7815875e-09
6.7107443e-07
-7.5523386e-09
7.4038683e-07
-6.4762716e-09
8.1502635e-07
-5.5673489e-09
8.9553502e-07
-4.8350363e-09
9.8257205e-07
-4.2837603e-09
1.0769164e-06
-3.9128227e-09
1.1794533e-06
-3.7154217e-09
1.2911355e-06
-3.6779368e-09
1.4129039e-06
-3.7792015e-09
1.5455504e-06
-3.9896703e-09
1.6894955e-06
-4.270701e-09
1.8444501e-06
-4.5747229e-09
2.0089178e-06
-4.8462445e-09
2.1794904e-06
-5.0270189e-09
2.3498852e-06
-5.0802673e-09
2.5096981e-06
-4.9382118e-09
2.6429903e-06
-4.5452457e-09
2.7260342e-06
-3.8875332e-09
2.7249e-06
-2.9908027e-09
2.5928069e-06
-1.9341784e-09
2.2668998e-06
-8.2177142e-10
1.6642362e-06
6.7601579e-07
-8.4684088e-10
1.3680414e-08
-3.3558018e-09
4.0454035e-08
-7.4684899e-09
6.9282051e-08
-1.2793719e-08
9.8308073e-08
-1.8659488e-08
1.2645119e-07
-2.4286418e-08
1.5365372e-07
-2.9011484e-08
1.8066935e-07
-3.2437928e-08
2.0860375e-07
-3.4457953e-08
2.3851328e-07
-3.5183742e-08
2.7120467e-07
-3.4849249e-08
3.0720776e-07
-3.3725838e-08
3.4683629e-07
-3.2067658e-08
3.9027052e-07
-3.0085433e-08
4.3762929e-07
-2.7940403e-08
4.8902216e-07
-2.5749626e-08
5.4458409e-07
-2.3595504e-08
6.0449856e-07
-2.1535658e-08
6.6901457e-07
-1.961061e-08
7.3846179e-07
-1.7849293e-08
8.1326502e-07
-1.6272123e-08
8.9395787e-07
-1.4892684e-08
9.811926e-07
-1.3718033e-08
1.0757417e-06
-1.2748557e-08
1.1784839e-06
-1.1977485e-08
1.2903644e-06
-1.1389859e-08
1.4123163e-06
-1.0961793e-08
1.5451223e-06
-1.0659638e-08
1.6891933e-06
-1.0439182e-08
1.8442297e-06
-1.0245985e-08
2.0087246e-06
-1.0016769e-08
2.1792612e-06
-9.6861592e-09
2.3495546e-06
-9.2034961e-09
2.5092153e-06
-8.4969775e-09
2.6422839e-06
-7.5078972e-09
2.7250451e-06
-6.2205248e-09
2.7236126e-06
-4.6667526e-09
2.5912531e-06
-2.93889e-09
2.265172e-06
-1.2011928e-09
1.6624983e-06
6.7481477e-07
-7.6557012e-10
1.4445985e-08
-3.1744118e-09
4.2862876e-08
-7.3890657e-09
7.3496706e-08
-1.324145e-08
1.0416046e-07
-2.0184557e-08
1.333943e-07
-2.7402624e-08
1.6087179e-07
-3.4044194e-08
1.8731092e-07
-3.9449817e-08
2.1400938e-07
-4.3268509e-08
2.4233197e-07
-4.5449244e-08
2.7338541e-07
-4.6157454e-08
3.0791597e-07
-4.5673334e-08
3.4635217e-07
-4.4307548e-08
3.8890474e-07
-4.234679e-08
4.3566854e-07
-4.0027606e-08
4.8670297e-07
-3.7530648e-08
5.4208713e-07
-3.4986679e-08
6.0195458e-07
-3.2487183e-08
6.665151e-07
-3.0095323e-08
7.3606991e-07
-2.7854428e-08
8.1102413e-07
-2.5794151e-08
8.918976e-07
-2.3933921e-08
9.7933237e-07
-2.2284553e-08
1.0740924e-06
-2.0848802e-08
1.1770481e-06
-1.9620922e-08
1.2891365e-06
-1.8585875e-08
1.4112813e-06
-1.7718609e-08
1.5442551e-06
-1.6982929e-08
1.6884576e-06
-1.6330888e-08
1.8435777e-06
-1.5703151e-08
2.0080969e-06
-1.5030726e-08
2.1785888e-06
-1.4241857e-08
2.3487658e-06
-1.3274598e-08
2.5082481e-06
-1.2052342e-08
2.6410616e-06
-1.0511712e-08
2.7235044e-06
-8.6316599e-09
2.7217326e-06
-6.4426657e-09
2.5890642e-06
-4.042418e-09
2.2627715e-06
-1.6439912e-09
1.6601003e-06
6.731705e-07
-6.7973821e-10
1.5125723e-08
-2.8822975e-09
4.5065434e-08
-6.8789715e-09
7.749338e-08
-1.2683619e-08
1.0996511e-07
-1.9940122e-08
1.406508e-07
-2.7943489e-08
1.6887516e-07
-3.5815292e-08
1.9518272e-07
-4.2743217e-08
2.209373e-07
-4.8163199e-08
2.4775194e-07
-5.1824421e-08
2.7704664e-07
-5.3753306e-08
3.0984486e-07
-5.4165609e-08
3.4676448e-07
-5.3371359e-08
3.8811047e-07
-5.1698353e-08
4.3399555e-07
-4.9443502e-08
4.844481e-07
-4.6849555e-08
5.3949319e-07
-4.4100992e-08
5.9920603e-07
-4.1330663e-08
6.6374475e-07
-3.8630623e-08
7.3336989e-07
-3.606328e-08
8.0845677e-07
-3.3669863e-08
8.895042e-07
-3.1476587e-08
9.7713908e-07
-2.949784e-08
1.0721136e-06
-2.7737808e-08
1.1752881e-06
-2.6190837e-08
1.2875895e-06
-2.4840596e-08
1.4099311e-06
-2.365973e-08
1.5430742e-06
-2.2608613e-08
1.6874065e-06
-2.1634745e-08
1.8426038e-06
-2.0673129e-08
2.0071354e-06
-1.9648852e-08
2.1775644e-06
-1.8482861e-08
2.3475998e-06
-1.7102325e-08
2.5068676e-06
-1.5424867e-08
2.639384e-06
-1.338136e-08
2.721461e-06
-1.0944916e-08
2.7192961e-06
-8.1430909e-09
2.5862624e-06
-5.0805139e-09
2.259709e-06
-2.0315602e-09
1.6570512e-06
6.7113906e-07
-6.1409857e-10
1.5739821e-08
-2.6335157e-09
4.708485e-08
-6.372814e-09
8.1232681e-08
-1.195689e-08
1.1554918e-07
-1.9188994e-08
1.4788291e-07
-2.7510475e-08
1.7719664e-07
-3.6107088e-08
2.0377934e-07
-4.4118008e-08
2.2894822e-07
-5.084061e-08
2.5447455e-07
-5.5849324e-08
2.8205536e-07
-5.9012473e-08
3.13008e-07
-6.0437165e-08
3.4818918e-07
-6.0383599e-08
3.880569e-07
-5.9180372e-08
4.3279233e-07
-5.7158946e-08
4.8242668e-07
-5.4612616e-08
5.3694685e-07
-5.1778125e-08
5.9637152e-07
-4.883365e-08
6.6080031e-07
-4.5906413e-08
7.3044263e-07
-4.3083261e-08
8.0563364e-07
-4.0421553e-08
8.8684248e-07
-3.7957058e-08
9.7467459e-07
-3.5709493e-08
1.0698661e-06
-3.3685553e-08
1.1732641e-06
-3.1879876e-08
1.2857838e-06
-3.0275304e-08
1.4083265e-06
-2.8841954e-08
1.5416409e-06
-2.7536814e-08
1.6861013e-06
-2.6302764e-08
1.8413697e-06
-2.5069168e-08
2.0059018e-06
-2.3754475e-08
2.1762497e-06
-2.2272222e-08
2.3461176e-06
-2.0539088e-08
2.5051345e-06
-1.8465542e-08
2.6373104e-06
-1.5976232e-08
2.7189717e-06
-1.3037294e-08
2.7163571e-06
-9.6729568e-09
2.5828981e-06
-5.997657e-09
2.2560337e-06
-2.3555501e-09
1.6534092e-06
6.6878332e-07
-5.6174587e-10
1.6301568e-08
-2.4262145e-09
4.8949318e-08
-5.9232385e-09
8.4729706e-08
-1.1242975e-08
1.2086891e-07
-1.8305562e-08
1.5494549e-07
-2.6687491e-08
1.8557857e-07
-3.5672098e-08
2.1276395e-07
-4.4415171e-08
2.3769129e-07
-5.2144068e-08
2.6220345e-07
-5.8305253e-08
2.8821653e-07
-6.2623228e-08
3.1732598e-07
-6.5082166e-08
3.5064812e-07
-6.5861377e-08
3.888361e-07
-6.5255635e-08
4.3218659e-07
-6.3602327e-08
4.8077337e-07
-6.1226838e-08
5.3457136e-07
-5.8409873e-08
5.9355457e-07
-5.5374264e-08
6.5776468e-07
-5.228532e-08
7.273537e-07
-4.925927e-08
8.0260758e-07
-4.6373653e-08
8.8395688e-07
-4.3677273e-08
9.719782e-07
-4.1197368e-08
1.0673862e-06
-3.8944461e-08
1.1710112e-06
-3.6914353e-08
1.2837538e-06
-3.5089404e-08
1.4065015e-06
-3.3437767e-08
1.5399893e-06
-3.1913106e-08
1.6845766e-06
-3.0453995e-08
1.8399106e-06
-2.898442e-08
2.0044322e-06
-2.7416557e-08
2.1746818e-06
-2.5656355e-08
2.3443574e-06
-2.3610921e-08
2.503089e-06
-2.1183066e-08
2.6348827e-06
-1.829137e-08
2.7160799e-06
-1.4894787e-08
2.7129606e-06
-1.1015177e-08
2.5790184e-06
-6.7805717e-09
2.251799e-06
-2.6134531e-09
1.6492421e-06
6.6617002e-07
-5.1927859e-10
1.6820847e-08
-2.2535754e-09
5.0683614e-08
-5.5350888e-09
8.8011219e-08
-1.059235e-08
1.2592618e-07
-1.7428844e-08
1.6178199e-07
-2.5733674e-08
1.938834e-07
-3.4892171e-08
2.2192246e-07
-4.410996e-08
2.4690907e-07
-5.2593072e-08
2.7068657e-07
-5.9705347e-08
2.9532881e-07
-6.5055581e-08
3.2267621e-07
-6.8510672e-08
3.5410321e-07
-7.0155896e-08
3.9048134e-07
-7.0228489e-08
4.3225918e-07
-6.9046252e-08
4.7959113e-07
-6.6946043e-08
5.3247114e-07
-6.4239657e-08
5.9084818e-07
-6.1188973e-08
6.54714e-07
-5.799762e-08
7.2416233e-07
-5.4813805e-08
7.9942376e-07
-5.173916e-08
8.8088222e-07
-4.8838802e-08
9.6907786e-07
-4.6150257e-08
1.0646976e-06
-4.3689499e-08
1.1685504e-06
-4.1454929e-08
1.2815192e-06
-3.942888e-08
1.4044755e-06
-3.7578305e-08
1.5381386e-06
-3.5853755e-08
1.6828522e-06
-3.4190092e-08
1.8382469e-06
-3.2506235e-08
2.0027484e-06
-3.0708345e-08
2.1728839e-06
-2.8695414e-08
2.3423444e-06
-2.6365358e-08
2.5007589e-06
-2.361398e-08
2.6321313e-06
-2.0353368e-08
2.7128192e-06
-1.6536479e-08
2.7091438e-06
-1.2183763e-08
2.5746658e-06
-7.4413016e-09
2.2470565e-06
-2.8151173e-09
1.6446159e-06
6.6335487e-07
-4.8401115e-10
1.7304858e-08
-2.1078263e-09
5.2307429e-08
-5.1999155e-09
9.1103311e-08
-1.001132e-08
1.3073758e-07
-1.6605044e-08
1.6837571e-07
-2.4760873e-08
2.0203923e-07
-3.3958912e-08
2.3112049e-07
-4.3468364e-08
2.5641853e-07
-5.2504533e-08
2.7972273e-07
-6.0384657e-08
3.0320893e-07
-6.6631487e-08
3.2892304e-07
-7.1010434e-08
3.5848216e-07
-7.3512709e-08
3.9298361e-07
-7.4305361e-08
4.3305183e-07
-7.3667629e-08
4.789534e-07
-7.1928643e-08
5.3073216e-07
-6.9416404e-08
5.8833593e-07
-6.6423032e-08
6.5172064e-07
-6.3187135e-08
7.2092643e-07
-5.9889605e-08
7.9612624e-07
-5.6658716e-08
8.7765133e-07
-5.3579006e-08
9.6599817e-07
-5.0700797e-08
1.0618194e-06
-4.8047736e-08
1.1658974e-06
-4.5621996e-08
1.2790934e-06
-4.3407049e-08
1.4022606e-06
-4.1369034e-08
1.5361005e-06
-3.9456225e-08
1.6809394e-06
-3.7600011e-08
1.8363907e-06
-3.5714761e-08
2.0008632e-06
-3.3701287e-08
2.1708705e-06
-3.1451776e-08
2.340095e-06
-2.8856194e-08
2.4981633e-06
-2.5803589e-08
2.6290787e-06
-2.2199835e-08
2.7092154e-06
-1.7992901e-08
2.7049369e-06
-1.3203788e-08
2.5698766e-06
-7.9999626e-09
2.2418529e-06
-2.9736476e-09
1.6395894e-06
6.6038126e-07
-4.5417807e-10
1.7759036e-08
-1.9831126e-09
5.3836365e-08
-4.9086392e-09
9.4028837e-08
-9.4946538e-09
1.3532359e-07
-1.5847114e-08
1.7472817e-07
-2.3818193e-08
2.1001031e-07
-3.2971866e-08
2.4027416e-07
-4.2644343e-08
2.66091e-07
-5.2077813e-08
2.891562e-07
-6.0568933e-08
3.1170006e-07
-6.7580379e-08
3.3593449e-07
-7.2794856e-08
3.6369664e-07
-7.6117178e-08
3.9630594e-07
-7.7640568e-08
4.3457522e-07
-7.7593777e-08
4.7890661e-07
-7.6282701e-08
5.2942108e-07
-7.4036902e-08
5.8609014e-07
-7.1168253e-08
6.4885197e-07
-6.794443e-08
7.1770262e-07
-6.4577513e-08
7.9275932e-07
-6.1223449e-08
8.7429727e-07
-5.7988601e-08
9.627633e-07
-5.493853e-08
1.0587693e-06
-5.2106676e-08
1.1630655e-06
-4.950049e-08
1.2764873e-06
-4.7105728e-08
1.3998659e-06
-4.4888248e-08
1.533883e-06
-4.2794962e-08
1.6788461e-06
-4.0753907e-08
1.8343497e-06
-3.8675781e-08
1.998785e-06
-3.6456136e-08
2.1686509e-06
-3.3981279e-08
2.3376201e-06
-3.1133626e-08
2.4953156e-06
-2.7796186e-08
2.6257413e-06
-2.3869223e-08
2.7052885e-06
-1.9296794e-08
2.7003644e-06
-1.4101748e-08
2.5646816e-06
-8.4773683e-09
2.2362285e-06
-3.1003682e-09
1.6342124e-06
6.5728098e-07
-4.2855207e-10
1.8187587e-08
-1.875079e-09
5.5282894e-08
-4.6534496e-09
9.6807207e-08
-9.0344106e-09
1.3970455e-07
-1.5155193e-08
1.8084896e-07
-2.2925898e-08
2.1778101e-07
-3.198322e-08
2.4933149e-07
-4.1728536e-08
2.7583632e-07
-5.1440337e-08
2.98868e-07
-6.041246e-08
3.2067218e-07
-6.8068245e-08
3.4359027e-07
-7.4025775e-08
3.6965417e-07
-7.8114662e-08
4.0039482e-07
-8.0356654e-08
4.3681721e-07
-8.0924254e-08
4.7947421e-07
-8.0089059e-08
5.2858589e-07
-7.8169633e-08
5.8417072e-07
-7.5486473e-08
6.461688e-07
-7.2329066e-08
7.1454523e-07
-6.8937084e-08
7.8936733e-07
-6.5493773e-08
8.7085394e-07
-6.2128553e-08
9.5939813e-07
-5.8924632e-08
1.0555654e-06
-5.5927024e-08
1.1600679e-06
-5.3150197e-08
1.2737105e-06
-5.0583344e-08
1.397299e-06
-4.8192978e-08
1.5314927e-06
-4.5924948e-08
1.676578e-06
-4.3704866e-08
1.8321296e-06
-4.1439817e-08
1.9965199e-06
-3.9020868e-08
2.1662319e-06
-3.6328561e-08
2.3349279e-06
-3.3239031e-08
2.4922261e-06
-2.9629363e-08
2.6221316e-06
-2.5395006e-08
2.7010541e-06
-2.0476822e-08
2.6954461e-06
-1.4901703e-08
2.5591066e-06
-8.8911309e-09
2.2302178e-06
-3.2042125e-09
1.6285257e-06
6.540766e-07
-4.0625483e-10
1.8593841e-08
-1.7804782e-09
5.6657116e-08
-4.4280556e-09
9.9454787e-08
-8.6227256e-09
1.4389922e-07
-1.4524738e-08
1.8675097e-07
-2.2090742e-08
2.2534701e-07
-3.1020022e-08
2.5826076e-07
-4.0774969e-08
2.8559127e-07
-5.0674667e-08
3.0876769e-07
-6.0021839e-08
3.3001936e-07
-6.8216304e-08
3.5178473e-07
-7.4827255e-08
3.7626513e-07
-7.9621108e-08
4.0518867e-07
-8.2553999e-08
4.397501e-07
-8.3741074e-08
4.8066129e-07
-8.341286e-08
5.2825767e-07
-8.1866928e-08
5.8262477e-07
-7.9422227e-08
6.437241e-07
-7.6381976e-08
7.1150499e-07
-7.3008474e-08
7.8599381e-07
-6.9510384e-08
8.6735586e-07
-6.6040746e-08
9.559285e-07
-6.2701583e-08
1.0522262e-06
-5.9551538e-08
1.1569179e-06
-5.6613845e-08
1.2707728e-06
-5.3882094e-08
1.3945672e-06
-5.1324635e-08
1.5289353e-06
-4.888684e-08
1.6741402e-06
-4.6492372e-08
1.8297351e-06
-4.4045051e-08
1.9940726e-06
-4.1431993e-08
2.1636189e-06
-3.8528686e-08
2.3320245e-06
-3.5205084e-08
2.4889025e-06
-3.1333245e-08
2.6182598e-06
-2.68042e-08
2.6965251e-06
-2.1556364e-08
2.6901984e-06
-1.5623089e-08
2.5531733e-06
-9.2554193e-09
2.2238501e-06
-3.2922852e-09
1.6225624e-06
6.5078427e-07
-3.8664495e-10
1.8980487e-08
-1.6968475e-09
5.7967318e-08
-4.2274542e-09
1.0198539e-07
-8.2526736e-09
1.4792444e-07
-1.3949774e-08
1.9244808e-07
-2.1313111e-08
2.3271035e-07
-3.0095704e-08
2.6704336e-07
-3.9815965e-08
2.9531153e-07
-4.9834831e-08
3.1878654e-07
-5.9471407e-08
3.3965595e-07
-6.8113651e-08
3.6042698e-07
-7.5294897e-08
3.8344637e-07
-8.0729758e-08
4.1062352e-07
-8.4316124e-08
4.4333647e-07
-8.6113907e-08
4.8245907e-07
-8.6309266e-08
5.2845303e-07
-8.5171678e-08
5.8148718e-07
-8.3009892e-08
6.4156233e-07
-8.0132856e-08
7.0862793e-07
-7.681962e-08
7.826806e-07
-7.3301373e-08
8.6383761e-07
-6.9753962e-08
9.5238106e-07
-6.6299139e-08
1.0487714e-06
-6.3010662e-08
1.1536294e-06
-5.9921962e-08
1.267684e-06
-5.7032599e-08
1.3916779e-06
-5.4313636e-08
1.5262163e-06
-5.1710567e-08
1.6715372e-06
-4.9145766e-08
1.8271703e-06
-4.652025e-08
1.9914471e-06
-4.3717462e-08
2.1608161e-06
-4.0608101e-08
2.3289152e-06
-3.7056955e-08
2.4853513e-06
-3.2931027e-08
2.6141338e-06
-2.8117672e-08
2.6917118e-06
-2.2554317e-08
2.6846349e-06
-1.628117e-08
2.5469003e-06
-9.5814515e-09
2.2171504e-06
-3.3685846e-09
1.6163497e-06
6.4741554e-07
-3.6923841e-10
1.9349724e-08
-1.6223032e-09
5.9220383e-08
-4.04767e-09
1.0441076e-07
-7.918359e-09
1.5179513e-07
-1.3424259e-08
1.9795398e-07
-2.0590462e-08
2.3987655e-07
-2.92162e-08
2.756691e-07
-3.8870781e-08
3.0496612e-07
-4.8956494e-08
3.2887225e-07
-5.8813449e-08
3.495129e-07
-6.7826221e-08
3.6943975e-07
-7.5502686e-08
3.9112284e-07
-8.1515765e-08
4.1663661e-07
-8.5712951e-08
4.4753364e-07
-8.8102738e-08
4.8484888e-07
-8.8826479e-08
5.2917675e-07
-8.8120999e-08
5.8078169e-07
-8.6277948e-08
6.397193e-07
-8.3604626e-08
7.059546e-07
-8.039094e-08
7.7946694e-07
-7.6886571e-08
8.6033322e-07
-7.3288467e-08
9.4878297e-07
-6.9738357e-08
1.0452213e-06
-6.6326195e-08
1.1502173e-06
-6.3096951e-08
1.2644547e-06
-6.0057406e-08
1.3886384e-06
-5.7182414e-08
1.5233413e-06
-5.441851e-08
1.6687733e-06
-5.1687029e-08
1.8244388e-06
-4.8886914e-08
1.988647e-06
-4.5898089e-08
2.1578273e-06
-4.2587106e-08
2.3256042e-06
-3.8813725e-08
2.4815779e-06
-3.4440684e-08
2.6097608e-06
-2.9351976e-08
2.686623e-06
-2.3484411e-08
2.6787674e-06
-1.6887584e-08
2.5403035e-06
-9.877098e-09
2.21014e-06
-3.436938e-09
1.6099092e-06
6.4397884e-07
-3.5366171e-10
1.9703386e-08
-1.5553706e-09
6.0422094e-08
-3.885519e-09
1.0674091e-07
-7.6148474e-09
1.5552445e-07
-1.2942562e-08
2.0328169e-07
-1.9919004e-08
2.4685299e-07
-2.8383259e-08
2.8413335e-07
-3.7950624e-08
3.1453348e-07
-4.806329e-08
3.3898492e-07
-5.8084989e-08
3.595346e-07
-6.7403026e-08
3.7875779e-07
-7.5508025e-08
3.9922783e-07
-8.2039853e-08
4.2316844e-07
-8.6803038e-08
4.5229681e-07
-8.9759568e-08
4.8780542e-07
-9.10072e-08
5.3042437e-07
-9.0747851e-08
5.8052236e-07
-8.9251119e-08
6.3822254e-07
-8.6816214e-08
7.0351971e-07
-8.3738012e-08
7.7638874e-07
-8.0280263e-08
8.5687544e-07
-7.6658716e-08
9.4516145e-07
-7.3034393e-08
1.041597e-06
-6.9513959e-08
1.1466968e-06
-6.6155107e-08
1.2610959e-06
-6.2973238e-08
1.3854565e-06
-5.99478e-08
1.5203159e-06
-5.7027306e-08
1.6658527e-06
-5.4132791e-08
1.8215443e-06
-5.1161238e-08
1.9856755e-06
-4.7989847e-08
2.1546558e-06
-4.4480951e-08
2.3220953e-06
-4.0490009e-08
2.477587e-06
-3.5875598e-08
2.6051464e-06
-3.051915e-08
2.6812665e-06
-2.435786e-08
2.672606e-06
-1.7451306e-08
2.5333971e-06
-1.0148607e-08
2.2028372e-06
-3.4985249e-09
1.6032592e-06
6.4048012e-07
-3.3962735e-10
2.0043012e-08
-1.4948883e-09
6.1577357e-08
-3.7384362e-09
1.0898446e-07
-7.3380105e-09
1.5912403e-07
-1.2499665e-08
2.0844335e-07
-1.9294587e-08
2.5364791e-07
-2.7596345e-08
2.9243511e-07
-3.7061727e-08
3.2399886e-07
-4.7170862e-08
3.4909405e-07
-5.731242e-08
3.6967616e-07
-6.6880804e-08
3.8832616e-07
-7.5355663e-08
4.0770271e-07
-8.235113e-08
4.3016389e-07
-8.7635474e-08
4.5758117e-07
-9.1129414e-08
4.9129936e-07
-9.2889531e-08
5.3218449e-07
-9.3082323e-08
5.8071514e-07
-9.1951732e-08
6.3709198e-07
-8.9784058e-08
7.0135202e-07
-8.6873523e-08
7.7347818e-07
-8.349333e-08
8.5349526e-07
-7.9875194e-08
9.4154333e-07
-7.6198038e-08
1.0379198e-06
-7.2585426e-08
1.1430842e-06
-6.9108558e-08
1.257619e-06
-6.5792471e-08
1.3821404e-06
-6.2622496e-08
1.5171459e-06
-5.9549693e-08
1.66278e-06
-5.6495536e-08
1.8184902e-06
-5.3355809e-08
1.9825357e-06
-5.0004665e-08
2.1513048e-06
-4.6301254e-08
2.3183919e-06
-4.2096863e-08
2.4733825e-06
-3.7246348e-08
2.600296e-06
-3.1628863e-08
2.6756488e-06
-2.5182551e-08
2.6661598e-06
-1.7979058e-08
2.5261935e-06
-1.0400087e-08
2.1952581e-06
-3.5553839e-09
1.5964149e-06
6.3692458e-07
-3.2690194e-10
2.0369914e-08
-1.4399192e-09
6.2690374e-08
-3.6043306e-09
1.1114887e-07
-7.0844123e-09
1.6260411e-07
-1.2091168e-08
2.134501e-07
-1.8713084e-08
2.6026983e-07
-2.6853713e-08
3.0057574e-07
-3.6207223e-08
3.3335237e-07
-4.6289499e-08
3.5917633e-07
-5.6514641e-08
3.7990131e-07
-6.6287104e-08
3.9809863e-07
-7.5080597e-08
4.164962e-07
-8.2489341e-08
4.3757264e-07
-8.8251475e-08
4.6334329e-07
-9.225133e-08
4.9529922e-07
-9.4507573e-08
5.3444074e-07
-9.5151813e-08
5.8135938e-07
-9.4400561e-08
6.3634073e-07
-9.2523076e-08
6.9947455e-07
-8.9808259e-08
7.7076335e-07
-8.6534402e-08
8.502214e-07
-8.2945657e-08
9.3795461e-07
-7.923725e-08
1.0342114e-06
-7.5548988e-08
1.1393959e-06
-7.1966218e-08
1.2540362e-06
-6.8524504e-08
1.3786987e-06
-6.5216019e-08
1.5138374e-06
-6.1995384e-08
1.6595593e-06
-5.8785015e-08
1.8152798e-06
-5.5479866e-08
1.9792305e-06
-5.1951956e-08
2.1477769e-06
-4.8057108e-08
2.314497e-06
-4.3642801e-08
2.4689683e-06
-3.8560907e-08
2.5952139e-06
-3.2687971e-08
2.6697761e-06
-2.5965281e-08
2.6594369e-06
-1.8475634e-08
2.518704e-06
-1.0634521e-08
2.187417e-06
-3.6086255e-09
1.5893889e-06
6.3331608e-07
-3.1530148e-10
2.0685215e-08
-1.389702e-09
6.3764773e-08
-3.4814804e-09
1.1324065e-07
-6.8511636e-09
1.659738e-07
-1.1713228e-08
2.1831217e-07
-1.817061e-08
2.6672721e-07
-2.615299e-08
3.0855812e-07
-3.5388283e-08
3.4258766e-07
-4.5425879e-08
3.6921392e-07
-5.5705187e-08
3.9018062e-07
-6.5642821e-08
4.0803627e-07
-7.4710296e-08
4.2556367e-07
-8.24868e-08
4.4534914e-07
-8.8685485e-08
4.6954197e-07
-9.3159077e-08
4.9977281e-07
-9.5891691e-08
5.3717337e-07
-9.6981559e-08
5.8244923e-07
-9.6616901e-08
6.3597607e-07
-9.5047262e-08
6.979049e-07
-9.2552125e-08
7.6826822e-07
-8.9410714e-08
8.4707998e-07
-8.5876221e-08
9.3442012e-07
-8.2157782e-08
1.030493e-06
-7.8410744e-08
1.1356489e-06
-7.4734708e-08
1.2503602e-06
-7.1176433e-08
1.3751405e-06
-6.7735746e-08
1.5103967e-06
-6.4371853e-08
1.6561954e-06
-6.1008728e-08
1.8119168e-06
-5.7541021e-08
1.9757627e-06
-5.3838944e-08
2.1440748e-06
-4.9755303e-08
2.3104134e-06
-4.5134615e-08
2.4643475e-06
-3.9825047e-08
2.5899045e-06
-3.3702704e-08
2.6636536e-06
-2.6710494e-08
2.6524447e-06
-1.8945175e-08
2.5109388e-06
-1.085473e-08
2.1793264e-06
-3.6580692e-09
1.5821925e-06
6.2965799e-07
-3.0467383e-10
2.0989889e-08
-1.3436126e-09
6.4803712e-08
-3.3684654e-09
1.152655e-07
-6.6358302e-09
1.6924116e-07
-1.1362524e-08
2.2303886e-07
-1.7663582e-08
2.7302827e-07
-2.5491573e-08
3.1638612e-07
-3.4604876e-08
3.5170096e-07
-4.458419e-08
3.7919323e-07
-5.4893769e-08
4.0049021e-07
-6.4963778e-08
4.1810626e-07
-7.4266383e-08
4.3486629e-07
-8.236974e-08
4.5345249e-07
-8.8966404e-08
4.7613865e-07
-9.38818e-08
5.0468819e-07
-9.7068943e-08
5.4036053e-07
-9.8594637e-08
5.8397492e-07
-9.8618949e-08
6.3600038e-07
-9.7369854e-08
6.9665581e-07
-9.5114328e-08
7.6601268e-07
-9.212866e-08
8.440943e-07
-8.8671648e-08
9.3096315e-07
-8.4964026e-08
1.0267853e-06
-8.1175337e-08
1.1318602e-06
-7.7418966e-08
1.2466038e-06
-7.3753533e-08
1.371475e-06
-7.0187403e-08
1.5068306e-06
-6.668489e-08
1.6526929e-06
-6.3172498e-08
1.8084044e-06
-5.9544992e-08
1.9721352e-06
-5.5671246e-08
2.140201e-06
-5.1401626e-08
2.3061438e-06
-4.6577194e-08
2.4595231e-06
-4.1044076e-08
2.5843715e-06
-3.4676922e-08
2.6572864e-06
-2.7422226e-08
2.6451902e-06
-1.9390757e-08
2.5029072e-06
-1.1061997e-08
2.1709977e-06
-3.7045011e-09
1.5748352e-06
6.2595309e-07
-2.9489594e-10
2.1284786e-08
-1.3011386e-09
6.5809955e-08
-3.264093e-09
1.1722845e-07
-6.4363478e-09
1.7241342e-07
-1.1036175e-08
2.2763869e-07
-1.7188764e-08
2.7918085e-07
-2.4866795e-08
3.2406415e-07
-3.385623e-08
3.606904e-07
-4.3766943e-08
3.8910395e-07
-5.4087358e-08
4.1081062e-07
-6.4261997e-08
4.2828089e-07
-7.3765984e-08
4.4437028e-07
-8.215958e-08
4.6184609e-07
-8.9118511e-08
4.8309758e-07
-9.4444667e-08
5.1001434e-07
-9.8063363e-08
5.4397921e-07
-1.0001215e-07
5.8592373e-07
-1.0042376e-07
6.3641198e-07
-9.9503625e-08
6.9573566e-07
-9.7503674e-08
7.6401276e-07
-9.4694181e-08
8.4128478e-07
-9.1336269e-08
9.2760523e-07
-8.7659468e-08
1.0231085e-06
-8.3845978e-08
1.1280467e-06
-8.0022602e-08
1.2427805e-06
-7.6259888e-08
1.3677123e-06
-7.2575266e-08
1.5031459e-06
-6.8939069e-08
1.6490567e-06
-6.5281009e-08
1.8047463e-06
-6.1496412e-08
1.9683507e-06
-5.7453445e-08
2.1361579e-06
-5.3000078e-08
2.3016904e-06
-4.7974899e-08
2.4544979e-06
-4.2221721e-08
2.5786182e-06
-3.5614273e-08
2.650679e-06
-2.8103692e-08
2.6376795e-06
-1.9814476e-08
2.494618e-06
-1.1258008e-08
2.1624414e-06
-3.7489348e-09
1.5673256e-06
6.2220448e-07
-2.8586372e-10
2.157065e-08
-1.2618486e-09
6.6785938e-08
-3.1673601e-09
1.1913397e-07
-6.2509611e-09
1.7549702e-07
-1.0731671e-08
2.321194e-07
-1.6743235e-08
2.8519241e-07
-2.4276066e-08
3.3159699e-07
-3.3141123e-08
3.6955545e-07
-4.297548e-08
3.989383e-07
-5.329086e-08
4.21126e-07
-6.3546688e-08
4.3853672e-07
-7.3222694e-08
4.5404629e-07
-8.1873834e-08
4.7049723e-07
-8.9162164e-08
4.9038591e-07
-9.4869389e-08
5.1572157e-07
-9.889621e-08
5.4800603e-07
-1.0125341e-07
5.8828093e-07
-1.0204737e-07
6.3720596e-07
-1.0146078e-07
6.9514907e-07
-9.9728889e-08
7.6228087e-07
-9.7113056e-08
8.3866895e-07
-9.3873817e-08
9.2436599e-07
-9.0246904e-08
1.0194816e-06
-8.6425315e-08
1.1242251e-06
-8.2548417e-08
1.2389036e-06
-7.8698509e-08
1.3638624e-06
-7.4902712e-08
1.4993501e-06
-7.1137966e-08
1.645292e-06
-6.7337824e-08
1.8009462e-06
-6.3399088e-08
1.9644119e-06
-5.9189145e-08
2.131948e-06
-5.4554394e-08
2.2970557e-06
-4.9331116e-08
2.4492747e-06
-4.3360907e-08
2.572648e-06
-3.6517748e-08
2.6438358e-06
-2.8757094e-08
2.6299188e-06
-2.0218471e-08
2.4860794e-06
-1.1443748e-08
2.1536669e-06
-3.7902856e-09
1.5596717e-06
6.1841437e-07
-2.7749086e-10
2.1848141e-08
-1.2253747e-09
6.7733822e-08
-3.0774167e-09
1.2098601e-07
-6.0781715e-09
1.7849777e-07
-1.0446834e-08
2.3648807e-07
-1.6324388e-08
2.9106996e-07
-2.3716918e-08
3.3898952e-07
-3.2458096e-08
3.7829663e-07
-4.2210332e-08
4.0869054e-07
-5.2507742e-08
4.3142341e-07
-6.282486e-08
4.4885384e-07
-7.2647315e-08
4.6386876e-07
-8.152685e-08
4.7937676e-07
-8.9114485e-08
4.9797355e-07
-9.5174666e-08
5.2178176e-07
-9.9586323e-08
5.5241768e-07
-1.0233583e-07
5.9103043e-07
-1.0350473e-07
6.3837488e-07
-1.032531e-07
6.9489743e-07
-1.0179838e-07
7.6082614e-07
-9.9390935e-08
8.362615e-07
-9.6287929e-08
9.2126299e-07
-9.2728807e-08
1.0159225e-06
-8.8915393e-08
1.1204116e-06
-8.4998334e-08
1.2349866e-06
-8.1071666e-08
1.3599357e-06
-7.7172267e-08
1.4954507e-06
-7.3284386e-08
1.6414042e-06
-6.9346037e-08
1.7970078e-06
-6.5255856e-08
1.9603217e-06
-6.0881336e-08
2.1275734e-06
-5.6067414e-08
2.2922418e-06
-5.0648549e-08
2.4438557e-06
-4.4464473e-08
2.5664641e-06
-3.7389581e-08
2.636761e-06
-2.9384516e-08
2.6219138e-06
-2.0604117e-08
2.4772989e-06
-1.1620295e-08
2.1446831e-06
-3.8291494e-09
1.5518806e-06
6.1458519e-07
-2.6970066e-10
2.2117843e-08
-1.191411e-09
6.865553e-08
-2.9935356e-09
1.2278813e-07
-5.9166638e-09
1.814209e-07
-1.0179764e-08
2.4075117e-07
-1.5929878e-08
2.9682007e-07
-2.3187035e-08
3.4624668e-07
-3.1805572e-08
3.8691517e-07
-4.1471497e-08
4.1835645e-07
-5.1740362e-08
4.4169228e-07
-6.2101874e-08
4.5921535e-07
-7.2048494e-08
4.7381538e-07
-8.1130437e-08
4.884587e-07
-8.8989903e-08
5.0583302e-07
-9.537665e-08
5.281685e-07
-1.0015036e-07
5.571914e-07
-1.0327529e-07
5.9415536e-07
-1.0480977e-07
6.3990937e-07
-1.048918e-07
6.9497947e-07
-1.0372044e-07
7.5965478e-07
-1.0153338e-07
8.3407445e-07
-9.8582185e-08
9.1831177e-07
-9.5107467e-08
1.0124478e-06
-9.1317757e-08
1.1166219e-06
-8.7374011e-08
1.2310428e-06
-8.3381114e-08
1.3559428e-06
-7.9385979e-08
1.4914556e-06
-7.5380613e-08
1.6373988e-06
-7.1307933e-08
1.7929352e-06
-6.706927e-08
1.956083e-06
-6.2532465e-08
2.1230366e-06
-5.754158e-08
2.287251e-06
-5.1929323e-08
2.4382433e-06
-4.5534323e-08
2.5600691e-06
-3.8231734e-08
2.6294584e-06
-2.9987817e-08
2.6136698e-06
-2.0972786e-08
2.4682838e-06
-1.1787762e-08
2.1354982e-06
-3.8660925e-09
1.5439589e-06
6.1071925e-07
-2.6243404e-10
2.2380278e-08
-1.1596902e-09
6.9552785e-08
-2.9150929e-09
1.2454354e-07
-5.7653355e-09
1.8427114e-07
-9.9287874e-09
2.4491462e-07
-1.5557633e-08
3.0244892e-07
-2.2684287e-08
3.5337333e-07
-3.1181944e-08
3.9541283e-07
-4.0758591e-08
4.279331e-07
-5.0990307e-08
4.51924e-07
-6.1381814e-08
4.6960685e-07
-7.1433135e-08
4.838667e-07
-8.069431e-08
4.9771989e-07
-8.8800619e-08
5.1393932e-07
-9.5489229e-08
5.3485711e-07
-1.0060298e-07
5.6230514e-07
-1.0408608e-07
5.9763847e-07
-1.0597538e-07
6.4179864e-07
-1.0638758e-07
6.953917e-07
-1.0550325e-07
7.5877042e-07
-1.035461e-07
8.3211734e-07
-1.0076016e-07
9.155258e-07
-9.7385e-08
1.0090727e-06
-9.3633979e-08
1.1128709e-06
-8.9676632e-08
1.2270855e-06
-8.5628141e-08
1.3518943e-06
-8.1545377e-08
1.4873728e-06
-7.7428347e-08
1.6332818e-06
-7.3225497e-08
1.7887324e-06
-6.8841335e-08
1.9516988e-06
-6.414458e-08
2.1183398e-06
-5.8978798e-08
2.2820852e-06
-5.3175431e-08
2.43244e-06
-4.657239e-08
2.5534661e-06
-3.9045873e-08
2.6219318e-06
-3.0568257e-08
2.6051922e-06
-2.1325491e-08
2.459041e-06
-1.1947066e-08
2.1261197e-06
-3.9007683e-09
1.5359126e-06
6.0681846e-07
-2.5563616e-10
2.2635914e-08
-1.1299869e-09
7.0427134e-08
-2.8415472e-09
1.262551e-07
-5.623199e-09
1.8705279e-07
-9.6924358e-09
2.4898386e-07
-1.5205784e-08
3.0796226e-07
-2.2206687e-08
3.6037424e-07
-3.0585589e-08
4.0379174e-07
-4.0071002e-08
4.3741851e-07
-5.0258538e-08
4.6211153e-07
-6.0667768e-08
4.8001608e-07
-7.0806761e-08
4.9400569e-07
-8.0226514e-08
5.0713965e-07
-8.8556918e-08
5.222697e-07
-9.552445e-08
5.4182466e-07
-1.0095711e-07
5.6773781e-07
-1.0478114e-07
6.0146251e-07
-1.0701345e-07
6.4403093e-07
-1.077506e-07
6.9612885e-07
-1.0715463e-07
7.5817444e-07
-1.0543466e-07
8.303974e-07
-1.0282547e-07
9.1291658e-07
-9.9563645e-08
1.0058109e-06
-9.5865298e-08
1.1091725e-06
-9.1907157e-08
1.2231273e-06
-8.7813756e-08
1.3478009e-06
-8.3651579e-08
1.4832107e-06
-7.942895e-08
1.6290591e-06
-7.5100337e-08
1.7844038e-06
-7.0573666e-08
1.9471722e-06
-6.5719362e-08
2.1134855e-06
-6.0380856e-08
2.2767467e-06
-5.4388658e-08
2.4264478e-06
-4.7580182e-08
2.5466578e-06
-3.9833371e-08
2.6141849e-06
-3.1127101e-08
2.5964861e-06
-2.1663264e-08
2.4495771e-06
-1.2098613e-08
2.1165551e-06
-3.9334835e-09
1.5277475e-06
6.0288498e-07
-2.4926045e-10
2.2885174e-08
-1.1021017e-09
7.1279976e-08
-2.7724304e-09
1.2792543e-07
-5.489402e-09
1.8976976e-07
-9.4694228e-09
2.5296388e-07
-1.4872656e-08
3.1336549e-07
-2.175243e-08
3.6725401e-07
-3.0014976e-08
4.1205428e-07
-3.9407948e-08
4.4681148e-07
-4.9545592e-08
4.7224918e-07
-5.9962059e-08
4.9043255e-07
-7.017382e-08
5.0421744e-07
-7.9733703e-08
5.1669955e-07
-8.8267512e-08
5.308035e-07
-9.5492715e-08
5.4904986e-07
-1.0122422e-07
5.7346932e-07
-1.0537214e-07
6.056104e-07
-1.07935e-07
6.465938e-07
-1.0899043e-07
6.9718428e-07
-1.0868234e-07
7.5786634e-07
-1.0720474e-07
8.2891981e-07
-1.0478185e-07
9.1049372e-07
-1.0164566e-07
1.0026746e-06
-9.801307e-08
1.10554e-06
-9.4066437e-08
1.2191807e-06
-8.9938751e-08
1.3436732e-06
-8.5705576e-08