/*--------------------------------*- C++ -*----------------------------------*\
| =========                 |                                                 |
| \\      /  F ield         | OpenFOAM: The Open Source CFD Toolbox           |
|  \\    /   O peration     | Version:  3.0.1                                 |
|   \\  /    A nd           | Web:      www.OpenFOAM.org                      |
|    \\/     M anipulation  |                                                 |
\*---------------------------------------------------------------------------*/
FoamFile
{
    version     2.0;
    format      ascii;
    class       volScalarField;
    location    "2277";
    object      Qr;
}
// * * * * * * * * * * * * * * * * * * * * * * * * * * * * * * * * * * * * * //

dimensions      [1 0 -3 0 0 0 0];

internalField   uniform 0;

boundaryField
{
    LeftWedge
    {
        type            wedge;
    }
    RightWedge
    {
        type            wedge;
    }
    Inlet
    {
        type            calculated;
        value           nonuniform List<scalar> 
40
(
36.498878
36.498878
36.498878
36.498878
36.498878
36.498878
36.498878
36.498878
36.498878
36.498878
36.498878
36.498878
36.498878
36.498878
36.498878
36.498878
36.498878
36.498878
36.498878
36.498878
36.498878
36.498878
36.498878
36.498878
36.498878
36.498878
36.498878
36.498878
36.498878
36.498878
36.498878
36.498878
36.498878
36.498878
36.498878
36.498878
36.498878
36.498878
36.498878
36.498878
)
;
    }
    Outlet
    {
        type            calculated;
        value           nonuniform List<scalar> 
40
(
-1451.6185
-1228.5893
-1037.2111
-870.60027
-724.51484
-596.3431
-484.39486
-387.41893
-304.32219
-234.02949
-175.40478
-127.31698
-88.606319
-57.917038
-33.949507
-15.501253
-1.4898705
9.0178539
16.783078
22.473895
26.607808
29.585748
31.714427
33.225159
34.290111
35.035958
35.554973
35.913791
36.160169
36.328105
36.441655
36.517738
36.568185
36.60121
36.622464
36.635792
36.643771
36.64812
36.650028
36.650466
)
;
    }
    Outterwall
    {
        type            calculated;
        value           nonuniform List<scalar> 
100
(
36.50038
36.502089
36.503787
36.505479
36.507167
36.508852
36.510536
36.512218
36.5139
36.515581
36.517262
36.518942
36.520622
36.522302
36.523982
36.525661
36.52734
36.529019
36.530698
36.532376
36.534055
36.535733
36.537411
36.539089
36.540767
36.542445
36.544123
36.545801
36.547478
36.549156
36.550833
36.55251
36.554187
36.555864
36.557541
36.559218
36.560894
36.56257
36.564246
36.565921
36.567596
36.56927
36.570944
36.572617
36.57429
36.575961
36.577632
36.579301
36.580968
36.582635
36.584299
36.585961
36.587621
36.589278
36.590932
36.592582
36.594229
36.595871
36.597509
36.599142
36.600769
36.60239
36.604004
36.605611
36.60721
36.6088
36.610381
36.611951
36.613511
36.615058
36.616593
36.618115
36.619622
36.621114
36.622589
36.624048
36.625487
36.626907
36.628307
36.629685
36.63104
36.63237
36.633676
36.634954
36.636205
36.637426
36.638617
36.639775
36.6409
36.641989
36.643042
36.644057
36.645032
36.645965
36.646855
36.6477
36.648497
36.649244
36.649924
36.650466
)
;
    }
    Innerwall
    {
        type            calculated;
        value           nonuniform List<scalar> 
100
(
-842.28609
-1020.8522
-1100.3045
-1148.3365
-1181.8691
-1207.2033
-1227.3428
-1243.9274
-1257.9438
-1270.0277
-1280.6108
-1289.9985
-1298.4141
-1306.0253
-1312.9612
-1319.323
-1325.1913
-1330.6315
-1335.6971
-1340.4324
-1344.8746
-1349.055
-1353.0006
-1356.7342
-1360.2757
-1363.6424
-1366.8494
-1369.9101
-1372.8362
-1375.638
-1378.325
-1380.9054
-1383.3868
-1385.7758
-1388.0786
-1390.3007
-1392.4471
-1394.5225
-1396.5309
-1398.4764
-1400.3623
-1402.192
-1403.9685
-1405.6944
-1407.3725
-1409.0051
-1410.5944
-1412.1425
-1413.6512
-1415.1224
-1416.5578
-1417.959
-1419.3273
-1420.6643
-1421.9712
-1423.2491
-1424.4994
-1425.723
-1426.921
-1428.0944
-1429.2441
-1430.3709
-1431.4757
-1432.5592
-1433.6222
-1434.6654
-1435.6895
-1436.6951
-1437.6829
-1438.6533
-1439.6069
-1440.5443
-1441.466
-1442.3725
-1443.2642
-1444.1415
-1445.0049
-1445.8548
-1446.6915
-1447.5155
-1448.3271
-1449.1266
-1449.9144
-1450.6907
-1451.456
-1452.2104
-1452.9543
-1453.6879
-1454.4115
-1455.1254
-1455.8299
-1456.5255
-1457.2136
-1457.8975
-1458.5903
-1459.3283
-1460.2475
-1461.5017
-1464.2222
-1467.5168
)
;
    }
}


// ************************************************************************* //
