/*--------------------------------*- C++ -*----------------------------------*\
| =========                 |                                                 |
| \\      /  F ield         | OpenFOAM: The Open Source CFD Toolbox           |
|  \\    /   O peration     | Version:  3.0.1                                 |
|   \\  /    A nd           | Web:      www.OpenFOAM.org                      |
|    \\/     M anipulation  |                                                 |
\*---------------------------------------------------------------------------*/
FoamFile
{
    version     2.0;
    format      ascii;
    class       volScalarField;
    location    "2277";
    object      rho;
}
// * * * * * * * * * * * * * * * * * * * * * * * * * * * * * * * * * * * * * //

dimensions      [1 -3 0 0 0 0 0];

internalField   nonuniform List<scalar> 
4000
(
1.0311933
1.0904181
1.1352298
1.1648405
1.1825024
1.1922418
1.1972888
1.1997728
1.2009415
1.2014691
1.2016981
1.2017937
1.2018321
1.201847
1.2018525
1.2018545
1.2018552
1.2018554
1.2018555
1.2018555
1.2018555
1.2018555
1.2018555
1.2018555
1.2018555
1.2018555
1.2018555
1.2018555
1.2018555
1.2018555
1.2018555
1.2018555
1.2018555
1.2018555
1.2018555
1.2018555
1.2018555
1.2018555
1.2018555
1.2018555
0.99840891
1.0496897
1.0963266
1.1341354
1.1614426
1.1792411
1.1898903
1.1958301
1.1989547
1.2005166
1.201262
1.2016024
1.2017513
1.2018138
1.2018389
1.2018486
1.2018521
1.2018534
1.2018538
1.201854
1.201854
1.201854
1.201854
1.201854
1.201854
1.201854
1.201854
1.201854
1.201854
1.201854
1.201854
1.201854
1.201854
1.201854
1.201854
1.201854
1.201854
1.201854
1.201854
1.201854
0.98515208
1.0312045
1.0750274
1.1135689
1.1443901
1.1667722
1.1816546
1.1908227
1.1961139
1.1989992
1.2004943
1.201233
1.2015817
1.2017391
1.201807
1.201835
1.2018461
1.2018503
1.2018518
1.2018523
1.2018525
1.2018525
1.2018525
1.2018525
1.2018525
1.2018525
1.2018525
1.2018525
1.2018525
1.2018525
1.2018525
1.2018525
1.2018525
1.2018525
1.2018525
1.2018525
1.2018525
1.2018525
1.2018525
1.2018525
0.97748513
1.0203254
1.061707
1.0994519
1.1313434
1.1561053
1.173804
1.1855353
1.1928113
1.1970674
1.199429
1.2006768
1.2013058
1.2016086
1.2017478
1.201809
1.2018347
1.2018449
1.2018489
1.2018503
1.2018508
1.201851
1.201851
1.201851
1.201851
1.201851
1.201851
1.201851
1.201851
1.201851
1.201851
1.201851
1.201851
1.201851
1.201851
1.201851
1.201851
1.201851
1.201851
1.201851
0.9722775
1.0129071
1.0524096
1.0891422
1.1212055
1.1472009
1.1667359
1.1803982
1.1893521
1.1948892
1.1981381
1.1999535
1.2009215
1.2014145
1.2016544
1.2017658
1.2018152
1.2018361
1.2018445
1.2018477
1.2018489
1.2018493
1.2018495
1.2018495
1.2018495
1.2018495
1.2018495
1.2018495
1.2018495
1.2018495
1.2018495
1.2018495
1.2018495
1.2018495
1.2018495
1.2018495
1.2018495
1.2018495
1.2018495
1.2018495
0.96841868
1.0074042
1.045434
1.0812113
1.113106
1.1397421
1.1604921
1.1755975
1.1859268
1.1926019
1.1966998
1.1990983
1.2004394
1.2011564
1.2015228
1.2017017
1.2017851
1.2018222
1.2018379
1.2018442
1.2018467
1.2018476
1.2018479
1.201848
1.201848
1.201848
1.201848
1.201848
1.201848
1.201848
1.201848
1.201848
1.201848
1.201848
1.201848
1.201848
1.201848
1.201848
1.201848
1.201848
0.96539597
1.003093
1.0399338
1.0748605
1.1064573
1.1334158
1.1549893
1.1711847
1.1826347
1.1902989
1.1951801
1.1981487
1.1998762
1.2008389
1.2013524
1.2016145
1.2017424
1.2018018
1.2018282
1.2018394
1.2018439
1.2018456
1.2018462
1.2018464
1.2018465
1.2018465
1.2018465
1.2018465
1.2018465
1.2018465
1.2018465
1.2018465
1.2018465
1.2018465
1.2018465
1.2018465
1.2018465
1.2018465
1.2018465
1.2018465
0.96293588
0.99958491
1.0354401
1.0696177
1.1008721
1.1279739
1.1501183
1.1671509
1.1795189
1.1880371
1.1936281
1.1971382
1.1992505
1.2004701
1.2011455
1.2015038
1.2016857
1.2017739
1.2018147
1.2018327
1.2018403
1.2018433
1.2018444
1.2018448
1.201845
1.201845
1.201845
1.201845
1.201845
1.201845
1.201845
1.201845
1.201845
1.201845
1.201845
1.201845
1.201845
1.201845
1.201845
1.201845
0.96087676
0.99664968
1.0316699
1.0651861
1.0960901
1.1232302
1.1457775
1.1634645
1.1765915
1.1858479
1.1920773
1.1960935
1.1985799
1.2000595
1.2009056
1.2013701
1.2016144
1.2017375
1.2017966
1.2018238
1.2018356
1.2018405
1.2018424
1.2018432
1.2018434
1.2018435
1.2018435
1.2018435
1.2018435
1.2018435
1.2018435
1.2018435
1.2018435
1.2018435
1.2018435
1.2018435
1.2018435
1.2018435
1.2018435
1.2018435
0.95911597
0.99414074
1.028441
1.0613695
1.0919308
1.1190459
1.1418807
1.1600873
1.1738491
1.1837467
1.1905494
1.1950346
1.197879
1.199616
1.2006374
1.2012151
1.2015288
1.2016921
1.2017734
1.2018121
1.2018296
1.2018371
1.2018402
1.2018414
1.2018418
1.201842
1.201842
1.201842
1.201842
1.201842
1.201842
1.201842
1.201842
1.201842
1.201842
1.201842
1.201842
1.201842
1.201842
1.201842
0.95758467
0.99195974
1.0256301
1.0580325
1.0882654
1.1153164
1.1383574
1.1569825
1.1712809
1.1817391
1.1890574
1.193976
1.1971601
1.1991482
1.2003458
1.201041
1.2014294
1.2016377
1.2017448
1.2017973
1.201822
1.2018329
1.2018376
1.2018394
1.2018402
1.2018404
1.2018405
1.2018405
1.2018405
1.2018405
1.2018405
1.2018405
1.2018405
1.2018405
1.2018405
1.2018405
1.2018405
1.2018405
1.2018405
1.2018405
0.95623465
0.99003775
1.0231504
1.0550783
1.0849997
1.1119623
1.1351506
1.154117
1.1688736
1.1798252
1.1876089
1.1929276
1.1964322
1.1986631
1.2000353
1.2008505
1.2013173
1.2015745
1.2017105
1.2017793
1.2018125
1.2018278
1.2018345
1.2018373
1.2018384
1.2018388
1.201839
1.201839
1.201839
1.201839
1.201839
1.201839
1.201839
1.201839
1.201839
1.201839
1.201839
1.201839
1.201839
1.201839
0.95503097
0.98832484
1.0209386
1.0524358
1.0820628
1.1089221
1.1322144
1.1514618
1.166613
1.178002
1.1862073
1.1918958
1.1957025
1.1981666
1.1997103
1.2006459
1.2011937
1.2015028
1.2016705
1.2017577
1.2018011
1.2018217
1.201831
1.201835
1.2018366
1.2018372
1.2018374
1.2018375
1.2018375
1.2018375
1.2018375
1.2018375
1.2018375
1.2018375
1.2018375
1.2018375
1.2018375
1.2018375
1.2018375
1.2018375
0.9539476
0.98678376
1.0189474
1.0500511
1.0794006
1.1061475
1.1295112
1.1489919
1.164486
1.1762649
1.184854
1.1908849
1.194976
1.1976634
1.1993743
1.2004298
1.2010599
1.2014232
1.201625
1.2017325
1.2017875
1.2018143
1.2018268
1.2018323
1.2018346
1.2018355
1.2018359
1.201836
1.201836
1.201836
1.201836
1.201836
1.201836
1.201836
1.201836
1.201836
1.201836
1.201836
1.201836
1.201836
0.95296465
0.98538607
1.0171405
1.0478829
1.0769704
1.1036
1.1270102
1.146686
1.1624801
1.1746087
1.1835485
1.1898974
1.1942565
1.1971573
1.1990305
1.2002044
1.2009174
1.2013365
1.2015741
1.2017038
1.2017717
1.2018057
1.2018219
1.2018293
1.2018325
1.2018338
1.2018343
1.2018345
1.2018345
1.2018345
1.2018345
1.2018345
1.2018345
1.2018345
1.2018345
1.2018345
1.2018345
1.2018345
1.2018345
1.2018345
0.95206663
0.98410963
1.0154897
1.0458984
1.0747388
1.1012486
1.1246862
1.144526
1.1605841
1.1730282
1.1822897
1.1889346
1.1935464
1.1966511
1.1986815
1.1999716
1.2007675
1.2012434
1.2015184
1.2016716
1.2017536
1.2017957
1.2018163
1.2018259
1.2018301
1.2018319
1.2018326
1.2018329
1.201833
1.201833
1.201833
1.201833
1.201833
1.201833
1.201833
1.201833
1.201833
1.201833
1.201833
1.201833
0.95124124
0.98293685
1.0139725
1.0440718
1.0726786
1.0990679
1.1225179
1.1424963
1.1587882
1.171518
1.1810759
1.187997
1.1928476
1.1961471
1.1983292
1.1997332
1.2006113
1.2011445
1.201458
1.201636
1.2017333
1.2017843
1.2018098
1.201822
1.2018276
1.20183
1.201831
1.2018313
1.2018315
1.2018315
1.2018315
1.2018315
1.2018315
1.2018315
1.2018315
1.2018315
1.2018315
1.2018315
1.2018315
1.2018315
0.9504786
0.98185362
1.0125707
1.042382
1.0707677
1.097037
1.1204877
1.1405835
1.1570833
1.1700732
1.179905
1.1870847
1.1921612
1.1956468
1.1979756
1.1994906
1.2004501
1.2010408
1.2013935
1.2015972
1.2017107
1.2017714
1.2018025
1.2018177
1.2018248
1.2018279
1.2018292
1.2018298
1.2018299
1.20183
1.20183
1.20183
1.20183
1.20183
1.20183
1.20183
1.20183
1.20183
1.20183
1.20183
0.94977065
0.9808484
1.0112696
1.0408117
1.0689878
1.0951384
1.1185805
1.138776
1.1554616
1.1686891
1.1787749
1.1861972
1.1914878
1.1951516
1.1976218
1.1992451
1.2002847
1.2009327
1.2013252
1.2015554
1.2016859
1.201757
1.2017943
1.2018129
1.2018217
1.2018257
1.2018274
1.2018281
1.2018284
1.2018285
1.2018285
1.2018285
1.2018285
1.2018285
1.2018285
1.2018285
1.2018285
1.2018285
1.2018285
1.2018285
0.94911073
0.97991168
1.0100569
1.0393467
1.0673236
1.0933575
1.1167835
1.1370639
1.1539162
1.1673614
1.1776835
1.185334
1.1908279
1.1946622
1.197269
1.1989977
1.200116
1.2008211
1.2012535
1.2015109
1.201659
1.2017413
1.2017851
1.2018074
1.2018183
1.2018234
1.2018256
1.2018265
1.2018268
1.201827
1.201827
1.201827
1.201827
1.201827
1.201827
1.201827
1.201827
1.201827
1.201827
1.201827
0.94849329
0.97903552
1.0089225
1.037975
1.0657624
1.0916817
1.1150858
1.1354383
1.1524407
1.1660863
1.1766287
1.1844943
1.1901815
1.1941793
1.1969181
1.1987493
1.1999449
1.2007064
1.2011789
1.2014638
1.2016302
1.2017241
1.201775
1.2018015
1.2018146
1.2018208
1.2018236
1.2018248
1.2018253
1.2018254
1.2018255
1.2018255
1.2018255
1.2018255
1.2018255
1.2018255
1.2018255
1.2018255
1.2018255
1.2018255
0.94791364
0.97821324
1.0078577
1.0366864
1.0642934
1.0901005
1.1134779
1.1338916
1.1510295
1.16486
1.1756084
1.1836772
1.1895486
1.1937033
1.1965696
1.1985006
1.1997719
1.2005892
1.2011017
1.2014144
1.2015995
1.2017055
1.2017639
1.2017949
1.2018105
1.2018181
1.2018216
1.2018231
1.2018237
1.2018239
1.201824
1.201824
1.201824
1.201824
1.201824
1.201824
1.201824
1.201824
1.201824
1.201824
0.94736782
0.97743918
1.0068553
1.0354723
1.0629071
1.0886045
1.1119515
1.1324171
1.1496779
1.1636793
1.1746208
1.1828819
1.188929
1.1932345
1.196224
1.1982522
1.1995976
1.2004699
1.2010222
1.2013629
1.2015671
1.2016856
1.201752
1.2017877
1.2018061
1.2018152
1.2018194
1.2018213
1.2018221
1.2018224
1.2018225
1.2018225
1.2018225
1.2018225
1.2018225
1.2018225
1.2018225
1.2018225
1.2018225
1.2018225
0.94685244
0.97670848
1.0059089
1.0343254
1.0615955
1.087186
1.1104994
1.131009
1.1483812
1.1625412
1.173664
1.1821075
1.1883225
1.192773
1.1958819
1.1980045
1.1994224
1.2003491
1.2009409
1.2013096
1.2015331
1.2016645
1.2017391
1.2017799
1.2018013
1.201812
1.2018171
1.2018194
1.2018204
1.2018208
1.201821
1.201821
1.201821
1.201821
1.201821
1.201821
1.201821
1.201821
1.201821
1.201821
0.94636455
0.97601696
1.0050133
1.0332393
1.0603519
1.0858379
1.1091153
1.1296619
1.1471355
1.1614429
1.1727364
1.1813531
1.1877288
1.1923189
1.1955433
1.1977579
1.1992469
1.2002269
1.2008579
1.2012547
1.2014977
1.2016422
1.2017254
1.2017715
1.2017961
1.2018086
1.2018147
1.2018175
1.2018187
1.2018192
1.2018194
1.2018195
1.2018195
1.2018195
1.2018195
1.2018195
1.2018195
1.2018195
1.2018195
1.2018195
0.94590164
0.975361
1.0041636
1.0322084
1.05917
1.0845543
1.1077937
1.1283711
1.1459373
1.1603819
1.1718363
1.1806178
1.1871475
1.1918722
1.1952086
1.1975128
1.1990712
1.2001038
1.2007736
1.2011983
1.2014609
1.2016188
1.2017108
1.2017626
1.2017905
1.201805
1.2018122
1.2018155
1.201817
1.2018177
1.2018179
1.201818
1.201818
1.201818
1.201818
1.201818
1.201818
1.201818
1.201818
1.201818
0.94546147
0.97473743
1.0033559
1.0312279
1.0580445
1.0833296
1.1065297
1.1271326
1.1447832
1.159356
1.1709623
1.1799008
1.1865782
1.1914328
1.1948778
1.1972693
1.1988957
1.19998
1.2006881
1.2011406
1.2014229
1.2015944
1.2016954
1.201753
1.2017846
1.2018012
1.2018095
1.2018135
1.2018153
1.201816
1.2018164
1.2018165
1.2018165
1.2018165
1.2018165
1.2018165
1.2018165
1.2018165
1.2018165
1.2018165
0.94504211
0.97414348
1.0025866
1.0302935
1.0569709
1.0821593
1.1053187
1.1259424
1.1436704
1.1583629
1.1701131
1.1792013
1.1860205
1.1910007
1.194551
1.1970276
1.1987207
1.1998557
1.2006017
1.2010818
1.2013838
1.201569
1.2016793
1.2017429
1.2017782
1.201797
1.2018067
1.2018113
1.2018135
1.2018144
1.2018148
1.201815
1.201815
1.201815
1.201815
1.201815
1.201815
1.201815
1.201815
1.201815
0.94464184
0.97357671
1.0018525
1.0294015
1.0559449
1.0810391
1.1041569
1.1247974
1.1425961
1.1574009
1.1692872
1.1785185
1.1854742
1.1905756
1.1942284
1.196788
1.1985462
1.1997312
1.2005145
1.2010221
1.2013438
1.2015428
1.2016624
1.2017322
1.2017714
1.2017927
1.2018037
1.2018091
1.2018116
1.2018128
1.2018132
1.2018134
1.2018135
1.2018135
1.2018135
1.2018135
1.2018135
1.2018135
1.2018135
1.2018135
0.94425914
0.97303496
1.0011507
1.0285485
1.0549629
1.0799653
1.1030409
1.1236944
1.1415581
1.1564681
1.1684836
1.1778517
1.1849387
1.1901575
1.1939098
1.1965504
1.1983725
1.1996065
1.2004268
1.2009616
1.2013029
1.2015157
1.2016449
1.201721
1.2017643
1.201788
1.2018005
1.2018068
1.2018097
1.2018111
1.2018117
1.2018119
1.201812
1.201812
1.201812
1.201812
1.201812
1.201812
1.201812
1.201812
0.94389267
0.97251629
1.0004789
1.0277316
1.0540216
1.0789344
1.1019673
1.1226306
1.140554
1.1555628
1.1677011
1.1772002
1.1844137
1.1897463
1.1935953
1.196315
1.1981997
1.199482
1.2003387
1.2009004
1.2012613
1.2014879
1.2016267
1.2017093
1.2017568
1.2017832
1.2017972
1.2018043
1.2018078
1.2018094
1.2018101
1.2018104
1.2018105
1.2018105
1.2018105
1.2018105
1.2018105
1.2018105
1.2018105
1.2018105
0.94354123
0.97201899
0.99983474
1.0269481
1.0531181
1.0779436
1.1009333
1.1216036
1.1395819
1.1546837
1.1669387
1.1765633
1.1838989
1.1893416
1.1932849
1.1960819
1.1980279
1.1993576
1.2002502
1.2008386
1.2012189
1.2014595
1.201608
1.2016971
1.201749
1.201778
1.2017937
1.2018018
1.2018058
1.2018077
1.2018085
1.2018088
1.201809
1.201809
1.201809
1.201809
1.201809
1.201809
1.201809
1.201809
0.94320372
0.97154152
0.9992163
1.0261956
1.0522496
1.07699
1.0999365
1.1206112
1.1386399
1.1538292
1.1661954
1.1759405
1.1833938
1.1889434
1.1929785
1.195851
1.1978572
1.1992335
1.2001616
1.2007764
1.201176
1.2014305
1.2015887
1.2016845
1.2017408
1.2017727
1.2017901
1.2017992
1.2018037
1.2018059
1.2018069
1.2018073
1.2018074
1.2018075
1.2018075
1.2018075
1.2018075
1.2018075
1.2018075
1.2018075
0.94287918
0.9710825
0.99862177
1.0254719
1.0514139
1.0760712
1.0989743
1.1196511
1.1377263
1.1529982
1.1654703
1.1753311
1.1828982
1.1885516
1.1926761
1.1956224
1.1976876
1.1991098
1.2000728
1.2007138
1.2011326
1.2014009
1.2015689
1.2016714
1.2017322
1.201767
1.2017863
1.2017965
1.2018016
1.2018041
1.2018052
1.2018057
1.2018059
1.201806
1.201806
1.201806
1.201806
1.201806
1.201806
1.201806
0.94256674
0.97064067
0.99804952
1.0247752
1.0506087
1.075185
1.0980447
1.1187216
1.1368395
1.1521894
1.1647626
1.1747347
1.1824117
1.1881658
1.1923775
1.1953961
1.1975192
1.1989866
1.1999841
1.2006508
1.2010887
1.2013708
1.2015486
1.201658
1.2017233
1.2017612
1.2017823
1.2017936
1.2017994
1.2018023
1.2018036
1.2018041
1.2018044
1.2018045
1.2018045
1.2018045
1.2018045
1.2018045
1.2018045
1.2018045
0.94226559
0.9702149
0.99749809
1.0241037
1.0498321
1.0743293
1.0971457
1.1178209
1.1359782
1.1514017
1.1640715
1.1741505
1.1819339
1.187786
1.1920828
1.1951722
1.197352
1.1988639
1.1998954
1.2005877
1.2010445
1.2013403
1.2015279
1.2016441
1.2017142
1.2017551
1.2017782
1.2017907
1.2017972
1.2018004
1.2018019
1.2018026
1.2018029
1.201803
1.201803
1.201803
1.201803
1.201803
1.201803
1.201803
0.94197501
0.96980417
0.99696616
1.0234558
1.0490823
1.0735022
1.0962755
1.1169474
1.1351409
1.150634
1.1633963
1.1735783
1.1814647
1.187412
1.1917919
1.1949505
1.1971861
1.1987417
1.1998068
1.2005244
1.2009999
1.2013094
1.2015069
1.20163
1.2017047
1.2017488
1.2017739
1.2017876
1.2017948
1.2017985
1.2018002
1.201801
1.2018013
1.2018014
1.2018015
1.2018015
1.2018015
1.2018015
1.2018015
1.2018015
0.94169436
0.96940753
0.9964525
1.02283
1.0483577
1.0727022
1.0954325
1.1160995
1.1343265
1.1498856
1.1627362
1.1730175
1.1810036
1.1870436
1.1915046
1.194731
1.1970215
1.1986202
1.1997183
1.2004609
1.2009551
1.2012782
1.2014854
1.2016154
1.201695
1.2017422
1.2017694
1.2017844
1.2017924
1.2017965
1.2017985
1.2017994
1.2017998
1.2017999
1.2018
1.2018
1.2018
1.2018
1.2018
1.2018
0.94142303
0.96902414
0.99595602
1.0222249
1.0476568
1.0719276
1.0946151
1.115276
1.1335339
1.1491554
1.1620906
1.1724676
1.1805505
1.1866806
1.1912209
1.1945139
1.1968582
1.1984993
1.1996301
1.2003975
1.20091
1.2012467
1.2014637
1.2016006
1.201685
1.2017355
1.2017648
1.2017812
1.20179
1.2017945
1.2017967
1.2017978
1.2017982
1.2017984
1.2017985
1.2017985
1.2017985
1.2017985
1.2017985
1.2017985
0.94116046
0.96865322
0.9954757
1.0216395
1.0469782
1.0711769
1.093822
1.1144756
1.1327618
1.1484426
1.1614589
1.1719283
1.1801049
1.186323
1.1909407
1.1942989
1.1966961
1.198379
1.1995421
1.2003339
1.2008648
1.2012149
1.2014416
1.2015855
1.2016747
1.2017285
1.20176
1.2017778
1.2017874
1.2017924
1.2017949
1.2017961
1.2017967
1.2017969
1.201797
1.201797
1.201797
1.201797
1.201797
1.201797
0.94090617
0.96829404
0.99501061
1.0210725
1.0463207
1.070449
1.0930519
1.1136971
1.1320095
1.1477464
1.1608405
1.1713991
1.1796668
1.1859705
1.190664
1.1940861
1.1965354
1.1982595
1.1994544
1.2002705
1.2008194
1.2011828
1.2014193
1.2015702
1.2016642
1.2017214
1.2017551
1.2017743
1.2017848
1.2017903
1.2017931
1.2017945
1.2017951
1.2017953
1.2017955
1.2017955
1.2017955
1.2017955
1.2017955
1.2017955
0.94065968
0.96794595
0.99455991
1.020523
1.0456831
1.0697425
1.0923036
1.1129395
1.1312759
1.1470662
1.160235
1.1708797
1.1792358
1.185623
1.1903906
1.1938755
1.196376
1.1981406
1.1993671
1.200207
1.2007739
1.2011506
1.2013968
1.2015545
1.2016535
1.201714
1.20175
1.2017707
1.2017821
1.2017882
1.2017913
1.2017928
1.2017935
1.2017938
1.2017939
1.201794
1.201794
1.201794
1.201794
1.201794
0.94042057
0.96760834
0.9941228
1.0199899
1.0450644
1.0690563
1.091576
1.1122016
1.1305602
1.1464012
1.1596417
1.1703697
1.1788117
1.1852803
1.1901205
1.193667
1.1962179
1.1980225
1.19928
1.2001437
1.2007283
1.2011182
1.201374
1.2015387
1.2016426
1.2017065
1.2017448
1.2017669
1.2017793
1.201786
1.2017894
1.2017911
1.2017919
1.2017923
1.2017924
1.2017925
1.2017925
1.2017925
1.2017925
1.2017925
0.94018845
0.96728065
0.99369855
1.0194725
1.0444635
1.0683894
1.090868
1.1114827
1.1298616
1.1457508
1.1590603
1.1698688
1.1783943
1.1849424
1.1898536
1.1934605
1.196061
1.1979051
1.1991933
1.2000804
1.2006827
1.2010857
1.201351
1.2015227
1.2016315
1.2016988
1.2017394
1.2017631
1.2017765
1.2017838
1.2017876
1.2017894
1.2017903
1.2017907
1.2017909
1.201791
1.201791
1.201791
1.201791
1.201791
0.93996295
0.96696237
0.99328651
1.0189698
1.0438796
1.0677409
1.0901788
1.1107818
1.1291793
1.1451145
1.1584902
1.1693767
1.1779834
1.184609
1.1895898
1.1932561
1.1959054
1.1977885
1.199107
1.2000173
1.200637
1.201053
1.2013279
1.2015064
1.2016202
1.201691
1.2017339
1.2017592
1.2017736
1.2017815
1.2017856
1.2017877
1.2017887
1.2017892
1.2017894
1.2017895
1.2017895
1.2017895
1.2017895
1.2017895
0.93974373
0.96665301
0.99288603
1.0184813
1.0433117
1.0671098
1.0895074
1.110098
1.1285127
1.1444915
1.157931
1.1688931
1.1775787
1.1842801
1.189329
1.1930537
1.1957511
1.1976726
1.199021
1.1999543
1.2005913
1.2010202
1.2013046
1.20149
1.2016087
1.201683
1.2017283
1.2017552
1.2017706
1.2017791
1.2017837
1.201786
1.2017871
1.2017876
1.2017879
1.2017879
1.201788
1.201788
1.201788
1.201788
0.93953049
0.96635213
0.99249656
1.018006
1.0427592
1.0664953
1.0888529
1.1094307
1.127861
1.1438815
1.1573824
1.1684176
1.1771801
1.1839555
1.1890713
1.1928533
1.195598
1.1975574
1.1989355
1.1998914
1.2005457
1.2009873
1.2012812
1.2014735
1.2015971
1.2016748
1.2017226
1.2017511
1.2017676
1.2017768
1.2017817
1.2017842
1.2017855
1.2017861
1.2017863
1.2017864
1.2017865
1.2017865
1.2017865
1.2017865
0.93932293
0.96605931
0.99211755
1.0175435
1.0422213
1.0658966
1.0882148
1.1087792
1.1272238
1.1432839
1.1568439
1.16795
1.1767874
1.1836352
1.1888164
1.1926548
1.1954461
1.1974429
1.1988503
1.1998288
1.2005
1.2009544
1.2012576
1.2014568
1.2015853
1.2016666
1.2017167
1.2017469
1.2017644
1.2017743
1.2017797
1.2017824
1.2017838
1.2017845
1.2017848
1.2017849
1.201785
1.201785
1.201785
1.201785
0.93912077
0.96577418
0.99174849
1.0170931
1.0416972
1.065313
1.0875921
1.1081426
1.1266003
1.1426982
1.1563152
1.1674901
1.1764004
1.1833189
1.1885644
1.1924582
1.1952955
1.1973292
1.1987656
1.1997663
1.2004544
1.2009214
1.2012339
1.2014399
1.2015734
1.2016581
1.2017108
1.2017426
1.2017612
1.2017718
1.2017776
1.2017806
1.2017822
1.2017829
1.2017832
1.2017834
1.2017835
1.2017835
1.2017835
1.2017835
0.93892378
0.96549636
0.99138894
1.0166542
1.0411864
1.0647438
1.0869843
1.1075205
1.1259901
1.142124
1.155796
1.1670376
1.1760189
1.1830066
1.1883151
1.1922634
1.195146
1.1972162
1.1986813
1.199704
1.2004089
1.2008884
1.2012102
1.201423
1.2015613
1.2016496
1.2017047
1.2017382
1.201758
1.2017693
1.2017755
1.2017788
1.2017805
1.2017813
1.2017817
1.2017819
1.2017819
1.201782
1.201782
1.201782
0.93873171
0.96522552
0.99103844
1.0162263
1.0406883
1.0641884
1.0863906
1.1069122
1.1253925
1.1415608
1.1552859
1.1665922
1.1756428
1.1826982
1.1880685
1.1920705
1.1949978
1.197104
1.1985973
1.199642
1.2003634
1.2008553
1.2011864
1.2014059
1.2015492
1.201641
1.2016985
1.2017337
1.2017546
1.2017667
1.2017734
1.201777
1.2017788
1.2017797
1.2017802
1.2017804
1.2017804
1.2017805
1.2017805
1.2017805
0.93854433
0.96496136
0.99069659
1.015809
1.0402023
1.0636462
1.0858106
1.1063172
1.1248072
1.1410083
1.1547846
1.1661538
1.1752719
1.1823936
1.1878246
1.1918793
1.1948506
1.1969924
1.1985138
1.1995801
1.200318
1.2008223
1.2011625
1.2013887
1.2015369
1.2016322
1.2016922
1.2017291
1.2017512
1.201764
1.2017712
1.2017751
1.2017771
1.2017781
1.2017786
1.2017788
1.2017789
1.201779
1.201779
1.201779
0.93836146
0.96470357
0.99036302
1.0154017
1.0397278
1.0631166
1.0852436
1.105735
1.1242337
1.1404661
1.1542918
1.1657221
1.1749062
1.1820927
1.1875832
1.1916899
1.1947046
1.1968816
1.1984307
1.1995185
1.2002727
1.2007892
1.2011385
1.2013715
1.2015245
1.2016233
1.2016858
1.2017245
1.2017478
1.2017614
1.201769
1.2017732
1.2017754
1.2017765
1.201777
1.2017773
1.2017774
1.2017775
1.2017775
1.2017775
0.93818288
0.96445189
0.99003736
1.0150041
1.0392644
1.0625992
1.0846891
1.1051649
1.1236715
1.1399339
1.1538073
1.1652969
1.1745453
1.1817953
1.1873444
1.1915022
1.1945597
1.1967715
1.198348
1.199457
1.2002274
1.2007561
1.2011145
1.2013541
1.201512
1.2016144
1.2016794
1.2017198
1.2017442
1.2017586
1.2017668
1.2017713
1.2017737
1.2017749
1.2017755
1.2017758
1.2017759
1.2017759
1.201776
1.201776
0.93800842
0.96420604
0.98971928
1.0146156
1.0388117
1.0620933
1.0841466
1.1046067
1.1231202
1.1394112
1.1533307
1.1648781
1.1741892
1.1815014
1.187108
1.1913161
1.194416
1.196662
1.1982658
1.1993958
1.2001823
1.2007231
1.2010904
1.2013367
1.2014995
1.2016053
1.2016728
1.201715
1.2017406
1.2017558
1.2017645
1.2017694
1.2017719
1.2017733
1.2017739
1.2017742
1.2017744
1.2017744
1.2017745
1.2017745
0.93783791
0.9639658
0.98940846
1.014236
1.0383691
1.0615985
1.0836157
1.1040598
1.1225795
1.1388978
1.1528619
1.1644654
1.1738378
1.181211
1.186874
1.1911317
1.1942733
1.1965533
1.1981839
1.1993348
1.2001372
1.20069
1.2010663
1.2013192
1.2014868
1.2015962
1.2016662
1.2017101
1.201737
1.201753
1.2017622
1.2017674
1.2017702
1.2017716
1.2017723
1.2017727
1.2017728
1.2017729
1.2017729
1.2017729
0.93767118
0.96373092
0.98910461
1.0138649
1.0379363
1.0611145
1.0830959
1.1035238
1.1220489
1.1383933
1.1524006
1.1640586
1.173491
1.1809238
1.1866423
1.1909489
1.1941316
1.1964452
1.1981025
1.1992741
1.2000923
1.200657
1.2010422
1.2013017
1.2014741
1.2015869
1.2016595
1.2017052
1.2017333
1.2017501
1.2017599
1.2017654
1.2017684
1.20177
1.2017708
1.2017711
1.2017713
1.2017714
1.2017714
1.2017714
0.93750809
0.9635012
0.98880745
1.013502
1.0375129
1.0606407
1.0825867
1.1029983
1.1215281
1.1378975
1.1519465
1.1636577
1.1731485
1.1806399
1.186413
1.1907676
1.193991
1.1963378
1.1980214
1.1992136
1.2000475
1.200624
1.2010181
1.2012841
1.2014613
1.2015776
1.2016527
1.2017002
1.2017295
1.2017472
1.2017575
1.2017634
1.2017666
1.2017683
1.2017692
1.2017696
1.2017698
1.2017699
1.2017699
1.2017699
0.9373485
0.96327643
0.98851671
1.0131468
1.0370985
1.0601768
1.0820879
1.102483
1.1210168
1.1374101
1.1514995
1.1632623
1.1728104
1.1803592
1.1861858
1.1905879
1.1938514
1.196231
1.1979408
1.1991533
1.2000027
1.2005911
1.2009939
1.2012664
1.2014485
1.2015683
1.2016458
1.2016951
1.2017257
1.2017442
1.2017551
1.2017613
1.2017648
1.2017666
1.2017676
1.201768
1.2017683
1.2017684
1.2017684
1.2017684
0.93719225
0.96305641
0.98823214
1.0127992
1.0366928
1.0597225
1.081599
1.1019774
1.1205147
1.1369307
1.1510592
1.1628724
1.1724764
1.1800815
1.1859609
1.1904097
1.1937129
1.1961249
1.1978605
1.1990932
1.1999581
1.2005582
1.2009697
1.2012488
1.2014355
1.2015588
1.2016389
1.2016899
1.2017218
1.2017412
1.2017527
1.2017593
1.201763
1.2017649
1.201766
1.2017665
1.2017667
1.2017668
1.2017669
1.2017669
0.93703924
0.96284098
0.98795352
1.0124588
1.0362955
1.0592773
1.0811196
1.1014813
1.1200214
1.1364593
1.1506256
1.1624879
1.1721465
1.1798069
1.1857381
1.190233
1.1935753
1.1960194
1.1977807
1.1990334
1.1999136
1.2005253
1.2009456
1.201231
1.2014226
1.2015493
1.2016319
1.2016847
1.2017179
1.2017381
1.2017502
1.2017572
1.2017611
1.2017632
1.2017643
1.2017649
1.2017652
1.2017653
1.2017654
1.2017654
0.93688933
0.96262995
0.9876806
1.0121254
1.0359062
1.0588409
1.0806494
1.1009943
1.1195366
1.1359954
1.1501985
1.1621085
1.1718207
1.1795352
1.1855175
1.1900577
1.1934387
1.1959146
1.1977012
1.1989737
1.1998693
1.2004925
1.2009214
1.2012133
1.2014095
1.2015398
1.2016248
1.2016795
1.2017139
1.201735
1.2017477
1.2017551
1.2017592
1.2017615
1.2017627
1.2017633
1.2017636
1.2017638
1.2017638
1.2017639
0.93674242
0.96242317
0.9874132
1.0117987
1.0355247
1.0584131
1.0801881
1.1005162
1.1190602
1.135539
1.1497776
1.1617342
1.1714986
1.1792663
1.1852988
1.1898839
1.193303
1.1958103
1.1976222
1.1989144
1.199825
1.2004597
1.2008972
1.2011955
1.2013965
1.2015301
1.2016177
1.2016742
1.2017098
1.2017319
1.2017451
1.2017529
1.2017573
1.2017598
1.2017611
1.2017618
1.2017621
1.2017623
1.2017623
1.2017623
0.9365984
0.96222047
0.9871511
1.0114784
1.0351506
1.0579935
1.0797355
1.1000466
1.1185918
1.1350897
1.1493627
1.1613647
1.1711804
1.1790003
1.1850822
1.1897114
1.1931683
1.1957067
1.1975435
1.1988552
1.1997809
1.2004269
1.200873
1.2011777
1.2013833
1.2015204
1.2016106
1.2016688
1.2017057
1.2017287
1.2017426
1.2017508
1.2017554
1.201758
1.2017594
1.2017602
1.2017605
1.2017607
1.2017608
1.2017608
0.93645716
0.96202172
0.98689411
1.0111644
1.0347837
1.0575818
1.0792911
1.0995852
1.1181311
1.1346474
1.1489538
1.1610001
1.1708659
1.178737
1.1848675
1.1895403
1.1930344
1.1956037
1.1974652
1.1987963
1.1997369
1.2003943
1.2008488
1.2011598
1.2013702
1.2015107
1.2016033
1.2016634
1.2017016
1.2017254
1.20174
1.2017486
1.2017535
1.2017563
1.2017578
1.2017586
1.201759
1.2017592
1.2017593
1.2017593
0.9363186
0.96182678
0.98664206
1.0108564
1.0344239
1.0571778
1.0788548
1.0991318
1.117678
1.1342118
1.1485506
1.1606401
1.170555
1.1784764
1.1846548
1.1893705
1.1929015
1.1955013
1.1973872
1.1987376
1.199693
1.2003616
1.2008247
1.201142
1.201357
1.2015009
1.201596
1.2016579
1.2016974
1.2017222
1.2017373
1.2017463
1.2017516
1.2017545
1.2017561
1.201757
1.2017574
1.2017576
1.2017577
1.2017578
0.93618263
0.9616355
0.98639478
1.0105542
1.0340707
1.0567812
1.0784262
1.0986861
1.1172322
1.1337827
1.148153
1.1602846
1.1702476
1.1782184
1.1844439
1.1892021
1.1927695
1.1953994
1.1973097
1.1986791
1.1996492
1.2003291
1.2008005
1.2011241
1.2013437
1.2014911
1.2015887
1.2016524
1.2016932
1.2017189
1.2017346
1.2017441
1.2017496
1.2017527
1.2017545
1.2017554
1.2017559
1.2017561
1.2017562
1.2017562
0.93604917
0.96144778
0.9861521
1.0102576
1.033724
1.0563918
1.0780051
1.098248
1.1167935
1.1333601
1.1477608
1.1599335
1.1699436
1.177963
1.1842349
1.1890349
1.1926384
1.1952982
1.1972325
1.1986208
1.1996056
1.2002965
1.2007764
1.2011062
1.2013305
1.2014812
1.2015813
1.2016468
1.2016889
1.2017155
1.2017319
1.2017418
1.2017476
1.2017509
1.2017528
1.2017538
1.2017543
1.2017545
1.2017547
1.2017547
0.93591813
0.96126348
0.98591387
1.0099665
1.0333837
1.0560093
1.0775913
1.0978171
1.1163617
1.1329436
1.147374
1.1595868
1.169643
1.1777101
1.1840278
1.188869
1.1925081
1.1951975
1.1971556
1.1985627
1.199562
1.2002641
1.2007522
1.2010883
1.2013172
1.2014713
1.2015739
1.2016412
1.2016846
1.2017121
1.2017292
1.2017395
1.2017456
1.2017491
1.2017511
1.2017522
1.2017527
1.201753
1.2017531
1.2017531
0.93578943
0.9610825
0.98567994
1.0096806
1.0330494
1.0556335
1.0771846
1.0973932
1.1159365
1.1325331
1.1469923
1.1592443
1.1693456
1.1774597
1.1838223
1.1887043
1.1923786
1.1950973
1.1970791
1.1985049
1.1995186
1.2002317
1.2007281
1.2010703
1.2013038
1.2014614
1.2015664
1.2016355
1.2016802
1.2017087
1.2017264
1.2017372
1.2017436
1.2017473
1.2017494
1.2017505
1.2017511
1.2017514
1.2017516
1.2017516
0.935663
0.96090473
0.98545017
1.0093998
1.0327209
1.0552642
1.0767847
1.0969762
1.1155179
1.1321286
1.1466156
1.1589058
1.1690515
1.1772117
1.1836187
1.1885409
1.19225
1.1949977
1.197003
1.1984473
1.1994754
1.2001993
1.200704
1.2010524
1.2012905
1.2014514
1.2015589
1.2016298
1.2016759
1.2017052
1.2017236
1.2017348
1.2017416
1.2017455
1.2017477
1.2017489
1.2017495
1.2017499
1.20175
1.20175
0.93553875
0.96073006
0.98522443
1.0091239
1.0323982
1.0549012
1.0763914
1.0965658
1.1151056
1.1317297
1.1462438
1.1585714
1.1687605
1.176966
1.1834167
1.1883787
1.1921222
1.1948986
1.1969272
1.1983899
1.1994322
1.200167
1.20068
1.2010345
1.2012771
1.2014414
1.2015514
1.2016241
1.2016714
1.2017017
1.2017208
1.2017325
1.2017395
1.2017436
1.201746
1.2017473
1.201748
1.2017483
1.2017484
1.2017485
0.93541663
0.9605584
0.98500258
1.0088527
1.032081
1.0545442
1.0760046
1.0961618
1.1146993
1.1313363
1.1458768
1.1582409
1.1684726
1.1767226
1.1832164
1.1882176
1.1919952
1.1948001
1.1968517
1.1983326
1.1993891
1.2001348
1.2006559
1.2010165
1.2012637
1.2014313
1.2015438
1.2016183
1.2016669
1.2016982
1.2017179
1.2017301
1.2017374
1.2017417
1.2017442
1.2017456
1.2017464
1.2017467
1.2017469
1.2017469
0.93529656
0.96038965
0.98478452
1.0085862
1.0317691
1.0541932
1.0756239
1.0957641
1.1142991
1.1309484
1.1455144
1.1579142
1.1681877
1.1764815
1.1830178
1.1880577
1.1918689
1.194702
1.1967766
1.1982756
1.1993462
1.2001026
1.2006319
1.2009986
1.2012502
1.2014212
1.2015362
1.2016125
1.2016624
1.2016946