/*--------------------------------*- C++ -*----------------------------------*\
| =========                 |                                                 |
| \\      /  F ield         | OpenFOAM: The Open Source CFD Toolbox           |
|  \\    /   O peration     | Version:  3.0.1                                 |
|   \\  /    A nd           | Web:      www.OpenFOAM.org                      |
|    \\/     M anipulation  |                                                 |
\*---------------------------------------------------------------------------*/
FoamFile
{
    version     2.0;
    format      ascii;
    class       volScalarField;
    location    "2277";
    object      T;
}
// * * * * * * * * * * * * * * * * * * * * * * * * * * * * * * * * * * * * * //

dimensions      [0 0 0 1 0 0 0];

internalField   nonuniform List<scalar> 
4000
(
342.3071
323.7151
310.93686
303.03274
298.50662
296.06814
294.8201
294.20971
293.92339
293.79432
293.73834
293.71497
293.70557
293.70194
293.70059
293.7001
293.69994
293.69988
293.69986
293.69986
293.69986
293.69986
293.69986
293.69986
293.69986
293.69986
293.69986
293.69986
293.69986
293.69986
293.69986
293.69986
293.69986
293.69986
293.69986
293.69986
293.69986
293.69986
293.69986
293.69987
353.5467
336.2748
321.96992
311.23635
303.91875
299.33164
296.65271
295.1792
294.40995
294.0269
293.84446
293.76122
293.72481
293.70955
293.70341
293.70105
293.70017
293.69986
293.69976
293.69972
293.69971
293.69971
293.69971
293.69971
293.69971
293.69971
293.69971
293.69971
293.69971
293.69971
293.69971
293.69971
293.69971
293.69971
293.69971
293.69971
293.69971
293.69971
293.69972
293.69972
358.30363
342.30218
328.34845
316.98405
308.44689
302.52998
298.71975
296.4199
295.10865
294.3985
294.03185
293.85103
293.76575
293.72729
293.71069
293.70384
293.70114
293.70012
293.69975
293.69962
293.69958
293.69957
293.69956
293.69956
293.69956
293.69956
293.69956
293.69956
293.69956
293.69956
293.69956
293.69956
293.69956
293.69956
293.69956
293.69957
293.69957
293.69957
293.69957
293.69957
361.11337
345.95135
332.46737
321.05355
312.00337
305.32076
300.71712
297.7414
295.92522
294.87309
294.29248
293.98665
293.83272
293.75867
293.72463
293.70969
293.70342
293.70091
293.69995
293.6996
293.69947
293.69943
293.69942
293.69942
293.69942
293.69942
293.69942
293.69942
293.69942
293.69942
293.69942
293.69942
293.69942
293.69942
293.69942
293.69942
293.69942
293.69942
293.69942
293.69943
363.0469
348.48441
335.40394
324.09204
314.82393
307.69008
302.53834
299.03666
296.7854
295.41009
294.60905
294.16334
293.92622
293.80561
293.74697
293.71974
293.70767
293.70256
293.7005
293.69971
293.69942
293.69932
293.69929
293.69927
293.69927
293.69927
293.69927
293.69927
293.69927
293.69927
293.69927
293.69927
293.69927
293.69927
293.69927
293.69927
293.69927
293.69928
293.69928
293.69928
364.49288
350.38739
337.64132
326.46877
317.1142
309.70315
304.16555
300.25729
297.64208
295.97614
294.96262
294.37263
294.04376
293.86825
293.77863
293.73489
293.71451
293.70544
293.7016
293.70005
293.69945
293.69924
293.69916
293.69914
293.69913
293.69913
293.69912
293.69912
293.69912
293.69912
293.69912
293.69912
293.69913
293.69913
293.69913
293.69913
293.69913
293.69913
293.69913
293.69913
365.63349
351.89271
339.42651
328.39712
319.01919
311.43126
305.61418
301.38808
298.47011
296.54828
295.33716
294.60542
294.18126
293.94543
293.81977
293.75568
293.72444
293.7099
293.70345
293.70072
293.69963
293.69921
293.69905
293.699
293.69899
293.69898
293.69898
293.69898
293.69898
293.69898
293.69898
293.69898
293.69898
293.69898
293.69898
293.69898
293.69898
293.69898
293.69898
293.69899
366.56697
353.12706
340.89899
330.0062
320.63713
312.9332
306.90797
302.42916
299.25803
297.11235
295.72066
294.85359
294.33423
294.0352
293.86989
293.78225
293.73778
293.71622
293.70624
293.70184
293.7
293.69926
293.69898
293.69888
293.69885
293.69884
293.69883
293.69883
293.69883
293.69883
293.69883
293.69883
293.69883
293.69883
293.69883
293.69883
293.69884
293.69884
293.69884
293.69884
367.35186
354.16644
342.1442
331.37858
322.03545
314.25424
308.07016
303.38689
300.00205
297.66033
296.10485
295.11061
294.49841
294.13532
293.92808
293.81444
293.75468
293.72461
293.71015
293.70352
293.70063
293.69943
293.69895
293.69878
293.69872
293.69869
293.69869
293.69869
293.69869
293.69869
293.69869
293.69869
293.69869
293.69869
293.69869
293.69869
293.69869
293.69869
293.69869
293.69869
368.02562
355.05964
343.2178
332.56962
323.26157
315.42876
309.12096
304.26957
300.70241
298.18817
296.48435
295.37157
294.6702
294.24353
293.99322
293.85183
293.7751
293.73518
293.7153
293.70586
293.70159
293.69975
293.69899
293.6987
293.69859
293.69856
293.69854
293.69854
293.69854
293.69854
293.69854
293.69854
293.69854
293.69854
293.69854
293.69854
293.69854
293.69854
293.69855
293.69855
368.6135
355.83968
344.15783
333.61795
324.34977
316.48297
310.07718
305.08554
301.3612
298.69422
296.85584
295.63293
294.84665
294.35781
294.06413
293.8939
293.79889
293.74796
293.7218
293.70895
293.70294
293.70025
293.69912
293.69866
293.69849
293.69842
293.6984
293.6984
293.69839
293.69839
293.69839
293.69839
293.69839
293.69839
293.6984
293.6984
293.6984
293.6984
293.6984
293.6984
369.13327
356.52986
344.99133
334.55148
325.32546
317.43704
310.95258
305.84249
301.98135
299.17823
297.2174
295.89225
295.0255
294.47643
294.13969
293.94003
293.8258
293.76291
293.72967
293.71286
293.70473
293.70098
293.69935
293.69867
293.6984
293.6983
293.69826
293.69825
293.69825
293.69825
293.69825
293.69825
293.69825
293.69825
293.69825
293.69825
293.69825
293.69825
293.69825
293.69825
369.59786
357.14715
345.73812
335.39091
326.20786
318.30676
311.75845
306.54722
302.56597
299.64076
297.56805
296.14788
295.20504
294.59794
294.21887
293.98959
293.85553
293.77993
293.73893
293.71761
293.70701
293.70198
293.69971
293.69873
293.69834
293.69818
293.69813
293.69811
293.6981
293.6981
293.6981
293.6981
293.6981
293.6981
293.6981
293.6981
293.69811
293.69811
293.69811
293.69811
370.01695
357.70429
346.41315
336.152
327.01186
319.10463
312.50403
307.20565
303.1181
300.08274
297.90742
296.39875
295.38399
294.72119
294.30077
294.042
293.88773
293.79887
293.74955
293.72325
293.70981
293.70326
293.70021
293.69887
293.6983
293.69808
293.698
293.69797
293.69796
293.69796
293.69796
293.69796
293.69796
293.69796
293.69796
293.69796
293.69796
293.69796
293.69796
293.69796
370.39797
358.21104
347.02792
336.84698
327.74917
319.84067
313.19696
307.82286
303.64062
300.50532
298.23549
296.64422
295.56144
294.84527
294.38464
294.09672
293.92209
293.81957
293.76146
293.72976
293.71316
293.70486
293.70089
293.69909
293.69831
293.698
293.69788
293.69783
293.69782
293.69781
293.69781
293.69781
293.69781
293.69781
293.69781
293.69781
293.69781
293.69781
293.69782
293.69782
370.7467
358.67504
347.59146
337.4855
328.42914
320.52304
313.84359
308.40325
304.13612
300.9097
298.5525
296.88392
295.73676
294.96947
294.46985
294.15326
293.95828
293.84184
293.77458
293.73712
293.71707
293.70679
293.70176
293.69941
293.69837
293.69793
293.69776
293.6977
293.69767
293.69767
293.69766
293.69766
293.69766
293.69766
293.69766
293.69767
293.69767
293.69767
293.69767
293.69767
371.06774
359.10236
348.11097
338.07534
329.05935
321.15844
314.44927
308.95061
304.60696
301.29707
298.85881
297.1177
295.9095
295.09325
294.55589
294.2112
293.99601
293.8655
293.78882
293.74531
293.72153
293.70907
293.70282
293.69984
293.69848
293.6979
293.69766
293.69757
293.69753
293.69752
293.69752
293.69752
293.69752
293.69752
293.69752
293.69752
293.69752
293.69752
293.69752
293.69752
371.36483
359.49791
348.59227
338.62281
329.64603
321.75243
315.01847
309.46819
305.05524
301.66859
299.15486
297.34553
296.07937
295.21621
294.64234
294.27019
294.03499
293.89038
293.80409
293.75428
293.72655
293.71171
293.7041
293.70038
293.69865
293.69789
293.69757
293.69744
293.69739
293.69738
293.69737
293.69737
293.69737
293.69737
293.69737
293.69737
293.69738
293.69738
293.69738
293.69738
371.64099
359.86571
349.04017
339.13309
330.19434
322.30967
315.55503
309.95884
305.48284
302.02533
299.44114
297.56747
296.24618
295.33803
294.72885
294.32991
294.07499
293.9163
293.82029
293.76398
293.73209
293.7147
293.7056
293.70106
293.69889
293.69791
293.69749
293.69732
293.69726
293.69724
293.69723
293.69723
293.69723
293.69723
293.69723
293.69723
293.69723
293.69723
293.69723
293.69723
371.89875
360.20909
349.45861
339.61053
330.70859
322.83411
316.06223
310.42504
305.89145
302.3683
299.71812
297.78365
296.40983
295.4585
294.81518
294.39012
294.11581
293.94312
293.8373
293.77436
293.73814
293.71804
293.70733
293.70187
293.69921
293.69798
293.69744
293.69721
293.69713
293.69709
293.69708
293.69708
293.69708
293.69708
293.69708
293.69708
293.69708
293.69708
293.69708
293.69709
372.14019
360.53082
349.85093
340.05876
331.19245
323.32911
316.54288
310.86893
306.28256
302.69843
299.98629
297.99423
296.5703
295.57746
294.90112
294.45061
294.15724
293.97068
293.85504
293.78536
293.74468
293.72173
293.70929
293.70282
293.6996
293.69808
293.6974
293.69711
293.697
293.69696
293.69694
293.69693
293.69693
293.69693
293.69693
293.69694
293.69694
293.69694
293.69694
293.69694
372.36711
360.83324
350.21993
340.48085
331.64903
323.79755
316.99944
311.29242
306.65751
303.01656
300.24611
298.19941
296.72757
295.69481
294.98649
294.5112
294.19915
293.99887
293.87342
293.79693
293.75167
293.72576
293.71147
293.70391
293.70009
293.69824
293.69739
293.69703
293.69688
293.69682
293.6968
293.69679
293.69679
293.69679
293.69679
293.69679
293.69679
293.69679
293.69679
293.69679
372.58099
361.11837
350.568
340.87946
332.081
324.24193
317.43404
311.69719
307.01752
303.32347
300.49804
298.39938
296.88168
295.81047
295.07118
294.57175
294.24138
294.02756
293.89234
293.809
293.75907
293.73011
293.71389
293.70515
293.70066
293.69844
293.69741
293.69695
293.69676
293.69668
293.69665
293.69665
293.69664
293.69664
293.69664
293.69664
293.69664
293.69665
293.69665
293.69665
372.78314
361.3879
350.8972
341.25684
332.49068
324.66443
317.84856
312.08473
307.36364
303.61989
300.74248
298.59435
297.03268
295.9244
295.1551
294.63214
294.28383
294.05665
293.91174
293.82153
293.76687
293.73476
293.71652
293.70654
293.70132
293.6987
293.69745
293.69689
293.69665
293.69655
293.69651
293.6965
293.6965
293.6965
293.6965
293.6965
293.6965
293.6965
293.6965
293.6965
372.97467
361.64332
351.2093
341.61497
332.88008
325.06693
318.24464
312.45634
307.69687
303.90647
300.97984
298.78452
297.18064
296.03658
295.23817
294.69228
294.3264
294.08607
293.93154
293.83446
293.77503
293.73969
293.71936
293.70808
293.70207
293.69901
293.69753
293.69684
293.69654
293.69642
293.69637
293.69636
293.69635
293.69635
293.69635
293.69635
293.69635
293.69635
293.69635
293.69636
373.15655
361.8859
351.50585
341.95555
333.25095
325.45112
318.62375
312.81321
308.01808
304.18381
301.2105
298.97008
297.32565
296.14702
295.32034
294.75209
294.369
294.11573
293.95167
293.84774
293.78351
293.7449
293.72241
293.70976
293.70293
293.69939
293.69764
293.69682
293.69645
293.6963
293.69624
293.69621
293.69621
293.6962
293.69621
293.69621
293.69621
293.69621
293.69621
293.69621
373.32963
362.11678
351.7882
342.28009
333.60484
325.81845
318.98718
313.15641
308.32806
304.45246
301.43479
299.15124
297.46778
296.25571
295.40158
294.81152
294.41157
294.14556
293.97209
293.86134
293.79228
293.75036
293.72566
293.71159
293.70387
293.69982
293.69778
293.69681
293.69637
293.69618
293.6961
293.69607
293.69606
293.69606
293.69606
293.69606
293.69606
293.69606
293.69606
293.69606
373.49464
362.33693
352.05753
342.5899
333.94312
326.17024
319.3361
313.48687
308.62753
304.71293
301.65304
299.32818
297.60712
296.36269
295.48186
294.87052
294.45406
294.17551
293.99273
293.8752
293.80132
293.75605
293.72909
293.71355
293.70492
293.70031
293.69796
293.69682
293.69629
293.69606
293.69597
293.69593
293.69592
293.69591
293.69591
293.69591
293.69592
293.69592
293.69592
293.69592
373.65225
362.54724
352.3149
342.88617
334.267
326.50766
319.67154
313.80545
308.91715
304.96568
301.86557
299.50108
297.74377
296.46798
295.56118
294.92906
294.4964
294.20554
294.01355
293.8893
293.8106
293.76195
293.7327
293.71564
293.70605
293.70087
293.69818
293.69685
293.69623
293.69595
293.69584
293.69579
293.69577
293.69577
293.69577
293.69577
293.69577
293.69577
293.69577
293.69577
373.80303
362.74846
352.56123
343.16993
334.57757
326.83174
319.99443
314.11293
309.19752
305.21113
302.07265
299.6701
297.8778
296.5716
295.63953
294.9871
294.53857
294.23558
294.03452
293.9036
293.82009
293.76805
293.73647
293.71787
293.70728
293.70148
293.69844
293.69691
293.69618
293.69585
293.69571
293.69565
293.69563
293.69562
293.69562
293.69562
293.69562
293.69562
293.69562
293.69563
373.94751
362.94129
352.79737
343.44211
334.87578
327.14343
320.30562
314.41002
309.46918
305.44969
302.27454
299.83543
298.00931
296.67361
295.7169
295.04462
294.58054
294.26562
294.0556
293.91806
293.82976
293.77433
293.7404
293.72022
293.7086
293.70216
293.69873
293.69699
293.69614
293.69575
293.69558
293.69551
293.69549
293.69548
293.69548
293.69548
293.69548
293.69548
293.69548
293.69548
374.08614
363.12634
353.02404
343.70355
335.16251
327.44357
320.60587
314.69735
309.73263
305.68172
302.4715
299.9972
298.13839
296.77403
295.79331
295.10162
294.62227
294.29562
294.07676
293.93267
293.8396
293.78077
293.74447
293.72268
293.71001
293.7029
293.69907
293.69709
293.69612
293.69566
293.69546
293.69538
293.69535
293.69533
293.69533
293.69533
293.69533
293.69533
293.69533
293.69533
374.21935
363.30417
353.24192
343.95498
335.43855
327.73293
320.89588
314.97551
309.98834
305.90756
302.66376
300.15556
298.26511
296.8729
295.86877
295.15808
294.66375
294.32556
294.09797
293.94739
293.84959
293.78736
293.74867
293.72525
293.7115
293.7037
293.69945
293.69722
293.69611
293.69558
293.69535
293.69525
293.69521
293.69519
293.69519
293.69519
293.69519
293.69519
293.69519
293.69519
374.3475
363.47526
353.45161
344.1971
335.70459
328.01219
321.17627
315.24504
310.23672
306.12751
302.85152
300.31066
298.38956
296.97026
295.94328
295.21399
294.70496
294.35541
294.1192
293.96221
293.8597
293.79408
293.753
293.72793
293.71308
293.70457
293.69987
293.69738
293.69612
293.69551
293.69523
293.69511
293.69507
293.69505
293.69504
293.69504
293.69504
293.69504
293.69504
293.69504
374.47094
363.64008
353.65365
344.4305
335.96129
328.28198
321.44762
315.50641
310.47817
306.34188
303.035
300.46262
298.51181
297.06616
296.01686
295.26936
294.74588
294.38515
294.14045
293.9771
293.86992
293.80092
293.75744
293.73071
293.71473
293.70549
293.70033
293.69756
293.69614
293.69545
293.69513
293.69499
293.69493
293.6949
293.6949
293.69489
293.69489
293.69489
293.6949
293.6949
374.58997
363.79903
353.84853
344.65575
336.20922
328.54288
321.71045
315.76009
310.71304
306.55092
303.21439
300.61157
298.63195
297.16063
296.08952
295.32418
294.78652
294.41477
294.16168
293.99205
293.88023
293.80786
293.76198
293.73358
293.71646
293.70646
293.70082
293.69777
293.69618
293.69539
293.69502
293.69486
293.69479
293.69476
293.69475
293.69475
293.69475
293.69475
293.69475
293.69475
374.70486
363.95247
354.03671
344.87335
336.44892
328.79542
321.96525
316.00649
310.94167
306.75489
303.38985
300.75762
298.75004
297.25371
296.16129
295.37845
294.82686
294.44426
294.18289
294.00704
293.89063
293.81491
293.76663
293.73653
293.71826
293.7075
293.70136
293.698
293.69624
293.69535
293.69493
293.69474
293.69465
293.69462
293.69461
293.6946
293.6946
293.6946
293.6946
293.6946
374.81588
364.10074
354.21859
345.08375
336.68088
329.04007
322.21247
316.246
311.16437
306.95402
303.56156
300.9009
298.86615
297.34544
296.23218
295.43219
294.86689
294.47361
294.20406
294.02206
293.90109
293.82203
293.77135
293.73957
293.72013
293.70858
293.70194
293.69827
293.69631
293.69532
293.69484
293.69461
293.69452
293.69448
293.69446
293.69446
293.69446
293.69446
293.69446
293.69446
374.92326
364.24416
354.39455
345.28739
336.90554
329.27727
322.4525
316.47895
311.38142
307.14854
303.72967
301.04149
298.98035
297.43587
296.30222
295.48539
294.90661
294.5028
294.22518
294.0371
293.9116
293.82923
293.77616
293.74268
293.72206
293.70972
293.70256
293.69855
293.6964
293.69529
293.69475
293.6945
293.69438
293.69434
293.69432
293.69431
293.69431
293.69431
293.69431
293.69431
375.0272
364.38301
354.56493
345.48465
337.12331
329.50744
322.68574
316.70569
311.5931
307.33863
303.89433
301.1795
299.0927
297.52502
296.37141
295.53806
294.94602
294.53183
294.24625
294.05214
293.92216
293.8365
293.78104
293.74586
293.72406
293.71091
293.70322
293.69887
293.69651
293.69528
293.69467
293.69438
293.69425
293.6942
293.69418
293.69417
293.69417
293.69417
293.69417
293.69417
375.1279
364.51753
354.73004
345.67589
337.33457
329.73095
322.91253
316.92652
311.79965
307.52451
304.05567
301.31504
299.20326
297.61293
296.43977
295.5902
294.98513
294.5607
294.26725
294.06719
293.93276
293.84382
293.78598
293.7491
293.72611
293.71214
293.70391
293.69921
293.69664
293.69528
293.6946
293.69427
293.69412
293.69406
293.69403
293.69402
293.69402
293.69402
293.69402
293.69402
375.22554
364.64798
354.89017
345.86143
337.53967
329.94814
323.13318
317.14173
312.0013
307.70634
304.21384
301.44817
299.31209
297.69964
296.50733
295.64184
295.02392
294.58941
294.28817
294.08222
293.94338
293.85119
293.79099
293.75241
293.72822
293.71342
293.70463
293.69958
293.69678
293.69529
293.69454
293.69417
293.694
293.69392
293.69389
293.69388
293.69388
293.69387
293.69387
293.69387
375.32029
364.77458
355.0456
346.04158
337.73892
330.15934
323.34801
317.35156
312.19826
307.88429
304.36894
301.579
299.41925
297.78519
296.57411
295.69297
295.06241
294.61794
294.30902
294.09723
293.95403
293.85861
293.79604
293.75577
293.73037
293.71475
293.7054
293.69998
293.69695
293.69532
293.69448
293.69407
293.69387
293.69379
293.69375
293.69374
293.69373
293.69373
293.69373
293.69373
375.4123
364.89752
355.19656
346.21661
337.93263
330.36485
323.5573
317.55628
312.39076
308.05852
304.5211
301.70759
299.52479
297.86959
296.64012
295.7436
295.10059
294.64629
294.32978
294.11222
293.96469
293.86606
293.80115
293.75917
293.73258
293.71611
293.70619
293.7004
293.69713
293.69535
293.69443
293.69397
293.69375
293.69365
293.69361
293.69359
293.69359
293.69358
293.69358
293.69358
375.50171
365.01699
355.34329
346.38679
338.12108
330.56493
323.7613
317.75611
312.57896
308.22918
304.67043
301.83404
299.62876
297.9529
296.70538
295.79374
295.13847
294.67448
294.35046
294.12718
293.97535
293.87354
293.80629
293.76263
293.73483
293.71752
293.70702
293.70084
293.69733
293.6954
293.69439
293.69388
293.69363
293.69352
293.69347
293.69345
293.69344
293.69344
293.69344
293.69344
375.58865
365.13317
355.48599
346.55235
338.30452
330.75986
323.96025
317.95127
312.76306
308.39641
304.81702
301.9584
299.7312
298.03513
296.76991
295.8434
295.17604
294.70248
294.37104
294.1421
293.98602
293.88105
293.81148
293.76613
293.73712
293.71896
293.70788
293.70131
293.69754
293.69546
293.69435
293.69379
293.69351
293.69339
293.69333
293.69331
293.6933
293.69329
293.69329
293.69329
375.67324
365.24622
355.62487
346.71353
338.48318
330.94986
324.15439
318.14195
312.94321
308.56034
304.96098
302.08075
299.83217
298.11631
296.83373
295.89259
295.21332
294.73031
294.39153
294.15699
293.99669
293.88858
293.8167
293.76966
293.73945
293.72044
293.70877
293.7018
293.69778
293.69553
293.69432
293.6937
293.6934
293.69326
293.69319
293.69316
293.69315
293.69315
293.69315
293.69315
375.75559
365.35629
355.76011
346.87052
338.6573
331.13517
324.34392
318.32835
313.11959
308.72109
305.1024
302.20116
299.93171
298.19648
296.89685
295.94132
295.25031
294.75797
294.41193
294.17184
294.00736
293.89612
293.82194
293.77324
293.74181
293.72195
293.70969
293.70232
293.69803
293.69561
293.69431
293.69363
293.69329
293.69313
293.69305
293.69302
293.69301
293.693
293.693
293.693
375.83582
365.46352
355.89187
347.02353
338.82708
331.31599
324.52905
318.51065
313.29233
308.87879
305.24136
302.31968
300.02985
298.27566
296.95929
295.9896
295.28701
294.78545
294.43223
294.18664
294.01801
293.90368
293.82722
293.77684
293.74421
293.72349
293.71063
293.70286
293.6983
293.69571
293.6943
293.69355
293.69318
293.693
293.69292
293.69288
293.69287
293.69286
293.69286
293.69286
375.91402
365.56804
356.02033
347.17273
338.99271
331.49252
324.70995
318.689
313.46157
309.03354
305.37796
302.43637
300.12665
298.35387
297.02106
296.03743
295.32342
294.81275
294.45243
294.2014
294.02865
293.91125
293.83251
293.78048
293.74664
293.72507
293.71161
293.70342
293.69858
293.69582
293.69429
293.69349
293.69308
293.69287
293.69278
293.69274
293.69272
293.69271
293.69271
293.69271
375.99028
365.66998
356.14562
347.31829
339.15438
331.66494
324.88682
318.86357
313.62746
309.18545
305.51226
302.5513
300.22214
298.43115
297.08219
296.08483
295.35955
294.83988
294.47254
294.21611
294.03928
293.91883
293.83783
293.78414
293.74911
293.72667
293.7126
293.704
293.69889
293.69594
293.6943
293.69342
293.69297
293.69275
293.69265
293.6926
293.69258
293.69257
293.69257
293.69257
376.06468
365.76944
356.26788
347.46038
339.31226
331.83343
325.05981
319.03451
313.79011
309.33462
305.64435
302.66452
300.31635
298.50752
297.14268
296.13181
295.3954
294.86684
294.49254
294.23077
294.04989
293.92641
293.84317
293.78782
293.75159
293.7283
293.71363
293.7046
293.6992
293.69607
293.69432
293.69337
293.69288
293.69263
293.69251
293.69246
293.69244
293.69243
293.69242
293.69242
376.13732
365.86655
356.38726
347.59914
339.46651
331.99815
325.22907
319.20196
313.94964
309.48114
305.7743
302.77608
300.40932
298.58299
297.20255
296.17836
295.43099
294.89364
294.51245
294.24538
294.06048
293.93399
293.84852
293.79153
293.75411
293.72995
293.71467
293.70522
293.69954
293.69622
293.69434
293.69332
293.69278
293.69251
293.69238
293.69232
293.69229
293.69228
293.69228
293.69228
376.20826
365.96138
356.50387
347.73472
339.61727
332.15926
325.39476
319.36604
314.10617
309.62511
305.90217
302.88602
300.5011
298.6576
297.26182
296.22451
295.4663
294.92026
294.53225
294.25994
294.07106
293.94157
293.85388
293.79526
293.75664
293.73163
293.71574
293.70587
293.69989
293.69637
293.69437
293.69327
293.69269
293.6924
293.69225
293.69218
293.69215
293.69214
293.69213
293.69213
376.27757
366.05406
356.61782
347.86723
339.7647
332.31689
325.55701
319.52689
314.25979
309.7666
306.02803
302.9944
300.5917
298.73136
297.3205
296.27026
295.50135
294.94672
294.55196
294.27444
294.0816
293.94915
293.85925
293.799
293.7592
293.73333
293.71683
293.70653
293.70025
293.69654
293.69441
293.69324
293.69261
293.69228
293.69212
293.69205
293.69201
293.692
293.69199
293.69199
376.34533
366.14465
356.72923
347.99682
339.90892
332.47118
325.71595
319.68461
314.41062
309.9057
306.15195
303.10126
300.68116
298.8043
297.37859
296.31561
295.53615
294.97301
294.57157
294.28889
294.09213
293.95673
293.86463
293.80277
293.76178
293.73505
293.71794
293.7072
293.70063
293.69672
293.69446
293.6932
293.69252
293.69217
293.692
293.69191
293.69187
293.69185
293.69185
293.69185
376.41159
366.23324
356.83819
348.12359
340.05005
332.62226
325.8717
319.83933
314.55875
310.04249
306.27397
303.20664
300.76951
298.87643
297.43613
296.36058
295.57069
294.99914
294.59108
294.30328
294.10263
293.9643
293.87002
293.80655
293.76438
293.7368
293.71907
293.7079
293.70103
293.69691
293.69452
293.69318
293.69245
293.69206
293.69187
293.69178
293.69173
293.69171
293.6917
293.6917
376.47641
366.31992
356.94481
348.24766
340.18823
332.77026
326.02439
319.99114
314.70427
310.17705
306.39416
303.31059
300.85678
298.94778
297.49311
296.40517
295.60498
295.02511
294.61049
294.31762
294.1131
293.97186
293.87541
293.81034
293.767
293.73856
293.72021
293.70861
293.70144
293.69712
293.69459
293.69316
293.69237
293.69196
293.69175
293.69164
293.69159
293.69157
293.69156
293.69156
376.53986
366.40476
357.04917
348.36912
340.32356
332.91528
326.17412
320.14016
314.84726
310.30943
306.51258
303.41314
300.943
299.01836
297.54955
296.44939
295.63902
295.05093
294.62981
294.33191
294.12355
293.97942
293.88081
293.81414
293.76963
293.74034
293.72138
293.70934
293.70186
293.69733
293.69467
293.69314
293.6923
293.69186
293.69162
293.69151
293.69145
293.69143
293.69142
293.69142
376.60197
366.48783
357.15136
348.48809
340.45615
333.05743
326.321
320.28647
314.9878
310.43971
306.62927
303.51433
301.02819
299.0882
297.60547
296.49325
295.67282
295.07659
294.64903
294.34614
294.13397
293.98697
293.88622
293.81795
293.77227
293.74213
293.72256
293.71008
293.7023
293.69756
293.69475
293.69314
293.69224
293.69176
293.6915
293.69138
293.69132
293.69129
293.69128
293.69128
376.66281
366.56919
357.25146
348.60464
340.58609
333.19683
326.46513
320.43016
315.12599
310.56796
306.74428
303.6142
301.11238
299.1573
297.66086
296.53676
295.70639
295.1021
294.66816
294.36031
294.14436
293.9945
293.89162
293.82178
293.77493
293.74394
293.72376
293.71084
293.70275
293.69779
293.69484
293.69313
293.69218
293.69166
293.69139
293.69125
293.69118
293.69115
293.69114
293.69113
376.72242
366.64891
357.34955
348.71887
340.71349
333.33356
326.60659
320.57133
315.26188
310.69422
306.85766
303.71279
301.19559
299.22569
297.71575
296.57992
295.73973
295.12745
294.68719
294.37444
294.15473
294.00203
293.89703
293.82561
293.77761
293.74577
293.72497
293.71161
293.70321
293.69804
293.69494
293.69314
293.69212
293.69156
293.69127
293.69112
293.69104
293.69101
293.691
293.69099
376.78085
366.72704
357.4457
348.83087
340.83843
333.46772
326.74549
320.71005
315.39555
310.81857
306.96946
303.81012
301.27786
299.29338
297.77015
296.62274
295.77283
295.15266
294.70614
294.3885
294.16506
294.00955
293.90243
293.82945
293.78029
293.74761
293.7262
293.7124
293.70368
293.6983
293.69505
293.69315
293.69207
293.69147
293.69116
293.69099
293.69091
293.69087
293.69086
293.69085
376.83813
366.80366
357.53999
348.94071
340.961
333.59939
326.88191
320.84641
315.52708
310.94106
307.07972
303.90624
301.35919
299.36039
297.82406
296.66522
295.80571
295.17772
294.72498
294.40252
294.17537
294.01705
293.90784
293.83329
293.78299
293.74946
293.72744
293.7132
293.70417
293.69857
293.69517
293.69317
293.69202
293.69139
293.69104
293.69087
293.69078
293.69073
293.69072
293.69071
376.89431
366.8788
357.63246
349.04846
341.08129
333.72866
327.01592
320.98047
315.65652
311.06173
307.18848
304.00116
301.43962
299.42673
297.8775
296.70737
295.83838
295.20264
294.74374
294.41647
294.18565
294.02454
293.91324
293.83715
293.7857
293.75133
293.72869
293.71401
293.70467
293.69884
293.6953
293.69319
293.69198
293.6913
293.69094
293.69074
293.69064
293.6906
293.69058
293.69057
376.94942
366.95252
357.7232
349.1542
341.19936
333.85562
327.14761
321.11232
315.78393
311.18065
307.29578
304.09493
301.51917
299.49242
297.93047
296.7492
295.87082
295.22742
294.76241
294.43038
294.1959
294.03202
293.91864
293.841
293.78841
293.75321
293.72996
293.71484
293.70518
293.69913
293.69543
293.69322
293.69194
293.69122
293.69083
293.69062
293.69051
293.69046
293.69044
293.69043
377.00351
367.02486
357.81225
349.258
341.31529
333.98033
327.27705
321.24201
315.90939
311.29786
307.40166
304.18756
301.59784
299.55747
297.98298
296.79072
295.90305
295.25205
294.781
294.44423
294.20612
294.03949
293.92404
293.84486
293.79114
293.7551
293.73124
293.71568
293.7057
293.69943
293.69557
293.69326
293.69191
293.69115
293.69072
293.6905
293.69038
293.69033
293.6903
293.6903
377.05661
367.09589
357.89968
349.35992
341.42916
334.10287
327.40431
321.36961
316.03293
311.41341
307.50616
304.27909
301.67568
299.6219
298.03505
296.83193
295.93508
295.27656
294.79949
294.45803
294.21631
294.04694
293.92944
293.84873
293.79387
293.757
293.73253
293.71653
293.70623
293.69973
293.69572
293.6933
293.69188
293.69107
293.69062
293.69038
293.69025
293.69019
293.69017
293.69016
377.10874
367.16563
357.98554
349.46002
341.54102
334.2233
327.52946
321.49519
316.15463
311.52734
307.6093
304.36955
301.75268
299.68572
298.08668
296.87283
295.96689
295.30092
294.8179
294.47178
294.22647
294.05438
293.93483
293.8526
293.79661
293.75891
293.73383
293.71739
293.70677
293.70005
293.69588
293.69335
293.69186
293.691
293.69052
293.69026
293.69013
293.69006
293.69003
293.69002
377.15995
367.23413
358.06988
349.55836
341.65095
334.3417
327.65256
321.6188
316.27452
311.6397
307.71114
304.45895
301.82888
299.74894
298.13789
296.91344
295.99851
295.32515
294.83623
294.48548
294.23661
294.0618
293.94022
293.85647
293.79936
293.76083
293.73514
293.71826
293.70733
293.70038
293.69605
293.69341
293.69184
293.69094
293.69043
293.69015
293.69
293.68993
293.6899
293.68989
377.21025
367.30142
358.15274
349.655
341.759
334.45813
327.77367
321.7405
316.39266
311.75053
307.81169
304.54733
301.90429
299.81157
298.18867
296.95375
296.02993
295.34926
294.85447
294.49913
294.24671
294.06922
293.94561
293.86035
293.80211
293.76276
293.73647
293.71914
293.70789
293.70071
293.69622
293.69347
293.69183
293.69087
293.69033
293.69003
293.68988
293.6898
293.68976
293.68976
377.25969
367.36756
358.23418
349.74999
341.86524
334.57264
327.89286
321.86036
316.50911
311.85986
307.911
304.6347
301.97893
299.87363
298.23904
296.99377
296.06115
295.37323
294.87263
294.51272
294.25679
294.07661
293.95099
293.86422
293.80487
293.76469
293.7378
293.72003
293.70846
293.70105
293.6964
293.69354
293.69182
293.69082
293.69024
293.68992
293.68975
293.68967
293.68963
293.68962
377.30829
367.43257
358.31423
349.84338
341.96971
334.68529
328.01018
321.97841
316.62389
311.96775
308.00908
304.7211
302.05281
299.93513
298.289
297.03351
296.09218
295.39708
294.89071
294.52627
294.26683
294.084
293.95637
293.8681
293.80764
293.76664
293.73914
293.72093
293.70904
293.7014
293.69659
293.69361
293.69182
293.69076
293.69015
293.68982
293.68963
293.68954
293.6895
293.68949
377.35606
367.49649
358.39295
349.93522
342.07248
334.79614
328.12568
322.09471
316.73707
312.07421
308.10598
304.80654
302.12596
299.99607
298.33857
297.07298
296.12302
295.4208
294.90871
294.53977
294.27685
294.09137
293.96174
293.87198
293.81041
293.76859
293.74049
293.72184
293.70963