/*--------------------------------*- C++ -*----------------------------------*\
| =========                 |                                                 |
| \\      /  F ield         | OpenFOAM: The Open Source CFD Toolbox           |
|  \\    /   O peration     | Version:  3.0.1                                 |
|   \\  /    A nd           | Web:      www.OpenFOAM.org                      |
|    \\/     M anipulation  |                                                 |
\*---------------------------------------------------------------------------*/
FoamFile
{
    version     2.0;
    format      ascii;
    class       volVectorField;
    location    "2277";
    object      U;
}
// * * * * * * * * * * * * * * * * * * * * * * * * * * * * * * * * * * * * * //

dimensions      [0 1 -1 0 0 0 0];

internalField   nonuniform List<vector> 
4000
(
(0.0002177477 -1.2291127e-18 0.061285798)
(0.00049316066 -2.6655201e-18 0.13775822)
(0.00087109477 -4.0106376e-18 0.1851512)
(0.00098516712 -5.4897792e-18 0.21225577)
(0.00096754387 -5.8040725e-18 0.22594462)
(0.00088057455 -6.0558495e-18 0.23113585)
(0.00078015423 -6.4480112e-18 0.23113166)
(0.00068979453 -7.0108674e-18 0.22803402)
(0.0006170332 -6.5770159e-18 0.22312074)
(0.00056035767 -6.1437922e-18 0.21714024)
(0.00051568881 -5.7051888e-18 0.21052103)
(0.00047888532 -5.3668239e-18 0.20350897)
(0.00044678712 -5.0663573e-18 0.19625122)
(0.0004172758 -4.8332216e-18 0.18884449)
(0.00038907559 -4.6855371e-18 0.18136134)
(0.00036148298 -4.6303265e-18 0.17386334)
(0.00033415499 -4.6833557e-18 0.16640719)
(0.0003069645 -5.9404071e-18 0.15904685)
(0.00027990952 -7.3811314e-18 0.15183372)
(0.00025306222 -8.9752889e-18 0.14481568)
(0.00022654004 -1.0776705e-17 0.13803563)
(0.0002004901 -1.2879081e-17 0.13152971)
(0.00017508045 -1.3561812e-17 0.12532527)
(0.00015049352 -1.1282339e-17 0.11943876)
(0.0001269201 -1.0752985e-17 0.11387348)
(0.00010456152 -9.0298237e-18 0.10861724)
(8.3614615e-05 -7.4756757e-18 0.10363993)
(6.4292764e-05 -7.385705e-18 0.098890982)
(4.6777024e-05 -7.5351172e-18 0.094296916)
(3.1287838e-05 -7.921989e-18 0.089758926)
(1.7941918e-05 -7.4842803e-18 0.085150945)
(6.9738271e-06 -5.1691438e-18 0.080318331)
(-1.7085758e-06 -3.1395223e-18 0.07507822)
(-8.0784711e-06 -1.3116202e-18 0.069230485)
(-1.2099126e-05 3.6532417e-19 0.062547854)
(-1.3780723e-05 1.9400966e-18 0.05478526)
(-1.3681537e-05 2.047033e-18 0.045693959)
(-1.1586851e-05 1.1239813e-18 0.03502986)
(-8.8202516e-06 9.5163856e-19 0.022559773)
(-2.8472096e-06 3.0021218e-19 0.0080491166)
(-2.1936452e-05 -1.5941015e-18 0.066280866)
(-0.00028082293 -3.2599494e-18 0.14834508)
(-0.00058317068 -4.9195603e-18 0.19742194)
(-0.00089300233 -6.7420738e-18 0.22325346)
(-0.001142948 -6.3996881e-18 0.23424111)
(-0.0013069432 -6.3090502e-18 0.23657953)
(-0.0013747677 -6.4378997e-18 0.23424901)
(-0.0013575353 -6.6068017e-18 0.22953213)
(-0.0012767774 -6.4978043e-18 0.2236217)
(-0.0011566125 -6.1647206e-18 0.21709618)
(-0.0010178167 -5.9208976e-18 0.2102226)
(-0.0008757051 -5.9169898e-18 0.20312557)
(-0.00074012418 -5.2208601e-18 0.1958725)
(-0.00061655315 -4.8637969e-18 0.18851235)
(-0.000507415 -4.6051284e-18 0.18109118)
(-0.00041322072 -4.288922e-18 0.17365695)
(-0.00033340235 -4.3039262e-18 0.16625997)
(-0.00026685552 -5.9584782e-18 0.15895157)
(-0.00021225889 -7.5553558e-18 0.1517824)
(-0.00016824244 -9.1032363e-18 0.14480045)
(-0.00013346976 -1.094071e-17 0.13804913)
(-0.00010667173 -1.329923e-17 0.1315652)
(-8.6655415e-05 -1.3665424e-17 0.1253767)
(-7.2303946e-05 -1.1352197e-17 0.11950077)
(-6.2574913e-05 -1.1008416e-17 0.11394138)
(-5.649094e-05 -9.0818402e-18 0.10868695)
(-5.3144997e-05 -7.4902747e-18 0.10370798)
(-5.1680637e-05 -7.4088928e-18 0.098954469)
(-5.1322923e-05 -7.5525447e-18 0.094353478)
(-5.1322506e-05 -7.8865046e-18 0.089806751)
(-5.108062e-05 -7.211295e-18 0.085188765)
(-4.994918e-05 -4.8920758e-18 0.080345564)
(-4.7754242e-05 -3.1201234e-18 0.075095643)
(-4.425463e-05 -1.3159929e-18 0.069238113)
(-3.9149128e-05 3.5942747e-19 0.062546426)
(-3.2430312e-05 1.9246224e-18 0.054776627)
(-2.4737535e-05 1.9370578e-18 0.045680378)
(-1.6271155e-05 1.1993814e-18 0.035013837)
(-8.7360041e-06 9.5528225e-19 0.022542503)
(-1.1163692e-06 2.6187893e-19 0.0080321402)
(-2.6085145e-05 -1.1507479e-18 0.071930099)
(-0.00033622484 -2.8860204e-18 0.16129591)
(-0.00078209292 -4.3828257e-18 0.21380153)
(-0.0012638586 -5.6006067e-18 0.23947163)
(-0.0016898086 -6.0392568e-18 0.24784125)
(-0.002006151 -6.1991455e-18 0.24652399)
(-0.0021868207 -6.4173598e-18 0.24062681)
(-0.002234934 -6.5580647e-18 0.23303654)
(-0.0021732661 -6.4049674e-18 0.2251057)
(-0.0020336185 -6.0664824e-18 0.21731621)
(-0.001847595 -5.4473711e-18 0.20974428)
(-0.0016413528 -5.6134035e-18 0.20232466)
(-0.0014337607 -5.274914e-18 0.194975)
(-0.0012368237 -4.9090093e-18 0.18764116)
(-0.0010571226 -4.6713082e-18 0.18030486)
(-0.00089745745 -4.5037837e-18 0.17297723)
(-0.00075825645 -4.8192282e-18 0.16568907)
(-0.00063861102 -6.1162249e-18 0.15848241)
(-0.00053695286 -7.7274154e-18 0.15140402)
(-0.00045145547 -9.50275e-18 0.14450084)
(-0.00038024972 -1.0530522e-17 0.1378165)
(-0.00032152751 -1.2643447e-17 0.13138855)
(-0.0002735829 -1.2744328e-17 0.12524604)
(-0.00023482384 -1.1470007e-17 0.11940716)
(-0.00020377274 -1.075404e-17 0.11387692)
(-0.00017905566 -9.1120417e-18 0.10864474)
(-0.00015940261 -7.7234334e-18 0.10368201)
(-0.00014362923 -7.457704e-18 0.098939593)
(-0.00013065982 -7.5492636e-18 0.094345352)
(-0.00011947975 -7.7260171e-18 0.089801786)
(-0.00010924562 -6.9709139e-18 0.085184121)
(-9.9121407e-05 -4.6780274e-18 0.080339262)
(-8.8727681e-05 -3.0825869e-18 0.075086939)
(-7.7683888e-05 -1.316583e-18 0.069225962)
(-6.5605844e-05 3.3758709e-19 0.06253054)
(-5.2452991e-05 1.7431095e-18 0.054757815)
(-3.8796688e-05 1.7231108e-18 0.045660088)
(-2.4974199e-05 1.2272057e-18 0.034994022)
(-1.2523922e-05 9.7068528e-19 0.022525361)
(-1.8967835e-06 2.9292751e-19 0.0080233603)
(-2.2178065e-05 -7.7341737e-19 0.076962509)
(-0.00030908171 -2.3768327e-18 0.17351443)
(-0.00076163093 -3.6040577e-18 0.23039596)
(-0.001292003 -4.4261788e-18 0.25734681)
(-0.0018083889 -5.7454946e-18 0.26430191)
(-0.0022396698 -6.6566855e-18 0.25986277)
(-0.0025383722 -6.5492789e-18 0.25025608)
(-0.0026881566 -6.5630632e-18 0.23921891)
(-0.0026994421 -6.4484207e-18 0.22854562)
(-0.0025998555 -6.1156321e-18 0.21882014)
(-0.0024235035 -5.6260813e-18 0.21002166)
(-0.0022028946 -4.942741e-18 0.20191161)
(-0.0019644446 -5.0839462e-18 0.19423398)
(-0.0017270785 -5.0019635e-18 0.18679458)
(-0.0015027905 -4.8001651e-18 0.17947627)
(-0.0012981137 -4.7625696e-18 0.17222693)
(-0.0011157576 -5.5624438e-18 0.16504029)
(-0.00095601714 -6.3674801e-18 0.15793837)
(-0.00081781917 -7.7315808e-18 0.15095816)
(-0.00069941149 -9.3929998e-18 0.14414245)
(-0.00059877544 -1.0625526e-17 0.13753365)
(-0.00051384957 -1.1791769e-17 0.13116947)
(-0.00044263816 -1.2052836e-17 0.12507972)
(-0.00038325507 -1.163606e-17 0.11928362)
(-0.000333938 -1.0365009e-17 0.11378723)
(-0.00029304384 -9.1256266e-18 0.10858102)
(-0.00025905064 -8.0831118e-18 0.10363741)
(-0.00023054017 -7.5386393e-18 0.098908201)
(-0.00020621623 -7.5197184e-18 0.094322168)
(-0.00018486848 -7.4483762e-18 0.089782684)
(-0.00016546427 -6.7260008e-18 0.085165856)
(-0.00014703164 -4.7517076e-18 0.080319588)
(-0.00012901129 -3.0571301e-18 0.075064803)
(-0.00011089935 -1.3173403e-18 0.069200353)
(-9.2253001e-05 2.9255183e-19 0.062501267)
(-7.2980163e-05 1.452009e-18 0.054725816)
(-5.3570426e-05 1.6619197e-18 0.045627039)
(-3.4428696e-05 1.2405833e-18 0.034962118)
(-1.703628e-05 8.5113943e-19 0.022497304)
(-2.587378e-06 3.1758995e-19 0.0080059847)
(-1.9259559e-05 -9.5422625e-19 0.081311944)
(-0.00027725051 -2.418541e-18 0.18443544)
(-0.00070323932 -3.5842167e-18 0.24586684)
(-0.0012279318 -4.6025228e-18 0.27492297)
(-0.0017726095 -5.5234364e-18 0.28152728)
(-0.002265203 -6.2057568e-18 0.2748267)
(-0.0026473305 -6.6257763e-18 0.26192704)
(-0.0028865746 -6.6141301e-18 0.24741905)
(-0.0029781825 -6.474072e-18 0.23368615)
(-0.0029394675 -6.2591139e-18 0.22158725)
(-0.0028003261 -6.2008129e-18 0.21113431)
(-0.0025942026 -5.4376311e-18 0.20198469)
(-0.0023516435 -5.2301238e-18 0.19372868)
(-0.0020969299 -5.1985196e-18 0.18602282)
(-0.0018472054 -5.1170306e-18 0.17862988)
(-0.0016131725 -5.1921432e-18 0.17141236)
(-0.0014005017 -5.7234042e-18 0.1643089)
(-0.0012113515 -6.5411221e-18 0.15730893)
(-0.0010456662 -7.7332082e-18 0.15043179)
(-0.0009021403 -9.0908722e-18 0.14371164)
(-0.00077885513 -1.1031256e-17 0.13718729)
(-0.00067365946 -1.1686657e-17 0.13089549)
(-0.00058437833 -1.2140959e-17 0.12486635)
(-0.00050891135 -1.1465843e-17 0.11911992)
(-0.00044527603 -1.0339931e-17 0.1136633)
(-0.00039161692 -9.129291e-18 0.10848807)
(-0.00034621051 -8.144383e-18 0.10356772)
(-0.00030745324 -7.6055711e-18 0.098855096)
(-0.00027387561 -7.4886556e-18 0.09427996)
(-0.00024411397 -7.3252041e-18 0.089746659)
(-0.00021698897 -6.5351652e-18 0.085132282)
(-0.00019142721 -4.976318e-18 0.080285821)
(-0.00016672769 -3.0514548e-18 0.075029373)
(-0.00014229349 -1.3198411e-18 0.069162097)
(-0.00011764657 2.5135946e-19 0.062459908)
(-9.2658726e-05 1.3742251e-18 0.054682218)
(-6.7766719e-05 1.707744e-18 0.045582899)
(-4.3434267e-05 1.2544013e-18 0.034919782)
(-2.1176417e-05 7.4999749e-19 0.02246027)
(-3.0108486e-06 2.650276e-19 0.0079840158)
(-1.734395e-05 -1.3694319e-18 0.085184607)
(-0.00025220274 -2.7960479e-18 0.19431113)
(-0.00064944597 -4.1869734e-18 0.26017968)
(-0.0011531491 -5.5624919e-18 0.29171937)
(-0.001697957 -5.4432555e-18 0.29868234)
(-0.0022177726 -5.4076106e-18 0.2904745)
(-0.0026519227 -6.160768e-18 0.27483137)
(-0.0029586793 -6.4743046e-18 0.25708988)
(-0.0031210279 -6.5413858e-18 0.24025136)
(-0.0031451617 -6.2704995e-18 0.22555022)
(-0.0030536023 -6.1669182e-18 0.21314014)
(-0.0028768602 -6.0788923e-18 0.202656)
(-0.0026462698 -5.4979167e-18 0.19357917)
(-0.0023892351 -5.3530693e-18 0.18543098)
(-0.0021269485 -5.3567722e-18 0.1778489)
(-0.001874035 -5.4949087e-18 0.17059632)
(-0.00163937 -5.6607352e-18 0.16354182)
(-0.0014274079 -6.7210511e-18 0.15662974)
(-0.001239551 -8.0909024e-18 0.14985283)
(-0.0010752965 -9.310524e-18 0.14323096)
(-0.00093308069 -1.0859354e-17 0.13679607)
(-0.00081083484 -1.1919424e-17 0.13058225)
(-0.00070631348 -1.2190768e-17 0.12461907)
(-0.00061727267 -1.1129714e-17 0.11892707)
(-0.00054155723 -1.0493521e-17 0.11351432)
(-0.00047713423 -9.132217e-18 0.10837349)
(-0.00042210486 -7.995197e-18 0.10347918)
(-0.00037470178 -7.6194958e-18 0.098785359)
(-0.00033330161 -7.4609791e-18 0.094222848)
(-0.00029640403 -7.3078902e-18 0.089697044)
(-0.00026269734 -6.3904964e-18 0.085086101)
(-0.00023101335 -4.8965933e-18 0.080240155)
(-0.00020052713 -3.0407329e-18 0.074982461)
(-0.00017055763 -1.3222547e-18 0.069112691)
(-0.00014059354 2.2218385e-19 0.06240769)
(-0.00011047345 1.4356167e-18 0.054628014)
(-8.0594743e-05 1.6407418e-18 0.04552844)
(-5.1477462e-05 1.2455078e-18 0.034867614)
(-2.4726876e-05 8.0622456e-19 0.022414797)
(-3.2552689e-06 2.2578517e-19 0.0079577985)
(-1.5852612e-05 -1.0210495e-18 0.088688622)
(-0.00023191759 -1.7784006e-18 0.2033366)
(-0.00060302443 -3.4581849e-18 0.27345197)
(-0.0010824403 -4.6578367e-18 0.30763247)
(-0.0016155454 -5.2939059e-18 0.31540704)
(-0.0021436107 -5.6652226e-18 0.30627541)
(-0.0026079471 -6.12561e-18 0.28840989)
(-0.0029626475 -6.4916601e-18 0.2677648)
(-0.0031823395 -6.4519893e-18 0.24792717)
(-0.0032637366 -6.2207164e-18 0.23054798)
(-0.0032214233 -6.0686559e-18 0.21599546)
(-0.003080995 -6.042556e-18 0.20395283)
(-0.0028721422 -5.7156569e-18 0.19384373)
(-0.0026232618 -5.5168917e-18 0.18508177)
(-0.0023581537 -5.5981384e-18 0.1771871)
(-0.002094648 -5.7705722e-18 0.16981962)
(-0.0018446652 -6.0376748e-18 0.16276796)
(-0.0016151265 -6.7075081e-18 0.1559207)
(-0.0014091873 -7.4550992e-18 0.14923515)
(-0.0012274476 -8.9724401e-18 0.14271051)
(-0.001068944 -1.101321e-17 0.13636784)
(-0.00093186192 -1.1704477e-17 0.1302362)
(-0.00081400175 -1.1897549e-17 0.12434345)
(-0.00071305056 -1.1105617e-17 0.11871004)
(-0.00062672727 -1.0307472e-17 0.11334475)
(-0.00055285171 -9.1339338e-18 0.10824129)
(-0.00048937514 -8.1041541e-18 0.10337541)
(-0.00043438408 -7.6638996e-18 0.098702246)
(-0.0003861156 -7.5598542e-18 0.094153743)
(-0.00034294614 -7.1433783e-18 0.089636422)
(-0.00030344442 -6.0205556e-18 0.085029579)
(-0.0002663517 -4.7738039e-18 0.080184552)
(-0.00023073305 -3.0197996e-18 0.074925766)
(-0.00019582904 -1.3242357e-18 0.069053579)
(-0.0001610949 1.9741982e-19 0.062345818)
(-0.00012634039 1.4363479e-18 0.054564202)
(-9.1930259e-05 1.4582879e-18 0.045464497)
(-5.8450429e-05 1.2179178e-18 0.03480638)
(-2.7637678e-05 7.8486565e-19 0.022361726)
(-3.3610393e-06 2.4054211e-19 0.0079281205)
(-1.4660179e-05 3.2542931e-20 0.091902023)
(-0.00021527313 -1.2012657e-18 0.21166903)
(-0.00056352265 -2.0576299e-18 0.28582724)
(-0.001019234 -2.0562735e-18 0.322695)
(-0.0015360587 -4.0465814e-18 0.33156931)
(-0.0020621671 -5.2326506e-18 0.32195038)
(-0.0025425397 -5.980143e-18 0.30230916)
(-0.0029302035 -6.3754157e-18 0.27910092)
(-0.0031946304 -6.4624209e-18 0.256443)
(-0.0033252569 -6.1033641e-18 0.23640773)
(-0.0033294705 -5.7911444e-18 0.21961935)
(-0.0032273643 -5.4147767e-18 0.20586231)
(-0.0030455724 -5.6981202e-18 0.19454922)
(-0.002811852 -5.7200626e-18 0.185018)
(-0.0025512131 -5.9573402e-18 0.17668769)
(-0.0022837629 -6.5105957e-18 0.16911823)
(-0.0020240283 -7.0231692e-18 0.16201399)
(-0.001781324 -7.1002905e-18 0.15520024)
(-0.0015607015 -7.626627e-18 0.14859097)
(-0.0013640858 -9.0604394e-18 0.14215834)
(-0.001191328 -1.052914e-17 0.13590801)
(-0.0010410415 -1.0662894e-17 0.1298612)
(-0.00091119476 -1.0932501e-17 0.12404236)
(-0.00079948582 -1.1066672e-17 0.11847107)
(-0.0007035598 -9.6675755e-18 0.11315644)
(-0.0006211227 -9.0817132e-18 0.10809306)
(-0.00054999699 -8.3644025e-18 0.10325782)
(-0.0004881393 -7.7221382e-18 0.098607015)
(-0.00043366 -7.4857325e-18 0.094073797)
(-0.00038482273 -6.8808648e-18 0.089565869)
(-0.00034008636 -5.9750375e-18 0.084963734)
(-0.00029810435 -4.8939913e-18 0.080119981)
(-0.00025784145 -3.0178181e-18 0.074860228)
(-0.000218467 -1.3289629e-18 0.068985662)
(-0.00017940069 1.4682517e-19 0.062275152)
(-0.0001404255 1.1451092e-18 0.05449161)
(-0.00010188204 1.3874368e-18 0.045391875)
(-6.4434648e-05 1.1823099e-18 0.034736922)
(-2.9981702e-05 6.9793722e-19 0.022302009)
(-3.3777357e-06 2.6322951e-19 0.0078957531)
(-1.36721e-05 -9.6930999e-19 0.094878866)
(-0.00020132995 -2.7251669e-18 0.2194257)
(-0.00052966985 -3.2631005e-18 0.29743092)
(-0.00096339514 -4.1001935e-18 0.33697639)
(-0.0014625578 -4.4370628e-18 0.347135)
(-0.0019812988 -5.1263451e-18 0.33735457)
(-0.0024687136 -5.6881074e-18 0.31630753)
(-0.0028784736 -5.7164697e-18 0.29085358)
(-0.0031771474 -6.0982556e-18 0.26558067)
(-0.003348883 -6.0541949e-18 0.24296823)
(-0.0033950467 -6.0207405e-18 0.22391616)
(-0.0033304339 -6.2416155e-18 0.20834616)
(-0.0031780166 -5.9222992e-18 0.19569776)
(-0.0029638442 -5.9200737e-18 0.18526396)
(-0.0027129937 -6.0081294e-18 0.1763825)
(-0.0024469172 -6.1076085e-18 0.16852234)
(-0.0021821569 -6.742039e-18 0.16130429)
(-0.0019301663 -7.5486946e-18 0.15448606)
(-0.0016978855 -8.8050489e-18 0.14793233)
(-0.0014886902 -9.7182801e-18 0.14158234)
(-0.001303416 -1.0153047e-17 0.13542173)
(-0.0011412637 -1.0973656e-17 0.12946064)
(-0.0010004919 -1.0887968e-17 0.12371819)
(-0.00087889608 -1.0801013e-17 0.11821194)
(-0.00077410412 -9.9967872e-18 0.11295077)
(-0.0006837438 -9.0784227e-18 0.10792993)
(-0.00060553332 -8.3700339e-18 0.10312734)
(-0.00053731579 -7.7328364e-18 0.098500498)
(-0.00047708753 -7.2833555e-18 0.093983767)
(-0.00042300748 -6.7876238e-18 0.089486093)
(-0.00037343448 -5.8675851e-18 0.084889243)
(-0.00032693835 -4.5080765e-18 0.0800471)
(-0.00028239259 -2.9769286e-18 0.074786511)
(-0.00023890001 -1.3340406e-18 0.068909607)
(-0.00019584404 8.859466e-20 0.062196359)
(-0.00015298501 9.3295845e-19 0.054410907)
(-0.00011064333 1.3269876e-18 0.04531127)
(-6.9576683e-05 1.2271913e-18 0.034660005)
(-3.1872092e-05 7.1440063e-19 0.022236502)
(-3.3461147e-06 2.075145e-19 0.0078612799)
(-1.2834953e-05 -1.2923607e-18 0.097658702)
(-0.00018945195 -1.807006e-18 0.2266959)
(-0.00050037253 -3.4531933e-18 0.30836699)
(-0.00091406055 -5.0674489e-18 0.3505519)
(-0.0013956036 -5.0287872e-18 0.36211317)
(-0.0019041886 -5.261984e-18 0.35241637)
(-0.0023929354 -5.6640816e-18 0.33026669)
(-0.0028170374 -6.1783582e-18 0.30285066)
(-0.0031416515 -6.1645125e-18 0.27517052)
(-0.0033472042 -6.101229e-18 0.25008991)
(-0.0034302293 -5.9979275e-18 0.2287902)
(-0.0034007833 -6.2123242e-18 0.21135335)
(-0.0032780864 -6.1641708e-18 0.19727463)
(-0.0030858961 -6.0965624e-18 0.18582889)
(-0.0028485309 -6.1983366e-18 0.1762927)
(-0.0025879747 -6.3513492e-18 0.16805594)
(-0.0023221584 -6.6537163e-18 0.16066027)
(-0.0020643095 -7.4847122e-18 0.15379485)
(-0.0018231242 -8.2268622e-18 0.14727105)
(-0.0016034603 -9.2938135e-18 0.14099039)
(-0.0014072527 -1.0627767e-17 0.13491405)
(-0.0012344203 -1.1358377e-17 0.12903776)
(-0.0010836305 -1.1424101e-17 0.12337303)
(-0.00095286316 -1.0487664e-17 0.11793406)
(-0.00083978927 -1.0133583e-17 0.11272875)
(-0.00074199932 -9.0919505e-18 0.10775266)
(-0.0006571304 -8.1928751e-18 0.10298461)
(-0.00058293006 -7.7261417e-18 0.098383222)
(-0.00051729403 -7.3767258e-18 0.093884127)
(-0.00045828457 -6.8512864e-18 0.089397543)
(-0.00040416863 -5.7964534e-18 0.084806548)
(-0.00035343746 -4.4688299e-18 0.079966359)
(-0.00030488037 -2.9375811e-18 0.074705086)
(-0.00025753905 -1.3351535e-18 0.068825907)
(-0.00021076028 6.4321671e-20 0.062109953)
(-0.00016428662 1.1454734e-18 0.054322636)
(-0.00011842306 1.2849675e-18 0.04522327)
(-7.4033375e-05 1.0899464e-18 0.034576302)
(-3.3415865e-05 7.6362095e-19 0.022165942)
(-3.2909169e-06 2.257677e-19 0.0078251423)
(-1.2113683e-05 -8.5633402e-20 0.10027139)
(-0.0001791891 -1.2880773e-18 0.23354896)
(-0.00047476321 -2.1337933e-18 0.31872056)
(-0.00087028555 -2.2585734e-18 0.36349216)
(-0.0013348776 -4.1113085e-18 0.37653121)
(-0.0018319737 -5.052873e-18 0.36710448)
(-0.0023184232 -5.5770189e-18 0.34410077)
(-0.0027513483 -6.1205692e-18 0.31497146)
(-0.0030954536 -6.1902178e-18 0.28508271)
(-0.0033286148 -6.0496647e-18 0.25765638)
(-0.0034435683 -5.8768741e-18 0.23415303)
(-0.0034462949 -5.5818233e-18 0.21482848)
(-0.0033524572 -6.0992534e-18 0.19925483)
(-0.0031832835 -6.2880016e-18 0.18671075)
(-0.0029618026 -6.5813478e-18 0.17643018)
(-0.0027098887 -7.2388726e-18 0.16773681)
(-0.0024462833 -7.6984679e-18 0.16009997)
(-0.0021855736 -7.8072987e-18 0.15314185)
(-0.0019379954 -8.4049486e-18 0.1466186)
(-0.0017098368 -9.3146217e-18 0.14039042)
(-0.0015041847 -1.0275286e-17 0.13439015)
(-0.0013217756 -1.0333629e-17 0.12859582)
(-0.001161789 -1.0439358e-17 0.12300894)
(-0.0010224772 -1.0553413e-17 0.11763873)
(-0.00090161562 -9.4733208e-18 0.11249125)
(-0.00079679973 -9.033555e-18 0.10756187)
(-0.00070561429 -8.4326406e-18 0.10283007)
(-0.00062572807 -7.7328384e-18 0.098255561)
(-0.0005549492 -7.3021496e-18 0.093775202)
(-0.00049125179 -6.5914663e-18 0.089300522)
(-0.00043281892 -5.7361127e-18 0.084715949)
(-0.00037806685 -4.6722088e-18 0.079878069)
(-0.00032570801 -2.9274139e-18 0.074616292)
(-0.00027472836 -1.340187e-18 0.068734931)
(-0.00022443872 1.4768676e-20 0.062016335)
(-0.00017456652 9.0034282e-19 0.054227236)
(-0.00012540765 1.2211381e-18 0.045128368)
(-7.7944111e-05 1.0490951e-18 0.03448639)
(-3.4701905e-05 6.3524355e-19 0.02209094)
(-3.2279925e-06 2.439516e-19 0.0077876558)
(-1.1483382e-05 -7.0636718e-19 0.1027401)
(-0.00017021509 -2.5573539e-18 0.24003976)
(-0.00045216995 -2.8990115e-18 0.32856155)
(-0.0008312244 -3.2761896e-18 0.37586029)
(-0.001279789 -4.1316887e-18 0.39042331)
(-0.0017648839 -4.9277656e-18 0.38141)
(-0.002246735 -5.5325115e-18 0.35775707)
(-0.0026845415 -6.1708366e-18 0.32713121)
(-0.0030431638 -6.1018477e-18 0.2952184)
(-0.0032987798 -5.9769062e-18 0.2655725)
(-0.0034411751 -5.8716873e-18 0.23992633)
(-0.0034728969 -5.8892311e-18 0.21871682)
(-0.0034063744 -6.2476569e-18 0.20160792)
(-0.0032602913 -6.5129022e-18 0.18789959)
(-0.0030560889 -6.855484e-18 0.17679925)
(-0.0028150708 -7.3083367e-18 0.16757704)
(-0.0025562957 -7.7595415e-18 0.1596379)
(-0.0022953021 -8.2251817e-18 0.15254054)
(-0.0020436011 -9.1946706e-18 0.14598582)
(-0.0018087947 -9.8482517e-18 0.13979028)
(-0.0015951182 -9.8421495e-18 0.13385534)
(-0.0014041888 -1.0269615e-17 0.12813825)
(-0.0012357817 -1.0381081e-17 0.12262804)
(-0.0010885009 -1.0303415e-17 0.11732731)
(-0.00096029257 -9.5386379e-18 0.11223914)
(-0.00084879972 -8.974606e-18 0.10735813)
(-0.00075158469 -8.3610909e-18 0.10266414)
(-0.0006662574 -7.6994051e-18 0.098117821)
(-0.00059054985 -7.0978248e-18 0.093657245)
(-0.00052235816 -6.537951e-18 0.08919526)
(-0.00045978766 -5.8689463e-18 0.084617672)
(-0.00040118482 -4.5682846e-18 0.079782466)
(-0.0003451919 -2.9082817e-18 0.074520391)
(-0.00029074229 -1.3484456e-18 0.06863697)
(-0.00023711187 -4.0335765e-20 0.061915824)
(-0.00018401602 7.3708509e-19 0.054125065)
(-0.00013175031 1.2860829e-18 0.045026978)
(-8.1421879e-05 1.0150444e-18 0.034390757)
(-3.5799166e-05 6.3248296e-19 0.022011992)
(-3.1682059e-06 2.1729175e-19 0.0077490454)
(-1.0926837e-05 -1.757447e-18 0.10508325)
(-0.00016228801 -3.0436986e-18 0.24621253)
(-0.00043207124 -4.3397697e-18 0.33794784)
(-0.00079616455 -5.9965229e-18 0.38771161)
(-0.0012297011 -5.1570339e-18 0.40382509)
(-0.00170275 -5.1427061e-18 0.39533648)
(-0.0021785606 -5.4938516e-18 0.37120419)
(-0.0026184192 -6.0364962e-18 0.3392703)
(-0.0029877208 -6.1264221e-18 0.30550241)
(-0.0032615626 -6.0951744e-18 0.27376123)
(-0.0034274516 -6.2139678e-18 0.24604241)
(-0.0034850718 -6.7144287e-18 0.22296705)
(-0.0034439841 -6.5420702e-18 0.20430144)
(-0.0033204388 -6.6715137e-18 0.18938037)
(-0.0031341603 -6.8950274e-18 0.17739841)
(-0.0029055737 -6.9108771e-18 0.16758369)
(-0.0026536673 -7.2466432e-18 0.15928507)
(-0.0023945609 -8.3850592e-18 0.15200242)
(-0.002140761 -9.4163073e-18 0.14538264)
(-0.0019010226 -9.8278172e-18 0.13919762)
(-0.0016806779 -1.0132778e-17 0.13331498)
(-0.0014822506 -1.1033268e-17 0.12766856)
(-0.0013061741 -1.1032184e-17 0.12223257)
(-0.0011514737 -1.0110354e-17 0.11700116)
(-0.0010163271 -9.9356489e-18 0.11197327)
(-0.00089847162 -8.9740176e-18 0.10714199)
(-0.00079547871 -8.1118301e-18 0.10248718)
(-0.00070491982 -7.6416013e-18 0.097970275)
(-0.00062446428 -7.0632487e-18 0.093530476)
(-0.0005519395 -6.630665e-18 0.089081949)
(-0.00048537993 -5.754924e-18 0.084511901)
(-0.00042306525 -4.2914248e-18 0.079679741)
(-0.00036357454 -2.8598614e-18 0.074417593)
(-0.00030579227 -1.3523685e-18 0.068532257)
(-0.00024896013 -7.2265423e-20 0.061808683)
(-0.00019278685 8.3864298e-19 0.05401642)
(-0.00013757242 1.195283e-18 0.044919454)
(-8.4555445e-05 1.002056e-18 0.034289819)
(-3.6757344e-05 7.0416881e-19 0.0219295)
(-3.1121658e-06 1.8798051e-19 0.0077094699)
(-1.0430721e-05 -1.1208706e-18 0.10731571)
(-0.00015522436 -2.7681204e-18 0.25210348)
(-0.00041405886 -4.0651835e-18 0.34692779)
(-0.00076451709 -5.1154518e-18 0.39909434)
(-0.0011840166 -5.303333e-18 0.41677109)
(-0.001645238 -5.341396e-18 0.40889426)
(-0.0021141297 -5.6240966e-18 0.38442448)
(-0.0025540007 -6.2691625e-18 0.35134679)
(-0.0029310112 -6.1960174e-18 0.31587741)
(-0.0032196231 -6.2127612e-18 0.28216039)
(-0.0034055927 -6.3296939e-18 0.25244359)
(-0.0034862266 -6.6956753e-18 0.22753253)
(-0.0034685738 -6.7703885e-18 0.20730301)
(-0.0033666276 -6.8028247e-18 0.19113516)
(-0.0031983774 -7.0838136e-18 0.17822194)
(-0.0029831856 -7.3140033e-18 0.16775968)
(-0.0027396821 -7.6749639e-18 0.15904926)
(-0.0024842523 -8.4413134e-18 0.1515369)
(-0.0022301274 -9.3013686e-18 0.14481795)
(-0.001987032 -9.8618205e-18 0.13861966)
(-0.0017613089 -1.023035e-17 0.13277439)
(-0.0015563766 -1.0804972e-17 0.12719039)
(-0.0013733654 -1.0815699e-17 0.12182487)
(-0.0012117808 -1.0176624e-17 0.11666174)
(-0.0010700871 -9.7961472e-18 0.11169453)
(-0.00094616211 -8.9722279e-18 0.10691401)
(-0.00083761906 -8.1670839e-18 0.10229957)
(-0.00074201401 -7.6102147e-18 0.097813181)
(-0.00065696795 -7.0425674e-18 0.09339509)
(-0.00058024761 -6.5471489e-18 0.088960755)
(-0.00050982377 -5.69187e-18 0.084398791)
(-0.0004439153 -4.2366118e-18 0.079570051)
(-0.00038104089 -2.81193e-18 0.074308072)
(-0.00032004004 -1.3533038e-18 0.068420987)
(-0.0002601241 -1.036648e-19 0.061695129)
(-0.00020099404 7.7295415e-19 0.053901556)
(-0.00014296485 1.112474e-18 0.044806095)
(-8.7412437e-05 9.7014e-19 0.034183931)
(-3.7612077e-05 6.6981281e-19 0.021843793)
(-3.0636853e-06 2.0316838e-19 0.0076690439)
(-9.9850588e-06 -5.6245327e-19 0.10944972)
(-0.00014888222 -2.0959555e-18 0.25774266)
(-0.0003978091 -3.1994314e-18 0.35554218)
(-0.00073579686 -3.8020814e-18 0.41005043)
(-0.0011422025 -5.0633313e-18 0.42929373)
(-0.0015919603 -5.9684129e-18 0.42209723)
(-0.0020534279 -5.8350419e-18 0.39740925)
(-0.0024918364 -6.1765792e-18 0.3633313)
(-0.0028742465 -6.2397081e-18 0.3262996)
(-0.0031748059 -6.1632831e-18 0.29071984)
(-0.0033779313 -6.159543e-18 0.25908106)
(-0.00347896 -6.0311037e-18 0.23237165)
(-0.0034827554 -6.7108179e-18 0.21058167)
(-0.0034012529 -7.0074065e-18 0.19314467)
(-0.0032507588 -7.2582238e-18 0.1792612)
(-0.0030494793 -7.6532872e-18 0.16810467)
(-0.0028154842 -8.23507e-18 0.15893539)
(-0.0025651722 -8.6329055e-18 0.15115137)
(-0.0023122521 -9.1018469e-18 0.14429942)
(-0.0020672278 -9.8189556e-18 0.1380631)
(-0.0018373393 -1.0165111e-17 0.13223876)
(-0.0016268625 -1.0250888e-17 0.1267074)
(-0.0014376403 -1.0317083e-17 0.12140735)
(-0.0012696993 -1.0308975e-17 0.11631059)
(-0.0011218402 -9.5518133e-18 0.11140388)
(-0.00099212658 -8.9439042e-18 0.10667478)
(-0.00087824723 -8.3989113e-18 0.10210168)
(-0.00077776418 -7.611078e-18 0.097646792)
(-0.00068826726 -7.0042272e-18 0.093251273)
(-0.00060747184 -6.346153e-18 0.08883183)
(-0.00053329232 -5.5530951e-18 0.084278479)
(-0.00046389126 -4.1612443e-18 0.079453535)
(-0.00039773071 -2.7694801e-18 0.074191976)
(-0.00033360868 -1.355186e-18 0.068303324)
(-0.00027070764 -1.4872051e-19 0.06157535)
(-0.00020872653 6.0459693e-19 0.053780689)
(-0.00014800006 1.0446894e-18 0.044687166)
(-9.004368e-05 9.4421193e-19 0.034073395)
(-3.8387119e-05 6.0429465e-19 0.021755136)
(-3.020285e-06 2.2435019e-19 0.0076278512)
(-9.5819356e-06 -1.3184786e-18 0.11149548)
(-0.00014315007 -2.5792656e-18 0.2631553)
(-0.00038306287 -3.8538249e-18 0.36382571)
(-0.00070960342 -5.4241778e-18 0.42061654)
(-0.0011037941 -5.413381e-18 0.44142285)
(-0.0015425281 -5.6202696e-18 0.43496091)
(-0.0019963157 -5.5738231e-18 0.41015572)
(-0.0024321958 -5.4816323e-18 0.37520342)
(-0.0028182009 -6.0463397e-18 0.33673537)
(-0.0031283973 -6.2221708e-18 0.29939908)
(-0.0033461847 -6.4852741e-18 0.26591369)
(-0.0034652658 -7.0248981e-18 0.23744774)
(-0.0034886088 -6.9434669e-18 0.21410855)
(-0.0034262928 -7.1698493e-18 0.19538934)
(-0.00329303 -7.4272496e-18 0.18050573)
(-0.0031058428 -7.5743177e-18 0.16861578)
(-0.0028821096 -7.9211021e-18 0.15894595)
(-0.0026380458 -8.7056738e-18 0.15085129)
(-0.0023876256 -9.3825215e-18 0.14383353)
(-0.0021419483 -9.8656134e-18 0.137534)
(-0.0019090244 -1.0213618e-17 0.131713)
(-0.0016939267 -1.057664e-17 0.12622322)
(-0.0014992025 -1.0321246e-17 0.12098252)
(-0.0013254285 -1.019818e-17 0.11594931)
(-0.0011717833 -9.7637005e-18 0.11110231)
(-0.001036555 -8.946363e-18 0.10642492)
(-0.00091754307 -8.3253254e-18 0.1018939)
(-0.0008123395 -7.5968725e-18 0.097471359)
(-0.00071851875 -6.9619168e-18 0.093099205)
(-0.00063375751 -6.2562489e-18 0.088695314)
(-0.00055591824 -5.1473835e-18 0.084151089)
(-0.00048311155 -3.8449375e-18 0.079330314)
(-0.0004137504 -2.7071299e-18 0.074069435)
(-0.00034659255 -1.3541001e-18 0.068179413)
(-0.00028079345 -1.859417e-19 0.061449509)
(-0.00021605197 5.51283e-19 0.053654012)
(-0.00015273039 8.6045916e-19 0.044562898)
(-9.248767e-05 9.9500501e-19 0.033958477)
(-3.9099373e-05 5.8238712e-19 0.021663754)
(-2.9812345e-06 1.6503095e-19 0.0075859559)
(-9.2152594e-06 -9.6932724e-19 0.1134616)
(-0.00013793869 -2.4051372e-18 0.26836283)
(-0.00036961028 -3.5762183e-18 0.37180818)
(-0.00068560665 -4.5995995e-18 0.43082474)
(-0.0010683918 -5.0135374e-18 0.45318575)
(-0.001496574 -4.8451203e-18 0.44750136)
(-0.0019425936 -5.5512907e-18 0.42266496)
(-0.0023751778 -6.3789883e-18 0.38694918)
(-0.0027633612 -6.2268931e-18 0.34715889)
(-0.0030812973 -6.3355306e-18 0.3081653)
(-0.0033116215 -6.5967002e-18 0.27290684)
(-0.0034466789 -7.0862907e-18 0.24272867)
(-0.0034877938 -7.2919737e-18 0.21785718)
(-0.0034433813 -7.4538323e-18 0.19785002)
(-0.0033266667 -7.7873747e-18 0.18194405)
(-0.0031535017 -8.2248779e-18 0.16928833)
(-0.002940498 -8.2346514e-18 0.15908146)
(-0.0027035429 -8.7747043e-18 0.15064046)
(-0.0024566995 -9.466215e-18 0.1434255)
(-0.0022114924 -9.9212056e-18 0.13703768)
(-0.0019765731 -1.0203405e-17 0.13120173)
(-0.0017577339 -1.0468952e-17 0.12574141)
(-0.0015582021 -1.0546796e-17 0.12055287)
(-0.001379115 -9.9030769e-18 0.11557956)
(-0.0012200604 -9.5835608e-18 0.11079088)
(-0.0010795894 -8.900494e-18 0.10616507)
(-0.00095564305 -8.0634398e-18 0.10167662)
(-0.00084586935 -7.5422604e-18 0.097287136)
(-0.00074784346 -6.9204629e-18 0.09293906)
(-0.00065921434 -6.3028916e-18 0.088551342)
(-0.00057780211 -5.3471284e-18 0.084016735)
(-0.00050166971 -4.1013296e-18 0.079200496)
(-0.00042918254 -2.6896591e-18 0.073940563)
(-0.00035906327 -1.3550323e-18 0.06804938)
(-0.00029044236 -2.0553937e-19 0.061317749)
(-0.00022302149 6.3072011e-19 0.053521696)
(-0.0001571977 9.5550056e-19 0.044433499)
(-9.4771258e-05 8.4224018e-19 0.033839409)
(-3.9760737e-05 5.9501788e-19 0.021569833)
(-2.9485087e-06 1.8422511e-19 0.0075434104)
(-8.8798611e-06 -4.88504e-19 0.11535539)
(-0.000133176 -1.9633349e-18 0.27338361)
(-0.00035727894 -2.9382769e-18 0.37951533)
(-0.00066352963 -3.1863938e-18 0.44070325)
(-0.0010356509 -4.7440976e-18 0.46460725)
(-0.0014537618 -5.8923171e-18 0.45973449)
(-0.0018920382 -5.733232e-18 0.43494053)