/*--------------------------------*- C++ -*----------------------------------*\
| =========                 |                                                 |
| \\      /  F ield         | OpenFOAM: The Open Source CFD Toolbox           |
|  \\    /   O peration     | Version:  3.0.1                                 |
|   \\  /    A nd           | Web:      www.OpenFOAM.org                      |
|    \\/     M anipulation  |                                                 |
\*---------------------------------------------------------------------------*/
FoamFile
{
    version     2.0;
    format      ascii;
    class       surfaceScalarField;
    location    "2407";
    object      phi;
}
// * * * * * * * * * * * * * * * * * * * * * * * * * * * * * * * * * * * * * //

dimensions      [1 0 -1 0 0 0 0];

internalField   nonuniform List<scalar> 
7860
(
4.3352553e-09
1.5040335e-08
1.2523734e-08
4.6840183e-08
2.0466024e-08
8.3813994e-08
2.6129147e-08
1.234614e-07
2.938417e-08
1.643407e-07
3.0965202e-08
2.0644118e-07
3.1655183e-08
2.5065471e-07
3.1979389e-08
2.9808873e-07
3.2208181e-08
3.4967086e-07
3.2448306e-08
4.0603683e-07
3.2723227e-08
4.6755192e-07
3.3021598e-08
5.343645e-07
3.3320976e-08
6.0645208e-07
3.3597479e-08
6.8365317e-07
3.3829912e-08
7.6568859e-07
3.4007133e-08
8.5217496e-07
3.4130285e-08
9.4265069e-07
3.4158453e-08
1.0366585e-06
3.406731e-08
1.1336576e-06
3.38383e-08
1.2331322e-06
3.3456269e-08
1.3346231e-06
3.2909708e-08
1.4377658e-06
3.219126e-08
1.5423224e-06
3.1297326e-08
1.6482053e-06
3.0230776e-08
1.7554592e-06
2.9001099e-08
1.864217e-06
2.7624336e-08
1.9745896e-06
2.6123029e-08
2.0864713e-06
2.4525881e-08
2.1992284e-06
2.2866712e-08
2.3112379e-06
2.1183079e-08
2.4192399e-06
1.9513215e-08
2.5174821e-06
1.7889536e-08
2.5966499e-06
1.6330575e-08
2.6426329e-06
1.4822081e-08
2.6352153e-06
1.3297917e-08
2.546892e-06
1.1573884e-08
2.3419461e-06
9.2723593e-09
1.9760936e-06
5.5391075e-09
1.3963607e-06
5.4059352e-07
-5.8488831e-10
1.5625224e-08
-1.963425e-09
4.8218719e-08
-4.0257347e-09
8.5876304e-08
-6.6856021e-09
1.2612126e-07
-9.5422686e-09
1.6719737e-07
-1.1993176e-08
2.0889209e-07
-1.3576536e-08
2.5223807e-07
-1.4134037e-08
2.9864623e-07
-1.3750527e-08
3.4928735e-07
-1.262279e-08
4.0490909e-07
-1.0960886e-08
4.6589002e-07
-8.9421481e-09
5.3234577e-07
-6.7015334e-09
6.0421146e-07
-4.3383173e-09
6.8128996e-07
-1.9258564e-09
7.6327613e-07
4.8296258e-10
8.4976615e-07
2.8473574e-09
9.402863e-07
5.1076656e-09
1.0343982e-06
7.2128698e-09
1.1315524e-06
9.1199969e-09
1.231225e-06
1.079336e-08
1.3329498e-06
1.2208643e-08
1.4363505e-06
1.3382209e-08
1.5411488e-06
1.4261289e-08
1.6473262e-06
1.4830686e-08
1.7548898e-06
1.509748e-08
1.8639502e-06
1.5082992e-08
1.9746041e-06
1.4821029e-08
2.0867332e-06
1.4356298e-08
2.1996932e-06
1.3742584e-08
2.3118516e-06
1.3041701e-08
2.4199408e-06
1.2317032e-08
2.5182067e-06
1.1624575e-08
2.5973423e-06
1.0998817e-08
2.6432587e-06
1.042688e-08
2.6357872e-06
9.8120551e-09
2.5475067e-06
8.8906305e-09
2.3428676e-06
7.1344206e-09
1.9778497e-06
3.752078e-09
1.3997431e-06
5.4434556e-07
-9.1020122e-10
1.6535425e-08
-3.5678355e-09
5.0876354e-08
-7.8604156e-09
9.0168884e-08
-1.3372229e-08
1.3163308e-07
-1.9351751e-08
1.7317689e-07
-2.484563e-08
2.1438597e-07
-2.9052273e-08
2.5644471e-07
-3.158773e-08
3.011817e-07
-3.2481402e-08
3.5018102e-07
-3.2007815e-08
4.044355e-07
-3.0515084e-08
4.643973e-07
-2.8320784e-08
5.3015146e-07
-2.5673034e-08
6.0156372e-07
-2.2751042e-08
6.7836797e-07
-1.9681262e-08
7.6020634e-07
-1.6560211e-08
8.466451e-07
-1.347351e-08
9.371996e-07
-1.0465782e-08
1.0313905e-06
-7.5903033e-09
1.1286769e-06
-4.8956812e-09
1.2285304e-06
-2.4228544e-09
1.330477e-06
-2.0037994e-10
1.434128e-06
1.7688365e-09
1.5391796e-06
3.4409198e-09
1.6456541e-06
4.7929706e-09
1.7535378e-06
5.8235863e-09
1.8629196e-06
6.5482087e-09
1.9738795e-06
7.0066734e-09
2.0862748e-06
7.2373879e-09
2.1994624e-06
7.2777225e-09
2.3118113e-06
7.191088e-09
2.4200275e-06
7.0470521e-09
2.5183507e-06
6.9087854e-09
2.5974806e-06
6.8162487e-09
2.6433513e-06
6.7588247e-09
2.6358446e-06
6.6301368e-09
2.5476354e-06
6.1497048e-09
2.3433481e-06
4.8128325e-09
1.9791866e-06
2.2087794e-09
1.4023472e-06
5.4655418e-07
-8.5032332e-10
1.7385748e-08
-3.5424677e-09
5.3568499e-08
-8.2719587e-09
9.4898376e-08
-1.485054e-08
1.3821166e-07
-2.2579078e-08
1.8090543e-07
-3.0341527e-08
2.2214842e-07
-3.6992151e-08
2.6309533e-07
-4.1769581e-08
3.0595913e-07
-4.4444215e-08
3.5285565e-07
-4.5199899e-08
4.0519119e-07
-4.4423381e-08
4.6362078e-07
-4.2533778e-08
5.2826186e-07
-3.9891117e-08
5.9892105e-07
-3.6768837e-08
6.7524569e-07
-3.336259e-08
7.5680011e-07
-2.9814099e-08
8.4309662e-07
-2.6232222e-08
9.3361771e-07
-2.268764e-08
1.0278459e-06
-1.9244471e-08
1.1252337e-06
-1.5960129e-08
1.2252461e-06
-1.2883706e-08
1.3274005e-06
-1.0055488e-08
1.4312998e-06
-7.5308284e-09
1.5366549e-06
-5.3110409e-09
1.6434343e-06
-3.4103316e-09
1.7516371e-06
-1.8332461e-09
1.8613424e-06
-5.680161e-10
1.9726143e-06
4.1812265e-10
2.0852887e-06
1.1614826e-09
2.1987189e-06
1.7007348e-09
2.311272e-06
2.0960478e-09
2.4196322e-06
2.4159433e-09
2.5180307e-06
2.7237637e-09
2.5971728e-06
3.0613776e-09
2.6430136e-06
3.4441191e-09
2.6354618e-06
3.7653752e-09
2.5473142e-06
3.7468646e-09
2.3433665e-06
2.9623976e-09
1.9799714e-06
1.2628101e-09
1.4040467e-06
5.4781714e-07
-7.5488378e-10
1.8140631e-08
-3.2383132e-09
5.6051927e-08
-7.8088771e-09
9.946894e-08
-1.4524308e-08
1.4492709e-07
-2.2919839e-08
1.8930096e-07
-3.1969135e-08
2.3119772e-07
-4.0385158e-08
2.7151135e-07
-4.7094807e-08
3.1266878e-07
-5.1545562e-08
3.573064e-07
-5.3710073e-08
4.073557e-07
-5.3904189e-08
4.638149e-07
-5.2579874e-08
5.2693754e-07
-5.0180054e-08
5.9652123e-07
-4.7069413e-08
6.7213505e-07
-4.3520599e-08
7.5325131e-07
-3.973025e-08
8.3930625e-07
-3.584045e-08
9.2972792e-07
-3.1948497e-08
1.0239539e-06
-2.8132136e-08
1.1214174e-06
-2.4457359e-08
1.2215713e-06
-2.0980197e-08
1.3239234e-06
-1.7748708e-08
1.4280683e-06
-1.4815007e-08
1.5337212e-06
-1.219255e-08
1.6408118e-06
-9.8957238e-09
1.7493403e-06
-7.9298563e-09
1.8593765e-06
-6.2849084e-09
1.9709693e-06
-4.9413852e-09
2.0839452e-06
-3.8588546e-09
2.1976364e-06
-2.9785339e-09
2.3103917e-06
-2.2393122e-09
2.4188929e-06
-1.5730805e-09
2.5173646e-06
-9.1728416e-10
2.5965169e-06
-2.285787e-10
2.642325e-06
5.0207216e-10
2.6347311e-06
1.1766716e-09
2.5466396e-06
1.5547056e-09
2.3429885e-06
1.3298384e-09
1.980196e-06
5.0356497e-10
1.4048732e-06
5.4832062e-07
-6.8275902e-10
1.882339e-08
-2.967841e-09
5.8337008e-08
-7.2760859e-09
1.0377718e-07
-1.381962e-08
1.5147062e-07
-2.2356647e-08
1.9783799e-07
-3.2050258e-08
2.4089132e-07
-4.1639476e-08
2.8110057e-07
-4.987757e-08
3.2090688e-07
-5.5932372e-08
3.633612e-07
-5.9522729e-08
4.1094606e-07
-6.0814354e-08
4.6510652e-07
-6.021985e-08
5.2634303e-07
-5.8219686e-08
5.9452109e-07
-5.5251094e-08
6.6916645e-07
-5.1662602e-08
7.4966282e-07
-4.7712759e-08
8.353564e-07
-4.3586965e-08
9.2560213e-07
-3.9414089e-08
1.0197811e-06
-3.5290579e-08
1.1172938e-06
-3.1293759e-08
1.2175745e-06
-2.7487612e-08
1.3201172e-06
-2.3926675e-08
1.4245074e-06
-2.0662515e-08
1.5304571e-06
-1.7717082e-08
1.6378664e-06
-1.5106249e-08
1.7467294e-06
-1.2835894e-08
1.8571062e-06
-1.0897127e-08
1.9690306e-06
-9.2689012e-09
2.0823169e-06
-7.9094499e-09
2.196277e-06
-6.7583708e-09
2.3092406e-06
-5.749378e-09
2.417884e-06
-4.8100153e-09
2.5164251e-06
-3.8715261e-09
2.5955785e-06
-2.8870957e-09
2.6413405e-06
-1.870723e-09
2.6337147e-06
-9.0724601e-10
2.5456762e-06
-1.8617495e-10
2.3422674e-06
7.8991057e-11
1.9799309e-06
-3.0431923e-11
1.4049825e-06
5.4829018e-07
-6.2483898e-10
1.944823e-08
-2.7379058e-09
6.0450073e-08
-6.7805267e-09
1.0781981e-07
-1.3053761e-08
1.5774386e-07
-2.148532e-08
2.0626955e-07
-3.1435346e-08
2.5084135e-07
-4.1754353e-08
2.9141958e-07
-5.1139843e-08
3.3029237e-07
-5.8562499e-08
3.7078385e-07
-6.3502773e-08
4.1588634e-07
-6.5939103e-08
4.6754285e-07
-6.6188433e-08
5.2659236e-07
-6.4720244e-08
5.930529e-07
-6.2014713e-08
6.6646093e-07
-5.8484892e-08
7.4613299e-07
-5.4451802e-08
8.3132331e-07
-5.015039e-08
9.2130072e-07
-4.5746389e-08
1.015377e-06
-4.1359894e-08
1.1129074e-06
-3.7082886e-08
1.2132975e-06
-3.2988845e-08
1.3160232e-06
-2.9138965e-08
1.4206575e-06
-2.5586216e-08
1.5269043e-06
-2.235903e-08
1.6346393e-06
-1.9475526e-08
1.7438459e-06
-1.6942257e-08
1.8545729e-06
-1.4751004e-08
1.9668393e-06
-1.2879194e-08
2.0804451e-06
-1.1283881e-08
2.1946817e-06
-9.9030451e-09
2.3078597e-06
-8.6659883e-09
2.4166469e-06
-7.4956039e-09
2.5152548e-06
-6.3184482e-09
2.5944014e-06
-5.0836765e-09
2.6401057e-06
-3.7972648e-09
2.6324285e-06
-2.5376694e-09
2.5444164e-06
-1.4737363e-09
2.3412035e-06
-7.8719051e-10
1.9792443e-06
-3.7711677e-10
1.4045725e-06
5.4791292e-07
-5.778159e-10
2.0026045e-08
-2.5449976e-09
6.2417255e-08
-6.3447522e-09
1.1161956e-07
-1.2328151e-08
1.6372726e-07
-2.0544332e-08
2.1448573e-07
-3.0526093e-08
2.6082312e-07
-4.1265625e-08
3.0215911e-07
-5.1481739e-08
3.4050849e-07
-6.0028018e-08
3.7933012e-07
-6.6189663e-08
4.2204799e-07
-6.9754807e-08
4.7110798e-07
-7.0911248e-08
5.2774881e-07
-7.0076101e-08
5.9221776e-07
-6.7739683e-08
6.6412451e-07
-6.4360955e-08
7.4275426e-07
-6.0317715e-08
8.2728007e-07
-5.5896579e-08
9.168796e-07
-5.1304328e-08
1.0107848e-06
-4.6689464e-08
1.1082925e-06
-4.2162251e-08
1.2087702e-06
-3.780781e-08
1.3116687e-06
-3.3694792e-08
1.4165445e-06
-2.9879293e-08
1.5230888e-06
-2.639525e-08
1.6311553e-06
-2.3263328e-08
1.7407139e-06
-2.049117e-08
1.8518008e-06
-1.8071015e-08
1.9644192e-06
-1.5979263e-08
2.0783534e-06
-1.4171744e-08
2.1928742e-06
-1.2584824e-08
2.3062728e-06
-1.1143941e-08
2.4152061e-06
-9.7679673e-09
2.5138788e-06
-8.3789583e-09
2.5930124e-06
-6.9217233e-09
2.6386484e-06
-5.3957231e-09
2.6309024e-06
-3.8718777e-09
2.5428925e-06
-2.502611e-09
2.3398342e-06
-1.4392808e-09
1.978181e-06
-6.1583994e-10
1.4037487e-06
5.4729734e-07
-5.3874511e-10
2.0564791e-08
-2.3815278e-09
6.4260036e-08
-5.9649758e-09
1.1520301e-07
-1.1667544e-08
1.6942982e-07
-1.9624197e-08
2.2244238e-07
-2.9509993e-08
2.7070891e-07
-4.0460758e-08
3.1310987e-07
-5.125994e-08
3.5130767e-07
-6.0706717e-08
3.887769e-07
-6.7940548e-08
4.2928182e-07
-7.2576756e-08
4.7574419e-07
-7.4661149e-08
5.2983321e-07
-7.452922e-08
5.9208583e-07
-7.2650995e-08
6.6224627e-07
-6.9509365e-08
7.3961265e-07
-6.5528066e-08
8.2329875e-07
-6.1043232e-08
9.1239478e-07
-5.6304802e-08
1.0060463e-06
-5.1493696e-08
1.1034814e-06
-4.674195e-08
1.2040185e-06
-4.2148884e-08
1.3070757e-06
-3.7792106e-08
1.4121877e-06
-3.3732088e-08
1.5190288e-06
-3.0008138e-08
1.6274313e-06
-2.6643755e-08
1.7373495e-06
-2.364791e-08
1.8488049e-06
-2.1013416e-08
1.9617847e-06
-1.8715862e-08
2.0760559e-06
-1.6710109e-08
2.1908684e-06
-1.4931076e-08
2.3044937e-06
-1.330115e-08
2.4135761e-06
-1.1735387e-08
2.512313e-06
-1.0152149e-08
2.5914292e-06
-8.4922444e-09
2.6369885e-06
-6.749217e-09
2.6291594e-06
-4.9871608e-09
2.5411304e-06
-3.3431775e-09
2.3381904e-06
-1.9489917e-09
1.9767866e-06
-7.82572e-10
1.4025824e-06
5.4651473e-07
-5.0568036e-10
2.1070471e-08
-2.2413291e-09
6.5995686e-08
-5.6331801e-09
1.1859486e-07
-1.1073635e-08
1.7487028e-07
-1.8758429e-08
2.3012718e-07
-2.8477226e-08
2.8042771e-07
-3.9499298e-08
3.2413194e-07
-5.0693689e-08
3.6250207e-07
-6.0849423e-08
3.9893263e-07
-6.9005268e-08
4.3743766e-07
-7.4630364e-08
4.8136928e-07
-7.7630566e-08
5.3283342e-07
-7.8242922e-08
5.9269819e-07
-7.689267e-08
6.6089602e-07
-7.4064744e-08
7.3678472e-07
-7.0214615e-08
8.1944862e-07
-6.5722226e-08
9.0790238e-07
-6.088038e-08
1.0012045e-06
-5.5904923e-08
1.098506e-06
-5.0953081e-08
1.1990667e-06
-4.6141049e-08
1.3022637e-06
-4.1556812e-08
1.4076034e-06
-3.7267134e-08
1.5147391e-06
-3.3316463e-08
1.6234807e-06
-2.9731662e-08
1.7337647e-06
-2.6523251e-08
1.8455965e-06
-2.3684742e-08
1.9589462e-06
-2.1191281e-08
2.0735624e-06
-1.8996749e-08
2.1886739e-06
-1.7035022e-08
2.3025319e-06
-1.5225747e-08
2.4117669e-06
-1.3481051e-08
2.5105683e-06
-1.1715648e-08
2.5896638e-06
-9.8672111e-09
2.6351401e-06
-7.9239428e-09
2.6272162e-06
-5.9432051e-09
2.5391496e-06
-4.048953e-09
2.3362963e-06
-2.3609722e-09
1.9750985e-06
-9.0759134e-10
1.401129e-06
5.4560697e-07
-4.7726588e-10
2.1547737e-08
-2.1197032e-09
6.7638124e-08
-5.3415436e-09
1.218167e-07
-1.0540994e-08
1.8006973e-07
-1.7957026e-08
2.3754321e-07
-2.7471039e-08
2.8994172e-07
-3.8471434e-08
3.3513234e-07
-4.9920502e-08
3.7395114e-07
-6.0626339e-08
4.0963847e-07
-6.9563905e-08
4.4637523e-07
-7.6084629e-08
4.8789e-07
-7.9965341e-08
5.3671414e-07
-8.133817e-08
5.9407101e-07
-8.0566265e-08
6.6012412e-07
-7.8117052e-08
7.3433552e-07
-7.4462498e-08
8.1579405e-07
-7.0017719e-08
9.0345761e-07
-6.5115787e-08
9.9630254e-07
-6.00085e-08
1.0933987e-06
-5.4880832e-08
1.193939e-06
-4.9868345e-08
1.2972512e-06
-4.5071637e-08
1.4028067e-06
-4.0565037e-08
1.5102325e-06
-3.6398813e-08
1.6193145e-06
-3.26034e-08
1.7299692e-06
-2.9191285e-08
1.8421844e-06
-2.6156749e-08
1.9559117e-06
-2.3474801e-08
2.0708804e-06
-2.1098767e-08
2.1862979e-06
-1.8961203e-08
2.3003944e-06
-1.697984e-08
2.4097855e-06
-1.5063848e-08
2.5086522e-06
-1.3125343e-08
2.5877253e-06
-1.1098768e-08
2.6331135e-06
-8.9677502e-09
2.6250852e-06
-6.7831818e-09
2.536965e-06
-4.6577842e-09
2.334171e-06
-2.7053685e-09
1.9731461e-06
-1.0065607e-09
1.3994299e-06
5.446007e-07
-4.5253713e-10
2.2000274e-08
-2.013092e-09
6.9198679e-08
-5.0834109e-09
1.2488702e-07
-1.0062483e-08
1.850488e-07
-1.7220114e-08
2.4470085e-07
-2.6511225e-08
2.9923283e-07
-3.7428549e-08
3.4604966e-07
-4.902779e-08
3.8555038e-07
-6.0154447e-08
4.2076512e-07
-6.9748169e-08
4.5596895e-07
-7.7069146e-08
4.9521097e-07
-8.1780423e-08
5.4142542e-07
-8.3910178e-08
5.9620075e-07
-8.3749032e-08
6.5996298e-07
-8.1731098e-08
7.3231759e-07
-7.8329995e-08
8.1239293e-07
-7.3985875e-08
8.9911349e-07
-6.9067225e-08
9.913839e-07
-6.3861275e-08
1.0881927e-06
-5.8582374e-08
1.1886601e-06
-5.3387832e-08
1.2920566e-06
-4.8392817e-08
1.3978117e-06
-4.3680924e-08
1.5055206e-06
-3.9308942e-08
1.6149425e-06
-3.5311253e-08
1.7259716e-06
-3.1702896e-08
1.838576e-06
-2.8478998e-08
1.9526878e-06
-2.5614667e-08
2.068016e-06
-2.3062638e-08
2.1837459e-06
-2.0754756e-08
2.2980865e-06
-1.8606756e-08
2.4076375e-06
-1.652547e-08
2.506571e-06
-1.4420517e-08
2.5856204e-06
-1.2223697e-08
2.6309166e-06
-9.9142611e-09
2.6227758e-06
-7.5371949e-09
2.5345878e-06
-5.1954165e-09
2.3318294e-06
-3.002317e-09
1.9709528e-06
-1.0883309e-09
1.3975163e-06
5.4351203e-07
-4.3078166e-10
2.2431056e-08
-1.9187799e-09
7.0686678e-08
-4.8533507e-09
1.2782159e-07
-9.6311112e-09
1.8982656e-07
-1.6543856e-08
2.5161359e-07
-2.5605646e-08
3.0829461e-07
-3.6399777e-08
3.568438e-07
-4.8071649e-08
3.9722225e-07
-5.9514947e-08
4.3220842e-07
-6.965528e-08
4.6610928e-07
-7.7684486e-08
5.0324018e-07
-8.3168361e-08
5.469093e-07
-8.6036849e-08
5.9906924e-07
-8.650325e-08
6.6042939e-07
-8.4956795e-08
7.3077113e-07
-8.1859448e-08
8.0929557e-07
-7.7665695e-08
8.9491975e-07
-7.2773114e-08
9.8649132e-07
-6.7502144e-08
1.0829217e-06
-6.2097261e-08
1.1832552e-06
-5.673922e-08
1.2866986e-06
-5.1559812e-08
1.3926323e-06
-4.6653581e-08
1.5006143e-06
-4.2084619e-08
1.6103735e-06
-3.7892199e-08
1.7217792e-06
-3.4093881e-08
1.8347776e-06
-3.068629e-08
1.9492802e-06
-2.7644561e-08
2.0649743e-06
-2.4921348e-08
2.1810227e-06
-2.2447436e-08
2.2956126e-06
-2.01371e-08
2.4053272e-06
-1.7895261e-08
2.504329e-06
-1.5629098e-08
2.5833543e-06
-1.3267928e-08
2.6285555e-06
-1.0787397e-08
2.6202953e-06
-8.2263089e-09
2.5320266e-06
-5.67996e-09
2.3292831e-06
-3.2645379e-09
1.9685373e-06
-1.1599923e-09
1.3954118e-06
5.4235201e-07
-4.1146454e-10
2.2842521e-08
-1.8346731e-09
7.2109886e-08
-4.6469696e-09
1.3063388e-07
-9.2406273e-09
1.9442022e-07
-1.5923022e-08
2.5829599e-07
-2.475601e-08
3.171276e-07
-3.5401283e-08
3.6748907e-07
-4.7088274e-08
4.0890925e-07
-5.8764653e-08
4.438848e-07
-6.9357455e-08
4.7670208e-07
-7.8009244e-08
5.1189196e-07
-8.4204469e-08
5.5310452e-07
-8.7783285e-08
6.0264806e-07
-8.8881192e-08
6.6152729e-07
-8.7834813e-08
7.2972475e-07
-8.5083478e-08
8.0654423e-07
-8.1085583e-08
8.9092184e-07
-7.6260466e-08
9.8166622e-07
-7.0958321e-08
1.0776196e-06
-6.5453232e-08
1.1777501e-06
-5.995069e-08
1.2811961e-06
-5.4600873e-08
1.3872825e-06
-4.9510803e-08
1.4955243e-06
-4.4753251e-08
1.605616e-06
-4.037281e-08
1.7173988e-06
-3.6390219e-08
1.830795e-06
-3.2803675e-08
1.9456937e-06
-2.9588937e-08
2.0617596e-06
-2.6698278e-08
2.178132e-06
-2.4062023e-08
2.2929764e-06
-2.1593022e-08
2.4028582e-06
-1.9194183e-08
2.5019302e-06
-1.6771012e-08
2.5809311e-06
-1.4250276e-08
2.6260348e-06
-1.1603983e-08
2.617649e-06
-8.8653365e-09
2.5292881e-06
-6.1239571e-09
2.3265417e-06
-3.5014823e-09
1.9659148e-06
-1.2241422e-09
1.3931345e-06
5.4112777e-07
-3.9417769e-10
2.3236698e-08
-1.7591295e-09
7.3474838e-08
-4.4607091e-09
1.3333547e-07
-8.8856398e-09
1.9884515e-07
-1.5352152e-08
2.647625e-07
-2.3960955e-08
3.2573641e-07
-3.4441537e-08
3.7796965e-07
-4.6101039e-08
4.2056875e-07
-5.7943575e-08
4.5572733e-07
-6.8908691e-08
4.876672e-07
-7.8105066e-08
5.2108834e-07
-8.4950403e-08
5.5994985e-07
-8.9204609e-08
6.0690227e-07
-9.0927789e-08
6.6325048e-07
-9.0399746e-08
7.2919671e-07
-8.8028613e-08
8.041731e-07
-8.4267162e-08
8.8716038e-07
-7.9548845e-08
9.7694793e-07
-7.4249147e-08
1.0723199e-06
-6.8670144e-08
1.1721711e-06
-6.3042655e-08
1.2755686e-06
-5.7536638e-08
1.3817765e-06
-5.2273307e-08
1.490261e-06
-4.7335054e-08
1.6006777e-06
-4.2772804e-08
1.7128365e-06
-3.8610973e-08
1.8266332e-06
-3.4849775e-08
1.9419325e-06
-3.1465605e-08
2.0583754e-06
-2.8410865e-08
2.1750773e-06
-2.5615234e-08
2.2901807e-06
-2.2990399e-08
2.4002333e-06
-2.0437587e-08
2.4993775e-06
-1.7860648e-08
2.5783541e-06
-1.518389e-08
2.6233581e-06
-1.2376015e-08
2.6148411e-06
-9.4653426e-09
2.5263773e-06
-6.5363067e-09
2.3236127e-06
-3.7191604e-09
1.9630978e-06
-1.283122e-09
1.3906986e-06
5.3984452e-07
-3.7859685e-10
2.3615295e-08
-1.6908454e-09
7.4787085e-08
-4.2916849e-09
1.3593631e-07
-8.5615568e-09
2.0311502e-07
-1.4826054e-08
2.71027e-07
-2.3217604e-08
3.3412795e-07
-3.3524432e-08
3.8827648e-07
-4.5124938e-08
4.3216926e-07
-5.7080025e-08
4.6768242e-07
-6.8349524e-08
4.989367e-07
-7.8020546e-08
5.3075936e-07
-8.5456795e-08
5.673861e-07
-9.0347676e-08
6.1179315e-07
-9.2682251e-08
6.6558505e-07
-9.2681923e-08
7.2919639e-07
-9.0717441e-08
8.0220862e-07
-8.7227795e-08
8.8367072e-07
-8.2653018e-08
9.7237315e-07
-7.7388565e-08
1.0670554e-06
-7.1762277e-08
1.1665448e-06
-6.6029941e-08
1.2698362e-06
-6.038239e-08
1.3761289e-06
-5.4956424e-08
1.484835e-06
-4.9845324e-08
1.5955666e-06
-4.5107107e-08
1.7080983e-06
-4.077063e-08
1.8222968e-06
-3.6838585e-08
1.9380004e-06
-3.3288197e-08
2.0548251e-06
-3.0072005e-08
2.1718612e-06
-2.7119507e-08
2.2872282e-06
-2.4341153e-08
2.3974549e-06
-2.1636868e-08
2.4966732e-06
-1.8908593e-08
2.5756257e-06
-1.6078705e-08
2.6205282e-06
-1.3112503e-08
2.6118749e-06
-1.0033675e-08
2.5232985e-06
-6.9234607e-09
2.3205025e-06
-3.9219339e-09
1.9600962e-06
-1.3386304e-09
1.3881151e-06
5.3850614e-07
-3.644695e-10
2.3979765e-08
-1.6287723e-09
7.6051388e-08
-4.1375333e-09
1.3844507e-07
-8.2644887e-09
2.0724197e-07
-1.4339995e-08
2.7710251e-07
-2.2522466e-08
3.4231043e-07
-3.2651135e-08
3.9840514e-07
-4.4169433e-08
4.4368756e-07
-5.6194122e-08
4.797071e-07
-6.7710577e-08
5.1045316e-07
-7.7794068e-08
5.4084284e-07
-8.5765295e-08
5.7535733e-07
-9.1252477e-08
6.1728032e-07
-9.4179016e-08
6.685116e-07
-9.4708365e-08
7.2972574e-07
-9.3169895e-08
8.0067014e-07
-8.998204e-08
8.8048288e-07
-8.5584414e-08
9.6797552e-07
-8.0386922e-08
1.0618579e-06
-7.4739958e-08
1.1608978e-06
-6.8923432e-08
1.2640197e-06
-6.3149536e-08
1.370355e-06
-5.7571825e-08
1.4792573e-06
-5.2295634e-08
1.5902904e-06
-4.7387238e-08
1.7031899e-06
-4.2880489e-08
1.81779e-06
-3.8780842e-08
1.9339008e-06
-3.5066976e-08
2.0511112e-06
-3.1691879e-08
2.1684861e-06
-2.8584439e-08
2.2841207e-06
-2.5654409e-08
2.3945249e-06
-2.2800522e-08
2.4938193e-06
-1.9922839e-08
2.5727481e-06
-1.6941952e-08
2.6175473e-06
-1.3819997e-08
2.6087529e-06
-1.0576418e-08
2.5200549e-06
-7.2903557e-09
2.3172164e-06
-4.1127437e-09
1.9569186e-06
-1.3906185e-09
1.385393e-06
5.3711542e-07
-3.5158923e-10
2.4331354e-08
-1.5720614e-09
7.7271859e-08
-3.996298e-09
1.4086931e-07
-7.991149e-09
2.1123682e-07
-1.3889745e-08
2.830011e-07
-2.1871878e-08
3.5029256e-07
-3.1821186e-08
4.0835445e-07
-4.3240343e-08
4.5510671e-07
-5.5300132e-08
4.9176689e-07
-6.7015044e-08
5.2216807e-07
-7.745606e-08
5.5128386e-07
-8.5910257e-08
5.8381153e-07
-9.1953174e-08
6.2332324e-07
-9.5448452e-08
6.7200687e-07
-9.6503453e-08
7.3078075e-07
-9.5403971e-08
7.9957065e-07
-9.2542703e-08
8.7762161e-07
-8.8352421e-08
9.6378525e-07
-8.3252047e-08
1.0567575e-06
-7.7610727e-08
1.1552565e-06
-7.1731031e-08
1.25814e-06
-6.5846478e-08
1.3644705e-06
-6.0128333e-08
1.4735391e-06
-5.4695091e-08
1.5848571e-06
-4.9622171e-08
1.698117e-06
-4.494924e-08
1.8131171e-06
-4.0685123e-08
1.9296366e-06
-3.6810242e-08
2.0472363e-06
-3.3278017e-08
2.1649539e-06
-3.0017378e-08
2.2808601e-06
-2.69373e-08
2.3914448e-06
-2.3935079e-08
2.4908171e-06
-2.09097e-08
2.5697227e-06
-1.7779394e-08
2.6144171e-06
-1.4503547e-08
2.6054771e-06
-1.1097879e-08
2.5166492e-06
-7.6403157e-09
2.313759e-06
-4.2940894e-09
1.9535723e-06
-1.4403499e-09
1.3825394e-06
5.3567487e-07
-3.3978892e-10
2.4671144e-08
-1.5200087e-09
7.8452079e-08
-3.8663557e-09
1.4321565e-07
-7.738741e-09
2.1510921e-07
-1.3471567e-08
2.8873393e-07
-2.1262246e-08
3.5808324e-07
-3.1033208e-08
4.1812541e-07
-4.2340995e-08
4.664145e-07
-5.4408191e-08
5.0383409e-07
-6.6280555e-08
5.3404044e-07
-7.7030751e-08
5.6203406e-07
-8.5920016e-08
5.9270079e-07
-9.2478957e-08
6.2988219e-07
-9.6517338e-08
6.7604526e-07
-9.808929e-08
7.3235269e-07
-9.7436223e-08
7.9891757e-07
-9.4921295e-08
8.7510669e-07
-9.0965074e-08
9.5982903e-07
-8.5989999e-08
1.0517825e-06
-8.0380166e-08
1.1496467e-06
-7.4458492e-08
1.2522184e-06
-6.8479513e-08
1.3584915e-06
-6.2632652e-08
1.4676922e-06
-5.7050601e-08
1.5792751e-06
-5.1818884e-08
1.6928853e-06
-4.6983849e-08
1.808282e-06
-4.255818e-08
1.925211e-06
-3.8524351e-08
2.0432025e-06
-3.4836769e-08
2.1612663e-06
-3.142428e-08
2.2774476e-06
-2.8195199e-08
2.3882157e-06
-2.5045901e-08
2.4876678e-06
-2.1873791e-08
2.5665505e-06
-1.8595321e-08
2.6111386e-06
-1.5167053e-08
2.6020488e-06
-1.1601376e-08
2.5130836e-06
-7.9764583e-09
2.3101339e-06
-4.467286e-09
1.9500632e-06
-1.4883928e-09
1.3795604e-06
5.3418671e-07
-3.2893053e-10
2.5000074e-08
-1.4720367e-09
7.9595185e-08
-3.7463486e-09
1.4548997e-07
-7.5048882e-09
2.1886775e-07
-1.3082173e-08
2.9431121e-07
-2.0690188e-08
3.6569125e-07
-3.0285303e-08
4.2772052e-07
-4.1473088e-08
4.7760229e-07
-5.3525432e-08
5.1588643e-07
-6.5520572e-08
5.4603558e-07
-7.6537467e-08
5.7305095e-07
-8.5818013e-08
6.0198134e-07
-9.2854771e-08
6.3691895e-07
-9.7409332e-08
6.8059982e-07
-9.9485932e-08
7.3442929e-07
-9.9281962e-08
7.987136e-07
-9.7128537e-08
8.7295326e-07
-9.3429447e-08
9.5612994e-07
-8.8605777e-08
1.0469588e-06
-8.3052365e-08
1.1440933e-06
-7.7109988e-08
1.246276e-06
-7.1053203e-08
1.3524347e-06
-6.5089802e-08
1.4617289e-06
-5.9367573e-08
1.5735529e-06
-5.3983009e-08
1.6875007e-06
-4.8989861e-08
1.8032889e-06
-4.4405384e-08
1.9206265e-06
-4.0214703e-08
2.0390118e-06
-3.6373133e-08
2.1574247e-06
-3.280986e-08
2.2738843e-06
-2.9432686e-08
2.3848386e-06
-2.613711e-08
2.4843722e-06
-2.2819057e-08
2.5632325e-06
-1.9393314e-08
2.6077128e-06
-1.5813668e-08
2.5984692e-06
-1.2089851e-08
2.5093598e-06
-8.3007156e-09
2.3063446e-06
-4.6338858e-09
1.9463965e-06
-1.534197e-09
1.376461e-06
5.3265216e-07
-3.1889942e-10
2.5318974e-08
-1.4276577e-09
8.0703942e-08
-3.6351294e-09
1.4769744e-07
-7.2875524e-09
2.2252017e-07
-1.2718687e-08
2.9974235e-07
-2.0152552e-08
3.7312512e-07
-2.9575337e-08
4.3714331e-07
-4.0637239e-08
4.8866419e-07
-5.2656823e-08
5.2790601e-07
-6.4745385e-08
5.5812414e-07
-7.5991671e-08
5.8429724e-07
-8.5623704e-08
6.1161337e-07
-9.3101976e-08
6.4439722e-07
-9.8145264e-08
6.856431e-07
-1.0071157e-07
7.369956e-07
-1.0095549e-07
7.989575e-07
-9.9174493e-08
8.7117227e-07
-9.5752133e-08
9.5270758e-07
-9.1103605e-08
1.0423103e-06
-8.5630429e-08
1.1386201e-06
-7.9688442e-08
1.240334e-06
-7.3570804e-08
1.3463171e-06
-6.7503603e-08
1.4556617e-06
-6.1650172e-08
1.5676994e-06
-5.6118874e-08
1.6819694e-06
-5.0971714e-08
1.7981417e-06
-4.6231242e-08
1.9158861e-06
-4.1885464e-08
2.034666e-06
-3.7891253e-08
2.1534305e-06
-3.4178042e-08
2.2701711e-06
-3.0653502e-08
2.381314e-06
-2.7212136e-08
2.4809308e-06
-2.3748694e-08
2.559769e-06
-2.0176056e-08
2.6041403e-06
-1.6445909e-08
2.5947389e-06
-1.2565367e-08
2.5054793e-06
-8.6146078e-09
2.3023939e-06
-4.7948354e-09
1.9425765e-06
-1.5791251e-09
1.3732453e-06
5.3107318e-07
-3.0959974e-10
2.5628573e-08
-1.386461e-09
8.1780805e-08
-3.5317217e-09
1.498427e-07
-7.0849842e-09
2.2607343e-07
-1.2378576e-08
3.0503594e-07
-1.9646462e-08
3.8039301e-07
-2.8901089e-08
4.4639794e-07
-3.98333e-08
4.995964e-07
-5.1805758e-08
5.3987846e-07
-6.3962843e-08
5.7028123e-07
-7.5405776e-08
5.9574018e-07
-8.535323e-08
6.2156081e-07
-9.3238844e-08
6.5228283e-07
-9.874351e-08
6.9114778e-07
-1.0178277e-07
7.4003486e-07
-1.0247006e-07
7.9964479e-07
-1.0106873e-07
8.6977094e-07
-9.7939294e-08
9.4957815e-07
-9.3487268e-08
1.0378583e-06
-8.8116864e-08
1.1332497e-06
-8.2195958e-08
1.2344131e-06
-7.6034593e-08
1.3401557e-06
-6.9876714e-08
1.4495038e-06
-6.3901525e-08
1.5617242e-06
-5.8229894e-08
1.6762978e-06
-5.2933034e-08
1.7928448e-06
-4.8039321e-08
1.9109924e-06
-4.3540224e-08
2.0301669e-06
-3.9394424e-08
2.1492847e-06
-3.5532073e-08
2.2663087e-06
-3.1860578e-08
2.3776425e-06
-2.8273754e-08
2.477344e-06
-2.4665169e-08
2.5561605e-06
-2.0946166e-08
2.6004213e-06
-1.7065806e-08
2.5908586e-06
-1.3029715e-08
2.5014432e-06
-8.9199859e-09
2.2982842e-06
-4.9508223e-09
1.9386072e-06
-1.6224106e-09
1.369917e-06
5.2945066e-07
-3.0094821e-10
2.5929521e-08
-1.3480986e-09
8.2827956e-08
-3.4352928e-09
1.5192989e-07
-6.8956706e-09
2.2953381e-07
-1.2059616e-08
3.1019988e-07
-1.9169297e-08
3.8750269e-07
-2.8260342e-08
4.5548898e-07
-3.906067e-08
5.1039673e-07
-5.0974486e-08
5.5179228e-07
-6.3178939e-08
5.8248568e-07
-7.4789795e-08
6.0735104e-07
-8.5020035e-08
6.3179104e-07
-9.3281011e-08
6.6054382e-07
-9.9220283e-08
6.9708705e-07
-1.027145e-07
7.4352909e-07
-1.0383812e-07
8.007684e-07
-1.0282037e-07
8.6875318e-07
-9.9996918e-08
9.4675469e-07
-9.5760251e-08
1.0336216e-06
-9.0513684e-08
1.1280032e-06
-8.4633974e-08
1.2285334e-06
-7.8446137e-08
1.3339678e-06
-7.2211039e-08
1.4432688e-06
-6.6123898e-08
1.5556371e-06
-6.0318833e-08
1.6704927e-06
-5.4876666e-08
1.7874027e-06
-4.9832506e-08
1.9059482e-06
-4.5181865e-08
2.0255163e-06
-4.0885575e-08
2.1449885e-06
-3.6874601e-08
2.2622978e-06
-3.3056448e-08
2.3738244e-06
-2.9324302e-08
2.4736118e-06
-2.5570716e-08
2.5524068e-06
-2.1705318e-08
2.5965559e-06
-1.7675271e-08
2.5868286e-06
-1.3484462e-08
2.4972524e-06
-9.2178222e-09
2.2940176e-06
-5.1024421e-09
1.9344919e-06
-1.6648011e-09
1.3664792e-06
5.2778613e-07
-2.9287689e-10
2.6222398e-08
-1.3122721e-09
8.3847352e-08
-3.3451227e-09
1.5396274e-07
-6.7183037e-09
2.3290699e-07
-1.1759851e-08
3.1524143e-07
-1.871869e-08
3.9446152e-07
-2.7650958e-08
4.6442125e-07
-3.8318429e-08
5.210642e-07
-5.0164421e-08
5.6363827e-07
-6.2398264e-08
5.9471952e-07
-7.4151772e-08
6.1910455e-07
-8.4635322e-08
6.422746e-07
-9.3241943e-08
6.6915043e-07
-9.9589828e-08
7.0343494e-07
-1.0352032e-07
7.4745958e-07
-1.0507119e-07
8.0231926e-07
-1.0443814e-07
8.6812014e-07
-1.0193078e-07
9.4424732e-07
-9.7925903e-08
1.0296167e-06
-9.2822681e-08
1.1228999e-06
-8.7003584e-08
1.2227143e-06
-8.0806346e-08
1.3277706e-06
-7.4507834e-08
1.4369703e-06
-6.8319004e-08
1.5494482e-06
-6.2387587e-08
1.6645613e-06
-5.6804889e-08
1.78182e-06
-5.1613277e-08
1.9007566e-06
-4.6812787e-08
2.0207158e-06
-4.2366985e-08
2.1405426e-06
-3.820793e-08
2.2581387e-06
-3.424337e-08
2.3698597e-06
-3.0365786e-08
2.4697344e-06
-2.646713e-08
2.5485081e-06
-2.2455232e-08
2.592544e-06
-1.8275508e-08
2.5826488e-06
-1.3930827e-08
2.4929076e-06
-9.5090086e-09
2.2895959e-06
-5.2504855e-09
1.9302333e-06
-1.7059031e-09
1.3629345e-06
5.2608017e-07
-2.8532502e-10
2.6507723e-08
-1.2787255e-09
8.4840753e-08
-3.2605921e-09
1.5594461e-07
-6.5517373e-09
2.3619814e-07
-1.1477557e-08
3.2016725e-07
-1.8292494e-08
4.0127646e-07
-2.7070892e-08
4.7319965e-07
-3.7605479e-08
5.3159879e-07
-4.9376354e-08
5.7540915e-07
-6.1624272e-08
6.0696744e-07
-7.3498196e-08
6.3097847e-07
-8.4208479e-08
6.5298489e-07
-9.3133143e-08
6.780751e-07
-9.9864715e-08
7.1016651e-07
-1.0421248e-07
7.5180736e-07
-1.0617994e-07
8.0428672e-07
-1.0593034e-07
8.6787053e-07
-1.0374651e-07
9.4206349e-07
-9.9987562e-08
1.0258578e-06
-9.5045421e-08
1.1179578e-06
-8.9305413e-08
1.2169743e-06
-8.3115782e-08
1.3215809e-06
-7.6767844e-08
1.4306223e-06
-7.0487947e-08
1.5431683e-06
-6.4437725e-08
1.6585111e-06
-5.871948e-08
1.7761017e-06
-5.3383488e-08
1.8954206e-06
-4.8435067e-08
2.0157674e-06
-4.3840673e-08
2.1359482e-06
-3.9533958e-08
2.253832e-06
-3.5422897e-08
2.3657487e-06
-3.1400041e-08
2.4657115e-06
-2.7355772e-08
2.5444639e-06
-2.319743e-08
2.5883855e-06
-1.8867872e-08
2.5783194e-06
-1.4369725e-08
2.4884095e-06
-9.7946169e-09
2.2850207e-06
-5.3952122e-09
1.925834e-06
-1.7461434e-09
1.3592855e-06
5.2433399e-07
-2.782412e-10
2.6785965e-08
-1.2472346e-09
8.5809746e-08
-3.181161e-09
1.5787853e-07
-6.3949717e-09
2.3941195e-07
-1.1211198e-08
3.2498348e-07
-1.7888778e-08
4.0795404e-07
-2.6518219e-08
4.8182909e-07
-3.692062e-08
5.4200119e-07
-4.8610627e-08
5.8709916e-07
-6.0859576e-08
6.1921639e-07
-7.2834337e-08
6.4295323e-07
-8.3747351e-08
6.6389791e-07
-9.2964553e-08
6.872923e-07
-1.00056e-07
7.1725796e-07
-1.0480206e-07
7.5655341e-07
-1.0717434e-07
8.0665899e-07
-1.073049e-07
8.6800109e-07
-1.0544968e-07
9.4020828e-07
-1.0194849e-07
1.0223566e-06
-9.71835e-08
1.1131928e-06
-9.154013e-08
1.211331e-06
-8.537461e-08
1.3154154e-06
-7.8991327e-08
1.424239e-06
-7.263139e-08
1.5368084e-06
-6.6470225e-08
1.65235e-06
-6.0621751e-08
1.7702532e-06
-5.5144779e-08
1.8899436e-06
-5.0050288e-08
2.010673e-06
-4.530834e-08