/*--------------------------------*- C++ -*----------------------------------*\
| =========                 |                                                 |
| \\      /  F ield         | OpenFOAM: The Open Source CFD Toolbox           |
|  \\    /   O peration     | Version:  3.0.1                                 |
|   \\  /    A nd           | Web:      www.OpenFOAM.org                      |
|    \\/     M anipulation  |                                                 |
\*---------------------------------------------------------------------------*/
FoamFile
{
    version     2.0;
    format      ascii;
    class       volScalarField;
    location    "2407";
    object      Qin;
}
// * * * * * * * * * * * * * * * * * * * * * * * * * * * * * * * * * * * * * //

dimensions      [1 0 -3 0 0 0 0];

internalField   uniform 0;

boundaryField
{
    LeftWedge
    {
        type            wedge;
    }
    RightWedge
    {
        type            wedge;
    }
    Inlet
    {
        type            calculated;
        value           uniform 0;
    }
    Outlet
    {
        type            calculated;
        value           nonuniform List<scalar> 
40
(
2.3895639e-29
2.3895639e-29
2.3895639e-29
2.3895639e-29
2.3895639e-29
2.3895639e-29
2.3895639e-29
2.3895639e-29
2.3895639e-29
2.3895639e-29
2.3895639e-29
2.3895639e-29
2.3895639e-29
2.3895639e-29
2.3895639e-29
2.3895639e-29
2.3895639e-29
2.3895639e-29
2.3895639e-29
2.3895639e-29
2.3895639e-29
2.3895639e-29
2.3895639e-29
2.3895639e-29
2.3895639e-29
2.3895639e-29
2.3895639e-29
2.3895639e-29
2.3895639e-29
2.3895639e-29
2.3895639e-29
2.3895639e-29
2.3895639e-29
2.3895639e-29
2.3895639e-29
2.3895639e-29
2.3895639e-29
2.3895639e-29
2.3895639e-29
2.3895639e-29
)
;
    }
    Outterwall
    {
        type            calculated;
        value           nonuniform List<scalar> 
100
(
1505.3743
1831.3204
1984.9574
2080.2487
2147.9945
2199.8547
2241.508
2276.0959
2305.5308
2331.0572
2353.527
2373.5472
2391.5649
2407.9176
2422.8664
2436.6169
2449.3339
2461.1511
2472.1786
2482.5079
2492.216
2501.368
2510.0196
2518.2189
2526.0073
2533.4213
2540.4924
2547.2487
2553.715
2559.9135
2565.8636
2571.5833
2577.0882
2582.3928
2587.5101
2592.4519
2597.2289
2601.8509
2606.327
2610.6654
2614.8737
2618.9588
2622.9273
2626.7851
2630.5378
2634.1905
2637.748
2641.2148
2644.5951
2647.8926
2651.1112
2654.2541
2657.3246
2660.3257
2663.2603
2666.1309
2668.9402
2671.6905
2674.3839
2677.0228
2679.6089
2682.1444
2684.6308
2687.0701
2689.4637
2691.8133
2694.1203
2696.3861
2698.612
2700.7993
2702.9493
2705.063
2707.1417
2709.1863
2711.1978
2713.1773
2715.1256
2717.0437
2718.9324
2720.7926
2722.6249
2724.4302
2726.2092
2727.9626
2729.6911
2731.3953
2733.0758
2734.7332
2736.3682
2737.9814
2739.5735
2741.1457
2742.7011
2744.2473
2745.8126
2747.476
2749.5098
2752.2093
2757.8759
2764.7542
)
;
    }
    Innerwall
    {
        type            calculated;
        value           nonuniform List<scalar> 
100
(
421.91928
421.91842
421.91757
421.91672
421.91588
421.91504
421.91419
421.91335
421.91251
421.91167
421.91083
421.90998
421.90914
421.9083
421.90746
421.90662
421.90578
421.90494
421.9041
421.90326
421.90242
421.90158
421.90074
421.8999
421.89906
421.89822
421.89738
421.89654
421.8957
421.89486
421.89402
421.89318
421.89234
421.8915
421.89067
421.88983
421.88899
421.88815
421.88731
421.88647
421.88563
421.88479
421.88395
421.88311
421.88227
421.88144
421.8806
421.87976
421.87892
421.87808
421.87725
421.87641
421.87557
421.87474
421.8739
421.87307
421.87224
421.8714
421.87057
421.86974
421.86891
421.86809
421.86726
421.86644
421.86561
421.86479
421.86398
421.86316
421.86235
421.86154
421.86074
421.85994
421.85915
421.85836
421.85757
421.85679
421.85602
421.85525
421.85449
421.85374
421.853
421.85226
421.85154
421.85082
421.85011
421.84942
421.84874
421.84806
421.84741
421.84676
421.84613
421.84552
421.84492
421.84434
421.84378
421.84323
421.8427
421.8422
421.84173
421.84134
)
;
    }
}


// ************************************************************************* //
