/*--------------------------------*- C++ -*----------------------------------*\
| =========                 |                                                 |
| \\      /  F ield         | OpenFOAM: The Open Source CFD Toolbox           |
|  \\    /   O peration     | Version:  3.0.1                                 |
|   \\  /    A nd           | Web:      www.OpenFOAM.org                      |
|    \\/     M anipulation  |                                                 |
\*---------------------------------------------------------------------------*/
FoamFile
{
    version     2.0;
    format      ascii;
    class       volScalarField;
    location    "2407";
    object      Qr;
}
// * * * * * * * * * * * * * * * * * * * * * * * * * * * * * * * * * * * * * //

dimensions      [1 0 -3 0 0 0 0];

internalField   uniform 0;

boundaryField
{
    LeftWedge
    {
        type            wedge;
    }
    RightWedge
    {
        type            wedge;
    }
    Inlet
    {
        type            calculated;
        value           uniform -6.3277868e-30;
    }
    Outlet
    {
        type            calculated;
        value           nonuniform List<scalar> 
40
(
2.3895639e-29
2.3895639e-29
2.3895639e-29
2.3895639e-29
2.3895639e-29
2.3895639e-29
2.3895639e-29
2.3895639e-29
2.3895639e-29
2.3895639e-29
2.3895639e-29
2.3895639e-29
2.3895639e-29
2.3895639e-29
2.3895639e-29
2.3895639e-29
2.3895639e-29
2.3895639e-29
2.3895639e-29
2.3895639e-29
2.3895639e-29
2.3895639e-29
2.3895639e-29
2.3895639e-29
2.3895639e-29
2.3895639e-29
2.3895639e-29
2.3895639e-29
2.3895639e-29
2.3895639e-29
2.3895639e-29
2.3895639e-29
2.3895639e-29
2.3895639e-29
2.3895639e-29
2.3895639e-29
2.3895639e-29
2.3895639e-29
2.3895639e-29
2.3895639e-29
)
;
    }
    Outterwall
    {
        type            calculated;
        value           nonuniform List<scalar> 
100
(
1083.455
1409.402
1563.0398
1658.332
1726.0786
1777.9397
1819.5938
1854.1825
1883.6183
1909.1455
1931.6161
1951.6373
1969.6557
1986.0093
2000.9589
2014.7103
2027.4281
2039.2462
2050.2745
2060.6047
2070.3135
2079.4664
2088.1189
2096.319
2104.1083
2111.523
2118.595
2125.3522
2131.8193
2138.0186
2143.9696
2149.6901
2155.1959
2160.5013
2165.6194
2170.562
2175.3399
2179.9628
2184.4397
2188.7789
2192.988
2197.074
2201.0433
2204.902
2208.6555
2212.3091
2215.8674
2219.3351
2222.7161
2226.0145
2229.2339
2232.3777
2235.449
2238.451
2241.3864
2244.2579
2247.068
2249.8191
2252.5134
2255.153
2257.74
2260.2763
2262.7636
2265.2037
2267.5981
2269.9485
2272.2563
2274.5229
2276.7496
2278.9378
2281.0885
2283.2031
2285.2825
2287.3279
2289.3402
2291.3205
2293.2696
2295.1885
2297.0779
2298.9388
2300.7719
2302.578
2304.3577
2306.1118
2307.841
2309.5458
2311.227
2312.8852
2314.5208
2316.1346
2317.7274
2319.3002
2320.8561
2322.4029
2323.9688
2325.6328
2327.6671
2330.3671
2336.0342
2342.9128
)
;
    }
    Innerwall
    {
        type            calculated;
        value           nonuniform List<scalar> 
100
(
-1083.455
-1409.402
-1563.0398
-1658.332
-1726.0786
-1777.9397
-1819.5938
-1854.1825
-1883.6183
-1909.1455
-1931.6161
-1951.6373
-1969.6557
-1986.0093
-2000.9589
-2014.7103
-2027.4281
-2039.2462
-2050.2745
-2060.6047
-2070.3135
-2079.4664
-2088.1189
-2096.319
-2104.1083
-2111.523
-2118.595
-2125.3522
-2131.8193
-2138.0186
-2143.9696
-2149.6901
-2155.1959
-2160.5013
-2165.6194
-2170.562
-2175.3399
-2179.9628
-2184.4397
-2188.7789
-2192.988
-2197.074
-2201.0433
-2204.902
-2208.6555
-2212.3091
-2215.8674
-2219.3351
-2222.7161
-2226.0145
-2229.2339
-2232.3777
-2235.449
-2238.451
-2241.3864
-2244.2579
-2247.068
-2249.8191
-2252.5134
-2255.153
-2257.74
-2260.2763
-2262.7636
-2265.2037
-2267.5981
-2269.9485
-2272.2563
-2274.5229
-2276.7496
-2278.9378
-2281.0885
-2283.2031
-2285.2825
-2287.3279
-2289.3402
-2291.3205
-2293.2696
-2295.1885
-2297.0779
-2298.9388
-2300.7719
-2302.578
-2304.3577
-2306.1118
-2307.841
-2309.5458
-2311.227
-2312.8852
-2314.5208
-2316.1346
-2317.7274
-2319.3002
-2320.8561
-2322.4029
-2323.9688
-2325.6328
-2327.6671
-2330.3671
-2336.0342
-2342.9128
)
;
    }
}


// ************************************************************************* //
