/*--------------------------------*- C++ -*----------------------------------*\
| =========                 |                                                 |
| \\      /  F ield         | OpenFOAM: The Open Source CFD Toolbox           |
|  \\    /   O peration     | Version:  3.0.1                                 |
|   \\  /    A nd           | Web:      www.OpenFOAM.org                      |
|    \\/     M anipulation  |                                                 |
\*---------------------------------------------------------------------------*/
FoamFile
{
    version     2.0;
    format      ascii;
    class       volScalarField;
    location    "2407";
    object      rho;
}
// * * * * * * * * * * * * * * * * * * * * * * * * * * * * * * * * * * * * * //

dimensions      [1 -3 0 0 0 0 0];

internalField   nonuniform List<scalar> 
4000
(
0.92217676
1.0183911
1.0943324
1.1445811
1.1736702
1.1888842
1.1962286
1.1995441
1.2009542
1.2015214
1.2017377
1.201816
1.2018429
1.2018517
1.2018544
1.2018552
1.2018555
1.2018555
1.2018555
1.2018555
1.2018555
1.2018555
1.2018555
1.2018555
1.2018555
1.2018555
1.2018555
1.2018555
1.2018555
1.2018555
1.2018555
1.2018555
1.2018555
1.2018555
1.2018555
1.2018555
1.2018555
1.2018555
1.2018555
1.2018555
0.86690637
0.94728805
1.0261122
1.0926165
1.1404526
1.1702541
1.1867628
1.1950972
1.1989998
1.2007126
1.2014212
1.2016983
1.2018008
1.2018368
1.2018487
1.2018525
1.2018536
1.2018539
1.201854
1.201854
1.201854
1.201854
1.201854
1.201854
1.201854
1.201854
1.201854
1.201854
1.201854
1.201854
1.201854
1.201854
1.201854
1.201854
1.201854
1.201854
1.201854
1.201854
1.201854
1.201854
0.8452653
0.91577793
0.98841513
1.0560451
1.1112295
1.1504245
1.174953
1.1887537
1.1958681
1.1992749
1.2008029
1.2014479
1.2017048
1.2018014
1.2018357
1.2018473
1.201851
1.2018521
1.2018524
1.2018525
1.2018525
1.2018525
1.2018525
1.2018525
1.2018525
1.2018525
1.2018525
1.2018525
1.2018525
1.2018525
1.2018525
1.2018525
1.2018525
1.2018525
1.2018525
1.2018525
1.2018525
1.2018525
1.2018525
1.2018525
0.8329403
0.89756806
0.96503781
1.0305963
1.0879378
1.1323076
1.1627033
1.1813749
1.1918278
1.1972353
1.1998452
1.201027
1.2015307
1.2017331
1.2018099
1.2018374
1.2018468
1.2018498
1.2018507
1.2018509
1.201851
1.201851
1.201851
1.201851
1.201851
1.201851
1.201851
1.201851
1.201851
1.201851
1.201851
1.201851
1.201851
1.201851
1.201851
1.201851
1.201851
1.201851
1.201851
1.201851
0.82462796
0.88527873
0.94885942
1.0119735
1.0694754
1.1165583
1.1509957
1.1736448
1.1872104
1.1947043
1.1985596
1.2004181
1.2012605
1.2016202
1.201765
1.20182
1.2018397
1.2018465
1.2018486
1.2018493
1.2018495
1.2018495
1.2018495
1.2018495
1.2018495
1.2018495
1.2018495
1.2018495
1.2018495
1.2018495
1.2018495
1.2018495
1.2018495
1.2018495
1.2018495
1.2018495
1.2018495
1.2018495
1.2018495
1.2018495
0.81849745
0.87622827
0.93681246
0.99768253
1.0545937
1.10304
1.1402201
1.1660008
1.1823075
1.1918225
1.1969924
1.1996246
1.2008847
1.2014531
1.2016947
1.2017917
1.2018284
1.2018415
1.201846
1.2018474
1.2018479
1.201848
1.201848
1.201848
1.201848
1.201848
1.201848
1.201848
1.201848
1.201848
1.201848
1.201848
1.201848
1.201848
1.201848
1.201848
1.201848
1.201848
1.201848
1.201848
0.81371116
0.86917568
0.92737307
0.98628237
1.0423357
1.0914037
1.1304509
1.1586727
1.1773287
1.1887206
1.1952039
1.1986643
1.2004027
1.2012261
1.2015941
1.2017492
1.201811
1.2018342
1.2018425
1.2018453
1.2018462
1.2018464
1.2018465
1.2018465
1.2018465
1.2018465
1.2018465
1.2018465
1.2018465
1.2018465
1.2018465
1.2018465
1.2018465
1.2018465
1.2018465
1.2018465
1.2018465
1.2018465
1.2018465
1.2018465
0.80982564
0.8634611
0.9197017
0.97690945
1.0320318
1.081304
1.1216315
1.1517602
1.1724086
1.1855036
1.1932543
1.1975629
1.1998205
1.2009374
1.2014594
1.2016897
1.2017858
1.2018236
1.2018377
1.2018426
1.2018443
1.2018448
1.201845
1.201845
1.201845
1.201845
1.201845
1.201845
1.201845
1.201845
1.201845
1.201845
1.201845
1.201845
1.201845
1.201845
1.201845
1.201845
1.201845
1.201845
0.80658017
0.85869619
0.91329449
0.96901838
1.0232164
1.0724521
1.1136614
1.1452907
1.167626
1.1822485
1.1911969
1.1963483
1.1991485
1.2005883
1.2012887
1.2016109
1.2017511
1.2018087
1.2018311
1.2018393
1.2018422
1.2018431
1.2018434
1.2018435
1.2018435
1.2018435
1.2018435
1.2018435
1.2018435
1.2018435
1.2018435
1.2018435
1.2018435
1.2018435
1.2018435
1.2018435
1.2018435
1.2018435
1.2018435
1.2018435
0.80380977
0.85463526
0.90782877
0.96224802
1.0155606
1.0646189
1.1064343
1.1392551
1.1630225
1.1790087
1.1890748
1.1950472
1.1983994
1.2001826
1.2010818
1.2015113
1.2017055
1.2017885
1.2018222
1.201835
1.2018397
1.2018413
1.2018418
1.201842
1.201842
1.201842
1.201842
1.201842
1.201842
1.201842
1.201842
1.201842
1.201842
1.201842
1.201842
1.201842
1.201842
1.201842
1.201842
1.201842
0.8014041
0.85111408
0.90308719
0.95634932
1.0088271
1.0576251
1.0998521
1.1336273
1.1586165
1.1758192
1.1869215
1.1936832
1.1975861
1.1997256
1.2008395
1.20139
1.2016479
1.2017623
1.2018104
1.2018295
1.2018367
1.2018393
1.2018401
1.2018404
1.2018405
1.2018405
1.2018405
1.2018405
1.2018405
1.2018405
1.2018405
1.2018405
1.2018405
1.2018405
1.2018405
1.2018405
1.2018405
1.2018405
1.2018405
1.2018405
0.79928608
0.84801805
0.8989172
0.95114454
1.0028405
1.0513305
1.0938292
1.1283749
1.1544125
1.172702
1.1847617
1.1922761
1.1967213
1.1992233
1.2005639
1.2012469
1.2015775
1.2017292
1.2017952
1.2018224
1.2018331
1.201837
1.2018384
1.2018388
1.201839
1.201839
1.201839
1.201839
1.201839
1.201839
1.201839
1.201839
1.201839
1.201839
1.201839
1.201839
1.201839
1.201839
1.201839
1.201839
0.79739998
0.84526437
0.89520815
0.94650304
0.99746877
1.0456242
1.0882927
1.1234645
1.1504071
1.1696701
1.1826135
1.1908421
1.1958161
1.1986822
1.2002575
1.2010826
1.2014939
1.2016887
1.2017762
1.2018135
1.2018286
1.2018344
1.2018365
1.2018372
1.2018374
1.2018375
1.2018375
1.2018375
1.2018375
1.2018375
1.2018375
1.2018375
1.2018375
1.2018375
1.2018375
1.2018375
1.2018375
1.2018375
1.2018375
1.2018375
0.79570428
0.84279144
0.89187753
0.94232641
0.9926101
1.0404182
1.0831808
1.1188642
1.1465923
1.1667304
1.1804898
1.1893941
1.1948805
1.1981084
1.1999234
1.200898
1.2013971
1.2016403
1.201753
1.2018025
1.2018232
1.2018313
1.2018344
1.2018355
1.2018359
1.201836
1.201836
1.201836
1.201836
1.201836
1.201836
1.201836
1.201836
1.201836
1.201836
1.201836
1.201836
1.201836
1.201836
1.201836
0.79416736
0.84055237
0.88886234
0.93853895
0.98818498
1.0356414
1.0784415
1.1145445
1.1429582
1.1638853
1.1783992
1.1879421
1.1939228
1.1975075
1.1995647
1.2006944
1.2012872
1.2015839
1.2017251
1.2017891
1.2018166
1.2018278
1.2018321
1.2018337
1.2018343
1.2018345
1.2018345
1.2018345
1.2018345
1.2018345
1.2018345
1.2018345
1.2018345
1.2018345
1.2018345
1.2018345
1.2018345
1.2018345
1.2018345
1.2018345
0.79276458
0.83851068
0.88611354
0.93508129
0.98413019
1.0312362
1.0740309
1.110479
1.1394937
1.1611351
1.1763478
1.1864936
1.1929501
1.1968847
1.1991845
1.2004732
1.2011647
1.2015192
1.2016924
1.201773
1.2018086
1.2018236
1.2018296
1.2018318
1.2018326
1.2018329
1.201833
1.201833
1.201833
1.201833
1.201833
1.201833
1.201833
1.201833
1.201833
1.201833
1.201833
1.201833
1.201833
1.201833
0.79147644
0.83663752
0.88359225
0.93190616
0.98039478
1.027155
1.0699118
1.1066438
1.1361879
1.1584779
1.174339
1.1850546
1.1919681
1.1962447
1.1987858
1.2002361
1.2010302
1.2014463
1.2016547
1.2017541
1.2017992
1.2018187
1.2018267
1.2018298
1.2018309
1.2018313
1.2018315
1.2018315
1.2018315
1.2018315
1.2018315
1.2018315
1.2018315
1.2018315
1.2018315
1.2018315
1.2018315
1.2018315
1.2018315
1.2018315
0.79028727
0.83490971
0.88126724
0.92897537
0.97693717
1.0233585
1.0660525
1.103018
1.1330302
1.1559111
1.1723752
1.1836294
1.1909815
1.1955912
1.1983714
1.1999846
1.2008843
1.2013655
1.2016118
1.2017321
1.2017881
1.2018129
1.2018234
1.2018276
1.2018292
1.2018298
1.20183
1.20183
1.20183
1.20183
1.20183
1.20183
1.20183
1.20183
1.20183
1.20183
1.20183
1.20183
1.20183
1.20183
0.78918428
0.83330837
0.87911302
0.92625765
0.97372308
1.0198137
1.0624257
1.0995829
1.1300104
1.1534313
1.1704572
1.1822212
1.1899942
1.1949279
1.1979438
1.1997204
1.2007279
1.201277
1.2015637
1.201707
1.2017753
1.2018063
1.2018197
1.2018252
1.2018273
1.2018281
1.2018284
1.2018285
1.2018285
1.2018285
1.2018285
1.2018285
1.2018285
1.2018285
1.2018285
1.2018285
1.2018285
1.2018285
1.2018285
1.2018285
0.78815693
0.83181794
0.87710861
0.92372717
0.97072391
1.0164927
1.0590082
1.0963218
1.127119
1.1510348
1.1685853
1.1808323
1.1890091
1.1942575
1.1975054
1.199445
1.2005619
1.201181
1.2015106
1.2016786
1.2017605
1.2017986
1.2018154
1.2018225
1.2018254
1.2018264
1.2018268
1.201827
1.201827
1.201827
1.201827
1.201827
1.201827
1.201827
1.201827
1.201827
1.201827
1.201827
1.201827
1.201827
0.78719643
0.83042546
0.87523649
0.92136231
0.96791561
1.013372
1.0557796
1.0932202
1.1243474
1.1487179
1.1667591
1.1794643
1.1880287
1.1935825
1.1970581
1.1991597
1.200387
1.2010782
1.2014525
1.201647
1.2017438
1.2017898
1.2018106
1.2018196
1.2018233
1.2018247
1.2018253
1.2018255
1.2018255
1.2018255
1.2018255
1.2018255
1.2018255
1.2018255
1.2018255
1.2018255
1.2018255
1.2018255
1.2018255
1.2018255
0.7862954
0.82912004
0.87348196
0.91914486
0.96527781
1.0104311
1.0527224
1.0902649
1.1216873
1.1464766
1.1649779
1.1781182
1.1870548
1.192905
1.1966038
1.198866
1.2002042
1.2009687
1.2013895
1.2016122
1.2017251
1.2017798
1.2018052
1.2018163
1.201821
1.2018229
1.2018237
1.2018239
1.201824
1.201824
1.201824
1.201824
1.201824
1.201824
1.201824
1.201824
1.201824
1.201824
1.201824
1.201824
0.78544755
0.82789244
0.87183253
0.91705934
0.96279306
1.0076527
1.0498213
1.0874443
1.1191315
1.1443074
1.1632406
1.1767946
1.1860891
1.1922266
1.196144
1.1985651
1.2000142
1.2008532
1.2013219
1.2015741
1.2017042
1.2017686
1.201799
1.2018128
1.2018187
1.2018211
1.201822
1.2018224
1.2018225
1.2018225
1.2018225
1.2018225
1.2018225
1.2018225
1.2018225
1.2018225
1.2018225
1.2018225
1.2018225
1.2018225
0.78464752
0.82673476
0.87027752
0.91509247
0.96044637
1.0050216
1.0470627
1.084748
1.116673
1.1422066
1.161546
1.1754941
1.1851325
1.1915489
1.1956801
1.198258
1.1998179
1.200732
1.2012499
1.2015328
1.2016813
1.2017561
1.2017922
1.2018088
1.2018161
1.2018191
1.2018203
1.2018208
1.201821
1.201821
1.201821
1.201821
1.201821
1.201821
1.201821
1.201821
1.201821
1.201821
1.201821
1.201821
0.78389069
0.82564021
0.86880776
0.91323281
0.95822477
1.0025245
1.0444347
1.0821667
1.1143056
1.1401708
1.159893
1.1742165
1.1841859
1.1908729
1.1952132
1.1979459
1.1996159
1.2006057
1.2011737
1.2014884
1.2016563
1.2017423
1.2017846
1.2018044
1.2018133
1.2018171
1.2018186
1.2018192
1.2018194
1.2018195
1.2018195
1.2018195
1.2018195
1.2018195
1.2018195
1.2018195
1.2018195
1.2018195
1.2018195
1.2018195
0.78317306
0.82460291
0.86741527
0.91147044
0.95611693
1.0001499
1.0419268
1.079692
1.1120235
1.1381967
1.15828
1.1729619
1.1832501
1.1901997
1.1947444
1.1976295
1.1994089
1.2004747
1.2010936
1.201441
1.2016292
1.2017272
1.2017761
1.2017995
1.2018102
1.2018149
1.2018168
1.2018176
1.2018179
1.201818
1.201818
1.201818
1.201818
1.201818
1.201818
1.201818
1.201818
1.201818
1.201818
1.201818
0.78249112
0.82361771
0.86609313
0.9097967
0.95411295
0.99788744
1.0395297
1.0773163
1.1098216
1.1362811
1.1567057
1.17173
1.1823255
1.18953
1.1942746
1.1973097
1.1991977
1.2003394
1.2010097
1.2013908
1.2016
1.2017107
1.2017668
1.2017942
1.2018069
1.2018126
1.201815
1.201816
1.2018163
1.2018165
1.2018165
1.2018165
1.2018165
1.2018165
1.2018165
1.2018165
1.2018165
1.2018165
1.2018165
1.2018165
0.78184182
0.82268012
0.86483525
0.90820398
0.95220411
0.99572819
1.0372349
1.0750328
1.107695
1.1344213
1.1551688
1.1705206
1.1814124
1.1888645
1.1938046
1.1969871
1.1989826
1.2002003
1.2009225
1.2013378
1.2015688
1.2016928
1.2017567
1.2017884
1.2018034
1.2018101
1.2018131
1.2018143
1.2018148
1.201815
1.201815
1.201815
1.201815
1.201815
1.201815
1.201815
1.201815
1.201815
1.201815
1.201815
0.78122246
0.82178619
0.86363628
0.90668558
0.95038271
0.99366407
1.0350349
1.0728354
1.1056393
1.1326145
1.1536678
1.1693331
1.1805109
1.1882038
1.1933348
1.1966625
1.1987644
1.2000577
1.200832
1.2012822
1.2015357
1.2016735
1.2017457
1.201782
1.2017995
1.2018075
1.2018111
1.2018126
1.2018132
1.2018134
1.2018135
1.2018135
1.2018135
1.2018135
1.2018135
1.2018135
1.2018135
1.2018135
1.2018135
1.2018135
0.78063065
0.82093241
0.86249148
0.90523556
0.94864189
0.99168792
1.0329231
1.0707184
1.1036503
1.1308581
1.1522014
1.1681672
1.1796213
1.1875482
1.192866
1.1963363
1.1985434
1.199912
1.2007387
1.2012242
1.2015007
1.2016529
1.2017338
1.2017751
1.2017953
1.2018048
1.201809
1.2018108
1.2018116
1.2018119
1.201812
1.201812
1.201812
1.201812
1.201812
1.201812
1.201812
1.201812
1.201812
1.201812
0.78006426
0.82011566
0.86139664
0.90384865
0.94697555
0.9897933
1.0308933
1.0686769
1.1017243
1.1291496
1.1507684
1.1670223
1.1787435
1.186898
1.1923985
1.1960091
1.1983202
1.1997636
1.2006427
1.2011638
1.2014638
1.201631
1.201721
1.2017676
1.2017908
1.2018018
1.2018069
1.2018091
1.20181
1.2018103
1.2018105
1.2018105
1.2018105
1.2018105
1.2018105
1.2018105
1.2018105
1.2018105
1.2018105
1.2018105
0.7795214
0.81933317
0.86034801
0.90252012
0.94537822
0.98797443
1.0289401
1.066706
1.0998578
1.1274868
1.1493675
1.1658981
1.1778776
1.1862536
1.1919328
1.1956812
1.198095
1.1996128
1.2005443
1.2011014
1.2014252
1.2016078
1.2017073
1.2017595
1.2017859
1.2017987
1.2018046
1.2018072
1.2018083
1.2018088
1.201809
1.201809
1.201809
1.201809
1.201809
1.201809
1.201809
1.201809
1.201809
1.201809
0.77900037
0.81858245
0.85934222
0.90124574
0.94384499
0.98622612
1.0270584
1.0648016
1.0980477
1.1258677
1.1479975
1.1647938
1.1770234
1.1856151
1.1914692
1.1953531
1.1978683
1.1994598
1.2004436
1.2010368
1.201385
1.2015833
1.2016927
1.2017509
1.2017807
1.2017953
1.2018022
1.2018053
1.2018067
1.2018072
1.2018074
1.2018075
1.2018075
1.2018075
1.2018075
1.2018075
1.2018075
1.2018075
1.2018075
1.2018075
0.77849963
0.81786126
0.85837625
0.90002172
0.94237144
0.98454364
1.0252438
1.0629597
1.0962909
1.1242901
1.1466572
1.1637091
1.1761808
1.1849826
1.1910079
1.195025
1.1976403
1.199305
1.200341
1.2009705
1.2013432
1.2015576
1.2016772
1.2017416
1.2017751
1.2017917
1.2017997
1.2018034
1.201805
1.2018056
1.2018059
1.201806
1.201806
1.201806
1.201806
1.201806
1.201806
1.201806
1.201806
1.201806
0.77801782
0.81716758
0.85744737
0.89884463
0.94095357
0.98292273
1.0234921
1.0611769
1.0945847
1.1227522
1.1453456
1.1626434
1.1753497
1.1843563
1.1905492
1.1946973
1.1974114
1.1991486
1.2002365
1.2009024
1.2012999
1.2015308
1.2016609
1.2017318
1.2017691
1.2017879
1.2017971
1.2018013
1.2018032
1.201804
1.2018044
1.2018045
1.2018045
1.2018045
1.2018045
1.2018045
1.2018045
1.2018045
1.2018045
1.2018045
0.77755368
0.81649959
0.85655311
0.89771135
0.93958774
0.98135949
1.0217995
1.0594497
1.0929265
1.1212522
1.1440615
1.1615961
1.17453
1.1837363
1.1900933
1.1943701
1.1971818
1.1989909
1.2001305
1.2008327
1.2012552
1.2015028
1.2016437
1.2017214
1.2017627
1.2017839
1.2017943
1.2017992
1.2018014
1.2018024
1.2018028
1.201803
1.201803
1.201803
1.201803
1.201803
1.201803
1.201803
1.201803
1.201803
0.77710607
0.81585564
0.85569124
0.89661907
0.93827067
0.97985038
1.0201626
1.0577752
1.0913139
1.1197886
1.142804
1.1605668
1.1737215
1.1831224
1.1896404
1.1940438
1.1969517
1.1988319
1.200023
1.2007615
1.2012092
1.2014737
1.2016257
1.2017103
1.2017559
1.2017796
1.2017914
1.201797
1.2017996
1.2018008
1.2018012
1.2018014
1.2018015
1.2018015
1.2018015
1.2018015
1.2018015
1.2018015
1.2018015
1.2018015
0.77667398
0.81523421
0.85485972
0.89556522
0.93699934
0.97839217
1.0185782
1.0561506
1.0897448
1.1183597
1.141572
1.1595549
1.1729239
1.1825149
1.1891905
1.1937185
1.1967213
1.198672
1.1999142
1.2006891
1.2011619
1.2014436
1.2016069
1.2016987
1.2017488
1.201775
1.2017883
1.2017948
1.2017978
1.2017991
1.2017997
1.2017999
1.2018
1.2018
1.2018
1.2018
1.2018
1.2018
1.2018
1.2018
0.77625645
0.81463393
0.85405669
0.89454746
0.93577101
0.97698186
1.0170434
1.0545732
1.0882171
1.116964
1.1403648
1.15856
1.1721371
1.1819136
1.1887437
1.1933943
1.1964909
1.1985114
1.1998043
1.2006154
1.2011135
1.2014125
1.2015873
1.2016866
1.2017412
1.2017702
1.2017851
1.2017924
1.2017959
1.2017974
1.2017981
1.2017984
1.2017985
1.2017985
1.2017985
1.2017985
1.2017985
1.2017985
1.2017985
1.2017985
0.77585263
0.81405354
0.85328046
0.89356364
0.93458315
0.97561675
1.0155554
1.0530407
1.0867288
1.1156003
1.1391813
1.1575815
1.1713609
1.1813186
1.1883002
1.1930714
1.1962605
1.19835
1.1996934
1.2005406
1.2010641
1.2013805
1.201567
1.2016738
1.2017333
1.2017652
1.2017817
1.20179
1.2017939
1.2017957
1.2017965
1.2017968
1.201797
1.201797
1.201797
1.201797
1.201797
1.201797
1.201797
1.201797
0.77546172
0.8134919
0.85252946
0.8926118
0.93343346
0.97429432
1.0141118
1.0515508
1.0852781
1.1142671
1.1380208
1.1566191
1.170595
1.1807297
1.18786
1.1927499
1.1960303
1.1981882
1.1995816
1.2004648
1.2010137
1.2013476
1.2015459
1.2016606
1.2017249
1.2017599
1.2017782
1.2017874
1.2017919
1.201794
1.2017949
1.2017953
1.2017954
1.2017955
1.2017955
1.2017955
1.2017955
1.2017955
1.2017955
1.2017955
0.775083
0.81294793
0.85180228
0.89169013
0.93231981
0.97301225
1.0127103
1.0501014
1.0838634
1.1129633
1.1368825
1.1556721
1.1698393
1.180147
1.1874232
1.1924299
1.1958005
1.198026
1.1994691
1.2003881
1.2009623
1.2013139
1.2015242
1.2016468
1.2017162
1.2017543
1.2017744
1.2017847
1.2017898
1.2017922
1.2017933
1.2017937
1.2017939
1.201794
1.201794
1.201794
1.201794
1.201794
1.201794
1.201794
0.7747158
0.81242068
0.85109758
0.89079697
0.93124023
0.9717684
1.0113487
1.0486906
1.0824832
1.1116878
1.1357656
1.1547403
1.1690935
1.1795704
1.1869897
1.1921115
1.1955711
1.1978636
1.199356
1.2003106
1.2009102
1.2012794
1.2015018
1.2016324
1.2017071
1.2017484
1.2017705
1.201782
1.2017877
1.2017904
1.2017916
1.2017922
1.2017924
1.2017925
1.2017925
1.2017925
1.2017925
1.2017925
1.2017925
1.2017925
0.77435951
0.81190923
0.85041415
0.88993079
0.93019292
0.97056079
1.0100251
1.0473167
1.0811358
1.1104393
1.1346693
1.1538231
1.1683574
1.1789997
1.1865597
1.1917947
1.1953423
1.197701
1.1992423
1.2002324
1.2008572
1.2012442
1.2014788
1.2016176
1.2016976
1.2017423
1.2017665
1.2017791
1.2017855
1.2017885
1.20179
1.2017906
1.2017909
1.201791
1.201791
1.201791
1.201791
1.201791
1.201791
1.201791
0.77401354
0.81141275
0.84975089
0.88909016
0.92917619
0.96938759
1.0087375
1.0459778
1.0798199
1.1092169
1.133593
1.1529202
1.1676309
1.178435
1.186133
1.1914797
1.195114
1.1975384
1.1991282
1.2001535
1.2008036
1.2012083
1.2014552
1.2016023
1.2016877
1.2017359
1.2017622
1.2017761
1.2017832
1.2017867
1.2017883
1.201789
1.2017893
1.2017895
1.2017895
1.2017895
1.2017895
1.2017895
1.2017895
1.2017895
0.77367739
0.81093049
0.84910673
0.88827377
0.9281885
0.96824708
1.0074844
1.0446725
1.0785342
1.1080197
1.1325361
1.1520311
1.1669136
1.1778762
1.1857098
1.1911664
1.1948865
1.1973758
1.1990137
1.2000741
1.2007493
1.2011718
1.201431
1.2015865
1.2016775
1.2017293
1.2017578
1.201773
1.2017809
1.2017847
1.2017866
1.2017874
1.2017878
1.2017879
1.201788
1.201788
1.201788
1.201788
1.201788
1.201788
0.77335055
0.81046171
0.84848072
0.8874804
0.9272284
0.96713768
1.0062641
1.0433993
1.0772775
1.1068466
1.1314978
1.1511556
1.1662055
1.1773231
1.1852899
1.190855
1.1946597
1.1972133
1.1988989
1.1999942
1.2006945
1.2011347
1.2014063
1.2015703
1.2016669
1.2017223
1.2017532
1.2017698
1.2017784
1.2017828
1.2017848
1.2017858
1.2017862
1.2017864
1.2017865
1.2017865
1.2017865
1.2017865
1.2017865
1.2017865
0.77303257
0.81000576
0.84787197
0.88670892
0.92629454
0.96605791
1.005075
1.0421567
1.0760486
1.1056968
1.1304777
1.1502931
1.1655062
1.1767757
1.1848735
1.1905453
1.1944338
1.197051
1.198784
1.1999138
1.2006391
1.2010971
1.2013811
1.2015536
1.201656
1.2017152
1.2017484
1.2017665
1.201776
1.2017808
1.2017831
1.2017842
1.2017847
1.2017849
1.201785
1.201785
1.201785
1.201785
1.201785
1.201785
0.77272302
0.80956202
0.84727964
0.88595828
0.92538567
0.96500639
1.0039158
1.0409435
1.0748465
1.1045695
1.129475
1.1494433
1.1648157
1.1762339
1.1844604
1.1902376
1.1942087
1.1968889
1.1986688
1.1998331
1.2005833
1.201059
1.2013555
1.2015366
1.2016448
1.2017078
1.2017434
1.201763
1.2017734
1.2017787
1.2017813
1.2017826
1.2017831
1.2017834
1.2017835
1.2017835
1.2017835
1.2017835
1.2017835
1.2017835
0.77242151
0.80912992
0.84670296
0.88522748
0.92450063
0.96398184
1.0027852
1.0397585
1.07367
1.1034638
1.1284894
1.148606
1.1641336
1.1756977
1.1840507
1.1899317
1.1939845
1.1967271
1.1985536
1.1997521
1.200527
1.2010204
1.2013294
1.2015191
1.2016332
1.2017001
1.2017383
1.2017594
1.2017707
1.2017766
1.2017795
1.2017809
1.2017815
1.2017818
1.201782
1.201782
1.201782
1.201782
1.201782
1.201782
0.77212768
0.80870892
0.84614119
0.88451561
0.92363833
0.96298303
1.0016819
1.0386005
1.0725182
1.1023791
1.1275202
1.1477807
1.1634599
1.1751668
1.1836443
1.1896277
1.1937613
1.1965657
1.1984384
1.1996708
1.2004704
1.2009815
1.2013029
1.2015013
1.2016213
1.2016922
1.201733
1.2017557
1.201768
1.2017744
1.2017777
1.2017792
1.20178
1.2017803
1.2017804
1.2017805
1.2017805
1.2017805
1.2017805
1.2017805
0.77184116
0.8082985
0.84559366
0.88382181
0.92279774
0.96200884
1.0006048
1.0374683
1.0713902
1.1013146
1.1265669
1.1469672
1.1627943
1.1746412
1.1832411
1.1893255
1.193539
1.1964046
1.1983231
1.1995893
1.2004134
1.2009421
1.201276
1.2014832
1.2016092
1.2016841
1.2017275
1.2017519
1.2017652
1.2017722
1.2017758
1.2017776
1.2017784
1.2017788
1.2017789
1.201779
1.201779
1.201779
1.201779
1.201779
0.77156165
0.80789822
0.84505974
0.88314529
0.92197791
0.96105821
0.99955272
1.0363611
1.0702852
1.1002697
1.1256291
1.1461651
1.1621367
1.1741209
1.1828413
1.1890253
1.1933178
1.196244
1.198208
1.1995077
1.2003561
1.2009024
1.2012487
1.2014647
1.2015967
1.2016757
1.2017218
1.2017479
1.2017623
1.20177
1.2017739
1.2017758
1.2017768
1.2017772
1.2017774
1.2017775
1.2017775
1.2017775
1.2017775
1.2017775
0.77128883
0.80750761
0.84453883
0.88248527
0.92117795
0.96013015
0.99852475
1.0352778
1.0692022
1.0992436
1.1247063
1.1453741
1.1614868
1.1736058
1.1824447
1.188727
1.1930975
1.1960838
1.1980929
1.1994259
1.2002986
1.2008623
1.2012212
1.2014459
1.201584
1.2016672
1.201716
1.2017439
1.2017593
1.2017677
1.201772
1.2017741
1.2017752
1.2017757
1.2017759
1.201776
1.201776
1.201776
1.201776
1.201776
0.77102243
0.80712628
0.84403038
0.88184107
0.920397
0.95922371
0.99751987
1.0342175
1.0681405
1.0982358
1.123798
1.144594
1.1608446
1.1730956
1.1820512
1.1884306
1.1928783
1.195924
1.1979779
1.199344
1.2002409
1.200822
1.2011933
1.2014268
1.2015711
1.2016584
1.20171
1.2017397
1.2017563
1.2017653
1.20177
1.2017724
1.2017735
1.2017741
1.2017743
1.2017745
1.2017745
1.2017745
1.2017745
1.2017745
0.77076217
0.80675382
0.84353385
0.88121201
0.91963428
0.95833801
0.99653717
1.0331794
1.0670994
1.0972457
1.1229039
1.1438245
1.1602097
1.1725905
1.1816609
1.1881361
1.1926602
1.1957648
1.1978631
1.199262
1.2001829
1.2007814
1.2011651
1.2014075
1.2015579
1.2016494
1.2017038
1.2017354
1.2017531
1.2017629
1.201768
1.2017706
1.2017719
1.2017725
1.2017728
1.2017729
1.201773
1.201773
1.201773
1.201773
0.77050781
0.80638988
0.84304877
0.88059747
0.91888905
0.95747223
0.9955758
1.0321626
1.0660781
1.0962727
1.1220236
1.1430652
1.1595822
1.1720902
1.1812738
1.1878435
1.1924431
1.1956062
1.1977484
1.19918
1.2001248
1.2007406
1.2011367
1.2013878
1.2015444
1.2016402
1.2016975
1.2017309
1.2017499
1.2017604
1.2017659
1.2017688
1.2017703
1.2017709
1.2017713
1.2017714
1.2017715
1.2017715
1.2017715
1.2017715
0.7702591
0.80603411
0.84257465
0.87999686
0.91816059
0.95662557
0.99463495
1.0311664
1.065076
1.0953163
1.1211566
1.142316
1.1589618
1.1715948
1.1808897
1.1875528
1.1922271
1.195448
1.197634
1.1990981
1.2000666
1.2006996
1.2011081
1.201368
1.2015307
1.2016308
1.201691
1.2017264
1.2017466
1.2017578
1.2017639
1.201767
1.2017686
1.2017694
1.2017697
1.2017699
1.20177
1.20177
1.20177
1.20177
0.77001582
0.80568619
0.84211107
0.87940962
0.91744825
0.9557973
0.99371383
1.03019
1.0640924
1.0943759
1.1203025
1.1415766
1.1583484
1.171104
1.1805086
1.1872639
1.1920122
1.1952905
1.1975198
1.1990161
1.2000083
1.2006584
1.2010792
1.2013479
1.2015169
1.2016212
1.2016844
1.2017217
1.2017432
1.2017552
1.2017617
1.2017652
1.2017669
1.2017678
1.2017682
1.2017684
1.2017685
1.2017685
1.2017685
1.2017685
0.76977777
0.8053458
0.84165761
0.87883524
0.9167514
0.95498671
0.99281172
1.0292327
1.0631267
1.0934512
1.1194611
1.1408468
1.1577418
1.1706178
1.1801306
1.1869769
1.1917984
1.1951335
1.1974059
1.1989342
1.1999498
1.2006171
1.2010502
1.2013277
1.2015028
1.2016115
1.2016776
1.2017169
1.2017397
1.2017526
1.2017596
1.2017633
1.2017652
1.2017662
1.2017666
1.2017668
1.2017669
1.201767
1.201767
1.201767
0.76954474
0.80501267
0.84121389
0.87827321
0.91606945
0.95419314
0.99192794
1.0282939
1.0621783
1.0925415
1.118632
1.1401263
1.1571418
1.1701362
1.1797554
1.1866917
1.1915856
1.1949771
1.1972922
1.1988523
1.1998914
1.2005756
1.2010209
1.2013072
1.2014885
1.2016016
1.2016707
1.201712
1.2017361
1.2017498
1.2017574
1.2017614
1.2017635
1.2017646
1.2017651
1.2017653
1.2017654
1.2017655
1.2017655
1.2017655
0.76931654
0.80468651
0.84077952
0.87772307
0.91540184
0.95341597
0.99106183
1.0273729
1.0612468
1.0916466
1.1178148
1.1394149
1.1565484
1.1696591
1.1793832
1.1864083
1.191374
1.1948213
1.1971789
1.1987706
1.1998328
1.200534
1.2009915
1.2012865
1.2014741
1.2015915
1.2016636
1.201707
1.2017325
1.2017471
1.2017552
1.2017595
1.2017618
1.2017629
1.2017635
1.2017638
1.2017639
1.201764
1.201764
1.201764
0.76909299
0.80436707
0.84035417
0.87718438
0.91474804
0.9526546
0.99021276
1.0264691
1.0603314
1.0907658
1.1170092
1.1387124
1.1559614
1.1691863
1.1790139
1.1861268
1.1911634
1.1946661
1.1970658
1.1986889
1.1997743
1.2004922
1.200962
1.2012657
1.2014595
1.2015813
1.2016565
1.2017019
1.2017288
1.2017442
1.2017529
1.2017576
1.20176
1.2017613
1.2017619
1.2017622
1.2017624
1.2017625
1.2017625
1.2017625
0.76887393
0.8040541
0.83993751
0.87665671
0.91410755
0.95190846
0.98938015
1.0255821
1.0594318
1.089899
1.116215
1.1380185
1.1553807
1.1687179
1.1786474
1.185847
1.1909539
1.1945115
1.196953
1.1986074
1.1997157
1.2004504
1.2009323
1.2012448
1.2014448
1.2015709
1.2016491
1.2016967
1.2017249
1.2017413
1.2017505
1.2017556
1.2017583
1.2017597
1.2017604
1.2017607
1.2017609
1.2017609
1.201761
1.201761
0.7686592
0.80374737
0.83952921
0.87613967
0.9134799
0.95117702
0.98856343
1.0247111
1.0585475
1.0890455
1.1154318
1.1373332
1.1548061
1.1682536
1.1782837
1.185569
1.1907455
1.1943576
1.1968406
1.198526
1.1996572
1.2004086
1.2009025
1.2012237
1.2014299
1.2015604
1.2016417
1.2016914
1.2017211
1.2017384
1.2017482
1.2017536
1.2017565
1.201758
1.2017588
1.2017592
1.2017593
1.2017594
1.2017595
1.2017595
0.76844864
0.80344665
0.83912899
0.87563288
0.91286462
0.95045977
0.98776207
1.0238557
1.057678
1.0882051
1.1146593
1.1366561
1.1542375
1.1677936
1.1779227
1.1852927
1.1905382
1.1942043
1.1967285
1.1984447
1.1995986
1.2003666
1.2008726
1.2012024
1.2014149
1.2015498
1.2016342
1.201686
1.2017171
1.2017353
1.2017458
1.2017516
1.2017547
1.2017564
1.2017572
1.2017576
1.2017578
1.2017579
1.2017579
1.2017579
0.7682421
0.80315174
0.83873655
0.87513599
0.91226129
0.94975623
0.98697556
1.0230155
1.0568228
1.0873775
1.1138973
1.1359871
1.1536748
1.1673376
1.1775645
1.1850182
1.1903319
1.1940516
1.1966168
1.1983636
1.1995401
1.2003247
1.2008426
1.2011811
1.2013997
1.201539
1.2016265
1.2016805
1.201713
1.2017323
1.2017433
1.2017495
1.2017529
1.2017547
1.2017556
1.2017561
1.2017563
1.2017564
1.2017564
1.2017564
0.76803946
0.80286245
0.83835164
0.87464865
0.9116695
0.94906593
0.98620341
1.0221899
1.0559815
1.0865621
1.1131456
1.135326
1.1531179
1.1668856
1.1772089
1.1847454
1.1901267
1.1938996
1.1965054
1.1982826
1.1994817
1.2002827
1.2008126
1.2011596
1.2013844
1.2015282
1.2016188
1.2016749
1.2017089
1.2017291
1.2017408
1.2017474
1.2017511
1.201753
1.201754
1.2017545
1.2017547
1.2017549
1.2017549
1.2017549
0.76784057
0.80257857
0.83797399
0.87417053
0.91108886
0.94838844
0.98544517
1.0213784
1.0551538
1.0857588
1.1124038
1.1346726
1.1525667
1.1664375
1.1768559
1.1844743
1.1899225
1.1937481
1.1963943
1.1982019
1.1994233
1.2002406
1.2007824
1.2011381
1.201369
1.2015172
1.2016109
1.2016692
1.2017047
1.2017259
1.2017383
1.2017453
1.2017492
1.2017513
1.2017524
1.2017529
1.2017532
1.2017533
1.2017534
1.2017534
0.76764532
0.80229992
0.83760337
0.87370133
0.91051901
0.94772333
0.98470038
1.0205807
1.0543392
1.0849672
1.1116717
1.1340268
1.152021
1.1659934
1.1765056
1.1842049
1.1897194
1.1935974
1.1962836
1.1981213
1.199365
1.2001986
1.2007523
1.2011165
1.2013536
1.2015061
1.2016029
1.2016634
1.2017004
1.2017227
1.2017357
1.2017432
1.2017473
1.2017496
1.2017507
1.2017514
1.2017517
1.2017518
1.2017519
1.2017519
0.76745359
0.80202635
0.83723954
0.87324076
0.90995958
0.94707021
0.98396863
1.0197964
1.0535374
1.084187
1.1109491
1.1333884
1.1514807
1.165553
1.1761578
1.1839371
1.1895174
1.1934472
1.1961733
1.1980409
1.1993067
1.2001566
1.200722
1.2010947
1.201338
1.2014949
1.2015949
1.2016575
1.2016961
1.2017194
1.2017331
1.201741
1.2017454
1.2017478
1.2017491
1.2017498
1.2017501
1.2017503
1.2017503
1.2017503
0.76726526
0.80175767
0.83688228
0.87278854
0.90941024
0.94642869
0.98324952
1.0190249
1.0527479
1.0834178
1.1102357
1.1327573
1.1509458
1.1651164
1.1758125
1.183671
1.1893163
1.1932977
1.1960633
1.1979607
1.1992486
1.2001146
1.2006917
1.201073
1.2013223
1.2014837
1.2015867
1.2016516
1.2016917
1.201716
1.2017304
1.2017388
1.2017435
1.2017461
1.2017475
1.2017482
1.2017486
1.2017487
1.2017488
1.2017488
0.76708022
0.80149375
0.83653138
0.87234439
0.90887068
0.94579842
0.98254266
1.0182661
1.0519705
1.0826595
1.1095314
1.1321332
1.1504161
1.1646834
1.1754696
1.1834064
1.1891163
1.1931488
1.1959537
1.1978807
1.1991905
1.2000726
1.2006614
1.2010511
1.2013066
1.2014723
1.2015785
1.2016456
1.2016872
1.2017126
1.2017277
1.2017365
1.2017415
1.2017443
1.2017458
1.2017466
1.201747
1.2017472
1.2017473
1.2017473
0.76689837
0.80123441
0.83618664
0.87190806
0.90834058
0.94517905
0.98184767
1.0175194
1.0512049
1.0819117
1.1088359