/*--------------------------------*- C++ -*----------------------------------*\
| =========                 |                                                 |
| \\      /  F ield         | OpenFOAM: The Open Source CFD Toolbox           |
|  \\    /   O peration     | Version:  3.0.1                                 |
|   \\  /    A nd           | Web:      www.OpenFOAM.org                      |
|    \\/     M anipulation  |                                                 |
\*---------------------------------------------------------------------------*/
FoamFile
{
    version     2.0;
    format      ascii;
    class       volScalarField;
    location    "2407";
    object      T;
}
// * * * * * * * * * * * * * * * * * * * * * * * * * * * * * * * * * * * * * //

dimensions      [0 0 0 1 0 0 0];

internalField   nonuniform List<scalar> 
4000
(
382.77347
346.61025
322.55721
308.3965
300.75297
296.90427
295.08138
294.26579
293.92029
293.78152
293.72864
293.70951
293.70294
293.70079
293.70013
293.69993
293.69987
293.69986
293.69986
293.69985
293.69985
293.69985
293.69985
293.69985
293.69986
293.69986
293.69986
293.69986
293.69986
293.69986
293.69986
293.69986
293.69986
293.69986
293.69986
293.69986
293.69986
293.69986
293.69986
293.69987
407.17682
372.62602
344.00152
323.06318
309.51237
301.63038
297.43449
295.36023
294.39887
293.9789
293.80551
293.73777
293.71271
293.70393
293.70101
293.70009
293.69982
293.69974
293.69972
293.69971
293.69971
293.69971
293.69971
293.69971
293.69971
293.69971
293.69971
293.69971
293.69971
293.69971
293.69971
293.69971
293.69971
293.69971
293.69971
293.69971
293.69971
293.69971
293.69972
293.69972
417.60091
385.44668
357.12076
334.25045
317.65136
306.82897
300.42355
296.93583
295.1693
294.33083
293.95628
293.79847
293.73568
293.71207
293.70367
293.70085
293.69994
293.69967
293.69959
293.69957
293.69956
293.69956
293.69956
293.69956
293.69956
293.69956
293.69956
293.69956
293.69956
293.69956
293.69956
293.69956
293.69956
293.69956
293.69956
293.69957
293.69957
293.69957
293.69957
293.69957
423.77941
393.26594
365.77111
342.50359
324.45141
311.73768
303.58815
298.78995
296.16942
294.83172
294.19042
293.90093
293.77771
293.72823
293.70946
293.70274
293.70046
293.69973
293.69951
293.69944
293.69942
293.69942
293.69942
293.69942
293.69942
293.69942
293.69942
293.69942
293.69942
293.69942
293.69942
293.69942
293.69942
293.69942
293.69942
293.69942
293.69942
293.69942
293.69942
293.69943
428.0504
398.72451
372.00698
348.8059
330.05184
316.13426
306.67563
300.75737
297.3208
295.45582
294.50544
294.04949
293.84329
293.75533
293.71994
293.70649
293.70166
293.70002
293.6995
293.69933
293.69929
293.69927
293.69927
293.69927
293.69927
293.69927
293.69927
293.69927
293.69927
293.69927
293.69927
293.69927
293.69927
293.69927
293.69927
293.69927
293.69927
293.69928
293.69928
293.69928
431.25573
402.84219
376.79016
353.80164
334.70871
320.00809
309.57333
302.72853
298.55323
296.16971
294.89052
294.24348
293.93472
293.79568
293.73659
293.7129
293.70392
293.70071
293.69962
293.69927
293.69917
293.69914
293.69913
293.69912
293.69912
293.69912
293.69912
293.69912
293.69912
293.69912
293.69912
293.69912
293.69912
293.69913
293.69913
293.69913
293.69913
293.69913
293.69913
293.69913
433.79164
406.11019
380.6247
357.89051
338.64434
323.41938
312.24806
304.64264
299.81525
296.94202
295.33129
294.4787
294.05224
293.85067
293.76069
293.72276
293.70766
293.70198
293.69997
293.69929
293.69907
293.699
293.69898
293.69898
293.69898
293.69898
293.69898
293.69898
293.69898
293.69898
293.69898
293.69898
293.69898
293.69898
293.69898
293.69898
293.69898
293.69898
293.69898
293.69899
435.8722
408.7972
383.79888
361.32364
342.02481
326.43964
314.70272
306.47048
301.07292
297.74729
295.81328
294.74902
294.19441
293.9208
293.79311
293.73679
293.71331
293.70407
293.70063
293.69942
293.69901
293.69889
293.69885
293.69884
293.69883
293.69883
293.69883
293.69883
293.69883
293.69883
293.69883
293.69883
293.69883
293.69883
293.69883
293.69883
293.69884
293.69884
293.69884
293.69884
437.62527
411.0649
386.49075
364.2654
344.97089
329.13345
316.95439
308.20111
302.3056
298.56655
296.32369
295.04775
294.35875
294.00575
293.83433
293.75554
293.72128
293.7072
293.70173
293.69972
293.69902
293.69879
293.69872
293.69869
293.69869
293.69869
293.69869
293.69869
293.69869
293.69869
293.69869
293.69869
293.69869
293.69869
293.69869
293.69869
293.69869
293.69869
293.69869
293.69869
439.13282
413.01742
388.81699
366.82772
347.57084
331.55456
319.02414
309.83337
303.50167
299.38648
296.852
295.36847
294.54225
294.10462
293.88445
293.77939
293.73192
293.71161
293.7034
293.70025
293.69912
293.69872
293.6986
293.69856
293.69854
293.69854
293.69854
293.69854
293.69854
293.69854
293.69854
293.69854
293.69854
293.69854
293.69854
293.69854
293.69854
293.69854
293.69855
293.69855
440.45025
414.72541
390.85776
369.08965
349.89013
333.74645
320.93281
311.37097
304.65529
300.19806
297.39005
295.70547
294.74175
294.21615
293.94323
293.80854
293.74549
293.71751
293.70576
293.70109
293.69933
293.6987
293.69849
293.69842
293.6984
293.6984
293.69839
293.69839
293.69839
293.69839
293.69839
293.69839
293.69839
293.69839
293.6984
293.6984
293.6984
293.6984
293.6984
293.6984
441.61662
416.2388
392.67023
371.10871
351.97821
335.74412
322.69938
312.8198
305.7642
300.99549
297.93167
296.05393
294.95424
294.33885
294.0102
293.84302
293.76218
293.72509
293.70895
293.7023
293.69971
293.69875
293.69841
293.6983
293.69826
293.69825
293.69825
293.69825
293.69825
293.69825
293.69825
293.69825
293.69825
293.69825
293.69825
293.69825
293.69825
293.69825
293.69825
293.69825
442.66041
417.59409
394.29646
372.92791
353.87314
337.57578
324.34051
314.18651
306.82825
301.77517
298.47233
296.4099
295.177
294.47121
294.08473
293.8827
293.7821
293.73448
293.71308
293.70396
293.70028
293.69887
293.69836
293.69818
293.69813
293.69811
293.6981
293.6981
293.6981
293.6981
293.6981
293.6981
293.6981
293.6981
293.6981
293.6981
293.6981
293.69811
293.69811
293.69811
443.60298
418.81867
395.76822
374.58017
355.60467
339.26434
325.87062
315.47777
307.84855
302.53501
299.00877
296.77024
295.40761
294.61174
294.16611
293.92736
293.80526
293.74579
293.71825
293.70615
293.7011
293.6991
293.69835
293.69809
293.698
293.69797
293.69796
293.69796
293.69795
293.69795
293.69795
293.69795
293.69796
293.69796
293.69796
293.69796
293.69796
293.69796
293.69796
293.69796
444.46069
419.93359
397.11005
376.09113
357.19645
340.82856
327.3021
316.69993
308.82685
303.27401
299.5387
297.13248
295.64405
294.75905
294.25356
293.97669
293.83162
293.75908
293.72455
293.70892
293.7022
293.69946
293.6984
293.69801
293.69787
293.69783
293.69781
293.69781
293.69781
293.69781
293.69781
293.69781
293.69781
293.69781
293.69781
293.69781
293.69781
293.69781
293.69781
293.69781
445.24638
420.95535
398.34123
377.48114
358.66754
342.28391
328.64562
317.85884
309.76526
303.99181
300.06055
297.49469
295.8846
294.9119
294.34634
294.03034
293.86108
293.77438
293.73203
293.71234
293.70363
293.69997
293.69851
293.69796
293.69776
293.69769
293.69767
293.69766
293.69766
293.69766
293.69766
293.69766
293.69766
293.69766
293.69766
293.69767
293.69767
293.69767
293.69767
293.69767
445.97024
421.89709
399.47718
378.76661
360.03348
343.64331
329.91031
318.95985
310.66599
304.68853
300.57328
297.85542
296.12785
295.06919
294.44372
294.08792
293.89348
293.79168
293.74075
293.71645
293.70542
293.70066
293.69871
293.69795
293.69766
293.69756
293.69753
293.69752
293.69752
293.69752
293.69752
293.69752
293.69752
293.69752
293.69752
293.69752
293.69752
293.69752
293.69752
293.69752
446.64053
422.76945
400.5304
379.96091
361.30709
344.91757
331.10408
320.00776
311.53126
305.36459
301.07625
298.21354
296.37263
295.22993
294.54502
294.14903
293.92867
293.81093
293.75072
293.72131
293.70762
293.70155
293.699
293.69797
293.69758
293.69744
293.69739
293.69738
293.69737
293.69737
293.69737
293.69737
293.69737
293.69737
293.69737
293.69737
293.69737
293.69737
293.69738
293.69738
447.26399
423.58114
401.51118
381.07508
362.49907
346.11588
332.23378
321.00692
312.36324
306.02057
301.56909
298.56824
296.61801
295.39331
294.64963
294.2133
293.96643
293.83208
293.76195
293.72693
293.71025
293.70267
293.6994
293.69805
293.69752
293.69733
293.69726
293.69723
293.69723
293.69722
293.69722
293.69722
293.69722
293.69723
293.69723
293.69723
293.69723
293.69723
293.69723
293.69723
447.84621
424.33936
402.42803
382.11834
363.61842
347.24606
333.30536
321.9612
313.16399
306.65718
302.05163
298.9189
296.86324
295.55862
294.757
294.28036
294.00657
293.85503
293.77443
293.73335
293.71334
293.70404
293.69992
293.69819
293.69749
293.69722
293.69713
293.69709
293.69708
293.69708
293.69708
293.69708
293.69708
293.69708
293.69708
293.69708
293.69708
293.69708
293.69708
293.69708
448.39186
425.05016
403.28812
383.09845
364.67278
348.31482
334.32402
322.87409
313.93543
307.27517
302.52387
299.26509
297.10771
295.72524
294.86662
294.34984
294.04889
293.87969
293.78812
293.74056
293.71691
293.70567
293.70058
293.69839
293.69749
293.69713
293.697
293.69695
293.69694
293.69693
293.69693
293.69693
293.69693
293.69693
293.69693
293.69693
293.69694
293.69694
293.69694
293.69694
448.9049
425.71865
404.09748
384.02201
365.66868
349.32798
335.29433
323.74871
314.67937
307.87532
302.98589
299.6065
297.35093
295.89269
294.97806
294.42144
294.09317
293.90596
293.80301
293.74857
293.72098
293.7076
293.7014
293.69867
293.69752
293.69706
293.69688
293.69682
293.6968
293.69679
293.69679
293.69679
293.69679
293.69679
293.69679
293.69679
293.69679
293.69679
293.69679
293.69679
449.38869
426.34916
404.86129
384.89466
366.61175
350.29057
336.22031
324.58787
315.39748
308.45841
303.43787
299.94294
297.59253
296.06053
295.09093
294.49485
294.13921
293.93372
293.81902
293.75737
293.72555
293.70982
293.70239
293.69903
293.69759
293.697
293.69677
293.69668
293.69665
293.69664
293.69664
293.69664
293.69664
293.69664
293.69664
293.69664
293.69664
293.69664
293.69664
293.69664
449.8461
426.94543
405.58399
385.72127
367.50686
351.20701
337.10553
325.39412
316.09132
309.0252
303.88001
300.27427
297.83221
296.22841
295.20491
294.56979
294.18684
293.96286
293.83613
293.76696
293.73064
293.71236
293.70355
293.69949
293.69771
293.69697
293.69667
293.69655
293.69651
293.6965
293.6965
293.69649
293.69649
293.69649
293.6965
293.6965
293.6965
293.6965
293.6965
293.6965
450.27963
427.51068
406.26941
386.50606
368.35826
352.08118
337.95316
326.16972
316.76232
309.57644
304.31257
300.60045
298.06975
296.39604
295.31971
294.64604
294.23586
293.99327
293.85426
293.77729
293.73625
293.71522
293.7049
293.70005
293.69788
293.69696
293.69658
293.69643
293.69638
293.69636
293.69635
293.69635
293.69635
293.69635
293.69635
293.69635
293.69635
293.69635
293.69635
293.69635
450.69144
428.04772
406.92089
387.25271
369.1697
352.91651
338.76601
326.91676
317.4118
310.11284
304.73582
300.92144
298.30497
296.56318
295.43506
294.72337
294.28611
294.02485
293.87336
293.78836
293.74236
293.71841
293.70645
293.70073
293.69811
293.69697
293.6965
293.69631
293.69624
293.69621
293.6962
293.6962
293.6962
293.6962
293.6962
293.6962
293.6962
293.69621
293.69621
293.69621
451.08343
428.559
407.54137
387.96445
369.94444
353.71603
339.54661
327.63711
318.04099
310.63508
305.15003
301.23729
298.53774
296.72961
295.55076
294.80158
294.33745
294.05747
293.89336
293.80014
293.74898
293.72193
293.7082
293.70152
293.69841
293.69702
293.69644
293.6962
293.69611
293.69607
293.69606
293.69606
293.69606
293.69606
293.69606
293.69606
293.69606
293.69606
293.69606
293.69606
451.45726
429.04667
408.13342
388.64415
370.6854
354.48245
340.29724
328.33246
318.65103
311.1438
305.5555
301.54802
298.76796
296.89519
295.66662
294.8805
294.38972
294.09105
293.9142
293.81258
293.75609
293.72579
293.71017
293.70243
293.69877
293.69711
293.69639
293.69609
293.69598
293.69593
293.69592
293.69591
293.69591
293.69591
293.69591
293.69591
293.69591
293.69591
293.69591
293.69591
451.81439
429.51263
408.69931
389.29432
371.39517
355.21818
341.01994
329.00439
319.24295
311.63961
305.95251
301.85372
298.99558
297.05977
295.78249
294.95998
294.4428
294.12548
293.93582
293.82566
293.76368
293.72998
293.71235
293.70348
293.6992
293.69723
293.69636
293.696
293.69585
293.69579
293.69577
293.69577
293.69576
293.69576
293.69576
293.69577
293.69577
293.69577
293.69577
293.69577
452.15613
429.95858
409.24107
389.91722
372.07605
355.92541
341.71656
329.6543
319.81773
312.1231
306.34134
302.15447
299.22055
297.22325
295.89822
295.03989
294.49657
294.16067
293.95815
293.83935
293.77173
293.73451
293.71474
293.70466
293.69971
293.6974
293.69636
293.69591
293.69573
293.69566
293.69563
293.69562
293.69562
293.69562
293.69562
293.69562
293.69562
293.69562
293.69562
293.69562
452.48364
430.38602
409.7605
390.51485
372.73013
356.60609
342.38879
330.28348
320.37626
312.59482
306.72228
302.45035
299.44285
297.38555
296.01371
295.1201
294.55093
294.19655
293.98114
293.8536
293.78023
293.73935
293.71736
293.70597
293.70031
293.69761
293.69637
293.69584
293.69561
293.69552
293.69549
293.69548
293.69547
293.69547
293.69547
293.69547
293.69547
293.69547
293.69547
293.69548
452.79796
430.7963
410.25922
391.08901
373.35925
357.26198
343.03814
330.89315
320.91938
313.05527
307.09559
302.74148
299.66247
297.54658
296.12885
295.20051
294.60577
294.23303
294.00473
293.86837
293.78915
293.74451
293.7202
293.70743
293.70098
293.69786
293.69642
293.69577
293.6955
293.69539
293.69535
293.69533
293.69533
293.69533
293.69533
293.69533
293.69533
293.69533
293.69533
293.69533
453.10002
431.19063
410.73867
391.64133
373.9651
357.89468
343.66602
331.48437
321.44786
313.50495
307.46154
303.02795
299.87942
297.7063
296.24357
295.28103
294.66102
294.27003
294.02887
293.88364
293.79848
293.74998
293.72325
293.70903
293.70175
293.69817
293.69649
293.69573
293.6954
293.69526
293.69521
293.69519
293.69518
293.69518
293.69518
293.69518
293.69518
293.69518
293.69518
293.69518
453.39067
431.5701
411.20018
392.17328
374.5492
358.50566
344.27368
332.05817
321.96242
313.94431
307.82038
303.30988
300.09372
297.86468
296.35778
295.36158
294.71659
294.3075
294.0535
293.89937
293.80819
293.75575
293.72652
293.71078
293.70261
293.69853
293.69659
293.69569
293.6953
293.69514
293.69507
293.69505
293.69504
293.69503
293.69503
293.69503
293.69504
293.69504
293.69504
293.69504
453.67065
431.9357
411.64492
392.68617
375.11293
359.09624
344.86231
332.61547
322.46373
314.37379
308.17236
303.58738
300.30538
298.02167
296.47144
295.44208
294.77242
294.34538
294.07858
293.91553
293.81827
293.76181
293.73
293.71267
293.70356
293.69895
293.69672
293.69568
293.69521
293.69502
293.69494
293.6949
293.69489
293.69489
293.69489
293.69489
293.69489
293.69489
293.69489
293.69489
453.94067
432.28832
412.07396
393.18121
375.65756
359.66762
345.43296
333.15713
322.95241
314.79379
308.51771
303.86055
300.51444
298.17726
296.5845
295.52249
294.82844
294.38359
294.10405
293.93207
293.82869
293.76814
293.73369
293.71471
293.7046
293.69943
293.69688
293.69568
293.69513
293.6949
293.6948
293.69476
293.69475
293.69474
293.69474
293.69474
293.69474
293.69474
293.69474
293.69474
454.20134
432.62877
412.48829
393.65951
376.18422
360.22093
345.98662
333.68395
323.42905
315.2047
308.85666
304.12952
300.72094
298.33144
296.69691
295.60274
294.8846
294.4221
294.12989
293.94897
293.83943
293.77474
293.73758
293.71689
293.70575
293.69996
293.69708
293.6957
293.69507
293.69479
293.69467
293.69462
293.69461
293.6946
293.6946
293.6946
293.6946
293.6946
293.6946
293.6946
454.45324
432.95779
412.8888
394.12205
376.69397
360.75719
346.5242
334.19666
323.89418
315.60688
309.18942
304.39438
300.9249
298.48419
296.80864
295.68278
294.94085
294.46086
294.15604
293.9662
293.85048
293.78159
293.74167
293.71921
293.70698
293.70056
293.69732
293.69574
293.69501
293.69468
293.69454
293.69448
293.69446
293.69445
293.69445
293.69445
293.69445
293.69445
293.69445
293.69445
454.69688
433.27607
413.2763
394.56977
377.18778
361.27732
347.04655
334.69596
324.34833
316.00068
309.51621
304.65525
301.12637
298.63552
296.91966
295.76259
294.99714
294.49983
294.18247
293.98373
293.8618
293.78868
293.74594
293.72167
293.70832
293.70122
293.69759
293.69581
293.69496
293.69458
293.69441
293.69435
293.69432
293.69431
293.69431
293.69431
293.69431
293.69431
293.69431
293.69431
454.93275
433.58422
413.65153
395.00351
377.66652
361.7822
347.55443
335.18247
324.79196
316.38642
309.83722
304.91223
301.32539
298.78542
297.02996
295.84212
295.05344
294.53896
294.20916
294.00154
293.87338
293.79599
293.7504
293.72427
293.70975
293.70195
293.69791
293.69589
293.69493
293.69449
293.69429
293.69421
293.69418
293.69416
293.69416
293.69416
293.69416
293.69416
293.69416
293.69416
455.16129
433.88282
414.0152
395.42403
378.13103
362.27262
348.04857
335.65679
325.22553
316.7644
310.15263
305.16543
301.52201
298.93391
297.13952
295.92135
295.1097
294.57822
294.23605
294.01959
293.88521
293.80352
293.75503
293.727
293.71128
293.70274
293.69826
293.696
293.69491
293.6944
293.69417
293.69408
293.69404
293.69402
293.69402
293.69401
293.69401
293.69401
293.69401
293.69401
455.3829
434.17238
414.36792
395.83206
378.58204
362.74933
348.52963
336.11949
325.64945
317.13492
310.46264
305.41494
301.71627
299.08099
297.24831
296.00024
295.16591
294.61759
294.26314
294.03786
293.89726
293.81126
293.75983
293.72987
293.7129
293.70359
293.69866
293.69614
293.6949
293.69432
293.69406
293.69394
293.6939
293.69388
293.69387
293.69387
293.69387
293.69387
293.69387
293.69387
455.59794
434.4534
414.71029
396.22825
379.02027
363.21301
348.99825
336.57107
326.06413
317.49826
310.76741
305.66087
301.90821
299.22668
297.35634
296.07879
295.22203
294.65702
294.29038
294.05633
293.90951
293.81918
293.7648
293.73286
293.71461
293.70451
293.6991
293.6963
293.69491
293.69425
293.69395
293.69381
293.69376
293.69373
293.69373
293.69372
293.69372
293.69372
293.69372
293.69372
455.80677
434.72632
415.04284
396.61321
379.44635
363.6643
349.455
337.01202
326.46992
317.85466
311.06712
305.90331
302.09789
299.37098
297.4636
296.15696
295.27803
294.69651
294.31777
294.07498
293.92195
293.82727
293.76991
293.73597
293.71642
293.70549
293.69958
293.69649
293.69494
293.69419
293.69384
293.69368
293.69362
293.69359
293.69358
293.69358
293.69358
293.69358
293.69358
293.69358
456.00971
434.99155
415.36608
396.98751
379.86089
364.10379
349.90042
337.4428
326.86719
318.20439
311.36191
306.14234
302.28534
299.51391
297.57008
296.23475
295.33391
294.73601
294.34526
294.09379
293.93457
293.83554
293.77517
293.7392
293.71832
293.70654
293.7001
293.69671
293.69498
293.69414
293.69374
293.69356
293.69348
293.69345
293.69344
293.69343
293.69343
293.69343
293.69343
293.69343
456.20705
435.24948
415.68046
397.35168
380.26443
364.53203
350.33502
337.86384
327.25626
318.54766
311.65195
306.37807
302.47061
299.65549
297.67578
296.31214
295.38963
294.77552
294.37285
294.11274
293.94734
293.84395
293.78057
293.74255
293.7203
293.70765
293.70067
293.69695
293.69504
293.69409
293.69364
293.69344
293.69335
293.69331
293.69329
293.69329
293.69328
293.69328
293.69328
293.69328
456.39906
435.50048
415.98642
397.7062
380.65752
364.94955
350.75928
338.27554
327.63745
318.88472
311.93737
306.61057
302.65375
299.79574
297.7807
296.38912
295.44518
294.81502
294.40051
294.13181
293.96025
293.85251
293.78609
293.746
293.72238
293.70883
293.70129
293.69723
293.69512
293.69406
293.69355
293.69332
293.69321
293.69317
293.69315
293.69314
293.69314
293.69314
293.69314
293.69314
456.58599
435.74486
416.28436
398.05153
381.04062
365.35682
351.17364
338.67828
328.01105
319.21576
312.21832
306.83993
302.8348
299.93467
297.88484
296.46569
295.50056
294.85448
294.42823
294.15099
293.9733
293.8612
293.79174
293.74956
293.72453
293.71006
293.70194
293.69753
293.69521
293.69404
293.69347
293.6932
293.69308
293.69303
293.69301
293.693
293.69299
293.69299
293.69299
293.69299
456.7681
435.98294
416.57466
398.38809
381.41419
365.75429
351.57852
339.07241
328.37735
319.54099
312.49493
307.06623
303.01381
300.0723
297.98821
296.54183
295.55574
294.89389
294.456
294.17027
293.98646
293.87001
293.7975
293.75321
293.72677
293.71136
293.70265
293.69786
293.69533
293.69403
293.69339
293.69309
293.69295
293.69289
293.69286
293.69285
293.69285
293.69285
293.69285
293.69285
456.9456
436.215
416.85766
398.71629
381.77866
366.14239
351.9743
339.45826
328.73659
319.8606
312.76733
307.28954
303.19081
300.20865
298.0908
296.61755
295.61072
294.93324
294.48379
294.18962
293.99972
293.87894
293.80337
293.75697
293.72908
293.71272
293.70339
293.69823
293.69546
293.69403
293.69332
293.69298
293.69282
293.69275
293.69272
293.69271
293.6927
293.6927
293.6927
293.6927
457.1187
436.44133
417.13369
399.03648
382.13442
366.52151
352.36137
339.83616
329.08904
320.17478
313.03564
307.50996
303.36585
300.34375
298.19263
296.69283
295.66548
294.97252
294.51159
294.20904
294.01308
293.88797
293.80934
293.76081
293.73147
293.71414
293.70418
293.69862
293.69561
293.69405
293.69326
293.69287
293.69269
293.69261
293.69258
293.69256
293.69256
293.69256
293.69256
293.69256
457.28758
436.66217
417.40306
399.34903
382.48184
366.89203
352.74006
340.20641
329.43494
320.48369
313.29998
307.72753
303.53897
300.4776
298.2937
296.76768
295.72002
295.01172
294.5394
294.22851
294.02652
293.89709
293.8154
293.76473
293.73392
293.71561
293.70501
293.69904
293.69579
293.69407
293.6932
293.69277
293.69257
293.69248
293.69244
293.69242
293.69241
293.69241
293.69241
293.69241
457.45245
436.87776
417.66605
399.65425
382.82128
367.2543
353.1107
340.56928
329.7745
320.7875
313.56045
307.94235
303.7102
300.61023
298.39402
296.84209
295.77433
295.05082
294.5672
294.24803
294.04004
293.90629
293.82155
293.76874
293.73645
293.71714
293.70588
293.69949
293.69598
293.69411
293.69315
293.69268
293.69245
293.69234
293.6923
293.69228
293.69227
293.69227
293.69226
293.69226
457.61346
437.08832
417.92294
399.95245
383.15306
367.60865
353.47361
340.92506
330.10795
321.08638
313.81718
308.15446
303.8796
300.74166
298.49359
296.91606
295.82841
295.08982
294.59498
294.26758
294.05362
293.91558
293.82778
293.77282
293.73905
293.71873
293.7068
293.69998
293.6962
293.69417
293.69311
293.69258
293.69233
293.69221
293.69216
293.69213
293.69212
293.69212
293.69212
293.69212
457.77077
437.29407
418.17397
400.24393
383.47749
367.95539
353.82907
341.27398
330.43549
321.38047
314.07025
308.36395
304.0472
300.87191
298.59242
296.98959
295.88226
295.12872
294.62274
294.28716
294.06725
293.92494
293.83408
293.77697
293.7417
293.72036
293.70775
293.70049
293.69643
293.69423
293.69308
293.6925
293.69221
293.69208
293.69202
293.69199
293.69198
293.69198
293.69197
293.69197
457.92454
437.49519
418.41938
400.52894
383.79487
368.29481
354.17737
341.61629
330.75731
321.66991
314.31978
308.57088
304.21302
301.001
298.69052
297.06269
295.93586
295.1675
294.65047
294.30676
294.08093
293.93436
293.84046
293.78119
293.74442
293.72205
293.70875
293.70103
293.69669
293.69431
293.69306
293.69242
293.6921
293.69195
293.69188
293.69185
293.69184
293.69183
293.69183
293.69183
458.07492
437.69188
418.65941
400.80776
384.10546
368.62719
354.51876
341.95222
331.07359
321.95485
314.56585
308.77529
304.37712
301.12895
298.78789
297.13535
295.98921
295.20616
294.67815
294.32636
294.09466
293.94383
293.84689
293.78548
293.7472
293.72379
293.70978
293.7016
293.69696
293.69441
293.69304
293.69234
293.69199
293.69182
293.69174
293.69171
293.69169
293.69169
293.69168
293.69168
458.22203
437.8843
418.89426
401.08062
384.40953
368.9528
354.85349
342.28199
331.38452
322.23541
314.80856
308.97726
304.53953
301.25577
298.88455
297.20758
296.04232
295.24469
294.70579
294.34597
294.10841
293.95336
293.85339
293.78982
293.75002
293.72557
293.71085
293.70221
293.69726
293.69452
293.69304
293.69227
293.69189
293.6917
293.69161
293.69157
293.69155
293.69154
293.69154
293.69154
458.36599
438.07263
419.12413
401.34774
384.70733
369.27188
355.1818
342.60581
331.69025
322.51173
315.048
309.17685
304.70027
301.38149
298.98051
297.27938
296.09518
295.2831
294.73338
294.36558
294.1222
293.96293
293.85994
293.79421
293.7529
293.72739
293.71196
293.70283
293.69758
293.69464
293.69305
293.69221
293.69178
293.69157
293.69147
293.69143
293.69141
293.6914
293.69139
293.69139
458.50694
438.25702
419.34921
401.60935
384.99909
369.58468
355.50391
342.92387
331.99096
322.78392
315.28425
309.3741
304.85939
301.50613
299.07577
297.35074
296.14779
295.32137
294.76091
294.38518
294.13601
293.97254
293.86653
293.79866
293.75583
293.72926
293.7131
293.70349
293.69792
293.69478
293.69306
293.69215
293.69168
293.69145
293.69134
293.69129
293.69126
293.69125
293.69125
293.69125
458.64499
438.43762
419.56968
401.86565
385.28502
369.8914
355.82004
343.23635
332.2868
323.0521
315.51739
309.56907
305.01692
301.6297
299.17034
297.42168
296.20015
295.3595
294.78838
294.40476
294.14983
293.98219
293.87318
293.80315
293.7588
293.73117
293.71428
293.70417
293.69828
293.69493
293.69309
293.6921
293.69159
293.69133
293.69121
293.69115
293.69112
293.69111
293.69111
293.6911
458.78023
438.61456
419.7857
402.11683
385.56534
370.19227
356.13037
343.54344
332.5779
323.31638
315.7475
309.76181
305.17288
301.75221
299.26423
297.4922
296.25225
295.3975
294.81578
294.42433
294.16366
293.99187
293.87986
293.80769
293.76182
293.73312
293.71549
293.70488
293.69866
293.6951
293.69312
293.69205
293.6915
293.69122
293.69108
293.69101
293.69098
293.69097
293.69096
293.69096
458.91278
438.78798
419.99744
402.36308
385.84024
370.48748
356.43512
343.84531
332.86442
323.57688
315.97466
309.95237
305.32732
301.8737
299.35746
297.5623
296.30411
295.43535
294.84311
294.44387
294.17751
294.00157
293.88657
293.81227
293.76487
293.7351
293.71673
293.70562
293.69906
293.69528
293.69317
293.69202
293.69141
293.6911
293.69095
293.69087
293.69084
293.69082
293.69082
293.69082
459.04273
438.95801
420.20506
402.60456
386.10991
370.77724
356.73445
344.14212
333.14648
323.83368
316.19893
310.14081
305.48025
301.99417
299.45002
297.63198
296.35571
295.47306
294.87037
294.46339
294.19135
294.0113
293.89332
293.81688
293.76797
293.73712
293.718
293.70638
293.69948
293.69548
293.69322
293.69199
293.69133
293.69099
293.69082
293.69074
293.6907
293.69068
293.69068
293.69067
459.17017
439.12476
420.40869
402.84145
386.37454
371.06171
357.02855
344.43403
333.42422
324.08689
316.4204
310.32716
305.63172
302.11365
299.54193
297.70125
296.40706
295.51063
294.89756
294.48288
294.2052
294.02104
293.9001
293.82153
293.7711
293.73918
293.71931
293.70717
293.69992
293.69569
293.69329
293.69196
293.69125
293.69088
293.6907
293.6906
293.69056
293.69054
293.69053
293.69053
459.29518
439.28835
420.60847
403.07389
386.63428
371.34108
357.31758
344.72118
333.69775
324.3366
316.63913
310.51148
305.78174
302.23215
299.6332
297.77012
296.45817
295.54805
294.92466
294.50233
294.21904
294.03079
293.9069
293.82621
293.77426
293.74126
293.72064
293.70798
293.70037
293.69591
293.69336
293.69194
293.69118
293.69078
293.69057
293.69047
293.69042
293.6904
293.69039
293.69039
459.41786
439.44889
420.80453
403.30205
386.88931
371.6155
357.6017
345.00372
333.9672
324.58291
316.85518
310.6938
305.93034
302.34968
299.72383
297.83858
296.50902
295.58533
294.95169
294.52175
294.23287
294.04056
293.91373
293.83092
293.77745
293.74338
293.722
293.70881
293.70085
293.69615
293.69345
293.69193
293.69111
293.69067
293.69045
293.69034
293.69028
293.69026
293.69025
293.69025
459.53827
439.60647
420.997
403.52606
387.13978
371.88515
357.88106
345.28177
334.23267
324.8259
317.06862
310.87417
306.07756
302.46627
299.81385
297.90664
296.55963
295.62246
294.97864
294.54113
294.2467
294.05034
293.92058
293.83565
293.78067
293.74552
293.72338
293.70967
293.70135
293.69641
293.69355
293.69193
293.69105
293.69058
293.69033
293.69021
293.69015
293.69012
293.69011
293.6901
459.6565
439.76119
421.18599
403.74606
387.38582
372.15016
358.15581
345.55548
334.49428
325.06566
317.2795
311.05263
306.22342
302.58192
299.90324
297.9743
296.60999
295.65944
295.00551
294.56048
294.26051
294.06012
293.92744
293.84041
293.78392
293.74769
293.72479
293.71055
293.70186
293.69667
293.69365
293.69194
293.69099
293.69048
293.69021
293.69008
293.69001
293.68998
293.68997
293.68996
459.77261
439.91316
421.37162
403.96218
387.6276
372.41068
358.42607
345.82497
334.75213
325.30227
317.48789
311.22923
306.36794
302.69666
299.99203
298.04158
296.66011
295.69628
295.03229
294.57977
294.2743
294.06991
293.93432
293.84519
293.78719
293.74989
293.72622
293.71145
293.70239
293.69696
293.69377
293.69195
293.69094
293.69039
293.6901
293.68995
293.68987
293.68984
293.68983
293.68982
459.88667
440.06245
421.554
404.17453
387.86523
372.66686
358.692
346.09035
335.00633
325.5358
317.69384
311.40399
306.51115
302.8105
300.08022
298.10847
296.70998
295.73296
295.05898
294.59903
294.28808
294.07969
293.94121
293.84999
293.79049
293.75211
293.72768
293.71237
293.70294
293.69725
293.6939
293.69197
293.69089
293.6903
293.68999
293.68982
293.68974
293.6897
293.68969
293.68968
459.99875
440.20915
421.73322
404.38325
388.09884
372.91881
358.95371
346.35174
335.25696
325.76634
317.89741
311.57696
306.65308
302.92345
300.16782
298.17498
296.75962
295.76951
295.08559
294.61824
294.30184
294.08948
293.94811
293.8548
293.7938
293.75435
293.72916
293.71331
293.7035
293.69756
293.69404
293.692
293.69085
293.69021
293.68987
293.6897
293.68961
293.68956
293.68955
293.68954
460.10891
440.35334
421.90939
404.58843
388.32856
373.16667
359.21132
346.60925
335.50412
325.99395
318.09866
311.74817
306.79374
303.03553
300.25484
298.24111
296.80901
295.8059
295.11212
294.6374
294.31558
294.09926
293.95501
293.85963
293.79714
293.75662
293.73066
293.71426
293.70408
293.69788
293.69419
293.69203
293.69081
293.69013
293.68977
293.68957
293.68948
293.68943
293.68941
293.6894
460.21721
440.4951
422.0826
404.79019
388.55451
373.41055
359.46495
346.86298
335.74789
326.2187
318.29762
311.91766
306.93316
303.14675
300.34128
298.30686
296.85817
295.84215
295.13856
294.65651
294.3293
294.10903
293.96193
293.86448
293.80049
293.7589