/*--------------------------------*- C++ -*----------------------------------*\
| =========                 |                                                 |
| \\      /  F ield         | OpenFOAM: The Open Source CFD Toolbox           |
|  \\    /   O peration     | Version:  3.0.1                                 |
|   \\  /    A nd           | Web:      www.OpenFOAM.org                      |
|    \\/     M anipulation  |                                                 |
\*---------------------------------------------------------------------------*/
FoamFile
{
    version     2.0;
    format      ascii;
    class       volVectorField;
    location    "2407";
    object      U;
}
// * * * * * * * * * * * * * * * * * * * * * * * * * * * * * * * * * * * * * //

dimensions      [0 1 -1 0 0 0 0];

internalField   nonuniform List<vector> 
4000
(
(0.00056451343 -1.4185587e-18 0.086297866)
(0.0014292416 -2.9561178e-18 0.19471835)
(0.0025288794 -3.9200827e-18 0.26182943)
(0.0029119614 -5.1584026e-18 0.30068978)
(0.0029327415 -6.1890002e-18 0.32155323)
(0.0027514984 -7.0464962e-18 0.33143751)
(0.0025109687 -7.7843517e-18 0.33475056)
(0.0022714019 -8.5885231e-18 0.33407323)
(0.0020571444 -7.9837145e-18 0.33082481)
(0.0018713579 -7.2750291e-18 0.32574658)
(0.0017108452 -6.5426666e-18 0.31921706)
(0.0015706309 -5.9278206e-18 0.31143891)
(0.0014463692 -5.2741549e-18 0.3025411)
(0.0013345669 -4.7013439e-18 0.29263064)
(0.0012327301 -4.2060325e-18 0.28181656)
(0.0011388614 -3.8012804e-18 0.27021949)
(0.0010524614 -3.4278594e-18 0.25797395)
(0.00097213549 -4.8051585e-18 0.24522688)
(0.00089611504 -6.4944258e-18 0.23213269)
(0.00082404842 -8.4688595e-18 0.21884994)
(0.00075529061 -1.0851013e-17 0.20553639)
(0.00068965296 -1.3957013e-17 0.19234384)
(0.00062692714 -1.5228535e-17 0.17941253)
(0.00056708098 -1.2416752e-17 0.16686621)
(0.00051010846 -1.1956833e-17 0.15480612)
(0.00045613062 -9.936414e-18 0.14330679)
(0.00040528358 -8.0499165e-18 0.13241193)
(0.00035773691 -7.9349595e-18 0.12213112)
(0.00031366549 -8.1705487e-18 0.11243728)
(0.00027320353 -8.7654867e-18 0.10326505)
(0.00023649699 -8.6070355e-18 0.094510622)
(0.00020354927 -6.3779021e-18 0.086033566)
(0.00017442729 -4.3820528e-18 0.077661316)
(0.00014879222 -2.5465878e-18 0.069197635)
(0.00012658856 -8.2541808e-19 0.060435006)
(0.00010664361 8.3345708e-19 0.051172294)
(8.8851303e-05 1.2278871e-18 0.041233605)
(6.9666142e-05 6.1765628e-19 0.030489759)
(4.9338984e-05 6.3430864e-19 0.018868998)
(1.4837189e-05 2.0396793e-19 0.0063705566)
(-4.5142829e-06 -1.8620356e-18 0.093449799)
(-0.00026368999 -3.5370859e-18 0.21040191)
(-0.00045157271 -5.2514957e-18 0.28024494)
(-0.00067615199 -7.3300163e-18 0.31686966)
(-0.00086875895 -7.0166237e-18 0.33314356)
(-0.0010009477 -7.224777e-18 0.33845624)
(-0.0010434838 -7.6565556e-18 0.33834015)
(-0.0010028267 -8.1420143e-18 0.3355041)
(-0.00090154179 -7.8612695e-18 0.33106683)
(-0.00076643546 -7.2635317e-18 0.3254144)
(-0.00061891348 -6.7361352e-18 0.31865615)
(-0.0004733402 -6.6569154e-18 0.31082677)
(-0.00033788429 -5.4342281e-18 0.30196192)
(-0.00021657403 -4.7261694e-18 0.29212047)
(-0.0001108271 -4.1273604e-18 0.28138697)
(-2.0762549e-05 -3.3405237e-18 0.26986594)
(5.4785326e-05 -3.0027544e-18 0.25768317)
(0.00011648024 -4.8366875e-18 0.24500764)
(0.00016478856 -6.8314938e-18 0.23198082)
(0.00020089473 -8.5965427e-18 0.2187579)
(0.00022590853 -1.1032235e-17 0.20549568)
(0.00024100801 -1.4492314e-17 0.1923457)
(0.00024814823 -1.5300329e-17 0.17944837)
(0.00024852484 -1.2444925e-17 0.16692798)
(0.00024251834 -1.2235028e-17 0.15488612)
(0.00023155084 -9.9750427e-18 0.14339797)
(0.00021685053 -8.0677766e-18 0.1325081)
(0.00019966564 -7.9635666e-18 0.12222705)
(0.00018113495 -8.1962206e-18 0.11252872)
(0.00016226107 -8.7464356e-18 0.10334877)
(0.00014395236 -8.3305644e-18 0.094584376)
(0.00012688864 -6.141182e-18 0.086096109)
(0.00011165979 -4.367796e-18 0.077712497)
(9.8366687e-05 -2.5521267e-18 0.069238425)
(8.7139595e-05 -8.3250631e-19 0.060467749)
(7.695373e-05 8.175206e-19 0.051200752)
(6.7279166e-05 1.1123517e-18 0.041263925)
(5.4339284e-05 6.9006034e-19 0.030531041)
(3.6898591e-05 6.3875755e-19 0.018935786)
(6.4144603e-06 1.7087761e-19 0.00645368)
(-2.3808905e-05 -1.2593357e-18 0.10156959)
(-0.00041188202 -3.2129531e-18 0.22925407)
(-0.00089988865 -5.0083912e-18 0.30406447)
(-0.0013993724 -6.3731728e-18 0.33992333)
(-0.0018137208 -6.9036396e-18 0.35152209)
(-0.0020981566 -7.2558142e-18 0.35083352)
(-0.0022271175 -7.6724597e-18 0.34535556)
(-0.0022101616 -7.9310808e-18 0.33863162)
(-0.0020806268 -7.746648e-18 0.33177586)
(-0.0018803836 -7.0625535e-18 0.32481186)
(-0.0016464049 -5.9014192e-18 0.31745024)
(-0.0014055069 -6.1533251e-18 0.30942034)
(-0.0011742578 -5.4247076e-18 0.30056246)
(-0.00096148251 -4.7224273e-18 0.29082421)
(-0.0007709201 -4.1377596e-18 0.28023184)
(-0.00060351364 -3.5413296e-18 0.26886314)
(-0.00045906198 -3.4804188e-18 0.25683364)
(-0.00033615019 -4.970152e-18 0.24429523)
(-0.00023282767 -6.8964324e-18 0.23139351)
(-0.0001475406 -9.1373163e-18 0.21828241)
(-7.8531249e-05 -1.0763204e-17 0.20511802)
(-2.418924e-05 -1.3854728e-17 0.19205099)
(1.7803376e-05 -1.4327464e-17 0.17921514)
(4.9030661e-05 -1.2641686e-17 0.16675476)
(7.0364875e-05 -1.1959819e-17 0.1547641)
(8.3516063e-05 -9.9886513e-18 0.14331685)
(8.9936789e-05 -8.2795241e-18 0.13245834)
(9.1273334e-05 -8.014506e-18 0.12220027)
(8.9024354e-05 -8.2037535e-18 0.11251782)
(8.4254623e-05 -8.604594e-18 0.10334788)
(7.8036813e-05 -8.0899899e-18 0.094588807)
(7.1398555e-05 -5.9426201e-18 0.086102395)
(6.5179376e-05 -4.3339299e-18 0.077718428)
(5.9741139e-05 -2.5534636e-18 0.069243073)
(5.5341509e-05 -8.5325306e-19 0.060471589)
(5.1154916e-05 6.4602163e-19 0.051205857)
(4.6432749e-05 8.9197847e-19 0.041274537)
(3.7857166e-05 7.175292e-19 0.030553422)
(2.3458946e-05 6.4958941e-19 0.018973606)
(2.1490682e-06 1.9553102e-19 0.0064800766)
(-2.2388528e-05 -7.6264492e-19 0.10891311)
(-0.00039436721 -2.6086275e-18 0.2471877)
(-0.0009360619 -4.0760136e-18 0.32840243)
(-0.0015468327 -4.9358858e-18 0.36572329)
(-0.0021107694 -6.6417355e-18 0.37437495)
(-0.0025503163 -8.0302644e-18 0.36817297)
(-0.0028144651 -7.7400611e-18 0.35672752)
(-0.0028940443 -7.8424946e-18 0.34499777)
(-0.0028153635 -7.6376272e-18 0.33460047)
(-0.0026238401 -6.9904054e-18 0.32544757)
(-0.0023665288 -6.0865804e-18 0.31689569)
(-0.0020818026 -5.266024e-18 0.30831398)
(-0.0017961 -5.3259948e-18 0.29927007)
(-0.0015252188 -4.735604e-18 0.28953617)
(-0.0012772154 -4.1712004e-18 0.27903783)
(-0.0010552931 -3.7898606e-18 0.26780077)
(-0.00086024109 -4.2281584e-18 0.25591505)
(-0.0006910083 -5.1705816e-18 0.24351398)
(-0.00054567316 -6.7013504e-18 0.23074036)
(-0.00042248368 -9.0077003e-18 0.21774587)
(-0.00031943987 -1.0808762e-17 0.20468514)
(-0.00023449375 -1.2907011e-17 0.19170817)
(-0.00016593176 -1.3566765e-17 0.17895275)
(-0.00011175896 -1.2943058e-17 0.16655677)
(-6.9790039e-05 -1.1564898e-17 0.15461933)
(-3.8266548e-05 -9.9928374e-18 0.14321503)
(-1.5499509e-05 -8.6415428e-18 0.13238988)
(2.9781266e-07 -8.0930747e-18 0.12215545)
(1.0788118e-05 -8.1842027e-18 0.11249002)
(1.7224435e-05 -8.3105925e-18 0.10333268)
(2.0842942e-05 -7.8440687e-18 0.094581044)
(2.2814767e-05 -5.9571285e-18 0.086098)
(2.4113084e-05 -4.3031403e-18 0.077714713)
(2.5225199e-05 -2.5531077e-18 0.069238819)
(2.6617547e-05 -8.9321739e-19 0.060467195)
(2.7787402e-05 4.0022955e-19 0.051203584)
(2.7735093e-05 8.3633424e-19 0.04127884)
(2.3703148e-05 7.1584334e-19 0.030570059)
(1.3903379e-05 5.5589936e-19 0.019003041)
(5.1651116e-07 2.1370652e-19 0.0065011852)
(-2.0112197e-05 -1.0358237e-18 0.11516258)
(-0.0003559937 -2.6340375e-18 0.26304103)
(-0.00087927914 -4.0594964e-18 0.35096193)
(-0.0015081808 -5.2574602e-18 0.39114756)
(-0.0021366442 -6.3756299e-18 0.39859592)
(-0.0026758537 -7.4400287e-18 0.38811364)
(-0.0030541501 -7.8251839e-18 0.37105412)
(-0.0032389135 -7.938925e-18 0.35396027)
(-0.0032390879 -7.5510046e-18 0.33933486)
(-0.0030928944 -7.1368483e-18 0.32729553)
(-0.0028494232 -6.9550995e-18 0.31700447)
(-0.0025543062 -5.7602197e-18 0.30750376)
(-0.0022425253 -5.3523178e-18 0.29805739)
(-0.0019372088 -4.82075e-18 0.28821431)
(-0.0016516546 -4.2968526e-18 0.27775816)
(-0.0013922958 -4.0500362e-18 0.26663388)
(-0.0011615317 -4.4289094e-18 0.25488851)
(-0.00095913589 -5.3743346e-18 0.24263042)
(-0.00078354813 -6.846026e-18 0.22999344)
(-0.00063293362 -8.5705192e-18 0.21712499)
(-0.00050519955 -1.1161364e-17 0.2041775)
(-0.000398084 -1.2765917e-17 0.19130021)
(-0.00030972346 -1.3664031e-17 0.17863288)
(-0.00023793628 -1.2788617e-17 0.16630963)
(-0.00018029275 -1.1484397e-17 0.15443255)
(-0.00013490848 -9.9947792e-18 0.14307746)
(-9.9822083e-05 -8.7293137e-18 0.13229123)
(-7.3224139e-05 -8.1633952e-18 0.12208692)
(-5.3390685e-05 -8.1656804e-18 0.11244348)
(-3.8655641e-05 -8.1904159e-18 0.103301)
(-2.7534163e-05 -7.6208026e-18 0.094558886)
(-1.8825169e-05 -6.1347895e-18 0.086081198)
(-1.1478979e-05 -4.2940893e-18 0.07770044)
(-4.9245384e-06 -2.5551393e-18 0.069225604)
(1.300389e-06 -9.3358236e-19 0.060454072)
(6.837779e-06 3.191034e-19 0.051192898)
(1.0673403e-05 8.8602546e-19 0.041275164)
(1.0800676e-05 7.0587847e-19 0.030577805)
(5.9924255e-06 4.3913716e-19 0.019020092)
(-4.5881271e-07 1.6381023e-19 0.006511099)
(-1.8825835e-05 -1.6231336e-18 0.12069251)
(-0.0003256883 -3.34502e-18 0.27728502)
(-0.00082001693 -5.0175533e-18 0.37173545)
(-0.001435902 -6.6861614e-18 0.41544623)
(-0.0020833812 -6.4206626e-18 0.42291046)
(-0.0026768731 -6.5035893e-18 0.40934564)
(-0.0031361929 -7.4810808e-18 0.38737575)
(-0.0034112474 -7.7297813e-18 0.3650188)
(-0.0034925167 -7.6140118e-18 0.34584104)
(-0.0034055523 -7.1865651e-18 0.33042003)
(-0.0031950624 -6.8427843e-18 0.31791354)
(-0.0029090376 -6.4351678e-18 0.30712678)
(-0.0025883651 -5.5800449e-18 0.2970347)
(-0.0022627279 -4.9332742e-18 0.28694004)
(-0.0019509227 -4.3609412e-18 0.27645205)
(-0.0016632493 -4.212019e-18 0.26540701)
(-0.0014043742 -4.3540204e-18 0.25378979)
(-0.0011753478 -5.5845351e-18 0.24167411)
(-0.00097524355 -7.2951587e-18 0.2291781)
(-0.00080235005 -8.8638872e-18 0.21644189)
(-0.00065456378 -1.1154072e-17 0.20361447)
(-0.00052953923 -1.3011211e-17 0.19084386)
(-0.00042519591 -1.3634377e-17 0.17827051)
(-0.00033920446 -1.2366643e-17 0.1660261)
(-0.00026903447 -1.1626734e-17 0.15421464)
(-0.00021260744 -9.9945612e-18 0.14291328)
(-0.00016777756 -8.6082978e-18 0.13216985)
(-0.00013259606 -8.2033436e-18 0.12199886)
(-0.00010520129 -8.1647214e-18 0.11238008)
(-8.3764884e-05 -8.2302534e-18 0.10325478)
(-6.6669074e-05 -7.502644e-18 0.094524021)
(-5.2594043e-05 -6.0557534e-18 0.086053161)
(-4.0393733e-05 -4.2805776e-18 0.077676099)
(-2.9343386e-05 -2.5581747e-18 0.069203301)
(-1.9112306e-05 -9.6403515e-19 0.060434138)
(-1.0068724e-05 3.4134472e-19 0.051176845)
(-3.0162102e-06 8.0534301e-19 0.041265798)
(6.4327431e-07 6.8971811e-19 0.030577138)
(2.5926788e-07 4.609044e-19 0.019025432)
(-9.3635282e-07 1.3202705e-19 0.0065129961)
(-1.7701048e-05 -1.1212321e-18 0.12567396)
(-0.00030075853 -1.8160921e-18 0.2902427)
(-0.00076636019 -4.0314706e-18 0.3909256)
(-0.0013596028 -5.6311211e-18 0.43844733)
(-0.0020046539 -6.4365715e-18 0.44672818)
(-0.0026239981 -6.9827375e-18 0.43106052)
(-0.0031369509 -7.4893418e-18 0.40494263)
(-0.0034832288 -7.8257437e-18 0.37765799)
(-0.0036381466 -7.6766645e-18 0.35386509)
(-0.0036135305 -7.1947276e-18 0.33476084)
(-0.0034460222 -6.6986558e-18 0.31966581)
(-0.0031819002 -6.3436512e-18 0.30725937)
(-0.0028649516 -5.6797167e-18 0.29627407)
(-0.0025298729 -5.1014666e-18 0.28576813)
(-0.0022005678 -4.5839936e-18 0.27515722)
(-0.0018914414 -4.385209e-18 0.26414562)
(-0.0016099108 -4.6571173e-18 0.25263711)
(-0.001358712 -5.6465156e-18 0.24065898)
(-0.001137833 -6.7659244e-18 0.22830591)
(-0.00094591053 -8.5057269e-18 0.21570679)
(-0.00078093509 -1.1447097e-17 0.2030053)
(-0.0006405544 -1.281545e-17 0.19034741)
(-0.0005225173 -1.3247609e-17 0.17787333)
(-0.00042437288 -1.2343091e-17 0.16571305)
(-0.00034352001 -1.145554e-17 0.15397186)
(-0.00027769243 -9.9894561e-18 0.1427282)
(-0.00022460755 -8.7207921e-18 0.132031)
(-0.00018217346 -8.2652328e-18 0.1218961)
(-0.0001483894 -8.3063672e-18 0.11230428)
(-0.00012131232 -8.1026825e-18 0.10319798)
(-9.9209205e-05 -7.1389225e-18 0.094479936)
(-8.0635204e-05 -5.956804e-18 0.086016913)
(-6.4366137e-05 -4.2617605e-18 0.07764428)
(-4.9568867e-05 -2.5605773e-18 0.069174068)
(-3.5878145e-05 -9.872685e-19 0.060407547)
(-2.3585348e-05 3.3689918e-19 0.051154332)
(-1.3428745e-05 6.1642733e-19 0.041249941)
(-6.6136905e-06 6.4964123e-19 0.030569786)
(-3.4929048e-06 4.4554121e-19 0.01902321)
(-1.1466789e-06 1.3722846e-19 0.0065105755)
(-1.6748571e-05 5.1159232e-20 0.13022825)
(-0.00028014731 -1.4053355e-18 0.30216522)
(-0.00071965625 -2.4252212e-18 0.40876495)
(-0.0012881761 -2.5025802e-18 0.46019407)
(-0.0019210351 -5.2354793e-18 0.46981151)
(-0.0025494296 -6.5867431e-18 0.45279945)
(-0.0030961562 -7.3171892e-18 0.42323634)
(-0.0034962472 -7.7770223e-18 0.39145126)
(-0.0037140691 -7.6851599e-18 0.36314338)
(-0.0037490537 -7.135666e-18 0.34020878)
(-0.0036284284 -6.4653043e-18 0.32225648)
(-0.0033940546 -5.6595485e-18 0.30794671)
(-0.0030899463 -5.5585294e-18 0.29583204)
(-0.002753985 -5.244545e-18 0.28474717)
(-0.0024143327 -4.8713308e-18 0.2739088)
(-0.0020893689 -5.1091402e-18 0.26287296)
(-0.0017895236 -5.7341021e-18 0.25144554)
(-0.0015195473 -5.9209398e-18 0.23959492)
(-0.0012806169 -6.7186918e-18 0.22738379)
(-0.0010719399 -8.6318151e-18 0.21492489)
(-0.00089172872 -1.1020281e-17 0.20235417)
(-0.00073769266 -1.1644975e-17 0.18981427)
(-0.00060747299 -1.2223225e-17 0.17744432)
(-0.00049852504 -1.2375155e-17 0.16537297)
(-0.00040818363 -1.0821597e-17 0.15370633)
(-0.00033402104 -9.9504692e-18 0.14252405)
(-0.00027363861 -9.0112202e-18 0.13187621)
(-0.00022480982 -8.3383554e-18 0.12177996)
(-0.00018540703 -8.235906e-18 0.11221719)
(-0.00015338482 -7.8394721e-18 0.1031316)
(-0.00012690481 -7.093562e-18 0.094427562)
(-0.00010440953 -6.096756e-18 0.085973343)
(-8.4597768e-05 -4.2633948e-18 0.077605846)
(-6.6553911e-05 -2.5663815e-18 0.06913876)
(-4.9860194e-05 -1.0308873e-18 0.060375231)
(-3.4729461e-05 9.8021433e-20 0.05112629)
(-2.1852996e-05 5.5062484e-19 0.041228417)
(-1.2245306e-05 6.005011e-19 0.030556101)
(-6.139878e-06 3.563455e-19 0.019014573)
(-1.2429449e-06 1.3927697e-19 0.0065043413)
(-1.5918357e-05 -1.3381355e-18 0.13443797)
(-0.00026278072 -3.6330107e-18 0.3132361)
(-0.00067906271 -4.2849558e-18 0.42545231)
(-0.001223429 -5.5370424e-18 0.48078938)
(-0.0018398962 -5.6957288e-18 0.49208297)
(-0.0024676064 -6.3764556e-18 0.47430593)
(-0.0030344201 -6.9210133e-18 0.44190711)
(-0.00347421 -6.8952114e-18 0.40606516)
(-0.003744069 -7.3469833e-18 0.37343367)
(-0.0038332189 -7.0333341e-18 0.34663377)
(-0.0037596043 -6.5843557e-18 0.32564766)
(-0.0035592428 -6.3660754e-18 0.30920683)
(-0.0032743595 -5.6698654e-18 0.29574931)
(-0.0029442613 -5.3240723e-18 0.28391907)
(-0.0026002808 -5.0495148e-18 0.27274041)
(-0.0022643491 -4.8499267e-18 0.26161269)
(-0.0019499431 -5.3258132e-18 0.25023074)
(-0.0016640455 -6.2552032e-18 0.23849209)
(-0.0014092636 -7.9229814e-18 0.22641855)
(-0.0011855881 -9.3599237e-18 0.21410108)
(-0.00099159379 -1.0472498e-17 0.20166477)
(-0.00082512925 -1.1857868e-17 0.18924735)
(-0.00068379601 -1.2151788e-17 0.17698593)
(-0.00056498498 -1.2148995e-17 0.16500783)
(-0.00046597479 -1.114353e-17 0.15341969)
(-0.00038420364 -9.9606477e-18 0.14230219)
(-0.00031716772 -9.0348198e-18 0.13170662)
(-0.00026251712 -8.3744814e-18 0.12165142)
(-0.00021800966 -8.0367437e-18 0.11211966)
(-0.00018150617 -7.7622151e-18 0.10305637)
(-0.0001510713 -7.0061566e-18 0.094367557)
(-0.00012504682 -5.7822278e-18 0.085923055)
(-0.00010205744 -4.2275305e-18 0.077561373)
(-8.1116973e-05 -2.5720946e-18 0.069097915)
(-6.1753807e-05 -1.0847822e-18 0.060337702)
(-4.4109082e-05 -9.314387e-20 0.051093224)
(-2.8823626e-05 4.888535e-19 0.041201815)
(-1.6753169e-05 6.4554927e-19 0.030537008)
(-8.0672934e-06 3.5153501e-19 0.019000914)
(-1.2592602e-06 8.9721147e-20 0.0064959076)
(-1.5186326e-05 -1.6642268e-18 0.13836257)
(-0.00024791565 -2.461446e-18 0.32359263)
(-0.00064357544 -4.4901657e-18 0.44114959)
(-0.0011652565 -6.4410137e-18 0.50034589)
(-0.0017638074 -6.2923794e-18 0.51353852)
(-0.0023852323 -6.519712e-18 0.49544005)
(-0.0029628403 -7.1171749e-18 0.46072142)
(-0.0034314148 -7.80823e-18 0.42124655)
(-0.0037435679 -7.4571989e-18 0.38452741)
(-0.0038805371 -7.0320836e-18 0.3539032)
(-0.0038518628 -6.4890977e-18 0.32978154)
(-0.0036872331 -6.2775211e-18 0.31103596)
(-0.003425763 -5.8021617e-18 0.29605074)
(-0.0031067099 -5.388049e-18 0.28331715)
(-0.0027634438 -5.1701581e-18 0.27168223)
(-0.0024208334 -5.0538432e-18 0.26038767)
(-0.0020952412 -5.2216617e-18 0.24900838)
(-0.0017959749 -6.3110542e-18 0.23736071)
(-0.0015272576 -7.2976568e-18 0.22541679)
(-0.0012900541 -8.8756443e-18 0.21323976)
(-0.001083447 -1.0928441e-17 0.20094024)
(-0.00090551087 -1.2256403e-17 0.18864899)
(-0.00075387655 -1.268521e-17 0.17650003)
(-0.00062590475 -1.1779457e-17 0.16461914)
(-0.00051882781 -1.1310977e-17 0.15311313)
(-0.000429976 -9.9742489e-18 0.14206362)
(-0.00035674831 -8.856998e-18 0.13152305)
(-0.00029668435 -8.3936653e-18 0.12151116)
(-0.00024743687 -8.2009244e-18 0.11201228)
(-0.00020677769 -7.8502322e-18 0.1029728)
(-0.00017268317 -6.9383773e-18 0.094300389)
(-0.0001434053 -5.712516e-18 0.085866496)
(-0.00011749771 -4.1894189e-18 0.077511299)
(-9.3910465e-05 -2.5718307e-18 0.069051975)
(-7.2120054e-05 -1.1066712e-18 0.060295413)
(-5.2202127e-05 8.1669321e-20 0.051055589)
(-3.4741208e-05 4.4727616e-19 0.041170614)
(-2.0469257e-05 4.9960843e-19 0.030513122)
(-9.5413513e-06 4.0556772e-19 0.018983043)
(-1.247377e-06 1.2107365e-19 0.0064857824)
(-1.4533873e-05 -2.7223597e-20 0.14204647)
(-0.00023501957 -1.6561087e-18 0.33334004)
(-0.00061231663 -2.7787798e-18 0.45598766)
(-0.0011130193 -2.7832629e-18 0.51896939)
(-0.0016934408 -5.2333674e-18 0.53420713)
(-0.0023054078 -6.4190177e-18 0.51612939)
(-0.0028875153 -7.1136505e-18 0.47952404)
(-0.0033765978 -7.5739889e-18 0.43680592)
(-0.0037227812 -7.4635174e-18 0.39625138)
(-0.0039012585 -7.0306375e-18 0.36189248)
(-0.0039143149 -6.2979428e-18 0.33459086)
(-0.0037854155 -5.4140842e-18 0.3134149)
(-0.003549832 -5.6522469e-18 0.29674759)
(-0.0032456565 -5.4940754e-18 0.28296597)
(-0.0029072539 -5.3946716e-18 0.27076022)
(-0.0025617305 -5.8194035e-18 0.25921937)
(-0.0022280238 -6.3485173e-18 0.24779398)
(-0.001917741 -6.6065057e-18 0.23621111)
(-0.0016368367 -7.2360213e-18 0.22438519)
(-0.0013874093 -8.8849813e-18 0.2123453)
(-0.0011691891 -1.0663201e-17 0.2001835)
(-0.00098057049 -1.118323e-17 0.18802126)
(-0.00081928607 -1.1639355e-17 0.17598819)
(-0.00068270418 -1.1873659e-17 0.1642081)
(-0.00056802577 -1.0656927e-17 0.15278759)
(-0.00047249528 -9.921275e-18 0.14180908)
(-0.00039342418 -9.1044041e-18 0.1313261)
(-0.00032825091 -8.4275468e-18 0.12135968)
(-0.0002745333 -8.139323e-18 0.11189545)
(-0.0002299587 -7.6069391e-18 0.10288125)
(-0.00019242138 -6.8733713e-18 0.094226373)
(-0.00016009139 -5.8494554e-18 0.085803968)
(-0.000131455 -4.1749131e-18 0.077455931)
(-0.00010540508 -2.574763e-18 0.069001252)
(-8.1366729e-05 -1.1414902e-18 0.060248693)
(-5.9354872e-05 -1.2135814e-19 0.05101373)
(-3.9893636e-05 3.9550659e-19 0.041135193)
(-2.3622471e-05 4.659251e-19 0.030484951)
(-1.0721611e-05 3.3669711e-19 0.018961602)
(-1.2275707e-06 1.4404992e-19 0.006474364)
(-1.3947955e-05 -7.9375731e-19 0.14552386)
(-0.00022370399 -2.9982325e-18 0.34256086)
(-0.00058456991 -3.528829e-18 0.470073)
(-0.0010659845 -4.0491091e-18 0.5367543)
(-0.0016287058 -5.2879418e-18 0.55413151)
(-0.0022294863 -6.3308884e-18 0.53634088)
(-0.0028118236 -7.1398588e-18 0.49821212)
(-0.0033151785 -7.5225599e-18 0.45260203)
(-0.0036885701 -7.3182524e-18 0.40846442)
(-0.0039027228 -6.9471636e-18 0.37048974)
(-0.0039538307 -6.2857024e-18 0.34000606)
(-0.0038595637 -5.5413469e-18 0.31631451)
(-0.0036510495 -5.6002961e-18 0.29784018)
(-0.0033644475 -5.6051472e-18 0.28288186)
(-0.0030342402 -5.6264645e-18 0.26999562)
(-0.002689069 -5.9170629e-18 0.25812725)
(-0.002350044 -6.4048899e-18 0.24660256)
(-0.0020309396 -6.9704449e-18 0.23505373)
(-0.0017394882 -8.1994959e-18 0.22333056)
(-0.0014790413 -9.5027282e-18 0.21142204)
(-0.0012501026 -1.0189139e-17 0.19939741)
(-0.001051486 -1.1123074e-17 0.18736609)
(-0.00088109709 -1.1607667e-17 0.17545183)
(-0.00073635423 -1.1652427e-17 0.16377574)
(-0.00061444744 -1.0670988e-17 0.15244387)
(-0.00051255582 -9.8809724e-18 0.14153917)
(-0.00042791329 -9.0922898e-18 0.13111623)
(-0.00035786684 -8.4360056e-18 0.12119734)
(-0.00029988555 -7.9355262e-18 0.11176949)
(-0.00025157817 -7.551504e-18 0.10278196)
(-0.00021076233 -7.0196367e-18 0.094145747)
(-0.00017553153 -5.7765912e-18 0.085735699)
(-0.00014430868 -4.1572273e-18 0.077395494)
(-0.00011593355 -2.5797768e-18 0.068945979)
(-8.9780758e-05 -1.1846438e-18 0.060197788)
(-6.5809539e-05 -2.5088066e-19 0.050967901)
(-4.4480777e-05 4.4963739e-19 0.041095846)
(-2.6367186e-05 4.4532337e-19 0.0304529)
(-1.1708018e-05 3.1234947e-19 0.018937075)
(-1.2082347e-06 1.1261124e-19 0.0064618924)
(-1.3417789e-05 -2.2741892e-18 0.1488217)
(-0.00021367826 -3.7846788e-18 0.35132107)
(-0.00055976204 -5.2798875e-18 0.48349305)
(-0.0010234653 -7.5184811e-18 0.55378316)
(-0.0015692192 -6.4702684e-18 0.57335877)
(-0.0021579569 -6.5409292e-18 0.55606452)
(-0.002737626 -7.0935532e-18 0.51671803)
(-0.0032505554 -7.4154887e-18 0.46852969)
(-0.0036455945 -7.3898618e-18 0.42105262)
(-0.0038902364 -7.0885602e-18 0.3795972)
(-0.0039756454 -6.5966993e-18 0.34595962)
(-0.0039142652 -6.3268209e-18 0.31970007)
(-0.0037330672 -5.6769813e-18 0.29932063)
(-0.0034658054 -5.6469967e-18 0.28307393)
(-0.003146393 -5.581616e-18 0.26940493)
(-0.0028043578 -5.4561622e-18 0.2571284)
(-0.0024625378 -5.8427415e-18 0.24544829)
(-0.0021366667 -7.1764305e-18 0.2338989)
(-0.0018362281 -8.627674e-18 0.22225984)
(-0.0015659042 -9.6050774e-18 0.21047447)
(-0.0013270796 -1.0438927e-17 0.19858483)
(-0.0011190812 -1.2012067e-17 0.18668538)
(-0.00094006303 -1.2319174e-17 0.17489225)
(-0.00078753818 -1.1390196e-17 0.16332301)
(-0.00065871155 -1.1114079e-17 0.15208265)
(-0.00055071699 -9.889717e-18 0.14125442)
(-0.00046072081 -8.894982e-18 0.13089385)
(-0.00038598849 -8.4173309e-18 0.12102449)
(-0.00032390702 -7.9468314e-18 0.11163466)
(-0.00027201001 -7.6461507e-18 0.10267517)
(-0.00022804169 -6.9215533e-18 0.094058701)
(-0.00019002664 -5.4642037e-18 0.085661867)
(-0.00015632746 -4.1143781e-18 0.077330166)
(-0.00012573152 -2.5827805e-18 0.068886334)
(-9.7565844e-05 -1.2147754e-18 0.060142885)
(-7.1737374e-05 -1.6483918e-19 0.050918299)
(-4.8642598e-05 3.7295809e-19 0.041052803)
(-2.8808668e-05 4.274367e-19 0.030417289)
(-1.256406e-05 3.4316006e-19 0.018909825)
(-1.1956817e-06 8.1272183e-20 0.0064485209)
(-1.2935399e-05 -1.3918217e-18 0.15196168)
(-0.00020472046 -3.4541019e-18 0.35967436)
(-0.00053743493 -5.1652759e-18 0.49632041)
(-0.00098486049 -6.4565342e-18 0.57012773)
(-0.0015145064 -6.6207632e-18 0.59193593)
(-0.002090876 -6.7647277e-18 0.57530383)
(-0.0026659154 -7.1651685e-18 0.53499798)
(-0.0031848712 -7.4891698e-18 0.48451048)
(-0.0035970492 -7.4745182e-18 0.4339244)
(-0.0038676659 -7.2148127e-18 0.38913074)
(-0.0039837741 -6.6651634e-18 0.35238844)
(-0.003953196 -6.1692477e-18 0.32353441)
(-0.00379891 -5.7471601e-18 0.3011753)
(-0.0035520182 -5.7134386e-18 0.28354525)
(-0.0032453591 -5.7257366e-18 0.26900014)
(-0.0029087884 -5.721577e-18 0.2562373)
(-0.0025664249 -6.1868089e-18 0.24434424)
(-0.0022357007 -7.2938699e-18 0.23275667)
(-0.0019277665 -8.6255559e-18 0.22118002)
(-0.0016486664 -9.6675427e-18 0.20950715)
(-0.0014007498 -1.0564161e-17 0.19774866)
(-0.0011839442 -1.1775856e-17 0.18598098)
(-0.00099672439 -1.2101618e-17 0.1743107)
(-0.00083674884 -1.1424142e-17 0.16285078)
(-0.00070126564 -1.0982786e-17 0.15170457)
(-0.00058738297 -9.8894571e-18 0.1409553)
(-0.00049221161 -8.9431091e-18 0.13065933)
(-0.00041294485 -8.4142873e-18 0.12084138)
(-0.0003468935 -7.941538e-18 0.11149117)
(-0.0002915203 -7.5777111e-18 0.10256105)
(-0.00024450097 -6.8135071e-18 0.093965388)
(-0.00020379315 -5.4584125e-18 0.085582614)
(-0.00016770247 -4.0754987e-18 0.077260083)
(-0.00013496773 -2.5837503e-18 0.068822454)
(-0.00010486795 -1.2447904e-18 0.060084124)
(-7.7258372e-05 -2.4265439e-19 0.050865073)
(-5.2476716e-05 2.9271972e-19 0.041006246)
(-3.1022755e-05 4.0038939e-19 0.030378377)
(-1.332958e-05 3.1976157e-19 0.018880129)
(-1.1879797e-06 9.5538564e-20 0.0064343521)
(-1.249422e-05 -6.3508288e-19 0.15496158)
(-0.00019665852 -2.6766428e-18 0.36766506)
(-0.00051721908 -4.1493151e-18 0.50861599)
(-0.00094965552 -4.7670406e-18 0.58585033)
(-0.0014640883 -6.4557436e-18 0.60990784)
(-0.0020280892 -7.6256166e-18 0.59407013)
(-0.0025971832 -7.3978735e-18 0.55302442)
(-0.0031194761 -7.5782472e-18 0.50048583)
(-0.003545141 -7.5851217e-18 0.44700621)
(-0.0038378481 -7.2249089e-18 0.39901861)
(-0.0039813125 -6.5583687e-18 0.35923493)
(-0.0039793166 -5.3224686e-18 0.3277801)
(-0.0038511059 -5.5892368e-18 0.30338678)
(-0.0036250448 -5.7781922e-18 0.28429416)
(-0.0033325513 -5.825636e-18 0.26878919)
(-0.0030033516 -6.0412484e-18 0.25546579)
(-0.0026624251 -6.8463204e-18 0.24330216)
(-0.0023286161 -7.484624e-18 0.23163666)
(-0.0020146104 -8.3847076e-18 0.22009809)
(-0.001727804 -9.6571932e-18 0.20852476)
(-0.0014715669 -1.0543637e-17 0.1968919)
(-0.0012465033 -1.114224e-17 0.1852548)
(-0.0010514803 -1.1519317e-17 0.1737084)
(-0.00088435195 -1.1590965e-17 0.16235986)
(-0.00074244085 -1.0690511e-17 0.15131018)
(-0.00062285269 -9.8744709e-18 0.14064221)
(-0.00052265549 -9.1733595e-18 0.13041295)
(-0.00043897863 -8.4360258e-18 0.12064825)
(-0.00036906378 -7.914025e-18 0.11133922)
(-0.00031030611 -7.3457464e-18 0.10243974)
(-0.00026031587 -6.6900212e-18 0.093865933)
(-0.00021698818 -5.4422145e-18 0.085498053)
(-0.00017857324 -4.0395449e-18 0.077185354)
(-0.00014376287 -2.582516e-18 0.068754447)
(-0.0001117889 -1.2851448e-18 0.060021615)
(-8.2459764e-05 -3.7833913e-19 0.05080834)
(-5.6055636e-05 2.3022168e-19 0.040956326)
(-3.3060771e-05 3.5956026e-19 0.030336373)
(-1.4029778e-05 2.2316848e-19 0.0188482)
(-1.1855566e-06 1.0859556e-19 0.006419456)
(-1.208828e-05 -1.6798499e-18 0.15783613)
(-0.00018935566 -3.3508364e-18 0.37533022)
(-0.00049881559 -5.0215542e-18 0.52043137)
(-0.00091741535 -6.8347381e-18 0.60100522)
(-0.0014175155 -6.9223403e-18 0.62731629)
(-0.0019693445 -7.3514267e-18 0.61237905)
(-0.0025316278 -7.3495171e-18 0.57078099)
(-0.0030552121 -7.0038067e-18 0.51641201)
(-0.0034914019 -7.3922557e-18 0.46023892)
(-0.0038028767 -7.2920834e-18 0.40919992)
(-0.0039706573 -6.7942111e-18 0.3664474)
(-0.0039950193 -6.300972e-18 0.33240077)
(-0.0038917757 -5.7079567e-18 0.30593545)
(-0.0036865783 -5.8331511e-18 0.28531533)
(-0.0034092085 -5.8756172e-18 0.26877649)
(-0.0030889046 -5.8158268e-18 0.25482318)
(-0.002751132 -6.4864069e-18 0.24233236)
(-0.0024158554 -7.6510321e-18 0.2305479)
(-0.0020971309 -8.8636706e-18 0.21902089)
(-0.0018036584 -9.7269967e-18 0.20753205)
(-0.0015398585 -1.0599099e-17 0.19601763)
(-0.0013070733 -1.1515616e-17 0.18450877)
(-0.0011046272 -1.1506661e-17 0.17308659)
(-0.00093062156 -1.145758e-17 0.16185106)
(-0.00078248755 -1.0910307e-17 0.15090002)
(-0.00065735202 -9.8837854e-18 0.14031552)
(-0.00055225587 -9.1515747e-18 0.13015498)
(-0.00046427357 -8.4487594e-18 0.12044531)
(-0.00039058197 -7.8856864e-18 0.11117894)
(-0.00032851387 -7.2769275e-18 0.10231136)
(-0.00027561765 -6.350911e-18 0.093760437)
(-0.00022972816 -5.137133e-18 0.085408274)
(-0.00018904252 -3.9783614e-18 0.077106065)
(-0.00015220665 -2.5797604e-18 0.068682395)
(-0.00011840672 -1.3216863e-18 0.059955441)
(-8.7404069e-05 -4.4626421e-19 0.050748192)
(-5.9427894e-05 7.5672249e-20 0.040903162)
(-3.4960213e-05 3.9803508e-19 0.03029145)
(-1.4681847e-05 2.2455597e-19 0.018814206)
(-1.1879009e-06 5.1913036e-20 0.0064038853)
(-1.1713625e-05 -1.284572e-18 0.16059774)
(-0.00018270292 -3.2107402e-18 0.38270119)
(-0.00048197937 -4.8867245e-18 0.53181067)
(-0.00088777229 -6.2068665e-18 0.61563983)
(-0.0013743827 -6.6000921e-18 0.64419973)
(-0.0019143542 -6.3108121e-18 0.63024844)
(-0.0024692771 -7.1731193e-18 0.58825904)
(-0.0029925929 -8.0149835e-18 0.53225638)
(-0.0034368985 -7.5770706e-18 0.47357487)
(-0.0037643076 -7.3904785e-18 0.4196231)
(-0.0039536737 -6.8644376e-18 0.37397979)
(-0.0040022413 -6.3975179e-18 0.33736199)
(-0.0039227024 -5.8821831e-18 0.30880064)
(-0.0037380902 -5.8782703e-18 0.28660077)
(-0.0034764318 -6.1502573e-18 0.26896353)
(-0.0031662103 -6.598992e-18 0.25431638)
(-0.0028330561 -6.8111323e-18 0.24144365)
(-0.0024977744 -7.7421765e-18 0.2294987)
(-0.0021756067 -8.894977e-18 0.21795509)
(-0.0018764784 -9.8033952e-18 0.20653377)
(-0.0016058631 -1.0618322e-17 0.19512902)
(-0.0013658869 -1.1372317e-17 0.18374491)
(-0.0011563883 -1.169725e-17 0.17244652)
(-0.00097576625 -1.1090965e-17 0.16132515)
(-0.00082159808 -1.0749593e-17 0.1504746)
(-0.0006910571 -9.8456413e-18 0.13997558)
(-0.00058117044 -8.9404039e-18 0.12988567)
(-0.00048896952 -8.4269939e-18 0.12023271)
(-0.00041157453 -7.8652512e-18 0.11101048)
(-0.00034625734 -7.3905464e-18 0.10217602)
(-0.00029050671 -6.5875744e-18 0.093648982)
(-0.00024210141 -5.3581855e-18 0.085313349)
(-0.00019918769 -3.9568224e-18 0.077022282)
(-0.00016036581 -2.5767182e-18 0.068606362)
(-0.00012477783 -1.3394234e-18 0.059885667)
(-9.2138975e-05 -3.9287823e-19 0.050684703)
(-6.2633345e-05 1.6259484e-19 0.040846857)
(-3.6749669e-05 2.6145058e-19 0.030243749)
(-1.5294614e-05 2.7398657e-19 0.018778282)
(-1.1908034e-06 7.6197602e-20 0.0063876787)
(-1.1366223e-05 -6.5988698e-19 0.16325694)
(-0.00017661193 -2.5415788e-18 0.38980476)
(-0.00046650815 -3.8784924e-18 0.54279191)
(-0.00086041518 -4.4675324e-18 0.62979578)
(-0.0013343294 -6.2859713e-18 0.66059333)
(-0.0018628242 -7.582091e-18 0.64769707)
(-0.0024100607 -7.4658115e-18 0.60545526)
(-0.002931917 -7.9012312e-18 0.54799467)