/*--------------------------------*- C++ -*----------------------------------*\
| =========                 |                                                 |
| \\      /  F ield         | OpenFOAM: The Open Source CFD Toolbox           |
|  \\    /   O peration     | Version:  4.0                                   |
|   \\  /    A nd           | Web:      www.OpenFOAM.org                      |
|    \\/     M anipulation  |                                                 |
\*---------------------------------------------------------------------------*/
FoamFile
{
    version     2.0;
    format      ascii;
    class       surfaceScalarField;
    location    "1000";
    object      phi;
}
// * * * * * * * * * * * * * * * * * * * * * * * * * * * * * * * * * * * * * //

dimensions      [1 0 -1 0 0 0 0];

internalField   nonuniform List<scalar> 
51480
(
-1.8507015e-12
5.8015424e-13
-6.5198368e-12
-8.164524e-12
5.7097297e-13
-2.4350173e-11
-1.9791361e-11
-1.3577894e-12
-5.2311428e-11
-3.6602089e-11
-7.0477294e-12
-9.5167575e-11
-5.5730268e-11
-2.0571267e-11
-1.5940783e-10
-6.9510399e-11
-4.8348211e-11
-2.5402727e-10
-6.1163678e-11
-1.0125545e-10
-3.9134742e-10
9.8247177e-13
-1.9560647e-10
-5.8802674e-10
2.2536303e-10
-4.0807276e-10
-8.6606669e-10
8.0250185e-10
-8.1730232e-10
-1.2549383e-09
2.0541795e-09
-1.5433749e-09
-1.7930295e-09
4.2828968e-09
-2.5395425e-09
-2.5302344e-09
7.4124248e-09
-3.367116e-09
-3.5311872e-09
4.41088e-09
-5.2526482e-09
3.4320113e-09
-6.2964816e-09
4.4269505e-09
1.7420676e-10
1.0440496e-11
-1.0662468e-11
-6.8503099e-12
4.652101e-11
-4.0658078e-11
-2.5509932e-11
1.1897102e-10
-8.5994681e-11
-5.4701257e-11
2.4126071e-10
-1.5199303e-10
-9.9351715e-11
4.3366677e-10
-2.5070741e-10
-1.661179e-10
7.3017295e-10
-4.0361579e-10
-2.6417694e-10
1.1858106e-09
-6.4395723e-10
-4.0601715e-10
1.8778206e-09
-1.0109515e-09
-6.0846852e-10
2.7967695e-09
-1.4934979e-09
-8.9425104e-10
3.985271e-09
-2.2166038e-09
-1.2927356e-09
5.5827118e-09
-3.3819281e-09
-1.8423736e-09
8.2411057e-09
-5.4204947e-09
-2.5930903e-09
5.9901871e-09
-7.5980063e-09
2.7843064e-09
2.9056323e-09
-1.0618367e-08
3.7550636e-09
-1.3325594e-08
4.8120414e-09
-7.2484095e-10
1.7343806e-12
-1.3054847e-11
-7.4319011e-12
1.1957176e-11
-5.606792e-11
-2.7587406e-11
4.0530883e-11
-1.271568e-10
-5.9045118e-11
9.8417824e-11
-2.3341024e-10
-1.0707306e-10
1.9922124e-10
-3.906858e-10
-1.7877177e-10
3.6271593e-10
-6.2788006e-10
-2.8376686e-10
6.1188099e-10
-9.8256557e-10
-4.3509393e-10
1.0044703e-09
-1.5291323e-09
-6.5007655e-10
1.5927444e-09
-2.2494767e-09
-9.521937e-10
2.6304248e-09
-3.4626729e-09
-1.3703607e-09
1.0545322e-09
-5.6350934e-09
1.6569222e-09
-9.9963754e-10
-8.6512538e-09
2.3678723e-09
-4.19338e-09
-1.1505029e-08
3.2961652e-09
-8.4575304e-09
-1.5559972e-08
4.430826e-09
-1.928103e-08
5.6674769e-09
-1.4015079e-08
-1.1066082e-11
-1.7497825e-11
6.138213e-12
-4.9274222e-11
-7.9164962e-11
2.4066216e-11
-1.3105118e-11
-1.775948e-10
-6.7336783e-11
4.5844734e-11
-3.177947e-10
-1.2177489e-10
1.3759273e-10
-5.2501023e-10
-2.0269263e-10
2.866547e-10
-8.4273492e-10
-3.2065545e-10
5.4936802e-10
-1.3411635e-09
-4.8974351e-10
-3.2884602e-10
-2.1527533e-09
6.4074166e-10
-1.5586041e-09
-3.2159516e-09
9.610236e-10
-3.4494384e-09
-4.7192883e-09
1.4175126e-09
-6.6430246e-09
-6.8586397e-09
2.0525197e-09
-1.1477881e-08
-9.8725173e-09
2.9103045e-09
-1.7190326e-08
-1.385625e-08
4.0172455e-09
-2.4483605e-08
-1.8584622e-08
5.3171757e-09
-2.3522677e-08
6.6925452e-09
-3.2929462e-08
8.2499759e-13
-3.6807274e-11
8.1133788e-12
-2.7464236e-11
-1.2532621e-10
3.1834917e-11
-1.1994821e-10
-2.4821619e-10
6.9779028e-11
-3.1824577e-10
-4.1750146e-10
1.2818316e-10
-6.9603452e-10
-6.4558763e-10
2.163259e-10
-1.3895721e-09
-9.3990224e-10
3.4759333e-10
-2.6198755e-09
-1.3207975e-09
5.4052101e-10
-4.7141272e-09
-1.8594561e-09
8.2038263e-10
-7.8800771e-09
-2.6673042e-09
1.2206964e-09
-1.238739e-08
-3.9294434e-09
1.7778622e-09
-1.8666115e-08
-5.7441604e-09
2.5397362e-09
-2.7895773e-08
-7.6382708e-09
3.5446017e-09
-3.3378208e-08
-8.6252378e-09
-4.1446889e-09
-4.203452e-08
-9.9089343e-09
-5.3863149e-09
-9.8665815e-09
-6.9040973e-09
-5.5113529e-08
-3.7483952e-11
-1.2584412e-11
-2.5838051e-10
4.2164579e-11
-7.148081e-10
9.1990047e-11
-1.5105904e-09
1.6793583e-10
-2.2158034e-09
-2.8781813e-10
-3.2466374e-09
-4.5107936e-10
-6.0702605e-09
6.9144926e-10
-1.0143293e-08
1.0377364e-09
-1.5990369e-08
1.5236111e-09
-2.438183e-08
2.1908604e-09
-3.0527494e-08
-2.6344108e-09
-3.8634711e-08
-3.4655454e-09
-4.773128e-08
-4.4593307e-09
-5.7945927e-08
-5.6423592e-09
-7.0559224e-09
-6.7659166e-08
-5.9457388e-12
-4.7467441e-12
3.903785e-12
-5.5371279e-11
9.8753131e-12
1.4632005e-11
-1.6276635e-10
2.2553434e-11
3.1719653e-11
-3.5413368e-10
3.6119905e-11
5.8631223e-11
-6.6767134e-10
5.1135678e-11
1.0052884e-10
-1.1545086e-09
6.3730752e-11
1.6511668e-10
-1.691611e-09
-1.2440122e-10
2.6385093e-10
-2.5242368e-09
-1.79379e-10
4.1359639e-10
-3.876861e-09
-1.6928562e-10
6.3902784e-10
-5.5865163e-09
-5.4708858e-10
9.7540387e-10
-7.5497587e-09
-1.3419316e-09
1.4717254e-09
-9.4604023e-09
-2.8733951e-09
2.1934883e-09
-1.0750397e-08
-5.5504862e-09
3.222575e-09
-4.8244924e-09
-7.3122864e-09
4.6538525e-09
-8.8370258e-09
6.4698953e-09
1.7354275e-09
-1.1301399e-11
-5.3002341e-12
4.4233617e-12
-2.538012e-11
-1.9458422e-11
1.6539556e-11
-5.4280579e-11
-4.1282205e-11
3.5792763e-11
-1.1280734e-10
-7.4461294e-11
6.6088287e-11
-2.2036926e-10
-1.2638099e-10
1.13137e-10
-4.0023984e-10
-2.1521187e-10
1.8546328e-10
-8.6684369e-10
-3.7408989e-10
2.9572551e-10
-1.4870766e-09
-6.5275478e-10
4.625982e-10
-2.1663704e-09
-1.1312746e-09
7.1298671e-10
-3.1262129e-09
-2.0155035e-09
1.0853496e-09
-4.21953e-09
-3.7970174e-09
1.633838e-09
-5.8452901e-09
-6.3711629e-09
2.430868e-09
-2.4777974e-09
-9.8410432e-09
3.5724918e-09
-4.407803e-10
-1.0966126e-08
5.1559549e-09
-1.1284602e-08
7.1639113e-09
-6.390173e-10
-4.4393673e-12
-1.448457e-11
5.4576108e-12
-2.6770683e-11
-4.6791769e-11
2.0373128e-11
-7.8322438e-11
-9.5551059e-11
4.3995248e-11
-1.7673582e-10
-1.6856237e-10
8.0927473e-11
-3.4182344e-10
-2.8538349e-10
1.3808552e-10
-5.9350597e-10
-4.8418351e-10
2.2548282e-10
-9.4174217e-10
-8.3647434e-10
3.5787077e-10
-1.3623883e-09
-1.465361e-09
5.566708e-10
-1.9588258e-09
-2.3785206e-09
8.5247133e-10
-3.278017e-09
-3.4142975e-09
1.2914384e-09
-2.7350045e-09
-4.6917949e-09
1.9343572e-09
-3.4193178e-09
-6.2806372e-09
2.8589288e-09
-5.7562139e-09
-8.5475581e-09
4.1546728e-09
-9.0832197e-09
-9.3878869e-09
5.906222e-09
-8.6992291e-09
8.090015e-09
-1.4397737e-08
1.1727838e-11
-2.8512644e-11
7.1631661e-12
5.5238158e-11
-9.5159568e-11
2.6605836e-11
2.6276061e-11
-1.9420953e-10
5.7264175e-11
-3.0215104e-11
-3.4394001e-10
1.0498763e-10
-1.3902161e-10
-5.6581973e-10
1.7829238e-10
-3.6845089e-10
-8.7793494e-10
2.8955437e-10
-8.7451442e-10
-1.2949568e-09
4.5678181e-10
-6.2901957e-10
-1.8021853e-09
7.0596933e-10
-7.485469e-10
-2.4213306e-09
1.0728649e-09
-1.3284136e-09
-3.0956111e-09
1.6071309e-09
-2.5525785e-09
-3.8883241e-09
2.3724087e-09
-5.0482259e-09
-4.4612991e-09
3.4477849e-09
-1.0538628e-08
-4.1477488e-09
4.9182999e-09
-1.7702119e-08
-4.0100772e-09
6.8288219e-09
-1.3066892e-09
9.1408961e-09
-2.7849836e-08
-3.4805597e-12
-2.7366955e-11
9.6186602e-12
-1.076233e-11
-9.4223936e-11
3.5567531e-11
-2.9503699e-11
-1.8599531e-10
7.6147873e-11
-8.3503988e-11
-3.0742483e-10
1.390274e-10
-2.1185602e-10
-4.6636845e-10
2.34733e-10
-4.5617562e-10
-6.8101979e-10
3.7869732e-10
-8.6585286e-10
-9.6254484e-10
5.9273673e-10
-1.5192944e-09
-1.2730001e-09
9.0724093e-10
-2.6077633e-09
-1.5298728e-09
1.3635701e-09
-4.4364408e-09
-1.5752334e-09
2.0100627e-09
-7.4679364e-09
-1.3344875e-09
2.9133097e-09
-1.1492426e-08
-1.1735285e-09
4.1415391e-09
-2.370136e-08
-2.0145148e-09
5.744535e-09
-3.7898554e-08
-3.2179496e-09
7.7643136e-09
-6.0338367e-09
1.0099398e-08
-5.0455143e-08
-5.4063932e-11
1.2862348e-11
-1.5540391e-10
4.7288141e-11
-3.5331804e-10
1.0068718e-10
-6.8061648e-10
1.8263285e-10
-1.7493335e-09
3.0633256e-10
-3.3845906e-09
4.9042561e-10
-4.4356336e-09
7.6062594e-10
-5.8500282e-09
1.1506152e-09
-7.6002032e-09
1.703189e-09
-9.5093332e-09
2.4684994e-09
-1.7051786e-08
3.4984408e-09
-2.6638372e-08
4.8500095e-09
-3.9779812e-08
6.5470566e-09
-5.7359724e-08
8.5701465e-09
1.0815714e-08
-8.1443625e-08
-1.5020662e-12
-3.7805588e-12
9.0488612e-12
-5.8424741e-12
-1.5849693e-11
3.4333246e-11
-1.3693017e-11
-3.5914236e-11
7.4640362e-11
-2.6353978e-11
-6.7570019e-11
1.3742718e-10
-4.5377459e-11
-1.1647342e-10
2.3361697e-10
-7.3017792e-11
-1.9031551e-10
3.7906942e-10
-1.1354518e-10
-2.9948937e-10
5.9658501e-10
-1.7296153e-10
-4.5781063e-10
9.1853365e-10
-2.5874547e-10
-6.8071637e-10
1.390141e-09
-3.7482761e-10
-1.0025313e-09
2.0712277e-09
-5.3091432e-10
-1.4515005e-09
3.0424151e-09
-7.0242735e-10
-2.101701e-09
4.4005196e-09
-6.5403938e-10
-3.161621e-09
6.2585023e-09
-5.9537201e-10
-4.2781649e-09
8.6903826e-09
-5.3749429e-09
1.1665915e-08
-6.3236827e-10
4.2959023e-12
-1.4131876e-11
9.9405908e-12
1.9888015e-11
-5.3896508e-11
3.7734593e-11
5.0461417e-11
-1.1470952e-10
8.1943279e-11
9.8531107e-11
-2.0364947e-10
1.5070711e-10
1.6475877e-10
-3.3092235e-10
2.5586933e-10
2.465322e-10
-5.0995388e-10
4.1457061e-10
3.3566509e-10
-7.5788643e-10
6.513538e-10
4.1555294e-10
-1.0968448e-09
1.0008801e-09
4.6017322e-10
-1.5548268e-09
1.5111321e-09
4.1888809e-10
-2.1711322e-09
2.2486536e-09
2.3404467e-10
-2.9918507e-09
3.2972438e-09
-1.8906929e-10
-4.0953705e-09
4.7601768e-09
-1.0837128e-09
-5.6012955e-09
6.7439576e-09
-2.2710505e-09
-7.5257721e-09
9.3413282e-09
-9.1714451e-09
1.2490371e-08
-4.079574e-09
-2.2343435e-12
-1.9049683e-11
1.1688184e-11
-1.1422005e-11
-7.0295348e-11
4.4374067e-11
-3.2268912e-11
-1.4883921e-10
9.6297738e-11
-7.0756362e-11
-2.6554021e-10
1.7689009e-10
-1.3552497e-10
-4.3507208e-10
2.998419e-10
-2.4042014e-10
-6.7587182e-10
4.8487305e-10
-4.0756232e-10
-1.0108432e-09
7.6006648e-10
-6.7229297e-10
-1.4678229e-09
1.1648452e-09
-1.0925798e-09
-2.0770251e-09
1.7534765e-09
-1.7510495e-09
-2.8809366e-09
2.5985955e-09
-2.7697644e-09
-3.9208036e-09
3.7931955e-09
-4.3021895e-09
-5.2777513e-09
5.4475713e-09
-6.6098863e-09
-6.9821184e-09
7.6654153e-09
-9.5547376e-09
-9.4468244e-09
1.0504324e-08
-1.1097363e-08
1.3922171e-08
-1.3765621e-08
-4.7503674e-12
-2.292636e-11
1.4686473e-11
-2.0505749e-11
-8.5392047e-11
5.5543391e-11
-5.4970223e-11
-1.8053201e-10
1.2018244e-10
-1.2139838e-10
-3.195146e-10
2.2004137e-10
-2.413376e-10
-5.1707144e-10
3.7157087e-10
-4.4857643e-10
-7.9105446e-10
5.9821225e-10
-7.9463345e-10
-1.1623797e-09
9.3291746e-10
-1.3555238e-09
-1.6549384e-09
1.4212217e-09
-2.2385573e-09
-2.2945536e-09
2.1245782e-09
-3.6032147e-09
-3.103236e-09
3.1230539e-09
-5.6698803e-09
-4.0974898e-09
4.5150293e-09
-8.760161e-09
-5.2892181e-09
6.4095832e-09
-1.3278092e-08
-6.6423277e-09
8.9039145e-09
-1.9553821e-08
-8.6595253e-09
1.2035401e-08
-9.7901028e-09
1.5690974e-08
-2.7729901e-08
-5.9838928e-12
-2.7569228e-11
1.8806913e-11
-3.5290784e-11
-9.3913587e-11
7.092308e-11
-1.1150168e-10
-1.8534669e-10
1.5302962e-10
-2.6944734e-10
-3.085536e-10
2.7924348e-10
-5.6155484e-10
-4.706935e-10
4.6965084e-10
-1.0632929e-09
-6.8001075e-10
7.524957e-10
-1.8795628e-09
-9.4600173e-10
1.1668243e-09
-3.1517739e-09
-1.2793598e-09
1.7654297e-09
-5.064574e-09
-1.6914319e-09
2.6174642e-09
-7.8534531e-09
-2.192325e-09
3.8092271e-09
-1.1798356e-08
-2.7878326e-09
5.4401513e-09
-1.7238425e-08
-3.462703e-09
7.6088747e-09
-2.4586032e-08
-4.1269735e-09
1.0381486e-08
-3.4666402e-08
-4.8182147e-09
1.3734463e-08
-4.7594775e-09
1.7473253e-08
-4.7371637e-08
-4.0504561e-11
2.4494638e-11
-1.8118492e-10
9.1977619e-11
-4.6690083e-10
1.9769627e-10
-9.5736865e-10
3.5914676e-10
-1.7311164e-09
6.0083427e-10
-2.8905132e-09
9.5652637e-10
-4.5677675e-09
1.4717128e-09
-6.9321468e-09
2.2058328e-09
-1.0196233e-08
3.2331198e-09
-1.4619399e-08
4.6400689e-09
-2.0504059e-08
6.515892e-09
-2.8151333e-08
8.9312988e-09
-3.7761402e-08
1.1902587e-08
-4.9508701e-08
1.5338797e-08
1.8987918e-08
-6.2635687e-08
4.0377512e-14
1.1274297e-12
7.8822947e-12
5.6811204e-13
3.9872781e-12
2.9821898e-11
2.3756945e-12
8.0734536e-12
6.4765716e-11
6.5309467e-12
1.40061e-11
1.1927647e-10
1.4911996e-11
2.2325925e-11
2.0292636e-10
3.047414e-11
3.3852196e-11
3.2967931e-10
5.779605e-11
4.9573384e-11
5.1972212e-10
1.036852e-10
7.077302e-11
8.0190904e-10
1.7819797e-10
9.8813402e-11
1.216843e-09
2.9141495e-10
1.3762555e-10
1.8203672e-09
4.5526835e-10
1.9185364e-10
2.6865656e-09
6.7308556e-10
2.7429932e-10
3.9079853e-09
9.5164591e-10
3.9176099e-10
5.5872577e-09
1.2291981e-09
6.0315628e-10
7.8076037e-09
8.9065021e-10
1.0547443e-08
1.4531381e-09
8.5701327e-13
1.5261667e-12
8.6844976e-12
4.2924268e-12
5.4476587e-12
3.283588e-11
1.1720924e-11
1.1325197e-11
7.1256144e-11
2.5271402e-11
2.0041401e-11
1.311074e-10
4.7986593e-11
3.264435e-11
2.228089e-10
8.428762e-11
5.0553927e-11
3.6151689e-10
1.4039091e-10
7.5653312e-11
5.6907426e-10
2.2476868e-10
1.1049487e-10
8.7659918e-10
3.4833564e-10
1.5831358e-10
1.3277272e-09
5.1945188e-10
2.3226193e-10
1.982284e-09
7.6099706e-10
3.2708589e-10
2.9193694e-09
1.0866951e-09
4.6927715e-10
4.2376206e-09
1.4989491e-09
6.737075e-10
6.0467014e-09
2.0036325e-09
9.9572827e-10
8.4379649e-09
1.5456547e-09
1.1399294e-08
2.4295938e-09
1.2000741e-12
1.7283423e-12
1.0276027e-11
6.090267e-12
6.0961855e-12
3.8806841e-11
1.6940319e-11
1.2627685e-11
8.4093281e-11
3.6984354e-11
2.2334874e-11
1.544621e-10
7.0943078e-11
3.6407374e-11
2.6196583e-10
1.2560999e-10
5.645848e-11
4.2404144e-10
2.1050344e-10
8.4724188e-11
6.6566662e-10
3.3841059e-10
1.2452245e-10
1.0221863e-09
5.2475275e-10
1.8145772e-10
1.5427967e-09
7.9774288e-10
2.6154017e-10
2.2943846e-09
1.1802891e-09
3.6994606e-10
3.3646853e-09
1.7015687e-09
5.2855554e-10
4.8621672e-09
2.3519404e-09
7.7474393e-10
6.9067213e-09
3.025236e-09
1.2138605e-09
9.5995838e-09
2.0221694e-09
1.2939584e-08
3.5107444e-09
1.7013898e-12
1.840703e-12
1.2829991e-11
8.3842426e-12
6.4976437e-12
4.8352573e-11
2.3158758e-11
1.332444e-11
1.0453045e-10
5.0613605e-11
2.3155743e-11
1.9146509e-10
9.7512037e-11
3.6924857e-11
3.2366386e-10
1.7364593e-10
5.5807437e-11
5.2193892e-10
2.9289514e-10
8.131854e-11
8.1582033e-10
4.7450742e-10
1.1552489e-10
1.246649e-09
7.4469794e-10
1.6156513e-10
1.8712723e-09
1.1340996e-09
2.2473705e-10
2.7659093e-09
1.6683131e-09
3.1507924e-10
4.0289414e-09
2.3591748e-09
4.5775722e-10
5.7797089e-09
3.1737704e-09
7.0294691e-10
8.147236e-09
4.0017275e-09
1.1600773e-09
1.1237843e-08
2.0174919e-09
1.5052213e-08
4.6110607e-09
3.1631635e-12
1.0324481e-12
1.6365384e-11
1.523058e-11
3.6188714e-12
6.1527955e-11
4.1224397e-11
7.3672015e-12
1.3265242e-10
8.817367e-11
1.2684778e-11
2.4221104e-10
1.659377e-10
1.9981629e-11
4.0794312e-10
2.880731e-10
2.9734346e-11
6.5503861e-10
4.7266138e-10
4.2582315e-11
1.0188189e-09
7.4277518e-10
5.9523292e-11
1.5480544e-09
1.12573e-09
8.2510443e-11
2.3087137e-09
1.6493768e-09
1.157587e-10
3.3874724e-09
2.332201e-09
1.6888698e-10
4.8933391e-09
3.1660262e-09
2.6445191e-10
6.9539245e-09
4.0799575e-09
4.506432e-10
9.6997725e-09
4.8746704e-09
8.41493e-10
1.3226133e-08
1.7533644e-09
1.7505862e-08
5.0605745e-09
4.4790514e-12
2.0953906e-11
2.1328717e-11
7.8541903e-11
5.7295047e-11
1.6877429e-10
1.2158838e-10
3.0702328e-10
2.2666427e-10
5.1492259e-10
3.8878986e-10
8.2285336e-10
6.2825477e-10
1.2728521e-09
9.6860479e-10
1.9220115e-09
1.4338717e-09
2.8459338e-09
2.0421702e-09
4.1411366e-09
2.7939335e-09
5.924082e-09
3.6551594e-09
8.3223975e-09
4.5419899e-09
1.1450707e-08
5.3404752e-09
1.5359565e-08
1.992913e-08
6.1221154e-09
-4.8163367e-13
-1.3308617e-12
9.6695622e-12
-2.3934197e-12
-5.1081224e-12
3.6791667e-11
-6.4693892e-12
-1.1276306e-11
8.0027082e-11
-1.3659812e-11
-2.1000489e-11
1.4731027e-10
-2.5300555e-11
-3.5949887e-11
2.5025167e-10
-4.3284935e-11
-5.8446631e-11
4.0566907e-10
-7.0283103e-11
-9.1693776e-11
6.3768843e-10
-1.0985314e-10
-1.4017311e-10
9.8049178e-10
-1.6646506e-10
-2.1006709e-10
1.4816849e-09
-2.5253313e-10
-3.0542302e-10
2.2089939e-09
-3.8153527e-10
-4.3541912e-10
3.2465945e-09
-5.6707738e-10
-6.1288082e-10
4.6997594e-09
-8.2035567e-10
-8.5150182e-10
6.6818589e-09
-1.1119109e-09
-1.1966164e-09
9.2763231e-09
-1.5950432e-09
1.2441228e-08
-1.4336187e-09
9.8108299e-13
-4.3048318e-12
1.0618047e-11
4.1198385e-12
-1.5929244e-11
4.0379706e-11
9.6092337e-12
-3.3514311e-11
8.7777159e-11
1.7121456e-11
-5.9229988e-11
1.6145217e-10
2.5316795e-11
-9.5963581e-11
2.7402469e-10
3.1149616e-11
-1.4745412e-10
4.4373062e-10
2.895973e-11
-2.1843674e-10
6.9666072e-10
8.506767e-12
-3.147712e-10
1.0696711e-09
-4.6835306e-11
-4.4476947e-10
1.6138029e-09
-1.6026651e-10
-6.1666901e-10
2.4011805e-09
-3.6018155e-10
-8.4543126e-10
3.5209437e-09
-6.7936806e-10
-1.1527942e-09
5.0847634e-09
-1.1536833e-09
-1.5603707e-09
7.2127261e-09
-1.7615439e-09
-2.1728714e-09
9.9956493e-09
-2.8093e-09
1.3404553e-08
-2.5818934e-09
-1.084117e-12
-5.5627942e-12
1.2519251e-11
-5.7717581e-12
-2.0231627e-11
4.762777e-11
-1.6405769e-11
-4.2505334e-11
1.0343402e-10
-3.6136668e-11
-7.5506217e-11
1.9000069e-10
-6.9700092e-11
-1.2316081e-10
3.2196767e-10
-1.2429436e-10
-1.9043867e-10
5.2041201e-10
-2.108692e-10
-2.834859e-10
8.1538015e-10
-3.4596439e-10
-4.0962228e-10
1.2491822e-09
-5.5514499e-10
-5.776844e-10
1.8804479e-09
-8.6619633e-10
-7.9933167e-10
2.7815654e-09
-1.3232009e-09
-1.0896802e-09
4.0565625e-09
-1.978842e-09
-1.4750971e-09
5.8268774e-09
-2.8935301e-09
-1.9792808e-09
8.2217026e-09
-4.0637813e-09
-2.7693245e-09
1.1338498e-08
-3.494345e-09
1.5154554e-08
-5.6250547e-09
-2.1086854e-12
-6.3868918e-12
1.5649993e-11
-9.9128171e-12
-2.359062e-11
5.9321424e-11
-2.7091397e-11
-4.9605255e-11
1.2848126e-10
-5.9577706e-11
-8.740545e-11
2.3530985e-10
-1.1655027e-10
-1.4077628e-10
3.9737666e-10
-2.1192759e-10
-2.1423303e-10
6.3971986e-10
-3.6633695e-10
-3.1301978e-10
9.9759432e-10
-6.0933623e-10
-4.431683e-10
1.5198828e-09
-9.8186655e-10
-6.1177501e-10
2.2729529e-09
-1.5390436e-09
-8.2778889e-10
3.3443576e-09
-2.3515552e-09
-1.1033052e-09
4.8448883e-09
-3.5065135e-09
-1.4592997e-09
6.9047049e-09
-5.0993288e-09
-1.9150352e-09
9.6563e-09
-7.1978161e-09
-2.6514214e-09
1.3190113e-08
-3.3367405e-09
1.7464448e-08
-9.7995154e-09
-2.9963589e-12
-7.2327128e-12
2.0068583e-11
-1.6538592e-11
-2.4599187e-11
7.5840769e-11
-4.9202655e-11
-4.8472462e-11
1.6378545e-10
-1.1349188e-10
-8.0514816e-11
2.9895892e-10
-2.27778e-10
-1.2244808e-10
5.0286104e-10
-4.1813048e-10
-1.7622725e-10
8.0575792e-10
-7.2033601e-10
-2.4412924e-10
1.2496437e-09
-1.1819941e-09
-3.2889512e-10
1.8917198e-09
-1.8644804e-09
-4.339731e-10
2.8079841e-09
-2.8444551e-09
-5.639148e-10
4.0958968e-09
-4.2133277e-09
-7.2558446e-10
5.8738848e-09
-6.0770236e-09
-9.2939033e-10
8.273328e-09
-8.5353077e-09
-1.1915058e-09
1.1415233e-08
-1.1718611e-08
-1.6274337e-09
1.5359101e-08
-2.2563038e-09
2.0013108e-08
-1.533563e-08
-1.2417988e-11
2.6016707e-11
-5.6625027e-11
9.795453e-11
-1.4746559e-10
2.1082638e-10
-3.0476461e-10
3.8329906e-10
-5.5477522e-10
6.4167845e-10
-9.3177756e-10
1.0223728e-09
-1.4797971e-09
1.5748302e-09
-2.2541158e-09
2.3645988e-09
-3.3220001e-09
3.4757604e-09
-4.7617141e-09
5.0112393e-09
-6.6591866e-09
7.0882989e-09
-9.101123e-09
9.8249062e-09
-1.2165257e-08
1.3310943e-08
-1.6006457e-08
1.7558018e-08
2.2432067e-08
-2.078465e-08
-3.250351e-14
8.3584474e-13
8.9005846e-12
3.2208095e-14
3.0364372e-12
3.3761953e-11
5.0505437e-13
6.291221e-12
7.3364295e-11
1.9815279e-12
1.0959916e-11
1.3505441e-10
5.3717614e-12
1.7530462e-11
2.2963765e-10
1.2175995e-11
2.6574945e-11
3.7279837e-10
2.4713458e-11
3.8812161e-11
5.8716892e-10
4.6419296e-11
5.5086697e-11
9.0503429e-10
8.2140755e-11
7.6351817e-11
1.3717266e-09
1.3544553e-10
1.0952968e-10
2.0494515e-09
2.1364556e-10
1.5286384e-10
3.0205581e-09
3.2081795e-10
2.125129e-10
4.387593e-09
4.5217499e-10
2.9764944e-10
6.2637417e-09
5.872121e-10
4.2202374e-10
8.7390698e-09
6.0532995e-10
1.1786201e-08
6.6402532e-10
4.3169894e-13
1.3024233e-12
9.7914594e-12
2.147165e-12
4.798779e-12
3.7068845e-11
5.8730727e-12
1.0124358e-11
8.049208e-11
1.2603728e-11
1.7988171e-11
1.4814129e-10
2.3846338e-11
2.9314813e-11
2.5172297e-10
4.1739808e-11
4.529611e-11
4.082736e-10
6.9283497e-11
6.7445426e-11
6.4230182e-10
1.1070322e-10
9.7476654e-11
9.8866471e-10
1.6519855e-10
1.4372418e-10
1.4961727e-09
2.5532971e-10
1.9526186e-10
2.2315933e-09
3.7917313e-10
2.7588774e-10
3.2831863e-09
5.4566349e-10
3.8293823e-10
4.7608242e-09
7.4889121e-10
5.3858278e-10
6.7865389e-09
9.6756147e-10
7.6604419e-10
9.4608206e-09
1.1098065e-09
1.2767858e-08
1.136344e-09
7.0457854e-13
1.614176e-12
1.1587569e-11
3.5642449e-12
5.9134254e-12
4.3849452e-11
9.9236137e-12
1.2432187e-11
9.508648e-11
2.1702578e-11
2.2070185e-11
1.7465991e-10
4.1673287e-11
3.5994205e-11
2.961548e-10
7.3763256e-11
5.57552e-11
4.7919164e-10
1.2336364e-10
8.3456442e-11
7.5184178e-10
1.9730552e-10
1.2210611e-10
1.1537866e-09
3.1246251e-10
1.7356573e-10
1.7402177e-09
4.6992935e-10
2.4022921e-10
2.5861437e-09
6.8498354e-10
3.3745626e-10
3.7900405e-09
9.6091121e-10
4.7417835e-10
5.4739872e-09
1.2865692e-09
6.804026e-10
7.7738681e-09
1.6152758e-09
9.9971535e-10
1.0805568e-08
1.5154492e-09
1.4572257e-08
1.8307884e-09
1.208263e-12
1.7232347e-12
1.4425759e-11
5.8950391e-12
6.2705181e-12
5.4493812e-11
1.6196909e-11
1.30445e-11
1.1792015e-10
3.52374e-11
2.2851505e-11
2.1606123e-10
6.7525987e-11
3.6717655e-11
3.6528334e-10
1.1946195e-10
5.5947804e-11
5.8904163e-10
1.999151e-10
8.2242178e-11
9.2060489e-10
3.2091372e-10
1.1786189e-10
1.4065504e-09
4.9554817e-10
1.660134e-10
2.1109708e-09
7.3585023e-10
2.3176563e-10
3.1199584e-09
1.0576469e-09
3.2607758e-10
4.5450909e-09
1.4648667e-09
4.6365902e-10
6.5228674e-09
1.9420514e-09
6.7623911e-10
9.2035367e-09
2.4337392e-09
1.011935e-09
1.2716083e-08
1.5532646e-09
1.7078434e-08
2.8212737e-09
2.4951305e-12
1.00158e-12
1.840538e-11
1.1861187e-11
3.6323257e-12
6.9368077e-11
3.1847882e-11
7.5478144e-12
1.497092e-10
6.7640939e-11
1.3223006e-11
2.7346044e-10
1.2635218e-10
2.1258904e-11
4.606646e-10
2.1751833e-10
3.2417323e-11
7.3976752e-10
3.5348678e-10
4.7758157e-11
1.1506713e-09
5.4945531e-10
6.8835612e-11
1.7485314e-09
8.2264464e-10
9.8174679e-11
2.6081217e-09
1.1897279e-09
1.4032253e-10
3.8281148e-09
1.663105e-09
2.0399297e-10
5.5336337e-09
2.238322e-09
3.0353148e-10
7.8735214e-09
2.8786853e-09
4.6654301e-10
1.1005337e-08
3.4829051e-09
7.4153394e-10
1.5055512e-08
1.2456282e-09
2.0028098e-08
3.8141423e-09
3.6147411e-12
2.3498895e-11
1.7072746e-11
8.8336086e-11
4.5696696e-11
1.9007602e-10
9.6722526e-11
3.4601387e-10
1.7985963e-10
5.8061843e-10
3.0767155e-10
9.2825398e-10
4.9568723e-10
1.4365261e-09
7.6180583e-10
2.1702426e-09
1.12443e-09
3.2155883e-09
1.5986134e-09
4.6834565e-09
2.1896541e-09
6.7096208e-09
2.8820411e-09
9.4472243e-09
3.6303776e-09
1.3043426e-08
4.3607275e-09
1.7586675e-08
2.2997717e-08
5.0612635e-09
-2.5661765e-13
-8.3848402e-13
1.0010543e-11
-1.3546683e-12
-3.1910701e-12
3.8080607e-11
-3.7948682e-12
-6.9729803e-12
8.2830841e-11
-8.2088265e-12
-1.2935464e-11
1.5249617e-10
-1.5435418e-11
-2.2110424e-11
2.591308e-10
-2.6644997e-11
-3.5941461e-11
4.2020978e-10
-4.3439278e-11
-5.6446685e-11
6.6083374e-10
-6.7950878e-11
-8.6391758e-11
1.016622e-09
-1.0578783e-10
-1.2843007e-10
1.539085e-09
-1.6369224e-10
-1.8670489e-10
2.2957789e-09
-2.5059718e-10
-2.6660412e-10
3.3767266e-09
-3.7612723e-10
-3.7589147e-10
4.8930819e-09
-5.478955e-10
-5.2357293e-10
6.9653812e-09
-7.4370525e-10
-7.3685768e-10
9.6839646e-09
-9.8960849e-10
1.3006528e-08
-9.5971288e-10
5.9469565e-13
-2.6036331e-12
1.099791e-11
2.3921346e-12
-9.6516247e-12
4.1816279e-11
5.4653066e-12
-2.0318505e-11
9.090326e-11
9.573839e-12
-3.5912299e-11
1.6723705e-10
1.3804093e-11
-5.8184206e-11
2.8393507e-10
1.6089575e-11
-8.9401306e-11
4.5997095e-10
1.2593992e-11
-1.3239831e-10
7.225294e-10
-2.5195258e-12
-1.9101831e-10
1.1100071e-09
-4.0705293e-11
-2.6931237e-10
1.677631e-09
-1.1598043e-10
-3.738476e-10
2.49756e-09
-2.4719003e-10
-5.1298989e-10
3.6659736e-09
-4.5523356e-10
-7.0077964e-10
5.3012639e-09
-7.6125262e-10
-9.5255751e-10
7.5324244e-09
-1.1479156e-09
-1.3320599e-09
1.0459808e-08
-1.7457378e-09
1.4057588e-08
-1.6620748e-09
-5.7264733e-13
-3.3659793e-12
1.2983481e-11
-3.4039349e-12
-1.2253094e-11
4.9387473e-11
-9.980335e-12
-2.5746684e-11
1.0726901e-10
-2.2320354e-11
-4.5729229e-11
1.9711099e-10
-4.3476881e-11
-7.4573526e-11
3.3417848e-10
-7.8120017e-11
-1.1527891e-10
5.4048208e-10
-1.3343447e-10
-1.7149244e-10
8.4746622e-10
-2.2069585e-10
-2.476291e-10
1.2995383e-09
-3.5201028e-10
-3.4923174e-10
1.9542969e-09
-5.4792254e-10
-4.8340879e-10
2.8958302e-09
-8.3566736e-10
-6.5981902e-10
4.2307162e-09
-1.2471275e-09
-8.9577696e-10
6.0891453e-09
-1.8154903e-09
-1.2101225e-09
8.6121785e-09
-2.528831e-09
-1.7055966e-09
1.191145e-08
-2.1982455e-09
1.597422e-08
-3.4562773e-09
-1.2807586e-12
-3.8274897e-12
1.6244407e-11
-6.321008e-12
-1.4154579e-11
6.156841e-11
-1.7508624e-11
-2.9781428e-11
1.3336744e-10
-3.8653082e-11
-5.2497032e-11
2.443455e-10
-7.5597082e-11
-8.4588473e-11
4.1284555e-10
-1.3713933e-10
-1.2878632e-10
6.6505112e-10
-2.3616406e-10
-1.8827765e-10
1.037914e-09
-3.9099608e-10
-2.6677317e-10
1.5828192e-09
-6.2697213e-10
-3.6873109e-10
2.3698753e-09
-9.7775506e-10
-4.9995573e-10
3.4922956e-09
-1.4857136e-09
-6.6863046e-10
5.0689971e-09
-2.2014588e-09
-8.8900591e-10
7.2418262e-09
-3.176649e-09
-1.1770541e-09
1.0159525e-08
-4.4357047e-09
-1.6426921e-09
1.3932919e-08
-2.1206897e-09
1.8538166e-08
-5.9490909e-09
-1.8619196e-12
-4.3152037e-12
2.0856086e-11
-1.0607116e-11
-1.467863e-11
7.8811596e-11
-3.1710282e-11
-2.8912061e-11
1.7023516e-10
-7.3148757e-11
-4.7986729e-11
3.1086666e-10
-1.4659936e-10
-7.2922716e-11
5.2321361e-10
-2.6855776e-10
-1.04898e-10
8.3903337e-10
-4.6153344e-10
-1.4533424e-10
1.3025342e-09
-7.5519849e-10
-1.9604544e-10
1.9742037e-09
-1.1872442e-09
-2.5949392e-10
2.9349154e-09
-1.8035844e-09
-3.3918399e-10
4.289344e-09
-2.6567726e-09
-4.4047368e-10
6.166511e-09
-3.8035544e-09
-5.7109524e-10
8.7130815e-09
-5.2917089e-09
-7.4035381e-10
1.2071226e-08
-7.1792901e-09
-1.0060263e-09
1.6326677e-08
-1.3739356e-09
2.1410001e-08
-9.2846357e-09
-7.7868567e-12
2.7063247e-11
-3.5873095e-11
1.0189145e-10
-9.3825522e-11
2.1935538e-10
-1.9442545e-10
3.9901167e-10
-3.545921e-10
6.6847198e-10
-5.9635533e-10
1.0660675e-09
-9.4780672e-10
1.6440863e-09
-1.4437346e-09
2.4722646e-09
-2.1253978e-09
3.6408419e-09
-3.0385552e-09
5.2617373e-09
-4.2287542e-09
7.4651675e-09
-5.7321721e-09
1.0387198e-08
-7.5610717e-09
1.4141479e-08
-9.7350631e-09
1.8766919e-08
2.4151156e-08
-1.2246537e-08
9.3739101e-14
1.5192386e-13
9.7723939e-12
6.5692669e-13
4.8288204e-13
3.7054314e-11
1.9964106e-12
1.0050669e-12
8.0521004e-11
4.5984831e-12
1.6999474e-12
1.4825341e-10
9.1282675e-12
2.6465935e-12
2.5205352e-10
1.6554071e-11
3.8715404e-12
4.0907617e-10
2.815179e-11
5.4644437e-12
6.440386e-10
4.5431713e-11
7.6259875e-12
9.921466e-10
7.1547857e-11
1.0898005e-11
1.5027551e-09
1.0852342e-10
1.6405598e-11
2.2434683e-09
1.5167769e-10
3.1585499e-11
3.3036314e-09
2.0914116e-10
4.3861198e-11
4.7942341e-09
2.7626646e-10
6.4302956e-11
6.8375665e-09
3.4040499e-10
9.5823861e-11
9.5306027e-09
1.4860651e-10
1.2843872e-08
3.6357891e-10
2.2884921e-13
1.9595432e-13
1.074841e-11
1.1392375e-12
7.0920522e-13
4.0734262e-11
3.1906057e-12
1.4872017e-12
8.8459593e-11
6.9293816e-12
2.6065248e-12
1.6273886e-10
1.3150139e-11
4.1825028e-12
2.7641696e-10
2.2910418e-11
6.3447399e-12
4.4811899e-10
3.7579287e-11
9.3155463e-12
7.0460963e-10
5.8668569e-11
1.3567644e-11
1.0839045e-09
8.8897457e-11
2.0561118e-11
1.6391475e-09
1.298318e-10
3.2188238e-11
2.4429386e-09
1.9008277e-10
4.9346235e-11
3.5910201e-09
2.6580953e-10
7.1397593e-11
5.2023837e-09
3.542079e-10
1.0556002e-10
7.4088775e-09
4.411531e-10
1.5967753e-10
1.0318594e-08
2.5053802e-10
1.3914566e-08
4.9500306e-10
2.1670902e-13
2.7818138e-13
1.2713058e-11
1.2439767e-12
1.0087814e-12
4.812716e-11
3.641285e-12
2.0942876e-12
1.0437374e-10
8.153015e-12
3.67833e-12
1.9170547e-10
1.587528e-11
5.9294626e-12
3.2499642e-10
2.8385612e-11
9.0670979e-12
5.2570659e-10
4.7980093e-11
1.3397784e-11
8.2450517e-10
7.8090788e-11
1.9404794e-11
1.2646918e-09
1.2042628e-10
2.7779174e-11
1.9064056e-09
1.7982199e-10
3.9818088e-11
2.8312653e-09
2.5936603e-10
5.7851576e-11
4.1462364e-09
3.5541195e-10
8.590754e-11
5.9836731e-09
4.5686054e-10
1.3281442e-10
8.4905199e-09
5.3546153e-10
2.1190439e-10
1.1791385e-08
3.4457156e-10
1.5888227e-08
5.4188651e-10
4.509681e-13
2.8617344e-13
1.5819851e-11
2.2982815e-12
1.0244482e-12
5.9786141e-11
6.416314e-12
2.0825262e-12
1.2939343e-10
1.4006799e-11
3.5659522e-12
2.3708279e-10
2.6754205e-11
5.5925551e-12
4.0078113e-10
4.6938107e-11
8.3228647e-12
6.4615882e-10
7.7496286e-11
1.2010458e-11
1.0095943e-09
1.2193716e-10
1.7113314e-11
1.5419683e-09
1.8378009e-10
2.4533303e-11
2.3132199e-09
2.6545331e-10
3.6098233e-11
3.4171868e-09
3.6575e-10
5.5297427e-11
4.975333e-09
4.746591e-10
8.8534449e-11
7.1360235e-09
5.6598466e-10
1.4681185e-10
1.0062049e-08
5.8622924e-10
2.4525295e-10
1.3891144e-08
3.9958647e-10
1.8632702e-08
4.5258783e-10
9.2453782e-13
8.7435931e-14
2.0174437e-11
4.4852461e-12
3.0271105e-13
7.6075447e-11
1.2156977e-11
5.8870499e-13
1.6422439e-10
2.5889445e-11
9.7161076e-13
2.999982e-10
4.8278588e-11
1.4807593e-12
5.0536416e-10
8.2638676e-11
2.1824916e-12
8.1148137e-10
1.3291146e-10
3.2600842e-12
1.2620327e-09
2.0322295e-10
5.1681958e-12
1.9173656e-09
2.9671049e-10
8.9453175e-12
2.8592549e-09
4.1302078e-10
1.6752835e-11
4.1955935e-09
5.434588e-10
3.2635741e-11
6.0632639e-09
6.6260019e-10
6.3347335e-11
8.6254133e-09
7.1511919e-10
1.1843041e-10
1.2055656e-08
5.9671808e-10
2.0746869e-10
1.6495518e-08
3.5220308e-10
2.1956094e-08
1.1487397e-10
1.4386719e-12
2.5752036e-11
6.8559444e-12
9.6863893e-11
1.844862e-11
2.0848809e-10
3.9064082e-11
3.7958522e-10
7.2370994e-11
6.3698947e-10
1.2278482e-10
1.0183723e-09
1.9504785e-10
1.575905e-09
2.9311199e-10
2.380601e-09
4.1777967e-10
3.5269226e-09
5.6227965e-10
5.1365565e-09
7.0464292e-10
7.3589786e-09
7.9567342e-10
1.0364244e-08
7.4131571e-10
1.4320111e-08
3.8138675e-10
1.9341928e-08
2.5400964e-08
-5.0479879e-10