/*--------------------------------*- C++ -*----------------------------------*\
| =========                 |                                                 |
| \\      /  F ield         | OpenFOAM: The Open Source CFD Toolbox           |
|  \\    /   O peration     | Version:  4.0                                   |
|   \\  /    A nd           | Web:      www.OpenFOAM.org                      |
|    \\/     M anipulation  |                                                 |
\*---------------------------------------------------------------------------*/
FoamFile
{
    version     2.0;
    format      ascii;
    class       volScalarField;
    location    "1000";
    object      rho;
}
// * * * * * * * * * * * * * * * * * * * * * * * * * * * * * * * * * * * * * //

dimensions      [1 -3 0 0 0 0 0];

internalField   nonuniform List<scalar> 
324000
(
0.90806038
0.90843587
0.90880608
0.9091703
0.90952799
0.90987861
0.91022161
0.91055642
0.91088295
0.91120018
0.91150756
0.9118045
0.91209047
0.91236491
0.91262729
0.91287707
0.91311369
0.91333657
0.91354508
0.9137385
0.91391597
0.91407647
0.91421877
0.91434133
0.91444233
0.91451958
0.91457056
0.90730779
0.90769422
0.90807636
0.90845357
0.90882539
0.90919135
0.90955094
0.90990363
0.91024937
0.91058717
0.91091652
0.91123688
0.91154769
0.91184839
0.91213839
0.91241706
0.91268373
0.91293765
0.91317793
0.91340357
0.91361333
0.9138057
0.91397881
0.91413036
0.91425744
0.91435639
0.91442259
0.90594024
0.90635056
0.90675868
0.90716405
0.90756638
0.9079653
0.90836043
0.90875136
0.90913664
0.90951673
0.90989113
0.91025928
0.91062056
0.9109743
0.91131974
0.91165602
0.91198215
0.91229696
0.9125991
0.91288697
0.91315864
0.91341184
0.91364386
0.91385149
0.9140309
0.91417751
0.91428584
0.90426518
0.90471243
0.90515972
0.90560751
0.9060556
0.90650372
0.90695158
0.90739882
0.90784499
0.90828958
0.908732
0.9091715
0.90960724
0.9100382
0.91046319
0.9108808
0.91128941
0.91168713
0.9120718
0.91244097
0.91279188
0.91312149
0.91342652
0.91370344
0.91394858
0.91415829
0.91432924
0.90265857
0.90315514
0.90365621
0.90416171
0.9046715
0.90518534
0.90570288
0.90622364
0.90674699
0.90727213
0.90779804
0.90832349
0.90884698
0.90936675
0.90988076
0.91038667
0.91088185
0.91136342
0.91182827
0.91227313
0.91269466
0.91308956
0.91345474
0.91378752
0.91408594
0.91434911
0.91457807
0.90156981
0.90212707
0.90269248
0.90326579
0.90384662
0.90443436
0.90502822
0.90562715
0.90622987
0.90683479
0.90744005
0.90804345
0.90864254
0.90923453
0.9098164
0.9103849
0.91093661
0.91146804
0.91197572
0.91245633
0.91290686
0.91332478
0.91370827
0.91405647
0.9143698
0.91465024
0.91490173
0.90803951
0.90841588
0.90878681
0.90915155
0.90950979
0.90986099
0.91020461
0.9105401
0.91086689
0.91118442
0.91149213
0.91178947
0.91207519
0.9123494
0.91261156
0.91286113
0.91309756
0.91332024
0.91352855
0.91372178
0.91389909
0.91405953
0.91420196
0.91432504
0.91442719
0.91450668
0.91456163
0.90727895
0.90766681
0.90805029
0.90842818
0.9088007
0.90916738
0.90952772
0.90988119
0.91022728
0.91056543
0.91089509
0.91121568
0.91152733
0.91182878
0.91211938
0.91239847
0.91266534
0.91291918
0.91315909
0.91338402
0.91359274
0.91378378
0.91395535
0.91410532
0.9142311
0.91432951
0.91439676
0.90591539
0.90632584
0.90673387
0.90713948
0.90754211
0.90794132
0.90833669
0.90872778
0.9091141
0.90949515
0.90987037
0.91023915
0.91060084
0.91095466
0.91129979
0.91163529
0.91196006
0.91227289
0.91257232
0.91285669
0.91312404
0.91337206
0.91359801
0.91379856
0.91396966
0.91410621
0.91420156
0.90424961
0.90469593
0.90514288
0.90559102
0.90603937
0.90648767
0.90693558
0.90738268
0.90782851
0.90827249
0.90871393
0.90915205
0.90958589
0.91001435
0.91043616
0.91084984
0.9112537
0.9116458
0.91202397
0.91238578
0.91272848
0.91304906
0.91334414
0.91360994
0.91384215
0.91403568
0.91418419
0.90264464
0.90314074
0.90364125
0.90414603
0.90465487
0.9051675
0.9056835
0.90620235
0.90672334
0.9072456
0.90776804
0.90828937
0.90880804
0.90932226
0.90982999
0.91032891
0.91081649
0.91128994
0.91174632
0.91218253
0.91259544
0.91298193
0.91333901
0.91366402
0.91395476
0.91420981
0.91442888
0.90152705
0.90208387
0.90264848
0.90322056
0.90379966
0.90438514
0.90497618
0.90557172
0.90617046
0.90677085
0.90737106
0.90796899
0.90856227
0.90914824
0.90972405
0.91028661
0.91083268
0.91135896
0.91186214
0.91233906
0.91278686
0.91320319
0.91358655
0.9139368
0.91425587
0.91454911
0.91482745
0.90803633
0.90841201
0.90878217
0.90914631
0.9095039
0.9098544
0.91019726
0.9105319
0.91085776
0.91117426
0.91148083
0.9117769
0.91206265
0.91233686
0.91259897
0.91284844
0.91308472
0.91330723
0.91351532
0.91370828
0.91388525
0.91404522
0.91418693
0.91430888
0.91440922
0.91448578
0.91453604
0.90728255
0.90766912
0.9080512
0.90842834
0.90880006
0.90916591
0.90952537
0.90987794
0.9102231
0.91056031
0.91088903
0.91120867
0.9115194
0.91181992
0.91210969
0.91238807
0.91265439
0.91290791
0.91314774
0.91337287
0.91358208
0.91377386
0.91394636
0.91409726
0.91422369
0.91432203
0.91438767
0.9059119
0.90632231
0.9067303
0.90713557
0.90753777
0.90793653
0.90833147
0.90872216
0.90910816
0.90948901
0.9098642
0.91023319
0.91059381
0.91094688
0.91129164
0.91162723
0.91195266
0.91226675
0.91256815
0.91285525
0.91312613
0.9133785
0.91360967
0.91381641
0.91399487
0.91414048
0.91424776
0.90423691
0.90468351
0.90513077
0.90557851
0.90602654
0.90647458
0.90692235
0.90736948
0.90781552
0.90825996
0.90870218
0.90914145
0.90957689
0.91000749
0.91043206
0.91084918
0.91125724
0.91165435
0.91203833
0.91240673
0.9127568
0.9130855
0.91338953
0.91366534
0.91390928
0.91411765
0.9142871
0.90262871
0.90312523
0.90362623
0.90413164
0.90464132
0.90515502
0.9056724
0.90619298
0.90671611
0.907241
0.90776662
0.90829174
0.90881485
0.90933419
0.9098477
0.91035305
0.91084761
0.91132849
0.91179256
0.91223656
0.91265713
0.91305095
0.91341494
0.9137464
0.91404335
0.91430488
0.91453204
0.90153905
0.90209625
0.90266158
0.90323479
0.90381549
0.90440308
0.90499675
0.90559547
0.90619793
0.90680256
0.90740747
0.90801049
0.90860912
0.90920061
0.90978191
0.91034976
0.91090074
0.91143136
0.91193814
0.91241774
0.91286715
0.91328383
0.91366595
0.91401265
0.91432436
0.91460309
0.91485284
0.90803561
0.90841196
0.90878286
0.9091478
0.90950596
0.90985709
0.91020063
0.91053603
0.91086271
0.91118011
0.91148766
0.91178481
0.912071
0.91234569
0.91260835
0.91285845
0.91309445
0.91331673
0.91352464
0.91371749
0.91389444
0.91405454
0.91419665
0.91431943
0.91442135
0.91450065
0.91455551
0.90727636
0.90766421
0.90804719
0.9084253
0.90879778
0.90916443
0.90952475
0.90987821
0.91022429
0.91056244
0.9108921
0.91121272
0.91152369
0.91182441
0.91211423
0.91239246
0.91265939
0.91291323
0.91315309
0.91337792
0.91358649
0.91377733
0.91394867
0.91409837
0.91422384
0.91432193
0.91438882
0.90591169
0.90632217
0.90673007
0.90713524
0.90753792
0.90793714
0.90833249
0.90872353
0.90910978
0.90949073
0.90986583
0.91023445
0.91059594
0.91094955
0.91129444
0.91162969
0.91195422
0.91226678
0.91256593
0.91284999
0.91311701
0.91336466
0.91359019
0.91379029
0.91396088
0.91409685
0.91419152
0.90424475
0.90469106
0.90513869
0.90558676
0.90603505
0.90648326
0.90693106
0.90737806
0.90782375
0.90826758
0.90870886
0.90914679
0.90958042
0.91000866
0.91043022
0.91084363
0.91124718
0.91163896
0.91201677
0.91237818
0.91272045
0.91304055
0.9133351
0.91360032
0.91383188
0.91402468
0.91417238
0.90263948
0.90313556
0.90363606
0.9041408
0.9046496
0.90516216
0.9056781
0.90619685
0.90671774
0.90723987
0.90776216
0.90828331
0.90880179
0.90931578
0.90982325
0.91032189
0.91080914
0.91128223
0.91173821
0.91217398
0.91258639
0.91297232
0.91332878
0.91365309
0.91394305
0.91419722
0.9144153
0.90152142
0.90207823
0.90264282
0.90321486
0.90379391
0.90437933
0.90497029
0.90556574
0.90616437
0.90676462
0.90736468
0.90796242
0.90855548
0.90914121
0.90971674
0.91027898
0.91082469
0.91135057
0.9118533
0.91232971
0.91277694
0.91319263
0.91357528
0.91392472
0.91424288
0.91453508
0.91481222
0.90803413
0.90840981
0.90877997
0.90914411
0.9095017
0.90985221
0.91019507
0.91052972
0.91085558
0.91117209
0.91147866
0.91177541
0.91206115
0.91233533
0.91259742
0.91284687
0.91308314
0.91330563
0.91351371
0.91370666
0.91388364
0.91404363
0.91418539
0.9143074
0.91440785
0.91448457
0.91453507
0.90728056
0.90766713
0.90804921
0.90842634
0.90879807
0.90916391
0.90952336
0.90987592
0.91022107
0.91055826
0.91088693
0.91120718
0.91151779
0.91181824
0.91210794
0.91238627
0.91265254
0.91290601
0.9131458
0.9133709
0.91358008
0.91377184
0.91394431
0.9140952
0.91422161
0.91431993
0.91438555
0.90591054
0.90632094
0.90672893
0.90713419
0.90753638
0.90793513
0.90833006
0.90872074
0.90910675
0.90948759
0.90986279
0.91023038
0.91059108
0.91094422
0.91128904
0.91162468
0.91195013
0.91226425
0.91256566
0.91285275
0.9131236
0.91337593
0.91360704
0.91381369
0.91399203
0.91413746
0.91424448
0.90423476
0.90468136
0.90512861
0.90557635
0.90602436
0.9064724
0.90692015
0.90736725
0.90781327
0.90825768
0.90869986
0.90913908
0.90957448
0.91000505
0.91042958
0.91084668
0.91125471
0.91165178
0.91203572
0.91240409
0.91275412
0.91308277
0.91338673
0.91366246
0.91390631
0.91411457
0.91428391
0.90262629
0.9031228
0.9036238
0.90412921
0.90463888
0.90515258
0.90566995
0.90619052
0.90671365
0.90723853
0.90776414
0.90828924
0.90881234
0.90933166
0.90984516
0.9103505
0.91084504
0.91132589
0.91178994
0.91223391
0.91265445
0.91304824
0.91341219
0.91374361
0.91404053
0.91430204
0.91452919
0.90153654
0.90209374
0.90265906
0.90323228
0.90381297
0.90440056
0.90499423
0.90559294
0.9061954
0.90680002
0.90740493
0.90800794
0.90860657
0.90919805
0.90977934
0.91034718
0.91089815
0.91142876
0.91193552
0.91241511
0.9128645
0.91328117
0.91366328
0.91400999
0.91432171
0.91460047
0.91485028
0.90803454
0.9084109
0.90878179
0.90914674
0.9095049
0.90985602
0.91019956
0.91053494
0.91086161
0.911179
0.91148654
0.91178367
0.91206984
0.91234452
0.91260717
0.91285634
0.91309237
0.91331465
0.91352255
0.91371536
0.91389227
0.91405231
0.91419433
0.91431702
0.91441881
0.91449795
0.91455261
0.90727455
0.9076624
0.90804583
0.90842391
0.90879637
0.909163
0.90952328
0.9098767
0.91022274
0.91056083
0.91089044
0.91121098
0.91152187
0.91182249
0.91211219
0.91239124
0.91265802
0.91291173
0.91315146
0.91337616
0.91358462
0.91377535
0.91394659
0.9140962
0.91422159
0.91431962
0.91438648
0.90590999
0.90632044
0.90672849
0.90713359
0.90753624
0.90793542
0.90833074
0.90872175
0.90910798
0.9094889
0.90986397
0.91023257
0.91059404
0.91094763
0.91129251
0.91162775
0.91195226
0.91226478
0.91256389
0.9128479
0.91311487
0.91336247
0.91358795
0.913788
0.91395856
0.91409451
0.91418919
0.90424296
0.90468926
0.90513619
0.90558429
0.9060326
0.90648084
0.90692867
0.90737568
0.9078214
0.90826525
0.90870654
0.90914448
0.90957812
0.91000637
0.91042793
0.91084132
0.91124487
0.91163662
0.91201441
0.91237578
0.91271801
0.91303807
0.91333257
0.91359773
0.91382922
0.91402195
0.91416957
0.90263718
0.90313326
0.90363375
0.90413848
0.90464728
0.90515984
0.90567577
0.90619452
0.90671539
0.90723751
0.90775979
0.90828093
0.90879939
0.90931337
0.90982081
0.91031942
0.91080664
0.91127969
0.91173562
0.91217133
0.91258368
0.91296954
0.91332592
0.91365013
0.91393997
0.91419401
0.9144119
0.90151907
0.90207588
0.90264046
0.9032125
0.90379155
0.90437696
0.90496791
0.90556335
0.90616196
0.9067622
0.90736223
0.90795995
0.90855299
0.90913869
0.90971418
0.91027638
0.91082204
0.91134786
0.91185053
0.91232687
0.91277402
0.91318961
0.91357215
0.91392145
0.91423944
0.91453142
0.91480828
0.90803372
0.90840939
0.90877954
0.90914368
0.90950126
0.90985175
0.91019459
0.91052922
0.91085506
0.91117153
0.91147807
0.91177478
0.91206048
0.91233462
0.91259667
0.91284607
0.91308228
0.91330472
0.91351274
0.91370562
0.91388251
0.9140424
0.91418403
0.9143059
0.91440615
0.91448262
0.9145328
0.90727998
0.90766655
0.90804863
0.90842576
0.90879748
0.90916331
0.90952276
0.90987531
0.91022044
0.91055763
0.91088628
0.91120652
0.91151711
0.91181755
0.91210724
0.91238555
0.91265181
0.91290525
0.91314502
0.9133701
0.91357924
0.91377096
0.91394339
0.91409423
0.91422058
0.91431884
0.91438441
0.90590962
0.90632002
0.90672802
0.90713329
0.9075355
0.90793427
0.90832923
0.90871994
0.90910597
0.90948685
0.90986208
0.9102297
0.91059043
0.9109436
0.91128845
0.91162411
0.91194959
0.91226372
0.91256514
0.91285225
0.91312312
0.91337547
0.91360661
0.91381331
0.91399173
0.91413728
0.9142445
0.90423443
0.90468102
0.90512828
0.90557602
0.90602404
0.90647208
0.90691983
0.90736694
0.90781296
0.90825738
0.90869956
0.90913879
0.9095742
0.91000477
0.91042931
0.91084641
0.91125444
0.91165152
0.91203547
0.91240384
0.91275388
0.91308254
0.91338652
0.91366229
0.91390617
0.91411448
0.91428388
0.90262619
0.90312271
0.90362371
0.90412912
0.90463879
0.90515249
0.90566986
0.90619042
0.90671354
0.90723842
0.90776402
0.90828911
0.9088122
0.90933152
0.90984501
0.91035033
0.91084486
0.9113257
0.91178974
0.9122337
0.91265422
0.91304801
0.91341195
0.91374336
0.91404026
0.91430175
0.91452887
0.90153653
0.90209373
0.90265905
0.90323227
0.90381296
0.90440054
0.90499421
0.90559291
0.90619537
0.90679998
0.90740487
0.90800787
0.90860649
0.90919795
0.90977923
0.91034705
0.91089801
0.91142859
0.91193534
0.9124149
0.91286427
0.91328091
0.91366299
0.91400965
0.91432132
0.91460002
0.91484975
0.90803375
0.90841011
0.908781
0.90914595
0.90950411
0.90985523
0.91019877
0.91053416
0.91086083
0.91117821
0.91148574
0.91178286
0.91206902
0.91234367
0.91260629
0.91285634
0.91309227
0.91331448
0.91352232
0.91371508
0.91389193
0.91405192
0.91419391
0.91431655
0.91441829
0.91449738
0.91455197
0.9072744
0.90766225
0.90804522
0.90842333
0.9087958
0.90916246
0.90952277
0.90987622
0.91022228
0.91056041
0.91089005
0.91121064
0.91152158
0.91182227
0.91211205
0.91239024
0.91265711
0.91291091
0.91315071
0.91337548
0.91358398
0.91377476
0.91394603
0.91409566
0.91422106
0.91431908
0.91438593
0.90590949
0.90631998
0.90672787
0.90713302
0.90753568
0.90793488
0.90833021
0.90872122
0.90910745
0.90948838
0.90986346
0.91023206
0.91059353
0.91094711
0.91129198
0.9116272
0.91195171
0.91226424
0.91256336
0.91284739
0.91311437
0.913362
0.91358751
0.91378759
0.91395819
0.91409421
0.914189
0.90424218
0.90468849
0.90513611
0.90558418
0.90603246
0.90648067
0.90692846
0.90737545
0.90782114
0.90826496
0.90870622
0.90914414
0.90957776
0.91000598
0.91042752
0.9108409
0.91124443
0.91163618
0.91201396
0.91237533
0.91271757
0.91303763
0.91333214
0.91359732
0.91382884
0.91402159
0.91416924
0.90263669
0.90313277
0.90363327
0.904138
0.9046468
0.90515936
0.90567528
0.90619403
0.90671491
0.90723702
0.9077593
0.90828044
0.9087989
0.90931287
0.90982032
0.91031892
0.91080614
0.91127919
0.91173512
0.91217083
0.91258318
0.91296904
0.91332542
0.91364964
0.91393948
0.9141935
0.91441137
0.90151851
0.90207531
0.9026399
0.90321194
0.90379099
0.9043764
0.90496735
0.90556279
0.9061614
0.90676165
0.90736168
0.9079594
0.90855244
0.90913814
0.90971363
0.91027583
0.9108215
0.91134732
0.91184999
0.91232633
0.91277347
0.91318906
0.91357159
0.91392088
0.91423885
0.9145308
0.9148076
0.90803429
0.90840997
0.90878013
0.90914426
0.90950185
0.90985235
0.91019519
0.91052981
0.91085561
0.91117254
0.91147963
0.9117763
0.91206199
0.91233613
0.91259819
0.91284761
0.91308385
0.91330632
0.91351438
0.91370731
0.91388427
0.91404422
0.91418593
0.91430789
0.91440825
0.91448485
0.91453518
0.90728084
0.90766741
0.9080495
0.90842663
0.90879835
0.90916419
0.90952363
0.90987617
0.91022123
0.91055881
0.91088793
0.91120804
0.9115186
0.91181901
0.91210869
0.91238701
0.91265328
0.91290676
0.91314656
0.91337168
0.91358089
0.91377267
0.91394518
0.9140961
0.91422255
0.9143209
0.91438657
0.90591132
0.90632172
0.90672973
0.90713502
0.90753725
0.90793606
0.90833107
0.90872188
0.90910808
0.90948811
0.9098623
0.91023015
0.91059107
0.91094439
0.91128937
0.91162515
0.91195074
0.91226497
0.9125665
0.91285371
0.91312468
0.91337714
0.91360838
0.91381518
0.91399371
0.91413937
0.91424669
0.90423559
0.90468219
0.90512945
0.9055772
0.90602522
0.90647326
0.90692102
0.90736813
0.90781416
0.90825857
0.90870076
0.90914001
0.90957544
0.91000605
0.91043063
0.91084779
0.91125588
0.91165304
0.91203707
0.91240554
0.91275569
0.91308447
0.91338858
0.91366449
0.91390854
0.91411702
0.91428662
0.90262735
0.90312388
0.90362488
0.9041303
0.90463998
0.90515369
0.90567108
0.90619166
0.90671481
0.90723971
0.90776535
0.90829048
0.90881362
0.90933299
0.90984654
0.91035194
0.91084655
0.91132749
0.91179164
0.91223572
0.91265638
0.91305033
0.91341444
0.91374606
0.91404319
0.91430496
0.91453239
0.90153776
0.90209497
0.9026603
0.90323352
0.90381423
0.90440183
0.90499552
0.90559425
0.90619674
0.90680139
0.90740633
0.90800938
0.90860806
0.9091996
0.90978096
0.91034887
0.91089994
0.91143065
0.91193753
0.91241726
0.9128668
0.91328364
0.91366596
0.91401289
0.91432486
0.91460391
0.91485404
0.90803274
0.90840909
0.90877998
0.90914492
0.90950307
0.90985419
0.91019772
0.9105331
0.91085976
0.91117714
0.91148466
0.91178178
0.91206794
0.91234259
0.91260521
0.91285526
0.9130912
0.91331342
0.91352127
0.91371404
0.91389091
0.91405092
0.91419292
0.91431559
0.91441736
0.9144965
0.91455115
0.90727328
0.90766113
0.9080441
0.9084222
0.90879468
0.90916133
0.90952163
0.90987508
0.91022114
0.91055928
0.91088892
0.91120951
0.91152046
0.91182115
0.91211094
0.91238913
0.91265602
0.91290982
0.91314962
0.9133744
0.91358291
0.91377368
0.91394496
0.9140946
0.91422001
0.91431805
0.91438492
0.90590835
0.90631884
0.90672673
0.9071319
0.90753457
0.90793378
0.90832911
0.90872014
0.90910638
0.90948731
0.90986239
0.910231
0.91059246
0.91094604
0.9112909
0.91162612
0.91195061
0.91226313
0.91256224
0.91284625
0.91311321
0.91336081
0.91358629
0.91378634
0.9139569
0.91409285
0.91418753
0.90424109
0.9046874
0.90513502
0.90558309
0.90603137
0.90647958
0.90692737
0.90737435
0.90782004
0.90826385
0.90870511
0.90914302
0.90957663
0.91000484
0.91042637
0.91083974
0.91124325
0.91163498
0.91201274
0.91237408
0.91271629
0.91303631
0.91333078
0.91359591
0.91382737
0.91402006
0.91416763
0.90263556
0.90313165
0.90363214
0.90413688
0.90464567
0.90515822
0.90567415
0.90619289
0.90671376
0.90723587
0.90775814
0.90827926
0.9087977
0.90931166
0.90981909
0.91031768
0.91080487
0.91127789
0.91173379
0.91216947
0.91258178
0.91296759
0.91332392
0.91364808
0.91393786
0.9141918
0.91440959
0.90151735
0.90207415
0.90263874
0.90321078
0.90378982
0.90437523
0.90496618
0.90556161
0.90616021
0.90676044
0.90736047
0.90795818
0.90855119
0.90913688
0.90971235
0.91027452
0.91082015
0.91134594
0.91184857
0.91232487
0.91277197
0.91318751
0.91356997
0.91391919
0.91423708
0.91452893
0.91480561
0.90803394
0.90840962
0.90877978
0.90914393
0.90950152
0.90985203
0.9101949
0.91052955
0.91085542
0.91117247
0.91147963
0.91177633
0.91206203
0.91233617
0.91259822
0.91284763
0.91308384
0.91330629
0.91351433
0.91370723
0.91388416
0.91404409
0.91418578
0.91430771
0.91440806
0.91448464
0.91453495
0.90728052
0.90766709
0.90804917
0.90842631
0.90879804
0.90916388
0.90952334
0.90987591
0.91022102
0.91055869
0.91088783
0.91120796
0.91151851
0.91181892
0.91210858
0.91238688
0.91265314
0.9129066
0.9131464
0.91337151
0.9135807
0.91377248
0.91394498
0.91409589
0.91422233
0.91432066
0.9143863
0.90591131
0.90632172
0.90672972
0.90713501
0.90753723
0.90793602
0.908331
0.90872175
0.90910783
0.90948765
0.90986174
0.91022955
0.91059047
0.91094382
0.91128884
0.91162467
0.9119503
0.91226458
0.91256616
0.91285341
0.91312442
0.91337692
0.91360821
0.91381505
0.91399362
0.91413933
0.9142467
0.90423518
0.90468178
0.90512904
0.90557679
0.90602481
0.90647285
0.90692061
0.90736772
0.90781374
0.90825815
0.90870035
0.90913959
0.90957503
0.91000565
0.91043025
0.91084743
0.91125556
0.91165274
0.91203681
0.91240531
0.9127555
0.91308433
0.91338848
0.91366444
0.91390854
0.91411708
0.91428674
0.90262689
0.90312341
0.90362441
0.90412983
0.90463952
0.90515324
0.90567063
0.90619122
0.90671438
0.90723929
0.90776495
0.90829009
0.90881325
0.90933263
0.90984621
0.91035163
0.91084628
0.91132725
0.91179143
0.91223555
0.91265626
0.91305024
0.91341441
0.91374607
0.91404325
0.91430505
0.91453253
0.9015373
0.90209451
0.90265985
0.90323307
0.90381378
0.90440139
0.90499509
0.90559383
0.90619633
0.90680099
0.90740595
0.90800902
0.90860772
0.90919928
0.90978066
0.91034861
0.9108997
0.91143044
0.91193736
0.91241712
0.91286671
0.91328359
0.91366593
0.9140129
0.91432491
0.91460399
0.91485415
0.90803309
0.90840944
0.90878034
0.90914528
0.90950344
0.90985457
0.9101981
0.9105335
0.91086018
0.91117757
0.91148513
0.91178229
0.9120685
0.91234323
0.91260598
0.91285531
0.91309142
0.91331376
0.9135217
0.91371454
0.91389147
0.91405153
0.91419358
0.91431628
0.91441808
0.91449723
0.91455186
0.90727362
0.90766148
0.90804445
0.90842256
0.90879503
0.90916169
0.909522
0.90987546
0.91022152
0.91055966
0.9108893
0.91120988
0.91152081
0.91182145
0.91211115
0.91239013
0.9126569
0.91291064
0.91315042
0.91337519
0.91358371
0.91377451
0.91394582
0.9140955
0.91422095
0.91431903
0.91438595
0.9059088
0.90631929
0.90672719
0.90713236
0.90753504
0.90793425
0.9083296
0.90872064
0.90910689
0.90948785
0.90986294
0.91023157
0.91059306
0.91094667
0.91129157
0.91162683
0.91195137
0.91226393
0.91256307
0.91284713
0.91311415
0.91336181
0.91358735
0.91378747
0.91395811
0.91409414
0.91418893
0.90424166
0.90468796
0.9051356
0.90558367
0.90603195
0.90648017
0.90692798
0.90737497
0.90782067
0.90826451
0.90870579
0.90914372
0.90957736
0.9100056
0.91042716
0.91084057
0.91124413
0.91163591
0.91201372
0.91237513
0.91271741
0.91303751
0.91333206
0.91359729
0.91382886
0.91402167
0.91416937
0.90263621
0.90313229
0.90363279
0.90413753
0.90464633
0.9051589
0.90567483
0.90619359
0.90671448
0.90723661
0.9077589
0.90828006
0.90879853
0.90931253
0.90982
0.91031863
0.91080588
0.91127896
0.91173493
0.91217069
0.91258308
0.912969
0.91332544
0.91364972
0.91393964
0.91419374
0.9144117
0.90151804
0.90207485
0.90263944
0.90321149
0.90379054
0.90437596
0.90496692
0.90556236
0.90616099
0.90676125
0.9073613
0.90795904
0.90855209
0.90913782
0.90971334
0.91027556
0.91082126
0.91134712
0.91184984
0.91232623
0.91277343
0.91318909
0.9135717
0.91392107
0.91423913
0.91453117
0.91480808
0.90803493
0.90841061
0.90878078
0.90914493
0.90950254
0.90985307
0.91019596
0.91053064
0.91085702
0.91117408
0.91148126
0.91177799
0.91206372
0.9123379
0.91259998
0.91284944
0.91308571
0.91330821
0.91351631
0.91370928
0.91388628
0.91404628
0.91418804
0.91431004
0.91441044
0.91448706
0.91453737
0.90728176
0.90766833
0.90805042
0.90842757
0.90879932
0.90916518
0.90952466
0.90987722
0.91022281
0.91056043
0.91088959
0.91120974
0.91152032
0.91182076
0.91211047
0.91238882
0.91265515
0.91290869
0.91314857
0.91337378
0.91358309
0.91377498
0.91394761
0.91409866
0.91422525
0.91432375
0.91438957
0.90591332
0.90632373
0.90673174
0.90713704
0.90753929
0.90793811
0.90833313
0.90872392
0.90910905
0.90948898
0.90986319
0.91023112
0.91059216
0.91094563
0.91129078
0.91162674
0.91195251
0.91226694
0.91256867
0.91285608
0.91312726
0.91337995
0.91361143
0.91381848
0.91399729
0.91414326
0.91425092
0.90423727
0.90468388
0.90513115
0.9055789
0.90602694
0.906475
0.90692278
0.90736991
0.90781596
0.90826041
0.90870265
0.90914196
0.90957747
0.91000817
0.91043286
0.91085015
0.9112584
0.91165572
0.91203995
0.91240864
0.91275902
0.91308807
0.91339248
0.91366872
0.91391313
0.91412204
0.91429211
0.90262938
0.90312592
0.90362693
0.90413237
0.90464207
0.90515581
0.90567323
0.90619386
0.90671706
0.90724203
0.90776774
0.90829296
0.90881619
0.90933567
0.90984936
0.91035491
0.91084969
0.91133083
0.9117952
0.91223954
0.91266049
0.91305475
0.91341923
0.91375125
0.91404884
0.91431112
0.91453914
0.90154008
0.90209729
0.90266264
0.90323588
0.90381661
0.90440425
0.90499797
0.90559676
0.90619931
0.90680403
0.90740906
0.90801221
0.90861101
0.90920268
0.90978419
0.91035229
0.91090356
0.9114345
0.91194164
0.91242167
0.91287155
0.91328877
0.9136715
0.91401891
0.91433142
0.91461108
0.91486189
0.90803254
0.9084089
0.9087798
0.90914474
0.90950291
0.90985404
0.91019758
0.91053298
0.91085966
0.91117706
0.91148462
0.91178177
0.91206796
0.91234265
0.91260532
0.91285542
0.91309141
0.91331369
0.9135216
0.91371443
0.91389137
0.91405144
0.91419351
0.91431624
0.91441808
0.91449726
0.91455194
0.90727315
0.907661
0.90804398
0.90842209
0.90879457
0.90916124
0.90952156
0.90987503
0.91022111
0.91055927
0.91088895
0.91120958
0.91152056
0.9118213
0.91211113
0.91238938
0.91265632
0.91291019
0.91315006
0.91337491
0.9135835
0.91377437
0.91394573
0.91409546
0.91422097
0.9143191
0.91438606
0.90590835
0.90631884
0.90672674
0.90713191
0.90753459
0.90793381
0.90832917
0.90872021
0.90910648
0.90948744
0.90986255
0.91023119
0.9105927
0.91094633
0.91129125
0.91162652
0.91195109
0.91226369
0.91256288
0.91284698
0.91311405
0.91336176
0.91358737
0.91378755
0.91395826
0.91409438
0.91418927
0.90424123
0.90468753
0.90513517
0.90558324
0.90603154
0.90647976
0.90692757
0.90737458
0.90782029
0.90826413
0.90870543
0.90914338
0.90957704
0.91000531
0.9104269
0.91084034
0.91124393
0.91163574
0.9120136
0.91237506
0.91271739
0.91303755
0.91333217
0.91359747
0.91382912
0.91402202
0.91416982
0.90263582
0.90313191
0.90363241
0.90413716
0.90464596
0.90515854
0.90567448
0.90619325
0.90671414
0.90723629
0.9077586
0.90827977
0.90879826
0.90931228
0.90981978
0.91031845
0.91080573
0.91127885
0.91173486
0.91217067
0.91258312
0.9129691
0.91332561
0.91364998
0.91393998
0.91419418
0.91441225
0.90151769
0.90207449
0.90263909
0.90321114
0.90379019
0.90437562
0.90496659
0.90556204
0.90616068
0.90676095
0.90736102
0.90795878
0.90855185
0.9091376
0.90971315
0.91027541
0.91082115
0.91134705
0.91184981
0.91232626
0.91277353
0.91318926
0.91357194
0.91392141
0.91423957
0.91453172
0.91480875
0.90803486
0.90841054
0.90878071
0.90914486
0.90950247
0.909853
0.91019589
0.91053057
0.91085695
0.91117401
0.91148119
0.91177792
0.91206365
0.91233784
0.91259993
0.91284939
0.91308567
0.91330819
0.9135163
0.91370929
0.91388631
0.91404634
0.91418813
0.91431017
0.91441062
0.9144873
0.9145377
0.90728169
0.90766827
0.90805036
0.90842751
0.90879926
0.90916512
0.9095246
0.90987716
0.91022275
0.91056038
0.91088954
0.91120969
0.91152027
0.91182072
0.91211043
0.9123888
0.91265513
0.91290868
0.91314858
0.9133738
0.91358312
0.91377503
0.91394768
0.91409875
0.91422536
0.91432388
0.91438972
0.90591325
0.90632367
0.90673169
0.90713699
0.90753924
0.90793807
0.90833309
0.9087239
0.90910904
0.90948898
0.90986319
0.91023113
0.91059218
0.91094566
0.91129082
0.91162678
0.91195256
0.91226699
0.91256872
0.91285614
0.91312733
0.91338003
0.91361151
0.91381858
0.91399738
0.91414336
0.91425102
0.9042373
0.90468391
0.90513118
0.90557894
0.90602698
0.90647504
0.90692282
0.90736995
0.90781601
0.90826046
0.90870271
0.90914202
0.90957753
0.91000824
0.91043294
0.91085023
0.91125849
0.91165581
0.91204005
0.91240874
0.91275914
0.91308819
0.91339261
0.91366886
0.91391329
0.91412221
0.9142923
0.90262946
0.90312599
0.90362701
0.90413245
0.90464216
0.9051559
0.90567332
0.90619395
0.90671716
0.90724212
0.90776784
0.90829306
0.9088163
0.90933578
0.90984947
0.91035503
0.91084982
0.91133096
0.91179534
0.91223968
0.91266064
0.91305491
0.9134194
0.91375143
0.91404904
0.91431134
0.9145394
0.90154017
0.90209739
0.90266274
0.90323598
0.90381672
0.90440435
0.90499808
0.90559687
0.90619942
0.90680415
0.90740918
0.90801234
0.90861114
0.90920281
0.90978433
0.91035243
0.91090371
0.91143466
0.91194181
0.91242184
0.91287174
0.91328897
0.91367172
0.91401914
0.91433168
0.91461137
0.91486221
0.90803086
0.90840721
0.90877811
0.90914305
0.90950121
0.90985234
0.91019588
0.91053127
0.91085796
0.91117536
0.91148291
0.91178007
0.91206627
0.91234097
0.91260366
0.91285287
0.91308894
0.91331126
0.91351922
0.91371208
0.91388904
0.91404913
0.91419122
0.91431395
0.91441579
0.91449497
0.91454966
0.90727114
0.90765899
0.90804196
0.90842006
0.90879254
0.90915919
0.9095195
0.90987295
0.91021901
0.91055714
0.91088678
0.91120736
0.91151829
0.91181895
0.91210869
0.91238779
0.91265462
0.91290837
0.91314816
0.91337292
0.91358143
0.91377222
0.91394352
0.91409318
0.91421863
0.91431671
0.91438361
0.90590632
0.90631681
0.90672471
0.90712988
0.90753255
0.90793177
0.90832712
0.90871816
0.90910442
0.90948537
0.90986047
0.91022911
0.91059061
0.91094423
0.91128914
0.91162442
0.91194896
0.91226152
0.91256067
0.91284473
0.91311174
0.91335939
0.91358493
0.91378504
0.91395567
0.91409169
0.91418647
0.90423911
0.90468542
0.90513305
0.90558112
0.90602941
0.90647762
0.90692543
0.90737242
0.90781813
0.90826196
0.90870325
0.90914118
0.90957482
0.91000306
0.91042463
0.91083803
0.91124159
0.91163336
0.91201118
0.91237258
0.91271484
0.91303493
0.91332947
0.91359468
0.91382623
0.91401901
0.91416667
0.90263359
0.90312967
0.90363017
0.90413491
0.90464371
0.90515627
0.90567221
0.90619096
0.90671185
0.90723398
0.90775627
0.90827742
0.90879589
0.90930988
0.90981734
0.91031597
0.9108032
0.91127628
0.91173223
0.91216797
0.91258035
0.91296624
0.91332265
0.9136469
0.91393676
0.9141908
0.91440868
0.90151537
0.90207218
0.90263677
0.90320881
0.90378786
0.90437328
0.90496424
0.90555968
0.9061583
0.90675855
0.90735859
0.90795633
0.90854937
0.90913509
0.90971059
0.91027281
0.91081849
0.91134433
0.91184703
0.9123234
0.91277057
0.9131862
0.91356876
0.91391807
0.91423606
0.914528
0.91480477
0.90803416
0.90840984
0.90878001
0.90914416
0.90950177
0.90985228
0.91019513
0.91053017
0.9108565
0.91117354
0.91148072
0.91177745
0.91206319
0.91233738
0.91259948
0.91284896
0.91308526
0.9133078
0.91351593
0.91370895
0.913886
0.91404607
0.9141879
0.91430999
0.9144105
0.91448725
0.91453774
0.90728105
0.90766763
0.90804972
0.90842687
0.90879861
0.90916446
0.90952389
0.90987679
0.9102223
0.91055991
0.91088907
0.91120921
0.9115198
0.91182026
0.91210999
0.91238837
0.91265472
0.91290829
0.91314821
0.91337345
0.9135828
0.91377473
0.9139474
0.91409849
0.91422511
0.91432362
0.91438942
0.90591284
0.90632325
0.90673128
0.9071366
0.90753887
0.90793775
0.90833287
0.90872295
0.90910823
0.90948826
0.90986253
0.91023052
0.91059161
0.91094512
0.91129031
0.91162632
0.91195213
0.91226661
0.91256838
0.91285584
0.91312708
0.91337982
0.91361135
0.91381847
0.91399732