/*--------------------------------*- C++ -*----------------------------------*\
| =========                 |                                                 |
| \\      /  F ield         | OpenFOAM: The Open Source CFD Toolbox           |
|  \\    /   O peration     | Version:  4.0                                   |
|   \\  /    A nd           | Web:      www.OpenFOAM.org                      |
|    \\/     M anipulation  |                                                 |
\*---------------------------------------------------------------------------*/
FoamFile
{
    version     2.0;
    format      ascii;
    class       volScalarField;
    location    "1000";
    object      rho;
}
// * * * * * * * * * * * * * * * * * * * * * * * * * * * * * * * * * * * * * //

dimensions      [1 -3 0 0 0 0 0];

internalField   nonuniform List<scalar> 
18000
(
0.90081852
0.90131263
0.90160352
0.9016552
0.90142882
0.90088309
0.89997678
0.89867321
0.89694835
0.89479719
0.89225419
0.88941854
0.8864945
0.88387976
0.88203287
0.89890287
0.89940279
0.89969965
0.89975872
0.8995397
0.89900026
0.89809799
0.89679402
0.8950582
0.89288506
0.8903068
0.88742125
0.88444142
0.88164182
0.87958199
0.8953555
0.89587984
0.89620329
0.89628849
0.89609388
0.89557456
0.89468492
0.89338165
0.89162802
0.88941935
0.8868036
0.88383703
0.88071871
0.87778381
0.87553035
0.89096917
0.89154072
0.89191427
0.89205014
0.89190353
0.89142557
0.89056649
0.88928325
0.88752871
0.88529218
0.88260342
0.87956332
0.87640174
0.87341863
0.87105603
0.88674564
0.88738916
0.88783728
0.88804671
0.88796775
0.88754527
0.88672093
0.88544087
0.88367095
0.88139565
0.87865697
0.87557295
0.87230724
0.86929699
0.86689412
0.88379102
0.88451741
0.8850418
0.88531264
0.88526888
0.8848485
0.88399085
0.88263141
0.88074001
0.87832349
0.87542245
0.87227531
0.86911299
0.86624747
0.86398458
0.9564268
0.95708759
0.95769249
0.9582314
0.95869425
0.95906931
0.95934527
0.95951137
0.95955569
0.95947223
0.95926706
0.95896326
0.95862607
0.95842012
0.95828754
0.95550205
0.95617788
0.95680081
0.95736085
0.95784694
0.95824822
0.95855107
0.95874168
0.95881671
0.95877371
0.95861281
0.95836516
0.95813678
0.95789232
0.95777323
0.95373179
0.95445129
0.95512182
0.95573238
0.95627523
0.95673816
0.95710877
0.95737524
0.95752829
0.95757042
0.95752825
0.95737889
0.95718222
0.9570247
0.95704714
0.95154263
0.95232651
0.9530711
0.95376536
0.9543995
0.95496133
0.95543932
0.95582704
0.95610246
0.95626179
0.95630712
0.95625982
0.95618025
0.95621445
0.95655101
0.94943003
0.95030492
0.95114901
0.9519553
0.95270906
0.95339764
0.95400578
0.95451679
0.95491494
0.95518491
0.95533334
0.95537693
0.95528473
0.95546821
0.95616188
0.94796035
0.94894425
0.94990302
0.9508261
0.95169582
0.95249867
0.95322168
0.95383102
0.95431085
0.9546434
0.95477932
0.95491548
0.95514585
0.9556977
0.95690581
0.96280186
0.9634894
0.96415945
0.96480796
0.96543133
0.96602568
0.96658691
0.9671108
0.96759325
0.96802741
0.9684118
0.96874277
0.96902261
0.96924911
0.96942761
0.96214047
0.96285059
0.96354555
0.9642232
0.96488034
0.96551352
0.96611901
0.96669284
0.96723071
0.96773113
0.96818778
0.96859825
0.96895805
0.9692789
0.96955562
0.9609103
0.96166662
0.96241611
0.96315679
0.9638863
0.96460192
0.96530058
0.96597879
0.96663275
0.96725847
0.96785213
0.96841104
0.96893524
0.96942637
0.96991428
0.95942041
0.96024512
0.96107418
0.96190672
0.96274135
0.96357606
0.96440809
0.96523372
0.96604833
0.96684669
0.967624
0.9683785
0.9691167
0.96986104
0.97066061
0.95798132
0.95890009
0.95983702
0.96079198
0.96176384
0.96275016
0.96374689
0.96474819
0.96574665
0.96673447
0.96770619
0.96866397
0.96962589
0.97063671
0.97177559
0.95699511
0.95802697
0.95908979
0.96018229
0.96130117
0.96244089
0.96359347
0.96474897
0.96589674
0.96702822
0.96814173
0.96924963
0.97038616
0.97161241
0.97300901
0.96280762
0.96349746
0.96417306
0.96483191
0.96547132
0.96608847
0.96668045
0.96724416
0.96777627
0.96827291
0.96872922
0.9691386
0.96949169
0.96977504
0.96996978
0.96211137
0.96282367
0.96352566
0.96421523
0.9648901
0.96554781
0.96618567
0.96680068
0.96738932
0.96794721
0.9684685
0.96894502
0.96936501
0.96971137
0.96995891
0.96083215
0.96158939
0.96234405
0.96309475
0.96383994
0.96457771
0.96530566
0.96602065
0.96671853
0.96739356
0.96803783
0.96864029
0.96918547
0.96965135
0.97000483
0.95924834
0.96007453
0.96090934
0.96175225
0.96260237
0.96345808
0.96431672
0.96517416
0.96602437
0.96685892
0.96766652
0.96843261
0.96913892
0.96976237
0.97027137
0.95770478
0.95862399
0.9595653
0.96052859
0.96151288
0.96251564
0.96353234
0.96455595
0.96557659
0.96658141
0.96755487
0.96847957
0.96933761
0.97011237
0.97078992
0.95661222
0.9576449
0.95871137
0.9598102
0.9609381
0.96208934
0.96325533
0.96442442
0.96558198
0.96671096
0.96779307
0.96881086
0.96975085
0.97060855
0.97139816
0.96271878
0.96340848
0.96408407
0.96474307
0.96538283
0.9660006
0.96659353
0.96715864
0.9676927
0.9681961
0.96866027
0.9690781
0.96943877
0.96972556
0.96991309
0.96203402
0.96274493
0.96344563
0.96413404
0.96480799
0.96546517
0.96610309
0.96671898
0.96730936
0.96787399
0.9684031
0.96888856
0.96931733
0.9696692
0.96991333
0.96075206
0.96150957
0.96226467
0.96301621
0.96376284
0.96450294
0.96523455
0.96595521
0.96666164
0.96734038
0.9679916
0.96860353
0.96915888
0.96963297
0.96999206
0.95918713
0.96001278
0.96084725
0.96169045
0.96254178
0.96339998
0.96426286
0.96512671
0.96598574
0.96683133
0.96765144
0.96842959
0.96914432
0.96976974
0.97027873
0.95767245
0.958592
0.95953417
0.96049944
0.9614872
0.96249538
0.96351983
0.96455364
0.96558653
0.96660426
0.96758853
0.96851763
0.9693682
0.9701189
0.97075813
0.95663778
0.95767021
0.95873794
0.95984003
0.96097343
0.96213234
0.96330771
0.9644868
0.96565304
0.96678648
0.96786486
0.9688658
0.96977023
0.97056737
0.97126099
0.96254166
0.96323146
0.96390638
0.96456309
0.96519974
0.96581345
0.96640128
0.96696019
0.96748694
0.96797778
0.96842794
0.96883073
0.96917634
0.96945026
0.96963177
0.96182851
0.9625392
0.96323901
0.9639265
0.96459845
0.96525236
0.96588554
0.96649494
0.96707705
0.96762742
0.96814005
0.96860633
0.96901349
0.96934261
0.96956582
0.96051629
0.9612724
0.96202521
0.96277322
0.96351475
0.96424776
0.96496971
0.96567731
0.96636615
0.9670301
0.96766057
0.96824526
0.96876653
0.96919883
0.96950431
0.95889461
0.95971943
0.96055202
0.96139168
0.96223734
0.96308714
0.96393813
0.96478579
0.96562349
0.9664419
0.96722823
0.96796538
0.968631
0.96919586
0.96962075
0.95731716
0.95823479
0.95917353
0.96013305
0.96111207
0.9621077
0.96311491
0.96412599
0.96513001
0.96611251
0.96705533
0.96793689
0.96873279
0.96941727
0.96996592
0.95620409
0.95723503
0.95829865
0.95939321
0.96051507
0.96165797
0.96281261
0.96396636
0.96510303
0.96620321
0.96724478
0.96820429
0.96905938
0.96979395
0.97041054
0.96249612
0.96318489
0.96385839
0.96451393
0.96514867
0.96575965
0.96634378
0.96689789
0.96742193
0.96790915
0.96835473
0.9687519
0.96909058
0.9693555
0.96952392
0.96179406
0.96250388
0.96320223
0.96388684
0.96455531
0.96520504
0.96583327
0.96643677
0.96701519
0.96756101
0.9680687
0.96852982
0.96893161
0.96925456
0.96946924
0.96047946
0.96123563
0.961988
0.96273521
0.96347561
0.96420727
0.96492791
0.9656347
0.96631691
0.96697516
0.96760111
0.96818261
0.96870206
0.96913448
0.96944563
0.95886981
0.95969382
0.96052505
0.96136306
0.96220688
0.96305481
0.96390407
0.96475035
0.96558717
0.96640535
0.96719192
0.96792933
0.96859486
0.96916084
0.96959729
0.95731121
0.95822888
0.95916732
0.96012659
0.96110559
0.96210164
0.96310989
0.9641226
0.96512849
0.96611223
0.96705423
0.96793118
0.9687176
0.96938914
0.96992968
0.95624568
0.95727597
0.95833939
0.95943449
0.96055754
0.96170199
0.96285787
0.96401138
0.96514476
0.96623666
0.9672632
0.96819999
0.96902538
0.96972532
0.97030007
0.96244953
0.96313817
0.9638113
0.96446623
0.96510009
0.96570991
0.9662926
0.96684498
0.96736365
0.96784479
0.96828364
0.96867379
0.96900601
0.96926707
0.96943852
0.96172942
0.96244032
0.96313955
0.96382477
0.9644935
0.96514303
0.96577047
0.96637261
0.96694573
0.96748527
0.96798518
0.968437
0.96882848
0.96914183
0.96935143
0.96040805
0.96116356
0.96191494
0.96266054
0.96339852
0.96412663
0.96484211
0.96554142
0.9662199
0.9668712
0.96748655
0.9680536
0.96855492
0.9689657
0.96924981
0.95877463
0.95959873
0.96042968
0.96126661
0.96210824
0.96295248
0.96379609
0.96463423
0.96545995
0.96626356
0.96703191
0.9677476
0.96838802
0.96892372
0.96931503
0.95718685
0.95810368
0.95904061
0.95999711
0.96097167
0.96196111
0.96296009
0.96396052
0.96495108
0.96591689
0.96683944
0.96769684
0.96846455
0.96911599
0.96962076
0.95606712
0.95709718
0.95815881
0.95925008
0.96036704
0.96150311
0.96264865
0.96379061
0.96491244
0.96599442
0.96701448
0.96795008
0.96878194
0.96950302
0.97013882
0.96244647
0.96313424
0.96380626
0.96445975
0.9650918
0.96569932
0.96627912
0.96682791
0.96734543
0.96782474
0.96826486
0.96865522
0.96898629
0.96924374
0.96940649
0.96173231
0.9624425
0.96314075
0.96382469
0.96449181
0.96513943
0.96576468
0.96636425
0.96693776
0.96747787
0.9679752
0.96842546
0.96881606
0.96912803
0.96933299
0.96040922
0.96116495
0.96191633
0.96266189
0.96339987
0.96412821
0.96484446
0.96554559
0.96622076
0.96687027
0.96748562
0.9680547
0.96856013
0.96897742
0.96927302
0.95878296
0.95960641
0.96043643
0.96127244
0.96211333
0.9629572
0.96380108
0.96464037
0.96546836
0.96627558
0.96704887
0.96777055
0.96841793
0.96896355
0.96937753
0.9572069
0.95812392
0.95906094
0.96001786
0.96099338
0.96198457
0.96298629
0.9639905
0.9649856
0.96595596
0.96688175
0.96773953
0.96850378
0.96915011
0.96966186
0.95612845
0.957158
0.95821976
0.95931207
0.96043096
0.96156958
0.96271764
0.96386099
0.96498156
0.96605774
0.96706546
0.96798026
0.96878043
0.96945171
0.96999346
0.96249589
0.96318378
0.96385595
0.96450967
0.96514204
0.96575003
0.96633051
0.96688028
0.96739595
0.9678737
0.96830878
0.96869469
0.96902197
0.9692766
0.96944362
0.96177557
0.96248587
0.96318427
0.96386842
0.96453581
0.96518376
0.96580941
0.96640964
0.96698091
0.96751888
0.96801778
0.96846939
0.96886142
0.9691751
0.96938704
0.96044941
0.96120521
0.9619566
0.96270207
0.96343979
0.96416761
0.96488293
0.9655825
0.96626206
0.96691581
0.96753558
0.96810965
0.96862127
0.96904684
0.96934308
0.95882956
0.95965314
0.96048328
0.96131944
0.96216048
0.96300458
0.96384883
0.96468883
0.96551806
0.96632721
0.9671033
0.96782894
0.9684818
0.96903477
0.96945895
0.9572579
0.95817506
0.95911222
0.96006927
0.96104494
0.96203635
0.96303843
0.96404326
0.96503943
0.96601155
0.96694018
0.96780235
0.96857324
0.96922957
0.96975687
0.95618176
0.95721146
0.95827337
0.95936583
0.9604849
0.96162378
0.96277225
0.96391633
0.96503817
0.96611647
0.96712765
0.96804785
0.96885627
0.96954009
0.97010144
0.96248751
0.96317534
0.96384737
0.96450085
0.96513281
0.96574017
0.96631966
0.96687048
0.96738714
0.96786572
0.9683061
0.96869734
0.96902981
0.96928913
0.96945436
0.96176937
0.96247969
0.96317822
0.96386262
0.96453043
0.96517906
0.96580578
0.96640502
0.96697525
0.96751183
0.96801328
0.96846656
0.96885975
0.96917422
0.96938185
0.96044153
0.96119734
0.96194884
0.96269455
0.96343269
0.96416116
0.9648774
0.96557825
0.96625966
0.96691627
0.96753053
0.96809974
0.96860645
0.96902607
0.96932471
0.95881461
0.95963817
0.96046838
0.9613047
0.96214601
0.96299048
0.96383516
0.96467558
0.96550512
0.96631414
0.96708933
0.96781334
0.96846381
0.96901348
0.96943244
0.95723701
0.95815414
0.95909135
0.96004857
0.96102449
0.96201622
0.96301866
0.96402381
0.96502016
0.96599217
0.96692015
0.96778085
0.96854894
0.96920014
0.96971783
0.95615765
0.95718731
0.95824927
0.95934188
0.96046116
0.9616003
0.96274905
0.96389331
0.96501512
0.96609297
0.96710294
0.96802066
0.96882449
0.96950014
0.97004731
0.96258284
0.96327172
0.96394517
0.96460049
0.9652348
0.96584506
0.96642818
0.96698092
0.96749985
0.9679811
0.96842463
0.96881954
0.96915612
0.96941991
0.96958965
0.9618804
0.96259033
0.96328861
0.96397293
0.96464085
0.96528976
0.96591684
0.96651902
0.96709275
0.96763342
0.96813963
0.9685984
0.96899806
0.96932034
0.96953778
0.96056343
0.96131967
0.96207183
0.96281848
0.96355788
0.964288
0.96500643
0.96571014
0.96639526
0.9670566
0.96767677
0.9682535
0.96876996
0.96920268
0.96952008
0.95895499
0.95977909
0.96061012
0.96144759
0.96229049
0.96313708
0.96398458
0.9648287
0.96566306
0.96647835
0.96726173
0.96799653
0.96866159
0.96923181
0.96968152
0.9573957
0.95831344
0.95925161
0.9602102
0.96118805
0.96218242
0.96318843
0.96419836
0.96520107
0.96618151
0.96712072
0.96799653
0.96878546
0.96946665
0.97002983
0.95632902
0.9573594
0.9584225
0.9595168
0.96063853
0.96178108
0.96293449
0.96408506
0.9652153
0.96630439
0.96732943
0.96826765
0.96910007
0.96981669
0.970424
0.9625536
0.96324257
0.96391646
0.96457338
0.96520981
0.96582226
0.96640791
0.96696363
0.96748595
0.96797105
0.96841457
0.96880469
0.96913675
0.96939973
0.9695747
0.96184534
0.96255666
0.96325655
0.96394205
0.96461189
0.96526305
0.96589321
0.96649994
0.9670752
0.9676097
0.96810281
0.96855573
0.96895492
0.96927728
0.96949812
0.96052358
0.96127937
0.96203108
0.96277697
0.96351482
0.96424355
0.96496008
0.96566102
0.96634141
0.96699413
0.96761156
0.96818407
0.9686955
0.96912254
0.96943556
0.95889395
0.95971837
0.96054967
0.96138692
0.96222875
0.9630728
0.96391514
0.96474925
0.96557673
0.96639084
0.96716463
0.96789206
0.96854629
0.9691003
0.96956536
0.95731192
0.95822919
0.95916678
0.96012416
0.9610998
0.96209049
0.96309076
0.96408992
0.96507669
0.96605176
0.96700039
0.96788257
0.96865632
0.96934994
0.96992191
0.95619738
0.95722806
0.95829086
0.95938397
0.96050366
0.96164367
0.96279489
0.9639476
0.96508711
0.96618899
0.96723169
0.96819291
0.9690724
0.96979591
0.97030434
0.96269402
0.96338326
0.96405741
0.96471381
0.96534964
0.96596193
0.96654764
0.96710359
0.96762644
0.96811231
0.9685613
0.96896243
0.96930596
0.9695773
0.9697548
0.96199796
0.9627083
0.96340733
0.96409281
0.96476235
0.9654134
0.96604323
0.96664885
0.96722678
0.9677725
0.96828475
0.96875063
0.96915858
0.96949047
0.96971904
0.96069309
0.96144983
0.96220285
0.96295079
0.96369198
0.96442449
0.96514599
0.96585359
0.96654355
0.96721085
0.96783823
0.96842377
0.96895101
0.96939706
0.96973157
0.95909999
0.95992467
0.96075666
0.96159558
0.96244049
0.96328977
0.96414077
0.96498941
0.96582951
0.96665207
0.96744456
0.96819079
0.96887028
0.96945921
0.96993439
0.95755552
0.95847393
0.95941321
0.96037347
0.96135369
0.9623513
0.96336161
0.96437717
0.9653871
0.96637676
0.9673277
0.96821845
0.96902667
0.96973344
0.97033118
0.95649873
0.95752987
0.95859427
0.95969057
0.96081518
0.96196172
0.96312049
0.96427814
0.96541758
0.96651857
0.9675589
0.96851681
0.96937455
0.97012333
0.97077154
0.9626088
0.96329864
0.96397347
0.96463064
0.96526739
0.96588079
0.96646787
0.96702554
0.96755054
0.96803922
0.96848711
0.96888317
0.96922274
0.96949209
0.96967202
0.96190096
0.96261171
0.96331117
0.96399709
0.96466707
0.96531852
0.96594864
0.96655427
0.96713175
0.96767642
0.96818193
0.96864435
0.96904701
0.96937213
0.96959384
0.96057748
0.96133352
0.96208586
0.96283291
0.9635729
0.9643037
0.96502263
0.96572629
0.96641016
0.96706809
0.96769157
0.96826875
0.96878227
0.9692077
0.9695093
0.9589444
0.9597691
0.96060109
0.96143956
0.96228334
0.96313041
0.96397765
0.96482035
0.96565171
0.96646227
0.96723922
0.9679657
0.96861996
0.96917415
0.9695914
0.95735532
0.95827276
0.95921072
0.96016873
0.96114535
0.96213747
0.96313983
0.96414447
0.96514021
0.9661124
0.96704285
0.96791022
0.9686909
0.96936052
0.96989676
0.95623407
0.95726478
0.95832745
0.95942019
0.96053912
0.96167772
0.9628264
0.96397221
0.9650987
0.96618624
0.96721277
0.9681552
0.9689921
0.96970877
0.97030916
0.96259979
0.96329025
0.96396553
0.96462296
0.96525969
0.96587275
0.96645904
0.96701534
0.96753818
0.9680236
0.96846665
0.96886045
0.96919475
0.96945533
0.96962255
0.9618891
0.96260163
0.96330274
0.96399018
0.96466147
0.96531393
0.96594459
0.96655006
0.96712664
0.96766991
0.9681742
0.96863223
0.96902022
0.96932861
0.96953333
0.96058899
0.96134578
0.96209871
0.96284632
0.9635869
0.96431838
0.96503836
0.96573444
0.9664099
0.96705836
0.96767117
0.96823742
0.96873398
0.96914328
0.96943278
0.95898439
0.959807
0.96063584
0.96147023
0.9623088
0.9631494
0.96398938
0.96482107
0.96564095
0.96643789
0.96719813
0.96790246
0.96854773
0.96909401
0.9695067
0.95739054
0.95830532
0.9592391
0.96019116
0.96115968
0.96214108
0.9631292
0.9641288
0.9651169
0.96607888
0.96699672
0.96784979
0.96861684
0.96927446
0.96980086
0.95624999
0.95728021
0.95834133
0.95943126
0.96054594
0.96167875
0.96282018
0.96395759
0.96507408
0.96614986
0.96716283
0.9680903
0.96891173
0.96961386
0.97020372
0.96259275
0.96328233
0.96395627
0.96461186
0.96524622
0.96585631
0.96643906
0.9669913
0.96750971
0.96799071
0.96843005
0.96881727
0.96914853
0.96941178
0.96959051
0.96186668
0.96257704
0.9632754
0.9639594
0.96462651
0.96527401
0.96589892
0.96649795
0.96706731
0.9676023
0.96809667
0.9685468
0.96893699
0.96925126
0.96946689
0.96050829
0.96126369
0.96201451
0.96275899
0.96349517
0.96422065
0.96493248
0.96562693
0.96629913
0.96694263
0.96754883
0.96810602
0.96859761
0.96900091
0.96928352
0.95882714
0.95965087
0.96048074
0.96131569
0.96215418
0.9629938
0.96383091
0.96466021
0.96547425
0.96626294
0.96701297
0.96770729
0.96832449
0.96883748
0.96921058
0.95718764
0.95810378
0.95903893
0.95999222
0.96096168
0.96194357
0.96293186
0.9639177
0.96488899
0.96583015
0.9667222
0.96754317
0.96826866
0.96887244
0.96932676
0.95603204
0.9570612
0.95812046
0.95920736
0.96031731
0.96144296
0.96257375
0.96369561
0.964791
0.96583927
0.96681743
0.96770133
0.96846735
0.96909472
0.96957064
0.96463998
0.96533567
0.96601928
0.9666885
0.9673408
0.96797347
0.96858353
0.96916774
0.96972239
0.97024305
0.97071892
0.97114676
0.97151579
0.97181092
0.97201138
0.96395586
0.96467243
0.96538025
0.96607739
0.96676164
0.96743051
0.96808118
0.96871029
0.9693138
0.9698868
0.9704173
0.97090044
0.97132196
0.9716627
0.97189631
0.96267407
0.96343415
0.96419245
0.96494751
0.96569763
0.96644057
0.96717331
0.96789178
0.96859027
0.96926071
0.96990282
0.97049358
0.97101462
0.97144132
0.97173988
0.96105783
0.96188801
0.96272678
0.96357332
0.96442627
0.9652833
0.96614072
0.96699296
0.96783207
0.96864717
0.96942396
0.97014282
0.97078013
0.9713073
0.97168902
0.95948356
0.96040674
0.96135104
0.96231579
0.96329917
0.96429746
0.96530448
0.96631096
0.96730404
0.96826691
0.96917888
0.97001581
0.9707514
0.97135883
0.97181303
0.95836813
0.9594049
0.96047368
0.96157221
0.96269598
0.96383761
0.96498626
0.96612726
0.96724201
0.96830824
0.96930085
0.97019344
0.97096076
0.97158268
0.97205153
0.99588732
0.99667593
0.99752279
0.99843813
0.99943382
1.0005235
1.001723
1.0030502
1.0045002
1.0060715
1.0077466
1.0094826
1.0111803
1.0126852
1.0137829
0.99563367
0.99644909
0.99732682
0.99827774
0.99931434
1.0004511
1.0017049
1.0030948
1.0046438
1.0063303
1.0081053
1.0099532
1.0117701
1.0134577
1.0147519
0.99515049
0.99601916
0.99695857
0.99798102
0.99909442
1.0003192
1.0016732
1.0031766
1.0048526
1.0067311
1.0087234
1.0108063
1.0129322
1.0149238
1.0165629
0.99449171
0.99543695
0.99646436
0.99758811
0.99882261
1.0001873
1.001702
1.00339
1.0052791
1.0074026
1.0097203
1.0121433
1.0145925
1.0169363
1.0189828
0.99376354
0.9948131
0.9959603
0.99722013
0.99861829
1.0001686
1.0018946
1.0038249
1.005995
1.0084527
1.0110706
1.0137976
1.016552
1.019212
1.0216157
0.99322443
0.99440429
0.99569978
0.99712793
0.99870838
1.0004639
1.0024226
1.0046212
1.0071123
1.0098022
1.0126511
1.0155994
1.0185554
1.0213943
1.0239727
1.0526721
1.0536224
1.0547238
1.0560008
1.0574806
1.0591921
1.0611646
1.0634257
1.0659817
1.0688247
1.0719131
1.0751471
1.0783355
1.0811492
1.0830572
1.053061
1.0540473
1.0551914
1.0565192
1.0580591
1.0598414
1.0618965
1.0642523
1.0669322
1.0699225
1.0731818
1.0766112
1.0800216
1.0830875
1.085286
1.0537013
1.0547578
1.0559852
1.0574117
1.0590686
1.0609892
1.0632073
1.0657547
1.0686567
1.0719253
1.0755004
1.0792858
1.0830961
1.0866178
1.0893623
1.054408
1.0555659
1.0569137
1.058483
1.0603089
1.0624287
1.0648807
1.0677011
1.0709194
1.0745519
1.078533
1.0827624
1.087052
1.091095
1.0944372
1.0549712
1.056258
1.0577582
1.0595074
1.0615445
1.0639113
1.0666495
1.0697983
1.0733885
1.0774345
1.0818545
1.0865331
1.091265
1.0957325
1.0994959
1.0552543
1.0566944
1.0583742
1.0603328
1.062613
1.0652597
1.0683178
1.0718288
1.0758257
1.0802666
1.0850777
1.0901114
1.0951225
1.0997521
1.1035298
0.87664913
0.87708147
0.87726401
0.87715447
0.87670756
0.8758772
0.87462055
0.87290471
0.87071761
0.86808447
0.86509239
0.86192324
0.85889714
0.85653743
0.8556534
0.87414251
0.8745765
0.87476108
0.87465421
0.87420986
0.87338235
0.87212865
0.87041495
0.86823413
0.86561869
0.86266997
0.85962176
0.85676747
0.85465534
0.85410998
0.86938726
0.86983596
0.87003603
0.8699444
0.86951466
0.86870055
0.86746006
0.86576465
0.86363377
0.86109188
0.85825179
0.85535381
0.85274809
0.85103107
0.85106153
0.86312612
0.86360899
0.86384568
0.86379185
0.86340199
0.86262936
0.86143471
0.85979536
0.85771943
0.85525017
0.85251936
0.8497264
0.84738539
0.8461722
0.84709193
0.85621649
0.85675657
0.85705373
0.85706153
0.85673044
0.85601099
0.8548601
0.85325015
0.85115861
0.84868071
0.84598149
0.84337675
0.84139263
0.8408264
0.84282136
0.84971498
0.85033249
0.85069877
0.85075881
0.85045292
0.84972144
0.84851373
0.84680318
0.84461063
0.84203927
0.83931491
0.83683561
0.83522166
0.83535614
0.83839816
1.0243487
1.0252
1.0261156
1.0271089
1.0281968
1.0293999
1.0307437
1.0322595
1.0339856
1.0359687
1.0382649
1.0409404
1.0440722
1.0477469
1.0520592
1.0235484
1.024425
1.0253704
1.0263992
1.0275288
1.028781
1.0301823
1.0317653
1.0335698
1.0356437
1.0380443
1.040839
1.0441055
1.0479309
1.0524109
1.0220258
1.0229552
1.023963
1.0250652
1.026281
1.027634
1.0291527
1.0308719
1.0328332
1.0350867
1.0376911
1.0407146
1.0442346
1.0483373
1.0531173
1.0200222
1.0210335
1.0221379
1.0233531
1.0247007
1.0262066
1.0279018
1.029823
1.0320139
1.0345256
1.037417
1.0407549
1.0446131
1.0490715
1.0542178
1.0178564
1.0189789
1.0202132
1.0215794
1.0231011
1.0248065
1.026728
1.0289039
1.0313779
1.0342002
1.037427
1.0411193
1.0453406
1.0501538
1.0556208
1.0159073
1.0171668
1.018559
1.0201054
1.021831
1.0237649
1.02594
1.0283943
1.0311708
1.034317
1.0378831
1.0419173
1.0464562
1.0515083
1.0570253
1.030274
1.0311472
1.0321013
1.0331519
1.0343175
1.0356205
1.037087
1.0387484
1.0406415
1.0428093
1.0453019
1.0481765
1.0514983
1.0553405
1.0597856
1.0296365
1.0305375
1.0315243
1.0326133
1.0338239
1.0351791
1.0367063
1.0384376
1.0404106
1.042669
1.0452631
1.0482502
1.0516947
1.0556686
1.0602521
1.0284307
1.0293867
1.0304384
1.0316035
1.0329031
1.0343617
1.0360081
1.0378761
1.0400044
1.0424373
1.0452253
1.0484244
1.052097
1.056312
1.0611472
1.0268274
1.0278665
1.0290158
1.030295
1.0317272
1.0333389
1.035161
1.0372283
1.0395805
1.0422619
1.0453211
1.0488109
1.0527884
1.057315
1.0624632
1.025037
1.0261868
1.0274654
1.0288946
1.0304996
1.0323088
1.0343542
1.0366715
1.0392998
1.0422815
1.0456613
1.0494859
1.0538029
1.0586598
1.0641082
1.0233013
1.0245869
1.0260221
1.0276304
1.0294383
1.031475
1.033773
1.0363673
1.0392956
1.0425974
1.046313
1.0504817
1.0551374
1.0602983
1.0659248
1.0304564
1.0313278
1.0322804
1.0333299
1.0344951
1.0357983
1.0372663
1.0389308
1.0408292
1.0430052
1.0455096
1.0484005
1.0517431
1.0556095
1.0600745
1.0297296
1.0306272
1.0316107
1.0326967
1.0339046
1.0352578
1.036784
1.0385159
1.0404919
1.0427569
1.0453626
1.0483682
1.0518413
1.0558458
1.0604524
1.0283382
1.02929
1.0303374
1.0314983
1.0327938
1.0342488
1.0358928
1.0377603
1.0398912
1.0423318
1.0451349
1.0483604
1.0520752
1.0563397
1.0612104
1.026477
1.0275122
1.0286575
1.0299325
1.0313604
1.0329683
1.0347874
1.0368537
1.0392085
1.0418986
1.0449763
1.0485003
1.0525367
1.0571378
1.0623582
1.0244066
1.0255543
1.0268307
1.0282573
1.0298595
1.0316658
1.0337088
1.0360252
1.0386559
1.0416464
1.0450465
1.0489102
1.0532935
1.0582459
1.0638422
1.0224407
1.0237272
1.025163
1.0267715
1.0285786
1.0306135
1.0329083
1.0354985
1.0384225
1.0417208
1.045434
1.0495967
1.0542233
1.0595367
1.0656695
1.0304388
1.0313131
1.0322699
1.0333252
1.0344979
1.0358106
1.0372902
1.0389685
1.0408829
1.043077
1.0456013
1.0485137
1.051879
1.0557698
1.0602654
1.0297897
1.0306917
1.0316812
1.032775
1.0339928
1.0353582
1.0368988
1.0386474
1.0406423
1.0429279
1.0455551
1.0485817
1.0520725
1.056099
1.0607395
1.0285609
1.029518
1.0305724
1.0317425
1.0330494
1.0345185
1.036179
1.0380652
1.0402167
1.0426789
1.0455028
1.048746
1.0524716
1.0567489
1.0616549
1.026923
1.0279631
1.0291151
1.0303993
1.0318391
1.0334616
1.0352982
1.0373848
1.039762
1.0424754
1.0455753
1.0491167
1.053159
1.0577656
1.0630088
1.0250868
1.0262375
1.0275187
1.028953
1.0305659
1.0323864
1.0344475
1.0367858
1.0394421
1.0424606
1.0458891
1.0497775
1.054177
1.0591371
1.0647092
1.0232919
1.0245782
1.0260162
1.0276299
1.0294462
1.0314955
1.033811
1.0364296
1.039391
1.0427376
1.0465135
1.0507616
1.0555184
1.0607997
1.0665632
1.0308122
1.0316861
1.0326435
1.0337003
1.034876
1.03619
1.0376724
1.0393552
1.0412762
1.0434796
1.0460163
1.0489441
1.0523279
1.0562384
1.0607505
1.0301073
1.0310057
1.0319919
1.0330824
1.034297
1.035663
1.0372056
1.0389579
1.0409589
1.0432538
1.0458944
1.0489397
1.0524552
1.0565126
1.0611887
1.0287475
1.0297014
1.0307532
1.0319211
1.0332267
1.0346954
1.0363572
1.0382471
1.0404057
1.0428797
1.0457221
1.0489926
1.0527569
1.0570868
1.0620603
1.0269402
1.0279781
1.0291286
1.0304121
1.031852
1.0334762
1.0353164
1.0374096
1.0397979
1.0425286
1.0456549
1.0492353
1.0533336
1.0580194
1.0633704
1.0249382
1.0260891
1.0273716
1.028808
1.0304241
1.0322495
1.0343176
1.0366662
1.0393375
1.0423785
1.0458402
1.0497777
1.0542487
1.059313
1.0650326
1.0230415
1.0243314
1.0257739
1.0273929
1.0292153
1.0312714
1.0335948
1.0362233
1.0391985
1.0425682
1.0463796
1.050679
1.055508
1.060891
1.066804
1.0309396
1.031814
1.0327722
1.0338303
1.0350073
1.0363259
1.0378124
1.0395051
1.0414391
1.0436577
1.0462116
1.0491598
1.0525666
1.056501
1.0610395
1.0303002
1.0312033
1.0321958
1.0332949
1.0345207
1.0358976
1.0374545
1.0392188
1.0412323
1.0435415
1.0461985
1.0492621
1.0528031
1.056883
1.0615605
1.029133
1.0300904
1.0311473
1.0323223
1.0336373
1.0351178
1.036794
1.0387006
1.0408782
1.0433728
1.0462368
1.0495289
1.053313
1.0576485
1.062606
1.0275881
1.0286297
1.0297854
1.0310755
1.0325289
1.034178
1.0360441
1.0381616
1.0405799
1.0433421
1.0464862
1.0500768
1.0541381
1.0587549
1.0641721
1.0258823
1.0270411
1.0283336
1.0297901
1.0314294
1.0332759
1.0353731
1.0377604
1.0404694
1.0435453
1.0470434
1.0509884
1.0554378
1.0604214
1.0659899
1.0242821
1.0255759
1.0270275
1.0286578
1.0304966
1.0325758
1.0349306
1.0375992
1.0406222
1.044042
1.0479013
1.052239
1.057094
1.062509
1.0680883
1.0315163
1.0323919
1.0333534
1.0344172
1.0356017
1.0369295
1.0384289
1.0401324
1.0420782
1.0443107
1.0468811
1.0498474
1.0532739
1.0572299
1.0617853
1.0308622
1.0317642
1.0327549
1.0338511
1.0350759
1.0364546
1.0380134
1.0397858
1.0418107
1.0441334
1.0468057
1.0498862
1.0534399
1.0575386
1.0622607
1.0295814
1.0305411
1.0315998
1.0327821
1.034108
1.0355951
1.0372764
1.0391892
1.0413752
1.0438816
1.0467614
1.0500738
1.053886
1.0582779
1.0632961
1.0279182
1.0289669
1.0301269
1.031423
1.0328801
1.0345253
1.036393
1.0385212
1.0409524
1.0437332
1.046914
1.0505447
1.0546639
1.0592868
1.0648723
1.0261068
1.0272564
1.0285475
1.0299931
1.031622
1.0334763
1.0355871
1.0379913
1.0407318
1.0438576
1.0474244
1.0514999
1.0560866
1.0610732
1.0669509
1.0243771
1.0256742
1.0271299
1.0287692
1.0306209
1.0327175
1.035095
1.0377924
1.0408521
1.0443193
1.0482391
1.0526496
1.0576639
1.0636008
1.0695962
1.0319291
1.0328077
1.0337748
1.0348475
1.0360458
1.0373936
1.0389192
1.0406559
1.0426422
1.0449227
1.0475469
1.0506067
1.0541413
1.0582254
1.0628151
1.0313404
1.0322465
1.0332468
1.0343594
1.0356053
1.0370098
1.0386027
1.0404192
1.0425001
1.0448934
1.0476548
1.0508107
1.0544523
1.0586514
1.0633749
1.030211
1.031171
1.0322365
1.033427
1.0347655
1.0362789
1.0379987
1.0399611
1.042207
1.0447803
1.0477289
1.0511043
1.0549566
1.059321
1.0644371
1.0286229
1.0296727
1.0308442
1.0321591
1.033643
1.0353261
1.0372434
1.0394349
1.041949
1.0447672
1.047999
1.0516983
1.0559181
1.0607112
1.0661391
1.0269866
1.0281502
1.029455
1.0309256
1.0325903
1.0344817
1.0366377
1.0390639
1.0418393
1.0449922
1.048598
1.0526923
1.057314
1.0624881
1.0682115
1.0254879
1.0267868
1.0282478
1.0298962
1.0317596
1.0338677
1.0362535
1.0389874
1.0420763
1.0456532
1.0496745
1.0541751
1.0591663
1.0646035
1.0702944
1.0324008
1.0332827
1.0342557
1.0353382
1.036551
1.0379183
1.0394687
1.0412354
1.0432565
1.0455749
1.0482645
1.0513597
1.0549152
1.0589798
1.0636996
1.0318344
1.0327446
1.0337536
1.0348786
1.0361412
1.037567
1.0391857
1.0410321
1.043146
1.0455711
1.0483827
1.0516181
1.0553442
1.0596359
1.0644564
1.0308407
1.0318105
1.032889
1.0340965
1.0354567
1.0369975
1.0387519
1.0407583
1.043062
1.0457164
1.048726
1.052187
1.0561554
1.0606807
1.0658021
1.0295758
1.0306298
1.0318085
1.0331343
1.0346333
1.0363358
1.0382766
1.0404949
1.0430348
1.0459436
1.0492717
1.0530736
1.0573989
1.0622882
1.0677828
1.0281563
1.0293236
1.0306357
1.0321179
1.0337988
1.0357113
1.0378926
1.0403839
1.0432305
1.0464805
1.0501835
1.0543867
1.0591289
1.0644314
1.0702892
1.0267819
1.0280876
1.0295613
1.0312308
1.0331271
1.0352854
1.0377448
1.0405481
1.0437414
1.0473725
1.0514882
1.0561283
1.0613136
1.0670168
1.0731054
1.0335369
1.0344219
1.0354041
1.0365018
1.037737
1.0391355
1.0407275
1.0425485
1.0446394
1.0470463
1.0498204
1.0530159
1.0566866
1.0608802
1.0657182
1.0329968
1.0339099
1.0349257
1.0360637
1.0373465
1.0388011
1.0404591
1.042357
1.0445368
1.0470455
1.0499342
1.0532551
1.0570515
1.0614776
1.0664335
1.0319779
1.0329484
1.0340329
1.0352525
1.0366318
1.0381999
1.0399906
1.0420427
1.0444007
1.0471141
1.0502377
1.0538317
1.0579083
1.0626029
1.067685
1.0306458
1.0317037
1.0328921
1.0342345
1.0357581
1.0374948
1.0394812
1.0417591
1.0443754
1.0473817
1.0508323
1.0547772
1.059227
1.0639094
1.0696958
1.0292029
1.030377
1.0317025
1.0332053
1.0349157
1.0368684
1.0391027
1.0416627
1.0445976
1.0479616
1.0518164
1.0561582