/*--------------------------------*- C++ -*----------------------------------*\
| =========                 |                                                 |
| \\      /  F ield         | OpenFOAM: The Open Source CFD Toolbox           |
|  \\    /   O peration     | Version:  4.0                                   |
|   \\  /    A nd           | Web:      www.OpenFOAM.org                      |
|    \\/     M anipulation  |                                                 |
\*---------------------------------------------------------------------------*/
FoamFile
{
    version     2.0;
    format      ascii;
    class       surfaceScalarField;
    location    "1000";
    object      snGradRho;
}
// * * * * * * * * * * * * * * * * * * * * * * * * * * * * * * * * * * * * * //

dimensions      [1 -4 0 0 0 0 0];

internalField   nonuniform List<scalar> 
51480
(
14.506733
-4.1487734
5.5608277
7.1875837
-3.8938479
5.577496
1.1311511
-3.621118
5.6088972
-3.8083303
-3.3547837
5.6576196
-7.7605147
-3.0940825
5.726543
-10.818201
-2.8390669
5.8186218
-13.040929
-2.5923
5.9368492
-14.452291
-2.3608342
6.0838159
-15.089266
-2.162247
6.2607346
-14.926954
-2.0090122
6.4675034
-13.920226
-1.9234237
6.7012868
-11.991809
-1.9375186
6.9544726
-8.9298387
-2.0642244
7.2131575
-5.1973327
-2.5059049
7.4540354
-3.276979
7.625467
-0.082848891
14.457562
-7.6470235
5.659918
7.3759607
-7.1740106
5.6775087
1.5428225
-6.6839176
5.7101155
-3.2397829
-6.2019891
5.7602139
-7.0779023
-5.7249868
5.8307241
-10.0568
-5.2549512
5.9247957
-12.237877
-4.7979673
6.0453084
-13.667325
-4.3657688
6.1947666
-14.320982
-3.9896116
6.3758506
-14.190277
-3.6953892
6.5888646
-13.223301
-3.4723684
6.8306009
-11.297349
-3.4607327
7.0943912
-8.6760267
-3.7079722
7.3695359
-4.9686033
-4.2168996
7.6250501
-5.5132077
7.8191242
-0.036530194
14.47404
-8.9317611
5.8376287
7.7964596
-9.0103244
5.8571441
2.2426385
-8.4412404
5.8918532
-2.3275027
-7.7613609
5.9443888
-6.0239811
-7.0605057
6.0181344
-8.9206476
-6.4490186
6.1163608
-11.076746
-5.8446248
6.2423858
-12.539342
-5.2465882
6.3993594
-13.2206
-4.7079348
6.5900275
-13.039421
-4.279041
6.8151064
-12.25728
-4.0118176
7.0724653
-10.573926
-3.9388852
7.3541864
-7.9805199
-4.0718596
7.6463509
-4.513549
-4.5441432
7.9240885
-6.1443187
8.1516788
-0.13831088
14.458331
-8.6005049
6.0573459
8.2286081
-8.651081
6.0785796
3.0041125
-8.1124753
6.1156824
-1.3421834
-7.4343931
6.1715211
-4.901036
-6.7072817
6.2495973
-7.7265889
-6.0558895
6.3535761
-9.8211362
-5.406484
6.4872834
-11.315412
-4.7868996
6.6543796
-12.07817
-4.205275
6.8573742
-12.092171
-3.7200237
7.096961
-11.304325
-3.3803216
7.3703692
-9.5680482
-3.2330016
7.6696491
-7.1202746
-3.5176191
7.9778512
-4.0011496
-4.0060503
8.2795822
-5.5670255
8.5494978
-0.70178004
14.413189
-6.3254424
6.2684393
8.5933356
-5.9106143
6.2915762
3.6464211
-5.5065319
6.331173
-0.52939432
-5.0536175
6.3908586
-4.0054228
-4.570801
6.4741315
-6.8282918
-4.071214
6.5852371
-8.993736
-3.5616544
6.7284848
-10.442568
-3.0917641
6.9075917
-11.210723
-2.6849977
7.1243988
-11.202588
-2.352326
7.3789258
-10.401467
-2.2336331
7.6676375
-9.0292329
-2.1439182
7.9803978
-6.6334283
-2.1596372
8.2977498
-3.894861
-2.4215335
8.6171215
-3.330105
8.9267764
-1.5393046
14.196793
6.4169333
8.5858748
6.4426845
3.7151202
6.4861227
-0.50599066
6.5513459
-4.0609496
6.6426935
-6.9548202
6.7650176
-9.2658536
6.9230831
-10.85258
7.1199611
-11.696033
7.3570846
-11.871397
7.6319906
-10.92276
7.9356872
-9.3413128
8.2640167
-7.2327202
8.6032853
-4.8983554
8.9450226
9.2921235
-2.8127576
19.327301
-2.275429
0.63750653
14.836407
-2.3219334
0.6401805
11.077128
-1.928194
0.64669516
7.976941
-2.0290421
0.65765586
5.424803
-1.8763513
0.67370788
3.3408808
-1.7240696
0.69563735
1.6732921
-1.5747687
0.72416356
0.39130785
-1.433077
0.75994233
-0.54882365
-1.2858231
0.80375531
-1.1724939
-1.1286572
0.85551829
-1.4641031
-0.97476217
0.91447449
-1.3609128
-0.82101832
0.97795053
-0.67876894
-0.62811941
1.0396543
-0.34624837
-0.67374896
1.0828995
-0.64999706
1.1140071
0.32605753
19.301481
-3.6575354
0.66384142
14.905835
-4.3633093
0.66727148
11.27135
-4.0681969
0.67447469
8.2476021
-3.7805468
0.68623453
5.7653322
-3.4931372
0.70334068
3.7650717
-3.2042601
0.72653005
2.165008
-2.9016505
0.75679409
0.87893886
-2.5962678
0.79511563
-0.088330782
-2.3056593
0.84140005
-0.71927527
-2.0099182
0.8957418
-0.99339273
-1.6839343
0.95749663
-0.72398709
-1.4093116
1.0233089
-0.63069784
-1.2507268
1.0821272
-0.15669613
-1.1783972
1.1386578
-1.0567423
1.1782389
0.52934943
19.345942
-5.243156
0.71785133
15.174075
-5.3073259
0.72153343
11.65651
-4.4298476
0.7294289
8.7730855
-4.629613
0.74244111
6.3713777
-4.2662977
0.76110725
4.3934133
-3.8917807
0.78637616
2.7901086
-3.5046037
0.81918036
1.5271199
-3.0988952
0.8603549
0.62309048
-2.7729747
0.9104455
0.12494633
-2.2563409
0.96880548
-0.32550418
-1.9649811
1.0323871
-0.40748258
-1.6774328
1.1032146
-0.18912514
-1.3959094
1.1753028
0.30850174
-1.333584
1.2401674
-1.0812509
1.2867146
0.93566443
19.313639
-5.0423607
0.78777877
15.442206
-5.6245626
0.79186116
12.146735
-4.1605938
0.80030797
9.3815188
-4.3628633
0.81413612
7.0643047
-3.987287
0.83418484
5.1471763
-3.5914193
0.86147338
3.6220835
-3.1826778
0.89687639
2.3108196
-2.784317
0.94066765
1.3114361
-2.4722764
0.99458768
0.59338746
-1.9412567
1.0584901
0.16414464
-1.6175592
1.1316887
0.095019455
-1.3412693
1.2118687
0.4872095
-1.4951707
1.2936452
1.1533568
-1.5774738
1.3646583
-1.3274161
1.4109606
1.5589377
19.301979
-3.4597683
0.85512836
15.642182
-3.8839555
0.85951666
12.573572
-3.2004187
0.86880058
9.9042432
-2.9334964
0.88366834
7.6414596
-2.6472739
0.9054777
5.7198029
-2.3436407
0.93525179
4.0982672
-2.0093058
0.97411175
2.7562737
-1.6866035
1.0231399
1.6635377
-1.3764619
1.0831712
0.89715946
-1.0815893
1.1549561
0.39881975
-1.0217275
1.237285
-0.13607181
-0.81523732
1.3287041
0.5066218
-0.57269293
1.4341158
1.3846575
-0.54739136
1.5168498
-0.49505161
1.5613703
2.5914517
19.229869
0.90347568
15.699769
0.90827143
12.666943
0.9186769
10.005652
0.93561864
7.7480911
0.96053572
5.8575831
0.9942214
4.1487545
1.0371792
2.7492449
1.091795
1.6052161
1.1585883
0.55599059
1.2384824
0.47451965
1.3362405
0.68834016
1.4334154
1.4119036
1.5240314
2.6562312
1.5914708
1.6103203
4.7650748
20.116975
-1.4611331
0.00057585675
16.420882
-2.1829277
0.00080645748
13.31276
-1.7145496
0.0013617364
10.720031
-1.5761204
0.0023952111
8.5630939
-1.4374453
0.0039984305
6.7751825
-1.2965402
0.0062790709
5.3000825
-1.1520155
0.0093541017
4.0907637
-1.0032773
0.01333653
3.0858143
-0.7421814
0.018302359
2.2896066
-0.69516757
0.024550244
1.6515459
-0.5293478
0.031742081
1.1681429
-0.41741976
0.039583302
0.78854495
-0.21361025
0.046907238
0.5137553
-0.070251759
0.052593311
0.13188119
0.054217034
0.27827334
20.172909
-3.3448907
-0.0029098419
16.5548
-3.3876464
-0.002692431
13.541564
-3.1379681
-0.0019890748
11.020672
-2.8881948
-0.00079714966
8.915835
-2.6336742
0.00097532113
7.1622191
-2.3713195
0.0034282538
5.7045376
-2.0990725
0.0066652312
4.4950191
-1.8159699
0.010783674
3.5145401
-1.5220362
0.015861058
2.6923505
-1.2245369
0.021607911
2.0247923
-0.92022646
0.028071927
1.474621
-0.61541525
0.034676784
1.0745411
-0.41671746
0.040695667
0.73297847
-0.018746595
0.043247681
0.36624215
0.040328729
0.42005207
20.230308
-4.799477
-0.0078150198
16.831767
-4.0725962
-0.0077233993
13.972311
-3.7863244
-0.0072062468
11.566482
-3.490302
-0.0062038066
9.5421072
-3.1804644
-0.0046356309
7.8381912
-2.8540198
-0.0024212498
6.4031559
-2.509752
0.00050774334
5.1935839
-2.1483581
0.0041861933
4.1735727
-1.7727703
0.0085778329
3.3135429
-1.3881913
0.013509004
2.5916007
-1.00156
0.018570742
1.9908741
-0.6201941
0.022925072
1.4855877
-0.24539029
0.025022566
1.1192413
0.12624991
0.022497951
0.74097424
0.0090545733
0.74094051
20.208937
-4.544382
-0.017207582
17.058602
-3.8663877
-0.017059541
14.389392
-3.5970027
-0.016483614
12.122289
-3.3056025
-0.015447063
10.190432
-2.990434
-0.013898229
8.5374909
-2.6513931
-0.011798283
7.1164683
-2.2904497
-0.009136577
5.8890864
-1.911976
-0.0059559688
4.825919
-1.522816
-0.002396432
3.9069209
-1.1318511
0.0012234984
3.1219159
-0.74887024
0.004251945
2.4716725
-0.3825697
0.0054111175
1.9615813
-0.037989082
0.0022218077
1.5923574
0.28765568
-0.0098667493
0.97934619
-0.038924587
1.2806089
20.205982
-3.0571002
-0.027653345
17.284715
-2.6067364
-0.02760969
14.779374
-2.4164825
-0.027172451
12.618177
-2.1972719
-0.026339434
10.741119
-1.9527333
-0.025096365
9.0991831
-1.6881148
-0.023452286
7.654025
-1.410217
-0.021455674
6.3781663
-1.1270179
-0.019224292
5.2554819
-0.84693922
-0.017006175
4.281318
-0.57790324
-0.015306125
3.4617512
-0.32659472
-0.015131977
2.8100561
-0.097229755
-0.018440779
2.3414093
0.10709847
-0.02882813
2.0518418
0.2827628
-0.052433632
0.66574206
-0.098566294
2.0647932
20.16719
-0.038289156
17.403929
-0.038206244
14.992243
-0.037842264
12.872957
-0.037209167
11.000023
-0.036307434
9.3397471
-0.035154811
7.8702174
-0.033814178
6.5809771
-0.032454828
5.4724314
-0.031475765
4.5546975
-0.031726806
3.8457023
-0.034865274
3.3617248
-0.043877043
3.1056518
-0.063530607
3.0420057
-0.10038642
-0.16108567
3.2334433
20.162015
-1.5269687
-0.0088841532
16.534087
-1.9247751
-0.0088985226
13.501353
-1.7843101
-0.0088995534
10.971775
-1.645742
-0.0088842258
8.8674534
-1.506726
-0.0088487678
7.1221268
-1.3654711
-0.008787419
5.6789613
-1.2208364
-0.0086919913
4.4886829
-1.0724183
-0.0085520448
3.5080895
-0.92063716
-0.008356866
2.699003
-0.76680198
-0.0076808304
2.0276339
-0.61314675
-0.0068955277
1.4644326
-0.46281756
-0.0060503774
0.98416529
-0.31989188
-0.0052912959
0.56641083
-0.18957417
-0.0049484713
-0.079307123
-0.0056692305
0.1777218
20.181671
-2.798696
-0.0077347895
16.668159
-3.4732511
-0.0078731575
13.724658
-3.232834
-0.0080034587
11.262222
-2.9915186
-0.0081192804
9.2054174
-2.7456597
-0.0082106675
7.489979
-2.4925339
-0.0082632211
6.0607286
-2.2306208
-0.0082575231
4.8698343
-1.9597771
-0.008169901
3.8754568
-1.6813805
-0.0079958382
3.0407603
-1.3983762
-0.007321434
2.3333709
-1.115156
-0.0065401073
1.7250505
-0.83723112
-0.0056458226
1.1913937
-0.57080696
-0.004767647
0.71070939
-0.32262174
-0.0042174983
-0.10094039
-0.004557539
0.24500163
20.213078
-3.4660034
-0.0080094639
16.902189
-4.2282772
-0.0079815786
14.116136
-3.9470227
-0.0079383061
11.771193
-3.6563226
-0.0078541125
9.7961479
-3.3529863
-0.0077103587
8.1302187
-3.0349812
-0.0074773951
6.7212456
-2.7019196
-0.0071102402
5.5242503
-2.3552807
-0.0065439752
4.5003875
-1.9984934
-0.0056886973
3.616227
-1.6367546
-0.0053182688
2.8433244
-1.2764322
-0.0046232466
2.1574239
-0.9239939
-0.0036763215
1.5369989
-0.58437979
-0.0026593578
0.95948365
-0.25901636
-0.0018380822
0.05644844
-0.0012763307
0.37614504
20.243243
-3.3721302
-0.0061210949
17.173109
-4.0318435
-0.0061752118
14.569506
-3.7692937
-0.0062086796
12.355115
-3.4862618
-0.0061793266
10.464084
-3.1820598
-0.0060589166
8.8403979
-2.8574221
-0.0058097103
7.4365581
-2.5150075
-0.0053864809
6.2126436
-2.1594703
-0.0047450308
5.135723
-1.7972097
-0.0038628965
4.1794556
-1.435669
-0.0027596705
3.323521
-1.0821013
-0.0015082374
2.5522444
-0.74176153
-0.0003028862
1.8516001
-0.41540507
0.00054011144
1.2029022
-0.095649297
0.00073718743
0.23968786
0.00073632051
0.55535416
20.25882
-2.3755149
-0.0032330327
17.412548
-2.7758208
-0.0031994213
14.967235
-2.5869235
-0.0031122342
12.852696
-2.3728459
-0.0029147473
11.009837
-2.1378095
-0.0025673365
9.389694
-1.8871249
-0.0020257049
7.952694
-1.6271375
-0.0012511472
6.6681249
-1.3647997
-0.00023021841
5.5136387
-1.1070085
0.00099451838
4.4745214
-0.85974759
0.0022847979
3.5424018
-0.62707652
0.0033662494
2.7129988
-0.40994319
0.0038069105
1.9824521
-0.20455054
0.0030592
1.341673
0.00074809117
0.00065261064
0.23364765
-0.0031793245
0.75435599
20.235529
0.0025565814
17.522362
0.0025310394
15.144267
0.0026565338
13.042666
0.0029836367
11.17081
0.0035330671
9.4926605
0.0043002877
7.9818263
0.0052383334
6.6204905
0.0062377452
5.398231
0.0071062175
4.310638
0.0075522334
3.357625
0.0071786562
2.5413948
0.0054932399
1.864499
0.0019372857
1.3302644
-0.0041170883
-0.013716353
0.9411557
20.180991
-1.8823004
-0.017712253
16.557623
-1.9054161
-0.017701622
13.52862
-1.7675069
-0.017768844
11.002199
-1.6315384
-0.017997569
8.900628
-1.4950365
-0.018308548
7.1577046
-1.3560327
-0.01871488
5.7165053
-1.2131532
-0.019225087
4.5274444
-1.0657106
-0.019844996
3.5763931
-1.050257
-0.020576148
2.7635877
-0.75757627
-0.021832179
2.0845102
-0.60176984
-0.02323312
1.5071417
-0.44669009
-0.024736977
1.0030119
-0.29534362
-0.026243133
0.54797451
-0.15168801
-0.027530054
-0.013747312
-0.028131839
0.10186655
20.200131
-3.4525182
-0.020550846
16.695536
-3.49014
-0.020573285
13.760257
-3.2466191
-0.02066166
11.305458
-3.0018525
-0.020753117
9.255651
-2.7519644
-0.020954154
7.5463223
-2.4939582
-0.021280823
6.1217699
-2.225857
-0.021755386
4.9332278
-1.9468
-0.022403491
3.9646835
-1.9066379
-0.023231208
3.1236042
-1.3672248
-0.024657036
2.4050843
-1.0801397
-0.026304278
1.7779047
-0.79216604
-0.02822329
1.214485
-0.5089553
-0.030383821
0.69069522
-0.2352726
-0.032659118
0.064361421
-0.034751453
0.15147029
20.272022
-4.9534124
-0.023577051
16.966979
-4.2253334
-0.023716903
14.186065
-3.9459503
-0.023945376
11.84593
-3.6568613
-0.02429921
9.8756206
-3.3543517
-0.024809222
8.2144809
-3.0360583
-0.025517817
6.8103321
-2.7013064
-0.026484035
5.6180878
-2.351506
-0.027789885
4.5403539
-1.9856256
-0.029549327
3.6548841
-1.6046576
-0.031028211
2.8709163
-1.224239
-0.033103389
2.1635554
-0.85122631
-0.035826662
1.512694
-0.49125638
-0.039234413
0.90213101
-0.14647832
-0.04341362
0.29298635
-0.048775747
0.26475411
20.242406
-4.6974306
-0.029251563
17.180708
-4.0182413
-0.029334345
14.584118
-3.7551495
-0.0295234
12.375354
-3.4705184
-0.029877449
10.488324
-3.1628948
-0.030444021
8.8664055
-2.8324696
-0.031284061
7.4610264
-2.4814418
-0.032472139
6.2306306
-2.114232
-0.034092189
5.1412407
-1.737466
-0.036224899
4.167043
-1.3597347
-0.038942022
3.2870352
-0.99058022
-0.042321038
2.4870666
-0.63832136
-0.046420088
1.7592159
-0.30766165
-0.051332689
1.1004623
0.001683122
-0.057388401
0.46030668
-0.065798155
0.46397288
20.228476
-3.1545848
-0.035529328
17.38742
-2.7039217
-0.035721068
14.945421
-2.5187674
-0.036064487
12.832206
-2.3058129
-0.036639282
10.988306
-2.0688897
-0.037513616
9.364116
-1.8134676
-0.038768436
7.919299
-1.5465808
-0.04049158
6.6225199
-1.2764226
-0.042765899
5.4513457
-1.0115695
-0.045652406
4.3919264
-0.75987549
-0.049174887
3.4381175
-0.52719126
-0.053319795
2.5899773
-0.31618684
-0.058074915
1.851868
-0.12573619
-0.063541644
1.2304422
0.047799028
-0.070162321
0.31151855
-0.079220951
0.76502867
20.178398
-0.043369029
17.484099
-0.043518237
15.124036
-0.043928999
13.039945
-0.044681839
11.185346
-0.045835932
9.5244028
-0.047437612
8.0308156
-0.049509891
6.6866785
-0.052044178
5.4812529
-0.05500063
4.4096939
-0.058327023
3.4718335
-0.062007944
2.6711206
-0.066150721
2.013623
-0.071084433
1.5058075
-0.077341965
-0.085045622
1.2094374
20.161086
-1.9306224
-0.0045533454
16.517594
-1.9544871
-0.0046566917
13.457839
-1.5332488
-0.004799235
10.924497
-1.6809947
-0.004916055
8.8178852
-1.5414764
-0.0051068536
7.0722238
-1.3999875
-0.0053802159
5.6306085
-1.2554137
-0.0057495982
4.4434698
-1.1074362
-0.0062298486
3.4671204
-0.95660902
-0.0065012103
2.6625887
-0.80443078
-0.0068628902
1.9950079
-0.65338523
-0.0073207944
1.4334463
-0.5069327
-0.0078832831
0.95137271
-0.36952993
-0.0085760526
0.52793931
-0.246855
-0.0094763866
-0.1467054
-0.010785529
0.13230851
20.137849
-2.8599933
-0.0034457325
16.618275
-3.5324912
-0.0035322084
13.685639
-3.2901956
-0.0036777117
11.215891
-3.0492406
-0.0039660697
9.1550941
-2.8032054
-0.004314341
7.4380137
-2.5502141
-0.0047325627
6.0089815
-2.2888788
-0.0052268282
4.8197127
-2.0192424
-0.0058171855
3.8277789
-1.7429465
-0.0061855862
2.9954808
-1.4633142
-0.0066412052
2.2893558
-1.1852133
-0.0071357477
1.6798118
-0.91482361
-0.0076505537
1.141221
-0.65922507
-0.0081885119
0.65226256
-0.42622534
-0.0088044495
-0.22538317
-0.0096578643
0.17910005
20.187511
-3.5361703
-0.0036827714
16.865431
-4.2981338
-0.003677384
14.070708
-4.0159177
-0.0037209181
11.719345
-3.7244301
-0.0038008477
9.739868
-3.4205705
-0.0039139526
8.0712168
-3.1024391
-0.004048823
6.6608599
-2.7698361
-0.0041803502
5.463306
-2.4245038
-0.004261595
4.4389589
-2.0702359
-0.0049232266
3.5535745
-1.712718
-0.0054939393
2.7773748
-1.3590576
-0.0059454734
2.0847715
-1.0167058
-0.0062645897
1.4533785
-0.69193919
-0.0064469502
0.86198807
-0.38780432
-0.0064349094
-0.10159784
-0.0058678298
0.26917454
20.214933
-3.4350012
-0.0024800017
17.133318
-4.094172
-0.00256118
14.520294
-3.8305924
-0.0026974013
12.298305
-3.5466273
-0.0028620544
10.401222
-3.2416969
-0.0030459383
8.7726823
-2.9166915
-0.0032338864
7.3647209
-2.5744906
-0.0034059591
6.1367754
-2.2200573
-0.0035434893
5.0550362
-1.8602194
-0.0036317466
4.0919756
-1.5030206
-0.0036558818
3.2257694
-1.1565453
-0.0036310879
2.4394242
-0.82713697
-0.0036053136
1.7188325
-0.51692249
-0.0036136505
1.048947
-0.2200437
-0.0035014745
0.084149138
-0.0023461422
0.39018886
20.227772
-2.4135385
-0.00059476095
17.369741
-2.8133622
-0.0005906305
14.914179
-2.6236676
-0.00062060795
12.790652
-2.4087965
-0.00064585091
10.939751
-2.1730702
-0.00064779476
9.3120941
-1.9219378
-0.00060535601
7.8675322
-1.6619328
-0.00050210968
6.574543
-1.4002633
-0.00033904114
5.4096546
-1.1441756
-0.00015183943
4.3566939
-0.90013162
-2.7691427e-05
3.4056807
-0.67283129
-0.00011012512
2.5513092
-0.46401711
-0.00057074534
1.7909344
-0.27073003
-0.0015190671
1.1218919
-0.081908411
-0.0028129767
0.13006746
-0.0036244698
0.52266133
20.202473
0.0041582365
17.477205
0.004094271
15.087962
0.0040747524
12.975925
0.0041273052
11.094013
0.0042467134
9.4057142
0.0044020424
7.8839393
0.0045251968
6.5098572
0.0045020433
5.2716361
0.0041720245
4.1631138
0.0033446295
3.1825264
0.0018418567
2.3316396
-0.00042974866
1.6160569
-0.0033999804
1.0487088
-0.0068636093
-0.011046971
0.64965477
20.154486
-1.9133621
-0.0046589937
16.506917
-1.9370108
-0.0046725771
13.458486
-1.7983284
-0.0047089114
10.916832
-1.6617542
-0.0047702518
8.8037727
-1.5248415
-0.0048580273
7.0527739
-1.3856722
-0.004973552
5.6066848
-1.2429552
-0.0051179488
4.4440455
-1.2469661
-0.0052917034
3.4635011
-0.94392441
-0.0058281439
2.6552764
-0.79169069
-0.0064367065
1.9841146
-0.63867314
-0.0071085215
1.4182982
-0.4875085
-0.0078110196
0.92995399
-0.34185671
-0.0084567806
0.4960789
-0.2065942
-0.008843039
-0.084060055
-0.0085398526
0.080025267
20.172483
-3.5111993
-0.0064633145
16.643541
-3.5496682
-0.0063555091
13.688603
-3.3046225
-0.0062679407
11.218225
-3.0585411
-0.0062069653
9.1564296
-2.8075682
-0.0061809755
7.4383138
-2.5487443
-0.0062007507
6.0078687
-2.2801461
-0.0062794705
4.8421801
-2.276669
-0.006415992
3.8463811
-1.7175484
-0.0069458623
3.0101633
-1.4357508
-0.0075736369
2.2990444
-1.1505616
-0.0083510981
1.6822833
-0.86754493
-0.0092818614
1.1329115
-0.59291606
-0.010312322
0.62757282
-0.33233974
-0.01127364
-0.06506845
-0.011780574
0.11721709
20.242404
-5.033001
-0.0071410639
16.913102
-4.3057063
-0.0072072202
14.112511
-4.02427
-0.0073065605
11.756706
-3.7334682
-0.0074669622
9.7742994
-3.4296933
-0.0077090182
8.1043543
-3.1107522
-0.0080641701
6.6945802
-2.7762321
-0.008579964
5.4446479
-2.4237433
-0.0093276721
4.4224818
-2.0533878
-0.0097018042
3.5356786
-1.6777796
-0.010395893
2.7542793
-1.3038465
-0.011456584
2.053341
-0.93920252
-0.012901824
1.412654
-0.59039177
-0.014714323
0.81582894
-0.26056347
-0.016878855
0.12966883
-0.019581694
0.20299576
20.208837
-4.7757566
-0.0095183587
17.121449
-4.0969632
-0.0095091172
14.503436
-3.8314905
-0.0095363686
12.276893
-3.5446217
-0.009644428
10.37522
-3.2349946
-0.0098632573
8.7414007
-2.9029236
-0.010232149
7.3265551
-2.5507563
-0.010798674
6.089768
-2.1831396
-0.011612533
4.9980137
-1.8071577
-0.012722324
4.0236605
-1.4319101
-0.014178486
3.1459244
-1.0671661
-0.016001167
2.3507126
-0.72149252
-0.018173399
1.6298268
-0.39988714
-0.020684523
0.9796545
-0.10222884
-0.023711981
0.30234467
-0.028225897
0.35548955
20.191007
-3.2098384
-0.012435707
17.32316
-2.7591612
-0.012520366
14.858209
-2.572132
-0.012671402
12.725322
-2.3573603
-0.012947797
10.864635
-2.1188129
-0.01339196
9.2263138
-1.8621204
-0.014052973
7.7699615
-1.5944962
-0.014979649
6.4643275
-1.3243239
-0.016207636
5.2870995
-1.0603643
-0.017741196
4.2244422
-0.81061871
-0.019534012
3.2700252
-0.58100475
-0.021479659
2.4233539
-0.37413687
-0.023433301
1.6877261
-0.18863416
-0.025304112
1.0685075
-0.020128133
-0.027315105
0.21694081
-0.030892106
0.58749953
20.136733
-0.01785548
17.41363
-0.01787977
15.027919
-0.018057927
12.920876
-0.018440658
11.04571
-0.019050167
9.3663983
-0.019887565
7.8565352
-0.020921195
6.4981119
-0.022076404
5.2801753
-0.023231291
4.1974237
-0.024223698
3.2489051
-0.024871386
2.4370568
-0.024991156
1.7672205
-0.024344465
1.2467714
-0.022229981
-0.0161245
0.92473771
20.126747
-1.5706281
-0.00030613401
16.473606
-1.9689479
-0.00039237643
13.421113
-1.8276549
-0.00050400386
10.876696
-1.6884849
-0.00064719895
8.7620086
-1.5491341
-0.00082951452
7.0104098
-1.4078736
-0.0010598222
5.564722
-1.2636535
-0.0013482656
4.3753257
-1.1162009
-0.0017067587
3.3985851
-0.9661208
-0.0018216067
2.5957666
-0.81497926
-0.0020048934
1.9323526
-0.66535445
-0.001878069
1.3779285
-0.52084193
-0.001856411
0.9066853
-0.38606598
-0.0019719874
0.49867977
-0.26688784
-0.0023320375
-0.17119944
-0.0032034246
0.12389578
20.144451
-2.875819
0.00028854794
16.605054
-3.5510267
0.00021778868
13.641062
-3.3090627
0.00011956931
11.162974
-3.0665454
-8.7475799e-06
9.0948765
-2.8199089
-0.00016862862
7.3720833
-2.5665507
-0.00035971445
5.9390184
-2.3051272
-0.00057905771
4.7474353
-2.0357497
-0.00083591721
3.754969
-1.7601597
-0.00079710134
2.9241775
-1.4817942
-0.0007401231
2.2219207
-1.2057294
-0.00099865357
1.6191858
-0.93842982
-0.0011540304
1.0911819
-0.68739806
-0.0012422016
0.61782668
-0.46103553
-0.0013792692
-0.269659
-0.001844503
0.16691792
20.172605
-3.5567779
0.00011742507
16.835118
-4.319392
0.00013955379
14.027612
-4.0360942
0.00013947277
11.66578
-3.7436653
0.00013513243
9.6778923
-3.4390234
0.00013544462
8.0026842
-3.1203001
0.00015810682
6.5875057
-2.7873457
0.00023456887
5.3868241
-2.4419769
0.00041745057
4.3611964
-2.0880928
8.6065999e-05
3.4764023
-1.7315678
-9.2818969e-05
2.703019
-1.3797301
-9.293507e-05
2.015971
-1.040404
0.00011004337
1.3937272
-0.72049933
0.00052142377
0.81656612
-0.42431512
0.0011725127
-0.15187537
0.0023212237
0.24592952
20.199007
-3.4530768
0.00083326402
17.10179
-4.1127262
0.00076808974
14.47577
-3.8480355
0.00067422135
12.243028
-3.5630012
0.00058294844
10.337158
-3.2570577
0.00050862401
8.7015984
-2.9311209
0.00047197603
7.28826
-2.5881094
0.00049887455
6.0565299
-2.2330392
0.00061441762
4.972615
-1.872802
0.00084066531
4.0090718
-1.5154999
0.0012017241
3.1442748
-1.169236
0.001695935
2.361415
-0.84031109
0.0022949054
1.6464484
-0.53077035
0.0029917376
0.98416545
-0.23529001
0.003982558
0.061295689
0.0062502303
0.33654757
20.211241
-2.425261
0.0020043295
17.337841
-2.825332
0.0020237566
14.869373
-2.6348082
0.0020333392
12.73505
-2.4190472
0.0020751307
10.875197
-2.1823966
0.0021710284
9.2402492
-1.9303347
0.0023457033
7.7899572
-1.6694233
0.0026197977
6.4927916
-1.4068829
0.0029978937
5.3253784
-1.1499236
0.0034522249
4.2717479
-0.90484031
0.0039066931
3.3221577
-0.67583091
0.004231502
2.4711663
-0.46324833
0.0042684678
1.7140628
-0.26018953
0.0039228324
1.03794
-0.043499653
0.0034112617
0.099181403
0.0041105159
0.48184691
20.185585
0.0061328759
17.445351
0.0060818291
15.043373
0.0060941884
12.920531
0.0061990304
11.029547
0.0063928931
9.3338062
0.0066473886
7.8062465
0.0068984332
6.4282252
0.0070378354
5.1883525
0.0069118878
4.0813276
0.0063319452
3.1069987
0.0050979076
2.2702398
0.0030181085
1.5832755
-0.00015081105
1.0756698
-0.0051311937
-0.014536207
0.71212462
20.125537
-1.5639794
0.0049419594
16.470692
-1.9615589
0.0049537198
13.416519
-1.8200493
0.0049696302
10.870392
-1.6806357
0.0049920383
8.7539456
-1.5408957
0.0050243149
7.0005144
-1.3989305
0.0050711528
5.5528289
-1.2534641
0.0051390549
4.3888078
-1.2525894
0.0052375078
3.4073351
-0.94848145
0.0050521219
2.6228749
-0.89333567
0.0048959878
1.950737
-0.64091343
0.0043913935
1.3873484
-0.49581212
0.0039471514
0.90495015
-0.35526972
0.0035679699
0.48079558
-0.22494151
0.0032850752
-0.1089298
0.0037134775
0.078990067
20.18379
-3.5260222
0.0043262799
16.641997
-3.566905
0.0043363034
13.6764
-3.322631
0.0043517491
11.197342
-3.077431
0.0043728148
9.1286954
-2.8274518
0.0043996113
7.4054774
-2.569762
0.0044324868
5.9717196
-2.3025087
0.004472701
4.8047362
-2.2983933
0.004538976
3.8105753
-1.7434892
0.0043144867
2.9545423
-1.4636375
0.0041005535
2.2510512
-1.1774917
0.0042586734
1.6421216
-0.89562593
0.004393073
1.1017274
-0.62410439
0.0045354034
0.60736244
-0.36858511
0.0047068661
-0.11284796
0.0054049041
0.1121763
20.232971
-5.0626122
0.0040184787
16.893451
-4.335606
0.004026038
14.084524
-4.0533502
0.0040270908
11.721974
-3.7618691
0.0040176732
9.7341807
-3.4575875
0.0039917385
8.060023
-3.1383569
0.0039399907
6.6470822
-2.8038197
0.0038478011
5.3954232
-2.451681
0.0036906995
4.372125
-2.0821357
0.0041306967
3.4853603
-1.7077954
0.0045542973
2.7063491
-1.3357212
0.0049962024
2.0101529
-0.97383466
0.005495285
1.3766165
-0.62895561
0.0061139906
0.78932996
-0.30446462
0.0069415231
0.069579872
0.0070057746
0.19027318
20.197736
-4.8070586
0.0046593962
17.099557
-4.1283744
0.0046728559
14.472538
-3.8619427
0.0046858873
12.238503
-3.5741997
0.0046994064
10.330657
-3.2638274
0.0047153903
8.6918651
-2.9311997
0.0047379677
7.2732125
-2.5787365
0.0047756002
6.0338411
-2.2111648
0.0048455215
4.9408706
-1.8356479
0.0049704293
3.966916
-1.4613568
0.005163151
3.0914765
-1.0981263
0.0054432071
2.3006406
-0.75458677
0.0058388896
1.5861593
-0.43579692
0.0063866748
0.94401382
-0.1416357
0.0071225275
0.24715557
0.0081420355
0.32878644
20.17823
-3.2331169
0.0051001735
17.298982
-2.7823961
0.0051145317
14.824248
-2.5946108
0.0051277038
12.682972
-2.3791286
0.0051408489
10.815155
-2.1399636
0.0051562846
9.1709363
-1.8827933
0.0051782828
7.7099852
-1.6148732
0.0052142533
6.4012085
-1.3446174
0.0052762717
5.2225054
-1.0808013
0.0053826551
4.1602432
-0.83142304
0.0055595383
3.2081866
-0.60237945
0.0058429928
2.3656927
-0.39624013
0.0062820566
1.635504
-0.21151242
0.0069459739
1.021981
-0.043484304
0.0079462467
0.18786845
0.0095011474
0.53984625
20.122008
0.0053311399
17.386476
0.0053469512
14.989778
0.0053615567
12.873045
0.0053762813
10.989435
0.0053938035
9.3029597
0.00541913
7.7873146
0.0054610411
6.4246285
0.0055340277
5.2040738
0.0056605781
4.1203918
0.0058735635
3.1724995
0.00621876
2.3624188
0.0067589006
1.6946288
0.007583902
1.17484
0.0088385536
0.010798319
0.84336415
20.129185
-1.5757675
-0.00083872263
16.474808
-1.9733245
-0.00084398264
13.421346
-1.8317483
-0.00085789196
10.876182
-1.6922704
-0.00088298021
8.7609469
-1.552527
-0.00092330542
7.0089834
-1.410695
-0.00098597362
5.5630828
-1.2655863
-0.0010847312
4.3735463
-1.1167346
-0.00098008535
3.3965849
-0.96449086
-0.00088108284
2.5931893
-0.81011561
-0.00079780321
1.9283267
-0.65587371
-0.00026821508
1.3708762
-0.50508411
0.00026508027
0.8940625
-0.36226272
0.00078358458
0.49197865
-0.26888251
0.0012538973
-0.11259178
0.0010739255
0.095156614
20.186915
-3.5320236
-0.00062034208
16.645969
-3.5728238
-0.00061748236
13.680935
-3.3287258
-0.0006050009
11.202222
-3.0839558
-0.00057986912
9.1338111
-2.8347483
-0.00053734771
7.4108867
-2.5783063
-0.00046945606
5.9776936
-2.3129905
-0.00036275461
4.7857253
-2.0384945
-0.00046224823
3.7922355
-1.7560252
-0.00056568542
2.9591794
-1.4684022
-0.00070461842
2.2526192
-1.1800432
-0.00045017513
1.6423817
-0.89669435
-0.00028345025
1.1019492
-0.62480256
-0.00016670157
0.62152391
-0.43435119
-8.7872858e-05
-0.092552808
-0.00051912386
0.11786756
20.234112
-5.0505879
-0.00078816486
16.892748
-4.3234408
-0.00078759648
14.081737
-4.0409593
-0.00077645556
11.716759
-3.7490497
-0.00075172777
9.7260447
-3.443994
-0.00070961089
8.0482322
-3.123413
-0.00064531967
6.6304752
-2.7865639
-0.00055288836
5.4269117
-2.4346423
-0.0004251749
4.3976105
-2.0710135
-0.00023995061
3.5078517
-1.7012399
4.5227124e-05
2.7279146
-1.332715
-0.000505191
2.0328979
-0.97369236
-0.00099123185
1.4024879
-0.63149918
-0.0014820835
0.7889159
-0.30594322
-0.0020764591
0.080720348
-0.0018367469
0.1977956
20.20038
-4.79886
-0.0014940496
17.101521
-4.1201814
-0.0014967102
14.474084
-3.8537989
-0.0014902026
12.239947
-3.5661546
-0.0014737073
10.332431
-3.2559489
-0.0014469266
8.6946148
-2.9235957
-0.00141061
7.2779754
-2.5716082
-0.0013675037
6.041468
-2.2048557
-0.0013240954
4.9510539
-1.8305313
-0.0012941013
3.9795573
-1.4576348
-0.0013067685
3.1065864
-1.0958068
-0.0013965091
2.3181179
-0.75345985
-0.0015595581
1.605326
-0.43532704
-0.0017993685
0.96494754
-0.14095015
-0.0021291566
0.25438797
-0.0026510404
0.35262001
20.181104
-3.2288481
-0.0020893033
17.301084
-2.7781181
-0.0020926113
14.825903
-2.5903384
-0.0020863944
12.684534
-2.3748887
-0.0020704705
10.817034
-2.1358007
-0.0020454405
9.1736144
-1.8787772
-0.0020131611
7.7140185
-1.6111058
-0.0019774318
6.40719
-1.3412336
-0.0019449531
5.2310097
-1.0779575
-0.00192657
4.1717914
-0.82927537
-0.0019384825
3.2232283
-0.60106884
-0.0020028185
2.3846883
-0.39591447
-0.0021499654
1.6592871
-0.21245898
-0.0024300991
1.052585
-0.046591562
-0.0029427342
0.18386693
-0.0039040418
0.58140712
20.125099
-0.0024109536
17.388867
-0.0024150157
14.991798
-0.0024098858
12.875061
-0.0023958217
10.991881
-0.0023740254
9.306359
-0.0023471844
7.7922924
-0.002320264
6.4318971
-0.0023016462
5.2143971
-0.0023047665
4.1345486
-0.0023505432
3.1913051
-0.0024713747
2.3869049
-0.0027186987
1.7265351
-0.0031779232
1.2177754
-0.0039951271
-0.005413659
0.90848889
20.127572
-1.5716169
0.009533059
16.471318
-1.9690444
0.0096377359
13.4161
-1.8270174
0.0097798051
10.869125
-1.6866659
0.0099648047
8.7517512
-1.5454857