/*--------------------------------*- C++ -*----------------------------------*\
| =========                 |                                                 |
| \\      /  F ield         | OpenFOAM: The Open Source CFD Toolbox           |
|  \\    /   O peration     | Version:  4.0                                   |
|   \\  /    A nd           | Web:      www.OpenFOAM.org                      |
|    \\/     M anipulation  |                                                 |
\*---------------------------------------------------------------------------*/
FoamFile
{
    version     2.0;
    format      ascii;
    class       volScalarField;
    location    "1000";
    object      T;
}
// * * * * * * * * * * * * * * * * * * * * * * * * * * * * * * * * * * * * * //

dimensions      [0 0 0 1 0 0 0];

internalField   nonuniform List<scalar> 
18000
(
391.78076
391.56598
391.43964
391.41721
391.51551
391.75268
392.14719
392.71602
393.47124
394.41718
395.54131
396.80238
398.11122
399.28894
400.12501
392.61568
392.39745
392.26798
392.24223
392.33774
392.57315
392.96756
393.53895
394.30216
395.26183
396.40649
397.69546
399.03537
400.30249
401.23993
394.17122
393.94052
393.79834
393.76091
393.84642
394.07481
394.46666
395.04212
395.81908
396.80201
397.97244
399.30823
400.72205
402.06187
403.09672
396.11177
395.85784
395.69204
395.63177
395.69681
395.90897
396.29088
396.86274
397.64728
398.65187
399.86632
401.24841
402.6959
404.07129
405.16727
397.99845
397.70982
397.50908
397.41534
397.45068
397.63987
398.00953
398.58492
399.38325
400.41425
401.6623
403.07706
404.58609
405.98711
407.11244
399.329
399.00106
398.76465
398.64266
398.66236
398.85176
399.23873
399.85364
400.71233
401.8148
403.14636
404.60089
406.07305
407.41633
408.48342
369.00151
368.74674
368.51383
368.30658
368.12876
367.9848
367.87894
367.81525
367.79826
367.83025
367.90892
368.02546
368.1549
368.23401
368.28495
369.35863
369.09757
368.85726
368.64148
368.45441
368.30011
368.18374
368.11054
368.08173
368.09824
368.16001
368.25514
368.34291
368.43691
368.48272
370.04421
369.76526
369.50567
369.26961
369.05999
368.88141
368.73857
368.63594
368.57701
368.56079
368.57701
368.63451
368.71025
368.77093
368.76229
370.89554
370.59025
370.30073
370.03118
369.78531
369.56776
369.38287
369.23303
369.12667
369.06516
369.04767
369.06592
369.09663
369.08343
368.95356
371.72082
371.3786
371.04902
370.73475
370.44143
370.17389
369.93792
369.73987
369.58571
369.48125
369.42385
369.40699
369.44265
369.3717
369.10373
372.29712
371.91111
371.53573
371.17504
370.83584
370.52326
370.24222
370.0057
369.81966
369.69084
369.63822
369.58551
369.49638
369.28301
368.81678
366.55783
366.29626
366.0417
365.79566
365.55946
365.33455
365.12243
364.92464
364.74268
364.5791
364.43438
364.30987
364.20467
364.11956
364.05251
366.80981
366.53928
366.27491
366.0175
365.76822
365.52835
365.29926
365.08242
364.8794
364.69072
364.51871
364.36423
364.22893
364.10837
364.00445
367.2794
366.99055
366.70475
366.42275
366.14543
365.87379
365.60898
365.35229
365.10512
364.86893
364.64513
364.43467
364.23751
364.05298
363.86985
367.84976
367.53383
367.21678
366.89895
366.58087
366.26332
365.94733
365.63431
365.32599
365.02433
364.7311
364.44692
364.16931
363.88983
363.59007
368.40235
368.04936
367.6901
367.32464
366.95346
366.57752
366.19839
365.81832
365.44011
365.0667
364.70012
364.33952
363.97807
363.59903
363.17291
368.782
368.38479
367.97656
367.55788
367.13007
366.69532
366.2567
365.81803
365.38333
364.95581
364.53606
364.11937
363.69291
363.2339
362.71254
366.55536
366.29291
366.03625
365.7863
365.54404
365.31053
365.08682
364.87405
364.67343
364.48638
364.31469
364.1608
364.02818
363.92181
363.84875
366.82062
366.54925
366.28219
366.02024
365.76424
365.51509
365.27378
365.04142
364.8193
364.60903
364.41277
364.23356
364.07575
363.94571
363.85283
367.30899
367.01974
366.73193
366.44607
366.16276
365.88269
365.60678
365.33618
365.07244
364.8177
364.57489
364.34814
364.14319
363.96823
363.8356
367.91546
367.59885
367.27949
366.95759
366.63352
366.30788
365.98172
365.65659
365.33477
365.01943
364.71479
364.42628
364.16068
363.92657
363.73565
368.50843
368.15508
367.79393
367.42508
367.04895
366.66655
366.27965
365.89095
365.50419
365.12423
364.75687
364.40861
364.08604
363.79527
363.54136
368.92932
368.53148
368.12152
367.70009
367.2685
366.82902
366.38499
365.94085
365.50215
365.0753
364.6671
364.28399
363.93089
363.6093
363.31373
366.58882
366.32638
366.06968
365.81962
365.57719
365.3434
365.11929
364.90595
364.70456
364.51494
364.34027
364.18318
364.04769
363.94002
363.86965
366.84975
366.57886
366.31226
366.0507
365.795
365.54601
365.30464
365.07191
364.84909
364.63625
364.43702
364.25442
364.0933
363.96118
363.86956
367.33925
367.04985
366.76182
366.4756
366.19169
365.9107
365.63335
365.36057
365.09356
364.83739
364.59195
364.36161
364.15282
363.97478
363.84003
367.93857
367.62213
367.30286
366.98081
366.65623
366.32961
366.0018
365.67421
365.34902
365.02949
364.72011
364.42706
364.15829
363.92344
363.73254
368.52051
368.167
367.8055
367.43586
367.05839
366.67391
366.28405
365.89146
365.50007
365.11524
364.74382
364.39393
364.07419
363.79246
363.55291
368.91909
368.52137
368.11096
367.68829
367.25463
366.81226
366.3647
365.91682
365.47489
365.04642
364.63969
364.26298
363.92326
363.62436
363.36468
366.65595
366.39337
366.13683
365.88755
365.64621
365.41386
365.1916
364.98051
364.7818
364.59682
364.42735
364.27584
364.14593
364.04304
363.9749
366.9278
366.65688
366.3905
366.12918
365.87414
365.62627
365.38659
365.1562
364.93641
364.72884
364.53571
364.36023
364.20713
364.08347
363.99966
367.42909
367.14008
366.85278
366.56776
366.28565
366.0072
365.73337
365.46538
365.20487
364.95413
364.71634
364.4961
364.29998
364.13748
364.02275
368.05048
367.73416
367.41542
367.09453
366.77191
366.44828
366.12477
365.80309
365.48575
365.17624
364.87937
364.60149
364.35095
364.1386
363.97903
368.65695
368.30391
367.94346
367.57575
367.20132
366.82133
366.43771
366.05343
365.67263
365.30075
364.9446
364.61223
364.31267
364.05543
363.84951
369.08608
368.68858
368.27937
367.8592
367.42955
366.99288
366.55276
366.11405
365.68285
365.26646
364.87312
364.51153
364.18988
363.91403
363.6828
366.67291
366.41071
366.15468
365.90582
365.66517
365.43384
365.21294
365.00365
364.80593
364.62229
364.45452
364.3051
364.17778
364.07825
364.01501
366.94057
366.66996
366.40411
366.14387
365.89012
365.64382
365.40598
365.1778
364.95937
364.75349
364.5622
364.38863
364.23753
364.11617
364.03554
367.44279
367.15374
366.86659
366.58185
366.30015
366.02219
365.74883
365.48113
365.2231
364.97448
364.73837
364.51931
364.32384
364.16128
364.0444
368.05962
367.7436
367.42536
367.10507
366.78314
366.4602
366.13732
365.81615
365.49911
365.18968
364.89269
364.61469
364.36416
364.15138
363.98746
368.65886
368.3058
367.94546
367.57784
367.20342
366.82326
366.43924
366.05434
365.67282
365.30047
364.94464
364.614
364.318
364.06562
363.86273
369.06965
368.67243
368.26333
367.843
367.41293
366.9757
366.53515
366.09657
365.66666
365.25343
364.8658
364.51277
364.20228
363.93941
363.72383
366.69032
366.42814
366.17223
365.92357
365.68324
365.45232
365.23195
365.02328
364.82757
364.6462
364.48094
364.33414
364.20922
364.11113
364.04674
366.96489
366.69383
366.42761
366.16711
365.91323
365.66697
365.4294
365.20171
364.98525
364.78171
364.59332
364.42322
364.27596
364.15819
364.07944
367.46977
367.18093
366.89411
366.60994
366.32912
366.05246
365.78102
365.51609
365.25943
365.01338
364.78123
364.56755
364.37885
364.22438
364.11761
368.09582
367.7797
367.4615
367.14156
366.8204
366.4988
366.178
365.85984
365.54694
365.24292
364.95272
364.68283
364.44165
364.24016
364.09312
368.70641
368.35359
367.99373
367.62707
367.25425
366.8765
366.4959
366.11554
365.73971
365.37401
365.02538
364.70195
364.41285
364.16789
363.97831
369.13823
368.74096
368.33239
367.91337
367.48547
367.05126
366.61447
366.18009
365.75436
365.34469
364.9593
364.60654
364.29346
364.02252
363.78395
366.69111
366.42926
366.17376
365.92565
365.686
365.45595
365.23667
365.02935
364.83406
364.65338
364.48763
364.34074
364.21626
364.11952
364.05839
366.96341
366.69262
366.42678
366.16676
365.91349
365.66796
365.43122
365.20449
364.98788
364.78412
364.5967
364.42718
364.28026
364.16299
364.08599
367.46894
367.18002
366.8932
366.60905
366.32822
366.05149
365.77975
365.51414
365.25873
365.01336
364.7812
364.56676
364.37651
364.21959
364.10852
368.09224
367.77637
367.45854
367.13896
366.81808
366.49662
366.17573
365.85714
365.54338
365.238
364.94595
364.6738
364.43002
364.22481
364.06926
368.69831
368.34543
367.98555
367.61875
367.24557
366.86718
366.48555
366.10378
365.72625
365.35886
365.00902
364.68549
364.39771
364.1547
363.96251
369.11417
368.71715
368.30859
367.88921
367.46063
367.02551
366.58782
366.15297
365.72778
365.32036
364.93968
364.59479
364.29366
364.04141
363.83809
366.67194
366.41007
366.15454
365.90637
365.66663
365.43642
365.2169
365.00924
364.81467
364.63459
364.47076
364.32556
364.20251
364.10683
364.0441
366.94656
366.67576
366.40988
366.14981
365.89646
365.65082
365.41395
365.187
364.97125
364.76832
364.58032
364.41031
364.26286
364.14496
364.06535
367.45323
367.16429
366.8775
366.59341
366.3127
366.03618
365.76482
365.49982
365.24277
364.99582
364.76202
364.54572
364.35317
364.19316
364.08186
368.074
367.75812
367.44027
367.12067
366.79976
366.47825
366.15725
365.83842
365.52422
365.21815
364.92506
364.65146
364.40564
364.1977
364.03835
368.67832
368.32542
367.96553
367.59872
367.22552
366.84709
366.46537
366.0834
365.70551
365.33749
364.98662
364.66148
364.37124
364.1245
363.92651
369.09325
368.6962
368.28763
367.86825
367.43965
367.00448
366.56669
366.13161
365.70598
365.29781
364.91588
364.569
364.2648
364.00788
363.79725
366.67475
366.4129
366.15742
365.90934
365.66974
365.43977
365.22062
365.01256
364.81761
364.63722
364.47139
364.32418
364.19919
364.10175
364.03969
366.94854
366.67773
366.4118
366.15163
365.89812
365.65222
365.41495
365.18836
364.97301
364.7706
364.58164
364.411
364.26311
364.14492
364.06692
367.45586
367.16692
366.88008
366.59589
366.31502
366.03825
365.76654
365.50105
365.2433
364.99527
364.76355
364.54908
364.35837
364.20059
364.08838
368.07936
367.76347
367.44559
367.12591
366.80489
366.48324
366.16206
365.84306
365.52874
365.22271
364.92996
364.65696
364.41204
364.20532
364.04792
368.68598
368.33308
367.97315
367.60626
367.23296
366.85438
366.47251
366.0904
365.71243
365.34444
364.99381
364.6692
364.38
364.13518
363.94078
369.10217
368.70512
368.29652
367.87706
367.44835
367.01306
366.57514
366.13997
365.71434
365.30632
364.92482
364.57886
364.27637
364.0225
363.81717
366.63809
366.37589
366.11993
365.87119
365.63076
365.39974
365.17927
364.97053
364.77477
364.59342
364.42643
364.27789
364.15138
364.05229
363.98855
366.90584
366.63524
366.36947
366.10938
365.85589
365.60994
365.37259
365.14495
364.92832
364.72442
364.53372
364.36105
364.21077
364.08968
364.00803
367.40888
367.11985
366.83283
366.54836
366.26709
365.98976
365.71729
365.45079
365.19171
364.94196
364.70808
364.49084
364.29653
364.13388
364.01467
368.02513
367.70913
367.39103
367.07101
366.74948
366.42711
366.10496
365.78466
365.46861
365.16031
364.86457
364.5876
364.33729
364.12294
363.95407
368.62453
368.27151
367.91133
367.54404
367.17012
366.79067
366.40757
366.02379
365.64354
365.2725
364.91777
364.5876
364.2907
364.03473
363.82338
369.03568
368.6385
368.2296
367.80965
367.38016
366.94373
366.5042
366.0668
365.63815
365.22605
364.83903
364.48552
364.17244
363.90334
363.67561
366.64885
366.3866
366.13045
365.8811
365.63985
365.40798
365.18655
364.97667
364.77963
364.59682
364.42984
364.28309
364.15827
364.05949
363.99379
366.91883
366.64768
366.38128
366.12073
365.86649
365.61968
365.38114
365.15177
364.93456
364.73298
364.5472
364.37673
364.22661
364.10548
364.02254
367.42374
367.13486
366.84799
366.56378
366.28307
366.00625
365.73447
365.469
365.21167
364.96516
364.73227
364.5166
364.32415
364.16361
364.04603
368.04817
367.73201
367.41376
367.09379
366.77263
366.45118
366.13095
365.8144
365.5009
365.19299
364.90082
364.62657
364.38028
364.17197
363.99729
368.6564
368.3035
367.94348
367.57659
367.20345
366.82533
366.44435
366.06457
365.69028
365.32118
364.96279
364.63015
364.33889
364.07818
363.86349
369.08611
368.6887
368.2798
367.86018
367.43136
366.99578
366.55696
366.11862
365.68633
365.26929
364.87552
364.51327
364.18246
363.91076
363.72007
366.59502
366.33274
366.07657
365.82749
365.58654
365.35481
365.13341
364.9235
364.72632
364.54327
364.37429
364.22344
364.09436
363.99247
363.92584
366.86027
366.58958
366.32359
366.06313
365.80909
365.56239
365.32406
365.09518
364.87703
364.67128
364.47835
364.30307
364.14973
364.02507
363.93926
367.35856
367.06942
366.78215
366.49727
366.21539
365.93724
365.66368
365.39579
365.13495
364.88304
364.64651
364.42603
364.22774
364.06014
363.93456
367.96876
367.65263
367.33425
367.01378
366.69159
366.3683
366.04492
365.72301
365.4049
365.09396
364.79489
364.51373
364.25808
364.0368
363.85846
368.56227
368.20911
367.84863
367.48082
367.10613
366.72557
366.34098
365.95519
365.57235
365.19797
364.83896
364.50331
364.1993
363.93386
363.70967
368.96947
368.57214
368.16289
367.74231
367.31188
366.87409
366.43269
365.99278
365.56081
365.14439
364.75178
364.39103
364.0686
363.7876
363.54469
366.62709
366.36454
366.10806
365.85864
365.6173
365.38511
365.16316
364.95257
364.75455
364.57042
364.40181
364.25285
364.12524
364.02407
363.95653
366.89688
366.62598
366.35977
366.09909
365.84483
365.59794
365.35945
365.13052
364.9125
364.7071
364.51668
364.34266
364.19127
364.06912
363.98587
367.40239
367.11344
366.82637
366.54175
366.26026
365.98269
365.71003
365.44357
365.18496
364.93652
364.70139
364.48399
364.29079
364.13089
364.01761
368.02807
367.71184
367.39336
367.07295
366.75109
366.42853
366.10648
365.78671
365.47179
365.16527
364.87195
364.59811
364.35183
364.14349
363.98679
368.63895
368.28602
367.92589
367.55879
367.18532
366.80669
366.42494
366.04313
365.66548
365.29752
364.94604
364.619
364.32515
364.07348
363.87219
369.0712
368.67382
368.265
367.84556
367.41706
366.98205
366.54423
366.10854
365.68121
365.2696
364.88193
364.52674
364.2119
363.94273
363.71754
366.63018
366.36739
366.11074
365.86122
365.61988
365.38781
365.16616
364.95608
364.75887
364.57596
364.40918
364.26106
364.13542
364.03754
363.97476
366.90106
366.62948
366.36264
366.10138
365.84661
365.59934
365.36064
365.13177
364.91408
364.70922
364.51925
364.34688
364.201
364.08513
364.00825
367.39764
367.10842
366.82113
366.5363
366.2546
365.97678
365.70373
365.44014
365.18473
364.93985
364.70874
364.49545
364.30861
364.15475
364.04601
368.01239
367.69698
367.37973
367.06091
366.74104
366.42096
366.10168
365.78609
365.47552
365.17415
364.88711
364.62159
364.37867
364.17327
364.01825
368.62505
368.27317
367.91467
367.54987
367.1795
366.80497
366.42865
366.04874
365.67397
365.30985
364.96311
364.64143
364.35267
364.10547
363.90784
369.06472
368.66753
368.25933
367.84098
367.41411
366.98132
366.54626
366.11375
365.6902
365.28302
364.90043
364.55084
364.24178
363.97802
363.75673
366.63247
366.37002
366.11387
365.86504
365.6246
365.39365
365.17332
364.96478
364.76922
364.58796
364.42256
364.27691
364.1524
364.05351
363.9864
366.90923
366.63846
366.37265
366.11268
365.85949
365.61407
365.37753
365.15107
364.93609
364.73432
364.54806
364.37864
364.2319
364.1138
364.03282
367.42813
367.13939
366.85285
366.56917
366.28908
366.01349
365.74348
365.48045
365.2262
364.98314
364.75447
364.54454
364.35952
364.20787
364.10168
368.07235
367.75641
367.43867
367.11953
366.79959
366.47978
366.16149
365.84671
365.53824
365.23988
364.9566
364.69474
364.46229
364.26931
364.12908
368.7028
368.35024
367.99107
367.62565
367.25477
366.8799
366.50336
366.12852
365.75996
365.40355
365.06637
364.75661
364.48331
364.25617
364.08544
369.14847
368.75151
368.34383
367.92645
367.5012
367.07093
366.63971
366.2129
365.79711
365.4001
365.03041
364.69699
364.40853
364.17262
363.99386
365.85406
365.5904
365.33169
365.07878
364.83259
364.59414
364.3645
364.14487
363.93658
363.74128
363.56297
363.4028
363.26476
363.15445
363.07955
366.11371
365.84175
365.57352
365.30971
365.05116
364.79876
364.55357
364.31682
364.08999
363.87489
363.67597
363.495
363.33725
363.20984
363.12254
366.60118
366.31196
366.02387
365.73746
365.45337
365.17243
364.89577
364.62491
364.36197
364.10994
363.86888
363.64739
363.45226
363.29261
363.18099
367.21771
366.90077
366.58111
366.25906
365.93513
365.61023
365.28577
364.96383
364.64741
364.34056
364.04862
363.77887
363.54005
363.34274
363.2
367.82022
367.46666
367.10571
366.73767
366.36329
365.98401
365.60221
365.22141
364.84646
364.48364
364.14068
363.8265
363.55081
363.32346
363.15365
368.24832
367.85038
367.44105
367.02127
366.59284
366.15862
365.72278
365.29086
364.86986
364.46809
364.09486
363.75989
363.47242
363.23976
363.06455
354.37451
354.09412
353.7935
353.46915
353.11701
352.73241
352.31004
351.84389
351.33601
350.78729
350.20418
349.60194
349.01497
348.49634
348.11899
354.46479
354.17473
353.86302
353.52595
353.15923
352.75794
352.31643
351.82823
351.28578
350.69705
350.07959
349.43905
348.81155
348.23069
347.78657
354.6369
354.3276
353.99373
353.63106
353.23697
352.80447
352.32758
351.79954
351.2128
350.55746
349.86506
349.14413
348.41135
347.72768
347.16698
354.87182
354.53484
354.1693
353.77034
353.33309
352.85098
352.31744
351.72473
351.0638
350.32378
349.51966
348.68291
347.84121
347.0395
346.34252
355.13185
354.75717
354.34854
353.90088
353.40539
352.8576
352.2497
351.57236
350.81395
349.959
349.05285
348.11396
347.1707
346.26464
345.44995
355.32461
354.90301
354.44126
353.9336
353.37351
352.75343
352.06417
351.29368
350.42474
349.49131
348.50806
347.49633
346.48786
345.5248
344.65479
335.258
334.95561
334.60585
334.20122
333.73355
333.19428
332.57491
331.86779
331.07204
330.1914
329.24005
328.24972
327.27916
326.42742
325.85235
335.13417
334.82058
334.45755
334.03723
333.55107
332.99014
332.34569
331.61004
330.77711
329.85261
328.85084
327.80333
326.76823
325.84323
325.18316
334.93055
334.59506
334.20615
333.75527
333.23312
332.62992
331.93597
331.14256
330.24332
329.23633
328.14188
326.99099
325.84065
324.7846
323.96635
334.70605
334.33889
333.91253
333.41747
332.84333
332.17923
331.41434
330.5389
329.54557
328.43154
327.21922
325.94106
324.65487
323.4519
322.46414
334.52736
334.11983
333.64594
333.09512
332.45589
331.71633
330.86476
329.8909
328.78751
327.55285
326.21461
324.80994
323.40151
322.08294
320.98048
334.43763
333.98185
333.45177
332.83582
332.12162
331.29644
330.34808
329.26596
328.04268
326.69412
325.24561
323.74373
322.26235
320.90572
319.80717
402.58222
402.38377
402.30004
402.35028
402.55539
402.93702
403.51596
404.30914
405.3247
406.55416
407.9603
409.4603
410.90293
412.03494
412.46064
403.73663
403.53628
403.45113
403.50043
403.70552
404.08803
404.66891
405.46563
406.48408
407.71225
409.10587
410.55656
411.92431
412.94231
413.20598
405.94493
405.73553
405.64222
405.68495
405.88545
406.26583
406.8468
407.64352
408.64931
409.85563
411.2119
412.60511
413.8659
414.7009
414.68606
408.88966
408.66104
408.54907
408.57453
408.75902
409.12513
409.69251
410.47366
411.46713
412.6551
413.97693
415.33763
416.48505
417.08219
416.62934
412.18938
411.92955
411.78673
411.78298
411.94212
412.28834
412.8434
413.62237
414.63876
415.84938
417.17621
418.46464
419.45144
419.73391
418.7404
415.34321
415.04159
414.86289
414.83361
414.98282
415.34006
415.93122
416.7714
417.85331
419.12932
420.48979
421.73558
422.55052
422.4825
420.94958
344.53409
344.24799
343.94083
343.6082
343.24464
342.84347
342.39651
341.89374
341.32299
340.6696
339.9162
339.0425
338.02551
336.83997
335.45929
344.80348
344.50844
344.19077
343.8458
343.46779
343.04974
342.5831
342.05747
341.46029
340.77652
339.98844
339.07554
338.01474
336.78083
335.3472
345.31715
345.00344
344.66386
344.29327
343.88539
343.43264
342.92583
342.35394
341.70381
340.95989
340.10416
339.11608
337.97294
336.65027
335.12226
345.99547
345.65276
345.2793
344.86929
344.41573
343.91031
343.34316
342.70262
341.97508
341.14481
340.19399
339.10293
337.8505
336.41468
334.77243
346.73167
346.3497
345.93067
345.46806
344.95422
344.38019
343.73567
343.00877
342.18597
341.25214
340.19071
338.98425
337.61537
336.06795
334.32749
347.39691
346.96672
346.4925
345.96725
345.38297
344.73057
343.9997
343.17873
342.25471
341.21363
340.04122
338.72463
337.25545
335.63507
333.88324
342.55225
342.26217
341.94577
341.59805
341.21307
340.78379
340.30189
339.7576
339.13953
338.43451
337.6275
336.70156
335.63789
334.41591
333.01328
342.76432
342.46467
342.13705
341.77623
341.37601
340.92908
340.42685
339.85929
339.2148
338.48007
337.64003
336.6779
335.57521
334.312
332.86675
343.16622
342.84751
342.49759
342.11076
341.68033
341.19852
340.65627
340.04316
339.34729
338.55528
337.65225
336.62195
335.44689
334.10837
332.58595
343.70204
343.35456
342.97108
342.54524
342.06975
341.53621
340.93506
340.25554
339.48564
338.61227
337.62131
336.4979
335.2266
333.79141
332.174
344.30238
343.91657
343.48861
343.01148
342.47725
341.87704
341.20098
340.43828
339.57733
338.60591
337.51147
336.28148
334.90386
333.36739
331.6605
344.88636
344.4536
343.97179
343.43345
342.83033
342.15337
341.39281
340.53821
339.57871
338.5033
337.30122
335.96269
334.48028
332.85224
331.09529
342.49128
342.2019
341.88611
341.53888
341.1542
340.72497
340.24274
339.69763
339.07805
338.37063
337.5601
336.62932
335.55945
334.33039
332.92221
342.73301
342.43453
342.10804
341.7483
341.34904
340.90285
340.40103
339.83335
339.18796
338.45121
337.60758
336.63967
335.52811
334.25556
332.80356
343.19675
342.8794
342.53083
342.14534
341.71617
341.23543
340.69387
340.0808
339.38392
338.58925
337.68113
336.64218
335.45352
334.09928
332.56585
343.81905
343.47266
343.09024
342.6655
342.19107
341.65844
341.05783
340.37815
339.60686
338.73004
337.73238
336.59726
335.30643
333.84705
332.20653
344.51394
344.12838
343.70062
343.22375
342.6898
342.0898
341.41369
340.65034
339.78753
338.81204
337.70971
336.46571
335.06551
333.49747
331.74311
345.17635
344.74257
344.25971
343.72043
343.11655
342.43908
341.67827
340.8236
339.86392
338.78783
337.58451
336.24567
334.76998
333.09119
331.17429
342.49678
342.20644
341.88924
341.54008
341.1529
340.72055
340.23454
339.68495
339.06022
338.347
337.53014
336.59262
335.51573
334.27929
332.86192
342.71265
342.41274
342.08431
341.72202
341.31955
340.86945
340.36299
339.78997
339.1386
338.39538
337.54508
336.57078
335.45402
334.17507
332.71313
343.12208
342.80312
342.45237
342.06401
341.63124
341.14612
340.59943
339.98054
339.27734
338.47619
337.56194
336.51806
335.32683
333.96955
332.42626
343.66934
343.32164
342.93731
342.50991
342.03199
341.49499
340.88918
340.20351
339.42571
338.54226
337.53856
336.39915
335.10796
333.64856
332.00286
344.28496
343.89893
343.4701
342.99133
342.45454
341.85065
341.16954
340.40007
339.53019
338.54705
337.43728
336.18739
334.78435
333.21651
331.47263
344.88886
344.45585
343.97308
343.43295
342.827
342.14592
341.37958
340.51708
339.54688
338.4571
337.23594
335.87255
334.3589
332.69427
330.89644
342.37239
342.08237
341.76524
341.41582
341.02794
340.59547
340.10892
339.55826
338.93182
338.21614
337.39594
336.45418
335.3723
334.13067
332.70937
342.60666
342.30812
341.98101
341.62002
341.21884
340.76879
340.26199
339.68809
339.03512
338.28933
337.43523
336.45559
335.33173
334.04393
332.572
343.05953
342.74172
342.39198
342.00447
341.57233
341.08747
340.54053
339.92064
339.21539
338.41068
337.49083
336.43864
335.23565
333.86249
332.29905
343.66327
343.31631
342.93248
342.50534
342.02737
341.48986
340.88287
340.19506
339.4137
338.52466
337.51254
336.3608
335.05209
333.56819
331.88964
344.33454
343.94833
343.51897
343.03936
342.50133
341.89567
341.21205
340.43903
339.56402
338.57341
337.45273
336.18702
334.76127
333.16088
331.37167
344.97295
344.53852
344.05401
343.51186
342.90361
342.21995
341.45066
340.58453
339.60946
338.51178
337.27878
335.89861
334.36188
332.66532
330.82143
342.32973
342.03963
341.72228
341.37254
340.98432
340.55048
340.06268
339.50892
338.87843
338.15808
337.33257
336.38468
335.29591
334.04725
332.61839
342.54218
342.24219
341.91309
341.54942
341.1447
340.69127
340.17999
339.60246
338.94575
338.19573
337.33682
336.35186
335.22058
333.92652
332.45515
342.93069
342.61195
342.26076
341.87119
341.43628
340.94792
340.39672
339.77188
339.06105
338.25039
337.32447
336.26637
335.05832
333.68485
332.12805
343.44623
343.09848
342.71342
342.28461
341.8028
341.25777
340.6431
339.94831
339.15826
338.26035
337.24406
336.0909
334.79604
333.33612
331.63928
344.0173
343.62917
343.19726
342.71186
342.16715
341.55569
340.86385
340.07971
339.19429
338.19448
337.06461
335.7994
334.38378
332.81227
331.07375
344.55475
344.12009
343.63371
343.08908
342.4769
341.78729
341.00961
340.13257
339.14447
338.0336
336.78866
335.4003
333.85987
332.15838
330.42331
342.138
341.84782
341.52975
341.17852
340.78831
340.35192
339.86047
339.30385
338.6703
337.9463
337.11655
336.16405
335.07043
333.81665
332.38445
342.35512
342.05582
341.72766
341.36534
340.9614
340.50786
339.9965
339.41697
338.75727
338.00369
337.14081
336.15161
335.01762
333.71921
332.23571
342.78101
342.46178
342.11033
341.71866
341.28054
340.79047
340.23808
339.61182
338.89891
338.0852
337.15509
336.09154
334.87583
333.48607
331.91218
343.33563
342.98571
342.59949
342.16895
341.68625
341.14287
340.5281
339.83026
339.03659
338.13328
337.10594
335.94092
334.62881
333.16845
331.42089
343.94173
343.55682
343.12554
342.64397
342.10294
341.48914
340.79308
340.00375
339.10844
338.09299
336.94168
335.63574
334.17803
332.60752
330.77523
344.52248
344.08677
343.59913
343.0516
342.43525
341.74006
340.95512
340.06891
339.06924
337.94353
336.67979
335.26914
333.67965
331.8171
329.95716
342.0008
341.70987
341.39017
341.03631
340.64187
340.19929
339.69972
339.13282
338.48673
337.74802
336.90192
335.92074
334.79437
333.50227
332.06207
342.19601
341.89564
341.56462
341.19725
340.78676
340.3252
339.80323
339.20998
338.53288
337.75749
336.86724
335.85551
334.69561
333.36805
331.88724
342.57114
342.25222
341.89893
341.50508
341.06335
340.56524
340.00097
339.3594
338.62809
337.79405
336.84341
335.76169
334.53564
333.15735
331.55606
343.10005
342.75023
342.36072
341.92458
341.4337
340.87866
340.24855
339.53118
338.71196
337.7983
336.7566
335.57207
334.231
332.72069
331.02675
343.6467
343.25778
342.82271
342.33369
341.7818
341.15689
340.44735
339.65242
338.74761
337.72555
336.56421
335.25521
333.78973
332.16427
330.38454
344.14893
343.71358
343.22521
342.67587
342.05697
341.35952
340.57359
339.67743
338.67056
337.51208
336.21906
334.78364
333.20599
331.50423
329.74159
341.84421
341.55246
341.23113
340.87434
340.47552
340.027
339.51984
338.94376
338.28713
337.53702
336.671
335.67984
334.54844
333.26438
331.78564
342.03184
341.73041
341.39687
341.02574
340.61017
340.14213
339.6123
339.00995
338.32296
337.53826
336.63304
335.59735
334.41243
333.05802
331.54974
342.36156
342.03978
341.68263
341.28366
340.83535
340.32892
339.75413
339.09913
338.3502
337.49135
336.52283
335.41588
334.15558
332.72994
331.13113
342.78219
342.43163
342.04046
341.60152
341.10658
340.5462
339.90967
339.18498
338.35902
337.41805
336.3478
335.1335
333.76263
332.22646
330.51687
343.25542
342.86617
342.42966
341.93792
341.38194
340.75155
340.03541
339.22116
338.29556
337.24493
336.05578
334.71613
333.21746
331.55751
329.74288
343.71492
343.27839
342.787
342.23207
341.6039
340.89174
340.08385
339.16764
338.12997
336.95771
335.63881
334.16418
332.53153
330.75414
328.87752
341.46809
341.17595
340.85231
340.49131
340.08603
339.62835
339.10881
338.51649
337.83895
337.06234
336.17167
335.15151
333.98725
332.66705
331.15684
341.64661
341.3449
341.00985
340.63532
340.21408
339.73768
339.1963
338.5787
337.87214
337.0626
336.13521
335.07539
333.87196
332.47981
330.93473
341.98395
341.66264
341.30428
340.90222
340.44862
339.9344
339.3491
338.6808
337.91615
337.04049
336.03808
334.89206
333.60158
332.1277
330.5468
342.42594
342.07483
341.68124
341.23778
340.73581
340.16544
339.5154
338.77303
337.92436
336.95441
335.84793
334.59188
333.18623
331.71985
329.92544
342.90602
342.51527
342.07524
341.57768
341.01315
340.37093
339.63907
338.80436
337.85246
336.76793
335.53371
334.15437
332.62679
330.94209
329.12871
343.3464
342.90734
342.41152
341.8501
341.21313
340.48964
339.6677
338.73464
337.67699
336.48058
335.13665
333.60961
331.86612
329.92496
327.97434
341.06801
340.77399
340.4462
340.0784
339.66327
339.19222
338.6553
338.04108
337.33662
336.52764
335.59884
334.53476
333.32122
331.94783
330.41171
341.20093
340.8969
340.55717
340.17519
339.74331
339.2526
338.69277
338.05201
337.3171
336.47352
335.50592
334.39908
333.13955
331.7184
330.13534
341.45046
341.12658
340.76319
340.35317
339.88825
339.35886
338.75406
338.06145
337.2673
336.35676
335.31456
334.12611
332.7796
331.26911
329.59882
341.77712
341.42358
341.02499
340.57342
340.05976
339.47359
338.80314
338.03531
337.15588
336.14998
335.00291
333.70152
332.23744
330.61073
328.83358
342.13753
341.74493
341.30025
340.79465
340.21807
339.55915
338.80529
337.94281
336.95728
335.83432
334.56076
333.12661
331.5297
329.78046
327.90607
342.48879
342.04868
341.54847
340.97842
340.32757
339.58379
338.7338
337.7635
336.65848
335.40525
333.99333
332.41937
330.69041
328.83463
326.91603
340.37899
340.08396
339.75278
339.37878
338.95413
338.46967
337.91473
337.27424
336.53661
335.6866
334.70822
333.58584
332.30621
330.86137
329.25124
340.50902
340.20406
339.86082
339.47232
339.03035
338.52537
337.94647
337.2784
336.50958
335.62383
334.60521
333.43862
332.11291
330.62584
328.99342
340.74785
340.42269
340.05495
339.63692
339.15966
338.61275
337.98456
337.26893
336.44856
335.48988
334.39127
333.13463
331.71192
330.12443
328.38807
341.05662
340.70204
340.29875
339.83824
339.31068
338.70499
338.00909
337.20985
336.2949
335.24503
334.05905
332.66507
331.1069
329.39222
327.54608
341.41637
341.02093
340.569
340.05093
339.45553
338.77002
337.98061
337.07183