/*--------------------------------*- C++ -*----------------------------------*\
| =========                 |                                                 |
| \\      /  F ield         | OpenFOAM: The Open Source CFD Toolbox           |
|  \\    /   O peration     | Version:  4.0                                   |
|   \\  /    A nd           | Web:      www.OpenFOAM.org                      |
|    \\/     M anipulation  |                                                 |
\*---------------------------------------------------------------------------*/
FoamFile
{
    version     2.0;
    format      ascii;
    class       volScalarField;
    location    "1000";
    object      T;
}
// * * * * * * * * * * * * * * * * * * * * * * * * * * * * * * * * * * * * * //

dimensions      [0 0 0 1 0 0 0];

internalField   nonuniform List<scalar> 
324000
(
388.65273
388.49209
388.33383
388.17826
388.02561
387.87608
387.72992
387.58735
387.44841
387.31352
387.18291
387.05682
386.93546
386.81907
386.70786
386.60205
386.50187
386.40755
386.31936
386.23758
386.16258
386.09477
386.03468
385.98293
385.9403
385.9077
385.88619
388.97511
388.80952
388.64589
388.48452
388.32558
388.16928
388.01581
387.86541
387.71809
387.57426
387.43413
387.29792
387.16586
387.03819
386.91513
386.79696
386.68395
386.5764
386.47468
386.37921
386.2905
386.20918
386.13603
386.07201
386.01835
385.97658
385.94863
389.56228
389.38592
389.21066
389.03674
388.86428
388.69343
388.52435
388.35722
388.19264
388.03041
387.87074
387.71387
387.56005
387.40956
387.26271
387.11986
386.98142
386.84788
386.71981
386.59786
386.48285
386.37571
386.27759
386.18982
386.11402
386.0521
386.00636
390.28391
390.09097
389.8982
389.70541
389.51268
389.32013
389.12788
388.93609
388.74494
388.55466
388.36549
388.17775
387.9918
387.80806
387.62704
387.44932
387.27559
387.10665
386.94338
386.78683
386.63813
386.49857
386.3695
386.2524
386.1488
386.06022
385.98804
390.97856
390.76359
390.54692
390.32857
390.10862
389.88717
389.66438
389.44046
389.21568
388.9904
388.76505
388.54015
388.31636
388.0944
387.87516
387.65962
387.44888
387.24415
387.04673
386.85799
386.67932
386.51208
386.35756
386.21686
386.09077
385.97965
385.88302
391.45072
391.20891
390.96387
390.71572
390.46464
390.2109
389.95486
389.69696
389.43778
389.178
388.91842
388.65998
388.40373
388.15084
387.9026
387.66037
387.42559
387.1997
386.98415
386.78032
386.58944
386.41254
386.25036
386.10322
385.97091
385.85257
385.74651
388.66138
388.50035
388.34178
388.18599
388.03309
387.88331
387.73687
387.59401
387.45495
387.31993
387.18918
387.06291
386.94166
386.82537
386.71424
386.60852
386.50842
386.41418
386.32606
386.24437
386.16943
386.10165
386.04149
385.98953
385.94641
385.91286
385.88968
388.98719
388.82097
388.65677
388.49509
388.33585
388.17923
388.02544
387.8747
387.72722
387.58323
387.44296
387.30665
387.17423
387.04623
386.92292
386.80456
386.69146
386.58394
386.48237
386.38719
386.29892
386.21816
386.14566
386.0823
386.02919
385.98764
385.95925
389.57269
389.39626
389.22103
389.047
388.8744
388.70341
388.53422
388.36701
388.20198
388.03933
387.87931
387.72216
387.56816
387.41762
387.2709
387.12838
386.99051
386.85781
386.73087
386.6104
386.49721
386.39225
386.2967
386.21191
386.13961
386.08193
386.04166
390.29034
390.0978
389.90517
389.71223
389.51937
389.32674
389.13446
388.94272
388.75171
388.56169
388.37293
388.18577
388.00062
387.81794
387.63826
387.46221
387.29049
387.12391
386.96339
386.80994
386.66471
386.52895
386.40407
386.29165
386.19349
386.11172
386.049
390.98431
390.76954
390.5531
390.33506
390.1155
389.89457
389.67243
389.44932
389.22555
389.00149
388.77761
388.55447
388.33271
388.11311
387.89652
387.68393
387.4764
387.27509
387.08124
386.89613
386.72107
386.55737
386.40624
386.26878
386.14591
386.03818
385.9457
391.469
391.22736
390.98264
390.73501
390.48465
390.23185
389.977
389.72053
389.46303
389.20516
388.9477
388.69157
388.43776
388.1874
387.9417
387.70195
387.46951
387.24576
387.03207
386.82975
386.63998
386.46371
386.30154
386.1535
386.01873
385.89496
385.77755
388.66239
388.50166
388.34342
388.18788
388.03525
387.88577
387.73966
387.59715
387.45849
387.32391
387.19363
387.06791
386.94663
386.83034
386.71923
386.61355
386.5135
386.41934
386.33131
386.24973
386.17493
386.10735
386.04749
385.996
385.95365
385.92134
385.90013
388.9853
388.81963
388.65603
388.49468
388.33577
388.17951
388.02609
387.87573
387.72865
387.58506
387.44519
387.30928
387.17725
387.04964
386.92668
386.80862
386.69575
386.58836
386.48683
386.39156
386.30308
386.22201
386.14911
386.08536
386.03197
385.99045
385.96274
389.57383
389.39743
389.22221
389.04832
388.87591
388.70511
388.53611
388.36906
388.20416
388.0416
387.88159
387.72435
387.5708
387.42059
387.27401
387.13145
386.99331
386.86006
386.73229
386.61066
386.49598
386.38918
386.29142
386.20402
386.12861
386.06711
386.02181
390.29547
390.1028
389.91004
389.71726
389.52454
389.33201
389.13979
388.94803
388.75693
388.5667
388.3776
388.18995
388.00411
387.82052
387.63966
387.46214
387.28863
387.11994
386.95696
386.80071
386.65236
386.51317
386.38452
386.26788
386.16478
386.07675
386.0052
390.99086
390.7759
390.55924
390.34092
390.121
389.89959
389.67686
389.453
389.2283
389.00311
388.77787
388.5531
388.32945
388.10767
387.88862
387.6733
387.46281
387.25836
387.06126
386.87287
386.69459
386.5278
386.37377
386.23361
386.10814
385.99769
385.90181
391.46344
391.22164
390.97662
390.7285
390.47746
390.22376
389.96778
389.70996
389.45087
389.1912
388.93175
388.67346
388.41738
388.16469
387.91668
387.6747
387.44021
387.21465
386.99947
386.79604
386.60562
386.42924
386.26762
386.1211
385.98947
385.87184
385.7665
388.66242
388.5014
388.34284
388.18695
388.03409
387.88434
387.73794
387.59512
387.4561
387.32114
387.19045
387.06427
386.94281
386.82631
386.71498
386.60903
386.5091
386.41504
386.32709
386.24555
386.17077
386.10313
386.04311
385.99127
385.94825
385.91478
385.89163
388.98767
388.82145
388.65746
388.4957
388.33647
388.17985
388.02607
387.87534
387.72786
387.58387
387.4436
387.30728
387.17515
387.04745
386.92447
386.80648
386.69335
386.58583
386.48428
386.38915
386.30094
386.22026
386.14785
386.08461
386.03163
385.99021
385.96198
389.57364
389.3972
389.22203
389.04818
388.87556
388.70457
388.53539
388.3682
388.20319
388.04059
387.88062
387.72353
387.56961
387.41917
387.27254
387.13013
386.99236
386.85977
386.73295
386.61261
386.49956
386.39476
386.29937
386.21478
386.1427
386.08526
386.04527
390.2918
390.09926
389.90634
389.71342
389.5206
389.328
389.13577
388.94407
388.75312
388.56315
388.37446
388.18739
388.00232
387.81973
387.64016
387.46422
387.29263
387.12619
386.96582
386.81254
386.66748
386.53192
386.40726
386.29509
386.1972
386.11574
386.05336
390.98591
390.77114
390.55471
390.33668
390.11714
389.89623
389.67412
389.45105
389.22732
389.00332
388.7795
388.55643
388.33475
388.11524
387.89877
387.68629
387.47889
387.27773
387.08405
386.89913
386.72428
386.56081
386.40994
386.27278
386.15023
386.04287
385.9508
391.47081
391.22917
390.98446
390.73684
390.4865
390.23373
389.9789
389.72247
389.46501
389.2072
388.94981
388.69375
388.44003
388.18977
387.94418
387.70457
387.47228
387.24869
387.03519
386.83309
386.64355
386.46755
386.30568
386.15797
386.02359
385.90025
385.78334
388.6627
388.50197
388.34373
388.18818
388.03556
387.88607
387.73996
387.59745
387.45879
387.3242
387.19392
387.06791
386.94664
386.83035
386.71926
386.61358
386.51354
386.41939
386.33137
386.24978
386.17498
386.10739
386.04752
385.996
385.9536
385.92122
385.89991
388.98552
388.81985
388.65625
388.4949
388.33599
388.17973
388.02632
387.87596
387.72888
387.5853
387.44545
387.30929
387.1773
387.04973
386.92679
386.80876
386.6959
386.58854
386.48702
386.39177
386.3033
386.22223
386.14935
386.08561
386.03222
385.99071
385.96301
389.57379
389.39738
389.22217
389.04828
388.87587
388.70508
388.53608
388.36904
388.20414
388.04158
387.88156
387.72492
387.57133
387.42109
387.27449
387.13191
386.99375
386.8605
386.73272
386.6111
386.49642
386.38964
386.2919
386.20455
386.12919
386.06776
386.02256
390.29577
390.1031
389.91034
389.71755
389.52485
389.33232
389.1401
388.94835
388.75726
388.56704
388.37796
388.19033
388.00451
387.82092
387.64008
387.46258
387.28908
387.1204
386.95743
386.8012
386.65287
386.5137
386.38508
386.26847
386.1654
386.07743
386.00592
390.99127
390.77631
390.55966
390.34133
390.12141
389.90001
389.67727
389.45342
389.22873
389.00354
388.7783
388.55354
388.3299
388.10812
387.88908
387.67376
387.46327
387.25883
387.06174
386.87336
386.6951
386.52832
386.3743
386.23416
386.1087
385.99826
385.90239
391.46389
391.22209
390.97707
390.72895
390.47791
390.22422
389.96823
389.71041
389.45133
389.19165
388.93221
388.67391
388.41784
388.16515
387.91714
387.67517
387.44068
387.21512
386.99995
386.79653
386.60612
386.42973
386.26812
386.1216
385.98996
385.87231
385.76695
388.66224
388.50122
388.34266
388.18678
388.03391
387.88417
387.73777
387.59495
387.45594
387.32098
387.1903
387.06412
386.94267
386.82618
386.71485
386.60929
386.50936
386.41529
386.32735
386.24582
386.17106
386.10344
386.04346
385.99166
385.94869
385.91529
385.89223
388.98781
388.8216
388.65741
388.49565
388.33644
388.17984
388.02607
387.87535
387.72789
387.58393
387.44368
387.30739
387.17529
387.04764
386.92471
386.80637
386.6933
386.58584
386.48435
386.38926
386.3011
386.22047
386.1481
386.0849
386.03195
385.99056
385.96234
389.57374
389.39731
389.22207
389.04826
388.87565
388.70467
388.5355
388.36832
388.20333
388.04074
387.88078
387.7237
387.56979
387.41936
387.27273
387.13032
386.99257
386.85999
386.73319
386.61286
386.49983
386.39506
386.29969
386.21512
386.14305
386.08562
386.04563
390.29194
390.0994
389.90679
389.71385
389.52102
389.32841
389.13616
388.94446
388.7535
388.56352
388.37482
388.18774
388.00267
387.82008
387.64051
387.46457
387.29298
387.12655
386.96619
386.81292
386.66788
386.53234
386.40771
386.29556
386.1977
386.11627
386.05392
390.98627
390.77151
390.55507
390.33704
390.11751
389.8966
389.67449
389.45142
389.2277
389.0037
388.77988
388.55681
388.33515
388.11565
387.89918
387.68671
387.47933
387.27818
387.08452
386.89962
386.7248
386.56136
386.41052
386.2734
386.1509
386.0436
385.95161
391.47119
391.22955
390.98485
390.73722
390.48688
390.23412
389.97929
389.72287
389.46541
389.2076
388.95022
388.69417
388.44046
388.19021
387.94464
387.70504
387.47277
387.24921
387.03574
386.83366
386.64416
386.4682
386.30637
386.15873
386.02442
385.90117
385.78438
388.66225
388.50152
388.34328
388.18774
388.03511
387.88564
387.73953
387.59703
387.45838
387.32381
387.19354
387.06754
386.9463
386.83003
386.71895
386.61329
386.51328
386.41914
386.33115
386.2496
386.17483
386.10728
386.04746
385.99601
385.95369
385.92141
385.90024
388.98513
388.81947
388.65587
388.49452
388.33561
388.17935
388.02594
387.87559
387.72852
387.58494
387.4451
387.30893
387.17696
387.04939
386.92646
386.80843
386.69559
386.58823
386.48672
386.39148
386.30303
386.22198
386.14911
386.08539
386.03203
385.99054
385.96286
389.57355
389.39714
389.22193
389.04804
388.87561
388.70482
388.5358
388.36875
388.20384
388.04126
387.88123
387.72458
387.57098
387.42072
387.27411
387.13152
386.99335
386.86009
386.73231
386.61068
386.49599
386.38921
386.29145
386.20408
386.12869
386.0672
386.02193
390.29528
390.10261
389.90984
389.71706
389.52435
389.33182
389.1396
388.94786
388.75676
388.56654
388.37746
388.18982
388.004
387.82041
387.63957
387.46206
387.28856
387.11988
386.95691
386.80068
386.65234
386.51317
386.38453
386.26791
386.16483
386.07683
386.0053
390.99068
390.77572
390.55906
390.34074
390.12082
389.89942
389.67668
389.45283
389.22814
389.00296
388.77772
388.55296
388.32932
388.10755
387.88851
387.6732
387.46272
387.25828
387.06119
386.87282
386.69456
386.52779
386.37378
386.23364
386.10818
385.99776
385.9019
391.46326
391.22146
390.97644
390.72832
390.47728
390.22359
389.96761
389.70979
389.45071
389.19104
388.9316
388.67331
388.41724
388.16456
387.91656
387.6746
387.44011
387.21456
386.9994
386.79599
386.60558
386.42922
386.26762
386.12111
385.9895
385.87187
385.76654
388.66195
388.50093
388.34237
388.18649
388.03362
387.88387
387.73747
387.59465
387.45564
387.32069
387.19001
387.06383
386.94239
386.82591
386.71459
386.60867
386.50877
386.41473
386.32682
386.24532
386.17057
386.10298
386.04301
385.99123
385.94828
385.9149
385.89187
388.98725
388.82103
388.65704
388.49527
388.33605
388.17944
388.02566
387.87493
387.72746
387.58348
387.44321
387.3069
387.17478
387.04711
386.92414
386.80617
386.69306
386.58555
386.48403
386.38892
386.30074
386.22009
386.14772
386.08451
386.03155
385.99016
385.96194
389.57332
389.39688
389.22171
389.04787
388.87525
388.70428
388.5351
388.36792
388.20292
388.04033
387.88037
387.72329
387.56938
387.41895
387.27233
387.12992
386.99217
386.85959
386.73278
386.61245
386.49941
386.39463
386.29925
386.21467
386.14257
386.08512
386.04509
390.29165
390.09911
389.90619
389.71327
389.52045
389.32785
389.13562
388.94393
388.75298
388.56302
388.37433
388.18726
388.0022
387.81962
387.64005
387.46412
387.29254
387.12611
386.96575
386.81249
386.66745
386.5319
386.40726
386.2951
386.19724
386.11579
386.05343
390.98585
390.77108
390.55465
390.33662
390.11708
389.89617
389.67407
389.451
389.22727
389.00327
388.77946
388.55639
388.33473
388.11523
387.89876
387.68629
387.47891
387.27777
387.0841
386.89921
386.72439
386.56094
386.4101
386.27298
386.15048
386.04318
385.9512
391.4708
391.22916
390.98446
390.73683
390.48649
390.23372
389.9789
389.72247
389.46502
389.20721
388.94983
388.69378
388.44007
388.18982
387.94425
387.70465
387.47238
387.24882
387.03534
386.83326
386.64376
386.4678
386.30598
386.15834
386.02403
385.9008
385.78404
388.66137
388.50064
388.3424
388.18685
388.03423
387.88475
387.73865
387.59615
387.45752
387.32275
387.19225
387.06627
386.94503
386.82876
386.71768
386.61201
386.51198
386.41783
386.32982
386.24825
386.17346
386.10588
386.04603
385.99454
385.95217
385.91984
385.89861
388.98413
388.81847
388.65486
388.49351
388.33461
388.17835
388.02494
387.8746
387.72755
387.58381
387.44377
387.30766
387.1757
387.04814
386.92521
386.80719
386.69433
386.58696
386.48544
386.39018
386.3017
386.22062
386.14772
386.08397
386.03057
385.98904
385.96132
389.57219
389.39578
389.22056
389.04666
388.87423
388.70342
388.53438
388.36729
388.2023
388.04009
387.88051
387.72375
387.57008
387.41975
387.27309
387.13045
386.99223
386.85893
386.73111
386.60943
386.4947
386.38787
386.29008
386.20266
386.12722
386.06569
386.02038
390.29414
390.10147
389.9087
389.71592
389.52321
389.33068
389.13846
388.94671
388.75561
388.5654
388.37631
388.18867
388.00284
387.81924
387.63838
387.46084
387.28732
387.11861
386.9556
386.79933
386.65095
386.51172
386.38303
386.26635
386.16321
386.07513
386.00352
390.98954
390.77458
390.55792
390.33959
390.11967
389.89826
389.67552
389.45166
389.22696
389.00177
388.77652
388.55174
388.32808
388.10629
387.88723
387.67189
387.46137
387.25689
387.05976
386.87134
386.69302
386.52618
386.37209
386.23187
386.10632
385.99578
385.89978
391.46208
391.22029
390.97527
390.72714
390.47609
390.2224
389.96641
389.70858
389.44948
389.1898
388.93034
388.67203
388.41594
388.16323
387.91519
387.67319
387.43866
387.21306
386.99784
386.79436
386.60388
386.42743
386.26573
386.11912
385.98737
385.86961
385.7641
388.66175
388.50073
388.34218
388.18629
388.03343
387.88368
387.73729
387.59447
387.45547
387.32051
387.18983
387.06366
386.94222
386.82574
386.71442
386.60849
386.50859
386.41455
386.32663
386.24513
386.17037
386.10278
386.0428
385.99101
385.94805
385.91465
385.89159
388.98709
388.82088
388.65689
388.49512
388.3359
388.17929
388.02551
387.87478
387.72731
387.58333
387.44306
387.30675
387.17463
387.04695
386.92398
386.80601
386.69289
386.58539
386.48386
386.38875
386.30057
386.21992
386.14754
386.08432
386.03136
385.98997
385.96174
389.57318
389.39674
389.22156
389.04772
388.8751
388.70412
388.53494
388.36775
388.20275
388.04015
387.88019
387.72311
387.56921
387.41877
387.27216
387.12976
386.992
386.85943
386.73263
386.61231
386.49928
386.3945
386.29914
386.21457
386.14249
386.08506
386.04508
390.29148
390.09894
389.90602
389.7131
389.52028
389.32769
389.13546
388.94376
388.75282
388.56286
388.37417
388.1871
388.00205
387.81947
387.63991
387.46399
387.29241
387.12599
386.96564
386.81239
386.66736
386.53183
386.40721
386.29507
386.19723
386.11581
386.05348
390.9857
390.77093
390.5545
390.33647
390.11694
389.89603
389.67392
389.45085
389.22713
389.00313
388.77933
388.55626
388.3346
388.11511
387.89865
387.68619
387.47882
387.27769
387.08404
386.89915
386.72435
386.56092
386.41011
386.27301
386.15054
386.04327
385.95133
391.47066
391.22903
390.98432
390.7367
390.48636
390.23359
389.97877
389.72235
389.4649
389.20709
388.94972
388.69367
388.43997
388.18973
387.94416
387.70458
387.47232
387.24877
387.03531
386.83325
386.64377
386.46783
386.30604
386.15842
386.02416
385.90097
385.78425
388.66089
388.50015
388.34191
388.18637
388.03374
387.88425
387.73814
387.59563
387.45696
387.32215
387.19162
387.06563
386.94438
386.82811
386.71704
386.61138
386.51136
386.41722
386.32922
386.24766
386.17288
386.10531
386.04547
385.99399
385.95163
385.91931
385.89808
388.98364
388.81797
388.65437
388.49302
388.33411
388.17785
388.02443
387.87408
387.72701
387.58323
387.44318
387.30706
387.17511
387.04755
386.92463
386.80661
386.69376
386.5864
386.48488
386.38963
386.30115
386.22008
386.14718
386.08343
386.03003
385.98852
385.96081
389.57155
389.39514
389.21993
389.04603
388.87361
388.7028
388.53378
388.36671
388.20178
388.03966
387.88012
387.72338
387.5697
387.41936
387.27269
387.13002
386.99179
386.85847
386.73062
386.60893
386.49418
386.38734
386.28952
386.20208
386.12663
386.06508
386.01974
390.29368
390.10101
389.90825
389.71546
389.52275
389.33022
389.138
388.94626
388.75516
388.56494
388.37586
388.18822
388.00238
387.81877
387.63791
387.46036
387.28683
387.1181
386.95508
386.7988
386.6504
386.51115
386.38245
386.26575
386.16258
386.07448
386.00284
390.9891
390.77414
390.55748
390.33916
390.11923
389.89782
389.67508
389.45122
389.22651
389.00131
388.77606
388.55128
388.32761
388.10581
387.88674
387.67138
387.46086
387.25637
387.05922
386.87078
386.69244
386.52558
386.37148
386.23124
386.10567
385.99511
385.8991
391.46165
391.21985
390.97483
390.7267
390.47565
390.22195
389.96596
389.70813
389.44903
389.18934
388.92987
388.67155
388.41545
388.16273
387.91468
387.67267
387.43813
387.21252
386.99728
386.79379
386.60329
386.42683
386.26512
386.11849
385.98672
385.86894
385.76343
388.66097
388.49995
388.34139
388.18551
388.03264
387.88289
387.73649
387.59367
387.45466
387.3197
387.18901
387.06282
386.94136
386.82484
386.71347
386.60784
386.50787
386.41378
386.32582
386.24429
386.16951
386.10189
386.0419
385.99009
385.94712
385.91371
385.89066
388.98631
388.8201
388.65611
388.49434
388.33511
388.1785
388.02472
387.87399
387.72652
387.58254
387.44227
387.30596
387.17385
387.04619
386.92326
386.80495
386.69189
386.58441
386.4829
386.38779
386.2996
386.21894
386.14655
386.08332
386.03034
385.98893
385.96068
389.57235
389.39591
389.22073
389.04689
388.87427
388.70328
388.5341
388.3669
388.2019
388.03929
387.87932
387.72224
387.56832
387.41787
387.27125
387.12882
386.99106
386.85846
386.73165
386.61131
386.49825
386.39345
386.29806
386.21346
386.14136
386.08389
386.04386
390.2906
390.09806
389.90514
389.71222
389.5194
389.3268
389.13456
388.94287
388.75191
388.56194
388.37325
388.18617
388.00111
387.81852
387.63894
387.463
387.29141
387.12497
386.9646
386.81131
386.66626
386.53069
386.40604
386.29386
386.19597
386.1145
386.05212
390.98478
390.77002
390.55358
390.33555
390.11602
389.8951
389.67299
389.44992
389.22619
389.00218
388.77836
388.55529
388.33362
388.11411
387.89763
387.68516
387.47776
387.2766
387.08292
386.89801
386.72317
386.5597
386.40884
386.27169
386.14916
386.04183
385.94981
391.46973
391.22809
390.98338
390.73575
390.48541
390.23264
389.97781
389.72139
389.46393
389.20612
388.94873
388.69267
388.43895
388.18869
387.94311
387.7035
387.47122
387.24764
387.03415
386.83205
386.64252
386.46653
386.30468
386.157
386.02266
385.89939
385.78258
388.65983
388.4991
388.34085
388.18531
388.03267
387.88318
387.73706
387.59454
387.45566
387.32083
387.1903
387.06429
386.94303
386.82675
386.71566
386.60998
386.50994
386.41578
386.32775
386.24616
386.17136
386.10376
386.04388
385.99237
385.94999
385.91766
385.89643
388.98247
388.81681
388.6532
388.49184
388.33293
388.17666
388.02324
387.87289
387.72562
387.58186
387.4418
387.30567
387.17371
387.04614
386.9232
386.80516
386.69228
386.58489
386.48333
386.38804
386.29951
386.21839
386.14544
386.08163
386.02817
385.98658
385.9588
389.57006
389.39365
389.21843
389.04453
388.87209
388.70128
388.53224
388.36515
388.20062
388.03846
387.87887
387.72208
387.56835
387.41796
387.27123
387.12851
386.99022
386.85684
386.72893
386.60717
386.49235
386.38543
386.28753
386.2
386.12445
386.0628
386.01733
390.29214
390.09947
389.9067
389.71392
389.5212
389.32867
389.13644
388.94468
388.75358
388.56335
388.37424
388.18658
388.00071
387.81707
387.63616
387.45858
387.28499
387.1162
386.95312
386.79676
386.64828
386.50894
386.38013
386.26331
386.16001
386.07176
385.99994
390.98739
390.77242
390.55576
390.33743
390.1175
389.89608
389.67333
389.44945
389.22473
388.99951
388.77423
388.54942
388.32572
388.10388
387.88476
387.66936
387.45877
387.25421
387.05699
386.86846
386.69002
386.52305
386.36881
386.22842
386.10268
385.99192
385.89568
391.45981
391.21801
390.97298
390.72485
390.47379
390.22009
389.96408
389.70623
389.44711
389.1874
388.9279
388.66956
388.41341
388.16065
387.91255
387.67047
387.43586
387.21016
386.99483
386.79123
386.60061
386.424
386.26213
386.11532
385.98335
385.86533
385.75954
388.66057
388.49955
388.34099
388.18511
388.03224
387.88249
387.73609
387.59326
387.45425
387.31928
387.18859
387.06241
386.94096
386.82445
386.71312
386.60717
386.50725
386.41318
386.32524
386.24371
386.16893
386.1013
386.0413
385.98948
385.94649
385.91307
385.89
388.98589
388.81967
388.65568
388.49391
388.33468
388.17806
388.02428
387.87354
387.72606
387.58207
387.44179
387.30546
387.17333
387.04563
386.92264
386.80464
386.69151
386.58397
386.48242
386.38728
386.29906
386.21837
386.14596
386.0827
386.0297
385.98827
385.96
389.57191
389.39547
389.22029
389.04645
388.87383
388.70284
388.53365
388.36646
388.20145
388.03884
387.87886
387.72177
387.56784
387.41739
387.27075
387.12832
386.99054
386.85794
386.7311
386.61074
386.49767
386.39284
386.29743
386.2128
386.14066
386.08316
386.04309
390.29015
390.09761
389.90469
389.71177
389.51895
389.32634
389.1341
388.9424
388.75144
388.56147
388.37277
388.18569
388.00061
387.81801
387.63842
387.46247
387.29086
387.12441
386.96402
386.81071
386.66564
386.53005
386.40536
386.29315
386.19523
386.11373
386.0513
390.98431
390.76955
390.55311
390.33508
390.11554
389.89463
389.67251
389.44943
389.2257
389.00169
388.77786
388.55478
388.3331
388.11358
387.89709
387.68461
387.4772
387.27602
387.08232
386.89739
386.72252
386.55903
386.40814
386.27095
386.14839
386.04101
385.94895
391.46924
391.22761
390.9829
390.73527
390.48493
390.23216
389.97732
389.72089
389.46343
389.20561
388.94822
388.69215
388.43842
388.18815
387.94256
387.70293
387.47063
387.24704
387.03353
386.8314
386.64185
386.46583
386.30395
386.15623
386.02185
385.89853
385.78167
388.65923
388.4985
388.34025
388.1847
388.03207
387.88258
387.73646
387.59394
387.45506
387.32023
387.1897
387.06369
386.94243
386.82615
386.71505
386.60937
386.50933
386.41516
386.32713
386.24553
386.17071
386.1031
386.04322
385.99169
385.94929
385.91693
385.89566
388.98187
388.8162
388.65259
388.49124
388.33233
388.17606
388.02263
387.87228
387.72502
387.58125
387.44119
387.30507
387.1731
387.04553
386.92259
386.80454
386.69166
386.58426
386.4827
386.3874
386.29887
386.21774
386.14478
386.08097
386.0275
385.9859
385.95811
389.56945
389.39304
389.21782
389.04392
388.87148
388.70066
388.53162
388.36453
388.2
388.03783
387.87823
387.72144
387.56771
387.41732
387.27059
387.12786
386.98957
386.85619
386.72828
386.60651
386.49169
386.38477
386.28687
386.19934
386.12378
386.06213
386.01666
390.2915
390.09882
389.90606
389.71327
389.52055
389.32802
389.13579
388.94403
388.75293
388.56269
388.37359
388.18592
388.00005
387.81641
387.6355
387.45791
387.28433
387.11554
386.95245
386.79608
386.6476
386.50826
386.37944
386.26262
386.15932
386.07106
385.99924
390.98672
390.77175
390.55509
390.33676
390.11683
389.89541
389.67266
389.44878
389.22406
388.99884
388.77355
388.54875
388.32504
388.1032
387.88408
387.66868
387.45809
387.25353
387.0563
386.86777
386.68933
386.52235
386.36811
386.22772
386.10196
385.9912
385.89494
391.45913
391.21733
390.9723
390.72417
390.47311
390.21941
389.9634
389.70555
389.44643
389.18672
388.92722
388.66887
388.41273
388.15996
387.91186
387.66978
387.43517
387.20947
386.99413
386.79053
386.59991
386.42329
386.26141
386.11459
385.98261
385.86458
385.75878
388.66066
388.49964
388.34108
388.1852
388.03233
387.88258
387.73618
387.59336
387.45435
387.31938
387.18869
387.0625
386.94105
386.82454
386.71319
386.60762
386.50767
386.41358
386.32562
386.24407
386.16928
386.10165
386.04164
385.98982
385.94683
385.91341
385.89034
388.98612
388.8199
388.65591
388.49414
388.33492
388.17831
388.02453
387.8738
387.72633
387.58235
387.44209
387.30578
387.17366
387.046
386.92305
386.80469
386.6916
386.58411
386.4826
386.3875
386.29931
386.21865
386.14626
386.08304
386.03006
385.98865
385.96041
389.57215
389.39571
389.22053
389.04669
388.87407
388.70308
388.5339
388.3667
388.20169
388.03909
387.87911
387.72203
387.5681
387.41765
387.27102
387.12859
386.99082
386.85823
386.73141
386.61107
386.49802
386.39322
386.29783
386.21323
386.14113
386.08367
386.04364
390.29043
390.09789
389.90497
389.71205
389.51923
389.32663
389.13439
388.94269
388.75174
388.56177
388.37308
388.186
388.00093
387.81834
387.63876
387.46282
387.29123
387.12479
386.96442
386.81114
386.66609
386.53053
386.40588
386.29371
386.19583
386.11437
386.052
390.98465
390.76988
390.55345
390.33542
390.11588
389.89497
389.67286
389.44978
389.22605
389.00205
388.77823
388.55516
388.33349
388.11398
387.8975
387.68503
387.47764
387.27649
387.08281
386.8979
386.72307
386.55961
386.40876
386.27163
386.14912
386.04181
385.94983
391.46961
391.22798
390.98327
390.73564
390.4853
390.23253
389.9777
389.72128
389.46382
389.20601
388.94862
388.69257
388.43885
388.1886
387.94302
387.70341
387.47113
387.24757
387.03408
386.83199
386.64248
386.4665
386.30467
386.15701
386.0227
385.89947
385.78272
388.6589
388.49816
388.33992
388.18437
388.03174
387.88226
387.73615
387.59348
387.45461
387.3198
387.18927
387.06326
386.942
386.82571
386.71461
386.60892
386.50887
386.4147
386.32665
386.24504
386.17022
386.10259
386.04269
385.99114
385.94871
385.91632
385.89502
388.98151
388.81584
388.65223
388.49088
388.33197
388.1757
388.0223
387.87181
387.72457
387.58082
387.44076
387.30464
387.17267
387.04509
386.92215
386.80409
386.69121
386.5838
386.48223
386.38692
386.29838
386.21724
386.14427
386.08045
386.02698
385.98538
385.95761
389.569
389.39258
389.21736
389.04345
388.87101
388.70017
388.53108
388.3643
388.19971
388.03751
387.87788
387.72107
387.56733
387.41692
387.27017
387.12743
386.98912
386.85572
386.72779
386.60601
386.49117
386.38423
386.28631
386.19876
386.12318
386.0615
386.01601
390.29105
390.09838
389.90561
389.71282
389.5201
389.32757
389.13534
388.94358
388.75247
388.56223
388.37312
388.18544
387.99956
387.81591
387.63499
387.45739
387.28378
387.11498
386.95187
386.79548
386.64697
386.50761
386.37876
386.26191
386.15857
386.07027
385.9984
390.98623
390.77126
390.5546
390.33626
390.11633
389.89491
389.67215
389.44827
389.22354
388.99831
388.77303
388.54821
388.32449
388.10264
387.8835
387.66808
387.45747
387.25289
387.05564
386.86708
386.6886
386.52159
386.36731
386.22687
386.10106
385.99023
385.8939
391.45859
391.21679
390.97177
390.72363
390.47258
390.21886
389.96285
389.705
389.44587
389.18615
388.92664
388.66828
388.41212
388.15933
387.91121
387.66911
387.43447
387.20875
386.99338
386.78974
386.59908
386.42241
386.26048
386.1136
385.98155
385.86344
385.75754
388.66044
388.49942
388.34086
388.18497
388.03211
387.88236
387.73595
387.59313
387.45412
387.31915
387.18846
387.06227
386.94082
386.82431
386.71297
386.60702
386.50709
386.41302
386.32507
386.24353
386.16874
386.10111
386.0411
385.98927
385.94627
385.91285
385.88976
388.98577
388.81955
388.65556
388.49379
388.33456
388.17794
388.02416
387.87341
387.72594
387.58194
387.44166
387.30533
387.17319
387.04549
386.9225
386.80449
386.69135
386.58382
386.48226
386.38711
386.29889
386.2182
386.14578
386.08252
386.02952
385.98809
385.95982
389.57178
389.39534
389.22016
389.04632
388.87369
388.7027
388.53351
388.36632
388.2013
388.03869
387.87871
387.72162
387.56769
387.41724
387.2706
387.12817
386.99039
386.85779
386.73095
386.61059
386.49752
386.3927
386.29729
386.21267
386.14054
386.08305
386.043
390.29001
390.09747
389.90455
389.71162
389.5188
389.3262
389.13396
388.94226
388.7513
388.56133
388.37263
388.18555
388.00047
387.81788
387.63829
387.46234
387.29074
387.12429
386.9639
386.81061
386.66554
386.52996
386.40528
386.29309
386.19518
386.1137
386.0513
390.98419
390.76943
390.55299
390.33496
390.11542
389.89451
389.67239
389.44932
389.22559
389.00158
388.77775
388.55468
388.333
388.11348
387.897
387.68452
387.47712
387.27595
387.08226
386.89734
386.72248
386.55901
386.40813
386.27097
386.14843
386.04109
385.94907
391.46915
391.22751
390.9828
390.73517
390.48483
390.23206
389.97723
389.7208
389.46334
389.20552
388.94813
388.69207
388.43835
388.18809
387.9425
387.70288
387.47059
387.24701
387.03351
386.8314
386.64187
386.46587
386.304
386.15632
386.02198
385.89871
385.78192
388.65792
388.49718
388.33893
388.18338
388.03074
387.88124
387.73511
387.5924
387.45351
387.31867
387.18813
387.06211
386.94084
386.82453
386.71342
386.60771
386.50765
386.41345
386.32539
386.24375
386.1689
386.10125
386.04131
385.98973
385.94728
385.91486
385.89353
388.98048
388.81481
388.6512
388.48984
388.33093
388.17465