/*--------------------------------*- C++ -*----------------------------------*\
| =========                 |                                                 |
| \\      /  F ield         | OpenFOAM: The Open Source CFD Toolbox           |
|  \\    /   O peration     | Version:  4.0                                   |
|   \\  /    A nd           | Web:      www.OpenFOAM.org                      |
|    \\/     M anipulation  |                                                 |
\*---------------------------------------------------------------------------*/
FoamFile
{
    version     2.0;
    format      ascii;
    class       volVectorField;
    location    "1000";
    object      U;
}
// * * * * * * * * * * * * * * * * * * * * * * * * * * * * * * * * * * * * * //

dimensions      [0 1 -1 0 0 0 0];

internalField   nonuniform List<vector> 
18000
(
(1.0981819e-06 -1.7477702e-05 -0.00042916004)
(7.5858682e-06 -5.2677821e-05 -0.0013440754)
(1.0955768e-05 -8.9587447e-05 -0.0024040359)
(1.4005137e-05 -0.00012608683 -0.0036247219)
(1.6258408e-05 -0.00016075237 -0.0050165311)
(1.8725151e-05 -0.00019120704 -0.0065853848)
(3.5903168e-05 -0.00021350574 -0.0083293794)
(4.3624192e-05 -0.0002252668 -0.010234208)
(2.2749425e-05 -0.0002642486 -0.012265148)
(3.1267073e-05 -0.00031936261 -0.014374221)
(9.1692489e-05 -0.00039446775 -0.016486557)
(0.00022709346 -0.00049598782 -0.018500811)
(0.00027865928 -0.00064286835 -0.020290181)
(-0.00014326253 -0.00094977428 -0.021727155)
(0.00034300673 -0.0010262247 -0.02266194)
(6.3530984e-07 5.7476399e-06 -0.00043536416)
(7.6835736e-06 1.092159e-05 -0.0013613797)
(1.8608707e-05 1.1641716e-05 -0.0024323862)
(3.8835493e-05 9.6139148e-06 -0.0036632737)
(7.0721883e-05 2.2632713e-06 -0.0050629323)
(0.00011751518 -1.3251697e-05 -0.0066352002)
(0.00018488233 -4.1707823e-05 -0.0083752256)
(0.00028271486 -8.8575214e-05 -0.010266002)
(0.00040935326 -0.00019875494 -0.012278184)
(0.00054644278 -0.00039078379 -0.01435291)
(0.00069197409 -0.00070755143 -0.016409395)
(0.00084076357 -0.0011902197 -0.018341818)
(0.00068933362 -0.0017057636 -0.020044484)
(0.00019671064 -0.0024445634 -0.021378201)
(-0.00041694853 -0.0028752298 -0.022132029)
(7.7019717e-06 -2.9786552e-05 -0.00044192339)
(2.8517518e-05 -0.00010070179 -0.0013812096)
(5.315152e-05 -0.00018264443 -0.0024669093)
(8.0699477e-05 -0.00027149416 -0.003712903)
(0.00011565335 -0.00037387313 -0.0051282236)
(0.00015994261 -0.00050140457 -0.0067133007)
(0.00021751783 -0.00066410214 -0.0084607038)
(0.0003035741 -0.00088257994 -0.010349474)
(0.00042621227 -0.0011347199 -0.012350895)
(0.00051666856 -0.0015656669 -0.014390903)
(0.00036347658 -0.0023694905 -0.016382975)
(0.00011192645 -0.0034277986 -0.018225195)
(-0.00022667951 -0.0040280271 -0.019769316)
(-0.00069790818 -0.0046848002 -0.020852489)
(-0.0015008973 -0.0050905201 -0.021325606)
(1.1806408e-05 -3.6611993e-05 -0.0004632485)
(3.3405974e-05 -0.00013797977 -0.0014454697)
(6.0457346e-05 -0.00026296033 -0.0025791303)
(0.0001184571 -0.00039279384 -0.00387666)
(0.0001977933 -0.00054086397 -0.0053437238)
(0.0002674834 -0.00074354787 -0.0069786828)
(0.00030962482 -0.0010376951 -0.0087691925)
(0.00031250798 -0.0014759355 -0.010687927)
(0.00027041807 -0.0019323999 -0.012691185)
(0.00015216934 -0.0025568188 -0.014695651)
(-0.00010741641 -0.0034459867 -0.016600154)
(-0.00061068871 -0.004489817 -0.018270996)
(-0.0014834963 -0.0053140585 -0.019531464)
(-0.0023170936 -0.0061819782 -0.020288541)
(-0.0036238885 -0.0067931689 -0.020426243)
(2.6807356e-05 -7.0154874e-05 -0.000487372)
(8.7696092e-05 -0.00022500007 -0.0015210752)
(0.00014746299 -0.00040639747 -0.0027118739)
(0.00019943191 -0.00061454192 -0.0040738743)
(0.00023406008 -0.0008653088 -0.0056085242)
(0.00023767856 -0.0011711814 -0.0073128117)
(0.00018406072 -0.0015550016 -0.0091675411)
(4.4787613e-05 -0.002065167 -0.011133739)
(-0.00024432484 -0.00265115 -0.013130546)
(-0.00069493276 -0.003390371 -0.015076983)
(-0.0013600417 -0.0042869631 -0.016847962)
(-0.0023506275 -0.0052251531 -0.018297965)
(-0.0034959504 -0.0059199248 -0.019298154)
(-0.0045205771 -0.0064779437 -0.019729329)
(-0.0063913431 -0.0069876183 -0.019573434)
(4.3543066e-05 -7.8574354e-05 -0.0005417937)
(0.00010306417 -0.00023820922 -0.0016839022)
(0.00013308996 -0.00041562896 -0.0029921441)
(0.00012084984 -0.00061632281 -0.0044784715)
(7.2636045e-05 -0.00083624104 -0.0061404413)
(-3.1682373e-05 -0.0010766651 -0.0079629793)
(-0.00029658136 -0.0013932585 -0.0099117854)
(-0.00077065715 -0.0018310642 -0.011929503)
(-0.0014390811 -0.0023784097 -0.01392664)
(-0.002340712 -0.0030643892 -0.015785704)
(-0.0032878761 -0.0037778741 -0.017384085)
(-0.0042838922 -0.0043832702 -0.018566502)
(-0.0054940564 -0.0049211628 -0.019214781)
(-0.0067428175 -0.0055570254 -0.019285223)
(-0.0084890176 -0.0062831051 -0.018819523)
(4.8264053e-07 -9.6914997e-06 0.00023348815)
(-8.3627679e-06 -2.5703809e-05 0.00074297999)
(-1.9580646e-05 -4.0440769e-05 0.0013473917)
(-4.6207013e-05 -5.8650243e-05 0.0020661136)
(-0.00010224282 -7.7934791e-05 0.0029253351)
(-0.00019055569 -9.7895544e-05 0.0039521019)
(-0.00030329681 -0.0001182774 0.0051735135)
(-0.00044023221 -0.00014487112 0.0066136212)
(-0.00064830271 -0.00019768266 0.0082898236)
(-0.00093483834 -0.00028903277 0.010201936)
(-0.0012752603 -0.00041983262 0.012319402)
(-0.0016262617 -0.00060273404 0.014565265)
(-0.0019703395 -0.00085452837 0.016792981)
(-0.0017515314 -0.00092722676 0.018785211)
(-0.00048020967 -0.00084512888 0.020046624)
(-4.559946e-07 9.95499e-06 0.00025547007)
(-4.9835749e-06 3.3349037e-05 0.00081170945)
(-9.7422775e-06 5.8094921e-05 0.0014704421)
(-1.7774275e-05 7.487996e-05 0.0022535718)
(-3.1413182e-05 8.1451858e-05 0.0031875456)
(-5.361707e-05 7.0168889e-05 0.004300634)
(-0.00010779835 2.7617082e-05 0.0056214797)
(-0.00021100562 -7.4783309e-05 0.0071758237)
(-0.00033881799 -0.00024494615 0.0089769934)
(-0.000499456 -0.00049967496 0.011022006)
(-0.00071371809 -0.00092095913 0.01328241)
(-0.0010345324 -0.0014528754 0.015678381)
(-0.0011088617 -0.0020853385 0.018079292)
(-0.00080147589 -0.0019841765 0.020233031)
(-0.00071853642 -0.0017801953 0.021566188)
(6.6510041e-06 -2.6111991e-05 0.00029579228)
(1.4475027e-05 -7.0525877e-05 0.00093923465)
(1.9363586e-05 -0.00011864954 0.0016992023)
(1.5145454e-05 -0.0001758858 0.002596208)
(2.6078233e-06 -0.0002509591 0.0036631151)
(-2.3378156e-05 -0.00035909047 0.0049277132)
(-6.1276833e-05 -0.00052005038 0.0064184669)
(-0.00010698503 -0.00075424596 0.0081590147)
(-0.00017844056 -0.0010497129 0.010160465)
(-0.000357087 -0.0014258226 0.012444895)
(-0.00054724104 -0.0019830566 0.014962885)
(-0.00065059497 -0.0025663026 0.017621695)
(-0.00053186886 -0.0031933122 0.020222308)
(-0.00036503749 -0.0028485386 0.022456031)
(-0.001107762 -0.0023643681 0.023768118)
(1.2799158e-05 -3.7492195e-05 0.00035455556)
(3.4569781e-05 -0.0001042504 0.0011230136)
(6.1864409e-05 -0.00018148217 0.002028257)
(9.5536011e-05 -0.00027169624 0.0030925987)
(0.00011208866 -0.00039562842 0.0043478545)
(0.00010730576 -0.00057018321 0.0058240779)
(5.5727213e-05 -0.00082437527 0.007550388)
(1.772936e-05 -0.0011553894 0.0095522547)
(0.00012598076 -0.0014658117 0.011837375)
(0.00021711313 -0.0017228954 0.014397479)
(0.00012743101 -0.0020958558 0.017162658)
(-6.8684823e-05 -0.0025061943 0.020008991)
(-0.00051662056 -0.0029866477 0.022705891)
(-0.0011972281 -0.0031328065 0.024783882)
(-0.0026909756 -0.002936927 0.025781847)
(2.1893231e-05 -5.6296888e-05 0.00042726477)
(6.6694222e-05 -0.00016607939 0.001351142)
(0.00011609958 -0.00028941194 0.0024311289)
(0.00016619784 -0.00043315149 0.0036953549)
(0.00021359834 -0.00060359504 0.0051708399)
(0.00025460906 -0.00081107418 0.0068905916)
(0.00027964261 -0.0010598628 0.0088811443)
(0.00026162147 -0.0013357589 0.011159027)
(0.00018042557 -0.0016268685 0.013722814)
(-2.8507564e-05 -0.0019039371 0.016487633)
(-0.00038435425 -0.002234395 0.019389797)
(-0.00093534189 -0.0026643008 0.022239704)
(-0.0019964265 -0.0032981562 0.02470011)
(-0.0034428916 -0.0040825087 0.026394729)
(-0.0055681514 -0.0045317892 0.026793695)
(3.2162362e-05 -5.7016352e-05 0.00051024767)
(8.3178301e-05 -0.00017018128 0.0016065368)
(0.00011851208 -0.0002920517 0.0028777232)
(0.00012830168 -0.00042541974 0.0043496392)
(8.0974212e-05 -0.00058462 0.006052661)
(-3.5844294e-05 -0.00078295655 0.0080118546)
(-0.00016433091 -0.0009871425 0.010243568)
(-0.00031301146 -0.0011772877 0.012743578)
(-0.00055107723 -0.0013847628 0.015476436)
(-0.000919611 -0.0016142817 0.018357212)
(-0.001643999 -0.0019861561 0.021226266)
(-0.0028006296 -0.0026350617 0.023868725)
(-0.0042288255 -0.0035302646 0.025933166)
(-0.0059838558 -0.0046693762 0.027020207)
(-0.0083402057 -0.0065808142 0.02677568)
(7.1679293e-07 -1.9118449e-05 0.00057547921)
(1.8016498e-06 -5.8970747e-05 0.001811141)
(2.6529616e-06 -0.00010238314 0.0032633003)
(2.6089758e-06 -0.00014824711 0.0049729982)
(1.5370647e-06 -0.00019603968 0.0069845124)
(-9.6489036e-07 -0.0002447026 0.009343478)
(-5.5347743e-06 -0.00029281016 0.012093163)
(-1.166648e-05 -0.00033858767 0.01526834)
(-2.7504121e-05 -0.0003800905 0.01888715)
(-5.6152295e-05 -0.00041998485 0.0229169)
(-8.5241643e-05 -0.00045365791 0.027302348)
(-9.0756579e-05 -0.00048177184 0.031885978)
(-9.8177266e-05 -0.00053116344 0.036441966)
(-8.4295057e-05 -0.00054211648 0.040453565)
(-5.122703e-05 -0.00052474659 0.043138663)
(2.474631e-06 -1.1655845e-05 0.00061208672)
(1.0159437e-05 -4.1599998e-05 0.0019271486)
(1.9518505e-05 -7.9491738e-05 0.0034690854)
(3.4371776e-05 -0.00012499037 0.0052825429)
(5.2068836e-05 -0.00018005184 0.007413058)
(7.2967218e-05 -0.00024578072 0.0099072991)
(9.4518869e-05 -0.00032329576 0.01280883)
(0.00011327076 -0.00041345736 0.016151749)
(0.00012318897 -0.00051628275 0.019949448)
(0.00011749819 -0.00063829793 0.024199794)
(8.1476765e-05 -0.00077746443 0.028813717)
(5.8396816e-06 -0.00094425729 0.03363258)
(-4.8750514e-05 -0.0011687668 0.038346311)
(-4.7896553e-05 -0.00132039 0.042522033)
(-0.00026101793 -0.0013847578 0.045245003)
(9.3271272e-06 -4.6885087e-05 0.00067654358)
(3.0657012e-05 -0.00014530429 0.0021307407)
(5.1612582e-05 -0.00025688127 0.003834774)
(7.1213606e-05 -0.00038190476 0.0058359833)
(8.8047271e-05 -0.00052166257 0.0081830933)
(9.9927007e-05 -0.00067729273 0.010925503)
(0.00010347105 -0.00084962994 0.014108486)
(9.4057857e-05 -0.0010394098 0.017765904)
(6.4189312e-05 -0.0012464028 0.021909034)
(6.1394268e-06 -0.0014719775 0.026510342)
(-9.7065259e-05 -0.0017152201 0.031479633)
(-0.00024179004 -0.001977913 0.036619637)
(-0.00048440618 -0.0022716671 0.041544673)
(-0.00072795619 -0.0025655614 0.045663142)
(-0.0012530927 -0.0026343631 0.048266361)
(1.5749604e-05 -5.1986317e-05 0.00078111674)
(4.8454392e-05 -0.00016177378 0.0024510958)
(8.2574192e-05 -0.00028865388 0.0044006441)
(0.00011475767 -0.00043425454 0.0066802621)
(0.00014310119 -0.00060050248 0.0093401889)
(0.00016217758 -0.00078907728 0.012429421)
(0.00016428458 -0.0010015662 0.015989583)
(0.00014017841 -0.0012392513 0.020045931)
(7.04583e-05 -0.0015048255 0.024591393)
(-5.6017172e-05 -0.001801416 0.029567765)
(-0.0002707023 -0.0021325542 0.034838283)
(-0.00058853594 -0.0025038023 0.040144968)
(-0.0010832834 -0.0029055013 0.045068359)
(-0.0016208964 -0.003375643 0.04899913)
(-0.0026988206 -0.003578625 0.051107872)
(2.4302532e-05 -5.9194396e-05 0.00090483752)
(7.2115435e-05 -0.00018199702 0.0028315692)
(0.00011945645 -0.00032267626 0.005072084)
(0.00016075796 -0.00048380358 0.0076797805)
(0.00018862711 -0.00066800949 0.010704918)
(0.00019220006 -0.00087829492 0.014193203)
(0.00015669079 -0.0011182056 0.018177402)
(6.2850068e-05 -0.0013923343 0.022665143)
(-0.00011305441 -0.0017060308 0.027621174)
(-0.0003998543 -0.0020648938 0.032942169)
(-0.00082978652 -0.0024751737 0.038424659)
(-0.0014347818 -0.0029414557 0.043728531)
(-0.0022651896 -0.003457469 0.048344616)
(-0.0032216785 -0.0040308749 0.051610399)
(-0.0049377551 -0.0043693847 0.052729103)
(3.0340774e-05 -5.5701104e-05 0.0010550628)
(7.5176991e-05 -0.0001663143 0.003288917)
(0.00010151086 -0.00028744463 0.0058720382)
(9.9233862e-05 -0.00042190736 0.0088578494)
(5.7121995e-05 -0.00057299405 0.012292251)
(-3.8449567e-05 -0.0007454108 0.016211019)
(-0.00020387846 -0.00094562493 0.020627747)
(-0.00045870456 -0.0011820517 0.025516478)
(-0.00082562098 -0.001465018 0.03079162)
(-0.0013301553 -0.0018065659 0.036279771)
(-0.0019969861 -0.0022195771 0.04169055)
(-0.0028507935 -0.0027186243 0.046605703)
(-0.0038895806 -0.0033081986 0.050468282)
(-0.005052671 -0.0040306832 0.052642674)
(-0.0066795543 -0.0051227078 0.052534109)
(-1.0394329e-08 3.52111e-06 0.00049741603)
(-7.0166636e-07 1.0514025e-05 0.0015651276)
(4.3180177e-08 1.8120707e-05 0.0028200563)
(1.1164561e-07 2.6351303e-05 0.0042995723)
(1.5468714e-06 3.5271176e-05 0.0060428152)
(4.0298442e-06 4.4855452e-05 0.0080908122)
(8.6706292e-06 5.5148976e-05 0.010483264)
(1.6495066e-05 6.6202053e-05 0.013253506)
(3.009241e-05 7.8109839e-05 0.016420423)
(4.3750436e-05 9.1245895e-05 0.019976012)
(7.1198068e-05 0.00010758233 0.023865918)
(9.8577052e-05 0.00012903548 0.02796112)
(0.00014361179 0.00015709624 0.032014406)
(0.00016287459 0.00019722589 0.035602151)
(0.00019319507 0.00024388588 0.038018614)
(-3.871931e-07 4.6984444e-06 0.00053000067)
(-9.1088498e-07 1.4229198e-05 0.0016671744)
(-7.8426851e-07 2.4992775e-05 0.0030026725)
(4.6343478e-07 3.7440416e-05 0.0045755116)
(3.2886289e-06 5.164392e-05 0.0064263977)
(8.4767346e-06 6.7883137e-05 0.0085977315)
(1.7039433e-05 8.6451289e-05 0.011130178)
(3.0398023e-05 0.00010783417 0.014057342)
(5.166233e-05 0.0001328703 0.017397347)
(7.1001126e-05 0.00016354507 0.021140021)
(0.00011276282 0.00020001017 0.025227201)
(0.00015476543 0.00024436837 0.029524019)
(0.00021152017 0.00030007427 0.033777626)
(0.00027411325 0.00037828806 0.037556889)
(0.00031457432 0.00048181353 0.04016036)
(-7.3712631e-07 4.8848896e-06 0.00058882495)
(-1.8681013e-06 1.4663658e-05 0.0018511334)
(-1.9836978e-06 2.5940844e-05 0.0033313159)
(-5.3811378e-07 3.9221533e-05 0.0050710999)
(3.2686559e-06 5.4794984e-05 0.007113603)
(1.0615863e-05 7.3111498e-05 0.0095031788)
(2.3017111e-05 9.4813181e-05 0.012281526)
(4.2356846e-05 0.0001209305 0.015481807)
(7.071928e-05 0.00015337631 0.019119552)
(0.00011144551 0.00019399897 0.023179014)
(0.00016823254 0.00023972978 0.027593025)
(0.00024099457 0.00029781463 0.032214191)
(0.00032700657 0.00037098484 0.036773762)
(0.00040763856 0.0004751206 0.04083171)
(0.00045656397 0.00062400637 0.043690773)
(-1.1032856e-06 5.0354171e-06 0.00067471501)
(-2.7326706e-06 1.4902242e-05 0.002118129)
(-2.9462451e-06 2.6181595e-05 0.0038054775)
(-9.5789316e-07 3.9467781e-05 0.0057814806)
(4.3741242e-06 5.5139508e-05 0.008091442)
(1.473602e-05 7.3826681e-05 0.010780883)
(3.2314104e-05 9.6418431e-05 0.013890931)
(5.9945837e-05 0.00012420133 0.017451575)
(0.00010110121 0.00015899534 0.021471509)
(0.00015937236 0.00020324628 0.025923413)
(0.00023700004 0.00025977461 0.030722804)
(0.00033246158 0.00033379073 0.035699124)
(0.00043871552 0.00043054756 0.040557453)
(0.00053712775 0.00055842372 0.044837263)
(0.00059988524 0.00072662317 0.047847506)
(-3.368799e-07 2.8582489e-06 0.00077718995)
(-1.1176705e-07 8.5740152e-06 0.0024357268)
(2.5086138e-06 1.5794095e-05 0.0043674999)
(8.790745e-06 2.5343597e-05 0.0066200437)
(2.017077e-05 3.7824129e-05 0.0092400287)
(3.8866051e-05 5.4251252e-05 0.012272712)
(6.7493477e-05 7.5920766e-05 0.015756351)
(0.0001091697 0.00010454891 0.019714287)
(0.00016710864 0.00014228146 0.024143337)
(0.00024388038 0.0001915636 0.028997238)
(0.00033983418 0.00025489468 0.034163839)
(0.00045064033 0.00033480113 0.039435194)
(0.00056385084 0.00043217732 0.044471708)
(0.00065123433 0.0005462978 0.048769572)
(0.00066201025 0.00068281556 0.051623832)
(2.3726145e-07 1.8710101e-06 0.00089041783)
(1.8748833e-06 5.8547005e-06 0.0027839381)
(6.7723483e-06 1.160483e-05 0.0049786837)
(1.6658128e-05 2.0126588e-05 0.0075241628)
(3.3200383e-05 3.2197088e-05 0.010467079)
(5.8985655e-05 4.9151208e-05 0.0138507)
(9.6786172e-05 7.2493924e-05 0.017708012)
(0.00014956099 0.00010399599 0.022052153)
(0.00021971384 0.00014542914 0.026862559)
(0.00030803181 0.00019818403 0.032065567)
(0.00041190966 0.00026255074 0.037508564)
(0.00052321487 0.00033681105 0.042927926)
(0.00062682016 0.00041594452 0.047914297)
(0.00070099392 0.00049060456 0.051883383)
(0.00074400033 0.00055459611 0.054044952)
(6.7737513e-07 -5.3459694e-06 0.0006178643)
(7.8720465e-07 -1.6242114e-05 0.0019468417)
(4.5147201e-07 -2.81516e-05 0.003507297)
(3.2298567e-07 -4.0893691e-05 0.0053424038)
(-5.6257675e-07 -5.4284563e-05 0.0074978154)
(-2.3046244e-06 -6.8051814e-05 0.01002024)
(-5.2864805e-06 -8.1837737e-05 0.01295344)
(-9.3728145e-06 -9.5182813e-05 0.016331868)
(-1.6483747e-05 -0.00010806044 0.020170721)
(-2.5451146e-05 -0.00011949864 0.024484418)
(-3.9129803e-05 -0.00012987259 0.029174914)
(-5.8030008e-05 -0.00013910598 0.034080008)
(-8.5900268e-05 -0.00014728277 0.03889879)
(-0.00011697252 -0.00015821751 0.043118683)
(-0.00015480122 -0.00016416894 0.045895437)
(7.0887645e-07 -4.1339602e-06 0.00065630645)
(2.6016664e-06 -1.3468196e-05 0.002067467)
(4.8486371e-06 -2.5018908e-05 0.003723514)
(7.868665e-06 -3.9024848e-05 0.0056696004)
(1.101884e-05 -5.5950648e-05 0.0079533699)
(1.3825854e-05 -7.6226466e-05 0.010623367)
(1.5158886e-05 -0.0001003646 0.0137248)
(1.3642647e-05 -0.00012896116 0.01729283)
(1.2012619e-05 -0.00016203336 0.021340561)
(7.4293528e-06 -0.00019807507 0.025878076)
(-1.0415768e-05 -0.00023899608 0.0307992)
(-4.0533749e-05 -0.00028593567 0.035937763)
(-9.2388802e-05 -0.00033903343 0.040985612)
(-0.00014927877 -0.00040871038 0.045427107)
(-0.00024751476 -0.00046537807 0.048434713)
(2.7600774e-06 -1.3767964e-05 0.00072696599)
(8.8225094e-06 -4.1982301e-05 0.0022918725)
(1.4379816e-05 -7.3814797e-05 0.0041259916)
(1.90835e-05 -0.00010954478 0.0062783739)
(2.2240035e-05 -0.00014943134 0.0088003467)
(2.2816358e-05 -0.00019372804 0.011744018)
(1.9437078e-05 -0.00024263045 0.01515781)
(9.3871307e-06 -0.00029646638 0.019079597)
(-8.6621227e-06 -0.00035561858 0.023526449)
(-4.0457811e-05 -0.00042000761 0.028408308)
(-8.9429144e-05 -0.00049142374 0.033688586)
(-0.00015820794 -0.00057219572 0.039178137)
(-0.00026311583 -0.00066369027 0.044544026)
(-0.00037082007 -0.00078636725 0.049248469)
(-0.00056527006 -0.00087760223 0.052466204)
(4.5759005e-06 -1.492408e-05 0.00083425039)
(1.3719054e-05 -4.6074323e-05 0.0026219486)
(2.2520664e-05 -8.198554e-05 0.0047106587)
(3.0196813e-05 -0.0001231379 0.0071526326)
(3.5436652e-05 -0.000169994 0.01000107)
(3.6267141e-05 -0.00022299098 0.013307994)
(2.9845953e-05 -0.00028259352 0.017118438)
(1.228998e-05 -0.00034930636 0.0214616)
(-2.1534393e-05 -0.00042411697 0.026337492)
(-7.7788874e-05 -0.00050895844 0.031698843)
(-0.00016457074 -0.00060696885 0.037427529)
(-0.00028748207 -0.00072310354 0.043298271)
(-0.00046783713 -0.00086285749 0.048934567)
(-0.00066005004 -0.0010514646 0.053757004)
(-0.0010036288 -0.001211536 0.056927008)
(6.6867108e-06 -1.6287097e-05 0.00096687167)
(1.955463e-05 -4.9953678e-05 0.0030309503)
(3.134396e-05 -8.8623861e-05 0.0054332568)
(4.0265237e-05 -0.00013300519 0.0082287999)
(4.3709847e-05 -0.00018384617 0.011471526)
(3.8003177e-05 -0.00024204726 0.015211345)
(1.8229881e-05 -0.00030875973 0.01948677)
(-2.1868978e-05 -0.00038554805 0.024314185)
(-8.9880054e-05 -0.00047460775 0.029672493)
(-0.00019456495 -0.00057902335 0.03548208)
(-0.00034556854 -0.00070294136 0.04157734)
(-0.00055194602 -0.00085186282 0.047673072)
(-0.00083039735 -0.0010327163 0.05332765)
(-0.0011414995 -0.0012605072 0.057910639)
(-0.0016321884 -0.0014847936 0.060585249)
(8.0819538e-06 -1.4542439e-05 0.0011224807)
(1.9377816e-05 -4.3700496e-05 0.0035068768)
(2.4894629e-05 -7.5985807e-05 0.0062685631)
(2.13631e-05 -0.00011235808 0.0094631241)
(5.1125606e-06 -0.00015395423 0.01314155)
(-2.8345769e-05 -0.00020241628 0.0173456)
(-8.4434955e-05 -0.0002600296 0.022097941)
(-0.00016957443 -0.00032982202 0.027388538)
(-0.00029109342 -0.00041559612 0.033156456)
(-0.00045698547 -0.00052190544 0.039267135)
(-0.00067481434 -0.00065383875 0.045486569)
(-0.0009521413 -0.00081760876 0.051456564)
(-0.0012898991 -0.001018145 0.056679522)
(-0.001675432 -0.0012741543 0.060528717)
(-0.0022013538 -0.0016519647 0.062301269)
(-5.5029122e-08 2.7445598e-06 0.00056195456)
(-3.6738823e-07 8.3423609e-06 0.0017726703)
(-5.4137196e-07 1.4484964e-05 0.0031957204)
(-4.3786016e-07 2.1154803e-05 0.0048701914)
(-9.1039377e-08 2.8351165e-05 0.0068408372)
(9.4482295e-07 3.6042717e-05 0.0091524916)
(2.9689339e-06 4.417716e-05 0.011848202)
(6.5677029e-06 5.2707926e-05 0.014963452)
(1.2333328e-05 6.1847151e-05 0.018517063)
(2.0928784e-05 7.3990314e-05 0.022497212)
(3.2566474e-05 8.7093112e-05 0.026840159)
(4.8142658e-05 0.0001017643 0.031398541)
(6.5514891e-05 0.00011947416 0.035894298)
(8.1341662e-05 0.0001410562 0.039849113)
(8.7690943e-05 0.00016712099 0.042479156)
(-4.3474855e-07 4.0935548e-06 0.00059798401)
(-1.1334521e-06 1.2671535e-05 0.0018831777)
(-1.6350087e-06 2.24487e-05 0.0033936229)
(-1.5533177e-06 3.3583656e-05 0.0051725739)
(-6.8111669e-07 4.6144839e-05 0.0072640005)
(1.3691529e-06 6.0210937e-05 0.0097146601)
(5.2430228e-06 7.5897627e-05 0.012568915)
(1.272297e-05 9.3404634e-05 0.015862841)
(1.3882576e-05 0.00011351758 0.019614937)
(3.8975467e-05 0.00013685774 0.023811572)
(4.9420073e-05 0.0001617638 0.02838558)
(7.6880687e-05 0.00019331733 0.03318462)
(0.00010349216 0.00023112436 0.037924447)
(0.00013151146 0.00027830788 0.042121753)
(0.00014984613 0.00033679535 0.044992333)
(-8.1552073e-07 4.5713263e-06 0.00066463865)
(-2.2942002e-06 1.4179589e-05 0.0020932917)
(-3.2577742e-06 2.5281414e-05 0.0037693804)
(-3.3094826e-06 3.8082287e-05 0.0057379959)
(-1.9759035e-06 5.2798218e-05 0.0080473353)
(1.4699258e-06 6.9715209e-05 0.010746475)
(7.9360589e-06 8.9232533e-05 0.013881304)
(1.8545683e-05 0.00011205678 0.017488005)
(3.5542104e-05 0.00013811405 0.021583014)
(6.0328001e-05 0.00016441229 0.026147916)
(9.1526084e-05 0.00020039435 0.03110768)
(0.00013163859 0.00024239183 0.036299185)
(0.00017538738 0.00029566505 0.04142663)
(0.0002171173 0.00036230779 0.04599996)
(0.00024170556 0.00044657245 0.049245774)
(-1.0999697e-06 4.529367e-06 0.00075938795)
(-2.9723387e-06 1.3908019e-05 0.0023890353)
(-3.9553e-06 2.4701081e-05 0.0042959674)
(-3.4197691e-06 3.7223681e-05 0.0065286789)
(-6.102903e-07 5.1772884e-05 0.0091382808)
(5.6172365e-06 6.8794608e-05 0.012175722)
(1.6702828e-05 8.8892495e-05 0.015687051)
(3.4442421e-05 0.00011288804 0.019706065)
(6.0645985e-05 0.00014186233 0.024243294)
(9.6714521e-05 0.00017701301 0.029270022)
(0.00014332391 0.00022130076 0.034695694)
(0.00020074318 0.00027629848 0.040336876)
(0.00026441683 0.00034539362 0.045875663)
(0.00032636727 0.00042993699 0.050807489)
(0.00037178416 0.00053187214 0.054374846)
(-3.9396617e-07 2.4955725e-06 0.00087503751)
(-5.7518021e-07 7.8599049e-06 0.00274851)
(9.6262492e-07 1.4634137e-05 0.0049329612)
(5.2534942e-06 2.3398875e-05 0.0074798805)
(1.3292557e-05 3.4641634e-05 0.010442313)
(2.6667823e-05 4.9151078e-05 0.013871405)
(4.7180836e-05 6.7897248e-05 0.017810749)
(7.6918087e-05 9.2120953e-05 0.022287878)
(0.00011794033 0.00012327595 0.027301877)
(0.00017181114 0.00016305467 0.032805866)
(0.00023881132 0.00021340695 0.038683069)
(0.00031680687 0.00027509874 0.044715412)
(0.00039868002 0.00034811896 0.050544695)
(0.00047010148 0.00042927635 0.055630409)
(0.00050536153 0.00051679244 0.059210883)
(1.8682004e-07 1.460862e-06 0.00099959879)
(1.4339238e-06 4.7794287e-06 0.003133731)
(5.1716884e-06 9.6342193e-06 0.0056113494)
(1.2818941e-05 1.6849156e-05 0.0084860561)
(2.5639191e-05 2.7071598e-05 0.011811505)
(4.5646201e-05 4.1400999e-05 0.015637226)
(7.4979656e-05 6.1058007e-05 0.020001758)
(0.00011595308 8.7470377e-05 0.024922509)
(0.00017054008 0.00012206971 0.030381202)
(0.00023974536 0.00016603853 0.036303745)
(0.00032258795 0.00021984021 0.042533544)
(0.00041484717 0.00028231687 0.04879813)
(0.00050793529 0.00035004153 0.054671135)
(0.00058965951 0.00041567015 0.059535341)
(0.00065476011 0.00046762604 0.062553805)
(-4.4253657e-07 -3.4870232e-06 0.00063768075)
(1.5948722e-07 -1.0422936e-05 0.0020111374)
(6.8793319e-07 -1.786372e-05 0.0036247969)
(3.2418583e-07 -2.5769656e-05 0.0055229366)
(-2.5890007e-07 -3.4036701e-05 0.0077531594)
(-1.387989e-06 -4.2501158e-05 0.010364188)
(-3.0233376e-06 -5.0936635e-05 0.013401908)
(-6.0826853e-06 -5.9223195e-05 0.016902838)
(-1.0084908e-05 -6.6930381e-05 0.02090822)
(-1.6262524e-05 -7.3988933e-05 0.025384499)
(-2.5555961e-05 -8.0206377e-05 0.030257896)
(-3.8475657e-05 -8.5780764e-05 0.035361848)
(-5.7370895e-05 -9.0874408e-05 0.040384088)
(-7.8927018e-05 -9.7765476e-05 0.04478763)
(-0.00010527654 -0.00010247845 0.047686236)
(4.317956e-07 -2.5869924e-06 0.00067769637)
(1.564316e-06 -8.3682778e-06 0.0021368871)
(2.8713898e-06 -1.5430403e-05 0.0038504501)
(4.6090156e-06 -2.3977809e-05 0.0058647907)
(6.37995e-06 -3.4318691e-05 0.008229725)
(7.8818508e-06 -4.6741413e-05 0.010996062)
(8.5032965e-06 -6.1569828e-05 0.01421138)
(8.9835751e-06 -7.8911427e-05 0.017911972)
(8.1937697e-06 -9.8375636e-05 0.022137479)
(2.5359653e-06 -0.00012043158 0.026849926)
(-9.632607e-06 -0.00014537768 0.031973541)
(-2.9609131e-05 -0.00017404716 0.037335677)
(-6.3056533e-05 -0.00020674966 0.042618081)
(-0.00010057234 -0.00024958888 0.047282025)
(-0.00016317412 -0.00028642466 0.050459222)
(1.6780236e-06 -8.3416461e-06 0.00075158041)
(5.3984384e-06 -2.5455204e-05 0.0023719462)
(8.7770466e-06 -4.4779892e-05 0.0042726849)
(1.1615089e-05 -6.6468092e-05 0.0065045418)
(1.346334e-05 -9.068749e-05 0.0091216543)
(1.3711806e-05 -0.00011758758 0.012179169)
(1.1103115e-05 -0.0001473655 0.015728891)
(5.023964e-06 -0.00018018263 0.019812467)
(-7.3755597e-06 -0.00021596775 0.024399296)
(-2.7414984e-05 -0.00025538186 0.029502951)
(-5.8402436e-05 -0.00029913353 0.035033247)
(-0.00010197649 -0.00034888469 0.040800015)
(-0.00016725042 -0.00040594883 0.046464226)
(-0.00023514815 -0.0004823184 0.051470141)
(-0.00035320839 -0.00054404451 0.054956286)
(2.7769025e-06 -9.0391192e-06 0.0008632301)
(8.3516162e-06 -2.7910619e-05 0.002715988)
(1.363247e-05 -4.9695047e-05 0.0048826604)
(1.8147305e-05 -7.4669918e-05 0.007417336)
(2.1063039e-05 -0.00010313116 0.01037631)
(2.1128012e-05 -0.00013536119 0.01381489)
(1.6563404e-05 -0.00017161435 0.017781667)
(4.9393911e-06 -0.0002122867 0.022309515)
(-1.6879475e-05 -0.00025812032 0.027402826)
(-5.2733809e-05 -0.00031037268 0.033019917)
(-0.00010751265 -0.00037112061 0.039045891)
(-0.00018464124 -0.00044369882 0.045256847)
(-0.00029559583 -0.0005319002 0.051273085)
(-0.00041487509 -0.00065052435 0.05649985)
(-0.00061964364 -0.00075951097 0.060062056)
(4.015572e-06 -9.7667671e-06 0.0010015283)
(1.1766853e-05 -2.9973327e-05 0.0031433134)
(1.8747425e-05 -5.3260407e-05 0.0056386324)
(2.3861826e-05 -8.0057488e-05 0.0085446408)
(2.5464655e-05 -0.00011086222 0.011918981)
(2.1243916e-05 -0.0001462748 0.015815562)
(8.1184553e-06 -0.0001870724 0.020277401)
(-1.7813539e-05 -0.0002343215 0.025325936)
(-6.1245839e-05 -0.00028952551 0.03094568)
(-0.00012751684 -0.00035479315 0.037063041)
(-0.00022233177 -0.00043293998 0.043518282)
(-0.00035078992 -0.00052758697 0.050030389)
(-0.0005212557 -0.00064279703 0.056156316)
(-0.00071257795 -0.00078756736 0.061248637)
(-0.00099669581 -0.0009296043 0.064424704)
(4.8347563e-06 -8.7074069e-06 0.0011635875)
(1.1561203e-05 -2.6152836e-05 0.0036400207)
(1.4558914e-05 -4.5583386e-05 0.0065116848)
(1.1798405e-05 -6.7605748e-05 0.0098365752)
(9.3915546e-07 -9.299426e-05 0.013669978)
(-2.0881727e-05 -0.00012286253 0.018058307)
(-5.7116415e-05 -0.00015875714 0.023029525)
(-0.00011182344 -0.00020272141 0.028579591)
(-0.00018956798 -0.00025730456 0.034654231)
(-0.00029516775 -0.00032549542 0.041125894)
(-0.00043286859 -0.0004104601 0.047766881)
(-0.00060611612 -0.00051552851 0.054221877)
(-0.00081368909 -0.00064242794 0.059986977)
(-0.0010430524 -0.00079760702 0.064409073)
(-0.0013328139 -0.0010099696 0.06673103)
(-1.2558745e-07 4.6824842e-07 0.00061737427)
(4.0944001e-07 1.3781286e-06 0.0019463793)
(1.1493725e-07 2.3304341e-06 0.0035087433)
(7.991958e-07 3.379524e-06 0.0053480268)
(1.5117687e-06 4.4620263e-06 0.0075112599)
(2.8619286e-06 5.5886683e-06 0.01004688)
(4.857538e-06 6.7851877e-06 0.013000954)
(7.8256387e-06 8.2002261e-06 0.016410923)
(1.2346866e-05 1.0224599e-05 0.020295696)
(2.0374236e-05 1.357389e-05 0.024640389)
(1.924889e-05 1.8888241e-05 0.029373463)
(3.3495021e-05 2.3370486e-05 0.034332565)
(4.0278844e-05 2.8355889e-05 0.039214232)
(4.7435817e-05 3.4810251e-05 0.043499516)
(4.7639336e-05 4.3368807e-05 0.04634231)
(-2.4905542e-08 6.2420299e-07 0.00065683007)
(-6.9116608e-09 1.8840172e-06 0.0020703019)
(1.9062916e-07 3.3762375e-06 0.003730924)
(7.2980352e-07 5.0424808e-06 0.0056842835)
(1.6927742e-06 6.9273968e-06 0.0079794663)
(3.2833228e-06 9.0309338e-06 0.010666791)
(5.6947764e-06 1.1440639e-05 0.0137938)
(9.1949324e-06 1.4407116e-05 0.0173987)
(1.3709276e-05 1.8601374e-05 0.021500067)
(2.0142692e-05 2.4924912e-05 0.026081178)
(2.8501952e-05 3.3728958e-05 0.031066754)
(3.950408e-05 4.1490091e-05 0.036288895)
(5.0728762e-05 5.1934739e-05 0.041437293)
(6.0708798e-05 6.5101797e-05 0.045986834)
(6.4680572e-05 8.2405447e-05 0.049090864)
(-1.085897e-07 7.8829049e-07 0.00072966443)
(-2.7879596e-07 2.4338544e-06 0.0022985675)
(-1.8512656e-07 4.348854e-06 0.004139165)
(2.7394299e-07 6.5781741e-06 0.0063003525)
(1.2980661e-06 9.1767185e-06 0.0088344177)
(3.153055e-06 1.2217856e-05 0.011794375)
(6.1999469e-06 1.5829339e-05 0.015229488)
(1.0895551e-05 2.0227907e-05 0.019178103)
(1.756095e-05 2.5671026e-05 0.023656622)
(2.6530183e-05 3.2409342e-05 0.02864321)
(3.8062417e-05 4.1099453e-05 0.034054028)
(5.1404277e-05 5.2000645e-05 0.039709328)
(6.426181e-05 6.6056807e-05 0.045285478)
(7.2843226e-05 8.3308458e-05 0.050248042)
(7.1292682e-05 0.00010372024 0.053756699)
(-1.2249708e-07 7.8249375e-07 0.0008333073)
(-2.5721563e-07 2.3788651e-06 0.0026222737)