/*--------------------------------*- C++ -*----------------------------------*\
| =========                 |                                                 |
| \\      /  F ield         | OpenFOAM: The Open Source CFD Toolbox           |
|  \\    /   O peration     | Version:  3.0.1                                 |
|   \\  /    A nd           | Web:      www.OpenFOAM.org                      |
|    \\/     M anipulation  |                                                 |
\*---------------------------------------------------------------------------*/
FoamFile
{
    version     2.0;
    format      ascii;
    class       surfaceScalarField;
    location    "2249";
    object      phi;
}
// * * * * * * * * * * * * * * * * * * * * * * * * * * * * * * * * * * * * * //

dimensions      [1 0 -1 0 0 0 0];

internalField   nonuniform List<scalar> 
7860
(
2.2050599e-09
1.3030653e-08
6.1496625e-09
3.9128412e-08
9.7668437e-09
6.8063973e-08
1.2158814e-08
9.8179981e-08
1.3364654e-08
1.2865419e-07
1.3809662e-08
1.595365e-07
1.391378e-08
1.913976e-07
1.3946934e-08
2.2495338e-07
1.4033544e-08
2.6084462e-07
1.4203823e-08
2.9956338e-07
1.4441356e-08
3.4145837e-07
1.4713425e-08
3.8676789e-07
1.4986266e-08
4.3565525e-07
1.523087e-08
4.8823911e-07
1.5423829e-08
5.4461799e-07
1.5546559e-08
6.0489166e-07
1.5584055e-08
6.6918135e-07
1.5523979e-08
7.3765093e-07
1.5356258e-08
8.1052938e-07
1.5072858e-08
8.8813423e-07
1.4667931e-08
9.7089425e-07
1.413812e-08
1.0593683e-06
1.3482895e-08
1.1542555e-06
1.2705017e-08
1.256389e-06
1.1810995e-08
1.3667042e-06
1.0811716e-08
1.4861654e-06
9.7229628e-09
1.6156321e-06
8.5659439e-09
1.755637e-06
7.3677972e-09
1.9060426e-06
6.1615574e-09
2.0655306e-06
4.9858439e-09
2.2308761e-06
3.8828548e-09
2.3959517e-06
2.8958418e-09
2.5504146e-06
2.0634921e-09
2.6780512e-06
1.4128936e-09
2.7547818e-06
9.5076843e-10
2.746379e-06
6.5178626e-10
2.6059501e-06
4.5623728e-10
2.2711887e-06
2.8050321e-10
1.6610834e-06
6.7145069e-07
-7.2018703e-10
1.375084e-08
-2.6234902e-09
4.1031715e-08
-5.5207557e-09
7.0961238e-08
-9.0494696e-09
1.0170869e-07
-1.2654958e-08
1.3225968e-07
-1.5764001e-08
1.6264554e-07
-1.798571e-08
1.9361931e-07
-1.9183955e-08
2.2615162e-07
-1.9427092e-08
2.6108775e-07
-1.8893921e-08
2.990302e-07
-1.7793646e-08
3.4035811e-07
-1.6318234e-08
3.8529248e-07
-1.4622951e-08
4.3395996e-07
-1.2824548e-08
4.8644071e-07
-1.100777e-08
5.4280122e-07
-9.2338209e-09
6.031177e-07
-7.5479162e-09
6.6749544e-07
-5.9847126e-09
7.3608773e-07
-4.5716353e-09
8.0911629e-07
-3.3305012e-09
8.8689311e-07
-2.2783032e-09
9.6984205e-07
-1.4270118e-09
1.058517e-06
-7.832705e-10
1.1536117e-06
-3.4779459e-10
1.2559535e-06
-1.1472894e-10
1.3664711e-06
-7.0637749e-11
1.4861214e-06
-1.9421599e-10
1.6157556e-06
-4.5468581e-10
1.7558975e-06
-8.119775e-10
1.9063998e-06
-1.2160695e-09
2.0659347e-06
-1.6085925e-09
2.2312686e-06
-1.925275e-09
2.3962683e-06
-2.1017613e-09
2.5505911e-06
-2.0834162e-09
2.6780327e-06
-1.8387013e-09
2.7545372e-06
-1.3779924e-09
2.7459181e-06
-7.7448083e-10
2.6053468e-06
-1.8389495e-10
2.2705981e-06
1.4892422e-10
1.6607506e-06
6.715995e-07
-9.1030939e-10
1.466115e-08
-3.6043443e-09
4.3725747e-08
-8.0124265e-09
7.5369322e-08
-1.3697179e-08
1.0739345e-07
-1.9899148e-08
1.3846165e-07
-2.573807e-08
1.6848446e-07
-3.0487818e-08
1.9836906e-07
-3.3751597e-08
2.294154e-07
-3.5469194e-08
2.6280536e-07
-3.5815835e-08
2.9937684e-07
-3.5078907e-08
3.3962118e-07
-3.3563488e-08
3.8377707e-07
-3.1538764e-08
4.3193524e-07
-2.9217922e-08
4.8411987e-07
-2.6758727e-08
5.4034203e-07
-2.4273614e-08
6.0063258e-07
-2.1841846e-08
6.6506369e-07
-1.9520196e-08
7.3376607e-07
-1.7350384e-08
8.0694648e-07
-1.5363915e-08
8.8490663e-07
-1.3584416e-08
9.6806256e-07
-1.2028739e-08
1.0569613e-06
-1.0706897e-08
1.1522899e-06
-9.6217287e-09
1.2548684e-06
-8.7681805e-09
1.3656175e-06
-8.1321546e-09
1.4854855e-06
-7.6902091e-09
1.6153136e-06
-7.4076238e-09
1.755615e-06
-7.2389266e-09
1.9062311e-06
-7.126934e-09
2.0658227e-06
-7.0045389e-09
2.2311463e-06
-6.7982873e-09
2.396062e-06
-6.4345142e-09
2.5502274e-06
-5.8508074e-09
2.6774491e-06
-5.0115521e-09
2.7536979e-06
-3.9278073e-09
2.7448344e-06
-2.6813606e-09
2.6041003e-06
-1.4438168e-09
2.2693605e-06
-4.9033905e-10
1.6597969e-06
6.711092e-07
-8.3020722e-10
1.5491356e-08
-3.4525035e-09
4.6348043e-08
-8.0491113e-09
7.9965931e-08
-1.4422027e-08
1.1376637e-07
-2.1927933e-08
1.4596755e-07
-2.9612256e-08
1.7616878e-07
-3.6504953e-08
2.0526175e-07
-4.1899785e-08
2.3481024e-07
-4.5475112e-08
2.6638068e-07
-4.72535e-08
3.0115522e-07
-4.7480697e-08
3.3984838e-07
-4.6499784e-08
3.8279616e-07
-4.465891e-08
4.3009436e-07
-4.2260112e-08
4.8172108e-07
-3.9541062e-08
5.3762296e-07
-3.6677052e-08
5.9776858e-07
-3.3792653e-08
6.6217929e-07
-3.0975192e-08
7.3094862e-07
-2.8286474e-08
8.0425775e-07
-2.577095e-08
8.8239111e-07
-2.3460989e-08
9.6575262e-07
-2.1379527e-08
1.0548799e-06
-1.9540808e-08
1.1504512e-06
-1.7950737e-08
1.2532783e-06
-1.6605903e-08
1.3642727e-06
-1.549287e-08
1.4843725e-06
-1.4587194e-08
1.6144079e-06
-1.3852067e-08
1.7548799e-06
-1.3238145e-08
1.9056171e-06
-1.2683127e-08
2.0652677e-06
-1.2113454e-08
2.2305766e-06
-1.144805e-08
2.3953965e-06
-1.0605217e-08
2.5493847e-06
-9.5150613e-09
2.6763589e-06
-8.1351904e-09
2.752318e-06
-6.472113e-09
2.7431713e-06
-4.6058085e-09
2.6022339e-06
-2.7088849e-09
2.2674635e-06
-1.0535244e-09
1.6581415e-06
6.7005584e-07
-7.3826609e-10
1.6229622e-08
-3.1450196e-09
4.8754798e-08
-7.5310596e-09
8.4351971e-08
-1.3908504e-08
1.2014381e-07
-2.1846998e-08
1.5390605e-07
-3.0499527e-08
1.8482131e-07
-3.8833344e-08
2.1359557e-07
-4.5937623e-08
2.4191452e-07
-5.1236295e-08
2.7167935e-07
-5.4536912e-08
3.0445583e-07
-5.595581e-08
3.4126728e-07
-5.5795128e-08
3.8263548e-07
-5.442799e-08
4.2872722e-07
-5.2217572e-08
4.7951066e-07
-4.9473436e-08
5.3487882e-07
-4.6437182e-08
5.9473233e-07
-4.3286358e-08
6.5902847e-07
-4.0146633e-08
7.278089e-07
-3.7105567e-08
8.0121665e-07
-3.4223973e-08
8.7950956e-07
-3.1544447e-08
9.6307307e-07
-2.9095872e-08
1.0524313e-06
-2.6896155e-08
1.1482515e-06
-2.4952917e-08
1.2513351e-06
-2.3263391e-08
1.3625831e-06
-2.1813326e-08
1.4829224e-06
-2.0576413e-08
1.6131709e-06
-1.9512807e-08
1.7538163e-06
-1.8568641e-08
1.904673e-06
-1.7676139e-08
2.0643751e-06
-1.6754891e-08
2.2296553e-06
-1.5716051e-08
2.3943577e-06
-1.4470101e-08
2.5481387e-06
-1.2938545e-08
2.6748273e-06
-1.1071847e-08
2.7504513e-06
-8.8711773e-09
2.7409707e-06
-6.4123726e-09
2.5997753e-06
-3.8683236e-09
2.2649193e-06
-1.5285889e-09
1.6558018e-06
6.6852721e-07
-6.6742358e-10
1.6897045e-08
-2.8774612e-09
5.0964837e-08
-6.9926351e-09
8.8467144e-08
-1.3156238e-08
1.2630741e-07
-2.1123876e-08
1.6187369e-07
-3.0210869e-08
1.939083e-07
-3.9437341e-08
2.2282204e-07
-4.7806423e-08
2.502836e-07
-5.4558908e-08
2.7843183e-07
-5.9296379e-08
3.091933e-07
-6.1968518e-08
3.4393941e-07
-6.2779733e-08
3.8344671e-07
-6.2074577e-08
4.2802206e-07
-6.023911e-08
4.776752e-07
-5.7634464e-08
5.3227417e-07
-5.456239e-08
5.9166026e-07
-5.1255953e-08
6.5572204e-07
-4.7885353e-08
7.2443829e-07
-4.457035e-08
7.9790166e-07
-4.1393596e-08
8.7633279e-07
-3.8411265e-08
9.6009075e-07
-3.5660641e-08
1.0496806e-06
-3.3164308e-08
1.1457552e-06
-3.093231e-08
1.2491031e-06
-2.896251e-08
1.3606133e-06
-2.724007e-08
1.4812e-06
-2.5736623e-08
1.6116675e-06
-2.4409221e-08
1.7524889e-06
-2.3199514e-08
1.9034633e-06
-2.2033935e-08
2.0632096e-06
-2.0825172e-08
2.2284466e-06
-1.9476854e-08
2.3930093e-06
-1.789075e-08
2.5465526e-06
-1.5980059e-08
2.6729166e-06
-1.3687214e-08
2.7481584e-06
-1.1006392e-08
2.73829e-06
-8.0089216e-09
2.5967777e-06
-4.8672939e-09
2.2617778e-06
-1.9089138e-09
1.6528435e-06
6.6661807e-07
-6.106715e-10
1.7507717e-08
-2.6525483e-09
5.3006713e-08
-6.5065656e-09
9.2321162e-08
-1.2393865e-08
1.3219471e-07
-2.0209339e-08
1.6968916e-07
-2.9425172e-08
2.0312414e-07
-3.916336e-08
2.3256023e-07
-4.8422744e-08
2.5954299e-07
-5.6337139e-08
2.8634622e-07
-6.2344533e-08
3.1520069e-07
-6.6230035e-08
3.4782492e-07
-6.8073102e-08
3.8528977e-07
-6.8149849e-08
4.280988e-07
-6.6831873e-08
4.7635723e-07
-6.450507e-08
5.2994735e-07
-6.1517067e-08
5.8867227e-07
-5.8152419e-08
6.5235738e-07
-5.462793e-08
7.209138e-07
-5.1100427e-08
7.9437416e-07
-4.7679122e-08
8.729115e-07
-4.4437988e-08
9.568496e-07
-4.1425256e-08
1.0466679e-06
-3.8670114e-08
1.143e-06
-3.6185758e-08
1.2466188e-06
-3.3971417e-08
1.3583989e-06
-3.2011881e-08
1.4792405e-06
-3.0277065e-08
1.6099327e-06
-2.8721075e-08
1.7509329e-06
-2.7281364e-08
1.9020236e-06
-2.5878979e-08
2.0618072e-06
-2.4420168e-08
2.2269879e-06
-2.2801026e-08
2.3913901e-06
-2.091511e-08
2.5446667e-06
-1.8667667e-08
2.6706691e-06
-1.5992846e-08
2.7454837e-06
-1.2878316e-08
2.7351754e-06
-9.3900543e-09
2.5932896e-06
-5.7050927e-09
2.2580927e-06
-2.2030662e-09
1.6493415e-06
6.6441512e-07
-5.6452696e-10
1.8072244e-08
-2.4644021e-09
5.4906588e-08
-6.0835912e-09
9.594035e-08
-1.16892e-08
1.3780032e-07
-1.9276619e-08
1.7727658e-07
-2.8451979e-08
2.122995e-07
-3.8451271e-08
2.4255952e-07
-4.8315023e-08
2.6940674e-07
-5.7129109e-08
2.9516031e-07
-6.4216032e-08
3.2228761e-07
-6.9219068e-08
3.5282797e-07
-7.2088755e-08
3.8815944e-07
-7.3010321e-08
4.2902038e-07
-7.2311338e-08
4.7565824e-07
-7.0375502e-08
5.2801153e-07
-6.7577744e-08
5.8587451e-07
-6.4244502e-08
6.4902413e-07
-6.063708e-08
7.1730636e-07
-5.6951428e-08
7.9068854e-07
-5.3327416e-08
8.6928746e-07
-4.9860496e-08
9.5338269e-07
-4.6613178e-08
1.0434206e-06
-4.3623106e-08
1.1400099e-06
-4.0908408e-08
1.243904e-06
-3.8470214e-08
1.3559608e-06
-3.6293615e-08
1.4770639e-06
-3.4347277e-08
1.6079863e-06
-3.2582642e-08
1.7491683e-06
-3.093343e-08
1.9003744e-06
-2.9315652e-08
2.0601894e-06
-2.762963e-08
2.2253018e-06
-2.576434e-08
2.3895248e-06
-2.3605991e-08
2.5425085e-06
-2.1051825e-08
2.6681149e-06
-1.8028688e-08
2.7424605e-06
-1.4517546e-08
2.7316642e-06
-1.0580881e-08
2.5893529e-06
-6.4034988e-09
2.2539152e-06
-2.4290631e-09
1.6453672e-06
6.6198607e-07
-5.261564e-10
1.85984e-08
-2.3051659e-09
5.6685598e-08
-5.716733e-09
9.9351918e-08
-1.1054972e-08
1.4313856e-07
-1.8387554e-08
1.8460916e-07
-2.7430157e-08
2.213421e-07
-3.7528466e-08
2.5265783e-07
-4.7786772e-08
2.7966504e-07
-5.7282993e-08
3.0465654e-07
-6.5265734e-08
3.3027035e-07
-7.1265748e-08
3.5882798e-07
-7.511478e-08
3.9200848e-07
-7.6899557e-08
4.3080515e-07
-7.6884247e-08
4.7564294e-07
-7.5427813e-08
5.265551e-07
-7.2912855e-08
5.8335953e-07
-6.9694771e-08
6.4580607e-07
-6.6073374e-08
7.1368498e-07
-6.2283174e-08
7.868983e-07
-5.8496565e-08
8.6550088e-07
-5.4834051e-08
9.4972018e-07
-5.1375315e-08
1.0399618e-06
-4.8168838e-08
1.1368035e-06
-4.523931e-08
1.2409745e-06
-4.2590929e-08
1.3533124e-06
-4.0209766e-08
1.4746827e-06
-3.8063669e-08
1.6058402e-06
-3.6101889e-08
1.7472065e-06
-3.4255011e-08
1.8985274e-06
-3.2434302e-08
2.0583688e-06
-3.0534827e-08
2.2234023e-06
-2.8439094e-08
2.3874291e-06
-2.6026544e-08
2.5400959e-06
-2.3187064e-08
2.6652754e-06
-1.98407e-08
2.7391142e-06
-1.596268e-08
2.7277862e-06
-1.1612965e-08
2.5850033e-06
-6.9887664e-09
2.2492909e-06
-2.6046881e-09
1.6409832e-06
6.5938134e-07
-4.9367059e-10
1.9092071e-08
-2.1687013e-09
5.8360627e-08
-5.3970475e-09
1.0258026e-07
-1.0488257e-08
1.4822977e-07
-1.7562399e-08
1.916833e-07
-2.6423511e-08
2.3020321e-07
-3.6516582e-08
2.627509e-07
-4.7017978e-08
2.9016644e-07
-5.7022622e-08
3.1466118e-07
-6.5737293e-08
3.3898502e-07
-7.2608364e-08
3.6569905e-07
-7.736546e-08
3.9676557e-07
-7.9999148e-08
4.3343884e-07
-8.070062e-08
4.7634441e-07
-7.9787412e-08
5.2564191e-07
-7.763227e-08
5.8120438e-07
-7.4605476e-08
6.4277928e-07
-7.1036616e-08
7.1011612e-07
-6.7195172e-08
7.8305686e-07
-6.3286679e-08
8.6159238e-07
-5.9458595e-08
9.458921e-07
-5.5810559e-08
1.0363138e-06
-5.2404562e-08
1.1333975e-06
-4.9273231e-08
1.2378432e-06
-4.6425443e-08
1.3504646e-06
-4.3848774e-08
1.472106e-06
-4.151108e-08
1.6035025e-06
-3.9359847e-08
1.7450554e-06
-3.7322703e-08
1.8964902e-06
-3.5307185e-08
2.0563532e-06
-3.3203025e-08
2.2212982e-06
-3.0887319e-08
2.3851134e-06
-2.8232973e-08
2.5374416e-06
-2.5123701e-08
2.662166e-06
-2.1473059e-08
2.7354636e-06
-1.725146e-08
2.7235645e-06
-1.2518038e-08
2.5802699e-06
-7.4862355e-09
2.2442589e-06
-2.7441117e-09
1.6362415e-06
6.5663704e-07
-4.6575365e-10
1.9557825e-08
-2.0503713e-09
5.9945245e-08
-5.116474e-09
1.0564637e-07
-9.9818029e-09
1.530951e-07
-1.6804735e-08
1.9850624e-07
-2.5460508e-08
2.3885898e-07
-3.5481581e-08
2.7277198e-07
-4.6117295e-08
3.0080214e-07
-5.6494255e-08
3.2503815e-07
-6.5800631e-08
3.4829139e-07
-7.3422424e-08
3.7332085e-07
-7.9005291e-08
4.0234844e-07
-8.2451805e-08
4.3688536e-07
-8.387786e-08
4.7777045e-07
-8.3549274e-08
5.2531332e-07
-8.1814719e-08
5.7946983e-07
-7.9045893e-08
6.4001043e-07
-7.5592001e-08
7.0666225e-07
-7.1752048e-08
7.792169e-07
-6.7762916e-08
8.5760326e-07
-6.3800138e-08
9.4192932e-07
-5.9985329e-08
1.032499e-06
-5.6396146e-08
1.1298083e-06
-5.307542e-08
1.2345224e-06
-5.0037601e-08
1.3474268e-06
-4.7273147e-08
1.4693416e-06
-4.4750196e-08
1.6009795e-06
-4.2415227e-08
1.7427204e-06
-4.0193325e-08
1.8942683e-06
-3.7988427e-08
2.0541483e-06
-3.5685879e-08
2.2189957e-06
-3.3157493e-08
2.3825851e-06
-3.0270815e-08
2.5345548e-06
-2.6903048e-08
2.6587983e-06
-2.2962794e-08
2.7315234e-06
-1.8416013e-08
2.7190177e-06
-1.3322836e-08
2.5751768e-06
-7.9160185e-09
2.2388522e-06
-2.8588836e-09
1.6311841e-06
6.5377832e-07
-4.4145696e-10
1.9999281e-08
-1.9466871e-09
6.1450475e-08
-4.8683649e-09
1.0856805e-07
-9.5277917e-09
1.5775452e-07
-1.6111567e-08
2.0509001e-07
-2.4552518e-08
2.4729993e-07
-3.4459239e-08
2.826787e-07
-4.5151202e-08
3.1149411e-07
-5.5794703e-08
3.3568166e-07
-6.5575481e-08
3.5807217e-07
-7.3838509e-08
3.8158387e-07
-8.0162408e-08
4.0867235e-07
-8.4372566e-08
4.4109552e-07
-8.6512163e-08
4.7991004e-07
-8.6790238e-08
5.255914e-07
-8.552127e-08
5.7820088e-07
-8.3066498e-08
6.3755564e-07
-7.9784566e-08
7.0338033e-07
-7.5996959e-08
7.754293e-07
-7.196876e-08
8.5357505e-07
-6.7903051e-08
9.3786363e-07
-6.3944865e-08
1.0285408e-06
-6.0189408e-08
1.1260529e-06
-5.6691427e-08
1.2310244e-06
-5.3472665e-08
1.344208e-06
-5.0527381e-08
1.4663963e-06
-4.782478e-08
1.598277e-06
-4.5310863e-08
1.7402065e-06
-4.2908455e-08
1.8918659e-06
-4.0518495e-08
2.0517584e-06
-3.8022356e-08
2.2164995e-06
-3.528698e-08
2.3798497e-06
-3.2174522e-08
2.5314425e-06
-2.8557461e-08
2.6551812e-06
-2.4339017e-08
2.7273049e-06
-1.9481791e-08
2.7141605e-06
-1.404878e-08
2.5697437e-06
-8.2949019e-09
2.2330983e-06
-2.9558255e-09
1.625845e-06
6.5082273e-07
-4.2008397e-10
2.0419365e-08
-1.8549915e-09
6.2885384e-08
-4.6473719e-09
1.1136043e-07
-9.1190536e-09
1.622262e-07
-1.5477549e-08
2.1144851e-07
-2.3702521e-08
2.555249e-07
-3.3468532e-08
2.9244471e-07
-4.4160679e-08
3.2218626e-07
-5.4988727e-08
3.4650969e-07
-6.5147013e-08
3.6823047e-07
-7.395439e-08
3.9039124e-07
-8.0937314e-08
4.1565528e-07
-8.5855269e-08
4.4601348e-07
-8.8684165e-08
4.8273893e-07
-8.9575266e-08
5.264825e-07
-8.8802438e-08
5.7742805e-07
-8.6706937e-08
6.3546015e-07
-8.3647368e-08
7.0032075e-07
-7.9960117e-08
7.7174205e-07
-7.5933852e-08
8.4954879e-07
-7.1797703e-08
9.3372748e-07
-6.7720396e-08
1.0244635e-06
-6.3816277e-08
1.1221487e-06
-6.0153581e-08
1.2273618e-06
-5.6763065e-08
1.3408175e-06
-5.3643611e-08
1.4632768e-06
-5.0766673e-08
1.5954e-06
-4.8077971e-08
1.7375178e-06
-4.5498808e-08
1.8892868e-06
-4.292741e-08
2.0491869e-06
-4.0241345e-08
2.2138135e-06
-3.7303419e-08
2.3769118e-06
-3.3971004e-08
2.5281101e-06
-3.0111579e-08
2.6513218e-06
-2.5624063e-08
2.7228175e-06
-2.0468696e-08
2.7090051e-06
-1.4712176e-08
2.5639872e-06
-8.6344708e-09
2.2270205e-06
-3.0402846e-09
1.620251e-06
6.4778216e-07
-4.0111024e-10
2.0820475e-08
-1.7732404e-09
6.4257513e-08
-4.4492003e-09
1.1403639e-07
-8.7493725e-09
1.6652637e-07
-1.4896778e-08
2.1759591e-07
-2.2909402e-08
2.6353752e-07
-3.2518957e-08
3.0205427e-07
-4.3171037e-08
3.3283834e-07
-5.4120013e-08
3.5745867e-07
-6.4576225e-08
3.7868669e-07
-7.3843681e-08
3.996587e-07
-8.1409116e-08
4.232207e-07
-8.6976769e-08
4.5158115e-07
-9.0462206e-08
4.8622436e-07
-9.1960577e-08
5.2798088e-07
-9.1701816e-08
5.7716928e-07
-9.0000358e-08
6.337587e-07
-8.7206332e-08
6.9752672e-07
-8.3663545e-08
7.6819927e-07
-7.9678986e-08
8.4556423e-07
-7.5505067e-08
9.2955356e-07
-7.1333792e-08
1.0202922e-06
-6.7299328e-08
1.1181143e-06
-6.3485176e-08
1.2235476e-06
-5.993218e-08
1.3372645e-06
-5.6645404e-08
1.45999e-06
-5.3599066e-08
1.5923537e-06
-5.0739662e-08
1.7346583e-06
-4.7987055e-08
1.8865342e-06
-4.5237264e-08
2.0464371e-06
-4.2364635e-08
2.2109408e-06
-3.922781e-08
2.3737749e-06
-3.5679832e-08
2.5245622e-06
-3.1583867e-08
2.6472258e-06
-2.6834977e-08
2.7180685e-06
-2.1391503e-08
2.7035615e-06
-1.5325588e-08
2.5579214e-06
-8.9435109e-09
2.2206384e-06
-3.1163904e-09
1.614424e-06
6.4466572e-07
-3.8413347e-10
2.1204607e-08
-1.699826e-09
6.5573207e-08
-4.2704047e-09
1.1660697e-07
-8.4134707e-09
1.7066944e-07
-1.4363536e-08
2.2354598e-07
-2.2170146e-08
2.7134414e-07
-3.1614578e-08
3.1149869e-07
-4.2197732e-08
3.4342149e-07
-5.3218226e-08
3.6847916e-07
-6.3907126e-08
3.8937559e-07
-7.3562104e-08
4.0931367e-07
-8.164023e-08
4.3129884e-07
-8.7800247e-08
4.5774116e-07
-9.1904484e-08
4.9032858e-07
-9.3995424e-08
5.3007183e-07
-9.4258175e-08
5.7743203e-07
-9.2975761e-08
6.3247629e-07
-9.0483079e-08
6.9503402e-07
-8.7124369e-08
7.6484056e-07
-8.3219237e-08
8.416591e-07
-7.9039906e-08
9.2537423e-07
-7.4800322e-08
1.0160526e-06
-7.0654783e-08
1.1139687e-06
-6.6702971e-08
1.2195958e-06
-6.2997223e-08
1.3335588e-06
-5.9550074e-08
1.4565429e-06
-5.6339463e-08
1.5891431e-06
-5.3313032e-08
1.7316318e-06
-5.0390209e-08
1.8836114e-06
-4.7464837e-08
2.0435117e-06
-4.4408285e-08
2.2078843e-06
-4.1075693e-08
2.3704423e-06
-3.7316051e-08
2.5208025e-06
-3.2988328e-08
2.6428981e-06
-2.7984415e-08
2.7130645e-06
-2.2261267e-08
2.6978385e-06
-1.5898213e-08
2.5515584e-06
-9.2285346e-09
2.2139686e-06
-3.1861567e-09
1.6083816e-06
6.414798e-07
-3.6883478e-10
2.1573442e-08
-1.6334814e-09
6.6837854e-08
-4.1081824e-09
1.1908167e-07
-8.1069105e-09
1.7466817e-07
-1.3872612e-08
2.2931168e-07
-2.1480967e-08
2.7895249e-07
-3.0756348e-08
3.2077408e-07
-4.1250036e-08
3.5391518e-07
-5.2303563e-08
3.7953268e-07
-6.3171677e-08
4.0024371e-07
-7.3152007e-08
4.19294e-07
-8.1680137e-08
4.3982698e-07
-8.8377595e-08
4.6443862e-07
-9.3060525e-08
4.950115e-07
-9.5723083e-08
5.3273438e-07
-9.6506363e-08
5.7821532e-07
-9.5659405e-08
6.316293e-07
-9.3496642e-08
6.9287126e-07
-9.0356642e-08
7.6170057e-07
-8.656604e-08
8.3786849e-07
-8.2412832e-08
9.2122103e-07
-7.813079e-08
1.0117705e-06
-7.389401e-08
1.1097319e-06
-6.9819023e-08
1.2155208e-06
-6.5970915e-08
1.3297106e-06
-6.2370508e-08
1.4529425e-06
-5.9000766e-08
1.5857734e-06
-5.5811091e-08
1.7284422e-06
-5.272103e-08
1.8805213e-06
-4.9622577e-08
2.0404133e-06
-4.6384657e-08
2.2046463e-06
-4.285899e-08
2.3669166e-06
-3.8890866e-08
2.5168344e-06
-3.4335565e-08
2.6383428e-06
-2.9081744e-08
2.7078108e-06
-2.3086661e-08
2.6918433e-06
-1.6437e-08
2.5449087e-06
-9.4939114e-09
2.2070258e-06
-3.2507662e-09
1.6021382e-06
6.3822908e-07
-3.5496607e-10
2.1928408e-08
-1.5731831e-09
6.805607e-08
-3.9602518e-09
1.2146874e-07
-7.8259556e-09
1.7853388e-07
-1.3419355e-08
2.3490508e-07
-2.0837858e-08
2.8637099e-07
-2.9943469e-08
3.2987969e-07
-4.0333214e-08
3.6430492e-07
-5.1389769e-08
3.9058923e-07
-6.2393196e-08
4.1124714e-07
-7.2645766e-08
4.2954656e-07
-8.1568067e-08
4.4874928e-07
-8.8751517e-08
4.7162207e-07
-9.3972533e-08
5.0023252e-07
-9.7181634e-08
5.3594349e-07
-9.8477947e-08
5.7951161e-07
-9.8075353e-08
6.3122672e-07
-9.6264377e-08
6.9106028e-07
-9.3372673e-08
7.5880885e-07
-8.9728552e-08
8.3422439e-07
-8.5631655e-08
9.1712412e-07
-8.1332904e-08
1.0074718e-06
-7.7025229e-08
1.1054242e-06
-7.284219e-08
1.2113377e-06
-6.8862418e-08
1.3257309e-06
-6.5116412e-08
1.4491965e-06
-6.1592757e-08
1.5822497e-06
-5.8243745e-08
1.7250932e-06
-5.4989201e-08
1.8772668e-06
-5.1720149e-08
2.0371443e-06
-4.8303099e-08
2.2012292e-06
-4.458669e-08
2.3632002e-06
-4.0412817e-08
2.5126606e-06
-3.5633473e-08
2.6335634e-06
-3.0134654e-08
2.7023119e-06
-2.387387e-08
2.6855825e-06
-1.6946812e-08
2.5379818e-06
-9.7435503e-09
2.1998223e-06
-3.311419e-09
1.5957062e-06
6.3491761e-07
-3.4232483e-10
2.2270732e-08
-1.518098e-09
6.9231845e-08
-3.8247271e-09
1.2377536e-07
-7.5674621e-09
1.8227661e-07
-1.2999665e-08
2.4033728e-07
-2.0236923e-08
2.9360825e-07
-2.9174164e-08
3.3881693e-07
-3.9449991e-08
3.7458074e-07
-5.0486114e-08
4.0162536e-07
-6.1588778e-08
4.2234981e-07
-7.2068238e-08
4.4002601e-07
-8.1335289e-08
4.5801633e-07
-8.8957187e-08
4.7924396e-07
-9.4676428e-08
5.0595177e-07
-9.84046e-08
5.3967165e-07
-1.0020145e-07
5.8130847e-07
-1.0024605e-07
6.3127131e-07
-9.880252e-08
6.8961677e-07
-9.6183607e-08
7.5618992e-07
-9.2714609e-08
8.307554e-07
-8.8702423e-08
9.1311192e-07
-8.4412235e-08
1.0031816e-06
-8.005423e-08
1.1010662e-06
-7.5778718e-08
1.2070623e-06
-7.1678712e-08
1.3216309e-06
-6.779498e-08
1.4453127e-06
-6.4122961e-08
1.5785777e-06
-6.0618469e-08
1.7215887e-06
-5.7202319e-08
1.8738507e-06
-5.376489e-08
2.0337068e-06
-5.0170701e-08
2.197635e-06
-4.6265649e-08
2.3592952e-06
-4.1888571e-08
2.5082835e-06
-3.6888099e-08
2.628563e-06
-3.1148491e-08
2.6965722e-06
-2.4627793e-08
2.6790618e-06
-1.7432115e-08
2.530786e-06
-9.9792124e-09
2.1923695e-06
-3.3689891e-09
1.5890958e-06
6.3154878e-07
-3.3074495e-10
2.2601477e-08
-1.467549e-09
7.0368649e-08
-3.7000449e-09
1.2600786e-07
-7.3287676e-09
1.8590533e-07
-1.2609973e-08
2.4561848e-07
-1.9674496e-08
3.0067278e-07
-2.8446201e-08
3.4758863e-07
-3.8601424e-08
3.8473597e-07
-4.9598824e-08
4.1262275e-07
-6.0770963e-08
4.3352195e-07
-7.143859e-08
4.5069364e-07
-8.1006783e-08
4.6758452e-07
-8.9023607e-08
4.8726077e-07
-9.5202754e-08
5.1213094e-07
-9.9421307e-08
5.4389019e-07
-1.0170277e-07
5.8358993e-07
-1.021923e-07
6.3176083e-07
-1.011265e-07
6.8855098e-07
-9.880005e-08
7.5386347e-07
-9.5531205e-08
8.2748656e-07
-9.1630058e-08
9.0921076e-07
-8.7372838e-08
9.9892443e-07
-8.2984995e-08
1.0966784e-06
-7.8633191e-08
1.2027105e-06
-7.4424696e-08
1.3174224e-06
-7.0411693e-08
1.4412997e-06
-6.6597019e-08
1.5747631e-06
-6.2941001e-08
1.7179326e-06
-5.9366181e-08
1.8702758e-06
-5.5762552e-08
2.0301032e-06
-5.1993069e-08
2.1938655e-06
-4.7901336e-08
2.3552034e-06
-4.3323178e-08
2.5037053e-06
-3.8104386e-08
2.6233443e-06
-3.2127475e-08
2.6905952e-06
-2.5352372e-08
2.6722868e-06
-1.7895473e-08
2.5233291e-06
-1.0203118e-08
2.1846772e-06
-3.4235144e-09
1.582316e-06
6.2812541e-07
-3.2009182e-10
2.2921569e-08
-1.4209669e-09
7.1469525e-08
-3.5849026e-09
1.281718e-07
-7.1076088e-09
1.8942804e-07
-1.2247152e-08
2.5075802e-07
-1.9147201e-08
3.0757283e-07
-2.7757098e-08
3.5619853e-07
-3.7787547e-08
3.9476642e-07
-4.8731917e-08
4.2356713e-07
-5.9948966e-08
4.44739e-07
-7.0771664e-08
4.6151634e-07
-8.0602584e-08
4.7741544e-07
-8.8974756e-08
4.9563294e-07
-9.5577527e-08
5.1873371e-07
-1.0025752e-07
5.485702e-07
-1.030052e-07
5.8633762e-07
-1.0393342e-07
6.3268903e-07
-1.032509e-07
6.8786848e-07
-1.0123215e-07
7.5184471e-07
-9.8184945e-08
8.2443935e-07
-9.4418843e-08
9.0544464e-07
-9.021781e-08
9.9472342e-07
-8.5820522e-08
1.092281e-06
-8.140868e-08
1.1982986e-06
-7.7104024e-08
1.3131177e-06
-7.2970426e-08
1.4371661e-06
-6.9019267e-08
1.5708119e-06
-6.5215876e-08
1.7141292e-06
-6.1485173e-08
1.8665452e-06
-5.7717601e-08
2.0263356e-06
-5.3774637e-08
2.1899226e-06
-4.9497848e-08
2.3509267e-06
-4.4720536e-08
2.498928e-06
-3.9285976e-08
2.6179097e-06
-3.3075105e-08
2.6843844e-06
-2.6050419e-08
2.665262e-06
-1.8339371e-08
2.5156181e-06
-1.0416644e-08
2.1767544e-06
-3.4754821e-09
1.5753746e-06
6.2465003e-07
-3.1025211e-10
2.3231821e-08
-1.3778799e-09
7.2537152e-08
-3.4781894e-09
1.3027211e-07
-6.9020551e-09
1.928519e-07
-1.1908483e-08
2.5576445e-07
-1.8651958e-08
3.1431631e-07
-2.7104366e-08
3.6465093e-07
-3.7007691e-08
4.0466975e-07
-4.7887934e-08
4.3444737e-07
-5.9129552e-08
4.5598061e-07
-7.0078964e-08
4.7246575e-07
-8.0138809e-08
4.8747529e-07
-8.8830494e-08
5.0432462e-07
-9.5822805e-08
5.2572602e-07
-1.0093574e-07
5.5368313e-07
-1.0412977e-07
5.8953164e-07
-1.0548732e-07
6.340466e-07
-1.051897e-07
6.8757084e-07
-1.0348978e-07
7.501448e-07
-1.006822e-07
8.2163178e-07
-9.707266e-08
9.018351e-07
-9.2949769e-08
9.9060052e-07
-8.8562797e-08
1.0878941e-06
-8.4107374e-08
1.1938432e-06
-7.9719199e-08
1.3087295e-06
-7.5474149e-08
1.4329211e-06
-7.1392906e-08
1.5667307e-06
-6.7446533e-08
1.7101828e-06
-6.3562986e-08
1.8626616e-06
-5.9633471e-08
2.0224061e-06
-5.551881e-08
2.185808e-06
-5.1058703e-08
2.3464665e-06
-4.608396e-08
2.4939532e-06
-4.0435759e-08
2.6122615e-06
-3.3994096e-08
2.6779428e-06
-2.6724352e-08
2.6579922e-06
-1.8765803e-08
2.5076595e-06
-1.0620619e-08
2.1686093e-06
-3.5248016e-09
1.568279e-06
6.2112503e-07
-3.0113026e-10
2.3532952e-08
-1.3378871e-09
7.3573907e-08
-3.3789748e-09
1.3231319e-07
-6.7104468e-09
1.9618338e-07
-1.1591581e-08
2.6064559e-07
-1.8186001e-08
3.2091073e-07
-2.6485565e-08
3.729505e-07
-3.6260806e-08
4.1444499e-07
-4.7068327e-08
4.4525489e-07
-5.8317636e-08
4.6722992e-07
-6.9369443e-08
4.8351756e-07
-7.9628477e-08
4.9773432e-07
-8.8607305e-08
5.1330345e-07
-9.5957476e-08
5.3307618e-07
-1.0147565e-07
5.5920131e-07
-1.050953e-07
5.9315128e-07
-1.0687061e-07
6.3582193e-07
-1.0695615e-07
6.8765637e-07
-1.0558258e-07
7.4877122e-07
-1.0302934e-07
8.1907854e-07
-9.9595363e-08
8.9840113e-07
-9.5570885e-08
9.8657603e-07
-9.1213368e-08
1.0835366e-06
-8.6730709e-08
1.1893606e-06
-8.2271856e-08
1.3042707e-06
-7.7925029e-08
1.4285742e-06
-7.3720357e-08
1.562526e-06
-6.963555e-08
1.706098e-06
-6.5602246e-08
1.8586284e-06
-6.1513042e-08
2.0183168e-06
-5.7228386e-08
2.1815234e-06
-5.2586349e-08
2.3418245e-06
-4.7415844e-08
2.4887827e-06
-4.1556144e-08
2.6064018e-06
-3.4886661e-08
2.6712733e-06
-2.7375879e-08
2.6504816e-06
-1.9176016e-08
2.4994595e-06
-1.0816007e-08
2.1602493e-06
-3.5723567e-09
1.5610353e-06
6.1755276e-07
-2.9264772e-10
2.3825601e-08
-1.3006484e-09
7.4581907e-08
-3.2864523e-09
1.34299e-07
-6.5313569e-09
1.9942829e-07
-1.1294366e-08
2.6540859e-07
-1.7746829e-08
3.2736319e-07
-2.5898365e-08
3.8110203e-07
-3.5545585e-08
4.2409221e-07
-4.6273798e-08
4.559831e-07
-5.7516795e-08
4.7847292e-07
-6.8650105e-08
4.9465087e-07
-7.9082094e-08
5.0816631e-07
-8.8318902e-08
5.2254026e-07
-9.5997568e-08
5.4075485e-07
-1.0189444e-07
5.6509818e-07
-1.0591871e-07
5.9717556e-07
-1.0809853e-07
6.3800174e-07
-1.0856284e-07
6.8812067e-07
-1.0751993e-07
7.4772832e-07
-1.0523263e-07
8.1679122e-07
-1.019907e-07
8.9515922e-07
-9.808324e-08
9.8266855e-07
-9.3773456e-08
1.0792268e-06
-8.9279671e-08
1.1848667e-06
-8.4763218e-08
1.2997543e-06
-8.0324428e-08
1.4241354e-06
-7.6003342e-08
1.5582049e-06
-7.1784962e-08
1.7018796e-06
-6.7605209e-08
1.8544487e-06
-6.3358491e-08
2.0140701e-06
-5.8905495e-08
2.1770703e-06
-5.4082996e-08
2.337002e-06
-4.8718276e-08
2.483418e-06
-4.2649022e-08
2.6003325e-06
-3.5754301e-08
2.6643786e-06
-2.8006857e-08
2.6427342e-06
-1.9571324e-08
2.4910239e-06
-1.1003216e-08
2.1516815e-06
-3.6177353e-09
1.5536495e-06
6.1393512e-07
-2.8473481e-10
2.4110336e-08
-1.2658759e-09
7.5563047e-08
-3.1999352e-09
1.3623306e-07
-6.3635474e-09
2.025919e-07
-1.1015003e-08
2.7006005e-07
-1.7332194e-08
3.3368038e-07
-2.5340564e-08
3.891104e-07
-3.48606e-08
4.3361224e-07
-4.5504518e-08
4.6662702e-07
-5.6729573e-08
4.8969798e-07
-6.7926371e-08
5.0584767e-07
-7.8508218e-08
5.1874816e-07
-8.7976706e-08
5.3200876e-07
-9.5956811e-08
5.4873494e-07
-1.0220712e-07
5.7134848e-07
-1.0661512e-07
6.0158358e-07
-1.0918505e-07
6.4057166e-07
-1.100216e-07
6.8895723e-07
-1.0931099e-07
7.4701769e-07
-1.0729836e-07
8.1477862e-07
-1.0426255e-07
8.9212339e-07
-1.0048894e-07
9.7889493e-07
-9.6244089e-08
1.074982e-06
-9.175481e-08
1.1803775e-06
-8.7193957e-08
1.2951934e-06
-8.2673292e-08
1.4196147e-06
-7.8243165e-08
1.5537748e-06
-7.3896238e-08
1.6975327e-06
-6.9573494e-08
1.8501259e-06
-6.5171606e-08
2.0096683e-06
-6.0551924e-08
2.1724506e-06
-5.555042e-08
2.3320006e-06
-4.9992938e-08
2.4778605e-06
-4.3715925e-08
2.5940554e-06
-3.6598755e-08
2.6572614e-06
-2.8618289e-08
2.6347539e-06
-1.9952599e-08
2.4823581e-06
-1.1183349e-08
2.1429123e-06
-3.6608714e-09
1.5461271e-06
6.1027415e-07
-2.7733328e-10
2.4387668e-08
-1.2333161e-09
7.6519031e-08
-3.1188277e-09
1.3811857e-07
-6.2059362e-09
2.05679e-07
-1.0751879e-08
2.7460599e-07
-1.6940078e-08
3.3986858e-07
-2.481012e-08
3.9698045e-07
-3.4204381e-08
4.430065e-07
-4.4760296e-08
4.7718294e-07
-5.5957732e-08
5.0089541e-07
-6.7202495e-08
5.1709243e-07
-7.7913782e-08
5.2945945e-07
-8.7590292e-08
5.4168527e-07
-9.5846918e-08
5.5699157e-07
-1.0242678e-07
5.7792835e-07
-1.0719806e-07
6.0635484e-07
-1.1014299e-07
6.435166e-07
-1.113436e-07
6.9015785e-07
-1.1096453e-07
7.466386e-07
-1.0923285e-07
8.1304694e-07
-1.064148e-07
8.8930535e-07
-1.0279005e-07
9.7527018e-07
-9.8626201e-08
1.0708181e-06
-9.4156708e-08
1.175908e-06
-8.9564384e-08
1.2906011e-06
-8.4972118e-08
1.4150225e-06
-8.0440635e-08
1.5492433e-06
-7.5970536e-08
1.6930626e-06
-7.1508307e-08
1.8456637e-06
-6.6953791e-08
2.0051138e-06
-6.216904e-08
2.1676659e-06
-5.6990015e-08
2.3268215e-06
-5.1241182e-08
2.4721117e-06
-4.4758132e-08
2.5875724e-06
-3.7420933e-08
2.6499242e-06
-2.9211399e-08
2.6265444e-06
-2.0320672e-08
2.4734673e-06
-1.1356246e-08
2.1339478e-06
-3.7023541e-09
1.5384732e-06
6.0657182e-07
-2.7039006e-10
2.4658059e-08
-1.202757e-09
7.7451397e-08
-3.0426122e-09
1.3995843e-07
-6.0575764e-09
2.0869397e-07
-1.0503569e-08
2.7905199e-07
-1.6568671e-08
3.4593368e-07
-2.4305141e-08
4.0471692e-07
-3.3575438e-08
4.522768e-07
-4.4040686e-08
4.8764819e-07
-5.5202452e-08
5.1205717e-07
-6.6481763e-08
5.2837173e-07
-7.7304456e-08
5.4028214e-07
-8.7167645e-08
5.5154847e-07
-9.5677922e-08
5.6550184e-07
-1.0256493e-07
5.8481535e-07
-1.0767952e-07
6.1146943e-07
-1.1098406e-07
6.4682113e-07
-1.1253928e-07
6.9171308e-07
-1.1248907e-07
7.4658839e-07
-1.1104231e-07
8.1160016e-07
-1.0845148e-07
8.8671456e-07
-1.0498883e-07
9.7180749e-07
-1.0092081e-07
1.0667502e-06
-9.6485652e-08
1.1714728e-06
-9.1874658e-08
1.2859901e-06
-8.7221322e-08
1.4103692e-06
-8.2596272e-08