/*--------------------------------*- C++ -*----------------------------------*\
| =========                 |                                                 |
| \\      /  F ield         | OpenFOAM: The Open Source CFD Toolbox           |
|  \\    /   O peration     | Version:  3.0.1                                 |
|   \\  /    A nd           | Web:      www.OpenFOAM.org                      |
|    \\/     M anipulation  |                                                 |
\*---------------------------------------------------------------------------*/
FoamFile
{
    version     2.0;
    format      ascii;
    class       volScalarField;
    location    "2249";
    object      rho;
}
// * * * * * * * * * * * * * * * * * * * * * * * * * * * * * * * * * * * * * //

dimensions      [1 -3 0 0 0 0 0];

internalField   nonuniform List<scalar> 
4000
(
1.0058477
1.0741966
1.1262246
1.1604477
1.1806121
1.1915364
1.197076
1.1997356
1.2009528
1.2014861
1.2017101
1.2018005
1.2018355
1.2018485
1.2018532
1.2018548
1.2018553
1.2018555
1.2018555
1.2018555
1.2018555
1.2018555
1.2018555
1.2018555
1.2018555
1.2018555
1.2018555
1.2018555
1.2018555
1.2018555
1.2018555
1.2018555
1.2018555
1.2018555
1.2018555
1.2018555
1.2018555
1.2018555
1.2018555
1.2018555
0.96231248
1.0227404
1.0784556
1.1237449
1.1561741
1.1769316
1.1890452
1.1956059
1.1989469
1.2005602
1.2013024
1.2016286
1.2017657
1.2018208
1.2018421
1.2018499
1.2018527
1.2018536
1.2018539
1.201854
1.201854
1.201854
1.201854
1.201854
1.201854
1.201854
1.201854
1.201854
1.201854
1.201854
1.201854
1.201854
1.201854
1.201854
1.201854
1.201854
1.201854
1.201854
1.201854
1.201854
0.94374422
0.99833728
1.0512005
1.0980784
1.1354676
1.1622612
1.1796891
1.1901262
1.1959571
1.1990261
1.2005576
1.2012851
1.2016146
1.201757
1.2018158
1.201839
1.2018478
1.2018509
1.201852
1.2018524
1.2018525
1.2018525
1.2018525
1.2018525
1.2018525
1.2018525
1.2018525
1.2018525
1.2018525
1.2018525
1.2018525
1.2018525
1.2018525
1.2018525
1.2018525
1.2018525
1.2018525
1.2018525
1.2018525
1.2018525
0.93274377
0.98364349
1.0337599
1.0800068
1.1191568
1.1492963
1.1704548
1.1841282
1.1923526
1.197001
1.1994866
1.2007493
1.2013601
1.2016419
1.2017658
1.2018179
1.2018387
1.2018466
1.2018495
1.2018505
1.2018509
1.201851
1.201851
1.201851
1.201851
1.201851
1.201851
1.201851
1.201851
1.201851
1.201851
1.201851
1.201851
1.201851
1.201851
1.201851
1.201851
1.201851
1.201851
1.201851
0.92516696
0.97348714
1.0214146
1.0665959
1.1062364
1.1382238
1.1619223
1.178133
1.188462
1.1946455
1.1981466
1.2000297
1.2009942
1.2014651
1.2016844
1.2017817
1.201823
1.2018396
1.201846
1.2018483
1.2018491
1.2018494
1.2018495
1.2018495
1.2018495
1.2018495
1.2018495
1.2018495
1.2018495
1.2018495
1.2018495
1.2018495
1.2018495
1.2018495
1.2018495
1.2018495
1.2018495
1.2018495
1.2018495
1.2018495
0.9195001
0.9658847
1.0120653
1.0561678
1.0957762
1.1287964
1.1542373
1.1724053
1.1845148
1.1921064
1.1966118
1.199154
1.2005212
1.2012228
1.2015662
1.2017267
1.2017981
1.2018284
1.2018407
1.2018454
1.2018471
1.2018477
1.2018479
1.201848
1.201848
1.201848
1.201848
1.201848
1.201848
1.201848
1.201848
1.201848
1.201848
1.201848
1.201848
1.201848
1.201848
1.201848
1.201848
1.201848
0.91503127
0.95988985
1.0046441
1.0477533
1.0871074
1.1207036
1.1473639
1.1670487
1.1806459
1.1894939
1.1949516
1.198157
1.1999539
1.2009164
1.201409
1.2016497
1.2017619
1.2018118
1.2018329
1.2018415
1.2018447
1.2018459
1.2018463
1.2018465
1.2018465
1.2018465
1.2018465
1.2018465
1.2018465
1.2018465
1.2018465
1.2018465
1.2018465
1.2018465
1.2018465
1.2018465
1.2018465
1.2018465
1.2018465
1.2018465
0.91137561
0.95498767
0.9985502
1.0407669
1.0797731
1.1136782
1.1412098
1.1620845
1.1769257
1.1868818
1.1932222
1.1970728
1.1993088
1.2005517
1.2012128
1.2015492
1.2017127
1.2017885
1.201822
1.2018361
1.2018417
1.2018439
1.2018446
1.2018449
1.201845
1.201845
1.201845
1.201845
1.201845
1.201845
1.201845
1.201845
1.201845
1.201845
1.201845
1.201845
1.201845
1.201845
1.201845
1.201845
0.90830341
0.95086997
0.99341724
1.0348351
1.0734584
1.1075099
1.1356751
1.157497
1.1733846
1.1843157
1.1914651
1.195931
1.1986031
1.2001364
1.2009802
1.2014249
1.2016493
1.2017573
1.201807
1.2018288
1.2018379
1.2018415
1.2018428
1.2018433
1.2018435
1.2018435
1.2018435
1.2018435
1.2018435
1.2018435
1.2018435
1.2018435
1.2018435
1.2018435
1.2018435
1.2018435
1.2018435
1.2018435
1.2018435
1.2018435
0.90566767
0.94733916
0.98900724
1.0297082
1.0679415
1.1020372
1.1306696
1.1532559
1.1700312
1.1818218
1.1897091
1.1947552
1.1978526
1.1996793
1.2007145
1.2012776
1.2015712
1.2017177
1.2017875
1.2018192
1.2018329
1.2018386
1.2018408
1.2018416
1.2018419
1.201842
1.201842
1.201842
1.201842
1.201842
1.201842
1.201842
1.201842
1.201842
1.201842
1.201842
1.201842
1.201842
1.201842
1.201842
0.90336916
0.94426177
0.98515807
1.0252124
1.0630621
1.0971363
1.1261159
1.149327
1.1668619
1.1794135
1.1879736
1.1935635
1.1970707
1.1991887
1.2004202
1.2011089
1.2014787
1.2016691
1.2017629
1.2018069
1.2018267
1.2018351
1.2018385
1.2018398
1.2018403
1.2018405
1.2018405
1.2018405
1.2018405
1.2018405
1.2018405
1.2018405
1.2018405
1.2018405
1.2018405
1.2018405
1.2018405
1.2018405
1.2018405
1.2018405
0.90133806
0.94154383
0.98175488
1.0212227
1.0587016
1.0927111
1.12195
1.1456772
1.1638679
1.1770966
1.186271
1.192369
1.1962685
1.1986723
1.2001016
1.2009206
1.2013723
1.2016114
1.2017328
1.2017916
1.2018188
1.2018308
1.2018359
1.2018379
1.2018386
1.2018389
1.201839
1.201839
1.201839
1.201839
1.201839
1.201839
1.201839
1.201839
1.201839
1.201839
1.201839
1.201839
1.201839
1.201839
0.89952351
0.93911693
0.97871364
1.0176465
1.0547701
1.0886866
1.1181185
1.1422763
1.1610374
1.174872
1.1846085
1.1911815
1.1954548
1.1981367
1.199763
1.2007153
1.2012528
1.2015448
1.201697
1.201773
1.2018092
1.2018257
1.2018328
1.2018358
1.2018369
1.2018373
1.2018375
1.2018375
1.2018375
1.2018375
1.2018375
1.2018375
1.2018375
1.2018375
1.2018375
1.2018375
1.2018375
1.2018375
1.2018375
1.2018375
0.8978875
0.93692986
0.97597122
1.0144136
1.0511984
1.0850031
1.1145777
1.1390975
1.1583583
1.1727378
1.1829904
1.1900073
1.1946363
1.1975877
1.1994085
1.2004951
1.2011215
1.2014696
1.2016556
1.2017509
1.2017977
1.2018195
1.2018293
1.2018334
1.2018351
1.2018357
1.2018359
1.201836
1.201836
1.201836
1.201836
1.201836
1.201836
1.201836
1.201836
1.201836
1.201836
1.201836
1.201836
1.201836
0.89640086
0.9349434
0.97347914
1.0114694
1.0479321
1.0816126
1.1112909
1.1361171
1.1558186
1.1706906
1.1814186
1.1888512
1.1938182
1.1970296
1.1990413
1.2002623
1.2009795
1.2013863
1.2016086
1.2017253
1.201784
1.2018122
1.2018251
1.2018308
1.2018331
1.201834
1.2018344
1.2018345
1.2018345
1.2018345
1.2018345
1.2018345
1.2018345
1.2018345
1.2018345
1.2018345
1.2018345
1.2018345
1.2018345
1.2018345
0.89504082
0.93312692
0.97119942
1.0087713
1.0449276
1.0784762
1.1082277
1.1333148
1.153407
1.1687261
1.1798935
1.1877159
1.1930044
1.1964664
1.1986647
1.2000191
1.200828
1.2012954
1.2015561
1.201696
1.2017681
1.2018036
1.2018203
1.2018278
1.201831
1.2018323
1.2018328
1.201833
1.201833
1.201833
1.201833
1.201833
1.201833
1.201833
1.201833
1.201833
1.201833
1.201833
1.201833
1.201833
0.89378929
0.93145606
0.96910182
1.0062847
1.0421498
1.075562
1.1053624
1.1306726
1.1511131
1.1668398
1.1784145
1.1866033
1.1921976
1.1959009
1.1982811
1.1997674
1.2006684
1.2011978
1.2014985
1.2016632
1.20175
1.2017937
1.2018148
1.2018245
1.2018287
1.2018305
1.2018312
1.2018314
1.2018315
1.2018315
1.2018315
1.2018315
1.2018315
1.2018315
1.2018315
1.2018315
1.2018315
1.2018315
1.2018315
1.2018315
0.89263166
0.92991118
0.96716191
1.003982
1.03957
1.0728432
1.1026733
1.1281751
1.1489274
1.1650272
1.1769805
1.1855144
1.1914
1.1953355
1.1978926
1.1995087
1.2005017
1.201094
1.2014361
1.201627
1.2017295
1.2017824
1.2018084
1.2018207
1.2018262
1.2018285
1.2018295
1.2018299
1.20183
1.20183
1.20183
1.20183
1.20183
1.20183
1.20183
1.20183
1.20183
1.20183
1.20183
1.20183
0.89155599
0.92847622
0.9653597
1.0018401
1.0371642
1.0702977
1.1001419
1.1258087
1.1468414
1.1632837
1.1755901
1.1844497
1.190613
1.194772
1.1975012
1.1992448
1.2003291
1.2009847
1.2013693
1.2015874
1.2017068
1.2017696
1.2018012
1.2018165
1.2018235
1.2018265
1.2018278
1.2018283
1.2018285
1.2018285
1.2018285
1.2018285
1.2018285
1.2018285
1.2018285
1.2018285
1.2018285
1.2018285
1.2018285
1.2018285
0.8905524
0.92713791
0.96367862
0.99984007
1.0349127
1.0679067
1.0977523
1.1235615
1.1448472
1.1616052
1.1742416
1.183409
1.1898376
1.1942119
1.1971081
1.1989767
1.2001516
1.2008707
1.2012983
1.2015447
1.2016819
1.2017554
1.2017932
1.2018117
1.2018205
1.2018244
1.201826
1.2018267
1.2018269
1.201827
1.201827
1.201827
1.201827
1.201827
1.201827
1.201827
1.201827
1.201827
1.201827
1.201827
0.88961265
0.92588516
0.96210485
0.99796592
1.0327985
1.065654
1.0954909
1.1214231
1.1429378
1.1599876
1.1729332
1.1823923
1.1890743
1.1936561
1.1967147
1.1987056
1.1999699
1.2007524
1.2012237
1.2014991
1.2016548
1.2017397
1.2017842
1.2018065
1.2018172
1.201822
1.2018242
1.201825
1.2018254
1.2018255
1.2018255
1.2018255
1.2018255
1.2018255
1.2018255
1.2018255
1.2018255
1.2018255
1.2018255
1.2018255
0.88872978
0.92470863
0.9606267
0.99620414
1.0308073
1.063526
1.0933458
1.1193844
1.1411071
1.1584271
1.1716631
1.181399
1.1883237
1.1931056
1.1963218
1.1984325
1.1997849
1.2006306
1.2011457
1.2014507
1.2016256
1.2017225
1.2017742
1.2018006
1.2018136
1.2018196
1.2018222
1.2018234
1.2018238
1.201824
1.201824
1.201824
1.201824
1.201824
1.201824
1.201824
1.201824
1.201824
1.201824
1.201824
0.88789788
0.92360037
0.95923423
0.99454322
1.0289269
1.0615109
1.0913065
1.1174372
1.1393492
1.1569204
1.1704296
1.1804286
1.1875858
1.1925609
1.1959302
1.198158
1.1995973
1.2005056
1.2010648
1.2013997
1.2015945
1.201704
1.2017633
1.2017942
1.2018096
1.2018169
1.2018202
1.2018216
1.2018222
1.2018224
1.2018225
1.2018225
1.2018225
1.2018225
1.2018225
1.2018225
1.2018225
1.2018225
1.2018225
1.2018225
0.88711186
0.92255357
0.95791893
0.99297326
1.0271467
1.0595981
1.0893641
1.1155743
1.1376592
1.155464
1.1692309
1.1794803
1.1868607
1.1920225
1.1955407
1.1978829
1.1994077
1.2003781
1.2009812
1.2013465
1.2015615
1.2016841
1.2017515
1.2017872
1.2018053
1.2018141
1.2018181
1.2018199
1.2018206
1.2018209
1.201821
1.201821
1.201821
1.201821
1.201821
1.201821
1.201821
1.201821
1.201821
1.201821
0.88636736
0.92156235
0.95667344
0.9914857
1.0254575
1.0577789
1.0875105
1.1137893
1.1360322
1.1540551
1.1680653
1.1785535
1.1861483
1.1914906
1.1951536
1.1976078
1.1992165
1.2002484
1.2008954
1.2012912
1.2015268
1.2016629
1.2017388
1.2017796
1.2018006
1.201811
1.2018159
1.201818
1.201819
1.2018193
1.2018195
1.2018195
1.2018195
1.2018195
1.2018195
1.2018195
1.2018195
1.2018195
1.2018195
1.2018195
0.88566059
0.92062162
0.95549137
0.99007309
1.0238513
1.0560452
1.0857386
1.1120765
1.1344642
1.1526909
1.1669313
1.1776475
1.1854485
1.1909654
1.1947693
1.1973329
1.1990243
1.2001169
1.2008076
1.201234
1.2014905
1.2016404
1.2017251
1.2017714
1.2017956
1.2018077
1.2018135
1.2018162
1.2018173
1.2018178
1.2018179
1.201818
1.201818
1.201818
1.201818
1.201818
1.201818
1.201818
1.201818
1.201818
0.88498821
0.91972693
0.95436714
0.98872891
1.022321
1.05439
1.0840421
1.1104306
1.1329513
1.1513688
1.1658274
1.1767615
1.1847611
1.1904471
1.1943881
1.1970589
1.1988314
1.199984
1.200718
1.2011751
1.2014527
1.2016167
1.2017106
1.2017625
1.2017901
1.2018042
1.201811
1.2018142
1.2018156
1.2018162
1.2018164
1.2018165
1.2018165
1.2018165
1.2018165
1.2018165
1.2018165
1.2018165
1.2018165
1.2018165
0.88434733
0.91887436
0.95329586
0.98744742
1.0208605
1.0528072
1.0824154
1.1088471
1.1314901
1.1500865
1.1647521
1.1758949
1.1840857
1.1899357
1.1940103
1.1967858
1.1986381
1.1998499
1.200627
1.2011147
1.2014136
1.2015919
1.2016952
1.2017531
1.2017843
1.2018004
1.2018084
1.2018122
1.2018139
1.2018146
1.2018149
1.201815
1.201815
1.201815
1.201815
1.201815
1.201815
1.201815
1.201815
1.201815
0.88373536
0.91806047
0.9522732
0.98622355
1.0194641
1.0512913
1.0808534
1.1073217
1.1300773
1.1488418
1.1637041
1.1750468
1.1834222
1.1894313
1.1936361
1.1965141
1.1984447
1.199715
1.2005347
1.2010529
1.2013732
1.2015661
1.2016791
1.2017431
1.2017781
1.2017964
1.2018057
1.2018101
1.2018121
1.201813
1.2018133
1.2018135
1.2018135
1.2018135
1.2018135
1.2018135
1.2018135
1.2018135
1.2018135
1.2018135
0.88315003
0.91728221
0.95129532
0.98505281
1.018127
1.0498372
1.0793516
1.1058506
1.12871
1.1476328
1.1626822
1.1742166
1.1827702
1.1889337
1.1932654
1.1962438
1.1982514
1.1995794
1.2004414
1.20099
1.2013317
1.2015393
1.2016621
1.2017325
1.2017714
1.2017922
1.2018028
1.2018079
1.2018103
1.2018113
1.2018118
1.2018119
1.201812
1.201812
1.201812
1.201812
1.201812
1.201812
1.201812
1.201812
0.88258932
0.91653685
0.95035882
0.98393119
1.0168448
1.0484407
1.0779059
1.1044305
1.1273857
1.1464575
1.1616851
1.1734036
1.1821294
1.1884429
1.1928985
1.1959752
1.1980585
1.1994434
1.2003473
1.2009261
1.2012891
1.2015116
1.2016444
1.2017213
1.2017644
1.2017877
1.2017997
1.2018056
1.2018084
1.2018097
1.2018102
1.2018104
1.2018105
1.2018105
1.2018105
1.2018105
1.2018105
1.2018105
1.2018105
1.2018105
0.8820514
0.91582195
0.94946063
0.98285509
1.0156136
1.0470977
1.0765126
1.1030581
1.1261018
1.1453141
1.1607118
1.1726071
1.1814996
1.1879588
1.1925354
1.1957084
1.1978661
1.199307
1.2002524
1.2008612
1.2012457
1.2014831
1.201626
1.2017097
1.201757
1.2017829
1.2017965
1.2018033
1.2018065
1.201808
1.2018086
1.2018089
1.201809
1.201809
1.201809
1.201809
1.201809
1.201809
1.201809
1.201809
0.88153465
0.91513536
0.94859802
0.98182129
1.0144298
1.0458046
1.0751684
1.1017305
1.1248562
1.1442012
1.1597611
1.1718267
1.1808803
1.1874814
1.1921761
1.1954435
1.1976744
1.1991706
1.2001569
1.2007956
1.2012014
1.2014538
1.201607
1.2016975
1.2017493
1.2017779
1.2017931
1.2018008
1.2018045
1.2018063
1.201807
1.2018073
1.2018075
1.2018075
1.2018075
1.2018075
1.2018075
1.2018075
1.2018075
1.2018075
0.88103761
0.91447509
0.94776853
0.98082689
1.0132903
1.0445581
1.0738702
1.1004453
1.1236467
1.1431172
1.1588321
1.1710616
1.1802713
1.1870104
1.1918205
1.1951806
1.1974834
1.1990342
1.200061
1.2007294
1.2011564
1.2014238
1.2015874
1.2016848
1.2017411
1.2017726
1.2017895
1.2017982
1.2018025
1.2018045
1.2018054
1.2018058
1.201806
1.201806
1.201806
1.201806
1.201806
1.201806
1.201806
1.201806
0.88055896
0.91383937
0.94696993
0.97986926
1.0121921
1.0433553
1.0726151
1.0991998
1.1224715
1.1420607
1.1579239
1.1703113
1.1796723
1.1865458
1.1914688
1.1949197
1.1972932
1.1988978
1.1999648
1.2006626
1.2011108
1.2013932
1.2015672
1.2016717
1.2017326
1.201767
1.2017858
1.2017955
1.2018004
1.2018027
1.2018038
1.2018042
1.2018044
1.2018045
1.2018045
1.2018045
1.2018045
1.2018045
1.2018045
1.2018045
0.88009749
0.91322662
0.9462002
0.97894602
1.0111326
1.0421936
1.0714008
1.097992
1.1213287
1.1410304
1.1570356
1.1695752
1.179083
1.1860874
1.1911208
1.1946608
1.1971041
1.1987617
1.1998684
1.2005953
1.2010646
1.201362
1.2015464
1.2016581
1.2017238
1.2017613
1.2017819
1.2017928
1.2017983
1.2018009
1.2018022
1.2018027
1.2018029
1.201803
1.201803
1.201803
1.201803
1.201803
1.201803
1.201803
0.87965212
0.91263535
0.94545751
0.978055
1.0101094
1.0410704
1.0702247
1.0968198
1.1202168
1.1400251
1.1561663
1.1688528
1.178503
1.1856351
1.1907766
1.1944041
1.1969159
1.1986259
1.1997718
1.2005276
1.2010179
1.2013303
1.2015252
1.2016441
1.2017146
1.2017552
1.2017778
1.2017899
1.2017961
1.2017991
1.2018005
1.2018011
1.2018014
1.2018015
1.2018015
1.2018015
1.2018015
1.2018015
1.2018015
1.2018015
0.87922185
0.91206425
0.94474019
0.97719422
1.0091203
1.0399834
1.0690849
1.0956813
1.1191343
1.1390437
1.1553153
1.1681437
1.1779322
1.1851888
1.190436
1.1941494
1.1967288
1.1984905
1.1996752
1.2004596
1.2009708
1.2012981
1.2015036
1.2016297
1.2017052
1.201749
1.2017736
1.2017869
1.2017938
1.2017972
1.2017988
1.2017995
1.2017998
1.2018
1.2018
1.2018
1.2018
1.2018
1.2018
1.2018
0.87880578
0.9115121
0.94404672
0.97636189
1.0081634
1.0389307
1.0679792
1.0945747
1.1180796
1.1380852
1.1544819
1.1674474
1.1773702
1.1847483
1.1900991
1.1938969
1.1965427
1.1983555
1.1995786
1.2003914
1.2009232
1.2012654
1.2014815
1.201615
1.2016954
1.2017425
1.2017692
1.2017838
1.2017914
1.2017953
1.2017971
1.2017979
1.2017983
1.2017984
1.2017985
1.2017985
1.2017985
1.2017985
1.2017985
1.2017985
0.87840308
0.9109778
0.9433757
0.97555635
1.0072368
1.0379103
1.0669059
1.0934985
1.1170516
1.1371485
1.1536654
1.1667634
1.1768167
1.1843135
1.1897657
1.1936465
1.1963578
1.198221
1.199482
1.200323
1.2008754
1.2012324
1.201459
1.2015999
1.2016853
1.2017358
1.2017646
1.2017805
1.201789
1.2017933
1.2017954
1.2017963
1.2017967
1.2017969
1.201797
1.201797
1.201797
1.201797
1.201797
1.201797
0.87801299
0.91046032
0.94272584
0.97477608
1.0063387
1.0369204
1.0658633
1.0924512
1.1160489
1.1362327
1.1528651
1.1660913
1.1762716
1.1838842
1.1894359
1.1933982
1.1961741
1.198087
1.1993856
1.2002544
1.2008273
1.2011991
1.2014362
1.2015844
1.201675
1.2017288
1.2017599
1.2017772
1.2017865
1.2017913
1.2017936
1.2017947
1.2017952
1.2017954
1.2017955
1.2017955
1.2017955
1.2017955
1.2017955
1.2017955
0.87763481
0.90995872
0.94209597
0.97401968
1.0054677
1.0359595
1.0648498
1.0914313
1.1150704
1.1353369
1.1520803
1.1654307
1.1757345
1.1834603
1.1891095
1.1931521
1.1959915
1.1979536
1.1992893
1.2001858
1.2007789
1.2011654
1.2014131
1.2015687
1.2016644
1.2017217
1.201755
1.2017738
1.2017839
1.2017892
1.2017918
1.2017931
1.2017936
1.2017939
1.201794
1.201794
1.201794
1.201794
1.201794
1.201794
0.87726788
0.90947214
0.94148501
0.97328587
1.0046224
1.035026
1.063864
1.0904376
1.1141152
1.1344604
1.1513106
1.1647812
1.1752053
1.1830417
1.1887866
1.1929079
1.1958101
1.1978207
1.1991932
1.2001171
1.2007304
1.2011315
1.2013897
1.2015527
1.2016535
1.2017143
1.20175
1.2017702
1.2017813
1.2017871
1.20179
1.2017914
1.2017921
1.2017923
1.2017925
1.2017925
1.2017925
1.2017925
1.2017925
1.2017925
0.87691163
0.90899979
0.94089194
0.97257344
1.0038012
1.0341186
1.0629045
1.0894688
1.113182
1.1336023
1.1505554
1.1641425
1.1746837
1.1826283
1.1884669
1.1926659
1.1956299
1.1976884
1.1990973
1.2000484
1.2006817
1.2010974
1.201366
1.2015365
1.2016425
1.2017068
1.2017448
1.2017665
1.2017785
1.2017849
1.2017882
1.2017897
1.2017905
1.2017908
1.2017909
1.201791
1.201791
1.201791
1.201791
1.201791
0.87656548
0.90854093
0.94031585
0.97188131
1.0030032
1.0332359
1.06197
1.0885238
1.1122701
1.132762
1.1498141
1.1635142
1.1741694
1.1822198
1.1881506
1.1924259
1.1954509
1.1975568
1.1990017
1.1999797
1.2006329
1.2010631
1.2013421
1.20152
1.2016312
1.2016991
1.2017395
1.2017628
1.2017758
1.2017827
1.2017863
1.2017881
1.2017889
1.2017893
1.2017894
1.2017895
1.2017895
1.2017895
1.2017895
1.2017895
0.87622894
0.90809487
0.93975586
0.97120844
1.002227
1.0323768
1.0610595
1.0876016
1.1113785
1.1319387
1.1490863
1.1628959
1.1736623
1.1818163
1.1878374
1.1921879
1.1952731
1.1974258
1.1989064
1.1999111
1.200584
1.2010285
1.201318
1.2015033
1.2016197
1.2016912
1.201734
1.2017589
1.2017729
1.2017805
1.2017844
1.2017864
1.2017873
1.2017877
1.2017879
1.201788
1.201788
1.201788
1.201788
1.201788
0.87590152
0.90766097
0.93921119
0.9705539
1.0014716
1.0315402
1.0601718
1.0867012
1.1105064
1.1311317
1.1483715
1.1622873
1.1731622
1.1814175
1.1875274
1.1919519
1.1950965
1.1972955
1.1988114
1.1998425
1.200535
1.2009939
1.2012937
1.2014864
1.201608
1.2016832
1.2017284
1.2017549
1.2017699
1.2017781
1.2017825
1.2017846
1.2017857
1.2017862
1.2017864
1.2017865
1.2017865
1.2017865
1.2017865
1.2017865
0.87558279
0.90723866
0.93868108
0.96991678
1.0007361
1.0307249
1.0593058
1.0858216
1.1096531
1.1303406
1.1476692
1.1616882
1.1726689
1.1810234
1.1872205
1.1917178
1.194921
1.1971658
1.1987167
1.1997741
1.2004859
1.2009591
1.2012692
1.2014693
1.2015962
1.2016749
1.2017227
1.2017508
1.2017669
1.2017758
1.2017805
1.2017829
1.2017841
1.2017846
1.2017848
1.2017849
1.201785
1.201785
1.201785
1.201785
0.87527233
0.90682737
0.93816485
0.96929627
1.0000195
1.02993
1.0584607
1.084962
1.1088177
1.1295647
1.146979
1.1610983
1.1721821
1.1806338
1.1869165
1.1914856
1.1947467
1.1970368
1.1986223
1.1997057
1.2004369
1.2009242
1.2012445
1.201452
1.2015841
1.2016666
1.2017168
1.2017467
1.2017638
1.2017734
1.2017785
1.2017811
1.2017824
1.201783
1.2017833
1.2017834
1.2017835
1.2017835
1.2017835
1.2017835
0.87496977
0.90642659
0.93766185
0.96869161
0.99932094
1.0291547
1.0576355
1.0841216
1.1079996
1.1288034
1.1463005
1.1605172
1.1717017
1.1802487
1.1866156
1.1912554
1.1945736
1.1969085
1.1985283
1.1996375
1.2003878
1.2008891
1.2012197
1.2014346
1.2015719
1.2016581
1.2017108
1.2017424
1.2017607
1.2017709
1.2017765
1.2017793
1.2017808
1.2017815
1.2017818
1.2017819
1.201782
1.201782
1.201782
1.201782
0.87467473
0.90603585
0.93717148
0.96810207
0.99863964
1.028398
1.0568294
1.0832995
1.1071981
1.1280563
1.1456334
1.1599448
1.1712276
1.1798678
1.1863175
1.191027
1.1944016
1.1967808
1.1984346
1.1995694
1.2003388
1.2008541
1.2011948
1.201417
1.2015596
1.2016494
1.2017048
1.201738
1.2017574
1.2017684
1.2017744
1.2017775
1.2017791
1.2017799
1.2017802
1.2017804
1.2017805
1.2017805
1.2017805
1.2017805
0.87438689
0.90565469
0.93669317
0.96752698
0.99797482
1.0276592
1.0560415
1.082495
1.1064126
1.1273228
1.1449773
1.1593807
1.1707596
1.1794913
1.1860222
1.1908005
1.1942308
1.1966538
1.1983412
1.1995015
1.2002897
1.2008189
1.2011698
1.2013993
1.2015472
1.2016406
1.2016985
1.2017336
1.2017541
1.2017658
1.2017723
1.2017757
1.2017774
1.2017783
1.2017787
1.2017789
1.2017789
1.201779
1.201779
1.201779
0.87410593
0.90528271
0.9362264
0.9669657
0.99732577
1.0269375
1.0552713
1.0817076
1.1056426
1.1266025
1.1443317
1.1588247
1.1702974
1.1791188
1.1857298
1.1905757
1.1940611
1.1965275
1.1982483
1.1994337
1.2002407
1.2007837
1.2011447
1.2013815
1.2015346
1.2016317
1.2016922
1.201729
1.2017508
1.2017632
1.2017702
1.2017739
1.2017758
1.2017767
1.2017771
1.2017773
1.2017774
1.2017775
1.2017775
1.2017775
0.87383156
0.90491949
0.93577066
0.96641766
0.99669184
1.0262322
1.0545178
1.0809364
1.1048874
1.1258949
1.1436965
1.1582766
1.169841
1.1787503
1.18544
1.1903527
1.1938925
1.1964019
1.1981557
1.1993661
1.2001918
1.2007485
1.2011195
1.2013636
1.2015218
1.2016227
1.2016858
1.2017244
1.2017473
1.2017606
1.201768
1.201772
1.2017741
1.2017751
1.2017756
1.2017758
1.2017759
1.201776
1.201776
1.201776
0.8735635
0.90456467
0.9353255
0.96588229
0.99607239
1.0255427
1.0537806
1.080181
1.1041465
1.1251997
1.1430712
1.1577361
1.1693902
1.1783858
1.1851529
1.1901315
1.1937251
1.1962769
1.1980635
1.1992987
1.2001429
1.2007133
1.2010943
1.2013456
1.201509
1.2016136
1.2016793
1.2017197
1.2017438
1.2017579
1.2017658
1.2017701
1.2017723
1.2017735
1.201774
1.2017743
1.2017744
1.2017745
1.2017745
1.2017745
0.87330149
0.90421791
0.93489047
0.96535908
0.99546683
1.0248682
1.0530589
1.0794407
1.1034195
1.1245164
1.1424557
1.1572031
1.1689449
1.1780252
1.1848684
1.189912
1.1935587
1.1961526
1.1979717
1.1992315
1.200094
1.200678
1.2010689
1.2013275
1.2014961
1.2016044
1.2016727
1.2017149
1.2017402
1.2017551
1.2017635
1.2017682
1.2017706
1.2017719
1.2017725
1.2017728
1.2017729
1.2017729
1.201773
1.201773
0.87304528
0.90387888
0.93446517
0.96484752
0.99487462
1.0242083
1.0523522
1.0787149
1.1027059
1.1238446
1.1418495
1.1566773
1.1685049
1.1776682
1.1845865
1.1896941
1.1933933
1.1960289
1.1978802
1.1991645
1.2000453
1.2006427
1.2010436
1.2013093
1.2014831
1.2015951
1.201666
1.20171
1.2017366
1.2017523
1.2017613
1.2017662
1.2017689
1.2017702
1.2017709
1.2017712
1.2017714
1.2017714
1.2017715
1.2017715
0.87279464
0.90354727
0.9340492
0.96434716
0.99429521
1.0235623
1.0516599
1.0780033
1.1020051
1.1231839
1.1412524
1.1561586
1.1680701
1.177315
1.1843071
1.1894779
1.1932291
1.1959058
1.1977891
1.1990976
1.1999966
1.2006075
1.2010181
1.201291
1.20147
1.2015857
1.2016592
1.201705
1.2017329
1.2017494
1.2017589
1.2017642
1.2017671
1.2017686
1.2017693
1.2017697
1.2017698
1.2017699
1.2017699
1.2017699
0.87254935
0.90322278
0.93364219
0.96385756
0.99372812
1.0229298
1.0509815
1.0773051
1.1013169
1.1225341
1.1406641
1.1556468
1.1676404
1.1769653
1.1840301
1.1892634
1.1930658
1.1957835
1.1976984
1.199031
1.199948
1.2005722
1.2009927
1.2012727
1.2014568
1.2015762
1.2016524
1.2017
1.2017291
1.2017465
1.2017566
1.2017622
1.2017653
1.2017669
1.2017677
1.2017681
1.2017683
1.2017684
1.2017684
1.2017684
0.87230922
0.90290514
0.93324381
0.9633783
0.99317289
1.0223101
1.0503165
1.0766201
1.1006407
1.1218947
1.1400845
1.1551416
1.1672156
1.1766192
1.1837555
1.1890504
1.1929036
1.1956617
1.1976081
1.1989646
1.1998995
1.200537
1.2009672
1.2012543
1.2014435
1.2015666
1.2016454
1.2016949
1.2017253
1.2017436
1.2017542
1.2017602
1.2017635
1.2017652
1.2017661
1.2017666
1.2017668
1.2017669
1.2017669
1.2017669
0.87207404
0.9025941
0.93285373
0.96290899
0.99262906
1.021703
1.0496644
1.0759477
1.0999761
1.1212656
1.1395132
1.1546429
1.1667956
1.1762765
1.1834833
1.1888389
1.1927424
1.1955406
1.1975181
1.1988984
1.199851
1.2005018
1.2009416
1.2012358
1.2014302
1.201557
1.2016384
1.2016898
1.2017215
1.2017406
1.2017518
1.2017582
1.2017617
1.2017636
1.2017645
1.201765
1.2017653
1.2017654
1.2017654
1.2017654
0.87184363
0.9022894
0.93247163
0.96244927
0.99209622
1.0211078
1.0490247
1.0752875
1.0993229
1.1206463
1.1389501
1.1541506
1.1663803
1.1759371
1.1832134
1.1886291
1.1925822
1.1954201
1.1974285
1.1988323
1.1998027
1.2004666
1.2009161
1.2012173
1.2014168
1.2015473
1.2016313
1.2016845
1.2017175
1.2017375
1.2017493
1.2017561
1.2017599
1.2017619
1.2017629
1.2017635
1.2017637
1.2017638
1.2017639
1.2017639
0.87161781
0.90199082
0.93209722
0.96199879
0.99157397
1.0205242
1.0483971
1.0746392
1.0986807
1.1200365
1.1383948
1.1536644
1.1659697
1.1756011
1.1829457
1.1884207
1.1924229
1.1953002
1.1973393
1.1987665
1.1997545
1.2004314
1.2008905
1.2011987
1.2014034
1.2015375
1.2016242
1.2016792
1.2017136
1.2017344
1.2017468
1.201754
1.201758
1.2017602
1.2017613
1.2017619
1.2017622
1.2017623
1.2017624
1.2017624
0.87139642
0.90169813
0.93173023
0.96155721
0.99106193
1.0199518
1.0477811
1.0740023
1.098049
1.1194361
1.1378472
1.1531843
1.1655635
1.1752682
1.1826803
1.1882138
1.1922646
1.1951809
1.1972504
1.1987009
1.1997064
1.2003963
1.200865
1.2011802
1.2013899
1.2015277
1.201617
1.2016739
1.2017095
1.2017313
1.2017443
1.2017519
1.2017561
1.2017585
1.2017597
1.2017603
1.2017606
1.2017608
1.2017608
1.2017609
0.87117931
0.90141113
0.93137039
0.96112421
0.99055976
1.0193902
1.0471763
1.0733764
1.0974277
1.1188447
1.1373071
1.15271
1.1651618
1.1749385
1.182417
1.1880083
1.1921073
1.1950622
1.1971619
1.1986355
1.1996584
1.2003612
1.2008394
1.2011615
1.2013763
1.2015178
1.2016097
1.2016685
1.2017054
1.2017281
1.2017418
1.2017497
1.2017542
1.2017567
1.2017581
1.2017587
1.2017591
1.2017592
1.2017593
1.2017593
0.87096632
0.90112961
0.93101745
0.9606995
0.99006709
1.018839
1.0465824
1.0727613
1.0968163
1.118262
1.1367743
1.1522415
1.1647643
1.1746119
1.1821559
1.1878043
1.1919509
1.194944
1.1970737
1.1985703
1.1996104
1.2003261
1.2008138
1.2011429
1.2013627
1.2015078
1.2016024
1.201663
1.2017013
1.2017249
1.2017392
1.2017475
1.2017523
1.201755
1.2017564
1.2017572
1.2017575
1.2017577
1.2017578
1.2017578
0.87075731
0.90085339
0.93067117
0.96028279
0.98958363
1.0182979
1.045999
1.0721565
1.0962147
1.1176879
1.1362486
1.1517786
1.164371
1.1742883
1.1818968
1.1876017
1.1917954
1.1948265
1.1969859
1.1985053
1.1995626
1.2002911
1.2007882
1.2011242
1.201349
1.2014978
1.201595
1.2016575
1.2016971
1.2017217
1.2017365
1.2017453
1.2017504
1.2017532
1.2017548
1.2017556
1.201756
1.2017562
1.2017563
1.2017563
0.87055215
0.90058228
0.93033133
0.95987382
0.98910904
1.0177666
1.0454258
1.0715618
1.0956224
1.1171221
1.1357298
1.1513211
1.1639819
1.1739676
1.1816399
1.1874005
1.1916408
1.1947095
1.1968985
1.1984405
1.1995149
1.2002561
1.2007626
1.2011055
1.2013353
1.2014877
1.2015875
1.201652
1.2016929
1.2017184
1.2017339
1.2017431
1.2017484
1.2017515
1.2017531
1.201754
1.2017544
1.2017546
1.2017547
1.2017547
0.87035071
0.90031612
0.92999771
0.95947232
0.98864305
1.0172447
1.0448624
1.0709769
1.0950392
1.1165643
1.1352177
1.150869
1.1635967
1.1736499
1.1813849
1.1872006
1.1914871
1.1945931
1.1968114
1.1983759
1.1994673
1.2002212
1.200737
1.2010868
1.2013216
1.2014776
1.20158
1.2016464
1.2016886
1.201715
1.2017312
1.2017408
1.2017465
1.2017497
1.2017514
1.2017524
1.2017528
1.2017531
1.2017532
1.2017532
0.87015287
0.90005474
0.92967011
0.95907805
0.98818537
1.0167319
1.0443085
1.0704014
1.094465
1.1160145
1.1347122
1.150422
1.1632155
1.173335
1.1811319
1.187002
1.1913342
1.1944773
1.1967246
1.1983115
1.1994198
1.2001863
1.2007114
1.201068
1.2013078
1.2014675
1.2015725
1.2016407
1.2016843
1.2017116
1.2017285
1.2017386
1.2017445
1.2017479
1.2017497
1.2017508
1.2017513
1.2017515
1.2017516
1.2017517
0.8699585
0.89979799
0.92934833
0.95869078
0.98773574
1.0162279
1.043764
1.0698351
1.0938993
1.1154722
1.1342131
1.1499802
1.1628381
1.1730229
1.1808808
1.1868048
1.1911823
1.194362
1.1966382
1.1982473
1.1993724
1.2001514
1.2006859
1.2010492
1.201294
1.2014573
1.2015649
1.201635
1.2016799
1.2017082
1.2017257
1.2017363
1.2017425
1.2017461
1.201748
1.2017491
1.2017497
1.20175
1.2017501
1.2017501
0.86976751
0.89954572
0.92903219
0.95831028
0.9872939
1.0157326
1.0432284
1.0692778
1.0933421
1.1149374
1.1337203
1.1495433
1.1624645
1.1727135
1.1806317
1.1866089
1.1910311
1.1942472
1.1965521
1.1981833
1.1993252
1.2001167
1.2006603
1.2010305
1.2012802
1.201447
1.2015573
1.2016292
1.2016755
1.2017048
1.2017229
1.2017339
1.2017404
1.2017442
1.2017463
1.2017475
1.2017481
1.2017484
1.2017485
1.2017486
0.86957978
0.89929779
0.9287215
0.95793634
0.98685961
1.0152455
1.0427015
1.0687291
1.092793
1.1144099
1.1332335
1.1491113
1.1620946
1.1724068
1.1803844
1.1864142
1.1908808
1.194133
1.1964664
1.1981195
1.199278
1.2000819
1.2006348
1.2010117
1.2012663
1.2014368
1.2015496
1.2016234
1.2016711
1.2017013
1.2017201
1.2017316
1.2017384
1.2017424
1.2017446
1.2017459
1.2017465
1.2017469
1.201747
1.201747
0.86939522
0.89905406
0.9284161
0.95756875
0.98643264
1.0147665
1.042183
1.0681888
1.0922518
1.1138894
1.1327527
1.148684
1.1617283
1.1721027
1.180139
1.1862208
1.1907313