/*--------------------------------*- C++ -*----------------------------------*\
| =========                 |                                                 |
| \\      /  F ield         | OpenFOAM: The Open Source CFD Toolbox           |
|  \\    /   O peration     | Version:  3.0.1                                 |
|   \\  /    A nd           | Web:      www.OpenFOAM.org                      |
|    \\/     M anipulation  |                                                 |
\*---------------------------------------------------------------------------*/
FoamFile
{
    version     2.0;
    format      ascii;
    class       volScalarField;
    location    "2249";
    object      T;
}
// * * * * * * * * * * * * * * * * * * * * * * * * * * * * * * * * * * * * * //

dimensions      [0 0 0 1 0 0 0];

internalField   nonuniform List<scalar> 
4000
(
350.93265
328.60353
313.42309
304.17983
298.98455
296.24341
294.87251
294.21883
293.92062
293.79017
293.7354
293.71331
293.70476
293.70157
293.70043
293.70004
293.69991
293.69987
293.69986
293.69986
293.69986
293.69986
293.69986
293.69986
293.69986
293.69986
293.69986
293.69986
293.69986
293.69986
293.69986
293.69986
293.69986
293.69986
293.69986
293.69986
293.69986
293.69986
293.69986
293.69987
366.80827
345.13564
327.30526
314.11415
305.30366
299.91902
296.86356
295.23457
294.41185
294.01623
293.83458
293.75482
293.7213
293.70782
293.70263
293.70072
293.70004
293.69982
293.69974
293.69972
293.69971
293.69971
293.69971
293.69971
293.69971
293.69971
293.69971
293.69971
293.69971
293.69971
293.69971
293.69971
293.69971
293.69971
293.69971
293.69971
293.69971
293.69971
293.69972
293.69972
374.02461
353.57145
335.79089
321.4557
310.87065
303.70417
299.21744
296.59339
295.14735
294.3919
294.01634
293.8383
293.75773
293.72291
293.70853
293.70286
293.70072
293.69995
293.69969
293.6996
293.69957
293.69957
293.69956
293.69956
293.69956
293.69956
293.69956
293.69956
293.69956
293.69956
293.69956
293.69956
293.69956
293.69956
293.69956
293.69957
293.69957
293.69957
293.69957
293.69957
378.43506
358.85252
341.45545
326.83402
315.40079
307.12963
301.57759
298.09522
296.03906
294.88942
294.27836
293.9689
293.81942
293.75053
293.72024
293.70752
293.70243
293.70049
293.69978
293.69954
293.69945
293.69943
293.69942
293.69942
293.69942
293.69942
293.69942
293.69942
293.69942
293.69942
293.69942
293.69942
293.69942
293.69942
293.69942
293.69942
293.69942
293.69942
293.69942
293.69943
381.53365
362.59578
345.58182
330.9429
319.08401
310.1168
303.79169
299.61161
297.00766
295.47036
294.60697
294.14466
293.90844
293.79324
293.73963
293.71584
293.70577
293.7017
293.70014
293.69957
293.69937
293.6993
293.69928
293.69927
293.69927
293.69927
293.69927
293.69927
293.69927
293.69927
293.69927
293.69927
293.69927
293.69927
293.69927
293.69927
293.69927
293.69928
293.69928
293.69928
383.88437
365.44912
348.77365
334.20988
322.12938
312.70626
305.81381
301.07482
297.99689
296.09917
294.98432
294.35895
294.02372
293.85201
293.768
293.72879
293.71132
293.70391
293.70092
293.69977
293.69934
293.6992
293.69915
293.69913
293.69913
293.69912
293.69912
293.69912
293.69912
293.69912
293.69912
293.69912
293.69913
293.69913
293.69913
293.69913
293.69913
293.69913
293.69913
293.69913
385.75851
367.73084
351.34941
336.89332
324.69753
314.96382
307.64529
302.4562
298.97287
296.74897
295.39363
294.60339
294.16222
293.92646
293.80595
293.74709
293.71966
293.70746
293.7023
293.70022
293.69942
293.69913
293.69903
293.69899
293.69898
293.69898
293.69898
293.69898
293.69898
293.69898
293.69898
293.69898
293.69898
293.69898
293.69898
293.69898
293.69898
293.69898
293.69898
293.69899
387.30517
369.61784
353.49298
339.15422
326.90245
316.95016
309.30377
303.74769
299.9174
297.40154
295.82124
294.86969
294.31993
294.01524
293.8534
293.77114
293.73118
293.71266
293.70447
293.70102
293.69964
293.69912
293.69893
293.69886
293.69884
293.69883
293.69883
293.69883
293.69883
293.69883
293.69883
293.69883
293.69883
293.69883
293.69883
293.69883
293.69884
293.69884
293.69884
293.69884
388.61449
371.21781
355.31885
341.0977
328.82492
318.71488
310.8106
304.95099
300.82197
298.04542
296.257
295.1507
294.4927
294.11645
293.90983
293.80102
293.74617
293.71975
293.70761
293.70229
293.70007
293.69919
293.69886
293.69874
293.6987
293.69869
293.69869
293.69869
293.69869
293.69869
293.69869
293.69869
293.69869
293.69869
293.69869
293.69869
293.69869
293.69869
293.69869
293.69869
389.74478
372.60072
356.9026
342.79542
330.52303
320.29704
312.18604
306.07192
301.68363
298.67385
296.69374
295.44065
294.67671
294.22801
293.97434
293.83653
293.76473
293.72893
293.71187
293.70412
293.70077
293.69938
293.69884
293.69864
293.69857
293.69855
293.69854
293.69854
293.69854
293.69854
293.69854
293.69854
293.69854
293.69854
293.69854
293.69854
293.69854
293.69854
293.69855
293.69855
390.73576
373.81439
358.29644
344.29805
332.03953
321.72725
313.44787
307.11768
302.50248
299.28319
297.12666
295.73512
294.86867
294.34787
294.04591
293.87731
293.78684
293.74029
293.71738
293.70661
293.70178
293.69973
293.69889
293.69857
293.69845
293.69841
293.6984
293.69839
293.69839
293.69839
293.69839
293.69839
293.69839
293.69839
293.6984
293.6984
293.6984
293.6984
293.6984
293.6984
391.61557
374.89282
359.53783
345.64254
333.40654
323.02958
314.61119
308.09552
303.28015
299.87174
297.55261
296.03085
295.06589
294.47416
294.12345
293.92285
293.81235
293.75388
293.72422
293.70984
293.70318
293.70025
293.69902
293.69853
293.69835
293.69828
293.69826
293.69825
293.69825
293.69825
293.69825
293.69825
293.69825
293.69825
293.69825
293.69825
293.69825
293.69825
293.69825
293.69825
392.40487
375.86097
360.65442
346.85659
334.64866
324.22314
315.68871
309.01227
304.01898
300.43902
297.96966
296.32547
295.26622
294.60527
294.20593
293.97261
293.84106
293.76965
293.73244
293.71387
293.70502
293.70099
293.69925
293.69854
293.69826
293.69815
293.69812
293.69811
293.6981
293.6981
293.6981
293.6981
293.6981
293.6981
293.6981
293.6981
293.69811
293.69811
293.69811
293.69811
393.11917
376.73769
361.66721
347.96143
335.78511
325.3233
316.69106
309.87408
304.72159
300.98525
298.3767
296.61732
295.468
294.73983
294.29239
294.02602
293.87268
293.78753
293.74206
293.71876
293.70733
293.70199
293.69961
293.6986
293.69819
293.69804
293.69798
293.69796
293.69796
293.69796
293.69796
293.69796
293.69796
293.69796
293.69796
293.69796
293.69796
293.69796
293.69796
293.69796
393.77045
377.53747
362.59244
348.97365
336.83116
326.34251
317.62716
310.68642
305.39063
301.51107
298.77316
296.90527
295.66995
294.87672
294.38199
294.08252
293.90692
293.8074
293.75304
293.72451
293.71016
293.70327
293.70011
293.69873
293.69816
293.69793
293.69785
293.69782
293.69781
293.69781
293.69781
293.69781
293.69781
293.69781
293.69781
293.69781
293.69781
293.69781
293.69781
293.69782
394.36811
378.27175
363.44292
349.90643
337.79906
327.29099
318.50455
311.45411
306.02862
302.01735
299.15884
297.18854
295.87113
295.01502
294.47397
294.14161
293.94347
293.8291
293.76535
293.73115
293.71353
293.70485
293.70077
293.69894
293.69816
293.69785
293.69773
293.69768
293.69767
293.69766
293.69766
293.69766
293.69766
293.69766
293.69766
293.69767
293.69767
293.69767
293.69767
293.69767
394.91963
378.94964
364.22895
350.77044
338.69885
328.17722
319.32962
312.18138
306.63792
302.50505
299.53378
297.46667
296.07083
295.15401
294.56773
294.20282
293.98204
293.85247
293.77892
293.73865
293.71746
293.70677
293.70161
293.69924
293.69821
293.69778
293.69761
293.69755
293.69753
293.69752
293.69752
293.69752
293.69752
293.69752
293.69752
293.69752
293.69752
293.69752
293.69752
293.69752
395.4311
379.57854
364.95887
351.57436
339.53879
329.0083
320.10781
312.87193
307.22072
302.97518
299.89819
297.73938
296.26852
295.2931
294.66274
294.26573
294.02234
293.87735
293.79367
293.747
293.72194
293.70902
293.70265
293.69965
293.69831
293.69774
293.6975
293.69742
293.69739
293.69738
293.69737
293.69737
293.69737
293.69737
293.69737
293.69737
293.69737
293.69738
293.69738
293.69738
395.9075
380.16451
365.63957
352.32539
340.32577
329.79021
320.84381
313.52904
307.77901
303.42873
300.25236
298.00651
296.46384
295.43185
294.75855
294.33
294.0641
293.90357
293.8095
293.75616
293.72698
293.71163
293.7039
293.70017
293.69846
293.69772
293.69741
293.69729
293.69725
293.69723
293.69723
293.69723
293.69723
293.69723
293.69723
293.69723
293.69723
293.69723
293.69723
293.69723
396.35297
380.71261
366.27677
353.02955
341.06558
330.52803
321.54165
314.15557
308.31459
303.86665
300.59665
298.26804
296.65654
295.56991
294.85482
294.39529
294.1071
293.93098
293.82634
293.76609
293.73256
293.7146
293.70536
293.70082
293.69869
293.69773
293.69733
293.69717
293.69711
293.69709
293.69708
293.69708
293.69708
293.69708
293.69708
293.69708
293.69708
293.69708
293.69708
293.69708
396.77097
381.22706
366.87527
353.69191
341.76317
331.22614
322.20484
314.75406
308.82911
304.28987
300.93144
298.52399
296.84644
295.707
294.95124
294.46135
294.15111
293.95941
293.84409
293.77674
293.73867
293.71792
293.70705
293.70159
293.69898
293.69779
293.69727
293.69706
293.69698
293.69695
293.69694
293.69693
293.69693
293.69693
293.69693
293.69694
293.69694
293.69694
293.69694
293.69694
397.16443
381.71143
367.43915
354.3168
342.42274
331.88831
322.83644
315.32677
309.32404
304.69923
301.25712
298.77447
297.03343
295.84293
295.04759
294.52795
294.19594
293.98873
293.86265
293.78806
293.74528
293.72159
293.70896
293.70251
293.69935
293.69788
293.69723
293.69696
293.69685
293.69681
293.69679
293.69679
293.69679
293.69679
293.69679
293.69679
293.69679
293.69679
293.69679
293.69679
397.53586
382.1688
367.9719
354.9079
343.04792
332.51779
323.43913
315.87569
309.80074
305.09554
301.5741
299.01957
297.21747
295.97754
295.14367
294.5949
294.24144
294.01881
293.88194
293.8
293.75238
293.72561
293.71111
293.70356
293.6998
293.69802
293.69721
293.69686
293.69672
293.69667
293.69665
293.69664
293.69664
293.69664
293.69664
293.69664
293.69664
293.69665
293.69665
293.69665
397.88739
382.60177
368.47651
355.46841
343.64187
333.11745
324.01528
316.40261
310.26043
305.47956
301.88275
299.25945
297.39853
296.11072
295.23933
294.66204
294.28745
294.04954
293.90187
293.8125
293.75993
293.72997
293.71348
293.70476
293.70034
293.6982
293.69721
293.69678
293.6966
293.69653
293.69651
293.6965
293.6965
293.6965
293.6965
293.6965
293.6965
293.6965
293.6965
293.6965
398.2209
383.01262
368.95559
356.00111
344.20734
333.68979
324.56699
316.90913
310.70422
305.85196
302.18346
299.49426
297.57662
296.24239
295.33444
294.72923
294.33385
294.0808
293.92236
293.82552
293.7679
293.73464
293.71609
293.70611
293.70097
293.69844
293.69725
293.69671
293.69649
293.6964
293.69637
293.69635
293.69635
293.69635
293.69635
293.69635
293.69635
293.69635
293.69635
293.69635
398.538
383.40333
369.41139
356.50842
344.74673
334.23702
325.09611
317.39669
311.13312
306.2134
302.47658
299.72414
297.75177
296.3725
295.42892
294.79636
294.38052
294.1125
293.94334
293.839
293.77627
293.73963
293.71891
293.70761
293.70169
293.69873
293.69731
293.69666
293.69638
293.69627
293.69623
293.69621
293.69621
293.6962
293.6962
293.69621
293.69621
293.69621
293.69621
293.69621
398.84009
383.77563
369.8459
356.99247
345.26217
334.76112
325.60431
317.86658
311.54805
306.56448
302.76247
299.94928
297.92402
296.50101
295.52268
294.86335
294.42738
294.14457
293.96475
293.85289
293.78499
293.7449
293.72195
293.70926
293.70251
293.69907
293.6974
293.69662
293.69628
293.69614
293.69609
293.69607
293.69606
293.69606
293.69606
293.69606
293.69606
293.69606
293.69606
293.69606
399.12843
384.13104
370.26088
357.45515
345.75554
335.26381
326.09308
318.31996
311.94986
306.90575
303.04145
300.16983
298.09342
296.62792
295.61567
294.9301
294.47435
294.17692
293.98652
293.86716
293.79405
293.75044
293.72519
293.71105
293.70343
293.69948
293.69753
293.69661
293.69619
293.69602
293.69595
293.69592
293.69592
293.69591
293.69591
293.69591
293.69591
293.69592
293.69592
293.69592
399.40412
384.47091
370.65786
357.89811
346.22853
335.74667
326.56376
318.75791
312.3393
307.23772
303.31382
300.38596
298.26003
296.75321
295.70785
294.99657
294.52135
294.2095
294.00861
293.88175
293.80342
293.75624
293.72863
293.71299
293.70444
293.69995
293.69769
293.69661
293.69612
293.6959
293.69582
293.69578
293.69577
293.69577
293.69577
293.69577
293.69577
293.69577
293.69577
293.69577
399.66814
384.79644
371.03823
358.32285
346.68262
336.2111
327.01757
319.18138
312.7171
307.56086
303.57989
300.59782
298.42393
296.87689
295.79918
295.0627
294.56834
294.24224
294.03095
293.89664
293.81306
293.76228
293.73227
293.71506
293.70554
293.70047
293.69789
293.69663
293.69605
293.69579
293.69568
293.69564
293.69563
293.69562
293.69562
293.69562
293.69562
293.69562
293.69562
293.69562
399.92135
385.1087
371.40321
358.73069
347.11916
336.65835
327.45559
319.59125
313.08391
307.87563
303.83992
300.80556
298.58517
296.99897
295.88964
295.12845
294.61526
294.2751
294.0535
293.91177
293.82295
293.76854
293.73608
293.71727
293.70674
293.70106
293.69813
293.69667
293.69599
293.69568
293.69555
293.6955
293.69548
293.69548
293.69548
293.69548
293.69548
293.69548
293.69548
293.69548
400.16455
385.40865
371.75391
359.12283
347.53936
337.08957
327.87883
319.98832
313.4403
308.18244
304.09419
301.00934
298.74382
297.11947
295.97922
295.19379
294.66206
294.30804
294.07624
293.92713
293.83306
293.775
293.74006
293.71961
293.70804
293.70172
293.6984
293.69674
293.69594
293.69558
293.69543
293.69536
293.69534
293.69533
293.69533
293.69533
293.69533
293.69533
293.69533
293.69533
400.39842
385.69713
372.09131
359.50033
347.94431
337.50578
328.28819
320.37333
313.78685
308.48166
304.34292
301.20929
298.89997
297.23842
296.06792
295.25868
294.70873
294.34101
294.09911
293.94267
293.84337
293.78165
293.7442
293.72208
293.70942
293.70243
293.69872
293.69683
293.69591
293.69549
293.6953
293.69523
293.6952
293.69519
293.69518
293.69518
293.69518
293.69519
293.69519
293.69519
400.62361
385.97494
372.41632
359.86418
348.335
337.90793
328.68449
320.74696
314.12406
308.77365
304.58637
301.40556
299.05367
297.35583
296.15572
295.32313
294.75521
294.37399
294.1221
293.95838
293.85387
293.78847
293.74848
293.72467
293.7109
293.70321
293.69908
293.69695
293.6959
293.6954
293.69519
293.69509
293.69506
293.69504
293.69504
293.69504
293.69504
293.69504
293.69504
293.69504
400.84068
386.24277
372.72974
360.21525
348.71233
338.29688
329.0685
321.10982
314.4524
309.05876
304.82474
301.59827
299.205
297.47175
296.24263
295.38709
294.80151
294.40695
294.14517
293.97423
293.86452
293.79545
293.75291
293.72736
293.71246
293.70405
293.69948
293.69709
293.69589
293.69533
293.69507
293.69496
293.69492
293.6949
293.69489
293.69489
293.69489
293.69489
293.69489
293.69489
401.05016
386.50126
373.0323
360.55434
349.07711
338.67339
329.4409
321.46248
314.77231
309.33728
305.05824
301.78756
299.35403
297.58619
296.32866
295.45058
294.84758
294.43986
294.16829
293.99019
293.87531
293.80257
293.75747
293.73017
293.71411
293.70495
293.69992
293.69725
293.69591
293.69526
293.69496
293.69483
293.69478
293.69476
293.69475
293.69475
293.69475
293.69475
293.69475
293.69475
401.25251
386.75098
373.32468
360.88218
349.4301
339.0382
329.80234
321.80548
315.0842
309.60951
305.28706
301.97353
299.50082
297.69919
296.41381
295.51357
294.89342
294.4727
294.19146
294.00625
293.88623
293.80981
293.76214
293.73308
293.71584
293.70591
293.7004
293.69745
293.69594
293.6952
293.69485
293.6947
293.69464
293.69461
293.6946
293.6946
293.6946
293.6946
293.6946
293.6946
401.44817
386.99248
373.60748
361.19944
349.77196
339.39195
330.1534
322.13931
315.38843
309.87572
305.5114
302.15631
299.64544
297.81078
296.49809
295.57607
294.93902
294.50546
294.21464
294.02239
293.89725
293.81718
293.76692
293.73608
293.71764
293.70693
293.70092
293.69767
293.69598
293.69515
293.69475
293.69458
293.6945
293.69447
293.69446
293.69446
293.69446
293.69446
293.69446
293.69446
401.63753
387.22622
373.88127
361.50672
350.10335
339.73526
330.49462
322.46441
315.68538
310.13617
305.73141
302.336
299.78795
297.92099
296.58152
295.63807
294.98436
294.53813
294.23782
294.03859
293.90837
293.82464
293.77181
293.73918
293.71952
293.708
293.70148
293.69792
293.69605
293.69511
293.69466
293.69445
293.69437
293.69433
293.69432
293.69431
293.69431
293.69431
293.69431
293.69431
401.82096
387.45266
374.14656
361.8046
350.42482
340.06867
330.82652
322.78121
315.97536
310.3911
305.94727
302.51272
299.92841
298.02985
296.6641
295.69957
295.02943
294.57068
294.261
294.05483
293.91956
293.8322
293.77679
293.74235
293.72146
293.70913
293.70208
293.69819
293.69613
293.69508
293.69457
293.69433
293.69423
293.69419
293.69417
293.69417
293.69416
293.69416
293.69417
293.69417
401.99878
387.6722
374.40382
362.09357
350.73692
340.39271
331.14955
323.0901
316.25869
310.64073
306.15912
302.68655
300.06689
298.13739
296.74584
295.76058
295.07424
294.60311
294.28415
294.07111
293.93083
293.83985
293.78185
293.74561
293.72348
293.71032
293.70272
293.69849
293.69623
293.69506
293.69449
293.69422
293.6941
293.69405
293.69403
293.69402
293.69402
293.69402
293.69402
293.69402
402.17131
387.88522
374.65348
362.37413
351.04014
340.70785
331.46416
323.39144
316.53564
310.88528
306.36712
302.85759
300.20343
298.24366
296.82677
295.82109
295.11877
294.63541
294.30726
294.08742
293.94215
293.84756
293.78699
293.74894
293.72556
293.71155
293.7034
293.69882
293.69634
293.69505
293.69441
293.69411
293.69397
293.69391
293.69389
293.69388
293.69387
293.69387
293.69387
293.69387
402.33882
388.09207
374.89596
362.64672
351.33493
341.01454
331.77073
323.68559
316.8065
311.12494
306.57141
303.02593
300.3381
298.34867
296.90689
295.88111
295.16302
294.66758
294.33033
294.10374
293.95352
293.85534
293.79221
293.75234
293.72769
293.71283
293.70412
293.69918
293.69648
293.69506
293.69434
293.694
293.69384
293.69377
293.69374
293.69373
293.69373
293.69373
293.69373
293.69373
402.50157
388.29306
375.13161
362.91173
351.62171
341.31318
332.06964
323.97285
317.07151
311.3599
306.77211
303.19167
300.47094
298.45245
296.98623
295.94064
295.20699
294.6996
294.35334
294.12006
293.96493
293.86318
293.79748
293.7558
293.72989
293.71416
293.70487
293.69956
293.69663
293.69507
293.69428
293.69389
293.69371
293.69363
293.6936
293.69359
293.69358
293.69358
293.69358
293.69358
402.65981
388.48849
375.36078
363.16954
351.90088
341.60416
332.36125
324.25353
317.33091
311.59034
306.96935
303.35488
300.60202
298.55504
297.06479
295.99969
295.25068
294.73148
294.3763
294.13638
293.97637
293.87107
293.80282
293.75931
293.73213
293.71553
293.70566
293.69997
293.6968
293.6951
293.69422
293.69379
293.69359
293.6935
293.69346
293.69344
293.69344
293.69344
293.69344
293.69344
402.81376
388.67864
375.5838
363.42052
352.1728
341.88783
332.64589
324.5279
317.58493
311.81643
307.16324
303.51563
300.73137
298.65647
297.14258
296.05827
295.29409
294.7632
294.39919
294.15269
293.98783
293.87901
293.8082
293.76289
293.73443
293.71695
293.70649
293.70041
293.69699
293.69514
293.69417
293.6937
293.69347
293.69336
293.69332
293.6933
293.69329
293.69329
293.69329
293.69329
402.96363
388.86376
375.80095
363.66498
352.43781
342.16454
332.92385
324.79624
317.83378
312.03833
307.35391
303.67401
300.85904
298.75675
297.21964
296.11637
295.33722
294.79478
294.42202
294.16899
293.99931
293.88698
293.81364
293.76651
293.73677
293.71841
293.70734
293.70087
293.69719
293.69519
293.69413
293.6936
293.69335
293.69323
293.69318
293.69316
293.69315
293.69315
293.69315
293.69315
403.10962
389.0441
376.01253
363.90322
352.69623
342.43458
333.19542
325.05877
318.07765
312.25618
307.54145
303.83009
300.98509
298.85593
297.29596
296.17402
295.38007
294.82619
294.44476
294.18526
294.01081
293.89498
293.81911
293.77017
293.73916
293.7199
293.70823
293.70135
293.69742
293.69525
293.6941
293.69352
293.69323
293.6931
293.69304
293.69301
293.693
293.693
293.693
293.693
403.25189
389.21987
376.21877
364.13555
352.94835
342.69826
333.46088
325.31575
318.31674
312.47013
307.72597
303.98393
301.10955
298.95402
297.37156
296.2312
295.42264
294.85745
294.46743
294.20151
294.02231
293.90301
293.82463
293.77388
293.74159
293.72143
293.70915
293.70186
293.69766
293.69533
293.69408
293.69344
293.69312
293.69297
293.6929
293.69287
293.69286
293.69286
293.69286
293.69285
403.39064
389.39128
376.41993
364.36221
353.19445
342.95583
333.72048
325.56738
318.55122
312.68032
307.90757
304.13561
301.23247
299.05106
297.44647
296.28794
295.46493
294.88855
294.49002
294.21773
294.03382
293.91107
293.83018
293.77763
293.74405
293.723
293.7101
293.70239
293.69792
293.69542
293.69406
293.69336
293.69301
293.69284
293.69276
293.69273
293.69272
293.69271
293.69271
293.69271
403.526
389.55853
376.61624
364.58345
353.43479
343.20757
333.97444
325.81387
318.78125
312.88686
308.08633
304.28518
301.35388
299.14706
297.52069
296.34424
295.50696
294.91949
294.51253
294.23391
294.04532
293.91914
293.83576
293.78141
293.74655
293.7246
293.71108
293.70295
293.6982
293.69552
293.69406
293.69329
293.6929
293.69271
293.69263
293.69259
293.69257
293.69257
293.69256
293.69256
403.65813
389.7218
376.80789
364.79952
353.66962
343.45371
334.22301
326.05542
319.00701
313.08989
308.26235
304.4327
301.47384
299.24205
297.59423
296.4001
295.54871
294.95027
294.53495
294.25006
294.05682
293.92723
293.84136
293.78523
293.74909
293.72623
293.71208
293.70352
293.6985
293.69563
293.69406
293.69322
293.6928
293.69259
293.69249
293.69245
293.69243
293.69242
293.69242
293.69242
403.78717
389.88126
376.9951
365.01063
353.89917
343.69448
334.46638
326.29221
319.22863
313.28952
308.4357
304.57823
301.59236
299.33605
297.66712
296.45554
295.5902
294.9809
294.55728
294.26617
294.06831
293.93533
293.84699
293.78907
293.75165
293.72789
293.71311
293.70412
293.69881
293.69576
293.69407
293.69316
293.6927
293.69247
293.69236
293.69231
293.69229
293.69228
293.69228
293.69227
403.91325
390.03707
377.17804
365.21699
354.12364
343.93009
334.70477
326.52442
319.44626
313.48586
308.60648
304.72183
301.7095
299.4291
297.73935
296.51055
295.63142
295.01136
294.57953
294.28224
294.07979
293.94344
293.85264
293.79294
293.75425
293.72958
293.71417
293.70474
293.69914
293.6959
293.69408
293.69311
293.6926
293.69235
293.69223
293.69217
293.69215
293.69213
293.69213
293.69213
404.03649
390.18938
377.3569
365.41878
354.34325
344.16074
334.93834
326.75221
319.66005
313.67901
308.77475
304.86354
301.82527
299.5212
297.81096
296.56515
295.67238
295.04167
294.60169
294.29826
294.09126
293.95155
293.85831
293.79684
293.75687
293.7313
293.71524
293.70538
293.69948
293.69605
293.69411
293.69306
293.69251
293.69223
293.69209
293.69203
293.692
293.69199
293.69199
293.69199
404.15701
390.33834
377.53184
365.6162
354.55819
344.38663
335.1673
326.97574
319.8701
313.86908
308.94058
305.00343
301.93973
299.61238
297.88194
296.61935
295.71309
295.07182
294.62376
294.31425
294.10272
293.95967
293.864
293.80076
293.75952
293.73304
293.71635
293.70604
293.69984
293.69621
293.69415
293.69302
293.69242
293.69211
293.69196
293.69189
293.69186
293.69185
293.69184
293.69184
404.27491
390.48407
377.703
365.80941
354.76863
344.60793
335.39179
327.19515
320.07656
314.05616
309.10405
305.14154
302.0529
299.70266
297.95232
296.67314
295.75354
295.10182
294.64574
294.33018
294.11416
293.9678
293.86969
293.80469
293.76219
293.7348
293.71747
293.70672
293.70022
293.69638
293.69419
293.69298
293.69233
293.692
293.69184
293.69176
293.69172
293.69171
293.6917
293.6917
404.3903
390.6267
377.87055
365.99857
354.97474
344.82482
335.61199
327.41059
320.27953
314.24033
309.26523
305.27791
302.16481
299.79206
298.0221
296.72655
295.79374
295.13166
294.66764
294.34607
294.12557
293.97592
293.8754
293.80865
293.76488
293.73659
293.71862
293.70742
293.70061
293.69657
293.69424
293.69295
293.69225
293.69189
293.69171
293.69162
293.69158
293.69156
293.69156
293.69155
404.50327
390.76635
378.03462
366.18385
355.17669
345.03744
335.82804
327.62219
320.47913
314.42169
309.42418
305.41258
302.27549
299.8806
298.0913
296.77957
295.83369
295.16136
294.68944
294.36192
294.13697
293.98404
293.88112
293.81262
293.76759
293.7384
293.71978
293.70814
293.70101
293.69677
293.69431
293.69292
293.69218
293.69178
293.69158
293.69149
293.69144
293.69142
293.69141
293.69141
404.61392
390.90314
378.19533
366.36538
355.37463
345.24597
336.04009
327.83008
320.67546
314.60033
309.58096
305.54562
302.38498
299.96829
298.15992
296.83221
295.87341
295.1909
294.71115
294.37771
294.14835
293.99215
293.88685
293.81661
293.77032
293.74022
293.72096
293.70887
293.70143
293.69697
293.69438
293.69291
293.6921
293.69168
293.69146
293.69135
293.6913
293.69128
293.69127
293.69127
404.72233
391.03716
378.35282
366.5433
355.56871
345.45053
336.24827
328.03438
320.86863
314.77631
309.73562
305.67704
302.49329
300.05517
298.22798
296.88448
295.91288
295.22029
294.73278
294.39346
294.15971
294.00027
293.89258
293.82061
293.77306
293.74207
293.72216
293.70962
293.70187
293.6972
293.69445
293.69289
293.69203
293.69158
293.69134
293.69122
293.69116
293.69114
293.69113
293.69113
404.82858
391.16853
378.50719
366.71774
355.75906
345.65128
336.45271
328.2352
321.05873
314.94972
309.88823
305.80691
302.60045
300.14123
298.2955
296.93639
295.95212
295.24954
294.75432
294.40916
294.17104
294.00837
293.89832
293.82462
293.77583
293.74393
293.72338
293.71038
293.70231
293.69743
293.69454
293.69289
293.69197
293.69148
293.69122
293.69109
293.69103
293.691
293.69099
293.69098
404.93276
391.29733
378.65857
366.88882
355.94581
345.84833
336.65355
328.43266
321.24585
315.12062
310.03884
305.93524
302.7065
300.22651
298.36247
296.98794
295.99113
295.27864
294.77577
294.42481
294.18236
294.01647
293.90406
293.82865
293.7786
293.74581
293.72462
293.71116
293.70277
293.69767
293.69464
293.69289
293.69191
293.69138
293.6911
293.69096
293.69089
293.69086
293.69085
293.69084
405.03493
391.42367
378.80706
367.05667
356.12909
346.04182
336.85088
328.62686
321.43008
315.2891
310.1875
306.06208
302.81146
300.31101
298.42891
297.03913
296.02991
295.3076
294.79714
294.44041
294.19364
294.02457
293.90981
293.83268
293.7814
293.7477
293.72587
293.71195
293.70325
293.69792
293.69474
293.6929
293.69186
293.69129
293.69099
293.69083
293.69076
293.69072
293.69071
293.6907
405.13516
391.54761
378.95275
367.22139
356.30902
346.23186
337.04484
328.8179
321.61151
315.45521
310.33427
306.18747
302.91534
300.39476
298.49484
297.08998
296.06846
295.33641
294.81842
294.45596
294.20491
294.03265
293.91556
293.83672
293.7842
293.74961
293.72713
293.71276
293.70373
293.69819
293.69486
293.69291
293.69181
293.6912
293.69087
293.69071
293.69062
293.69058
293.69057
293.69056
405.23353
391.66925
379.09575
367.3831
356.48569
346.41856
337.23552
329.00588
321.79021
315.61901
310.47918
306.31144
303.01818
300.47777
298.56025
297.14049
296.1068
295.36509
294.83961
294.47147
294.21614
294.04072
293.92131
293.84078
293.78701
293.75153
293.72841
293.71358
293.70423
293.69846
293.69498
293.69293
293.69176
293.69111
293.69076
293.69058
293.69049
293.69044
293.69043
293.69042
405.33009
391.78866
379.23614
367.54188
356.65924
346.60204
337.42302
329.19088
321.96627
315.78058
310.62229
306.43402
303.12
300.56005
298.62517
297.19067
296.14491
295.39363
294.86072
294.48692
294.22736
294.04879
293.92706
293.84483
293.78984
293.75347
293.72971
293.71442
293.70474
293.69874
293.69511
293.69296
293.69172
293.69103
293.69065
293.69046
293.69036
293.69031
293.69029
293.69028
405.42491
391.90592
379.37401
367.69783
356.82974
346.78238
337.60745
329.373
322.13975
315.93997
310.76364
306.55525
303.22081
300.64161
298.68959
297.24051
296.18282
295.42203
294.88175
294.50233
294.23854
294.05685
293.93281
293.8489
293.79268
293.75541
293.73101
293.71526
293.70526
293.69904
293.69524
293.69299
293.69168
293.69095
293.69055
293.69033
293.69022
293.69017
293.69015
293.69014
405.51803
392.02109
379.50944
367.85106
356.99731
346.9597
337.78889
329.55232
322.31074
316.09724
310.90328
306.67515
303.32065
300.72248
298.75353
297.29004
296.22051
295.4503
294.9027
294.51769
294.24971
294.06489
293.93856
293.85297
293.79552
293.75737
293.73233
293.71612
293.7058
293.69934
293.69539
293.69303
293.69165
293.69087
293.69044
293.69021
293.69009
293.69004
293.69001
293.69001
405.60953
392.13425
379.64251
368.00164
357.16203
347.13409
337.96745
329.72891
322.47929
316.25244
311.04124
306.79376
303.41952
300.80266
298.817
297.33925
296.258
295.47844
294.92356
294.533
294.26085
294.07293
293.94431
293.85704
293.79838
293.75934
293.73366
293.71699
293.70634
293.69965
293.69554
293.69307
293.69163
293.6908
293.69034
293.69009
293.68997
293.6899
293.68988
293.68987
405.69944
392.24546
379.77329
368.14965
357.32399
347.30562
338.14319
329.90287
322.64548
316.40562
311.17756
306.9111
303.51746
300.88217
298.88001
297.38814
296.29528
295.50645
294.94435
294.54827
294.27196
294.08095
293.95005
293.86112
293.80124
293.76132
293.735
293.71788
293.7069
293.69998
293.6957
293.69312
293.6916
293.69073
293.69024
293.68998
293.68984
293.68977
293.68974
293.68974
405.78782
392.35478
379.90187
368.29518
357.48328
347.4744
338.3162
330.07426
322.80936
316.55684
311.31229
307.0272
303.61448
300.96102
298.94256
297.43673
296.33236
295.53433
294.96505
294.56349
294.28304
294.08896
293.9558
293.8652
293.80411
293.76331
293.73636
293.71877
293.70746
293.70031
293.69587
293.69318
293.69159
293.69067
293.69015
293.68986
293.68971
293.68964
293.68961
293.6896
405.87471
392.46226
380.02829
368.43831
357.63997
347.64049
338.48657
330.24314
322.971
316.70614
311.44546
307.14209
303.71059
301.03923
299.00466
297.48502
296.36924
295.56209
294.98568
294.57866
294.29411
294.09696
293.96154
293.86929
293.80699
293.76531
293.73772
293.71967
293.70803
293.70065
293.69605
293.69325
293.69158
293.6906
293.69005
293.68975
293.68959
293.68951
293.68948
293.68947
405.96017
392.56797
380.15264
368.5791
357.79415
347.80399
338.65436
330.4096
323.13045
316.85357
311.57711
307.2558
303.80582
301.1168
299.06632
297.53301
296.40593
295.58972
295.00623
294.59379
294.30514
294.10495
293.96728
293.87338
293.80988