/*--------------------------------*- C++ -*----------------------------------*\
| =========                 |                                                 |
| \\      /  F ield         | OpenFOAM: The Open Source CFD Toolbox           |
|  \\    /   O peration     | Version:  3.0.1                                 |
|   \\  /    A nd           | Web:      www.OpenFOAM.org                      |
|    \\/     M anipulation  |                                                 |
\*---------------------------------------------------------------------------*/
FoamFile
{
    version     2.0;
    format      ascii;
    class       volVectorField;
    location    "2249";
    object      U;
}
// * * * * * * * * * * * * * * * * * * * * * * * * * * * * * * * * * * * * * //

dimensions      [0 1 -1 0 0 0 0];

internalField   nonuniform List<vector> 
4000
(
(0.00028794745 -1.37011e-18 0.067860055)
(0.00067274932 -2.8802409e-18 0.15240185)
(0.0011905789 -4.3070107e-18 0.20453099)
(0.00135357 -5.9084651e-18 0.2341924)
(0.0013414689 -6.279807e-18 0.24915216)
(0.0012360704 -6.5615709e-18 0.25489847)
(0.0011100543 -6.8184896e-18 0.25505289)
(0.00099336287 -7.1274347e-18 0.25187453)
(0.000896055 -6.5081942e-18 0.24670712)
(0.00081701899 -6.0297365e-18 0.24032138)
(0.00075207511 -5.5750475e-18 0.23315197)
(0.00069684387 -5.2055804e-18 0.22544827)
(0.00064796406 -4.8722459e-18 0.21736374)
(0.00060313943 -4.6015124e-18 0.20900552)
(0.00056093099 -4.4042424e-18 0.20046031)
(0.00052047809 -4.2862305e-18 0.19180679)
(0.00048129163 -4.1562739e-18 0.18312081)
(0.00044311108 -5.4508276e-18 0.17447682)
(0.00040582023 -6.9418194e-18 0.16594727)
(0.00036939607 -8.6366259e-18 0.15760117)
(0.00033388038 -1.0558238e-17 0.14950202)
(0.00029936074 -1.2771472e-17 0.14170546)
(0.00026595955 -1.360776e-17 0.13425684)
(0.00023382432 -1.1220199e-17 0.12718862)
(0.0002031216 -1.0672646e-17 0.12051779)
(0.00017403104 -8.8824749e-18 0.11424317)
(0.00014674138 -7.2798604e-18 0.10834275)
(0.00012144485 -7.2666203e-18 0.10277095)
(9.833429e-05 -7.4869769e-18 0.097456026)
(7.759201e-05 -7.9063477e-18 0.092297575)
(5.9387517e-05 -7.5389911e-18 0.087164606)
(4.3847402e-05 -5.3328615e-18 0.081894557)
(3.1060655e-05 -3.3155915e-18 0.076293944)
(2.1004276e-05 -1.469911e-18 0.07014154)
(1.3592426e-05 2.2257536e-19 0.063194788)
(8.501504e-06 1.8148933e-18 0.055199988)
(5.3990555e-06 2.025934e-18 0.045905238)
(3.4844164e-06 1.1063084e-18 0.035074061)
(2.3814198e-06 9.6984463e-19 0.0224938)
(8.7673923e-07 3.0429793e-19 0.0079730918)
(-1.7282232e-05 -1.7292518e-18 0.073689213)
(-0.00029376404 -3.5063167e-18 0.1647398)
(-0.00059055074 -5.2493126e-18 0.21873647)
(-0.00090294287 -7.1987322e-18 0.24673752)
(-0.0011535394 -6.8535679e-18 0.25840115)
(-0.0013145811 -6.7108034e-18 0.2607789)
(-0.0013735616 -6.7454802e-18 0.25827558)
(-0.001343296 -6.7834738e-18 0.25331217)
(-0.0012480639 -6.4836511e-18 0.24708817)
(-0.0011144192 -6.0738731e-18 0.2401517)
(-0.00096443561 -5.8076607e-18 0.23274289)
(-0.00081376594 -5.8774746e-18 0.22497357)
(-0.00067201384 -5.0621893e-18 0.21691126)
(-0.00054421136 -4.6404314e-18 0.20861402)
(-0.00043234683 -4.2965935e-18 0.2001425)
(-0.00033659958 -3.740712e-18 0.19156255)
(-0.00025617903 -3.7540427e-18 0.18294418)
(-0.00018983929 -5.4985865e-18 0.17435952)
(-0.0001361646 -7.3370431e-18 0.16588044)
(-9.3713075e-05 -8.7801068e-18 0.15757609)
(-6.1080944e-05 -1.0716481e-17 0.14951048)
(-3.6929259e-05 -1.319768e-17 0.14173994)
(-1.9991005e-05 -1.3693684e-17 0.13431053)
(-9.0727466e-06 -1.1285103e-17 0.12725547)
(-3.0529654e-06 -1.0938995e-17 0.12059245)
(-8.7890377e-07 -8.9310446e-18 0.11432101)
(-1.5656966e-06 -7.3088954e-18 0.1084198)
(-4.1946604e-06 -7.2864291e-18 0.10284389)
(-7.9110394e-06 -7.4991575e-18 0.097522149)
(-1.1933612e-05 -7.883062e-18 0.092354769)
(-1.5558585e-05 -7.2802187e-18 0.087211387)
(-1.8191403e-05 -5.1053143e-18 0.081930099)
(-1.9359085e-05 -3.2963469e-18 0.076318141)
(-1.8793933e-05 -1.4748898e-18 0.070155065)
(-1.6424201e-05 2.1606128e-19 0.063199158)
(-1.2552082e-05 1.8029641e-18 0.05519754)
(-7.6985358e-06 1.9116521e-18 0.045899084)
(-2.9956203e-06 1.1828055e-18 0.035067755)
(5.0454312e-07 9.7419078e-19 0.022490574)
(8.5228564e-07 2.6917302e-19 0.0079762839)
(-2.6686604e-05 -1.2259777e-18 0.080437617)
(-0.00037656539 -3.1311572e-18 0.18004715)
(-0.00085834075 -4.7754487e-18 0.23786547)
(-0.0013742427 -6.016063e-18 0.26536375)
(-0.0018205221 -6.4733467e-18 0.27366566)
(-0.0021415677 -6.6354829e-18 0.27160514)
(-0.0023115638 -6.7430147e-18 0.26493907)
(-0.0023376872 -6.7393087e-18 0.2567486)
(-0.0022483274 -6.4366191e-18 0.24834606)
(-0.0020804463 -5.9639387e-18 0.24010769)
(-0.0018690435 -5.2125694e-18 0.23202021)
(-0.0016417912 -5.4885329e-18 0.22396678)
(-0.0014176962 -5.0813584e-18 0.2158464)
(-0.0012081827 -4.6538329e-18 0.20760755)
(-0.0010190356 -4.3405597e-18 0.19924605)
(-0.00085233005 -4.0504137e-18 0.19079236)
(-0.00070794428 -4.3236138e-18 0.18229869)
(-0.00058459491 -5.6539588e-18 0.17382906)
(-0.00048046862 -7.3707577e-18 0.16545221)
(-0.00039357478 -9.2102534e-18 0.15723657)
(-0.00032192149 -1.0383895e-17 0.14924658)
(-0.00026359398 -1.2591931e-17 0.14153945)
(-0.00021678472 -1.2765732e-17 0.13416232)
(-0.00017980038 -1.139947e-17 0.12714955)
(-0.0001510606 -1.0662048e-17 0.12051998)
(-0.00012909038 -8.9585326e-18 0.11427421)
(-0.00011251825 -7.5213718e-18 0.10839192)
(-0.00010007094 -7.3332703e-18 0.10282915)
(-9.056918e-05 -7.4962355e-18 0.097515634)
(-8.2937593e-05 -7.7122088e-18 0.092352427)
(-7.6207637e-05 -7.0368216e-18 0.087209982)
(-6.955177e-05 -4.8461143e-18 0.081927219)
(-6.2304062e-05 -3.2549883e-18 0.076312232)
(-5.4038509e-05 -1.4745799e-18 0.070145463)
(-4.4584154e-05 1.9444349e-19 0.06318613)
(-3.4172287e-05 1.6215752e-18 0.055182268)
(-2.3358439e-05 1.6903305e-18 0.045883627)
(-1.3224676e-05 1.2155389e-18 0.035054846)
(-5.1869164e-06 9.9386616e-19 0.022483561)
(-8.9392249e-07 2.9403829e-19 0.0079753059)
(-2.3483467e-05 -8.1864894e-19 0.086461706)
(-0.00035069109 -2.5529227e-18 0.1945657)
(-0.0008511965 -3.9611428e-18 0.2573989)
(-0.0014334942 -4.8037616e-18 0.28611371)
(-0.0019898654 -6.0684911e-18 0.29240008)
(-0.0024423707 -7.2411786e-18 0.28639303)
(-0.0027408242 -6.8774593e-18 0.27525965)
(-0.0028717682 -6.6476401e-18 0.26308415)
(-0.0028520043 -6.4232738e-18 0.25163741)
(-0.0027163324 -6.0223598e-18 0.24134055)
(-0.0025046203 -5.4794268e-18 0.23201048)
(-0.0022528436 -4.7907883e-18 0.22329931)
(-0.0019887638 -4.824733e-18 0.21489714)
(-0.0017312186 -4.5672928e-18 0.2065957)
(-0.0014914103 -4.4146224e-18 0.19828666)
(-0.0012749053 -4.451156e-18 0.18993749)
(-0.0010835586 -5.0436302e-18 0.18156532)
(-0.00091702474 -5.8658678e-18 0.17321621)
(-0.00077379058 -7.1124898e-18 0.16495051)
(-0.00065181274 -9.0924797e-18 0.15683341)
(-0.00054887284 -1.0448496e-17 0.14892851)
(-0.00046275816 -1.1743431e-17 0.14129339)
(-0.00039134153 -1.2053047e-17 0.13397609)
(-0.00033261337 -1.1563485e-17 0.12701205)
(-0.0002846883 -1.0279474e-17 0.12042125)
(-0.00024580332 -8.9722989e-18 0.11420544)
(-0.00021431471 -7.8852578e-18 0.1083454)
(-0.00018869259 -7.417024e-18 0.10279821)
(-0.00016751989 -7.4629683e-18 0.097494623)
(-0.00014949912 -7.3810919e-18 0.092336653)
(-0.00013346102 -6.8066082e-18 0.087195709)
(-0.00011839626 -4.8510779e-18 0.081911673)
(-0.00010348291 -3.2244765e-18 0.076293639)
(-8.8161214e-05 -1.4744696e-18 0.070123092)
(-7.2168741e-05 1.4902207e-19 0.063160323)
(-5.5648713e-05 1.3557671e-18 0.055154412)
(-3.915855e-05 1.5931145e-18 0.04585606)
(-2.3680881e-05 1.2101922e-18 0.035030593)
(-1.0807872e-05 8.4182001e-19 0.022465847)
(-1.9024755e-06 3.1206664e-19 0.0079657835)
(-2.0833379e-05 -9.7464062e-19 0.091662497)
(-0.00031611361 -2.48366e-18 0.20755762)
(-0.00079151424 -3.798345e-18 0.27567531)
(-0.0013745083 -4.8581808e-18 0.30664771)
(-0.0019706889 -5.8142805e-18 0.31219209)
(-0.002498413 -6.6310544e-18 0.30319714)
(-0.0028931143 -6.7974317e-18 0.2879816)
(-0.0031222485 -6.7289235e-18 0.27168719)
(-0.0031860278 -6.4289305e-18 0.25675513)
(-0.003109267 -6.1759617e-18 0.2438658)
(-0.0029291409 -6.209728e-18 0.2328087)
(-0.0026844343 -5.2860124e-18 0.22306803)
(-0.0024086241 -5.0446312e-18 0.21413232)
(-0.0021269046 -4.7936118e-18 0.20561575)
(-0.0018560503 -4.5750323e-18 0.19727712)
(-0.0016058117 -4.7053955e-18 0.1889951)
(-0.00138081 -5.2212286e-18 0.18073274)
(-0.0011823083 -6.1084622e-18 0.17250577)
(-0.0010095868 -7.2867563e-18 0.16435901)
(-0.00086088343 -8.728727e-18 0.15635043)
(-0.0007339719 -1.0766057e-17 0.14854093)
(-0.00062648556 -1.1618125e-17 0.14098756)
(-0.00053608098 -1.2127838e-17 0.13373888)
(-0.00046051127 -1.1405768e-17 0.12683128)
(-0.00039765584 -1.0234812e-17 0.12028591)
(-0.00034552554 -8.9860348e-18 0.1141057)
(-0.00030226158 -7.9677055e-18 0.10827259)
(-0.00026613475 -7.485059e-18 0.10274481)
(-0.00023554236 -7.4381977e-18 0.097454205)
(-0.00020901463 -7.2970727e-18 0.092303849)
(-0.00018522746 -6.6293811e-18 0.087166205)
(-0.00016303213 -5.1247443e-18 0.081882228)
(-0.00014148966 -3.2208791e-18 0.076262117)
(-0.00011993817 -1.4760698e-18 0.070088504)
(-9.804868e-05 1.0570895e-19 0.063122853)
(-7.5899691e-05 1.2450688e-18 0.055115381)
(-5.405907e-05 1.5997455e-18 0.045817803)
(-3.344316e-05 1.1965003e-18 0.034996178)
(-1.5767413e-05 7.1826168e-19 0.022438651)
(-2.5124547e-06 2.6180535e-19 0.0079502112)
(-1.911154e-05 -1.377938e-18 0.096289038)
(-0.00028849952 -2.9006737e-18 0.21930978)
(-0.00073400011 -4.3343683e-18 0.29261555)
(-0.0012974895 -5.6961317e-18 0.32634937)
(-0.0018995478 -5.6744649e-18 0.33203333)
(-0.0024639614 -5.5774168e-18 0.32093649)
(-0.0029217902 -6.2929657e-18 0.3022292)
(-0.0032283484 -6.5386356e-18 0.2820102)
(-0.0033692975 -6.5438589e-18 0.2634605)
(-0.003357366 -6.2178381e-18 0.24766155)
(-0.0032227564 -6.0980311e-18 0.23450871)
(-0.0030025871 -5.9585072e-18 0.22340617)
(-0.0027326163 -5.2908404e-18 0.21368067)
(-0.002442399 -5.0461508e-18 0.20477398)
(-0.0021535269 -4.8787989e-18 0.19629866)
(-0.0018799855 -4.8910331e-18 0.18802557)
(-0.0016295934 -5.1777796e-18 0.17984613)
(-0.0014057399 -6.3232209e-18 0.17173258)
(-0.0012089495 -7.7543748e-18 0.16370545)
(-0.0010380772 -8.981629e-18 0.15581044)
(-0.00089111559 -1.0655497e-17 0.14810289)
(-0.00076569042 -1.1835636e-17 0.14063799)
(-0.00065933485 -1.21674e-17 0.13346416)
(-0.00056962674 -1.108285e-17 0.12661853)
(-0.00049425313 -1.036538e-17 0.12012332)
(-0.0004310316 -8.9911257e-18 0.11398267)
(-0.00037791719 -7.8439482e-18 0.10817976)
(-0.00033300373 -7.5142246e-18 0.10267402)
(-0.00029452347 -7.4366174e-18 0.097398441)
(-0.0002608542 -7.4004148e-18 0.092257267)
(-0.00023053283 -6.5394532e-18 0.087124087)
(-0.00020228633 -5.0597016e-18 0.081841003)
(-0.00017507081 -3.2090638e-18 0.076219398)
(-0.00014813354 -1.478313e-18 0.070043129)
(-0.00012108671 7.8159798e-20 0.0630749)
(-9.395045e-05 1.2748245e-18 0.055066127)
(-6.7294521e-05 1.5176698e-18 0.045769583)
(-4.1998441e-05 1.1898721e-18 0.034952128)
(-1.9869923e-05 7.9368123e-19 0.022402578)
(-2.8527995e-06 2.2414327e-19 0.0079295535)
(-1.7729324e-05 -1.0603488e-18 0.10047227)
(-0.00026593574 -1.792971e-18 0.23005126)
(-0.00068345285 -3.5288258e-18 0.30834228)
(-0.0012221443 -4.7888148e-18 0.34506502)
(-0.0018150149 -5.4627437e-18 0.35146784)
(-0.0023936768 -5.788161e-18 0.33897675)
(-0.0028903018 -6.3601068e-18 0.31736923)
(-0.0032540006 -6.6213511e-18 0.29355718)
(-0.0034598361 -6.4840048e-18 0.27144738)
(-0.0035095033 -6.1612482e-18 0.25259407)
(-0.0034248209 -5.962988e-18 0.23709681)
(-0.0032385393 -5.8867054e-18 0.22436393)
(-0.0029858791 -5.5010426e-18 0.21361368)
(-0.0026985818 -5.1966498e-18 0.20413831)
(-0.0024017892 -5.1188167e-18 0.19540554)
(-0.0021132486 -5.2710489e-18 0.18706829)
(-0.0018440267 -5.6135126e-18 0.17893279)
(-0.0015999381 -6.3706703e-18 0.17091545)
(-0.0013831057 -7.1584551e-18 0.16300331)
(-0.0011933084 -8.6767691e-18 0.15522362)
(-0.0010289857 -1.0884617e-17 0.14762263)
(-0.00088790909 -1.1639768e-17 0.14025165)
(-0.0007675871 -1.1882728e-17 0.13315804)
(-0.00066548508 -1.1061288e-17 0.12637923)
(-0.00057913831 -1.0206086e-17 0.11993836)
(-0.00050620139 -9.000586e-18 0.11384076)
(-0.00044446619 -7.9627556e-18 0.10807085)
(-0.00039186829 -7.5710619e-18 0.10258933)
(-0.00034649157 -7.5976296e-18 0.097330458)
(-0.00030657621 -7.2571277e-18 0.092199669)
(-0.00027053312 -6.2208192e-18 0.087071773)
(-0.00023697632 -4.9356946e-18 0.0817901)
(-0.00020476506 -3.1881861e-18 0.076167294)
(-0.0001730643 -1.479979e-18 0.069988511)
(-0.00014143044 5.7970212e-20 0.063017767)
(-0.00010983348 1.3155345e-18 0.055007741)
(-7.8834929e-05 1.3732893e-18 0.045712316)
(-4.9310764e-05 1.1683248e-18 0.03489926)
(-2.3149821e-05 7.7286626e-19 0.022358618)
(-3.0077472e-06 2.3750751e-19 0.0079049236)
(-1.6599563e-05 -1.7474526e-20 0.10430622)
(-0.00024731494 -1.2918755e-18 0.23996766)
(-0.00064000756 -2.2045203e-18 0.32301679)
(-0.0011536675 -2.16115e-18 0.3628135)
(-0.0017310133 -4.2063104e-18 0.3703137)
(-0.0023113496 -5.4133032e-18 0.35697008)
(-0.0028303776 -6.0470242e-18 0.33298628)
(-0.0032348792 -6.4113196e-18 0.30594804)
(-0.0034929216 -6.4341733e-18 0.28043633)
(-0.003597275 -6.090348e-18 0.25850247)
(-0.0035616488 -5.7180573e-18 0.24051323)
(-0.0034132526 -5.1652831e-18 0.22594908)
(-0.0031848935 -5.4009435e-18 0.21397306)
(-0.0029086384 -5.3392334e-18 0.20375962)
(-0.0026117846 -5.4149309e-18 0.19464373)
(-0.0023150575 -6.0248686e-18 0.18615892)
(-0.002032511 -6.6153434e-18 0.17801795)
(-0.0017724622 -6.7176292e-18 0.17007131)
(-0.0015388625 -7.1983631e-18 0.1622637)
(-0.0013326716 -8.7412629e-18 0.1545974)
(-0.0011529941 -1.0405567e-17 0.14710528)
(-0.00099790624 -1.0666943e-17 0.13983229)
(-0.00086499779 -1.0921278e-17 0.13282341)
(-0.0007516904 -1.1036928e-17 0.1261157)
(-0.00065541212 -9.6242271e-18 0.11973295)
(-0.0005736823 -8.9643755e-18 0.11368157)
(-0.00050415003 -8.2571279e-18 0.10794726)
(-0.00044460971 -7.6324163e-18 0.10249202)
(-0.00039300971 -7.4851661e-18 0.097251388)
(-0.00034746308 -6.9463155e-18 0.092132105)
(-0.00030626523 -6.1400836e-18 0.087010256)
(-0.0002679249 -5.0715868e-18 0.081730471)
(-0.00023121284 -3.1904776e-18 0.076106725)
(-0.00019521738 -1.4866358e-18 0.069925544)
(-0.00015944007 1.2284426e-20 0.062952321)
(-0.00012380896 1.0711649e-18 0.054941057)
(-8.8870404e-05 1.3286188e-18 0.04564681)
(-5.5524665e-05 1.1331637e-18 0.034838411)
(-2.5747927e-05 6.6413491e-19 0.022307803)
(-3.0529574e-06 2.5171383e-19 0.0078772597)
(-1.5644976e-05 -1.0187605e-18 0.10785612)
(-0.00023165227 -2.8945794e-18 0.24919817)
(-0.00060253442 -3.4669792e-18 0.33678322)
(-0.0010925682 -4.3029947e-18 0.37966472)
(-0.0016520493 -4.561119e-18 0.38851167)
(-0.0022271 -5.2408561e-18 0.37472742)
(-0.0027577769 -5.6552735e-18 0.34881121)
(-0.0031908036 -5.6579715e-18 0.31890251)
(-0.0034899535 -6.0651658e-18 0.29019267)
(-0.0036412044 -5.9808821e-18 0.26522689)
(-0.0036511579 -5.9383599e-18 0.24467499)
(-0.003541308 -6.0511724e-18 0.22813974)
(-0.0033410337 -5.601053e-18 0.21477536)
(-0.0030813653 -5.5242742e-18 0.20367197)
(-0.0027904932 -5.5289359e-18 0.19405007)
(-0.0024912235 -5.6635459e-18 0.18532922)
(-0.0022001267 -6.2422561e-18 0.17712562)
(-0.0019279025 -7.1359593e-18 0.16921689)
(-0.0016804279 -8.4784496e-18 0.16149771)
(-0.0014600269 -9.3597803e-18 0.153939)
(-0.0012666587 -9.9362314e-18 0.14655562)
(-0.0010988622 -1.0939547e-17 0.13938321)
(-0.00095441936 -1.0863097e-17 0.13246263)
(-0.00083078202 -1.0776481e-17 0.12582972)
(-0.0007253191 -9.9326347e-18 0.11950848)
(-0.00063544629 -8.967317e-18 0.11350625)
(-0.00055869014 -8.2469449e-18 0.10780996)
(-0.00049271915 -7.6479771e-18 0.1023829)
(-0.00043535906 -7.2271949e-18 0.097161974)
(-0.00038460623 -6.8551234e-18 0.092055259)
(-0.00033864864 -6.0265465e-18 0.086940187)
(-0.00029589876 -4.7499996e-18 0.081662751)
(-0.00025504428 -3.1558466e-18 0.076038326)
(-0.00021510203 -1.4957406e-18 0.06985487)
(-0.00017552086 -4.3682764e-20 0.062879212)
(-0.00013619419 8.3792625e-19 0.054866737)
(-9.7646951e-05 1.2631863e-18 0.045573746)
(-6.0827329e-05 1.1792826e-18 0.034770334)
(-2.7819176e-05 6.7012354e-19 0.02225105)
(-3.0397331e-06 1.9466589e-19 0.0078472541)
(-1.4822307e-05 -1.3570767e-18 0.11116962)
(-0.00021826713 -1.7082933e-18 0.25784899)
(-0.00056995377 -3.6207085e-18 0.34976219)
(-0.0010382206 -5.3359665e-18 0.39569982)
(-0.0015793557 -5.1756933e-18 0.40605888)
(-0.0021453217 -5.4399268e-18 0.3921489)
(-0.0026806197 -5.8617495e-18 0.36467057)
(-0.0031331663 -6.439638e-18 0.33221771)
(-0.0034643175 -6.2159336e-18 0.30052795)
(-0.0036550532 -6.0437843e-18 0.27262264)
(-0.0037060508 -5.8825011e-18 0.24949217)
(-0.0036334465 -6.003469e-18 0.23089637)
(-0.0034627988 -5.8880178e-18 0.21601818)
(-0.0032232354 -5.6801948e-18 0.20389449)
(-0.0029428346 -5.7696805e-18 0.19365194)
(-0.0026456196 -5.8785201e-18 0.18460603)
(-0.0023501078 -6.1398778e-18 0.17627785)
(-0.0020691167 -7.058784e-18 0.16836835)
(-0.001810416 -7.7942671e-18 0.16071637)
(-0.0015777983 -8.9207254e-18 0.15325561)
(-0.0013722275 -1.0392221e-17 0.14597824)
(-0.0011928454 -1.1227117e-17 0.13890737)
(-0.0010377408 -1.1447959e-17 0.13207769)
(-0.00090447401 -1.0480746e-17 0.12552269)
(-0.00079040556 -1.0062925e-17 0.11926599)
(-0.00069288091 -8.9780307e-18 0.1133156)
(-0.0006093266 -8.0488165e-18 0.10765957)
(-0.00053730032 -7.6556921e-18 0.1022625)
(-0.00047451605 -7.3549208e-18 0.097062678)
(-0.00041886421 -6.9662118e-18 0.091969561)
(-0.00036843333 -5.9504317e-18 0.086861985)
(-0.00032154525 -4.6648318e-18 0.081587367)
(-0.00027681116 -3.1178449e-18 0.075962541)
(-0.00023318237 -1.5002831e-18 0.069776956)
(-0.0001900567 -7.0026626e-20 0.062798937)
(-0.00014729884 9.9434668e-19 0.054785303)
(-0.00010540997 1.2143228e-18 0.045493691)
(-6.5404981e-05 1.0390289e-18 0.034695684)
(-2.9499236e-05 7.3944244e-19 0.022189136)
(-2.9986986e-06 2.2046586e-19 0.0078154118)
(-1.4103479e-05 -6.3653226e-20 0.11428271)
(-0.00020667289 -1.3807044e-18 0.26600265)
(-0.00054137458 -2.3801276e-18 0.36205308)
(-0.00098976029 -2.5207551e-18 0.41099718)
(-0.0015129365 -4.2552667e-18 0.42297788)
(-0.0020678219 -5.2353789e-18 0.40918521)
(-0.0026031387 -5.7834542e-18 0.38045272)
(-0.0030686434 -6.2620127e-18 0.34574763)
(-0.0034245347 -6.2001322e-18 0.31129403)
(-0.0036481958 -5.9388775e-18 0.28056503)
(-0.0037354936 -5.6776884e-18 0.25487725)
(-0.0036977892 -5.2972896e-18 0.23417077)
(-0.0035568208 -5.7568423e-18 0.21768622)
(-0.0033393421 -5.8766134e-18 0.20443419)
(-0.0030725981 -6.1177914e-18 0.19346787)
(-0.0027810888 -6.6847908e-18 0.18401099)
(-0.0024846935 -7.2781856e-18 0.17549423)
(-0.0021979949 -7.3717495e-18 0.1675411)
(-0.0019305231 -7.8009492e-18 0.15993066)
(-0.0016875604 -8.9449924e-18 0.15255455)
(-0.001471175 -1.0045238e-17 0.14537787)
(-0.0012812341 -1.0158379e-17 0.13840775)
(-0.001116238 -1.0477982e-17 0.13167051)
(-0.00097393812 -1.0532185e-17 0.12519586)
(-0.00085174194 -9.4176094e-18 0.11900634)
(-0.00074695904 -8.9341059e-18 0.11311023)
(-0.00065694037 -8.329686e-18 0.10749656)
(-0.00057914818 -7.6871105e-18 0.1021312)
(-0.00051119657 -7.3285412e-18 0.09695381)
(-0.00045087769 -6.6785457e-18 0.091875292)
(-0.00039618846 -5.882236e-18 0.086775927)
(-0.00034536711 -4.8052995e-18 0.081504608)
(-0.00029695311 -3.1053843e-18 0.075879682)
(-0.00024983662 -1.502318e-18 0.069692146)
(-0.00020336726 -1.146673e-19 0.06271187)
(-0.0001573845 8.1586606e-19 0.054697169)
(-0.00011236807 1.1480805e-18 0.045407107)
(-6.9414233e-05 1.0006377e-18 0.034615015)
(-3.0895124e-05 6.3017909e-19 0.022122692)
(-2.9502729e-06 2.4139157e-19 0.007782087)
(-1.3466948e-05 -7.6861568e-19 0.11722328)
(-0.00019651317 -2.9124695e-18 0.27372457)
(-0.00051609249 -3.0997256e-18 0.37373783)
(-0.00094635686 -3.4485904e-18 0.4256279)
(-0.0014523526 -4.1996717e-18 0.43930191)
(-0.001995208 -5.07528e-18 0.42581606)
(-0.0025275261 -5.7938942e-18 0.39608623)
(-0.0030012008 -6.328586e-18 0.35938711)
(-0.0033761077 -6.1053628e-18 0.32237552)
(-0.0036270907 -5.8629646e-18 0.28894932)
(-0.0037461652 -5.7213372e-18 0.26074979)
(-0.0037405515 -5.6463964e-18 0.23791199)
(-0.0036283785 -5.8533908e-18 0.2197561)
(-0.00343384 -6.0541797e-18 0.20528883)
(-0.0031828773 -6.3225562e-18 0.19350866)
(-0.0028998832 -6.7740277e-18 0.1835605)
(-0.0026055597 -7.355932e-18 0.17479153)
(-0.0023158683 -7.8389137e-18 0.16674934)
(-0.0020418944 -8.7746646e-18 0.15915126)
(-0.0017903599 -9.5543723e-18 0.15184324)
(-0.0015644879 -9.6726661e-18 0.14475933)
(-0.0013649614 -1.0162736e-17 0.13788743)
(-0.0011907894 -1.0320698e-17 0.13124302)
(-0.001039992 -1.0267965e-17 0.12485048)
(-0.00091008146 -9.4679757e-18 0.11873034)
(-0.00079837262 -8.8947845e-18 0.1128907)
(-0.00070216407 -8.2998785e-18 0.10732132)
(-0.00061883954 -7.6822516e-18 0.10198928)
(-0.00054592462 -7.1748861e-18 0.096835611)
(-0.00048112101 -6.6514764e-18 0.091772666)
(-0.00042234139 -6.0640914e-18 0.086682218)
(-0.00036774674 -4.7425644e-18 0.081414686)
(-0.00031580679 -3.0868937e-18 0.075789983)
(-0.00026535763 -1.5059637e-18 0.069600699)
(-0.00021570267 -1.6668966e-19 0.062618303)
(-0.00016665843 6.5724272e-19 0.054602664)
(-0.0001186892 1.1695174e-18 0.045314377)
(-7.2981999e-05 9.8337627e-19 0.034528791)
(-3.2087217e-05 6.2378244e-19 0.02205223)
(-2.9017543e-06 2.1275373e-19 0.0077475256)
(-1.2898338e-05 -1.8905573e-18 0.12001347)
(-0.00018752272 -3.1778064e-18 0.28106748)
(-0.00049355182 -4.4600548e-18 0.38488444)
(-0.00090728412 -6.1556254e-18 0.43965494)
(-0.0013970349 -5.2799935e-18 0.45506773)
(-0.0019275255 -5.2968773e-18 0.44203784)
(-0.0024548725 -5.6639633e-18 0.41152592)
(-0.0029332083 -6.1417518e-18 0.37306024)
(-0.0033226315 -6.1994681e-18 0.33368274)
(-0.003596235 -6.0045378e-18 0.29768873)
(-0.0037429703 -6.0229412e-18 0.26703819)
(-0.0037665192 -6.3801928e-18 0.24206997)
(-0.0036817133 -6.127471e-18 0.22220013)
(-0.0035101802 -6.2035071e-18 0.20644961)
(-0.0032762868 -6.3845835e-18 0.19377868)
(-0.0030038903 -6.5894554e-18 0.18326612)
(-0.0027140559 -6.973643e-18 0.17418347)
(-0.0024237418 -7.9916173e-18 0.16600577)
(-0.0021453439 -9.1085151e-18 0.15838837)
(-0.001886917 -9.6090145e-18 0.15112906)
(-0.0016528391 -9.988556e-18 0.14412764)
(-0.0014446689 -1.0984662e-17 0.13734962)
(-0.0012620051 -1.0946963e-17 0.13079722)
(-0.001103211 -1.0078476e-17 0.12448779)
(-0.00096596252 -9.9028756e-18 0.11843878)
(-0.00084761963 -8.9067034e-18 0.11265751)
(-0.00074545578 -8.0749284e-18 0.10713421)
(-0.00065679472 -7.6423053e-18 0.101837)
(-0.00057908406 -7.1385705e-18 0.096708282)
(-0.00050994446 -6.781034e-18 0.091661854)
(-0.00044720984 -5.9248149e-18 0.086581021)
(-0.00038896889 -4.4622278e-18 0.081317771)
(-0.0003336276 -3.0425374e-18 0.075693626)
(-0.00027997002 -1.508034e-18 0.069502821)
(-0.00022725512 -1.9791688e-19 0.062518471)
(-0.00017528179 7.1815553e-19 0.054502055)
(-0.00012450254 1.0999898e-18 0.045215816)
(-7.6202871e-05 9.6271195e-19 0.0344374)
(-3.3130998e-05 6.8269429e-19 0.021978154)
(-2.8580595e-06 1.8494381e-19 0.0077118969)
(-1.2386081e-05 -1.151566e-18 0.12267118)
(-0.00017949934 -2.8672365e-18 0.28807456)
(-0.00047331386 -4.2550106e-18 0.39554987)
(-0.000871929 -5.3294322e-18 0.45313355)
(-0.0013464098 -5.4868307e-18 0.4703121)
(-0.0018645623 -5.4970086e-18 0.45785659)
(-0.0023856649 -5.7381812e-18 0.42674405)
(-0.0028660783 -6.2399982e-18 0.38671216)
(-0.0032664764 -6.2613725e-18 0.34514597)
(-0.0035587861 -6.1220956e-18 0.30671187)
(-0.0037295316 -6.1040579e-18 0.27367993)
(-0.0037793932 -6.3766057e-18 0.24659762)
(-0.0037202443 -6.3503864e-18 0.22498884)
(-0.0035712488 -6.3868509e-18 0.20790335)
(-0.0033550744 -6.6008293e-18 0.1942773)
(-0.0030947481 -6.8171657e-18 0.18313508)
(-0.0028113304 -7.2590833e-18 0.17368082)
(-0.0025224271 -8.0875924e-18 0.16532145)
(-0.0022414833 -9.0323395e-18 0.15765147)
(-0.0019777424 -9.6466311e-18 0.15041925)
(-0.0017366942 -1.0088242e-17 0.14348783)
(-0.0015208028 -1.0758022e-17 0.13679765)
(-0.0013303154 -1.0792599e-17 0.13033522)
(-0.0011640063 -1.0139548e-17 0.12410909)
(-0.0010197728 -9.7573795e-18 0.11813247)
(-0.0008950619 -8.9071761e-18 0.1124112)
(-0.00078715116 -8.1262619e-18 0.10693557)
(-0.00069332265 -7.6101602e-18 0.10167461)
(-0.00061095894 -7.1064305e-18 0.096572001)
(-0.00053760732 -6.6798388e-18 0.091543002)
(-0.00047103015 -5.8119512e-18 0.086472469)
(-0.00040924817 -4.4313224e-18 0.081213997)
(-0.00035060611 -3.0002839e-18 0.075590759)
(-0.00029384054 -1.5080881e-18 0.069398679)
(-0.00023816957 -2.282573e-19 0.062412562)
(-0.00018337526 6.724985e-19 0.054395561)
(-0.00012990524 1.0323235e-18 0.045111693)
(-7.9149346e-05 9.2922575e-19 0.034341171)
(-3.406674e-05 6.4185291e-19 0.021900791)
(-2.8215225e-06 1.9520081e-19 0.0076753214)
(-1.1921375e-05 -5.6068433e-19 0.12521113)
(-0.00017228564 -2.1828537e-18 0.29478164)
(-0.0004550283 -3.3311314e-18 0.40578219)
(-0.00083977977 -3.9413012e-18 0.46611205)
(-0.001299945 -5.3137908e-18 0.48507022)
(-0.0018059982 -6.2501528e-18 0.47328372)
(-0.002320056 -5.9202561e-18 0.44172454)
(-0.0028006363 -6.2412594e-18 0.40030312)
(-0.0032092118 -6.3040363e-18 0.35671087)
(-0.0035169793 -6.1061939e-18 0.3159601)
(-0.0037085439 -5.9367508e-18 0.28062108)
(-0.0037820456 -5.6981487e-18 0.25145176)
(-0.0037467344 -6.3036049e-18 0.22809273)
(-0.0036194686 -6.5460672e-18 0.20963423)
(-0.0034211886 -6.7312199e-18 0.19500015)
(-0.0031739073 -6.9370824e-18 0.18317098)
(-0.0028983999 -7.7071649e-18 0.17329151)
(-0.0026126183 -8.2442826e-18 0.16470565)
(-0.0023308023 -8.8134653e-18 0.15694912)
(-0.0020632153 -9.6000216e-18 0.1497207)
(-0.0018163838 -1.0039231e-17 0.14284496)
(-0.0015936739 -1.0214236e-17 0.13623492)
(-0.0013960236 -1.0306463e-17 0.12985921)
(-0.0012226738 -1.0301554e-17 0.12371577)
(-0.0010717954 -9.4752566e-18 0.11781226)
(-0.00094096632 -8.8872445e-18 0.11215228)
(-0.00082749948 -8.3049659e-18 0.10672573)
(-0.00072865408 -7.6069811e-18 0.10150233)
(-0.00064176113 -7.0510261e-18 0.096426932)
(-0.00056430463 -6.4029625e-18 0.091416241)
(-0.00049397932 -5.7214026e-18 0.08635668)
(-0.00042874371 -4.3707557e-18 0.08110348)
(-0.00036688607 -2.9658981e-18 0.075481506)
(-0.00030709668 -1.5097409e-18 0.069288408)
(-0.00024855526 -2.7255763e-19 0.062300732)
(-0.00019102965 4.8973012e-19 0.054283369)
(-0.00013497033 9.8339017e-19 0.045002234)
(-8.1876203e-05 8.9680388e-19 0.034240381)
(-3.4921085e-05 5.340949e-19 0.021820403)
(-2.7903853e-06 2.0872885e-19 0.0076378874)
(-1.1497132e-05 -1.4098517e-18 0.12764554)
(-0.00016575766 -2.7901326e-18 0.30121884)
(-0.00043841254 -4.1269357e-18 0.4156224)
(-0.00081040972 -5.6984328e-18 0.47863281)
(-0.0012571666 -5.6369769e-18 0.49937496)
(-0.0017514802 -5.8431376e-18 0.48833354)
(-0.0022580147 -5.7359205e-18 0.45645911)
(-0.0027373449 -5.5245296e-18 0.41380447)
(-0.0031518798 -6.0531974e-18 0.36833491)
(-0.0034724075 -6.1579756e-18 0.32538526)
(-0.0036820217 -6.2776257e-18 0.28781531)
(-0.0037767149 -6.7160078e-18 0.25659346)
(-0.0037634203 -6.5257493e-18 0.23148335)
(-0.003656872 -6.6767139e-18 0.21162504)
(-0.00347632 -6.8482354e-18 0.19594015)
(-0.0032426622 -6.8105935e-18 0.18337447)
(-0.002976185 -7.3795309e-18 0.173021)
(-0.0026949369 -8.3240005e-18 0.16416588)
(-0.0024137171 -9.1667994e-18 0.15628893)
(-0.0021436331 -9.6443798e-18 0.14903991)
(-0.0018921491 -1.0093916e-17 0.14220397)
(-0.0016635034 -1.0526228e-17 0.13566492)
(-0.0014593443 -1.0263337e-17 0.12937149)
(-0.0012794244 -1.0164601e-17 0.12330925)
(-0.0011222367 -9.700283e-18 0.11747904)
(-0.00098553091 -8.8980452e-18 0.1118813)
(-0.00086668646 -8.2836673e-18 0.10650505)
(-0.00076296139 -7.5976905e-18 0.10132039)
(-0.00067165046 -7.0046839e-18 0.09627323)
(-0.00059018261 -6.3234037e-18 0.091281691)
(-0.00051619108 -5.331668e-18 0.086233755)
(-0.0004475773 -4.050365e-18 0.080986318)
(-0.00038257571 -2.9017272e-18 0.075365969)
(-0.00031983333 -1.5090248e-18 0.069172126)
(-0.00025849372 -3.0862982e-19 0.062183117)
(-0.00019831417 4.5726852e-19 0.054165638)
(-0.00013975343 8.4483645e-19 0.044887639)
(-8.4421726e-05 9.4145863e-19 0.03413527)
(-3.5711637e-05 5.4925616e-19 0.021737206)
(-2.7642998e-06 1.5923896e-19 0.0075996594)
(-1.1107825e-05 -1.0821016e-18 0.12998477)
(-0.00015981606 -2.6424089e-18 0.3074117)
(-0.00042323678 -3.9062096e-18 0.42510568)
(-0.00078346304 -4.9709981e-18 0.49073302)
(-0.001217659 -5.2782608e-18 0.51325662)
(-0.0017006563 -4.9304717e-18 0.5030217)
(-0.0021994115 -5.7111161e-18 0.47094482)
(-0.0026764408 -6.4434529e-18 0.42719563)
(-0.0030951673 -6.2161605e-18 0.37998477)
(-0.0034262121 -6.2780683e-18 0.33494778)
(-0.0036514818 -6.3416756e-18 0.29522302)
(-0.0037651511 -6.751043e-18 0.26198795)
(-0.0037721138 -6.8000139e-18 0.23513389)
(-0.0036851647 -6.9223495e-18 0.21385816)
(-0.0035219368 -7.2254717e-18 0.19708846)
(-0.0033021719 -7.7365012e-18 0.18374388)
(-0.0030455278 -7.7735996e-18 0.17287252)
(-0.0027699532 -8.3631015e-18 0.16370799)
(-0.0024906002 -9.1462514e-18 0.15567742)
(-0.0022192444 -9.6967251e-18 0.14838283)
(-0.0019641734 -1.0085405e-17 0.14156964)
(-0.0017304492 -1.0423794e-17 0.13509112)
(-0.0015204304 -1.05097e-17 0.12887439)
(-0.001334411 -9.8409816e-18 0.12289104)
(-0.0011712478 -9.5336643e-18 0.11713374)
(-0.0010289021 -8.8564326e-18 0.11159883)
(-0.00090485155 -8.0862537e-18 0.10627387)
(-0.00079637677 -7.5539441e-18 0.101129)
(-0.00070074903 -6.980203e-18 0.096111046)
(-0.00061535249 -6.4593008e-18 0.09113946)
(-0.00053776776 -5.4957271e-18 0.086103786)
(-0.00046584145 -4.2966728e-18 0.080862597)
(-0.00039775715 -2.8710654e-18 0.075244238)
(-0.00033212236 -1.5066972e-18 0.06904993)
(-0.00026804818 -3.2869529e-19 0.062059829)
(-0.00020528112 5.5693588e-19 0.054042506)
(-0.00014429495 8.9308597e-19 0.044768081)
(-8.681642e-05 8.1021767e-19 0.034026044)
(-3.6452588e-05 6.1395867e-19 0.021651377)
(-2.7426271e-06 1.7963958e-19 0.007560689)
(-1.0748962e-05 -5.2045226e-19 0.13223759)
(-0.00015438041 -2.0550088e-18 0.31338213)
(-0.00040931181 -3.1306618e-18 0.4342625)
(-0.00075864091 -3.4936407e-18 0.5024455)
(-0.0011810597 -5.0308266e-18 0.52674301)
(-0.0016531941 -6.2002295e-18 0.5173643)
(-0.0021440674 -5.9132435e-18 0.48518228)