/*--------------------------------*- C++ -*----------------------------------*\
| =========                 |                                                 |
| \\      /  F ield         | OpenFOAM: The Open Source CFD Toolbox           |
|  \\    /   O peration     | Version:  3.0.1                                 |
|   \\  /    A nd           | Web:      www.OpenFOAM.org                      |
|    \\/     M anipulation  |                                                 |
\*---------------------------------------------------------------------------*/
FoamFile
{
    version     2.0;
    format      ascii;
    class       surfaceScalarField;
    location    "2294";
    object      phi;
}
// * * * * * * * * * * * * * * * * * * * * * * * * * * * * * * * * * * * * * //

dimensions      [1 0 -1 0 0 0 0];

internalField   nonuniform List<scalar> 
31720
(
8.5672228e-10
2.8914797e-09
2.8495256e-09
8.7490425e-09
5.4023871e-09
1.5159243e-08
8.0292449e-09
2.1931101e-08
1.0398366e-08
2.8868135e-08
1.2339587e-08
3.5806052e-08
1.3814317e-08
4.263548e-08
1.4869155e-08
4.9306679e-08
1.5591251e-08
5.5819337e-08
1.60754e-08
6.220492e-08
1.6405121e-08
6.8508932e-08
1.6645031e-08
7.4777531e-08
1.6840351e-08
8.1049599e-08
1.7019833e-08
8.7353367e-08
1.7199804e-08
9.3706012e-08
1.7387931e-08
1.0011483e-07
1.7586333e-08
1.0657906e-07
1.7793845e-08
1.1309171e-07
1.8007659e-08
1.1964131e-07
1.8224473e-08
1.2621326e-07
1.8441517e-08
1.3279086e-07
1.8657806e-08
1.3935578e-07
1.8869122e-08
1.4589512e-07
1.9070763e-08
1.5239408e-07
1.9258978e-08
1.5883775e-07
1.9430739e-08
1.6521349e-07
1.9583497e-08
1.7151126e-07
1.9715106e-08
1.7772407e-07
1.982374e-08
1.838484e-07
1.9907863e-08
1.8988465e-07
1.9966093e-08
1.9583762e-07
1.9997382e-08
2.0171668e-07
2.0000874e-08
2.0753631e-07
1.9975966e-08
2.1331646e-07
1.9922275e-08
2.1908297e-07
1.9839541e-08
2.24868e-07
1.9727661e-08
2.3071028e-07
1.9586652e-08
2.3665557e-07
1.9416646e-08
2.4275694e-07
1.9217885e-08
2.490752e-07
1.8990638e-08
2.5567916e-07
1.873533e-08
2.6264601e-07
1.8452335e-08
2.7006156e-07
1.8142133e-08
2.7802059e-07
1.7805201e-08
2.8662695e-07
1.744206e-08
2.9599379e-07
1.7053243e-08
3.0624358e-07
1.6639254e-08
3.17508e-07
1.6200694e-08
3.2992774e-07
1.5738168e-08
3.4365201e-07
1.5252267e-08
3.5883771e-07
1.4743685e-08
3.7564831e-07
1.4213195e-08
3.9425212e-07
1.366168e-08
4.1481985e-07
1.3090127e-08
4.3752137e-07
1.2499777e-08
4.6252106e-07
1.1892167e-08
4.8997175e-07
1.1269169e-08
5.200064e-07
1.0633098e-08
5.5272706e-07
9.9869907e-09
5.8819028e-07
9.3344274e-09
6.26388e-07
8.6798962e-09
6.672231e-07
8.0285992e-09
7.1047879e-07
7.3862744e-09
7.557818e-07
6.7589506e-09
8.0256032e-07
6.1518215e-09
8.4999942e-07
5.5687893e-09
8.969989e-07
5.0109001e-09
9.4213949e-07
4.4762824e-09
9.8366236e-07
3.9606231e-09
1.0194592e-06
3.4606077e-09
1.047055e-06
2.9789874e-09
1.0635475e-06
2.5298152e-09
1.0654547e-06
2.1384223e-09
1.048451e-06
1.8284512e-09
1.0070553e-06
1.5936438e-09
9.3446706e-07
1.3682893e-09
8.2278712e-07
1.0346795e-09
6.6362484e-07
5.1293892e-10
4.4853718e-07
1.6849726e-07
-1.0562977e-10
2.9971094e-09
-3.7658705e-10
9.0199998e-09
-7.7515066e-10
1.5557806e-08
-1.2823791e-09
2.2438329e-08
-1.8911045e-09
2.9476862e-08
-2.5872386e-09
3.6502185e-08
-3.3361698e-09
4.3384412e-08
-4.0823335e-09
5.0052843e-08
-4.7599254e-09
5.6496929e-08
-5.3072565e-09
6.2752252e-08
-5.6779027e-09
6.8879578e-08
-5.8456562e-09
7.4945285e-08
-5.803914e-09
8.1007857e-08
-5.5617096e-09
8.7111161e-08
-5.1386239e-09
9.3282925e-08
-4.5600451e-09
9.9536258e-08
-3.8534572e-09
1.0587247e-07
-3.0458525e-09
1.122841e-07
-2.1621467e-09
1.1875761e-07
-1.2243513e-09
1.2527546e-07
-2.5121773e-10
1.3181772e-07
7.4146282e-10
1.383631e-07
1.7396081e-09
1.4489698e-07
2.7308878e-09
1.5140279e-07
3.7048931e-09
1.5786374e-07
4.6530715e-09
1.6426532e-07
5.5686244e-09
1.705957e-07
6.446804e-09
1.768459e-07
7.2856293e-09
1.8300957e-07
8.0838927e-09
1.8908639e-07
8.8341745e-09
1.9508735e-07
9.5317794e-09
2.0101907e-07
1.017374e-08
2.0689435e-07
1.0758149e-08
2.1273205e-07
1.1283893e-08
2.1855723e-07
1.1750418e-08
2.2440146e-07
1.2157663e-08
2.3030304e-07
1.250599e-08
2.3630725e-07
1.2796158e-08
2.4246677e-07
1.302924e-08
2.4884212e-07
1.3206541e-08
2.5550186e-07
1.332957e-08
2.6252299e-07
1.339994e-08
2.6999119e-07
1.3419396e-08
2.7800113e-07
1.3389706e-08
2.8665663e-07
1.3312681e-08
2.9607083e-07
1.319005e-08
3.063662e-07
1.3023545e-08
3.1767449e-07
1.2814855e-08
3.3013645e-07
1.2565526e-08
3.4390134e-07
1.2277106e-08
3.5912613e-07
1.1951054e-08
3.7597434e-07
1.1588889e-08
3.9461428e-07
1.1192124e-08
4.1521664e-07
1.0762343e-08
4.3795117e-07
1.0301311e-08
4.6298205e-07
9.811318e-09
4.9046178e-07
9.2948403e-09
5.2052283e-07
8.7553583e-09
5.5326659e-07
8.1969846e-09
5.8874868e-07
7.6250058e-09
6.2695996e-07
7.0460337e-09
6.6780205e-07
6.4679304e-09
7.1105693e-07
5.8993476e-09
7.5635038e-07
5.3492915e-09
8.0311038e-07
4.825651e-09
8.5052309e-07
4.3333816e-09
8.9749114e-07
3.8728612e-09
9.4259997e-07
3.4389239e-09
9.8409636e-07
3.0220429e-09
1.019876e-06
2.6145524e-09
1.0474625e-06
2.2192727e-09
1.0639428e-06
1.8589544e-09
1.065815e-06
1.5761965e-09
1.0487338e-06
1.4098194e-09
1.0072217e-06
1.3462289e-09
9.3453053e-07
1.2729283e-09
8.2286048e-07
1.0059555e-09
6.638918e-07
4.679618e-10
4.4907509e-07
1.689653e-07
-1.7098175e-10
3.1680913e-09
-6.7358853e-10
9.5226064e-09
-1.5037774e-09
1.6387995e-08
-2.6385723e-09
2.3573124e-08
-4.0372537e-09
3.0875542e-08
-5.6407241e-09
3.8105657e-08
-7.369973e-09
4.511366e-08
-9.1281448e-09
5.1811015e-08
-1.0809273e-08
5.8178057e-08
-1.2311982e-08
6.4254962e-08
-1.3553128e-08
7.0120722e-08
-1.447667e-08
7.5868827e-08
-1.5056074e-08
8.1587261e-08
-1.5291238e-08
8.7346326e-08
-1.5202344e-08
9.3194031e-08
-1.48229e-08
9.9156812e-08
-1.4193471e-08
1.0524305e-07
-1.3356852e-08
1.1144748e-07
-1.2354709e-08
1.1775546e-07
-1.1225742e-08
1.2414649e-07
-1.0005067e-08
1.3059705e-07
-8.724902e-09
1.3708294e-07
-7.4097853e-09
1.4358186e-07
-6.0796662e-09
1.5007267e-07
-4.7516387e-09
1.5653571e-07
-3.4399378e-09
1.6295363e-07
-2.1561087e-09
1.6931187e-07
-9.0908438e-10
1.7559888e-07
2.9440274e-10
1.8180608e-07
1.4486717e-09
1.8793212e-07
2.5473538e-09
1.9398867e-07
3.5850827e-09
1.9998133e-07
4.5581332e-09
2.059213e-07
5.464931e-09
2.1182527e-07
6.3073661e-09
2.1771478e-07
7.0829202e-09
2.2362592e-07
7.7870731e-09
2.2959887e-07
8.4180338e-09
2.3567629e-07
8.9754426e-09
2.4190937e-07
9.4597743e-09
2.4835779e-07
9.872105e-09
2.5508952e-07
1.021404e-08
2.6218106e-07
1.0487441e-08
2.6971778e-07
1.0694491e-08
2.7779409e-07
1.0837451e-08
2.8651367e-07
1.0918767e-08
2.9598954e-07
1.0940801e-08
3.0634414e-07
1.0906095e-08
3.177092e-07
1.0817076e-08
3.3022548e-07
1.0676089e-08
3.4404231e-07
1.0485512e-08
3.5931671e-07
1.0247602e-08
3.7621224e-07
9.9646565e-09
3.9489723e-07
9.6389825e-09
4.1554234e-07
9.27292e-09
4.3831722e-07
8.8691042e-09
4.6338587e-07
8.4304218e-09
4.9090045e-07
7.9603242e-09
5.2099294e-07
7.4628557e-09
5.5376402e-07
6.9431485e-09
5.892684e-07
6.4073415e-09
6.2749579e-07
5.8628868e-09
6.6834652e-07
5.3185364e-09
7.1160131e-07
4.7838165e-09
7.5688501e-07
4.2688385e-09
8.0362543e-07
3.7819986e-09
8.5100987e-07
3.3292944e-09
8.9794392e-07
2.9114915e-09
9.4301779e-07
2.5239155e-09
9.8448385e-07
2.1581317e-09
1.0202418e-06
1.8070536e-09
1.0478136e-06
1.4736642e-09
1.0642761e-06
1.179848e-09
1.0661089e-06
9.6324022e-10
1.0489503e-06
8.5500231e-10
1.0073301e-06
8.3434491e-10
9.3455118e-07
7.9752526e-10
8.2289726e-07
6.061011e-10
6.6408333e-07
2.5122127e-10
4.4943001e-07
1.6921645e-07
-1.6859774e-10
3.3366889e-09
-6.8495931e-10
1.0038968e-08
-1.5756259e-09
1.7278661e-08
-2.849613e-09
2.4847111e-08
-4.4935529e-09
3.2519481e-08
-6.4666227e-09
4.0078727e-08
-8.6970669e-09
4.7344104e-08
-1.1083061e-08
5.419701e-08
-1.3500452e-08
6.0595445e-08
-1.5817032e-08
6.6571544e-08
-1.7909699e-08
7.2213388e-08
-1.967921e-08
7.7638338e-08
-2.1058875e-08
8.2966927e-08
-2.2016252e-08
8.8303702e-08
-2.2549339e-08
9.3727119e-08
-2.267974e-08
9.9287213e-08
-2.2445015e-08
1.0500832e-07
-2.1891743e-08
1.1089421e-07
-2.1070061e-08
1.1693378e-07
-2.0029749e-08
1.2310618e-07
-1.8817822e-08
1.2938512e-07
-1.7477007e-08
1.3574213e-07
-1.6044206e-08
1.4214905e-07
-1.4550699e-08
1.4857917e-07
-1.3023002e-08
1.5500802e-07
-1.1483402e-08
1.6141402e-07
-9.95059e-09
1.6777906e-07
-8.4406024e-09
1.740889e-07
-6.9684324e-09
1.8033391e-07
-5.546948e-09
1.8651064e-07
-4.1807517e-09
1.9262246e-07
-2.8749843e-09
1.9867557e-07
-1.6341262e-09
2.0468045e-07
-4.6133548e-10
2.1065247e-07
6.4152923e-10
2.1661192e-07
1.67186e-09
2.2259559e-07
2.6269346e-09
2.286438e-07
3.5059218e-09
2.347973e-07
4.3116727e-09
2.4110362e-07
5.0403333e-09
2.4762911e-07
5.6893285e-09
2.5444052e-07
6.2583418e-09
2.6161206e-07
6.7482678e-09
2.6922785e-07
7.1607028e-09
2.7738165e-07
7.4977545e-09
2.8617663e-07
7.7618002e-09
2.9572549e-07
7.9554514e-09
3.0615049e-07
8.0813768e-09
3.1758324e-07
8.1424373e-09
3.3016445e-07
8.1413684e-09
3.440434e-07
8.0809418e-09
3.5937712e-07
7.9639874e-09
3.7632918e-07
7.7933123e-09
3.9506791e-07
7.5717174e-09
4.1576393e-07
7.3021452e-09
4.3858677e-07
6.9877986e-09
4.6370023e-07
6.6320802e-09
4.9125613e-07
6.2391539e-09
5.2138592e-07
5.81357e-09
5.5418957e-07
5.3611638e-09
5.8972082e-07
4.8887082e-09
6.2796823e-07
4.4044162e-09
6.6883083e-07
3.9176643e-09
7.1208804e-07
3.438917e-09
7.5736377e-07
2.9787054e-09
8.040857e-07
2.5462202e-09
8.5144228e-07
2.1481327e-09
8.9834204e-07
1.7859753e-09
9.4337991e-07
1.4561866e-09
9.848137e-07
1.1514819e-09
1.0205465e-06
8.6768487e-10
1.0480974e-06
6.0919783e-10
1.0645346e-06
3.9539313e-10
1.0663228e-06
2.5918279e-10
1.0490865e-06
2.2460697e-10
1.0073646e-06
2.6978587e-10
9.3450593e-07
3.1018982e-10
8.2285693e-07
2.5043465e-10
6.6414303e-07
9.9265674e-11
4.4958117e-07
1.6931573e-07
-1.4903548e-10
3.4857238e-09
-6.1607273e-10
1.0506006e-08
-1.441888e-09
1.8104476e-08
-2.6567416e-09
2.6061965e-08
-4.2734171e-09
3.4136157e-08
-6.2794437e-09
4.2084754e-08
-8.6300784e-09
4.9694738e-08
-1.1244789e-08
5.6811722e-08
-1.4010226e-08
6.3360881e-08
-1.679087e-08
6.9352189e-08
-1.9445468e-08
7.4867984e-08
-2.1844691e-08
8.0037563e-08
-2.3885323e-08
8.5007559e-08
-2.5498025e-08
8.9916402e-08
-2.6648476e-08
9.4877568e-08
-2.7333475e-08
9.9972213e-08
-2.7574283e-08
1.0524913e-07
-2.7409177e-08
1.1072911e-07
-2.6886627e-08
1.1641123e-07
-2.6059681e-08
1.2227924e-07
-2.4981829e-08
1.2830727e-07
-2.3704056e-08
1.3446435e-07
-2.2272885e-08
1.4071789e-07
-2.0729583e-08
1.4703587e-07
-1.9110044e-08
1.5338847e-07
-1.74451e-08
1.5974908e-07
-1.5761056e-08
1.6609502e-07
-1.4080365e-08
1.7240821e-07
-1.2422208e-08
1.7867576e-07
-1.0802192e-08
1.8489062e-07
-9.2314299e-09
1.910517e-07
-7.7187635e-09
1.9716291e-07
-6.2716263e-09
2.032333e-07
-4.8968374e-09
2.0927768e-07
-3.6025253e-09
2.1531759e-07
-2.3908916e-09
2.2138396e-07
-1.2609353e-09
2.2751385e-07
-2.1249383e-10
2.3374885e-07
7.5481647e-10
2.4013631e-07
1.6397075e-09
2.4674422e-07
2.441361e-09
2.5363885e-07
3.1613949e-09
2.6089204e-07
3.8005571e-09
2.6858869e-07
4.3565146e-09
2.768257e-07
4.8295639e-09
2.8570357e-07
5.2214015e-09
2.9533366e-07
5.5343502e-09
3.0583756e-07
5.7710722e-09
3.1734649e-07
5.9346609e-09
3.3000088e-07
6.028136e-09
3.439499e-07
6.0547616e-09
3.5935051e-07
6.0176945e-09
3.7636623e-07
5.9202762e-09
3.9516533e-07
5.7658651e-09
4.1591836e-07
5.5579316e-09
4.3879471e-07
5.3001869e-09
4.6395794e-07
4.996838e-09
4.9155953e-07
4.6523516e-09
5.2173038e-07
4.2721881e-09
5.5456973e-07
3.8626923e-09
5.9013035e-07
3.4312771e-09
6.2839963e-07
2.9868199e-09
6.6927528e-07
2.5394195e-09
7.1253547e-07
2.0999779e-09
7.5780317e-07
1.6798154e-09
8.0450591e-07
1.2889266e-09
8.5183317e-07
9.3555125e-10
8.9869536e-07
6.2219166e-10
9.4369331e-07
3.4598834e-10
9.8508982e-07
1.015517e-10
1.020791e-06
-1.1447581e-10
1.0483134e-06
-2.9693473e-10
1.064717e-06
-4.2702395e-10
1.0664529e-06
-4.7560946e-10
1.049135e-06
-4.2325927e-10
1.0073124e-06
-2.9027538e-10
9.3437301e-07
-1.4389688e-10
8.2271047e-07
-5.2909336e-11
6.6405199e-07
-1.9283195e-11
4.4954767e-07
1.6929647e-07
-1.3507922e-10
3.620803e-09
-5.6247508e-10
1.0933402e-08
-1.3265328e-09
1.8868534e-08
-2.465863e-09
2.7201295e-08
-4.0072403e-09
3.5677535e-08
-5.9577459e-09
4.4035259e-08
-8.2963742e-09
5.2033367e-08
-1.0967535e-08
5.9482882e-08
-1.3879476e-08
6.6272823e-08
-1.6909913e-08
7.2382625e-08
-1.9918678e-08
7.787675e-08
-2.2764479e-08
8.2883362e-08
-2.5321245e-08
8.7564327e-08
-2.7490285e-08
9.2085441e-08
-2.9206321e-08
9.6593605e-08
-3.0437755e-08
1.0120365e-07
-3.11827e-08
1.0599407e-07
-3.1462762e-08
1.1100917e-07
-3.1316221e-08
1.1626468e-07
-3.0791656e-08
1.2175468e-07
-2.9942678e-08
1.2745829e-07
-2.8823802e-08
1.3334548e-07
-2.7487541e-08
1.3938163e-07
-2.5982591e-08
1.4553092e-07
-2.4352861e-08
1.5175874e-07
-2.2637147e-08
1.5803336e-07
-2.0869242e-08
1.6432712e-07
-1.9078248e-08
1.7061721e-07
-1.728886e-08
1.7688637e-07
-1.5521526e-08
1.8312328e-07
-1.3792576e-08
1.8932275e-07
-1.2115153e-08
1.9548548e-07
-1.0500065e-08
2.0161822e-07
-8.9564487e-09
2.0773408e-07
-7.4920889e-09
2.1385322e-07
-6.1117081e-09
2.2000359e-07
-4.8180063e-09
2.2622015e-07
-3.6136996e-09
2.3254453e-07
-2.5036349e-09
2.3902626e-07
-1.4853093e-09
2.457259e-07
-5.5623555e-10
2.5270977e-07
2.8527598e-10
2.6005056e-07
1.0399513e-09
2.6783398e-07
1.7079692e-09
2.7615771e-07
2.2907045e-09
2.8512083e-07
2.7908582e-09
2.9483351e-07
3.2074152e-09
3.0542099e-07
3.5418273e-09
3.1701208e-07
3.7966377e-09
3.2974608e-07
3.9749136e-09
3.4377164e-07
4.0799611e-09
3.5924544e-07
4.1153834e-09
3.7633082e-07
4.0847694e-09
3.9519594e-07
3.9919083e-09
4.1601121e-07
3.8407118e-09
4.3894587e-07
3.6354603e-09
4.6416323e-07
3.3806093e-09
4.9181436e-07
3.0813579e-09
5.2202965e-07
2.7434731e-09
5.5490755e-07
2.3739866e-09
5.9049986e-07
1.9808447e-09
6.2879279e-07
1.5734461e-09
6.6968267e-07
1.1627438e-09
7.1294617e-07
7.6071407e-10
7.5820518e-07
3.793304e-10
8.048873e-07
2.9511247e-11
8.5218293e-07
-2.7993055e-10
8.9900482e-07
-5.4529087e-10
9.4395871e-07
-7.6791652e-10
9.8531238e-07
-9.5182936e-10
1.0209749e-06
-1.1005653e-09
1.0484622e-06
-1.208527e-09
1.0648249e-06
-1.2557436e-09
1.0665002e-06
-1.2146583e-09
1.0490938e-06
-1.066588e-09
1.0071644e-06
-8.2758845e-10
9.3413386e-07
-5.5259219e-10
8.2243554e-07
-3.0312396e-10
6.6380268e-07
-1.0796911e-10
4.4935247e-07
1.6918836e-07
-1.2313471e-10
3.7439378e-09
-5.1529257e-10
1.132556e-08
-1.2214551e-09
1.9574696e-08
-2.2837884e-09
2.8263628e-08
-3.736567e-09
3.7130314e-08
-5.5991625e-09
4.5897853e-08
-7.8677846e-09
5.430199e-08
-1.0507811e-08
6.2122907e-08
-1.3449362e-08
6.9214377e-08
-1.6588812e-08
7.5522074e-08
-1.9797175e-08
8.1085112e-08
-2.2934013e-08
8.6020202e-08
-2.5863382e-08
9.0493695e-08
-2.846791e-08
9.4689968e-08
-3.0658305e-08
9.8784e-08
-3.237738e-08
1.0292272e-07
-3.3599298e-08
1.0721599e-07
-3.4325497e-08
1.1173537e-07
-3.4578983e-08
1.1651817e-07
-3.4398203e-08
1.2157389e-07
-3.3831346e-08
1.2689143e-07
-3.2931564e-08
1.3244569e-07
-3.1753222e-08
1.3820329e-07
-3.0349198e-08
1.441269e-07
-2.8769096e-08
1.5017864e-07
-2.7058207e-08
1.5632247e-07
-2.5257013e-08
1.6252592e-07
-2.340105e-08
1.6876125e-07
-2.1521017e-08
1.7500633e-07
-1.9642896e-08
1.8124516e-07
-1.7788283e-08
1.8746813e-07
-1.5974954e-08
1.9367216e-07
-1.4217569e-08
1.9986083e-07
-1.2528156e-08
2.0604467e-07
-1.0916387e-08
2.1224145e-07
-9.3893745e-09
2.1847659e-07
-7.9522687e-09
2.2478303e-07
-6.6090554e-09
2.3120131e-07
-5.3629914e-09
2.377802e-07
-4.2145639e-09
2.4457747e-07
-3.1635757e-09
2.5165878e-07
-2.2110284e-09
2.5909801e-07
-1.3563949e-09
2.6697936e-07
-5.9535351e-10
2.7539664e-07
7.4920843e-11
2.8445056e-07
6.5655574e-10
2.942519e-07
1.1505906e-09
3.0492695e-07
1.5588335e-09
3.1660382e-07
1.8842563e-09
3.2942069e-07
2.1294728e-09
3.4352641e-07
2.2965775e-09
3.590783e-07
2.3889135e-09
3.7623851e-07
2.4102322e-09
3.9517465e-07
2.3645743e-09
4.1605682e-07
2.2564605e-09
4.3905401e-07
2.0904727e-09
4.6432923e-07
1.8717072e-09
4.9203315e-07
1.6057469e-09
5.2229556e-07
1.2992601e-09
5.5521407e-07
9.5979274e-10
5.9083935e-07
5.9590345e-10
6.2915665e-07
2.177506e-10
6.700608e-07
-1.6293243e-10
7.1332691e-07
-5.3358463e-10
7.5857575e-07
-8.8113291e-10
8.0523489e-07
-1.1940219e-09
8.5249583e-07
-1.464008e-09
8.9927478e-07
-1.685939e-09
9.4418065e-07
-1.8596055e-09
9.8548604e-07
-1.9878303e-09
1.0211031e-06
-2.0723266e-09
1.0485467e-06
-2.1062452e-09
1.0648589e-06
-2.0701961e-09
1.0664641e-06
-1.9371365e-09
1.0489607e-06
-1.6885089e-09
1.0069158e-06
-1.3359741e-09
9.3378127e-07
-9.266003e-10
8.2202627e-07
-5.221709e-10
6.6339813e-07
-1.8053489e-10
4.4901097e-07
1.6900773e-07
-1.1369699e-10
3.8576347e-09
-4.7720472e-10
1.1689068e-08
-1.1346566e-09
2.0232148e-08
-2.1291762e-09
2.9258147e-08
-3.4987509e-09
3.8499889e-08
-5.2702034e-09
4.7669306e-08
-7.4515959e-09
5.6483382e-08
-1.0024378e-08
6.4695688e-08
-1.2937493e-08
7.2127494e-08
-1.610602e-08
7.86906e-08
-1.9415934e-08
8.4395027e-08
-2.2734775e-08
8.9339042e-08
-2.5925793e-08
9.3684714e-08
-2.8862227e-08
9.76264e-08
-3.1438632e-08
1.0136041e-07
-3.3577695e-08
1.0506178e-07
-3.523228e-08
1.0887057e-07
-3.6383797e-08
1.1288689e-07
-3.7038079e-08
1.1717245e-07
-3.7220164e-08
1.2175598e-07
-3.6968905e-08
1.2664016e-07
-3.6331958e-08
1.3180875e-07
-3.5361632e-08
1.3723297e-07
-3.4111566e-08
1.4287682e-07
-3.2634205e-08
1.4870129e-07
-3.0979222e-08
1.5466748e-07
-2.9192306e-08
1.60739e-07
-2.7314636e-08
1.6688359e-07
-2.5382597e-08
1.7307429e-07
-2.342773e-08
1.7929029e-07
-2.147694e-08
1.8551734e-07
-1.9552891e-08
1.917481e-07
-1.7674438e-08
1.9798238e-07
-1.5857128e-08
2.0422736e-07
-1.4113523e-08
2.1049784e-07
-1.2453399e-08
2.1681647e-07
-1.0884226e-08
2.2321385e-07
-9.4115973e-09
2.2972868e-07
-8.039511e-09
2.3640812e-07
-6.7701162e-09
2.4330806e-07
-5.6043239e-09
2.5049301e-07
-4.5426804e-09
2.5803638e-07
-3.5844717e-09
2.6602114e-07
-2.727546e-09
2.7453972e-07
-1.9704032e-09
2.8369342e-07
-1.3121274e-09
2.9359362e-07
-7.4777932e-10
3.0436259e-07
-2.7397658e-10
3.1613002e-07
1.1234205e-10
3.2903437e-07
4.1395671e-10
3.4322478e-07
6.3365035e-10
3.5885863e-07
7.7462861e-10
3.760975e-07
8.4076965e-10
3.951085e-07
8.362703e-10
4.1606133e-07
7.6567901e-10
4.391246e-07
6.3396107e-10
4.6446094e-07
4.4659431e-10
4.9222053e-07
2.0968688e-10
5.2253246e-07
-6.9689327e-11
5.5549344e-07
-3.8330972e-10
5.9115297e-07
-7.21744e-10
6.2949513e-07
-1.0742204e-09
6.7041323e-07
-1.4284415e-09
7.1368114e-07
-1.7714019e-09
7.5891865e-07
-2.0893132e-09
8.0555288e-07
-2.3700705e-09
8.5277657e-07
-2.604175e-09
8.9950891e-07
-2.7859351e-09
9.4436234e-07
-2.913664e-09
9.8561382e-07
-2.9888671e-09
1.0211783e-06
-3.0115035e-09
1.0485693e-06
-2.9736594e-09
1.064821e-06
-2.85554e-09
1.0663461e-06
-2.6306775e-09
1.0487358e-06
-2.2798345e-09
1.006565e-06
-1.8113125e-09
9.3331267e-07
-1.2676133e-09
8.2148246e-07
-7.1508183e-10
6.6284567e-07
-2.4198899e-10
4.4853785e-07
1.6876579e-07
-1.0582885e-10
3.9634638e-09
-4.4513456e-10
1.2028374e-08
-1.0607462e-09
2.0847759e-08
-1.9956287e-09
3.019303e-08
-3.2895102e-09
3.979377e-08
-4.9737272e-09
4.9353523e-08
-7.0644402e-09
5.8574096e-08
-9.5550928e-09
6.718634e-08
-1.2409896e-08
7.4982297e-08
-1.5560644e-08
8.1841347e-08
-1.8908731e-08
8.7743114e-08
-2.233284e-08
9.2763152e-08
-2.5700869e-08
9.7052742e-08
-2.8883342e-08
1.0080887e-07
-3.1765412e-08
1.0424248e-07
-3.4255349e-08
1.0755172e-07
-3.6288845e-08
1.1090407e-07
-3.7829447e-08
1.1442749e-07
-3.8866245e-08
1.1820925e-07
-3.9409793e-08
1.2229953e-07
-3.9487438e-08
1.2671781e-07
-3.9138557e-08
1.3145987e-07
-3.8410321e-08
1.3650473e-07
-3.7354047e-08
1.4182055e-07
-3.6022299e-08
1.4736954e-07
-3.4466721e-08
1.531119e-07
-3.2736376e-08
1.5900866e-07
-3.0876744e-08
1.6502396e-07
-2.8929047e-08
1.711266e-07
-2.6929908e-08
1.7729116e-07
-2.4911326e-08
1.8349876e-07
-2.2900797e-08
1.8973758e-07
-2.092166e-08
1.9600324e-07
-1.8993399e-08
2.0229909e-07
-1.7131985e-08
2.0863643e-07
-1.5350249e-08
2.1503474e-07
-1.3658259e-08
2.2152185e-07
-1.2063638e-08
2.2813407e-07
-1.0571966e-08
2.3491645e-07
-9.1868823e-09
2.4192297e-07
-7.9105038e-09
2.4921663e-07
-6.7438121e-09
2.5686967e-07
-5.6865286e-09
2.6496387e-07
-4.7374314e-09
2.7359061e-07
-3.8948512e-09
2.8285084e-07
-3.156659e-09
2.9285543e-07
-2.5193837e-09
3.0372529e-07
-1.9795975e-09
3.1559027e-07
-1.5346045e-09
3.2858936e-07
-1.180837e-09
3.4287103e-07
-9.1380225e-10
3.5859157e-07
-7.2942825e-10
3.7591315e-07
-6.2371881e-10
3.9500275e-07
-5.9211964e-10
4.1602976e-07
-6.2989242e-10
4.3916241e-07
-7.3184401e-10
4.6456284e-07
-8.9194005e-10
4.9238064e-07
-1.1036553e-09
5.2274418e-07
-1.3595067e-09
5.5574926e-07
-1.6507864e-09
5.9144431e-07
-1.9674805e-09
6.2981175e-07
-2.2977811e-09
6.7074359e-07
-2.6290547e-09
7.1401238e-07
-2.9474463e-09
7.5923702e-07
-3.2387935e-09
8.0584428e-07
-3.4903035e-09
8.53028e-07
-3.6914278e-09
8.9971011e-07
-3.8356889e-09
9.445066e-07
-3.920323e-09
9.8569845e-07
-3.9451903e-09
1.0212032e-06
-3.9085635e-09
1.0485327e-06
-3.8014629e-09
1.0647138e-06
-3.6035406e-09
1.0661483e-06
-3.2885574e-09
1.0484207e-06
-2.8363049e-09
1.0061129e-06
-2.2526e-09
9.3272883e-07
-1.5778423e-09
8.2080769e-07
-8.8653621e-10
6.6215452e-07
-2.9520543e-10
4.4794633e-07
1.6847059e-07
-9.9231962e-11
4.0626957e-09
-4.1802647e-10
1.2347168e-08
-9.9772694e-10
2.1427459e-08
-1.8805715e-09
3.1075874e-08
-3.1068956e-09
4.1020095e-08
-4.7107353e-09
5.0957363e-08
-6.713804e-09
6.0577165e-08
-9.1184608e-09
6.9590996e-08
-1.1901057e-08
7.7764893e-08
-1.5007666e-08
8.4947958e-08
-1.835411e-08
9.1089557e-08
-2.1831157e-08
9.6240199e-08
-2.531424e-08
1.0053582e-07
-2.8675559e-08
1.0417019e-07
-3.1795934e-08
1.0736285e-07
-3.4574198e-08
1.1032999e-07
-3.6933047e-08
1.1326292e-07
-3.8821222e-08
1.1631567e-07
-4.0212737e-08
1.1960076e-07
-4.110409e-08
1.2319089e-07
-4.1510432e-08
1.2712415e-07
-4.1461365e-08
1.314108e-07
-4.0996819e-08
1.3604019e-07
-4.0163466e-08
1.4098719e-07
-3.9011549e-08
1.4621763e-07
-3.7592429e-08
1.5169278e-07
-3.5956583e-08
1.5737281e-07
-3.4152162e-08
1.6321954e-07
-3.2223995e-08
1.6919843e-07
-3.0212912e-08
1.7528008e-07
-2.8155431e-08
1.8144127e-07
-2.6083635e-08
1.8766578e-07
-2.402525e-08
1.9394487e-07
-2.2003912e-08
2.0027775e-07
-2.0039339e-08
2.0667186e-07
-1.8147718e-08
2.1314313e-07
-1.634202e-08
2.1971615e-07
-1.4632373e-08
2.2642441e-07
-1.3026348e-08
2.3331043e-07
-1.1529356e-08
2.4042596e-07
-1.0144824e-08
2.4783212e-07
-8.8747306e-09
2.5559956e-07
-7.7195374e-09
2.638087e-07
-6.6786627e-09
2.7254974e-07
-5.7506274e-09
2.8192279e-07
-4.9331816e-09
2.9203799e-07
-4.2232795e-09
3.0301538e-07
-3.6175121e-09
3.1498452e-07
-3.1124658e-09
3.2808432e-07
-2.7041612e-09
3.4246273e-07
-2.3881848e-09
3.5827556e-07
-2.1599543e-09
3.7568494e-07
-2.0149407e-09
3.9485773e-07
-1.9481969e-09
4.1596303e-07
-1.9544492e-09
4.3916869e-07
-2.0280168e-09
4.6463637e-07
-2.1624123e-09
4.9251505e-07
-2.350541e-09
5.2293232e-07
-2.5843481e-09
5.5598305e-07
-2.8545218e-09
5.9171451e-07
-3.1504349e-09
6.3010764e-07
-3.4599033e-09
6.7105301e-07
-3.7693201e-09
7.1432189e-07
-4.0645162e-09
7.5953221e-07
-4.3307712e-09
8.0611049e-07
-4.5543189e-09
8.5325162e-07
-4.7242713e-09
8.9988e-07
-4.8328358e-09
9.4461517e-07
-4.8761604e-09
9.8574185e-07
-4.8528597e-09
1.0211798e-06
-4.7593389e-09
1.0484393e-06
-4.5854578e-09
1.0645399e-06
-4.3105623e-09
1.0658733e-06
-3.9075766e-09
1.0480178e-06
-3.3562289e-09
1.0055615e-06
-2.6600136e-09
9.3203262e-07
-1.8597416e-09
8.2000752e-07
-1.039772e-09
6.6133455e-07
-3.4176097e-10
4.4724833e-07
1.681288e-07
-9.3581282e-11
4.1562771e-09
-3.9468837e-10
1.2648275e-08
-9.4316951e-10
2.1975941e-08
-1.7802772e-09
3.1912982e-08
-2.9463236e-09
4.2186142e-08
-4.4769022e-09
5.2487941e-08
-6.3975533e-09
6.2497816e-08
-8.7172954e-09
7.1910737e-08
-1.1422088e-08
8.0469687e-08
-1.4469977e-08
8.7995846e-08
-1.7789686e-08
9.4409267e-08
-2.1283867e-08
9.9734379e-08
-2.4836787e-08
1.0408875e-07
-2.8324984e-08
1.0765839e-07
-3.1628503e-08
1.1066637e-07
-3.4640674e-08
1.1334216e-07
-3.7274908e-08
1.1589715e-07
-3.9468216e-08
1.1850897e-07
-4.1181778e-08
1.2131432e-07
-4.2399314e-08
1.2440842e-07
-4.3124137e-08
1.2784898e-07
-4.3375557e-08
1.3166222e-07
-4.3185205e-08
1.3584983e-07
-4.2593471e-08
1.4039546e-07
-4.1646491e-08
1.4527065e-07
-4.0393411e-08
1.5043969e-07
-3.8884261e-08
1.5586365e-07
-3.7168213e-08
1.615035e-07
-3.5292288e-08
1.6732251e-07
-3.3300419e-08
1.732882e-07
-3.1232768e-08
1.7937363e-07
-2.9125459e-08
1.8555846e-07
-2.7010337e-08
1.9182976e-07
-2.4915099e-08
1.9818251e-07
-2.2863308e-08
2.0462007e-07
-2.0874716e-08
2.1115453e-07
-1.8965478e-08
2.1780691e-07
-1.7148517e-08
2.2460746e-07
-1.5433841e-08
2.3159576e-07
-1.3828844e-08
2.3882097e-07
-1.2338707e-08
2.4634196e-07
-1.0966589e-08
2.5422744e-07
-9.7139854e-09
2.6255613e-07
-8.5811474e-09
2.7141685e-07
-7.5669238e-09
2.8090857e-07
-6.6693655e-09
2.9114045e-07
-5.8856834e-09
3.0223168e-07
-5.212459e-09
3.1431131e-07
-4.6460005e-09
3.2751783e-07
-4.181962e-09
3.4199873e-07
-3.8158348e-09
3.579094e-07
-3.5426366e-09
3.7541176e-07
-3.3573562e-09
3.9467245e-07
-3.2546088e-09
4.1586029e-07
-3.2286398e-09
4.3914272e-07
-3.2731886e-09
4.6468091e-07
-3.3813557e-09
4.9262321e-07
-3.5454386e-09
5.2309643e-07
-3.7568278e-09
5.5619442e-07
-4.0056006e-09
5.919633e-07
-4.2805584e-09
6.3038257e-07
-4.5689053e-09
6.7134135e-07
-4.8565351e-09
7.1460959e-07
-5.1286563e-09
7.5980427e-07
-5.3698784e-09
8.063517e-07
-5.5659553e-09
8.5344774e-07
-5.7050948e-09
9.0001916e-07
-5.7788034e-09
9.4468884e-07
-5.7820214e-09
9.8574508e-07
-5.7118285e-09
1.0211096e-06
-5.5633042e-09
1.0482908e-06
-5.3248645e-09
1.0643015e-06
-4.9753121e-09
1.0655238e-06
-4.4873086e-09
1.0475298e-06
-3.8396168e-09
1.0049138e-06
-3.0350348e-09
9.3122803e-07
-2.116067e-09
8.1908855e-07
-1.1772655e-09
6.6039563e-07
-3.8304376e-10
4.4645427e-07
1.677457e-07
-8.868503e-11
4.2449621e-09
-3.7438208e-10
1.2933972e-08
-8.9549408e-10
2.2497053e-08
-1.6921721e-09
3.270966e-08
-2.8043412e-09
4.3298311e-08
-4.2684183e-09
5.3952018e-08
-6.1125843e-09
6.4341983e-08
-8.350862e-09
7.4149015e-08
-1.0976843e-08
8.3095668e-08
-1.3958532e-08
9.0977533e-08
-1.7235966e-08
9.7686703e-08
-2.0722934e-08
1.0322134e-07
-2.4312901e-08
1.0767872e-07
-2.7888232e-08
1.1123372e-07
-3.1330615e-08
1.1410876e-07
-3.4530781e-08
1.1654233e-07
-3.7395905e-08
1.1876228e-07
-3.9854076e-08
1.2096715e-07
-4.1855936e-08
1.2331618e-07
-4.337407e-08
1.2592656e-07
-4.4400894e-08
1.288758e-07
-4.4945716e-08
1.3220704e-07
-4.5031443e-08
1.3593556e-07
-4.469141e-08
1.4005542e-07
-4.3966318e-08
1.4454556e-07
-4.2901697e-08
1.4937507e-07
-4.1545551e-08
1.5450751e-07
-3.994656e-08
1.599045e-07
-3.8152508e-08
1.6552846e-07
-3.6209179e-08
1.7134486e-07
-3.4159396e-08
1.7732385e-07
-3.2042534e-08
1.834416e-07
-2.9894074e-08
1.8968128e-07
-2.7745388e-08
1.9603383e-07
-2.5623836e-08
2.0249852e-07
-2.3552738e-08
2.0908343e-07
-2.1551634e-08
2.158058e-07
-1.9636465e-08
2.2269229e-07
-1.7819919e-08
2.2977923e-07
-1.6111791e-08
2.3711282e-07
-1.4519131e-08
2.447493e-07
-1.3046736e-08
2.5275507e-07
-1.1697464e-08
2.6120685e-07
-1.0472362e-08
2.7019175e-07
-9.371106e-09
2.7980732e-07
-8.3921905e-09
2.9016151e-07
-7.5330253e-09
3.0137254e-07
-6.7903798e-09
3.1356868e-07
-6.1604131e-09
3.2688784e-07
-5.638624e-09
3.4147696e-07
-5.2202e-09
3.5749098e-07
-4.8999701e-09
3.7509151e-07
-4.6723867e-09
3.9444488e-07
-4.5317063e-09
4.1571959e-07
-4.4716181e-09
4.3908265e-07
-4.4854633e-09
4.6469471e-07
-4.5656716e-09
4.9270346e-07
-4.7041628e-09
5.2323488e-07
-4.8915797e-09
5.5638185e-07
-5.117477e-09
5.9218924e-07
-5.3701616e-09
6.3063517e-07
-5.6360445e-09
6.7160732e-07
-5.9007906e-09
7.1487429e-07
-6.1486565e-09
7.6005215e-07
-6.3639278e-09
8.06567e-07
-6.5318111e-09
8.5361563e-07
-6.6397802e-09
9.0012707e-07
-6.6783319e-09
9.4472742e-07
-6.6415091e-09
9.8570828e-07
-6.5250231e-09
1.0209931e-06
-6.3224845e-09
1.0480883e-06
-6.0213033e-09
1.0640002e-06
-5.5993314e-09
1.0651018e-06
-5.028767e-09
1.0469593e-06
-4.2881215e-09
1.0041732e-06
-3.3798449e-09
9.3031978e-07
-2.3491931e-09
8.1805792e-07
-1.3009665e-09
6.5934725e-07
-4.1996107e-10
4.4557345e-07
1.6732574e-07
-8.439024e-11
4.3293522e-09
-3.5651615e-10
1.3206099e-08
-8.5341097e-10
2.2993947e-08
-1.6140962e-09
3.3470345e-08
-2.677896e-09
4.4362111e-08
-4.0815762e-09
5.5355697e-08
-5.8551289e-09
6.6115536e-08
-8.016364e-09
7.6310251e-08
-1.0564961e-08
8.5644264e-08
-1.3477205e-08
9.3889778e-08
-1.6702969e-08
1.0091247e-07
-2.0166201e-08
1.0668457e-07
-2.3769423e-08
1.1128194e-07
-2.7401557e-08
1.1486585e-07
-3.0947488e-08
1.1765468e-07
-3.4297463e-08
1.198923e-07
-3.7354807e-08
1.2181962e-07
-4.004105e-08
1.2365339e-07
-4.2298425e-08
1.2557355e-07
-4.4090113e-08
1.2771824e-07
-4.5398866e-08
1.3018456e-07
-4.6224662e-08
1.3303284e-07
-4.6581909e-08
1.3629281e-07
-4.6496527e-08
1.3997003e-07
-4.6003162e-08
1.440522e-07
-4.5142685e-08
1.4851459e-07
-4.3959907e-08
1.5332474e-07
-4.2501704e-08
1.584463e-07
-4.0815373e-08
1.6384212e-07
-3.8947285e-08
1.6947678e-07
-3.6941906e-08
1.7531847e-07
-3.4840915e-08
1.8134061e-07
-3.2682695e-08
1.8752306e-07
-3.0501901e-08
1.9385304e-07
-2.8329301e-08
2.0032592e-07
-2.6191694e-08
2.0694583e-07
-2.4111976e-08
2.1372608e-07
-2.2109255e-08
2.2068957e-07
-2.0199141e-08
2.2786911e-07
-1.8393919e-08
2.3530762e-07
-1.6702988e-08
2.4305835e-07
-1.5132983e-08
2.5118507e-07
-1.368829e-08
2.5976215e-07
-1.2371237e-08
2.6887468e-07
-1.1182353e-08
2.7861846e-07
-1.0120844e-08
2.8909998e-07
-9.1845681e-09
3.0043627e-07
-8.3705205e-09
3.1275461e-07
-7.6747843e-09
3.2619212e-07
-7.0929287e-09
3.4089508e-07
-6.6198264e-09
3.570179e-07
-6.2501003e-09
3.7472176e-07
-5.9778014e-09
3.9417261e-07
-5.7967481e-09
4.1553854e-07
-5.7002366e-09
4.3898612e-07
-5.6809667e-09
4.6467544e-07
-5.7310067e-09
4.9275351e-07
-5.8416014e-09
5.2334545e-07
-6.0028411e-09
5.5654312e-07
-6.2038072e-09
5.9239018e-07
-6.4319521e-09
6.3086335e-07
-6.6734837e-09
6.7184885e-07
-6.9132207e-09
7.15114e-07
-7.1349694e-09
7.6027394e-07
-7.3225904e-09
8.0675458e-07
-7.4605848e-09
8.5375365e-07
-7.535864e-09
9.0020231e-07
-7.5381839e-09
9.4472974e-07
-7.4605185e-09
9.8563065e-07