/*--------------------------------*- C++ -*----------------------------------*\
| =========                 |                                                 |
| \\      /  F ield         | OpenFOAM: The Open Source CFD Toolbox           |
|  \\    /   O peration     | Version:  3.0.1                                 |
|   \\  /    A nd           | Web:      www.OpenFOAM.org                      |
|    \\/     M anipulation  |                                                 |
\*---------------------------------------------------------------------------*/
FoamFile
{
    version     2.0;
    format      ascii;
    class       volScalarField;
    location    "2294";
    object      Qin;
}
// * * * * * * * * * * * * * * * * * * * * * * * * * * * * * * * * * * * * * //

dimensions      [1 0 -3 0 0 0 0];

internalField   uniform 0;

boundaryField
{
    LeftWedge
    {
        type            wedge;
    }
    RightWedge
    {
        type            wedge;
    }
    Inlet
    {
        type            calculated;
        value           uniform 0;
    }
    Outlet
    {
        type            calculated;
        value           nonuniform List<scalar> 
80
(
2.3967902e-29
2.3967902e-29
2.3967902e-29
2.3967902e-29
2.3967902e-29
2.3967902e-29
2.3967902e-29
2.3967902e-29
2.3967902e-29
2.3967902e-29
2.3967902e-29
2.3967902e-29
2.3967902e-29
2.3967902e-29
2.3967902e-29
2.3967902e-29
2.3967902e-29
2.3967902e-29
2.3967902e-29
2.3967902e-29
2.3967902e-29
2.3967902e-29
2.3967902e-29
2.3967902e-29
2.3967902e-29
2.3967902e-29
2.3967902e-29
2.3967902e-29
2.3967902e-29
2.3967902e-29
2.3967902e-29
2.3967902e-29
2.3967902e-29
2.3967902e-29
2.3967902e-29
2.3967902e-29
2.3967902e-29
2.3967902e-29
2.3967902e-29
2.3967902e-29
2.3967902e-29
2.3967902e-29
2.3967902e-29
2.3967902e-29
2.3967902e-29
2.3967902e-29
2.3967902e-29
2.3967902e-29
2.3967902e-29
2.3967902e-29
2.3967902e-29
2.3967902e-29
2.3967902e-29
2.3967902e-29
2.3967902e-29
2.3967902e-29
2.3967902e-29
2.3967902e-29
2.3967902e-29
2.3967902e-29
2.3967902e-29
2.3967902e-29
2.3967902e-29
2.3967902e-29
2.3967902e-29
2.3967902e-29
2.3967902e-29
2.3967902e-29
2.3967902e-29
2.3967902e-29
2.3967902e-29
2.3967902e-29
2.3967902e-29
2.3967902e-29
2.3967902e-29
2.3967902e-29
2.3967902e-29
2.3967902e-29
2.3967902e-29
2.3967902e-29
)
;
    }
    Outterwall
    {
        type            calculated;
        value           nonuniform List<scalar> 
200
(
1385.8137
1698.3869
1853.8508
1952.174
2022.8869
2077.3981
2121.4285
2158.1395
2189.4839
2216.7369
2240.778
2262.2364
2281.5774
2299.1538
2315.239
2330.0489
2343.7569
2356.5041
2368.4067
2379.5616
2390.0504
2399.9421
2409.2961
2418.1632
2426.5877
2434.6081
2442.2583
2449.568
2456.5634
2463.2681
2469.7028
2475.8862
2481.8351
2487.5645
2493.0883
2498.4188
2503.5675
2508.5447
2513.36
2518.0223
2522.5398
2526.92
2531.17
2535.2965
2539.3055
2543.2029
2546.9941
2550.6843
2554.2781
2557.7801
2561.1945
2564.5254
2567.7766
2570.9514
2574.0533
2577.0855
2580.0508
2582.9521
2585.792
2588.5728
2591.2969
2593.9665
2596.5836
2599.15
2601.6675
2604.1379
2606.5627
2608.9434
2611.2813
2613.5778
2615.8342
2618.0515
2620.231
2622.3738
2624.4807
2626.5529
2628.5913
2630.5967
2632.5701
2634.5124
2636.4243
2638.3067
2640.1603
2641.9859
2643.7843
2645.5561
2647.3022
2649.0231
2650.7196
2652.3923
2654.042
2655.6691
2657.2743
2658.8583
2660.4215
2661.9647
2663.4883
2664.9928
2666.4789
2667.947
2669.3976
2670.8312
2672.2483
2673.6493
2675.0347
2676.4049
2677.7602
2679.1012
2680.4282
2681.7416
2683.0417
2684.3289
2685.6035
2686.8659
2688.1163
2689.3551
2690.5826
2691.799
2693.0045
2694.1996
2695.3843
2696.559
2697.7239
2698.8791
2700.0249
2701.1615
2702.2891
2703.4078
2704.5178
2705.6194
2706.7125
2707.7975
2708.8744
2709.9433
2711.0044
2712.0579
2713.1037
2714.1421
2715.1731
2716.1968
2717.2134
2718.2228
2719.2251
2720.2205
2721.209
2722.1907
2723.1656
2724.1337
2725.0952
2726.05
2726.9983
2727.9399
2728.875
2729.8037
2730.7258
2731.6415
2732.5507
2733.4535
2734.3499
2735.2399
2736.1234
2737.0006
2737.8714
2738.7359
2739.5939
2740.4456
2741.2908
2742.1297
2742.9622
2743.7883
2744.608
2745.4213
2746.2281
2747.0285
2747.8225
2748.61
2749.3911
2750.1656
2750.9337
2751.6953
2752.4503
2753.1988
2753.9408
2754.6762
2755.405
2756.1273
2756.843
2757.5524
2758.2557
2758.9536
2759.6478
2760.3421
2761.0463
2761.7791
2762.5928
2763.5472
2764.7624
2766.372
2770.16
2774.2734
)
;
    }
    Innerwall
    {
        type            calculated;
        value           nonuniform List<scalar> 
200
(
421.9197
421.91926
421.91883
421.91841
421.91798
421.91756
421.91714
421.91672
421.91629
421.91587
421.91545
421.91503
421.91461
421.91419
421.91377
421.91335
421.91293
421.91251
421.91209
421.91166
421.91124
421.91082
421.9104
421.90998
421.90956
421.90914
421.90872
421.9083
421.90788
421.90746
421.90704
421.90662
421.90621
421.90579
421.90537
421.90495
421.90453
421.90412
421.9037
421.90328
421.90286
421.90245
421.90203
421.90161
421.9012
421.90078
421.90036
421.89995
421.89953
421.89911
421.8987
421.89828
421.89787
421.89745
421.89704
421.89662
421.89621
421.89579
421.89538
421.89497
421.89456
421.89415
421.89375
421.89334
421.89294
421.89254
421.89215
421.89176
421.89138
421.891
421.89062
421.89026
421.8899
421.88954
421.8892
421.88886
421.88853
421.8882
421.88789
421.88758
421.88728
421.88699
421.88671
421.88643
421.88616
421.8859
421.88564
421.88539
421.88514
421.8849
421.88466
421.88443
421.8842
421.88398
421.88377
421.88357
421.88337
421.88319
421.88302
421.88287
421.88273
421.88261
421.88252
421.88244
421.88239
421.88236
421.88236
421.88239
421.88245
421.88254
421.88266
421.88281
421.883
421.88322
421.88348
421.88377
421.88409
421.88444
421.88482
421.88524
421.88569
421.88616
421.88666
421.88719
421.88774
421.88832
421.88892
421.88954
421.89018
421.89084
421.89152
421.89221
421.89291
421.89363
421.89436
421.89511
421.89586
421.89662
421.8974
421.89818
421.89896
421.89976
421.90056
421.90137
421.90218
421.903
421.90383
421.90466
421.90549
421.90633
421.90717
421.90802
421.90887
421.90973
421.91059
421.91145
421.91232
421.91319
421.91406
421.91494
421.91581
421.9167
421.91758
421.91847
421.91936
421.92025
421.92115
421.92205
421.92295
421.92386
421.92478
421.9257
421.92663
421.92757
421.92851
421.92947
421.93043
421.93141
421.9324
421.93341
421.93444
421.93549
421.93655
421.93765
421.93877
421.93992
421.9411
421.94232
421.94358
421.94489
421.94625
421.94767
421.94913
421.95066
421.95222
421.95381
421.95538
421.95685
421.95805
421.95877
)
;
    }
}


// ************************************************************************* //
