/*--------------------------------*- C++ -*----------------------------------*\
| =========                 |                                                 |
| \\      /  F ield         | OpenFOAM: The Open Source CFD Toolbox           |
|  \\    /   O peration     | Version:  3.0.1                                 |
|   \\  /    A nd           | Web:      www.OpenFOAM.org                      |
|    \\/     M anipulation  |                                                 |
\*---------------------------------------------------------------------------*/
FoamFile
{
    version     2.0;
    format      ascii;
    class       volScalarField;
    location    "2294";
    object      Qr;
}
// * * * * * * * * * * * * * * * * * * * * * * * * * * * * * * * * * * * * * //

dimensions      [1 0 -3 0 0 0 0];

internalField   uniform 0;

boundaryField
{
    LeftWedge
    {
        type            wedge;
    }
    RightWedge
    {
        type            wedge;
    }
    Inlet
    {
        type            calculated;
        value           uniform -6.3277868e-30;
    }
    Outlet
    {
        type            calculated;
        value           nonuniform List<scalar> 
80
(
2.3967902e-29
2.3967902e-29
2.3967902e-29
2.3967902e-29
2.3967902e-29
2.3967902e-29
2.3967902e-29
2.3967902e-29
2.3967902e-29
2.3967902e-29
2.3967902e-29
2.3967902e-29
2.3967902e-29
2.3967902e-29
2.3967902e-29
2.3967902e-29
2.3967902e-29
2.3967902e-29
2.3967902e-29
2.3967902e-29
2.3967902e-29
2.3967902e-29
2.3967902e-29
2.3967902e-29
2.3967902e-29
2.3967902e-29
2.3967902e-29
2.3967902e-29
2.3967902e-29
2.3967902e-29
2.3967902e-29
2.3967902e-29
2.3967902e-29
2.3967902e-29
2.3967902e-29
2.3967902e-29
2.3967902e-29
2.3967902e-29
2.3967902e-29
2.3967902e-29
2.3967902e-29
2.3967902e-29
2.3967902e-29
2.3967902e-29
2.3967902e-29
2.3967902e-29
2.3967902e-29
2.3967902e-29
2.3967902e-29
2.3967902e-29
2.3967902e-29
2.3967902e-29
2.3967902e-29
2.3967902e-29
2.3967902e-29
2.3967902e-29
2.3967902e-29
2.3967902e-29
2.3967902e-29
2.3967902e-29
2.3967902e-29
2.3967902e-29
2.3967902e-29
2.3967902e-29
2.3967902e-29
2.3967902e-29
2.3967902e-29
2.3967902e-29
2.3967902e-29
2.3967902e-29
2.3967902e-29
2.3967902e-29
2.3967902e-29
2.3967902e-29
2.3967902e-29
2.3967902e-29
2.3967902e-29
2.3967902e-29
2.3967902e-29
2.3967902e-29
)
;
    }
    Outterwall
    {
        type            calculated;
        value           nonuniform List<scalar> 
200
(
963.89401
1276.4677
1431.932
1530.2556
1600.9689
1655.4806
1699.5114
1736.2228
1767.5676
1794.821
1818.8625
1840.3214
1859.6628
1877.2396
1893.3252
1908.1355
1921.844
1934.5916
1946.4946
1957.65
1968.1391
1978.0313
1987.3857
1996.2532
2004.6781
2012.699
2020.3496
2027.6597
2034.6556
2041.3606
2047.7958
2053.9796
2059.9289
2065.6587
2071.1829
2076.5139
2081.6629
2086.6406
2091.4563
2096.119
2100.6369
2105.0175
2109.268
2113.3948
2117.4043
2121.3021
2125.0938
2128.7843
2132.3785
2135.881
2139.2958
2142.6272
2145.8787
2149.054
2152.1563
2155.1889
2158.1546
2161.0563
2163.8966
2166.6778
2169.4024
2172.0723
2174.6898
2177.2566
2179.7746
2182.2454
2184.6706
2187.0516
2189.3899
2191.6868
2193.9435
2196.1613
2198.3411
2200.4842
2202.5915
2204.664
2206.7027
2208.7085
2210.6822
2212.6248
2214.537
2216.4197
2218.2736
2220.0995
2221.8981
2223.6702
2225.4165
2227.1377
2228.8345
2230.5075
2232.1573
2233.7846
2235.3901
2236.9743
2238.5378
2240.0811
2241.6049
2243.1096
2244.5959
2246.0641
2247.5149
2248.9486
2250.3658
2251.7669
2253.1523
2254.5225
2255.8779
2257.2188
2258.5458
2259.8591
2261.1591
2262.4461
2263.7205
2264.9827
2266.2329
2267.4714
2268.6985
2269.9145
2271.1197
2272.3143
2273.4986
2274.6729
2275.8372
2276.9919
2278.1371
2279.2732
2280.4001
2281.5182
2282.6276
2283.7285
2284.821
2285.9053
2286.9815
2288.0497
2289.1101
2290.1628
2291.2079
2292.2455
2293.2757
2294.2987
2295.3144
2296.323
2297.3246
2298.3192
2299.3069
2300.2877
2301.2618
2302.2291
2303.1897
2304.1437
2305.0911
2306.0319
2306.9662
2307.8939
2308.8152
2309.73
2310.6384
2311.5403
2312.4358
2313.3249
2314.2076
2315.0839
2315.9539
2316.8174
2317.6745
2318.5253
2319.3697
2320.2077
2321.0393
2321.8644
2322.6832
2323.4956
2324.3015
2325.101
2325.894
2326.6805
2327.4606
2328.2342
2329.0013
2329.7619
2330.5159
2331.2633
2332.0042
2332.7385
2333.4662
2334.1873
2334.9019
2335.6101
2336.3121
2337.0087
2337.7016
2338.3945
2339.0972
2339.8285
2340.6405
2341.5934
2342.807
2344.4151
2348.2019
2352.3146
)
;
    }
    Innerwall
    {
        type            calculated;
        value           nonuniform List<scalar> 
200
(
-963.89401
-1276.4677
-1431.932
-1530.2556
-1600.9689
-1655.4806
-1699.5114
-1736.2228
-1767.5676
-1794.821
-1818.8625
-1840.3214
-1859.6628
-1877.2396
-1893.3252
-1908.1355
-1921.844
-1934.5916
-1946.4946
-1957.65
-1968.1391
-1978.0313
-1987.3857
-1996.2532
-2004.6781
-2012.699
-2020.3496
-2027.6597
-2034.6556
-2041.3606
-2047.7958
-2053.9796
-2059.9289
-2065.6587
-2071.1829
-2076.5139
-2081.6629
-2086.6406
-2091.4563
-2096.119
-2100.6369
-2105.0175
-2109.268
-2113.3948
-2117.4043
-2121.3021
-2125.0938
-2128.7843
-2132.3785
-2135.881
-2139.2958
-2142.6272
-2145.8787
-2149.054
-2152.1563
-2155.1889
-2158.1546
-2161.0563
-2163.8966
-2166.6778
-2169.4024
-2172.0723
-2174.6898
-2177.2566
-2179.7746
-2182.2454
-2184.6706
-2187.0516
-2189.3899
-2191.6868
-2193.9435
-2196.1613
-2198.3411
-2200.4842
-2202.5915
-2204.664
-2206.7027
-2208.7085
-2210.6822
-2212.6248
-2214.537
-2216.4197
-2218.2736
-2220.0995
-2221.8981
-2223.6702
-2225.4165
-2227.1377
-2228.8345
-2230.5075
-2232.1573
-2233.7846
-2235.3901
-2236.9743
-2238.5378
-2240.0811
-2241.6049
-2243.1096
-2244.5959
-2246.0641
-2247.5149
-2248.9486
-2250.3658
-2251.7669
-2253.1523
-2254.5225
-2255.8779
-2257.2188
-2258.5458
-2259.8591
-2261.1591
-2262.4461
-2263.7205
-2264.9827
-2266.2329
-2267.4714
-2268.6985
-2269.9145
-2271.1197
-2272.3143
-2273.4986
-2274.6729
-2275.8372
-2276.9919
-2278.1371
-2279.2732
-2280.4001
-2281.5182
-2282.6276
-2283.7285
-2284.821
-2285.9053
-2286.9815
-2288.0497
-2289.1101
-2290.1628
-2291.2079
-2292.2455
-2293.2757
-2294.2987
-2295.3144
-2296.323
-2297.3246
-2298.3192
-2299.3069
-2300.2877
-2301.2618
-2302.2291
-2303.1897
-2304.1437
-2305.0911
-2306.0319
-2306.9662
-2307.8939
-2308.8152
-2309.73
-2310.6384
-2311.5403
-2312.4358
-2313.3249
-2314.2076
-2315.0839
-2315.9539
-2316.8174
-2317.6745
-2318.5253
-2319.3697
-2320.2077
-2321.0393
-2321.8644
-2322.6832
-2323.4956
-2324.3015
-2325.101
-2325.894
-2326.6805
-2327.4606
-2328.2342
-2329.0013
-2329.7619
-2330.5159
-2331.2633
-2332.0042
-2332.7385
-2333.4662
-2334.1873
-2334.9019
-2335.6101
-2336.3121
-2337.0087
-2337.7016
-2338.3945
-2339.0972
-2339.8285
-2340.6405
-2341.5934
-2342.807
-2344.4151
-2348.2019
-2352.3146
)
;
    }
}


// ************************************************************************* //
