/*--------------------------------*- C++ -*----------------------------------*\
| =========                 |                                                 |
| \\      /  F ield         | OpenFOAM: The Open Source CFD Toolbox           |
|  \\    /   O peration     | Version:  3.0.1                                 |
|   \\  /    A nd           | Web:      www.OpenFOAM.org                      |
|    \\/     M anipulation  |                                                 |
\*---------------------------------------------------------------------------*/
FoamFile
{
    version     2.0;
    format      ascii;
    class       volScalarField;
    location    "2294";
    object      rho;
}
// * * * * * * * * * * * * * * * * * * * * * * * * * * * * * * * * * * * * * //

dimensions      [1 -3 0 0 0 0 0];

internalField   nonuniform List<scalar> 
16000
(
0.91534574
0.97155417
1.0243953
1.0703582
1.1077814
1.1365995
1.1577842
1.172771
1.183042
1.1898975
1.1943723
1.1972376
1.199042
1.2001614
1.2008465
1.2012607
1.2015083
1.2016547
1.2017404
1.2017901
1.2018187
1.201835
1.2018442
1.2018493
1.2018522
1.2018538
1.2018547
1.2018552
1.2018554
1.2018556
1.2018557
1.2018557
1.2018557
1.2018557
1.2018557
1.2018558
1.2018558
1.2018558
1.2018558
1.2018558
1.2018558
1.2018558
1.2018558
1.2018558
1.2018558
1.2018558
1.2018557
1.2018557
1.2018557
1.2018557
1.2018557
1.2018557
1.2018557
1.2018557
1.2018557
1.2018557
1.2018557
1.2018557
1.2018557
1.2018557
1.2018557
1.2018557
1.2018557
1.2018557
1.2018557
1.2018557
1.2018557
1.2018557
1.2018557
1.2018557
1.2018557
1.2018557
1.2018557
1.2018557
1.2018557
1.2018557
1.2018557
1.2018557
1.2018557
1.2018557
0.86407371
0.90848155
0.95428085
0.99957077
1.0421509
1.0800583
1.1120124
1.1375943
1.1571451
1.1714947
1.181671
1.1886822
1.1933967
1.196502
1.1985114
1.1997915
1.2005956
1.2010943
1.2014
1.2015853
1.2016966
1.2017627
1.2018016
1.2018243
1.2018375
1.2018451
1.2018494
1.2018519
1.2018532
1.201854
1.2018545
1.2018547
1.2018548
1.2018549
1.201855
1.201855
1.201855
1.201855
1.201855
1.201855
1.201855
1.201855
1.201855
1.201855
1.201855
1.201855
1.201855
1.201855
1.201855
1.201855
1.201855
1.201855
1.201855
1.201855
1.201855
1.201855
1.201855
1.201855
1.201855
1.201855
1.201855
1.201855
1.201855
1.201855
1.201855
1.201855
1.201855
1.201855
1.201855
1.201855
1.201855
1.201855
1.201855
1.201855
1.201855
1.201855
1.201855
1.201855
1.201855
1.201855
0.84295887
0.8817621
0.92216657
0.96328893
1.003821
1.0422203
1.0770145
1.1071084
1.1319716
1.1516509
1.1666362
1.1776665
1.1855517
1.1910486
1.1947989
1.1973099
1.1989636
1.2000367
1.2007237
1.2011582
1.2014298
1.2015978
1.2017006
1.2017629
1.2018004
1.2018227
1.2018359
1.2018436
1.2018482
1.2018508
1.2018523
1.2018531
1.2018536
1.2018539
1.2018541
1.2018541
1.2018542
1.2018542
1.2018542
1.2018542
1.2018542
1.2018542
1.2018543
1.2018543
1.2018543
1.2018543
1.2018543
1.2018543
1.2018543
1.2018543
1.2018542
1.2018542
1.2018542
1.2018542
1.2018542
1.2018542
1.2018542
1.2018542
1.2018542
1.2018542
1.2018542
1.2018542
1.2018542
1.2018542
1.2018542
1.2018542
1.2018542
1.2018542
1.2018542
1.2018542
1.2018542
1.2018542
1.2018542
1.2018542
1.2018542
1.2018542
1.2018542
1.2018542
1.2018542
1.2018542
0.83075864
0.8663353
0.90337525
0.94137432
0.97949808
1.0166398
1.0515728
1.0831671
1.1105973
1.1334683
1.1518214
1.166043
1.176725
1.1845322
1.190104
1.1939988
1.1966721
1.1984774
1.1996788
1.2004678
1.2009794
1.2013075
1.2015155
1.2016461
1.2017273
1.2017773
1.2018078
1.2018263
1.2018374
1.2018441
1.201848
1.2018503
1.2018516
1.2018524
1.2018529
1.2018532
1.2018533
1.2018534
1.2018534
1.2018535
1.2018535
1.2018535
1.2018535
1.2018535
1.2018535
1.2018535
1.2018535
1.2018535
1.2018535
1.2018535
1.2018535
1.2018535
1.2018535
1.2018535
1.2018535
1.2018535
1.2018535
1.2018535
1.2018535
1.2018535
1.2018535
1.2018535
1.2018535
1.2018535
1.2018535
1.2018535
1.2018535
1.2018535
1.2018535
1.2018535
1.2018535
1.2018535
1.2018535
1.2018535
1.2018535
1.2018535
1.2018535
1.2018535
1.2018535
1.2018535
0.82246686
0.85587349
0.89059723
0.92631154
0.9624333
0.99813691
1.0324325
1.0643055
1.0928846
1.1175833
1.1381709
1.1547559
1.1677057
1.1775381
1.184821
1.1900993
1.193852
1.1964749
1.1982803
1.1995056
1.2003267
1.2008704
1.2012263
1.2014569
1.2016047
1.2016986
1.2017577
1.2017946
1.2018174
1.2018314
1.20184
1.2018451
1.2018482
1.2018501
1.2018512
1.2018518
1.2018522
1.2018524
1.2018526
1.2018527
1.2018527
1.2018527
1.2018527
1.2018527
1.2018527
1.2018527
1.2018528
1.2018528
1.2018528
1.2018528
1.2018528
1.2018528
1.2018528
1.2018528
1.2018528
1.2018528
1.2018528
1.2018527
1.2018527
1.2018527
1.2018527
1.2018527
1.2018527
1.2018527
1.2018527
1.2018527
1.2018527
1.2018527
1.2018527
1.2018527
1.2018527
1.2018527
1.2018527
1.2018527
1.2018527
1.2018527
1.2018527
1.2018527
1.2018527
1.2018527
0.81632706
0.84814224
0.88115164
0.91512753
0.94963504
0.98403023
1.0175021
1.0491644
1.0781835
1.1039072
1.1259557
1.1442487
1.1589705
1.1704935
1.1792907
1.1858599
1.1906702
1.1941317
1.196584
1.1982968
1.1994777
1.200282
1.2008237
1.2011847
1.2014227
1.2015781
1.2016787
1.2017432
1.2017842
1.20181
1.2018262
1.2018363
1.2018425
1.2018462
1.2018486
1.2018499
1.2018508
1.2018513
1.2018516
1.2018518
1.2018519
1.2018519
1.201852
1.201852
1.201852
1.201852
1.201852
1.201852
1.201852
1.201852
1.201852
1.201852
1.201852
1.201852
1.201852
1.201852
1.201852
1.201852
1.201852
1.201852
1.201852
1.201852
1.201852
1.201852
1.201852
1.201852
1.201852
1.201852
1.201852
1.201852
1.201852
1.201852
1.201852
1.201852
1.201852
1.201852
1.201852
1.201852
1.201852
1.201852
0.81151802
0.84209675
0.87376874
0.90636793
0.93955544
0.972811
1.005456
1.036716
1.0658179
1.0921004
1.1151068
1.1346341
1.1507285
1.1636373
1.1737385
1.1814698
1.1872721
1.1915512
1.1946579
1.1968817
1.1984531
1.1995503
1.2003077
1.2008252
1.2011751
1.2014094
1.2015649
1.2016671
1.2017337
1.2017768
1.2018044
1.201822
1.2018331
1.2018401
1.2018444
1.2018471
1.2018487
1.2018497
1.2018503
1.2018507
1.2018509
1.2018511
1.2018511
1.2018512
1.2018512
1.2018512
1.2018512
1.2018512
1.2018512
1.2018513
1.2018513
1.2018513
1.2018513
1.2018513
1.2018513
1.2018513
1.2018513
1.2018513
1.2018513
1.2018513
1.2018513
1.2018513
1.2018513
1.2018513
1.2018513
1.2018513
1.2018512
1.2018512
1.2018512
1.2018512
1.2018512
1.2018512
1.2018512
1.2018512
1.2018512
1.2018512
1.2018512
1.2018512
1.2018512
1.2018512
0.80760602
0.83718584
0.86777525
0.89924983
0.93133707
0.96360525
0.99547554
1.0262659
1.0552662
1.0818308
1.1054668
1.1258925
1.1430528
1.1570928
1.1683041
1.1770627
1.1837728
1.1888247
1.1925696
1.195307
1.1972826
1.1986919
1.1996862
1.2003805
1.2008606
1.2011893
1.2014125
1.2015626
1.2016627
1.2017289
1.2017723
1.2018006
1.2018189
1.2018306
1.2018381
1.2018428
1.2018457
1.2018476
1.2018487
1.2018494
1.2018499
1.2018501
1.2018503
1.2018504
1.2018504
1.2018505
1.2018505
1.2018505
1.2018505
1.2018505
1.2018505
1.2018505
1.2018505
1.2018505
1.2018505
1.2018505
1.2018505
1.2018505
1.2018505
1.2018505
1.2018505
1.2018505
1.2018505
1.2018505
1.2018505
1.2018505
1.2018505
1.2018505
1.2018505
1.2018505
1.2018505
1.2018505
1.2018505
1.2018505
1.2018505
1.2018505
1.2018505
1.2018505
1.2018505
1.2018505
0.80433331
0.8330824
0.86277075
0.89330365
0.92445695
0.95586489
0.98702582
1.0173336
1.0461364
1.0728149
1.0968628
1.1179485
1.1359428
1.1509089
1.1630635
1.1727237
1.1802541
1.1860238
1.190377
1.1936166
1.1959977
1.1977278
1.1989717
1.1998572
1.2004815
1.2009177
1.2012199
1.2014273
1.2015686
1.201664
1.2017279
1.2017704
1.2017984
1.2018168
1.2018287
1.2018364
1.2018414
1.2018445
1.2018465
1.2018477
1.2018485
1.201849
1.2018493
1.2018495
1.2018496
1.2018497
1.2018497
1.2018497
1.2018497
1.2018497
1.2018497
1.2018497
1.2018498
1.2018498
1.2018498
1.2018498
1.2018498
1.2018498
1.2018498
1.2018498
1.2018498
1.2018498
1.2018498
1.2018498
1.2018498
1.2018498
1.2018498
1.2018498
1.2018497
1.2018497
1.2018497
1.2018497
1.2018497
1.2018497
1.2018497
1.2018497
1.2018497
1.2018497
1.2018497
1.2018497
0.80153657
0.82957939
0.8585015
0.88823033
0.9185783
0.94923049
0.97974631
1.0095823
1.038139
1.0648269
1.0891393
1.1107135
1.1293662
1.1450953
1.1580533
1.1685035
1.1767712
1.1832013
1.1881268
1.191849
1.1946279
1.1966796
1.198179
1.1992645
1.2000431
1.2005968
1.2009873
1.2012604
1.2014499
1.2015803
1.2016694
1.2017298
1.2017705
1.2017976
1.2018156
1.2018274
1.2018352
1.2018402
1.2018434
1.2018455
1.2018468
1.2018477
1.2018482
1.2018485
1.2018487
1.2018488
1.2018489
1.2018489
1.201849
1.201849
1.201849
1.201849
1.201849
1.201849
1.201849
1.201849
1.201849
1.201849
1.201849
1.201849
1.201849
1.201849
1.201849
1.201849
1.201849
1.201849
1.201849
1.201849
1.201849
1.201849
1.201849
1.201849
1.201849
1.201849
1.201849
1.201849
1.201849
1.201849
1.201849
1.201849
0.79910602
0.82653782
0.85479711
0.88382835
0.9134725
0.94345488
0.97338425
1.0027695
1.0310574
1.0576887
1.0821636
1.1041011
1.1232781
1.1396404
1.1532861
1.1644298
1.1733593
1.1803944
1.1858542
1.1900352
1.1931991
1.1955676
1.1973233
1.198613
1.1995522
1.2002306
1.2007167
1.2010624
1.2013063
1.2014771
1.2015959
1.2016778
1.2017339
1.2017721
1.2017979
1.2018152
1.2018267
1.2018343
1.2018393
1.2018425
1.2018446
1.201846
1.2018468
1.2018474
1.2018477
1.2018479
1.2018481
1.2018481
1.2018482
1.2018482
1.2018482
1.2018482
1.2018482
1.2018482
1.2018483
1.2018483
1.2018483
1.2018483
1.2018483
1.2018483
1.2018483
1.2018483
1.2018483
1.2018483
1.2018483
1.2018483
1.2018483
1.2018483
1.2018483
1.2018482
1.2018482
1.2018482
1.2018482
1.2018482
1.2018482
1.2018482
1.2018482
1.2018482
1.2018482
1.2018482
0.7969648
0.82386048
0.85153839
0.87995645
0.90897843
0.93836221
0.96775717
0.99671637
1.0247273
1.0512601
1.075826
1.0980339
1.1176316
1.1345233
1.1487608
1.1605154
1.1700397
1.1776282
1.183585
1.1881995
1.1917327
1.1944097
1.1964188
1.1979135
1.1990166
1.1998243
1.2004113
1.2008349
1.2011383
1.2013541
1.2015066
1.2016135
1.201688
1.2017395
1.2017749
1.201799
1.2018153
1.2018263
1.2018336
1.2018385
1.2018417
1.2018438
1.2018452
1.201846
1.2018466
1.2018469
1.2018472
1.2018473
1.2018474
1.2018474
1.2018475
1.2018475
1.2018475
1.2018475
1.2018475
1.2018475
1.2018475
1.2018475
1.2018475
1.2018475
1.2018475
1.2018475
1.2018475
1.2018475
1.2018475
1.2018475
1.2018475
1.2018475
1.2018475
1.2018475
1.2018475
1.2018475
1.2018475
1.2018475
1.2018475
1.2018475
1.2018475
1.2018475
1.2018475
1.2018475
0.79505717
0.82147694
0.848639
0.87651212
0.9049787
0.93382345
0.96272969
0.99128819
1.0190224
1.0454301
1.0700358
1.0924441
1.1123816
1.1297189
1.1444687
1.1567638
1.166824
1.1749192
1.1813376
1.1863604
1.1902458
1.1932209
1.195478
1.1971761
1.1984438
1.1993833
1.2000748
1.2005802
1.2009472
1.2012119
1.2014016
1.2015366
1.2016321
1.2016991
1.2017459
1.2017784
1.2018007
1.2018159
1.2018263
1.2018333
1.2018379
1.201841
1.2018431
1.2018444
1.2018453
1.2018458
1.2018462
1.2018464
1.2018465
1.2018466
1.2018467
1.2018467
1.2018467
1.2018467
1.2018467
1.2018468
1.2018468
1.2018468
1.2018468
1.2018468
1.2018468
1.2018468
1.2018468
1.2018468
1.2018468
1.2018468
1.2018468
1.2018468
1.2018468
1.2018468
1.2018467
1.2018467
1.2018467
1.2018467
1.2018467
1.2018467
1.2018467
1.2018467
1.2018467
1.2018467
0.79334156
0.81933473
0.84603462
0.87341894
0.9013855
0.92974154
0.95819909
0.9863814
1.0138439
1.0401099
1.0647185
1.0872737
1.1074869
1.1252019
1.1403976
1.153173
1.1637174
1.1722774
1.1791247
1.1845313
1.1887519
1.1920136
1.1945118
1.1964098
1.1978413
1.1989134
1.1997113
1.2003012
1.2007347
1.2010514
1.2012813
1.2014471
1.201566
1.2016507
1.2017107
1.2017529
1.2017823
1.2018028
1.2018169
1.2018265
1.2018331
1.2018375
1.2018404
1.2018424
1.2018437
1.2018445
1.2018451
1.2018454
1.2018457
1.2018458
1.2018459
1.2018459
1.201846
1.201846
1.201846
1.201846
1.201846
1.201846
1.201846
1.201846
1.201846
1.201846
1.201846
1.201846
1.201846
1.201846
1.201846
1.201846
1.201846
1.201846
1.201846
1.201846
1.201846
1.201846
1.201846
1.201846
1.201846
1.201846
1.201846
1.201846
0.79178622
0.8173938
0.84367619
0.87061852
0.89813165
0.92604185
0.9540858
0.98191503
1.0091133
1.0352278
1.0598123
1.0824731
1.102911
1.1209476
1.1365337
1.1497377
1.1607212
1.1697083
1.1769545
1.1827221
1.187261
1.1907977
1.1935292
1.1956226
1.1972156
1.19842
1.199325
1.200001
1.2005032
1.2008741
1.2011465
1.2013454
1.2014899
1.2015941
1.2016689
1.2017222
1.20176
1.2017865
1.2018051
1.201818
1.2018269
1.201833
1.2018371
1.2018399
1.2018418
1.201843
1.2018438
1.2018444
1.2018447
1.2018449
1.201845
1.2018451
1.2018452
1.2018452
1.2018452
1.2018452
1.2018452
1.2018453
1.2018453
1.2018453
1.2018453
1.2018453
1.2018453
1.2018453
1.2018453
1.2018453
1.2018453
1.2018453
1.2018453
1.2018453
1.2018453
1.2018452
1.2018452
1.2018452
1.2018452
1.2018452
1.2018452
1.2018452
1.2018452
1.2018452
0.79036643
0.81562299
0.84152551
0.86806544
0.8951647
0.92266594
0.95032718
0.97782471
1.0047676
1.0307253
1.055266
1.0780002
1.0986213
1.1169334
1.1328628
1.146451
1.157834
1.1672146
1.1748326
1.1809398
1.1857809
1.1895808
1.1925377
1.1948213
1.1965728
1.197908
1.19892
1.1996829
1.2002549
1.2006817
1.2009984
1.2012322
1.2014039
1.2015293
1.2016204
1.2016861
1.2017333
1.201767
1.2017908
1.2018076
1.2018193
1.2018275
1.2018331
1.2018369
1.2018395
1.2018412
1.2018424
1.2018432
1.2018437
1.201844
1.2018442
1.2018443
1.2018444
1.2018444
1.2018445
1.2018445
1.2018445
1.2018445
1.2018445
1.2018445
1.2018445
1.2018445
1.2018445
1.2018445
1.2018445
1.2018445
1.2018445
1.2018445
1.2018445
1.2018445
1.2018445
1.2018445
1.2018445
1.2018445
1.2018445
1.2018445
1.2018445
1.2018445
1.2018445
1.2018445
0.78906256
0.81399758
0.83955235
0.86572367
0.89244304
0.9195673
0.9468731
0.97405861
1.0007557
1.0265542
1.0510365
1.0738188
1.0945895
1.1131385
1.1293711
1.143305
1.1550528
1.1647969
1.1727619
1.1791891
1.1843172
1.188369
1.1915432
1.1940113
1.1959178
1.1973819
1.1985001
1.1993498
1.1999923
1.200476
1.2008383
1.2011084
1.2013088
1.2014567
1.2015653
1.2016447
1.2017023
1.2017439
1.2017737
1.201795
1.2018101
1.2018207
1.2018281
1.2018332
1.2018367
1.2018391
1.2018407
1.2018418
1.2018425
1.201843
1.2018433
1.2018435
1.2018436
1.2018436
1.2018437
1.2018437
1.2018437
1.2018437
1.2018438
1.2018438
1.2018438
1.2018438
1.2018438
1.2018438
1.2018438
1.2018438
1.2018438
1.2018438
1.2018438
1.2018438
1.2018438
1.2018437
1.2018437
1.2018437
1.2018437
1.2018437
1.2018437
1.2018437
1.2018437
1.2018437
0.78785884
0.81249771
0.83773236
0.86356425
0.88993316
0.91670836
0.94368292
0.97057446
0.99703542
1.0226744
1.0470878
1.069898
1.0907905
1.1095439
1.1260456
1.1402917
1.1523735
1.1624544
1.1707439
1.1774729
1.182874
1.1871669
1.1905503
1.1931974
1.1952551
1.1968455
1.1980686
1.1990046
1.1997178
1.2002589
1.2006676
1.200975
1.2012051
1.2013767
1.201504
1.2015979
1.2016669
1.2017173
1.2017538
1.2017802
1.2017991
1.2018125
1.201822
1.2018287
1.2018333
1.2018365
1.2018387
1.2018402
1.2018412
1.2018419
1.2018423
1.2018426
1.2018427
1.2018428
1.2018429
1.201843
1.201843
1.201843
1.201843
1.201843
1.201843
1.201843
1.201843
1.201843
1.201843
1.201843
1.201843
1.201843
1.201843
1.201843
1.201843
1.201843
1.201843
1.201843
1.201843
1.201843
1.201843
1.201843
1.201843
1.201843
0.78674239
0.81110717
0.83604573
0.86156355
0.88760771
0.91405841
0.94072328
0.96733737
0.99357173
1.0190524
1.0433891
1.066211
1.0872024
1.1061328
1.122874
1.1374031
1.1497918
1.1601855
1.1687791
1.1757933
1.181454
1.1859779
1.1895629
1.1923832
1.1945881
1.1963023
1.1976285
1.19865
1.1994335
1.2000321
1.2004877
1.2008331
1.2010938
1.2012899
1.2014367
1.2015461
1.2016272
1.201687
1.201731
1.201763
1.2017862
1.2018029
1.2018149
1.2018234
1.2018294
1.2018335
1.2018364
1.2018384
1.2018397
1.2018406
1.2018412
1.2018416
1.2018419
1.201842
1.2018421
1.2018422
1.2018422
1.2018422
1.2018422
1.2018422
1.2018423
1.2018423
1.2018423
1.2018423
1.2018423
1.2018423
1.2018423
1.2018423
1.2018423
1.2018423
1.2018423
1.2018423
1.2018422
1.2018422
1.2018422
1.2018422
1.2018422
1.2018422
1.2018422
1.2018422
0.78570259
0.80981262
0.83447612
0.85970212
0.88544412
0.91159205
0.93796654
0.96431829
0.9903353
1.0156597
1.0399141
1.0627348
1.083806
1.10289
1.1198451
1.1346317
1.147303
1.1579877
1.1668671
1.1741511
1.1800592
1.1848044
1.1885837
1.1915719
1.1939199
1.1957551
1.1971826
1.1982884
1.1991416
1.1997976
1.2003002
1.2006839
1.2009757
1.2011969
1.2013639
1.2014894
1.2015834
1.2016534
1.2017052
1.2017434
1.2017714
1.2017918
1.2018065
1.2018171
1.2018247
1.20183
1.2018337
1.2018363
1.201838
1.2018392
1.2018401
1.2018406
1.2018409
1.2018412
1.2018413
1.2018414
1.2018414
1.2018415
1.2018415
1.2018415
1.2018415
1.2018415
1.2018415
1.2018415
1.2018415
1.2018415
1.2018415
1.2018415
1.2018415
1.2018415
1.2018415
1.2018415
1.2018415
1.2018415
1.2018415
1.2018415
1.2018415
1.2018415
1.2018415
1.2018415
0.78473055
0.8086029
0.8330099
0.85796372
0.88342357
0.90928807
0.93538951
0.96149276
0.98730131
1.0124723
1.0366405
1.0594494
1.0805844
1.0998018
1.1169487
1.13197
1.1449023
1.1558587
1.1650068
1.1725467
1.1786907
1.1836483
1.1876149
1.1907656
1.1932529
1.1952061
1.196733
1.1979217
1.1988439
1.1995569
1.2001064
1.2005285
1.2008518
1.2010985
1.2012862
1.2014284
1.2015357
1.2016164
1.2016767
1.2017215
1.2017547
1.2017791
1.2017969
1.2018099
1.2018192
1.2018258
1.2018305
1.2018338
1.2018361
1.2018377
1.2018388
1.2018395
1.20184
1.2018403
1.2018405
1.2018406
1.2018407
1.2018407
1.2018407
1.2018407
1.2018407
1.2018408
1.2018408
1.2018408
1.2018408
1.2018408
1.2018408
1.2018408
1.2018408
1.2018408
1.2018408
1.2018408
1.2018407
1.2018407
1.2018407
1.2018407
1.2018407
1.2018407
1.2018407
1.2018407
0.78381883
0.80746864
0.83163562
0.85633469
0.88153021
0.90712858
0.93297262
0.95884008
0.98444863
1.0094693
1.0335486
1.0563373
1.0775226
1.0968562
1.1141753
1.1294112
1.1425853
1.1537957
1.1631972
1.1709799
1.1773493
1.1825108
1.186658
1.1899663
1.192589
1.1946576
1.1962817
1.197552
1.1985421
1.1993115
1.1999076
1.2003681
1.200723
1.2009955
1.2012042
1.2013635
1.2014846
1.2015763
1.2016455
1.2016974
1.2017361
1.2017649
1.2017861
1.2018016
1.2018129
1.2018211
1.2018269
1.2018311
1.201834
1.201836
1.2018374
1.2018383
1.2018389
1.2018393
1.2018396
1.2018398
1.2018399
1.2018399
1.20184
1.20184
1.20184
1.20184
1.20184
1.20184
1.20184
1.20184
1.20184
1.20184
1.20184
1.20184
1.20184
1.20184
1.20184
1.20184
1.20184
1.20184
1.20184
1.20184
1.20184
1.20184
0.78296109
0.80640189
0.83034355
0.85480347
0.87975059
0.90509838
0.9306992
0.95634253
0.98175911
1.0066329
1.0306216
1.0533833
1.0746073
1.0940421
1.1115163
1.1269489
1.1403473
1.1517957
1.1614365
1.1694502
1.1760352
1.1813927
1.1857144
1.1891753
1.1919298
1.1941109
1.1958302
1.1971806
1.1982376
1.1990627
1.199705
1.2002038
1.2005901
1.2008885
1.2011185
1.2012951
1.2014303
1.2015334
1.2016118
1.2016711
1.2017157
1.2017491
1.201774
1.2017924
1.2018059
1.2018157
1.2018228
1.2018279
1.2018315
1.201834
1.2018358
1.201837
1.2018378
1.2018383
1.2018387
1.2018389
1.201839
1.2018391
1.2018392
1.2018392
1.2018392
1.2018392
1.2018393
1.2018393
1.2018393
1.2018393
1.2018393
1.2018393
1.2018393
1.2018393
1.2018393
1.2018393
1.2018392
1.2018392
1.2018392
1.2018392
1.2018392
1.2018392
1.2018392
1.2018392
0.78215191
0.80539584
0.82912538
0.85336013
0.87807322
0.90318446
0.92855494
0.95398489
0.97921708
1.0039476
1.0278446
1.0505737
1.0718267
1.0913497
1.1089639
1.1245772
1.1381843
1.1498561
1.1597233
1.1679568
1.1747482
1.1802944
1.1847847
1.1883937
1.1912765
1.1935674
1.19538
1.1968089
1.1979318
1.1988118
1.1994998
1.2000365
1.2004541
1.2007784
1.2010296
1.2012237
1.2013732
1.201488
1.2015758
1.2016428
1.2016935
1.2017319
1.2017606
1.2017821
1.201798
1.2018096
1.2018182
1.2018243
1.2018287
1.2018319
1.201834
1.2018356
1.2018366
1.2018373
1.2018377
1.201838
1.2018382
1.2018383
1.2018384
1.2018385
1.2018385
1.2018385
1.2018385
1.2018385
1.2018385
1.2018385
1.2018385
1.2018385
1.2018385
1.2018385
1.2018385
1.2018385
1.2018385
1.2018385
1.2018385
1.2018385
1.2018385
1.2018385
1.2018385
1.2018385
0.78138662
0.80444464
0.82797396
0.85199618
0.87648817
0.9013756
0.9265275
0.95175397
0.97680894
1.0013999
1.0252048
1.0478967
1.0691703
1.08877
1.1065108
1.1222906
1.136092
1.1479739
1.1580557
1.1664988
1.1734882
1.1792161
1.1838695
1.1876223
1.19063
1.1930282
1.194932
1.1964379
1.1976255
1.1985597
1.1992928
1.199867
1.2003158
1.2006658
1.2009383
1.2011499
1.2013138
1.2014404
1.2015379
1.2016127
1.2016698
1.2017132
1.2017461
1.2017708
1.2017892
1.2018029
1.201813
1.2018203
1.2018256
1.2018294
1.2018321
1.201834
1.2018353
1.2018362
1.2018367
1.2018371
1.2018374
1.2018375
1.2018376
1.2018377
1.2018377
1.2018377
1.2018377
1.2018378
1.2018378
1.2018378
1.2018378
1.2018378
1.2018378
1.2018378
1.2018378
1.2018378
1.2018378
1.2018377
1.2018377
1.2018377
1.2018377
1.2018377
1.2018377
1.2018377
0.78066117
0.80354322
0.82688309
0.85070421
0.87498688
0.89966208
0.92460615
0.94963829
0.9745228
0.99897771
1.0226907
1.0453416
1.0666287
1.0862952
1.1041505
1.1200839
1.1340668
1.1461466
1.1564319
1.1650752
1.1722546
1.1781577
1.1829691
1.1868615
1.189991
1.1924939
1.1944871
1.1960686
1.1973199
1.1983073
1.199085
1.1996962
1.2001757
1.2005514
1.200845
1.2010741
1.2012525
1.201391
1.2014983
1.201581
1.2016447
1.2016934
1.2017305
1.2017586
1.2017798
1.2017956
1.2018073
1.2018159
1.2018222
1.2018268
1.20183
1.2018323
1.2018339
1.201835
1.2018357
1.2018362
1.2018365
1.2018367
1.2018368
1.2018369
1.2018369
1.201837
1.201837
1.201837
1.201837
1.201837
1.201837
1.201837
1.201837
1.201837
1.201837
1.201837
1.201837
1.201837
1.201837
1.201837
1.201837
1.201837
1.201837
1.201837
0.77997204
0.80268716
0.82584739
0.84947781
0.87356187
0.89803541
0.92278152
0.94762781
0.97234821
0.99667072
1.0202921
1.0428991
1.0641935
1.0839179
1.1018771
1.1179524
1.1321051
1.1443716
1.1548503
1.1636849
1.1710469
1.1771191
1.1820835
1.1861118
1.1893599
1.1919652
1.1940459
1.1957017
1.1970154
1.1980554
1.1988769
1.1995247
1.2000347
1.2004356
1.2007503
1.2009968
1.2011896
1.2013401
1.2014572
1.201548
1.2016183
1.2016724
1.2017139
1.2017455
1.2017695
1.2017876
1.2018011
1.2018111
1.2018185
1.2018238
1.2018277
1.2018304
1.2018323
1.2018337
1.2018346
1.2018352
1.2018356
1.2018359
1.201836
1.2018361
1.2018362
1.2018362
1.2018362
1.2018362
1.2018363
1.2018363
1.2018363
1.2018363
1.2018363
1.2018363
1.2018363
1.2018363
1.2018363
1.2018362
1.2018362
1.2018362
1.2018362
1.2018362
1.2018362
1.2018362
0.77931615
0.80187259
0.82486213
0.84831135
0.87220658
0.89648816
0.92104539
0.9457137
0.97027599
0.99446963
1.0180001
1.0405607
1.0618571
1.0816315
1.0996851
1.1158917
1.1302034
1.1426463
1.153309
1.1623268
1.1698643
1.1760999
1.1812127
1.1853731
1.1887371
1.1914425
1.193609
1.1953376
1.1967128
1.1978044
1.1986691
1.199353
1.1998931
1.2003191
1.2006546
1.2009184
1.2011256
1.2012879
1.2014149
1.2015139
1.2015908
1.2016504
1.2016964
1.2017317
1.2017586
1.201779
1.2017944
1.2018059
1.2018144
1.2018206
1.2018252
1.2018284
1.2018307
1.2018323
1.2018334
1.2018342
1.2018347
1.201835
1.2018352
1.2018353
1.2018354
1.2018354
1.2018355
1.2018355
1.2018355
1.2018355
1.2018355
1.2018355
1.2018355
1.2018355
1.2018355
1.2018355
1.2018355
1.2018355
1.2018355
1.2018355
1.2018355
1.2018355
1.2018355
1.2018355
0.77869077
0.8010961
0.82392316
0.84719988
0.87091526
0.89501379
0.91939051
0.94388814
0.96829797
0.99236619
1.0158065
1.0383189
1.0596125
1.0794302
1.0975694
1.1138978
1.1283586
1.1409684
1.1518064
1.1609996
1.1687062
1.1750998
1.1803566
1.1846457
1.1881226
1.1909262
1.1931767
1.1949768
1.1964125
1.1975549
1.1984623
1.1991817
1.1997515
1.2002022
1.2005583
1.2008393
1.2010607
1.2012349
1.2013717
1.2014788
1.2015625
1.2016276
1.2016781
1.2017171
1.2017471
1.2017699
1.2017872
1.2018003
1.20181
1.2018172
1.2018224
1.2018262
1.2018289
1.2018309
1.2018322
1.2018331
1.2018337
1.2018341
1.2018344
1.2018345
1.2018346
1.2018347
1.2018347
1.2018347
1.2018347
1.2018348
1.2018348
1.2018348
1.2018348
1.2018348
1.2018348
1.2018348
1.2018348
1.2018348
1.2018347
1.2018347
1.2018347
1.2018347
1.2018347
1.2018347
0.7780935
0.80035469
0.82302679
0.84613903
0.86968281
0.8936065
0.91781048
0.94214423
0.96640692
0.99035306
1.0137043
1.0361668
1.0574537
1.0773084
1.0955255
1.1119669
1.1265678
1.1393357
1.1503408
1.1597023
1.1675717
1.1741182
1.1795149
1.1839293
1.1875167
1.1904162
1.1927492
1.1946196
1.1961148
1.1973073
1.1982566
1.1990112
1.1996103
1.2000854
1.2004618
1.2007598
1.2009953
1.2011812
1.2013278
1.201443
1.2015334
1.2016041
1.2016592
1.201702
1.201735
1.2017603
1.2017797
1.2017943
1.2018053
1.2018135
1.2018195
1.2018239
1.2018271
1.2018293
1.2018309
1.201832
1.2018327
1.2018332
1.2018335
1.2018337
1.2018338
1.2018339
1.201834
1.201834
1.201834
1.201834
1.201834
1.201834
1.201834
1.201834
1.201834
1.201834
1.201834
1.201834
1.201834
1.201834
1.201834
1.201834
1.201834
1.201834
0.77752221
0.79964568
0.82216979
0.84512491
0.86850473
0.89226116
0.91629958
0.9404758
0.96459637
0.98842369
1.0116868
1.0340983
1.055375
1.0752612
1.0935492
1.1100956
1.1248282
1.137746
1.1489107
1.1584337
1.1664602
1.1731548
1.1786874
1.183224
1.1869194
1.1899128
1.1923268
1.1942663
1.19582
1.1970618
1.1980524
1.1988416
1.1994696
1.1999689
1.2003654
1.2006801
1.2009296
1.2011271
1.2012833
1.2014066
1.2015038
1.20158
1.2016397
1.2016863
1.2017224
1.2017503
1.2017717
1.201788
1.2018003
1.2018096
1.2018164
1.2018214
1.2018251
1.2018277
1.2018295
1.2018308
1.2018317
1.2018322
1.2018326
1.2018329
1.201833
1.2018331
1.2018332
1.2018332
1.2018332
1.2018332
1.2018333
1.2018333
1.2018333
1.2018333
1.2018333
1.2018333
1.2018333
1.2018333
1.2018332
1.2018332
1.2018332
1.2018332
1.2018332
1.2018332
0.77697501
0.7989667
0.82134925
0.84415407
0.86737697
0.89097319
0.91485274
0.93887736
0.96286055
0.98657216
1.0097485
1.0321079
1.0533713
1.073284
1.0916366
1.1082806
1.1231372
1.1361973
1.1475146
1.1571927
1.1653709
1.1722089
1.1778737
1.1825295
1.1863304
1.189416
1.1919095
1.1939169
1.1955282
1.1968186
1.19785
1.1986734
1.1993299
1.1998529
1.2002693
1.2006005
1.2008638
1.2010728
1.2012386
1.2013699
1.2014737
1.2015555
1.2016198
1.2016702
1.2017094
1.2017399
1.2017634
1.2017814
1.2017951
1.2018054
1.2018131
1.2018188
1.2018229
1.2018259
1.2018281
1.2018295
1.2018306
1.2018313
1.2018317
1.201832
1.2018322
1.2018323
1.2018324
1.2018325
1.2018325
1.2018325
1.2018325
1.2018325
1.2018325
1.2018325
1.2018325
1.2018325
1.2018325
1.2018325
1.2018325
1.2018325
1.2018325
1.2018325
1.2018325
1.2018325
0.77645018
0.79831562
0.82056257
0.84322343
0.86629596
0.88973848
0.91346539
0.93734396
0.96119426
0.98479318
1.0078839
1.0301906
1.051438
1.0713729
1.0897841
1.1065191
1.1214925
1.1346879
1.146151
1.1559783
1.164303
1.1712801
1.1770735
1.1818457
1.1857498
1.1889258
1.1914973
1.1935716
1.1952396
1.1965778
1.1976495
1.1985066
1.1991912
1.1997377
1.2001737
1.2005212
1.2007981
1.2010185
1.2011938
1.201333
1.2014433
1.2015306
1.2015995
1.2016537
1.2016961
1.2017291
1.2017548
1.2017745
1.2017896
1.201801
1.2018096
1.201816
1.2018207
1.2018241
1.2018265
1.2018283
1.2018295
1.2018303
1.2018308
1.2018312
1.2018314
1.2018315
1.2018316
1.2018317
1.2018317
1.2018317
1.2018317
1.2018318
1.2018318
1.2018318
1.2018318
1.2018318
1.2018318
1.2018318
1.2018317
1.2018317
1.2018317
1.2018317
1.2018317
1.2018317
0.77594621
0.79769052
0.81980742
0.8423302
0.86525844
0.88855337
0.91213344
0.93587118
0.95959282
0.98308196
1.0060883
1.0283418
1.0495709
1.0695239
1.0879885
1.1048082
1.1198919
1.1332159
1.1448186
1.1547895
1.1632557
1.1703678
1.1762865
1.1811722
1.1851775
1.1884421
1.1910904
1.1932304
1.1949543
1.1963398
1.1974511
1.1983414
1.1990538
1.1996235
1.2000788
1.2004424
1.2007327
1.2009643
1.201149
1.201296
1.2014128
1.2015056
1.201579
1.2016369
1.2016825
1.2017181
1.2017459
1.2017674
1.2017839
1.2017965
1.201806
1.2018131
1.2018183
1.2018222
1.2018249
1.2018269
1.2018283
1.2018292
1.2018299
1.2018303
1.2018306
1.2018307
1.2018309
1.2018309
1.201831
1.201831
1.201831
1.201831
1.201831
1.201831
1.201831
1.201831
1.201831
1.201831
1.201831
1.201831
1.201831
1.201831
1.201831
1.201831
0.77546171
0.7970897
0.81908171
0.84147189
0.86426152
0.88741453
0.91085321
0.93445502
0.95805201
0.98143417
1.0043575
1.0265573
1.0477661
1.0677336
1.0862467
1.1031454
1.1183333
1.1317798
1.1435162
1.1536253
1.1622285
1.1694717
1.1755123
1.180509
1.1846133
1.1879649
1.1906886
1.1928933
1.1946723
1.1961044
1.1972549
1.198178
1.1989179
1.1995104
1.1999847
1.2003643
1.2006678
1.2009104
1.2011043
1.201259
1.2013823
1.2014804
1.2015583
1.20162
1.2016687
1.2017069
1.2017368
1.20176
1.201778
1.2017917
1.2018022
1.20181
1.2018159
1.2018202
1.2018233
1.2018255
1.2018271
1.2018282
1.2018289
1.2018294
1.2018297
1.2018299
1.2018301
1.2018302
1.2018302
1.2018302
1.2018302
1.2018302
1.2018303
1.2018303
1.2018303
1.2018303
1.2018303
1.2018302
1.2018302
1.2018302
1.2018302
1.2018302
1.2018302
1.2018302
0.77499544
0.79651157
0.81838353
0.84064624
0.86330255
0.88631897
0.90962136
0.93309184
0.956568
0.97984586
1.0026875
1.0248334
1.0460201
1.0659989
1.084556
1.1015285
1.1168147
1.1303779
1.1422425
1.1524848
1.1612205
1.168591
1.1747506
1.1798557
1.184057
1.187494
1.1902919
1.1925604
1.1943938
1.1958718
1.197061
1.1980165
1.1987834
1.1993985
1.1998917
1.2002868
1.2006034
1.2008569
1.2010598
1.2012221
1.2013518
1.2014552
1.2015375
1.2016029
1.2016547
1.2016955
1.2017275
1.2017525
1.2017719
1.2017868
1.2017982
1.2018069
1.2018133
1.2018181
1.2018216
1.2018241
1.2018258
1.2018271
1.2018279
1.2018285
1.2018289
1.2018291
1.2018293
1.2018294
1.2018294
1.2018295
1.2018295
1.2018295
1.2018295
1.2018295
1.2018295
1.2018295
1.2018295
1.2018295
1.2018295
1.2018295
1.2018295
1.2018295
1.2018295
1.2018295
0.77454626
0.79595473
0.81771116
0.83985119
0.86237916
0.88526397
0.90843487
0.93177837
0.95513731
0.97831348
1.0010747
1.0231667
1.0443296
1.0643168
1.0829139
1.0999552
1.1153344
1.1290089
1.1409965
1.1513673
1.1602313
1.1677256
1.174001
1.1792122
1.1835086
1.1870295
1.1899004
1.1922317
1.1941186
1.195642
1.1968694
1.1978569
1.1986505
1.199288
1.1997996
1.2002103
1.2005397
1.2008039
1.2010158
1.2011855
1.2013214
1.20143
1.2015167
1.2015857
1.2016406
1.2016839
1.2017181
1.2017448
1.2017657
1.2017818
1.2017942
1.2018036
1.2018106