/*--------------------------------*- C++ -*----------------------------------*\
| =========                 |                                                 |
| \\      /  F ield         | OpenFOAM: The Open Source CFD Toolbox           |
|  \\    /   O peration     | Version:  3.0.1                                 |
|   \\  /    A nd           | Web:      www.OpenFOAM.org                      |
|    \\/     M anipulation  |                                                 |
\*---------------------------------------------------------------------------*/
FoamFile
{
    version     2.0;
    format      ascii;
    class       volScalarField;
    location    "2294";
    object      T;
}
// * * * * * * * * * * * * * * * * * * * * * * * * * * * * * * * * * * * * * //

dimensions      [0 0 0 1 0 0 0];

internalField   nonuniform List<scalar> 
16000
(
385.63019
363.31989
344.57884
329.78208
318.64134
310.56231
304.87975
300.9837
298.37059
296.65156
295.54014
294.83282
294.38915
294.11458
293.94676
293.84541
293.78486
293.74907
293.72812
293.71597
293.70899
293.70501
293.70276
293.7015
293.70079
293.7004
293.70019
293.70007
293.7
293.69997
293.69995
293.69994
293.69994
293.69993
293.69993
293.69993
293.69993
293.69993
293.69993
293.69993
293.69993
293.69993
293.69993
293.69993
293.69993
293.69993
293.69993
293.69993
293.69993
293.69993
293.69993
293.69993
293.69993
293.69993
293.69993
293.69993
293.69993
293.69993
293.69993
293.69993
293.69993
293.69993
293.69993
293.69993
293.69993
293.69993
293.69993
293.69993
293.69993
293.69993
293.69993
293.69993
293.69993
293.69993
293.69993
293.69993
293.69993
293.69994
293.69994
293.69994
408.51218
388.54354
369.89597
353.13621
338.70781
326.81997
317.4287
310.29044
305.04787
301.31135
298.71652
296.9546
295.78149
295.01382
294.51921
294.20499
294.00795
293.88587
293.81109
293.76577
293.73857
293.72241
293.7129
293.70735
293.70413
293.70228
293.70123
293.70063
293.70029
293.7001
293.69999
293.69993
293.6999
293.69988
293.69987
293.69986
293.69986
293.69986
293.69986
293.69986
293.69986
293.69986
293.69986
293.69986
293.69986
293.69986
293.69986
293.69986
293.69986
293.69986
293.69986
293.69986
293.69986
293.69986
293.69986
293.69986
293.69986
293.69986
293.69986
293.69986
293.69986
293.69986
293.69986
293.69986
293.69986
293.69986
293.69986
293.69986
293.69986
293.69986
293.69986
293.69986
293.69986
293.69986
293.69986
293.69986
293.69986
293.69986
293.69987
293.69987
418.74443
400.31697
382.77719
366.43661
351.64071
338.68494
327.74333
318.83449
311.83143
306.50289
302.56591
299.73199
297.73847
296.36433
295.4341
294.81451
294.40788
294.14461
293.97631
293.86998
293.80354
293.76247
293.73734
293.7221
293.71295
293.70749
293.70427
293.70238
293.70127
293.70064
293.70027
293.70006
293.69994
293.69987
293.69983
293.69981
293.6998
293.69979
293.69979
293.69979
293.69978
293.69978
293.69978
293.69978
293.69978
293.69978
293.69978
293.69978
293.69978
293.69978
293.69978
293.69978
293.69978
293.69978
293.69978
293.69978
293.69978
293.69978
293.69978
293.69978
293.69978
293.69978
293.69978
293.69978
293.69978
293.69978
293.69978
293.69978
293.69978
293.69978
293.69978
293.69979
293.69979
293.69979
293.69979
293.69979
293.69979
293.69979
293.69979
293.69979
424.89359
407.44505
390.73909
374.9667
360.37235
347.20659
335.67246
325.88141
317.83259
311.41942
306.45724
302.71955
299.97155
297.99446
296.5993
295.6318
294.97138
294.52705
294.2321
294.03874
293.91347
293.83321
293.78233
293.75041
293.73056
293.71834
293.71088
293.70636
293.70364
293.70202
293.70106
293.70049
293.70016
293.69997
293.69986
293.6998
293.69976
293.69974
293.69973
293.69972
293.69971
293.69971
293.69971
293.69971
293.69971
293.69971
293.69971
293.69971
293.69971
293.69971
293.69971
293.69971
293.69971
293.69971
293.69971
293.69971
293.69971
293.69971
293.69971
293.69971
293.69971
293.69971
293.69971
293.69971
293.69971
293.69971
293.69971
293.69971
293.69971
293.69971
293.69971
293.69971
293.69971
293.69971
293.69971
293.69971
293.69972
293.69972
293.69972
293.69972
429.17683
412.42511
396.34495
381.06372
366.76174
353.64258
341.89521
331.65639
322.98353
315.84555
310.13244
305.6782
302.28824
299.76416
297.92156
296.60022
295.66789
295.01973
294.57526
294.27433
294.07303
293.93989
293.8528
293.79641
293.76026
293.7373
293.72286
293.71384
293.70827
293.70484
293.70276
293.7015
293.70074
293.70029
293.70002
293.69986
293.69977
293.69971
293.69968
293.69966
293.69965
293.69964
293.69964
293.69964
293.69964
293.69964
293.69964
293.69964
293.69964
293.69964
293.69964
293.69964
293.69964
293.69964
293.69964
293.69964
293.69964
293.69964
293.69964
293.69964
293.69964
293.69964
293.69964
293.69964
293.69964
293.69964
293.69964
293.69964
293.69964
293.69964
293.69964
293.69964
293.69964
293.69964
293.69964
293.69964
293.69964
293.69964
293.69964
293.69964
432.40439
416.18421
400.59326
385.72046
371.70428
358.71196
346.91174
336.44242
327.38713
319.75822
313.49672
308.48487
304.56634
301.56802
299.31841
297.66029
296.45774
295.59838
294.99259
294.57093
294.28093
294.08372
293.95106
293.86274
293.80452
293.76651
293.74192
293.72616
293.71614
293.70982
293.70586
293.70341
293.7019
293.70097
293.70041
293.70007
293.69986
293.69974
293.69967
293.69962
293.6996
293.69958
293.69958
293.69957
293.69957
293.69957
293.69957
293.69956
293.69956
293.69956
293.69956
293.69956
293.69956
293.69956
293.69956
293.69956
293.69956
293.69956
293.69956
293.69956
293.69956
293.69956
293.69956
293.69956
293.69956
293.69956
293.69957
293.69957
293.69957
293.69957
293.69957
293.69957
293.69957
293.69957
293.69957
293.69957
293.69957
293.69957
293.69957
293.69957
434.96643
419.17167
403.97772
389.44791
375.69162
362.84859
351.06768
340.48197
331.18519
323.21488
316.54646
311.09862
306.7475
303.3446
300.73403
298.76608
297.30598
296.2383
295.46794
294.91895
294.53225
294.26286
294.07717
293.95045
293.86482
293.80751
293.76949
293.7445
293.72821
293.71768
293.71093
293.70664
293.70392
293.70222
293.70117
293.70051
293.70011
293.69986
293.69971
293.69962
293.69957
293.69954
293.69952
293.69951
293.6995
293.6995
293.69949
293.69949
293.69949
293.69949
293.69949
293.69949
293.69949
293.69949
293.69949
293.69949
293.69949
293.69949
293.69949
293.69949
293.69949
293.69949
293.69949
293.69949
293.69949
293.69949
293.69949
293.69949
293.69949
293.69949
293.69949
293.69949
293.69949
293.69949
293.69949
293.6995
293.6995
293.6995
293.6995
293.6995
437.07301
421.63015
406.76753
392.53029
379.00649
366.31473
354.58711
343.94866
334.49645
326.28282
319.30656
313.51375
308.80707
305.06006
302.13263
299.88443
298.18458
296.91744
295.98508
295.30723
294.81994
294.47332
294.22926
294.05908
293.94153
293.86108
293.8065
293.76979
293.74532
293.72914
293.71852
293.71161
293.70714
293.70428
293.70246
293.70131
293.70059
293.70013
293.69985
293.69968
293.69958
293.69951
293.69947
293.69945
293.69944
293.69943
293.69942
293.69942
293.69942
293.69942
293.69942
293.69942
293.69942
293.69942
293.69942
293.69942
293.69942
293.69942
293.69942
293.69942
293.69942
293.69942
293.69942
293.69942
293.69942
293.69942
293.69942
293.69942
293.69942
293.69942
293.69942
293.69942
293.69942
293.69942
293.69942
293.69942
293.69942
293.69942
293.69942
293.69942
438.85101
423.70657
409.12663
395.14278
381.82685
369.28073
357.62234
346.96828
337.41536
329.02459
321.81097
315.74126
310.73966
306.69889
303.49373
300.99373
299.07331
297.61839
296.52999
295.72517
295.13643
294.7101
294.40435
294.18709
294.03409
293.92728
293.85336
293.80262
293.76808
293.74475
293.72913
293.71874
293.71189
293.7074
293.70448
293.7026
293.70139
293.70063
293.70014
293.69984
293.69965
293.69953
293.69946
293.69941
293.69938
293.69937
293.69936
293.69935
293.69935
293.69935
293.69935
293.69935
293.69935
293.69935
293.69935
293.69935
293.69935
293.69935
293.69935
293.69935
293.69935
293.69935
293.69935
293.69935
293.69935
293.69935
293.69935
293.69935
293.69935
293.69935
293.69935
293.69935
293.69935
293.69935
293.69935
293.69935
293.69935
293.69935
293.69935
293.69935
440.38187
425.49535
411.16082
397.39938
384.2701
371.8614
360.27916
349.63189
340.01437
331.49254
324.09278
317.79768
312.54891
308.25573
304.80649
302.08054
299.95821
298.3281
297.09134
296.1635
295.47459
294.96799
294.59886
294.33222
294.14125
294.00559
293.91
293.84318
293.79684
293.76494
293.74316
293.7284
293.71846
293.71183
293.70744
293.70454
293.70265
293.70142
293.70063
293.70013
293.6998
293.6996
293.69947
293.69939
293.69935
293.69932
293.6993
293.69929
293.69928
293.69928
293.69927
293.69927
293.69927
293.69927
293.69927
293.69927
293.69927
293.69927
293.69927
293.69927
293.69927
293.69927
293.69927
293.69927
293.69927
293.69927
293.69927
293.69927
293.69927
293.69927
293.69927
293.69927
293.69927
293.69927
293.69928
293.69928
293.69928
293.69928
293.69928
293.69928
441.72095
427.06076
412.94228
399.37831
386.41762
374.13752
362.63363
352.00698
342.3494
333.72946
326.1816
319.70066
314.24262
309.73091
306.06617
303.13709
300.83016
299.03724
297.66044
296.61464
295.82814
295.24209
294.80914
294.49194
294.26136
294.09503
293.97597
293.89137
293.8317
293.78992
293.76089
293.74086
293.72714
293.71781
293.71151
293.70729
293.70447
293.70262
293.7014
293.7006
293.70009
293.69976
293.69955
293.69941
293.69933
293.69928
293.69925
293.69923
293.69922
293.69921
293.6992
293.6992
293.6992
293.6992
293.6992
293.6992
293.6992
293.6992
293.6992
293.6992
293.6992
293.6992
293.6992
293.6992
293.6992
293.6992
293.6992
293.6992
293.6992
293.6992
293.6992
293.6992
293.6992
293.6992
293.6992
293.6992
293.6992
293.6992
293.6992
293.6992
442.90734
428.44823
414.52219
401.13526
388.32776
376.16771
364.74187
354.14444
344.46389
335.76995
328.10283
321.46691
315.82998
311.12765
307.2716
304.1593
301.6834
299.73938
298.23085
297.07263
296.19189
295.52805
295.03178
294.66364
294.39256
294.19438
294.05052
293.9468
293.87254
293.81974
293.78246
293.75632
293.73812
293.72553
293.71688
293.71098
293.70699
293.70431
293.70251
293.70132
293.70054
293.70003
293.6997
293.69949
293.69935
293.69926
293.69921
293.69918
293.69916
293.69914
293.69914
293.69913
293.69913
293.69913
293.69913
293.69913
293.69913
293.69913
293.69913
293.69913
293.69913
293.69913
293.69913
293.69913
293.69913
293.69913
293.69913
293.69913
293.69913
293.69913
293.69913
293.69913
293.69913
293.69913
293.69913
293.69913
293.69913
293.69913
293.69913
293.69913
443.96965
429.69101
415.93805
402.7112
390.04371
377.9957
366.64627
356.08338
346.39204
337.64213
329.87798
323.11151
317.3203
312.45052
308.42369
305.14548
302.51457
300.43023
298.79795
297.53291
296.56164
295.82222
295.2637
294.84489
294.533
294.30229
294.13272
294.0089
293.91905
293.85428
293.80789
293.77487
293.75152
293.73513
293.72369
293.71577
293.71031
293.70658
293.70406
293.70235
293.70121
293.70045
293.69995
293.69963
293.69942
293.69928
293.69919
293.69914
293.6991
293.69908
293.69907
293.69906
293.69906
293.69906
293.69905
293.69905
293.69905
293.69905
293.69905
293.69905
293.69905
293.69905
293.69905
293.69905
293.69905
293.69905
293.69905
293.69905
293.69905
293.69905
293.69905
293.69905
293.69905
293.69906
293.69906
293.69906
293.69906
293.69906
293.69906
293.69906
444.92935
430.81409
417.21808
404.13704
391.5982
379.65491
368.37955
357.85442
348.16105
339.36888
331.52514
324.64775
318.72245
313.70455
309.52445
306.0954
303.32187
301.10702
299.35846
297.99208
296.93408
296.12157
295.50227
295.03347
294.6809
294.41737
294.22158
294.07698
293.97079
293.89329
293.83705
293.79649
293.76742
293.74671
293.73205
293.72174
293.71454
293.70954
293.7061
293.70374
293.70214
293.70106
293.70034
293.69986
293.69954
293.69934
293.6992
293.69912
293.69907
293.69903
293.69901
293.699
293.69899
293.69899
293.69898
293.69898
293.69898
293.69898
293.69898
293.69898
293.69898
293.69898
293.69898
293.69898
293.69898
293.69898
293.69898
293.69898
293.69898
293.69898
293.69898
293.69898
293.69898
293.69898
293.69898
293.69898
293.69898
293.69898
293.69898
293.69898
445.80296
431.83669
418.38402
405.43663
393.01659
381.17137
369.96739
359.48186
349.79289
340.96904
333.05957
326.0872
320.04454
314.89485
310.57648
307.00971
304.10457
301.76809
299.91017
298.44764
297.30668
296.42369
295.74528
295.22746
294.83463
294.53834
294.31609
294.15027
294.02723
293.93642
293.86976
293.8211
293.78578
293.7603
293.74202
293.72898
293.71975
293.71326
293.70871
293.70556
293.70339
293.7019
293.70089
293.70021
293.69975
293.69945
293.69925
293.69912
293.69904
293.69899
293.69896
293.69894
293.69892
293.69892
293.69891
293.69891
293.69891
293.69891
293.69891
293.69891
293.69891
293.69891
293.69891
293.69891
293.69891
293.69891
293.69891
293.69891
293.69891
293.69891
293.69891
293.69891
293.69891
293.69891
293.69891
293.69891
293.69891
293.69891
293.69891
293.69891
446.60339
432.77389
419.45291
406.62871
394.31887
382.56569
371.43032
360.98528
351.30544
342.4582
334.49418
327.43994
321.2939
316.02629
311.58259
307.8896
304.86263
302.41254
300.4516
298.89781
297.67752
296.72665
295.99091
295.42521
294.99277
294.66397
294.41525
294.22803
294.08779
293.98327
293.90574
293.84853
293.80654
293.77587
293.75361
293.73754
293.72601
293.71778
293.71196
293.70786
293.70499
293.703
293.70163
293.70069
293.70006
293.69963
293.69935
293.69916
293.69904
293.69896
293.69891
293.69888
293.69886
293.69885
293.69884
293.69884
293.69884
293.69883
293.69883
293.69883
293.69883
293.69883
293.69883
293.69883
293.69883
293.69883
293.69883
293.69883
293.69883
293.69883
293.69883
293.69883
293.69884
293.69884
293.69884
293.69884
293.69884
293.69884
293.69884
293.69884
447.34098
433.63768
420.43837
407.72828
395.52107
383.85447
372.78493
362.38068
352.71347
343.84939
335.83992
328.71469
322.47708
317.10343
312.54565
308.73654
305.59644
303.03997
300.98184
299.34133
298.04516
297.02896
296.23771
295.62536
295.15407
294.79319
294.51815
294.30949
294.15189
294.03339
293.94468
293.87857
293.82955
293.79337
293.76681
293.74742
293.73333
293.72317
293.71587
293.71067
293.70699
293.7044
293.70259
293.70134
293.70048
293.6999
293.69951
293.69924
293.69907
293.69895
293.69888
293.69883
293.6988
293.69879
293.69878
293.69877
293.69876
293.69876
293.69876
293.69876
293.69876
293.69876
293.69876
293.69876
293.69876
293.69876
293.69876
293.69876
293.69876
293.69876
293.69876
293.69876
293.69876
293.69876
293.69876
293.69876
293.69876
293.69876
293.69876
293.69876
448.02405
434.4378
421.35141
408.74748
396.63621
385.05127
374.04483
363.68123
354.02926
345.15357
337.10613
329.91905
323.59993
318.13047
313.46841
309.55212
306.30669
303.65037
301.50036
299.77735
298.40855
297.32947
296.48449
295.82675
295.31748
294.92504
294.62397
294.39396
294.21895
294.08632
293.98622
293.91097
293.85465
293.81268
293.78156
293.75859
293.74173
293.72942
293.72049
293.71404
293.70942
293.70613
293.70381
293.70218
293.70105
293.70027
293.69973
293.69937
293.69913
293.69897
293.69886
293.6988
293.69875
293.69873
293.69871
293.6987
293.69869
293.69869
293.69869
293.69869
293.69869
293.69869
293.69869
293.69869
293.69869
293.69869
293.69869
293.69869
293.69869
293.69869
293.69869
293.69869
293.69869
293.69869
293.69869
293.69869
293.69869
293.69869
293.69869
293.69869
448.65944
435.1822
422.20107
409.69631
397.67501
386.16723
375.22129
364.89793
355.26313
346.38005
338.30084
331.05963
324.66761
319.11124
314.35354
310.33799
306.99419
304.24395
302.00694
300.20533
298.76695
297.62731
296.73034
296.02848
295.4821
295.0587
294.73196
294.48079
294.28843
294.14163
294.03
293.94544
293.88163
293.83366
293.79776
293.77101
293.75118
293.73655
293.72582
293.71799
293.71231
293.70822
293.7053
293.70323
293.70177
293.70075
293.70004
293.69956
293.69923
293.69901
293.69887
293.69877
293.69871
293.69867
293.69865
293.69863
293.69863
293.69862
293.69862
293.69862
293.69861
293.69861
293.69861
293.69861
293.69861
293.69861
293.69861
293.69861
293.69861
293.69861
293.69862
293.69862
293.69862
293.69862
293.69862
293.69862
293.69862
293.69862
293.69862
293.69862
449.25281
435.8775
422.99484
410.58302
398.64638
387.21169
376.32376
366.04003
356.42383
347.53677
339.431
332.14222
325.68475
320.04924
315.20349
311.09576
307.65988
304.8211
302.50155
300.62494
299.11983
297.92183
296.97455
296.2298
295.64722
295.19348
294.84149
294.56941
294.35981
294.19887
294.07569
293.98171
293.91027
293.85614
293.8153
293.7846
293.76163
293.74453
293.73185
293.72251
293.71567
293.71069
293.70709
293.7045
293.70266
293.70136
293.70045
293.69982
293.69939
293.69909
293.6989
293.69877
293.69868
293.69863
293.69859
293.69857
293.69856
293.69855
293.69855
293.69854
293.69854
293.69854
293.69854
293.69854
293.69854
293.69854
293.69854
293.69854
293.69854
293.69854
293.69854
293.69854
293.69854
293.69854
293.69854
293.69854
293.69854
293.69855
293.69855
293.69855
449.8089
436.52922
423.73901
411.41459
399.55781
388.19248
377.36022
367.11539
357.51881
348.63058
340.50262
333.17191
326.65544
320.94762
316.02058
311.82699
308.30472
305.38229
302.98431
301.03602
299.46684
298.21255
297.21655
296.43012
295.81222
295.32879
294.952
294.65931
294.43265
294.25765
294.12292
294.0195
293.94034
293.87996
293.83405
293.79927
293.77303
293.75331
293.73857
293.72761
293.7195
293.71353
293.70917
293.70601
293.70374
293.70211
293.70096
293.70016
293.6996
293.69921
293.69895
293.69878
293.69866
293.69859
293.69854
293.69851
293.69849
293.69848
293.69848
293.69847
293.69847
293.69847
293.69847
293.69847
293.69847
293.69847
293.69847
293.69847
293.69847
293.69847
293.69847
293.69847
293.69847
293.69847
293.69847
293.69847
293.69847
293.69847
293.69847
293.69847
450.33172
437.14203
424.43887
412.19687
400.41564
389.11626
378.33745
368.13071
358.55449
349.66738
341.52094
334.15318
327.58336
321.80926
316.80694
312.53319
308.92966
305.92807
303.45541
301.43856
299.80777
298.49915
297.45594
296.62898
295.97663
295.46415
295.06302
294.75003
294.50654
294.3176
294.17139
294.05852
293.97163
293.90492
293.85385
293.8149
293.78528
293.76285
293.74595
293.73326
293.72379
293.71676
293.71157
293.70777
293.70501
293.70302
293.70159
293.70058
293.69987
293.69938
293.69904
293.69882
293.69866
293.69856
293.6985
293.69846
293.69843
293.69842
293.69841
293.6984
293.6984
293.6984
293.6984
293.6984
293.69839
293.69839
293.6984
293.6984
293.6984
293.6984
293.6984
293.6984
293.6984
293.6984
293.6984
293.6984
293.6984
293.6984
293.6984
293.6984
450.82467
437.71993
425.09895
412.93489
401.22527
389.98874
379.26128
369.09179
359.53644
350.65232
342.49058
335.08997
328.47178
322.63674
317.56454
313.21577
309.53567
306.45901
303.91516
301.83259
300.14253
298.78141
297.69241
296.82602
296.14006
295.59916
295.17415
294.84121
294.58111
294.3784
294.2208
294.09853
294.0039
293.93084
293.87457
293.83137
293.7983
293.77308
293.75392
293.73943
293.72852
293.72036
293.71428
293.70978
293.70648
293.70408
293.70234
293.7011
293.70022
293.6996
293.69917
293.69888
293.69868
293.69855
293.69846
293.69841
293.69837
293.69835
293.69834
293.69833
293.69833
293.69832
293.69832
293.69832
293.69832
293.69832
293.69832
293.69832
293.69832
293.69832
293.69832
293.69832
293.69832
293.69832
293.69832
293.69832
293.69833
293.69833
293.69833
293.69833
451.29068
438.26631
425.72315
413.63294
401.99138
390.81481
380.13676
370.00362
360.46947
351.58992
343.41558
335.98582
329.32363
323.43242
318.29519
313.87606
310.12365
306.9757
304.36387
302.21826
300.47107
299.05918
297.92574
297.02098
296.3022
295.7335
295.28507
294.93253
294.65607
294.43976
294.27088
294.13928
294.03695
293.95754
293.89605
293.84857
293.812
293.78393
293.76245
293.74609
293.73368
293.72431
293.71728
293.71204
293.70816
293.7053
293.70322
293.70171
293.70064
293.69987
293.69934
293.69897
293.69872
293.69855
293.69844
293.69837
293.69832
293.69829
293.69827
293.69826
293.69826
293.69825
293.69825
293.69825
293.69825
293.69825
293.69825
293.69825
293.69825
293.69825
293.69825
293.69825
293.69825
293.69825
293.69825
293.69825
293.69825
293.69825
293.69825
293.69825
451.73228
438.78415
426.31481
414.29477
402.71799
391.59875
380.96825
370.87059
361.35783
352.48413
344.29954
336.84386
330.14156
324.19845
319.00056
314.5153
310.69451
307.47872
304.80189
302.59573
300.79344
299.33239
298.1558
297.21365
296.46283
295.86691
295.39553
295.02371
294.73115
294.50143
294.32141
294.18057
294.07058
293.98485
293.91815
293.86637
293.82627
293.7953
293.77147
293.75319
293.73922
293.72861
293.72058
293.71454
293.71003
293.70669
293.70423
293.70243
293.70114
293.70021
293.69955
293.6991
293.69878
293.69857
293.69843
293.69833
293.69827
293.69823
293.69821
293.69819
293.69819
293.69818
293.69818
293.69818
293.69818
293.69818
293.69818
293.69818
293.69818
293.69818
293.69818
293.69818
293.69818
293.69818
293.69818
293.69818
293.69818
293.69818
293.69818
293.69818
452.15167
439.27599
426.87685
414.92359
403.40862
392.34426
381.75957
371.69652
362.20522
353.33846
345.14565
337.66688
330.92794
324.93677
319.68219
315.13466
311.24907
307.96867
305.2296
302.9652
301.10971
299.60102
298.38249
297.4039
296.62178
295.99921
295.50529
295.11455
294.80614
294.5632
294.37217
294.2222
294.10463
294.01262
293.94072
293.88465
293.84101
293.80713
293.78091
293.76067
293.74511
293.7332
293.72414
293.71727
293.71209
293.70823
293.70536
293.70325
293.70171
293.70061
293.69981
293.69926
293.69887
293.6986
293.69843
293.69831
293.69823
293.69818
293.69815
293.69813
293.69812
293.69811
293.69811
293.6981
293.6981
293.6981
293.6981
293.6981
293.6981
293.6981
293.6981
293.6981
293.6981
293.6981
293.69811
293.69811
293.69811
293.69811
293.69811
293.69811
452.55076
439.7441
427.41182
415.52226
404.06633
393.05459
382.5141
372.48478
363.01495
354.15603
345.95674
338.45741
331.68492
325.64916
320.34148
315.73523
311.78814
308.44609
305.64736
303.3269
301.42
299.86511
298.60577
297.59164
296.77891
296.13023
295.61422
295.20486
294.88086
294.6249
294.42301
294.26401
294.13895
294.04071
293.96365
293.90331
293.85613
293.81933
293.7907
293.76848
293.75131
293.73808
293.72794
293.7202
293.71434
293.70992
293.70662
293.70417
293.70238
293.70107
293.70012
293.69946
293.69899
293.69866
293.69844
293.69829
293.69819
293.69813
293.69809
293.69806
293.69805
293.69804
293.69804
293.69803
293.69803
293.69803
293.69803
293.69803
293.69803
293.69803
293.69803
293.69803
293.69803
293.69803
293.69803
293.69803
293.69803
293.69803
293.69803
293.69803
452.93125
440.19042
427.92198
416.09326
404.69384
393.73262
383.23479
373.23836
363.78993
354.93958
346.73537
339.21772
332.41445
326.33723
320.97974
316.31801
312.31249
308.91155
306.05556
303.68107
301.72443
300.12471
298.82564
297.77681
296.93415
296.25989
295.72217
295.29452
294.95516
294.68637
294.47378
294.30586
294.17339
294.069
293.98683
293.92224
293.87154
293.83183
293.80078
293.77658
293.75776
293.74319
293.73196
293.72333
293.71675
293.71176
293.708
293.70519
293.70312
293.70159
293.70048
293.69969
293.69913
293.69874
293.69847
293.69829
293.69816
293.69808
293.69803
293.698
293.69798
293.69797
293.69796
293.69796
293.69796
293.69796
293.69796
293.69796
293.69796
293.69796
293.69796
293.69796
293.69796
293.69796
293.69796
293.69796
293.69796
293.69796
293.69796
293.69796
453.29461
440.61671
428.40928
416.63878
405.29354
394.38088
383.92426
373.95991
364.53275
355.69161
347.48382
339.94983
333.1183
327.00247
321.59817
316.88395
312.82283
309.36556
306.45456
304.02795
302.02316
300.37988
299.04211
297.95941
297.08745
296.38809
295.82905
295.38341
295.02894
294.7475
294.52436
294.34765
294.20785
294.09737
294.01014
293.94135
293.88716
293.84455
293.81109
293.7849
293.76444
293.74851
293.73616
293.72663
293.71931
293.71373
293.70949
293.70631
293.70393
293.70218
293.70089
293.69997
293.6993
293.69884
293.69851
293.69829
293.69814
293.69805
293.69798
293.69794
293.69792
293.6979
293.69789
293.69789
293.69789
293.69788
293.69788
293.69788
293.69788
293.69788
293.69788
293.69788
293.69789
293.69789
293.69789
293.69789
293.69789
293.69789
293.69789
293.69789
453.64216
441.02449
428.87549
417.16078
405.86753
395.00162
384.58486
374.65178
365.24575
356.41432
348.20414
340.6556
333.79808
327.64623
322.19789
317.43393
313.31983
309.80863
306.84473
304.36779
302.31634
300.63073
299.25524
298.13943
297.23877
296.51479
295.93481
295.47147
295.10212
294.80821
294.57465
294.38927
294.24225
294.12575
294.03352
293.96056
293.90291
293.85742
293.82158
293.7934
293.77129
293.754
293.74053
293.73008
293.72201
293.71582
293.71109
293.70751
293.70483
293.70283
293.70135
293.70028
293.69951
293.69896
293.69858
293.69831
293.69813
293.69801
293.69794
293.69789
293.69785
293.69784
293.69782
293.69782
293.69781
293.69781
293.69781
293.69781
293.69781
293.69781
293.69781
293.69781
293.69781
293.69781
293.69781
293.69781
293.69781
293.69781
293.69781
293.69781
453.97508
441.41514
429.32216
417.66099
406.41772
395.59685
385.21867
375.3161
365.93099
357.10972
348.89819
341.33671
334.45525
328.26975
322.7799
317.96876
313.80412
310.24123
307.22641
304.70084
302.60415
300.87736
299.46508
298.31689
297.38811
296.63997
296.0394
295.55863
295.17462
294.86842
294.6246
294.43064
294.27649
294.15406
294.05688
293.97981
293.91874
293.8704
293.83218
293.80203
293.77828
293.75964
293.74504
293.73366
293.72483
293.71801
293.71278
293.7088
293.70579
293.70353
293.70186
293.70063
293.69974
293.6991
293.69865
293.69834
293.69813
293.69799
293.69789
293.69783
293.69779
293.69777
293.69776
293.69775
293.69774
293.69774
293.69774
293.69774
293.69774
293.69774
293.69774
293.69774
293.69774
293.69774
293.69774
293.69774
293.69774
293.69774
293.69774
293.69774
454.29441
441.78988
429.75068
418.14097
406.94578
396.16838
385.82756
375.95475
366.59036
357.77961
349.56766
341.99467
335.09114
328.87417
323.34515
318.4892
314.27629
310.66381
307.59993
305.02733
302.88674
301.11988
299.67169
298.49183
297.53549
296.76361
296.14279
295.64487
295.2464
294.92808
294.67412
294.47172
294.31052
294.18223
294.08017
293.99904
293.93459
293.88343
293.84286
293.81075
293.78538
293.76537
293.74966
293.73735
293.72775
293.7203
293.71456
293.71016
293.70681
293.70429
293.70241
293.70102
293.7
293.69927
293.69875
293.69839
293.69814
293.69797
293.69785
293.69778
293.69773
293.69771
293.69769
293.69768
293.69767
293.69767
293.69767
293.69767
293.69767
293.69767
293.69767
293.69767
293.69767
293.69767
293.69767
293.69767
293.69767
293.69767
293.69767
293.69767
454.60108
442.1498
430.16231
418.60209
407.45324
396.7178
386.41321
376.56944
367.22555
358.42561
350.21405
342.63087
335.70699
329.46054
323.89451
318.99594
314.73691
311.0768
307.96562
305.34751
303.1643
301.3584
299.87514
298.66429
297.68091
296.88572
296.24497
295.73015
295.31743
294.98715
294.72319
294.51244
294.34429
294.21021
294.10334
294.0182
293.9504
293.89646
293.85358
293.81953
293.79254
293.77119
293.75435
293.74112
293.73075
293.72267
293.71641
293.71158
293.7079
293.7051
293.703
293.70144
293.7003
293.69946
293.69887
293.69845
293.69815
293.69796
293.69782
293.69773
293.69768
293.69764
293.69762
293.69761
293.6976
293.6976
293.69759
293.69759
293.69759
293.69759
293.69759
293.69759
293.69759
293.69759
293.69759
293.69759
293.69759
293.69759
293.69759
293.6976
454.89594
442.4959
430.55817
419.04562
407.94145
397.24658
386.97713
377.16172
367.83808
359.04919
350.83877
343.24658
336.30389
330.02982
324.42879
319.48966
315.18648
311.4806
308.32377
305.66159
303.43696
301.59303
300.07552
298.83431
297.8244
297.00629
296.34593
295.81445
295.38768
295.0456
294.77177
294.55277
294.37776
294.23796
294.12634
294.03724
293.96615
293.90946
293.86429
293.82833
293.79974
293.77707
293.75912
293.74495
293.73382
293.7251
293.71832
293.71307
293.70904
293.70596
293.70364
293.7019
293.70062
293.69968
293.699
293.69852
293.69818
293.69795
293.6978
293.69769
293.69762
293.69758
293.69756
293.69754
293.69753
293.69752
293.69752
293.69752
293.69752
293.69752
293.69752
293.69752
293.69752
293.69752
293.69752
293.69752
293.69752
293.69752
293.69752
293.69752
455.17976
442.82906
430.93928
419.47269
408.41166
397.75602
387.5207
377.73298
368.42935
359.65171
351.44307
343.84294
336.88289
330.58289
324.94872
319.97094
315.62548
311.87558
308.67468
305.96979
303.7049
301.82388
300.27289
299.00194
297.966
297.12535
296.44568
295.89778
295.45714
295.10341
294.81982
294.59269
294.41089
294.26546
294.14914
294.05614
293.9818
293.9224
293.87497
293.83712
293.80696
293.78297
293.76392
293.74884
293.73694
293.7276
293.72029
293.71461
293.71022
293.70686
293.70431
293.70239
293.70096
293.69991
293.69915
293.6986
293.69822
293.69795
293.69777
293.69765
293.69757
293.69752
293.69749
293.69747
293.69746
293.69745
293.69745
293.69745
293.69745
293.69745
293.69745
293.69745
293.69745
293.69745
293.69745
293.69745
293.69745
293.69745
293.69745
293.69745
455.45322
443.15008
431.30654
419.88431
408.86496
398.24734
388.04516
378.28449
369.0006
360.23438
352.02811
344.42101
337.44492
331.12057
325.45498
320.44035
316.05437
312.26209
309.01859
306.2723
303.96824
302.05107
300.46732
299.16724
298.10572
297.2429
296.54421
295.98012
295.52579
295.16055
294.86733
294.63215
294.44366
294.29265
294.1717
294.07485
293.9973
293.93524
293.88558
293.84588
293.81417
293.78888
293.76875
293.75276
293.74011
293.73013
293.7223
293.71619
293.71145
293.7078
293.70502
293.70291
293.70133
293.70017
293.69932
293.6987
293.69827
293.69797
293.69776
293.69762
293.69753
293.69747
293.69743
293.69741
293.69739
293.69738
293.69738
293.69738
293.69737
293.69737
293.69737
293.69737
293.69737
293.69737
293.69738
293.69738
293.69738
293.69738
293.69738
293.69738
455.71695
443.45972
431.66081
420.28143
409.3024
398.72159
388.55164
378.8174
369.553
360.79832
352.59493
344.98177
337.99085
331.6436
325.94822
320.89841
316.47357
312.64046
309.35578
306.5693
304.22715
302.27467
300.6589
299.33024
298.2436
297.35897
296.64153
296.06146
295.59363
295.21702
294.91427
294.67115
294.47604
294.31952
294.194
294.09335
294.01265
293.94796
293.89611
293.85458
293.82135
293.79478
293.77358
293.7567
293.7433
293.7327
293.72435
293.71781
293.71271
293.70877
293.70575
293.70346
293.70173
293.70044
293.6995
293.69882
293.69833
293.69799
293.69775
293.69759
293.69748
293.69741
293.69737