/*--------------------------------*- C++ -*----------------------------------*\
| =========                 |                                                 |
| \\      /  F ield         | OpenFOAM: The Open Source CFD Toolbox           |
|  \\    /   O peration     | Version:  3.0.1                                 |
|   \\  /    A nd           | Web:      www.OpenFOAM.org                      |
|    \\/     M anipulation  |                                                 |
\*---------------------------------------------------------------------------*/
FoamFile
{
    version     2.0;
    format      ascii;
    class       volVectorField;
    location    "2294";
    object      U;
}
// * * * * * * * * * * * * * * * * * * * * * * * * * * * * * * * * * * * * * //

dimensions      [0 1 -1 0 0 0 0];

internalField   nonuniform List<vector> 
16000
(
(0.00020981785 2.5167788e-19 0.034674591)
(0.00068501428 7.9454753e-19 0.088038698)
(0.0015450283 1.6375209e-18 0.12924399)
(0.002249777 2.5944918e-18 0.16023357)
(0.0027687548 3.2345358e-18 0.1829226)
(0.003087898 2.5594758e-18 0.19903697)
(0.0032398208 1.67043e-18 0.21004189)
(0.0032677526 1.4813079e-18 0.21712963)
(0.0032135511 1.2339399e-18 0.22124017)
(0.0031111498 1.6381108e-18 0.22309651)
(0.0029851328 2.307827e-18 0.22324395)
(0.0028516337 1.8974926e-18 0.22208776)
(0.0027202153 1.8336004e-18 0.21992623)
(0.0025958316 1.3907772e-18 0.21697824)
(0.0024804776 7.7463674e-19 0.21340512)
(0.0023744085 6.673893e-19 0.20932734)
(0.0022769684 6.2842886e-19 0.20483696)
(0.0021871102 6.1028032e-19 0.20000648)
(0.0021036977 6.3396207e-19 0.19489518)
(0.0020256872 6.9194349e-19 0.18955335)
(0.0019521702 7.9592134e-19 0.1840252)
(0.0018826266 9.3537383e-19 0.17835069)
(0.0018165181 1.0970064e-18 0.17256681)
(0.0017530734 1.2055974e-18 0.16670804)
(0.0016917554 1.8662949e-18 0.16080683)
(0.001632186 2.1230463e-18 0.15489378)
(0.0015740881 2.3753792e-18 0.14899779)
(0.0015172603 2.1182051e-18 0.1431461)
(0.0014615579 1.9154303e-18 0.13736421)
(0.0014068796 1.8197978e-18 0.13167592)
(0.0013531534 1.7023766e-18 0.12610323)
(0.0013003337 1.181826e-18 0.12066623)
(0.0012483995 6.1250644e-19 0.11538312)
(0.0011973461 4.1059173e-19 0.11027016)
(0.0011471828 2.0231332e-19 0.10534167)
(0.0010979279 -3.8677468e-19 0.10061007)
(0.0010496028 -9.9947474e-19 0.096085889)
(0.0010022319 -1.6522833e-18 0.091777806)
(0.00095584149 -3.0127906e-18 0.087692722)
(0.00091045838 -4.0435861e-18 0.083835823)
(0.00086610681 -4.6815646e-18 0.080210656)
(0.00082280926 -4.3323526e-18 0.076819208)
(0.00078058612 -4.5343946e-18 0.073661996)
(0.00073945418 -4.3564021e-18 0.070738153)
(0.00069942641 -4.2052745e-18 0.068045508)
(0.00066051256 -4.1296272e-18 0.065580669)
(0.00062272 -3.6514962e-18 0.063339098)
(0.000586051 -3.1935415e-18 0.061315176)
(0.0005505065 -2.8026147e-18 0.059502257)
(0.00051608573 -2.4572564e-18 0.057892718)
(0.00048278433 -2.480428e-18 0.056477979)
(0.000450597 -2.5753025e-18 0.055248522)
(0.00041951847 -2.4071832e-18 0.054193878)
(0.00038954343 -2.277633e-18 0.053302592)
(0.00036066652 -1.8272622e-18 0.052562161)
(0.00033288493 -1.7607678e-18 0.051958933)
(0.00030619892 -1.6843995e-18 0.051477958)
(0.00028061254 -1.6704604e-18 0.051102792)
(0.00025613489 -1.3780865e-18 0.050815228)
(0.00023278345 -1.1071327e-18 0.050594967)
(0.00021058291 -8.4919048e-19 0.050419207)
(0.00018956595 -6.0188492e-19 0.050262178)
(0.00016977288 -3.8791594e-19 0.050094648)
(0.00015124837 -1.9095284e-19 0.049883476)
(0.0001340335 1.5362271e-20 0.049591329)
(0.00011815453 2.3413725e-19 0.049176733)
(0.00010361178 4.5680457e-19 0.048594637)
(9.0359585e-05 6.8473015e-19 0.047797651)
(7.8302508e-05 9.223115e-19 0.046737887)
(6.7301374e-05 1.1649787e-18 0.045368994)
(5.7208092e-05 1.427906e-18 0.043647458)
(4.7938065e-05 1.7334368e-18 0.041531878)
(3.954853e-05 2.0851878e-18 0.038979218)
(3.2271328e-05 1.9515347e-18 0.035938609)
(2.6428956e-05 1.4579872e-18 0.032346125)
(2.2114339e-05 9.6623236e-19 0.028126627)
(1.8815112e-05 7.8659251e-19 0.023207308)
(1.514614e-05 6.4008298e-19 0.017538412)
(9.6287776e-06 3.0347535e-19 0.011103502)
(2.1406993e-06 8.2793284e-20 0.0039036112)
(3.5488246e-06 2.0124317e-19 0.037501735)
(-0.00011125578 6.9352995e-19 0.095232284)
(-0.00022880744 1.5316385e-18 0.1395001)
(-0.00036450423 2.3445854e-18 0.17211688)
(-0.00049881205 2.5662317e-18 0.19506588)
(-0.00063101145 2.2812767e-18 0.21034454)
(-0.00075602845 1.8365088e-18 0.2197993)
(-0.00086579593 1.4020273e-18 0.22500431)
(-0.00095103629 1.6429345e-18 0.22720581)
(-0.0010042586 1.8341131e-18 0.22732777)
(-0.0010215909 2.0139488e-18 0.22601774)
(-0.0010031806 1.5977577e-18 0.22370915)
(-0.00095249016 1.6763838e-18 0.22068236)
(-0.00087510256 1.2398017e-18 0.21711531)
(-0.00077752139 6.9696412e-19 0.21312121)
(-0.0006662333 6.653649e-19 0.20877444)
(-0.00054710831 6.4049643e-19 0.20412726)
(-0.00042509032 6.479513e-19 0.19921999)
(-0.00030410582 7.0002436e-19 0.19408686)
(-0.00018709734 7.5126976e-19 0.18875905)
(-7.6174482e-05 8.1848796e-19 0.18326582)
(2.7364297e-05 9.005866e-19 0.17763422)
(0.00012260483 9.7442757e-19 0.17190466)
(0.00020904912 1.0022444e-18 0.16610834)
(0.00028647316 1.4652228e-18 0.16027251)
(0.0003549133 1.6879357e-18 0.15442467)
(0.00041460499 1.6403534e-18 0.14859184)
(0.00046593553 1.7092364e-18 0.14280012)
(0.000509472 2.0649485e-18 0.13707439)
(0.00054597496 2.0976816e-18 0.13143809)
(0.0005758164 1.8514327e-18 0.1259131)
(0.00059917256 1.2311035e-18 0.12051945)
(0.0006165017 6.2169915e-19 0.11527537)
(0.0006282796 4.291767e-19 0.11019723)
(0.00063500376 2.0140103e-19 0.10529953)
(0.00063716466 -4.0515318e-19 0.10059493)
(0.00063523564 -1.0019242e-18 0.096094234)
(0.00062967162 -1.6722117e-18 0.091806384)
(0.00062090657 -2.7428955e-18 0.08773855)
(0.00060934952 -3.7801958e-18 0.083896184)
(0.00059538182 -4.1427662e-18 0.080283093)
(0.00057935708 -4.1217855e-18 0.076901517)
(0.00056159956 -4.4527276e-18 0.073752211)
(0.000542406 -4.2908569e-18 0.07083453)
(0.00052204601 -4.1194404e-18 0.068146513)
(0.00050076063 -3.9249939e-18 0.065684957)
(0.00047876624 -3.570519e-18 0.063445499)
(0.00045625444 -3.1807378e-18 0.061422675)
(0.00043339593 -2.8122982e-18 0.05960998)
(0.00041033851 -2.4699133e-18 0.057999911)
(0.0003872121 -2.5000972e-18 0.056583997)
(0.00036413128 -2.5709678e-18 0.055352811)
(0.00034119596 -2.3788844e-18 0.054295961)
(0.00031849536 -2.1640903e-18 0.053402055)
(0.00029610861 -1.8291471e-18 0.052658641)
(0.00027410844 -1.8898341e-18 0.052052101)
(0.00025256639 -1.821242e-18 0.05156751)
(0.00023155286 -1.6298931e-18 0.051188432)
(0.00021114173 -1.445286e-18 0.050896662)
(0.0001914151 -1.1361653e-18 0.050671888)
(0.00017246136 -8.9524792e-19 0.050491296)
(0.00015438301 -4.3158075e-19 0.050329106)
(0.00013729256 -2.5318195e-19 0.050156093)
(0.00012130513 -3.3189902e-19 0.049939158)
(0.00010653 -1.5222801e-19 0.049641062)
(9.3051252e-05 1.9915279e-19 0.049220497)
(8.0901084e-05 4.5507813e-19 0.048632653)
(7.0035066e-05 7.0840824e-19 0.047830427)
(6.0317448e-05 1.0458015e-18 0.046766195)
(5.153267e-05 1.1682574e-18 0.045393725)
(4.3454309e-05 1.3256535e-18 0.043669332)
(3.596472e-05 1.697792e-18 0.041551072)
(2.9195385e-05 2.0030182e-18 0.038995114)
(2.3587175e-05 1.945549e-18 0.035950001)
(1.9717228e-05 1.5541653e-18 0.032352176)
(1.7758868e-05 1.0531438e-18 0.028128457)
(1.6822979e-05 7.4305457e-19 0.023209145)
(1.4666938e-05 6.2724013e-19 0.017546366)
(9.3002883e-06 3.0740175e-19 0.011120502)
(1.5214372e-06 8.5520518e-20 0.0039200752)
(-6.5438478e-06 2.2193195e-19 0.040498064)
(-0.00017663724 4.9170616e-19 0.10314856)
(-0.00043394908 2.7778371e-19 0.15123798)
(-0.00075108016 -8.4652607e-20 0.1863844)
(-0.0010866388 2.7614363e-20 0.21048773)
(-0.0014160884 1.149349e-18 0.22562104)
(-0.0017203819 1.9148837e-18 0.23386229)
(-0.0019848059 1.8776854e-18 0.23711895)
(-0.0021976971 1.9035722e-18 0.23699498)
(-0.0023507989 1.5177646e-18 0.2347278)
(-0.002440058 9.9054006e-19 0.23119415)
(-0.0024660166 1.343341e-18 0.22696367)
(-0.0024334062 1.0535288e-18 0.22237298)
(-0.0023500848 1.1195933e-18 0.2175991)
(-0.0022256949 1.1364352e-18 0.21272004)
(-0.0020704011 8.7335931e-19 0.2077591)
(-0.0018939155 7.7560995e-19 0.20271401)
(-0.0017048754 7.4511687e-19 0.19757442)
(-0.0015105365 7.6884641e-19 0.19233121)
(-0.0013167108 8.1933957e-19 0.18698066)
(-0.0011278553 8.8711969e-19 0.18152582)
(-0.00094741626 9.7279184e-19 0.17597669)
(-0.00077769472 1.1054112e-18 0.17035109)
(-0.00061987379 1.3738428e-18 0.16466939)
(-0.00047462544 1.176142e-18 0.15895316)
(-0.00034221055 1.3333629e-18 0.15322513)
(-0.00022254171 1.2953568e-18 0.14750856)
(-0.00011527078 1.5607678e-18 0.14182633)
(-1.9843106e-05 1.7494628e-18 0.13619968)
(6.445093e-05 1.6818379e-18 0.13065236)
(0.00013817746 1.3407151e-18 0.12521563)
(0.00020194541 1.1235173e-18 0.11990573)
(0.00025639426 8.6525893e-19 0.11473927)
(0.00030222422 3.7705407e-19 0.10973209)
(0.00034032697 -1.6663932e-19 0.10489867)
(0.00037147715 -5.8764051e-19 0.10025192)
(0.00039608363 -1.1569587e-18 0.09580296)
(0.00041460688 -1.8617675e-18 0.091561103)
(0.00042761843 -2.2274465e-18 0.087533915)
(0.00043567864 -2.8154605e-18 0.083727304)
(0.000439328 -3.1598405e-18 0.080145512)
(0.00043908415 -3.8943072e-18 0.076791208)
(0.00043543133 -3.9154875e-18 0.073665558)
(0.00042881879 -3.9914235e-18 0.070768307)
(0.00041965945 -3.8664524e-18 0.06809786)
(0.0004083309 -3.5630093e-18 0.065651352)
(0.00039517539 -3.4087936e-18 0.063424731)
(0.00038050126 -3.1462168e-18 0.061412813)
(0.00036458741 -2.8768223e-18 0.059609346)
(0.00034768017 -2.7128313e-18 0.058007048)
(0.00032999986 -2.4991384e-18 0.056597644)
(0.00031174291 -2.332362e-18 0.055371874)
(0.00029308216 -2.24268e-18 0.05431949)
(0.00027417351 -2.0136351e-18 0.053429219)
(0.00025515588 -1.9920125e-18 0.052688704)
(0.00023615623 -1.8398654e-18 0.052084404)
(0.00021729466 -1.7633612e-18 0.051601448)
(0.00019868428 -1.4938263e-18 0.05122344)
(0.00018043916 -1.3659301e-18 0.050932195)
(0.0001626773 -1.1182876e-18 0.05070741)
(0.00014552204 -8.4722379e-19 0.05052627)
(0.00012910563 -5.1098214e-19 0.050362998)
(0.00011356712 -3.2369426e-19 0.050188379)
(9.904718e-05 -2.6768031e-19 0.049969355)
(8.567772e-05 -9.2024012e-20 0.049668775)
(7.3560766e-05 1.9311715e-19 0.049245478)
(6.2744094e-05 4.536984e-19 0.048654869)
(5.3193776e-05 7.1235775e-19 0.047850105)
(4.4780666e-05 9.9350775e-19 0.046783797)
(3.7297373e-05 1.1672123e-18 0.045409818)
(3.0525943e-05 1.3549513e-18 0.04368433)
(2.435295e-05 1.6438161e-18 0.041564923)
(1.8901071e-05 1.7869792e-18 0.0390071)
(1.4574245e-05 1.7363565e-18 0.035958942)
(1.1868224e-05 1.496799e-18 0.0323573)
(1.085167e-05 1.1497706e-18 0.028130695)
(1.0604608e-05 7.8706913e-19 0.023211792)
(9.18988e-06 5.4950127e-19 0.017553357)
(5.2568505e-06 3.5185622e-19 0.011131738)
(5.3577797e-07 1.2040912e-19 0.0039274043)
(-7.8105568e-06 2.6156878e-19 0.043535184)
(-0.0001769925 5.8258043e-19 0.11122177)
(-0.00045455896 4.1781537e-19 0.16340264)
(-0.00081428775 1.7676765e-19 0.20157824)
(-0.0012181019 6.1005422e-19 0.22754685)
(-0.0016379765 1.0599137e-18 0.24334828)
(-0.0020488161 1.537805e-18 0.2511357)
(-0.0024290107 1.8874949e-18 0.25300647)
(-0.0027602787 1.6616778e-18 0.25083755)
(-0.0030282695 1.3859397e-18 0.24616811)
(-0.0032234312 8.5938913e-19 0.24015105)
(-0.0033416296 9.7396333e-19 0.23356976)
(-0.003384094 1.1776384e-18 0.22689895)
(-0.0033566332 1.1967276e-18 0.22038347)
(-0.0032683528 1.5153458e-18 0.21411477)
(-0.0031302178 1.4890715e-18 0.20809366)
(-0.0029537495 1.1343851e-18 0.20227583)
(-0.0027500208 9.8691703e-19 0.19660147)
(-0.0025290004 9.3342914e-19 0.19101252)
(-0.0022992117 9.598065e-19 0.18546141)
(-0.0020676255 1.0150725e-18 0.17991423)
(-0.0018397464 1.1161643e-18 0.17435097)
(-0.0016196689 1.2769188e-18 0.1687641)
(-0.0014102248 1.6034247e-18 0.16315544)
(-0.0012132974 1.4785764e-18 0.15753353)
(-0.0010300287 1.5086464e-18 0.15191174)
(-0.00086098924 1.702875e-18 0.14630671)
(-0.00070632711 1.6317383e-18 0.14073711)
(-0.00056595917 1.0761994e-18 0.13522288)
(-0.00043971768 5.5637191e-19 0.12978573)
(-0.00032691801 6.9411472e-19 0.12444854)
(-0.00022658851 8.2807639e-19 0.11923024)
(-0.0001379528 7.6108823e-19 0.11414772)
(-6.0201434e-05 2.3255984e-19 0.10921602)
(7.5494705e-06 -3.8527115e-19 0.10444759)
(6.6080566e-05 -7.7255247e-19 0.099861047)
(0.00011607277 -1.3149739e-18 0.095469629)
(0.00015818534 -2.0039026e-18 0.091280714)
(0.00019326967 -2.5374816e-18 0.087301279)
(0.00022197868 -2.6356589e-18 0.08353724)
(0.00024468552 -3.141597e-18 0.079993054)
(0.00026191723 -3.6673335e-18 0.076671696)
(0.00027422419 -3.5850072e-18 0.073574703)
(0.00028214355 -3.7257313e-18 0.070702217)
(0.00028618499 -3.6802261e-18 0.068053022)
(0.00028682592 -3.5117806e-18 0.065624623)
(0.0002845072 -3.3353753e-18 0.063413313)
(0.00027963307 -3.1239812e-18 0.061414234)
(0.00027257171 -2.922626e-18 0.059621431)
(0.00026365669 -2.7917779e-18 0.058027897)
(0.00025318704 -2.4867817e-18 0.0566256)
(0.0002414341 -2.2366273e-18 0.055405498)
(0.00022864128 -2.1798038e-18 0.054357532)
(0.00021502704 -2.0652405e-18 0.053470594)
(0.00020078867 -2.0285691e-18 0.052732467)
(0.00018610744 -1.7684134e-18 0.052129723)
(0.00017115189 -1.6760268e-18 0.05164758)
(0.00015608081 -1.4714048e-18 0.051269709)
(0.00014104994 -1.238867e-18 0.050977972)
(0.00012621419 -1.0641451e-18 0.050752098)
(0.00011173329 -7.9287547e-19 0.050569291)
(9.7771227e-05 -7.3145467e-19 0.05040379)
(8.4496941e-05 -4.9584037e-19 0.050226412)
(7.2079098e-05 -9.3194235e-20 0.050004157)
(6.06729e-05 1.1297022e-19 0.049699981)
(5.0400005e-05 2.3183827e-19 0.049272893)
(4.1328472e-05 4.5562706e-19 0.048678532)
(3.344089e-05 6.8805866e-19 0.047870329)
(2.662623e-05 8.4843403e-19 0.046801142)
(2.0694511e-05 1.1830498e-18 0.045424942)
(1.5463079e-05 1.5546052e-18 0.043697731)
(1.0858735e-05 1.6354133e-18 0.041576629)
(6.989173e-06 1.7064058e-18 0.039016501)
(4.2010892e-06 1.5640861e-18 0.035965041)
(2.9000524e-06 1.3299059e-18 0.032359581)
(3.07513e-06 1.0449251e-18 0.028130271)
(3.8818833e-06 8.4743813e-19 0.023211724)
(3.8285636e-06 5.2270998e-19 0.017556722)
(2.1163611e-06 3.3069722e-19 0.011137973)
(1.1652002e-07 1.1963683e-19 0.003931425)
(-7.3148133e-06 1.0049271e-19 0.046076536)
(-0.00015873441 4.80144e-19 0.11817016)
(-0.00041706319 1.2682733e-18 0.17415742)
(-0.00076251803 2.0448207e-18 0.21541436)
(-0.0011652368 2.1856556e-18 0.24360435)
(-0.0016012437 1.7607177e-18 0.26066326)
(-0.0020468755 1.5878342e-18 0.26871179)
(-0.002479577 1.4845101e-18 0.26991139)
(-0.0028783174 1.2283351e-18 0.26629829)
(-0.0032246449 1.7120726e-18 0.25963782)
(-0.0035039969 1.9117503e-18 0.25133244)
(-0.0037068566 1.1612997e-18 0.24239602)
(-0.00382932 1.4702938e-18 0.23348542)
(-0.0038728841 1.3193137e-18 0.2249675)
(-0.0038435551 1.409284e-18 0.21699828)
(-0.0037505531 1.5977783e-18 0.20959692)
(-0.0036049288 1.6988052e-18 0.20270527)
(-0.0034183238 1.8862432e-18 0.19623062)
(-0.0032020139 1.6010126e-18 0.19007335)
(-0.002966264 1.7022558e-18 0.18414271)
(-0.0027199656 1.3729401e-18 0.1783644)
(-0.0024704979 1.2574232e-18 0.17268286)
(-0.0022237225 1.2254678e-18 0.16706043)
(-0.0019840931 1.2426193e-18 0.16147477)
(-0.0017548545 1.7782627e-18 0.15591581)
(-0.0015382491 1.6988412e-18 0.15038295)
(-0.0013357159 1.7794638e-18 0.14488257)
(-0.0011480715 1.3405913e-18 0.13942606)
(-0.00097566795 1.2152137e-18 0.13402837)
(-0.00081851098 1.1347682e-18 0.1287069)
(-0.00067620333 1.0034171e-18 0.12348021)
(-0.00054808042 6.992608e-19 0.11836596)
(-0.00043342402 3.398462e-19 0.11338064)
(-0.00033145196 1.098885e-19 0.10853954)
(-0.00024152138 -1.9789164e-19 0.10385701)
(-0.0001628896 -7.8759194e-19 0.099347884)
(-9.450107e-05 -1.3921118e-18 0.095024448)
(-3.5408034e-05 -2.0914807e-18 0.090895493)
(1.5272409e-05 -2.8409559e-18 0.086967113)
(5.8258361e-05 -3.2390967e-18 0.083251316)
(9.4177514e-05 -3.658888e-18 0.079752119)
(0.00012370633 -3.5029561e-18 0.076471472)
(0.00014752712 -3.7446831e-18 0.073410738)
(0.00016611489 -3.6888142e-18 0.070570224)
(0.00017989823 -3.6455657e-18 0.067948992)
(0.00018939612 -3.619724e-18 0.065544884)
(0.00019510129 -3.3364473e-18 0.063354557)
(0.00019747867 -3.0914808e-18 0.061373495)
(0.00019696177 -2.8634198e-18 0.05959607)
(0.00019394785 -2.5954331e-18 0.058015574)
(0.00018879934 -2.4931797e-18 0.056624252)
(0.0001818441 -2.4414133e-18 0.055413308)
(0.00017337935 -2.3547639e-18 0.054372903)
(0.00016367472 -2.1340679e-18 0.05349212)
(0.00015297432 -2.0262588e-18 0.052758903)
(0.00014150177 -1.9325394e-18 0.052159961)
(0.00012946526 -1.7474154e-18 0.051680624)
(0.00011706082 -1.4737398e-18 0.051304648)
(0.00010447484 -1.2566561e-18 0.051013961)
(9.1894372e-05 -1.0759688e-18 0.050788337)
(7.9505649e-05 -9.3622779e-19 0.050605019)
(6.7496403e-05 -7.0704511e-19 0.050438278)
(5.6058611e-05 -4.5822656e-19 0.050258978)
(4.537934e-05 -1.4141076e-19 0.050034191)
(3.5630546e-05 8.1493258e-20 0.049726999)
(2.6949334e-05 2.4862867e-19 0.049296591)
(1.9429648e-05 4.5943699e-19 0.048698854)
(1.3078199e-05 6.8227646e-19 0.047887498)
(7.7916187e-06 8.878399e-19 0.046815621)
(3.3972003e-06 1.1861453e-18 0.045437278)
(-2.6890562e-07 1.4938608e-18 0.043708208)
(-3.2726398e-06 1.6060599e-18 0.041585229)
(-5.5075097e-06 1.6461215e-18 0.03902278)
(-6.6632485e-06 1.6006718e-18 0.035968233)
(-6.4129072e-06 1.2572319e-18 0.032359416)
(-4.8137757e-06 1.03484e-18 0.028127836)
(-2.6100923e-06 8.3532188e-19 0.023209389)
(-9.4079915e-07 5.8294821e-19 0.017556444)
(-3.6364639e-07 3.0481765e-19 0.011139243)
(-1.5298043e-07 9.2366773e-20 0.0039321071)
(-6.9969213e-06 1.2802108e-19 0.048355082)
(-0.00014533661 3.5634638e-19 0.12443804)
(-0.0003858325 5.240363e-19 0.18394164)
(-0.00071230268 5.7859882e-19 0.22815823)
(-0.0011004517 4.6111037e-19 0.25864367)
(-0.0015304766 9.4014981e-19 0.27722913)
(-0.0019819694 1.2203773e-18 0.28596652)
(-0.0024343282 1.3707001e-18 0.28701374)
(-0.0028670305 1.4155519e-18 0.28248312)
(-0.0032606125 1.4242226e-18 0.27428862)
(-0.0035980561 1.481982e-18 0.2640279)
(-0.0038662372 1.5241775e-18 0.25292195)
(-0.0040569901 1.0563579e-18 0.24181498)
(-0.00416749 1.0890399e-18 0.23122074)
(-0.0041999054 1.0836852e-18 0.22139383)
(-0.004160485 1.1164356e-18 0.21240623)
(-0.0040583485 1.2885737e-18 0.20421554)
(-0.0039042369 1.4380642e-18 0.19671843)
(-0.0037094128 1.5153262e-18 0.18978835)
(-0.0034848052 1.4878069e-18 0.18329954)
(-0.0032404216 1.4838708e-18 0.17714045)
(-0.0029850028 1.3710034e-18 0.17121974)
(-0.0027258707 1.3373537e-18 0.16546759)
(-0.0024689256 1.3343588e-18 0.15983423)
(-0.0022187452 1.5579835e-18 0.15428714)
(-0.0019787414 1.6470914e-18 0.1488079)
(-0.0017513365 1.6397438e-18 0.14338915)
(-0.0015381408 1.5314807e-18 0.13803187)
(-0.00134011 1.4359284e-18 0.13274321)
(-0.0011576737 1.5262053e-18 0.12753451)
(-0.00099081572 1.1073364e-18 0.12241969)
(-0.00083919062 7.0162927e-19 0.1174136)
(-0.00070225841 3.4058661e-19 0.1125312)
(-0.00057935156 -2.6548106e-21 0.10778707)
(-0.00046976758 -3.6222864e-19 0.10319529)
(-0.00037270721 -8.3929456e-19 0.098769362)
(-0.00028723723 -1.3735715e-18 0.094521166)
(-0.00021243628 -1.8847809e-18 0.090460508)
(-0.00014760677 -2.3278884e-18 0.086595711)
(-9.1932353e-05 -2.9066461e-18 0.082935153)
(-4.4406178e-05 -3.2793639e-18 0.079483982)
(-4.2128007e-06 -3.4428342e-18 0.07624476)
(2.937063e-05 -3.5554914e-18 0.073220606)
(5.6941956e-05 -3.5862396e-18 0.070414235)
(7.9072884e-05 -3.5477045e-18 0.067823687)
(9.6380165e-05 -3.4581577e-18 0.065446621)
(0.00010933979 -3.2640969e-18 0.063279845)
(0.00011834278 -3.0464391e-18 0.061319104)
(0.00012385644 -2.8355528e-18 0.05955907)
(0.00012631665 -2.6473942e-18 0.057993348)
(0.00012613043 -2.4926116e-18 0.056614479)
(0.00012367282 -2.3767847e-18 0.055413941)
(0.00011928576 -2.2770735e-18 0.054382137)
(0.00011328209 -2.1114445e-18 0.053508367)
(0.00010594534 -1.9642471e-18 0.052780764)
(9.7537011e-05 -1.8088508e-18 0.052186194)
(8.8299011e-05 -1.5754988e-18 0.051710118)
(7.8457248e-05 -1.4552736e-18 0.051336397)
(6.8228307e-05 -1.2565143e-18 0.051047038)
(5.7825147e-05 -1.0688756e-18 0.05082188)
(4.745772e-05 -8.9583869e-19 0.050638212)
(3.7336597e-05 -6.7715575e-19 0.050470351)
(2.7675069e-05 -4.3561232e-19 0.050289214)
(1.8686353e-05 -1.6615267e-19 0.050061958)
(1.0564785e-05 6.07992e-20 0.049751785)
(3.4621213e-06 2.5437245e-19 0.049318052)
(-2.5146428e-06 4.6343887e-19 0.048716786)
(-7.3439592e-06 6.8343512e-19 0.047902131)
(-1.1109596e-05 9.0533329e-19 0.046827406)
(-1.395824e-05 1.1633163e-18 0.045446741)
(-1.605371e-05 1.3585083e-18 0.043715789)
(-1.7473903e-05 1.5520432e-18 0.041590927)
(-1.8095436e-05 1.5964238e-18 0.039026071)
(-1.7617314e-05 1.5496095e-18 0.035968421)
(-1.5751107e-05 1.2920037e-18 0.032356283)
(-1.255047e-05 1.1229839e-18 0.028122334)
(-8.6574493e-06 8.4424191e-19 0.023203535)
(-5.0255473e-06 5.854803e-19 0.017551982)
(-2.2594052e-06 3.6268503e-19 0.01113638)
(-3.1396459e-07 1.1348032e-19 0.0039305791)
(-6.6333381e-06 2.2708563e-19 0.050395507)
(-0.00013357148 6.0558046e-19 0.13009266)
(-0.00035708996 1.0133849e-18 0.19283706)
(-0.00066360973 1.4366506e-18 0.23985564)
(-0.0010328325 1.7769042e-18 0.27261479)
(-0.0014482167 1.3146624e-18 0.29284946)
(-0.0018923542 1.0841625e-18 0.30253283)
(-0.0023470863 9.0587401e-19 0.30378709)
(-0.0027935369 1.447323e-18 0.29875021)
(-0.0032128319 1.1932016e-18 0.28942709)
(-0.0035873169 6.3354498e-19 0.27755916)
(-0.0039020133 6.5272198e-19 0.26453952)
(-0.0041459186 1.1525207e-18 0.2513852)
(-0.0043127992 8.6648525e-19 0.23876066)
(-0.0044013216 8.538244e-19 0.22703565)
(-0.004414569 1.2860623e-18 0.21635785)
(-0.0043591336 1.0475978e-18 0.20672428)
(-0.004244016 7.4281626e-19 0.19804195)
(-0.0040795365 9.450691e-19 0.19017393)
(-0.0038763923 8.2569771e-19 0.18297108)
(-0.0036449274 1.1248389e-18 0.17629178)
(-0.0033946265 1.1675454e-18 0.17001254)
(-0.0031338143 1.1390602e-18 0.16403242)
(-0.0028695212 1.1296037e-18 0.15827338)
(-0.0026074761 9.9940512e-19 0.15267845)
(-0.0023521838 1.0914433e-18 0.14720885)
(-0.002107051 8.4671753e-19 0.14184067)
(-0.0018745348 1.2011744e-18 0.13656186)
(-0.0016562909 1.2722619e-18 0.13136936)
(-0.0014533122 7.8966898e-19 0.12626667)
(-0.0012660476 7.6555941e-19 0.12126178)
(-0.0010945243 5.2475898e-19 0.11636543)
(-0.00093846649 2.5927247e-19 0.11158982)
(-0.00079738302 -9.2555341e-20 0.1069478)
(-0.00067063979 -4.7142671e-19 0.10245227)
(-0.00055747809 -8.6533161e-19 0.098115694)
(-0.00045704217 -1.2796133e-18 0.093949516)
(-0.00036844457 -1.6283398e-18 0.08996381)
(-0.00029085379 -2.1531105e-18 0.08616737)
(-0.00022339439 -2.5237253e-18 0.082567907)
(-0.00016513408 -2.5950516e-18 0.079171161)
(-0.00011528598 -3.1047158e-18 0.075981101)
(-7.3141799e-05 -3.3327708e-18 0.073000793)
(-3.7886112e-05 -3.4018845e-18 0.070231957)
(-8.7314694e-06 -3.3463964e-18 0.067673862)
(1.4970443e-05 -3.1512096e-18 0.065324711)
(3.3765679e-05 -3.11241e-18 0.063183599)
(4.8148567e-05 -2.9708651e-18 0.06124561)
(5.8623832e-05 -2.795625e-18 0.059505356)
(6.5663222e-05 -2.6157499e-18 0.057956623)
(6.9664658e-05 -2.4575026e-18 0.056592203)
(7.1005461e-05 -2.3015554e-18 0.055403835)
(7.006102e-05 -2.0692e-18 0.054382175)
(6.7178417e-05 -1.9947875e-18 0.053516756)
(6.2676619e-05 -1.7920531e-18 0.052795914)
(5.6851283e-05 -1.7618384e-18 0.052206695)
(4.9974967e-05 -1.6745804e-18 0.051734707)
(4.230261e-05 -1.5030811e-18 0.051363932)
(3.4077423e-05 -1.3318914e-18 0.051076474)
(2.5541825e-05 -1.0651923e-18 0.050852244)
(1.6928801e-05 -8.1802953e-19 0.050668594)
(8.4666168e-06 -4.5349898e-19 0.05049989)
(3.9043387e-07 -2.7679411e-19 0.050317085)
(-7.0691708e-06 -3.2416736e-19 0.050087412)
(-1.3700055e-05 -1.392089e-19 0.049774255)
(-1.9331845e-05 2.1678389e-19 0.049337158)
(-2.3862663e-05 4.6392605e-19 0.048732459)
(-2.7268567e-05 7.0969745e-19 0.047914488)
(-2.9605329e-05 1.0251822e-18 0.046836822)
(-3.1000613e-05 1.1727069e-18 0.045453698)
(-3.1601516e-05 1.3522069e-18 0.043720663)
(-3.1469868e-05 1.5169262e-18 0.04159371)
(-3.0484022e-05 1.5738328e-18 0.039026295)
(-2.8364112e-05 1.5280873e-18 0.035965463)
(-2.4843713e-05 1.4271904e-18 0.032349957)
(-1.9964009e-05 1.0525359e-18 0.028113481)
(-1.4284696e-05 7.9098016e-19 0.023193917)
(-8.6616642e-06 5.8518866e-19 0.017543308)
(-3.8408939e-06 3.2902446e-19 0.011129632)
(-4.2735055e-07 1.0738394e-19 0.0039271404)
(-6.3336344e-06 1.6428043e-19 0.052261744)
(-0.00012414399 4.6755212e-19 0.13528233)
(-0.00033334932 1.6811969e-18 0.2010349)
(-0.00062212975 2.8945596e-18 0.25069744)
(-0.00097299846 2.6878813e-18 0.28566433)
(-0.0013718494 1.738571e-18 0.30758714)
(-0.0018037238 8.6959617e-19 0.3183622)
(-0.0022527357 7.3337901e-19 0.32006243)
(-0.0027019088 5.1342685e-19 0.31482245)
(-0.0031336357 1.2705359e-18 0.30469872)
(-0.003530648 1.7490145e-18 0.29153527)
(-0.0038773352 1.1596408e-18 0.27686303)
(-0.0041610836 1.0312017e-18 0.26185018)
(-0.0043732925 1.081128e-18 0.24730422)
(-0.0045098453 1.095156e-18 0.2337143)
(-0.0045709974 8.2726493e-19 0.22131604)
(-0.0045607868 9.811056e-19 0.21016199)
(-0.0044861536 9.1356903e-19 0.20018618)
(-0.0043559611 9.4105735e-19 0.1912562)
(-0.0041800653 9.6462246e-19 0.18321164)
(-0.0039685282 1.0384852e-18 0.17588966)
(-0.0037310133 1.0598932e-18 0.16914052)
(-0.0034763693 1.0609965e-18 0.16283541)
(-0.0032123825 1.0189542e-18 0.15686934)
(-0.0029456636 1.3966558e-18 0.15116071)
(-0.0026816403 1.4103472e-18 0.14564917)
(-0.0024246174 1.4583468e-18 0.14029261)
(-0.0021778791 1.2806552e-18 0.13506393)
(-0.0019438139 1.2522153e-18 0.12994798)
(-0.0017240424 1.268365e-18 0.1249387)
(-0.0015195435 1.1351129e-18 0.12003671)
(-0.0013307793 5.6331903e-19 0.11524726)
(-0.0011578082 4.8509906e-20 0.11057864)
(-0.0010003837 -2.48375e-19 0.10604094)
(-0.0008580331 -5.5500611e-19 0.10164511)
(-0.00073010989 -8.8327339e-19 0.097402303)
(-0.00061584482 -1.2405634e-18 0.093323185)
(-0.00051439756 -1.6019119e-18 0.089417584)
(-0.0004249044 -2.213942e-18 0.085694272)
(-0.00034647178 -2.8530764e-18 0.082160835)
(-0.00027818784 -3.2471995e-18 0.078823352)
(-0.00021919619 -3.2541105e-18 0.075686414)
(-0.00016868503 -3.4668031e-18 0.072753333)
(-0.00012582646 -3.3561997e-18 0.070025982)
(-8.9847887e-05 -3.2571676e-18 0.067504564)
(-6.0117177e-05 -3.1348821e-18 0.065188107)
(-3.5952172e-05 -3.0505204e-18 0.063074785)
(-1.6673608e-05 -2.9540654e-18 0.061160809)
(-1.7339843e-06 -2.8862429e-18 0.059441164)
(9.3704406e-06 -2.5578431e-18 0.057910263)
(1.70832e-05 -2.5848948e-18 0.056561481)
(2.1819205e-05 -2.4453861e-18 0.055386473)
(2.397372e-05 -2.1856186e-18 0.054376034)
(2.3918525e-05 -2.0962862e-18 0.053519898)
(2.199702e-05 -1.8935056e-18 0.052806609)
(1.8527765e-05 -1.7722091e-18 0.0522234)
(1.3810078e-05 -1.7572471e-18 0.051756041)
(8.1237918e-06 -1.5183303e-18 0.051388645)
(1.735896e-06 -1.3787807e-18 0.051103411)
(-5.0896914e-06 -1.0730323e-18 0.050880316)
(-1.2094365e-05 -7.9854709e-19 0.050696836)
(-1.9026838e-05 -5.1449521e-19 0.050527377)
(-2.5634388e-05 -3.3060694e-19 0.050342968)
(-3.167736e-05 -2.6384903e-19 0.050110943)
(-3.6932697e-05 -7.8384681e-20 0.049794808)
(-4.1213113e-05 2.0899341e-19 0.049354325)
(-4.4404872e-05 4.6367276e-19 0.048746105)
(-4.6470959e-05 7.1704258e-19 0.04792472)
(-4.7453549e-05 9.9524067e-19 0.046843978)
(-4.7464548e-05 1.1929424e-18 0.045458221)
(-4.6630417e-05 1.4717894e-18 0.043722894)
(-4.4997987e-05 1.532492e-18 0.041593635)
(-4.2446792e-05 1.6527942e-18 0.039023483)
(-3.8710781e-05 1.573142e-18 0.035959341)
(-3.3540344e-05 1.2889865e-18 0.032340354)
(-2.6962366e-05 9.7328976e-19 0.028101146)
(-1.9476708e-05 7.9621738e-19 0.023180478)
(-1.1907265e-05 6.7426476e-19 0.017530616)
(-5.1892786e-06 3.3453763e-19 0.011119467)
(-5.1447073e-07 1.0860886e-19 0.0039221898)
(-6.0641063e-06 2.271817e-19 0.053983848)
(-0.00011619561 4.6286556e-19 0.14008541)
(-0.00031301007 5.3319243e-20 0.20864707)
(-0.00058601482 -4.6910529e-19 0.2608083)
(-0.00091982451 -6.1647514e-19 0.29790411)
(-0.001302177 4.6306974e-19 0.32151395)
(-0.0017200492 9.9772894e-19 0.33346272)
(-0.0021594797 1.413446e-18 0.3357695)
(-0.0026052789 1.1490173e-18 0.3305493)
(-0.003041279 9.9267212e-19 0.31988411)
(-0.0034510676 9.0742656e-19 0.3056897)
(-0.0038191189 1.4445476e-18 0.28960573)
(-0.0041320663 6.4474367e-19 0.27292925)
(-0.0043798014 6.9504458e-19 0.25659833)
(-0.0045561596 1.0313426e-18 0.24121866)
(-0.0046590868 8.5618737e-19 0.22711859)
(-0.0046903295 8.6059247e-19 0.21441595)
(-0.0046547825 8.8986763e-19 0.20308362)
(-0.0045596633 9.4046924e-19 0.19300579)
(-0.0044136534 9.8711622e-19 0.1840215)
(-0.0042261191 1.0577824e-18 0.1759556)
(-0.0040064667 1.1680452e-18 0.16863869)
(-0.0037636539 1.30938e-18 0.16191871)
(-0.0035058578 1.5773234e-18 0.15566641)
(-0.0032402753 1.515216e-18 0.1497768)
(-0.0029730359 1.5959186e-18 0.14416807)
(-0.0027091933 1.7421632e-18 0.1387792)
(-0.0024527762 1.630861e-18 0.13356694)
(-0.0022068748 1.1339226e-18 0.12850266)
(-0.0019737462 1.0963045e-18 0.12356933)
(-0.0017549298 7.2834047e-19 0.11875887)
(-0.0015513634 5.1812978e-19 0.1140698)
(-0.0013634953 1.9653091e-19 0.10950529)
(-0.0011913842 -3.1628566e-19 0.1050717)
(-0.0010347854 -7.6986096e-19 0.10077728)
(-0.00089322306 -9.8331929e-19 0.09663127)
(-0.00076604987 -1.3070549e-18 0.09264313)
(-0.00065250254 -1.6799523e-18 0.088821991)
(-0.00055174595 -1.8950539e-18 0.085176281)
(-0.0004628977 -2.3204111e-18 0.081713451)
(-0.00038505439 -2.8883477e-18 0.078439734)
(-0.00031732628 -3.2245177e-18 0.075360054)
(-0.00025884558 -3.0991557e-18 0.07247802)
(-0.00020876146 -3.1714759e-18 0.069795856)
(-0.00016626737 -3.1452804e-18 0.067314354)
(-0.00013062778 -3.0729267e-18 0.065033034)
(-0.00010112087 -2.9942147e-18 0.062950202)
(-7.7056786e-05 -2.9076386e-18 0.061062692)
(-5.7845499e-05 -2.823054e-18 0.059366114)
(-4.2944087e-05 -2.7269946e-18 0.057855116)
(-3.1818189e-05 -2.5066398e-18 0.056523187)
(-2.3979257e-05 -2.2528122e-18 0.055362501)
(-1.8999501e-05 -2.1614537e-18 0.054364142)
(-1.6481184e-05 -2.0676914e-18 0.05351807)
(-1.6055456e-05 -1.9540152e-18 0.052813032)
(-1.7379776e-05 -1.6456678e-18 0.052236442)