/*--------------------------------*- C++ -*----------------------------------*\
| =========                 |                                                 |
| \\      /  F ield         | OpenFOAM: The Open Source CFD Toolbox           |
|  \\    /   O peration     | Version:  4.0                                   |
|   \\  /    A nd           | Web:      www.OpenFOAM.org                      |
|    \\/     M anipulation  |                                                 |
\*---------------------------------------------------------------------------*/
FoamFile
{
    version     2.0;
    format      ascii;
    class       volScalarField;
    location    "2000";
    object      G;
}
// * * * * * * * * * * * * * * * * * * * * * * * * * * * * * * * * * * * * * //

dimensions      [1 0 -3 0 0 0 0];

internalField   nonuniform List<scalar> 
5000
(
1828.7679
1828.6303
1828.4704
1828.2933
1828.0983
1827.8778
1827.6174
1827.2994
1826.9078
1826.4317
1825.8665
1825.2117
1824.4674
1823.6319
1822.7015
1821.6718
1820.5406
1819.3093
1817.9847
1816.5775
1815.1023
1813.5755
1812.0147
1810.4381
1808.8639
1807.311
1805.7981
1804.3442
1802.9679
1801.6874
1800.5197
1799.4802
1798.5825
1797.8371
1797.2523
1796.8328
1796.5805
1796.4944
1796.5706
1796.8031
1797.1835
1797.7019
1798.3469
1799.106
1799.9658
1800.9123
1801.9311
1803.008
1804.129
1805.2811
1865.7024
1865.9177
1866.1396
1866.3741
1866.6213
1866.8737
1867.1161
1867.3287
1867.4915
1867.5885
1867.6088
1867.5449
1867.3896
1867.133
1866.7627
1866.2639
1865.6224
1864.8254
1863.8629
1862.7274
1861.4133
1859.9164
1858.2336
1856.3634
1854.3068
1852.0677
1849.6544
1847.0804
1844.3646
1841.532
1838.6132
1835.6434
1832.6621
1829.7106
1826.8309
1824.0634
1821.4454
1819.0096
1816.7829
1814.7865
1813.0355
1811.5397
1810.304
1809.3294
1808.6131
1808.1484
1807.9249
1807.928
1808.1388
1808.535
1884.7749
1884.982
1885.2009
1885.4377
1885.6941
1885.9658
1886.2428
1886.5116
1886.7585
1886.973
1887.1486
1887.2813
1887.3671
1887.4002
1887.3719
1887.2714
1887.087
1886.8067
1886.4191
1885.9124
1885.2737
1884.4881
1883.5386
1882.406
1881.0695
1879.5081
1877.7016
1875.6331
1873.2904
1870.6682
1867.7701
1864.6099
1861.213
1857.6158
1853.8656
1850.0179
1846.1336
1842.2754
1838.5041
1834.8749
1831.4355
1828.2245
1825.2726
1822.6032
1820.2346
1818.1815
1816.4554
1815.0641
1814.0095
1813.2864
1896.3202
1896.5013
1896.6931
1896.9007
1897.1258
1897.3655
1897.6125
1897.8567
1898.0884
1898.3003
1898.4889
1898.6525
1898.7899
1898.8986
1898.974
1899.0104
1899.0011
1898.9401
1898.8214
1898.6386
1898.384
1898.0475
1897.6151
1897.0693
1896.3879
1895.5448
1894.5098
1893.2501
1891.7314
1889.9201
1887.7855
1885.3038
1882.4606
1879.2551
1875.7025
1871.8357
1867.7052
1863.3766
1858.9265
1854.436
1849.9847
1845.6443
1841.4745
1837.5224
1833.8236
1830.4064
1827.2961
1824.5184
1822.0996
1820.0652
1904.1954
1904.3576
1904.5293
1904.715
1904.9163
1905.1307
1905.3522
1905.5726
1905.7838
1905.9802
1906.1593
1906.3203
1906.4632
1906.5866
1906.6879
1906.7635
1906.8099
1906.8241
1906.8039
1906.7477
1906.6528
1906.5152
1906.3284
1906.0824
1905.7633
1905.3525
1904.8265
1904.1558
1903.3058
1902.2363
1900.903
1899.2595
1897.2604
1894.8658
1892.0461
1888.7882
1885.1
1881.0139
1876.5874
1871.8999
1867.0461
1862.1261
1857.2353
1852.4547
1847.8468
1843.4549
1839.3091
1835.4345
1831.8594
1828.6206
1910.1739
1910.3198
1910.4742
1910.6412
1910.822
1911.0147
1911.214
1911.4127
1911.6039
1911.783
1911.9478
1912.098
1912.2337
1912.3542
1912.4575
1912.5411
1912.6025
1912.6403
1912.6538
1912.6432
1912.6086
1912.5495
1912.4636
1912.347
1912.1926
1911.9905
1911.7266
1911.382
1910.9319
1910.345
1909.5823
1908.5976
1907.3375
1905.7444
1903.7599
1901.3306
1898.416
1894.996
1891.0788
1886.7054
1881.9498
1876.9135
1871.7141
1866.4706
1861.2875
1856.2442
1851.3915
1846.7565
1842.3558
1838.2097
1914.9331
1915.0666
1915.2079
1915.3605
1915.5258
1915.7018
1915.884
1916.0658
1916.2412
1916.406
1916.5585
1916.6983
1916.8259
1916.9405
1917.0407
1917.1243
1917.1895
1917.2351
1917.2614
1917.269
1917.2592
1917.2328
1917.1897
1917.1285
1917.0465
1916.9386
1916.7976
1916.6129
1916.37
1916.049
1915.6233
1915.0579
1914.3088
1913.3218
1912.0335
1910.3742
1908.2733
1905.6671
1902.5095
1898.7832
1894.5089
1889.7504
1884.6116
1879.2248
1873.7323
1868.2638
1862.9179
1857.7535
1852.7931
1848.039
1918.8807
1919.004
1919.1344
1919.2753
1919.4278
1919.5902
1919.7583
1919.9262
1920.0884
1920.2412
1920.3828
1920.5133
1920.6329
1920.7412
1920.8368
1920.9178
1920.9827
1921.0307
1921.062
1921.0778
1921.0795
1921.0684
1921.0453
1921.0102
1920.9618
1920.8978
1920.8146
1920.7065
1920.5655
1920.3802
1920.1346
1919.8064
1919.3652
1918.7703
1917.9694
1916.8974
1915.4782
1913.6288
1911.2675
1908.3257
1904.7622
1900.5775
1895.8236
1890.6049
1885.0675
1879.3767
1873.688
1868.1207
1862.741
1857.5648
1922.2386
1922.3535
1922.4751
1922.6063
1922.7483
1922.8995
1923.056
1923.2124
1923.3637
1923.5063
1923.6388
1923.7612
1923.8738
1923.9762
1924.0671
1924.1449
1924.2082
1924.2564
1924.2898
1924.3096
1924.3174
1924.3146
1924.3024
1924.2811
1924.2504
1924.2092
1924.1555
1924.0861
1923.9965
1923.8803
1923.7283
1923.5273
1923.2584
1922.8949
1922.3996
1921.7225
1920.7985
1919.5478
1917.8784
1915.6941
1912.9073
1909.456
1905.3226
1900.5488
1895.2406
1889.5586
1883.6919
1877.8222
1872.0876
1866.5598
1925.1543
1925.2621
1925.3762
1925.4992
1925.6323
1925.7741
1925.9208
1926.0675
1926.2095
1926.3434
1926.4681
1926.5834
1926.6898
1926.7867
1926.8733
1926.9478
1927.0091
1927.0565
1927.0906
1927.1125
1927.1237
1927.1258
1927.12
1927.107
1927.0868
1927.0589
1927.0219
1926.9741
1926.9126
1926.8337
1926.7319
1926.5994
1926.425
1926.1921
1925.8769
1925.4448
1924.8479
1924.0212
1922.882
1921.331
1919.2598
1916.5645
1913.1655
1909.0305
1904.1947
1898.7696
1892.9333
1886.9002
1880.8774
1875.0184
1927.7251
1927.8269
1927.9345
1928.0505
1928.1761
1928.3097
1928.4481
1928.5865
1928.7204
1928.8469
1928.9647
1929.0739
1929.1747
1929.2669
1929.3494
1929.4208
1929.4799
1929.5262
1929.5602
1929.5831
1929.5964
1929.6016
1929.6
1929.5924
1929.579
1929.5594
1929.5331
1929.4985
1929.4541
1929.3971
1929.3242
1929.2306
1929.1094
1928.9505
1928.7391
1928.453
1928.0596
1927.5119
1926.7447
1925.6717
1924.1868
1922.1704
1919.5041
1916.0938
1911.8971
1906.9485
1901.3708
1895.3643
1889.1714
1883.0218
1930.0205
1930.1169
1930.2189
1930.3289
1930.4479
1930.5745
1930.7056
1930.8367
1930.9637
1931.0837
1931.1955
1931.2993
1931.3952
1931.4831
1931.5619
1931.6303
1931.6873
1931.7323
1931.766
1931.7893
1931.8038
1931.811
1931.8122
1931.8083
1931.7995
1931.7857
1931.7665
1931.7409
1931.7076
1931.6648
1931.6101
1931.5404
1931.451
1931.3358
1931.1853
1930.9856
1930.7157
1930.3435
1929.8223
1929.085
1928.0411
1926.5768
1924.561
1921.8625
1918.3758
1914.0541
1908.9383
1903.1706
1896.9799
1890.6377
1932.0908
1932.1827
1932.2797
1932.3844
1932.4976
1932.6181
1932.7428
1932.8675
1932.9884
1933.1026
1933.2092
1933.3081
1933.3997
1933.4837
1933.5591
1933.6248
1933.6798
1933.7235
1933.7565
1933.7799
1933.7951
1933.8037
1933.8069
1933.8055
1933.8
1933.7904
1933.7763
1933.757
1933.7316
1933.6986
1933.6563
1933.6023
1933.5335
1933.4457
1933.3328
1933.1857
1932.9909
1932.7275
1932.3636
1931.8508
1931.1191
1930.072
1928.5862
1926.519
1923.7272
1920.0979
1915.5866
1910.2501
1904.2593
1897.8782
1933.9743
1934.062
1934.1547
1934.2547
1934.3627
1934.4777
1934.5968
1934.7159
1934.8313
1934.9405
1935.0423
1935.137
1935.2246
1935.3051
1935.3775
1935.4407
1935.4937
1935.5361
1935.5684
1935.5916
1935.6073
1935.6168
1935.6214
1935.6219
1935.6188
1935.6123
1935.6019
1935.5873
1935.5676
1935.5418
1935.5083
1935.4656
1935.4111
1935.3418
1935.2534
1935.1399
1934.9924
1934.7972
1934.5329
1934.1664
1933.6466
1932.8985
1931.8175
1930.2691
1928.0979
1925.1502
1921.3109
1916.5464
1910.9407
1904.7039
1935.7001
1935.7842
1935.873
1935.9687
1936.0722
1936.1823
1936.2964
1936.4104
1936.521
1936.6255
1936.7232
1936.8139
1936.8981
1936.9754
1937.045
1937.1059
1937.1571
1937.1982
1937.2297
1937.2527
1937.2686
1937.2787
1937.2843
1937.2862
1937.285
1937.2807
1937.2732
1937.2622
1937.2468
1937.2264
1937.1996
1937.1651
1937.121
1937.065
1936.9938
1936.9032
1936.7869
1936.6357
1936.4355
1936.1638
1935.7849
1935.2435
1934.4574
1933.3113
1931.6571
1929.3263
1926.1574
1922.0396
1916.962
1911.0486
1937.2914
1937.3721
1937.4574
1937.5493
1937.6487
1937.7545
1937.8639
1937.9735
1938.0796
1938.1801
1938.2739
1938.3612
1938.4421
1938.5165
1938.5836
1938.6424
1938.6918
1938.7318
1938.7625
1938.7852
1938.8011
1938.8116
1938.818
1938.8209
1938.8211
1938.8186
1938.8134
1938.805
1938.7931
1938.7768
1938.7552
1938.727
1938.6909
1938.6448
1938.5863
1938.512
1938.4176
1938.2963
1938.1386
1937.9292
1937.6435
1937.2424
1936.6643
1935.8168
1934.5711
1932.7638
1930.213
1926.7538
1922.2902
1916.8472
1938.7665
1938.8442
1938.9263
1939.0148
1939.1104
1939.2122
1939.3176
1939.423
1939.5252
1939.6219
1939.7123
1939.7963
1939.8744
1939.9461
1940.0109
1940.0677
1940.1156
1940.1544
1940.1844
1940.2067
1940.2225
1940.2333
1940.2402
1940.244
1940.2452
1940.2441
1940.2406
1940.2345
1940.2252
1940.2122
1940.1946
1940.1715
1940.1416
1940.1032
1940.0544
1939.9925
1939.914
1939.8142
1939.686
1939.5188
1939.2957
1938.9893
1938.5551
1937.9228
1936.987
1935.6022
1933.5876
1930.75
1926.9289
1922.0559
1940.1404
1940.2153
1940.2945
1940.3799
1940.4721
1940.5703
1940.6719
1940.7736
1940.8721
1940.9655
1941.0527
1941.1338
1941.2092
1941.2785
1941.3412
1941.3961
1941.4426
1941.4802
1941.5095
1941.5314
1941.5472
1941.5582
1941.5654
1941.5698
1941.5719
1941.572
1941.5699
1941.5654
1941.5583
1941.5479
1941.5336
1941.5145
1941.4895
1941.4573
1941.4162
1941.3639
1941.2977
1941.2139
1941.1071
1940.9697
1940.7898
1940.5481
1940.2131
1939.7329
1939.0254
1937.9688
1936.3976
1934.1131
1930.9157
1926.6604
1941.4253
1941.4978
1941.5743
1941.6568
1941.7459
1941.8408
1941.9389
1942.0372
1942.1324
1942.2226
1942.3069
1942.3854
1942.4583
1942.5254
1942.5861
1942.6394
1942.6845
1942.7211
1942.7497
1942.7712
1942.7868
1942.7979
1942.8054
1942.8103
1942.8131
1942.814
1942.8131
1942.81
1942.8047
1942.7964
1942.7848
1942.769
1942.748
1942.7208
1942.6858
1942.6413
1942.5848
1942.5134
1942.4229
1942.3074
1942.1583
1941.962
1941.6959
1941.3225
1940.78
1939.971
1938.7531
1936.9385
1934.3122
1930.6766
1942.6315
1942.7017
1942.7758
1942.8556
1942.9419
1943.0337
1943.1287
1943.2238
1943.316
1943.4033
1943.485
1943.561
1943.6316
1943.6967
1943.7555
1943.8072
1943.8511
1943.8867
1943.9146
1943.9357
1943.9512
1943.9623
1943.97
1943.9753
1943.9787
1943.9803
1943.9802
1943.9784
1943.9744
1943.968
1943.9586
1943.9455
1943.9278
1943.9047
1943.8748
1943.8366
1943.788
1943.7265
1943.6487
1943.5501
1943.424
1943.2604
1943.0431
1942.7452
1942.3208
1941.6949
1940.7504
1939.3205
1937.1938
1934.1445
1943.7676
1943.8357
1943.9075
1943.9849
1944.0685
1944.1575
1944.2496
1944.3418
1944.4312
1944.5158
1944.595
1944.6688
1944.7373
1944.8005
1944.8576
1944.9079
1944.9505
1944.9852
1945.0125
1945.0332
1945.0485
1945.0595
1945.0675
1945.0731
1945.0769
1945.0791
1945.0798
1945.0789
1945.0762
1945.0712
1945.0636
1945.0528
1945.0379
1945.0182
1944.9926
1944.9595
1944.9174
1944.8641
1944.7966
1944.7113
1944.6029
1944.4638
1944.2821
1944.0382
1943.6986
1943.2065
1942.4692
1941.3452
1939.6397
1937.1199
1944.8409
1944.9069
1944.9767
1945.0518
1945.133
1945.2193
1945.3088
1945.3982
1945.485
1945.5672
1945.6441
1945.7158
1945.7824
1945.8437
1945.8993
1945.9482
1945.9897
1946.0236
1946.0503
1946.0706
1946.0856
1946.0967
1946.1047
1946.1106
1946.1147
1946.1174
1946.1188
1946.1187
1946.117
1946.1133
1946.1072
1946.0983
1946.0858
1946.069
1946.0469
1946.0182
1945.9816
1945.935
1945.876
1945.8016
1945.7073
1945.5872
1945.4322
1945.2278
1944.9496
1944.5551
1943.9726
1943.0864
1941.7258
1939.6668
1945.8575
1945.9217
1945.9895
1946.0625
1946.1414
1946.2254
1946.3123
1946.3993
1946.4836
1946.5636
1946.6383
1946.708
1946.7728
1946.8325
1946.8866
1946.9342
1946.9747
1947.0077
1947.0338
1947.0537
1947.0686
1947.0796
1947.0877
1947.0938
1947.0982
1947.1013
1947.1032
1947.1038
1947.1029
1947.1003
1947.0956
1947.0883
1947.0778
1947.0634
1947.0443
1947.0194
1946.9874
1946.9465
1946.8947
1946.8292
1946.7465
1946.6416
1946.5073
1946.3328
1946.0997
1945.7768
1945.3091
1944.605
1943.52
1941.85
1946.8229
1946.8854
1946.9513
1947.0224
1947.0992
1947.1808
1947.2654
1947.3501
1947.4322
1947.51
1947.5827
1947.6506
1947.7137
1947.7718
1947.8245
1947.871
1947.9105
1947.9428
1947.9683
1947.9879
1948.0025
1948.0135
1948.0216
1948.0278
1948.0325
1948.036
1948.0383
1948.0395
1948.0394
1948.0376
1948.034
1948.0281
1948.0193
1948.0071
1947.9906
1947.9689
1947.9408
1947.9048
1947.8591
1947.8012
1947.728
1947.6355
1947.5179
1947.3665
1947.1676
1946.8976
1946.5153
1945.9491
1945.0805
1943.7308
1947.7417
1947.8025
1947.8668
1947.936
1948.0108
1948.0903
1948.1727
1948.2552
1948.3352
1948.411
1948.4819
1948.548
1948.6095
1948.6663
1948.7177
1948.763
1948.8015
1948.8331
1948.8581
1948.8773
1948.8918
1948.9027
1948.9109
1948.9172
1948.922
1948.9258
1948.9285
1948.9302
1948.9307
1948.9298
1948.9272
1948.9225
1948.9152
1948.9048
1948.8905
1948.8716
1948.8469
1948.8151
1948.7745
1948.7231
1948.6581
1948.576
1948.472
1948.3391
1948.1666
1947.9366
1947.6182
1947.1559
1946.4552
1945.3641
1948.6178
1948.6772
1948.7399
1948.8074
1948.8803
1948.9579
1949.0382
1949.1186
1949.1966
1949.2705
1949.3397
1949.4042
1949.4642
1949.5196
1949.5698
1949.6141
1949.6518
1949.6827
1949.7072
1949.726
1949.7403
1949.7511
1949.7593
1949.7657
1949.7707
1949.7748
1949.7778
1949.78
1949.781
1949.7808
1949.779
1949.7753
1949.7693
1949.7605
1949.7483
1949.7317
1949.71
1949.6818
1949.6458
1949.5999
1949.5419
1949.4687
1949.376
1949.2582
1949.1067
1948.9077
1948.6375
1948.254
1947.6822
1946.7968
1949.455
1949.513
1949.5741
1949.64
1949.7112
1949.7869
1949.8653
1949.9438
1950.0199
1950.0921
1950.1597
1950.2227
1950.2813
1950.3353
1950.3844
1950.4277
1950.4645
1950.4948
1950.5188
1950.5374
1950.5514
1950.5621
1950.5703
1950.5768
1950.582
1950.5862
1950.5896
1950.5921
1950.5936
1950.594
1950.593
1950.5902
1950.5854
1950.578
1950.5674
1950.553
1950.5339
1950.5089
1950.4767
1950.4358
1950.3838
1950.3182
1950.2352
1950.13
1949.9956
1949.821
1949.5881
1949.2644
1948.7916
1948.068
1950.2564
1950.313
1950.3727
1950.437
1950.5065
1950.5805
1950.6571
1950.7338
1950.8082
1950.8787
1950.9447
1951.0063
1951.0636
1951.1165
1951.1644
1951.2068
1951.2429
1951.2725
1951.2961
1951.3143
1951.3282
1951.3388
1951.347
1951.3535
1951.3588
1951.3633
1951.3669
1951.3697
1951.3717
1951.3725
1951.3722
1951.3703
1951.3664
1951.3603
1951.3512
1951.3387
1951.3218
1951.2996
1951.2709
1951.2342
1951.1876
1951.1285
1951.0539
1950.9594
1950.8393
1950.6845
1950.4809
1950.2033
1949.8066
1949.2093
1951.0246
1951.0799
1951.1383
1951.2012
1951.2692
1951.3415
1951.4163
1951.4913
1951.5641
1951.633
1951.6976
1951.7578
1951.8139
1951.8656
1951.9126
1951.954
1951.9894
1952.0185
1952.0416
1952.0595
1952.0732
1952.0837
1952.0919
1952.0985
1952.1039
1952.1085
1952.1123
1952.1155
1952.1178
1952.1191
1952.1194
1952.1182
1952.1152
1952.1101
1952.1025
1952.0916
1952.0767
1952.057
1952.0314
1951.9984
1951.9564
1951.9032
1951.8358
1951.7506
1951.6425
1951.5042
1951.324
1951.0826
1950.7447
1950.2458
1951.7622
1951.8164
1951.8735
1951.935
1952.0015
1952.0722
1952.1455
1952.2188
1952.29
1952.3575
1952.4207
1952.4797
1952.5345
1952.5852
1952.6312
1952.6718
1952.7065
1952.735
1952.7577
1952.7754
1952.7889
1952.7993
1952.8075
1952.8141
1952.8196
1952.8243
1952.8284
1952.8317
1952.8344
1952.8362
1952.8369
1952.8363
1952.8342
1952.8301
1952.8236
1952.8142
1952.8012
1952.7837
1952.7608
1952.7312
1952.6933
1952.6451
1952.5841
1952.507
1952.4093
1952.2848
1952.1239
1951.9113
1951.6193
1951.1973
1952.4714
1952.5244
1952.5804
1952.6406
1952.7057
1952.7749
1952.8467
1952.9185
1952.9882
1953.0543
1953.1162
1953.174
1953.2277
1953.2774
1953.3224
1953.3622
1953.3962
1953.4243
1953.4466
1953.464
1953.4773
1953.4876
1953.4958
1953.5024
1953.508
1953.5128
1953.5171
1953.5207
1953.5236
1953.5258
1953.527
1953.527
1953.5256
1953.5224
1953.517
1953.5089
1953.4974
1953.482
1953.4615
1953.4348
1953.4006
1953.357
1953.3016
1953.2316
1953.143
1953.0303
1952.8856
1952.6963
1952.4408
1952.079
1953.1543
1953.2062
1953.261
1953.32
1953.3837
1953.4516
1953.5218
1953.5922
1953.6605
1953.7253
1953.786
1953.8426
1953.8953
1953.944
1953.9882
1954.0272
1954.0606
1954.0881
1954.1101
1954.1272
1954.1404
1954.1506
1954.1587
1954.1654
1954.171
1954.176
1954.1804
1954.1842
1954.1874
1954.1899
1954.1915
1954.192
1954.1913
1954.1889
1954.1844
1954.1775
1954.1676
1954.1539
1954.1356
1954.1116
1954.0807
1954.0411
1953.9908
1953.927
1953.8463
1953.7439
1953.613
1953.4431
1953.2169
1952.9028
1953.8125
1953.8634
1953.9171
1953.9749
1954.0374
1954.1039
1954.1728
1954.2418
1954.3088
1954.3723
1954.4318
1954.4873
1954.539
1954.5868
1954.6301
1954.6685
1954.7013
1954.7283
1954.7499
1954.7668
1954.7798
1954.7899
1954.798
1954.8047
1954.8104
1954.8155
1954.82
1954.824
1954.8274
1954.8302
1954.8322
1954.8332
1954.8331
1954.8314
1954.8278
1954.822
1954.8133
1954.8013
1954.7849
1954.7634
1954.7354
1954.6995
1954.6536
1954.5955
1954.5219
1954.4285
1954.3094
1954.1559
1953.9537
1953.6777
1954.4477
1954.4976
1954.5502
1954.607
1954.6682
1954.7335
1954.801
1954.8687
1954.9345
1954.9968
1955.0552
1955.1097
1955.1604
1955.2073
1955.2499
1955.2875
1955.3198
1955.3463
1955.3676
1955.3843
1955.3971
1955.4072
1955.4152
1955.4219
1955.4277
1955.4328
1955.4374
1955.4416
1955.4453
1955.4483
1955.4507
1955.4522
1955.4525
1955.4515
1955.4487
1955.4439
1955.4364
1955.4258
1955.4113
1955.3919
1955.3666
1955.3339
1955.2922
1955.2391
1955.1717
1955.0863
1954.9776
1954.838
1954.6559
1954.4108
1955.0613
1955.1103
1955.162
1955.2177
1955.2778
1955.3418
1955.4081
1955.4746
1955.5391
1955.6003
1955.6576
1955.7111
1955.7609
1955.807
1955.8488
1955.8858
1955.9175
1955.9437
1955.9646
1955.981
1955.9938
1956.0037
1956.0117
1956.0184
1956.0242
1956.0294
1956.0342
1956.0385
1956.0424
1956.0457
1956.0484
1956.0502
1956.0511
1956.0506
1956.0486
1956.0447
1956.0383
1956.029
1956.0161
1955.9987
1955.9758
1955.9461
1955.908
1955.8595
1955.7978
1955.7195
1955.6199
1955.4925
1955.3274
1955.1077
1955.6548
1955.7028
1955.7536
1955.8083
1955.8673
1955.9301
1955.9952
1956.0605
1956.1239
1956.184
1956.2403
1956.2929
1956.3418
1956.3871
1956.4282
1956.4646
1956.4958
1956.5215
1956.5422
1956.5584
1956.571
1956.5808
1956.5888
1956.5955
1956.6014
1956.6066
1956.6115
1956.616
1956.62
1956.6236
1956.6265
1956.6287
1956.63
1956.6301
1956.6288
1956.6256
1956.6203
1956.6122
1956.6008
1956.5852
1956.5645
1956.5376
1956.5028
1956.4583
1956.4017
1956.3298
1956.2384
1956.1217
1955.9711
1955.7728
1956.2292
1956.2764
1956.3263
1956.38
1956.438
1956.4997
1956.5637
1956.6278
1956.6901
1956.7492
1956.8045
1956.8562
1956.9043
1956.9488
1956.9893
1957.0251
1957.0557
1957.0811
1957.1015
1957.1174
1957.1299
1957.1397
1957.1476
1957.1543
1957.1602
1957.1656
1957.1705
1957.1751
1957.1793
1957.1831
1957.1863
1957.1889
1957.1906
1957.1912
1957.1904
1957.1881
1957.1836
1957.1767
1957.1666
1957.1527
1957.134
1957.1095
1957.0778
1957.037
1956.9851
1956.9189
1956.8348
1956.7276
1956.5897
1956.4094
1956.7858
1956.8322
1956.8812
1956.9339
1956.9909
1957.0516
1957.1145
1957.1775
1957.2388
1957.2969
1957.3513
1957.4021
1957.4494
1957.4932
1957.533
1957.5683
1957.5984
1957.6234
1957.6435
1957.6593
1957.6716
1957.6813
1957.6893
1957.696
1957.7019
1957.7073
1957.7123
1957.717
1957.7214
1957.7254
1957.7288
1957.7317
1957.7338
1957.7348
1957.7347
1957.733
1957.7294
1957.7235
1957.7147
1957.7023
1957.6855
1957.6632
1957.6342
1957.5969
1957.5491
1957.4882
1957.4108
1957.3119
1957.1852
1957.0205
1957.3255
1957.3711
1957.4193
1957.4712
1957.5272
1957.5868
1957.6487
1957.7107
1957.7709
1957.8281
1957.8816
1957.9316
1957.9782
1958.0213
1958.0605
1958.0952
1958.1249
1958.1495
1958.1693
1958.1849
1958.1971
1958.2068
1958.2147
1958.2214
1958.2273
1958.2328
1958.2379
1958.2427
1958.2472
1958.2514
1958.2551
1958.2582
1958.2606
1958.2621
1958.2625
1958.2615
1958.2587
1958.2537
1958.246
1958.235
1958.2199
1958.1998
1958.1733
1958.1391
1958.0952
1958.0391
1957.9675
1957.8763
1957.7595
1957.6084
1957.8493
1957.8942
1957.9415
1957.9925
1958.0476
1958.1063
1958.1672
1958.2282
1958.2875
1958.3437
1958.3964
1958.4456
1958.4915
1958.5339
1958.5725
1958.6067
1958.636
1958.6603
1958.6798
1958.6952
1958.7073
1958.7169
1958.7247
1958.7314
1958.7374
1958.7429
1958.7481
1958.753
1958.7577
1958.762
1958.7659
1958.7693
1958.7721
1958.774
1958.7749
1958.7744
1958.7723
1958.7682
1958.7616
1958.7519
1958.7384
1958.7201
1958.696
1958.6647
1958.6243
1958.5725
1958.5064
1958.4221
1958.3142
1958.175
1958.358
1958.4021
1958.4487
1958.4989
1958.5532
1958.6109
1958.6708
1958.7309
1958.7892
1958.8446
1958.8965
1958.945
1958.9901
1959.0319
1959.0699
1959.1036
1959.1325
1959.1565
1959.1758
1959.191
1959.203
1959.2125
1959.2203
1959.227
1959.233
1959.2386
1959.2438
1959.2488
1959.2536
1959.2581
1959.2622
1959.2659
1959.2689
1959.2712
1959.2725
1959.2726
1959.2712
1959.2679
1959.2623
1959.2538
1959.2418
1959.2253
1959.2033
1959.1746
1959.1374
1959.0897
1959.0286
1958.9505
1958.8507
1958.722
1958.8524
1958.8959
1958.9418
1958.9912
1959.0445
1959.1014
1959.1604
1959.2195
1959.277
1959.3315
1959.3826
1959.4304
1959.4749
1959.516
1959.5535
1959.5867
1959.6152
1959.6389
1959.6579
1959.673
1959.6849
1959.6943
1959.7021
1959.7088
1959.7148
1959.7204
1959.7258
1959.7309
1959.7358
1959.7404
1959.7447
1959.7486
1959.7519
1959.7546
1959.7563
1959.7569
1959.7562
1959.7536
1959.7489
1959.7416
1959.7308
1959.716
1959.6961
1959.6698
1959.6356
1959.5915
1959.535
1959.4627
1959.3701
1959.251
1959.3333
1959.3761
1959.4213
1959.4699
1959.5225
1959.5785
1959.6366
1959.6948
1959.7514
1959.8052
1959.8556
1959.9026
1959.9465
1959.9871
1960.024
1960.0567
1960.0849
1960.1082
1960.1271
1960.142
1960.1537
1960.1631
1960.1709
1960.1776
1960.1836
1960.1893
1960.1947
1960.1999
1960.2049
1960.2096
1960.2141
1960.2182
1960.2218
1960.2248
1960.227
1960.2281
1960.2279
1960.2261
1960.2222
1960.2159
1960.2064
1960.1931
1960.175
1960.151
1960.1196
1960.0789
1960.0266
1959.9595
1959.8735
1959.763
1959.8013
1959.8435
1959.888
1959.9359
1959.9877
1960.0428
1960.1001
1960.1575
1960.2133
1960.2663
1960.316
1960.3623
1960.4056
1960.4456
1960.482
1960.5143
1960.5421
1960.5652
1960.5838
1960.5986
1960.6102
1960.6195
1960.6273
1960.634
1960.64
1960.6457
1960.6512
1960.6565
1960.6616
1960.6665
1960.6711
1960.6754
1960.6793
1960.6826
1960.6851
1960.6867
1960.687
1960.6859
1960.6828
1960.6775
1960.6692
1960.6573
1960.6409
1960.619
1960.5901
1960.5526
1960.5041
1960.4419
1960.362
1960.2594
1960.2572
1960.2987
1960.3425
1960.3897
1960.4408
1960.4951
1960.5515
1960.6081
1960.6631
1960.7154
1960.7644
1960.8101
1960.8528
1960.8923
1960.9282
1960.9601
1960.9875
1961.0103
1961.0287
1961.0433
1961.0549
1961.0642
1961.0719
1961.0786
1961.0847
1961.0904
1961.0959
1961.1013
1961.1065
1961.1115
1961.1163
1961.1208
1961.1249
1961.1285
1961.1314
1961.1334
1961.1342
1961.1337
1961.1314
1961.127
1961.1198
1961.1092
1961.0944
1961.0745
1961.048
1961.0134
1960.9685
1960.9107
1960.8364
1960.7409
1960.7013
1960.7423
1960.7855
1960.832
1960.8823
1960.9359
1960.9915
1961.0473
1961.1016
1961.1531
1961.2014
1961.2466
1961.2887
1961.3276
1961.3631
1961.3946
1961.4217
1961.4442
1961.4624
1961.4769
1961.4883
1961.4976
1961.5053
1961.512
1961.5181
1961.5238
1961.5294
1961.5348
1961.5401
1961.5453
1961.5502
1961.5549
1961.5593
1961.5631
1961.5663
1961.5687
1961.5701
1961.5701
1961.5686
1961.5649
1961.5588
1961.5495
1961.5362
1961.5181
1961.4938
1961.4619
1961.4203
1961.3667
1961.2976
1961.2086
1961.1344
1961.1748
1961.2173
1961.2632
1961.3128
1961.3657
1961.4205
1961.4756
1961.5291
1961.58
1961.6277
1961.6722
1961.7137
1961.7522
1961.7872
1961.8183
1961.8451
1961.8673
1961.8854
1961.8997
1961.9111
1961.9203
1961.9279
1961.9346
1961.9408
1961.9466
1961.9522
1961.9577
1961.9631
1961.9683
1961.9735
1961.9783
1961.9829
1961.987
1961.9905
1961.9933
1961.9951
1961.9957
1961.9948
1961.992
1961.9868
1961.9786
1961.9668
1961.9503
1961.9281
1961.8987
1961.8603
1961.8105
1961.7461
1961.6632
1961.5569
1961.5967
1961.6387
1961.6839
1961.7328
1961.785
1961.8391
1961.8934
1961.9463
1961.9965
1962.0435
1962.0875
1962.1285
1962.1665
1962.2011
1962.2318
1962.2583
1962.2803
1962.2981
1962.3123
1962.3236
1962.3328
1962.3404
1962.3471
1962.3533
1962.3591
1962.3648
1962.3703
1962.3758
1962.3812
1962.3864
1962.3915
1962.3962
1962.4006
1962.4044
1962.4075
1962.4098
1962.4109
1962.4106
1962.4086
1962.4043
1962.3972
1962.3867
1962.3718
1962.3516
1962.3246
1962.289
1962.2428
1962.1828
1962.1054
1961.9692
1962.0085
1962.0499
1962.0946
1962.1428
1962.1943
1962.2477
1962.3013
1962.3535
1962.403
1962.4495
1962.493
1962.5334
1962.571
1962.6051
1962.6355
1962.6616
1962.6834
1962.7011
1962.7152
1962.7264
1962.7355
1962.7431
1962.7498
1962.756
1962.7619
1962.7676
1962.7732
1962.7788
1962.7843
1962.7896
1962.7948
1962.7998
1962.8044
1962.8085
1962.812
1962.8146
1962.8163
1962.8166
1962.8152
1962.8118
1962.8058
1962.7965
1962.7831
1962.7647
1962.7399
1962.707
1962.6641
1962.6083
1962.536
1962.3719
1962.4107
1962.4516
1962.4956
1962.5432
1962.594
1962.6467
1962.6997
1962.7512
1962.8002
1962.8461
1962.889
1962.929
1962.966
1962.9998
1963.0298
1963.0557
1963.0773
1963.0948
1963.1087
1963.1199
1963.1289
1963.1365
1963.1432
1963.1494
1963.1553
1963.1611
1963.1668
1963.1724
1963.178
1963.1835
1963.1889
1963.194
1963.1988
1963.2032
1963.207
1963.21
1963.2121
1963.213
1963.2123
1963.2097
1963.2047
1963.1965
1963.1846
1963.1679
1963.1451
1963.1148
1963.0749
1963.023
1962.9555
1962.7654
1962.8036
1962.844
1962.8875
1962.9345
1962.9846
1963.0366
1963.0889
1963.1398
1963.1882
1963.2336
1963.276
1963.3155
1963.3521
1963.3855
1963.4152
1963.4408
1963.4621
1963.4795
1963.4933
1963.5044
1963.5134
1963.521
1963.5277
1963.5339
1963.5398
1963.5456
1963.5514
1963.5571
1963.5628
1963.5684
1963.5739
1963.5792
1963.5843
1963.5889
1963.593
1963.5964
1963.599
1963.6004
1963.6004
1963.5985
1963.5944
1963.5873
1963.5767
1963.5616
1963.5408
1963.5129
1963.4759
1963.4275
1963.3645
1963.15
1963.1878
1963.2276
1963.2705
1963.3169
1963.3664
1963.4178
1963.4695
1963.5198
1963.5676
1963.6124
1963.6543
1963.6934
1963.7296
1963.7626
1963.792
1963.8173
1963.8384
1963.8556
1963.8693
1963.8803
1963.8893
1963.8969
1963.9036
1963.9098
1963.9158
1963.9216
1963.9275
1963.9333
1963.939
1963.9448
1963.9504
1963.9559
1963.9611
1963.966
1963.9704
1963.9742
1963.9772
1963.9791
1963.9797
1963.9786
1963.9753
1963.9693
1963.9599
1963.9463
1963.9273
1963.9016
1963.8674
1963.8224
1963.7636
1963.5261
1963.5634
1963.6027
1963.6451
1963.6909
1963.7398
1963.7906
1963.8417
1963.8914
1963.9386
1963.9829
1964.0244
1964.063
1964.0988
1964.1314
1964.1605
1964.1856
1964.2065
1964.2235
1964.2372
1964.2481
1964.257
1964.2646
1964.2713
1964.2776
1964.2836
1964.2895
1964.2953
1964.3012
1964.3071
1964.3129
1964.3187
1964.3243
1964.3298
1964.3349
1964.3396
1964.3437
1964.3471
1964.3495
1964.3507
1964.3502
1964.3478
1964.3428
1964.3346
1964.3224
1964.3052
1964.2815
1964.2499
1964.208
1964.1531
1963.8941
1963.9309
1963.9697
1964.0116
1964.0569
1964.1052
1964.1554
1964.2058
1964.255
1964.3017
1964.3455
1964.3865
1964.4247
1964.4601
1964.4924
1964.5211
1964.5459
1964.5667
1964.5836
1964.5971
1964.608
1964.6169
1964.6244
1964.6312
1964.6374
1964.6435
1964.6494
1964.6553
1964.6613
1964.6672
1964.6732
1964.6791
1964.6849
1964.6905
1964.6959
1964.7009
1964.7053
1964.7091
1964.7119
1964.7136
1964.7138
1964.7122
1964.7081
1964.7011
1964.6902
1964.6746
1964.653
1964.6237
1964.5848
1964.5335
1964.2542
1964.2906
1964.329
1964.3703
1964.415
1964.4628
1964.5124
1964.5623
1964.6109
1964.6571
1964.7004
1964.7409
1964.7787
1964.8138
1964.8457
1964.8742
1964.8988
1964.9193
1964.9361
1964.9495
1964.9603
1964.9692
1964.9767
1964.9835
1964.9897
1964.9958
1965.0018
1965.0078
1965.0138
1965.0198
1965.0259
1965.0319
1965.0379
1965.0437
1965.0493
1965.0545
1965.0593
1965.0634
1965.0667
1965.0689
1965.0698
1965.0688
1965.0657
1965.0597
1965.0501
1965.036
1965.0163
1964.9893
1964.9531
1964.9053
1964.6069
1964.6428
1964.6807
1964.7216
1964.7658
1964.8129
1964.862
1964.9113
1964.9594
1965.0051
1965.048
1965.088
1965.1254
1965.1601
1965.1918
1965.2199
1965.2443
1965.2647
1965.2813
1965.2946
1965.3054
1965.3142
1965.3218
1965.3285
1965.3348
1965.3409
1965.3469
1965.353
1965.359
1965.3652
1965.3714
1965.3775
1965.3836
1965.3896
1965.3954
1965.4009
1965.4059
1965.4104
1965.4141
1965.4168
1965.4183
1965.4181
1965.4157
1965.4108
1965.4024
1965.3898
1965.3718
1965.347
1965.3134
1965.2688
1964.9523
1964.9878
1965.0252
1965.0656
1965.1093
1965.156
1965.2045
1965.2533
1965.3008
1965.346
1965.3885
1965.4281
1965.4651
1965.4994
1965.5308
1965.5587
1965.5828
1965.603
1965.6195
1965.6328
1965.6435
1965.6523
1965.6598
1965.6665
1965.6729
1965.679
1965.6851
1965.6912
1965.6973
1965.7035
1965.7098
1965.7161
1965.7223
1965.7285
1965.7345
1965.7402
1965.7455
1965.7504
1965.7545
1965.7577
1965.7597
1965.7601
1965.7586
1965.7546
1965.7474
1965.7362
1965.7199
1965.697
1965.666
1965.6243
1965.2907
1965.3258
1965.3629
1965.4028
1965.446
1965.4921
1965.5401
1965.5883
1965.6354
1965.6801
1965.7221
1965.7614
1965.798
1965.832
1965.863
1965.8907
1965.9146
1965.9346
1965.951
1965.9642
1965.9748
1965.9836
1965.9911
1965.9979
1966.0042
1966.0104
1966.0165
1966.0226
1966.0289
1966.0352
1966.0415
1966.0479
1966.0543
1966.0606
1966.0668
1966.0728
1966.0784
1966.0835
1966.088
1966.0917
1966.0942
1966.0953
1966.0946
1966.0915
1966.0854
1966.0755
1966.0607
1966.0398
1966.0111
1965.9723
1965.6225
1965.6572
1965.6938
1965.7333
1965.776
1965.8216
1965.8691
1965.9168
1965.9634
1966.0077
1966.0493
1966.0881
1966.1244
1966.1581
1966.1888
1966.2162
1966.2399
1966.2597
1966.276
1966.2891
1966.2997
1966.3085
1966.316
1966.3227
1966.3291
1966.3353
1966.3414
1966.3476
1966.3539
1966.3603
1966.3668
1966.3733
1966.3798
1966.3863
1966.3927
1966.3988
1966.4047
1966.4102
1966.4151
1966.4192
1966.4222
1966.4239
1966.4239
1966.4217
1966.4166
1966.408