/*--------------------------------*- C++ -*----------------------------------*\
| =========                 |                                                 |
| \\      /  F ield         | OpenFOAM: The Open Source CFD Toolbox           |
|  \\    /   O peration     | Version:  4.0                                   |
|   \\  /    A nd           | Web:      www.OpenFOAM.org                      |
|    \\/     M anipulation  |                                                 |
\*---------------------------------------------------------------------------*/
FoamFile
{
    version     2.0;
    format      ascii;
    class       volScalarField;
    location    "2000";
    object      ILambda_1_0;
}
// * * * * * * * * * * * * * * * * * * * * * * * * * * * * * * * * * * * * * //

dimensions      [1 0 -3 0 0 0 0];

internalField   nonuniform List<scalar> 
5000
(
156.75669
156.68869
156.59698
156.48421
156.35212
156.20169
156.03329
155.84678
155.64165
155.41708
155.17203
154.90526
154.61541
154.30105
153.96068
153.59278
153.19591
152.76868
152.30982
151.81826
151.29316
150.73395
150.14043
149.51283
148.85187
148.15885
147.43573
146.68518
145.91067
145.11646
144.30765
143.49017
142.67068
141.85652
141.05552
140.27578
139.52549
138.81252
138.14421
137.52695
136.9659
136.46469
136.02524
135.64764
135.33016
135.0694
134.86052
134.69765
134.57425
134.48359
162.65656
162.66931
162.66585
162.6492
162.62151
162.58418
162.53801
162.4833
162.41995
162.34749
162.26513
162.17183
162.06625
161.94679
161.81159
161.65852
161.48516
161.28878
161.06639
160.81464
160.52987
160.20813
159.84513
159.43633
158.97701
158.46234
157.88749
157.24788
156.53932
155.75834
154.90244
153.9705
152.96312
151.88302
150.73539
149.52816
148.27223
146.98145
145.67246
144.36428
143.0776
141.83386
140.65409
139.55763
138.56086
137.67604
136.91047
136.26606
135.73939
135.3223
165.69142
165.71047
165.71771
165.71573
165.70644
165.69121
165.67095
165.64619
165.6172
165.58399
165.54638
165.50402
165.45639
165.40281
165.34244
165.27427
165.19711
165.10954
165.00987
164.89615
164.76605
164.61684
164.44528
164.2476
164.01938
163.7555
163.45008
163.09646
162.68714
162.21389
161.66784
161.03972
160.32012
159.50003
158.57143
157.52804
156.36622
155.08598
153.69194
152.19419
150.60897
148.95884
147.27236
145.58301
143.92754
142.34348
140.86639
139.52687
138.34796
137.34317
167.52698
167.54596
167.55559
167.55805
167.55497
167.54754
167.53657
167.52262
167.50598
167.4868
167.46508
167.44069
167.41341
167.38294
167.34887
167.31073
167.26795
167.21986
167.16566
167.10443
167.03505
166.95619
166.86623
166.76321
166.64475
166.5079
166.34912
166.16404
165.94739
165.69277
165.39257
165.03776
164.61782
164.12075
163.53319
162.8407
162.02837
161.08168
159.9877
158.73665
157.32376
155.75114
154.02969
152.18046
150.23522
148.23593
146.23272
144.28046
142.43418
140.74378
168.7789
168.79702
168.80721
168.81139
168.811
168.8071
168.80043
168.79148
168.78059
168.76791
168.7535
168.73732
168.71926
168.69915
168.67676
168.6518
168.62396
168.59284
168.55802
168.51898
168.47513
168.42579
168.37011
168.3071
168.23555
168.15396
168.06048
167.95283
167.82814
167.6828
167.51228
167.31087
167.07147
166.7852
166.4412
166.02634
165.52507
164.9195
164.18975
163.31478
162.27372
161.04789
159.62345
157.99445
156.1661
154.15761
152.00398
149.75598
147.47783
145.24234
169.72922
169.74612
169.75606
169.76075
169.7615
169.75924
169.75466
169.74822
169.74022
169.73083
169.72013
169.70811
169.69471
169.67981
169.66327
169.64489
169.62445
169.60169
169.57633
169.54804
169.51645
169.48114
169.44159
169.39724
169.34737
169.29115
169.22757
169.15537
169.07302
168.97858
168.8696
168.74295
168.59458
168.41928
168.21029
167.95891
167.65404
167.28166
166.82448
166.26168
165.56908
164.71982
163.68592
162.4408
160.96285
159.23991
157.27419
155.08664
152.71987
150.23821
170.48579
170.50163
170.51122
170.51612
170.51749
170.51622
170.51293
170.50804
170.50184
170.4945
170.4861
170.47665
170.46611
170.45441
170.44143
170.42703
170.41103
170.39325
170.37347
170.35147
170.32696
170.29965
170.26919
170.23518
170.19716
170.15457
170.10678
170.053
169.9923
169.92356
169.84536
169.75592
169.65298
169.53362
169.39398
169.22899
169.03191
168.7938
168.50287
168.14378
167.69696
167.13813
166.43823
165.56424
164.48102
163.15477
161.55799
159.67584
157.51297
155.09941
171.11337
171.12826
171.13745
171.14235
171.14406
171.14339
171.14092
171.13704
171.13202
171.12603
171.11914
171.11139
171.10274
171.09314
171.0825
171.07069
171.0576
171.04306
171.0269
171.00895
170.98899
170.96678
170.94208
170.91457
170.88391
170.84969
170.81145
170.76865
170.72065
170.66667
170.60582
170.53695
170.4587
170.3693
170.2665
170.14735
170.00792
169.84291
169.64514
169.40481
169.1087
168.73913
168.27304
167.68126
166.92846
165.9742
164.7758
163.29335
161.49691
159.37533
171.64725
171.66133
171.67012
171.67497
171.67689
171.67662
171.67472
171.67155
171.66738
171.66235
171.65655
171.65001
171.64271
171.63461
171.62563
171.61568
171.60464
171.59239
171.57879
171.56368
171.54691
171.52827
171.50755
171.48452
171.4589
171.43037
171.39856
171.36307
171.3234
171.27899
171.22917
171.17314
171.10996
171.03846
170.95717
170.86425
170.75731
170.63315
170.48747
170.31432
170.10548
169.84948
169.53045
169.12687
168.61021
167.94424
167.08515
165.98377
164.59024
162.86182
172.11086
172.12422
172.13265
172.1374
172.13943
172.13945
172.13796
172.13532
172.13177
172.12746
172.12247
172.11683
172.11054
172.10355
172.09581
172.08723
172.07772
172.06717
172.05545
172.04245
172.02802
172.012
171.99421
171.97445
171.95249
171.92807
171.9009
171.87064
171.83689
171.7992
171.75706
171.70985
171.65685
171.5972
171.52986
171.45355
171.36667
171.26715
171.15227
171.01837
170.86038
170.67115
170.44054
170.15413
169.79169
169.32544
168.71864
167.92501
166.89017
165.55599
172.51968
172.5324
172.54049
172.54513
172.54723
172.54745
172.54627
172.54404
172.54096
172.53721
172.53284
172.52791
172.52239
172.51627
172.50948
172.50196
172.49363
172.48438
172.47412
172.46274
172.45011
172.43609
172.42053
172.40327
172.3841
172.36281
172.33914
172.31281
172.28349
172.25081
172.21435
172.17359
172.12798
172.07682
172.01932
171.9545
171.88119
171.79794
171.70287
171.59357
171.46677
171.31796
171.14074
170.92586
170.65991
170.32353
169.88935
169.31998
168.56675
167.5705
172.88472
172.89687
172.90466
172.90919
172.91132
172.91169
172.91075
172.90883
172.90614
172.90282
172.89895
172.89457
172.88967
172.88423
172.87821
172.87153
172.86413
172.85592
172.84681
172.8367
172.82549
172.81306
172.79926
172.78396
172.76698
172.74814
172.72721
172.70394
172.67807
172.64927
172.61718
172.58138
172.54138
172.49664
172.44649
172.39016
172.32673
172.25507
172.17382
172.08122
171.97502
171.85222
171.70863
171.5383
171.33255
171.0785
170.75721
170.34116
169.79178
169.05759
173.21402
173.22567
173.23317
173.23758
173.23973
173.24021
173.23946
173.23779
173.2354
173.23244
173.22898
173.22505
173.22065
173.21577
173.21036
173.20437
173.19772
173.19035
173.18217
173.1731
173.16304
173.15189
173.13952
173.1258
173.11059
173.09371
173.07497
173.05417
173.03105
173.00534
172.97672
172.94484
172.90928
172.86956
172.82514
172.77537
172.71949
172.65659
172.58559
172.50514
172.41357
172.30871
172.18769
172.0465
171.87941
171.67798
171.42951
171.11487
170.70579
170.16172
173.51363
173.52482
173.53205
173.53635
173.5385
173.53906
173.53847
173.537
173.53487
173.5322
173.52907
173.52552
173.52154
173.51711
173.51221
173.50678
173.50077
173.49409
173.48668
173.47847
173.46936
173.45925
173.44805
173.43564
173.42188
173.40661
173.38968
173.37089
173.35002
173.32683
173.30104
173.27233
173.24035
173.20469
173.16486
173.12032
173.07042
173.0144
172.95136
172.88022
172.79966
172.708
172.60313
172.48218
172.34123
172.17458
171.97374
171.72577
171.41084
170.99909
173.78819
173.79897
173.80596
173.81015
173.81229
173.81292
173.81245
173.81115
173.80923
173.80681
173.80396
173.80072
173.79708
173.79305
173.78858
173.78362
173.77813
173.77203
173.76527
173.75777
173.74946
173.74024
173.73002
173.71869
173.70614
173.69223
173.6768
173.65968
173.64068
173.61958
173.59613
173.57006
173.54104
173.50871
173.47264
173.43237
173.38733
173.33687
173.28023
173.21649
173.14455
173.06309
172.97043
172.86441
172.74215
172.59966
172.4311
172.22769
171.97582
171.65432
174.04138
174.05177
174.05854
174.06263
174.06475
174.06543
174.06506
174.06391
174.06217
174.05995
174.05734
174.05436
174.05103
174.04732
174.04322
174.03866
174.03361
174.02802
174.0218
174.01491
174.00727
173.9988
173.98942
173.97902
173.96749
173.95472
173.94056
173.92486
173.90744
173.8881
173.86663
173.84276
173.81622
173.78668
173.75376
173.71704
173.67603
173.63016
173.57877
173.52106
173.45612
173.38281
173.29978
173.20529
173.09713
172.97232
172.82669
172.65412
172.44522
172.18523
174.2761
174.28615
174.29271
174.2967
174.2988
174.29952
174.29923
174.29821
174.29662
174.29458
174.29218
174.28943
174.28635
174.28293
174.27913
174.27492
174.27026
174.26509
174.25935
174.25298
174.24592
174.23809
174.22942
174.21981
174.20917
174.19738
174.1843
174.16981
174.15374
174.13591
174.11612
174.09414
174.06971
174.04253
174.01228
173.97856
173.94095
173.89894
173.85193
173.79925
173.74009
173.67348
173.59826
173.51302
173.41594
173.30471
173.17619
173.02591
172.84725
172.6299
174.49475
174.50447
174.51085
174.51474
174.51681
174.51756
174.51735
174.51643
174.51497
174.51309
174.51086
174.50831
174.50546
174.50228
174.49876
174.49485
174.49052
174.48572
174.48039
174.47447
174.46792
174.46065
174.4526
174.44368
174.43379
174.42285
174.41072
174.39728
174.38237
174.36584
174.3475
174.32714
174.30452
174.27938
174.25141
174.22027
174.18556
174.14682
174.10355
174.05512
174.00082
173.93982
173.8711
173.79346
173.70539
173.60499
173.48977
173.35635
173.19986
173.01294
174.69926
174.70869
174.71489
174.71869
174.72073
174.72151
174.72136
174.72053
174.71918
174.71744
174.71537
174.71299
174.71033
174.70737
174.70408
174.70044
174.6964
174.69192
174.68695
174.68144
174.67532
174.66854
174.66103
174.65271
174.6435
174.63329
174.62198
174.60946
174.59557
174.58017
174.5631
174.54414
174.5231
174.49972
174.47373
174.44482
174.41261
174.37671
174.33664
174.29185
174.24171
174.18547
174.12225
174.05099
173.9704
173.87888
173.77439
173.65423
173.51467
173.35028
174.89127
174.90042
174.90645
174.91017
174.91219
174.91298
174.91288
174.91213
174.91089
174.90926
174.90733
174.90511
174.90262
174.89984
174.89677
174.89336
174.88958
174.88539
174.88073
174.87557
174.86984
174.86349
174.85646
174.84867
174.84004
174.83049
174.81991
174.80818
174.79519
174.78079
174.76482
174.74711
174.72745
174.70562
174.68136
174.65438
174.62436
174.59092
174.55363
174.512
174.46544
174.41331
174.3548
174.28898
174.21473
174.13066
174.03504
173.92565
173.79951
173.65244
175.07213
175.08103
175.0869
175.09054
175.09253
175.09334
175.09328
175.0926
175.09145
175.08993
175.08811
175.08603
175.08369
175.08109
175.0782
175.075
175.07145
175.06751
175.06314
175.05828
175.0529
175.04694
175.04033
175.03301
175.0249
175.01593
175.00599
174.99498
174.98278
174.96926
174.95428
174.93766
174.91922
174.89875
174.87602
174.85075
174.82265
174.79137
174.75652
174.71764
174.67422
174.62565
174.57123
174.5101
174.44129
174.36357
174.27544
174.17502
174.05985
173.92657
175.24301
175.25167
175.2574
175.26095
175.26291
175.26373
175.26372
175.26309
175.26202
175.2606
175.25889
175.25693
175.25473
175.25228
175.24956
175.24654
175.2432
175.23948
175.23536
175.23079
175.22572
175.22009
175.21386
175.20696
175.19932
175.19087
175.1815
175.17113
175.15963
175.1469
175.13279
175.11714
175.09979
175.08053
175.05916
175.03541
175.00901
174.97964
174.94695
174.9105
174.86984
174.8244
174.77354
174.71651
174.65242
174.58018
174.49848
174.40567
174.29967
174.1777
175.40488
175.41333
175.41891
175.42239
175.42433
175.42515
175.42517
175.42461
175.4236
175.42227
175.42066
175.41881
175.41673
175.41441
175.41184
175.40899
175.40583
175.40232
175.39843
175.3941
175.38931
175.38399
175.3781
175.37158
175.36436
175.35637
175.34751
175.33771
175.32685
175.31483
175.3015
175.28672
175.27034
175.25217
175.232
175.20961
175.18473
175.15707
175.12628
175.092
175.05377
175.0111
174.9634
174.90998
174.85002
174.78257
174.70644
174.62019
174.522
174.40951
175.55861
175.56685
175.57231
175.57571
175.57762
175.57845
175.5785
175.57798
175.57705
175.57579
175.57427
175.57251
175.57055
175.56835
175.56592
175.56322
175.56022
175.5569
175.55321
175.54911
175.54457
175.53953
175.53395
175.52777
175.52092
175.51335
175.50496
175.49567
175.48538
175.47399
175.46137
175.44738
175.43187
175.41468
175.3956
175.37442
175.3509
175.32476
175.2957
175.26334
175.2273
175.18709
175.14219
175.09196
175.03566
174.97242
174.90118
174.82064
174.7292
174.62482
175.70494
175.71298
175.71831
175.72165
175.72353
175.72437
175.72444
175.72397
175.72309
175.7219
175.72045
175.71879
175.71693
175.71484
175.71253
175.70997
175.70713
175.70397
175.70046
175.69657
175.69225
175.68747
175.68216
175.67629
175.66979
175.6626
175.65463
175.64581
175.63604
175.62522
175.61324
175.59996
175.58524
175.56893
175.55083
175.53075
175.50846
175.4837
175.45617
175.42555
175.39146
175.35347
175.31107
175.26369
175.21065
175.15115
175.08422
175.00871
174.92318
174.82582
175.8445
175.85235
175.85757
175.86084
175.8627
175.86353
175.86363
175.8632
175.86237
175.86124
175.85987
175.8583
175.85652
175.85454
175.85234
175.8499
175.84719
175.84419
175.84085
175.83715
175.83304
175.82848
175.82343
175.81784
175.81165
175.8048
175.79722
175.78882
175.77953
175.76923
175.75783
175.7452
175.7312
175.71568
175.69848
175.67939
175.65821
175.6347
175.60857
175.57952
175.54719
175.51119
175.47104
175.42622
175.3761
175.31994
175.25686
175.1858
175.10548
175.01427
175.97786
175.98553
175.99064
175.99386
175.99569
175.99652
175.99664
175.99624
175.99546
175.99439
175.99309
175.99159
175.98989
175.988
175.98591
175.98358
175.981
175.97814
175.97495
175.97142
175.9675
175.96315
175.95834
175.95301
175.9471
175.94057
175.93333
175.92533
175.91646
175.90664
175.89577
175.88373
175.87039
175.8556
175.83921
175.82103
175.80086
175.77848
175.75362
175.72599
175.69526
175.66106
175.62295
175.58044
175.53295
175.47978
175.42015
175.35308
175.27738
175.19162
176.10551
176.11303
176.11803
176.12119
176.12299
176.12383
176.12396
176.1236
176.12286
176.12184
176.1206
176.11917
176.11755
176.11575
176.11375
176.11153
176.10906
176.10632
176.10328
176.09991
176.09616
176.09201
176.0874
176.08231
176.07667
176.07042
176.06351
176.05585
176.04738
176.038
176.02762
176.01612
176.00337
175.98926
175.97361
175.95626
175.93702
175.91567
175.89196
175.86563
175.83636
175.8038
175.76754
175.72712
175.68201
175.63156
175.57503
175.51153
175.43999
175.35907
176.22792
176.23527
176.24018
176.24327
176.24506
176.24589
176.24604
176.2457
176.24501
176.24404
176.24285
176.24148
176.23994
176.23821
176.2363
176.23417
176.23181
176.22919
176.22628
176.22305
176.21947
176.21549
176.21109
176.20621
176.20081
176.19483
176.18821
176.18089
176.17278
176.1638
176.15386
176.14285
176.13066
176.11716
176.10219
176.08561
176.06721
176.04681
176.02416
175.99902
175.97108
175.94002
175.90545
175.86694
175.82399
175.776
175.72228
175.66201
175.5942
175.51764
176.34545
176.35266
176.35747
176.36051
176.36227
176.3631
176.36327
176.36296
176.3623
176.36137
176.36024
176.35893
176.35745
176.3558
176.35396
176.35193
176.34967
176.34715
176.34436
176.34127
176.33783
176.33402
176.32979
176.32512
176.31994
176.3142
176.30786
176.30084
176.29306
176.28446
176.27493
176.26438
176.2527
176.23976
176.22543
176.20954
176.19192
176.17239
176.15072
176.12667
176.09995
176.07026
176.03724
176.00047
175.95949
175.91375
175.86259
175.80526
175.74083
175.66819
176.45848
176.46554
176.47026
176.47325
176.47499
176.47582
176.476
176.47571
176.47508
176.4742
176.47311
176.47186
176.47044
176.46885
176.46709
176.46514
176.46297
176.46056
176.45788
176.45491
176.45161
176.44795
176.44389
176.4394
176.43443
176.42892
176.42283
176.41609
176.40862
176.40036
176.39122
176.38109
176.36988
176.35746
176.34371
176.32847
176.31157
176.29284
176.27207
176.24902
176.22343
176.195
176.1634
176.12824
176.08907
176.04538
175.99656
175.9419
175.88055
175.81146
176.5673
176.57423
176.57887
176.58181
176.58352
176.58434
176.58454
176.58427
176.58368
176.58283
176.58179
176.58058
176.57922
176.5777
176.57601
176.57413
176.57204
176.56973
176.56715
176.56429
176.56112
176.5576
176.5537
176.54938
176.5446
176.53931
176.53345
176.52697
176.51979
176.51185
176.50306
176.49333
176.48255
176.47062
176.4574
176.44276
176.42653
176.40855
176.38861
176.36648
176.34193
176.31467
176.28438
176.25069
176.21319
176.17138
176.12471
176.0725
176.01395
175.94811
176.67221
176.67902
176.68357
176.68646
176.68815
176.68897
176.68917
176.68893
176.68836
176.68755
176.68655
176.68539
176.68408
176.68262
176.68099
176.67918
176.67718
176.67495
176.67247
176.66972
176.66667
176.66328
176.65952
176.65536
176.65076
176.64567
176.64003
176.63379
176.62688
176.61923
176.61077
176.6014
176.59103
176.57955
176.56683
176.55275
176.53714
176.51985
176.50067
176.47941
176.45582
176.42964
176.40056
176.36823
176.33227
176.2922
176.2475
176.19754
176.14157
176.07869
176.77347
176.78015
176.78462
176.78747
176.78914
176.78995
176.79016
176.78994
176.7894
176.78862
176.78766
176.78655
176.78528
176.78387
176.78231
176.78057
176.77863
176.77649
176.7741
176.77145
176.7685
176.76524
176.76162
176.75761
176.75317
176.74826
176.74283
176.73681
176.73015
176.72278
176.71463
176.7056
176.69561
176.68454
176.67229
176.65872
176.6437
176.62704
176.60859
176.58812
176.56543
176.54025
176.51229
176.48123
176.44668
176.40822
176.36534
176.31745
176.26385
176.2037
176.8713
176.87786
176.88226
176.88506
176.88671
176.88752
176.88774
176.88753
176.88702
176.88628
176.88535
176.88427
176.88306
176.8817
176.88019
176.87851
176.87664
176.87457
176.87227
176.86971
176.86687
176.86372
176.86023
176.85636
176.85208
176.84734
176.84209
176.83629
176.82986
176.82275
176.81488
176.80617
176.79653
176.78586
176.77405
176.76096
176.74647
176.73042
176.71263
176.69291
176.67105
176.6468
176.61988
176.58999
176.55677
176.5198
176.47861
176.43263
176.38122
176.32357
176.96592
176.97237
176.97669
176.97946
176.98108
176.98189
176.98212
176.98193
176.98143
176.98072
176.97983
176.97879
176.97761
176.9763
176.97484
176.97322
176.97142
176.96942
176.9672
176.96473
176.96199
176.95894
176.95557
176.95183
176.9477
176.94312
176.93805
176.93244
176.92624
176.91937
176.91177
176.90336
176.89404
176.88374
176.87233
176.8597
176.84571
176.83021
176.81305
176.79403
176.77294
176.74956
176.72362
176.69482
176.66282
176.62724
176.58761
176.54342
176.49402
176.4387
177.05752
177.06386
177.06812
177.07084
177.07244
177.07325
177.07348
177.07331
177.07284
177.07215
177.07129
177.07029
177.06915
177.06788
177.06647
177.06491
177.06317
177.06124
177.05909
177.0567
177.05404
177.0511
177.04784
177.04423
177.04023
177.0358
177.0309
177.02548
177.01948
177.01284
177.00549
176.99735
176.98835
176.97839
176.96736
176.95515
176.94163
176.92666
176.91008
176.89171
176.87135
176.84878
176.82375
176.79597
176.76512
176.73083
176.69266
176.65011
176.6026
176.54942
177.14628
177.15252
177.15671
177.15939
177.16097
177.16177
177.16201
177.16185
177.1614
177.16074
177.15991
177.15894
177.15784
177.15662
177.15525
177.15374
177.15206
177.15019
177.14811
177.14579
177.14323
177.14038
177.13722
177.13373
177.12985
177.12557
177.12083
177.11558
177.10977
177.10334
177.09623
177.08836
177.07965
177.07001
177.05934
177.04753
177.03445
177.01997
177.00394
176.98618
176.9665
176.94469
176.92051
176.89368
176.8639
176.83081
176.79401
176.753
176.70724
176.65605
177.23236
177.2385
177.24262
177.24526
177.24683
177.24763
177.24787
177.24772
177.24729
177.24665
177.24585
177.24491
177.24385
177.24266
177.24134
177.23988
177.23825
177.23644
177.23443
177.23219
177.2297
177.22694
177.22388
177.2205
177.21675
177.21259
177.208
177.20291
177.19729
177.19106
177.18417
177.17655
177.16811
177.15877
177.14844
177.137
177.12434
177.11033
177.09481
177.07762
177.05858
177.03748
177.0141
176.98817
176.95939
176.92743
176.89189
176.85233
176.8082
176.75887
177.3159
177.32195
177.32601
177.32861
177.33016
177.33095
177.3312
177.33107
177.33065
177.33004
177.32926
177.32835
177.32733
177.32618
177.3249
177.32348
177.3219
177.32015
177.31819
177.31602
177.31361
177.31094
177.30797
177.30469
177.30105
177.29703
177.29257
177.28764
177.28219
177.27615
177.26947
177.26208
177.2539
177.24485
177.23483
177.22375
177.21148
177.1979
177.18286
177.16622
177.14778
177.12735
177.10472
177.07963
177.05179
177.02089
176.98654
176.94832
176.90572
176.85813
177.39705
177.403
177.40701
177.40958
177.41111
177.41189
177.41215
177.41202
177.41163
177.41103
177.41028
177.4094
177.4084
177.40729
177.40605
177.40467
177.40314
177.40144
177.39955
177.39744
177.3951
177.39251
177.38963
177.38645
177.38292
177.37901
177.37469
177.3699
177.36461
177.35875
177.35227
177.3451
177.33717
177.32838
177.31867
177.30792
177.29602
177.28285
177.26827
177.25213
177.23426
177.21446
177.19254
177.16823
177.14128
177.11137
177.07815
177.04119
177.00001
176.95405
177.47594
177.4818
177.48574
177.48828
177.48979
177.49057
177.49083
177.49071
177.49033
177.48976
177.48903
177.48818
177.48721
177.48613
177.48493
177.48359
177.48211
177.48046
177.47862
177.47657
177.4743
177.47178
177.46899
177.4659
177.46247
177.45868
177.45448
177.44983
177.44469
177.439
177.43271
177.42575
177.41804
177.40952
177.40008
177.38965
177.3781
177.36531
177.35117
177.33551
177.31817
177.29897
177.27771
177.25415
177.22804
177.19906
177.16689
177.13111
177.09128
177.04684
177.55266
177.55844
177.56233
177.56483
177.56633
177.5671
177.56736
177.56726
177.5669
177.56634
177.56563
177.56481
177.56387
177.56282
177.56165
177.56035
177.55891
177.55731
177.55552
177.55354
177.55133
177.54888
177.54617
177.54316
177.53983
177.53614
177.53206
177.52755
177.52255
177.51703
177.51091
177.50414
177.49666
177.48837
177.47921
177.46907
177.45785
177.44543
177.43169
177.41649
177.39966
177.38102
177.36039
177.33753
177.3122
177.28411
177.25293
177.21827
177.1797
177.13669
177.62735
177.63304
177.63688
177.63935
177.64083
177.6416
177.64186
177.64177
177.64142
177.64088
177.64019
177.63939
177.63848
177.63746
177.63633
177.63507
177.63366
177.6321
177.63037
177.62844
177.62629
177.62391
177.62127
177.61835
177.61511
177.61153
177.60756
177.60317
177.59831
177.59293
177.58699
177.58041
177.57313
177.56507
177.55616
177.5463
177.5354
177.52333
177.50998
177.4952
177.47885
177.46075
177.44071
177.41852
177.39393
177.36667
177.33642
177.30282
177.26544
177.22378
177.70009
177.7057
177.70949
177.71193
177.71339
177.71415
177.71442
177.71434
177.714
177.71348
177.71281
177.71203
177.71115
177.71016
177.70905
177.70783
177.70646
177.70495
177.70326
177.70138
177.69929
177.69698
177.69441
177.69156
177.68841
177.68492
177.68106
177.67679
177.67206
177.66683
177.66105
177.65464
177.64756
177.63972
177.63105
177.62146
177.61085
177.59912
177.58613
177.57176
177.55586
177.53827
177.51879
177.49723
177.47334
177.44687
177.41751
177.3849
177.34864
177.30825
177.77098
177.77652
177.78025
177.78266
177.78411
177.78487
177.78514
177.78506
177.78473
177.78423
177.78358
177.78282
177.78196
177.781
177.77993
177.77873
177.77741
177.77593
177.77429
177.77246
177.77043
177.76817
177.76567
177.7629
177.75983
177.75644
177.75268
177.74852
177.74391
177.73882
177.73319
177.72695
177.72005
177.71243
177.70399
177.69465
177.68432
177.6729
177.66026
177.64628
177.63081
177.61369
177.59475
177.57378
177.55057
177.52484
177.49631
177.46465
177.42945
177.39026
177.84011
177.84557
177.84925
177.85163
177.85307
177.85382
177.85409
177.85402
177.85371
177.85322
177.85259
177.85185
177.85101
177.85008
177.84903
177.84787
177.84658
177.84514
177.84354
177.84176
177.83978
177.83758
177.83515
177.83245
177.82946
177.82615
177.82249
177.81844
177.81395
177.80899
177.8035
177.79742
177.79071
177.78327
177.77505
177.76596
177.7559
177.74477
177.73246
177.71885
177.70379
177.68713
177.6687
177.64829
177.62571
177.60069
177.57296
177.54218
177.50799
177.46993
177.90755
177.91294
177.91658
177.91893
177.92035
177.92109
177.92137
177.92131
177.921
177.92053
177.91992
177.9192
177.91838
177.91747
177.91645
177.91532
177.91406
177.91266
177.9111
177.90937
177.90744
177.9053
177.90292
177.90029
177.89738
177.89415
177.89058
177.88663
177.88226
177.87742
177.87207
177.86615
177.8596
177.85235
177.84434
177.83548
177.82567
177.81483
177.80284
177.78957
177.7749
177.75867
177.74072
177.72086
177.69888
177.67453
177.64755
177.61762
177.58438
177.54739
177.97338
177.9787
177.9823
177.98462
177.98602
177.98677
177.98704
177.98699
177.9867
177.98623
177.98564
177.98494
177.98415
177.98325
177.98226
177.98116
177.97993
177.97857
177.97705
177.97535
177.97347
177.97139
177.96907
177.9665
177.96366
177.96052
177.95703
177.95318
177.94892
177.9442
177.93898
177.9332
177.92681
177.91975
177.91193
177.90329
177.89373
177.88316
177.87146
177.85853
177.84423
177.82842
177.81093
177.79158
177.77016
177.74646
177.72019
177.69106
177.65872
177.62276
178.03768
178.04294
178.04648
178.04878
178.05017
178.05091
178.05118
178.05113
178.05085
178.05041
178.04983
178.04915
178.04837
178.0475
178.04654
178.04546
178.04426
178.04293
178.04145
178.0398
178.03796
178.03593
178.03367
178.03116
178.02839
178.02532
178.02192
178.01816
178.014
178.00939
178.0043
177.99866
177.99243
177.98553
177.97791
177.96947
177.96015
177.94983
177.93843
177.92581
177.91187
177.89644
177.87939
177.86053
177.83966
177.81656
177.79098
177.76261
177.73113
177.69613
178.10051
178.1057
178.1092
178.11147
178.11285
178.11358
178.11386
178.11382
178.11355
178.11311
178.11255
178.11188
178.11113
178.11028
178.10934
178.10829
178.10712
178.10582
178.10437
178.10276
178.10097
178.09898
178.09677
178.09433
178.09162
178.08862
178.08531
178.08163
178.07757
178.07307
178.0681
178.0626
178.05651
178.04978
178.04233
178.0341
178.025
178.01493
178.00379
177.99149
177.97788
177.96283
177.94619
177.9278
177.90745
177.88493
177.85999
177.83235
177.80169
177.76761
178.16193
178.16705
178.17052
178.17276
178.17412
178.17485
178.17513
178.17509
178.17483
178.17441
178.17386
178.17321
178.17247
178.17165
178.17073
178.1697
178.16856
178.16729
178.16588
178.16431
178.16256
178.16061
178.15846
178.15607
178.15343
178.1505
178.14726
178.14367
178.1397
178.13531
178.13045
178.12507
178.11913
178.11255
178.10528
178.09724
178.08835
178.07851
178.06764
178.05562
178.04234
178.02765
178.01141
177.99346
177.9736
177.95164
177.92732
177.90038
177.87049
177.83729
178.222
178.22706
178.23049
178.2327
178.23405
178.23478
178.23506
178.23503
178.23477
178.23436
178.23383
178.23319
178.23247
178.23167
178.23077
178.22977
178.22865
178.22741
178.22603
178.22449
178.22279
178.22089
178.21878
178.21645
178.21386
178.211
178.20783
178.20433
178.20045
178.19616
178.19141
178.18615
178.18034
178.17392
178.16681
178.15895
178.15026
178.14066
178.13004
178.11829
178.10532
178.09097
178.07512
178.05759
178.0382
178.01677
177.99304
177.96676
177.93761
177.90524
178.28077
178.28578
178.28916
178.29136
178.29269
178.29341
178.29369
178.29366
178.29342
178.29302
178.2925
178.29188
178.29118
178.29039
178.28951
178.28853
178.28744
178.28623
178.28488
178.28338
178.28171
178.27985
178.2778
178.27551
178.27299
178.27019
178.26709
178.26366
178.25987
178.25567
178.25103
178.24589
178.24021
178.23393
178.22698
178.2193
178.21081
178.20142
178.19103
178.17956
178.16688
178.15286
178.13737
178.12024
178.10132
178.08038
178.05722
178.03157
178.00313
177.97156
178.3383
178.34325
178.3466
178.34877
178.35009
178.3508
178.35108
178.35106
178.35083
178.35044
178.34993
178.34933
178.34864
178.34787
178.34701
178.34605
178.34499
178.3438
178.34248
178.34102
178.33938
178.33757
178.33555
178.33332
178.33085
178.32811
178.32508
178.32173
178.31802
178.31392
178.30937
178.30435
178.29879
178.29265
178.28585
178.27834
178.27003
178.26085
178.25069
178.23947
178.22707
178.21337
178.19823
178.1815
178.163
178.14255
178.11992
178.09488
178.06711
178.03631
178.39464
178.39953
178.40284
178.40499
178.4063
178.407
178.40729
178.40727
178.40704
178.40666
178.40617
178.40558
178.4049
178.40415
178.40331
178.40238
178.40134
178.40018
178.39889
178.39745
178.39585
178.39408
178.39211
178.38992
178.3875
178.38483
178.38186
178.37858
178.37495
178.37093
178.36649
178.36157
178.35613
178.35012
178.34347
178.33612
178.32799
178.319
178.30907
178.2981
178.28597
178.27257
178.25776
178.2414
178.22332
178.20333
178.18122
178.15675
178.12964
178.09955
178.44983
178.45466
178.45793
178.46006
178.46136
178.46206
178.46234
178.46233
178.46211
178.46174
178.46126
178.46068
178.46002
178.45929
178.45846
178.45755
178.45653
178.4554
178.45414
178.45273
178.45117
178.44943
178.4475
178.44536
178.44299
178.44037
178.43747
178.43426
178.4307
178.42677
178.42242
178.41761
178.41228
178.4064
178.39989
178.39269
178.38473
178.37594
178.36622
178.35548
178.34361
178.3305
178.31601
178.30001
178.28232
178.26278
178.24117
178.21725
178.19075
178.16137
178.50391
178.50869
178.51193
178.51403
178.51532
178.51602
178.5163
178.51629
178.51608
178.51572
178.51524
178.51468
178.51404
178.51332
178.51251
178.51162
178.51062
178.50951
178.50828
178.5069
178.50537
178.50367
178.50178
178.49968
178.49737
178.4948
178.49196
178.48881
178.48533
178.48148
178.47722
178.4725
178.46729
178.46152
178.45515
178.4481
178.44031
178.4317
178.42218
178.41167
178.40005
178.38722
178.37304
178.35738
178.34007
178.32095
178.29981
178.27643
178.25053
178.22181
178.55693
178.56165
178.56486
178.56694
178.56821
178.56891
178.56919
178.56919
178.56898
178.56863
178.56817
178.56762
178.56699
178.56628
178.56549
178.56462
178.56364
178.56256
178.56135
178.56
178.5585
178.55683
178.55498
178.55293
178.55066
178.54814
178.54536
178.54228
178.53887
178.53509
178.53092
178.5263
178.52119
178.51555
178.5093
178.5024
178.49477
178.48633
178.47701
178.46671
178.45533
178.44277
178.42888
178.41355
178.39662
178.3779