/*--------------------------------*- C++ -*----------------------------------*\
| =========                 |                                                 |
| \\      /  F ield         | OpenFOAM: The Open Source CFD Toolbox           |
|  \\    /   O peration     | Version:  4.0                                   |
|   \\  /    A nd           | Web:      www.OpenFOAM.org                      |
|    \\/     M anipulation  |                                                 |
\*---------------------------------------------------------------------------*/
FoamFile
{
    version     2.0;
    format      ascii;
    class       volScalarField;
    location    "2000";
    object      ILambda_8_0;
}
// * * * * * * * * * * * * * * * * * * * * * * * * * * * * * * * * * * * * * //

dimensions      [1 0 -3 0 0 0 0];

internalField   nonuniform List<scalar> 
5000
(
156.82609
156.91386
157.01496
157.13083
157.26361
157.41589
157.59047
157.79011
158.01729
158.27371
158.55954
158.87278
159.20886
159.56109
159.9217
160.28348
160.6412
160.99248
161.33783
161.67997
162.02282
162.37048
162.72652
163.09356
163.47319
163.86602
164.27187
164.68995
165.11898
165.55735
166.00323
166.45459
166.90936
167.36546
167.82088
168.27374
168.72237
169.16535
169.60153
170.03008
170.45043
170.8623
171.26564
171.6606
172.04746
172.42661
172.79847
173.16353
173.52223
173.87504
162.62278
162.67725
162.74169
162.81715
162.90533
163.00825
163.12807
163.26681
163.42613
163.6069
163.80858
164.02872
164.2627
164.5042
164.74617
164.98228
165.20815
165.42201
165.62466
165.81888
166.00849
166.19753
166.38956
166.58746
166.79326
167.00827
167.23325
167.46849
167.71399
167.96952
168.23469
168.50895
168.79168
169.08215
169.37957
169.68313
169.99197
170.30525
170.62213
170.94183
171.26361
171.58678
171.91074
172.23496
172.55897
172.88238
173.20488
173.52621
173.84618
174.16463
165.64995
165.68672
165.73086
165.78314
165.84483
165.91748
166.0027
166.10196
166.21648
166.3468
166.4924
166.65129
166.81982
166.99307
167.16559
167.3325
167.49047
167.63816
167.77628
167.90703
168.03348
168.15882
168.28599
168.41734
168.55467
168.69922
168.85182
169.013
169.18307
169.3622
169.55042
169.74769
169.95385
170.16871
170.39196
170.62327
170.86222
171.10834
171.36112
171.62003
171.8845
172.15397
172.42786
172.70562
172.98671
173.27063
173.5569
173.84509
174.13482
174.42575
167.48702
167.51427
167.54733
167.58681
167.63374
167.68936
167.75496
167.83175
167.92069
168.0222
168.13588
168.26008
168.39184
168.52717
168.66161
168.79121
168.9132
169.02651
169.13168
169.23052
169.32553
169.41936
169.51444
169.61277
169.71588
169.82489
169.94059
170.06354
170.19414
170.33266
170.47932
170.63425
170.79753
170.96916
171.14911
171.33728
171.53351
171.73757
171.9492
172.16808
172.39383
172.62608
172.86437
173.10827
173.35731
173.61104
173.86901
174.13077
174.39591
174.66406
168.74128
168.76331
168.79025
168.82259
168.86123
168.90723
168.96169
169.02565
169.09994
169.18491
169.28021
169.38442
169.49498
169.60842
169.72088
169.82892
169.93013
170.02356
170.10966
170.18998
170.26669
170.34209
170.41831
170.49709
170.57979
170.66743
170.76075
170.86029
170.96646
171.0796
171.19997
171.32779
171.46325
171.60647
171.75754
171.91652
172.08339
172.25809
172.44052
172.63051
172.82786
173.03232
173.2436
173.46136
173.68526
173.91491
174.14995
174.38997
174.6346
174.88346
169.69411
169.71266
169.73546
169.76298
169.79598
169.8354
169.88223
169.93738
170.00156
170.07511
170.15769
170.24806
170.34394
170.44224
170.53955
170.63279
170.71981
170.79974
170.87298
170.94089
171.00538
171.06851
171.13215
171.19787
171.26691
171.34018
171.41836
171.50196
171.59141
171.68703
171.78913
171.89796
172.01374
172.13669
172.26696
172.40468
172.54994
172.7028
172.86324
173.03123
173.20668
173.38945
173.57937
173.77622
173.97973
174.18965
174.40564
174.6274
174.85459
175.08688
170.45282
170.46895
170.48889
170.51302
170.54206
170.57686
170.61829
170.66717
170.72416
170.78955
170.86305
170.9435
171.02886
171.11632
171.20276
171.2854
171.36227
171.43256
171.49663
171.55571
171.61151
171.6659
171.72058
171.77698
171.83623
171.89915
171.9664
172.03845
172.11569
172.19848
172.2871
172.38183
172.48293
172.59062
172.70513
172.82662
172.95525
173.09114
173.23437
173.38497
173.54295
173.70826
173.88081
174.06048
174.2471
174.44047
174.64036
174.84653
175.05868
175.27655
171.08229
171.09661
171.11437
171.13596
171.16199
171.19326
171.23057
171.27466
171.32614
171.38526
171.45176
171.52459
171.60185
171.68095
171.75905
171.83355
171.90266
171.96562
172.02273
172.07513
172.12439
172.17221
172.22016
172.26956
172.32142
172.37655
172.43551
172.49878
172.56672
172.63967
172.71793
172.80177
172.89146
172.98725
173.08937
173.19804
173.31345
173.43577
173.56512
173.70161
173.8453
173.99621
174.15434
174.31963
174.49198
174.67128
174.85735
175.05002
175.24906
175.45425
171.6178
171.63072
171.64681
171.6664
171.69009
171.7186
171.75266
171.79298
171.8401
171.89427
171.95524
172.02201
172.09285
172.16533
172.23681
172.30489
172.36787
172.42505
172.47672
172.5239
172.56805
172.61076
172.65347
172.6974
172.74352
172.79254
172.84502
172.90139
172.96201
173.02718
173.09722
173.17238
173.25295
173.33918
173.43132
173.5296
173.63423
173.74543
173.86335
173.98814
174.11991
174.25875
174.40469
174.55774
174.71788
174.88504
175.05911
175.23998
175.42747
175.62142
172.08286
172.09466
172.10939
172.12738
172.14917
172.17542
172.20685
172.24409
172.28766
172.33779
172.39422
172.45605
172.52162
172.58869
172.65477
172.71759
172.77559
172.82809
172.87535
172.91832
172.95838
172.99698
173.0355
173.07506
173.11656
173.16069
173.20795
173.25876
173.31345
173.37233
173.43568
173.50378
173.57689
173.65527
173.73918
173.82886
173.92455
174.02646
174.13479
174.24973
174.37141
174.49995
174.63546
174.77797
174.92752
175.0841
175.24765
175.4181
175.59535
175.77925
172.49295
172.50383
172.51745
172.53411
172.55432
172.57872
172.60796
172.64264
172.68325
172.73
172.78265
172.84034
172.90152
172.96407
173.02563
173.08409
173.13795
173.18657
173.23018
173.26969
173.30638
173.34163
173.3767
173.41268
173.45041
173.49051
173.53349
173.57972
173.62953
173.68321
173.74103
173.80325
173.87015
173.94197
174.01898
174.10143
174.18957
174.28361
174.38379
174.4903
174.60331
174.72299
174.84945
174.98279
175.12308
175.27034
175.42459
175.58578
175.75385
175.92872
172.85914
172.86924
172.88193
172.89747
172.91636
172.93919
172.96657
172.99909
173.03718
173.08105
173.13049
173.18466
173.2421
173.30081
173.35854
173.4133
173.46365
173.50899
173.54954
173.58615
173.62002
173.65246
173.68467
173.71767
173.75224
173.78899
173.82838
173.87078
173.91649
173.9658
174.01896
174.07623
174.13787
174.20414
174.27529
174.35157
174.43324
174.52054
174.61369
174.71292
174.81842
174.93036
175.04891
175.17419
175.3063
175.44531
175.59126
175.74415
175.90398
176.07069
173.18947
173.19891
173.2108
173.22539
173.24314
173.26462
173.29042
173.32106
173.35699
173.39839
173.44505
173.49619
173.55041
173.60579
173.66023
173.71179
173.75913
173.80167
173.83961
173.87374
173.90522
173.93528
173.96507
173.99554
174.02744
174.06135
174.0977
174.13685
174.17908
174.22466
174.27384
174.32688
174.38402
174.44552
174.51162
174.58259
174.65867
174.74011
174.82715
174.92002
175.01893
175.12408
175.23565
175.35379
175.47862
175.61026
175.74877
175.8942
176.04657
176.20586
173.49
173.49888
173.51008
173.52384
173.54061
173.56092
173.58533
173.61435
173.64839
173.68763
173.73187
173.78036
173.83176
173.88425
173.93581
173.98459
174.02932
174.06942
174.10509
174.1371
174.16652
174.19454
174.22224
174.25054
174.28016
174.31163
174.34537
174.38172
174.42096
174.46333
174.50909
174.55846
174.61171
174.66906
174.73078
174.79711
174.86831
174.94463
175.0263
175.11358
175.20667
175.3058
175.41116
175.52293
175.64126
175.76627
175.89807
176.03674
176.18233
176.33485
173.76541
173.7738
173.78439
173.79743
173.81334
173.83262
173.8558
173.88339
173.91577
173.95311
173.99521
174.04136
174.09028
174.14022
174.18924
174.23558
174.27801
174.31598
174.34967
174.37982
174.40745
174.4337
174.4596
174.48603
174.51366
174.54301
174.5745
174.60842
174.64505
174.68463
174.7274
174.77358
174.82342
174.87715
174.93502
174.99728
175.06418
175.13597
175.2129
175.2952
175.38313
175.47689
175.5767
175.68275
175.79521
175.91424
176.03996
176.17248
176.31188
176.45819
174.01936
174.02732
174.03738
174.04978
174.06492
174.08329
174.1054
174.13171
174.16261
174.19826
174.23846
174.28253
174.32924
174.3769
174.42367
174.46784
174.50823
174.54432
174.57627
174.60478
174.63084
174.65554
174.67986
174.70464
174.73054
174.75805
174.78755
174.81935
174.85369
174.89082
174.93096
174.97433
175.02117
175.0717
175.12617
175.18482
175.24791
175.31568
175.38837
175.46625
175.54954
175.63848
175.7333
175.83419
175.94135
176.05495
176.17513
176.30203
176.43575
176.57636
174.2548
174.26236
174.27196
174.28379
174.29825
174.3158
174.33694
174.36212
174.39169
174.42582
174.46432
174.50652
174.55124
174.59688
174.64162
174.68386
174.72242
174.75683
174.78723
174.81429
174.83897
174.86229
174.88522
174.90856
174.93292
174.9588
174.98655
175.01647
175.0488
175.08376
175.12157
175.16245
175.20662
175.25431
175.30576
175.3612
175.42087
175.48504
175.55395
175.62784
175.70696
175.79156
175.88186
175.97807
176.08041
176.18905
176.30418
176.42592
176.55442
176.68976
174.47409
174.48132
174.49049
174.50181
174.51565
174.53247
174.55274
174.57689
174.60527
174.63803
174.67499
174.71551
174.75844
174.80224
174.84516
174.88565
174.92258
174.95548
174.98449
175.01025
175.03369
175.0558
175.07749
175.09954
175.12255
175.14698
175.17318
175.20142
175.23195
175.26498
175.30072
175.33938
175.38117
175.42632
175.47505
175.5276
175.58422
175.64515
175.71064
175.78094
175.85629
175.93695
176.02314
176.11509
176.21302
176.31714
176.42761
176.54462
176.66829
176.79876
174.67921
174.68613
174.69491
174.70577
174.71906
174.73522
174.7547
174.77792
174.80522
174.83673
174.87229
174.91128
174.95259
174.99472
175.03599
175.0749
175.11035
175.14188
175.16964
175.19424
175.21657
175.23758
175.25817
175.27907
175.30086
175.324
175.34881
175.37556
175.40448
175.43578
175.46966
175.50632
175.54597
175.58883
175.63512
175.68508
175.73894
175.79694
175.85933
175.92637
175.99829
176.07536
176.1578
176.24586
176.33975
176.4397
176.5459
176.65852
176.77774
176.90368
174.87178
174.87841
174.88685
174.89729
174.91007
174.92563
174.94439
174.96676
174.99307
175.02345
175.05774
175.09533
175.13516
175.17577
175.21554
175.253
175.2871
175.3174
175.34402
175.36757
175.3889
175.40893
175.42851
175.44838
175.46909
175.49106
175.51462
175.54002
175.5675
175.59724
175.62944
175.6643
175.70202
175.74282
175.7869
175.8345
175.88585
175.94119
176.00076
176.06483
176.13363
176.20741
176.28642
176.3709
176.46109
176.5572
176.65944
176.76801
176.88308
177.00481
175.05317
175.05954
175.06767
175.07772
175.09005
175.10505
175.12315
175.14475
175.17015
175.19949
175.2326
175.26891
175.30738
175.3466
175.38499
175.42113
175.454
175.48317
175.50877
175.53136
175.55178
175.57091
175.5896
175.60853
175.62825
175.64917
175.6716
175.69579
175.72196
175.75029
175.78097
175.8142
175.85017
175.88908
175.93116
175.97661
176.02568
176.07859
176.1356
176.19694
176.26287
176.33364
176.4095
176.49069
176.57745
176.67001
176.76859
176.87339
176.98461
177.10241
175.22453
175.23068
175.23851
175.24821
175.26011
175.27461
175.2921
175.31299
175.33755
175.36594
175.39797
175.43311
175.47032
175.50826
175.54538
175.5803
175.61205
175.64019
175.66483
175.68655
175.70614
175.72447
175.74234
175.76042
175.77925
175.79921
175.82062
175.8437
175.86868
175.89572
175.92503
175.95677
175.99114
176.02834
176.06858
176.11208
176.15906
176.20975
176.2644
176.32324
176.38654
176.45454
176.52749
176.60563
176.68922
176.77849
176.87367
176.97497
177.08259
177.19672
175.38687
175.3928
175.40036
175.40974
175.42125
175.43528
175.45222
175.47244
175.49624
175.52373
175.55478
175.58882
175.62488
175.66163
175.69758
175.73138
175.76209
175.78927
175.81305
175.83397
175.8528
175.87039
175.88752
175.90483
175.92284
175.94193
175.9624
175.98448
176.00836
176.03424
176.06228
176.09266
176.12557
176.16121
176.19977
176.24147
176.28653
176.33518
176.38766
176.44421
176.50508
176.57051
176.64077
176.7161
176.79675
176.88296
176.97497
177.07299
177.17725
177.28794
175.54103
175.54676
175.55408
175.56316
175.57431
175.5879
175.60432
175.62393
175.64702
175.67369
175.70381
175.73684
175.77183
175.80748
175.84234
175.87511
175.90486
175.93116
175.95414
175.97433
175.99246
176.00937
176.02581
176.04242
176.05968
176.07797
176.09759
176.11874
176.14164
176.16644
176.19332
176.22245
176.25403
176.28822
176.32524
176.36529
176.40858
176.45535
176.50583
176.56025
176.61887
176.68194
176.7497
176.82241
176.90032
176.98368
177.07273
177.1677
177.26881
177.37626
175.68776
175.69331
175.7004
175.7092
175.72002
175.7332
175.74914
175.76819
175.7906
175.81652
175.84577
175.87786
175.91185
175.94648
175.98033
176.01214
176.04099
176.06648
176.08873
176.10823
176.12573
176.14201
176.15782
176.17378
176.19035
176.20792
176.22674
176.24705
176.26903
176.29284
176.31866
176.34665
176.37699
176.40985
176.44545
176.48397
176.52564
176.57067
176.61929
176.67175
176.72828
176.78915
176.85459
176.92486
177.00022
177.08092
177.1672
177.2593
177.35745
177.46186
175.82771
175.83308
175.83996
175.8485
175.85901
175.87182
175.88731
175.90582
175.92762
175.95282
175.98127
176.01248
176.04554
176.07921
176.11213
176.14304
176.17106
176.1958
176.21735
176.23623
176.25313
176.26884
176.28407
176.29942
176.31537
176.33226
176.35036
176.36989
176.39102
176.41393
176.43876
176.46569
176.49489
176.52653
176.56081
176.59792
176.63807
176.68149
176.72839
176.77902
176.83362
176.89243
176.95571
177.02371
177.09669
177.17489
177.25858
177.34799
177.44336
177.54491
175.96143
175.96664
175.97333
175.98163
175.99184
176.0043
176.01937
176.03739
176.0586
176.08313
176.11084
176.14123
176.17341
176.20619
176.23823
176.2683
176.29555
176.31958
176.3405
176.35879
176.37514
176.39032
176.40502
176.41982
176.43518
176.45144
176.46888
176.48768
176.50804
176.5301
176.55402
176.57997
176.60811
176.63862
176.67167
176.70747
176.74623
176.78814
176.83345
176.88238
176.93517
176.99207
177.05333
177.1192
177.18994
177.26581
177.34706
177.43394
177.52668
177.62553
176.08943
176.0945
176.101
176.10907
176.11901
176.13115
176.14582
176.16337
176.18404
176.20795
176.23495
176.26456
176.29593
176.32788
176.35909
176.38838
176.4149
176.43827
176.4586
176.47634
176.49219
176.50687
176.52107
176.53535
176.55017
176.56586
176.58268
176.60081
176.62044
176.64172
176.6648
176.68984
176.717
176.74645
176.77837
176.81295
176.8504
176.89092
176.93474
176.98208
177.03318
177.08829
177.14766
177.21154
177.28018
177.35386
177.43281
177.51731
177.60758
177.70388
176.21216
176.21709
176.22341
176.23128
176.24096
176.25278
176.26709
176.2842
176.30436
176.32768
176.35402
176.38291
176.41351
176.44466
176.4751
176.50366
176.5295
176.55226
176.57203
176.58926
176.60463
176.61885
176.63259
176.6464
176.66071
176.67587
176.6921
176.70962
176.72858
176.74913
176.77143
176.79562
176.82186
176.85033
176.88119
176.91464
176.95087
176.99008
177.03251
177.07836
177.12789
177.18132
177.23891
177.30092
177.3676
177.4392
177.516
177.59824
177.68618
177.78006
176.33001
176.3348
176.34097
176.34863
176.35807
176.36961
176.38357
176.40027
176.41995
176.44271
176.46842
176.49662
176.5265
176.55692
176.58663
176.61449
176.63969
176.66187
176.68112
176.69788
176.71281
176.72659
176.7399
176.75326
176.76711
176.78177
176.79747
176.8144
176.83273
176.85261
176.87418
176.89758
176.92297
176.95052
176.98039
177.01278
177.04787
177.08587
177.12699
177.17145
177.21949
177.27135
177.32728
177.38753
177.45235
177.52201
177.59677
177.67688
177.76261
177.85419
176.44333
176.448
176.45401
176.46149
176.4707
176.48196
176.4956
176.5119
176.53113
176.55336
176.57849
176.60605
176.63524
176.66496
176.69398
176.72119
176.74579
176.76743
176.78619
176.8025
176.81701
176.8304
176.8433
176.85625
176.86966
176.88385
176.89905
176.91544
176.93319
176.95243
176.97332
176.99598
177.02058
177.04727
177.07622
177.10761
177.14163
177.17848
177.21838
177.26154
177.30819
177.35857
177.41293
177.47152
177.53459
177.60241
177.67524
177.75334
177.83697
177.92639
176.55243
176.55699
176.56286
176.57016
176.57916
176.59016
176.60348
176.61942
176.63821
176.65995
176.68452
176.71147
176.74001
176.76907
176.79745
176.82404
176.84808
176.8692
176.8875
176.9034
176.91751
176.93052
176.94305
176.95561
176.96862
176.98237
176.9971
177.01299
177.03019
177.04884
177.06908
177.09105
177.1149
177.14079
177.16887
177.19933
177.23235
177.26813
177.30688
177.34881
177.39415
177.44314
177.49602
177.55304
177.61446
177.68055
177.75155
177.82774
177.90939
177.99673
176.65761
176.66207
176.66779
176.67493
176.68372
176.69448
176.70751
176.7231
176.74148
176.76275
176.78679
176.81316
176.84109
176.86953
176.89729
176.9233
176.9468
176.96744
176.9853
177.00081
177.01456
177.02721
177.03939
177.05158
177.06421
177.07755
177.09184
177.10725
177.12394
177.14204
177.16168
177.18301
177.20616
177.23128
177.25855
177.28814
177.32022
177.35499
177.39265
177.43342
177.47753
177.52521
177.57669
177.63224
177.6921
177.75653
177.82581
177.90019
177.97994
178.06532
176.75913
176.76347
176.76907
176.77605
176.78465
176.79518
176.80793
176.82319
176.84118
176.86201
176.88554
176.91136
176.93871
176.96655
176.99373
177.0192
177.04219
177.06237
177.07982
177.09496
177.10836
177.12069
177.13253
177.14438
177.15664
177.1696
177.18348
177.19845
177.21466
177.23223
177.25131
177.27203
177.29452
177.31894
177.34544
177.3742
177.40539
177.43921
177.47585
177.51554
177.55848
177.60491
177.65508
177.70922
177.7676
177.83048
177.89811
177.97078
178.04873
178.13224
176.8572
176.86146
176.86693
176.87376
176.88218
176.89248
176.90496
176.91991
176.93754
176.95794
176.981
177.0063
177.03309
177.06037
177.087
177.11194
177.13445
177.1542
177.17126
177.18605
177.19912
177.21114
177.22266
177.2342
177.24612
177.25872
177.27221
177.28676
177.30252
177.3196
177.33815
177.35829
177.38016
177.40391
177.42969
177.45768
177.48803
177.52095
177.55663
177.59529
177.63713
177.68239
177.7313
177.78412
177.8411
177.90249
177.96857
178.03959
178.11584
178.19756
176.95206
176.95622
176.96158
176.96826
176.97651
176.9866
176.99883
177.01348
177.03076
177.05075
177.07336
177.09816
177.12443
177.15117
177.17727
177.20171
177.22377
177.24311
177.25981
177.27426
177.28703
177.29875
177.30998
177.32121
177.33282
177.34508
177.3582
177.37236
177.38768
177.40431
177.42236
177.44196
177.46324
177.48636
177.51146
177.53871
177.56828
177.60035
177.63512
177.6728
177.71359
177.75774
177.80547
177.85703
177.91268
177.97267
178.03726
178.10673
178.18134
178.26136
177.04389
177.04796
177.0532
177.05975
177.06783
177.07773
177.08972
177.10408
177.12102
177.14063
177.1628
177.18713
177.2129
177.23914
177.26474
177.2887
177.31032
177.32927
177.34563
177.35976
177.37224
177.38368
177.39464
177.40558
177.41689
177.42883
177.44161
177.45539
177.47031
177.4865
177.50408
177.52317
177.54391
177.56643
177.59088
177.61744
177.64626
177.67753
177.71143
177.74819
177.788
177.83109
177.8777
177.92806
177.98244
178.04109
178.10427
178.17225
178.24531
178.3237
177.13286
177.13685
177.14199
177.14841
177.15633
177.16603
177.1778
177.19189
177.20851
177.22775
177.24951
177.27339
177.29868
177.32442
177.34955
177.37307
177.39427
177.41285
177.42887
177.44271
177.45492
177.46609
177.47678
177.48746
177.49848
177.51012
177.52257
177.53601
177.55055
177.56633
177.58346
177.60206
177.62228
177.64423
177.66808
177.69398
177.72209
177.7526
177.78569
177.82157
177.86044
177.90253
177.94807
177.9973
178.05047
178.10785
178.16968
178.23624
178.30781
178.38465
177.21915
177.22306
177.2281
177.23439
177.24216
177.25168
177.26323
177.27706
177.29337
177.31227
177.33363
177.35707
177.38191
177.40719
177.43186
177.45494
177.47576
177.49399
177.50969
177.52325
177.5352
177.54612
177.55656
177.56698
177.57774
177.58909
177.60123
177.61433
177.62852
177.6439
177.66061
177.67876
177.69848
177.7199
177.74317
177.76845
177.79589
177.82568
177.85799
177.89304
177.93102
177.97216
178.01668
178.06483
178.11685
178.17301
178.23356
178.29877
178.36892
178.44427
177.3029
177.30673
177.31167
177.31785
177.32548
177.33482
177.34615
177.35974
177.37576
177.39432
177.4153
177.43833
177.46273
177.48757
177.5118
177.53448
177.55492
177.57281
177.58822
177.60151
177.6132
177.62389
177.63409
177.64427
177.65477
177.66585
177.67771
177.69049
177.70433
177.71935
177.73566
177.75338
177.77263
177.79354
177.81627
177.84095
177.86776
177.89686
177.92844
177.96269
177.99982
178.04005
178.08361
178.13073
178.18166
178.23666
178.29598
178.3599
178.42868
178.50261
177.38424
177.388
177.39285
177.39891
177.4064
177.41558
177.42672
177.44006
177.4558
177.47404
177.49466
177.51729
177.54128
177.56569
177.5895
177.61179
177.63187
177.64944
177.66456
177.6776
177.68906
177.69952
177.7095
177.71945
177.72971
177.74053
177.75211
177.7646
177.77811
177.79278
177.80871
177.82602
177.84482
177.86526
177.88746
177.91158
177.93778
177.96623
177.99711
178.03061
178.06694
178.10631
178.14894
178.19508
178.24496
178.29885
178.357
178.41968
178.48716
178.55973
177.46331
177.467
177.47176
177.47772
177.48507
177.49409
177.50503
177.51815
177.53362
177.55155
177.57182
177.59408
177.61766
177.64166
177.66508
177.68699
177.70673
177.724
177.73885
177.75164
177.76287
177.77312
177.78289
177.79262
177.80265
177.81323
177.82454
177.83675
177.84996
177.86429
177.87986
177.89678
177.91516
177.93514
177.95685
177.98044
178.00606
178.03389
178.0641
178.09688
178.13244
178.17099
178.21274
178.25794
178.30683
178.35965
178.41668
178.47818
178.54441
178.61567
177.54022
177.54384
177.54852
177.55437
177.5616
177.57046
177.58122
177.59411
177.60933
177.62697
177.64691
177.6688
177.69199
177.71561
177.73864
177.76019
177.77961
177.79658
177.81117
177.82373
177.83475
177.84479
177.85436
177.86388
177.87369
177.88404
177.89511
177.90704
177.91996
177.93398
177.94921
177.96575
177.98373
178.00327
178.02451
178.04759
178.07267
178.09991
178.12948
178.16158
178.19641
178.23416
178.27508
178.31938
178.36731
178.41913
178.47508
178.53544
178.60048
178.67047
177.61508
177.61863
177.62323
177.62898
177.63609
177.64481
177.65539
177.66807
177.68304
177.70039
177.72001
177.74155
177.76438
177.78762
177.81029
177.83149
177.85059
177.86728
177.88163
177.89396
177.90478
177.91463
177.924
177.93333
177.94294
177.95306
177.96389
177.97557
177.98821
178.00193
178.01683
178.03302
178.05062
178.06974
178.09054
178.11313
178.13768
178.16436
178.19333
178.22477
178.2589
178.29591
178.33602
178.37946
178.42648
178.47732
178.53225
178.59152
178.65541
178.7242
177.68799
177.69148
177.696
177.70166
177.70865
177.71722
177.72763
177.74011
177.75485
177.77192
177.79123
177.81244
177.83491
177.85779
177.8801
177.90098
177.91978
177.9362
177.95031
177.96243
177.97306
177.98272
177.99191
178.00105
178.01046
178.02037
178.03098
178.04241
178.05479
178.06822
178.08281
178.09866
178.11589
178.13463
178.15499
178.17713
178.20118
178.22732
178.25571
178.28653
178.31999
178.35628
178.39562
178.43824
178.48439
178.5343
178.58823
178.64646
178.70925
178.77687
177.75904
177.76247
177.76692
177.77248
177.77936
177.7878
177.79805
177.81033
177.82484
177.84164
177.86066
177.88154
177.90367
177.9262
177.94818
177.96874
177.98725
178.00342
178.0173
178.02922
178.03966
178.04914
178.05816
178.06712
178.07634
178.08606
178.09645
178.10765
178.11977
178.13293
178.14722
178.16275
178.17964
178.19799
178.21795
178.23964
178.26322
178.28884
178.31668
178.34691
178.37972
178.41533
178.45394
178.49577
178.54108
178.5901
178.64308
178.7003
178.76203
178.82854
177.82832
177.8317
177.83607
177.84155
177.84832
177.85663
177.86671
177.87881
177.89309
177.90965
177.92838
177.94895
177.97075
177.99295
178.01461
178.03486
178.05309
178.06901
178.08268
178.0944
178.10466
178.11398
178.12283
178.13162
178.14066
178.15018
178.16037
178.17135
178.18323
178.19613
178.21014
178.22536
178.24192
178.25991
178.27948
178.30075
178.32387
178.349
178.37631
178.40597
178.43817
178.47312
178.51102
178.5521
178.5966
178.64477
178.69684
178.7531
178.81381
178.87924
177.89592
177.89924
177.90354
177.90893
177.9156
177.92378
177.93372
177.94563
177.9597
177.97601
177.99447
178.01474
178.03622
178.0581
178.07944
178.09941
178.11737
178.13306
178.14651
178.15805
178.16814
178.1773
178.18599
178.19461
178.20348
178.21283
178.22281
178.23358
178.24523
178.25788
178.27162
178.28655
178.30279
178.32044
178.33963
178.3605
178.38319
178.40785
178.43465
178.46376
178.49538
178.5297
178.56692
178.60728
178.65101
178.69835
178.74955
178.80488
178.86461
178.929
177.9619
177.96517
177.96941
177.97471
177.98128
177.98934
177.99913
178.01087
178.02473
178.04081
178.059
178.07898
178.10016
178.12173
178.14277
178.16245
178.18016
178.19562
178.20887
178.22023
178.23016
178.23916
178.2477
178.25617
178.26488
178.27404
178.28384
178.29441
178.30584
178.31825
178.33173
178.34639
178.36232
178.37964
178.39848
178.41896
178.44123
178.46544
178.49176
178.52035
178.5514
178.58511
178.62169
178.66136
178.70434
178.75089
178.80125
178.85569
178.91447
178.97787
178.02634
178.02956
178.03373
178.03896
178.04543
178.05337
178.06302
178.07459
178.08826
178.1041
178.12203
178.14174
178.16262
178.18389
178.20465
178.22405
178.24152
178.25676
178.26982
178.28101
178.29078
178.29963
178.30803
178.31635
178.3249
178.3339
178.34352
178.35389
178.36512
178.3773
178.39053
178.40492
178.42056
178.43756
178.45606
178.47617
178.49805
178.52183
178.54767
178.57576
178.60628
178.63941
178.67536
178.71436
178.75664
178.80242
178.85197
178.90555
178.96342
179.02586
178.08931
178.09248
178.09659
178.10174
178.10812
178.11594
178.12545
178.13686
178.15034
178.16596
178.18365
178.20308
178.22368
178.24466
178.26514
178.28428
178.30151
178.31654
178.32942
178.34044
178.35007
178.35878
178.36703
178.37521
178.38361
178.39245
178.4019
178.41208
178.42311
178.43507
178.44807
178.4622
178.47756
178.49427
178.51243
178.53219
178.55368
178.57705
178.60245
178.63006
178.66005
178.69263
178.72799
178.76634
178.80793
178.85299
178.90176
178.95451
179.0115
179.07301
178.15086
178.15398
178.15804
178.16311
178.1694
178.17711
178.18649
178.19774
178.21103
178.22644
178.24389
178.26306
178.28339
178.30409
178.3243
178.34319
178.36019
178.37502
178.38772
178.39859
178.40807
178.41664
178.42476
178.4328
178.44106
178.44975
178.45903
178.46904
178.47987
178.49163
178.5044
178.51828
178.53337
178.54979
178.56765
178.58707
178.60819
178.63116
178.65613
178.68328
178.71277
178.74481
178.7796
178.81734
178.85827
178.90262
178.95064
179.00259
179.05873
179.11934
178.21106
178.21414
178.21813
178.22314
178.22934
178.23695
178.24619
178.25729
178.2704
178.28561
178.30282
178.32174
178.3418
178.36224
178.38218
178.40084
178.41761
178.43225
178.44478
178.45549
178.46484
178.47328
178.48127
178.48918
178.4973
178.50584
178.51497
178.52481
178.53546
178.54701
178.55956
178.57321
178.58805
178.60419
178.62174
178.64084
178.66161
178.6842
178.70876
178.73546
178.76448
178.796
178.83023
178.86738
178.90767
178.95135
178.99864
179.04982
179.10515
179.16489
178.26996
178.273
178.27693
178.28187
178.28798
178.29549
178.30461
178.31556
178.3285
178.34351
178.3605
178.37917
178.39898
178.41916
178.43885
178.45726
178.47383
178.48828
178.50064
178.51121
178.52042
178.52874
178.53661
178.5444
178.55238
178.56079
178.56976
178.57943
178.58991
178.60127
178.61361
178.62703
178.64163
178.6575
178.67477
178.69355
178.71398
178.7362
178.76037
178.78664
178.8152
178.84623
178.87993
178.9165
178.95619
178.9992
179.0458
179.09624
179.15077
179.20967
178.32762
178.33061
178.33449
178.33936
178.34539
178.3528
178.3618
178.37261
178.38538
178.40019
178.41696
178.4354
178.45496
178.47489
178.49434
178.51253
178.52889
178.54315
178.55536
178.56579
178.57487
178.58307
178.59082
178.59849
178.60635
178.61462
178.62345
178.63296
178.64327
178.65444
178.66659
178.67979
178.69415
178.70977
178.72676
178.74524
178.76534
178.78721
178.811
178.83686
178.86498
178.89553
178.92871
178.96474
179.00383
179.04622
179.09214
179.14186
179.19563
179.25372
178.38407
178.38702
178.39085
178.39566
178.40161
178.40892
178.4178
178.42847
178.44108
178.45571
178.47227
178.49048
178.5098
178.52948
178.54869
178.56667
178.58283
178.59692
178.60897
178.61927
178.62823
178.63631
178.64395
178.6515
178.65924
178.66738
178.67607
178.68544
178.69558
178.70658
178.71853
178.73152
178.74566
178.76103
178.77775
178.79594
178.81574
178.83727
178.86069
178.88615
178.91384
178.94394
178.97663
179.01212
179.05064
179.09242
179.1377
179.18672
179.23975
179.29705
178.43938
178.44229
178.44606
178.45081
178.45668
178.4639
178.47267
178.4832
178.49565
178.5101
178.52646
178.54444
178.56353
178.58298
178.60197
178.61973
178.6357
178.64962
178.66153
178.67169
178.68054
178.68851
178.69604
178.70347
178.7111
178.71911
178.72767
178.73689
178.74688
178.75771
178.76948
178.78227
178.79618
178.81132
178.82778
178.8457
178.86519
178.8864
178.90946
178.93455
178.96183
178.99148
179.02369
179.05868
179.09665
179.13784
179.18248
179.23084
179.28316
179.33968
178.49357
178.49644
178.50017
178.50485
178.51065
178.51778
178.52644
178.53684
178.54914
178.56341
178.57957
178.59734
178.6162
178.63542
178.65419
178.67174
178.68753
178.70129
178.71306
178.7231
178.73183
178.7397
178.74712
178.75445
178.76196
178.76986
178.77829
178.78737
178.7972
178.80787
178.81946
178.83206
178.84576
178.86067
178.87689
178.89454
178.91374
178.93463
178.95736
178.98208
179.00896
179.03819
179.06994
179.10443
179.14187
179.1825
179.22653
179.27424
179.32586
179.38162
178.5467
178.54953
178.55321
178.55784
178.56356
178.5706
178.57916
178.58943
178.60158
178.61568
178.63165
178.64921
178.66785
178.68685
178.70541
178.72276
178.73837
178.75197
178.7636
178.77353
178.78215
178.78991
178.79723
178.80446
178.81186
178.81964
178.82795
178.8369
178.84659
178.8571
178.86852
178.88093
178.89444
178.90912
178.92511
178.9425
178.96142
178.98201
179.00441
179.02878
179.05528
179.08409
179.1154
179.14941
179.18634