/*--------------------------------*- C++ -*----------------------------------*\
| =========                 |                                                 |
| \\      /  F ield         | OpenFOAM: The Open Source CFD Toolbox           |
|  \\    /   O peration     | Version:  4.0                                   |
|   \\  /    A nd           | Web:      www.OpenFOAM.org                      |
|    \\/     M anipulation  |                                                 |
\*---------------------------------------------------------------------------*/
FoamFile
{
    version     2.0;
    format      ascii;
    class       surfaceScalarField;
    location    "2000";
    object      phi;
}
// * * * * * * * * * * * * * * * * * * * * * * * * * * * * * * * * * * * * * //

dimensions      [1 0 -1 0 0 0 0];

internalField   nonuniform List<scalar> 
9850
(
1.1456875e-11
1.8916252e-10
4.2982446e-11
6.3338526e-10
9.5496437e-11
1.202759e-09
1.7147107e-10
1.9206892e-09
2.7291409e-10
2.8145766e-09
4.0111215e-10
3.9149869e-09
5.5635644e-10
5.2556659e-09
7.3767774e-10
6.8735742e-09
9.4263135e-10
8.8090326e-09
1.1671585e-09
1.1106113e-08
1.4055796e-09
1.3813443e-08
1.6507459e-09
1.6985637e-08
1.8943661e-09
2.068555e-08
2.1275158e-09
2.4987562e-08
2.3413081e-09
2.9982013e-08
2.5276693e-09
3.5780869e-08
2.6801365e-09
4.2524588e-08
2.7946075e-09
5.0390083e-08
2.8698802e-09
5.9599647e-08
2.9079003e-09
7.0430699e-08
2.9135216e-09
8.3226322e-08
2.8938345e-09
9.8406748e-08
2.8569894e-09
1.1648221e-07
2.8107006e-09
1.3806797e-07
2.7607493e-09
1.6390256e-07
2.7097944e-09
1.9487074e-07
2.6568238e-09
2.3203254e-07
2.5972712e-09
2.7665997e-07
2.5239326e-09
3.3028269e-07
2.4280732e-09
3.9474392e-07
2.3007727e-09
4.7226812e-07
2.1340381e-09
5.6554223e-07
1.9218814e-09
6.7781316e-07
1.6612072e-09
8.1300506e-07
1.3531773e-09
9.7586117e-07
9.8965954e-10
1.172131e-06
5.7572386e-10
1.4087328e-06
1.2055711e-10
1.6940442e-06
-3.6034527e-10
2.0381891e-06
-8.3217123e-10
2.4534122e-06
-1.2713996e-09
2.9545264e-06
-1.6533592e-09
3.5594426e-06
-1.9536174e-09
4.2898224e-06
-2.1488011e-09
5.1718664e-06
-2.2188297e-09
6.2372716e-06
-2.1436405e-09
7.5243799e-06
-1.9132609e-09
9.0796013e-06
-1.4984445e-09
1.0959045e-05
-9.2413723e-10
1.3230764e-05
1.5976527e-05
4.7035593e-11
1.4212698e-10
2.0016415e-10
4.8025678e-10
4.8109256e-10
9.2183058e-10
9.1040221e-10
1.4913799e-09
1.5068856e-09
2.2180929e-09
2.2854526e-09
3.1364196e-09
3.25458e-09
4.2865388e-09
4.4134557e-09
5.7146984e-09
5.7490942e-09
7.4733943e-09
7.2338263e-09
9.6213805e-09
8.8237094e-09
1.2223561e-08
1.0458451e-08
1.5350895e-08
1.2063436e-08
1.9080566e-08
1.3554233e-08
2.3496767e-08
1.4843631e-08
2.8692617e-08
1.5850739e-08
3.4773761e-08
1.6511068e-08
4.1864261e-08
1.6785892e-08
5.0115259e-08
1.6668922e-08
5.9716614e-08
1.6188323e-08
7.0911299e-08
1.5402844e-08
8.40118e-08
1.4392217e-08
9.9417375e-08
1.3243473e-08
1.1763096e-07
1.2036302e-08
1.3927514e-07
1.0831131e-08
1.6510774e-07
9.6627192e-09
1.9603915e-07
8.5405654e-09
2.3315469e-07
7.4549962e-09
2.7774555e-07
6.3863432e-09
3.3135134e-07
5.3140798e-09
3.9581618e-07
4.2234758e-09
4.7335872e-07
3.1086656e-09
5.6665703e-07
1.9724292e-09
6.7894941e-07
8.2347525e-10
8.1415402e-07
-3.2183711e-10
9.7700649e-07
-1.4156779e-09
1.1732249e-06
-2.4331034e-09
1.4097502e-06
-3.3509561e-09
1.694962e-06
-4.1511659e-09
2.0389893e-06
-4.8212345e-09
2.4540823e-06
-5.3431291e-09
2.9550482e-06
-5.699127e-09
3.5597986e-06
-5.8721983e-09
4.2899954e-06
-5.8433189e-09
5.1718375e-06
-5.5943166e-09
6.2370226e-06
-5.09746e-09
7.523883e-06
-4.3401947e-09
9.078844e-06
-3.2652257e-09
1.095797e-05
-1.887709e-09
1.3229386e-05
1.5974639e-05
-2.6416037e-12
1.4476883e-10
-1.0937767e-11
4.8855299e-10
-2.558317e-11
9.3647565e-10
-4.6992716e-11
1.5127892e-09
-7.5347474e-11
2.2464481e-09
-1.1068584e-10
3.1717577e-09
-1.5315418e-10
4.3290068e-09
-2.0350137e-10
5.7650457e-09
-2.6385837e-10
7.5337516e-09
-3.3880664e-10
9.6963278e-09
-4.3664195e-10
1.2321396e-08
-5.706346e-10
1.5484887e-08
-7.5991029e-10
1.926984e-08
-1.0295001e-09
2.3766358e-08
-1.4090683e-09
2.9072184e-08
-1.9299157e-09
3.5294606e-08
-2.6202408e-09
4.2554585e-08
-3.499048e-09
5.0994063e-08
-4.5696798e-09
6.0787249e-08
-5.8145233e-09
7.2156138e-08
-7.1924821e-09
8.5389757e-08
-8.6408243e-09
1.0086572e-07
-1.0081917e-08
1.1907206e-07
-1.1434192e-08
1.4062742e-07
-1.2625094e-08
1.6629864e-07
-1.360277e-08
1.9701683e-07
-1.4343187e-08
2.3389512e-07
-1.4850645e-08
2.7825302e-07
-1.5151926e-08
3.3165263e-07
-1.5286441e-08
3.959507e-07
-1.5296117e-08
4.733684e-07
-1.521767e-08
5.6657859e-07
-1.5078548e-08
6.7881028e-07
-1.4895733e-08
8.139712e-07
-1.4682304e-08
9.7679305e-07
-1.4457259e-08
1.1729998e-06
-1.4221165e-08
1.4095142e-06
-1.3969006e-08
1.6947099e-06
-1.3691039e-08
2.0387114e-06
-1.3368627e-08
2.4537599e-06
-1.2979962e-08
2.9546596e-06
-1.249645e-08
3.5593151e-06
-1.1884979e-08
4.289384e-06
-1.110588e-08
5.1710584e-06
-1.0120651e-08
6.2360374e-06
-8.8725274e-09
7.5226349e-06
-7.3307918e-09
9.0773023e-06
-5.3977308e-09
1.0956037e-05
-3.0669484e-09
1.3227055e-05
1.5971572e-05
-5.5919032e-12
1.5036085e-10
-2.44192e-11
5.0738029e-10
-6.0420097e-11
9.7247646e-10
-1.1839171e-10
1.5707606e-09
-2.0408448e-10
2.3321412e-09
-3.2431073e-10
3.2919841e-09
-4.8703769e-10
4.4917336e-09
-7.0146195e-10
5.9794702e-09
-9.7806276e-10
7.8103528e-09
-1.3286271e-09
1.0046891e-08
-1.7662382e-09
1.2759006e-08
-2.3052176e-09
1.6023866e-08
-2.9609525e-09
1.9925576e-08
-3.7495015e-09
2.4554907e-08
-4.6867849e-09
3.0009467e-08
-5.7871145e-09
3.6394934e-08
-7.0608064e-09
4.3828276e-08
-8.5107823e-09
5.2444038e-08
-1.0128355e-08
6.2404818e-08
-1.1888904e-08
7.3916687e-08
-1.3748709e-08
8.7249559e-08
-1.5644457e-08
1.0276147e-07
-1.7496947e-08
1.2092454e-07
-1.9219478e-08
1.4234995e-07
-2.073022e-08
1.6780938e-07
-2.1965815e-08
1.9825242e-07
-2.2892609e-08
2.3482191e-07
-2.3511678e-08
2.7887208e-07
-2.3855695e-08
3.3199666e-07
-2.3978523e-08
3.9607352e-07
-2.394076e-08
4.7333064e-07
-2.3796567e-08
5.6643441e-07
-2.358516e-08
6.7859886e-07
-2.3328027e-08
8.1371407e-07
-2.3030499e-08
9.7649552e-07
-2.2684477e-08
1.1726538e-06
-2.2278211e-08
1.4091079e-06
-2.1795476e-08
1.6942271e-06
-2.1219154e-08
2.038135e-06
-2.0532081e-08
2.4530728e-06
-1.9714541e-08
2.9538421e-06
-1.8742823e-08
3.5583434e-06
-1.7589691e-08
4.2882308e-06
-1.621754e-08
5.1696862e-06
-1.4589777e-08
6.2344096e-06
-1.2639578e-08
7.5206848e-06
-1.0326768e-08
9.0749895e-06
-7.5326339e-09
1.0953242e-05
-4.2008099e-09
1.3223724e-05
1.5967371e-05
-7.4240487e-12
1.5778493e-10
-3.2580463e-11
5.3253667e-10
-8.0900155e-11
1.0207965e-09
-1.5903145e-10
1.648892e-09
-2.7505413e-10
2.4481641e-09
-4.3868966e-10
3.4556198e-09
-6.6149698e-10
4.7145411e-09
-9.5703561e-10
6.2750081e-09
-1.3409553e-09
8.1942723e-09
-1.8309791e-09
1.0536916e-08
-2.4467146e-09
1.3374742e-08
-3.2092288e-09
1.678638e-08
-4.1403151e-09
2.0856662e-08
-5.2613809e-09
2.5675973e-08
-6.5918555e-09
3.1339942e-08
-8.1470641e-09
3.7950143e-08
-9.9355004e-09
4.5616713e-08
-1.1955521e-08
5.4464061e-08
-1.4191646e-08
6.4640941e-08
-1.6610849e-08
7.6335891e-08
-1.915972e-08
8.9798428e-08
-2.1763546e-08
1.053653e-07
-2.4328748e-08
1.2348975e-07
-2.6749621e-08
1.4477082e-07
-2.8919517e-08
1.6997927e-07
-3.0745198e-08
2.0007811e-07
-3.2161238e-08
2.3623795e-07
-3.3140559e-08
2.798514e-07
-3.3697347e-08
3.3255344e-07
-3.3880878e-08
3.9625705e-07
-3.3761872e-08
4.7321163e-07
-3.3415836e-08
5.6608838e-07
-3.2908936e-08
6.7809196e-07
-3.2289874e-08
8.1309499e-07
-3.1588479e-08
9.7579412e-07
-3.0820308e-08
1.1718857e-06
-2.9987154e-08
1.4082748e-06
-2.9081422e-08
1.6933214e-06
-2.8088103e-08
2.0371417e-06
-2.6986528e-08
2.4519713e-06
-2.5750408e-08
2.952606e-06
-2.4346357e-08
3.5569393e-06
-2.2736401e-08
4.2866209e-06
-2.0869373e-08
5.1678192e-06
-1.8696838e-08
6.2322371e-06
-1.6136112e-08
7.5181241e-06
-1.3127945e-08
9.0719814e-06
-9.5408819e-09
1.0949655e-05
-5.2709555e-09
1.3219454e-05
1.59621e-05
-6.758672e-12
1.6454355e-10
-2.9761533e-11
5.5553972e-10
-7.4164097e-11
1.065199e-09
-1.4638735e-10
1.7211155e-09
-2.5437485e-10
2.5561513e-09
-4.0787284e-10
3.6091177e-09
-6.187345e-10
4.9254028e-09
-9.0122019e-10
6.5574939e-09
-1.2722678e-09
8.5653184e-09
-1.7516722e-09
1.101632e-08
-2.3621223e-09
1.3985193e-08
-3.128976e-09
1.7553233e-08
-4.0796556e-09
2.1807341e-08
-5.2425314e-09
2.683885e-08
-6.6451507e-09
3.2742562e-08
-8.3116833e-09
3.9616675e-08
-1.0259545e-08
4.7564576e-08
-1.2495306e-08
5.669982e-08
-1.5010087e-08
6.7155724e-08
-1.7775062e-08
7.9100868e-08
-2.0737803e-08
9.276117e-08
-2.3820628e-08
1.0844812e-07
-2.6922165e-08
1.2659128e-07
-2.9923302e-08
1.4777195e-07
-3.2697846e-08
1.7275382e-07
-3.5127309e-08
2.0250758e-07
-3.7117428e-08
2.3822807e-07
-3.8612547e-08
2.8134651e-07
-3.9603654e-08
3.3354455e-07
-4.0126746e-08
3.9678016e-07
-4.0251106e-08
4.73336e-07
-4.0060921e-08
5.6589819e-07
-3.9636333e-08
6.7766737e-07
-3.9039844e-08
8.1249851e-07
-3.8310506e-08
9.7506477e-07
-3.7466644e-08
1.1710418e-06
-3.6510659e-08
1.4073188e-06
-3.5434813e-08
1.6922456e-06
-3.4224417e-08
2.0359313e-06
-3.2859276e-08
2.4506061e-06
-3.1314662e-08
2.9510613e-06
-2.9557575e-08
3.5551822e-06
-2.7549847e-08
4.2846132e-06
-2.5236264e-08
5.1655057e-06
-2.2561948e-08
6.2295628e-06
-1.9435307e-08
7.5149974e-06
-1.577702e-08
9.0683231e-06
-1.144772e-08
1.0945326e-05
-6.299598e-09
1.3214306e-05
1.5955801e-05
-6.4755593e-12
1.7101915e-10
-2.8550107e-11
5.7761451e-10
-7.1219338e-11
1.1078677e-09
-1.4072482e-10
1.7906208e-09
-2.4482531e-10
2.6602514e-09
-3.9309694e-10
3.7573896e-09
-5.9727292e-10
5.1295788e-09
-8.7159856e-10
6.8318192e-09
-1.2331851e-09
8.9269051e-09
-1.702323e-09
1.1485457e-08
-2.3026767e-09
1.4585548e-08
-3.0612896e-09
1.8311846e-08
-4.0082308e-09
2.2754283e-08
-5.1757635e-09
2.8006381e-08
-6.5967954e-09
3.4163595e-08
-8.3024763e-09
4.1322355e-08
-1.0318748e-08
4.958085e-08
-1.2661917e-08
5.9042987e-08
-1.5333365e-08
6.9827173e-08
-1.8314017e-08
8.2081516e-08
-2.155932e-08
9.6006469e-08
-2.4996023e-08
1.1188482e-07
-2.8522086e-08
1.3011735e-07
-3.2010991e-08
1.5126085e-07
-3.5321306e-08
1.7606413e-07
-3.8311246e-08
2.0549751e-07
-4.0856528e-08
2.4077335e-07
-4.2868327e-08
2.8335832e-07
-4.430671e-08
3.3498293e-07
-4.5185016e-08
3.9765846e-07
-4.5562874e-08
4.7371384e-07
-4.5528969e-08
5.6586429e-07
-4.5179101e-08
6.773175e-07
-4.4596374e-08
8.119158e-07
-4.3839205e-08
9.7430763e-07
-4.2939121e-08
1.1701417e-06
-4.1904744e-08
1.4062844e-06
-4.0728604e-08
1.6910695e-06
-3.9392538e-08
2.0345953e-06
-3.7870485e-08
2.4490841e-06
-3.6130834e-08
2.9493217e-06
-3.413362e-08
3.553185e-06
-3.1834112e-08
4.2823137e-06
-2.9170388e-08
5.1628419e-06
-2.607891e-08
6.2264713e-06
-2.2462626e-08
7.5113811e-06
-1.8223278e-08
9.0640837e-06
-1.3216289e-08
1.0940319e-05
-7.2571397e-09
1.3208346e-05
1.5948544e-05
-6.0121347e-12
1.770313e-10
-2.6537157e-11
5.9813947e-10
-6.6270281e-11
1.1476008e-09
-1.3110773e-10
1.8554579e-09
-2.2841317e-10
2.7575568e-09
-3.6733038e-10
3.8963068e-09
-5.5913652e-10
5.321385e-09
-8.1763356e-10
7.0903155e-09
-1.1595546e-09
9.2688265e-09
-1.604966e-09
1.1930868e-08
-2.1775876e-09
1.515817e-08
-2.9049724e-09
1.903923e-08
-3.8183946e-09
2.3667704e-08
-4.9522941e-09
2.9140282e-08
-6.3430747e-09
3.5554375e-08
-8.0269906e-09
4.300627e-08
-1.0036967e-08
5.1590824e-08
-1.2398185e-08
6.1404207e-08
-1.51226e-08
7.2551583e-08
-1.8202676e-08
8.5161591e-08
-2.1605293e-08
9.9409089e-08
-2.5266907e-08
1.1554643e-07
-2.9091508e-08
1.3394195e-07
-3.2952894e-08
1.5512224e-07
-3.6702419e-08
1.7981366e-07
-4.0182433e-08
2.0897753e-07
-4.3244357e-08
2.4383528e-07
-4.5768757e-08
2.8588271e-07
-4.7682945e-08
3.3689712e-07
-4.8971291e-08
3.9894681e-07
-4.967402e-08
4.7441656e-07
-4.9873546e-08
5.6606381e-07
-4.9672039e-08
6.77116e-07
-4.916753e-08
8.1141128e-07
-4.8435874e-08
9.7357597e-07
-4.7523204e-08
1.169229e-06
-4.6447619e-08
1.4052088e-06
-4.5205795e-08
1.6898277e-06
-4.3779892e-08
2.0331694e-06
-4.2141443e-08
2.4474456e-06
-4.0254735e-08
2.947435e-06
-3.8074103e-08
3.5510044e-06
-3.5547565e-08
4.2797871e-06
-3.2605664e-08
5.1599001e-06
-2.9173052e-08
6.2230387e-06
-2.51459e-08
7.507354e-06
-2.040582e-08
9.0593437e-06
-1.4801513e-08
1.0934715e-05
-8.117006e-09
1.3201662e-05
1.5940427e-05
-5.6560695e-12
1.8268733e-10
-2.4981023e-11
6.1746475e-10
-6.242147e-11
1.185041e-09
-1.2357123e-10
1.9166076e-09
-2.1543642e-10
2.8494222e-09
-3.4674407e-10
4.0276143e-09
-5.282972e-10
5.5029386e-09
-7.7338117e-10
7.3353992e-09
-1.0981955e-09
9.5936402e-09
-1.5223006e-09
1.2354973e-08
-2.0690254e-09
1.5704895e-08
-2.7657689e-09
1.9735973e-08
-3.644069e-09
2.4546004e-08
-4.7393015e-09
3.0235512e-08
-6.0897693e-09
3.6904843e-08
-7.7349815e-09
4.4651484e-08
-9.7128124e-09
5.3568653e-08
-1.2055374e-08
6.3746771e-08
-1.4783612e-08
7.5279819e-08
-1.7900795e-08
8.8278774e-08
-2.1385663e-08
1.0289396e-07
-2.5186318e-08
1.1934709e-07
-2.9216374e-08
1.3797201e-07
-3.3355073e-08
1.5926094e-07
-3.7452785e-08
1.8391138e-07
-4.134267e-08
2.1286741e-07
-4.4858005e-08
2.4735061e-07
-4.7853065e-08
2.8887778e-07
-5.0223942e-08
3.39268e-07
-5.1923881e-08
4.0064675e-07
-5.2968301e-08
4.75461e-07
-5.3426399e-08
5.6652191e-07
-5.3400537e-08
6.7709013e-07
-5.2999919e-08
8.1101068e-07
-5.2317134e-08
9.7289319e-07
-5.1414289e-08
1.1683262e-06
-5.0320768e-08
1.4041153e-06
-4.90387e-08
1.6885456e-06
-4.7550952e-08
2.0316816e-06
-4.5826785e-08
2.4457215e-06
-4.3826377e-08
2.9454346e-06
-4.1499105e-08
3.5486771e-06
-3.878625e-08
4.2770743e-06
-3.5612439e-08
5.1567263e-06
-3.1890863e-08
6.2193171e-06
-2.7511495e-08
7.5029746e-06
-2.2337434e-08
9.0541696e-06
-1.6208814e-08
1.0928586e-05
-8.8833726e-09
1.3194337e-05
1.5931543e-05
-5.3234727e-12
1.880108e-10
-2.3524885e-11
6.3566636e-10
-5.881205e-11
1.2203283e-09
-1.164909e-10
1.9742863e-09
-2.0321992e-10
2.9361512e-09
-3.2731491e-10
4.1517094e-09
-4.9910377e-10
5.674727e-09
-7.3133134e-10
7.5676259e-09
-1.0396078e-09
9.901917e-09
-1.4428877e-09
1.2758253e-08
-1.9639283e-09
1.6225935e-08
-2.6296745e-09
2.0401719e-08
-3.4714736e-09
2.5387804e-08
-4.5249652e-09
3.1289003e-08
-5.8294442e-09
3.8209322e-08
-7.4264556e-09
4.6248495e-08
-9.3573415e-09
5.5499538e-08
-1.1659491e-08
6.604892e-08
-1.4361165e-08
7.7981494e-08
-1.7475036e-08
9.1392648e-08
-2.0990961e-08
1.0640988e-07
-2.4868935e-08
1.2322507e-07
-2.9033841e-08
1.4213691e-07
-3.337351e-08
1.6360061e-07
-3.7742002e-08
1.8827987e-07
-4.196909e-08
2.170945e-07
-4.5876057e-08
2.5125757e-07
-4.9296391e-08
2.9229812e-07
-5.2098327e-08
3.4206992e-07
-5.4204165e-08
4.027526e-07
-5.560117e-08
4.76858e-07
-5.633903e-08
5.6725976e-07
-5.651333e-08
6.7726442e-07
-5.6239113e-08
8.1073644e-07
-5.5623208e-08
9.7227726e-07
-5.4744324e-08
1.1674473e-06
-5.3645446e-08
1.4030165e-06
-5.2336858e-08
1.687237e-06
-5.0804083e-08
2.0301488e-06
-4.9015299e-08
2.4439327e-06
-4.6926852e-08
2.9433461e-06
-4.4483193e-08
3.5462335e-06
-4.1618608e-08
4.2742097e-06
-3.8251883e-08
5.1533596e-06
-3.4285184e-08
6.2153505e-06
-2.9602258e-08
7.4982917e-06
-2.4050205e-08
9.0486175e-06
-1.7459855e-08
1.0921996e-05
-9.5673891e-09
1.3186444e-05
1.5921976e-05
-5.039174e-12
1.930498e-10
-2.2276666e-11
6.5290403e-10
-5.571147e-11
1.2537632e-09
-1.1039229e-10
2.0289669e-09
-1.9266554e-10
3.0184243e-09
-3.1047209e-10
4.2695155e-09
-4.7369423e-10
5.8379496e-09
-6.9456434e-10
7.7884952e-09
-9.8811174e-10
1.0195464e-08
-1.3726588e-09
1.31428e-08
-1.8703162e-09
1.6723592e-08
-2.5074289e-09
2.1038833e-08
-3.3148963e-09
2.619527e-08
-4.3282034e-09
3.230231e-08
-5.58702e-09
3.9468138e-08
-7.1340814e-09
4.7795554e-08
-9.0130787e-09
5.7378538e-08
-1.1265311e-08
6.8301153e-08
-1.3924838e-08
8.0641019e-08
-1.7012206e-08
9.4480018e-08
-2.0527117e-08
1.0992479e-07
-2.4440843e-08
1.271388e-07
-2.8689821e-08
1.4638589e-07
-3.3172084e-08
1.6808287e-07
-3.7748401e-08
1.9285619e-07
-4.2249501e-08
2.2159561e-07
-4.6489956e-08
2.5549802e-07
-5.0287877e-08
2.9609604e-07
-5.3488034e-08
3.4527007e-07
-5.5983987e-08
4.0524854e-07
-5.7733775e-08
4.7860777e-07
-5.8763508e-08
5.682895e-07
-5.9156039e-08
6.7765695e-07
-5.9026397e-08
8.1060681e-07
-5.8491999e-08
9.7174285e-07
-5.7647162e-08
1.1666025e-06
-5.6549721e-08
1.401919e-06
-5.52202e-08
1.6859075e-06
-5.3648994e-08
2.0285776e-06
-5.1804732e-08
2.4420884e-06
-4.9641153e-08
2.9411826e-06
-4.7098762e-08
3.5436911e-06
-4.4105278e-08
4.2712162e-06
-4.0573952e-08
5.1498283e-06
-3.6396738e-08
6.2111732e-06
-3.1450462e-08
7.4933454e-06
-2.5568257e-08
9.0427353e-06
-1.8570678e-08
1.0914998e-05
-1.0176186e-08
1.317805e-05
1.59118e-05
-4.7858199e-12
1.9783574e-10
-2.1164894e-11
6.6928285e-10
-5.294644e-11
1.285545e-09
-1.0494736e-10
2.0809681e-09
-1.8323028e-10
3.0967072e-09
-2.9539138e-10
4.3816766e-09
-4.509032e-10
5.9934615e-09
-6.6151375e-10
7.9991053e-09
-9.4169824e-10
1.0475649e-08
-1.3091612e-09
1.3510262e-08
-1.7853509e-09
1.7199781e-08
-2.3959528e-09
2.1649435e-08
-3.171285e-09
2.6970602e-08
-4.1464545e-09
3.3277479e-08
-5.3611252e-09
4.068281e-08
-6.8586558e-09
4.9293086e-08
-8.6843122e-09
5.9204194e-08
-1.0882259e-08
7.0499102e-08
-1.3491115e-08
8.3249876e-08
-1.6537942e-08
9.7526846e-08
-2.0030971e-08
1.1341782e-07
-2.3951738e-08
1.3105957e-07
-2.8247857e-08
1.50682e-07
-3.2828113e-08
1.7266313e-07
-3.7561769e-08
1.9758984e-07
-4.2283581e-08
2.2631742e-07
-4.6805623e-08
2.6002007e-07
-5.0935489e-08
3.002259e-07
-5.4499077e-08
3.4883366e-07
-5.73644e-08
4.0811386e-07
-5.9461037e-08
4.8070441e-07
-6.0789333e-08
5.6961778e-07
-6.1414626e-08
6.7828225e-07
-6.144659e-08
8.1063875e-07
-6.1008771e-08
9.7130501e-07
-6.0209091e-08
1.1658028e-06
-5.9120466e-08
1.4008304e-06
-5.7775229e-08
1.6845622e-06
-5.6170365e-08
2.0269728e-06
-5.4276523e-08
2.4401946e-06
-5.2045841e-08
2.9389519e-06
-4.9415676e-08
3.5410609e-06
-4.6308152e-08
4.2681087e-06
-4.2631591e-08
5.1461517e-06
-3.8269064e-08
6.2068107e-06
-3.3090395e-08
7.4881667e-06
-2.6916938e-08
9.0365619e-06
-1.955817e-08
1.090764e-05
-1.0717949e-08
1.3169209e-05
1.5901082e-05
-4.5620156e-12
2.0239784e-10
-2.0180058e-11
6.8490089e-10
-5.0495538e-11
1.3158605e-09
-1.0011583e-10
2.1305885e-09
-1.7484626e-10
3.1714379e-09
-2.8197068e-10
4.4888011e-09
-4.3058512e-10
6.1420756e-09
-6.3198862e-10
8.2005092e-09
-9.0013799e-10
1.0743797e-08
-1.2521409e-09
1.3862267e-08
-1.7088011e-09
1.7656441e-08
-2.2951279e-09
2.2235762e-08
-3.0407927e-09
2.7716265e-08
-3.9803832e-09
3.421707e-08
-5.1533223e-09
4.1855749e-08
-6.603204e-09
5.0742968e-08
-8.3762905e-09
6.0977281e-08
-1.0518853e-08
7.2641663e-08
-1.3073064e-08
8.5804087e-08
-1.6071335e-08
1.0052512e-07
-1.9529202e-08
1.168757e-07
-2.3437356e-08
1.3496772e-07
-2.7753856e-08
1.5499851e-07
-3.2398208e-08
1.7730748e-07
-3.7249012e-08
2.0244065e-07
-4.2147122e-08
2.3121552e-07
-4.6905264e-08
2.6477822e-07
-5.1324558e-08
3.0464521e-07
-5.5216405e-08
3.527255e-07
-5.8426899e-08
4.1132435e-07
-6.0859044e-08
4.8313656e-07
-6.2486682e-08
5.7124543e-07
-6.3354547e-08
6.791501e-07
-6.3562049e-08
8.1084626e-07
-6.3234486e-08
9.7097746e-07
-6.2490675e-08
1.165059e-06
-6.141801e-08
1.3997577e-06
-6.0061731e-08
1.6832059e-06
-5.8427129e-08
2.0253381e-06
-5.6488172e-08
2.4382557e-06
-5.4196458e-08
2.9366602e-06
-5.148691e-08
3.5383513e-06
-4.827692e-08
4.2648987e-06
-4.4470081e-08
5.1423448e-06
-3.9942057e-08
6.2022827e-06
-3.4555688e-08
7.4827803e-06
-2.8122517e-08
9.0301287e-06
-2.0440857e-08
1.0899958e-05
-1.120259e-08
1.3159971e-05
1.5889879e-05
-4.3620454e-12
2.0675985e-10
-1.9299169e-11
6.9983825e-10
-4.8301245e-11
1.3448628e-09
-9.5786935e-11
2.1780742e-09
-1.6732841e-10
3.2429794e-09
-2.6992381e-10
4.5913966e-09
-4.123236e-10
6.2844756e-09
-6.0541507e-10
8.3936008e-09
-8.6266799e-10
1.100105e-08
-1.2006334e-09
1.4200232e-08
-1.6394858e-09
1.8095293e-08
-2.2035682e-09
2.2799845e-08
-2.921885e-09
2.8434581e-08
-3.8284285e-09
3.5123614e-08
-4.9622231e-09
4.2989546e-08
-6.3668437e-09
5.2147588e-08
-8.0891404e-09
6.2699579e-08
-1.0176895e-08
7.4729419e-08
-1.2675065e-08
8.8302259e-08
-1.5620451e-08
1.034705e-07
-1.9034816e-08
1.2029006e-07
-2.291692e-08
1.3884983e-07
-2.7234423e-08
1.5931601e-07
-3.1917108e-08
1.8199017e-07
-3.6853288e-08
2.0737682e-07
-4.1891117e-08
2.3625335e-07
-4.6846338e-08
2.6973343e-07
-5.1516829e-08
3.093157e-07
-5.5703302e-08
3.5691196e-07
-5.9233622e-08
4.1485465e-07
-6.1986723e-08
4.8588967e-07
-6.3910495e-08
5.7316919e-07
-6.5026996e-08
6.8026661e-07
-6.5421665e-08
8.1124093e-07
-6.5217198e-08
9.7077298e-07
-6.4539986e-08
1.1643817e-06
-6.3490743e-08
1.3987085e-06
-6.2128111e-08
1.6818433e-06
-6.0466929e-08
2.0236769e-06
-5.8486072e-08
2.4362748e-06
-5.6137677e-08
2.9343118e-06
-5.3354984e-08
3.5355687e-06
-5.0051384e-08
4.2615951e-06
-4.6126142e-08
5.1384195e-06
-4.1448583e-08
6.1976052e-06
-3.5874646e-08
7.4772063e-06
-2.9207763e-08
9.0234618e-06
-2.1235226e-08
1.0891985e-05
-1.1638912e-08
1.3150375e-05
1.587824e-05
-4.1824287e-12
2.1094216e-10
-1.850803e-11
7.1416374e-10
-4.6328698e-11
1.3726836e-09
-9.1892055e-11
2.2236376e-09
-1.6055821e-10
3.3116456e-09
-2.5906494e-10
4.6899037e-09
-3.9584616e-10
6.4212571e-09
-5.8140877e-10
8.5791632e-09
-8.2876954e-10
1.1248411e-08
-1.1539567e-09
1.4525419e-08
-1.57655e-09
1.8517887e-08
-2.1202429e-09
2.3343538e-08
-2.8133678e-09
2.9127706e-08
-3.6892884e-09
3.5999536e-08
-4.7865404e-09
4.4086796e-08
-6.148486e-09
5.3509533e-08
-7.8222739e-09
6.4373368e-08
-9.8567563e-09
7.6763902e-08
-1.2299062e-08
9.0744561e-08
-1.5189576e-08
1.0636102e-07
-1.8555372e-08
1.2365586e-07
-2.2402316e-08
1.4269677e-07
-2.6706766e-08
1.6362046e-07
-3.1408231e-08
1.8669163e-07
-3.6404632e-08
2.1237322e-07
-4.1552164e-08
2.4140087e-07
-4.6671171e-08
2.7485244e-07
-5.1558889e-08
3.1420342e-07
-5.6008547e-08
3.6136163e-07
-5.9833247e-08
4.1867934e-07
-6.2890733e-08
4.8894716e-07
-6.510417e-08
5.7538261e-07
-6.6472163e-08
6.816346e-07
-6.7063228e-08
8.11832e-07
-6.6993535e-08
9.707033e-07
-6.6393697e-08
1.1637819e-06
-6.5375932e-08
1.3976907e-06
-6.4012125e-08
1.6804795e-06
-6.2327779e-08
2.0219926e-06
-6.0307927e-08
2.4342549e-06
-5.7906352e-08
2.9319102e-06
-5.5055296e-08
3.5327176e-06
-5.1665022e-08
4.2582049e-06
-4.7630618e-08
5.1343851e-06
-4.2816273e-08
6.1927908e-06
-3.7071073e-08
7.4714611e-06
-3.0191865e-08
9.0165826e-06
-2.1955164e-08
1.0883749e-05
-1.2034238e-08
1.3140454e-05
1.5866206e-05
-4.019868e-12
2.1496202e-10
-1.7791835e-11
7.2793572e-10
-4.454306e-11
1.399435e-09
-8.8365416e-11
2.2674594e-09
-1.5442421e-10
3.3777047e-09
-2.4922035e-10
4.7846997e-09
-3.8089585e-10
6.5529324e-09
-5.5960478e-10
8.7578726e-09
-7.9794756e-10
1.1486753e-08
-1.1114596e-09
1.4838931e-08
-1.5191587e-09
1.8925585e-08
-2.0441159e-09
2.3868495e-08
-2.714003e-09
2.9797593e-08
-3.5615401e-09
3.6847073e-08
-4.6247048e-09
4.5149964e-08
-5.9465431e-09
5.4831371e-08
-7.5742808e-09
6.6001105e-08
-9.5574979e-09
7.8747121e-08
-1.1945e-08
9.3132067e-08
-1.4780145e-08
1.0919617e-07
-1.8094508e-08
1.2697022e-07
-2.1900183e-08
1.4650245e-07
-2.6181407e-08
1.6790168e-07
-3.0886706e-08
1.9139693e-07
-3.5923377e-08
2.1740988e-07
-4.1155967e-08
2.4663346e-07
-4.641054e-08
2.8010702e-07
-5.1485585e-08
3.1927846e-07
-5.6169608e-08
3.6604566e-07
-6.0263992e-08
4.2277372e-07
-6.3608153e-08
4.9229133e-07
-6.6102333e-08
5.778768e-07
-6.7721732e-08
6.8325399e-07
-6.8515995e-08
8.1262625e-07
-6.8591406e-08
9.7077872e-07
-6.8079439e-08
1.16327e-06
-6.7101511e-08
1.3967128e-06
-6.5742273e-08
1.6791203e-06
-6.4038544e-08
2.0202889e-06
-6.1982553e-08
2.4321989e-06
-5.9530972e-08
2.9294586e-06
-5.6615621e-08
3.5298022e-06
-5.3144345e-08
4.2547336e-06
-4.9008422e-08
5.1302492e-06
-4.4067724e-08
6.1878501e-06
-3.816483e-08
7.4655583e-06
-3.1090898e-08
9.0095087e-06
-2.2612401e-08
1.087527e-05
-1.2394872e-08
1.3130236e-05
1.5853811e-05
-3.8721598e-12
2.1883426e-10
-1.7140789e-11
7.4120441e-10
-4.2919003e-11
1.4252132e-09
-8.5155474e-11
2.3096958e-09
-1.4883889e-10
3.4413886e-09
-2.4025157e-10
4.8761115e-09
-3.6726588e-10
6.6799467e-09
-5.3971173e-10
8.9303187e-09
-7.6979911e-10
1.1716841e-08
-1.072605e-09
1.5141736e-08
-1.4666167e-09
1.9319597e-08
-1.974311e-09
2.437619e-08
-2.6227193e-09
3.0446002e-08
-3.4439188e-09
3.7668271e-08
-4.4753049e-09
4.6181348e-08
-5.7595014e-09
5.6115569e-08
-7.3436661e-09
6.7585269e-08
-9.2778475e-09
8.0681303e-08
-1.1612152e-08
9.5466374e-08
-1.4392365e-08
1.1197638e-07
-1.7653908e-08
1.3023176e-07
-2.1414342e-08
1.5026288e-07
-2.5664967e-08
1.7215231e-07
-3.0362711e-08
1.9609467e-07
-3.54238e-08
2.2247097e-07
-4.0721207e-08
2.5193087e-07
-4.6087416e-08
2.8547323e-07
-5.1323642e-08
3.245147e-07
-5.6215843e-08
3.7093786e-07
-6.0556389e-08
4.2711426e-07
-6.4169131e-08
4.9590405e-07
-6.6933442e-08
5.8064112e-07
-6.880175e-08
6.851223e-07
-6.9803666e-08
8.1362816e-07
-7.0032956e-08
9.7100801e-07
-6.961867e-08
1.1628557e-06
-6.8689016e-08
1.3957831e-06
-6.7340416e-08
1.6777717e-06
-6.5621376e-08
2.0185698e-06
-6.3532267e-08
2.4301098e-06
-6.1033601e-08
2.92696e-06
-5.8057488e-08
3.5268261e-06
-5.4510152e-08
4.2511862e-06
-5.0279249e-08
5.1260183e-06
-4.5221e-08
6.1827919e-06
-3.9171883e-08
7.4595092e-06
-3.191804e-08
9.0022548e-06
-2.3216584e-08
1.0866569e-05
-1.2726178e-08
1.3119746e-05
1.5841085e-05
-3.7374164e-12
2.2257169e-10
-1.6545961e-11
7.5401326e-10
-4.1434807e-11
1.4501021e-09
-8.2220901e-11
2.3504822e-09
-1.4373082e-10
3.5028986e-09
-2.3204283e-10
4.9644238e-09
-3.5478453e-10
6.8026879e-09
-5.2148189e-10
9.097017e-09
-7.4398451e-10
1.1939343e-08
-1.0369384e-09
1.543469e-08
-1.4183324e-09
1.9700991e-08
-1.9100776e-09
2.4867935e-08
-2.5385892e-09
3.1074514e-08
-3.3353035e-09
3.8464986e-08
-4.3370205e-09
4.7183064e-08
-5.5858999e-09
5.7364448e-08
-7.1288973e-09
6.9128265e-08
-9.0163361e-09
8.2568745e-08
-1.1299316e-08
9.7749356e-08
-1.4025617e-08
1.1470268e-07
-1.7233951e-08
1.334401e-07
-2.094668e-08
1.5397561e-07
-2.5161469e-08
1.763671e-07
-2.9842942e-08
2.0077614e-07
-3.4915828e-08
2.2754386e-07
-4.0261423e-08
2.5727647e-07
-4.5719027e-08
2.9093083e-07
-5.1093664e-08
3.2988933e-07
-5.6170464e-08
3.7601465e-07
-6.0735142e-08
4.3167893e-07
-6.4598444e-08
4.9976736e-07
-6.7621174e-08
5.8366385e-07
-6.9733998e-08
6.8723513e-07
-7.0945991e-08
8.1484016e-07
-7.1336352e-08
9.7139835e-07
-7.102884e-08
1.1625482e-06
-7.0155863e-08
1.3949101e-06
-6.8824275e-08
1.6764401e-06
-6.7094195e-08
2.0168397e-06
-6.4975032e-08
2.4279907e-06
-6.2432078e-08
2.924417e-06
-5.93985e-08
3.5237926e-06
-5.5779363e-08
4.2475671e-06
-5.1459125e-08
5.1216981e-06
-4.6290783e-08
6.1776235e-06
-4.0105203e-08
7.4533236e-06
-3.2684042e-08
8.9948337e-06
-2.377574e-08
1.085766e-05
-1.3032578e-08
1.3109003e-05
1.5828052e-05
-3.6137689e-12
2.2618546e-10
-1.6000659e-11
7.664001e-10
-4.0072587e-11
1.4741743e-09
-7.9527368e-11
2.3899365e-09
-1.390394e-10
3.5624106e-09
-2.2450098e-10
5.0498856e-09
-3.4330997e-10
6.9214963e-09
-5.047132e-10
9.2584203e-09
-7.2022122e-10
1.215485e-08
-1.0040771e-09
1.5718547e-08
-1.3738007e-09
2.0070716e-08
-1.8507669e-09
2.5344901e-08
-2.4607977e-09
3.1684545e-08
-3.2347076e-09
3.9238897e-08
-4.2086925e-09
4.815705e-08
-5.4244093e-09
5.8580164e-08
-6.9285326e-09
7.0632388e-08
-8.7715099e-09
8.4411719e-08
-1.1005173e-08
9.9983021e-08
-1.3678944e-08
1.1737645e-07
-1.6834362e-08
1.3659551e-07
-2.0497998e-08
1.5763925e-07
-2.467325e-08
1.8054235e-07
-2.9331817e-08
2.0543471e-07
-3.4406424e-08
2.3261847e-07
-3.9786484e-08
2.6265652e-07
-4.531832e-08
2.9646267e-07
-5.0811508e-08
3.3538253e-07
-5.6051797e-08
3.8125494e-07
-6.0820162e-08
4.3644728e-07
-6.4916576e-08
5.0386379e-07
-6.8185324e-08
5.8693261e-07
-7.0536792e-08
6.895866e-07
-7.1959517e-08
8.1626288e-07
-7.2516579e-08
9.7195541e-07
-7.2323988e-08
1.1623556e-06
-7.1515833e-08
1.394102e-06
-7.0207784e-08
1.6751321e-06
-6.8471294e-08
2.0151033e-06
-6.6325337e-08
2.4258447e-06
-6.3740866e-08
2.9218326e-06
-6.0652818e-08
3.5207045e-06
-5.6965635e-08
4.2438799e-06
-5.256099e-08
5.1172934e-06
-4.7289093e-08
6.1723516e-06
-4.0975489e-08
7.44701e-06
-3.3397779e-08
8.987256e-06
-2.4296422e-08
1.0848559e-05
-1.3317621e-08
1.3098024e-05
1.5814735e-05
-3.4998955e-12
2.2968531e-10
-1.5497821e-11
7.7839807e-10
-3.8817055e-11
1.4974937e-09
-7.7042829e-11
2.4281625e-09
-1.3471131e-10
3.6200792e-09
-2.1754205e-10
5.1327157e-09
-3.3271722e-10
7.0366716e-09
-4.8922531e-10
9.4149281e-09
-6.9826002e-10
1.2363884e-08
-9.7368759e-10
1.5993975e-08
-1.3325867e-09
2.0429615e-08
-1.7958212e-09
2.5808135e-08
-2.3886459e-09
3.2277371e-08
-3.141275e-09
3.9991523e-08
-4.0892955e-09
4.9105072e-08
-5.2738433e-09
5.9764713e-08
-6.7412514e-09
7.2099794e-08
-8.5419597e-09
8.6212427e-08
-1.0728352e-08
1.0216941e-07
-1.3351191e-08
1.1999929e-07
-1.6454424e-08
1.3969875e-07
-2.0068358e-08
1.6125318e-07
-2.4201521e-08
1.8467551e-07
-2.8832125e-08
2.1006531e-07
-3.3900409e-08
2.3768677e-07
-3.9303587e-08
2.680597e-07
-4.489509e-08
3.0205418e-07
-5.0489612e-08
3.4097705e-07
-5.5874528e-08
3.8663986e-07
-6.0827753e-08
4.414005e-07
-6.5140525e-08
5.0817656e-07
-6.8642678e-08
5.9043475e-07
-7.1225785e-08
6.9216969e-07
-7.2858293e-08
8.178954e-07
-7.3586228e-08
9.7268337e-07
-7.3515759e-08
1.1622851e-06
-7.2780204e-08
1.3933664e-06
-7.1502295e-08
1.6738541e-06
-6.9764229e-08
2.0133652e-06
-6.759483e-08
2.4236753e-06
-6.4971591e-08
2.9192093e-06
-6.183189e-08
3.5175648e-06
-5.8080081e-08
4.2401281e-06
-5.3595464e-08
5.1128088e-06
-4.8225636e-08
6.1669818e-06
-4.1791384e-08
7.4405758e-06
-3.4066412e-08
8.979531e-06
-2.4783869e-08
1.0839277e-05
-1.3584324e-08
1.3086824e-05
1.580115e-05
-3.3945404e-12
2.3307984e-10
-1.5033055e-11
7.9003638e-10
-3.7656183e-11
1.5201167e-09
-7.4745424e-11
2.4652516e-09
-1.3070697e-10
3.6760409e-09
-2.110997e-10
5.213108e-09
-3.2290729e-10
7.1484792e-09
-4.7487423e-10
9.566895e-09
-6.7789882e-10
1.2566908e-08
-9.454955e-10
1.6261572e-08
-1.2943224e-09
2.0778441e-08
-1.7447618e-09
2.6258575e-08
-2.3215265e-09
3.2854136e-08
-3.0542443e-09
4.072424e-08
-3.9779146e-09
5.0028742e-08
-5.1331327e-09
6.0919929e-08
-6.5658376e-09
7.3532501e-08
-8.3263805e-09
8.7972969e-08
-1.0467528e-08
1.0431056e-07
-1.3041145e-08
1.2257291e-07
-1.6093247e-08
1.4275085e-07
-1.965742e-08
1.6481735e-07
-2.3746825e-08
1.8876493e-07
-2.8345666e-08
2.1466415e-07
-3.3401197e-08
2.4274229e-07
-3.8818114e-08