/*--------------------------------*- C++ -*----------------------------------*\
| =========                 |                                                 |
| \\      /  F ield         | OpenFOAM: The Open Source CFD Toolbox           |
|  \\    /   O peration     | Version:  4.0                                   |
|   \\  /    A nd           | Web:      www.OpenFOAM.org                      |
|    \\/     M anipulation  |                                                 |
\*---------------------------------------------------------------------------*/
FoamFile
{
    version     2.0;
    format      ascii;
    class       volScalarField;
    location    "2000";
    object      Qin;
}
// * * * * * * * * * * * * * * * * * * * * * * * * * * * * * * * * * * * * * //

dimensions      [1 0 -3 0 0 0 0];

internalField   uniform 0;

boundaryField
{
    LeftWedge
    {
        type            wedge;
    }
    RightWedge
    {
        type            wedge;
    }
    Inlet
    {
        type            calculated;
        value           nonuniform List<scalar> 
50
(
457.28669
457.3782
457.48242
457.60069
457.73496
457.88753
458.06091
458.25758
458.4798
458.72924
459.0064
459.31005
459.63702
459.98247
460.34076
460.70673
461.07682
461.44973
461.82647
462.20978
462.60338
463.01114
463.4365
463.88215
464.34997
464.84103
465.35574
465.89397
466.45516
467.03837
467.64237
468.26569
468.90663
469.56331
470.23374
470.91583
471.60742
472.30638
473.01055
473.71786
474.42627
475.13387
475.83883
476.53944
477.23416
477.92156
478.60045
479.26981
479.92884
480.57699
)
;
    }
    Outlet
    {
        type            calculated;
        value           nonuniform List<scalar> 
50
(
497.23804
497.23155
497.22354
497.2143
497.20383
497.19177
497.17734
497.15947
497.13701
497.10907
497.07516
497.03519
496.98937
496.93804
496.88154
496.8201
496.75385
496.68285
496.60712
496.52668
496.44155
496.35182
496.25763
496.15917
496.05673
495.95067
495.84144
495.72956
495.61563
495.50032
495.38435
495.26849
495.15351
495.04018
494.92925
494.82141
494.71728
494.61738
494.52211
494.43176
494.34647
494.26625
494.19099
494.12042
494.05416
493.99171
493.93242
493.87556
493.82024
493.76549
)
;
    }
    Outterwall
    {
        type            calculated;
        value           nonuniform List<scalar> 
100
(
479.32896
481.43779
484.60777
489.18206
494.93284
501.2678
507.55326
513.34355
518.44396
522.85457
526.67513
530.0266
533.00825
535.68545
538.09501
540.25643
542.18238
543.8854
545.38107
546.68842
547.82892
548.82489
549.69809
550.46858
551.1541
551.76979
552.32825
552.83969
553.31231
553.7526
554.16564
554.55544
554.92516
555.27729
555.61384
555.93641
556.24635
556.54475
556.83255
557.11056
557.37948
557.63992
557.89241
558.13746
558.3755
558.60692
558.83208
559.05133
559.26495
559.47323
559.67644
559.87481
560.06855
560.25789
560.44301
560.62409
560.80131
560.9748
561.14473
561.31122
561.47439
561.63435
561.79118
561.94494
562.09565
562.24327
562.38769
562.52866
562.66576
562.79828
562.92511
563.04456
563.15412
563.25011
563.3273
563.37841
563.39352
563.3595
563.25949
563.07257
562.77383
562.33507
561.72628
560.91784
559.88327
558.60134
557.05589
555.23045
553.09479
550.58201
547.56004
543.8116
539.05049
533.00955
525.61972
517.2376
508.77775
501.54138
496.65087
494.37434
)
;
    }
    fluid_to_cencil
    {
        type            calculated;
        value           nonuniform List<scalar> 
100
(
421.91664
421.91621
421.91574
421.91523
421.91467
421.91406
421.91341
421.91272
421.912
421.91126
421.9105
421.90973
421.90894
421.90814
421.90734
421.90652
421.9057
421.90488
421.90405
421.90321
421.90238
421.90154
421.90071
421.89987
421.89903
421.89819
421.89735
421.89652
421.89568
421.89484
421.894
421.89316
421.89233
421.89149
421.89065
421.88982
421.88898
421.88814
421.88731
421.88647
421.88563
421.8848
421.88396
421.88313
421.8823
421.88146
421.88063
421.8798
421.87896
421.87813
421.8773
421.87647
421.87564
421.87481
421.87398
421.87316
421.87233
421.8715
421.87068
421.86986
421.86903
421.86821
421.86739
421.86657
421.86576
421.86494
421.86412
421.86331
421.8625
421.86169
421.86088
421.86008
421.85927
421.85847
421.85767
421.85687
421.85608
421.85529
421.85451
421.85374
421.85298
421.85224
421.85154
421.85089
421.85033
421.84992
421.84977
421.85005
421.8511
421.85355
421.85863
421.86883
421.88938
421.93187
422.02332
422.23094
422.73623
424.08234
428.10737
441.96945
)
;
    }
}


// ************************************************************************* //
