/*--------------------------------*- C++ -*----------------------------------*\
| =========                 |                                                 |
| \\      /  F ield         | OpenFOAM: The Open Source CFD Toolbox           |
|  \\    /   O peration     | Version:  4.0                                   |
|   \\  /    A nd           | Web:      www.OpenFOAM.org                      |
|    \\/     M anipulation  |                                                 |
\*---------------------------------------------------------------------------*/
FoamFile
{
    version     2.0;
    format      ascii;
    class       volScalarField;
    location    "2000";
    object      rho;
}
// * * * * * * * * * * * * * * * * * * * * * * * * * * * * * * * * * * * * * //

dimensions      [1 -3 0 0 0 0 0];

internalField   nonuniform List<scalar> 
5000
(
1.155645
1.1582196
1.1609549
1.1638351
1.1668371
1.1699308
1.1730789
1.1762376
1.1793586
1.1823909
1.1852836
1.1879893
1.1904673
1.192686
1.1946253
1.1962778
1.1976482
1.1987523
1.199615
1.2002673
1.2007434
1.2010778
1.2013033
1.2014487
1.201538
1.20159
1.2016186
1.2016333
1.2016405
1.2016437
1.201645
1.2016455
1.2016457
1.2016457
1.2016457
1.2016457
1.2016457
1.2016457
1.2016457
1.2016457
1.2016457
1.2016457
1.2016457
1.2016457
1.2016457
1.2016457
1.2016457
1.2016457
1.2016457
1.2016457
1.1446444
1.1469212
1.1493573
1.1519535
1.1547072
1.1576119
1.160656
1.1638219
1.1670856
1.1704157
1.1737737
1.1771148
1.1803889
1.1835431
1.1865244
1.1892831
1.1917766
1.1939724
1.1958515
1.1974093
1.1986565
1.1996175
1.2003272
1.2008279
1.2011637
1.2013768
1.2015043
1.2015757
1.201613
1.2016311
1.2016392
1.2016424
1.2016437
1.2016441
1.2016442
1.2016442
1.2016442
1.2016442
1.2016442
1.2016442
1.2016442
1.2016442
1.2016442
1.2016442
1.2016442
1.2016442
1.2016442
1.2016442
1.2016442
1.2016442
1.1391005
1.1412252
1.1435011
1.1459325
1.1485219
1.1512693
1.1541719
1.157223
1.1604108
1.1637178
1.1671195
1.1705838
1.1740707
1.1775325
1.1809152
1.1841609
1.1872112
1.1900113
1.192515
1.1946889
1.1965162
1.197998
1.1991533
1.2000158
1.2006299
1.201045
1.20131
1.2014691
1.2015583
1.2016047
1.201627
1.2016368
1.2016407
1.2016421
1.2016426
1.2016427
1.2016427
1.2016427
1.2016427
1.2016427
1.2016427
1.2016427
1.2016427
1.2016427
1.2016427
1.2016427
1.2016427
1.2016427
1.2016427
1.2016427
1.1358015
1.1378354
1.1400146
1.1423439
1.144827
1.1474659
1.1502605
1.1532082
1.1563023
1.1595319
1.1628805
1.166325
1.1698348
1.1733716
1.1768888
1.1803331
1.1836463
1.1867686
1.1896429
1.1922199
1.1944629
1.1963519
1.1978859
1.1990824
1.1999752
1.2006098
1.2010372
1.2013086
1.20147
1.2015594
1.2016052
1.2016267
1.2016359
1.2016395
1.2016407
1.2016411
1.2016412
1.2016412
1.2016412
1.2016412
1.2016412
1.2016412
1.2016412
1.2016412
1.2016412
1.2016412
1.2016412
1.2016412
1.2016412
1.2016412
1.1335773
1.1355502
1.1376641
1.139924
1.1423341
1.1448972
1.1476146
1.1504851
1.1535048
1.156666
1.1599563
1.1633579
1.1668461
1.170389
1.173947
1.1774727
1.1809119
1.1842066
1.1872973
1.1901285
1.192653
1.1948372
1.1966645
1.1981374
1.1992767
1.2001189
1.2007109
1.2011045
1.2013506
1.2014943
1.2015721
1.2016109
1.2016286
1.2016358
1.2016385
1.2016394
1.2016397
1.2016397
1.2016397
1.2016397
1.2016397
1.2016397
1.2016397
1.2016397
1.2016397
1.2016397
1.2016397
1.2016397
1.2016397
1.2016397
1.1319022
1.1338292
1.1358938
1.1381012
1.1404557
1.1429607
1.1456179
1.1484273
1.1513863
1.1544893
1.1577265
1.1610834
1.1645394
1.1680674
1.1716327
1.1751931
1.178699
1.1820952
1.1853236
1.1883263
1.1910511
1.1934559
1.1955134
1.1972139
1.1985665
1.1995979
1.2003481
1.2008662
1.2012037
1.2014098
1.2015269
1.2015883
1.2016178
1.2016307
1.2016357
1.2016375
1.201638
1.2016382
1.2016382
1.2016382
1.2016382
1.2016382
1.2016382
1.2016382
1.2016382
1.2016382
1.2016382
1.2016382
1.2016382
1.2016382
1.1305772
1.1324679
1.1344936
1.1366594
1.1389698
1.1414284
1.1440374
1.1467972
1.1497065
1.1527607
1.1559518
1.1592676
1.1626905
1.1661966
1.1697552
1.1733281
1.1768698
1.1803283
1.1836475
1.1867697
1.1896402
1.1922121
1.1944505
1.196337
1.1978708
1.1990695
1.199966
1.2006044
1.2010349
1.2013079
1.2014697
1.2015585
1.2016032
1.2016237
1.2016322
1.2016353
1.2016364
1.2016366
1.2016367
1.2016367
1.2016367
1.2016367
1.2016367
1.2016367
1.2016367
1.2016367
1.2016367
1.2016367
1.2016367
1.2016367
1.1294836
1.1313444
1.133338
1.1354695
1.1377434
1.1401635
1.1427322
1.1454506
1.1483177
1.1513301
1.1544809
1.1577597
1.1611509
1.1646334
1.1681793
1.1717538
1.1753148
1.1788134
1.1821957
1.1854049
1.1883856
1.1910877
1.1934716
1.1955119
1.1972002
1.1985461
1.1995757
1.2003278
1.2008497
1.2011916
1.2014015
1.2015213
1.2015843
1.2016145
1.2016277
1.2016328
1.2016345
1.2016351
1.2016352
1.2016352
1.2016352
1.2016352
1.2016352
1.2016352
1.2016352
1.2016352
1.2016352
1.2016352
1.2016352
1.2016352
1.1285573
1.1303927
1.1323591
1.1344615
1.1367046
1.1390919
1.1416264
1.1443093
1.1471401
1.1501161
1.1532315
1.1564771
1.1598388
1.1632977
1.1668283
1.1703986
1.1739692
1.177494
1.1809213
1.1841958
1.1872618
1.1900678
1.1925705
1.1947394
1.1965601
1.1980355
1.1991852
1.2000431
1.2006529
1.2010635
1.2013235
1.2014771
1.201561
1.2016029
1.201622
1.2016297
1.2016325
1.2016334
1.2016337
1.2016337
1.2016337
1.2016337
1.2016337
1.2016337
1.2016337
1.2016337
1.2016337
1.2016337
1.2016337
1.2016337
1.1277557
1.1295693
1.1315122
1.1335894
1.1358057
1.1381647
1.1406694
1.1433213
1.1461204
1.1490643
1.1521482
1.1553637
1.1586983
1.1621345
1.1656488
1.1692116
1.1727858
1.1763279
1.1797882
1.1831129
1.1862467
1.1891372
1.1917386
1.1940167
1.1959519
1.1975415
1.1987996
1.1997553
1.2004487
1.2009265
1.2012372
1.2014264
1.2015333
1.2015888
1.201615
1.2016261
1.2016303
1.2016317
1.2016321
1.2016322
1.2016322
1.2016322
1.2016322
1.2016322
1.2016322
1.2016322
1.2016322
1.2016322
1.2016322
1.2016322
1.1270511
1.1288454
1.1307676
1.1328228
1.1350155
1.1373495
1.139828
1.1424526
1.1452235
1.1481389
1.1511945
1.1543827
1.1576922
1.1611068
1.1646047
1.1681581
1.1717323
1.1752856
1.1787705
1.1821345
1.1853232
1.1882836
1.1909682
1.1933399
1.1953749
1.1970659
1.1984221
1.1994679
1.20024
1.2007829
1.2011442
1.20137
1.2015014
1.2015719
1.2016065
1.2016218
1.2016278
1.2016299
1.2016305
1.2016307
1.2016307
1.2016307
1.2016307
1.2016307
1.2016307
1.2016307
1.2016307
1.2016307
1.2016307
1.2016307
1.1264236
1.1282008
1.1301047
1.1321401
1.1343118
1.1366236
1.1390786
1.1416787
1.1444244
1.1473141
1.1503441
1.1535075
1.1567938
1.1601879
1.1636697
1.1672128
1.1707843
1.1743447
1.177848
1.1812434
1.1844772
1.1874963
1.1902521
1.192705
1.1948279
1.1966094
1.1980544
1.1991833
1.2000294
1.2006347
1.2010456
1.2013085
1.2014656
1.2015525
1.2015965
1.2016167
1.201625
1.201628
1.2016289
1.2016292
1.2016292
1.2016292
1.2016292
1.2016292
1.2016292
1.2016292
1.2016292
1.2016292
1.2016292
1.2016292
1.1258589
1.1276207
1.129508
1.1315258
1.1336786
1.1359703
1.1384042
1.1409823
1.1437051
1.1465715
1.1495781
1.1527187
1.1559834
1.1593583
1.1628243
1.1663566
1.1699239
1.1734883
1.1770056
1.1804264
1.1836977
1.1867667
1.1895839
1.1921079
1.1943088
1.1961716
1.1976975
1.1989031
1.1998185
1.2004834
1.2009429
1.2012428
1.2014263
1.2015306
1.201585
1.2016108
1.2016217
1.2016259
1.2016272
1.2016276
1.2016277
1.2016277
1.2016277
1.2016277
1.2016277
1.2016277
1.2016277
1.2016277
1.2016277
1.2016277
1.1253462
1.1270941
1.1289663
1.130968
1.1331037
1.1353772
1.1377919
1.1403499
1.1430518
1.1458969
1.1488821
1.1520016
1.1552463
1.1586031
1.1620539
1.1655752
1.1691371
1.1727034
1.1762313
1.1796726
1.1829756
1.1860874
1.1889583
1.191545
1.1938156
1.1957519
1.1973517
1.1986283
1.1996088
1.2003304
1.2008368
1.2011735
1.2013838
1.2015062
1.2015719
1.201604
1.2016181
1.2016236
1.2016255
1.2016261
1.2016262
1.2016262
1.2016262
1.2016262
1.2016262
1.2016262
1.2016262
1.2016262
1.2016262
1.2016262
1.1248772
1.1266123
1.1284709
1.1304579
1.1325778
1.1348348
1.1372319
1.1397714
1.1424542
1.1452797
1.1482451
1.151345
1.154571
1.1579106
1.1613468
1.1648571
1.168413
1.1719795
1.1755154
1.1789737
1.1823035
1.1854525
1.1883705
1.1910131
1.1933463
1.1953495
1.1970171
1.1983596
1.1994011
1.2001767
1.2007285
1.2011012
1.2013385
1.2014796
1.2015572
1.2015963
1.201614
1.2016211
1.2016237
1.2016245
1.2016247
1.2016247
1.2016247
1.2016248
1.2016248
1.2016248
1.2016248
1.2016248
1.2016248
1.2016248
1.1244455
1.1261689
1.1280148
1.1299883
1.1320938
1.1343354
1.1367163
1.1392388
1.141904
1.1447113
1.1476583
1.1507401
1.1539485
1.157272
1.1606941
1.1641935
1.1677428
1.1713084
1.1748501
1.1783225
1.1816753
1.1848568
1.1878165
1.1905092
1.1928992
1.1949633
1.1966935
1.1980972
1.1991961
1.200023
1.2006184
1.2010265
1.2012907
1.201451
1.2015411
1.2015876
1.2016094
1.2016184
1.2016218
1.2016229
1.2016232
1.2016232
1.2016232
1.2016233
1.2016233
1.2016233
1.2016233
1.2016233
1.2016233
1.2016233
1.1240459
1.1257584
1.1275926
1.1295536
1.1316458
1.1338732
1.1362391
1.1387458
1.1413946
1.144185
1.1471149
1.1501797
1.1533717
1.1566797
1.1600884
1.1635771
1.1671196
1.1706832
1.1742293
1.1777132
1.1810859
1.184296
1.1872929
1.1900308
1.1924723
1.1945924
1.1963804
1.1978413
1.1989942
1.1998699
1.2005074
1.2009499
1.2012408
1.2014204
1.2015236
1.2015781
1.2016043
1.2016155
1.2016198
1.2016212
1.2016216
1.2016217
1.2016217
1.2016218
1.2016218
1.2016218
1.2016218
1.2016218
1.2016218
1.2016218
1.1236742
1.1253766
1.1272
1.1291493
1.131229
1.1334432
1.1357952
1.1382873
1.1409207
1.1436954
1.1466093
1.1496581
1.1528345
1.1561281
1.1595238
1.163002
1.1665374
1.1700985
1.1736476
1.1771412
1.1805311
1.1837665
1.1867968
1.1895755
1.1920642
1.1942358
1.1960776
1.197592
1.1987958
1.1997179
1.2003958
1.2008719
1.2011891
1.2013882
1.2015047
1.2015676
1.2015986
1.2016123
1.2016177
1.2016195
1.2016201
1.2016202
1.2016202
1.2016203
1.2016203
1.2016203
1.2016203
1.2016203
1.2016203
1.2016203
1.1233269
1.1250199
1.1268331
1.1287716
1.1308398
1.1330416
1.1353805
1.1378589
1.140478
1.143238
1.1461368
1.1491705
1.1523323
1.155612
1.1589953
1.1624633
1.1659916
1.1695495
1.1731006
1.1766022
1.1800072
1.183265
1.1863254
1.1891414
1.1916733
1.1938926
1.1957845
1.197349
1.1986009
1.1995672
1.2002841
1.2007927
1.2011359
1.2013544
1.2014846
1.2015563
1.2015924
1.2016088
1.2016154
1.2016178
1.2016185
1.2016187
1.2016187
1.2016188
1.2016188
1.2016188
1.2016188
1.2016188
1.2016188
1.2016188
1.1230013
1.1246854
1.1264892
1.1284174
1.1304747
1.132665
1.1349917
1.1374571
1.1400629
1.1428089
1.1456936
1.1487131
1.151861
1.1551275
1.1584989
1.161957
1.165478
1.1690324
1.1725846
1.176093
1.179511
1.182789
1.1858767
1.1887267
1.1912985
1.193562
1.1955006
1.1971123
1.1984098
1.1994183
1.2001725
1.2007127
1.2010814
1.2013193
1.2014633
1.2015441
1.2015857
1.201605
1.2016131
1.201616
1.2016169
1.2016172
1.2016172
1.2016173
1.2016173
1.2016173
1.2016173
1.2016173
1.2016173
1.2016173
1.1226949
1.1243707
1.1261655
1.1280842
1.1301313
1.1323107
1.1346258
1.1370792
1.1396722
1.1424052
1.1452765
1.1482826
1.1514172
1.1546711
1.1580311
1.1614795
1.1649933
1.1685439
1.1720965
1.1756105
1.17904
1.1823361
1.1854485
1.1883297
1.1909384
1.1932431
1.1952255
1.1968817
1.1982225
1.1992712
1.2000613
1.2006322
1.2010259
1.201283
1.2014409
1.2015311
1.2015784
1.201601
1.2016106
1.2016142
1.2016153
1.2016157
1.2016157
1.2016158
1.2016158
1.2016158
1.2016158
1.2016158
1.2016158
1.2016158
1.1224057
1.1240736
1.12586
1.1277697
1.1298071
1.1319762
1.1342805
1.1367224
1.1393035
1.142024
1.1448827
1.147876
1.1509981
1.15424
1.157589
1.1610279
1.1645346
1.1680811
1.1716335
1.1751521
1.1785919
1.1819042
1.1850392
1.1879492
1.1905921
1.1929353
1.1949588
1.1966571
1.1980389
1.1991261
1.1999508
1.2005514
1.2009695
1.2012457
1.2014176
1.2015173
1.2015706
1.2015966
1.2016079
1.2016122
1.2016137
1.2016141
1.2016142
1.2016143
1.2016143
1.2016143
1.2016143
1.2016143
1.2016143
1.2016143
1.122132
1.1237925
1.1255709
1.127472
1.1295003
1.1316597
1.1339537
1.1363847
1.1389545
1.1416633
1.1445099
1.1474911
1.1506012
1.1538316
1.15717
1.1605997
1.1640993
1.1676416
1.1711934
1.1747158
1.1781645
1.1814915
1.1846473
1.1875839
1.1902585
1.1926378
1.1947
1.1964381
1.197859
1.198983
1.199841
1.2004705
1.2009124
1.2012075
1.2013933
1.2015028
1.2015623
1.2015919
1.201605
1.2016103
1.2016121
1.2016126
1.2016127
1.2016128
1.2016128
1.2016128
1.2016128
1.2016128
1.2016128
1.2016128
1.1218722
1.1235257
1.1252966
1.1271896
1.1292092
1.1313594
1.1336436
1.1360644
1.1386233
1.141321
1.1441561
1.1471257
1.1502244
1.1534437
1.1567719
1.1601928
1.1636854
1.1672233
1.1707741
1.1742996
1.1777562
1.1810966
1.1842714
1.1872325
1.1899369
1.1923499
1.1944488
1.1962245
1.1976827
1.1988421
1.1997321
1.2003896
1.2008548
1.2011684
1.2013683
1.2014876
1.2015535
1.2015868
1.201602
1.2016082
1.2016104
1.201611
1.2016112
1.2016113
1.2016113
1.2016113
1.2016113
1.2016113
1.2016113
1.2016113
1.1216252
1.123272
1.1250357
1.126921
1.1289324
1.1310738
1.1333487
1.1357597
1.1383084
1.1409954
1.1438196
1.1467782
1.1498659
1.1530746
1.156393
1.1598052
1.1632909
1.1668243
1.1703737
1.1739017
1.1773654
1.1807179
1.1839102
1.1868942
1.1896264
1.1920712
1.1942046
1.1960162
1.19751
1.1987032
1.1996242
1.2003088
1.2007969
1.2011288
1.2013425
1.2014717
1.2015442
1.2015815
1.2015989
1.201606
1.2016087
1.2016095
1.2016097
1.2016098
1.2016098
1.2016098
1.2016098
1.2016098
1.2016098
1.2016098
1.1213898
1.1230302
1.124787
1.126665
1.1286685
1.1308016
1.1330676
1.1354693
1.1380082
1.140685
1.1434988
1.1464468
1.149524
1.1527226
1.1560314
1.1594353
1.1629142
1.166443
1.1699908
1.1735208
1.1769907
1.1803543
1.1835627
1.1865681
1.1893263
1.191801
1.1939672
1.1958129
1.1973407
1.1985665
1.1995174
1.2002283
1.2007386
1.2010885
1.201316
1.2014552
1.2015344
1.2015758
1.2015955
1.2016038
1.2016069
1.2016079
1.2016082
1.2016082
1.2016083
1.2016083
1.2016083
1.2016083
1.2016083
1.2016083
1.121165
1.1227993
1.1245496
1.1264205
1.1284166
1.1305417
1.1327993
1.135192
1.1377216
1.1403887
1.1431925
1.1461304
1.1491975
1.1523863
1.1556859
1.1590816
1.1625538
1.1660781
1.169624
1.1731555
1.1766309
1.1800046
1.183228
1.1862533
1.1890359
1.191539
1.1937362
1.1956145
1.1971749
1.198432
1.1994117
1.2001482
1.2006802
1.2010477
1.201289
1.2014381
1.2015242
1.2015699
1.2015919
1.2016015
1.2016051
1.2016063
1.2016067
1.2016067
1.2016068
1.2016068
1.2016068
1.2016068
1.2016068
1.2016068
1.1209499
1.1225784
1.1243224
1.1261867
1.1281755
1.130293
1.1325425
1.1349267
1.1374474
1.1401052
1.1428994
1.1458275
1.148885
1.1520643
1.1553551
1.1587428
1.1622085
1.1657281
1.169272
1.1728046
1.176285
1.1796678
1.1829052
1.185949
1.1887547
1.1912845
1.1935113
1.1954206
1.1970123
1.1982995
1.1993071
1.2000684
1.2006217
1.2010066
1.2012614
1.2014205
1.2015135
1.2015636
1.2015882
1.2015991
1.2016033
1.2016047
1.2016051
1.2016052
1.2016053
1.2016053
1.2016053
1.2016053
1.2016053
1.2016053
1.1207438
1.1223667
1.1241047
1.1259626
1.1279446
1.1300548
1.1322965
1.1346725
1.1371846
1.1398335
1.1426185
1.1455373
1.1485854
1.1517557
1.1550378
1.1584178
1.1618771
1.1653921
1.1689337
1.1724671
1.1759518
1.1793432
1.1825934
1.1856547
1.1884821
1.1910373
1.1932922
1.1952312
1.1968529
1.1981691
1.1992037
1.1999892
1.2005631
1.2009651
1.2012333
1.2014025
1.2015024
1.201557
1.2015843
1.2015965
1.2016014
1.2016031
1.2016036
1.2016037
1.2016038
1.2016038
1.2016038
1.2016038
1.2016038
1.2016038
1.120546
1.1221636
1.1238958
1.1257475
1.127723
1.1298261
1.1320604
1.1344286
1.1369324
1.1395727
1.1423489
1.1452588
1.1482978
1.1514593
1.1547331
1.1581056
1.1615585
1.1650689
1.1686082
1.172142
1.1756306
1.1790298
1.182292
1.1853697
1.1882175
1.1907969
1.1930786
1.1950461
1.1966966
1.1980408
1.1991016
1.1999104
1.2005047
1.2009234
1.2012048
1.201384
1.2014909
1.2015502
1.2015802
1.2015939
1.2015995
1.2016015
1.2016021
1.2016022
1.2016023
1.2016023
1.2016023
1.2016023
1.2016023
1.2016023
1.1203558
1.1219683
1.1236951
1.1255408
1.1275099
1.1296064
1.1318335
1.1341941
1.13669
1.1393221
1.1420898
1.144991
1.1480214
1.1511743
1.1544401
1.1578052
1.161252
1.1647577
1.1682945
1.1718285
1.1753206
1.1787269
1.1820004
1.1850934
1.1879607
1.1905629
1.1928702
1.194865
1.1965432
1.1979145
1.1990006
1.1998323
1.2004463
1.2008814
1.201176
1.201365
1.2014791
1.201543
1.2015759
1.2015912
1.2015975
1.2015998
1.2016005
1.2016007
1.2016008
1.2016008
1.2016008
1.2016008
1.2016008
1.2016008
1.1201729
1.1217804
1.1235018
1.1253419
1.1273049
1.1293949
1.1316152
1.1339685
1.1364568
1.1390809
1.1418404
1.1447332
1.1477552
1.1509
1.1541579
1.1575158
1.1609565
1.1644577
1.1679919
1.1715259
1.175021
1.1784339
1.1817179
1.1848254
1.187711
1.1903351
1.1926669
1.1946878
1.1963927
1.1977902
1.1989008
1.1997547
1.200388
1.2008393
1.2011468
1.2013457
1.2014669
1.2015356
1.2015714
1.2015884
1.2015955
1.2015981
1.201599
1.2015992
1.2015993
1.2015993
1.2015993
1.2015993
1.2015993
1.2015993
1.1199965
1.1215993
1.1233156
1.1251502
1.1271074
1.1291911
1.1314047
1.1337511
1.136232
1.1388485
1.1416001
1.1444848
1.1474987
1.1506355
1.1538858
1.1572368
1.1606715
1.1641682
1.1676997
1.1712335
1.1747313
1.1781502
1.181444
1.1845651
1.1874682
1.1901131
1.1924683
1.1945144
1.196245
1.1976678
1.1988022
1.1996778
1.2003299
1.2007971
1.2011174
1.2013261
1.2014544
1.2015279
1.2015668
1.2015854
1.2015934
1.2015964
1.2015974
1.2015977
1.2015978
1.2015978
1.2015978
1.2015978
1.2015978
1.2015978
1.1198264
1.1214246
1.123136
1.1249653
1.1269168
1.1289945
1.1312018
1.1335413
1.1360152
1.1386243
1.1413682
1.1442451
1.1472512
1.1503803
1.1536232
1.1569674
1.1603962
1.1638884
1.1674172
1.1709505
1.1744507
1.1778752
1.1811781
1.1843123
1.1872319
1.1898966
1.1922743
1.1943445
1.1961
1.1975472
1.1987049
1.1996015
1.2002721
1.2007548
1.2010877
1.2013062
1.2014416
1.20152
1.201562
1.2015824
1.2015913
1.2015947
1.2015959
1.2015962
1.2015963
1.2015963
1.2015963
1.2015963
1.2015963
1.2015963
1.1196621
1.1212558
1.1229625
1.1247867
1.1267328
1.1288046
1.1310057
1.1333388
1.1358058
1.1384077
1.1411443
1.1440136
1.1470121
1.1501337
1.1533694
1.156707
1.1601301
1.1636178
1.1671438
1.1706765
1.1741787
1.1776084
1.18092
1.1840663
1.1870018
1.1896854
1.1920847
1.1941781
1.1959576
1.1974286
1.1986087
1.1995258
1.2002145
1.2007125
1.2010578
1.2012859
1.2014285
1.2015119
1.201557
1.2015792
1.2015891
1.201593
1.2015943
1.2015947
1.2015948
1.2015948
1.2015948
1.2015948
1.2015948
1.2015948
1.1195033
1.1210927
1.1227948
1.124614
1.1265548
1.1286211
1.1308162
1.1331429
1.1356033
1.1381983
1.1409277
1.1437898
1.1467809
1.1498952
1.1531239
1.156455
1.1598725
1.1633558
1.166879
1.1704109
1.173915
1.1773494
1.1806691
1.183827
1.1867775
1.1894792
1.1918992
1.194015
1.1958178
1.1973117
1.1985137
1.1994509
1.2001572
1.2006702
1.2010277
1.2012654
1.2014151
1.2015034
1.2015518
1.201576
1.2015869
1.2015912
1.2015927
1.2015931
1.2015932
1.2015933
1.2015933
1.2015933
1.2015933
1.2015933
1.1193495
1.1209348
1.1226324
1.1244469
1.1263826
1.1284434
1.1306328
1.1329534
1.1354074
1.1379957
1.1407182
1.1435732
1.1465571
1.1496643
1.1528862
1.156211
1.159623
1.1631018
1.1666222
1.1701533
1.1736589
1.1770978
1.180425
1.1835939
1.1865587
1.1892778
1.1917176
1.1938552
1.1956803
1.1971965
1.1984198
1.1993765
1.2001002
1.2006279
1.2009975
1.2012447
1.2014014
1.2014948
1.2015465
1.2015726
1.2015845
1.2015894
1.2015911
1.2015916
1.2015917
1.2015918
1.2015918
1.2015918
1.2015918
1.2015918
1.1192006
1.1207819
1.1224752
1.124285
1.1262158
1.1282713
1.1304551
1.1327698
1.1352176
1.1377994
1.1405152
1.1433633
1.1463403
1.1494406
1.1526559
1.1559746
1.1593811
1.1628556
1.1663731
1.1699032
1.1734101
1.1768531
1.1801875
1.1833668
1.1863452
1.189081
1.19154
1.1936983
1.1955452
1.1970831
1.1983271
1.1993029
1.2000435
1.2005856
1.2009671
1.2012237
1.2013876
1.201486
1.201541
1.2015691
1.2015822
1.2015876
1.2015895
1.2015901
1.2015902
1.2015903
1.2015903
1.2015903
1.2015903
1.2015903
1.1190562
1.1206336
1.1223227
1.1241281
1.1260541
1.1281045
1.1302828
1.1325919
1.1350336
1.1376091
1.1403184
1.1431598
1.1461301
1.1492237
1.1524325
1.1557451
1.1591464
1.1626165
1.1661311
1.1696601
1.1731682
1.176615
1.1799561
1.1831453
1.1861368
1.1888886
1.1913659
1.1935445
1.1954124
1.1969713
1.1982355
1.1992299
1.1999871
1.2005435
1.2009367
1.2012026
1.2013735
1.2014769
1.2015353
1.2015655
1.2015797
1.2015857
1.2015879
1.2015885
1.2015887
1.2015888
1.2015888
1.2015888
1.2015888
1.2015888
1.1189161
1.1204897
1.1221748
1.1239758
1.1258971
1.1279426
1.1301157
1.1324192
1.1348551
1.1374245
1.1401274
1.1429623
1.1459261
1.1490132
1.1522157
1.1555224
1.1589184
1.1623843
1.165896
1.1694238
1.1729329
1.1763831
1.1797306
1.1829293
1.1859332
1.1887004
1.1911954
1.1933934
1.1952817
1.1968611
1.198145
1.1991577
1.199931
1.2005014
1.2009062
1.2011813
1.2013592
1.2014677
1.2015295
1.2015619
1.2015773
1.2015838
1.2015862
1.201587
1.2015872
1.2015873
1.2015873
1.2015873
1.2015873
1.2015873
1.11878
1.12035
1.1220311
1.123828
1.1257448
1.1277854
1.1299534
1.1322515
1.1346817
1.1372452
1.1399419
1.1427706
1.1457279
1.1488087
1.152005
1.155306
1.1586969
1.1621586
1.1656673
1.1691939
1.1727037
1.1761572
1.1795107
1.1827183
1.1857343
1.1885161
1.1910283
1.1932451
1.1951532
1.1967525
1.1980556
1.199086
1.1998753
1.2004594
1.2008756
1.2011598
1.2013447
1.2014583
1.2015235
1.2015581
1.2015747
1.2015819
1.2015846
1.2015855
1.2015857
1.2015858
1.2015858
1.2015858
1.2015858
1.2015858
1.1186478
1.1202142
1.1218915
1.1236842
1.1255967
1.1276327
1.1297957
1.1320885
1.1345132
1.1370709
1.1397617
1.1425842
1.1455353
1.1486099
1.1518003
1.1550956
1.1584814
1.161939
1.1654448
1.16897
1.1724805
1.175937
1.1792962
1.1825123
1.1855397
1.1883357
1.1908644
1.1930995
1.1950268
1.1966454
1.1979672
1.1990151
1.19982
1.2004176
1.200845
1.2011383
1.2013301
1.2014487
1.2015174
1.2015542
1.2015721
1.2015799
1.2015829
1.2015839
1.2015842
1.2015843
1.2015843
1.2015843
1.2015843
1.2015843
1.1185192
1.1200821
1.1217557
1.1235445
1.1254527
1.1274841
1.1296423
1.13193
1.1343494
1.1369015
1.1395864
1.1424029
1.145348
1.1484166
1.1516011
1.1548909
1.1582717
1.1617252
1.1652281
1.1687519
1.1722629
1.1757221
1.1790867
1.182311
1.1853493
1.188159
1.1907037
1.1929564
1.1949023
1.1965398
1.1978799
1.1989448
1.199765
1.2003758
1.2008144
1.2011165
1.2013152
1.201439
1.2015112
1.2015502
1.2015694
1.2015779
1.2015812
1.2015824
1.2015827
1.2015828
1.2015828
1.2015828
1.2015828
1.2015828
1.118394
1.1199536
1.1216236
1.1234085
1.1253125
1.1273396
1.1294931
1.1317758
1.1341899
1.1367366
1.1394158
1.1422265
1.1451657
1.1482284
1.1514071
1.1546915
1.1580675
1.161517
1.1650169
1.1685393
1.1720506
1.1755124
1.1788821
1.1821141
1.185163
1.1879858
1.1905459
1.1928158
1.1947798
1.1964357
1.1977936
1.1988752
1.1997104
1.2003343
1.2007837
1.2010947
1.2013003
1.201429
1.2015048
1.2015461
1.2015666
1.2015759
1.2015795
1.2015808
1.2015812
1.2015813
1.2015813
1.2015813
1.2015813
1.2015813
1.1182721
1.1198284
1.1214949
1.123276
1.125176
1.1271988
1.1293477
1.1316256
1.1340346
1.136576
1.1392497
1.1420548
1.1449882
1.1480451
1.1512182
1.1544973
1.1578686
1.161314
1.164811
1.1683319
1.1718435
1.1753077
1.1786821
1.1819216
1.1849806
1.1878161
1.190391
1.1926775
1.1946592
1.1963329
1.1977083
1.1988062
1.1996561
1.2002928
1.2007531
1.2010728
1.2012852
1.201419
1.2014983
1.2015419
1.2015638
1.2015738
1.2015778
1.2015792
1.2015797
1.2015798
1.2015798
1.2015798
1.2015798
1.2015798
1.1181533
1.1197065
1.1213695
1.123147
1.125043
1.1270616
1.1292061
1.1314793
1.1338834
1.1364195
1.1390879
1.1418874
1.1448151
1.1478665
1.1510341
1.154308
1.1576746
1.1611161
1.1646102
1.1681294
1.1716412
1.1751076
1.1784865
1.1817331
1.1848018
1.1876496
1.190239
1.1925415
1.1945404
1.1962316
1.197624
1.1987379
1.1996023
1.2002516
1.2007225
1.2010508
1.2012699
1.2014088
1.2014916
1.2015376
1.201561
1.2015717
1.2015761
1.2015777
1.2015781
1.2015783
1.2015783
1.2015783
1.2015783
1.2015783
1.1180375
1.1195876
1.1212473
1.1230211
1.1249134
1.1269279
1.129068
1.1313366
1.1337359
1.1362669
1.1389301
1.1417242
1.1446464
1.1476923
1.1508546
1.1541234
1.1574853
1.1609229
1.1644141
1.1679318
1.1714436
1.174912
1.1782953
1.1815486
1.1846267
1.1874862
1.1900896
1.1924078
1.1944233
1.1961315
1.1975406
1.1986702
1.1995488
1.2002105
1.2006919
1.2010288
1.2012546
1.2013985
1.2014849
1.2015332
1.201558
1.2015696
1.2015744
1.2015761
1.2015766
1.2015768
1.2015768
1.2015768
1.2015768
1.2015768
1.1179246
1.1194716
1.121128
1.1228984
1.1247869
1.1267974
1.1289333
1.1311975
1.133592
1.1361181
1.1387761
1.1415649
1.1444819
1.1475223
1.1506794
1.1539432
1.1573006
1.1607344
1.1642226
1.1677387
1.1712504
1.1747207
1.1781081
1.1813679
1.184455
1.1873259
1.1899428
1.1922762
1.194308
1.1960328
1.1974582
1.1986031
1.1994956
1.2001696
1.2006613
1.2010067
1.2012391
1.201388
1.201478
1.2015287
1.201555
1.2015674
1.2015726
1.2015745
1.2015751
1.2015752
1.2015753
1.2015753
1.2015753
1.2015753
1.1178143
1.1193584
1.1210116
1.1227786
1.1246635
1.1266701
1.1288019
1.1310616
1.1334516
1.1359729
1.1386259
1.1414095
1.1443212
1.1473564
1.1505084
1.1537673
1.1571202
1.1605502
1.1640356
1.1675499
1.1710615
1.1745336
1.1779248
1.1811908
1.1842865
1.1871685
1.1897985
1.1921467
1.1941943
1.1959354
1.1973766
1.1985366
1.1994429
1.2001289
1.2006308
1.2009845
1.2012236
1.2013774
1.201471
1.2015241
1.201552
1.2015652
1.2015708
1.2015729
1.2015736
1.2015737
1.2015738
1.2015738
1.2015738
1.2015738
1.1177066
1.1192478
1.1208979
1.1226616
1.1245429
1.1265457
1.1286735
1.130929
1.1333144
1.135831
1.1384792
1.1412578
1.1441643
1.1471944
1.1503413
1.1535955
1.156944
1.1603702
1.1638527
1.1673653
1.1708767
1.1743504
1.1777452
1.1810173
1.1841213
1.1870139
1.1896566
1.1920192
1.1940822
1.1958391
1.197296
1.1984708
1.1993905
1.2000883
1.2006003
1.2009623
1.2012079
1.2013668
1.2014639
1.2015195
1.2015488
1.2015629
1.201569
1.2015713
1.201572
1.2015722
1.2015723
1.2015723
1.2015723
1.2015723
1.1176014
1.1191397
1.1207869
1.1225473
1.1244251
1.1264242
1.1285481
1.1307994
1.1331804
1.1356925
1.1383358
1.1411095
1.144011
1.1470361
1.1501781
1.1534275
1.1567717
1.1601942
1.1636738
1.1671848
1.1706959
1.174171
1.1775693
1.1808471
1.1839591
1.1868621
1.1895171
1.1918936
1.1939717
1.1957441
1.1972163
1.1984055
1.1993385
1.200048
1.2005699
1.2009401
1.2011922
1.201356
1.2014567
1.2015147
1.2015457
1.2015607
1.2015672
1.2015697
1.2015705
1.2015707
1.2015708
1.2015708
1.2015708
1.2015708
1.1174985
1.1190341
1.1206783
1.1224355
1.12431
1.1263055
1.1284255
1.1306727
1.1330495
1.135557
1.1381957
1.1409645
1.1438612
1.1468813
1.1500184
1.1532632
1.1566032
1.160022
1.1634988
1.167008
1.1705188
1.1739952
1.1773969
1.1806801
1.1837999
1.1867128
1.1893799
1.19177
1.1938628
1.1956503
1.1971374
1.1983409
1.1992869
1.2000079
1.2005396
1.2009179
1.2011764
1.2013451
1.2014494
1.2015099
1.2015424
1.2015583
1.2015653
1.201568
1.201569
1.2015692
1.2015693
1.2015693
1.2015693
1.2015693
1.1173979
1.1189308
1.1205721
1.1223262
1.1241974
1.1261894
1.1283056
1.1305489
1.1329214
1.1354245
1.1380586
1.1408228
1.1437146
1.1467299
1.1498623
1.1531026
1.1564384
1.1598535
1.1633275
1.166835
1.1703453
1.173823
1.1772278
1.1805163
1.1836436
1.1865661
1.1892448
1.1916482
1.1937553
1.1955576
1.1970594
1.1982768
1.1992356
1.1999679
1.2005093
1.2008956
1.2011605
1.2013341
1.201442
1.201505
1.2015391
1.201556
1.2015635
1.2015664
1.2015674
1.2015677
1.2015678
1.2015678
1.2015678
1.2015678
1.1172995
1.1188298
1.1204682
1.1222193
1.1240872
1.1260757
1.1281883
1.1304277
1.1327961
1.1352949
1.1379245
1.1406841
1.1435712
1.1465818
1.1497095
1.1529453
1.156277
1.1596886
1.1631598
1.1666654
1.1701753
1.1736541
1.1770619
1.1803554
1.18349
1.1864219
1.1891119
1.1915281
1.1936492
1.195466
1.1969822
1.1982133
1.1991847
1.1999282
1.2004791
1.2008733
1.2011446
1.201323
1.2014345
1.2015
1.2015358
1.2015536
1.2015616
1.2015648
1.2015659
1.2015662
1.2015663
1.2015663
1.2015663
1.2015663
1.1172032
1.1187309
1.1203665
1.1221147
1.1239794
1.1259645
1.1280735
1.130309
1.1326735
1.1351681
1.1377933
1.1405483
1.1434309
1.1464368
1.14956
1.1527914
1.156119
1.1595271
1.1629955
1.1664993
1.1700087
1.1734885
1.1768991
1.1801975
1.183339
1.18628
1.188981
1.1914098
1.1935445
1.1953755
1.1969058
1.1981504
1.1991341
1.1998886
1.200449
1.2008511
1.2011286
1.2013119
1.201427
1.201495
1.2015323
1.2015511
1.2015597
1.2015631
1.2015643
1.2015647
1.2015648
1.2015648
1.2015648
1.2015648
1.1171088
1.118634
1.120267
1.1220122
1.1238738
1.1258556
1.127961
1.1301929
1.1325534
1.1350439
1.1376648
1.1404154
1.1432934
1.1462948
1.1494135
1.1526406
1.1559643
1.1593688
1.1628345
1.1663365
1.1698453
1.173326
1.1767393
1.1800424
1.1831906
1.1861404
1.1888521
1.1912932
1.1934412
1.1952861
1.1968302
1.198088
1.199084
1.1998493
1.200419
1.2008288
1.2011125
1.2013007
1.2014193
1.2014898
1.2015289
1.2015487
1.2015578
1.2015615
1.2015628
1.2015632
1.2015633
1.2015633
1.2015633
1.2015633
1.1170164
1.1185391
1.1201694
1.1219118
1.1237704
1.1257489
1.1278509
1.1300791
1.1324357
1.1349222
1.1375389
1.1402852
1.1431588
1.1461557
1.14927
1.1524929
1.1558126
1.1592137
1.1626766
1.1661768
1.169685
1.1731665
1.1765824
1.17989
1.1830447
1.1860031
1.1887251
1.1911781
1.1933393
1.1951977
1.1967554
1.1980262
1.1990341
1.1998102
1.2003891
1.2008065
1.2010964
1.2012894
1.2014116
1.2014846
1.2015253
1.2015462
1.2015558
1.2015598
1.2015612
1.2015617
1.2015618
1.2015618
1.2015618
1.2015618
1.1169258
1.1184461
1.1200738
1.1218134
1.123669
1.1256444
1.127743
1.1299676
1.1323205
1.134803
1.1374156
1.1401576
1.1430268
1.1460194
1.1491293
1.1523481
1.1556639
1.1590617
1.1625218
1.1660202
1.1695277
1.17301
1.1764283
1.1797402
1.1829012
1.1858679
1.1886
1.1910647
1.1932386
1.1951103
1.1966813
1.1979649
1.1989847
1.1997712
1.2003592
1.2007843
1.2010803
1.201278
1.2014038
1.2014794
1.2015217
1.2015436
1.2015539
1.2015581
1.2015597
1.2015601
1.2015603
1.2015603
1.2015603
1.2015603
1.1168371
1.118355
1.1199801
1.121717
1.1235697
1.1255419
1.1276372
1.1298583
1.1322075
1.1346861
1.1372947
1.1400325
1.1428975
1.1458858
1.1489914
1.1522061
1.1555181
1.1589125
1.1623699
1.1658665
1.1693732
1.1728563
1.1762769
1.1795929
1.1827601
1.1857347
1.1884768
1.1909528
1.1931392
1.195024
1.196608
1.1979042
1.1989356
1.1997325
1.2003295
1.200762
1.2010641
1.2012666
1.2013959
1.201474
1.2015181
1.201541
1.2015519
1.2015564
1.2015581