/*--------------------------------*- C++ -*----------------------------------*\
| =========                 |                                                 |
| \\      /  F ield         | OpenFOAM: The Open Source CFD Toolbox           |
|  \\    /   O peration     | Version:  4.0                                   |
|   \\  /    A nd           | Web:      www.OpenFOAM.org                      |
|    \\/     M anipulation  |                                                 |
\*---------------------------------------------------------------------------*/
FoamFile
{
    version     2.0;
    format      ascii;
    class       volScalarField;
    location    "2000";
    object      rho;
}
// * * * * * * * * * * * * * * * * * * * * * * * * * * * * * * * * * * * * * //

dimensions      [1 -3 0 0 0 0 0];

internalField   nonuniform List<scalar> 
162000
(
1.1815193
1.1815735
1.1816328
1.1816975
1.1817681
1.1818452
1.181929
1.1820202
1.1821192
1.1822266
1.1823426
1.1824678
1.1826025
1.1827468
1.1829008
1.1830643
1.1832369
1.1834176
1.183605
1.183797
1.1839908
1.1841823
1.1843663
1.1845357
1.1846816
1.1847925
1.1848541
1.1815782
1.1816345
1.181696
1.1817632
1.1818365
1.1819164
1.1820035
1.1820982
1.182201
1.1823126
1.1824332
1.1825634
1.1827034
1.1828535
1.1830138
1.1831841
1.1833638
1.183552
1.1837475
1.1839479
1.1841504
1.184351
1.1845442
1.184723
1.1848786
1.1849994
1.1850716
1.1816802
1.1817404
1.1818061
1.181878
1.1819565
1.1820421
1.1821353
1.1822368
1.182347
1.1824666
1.1825959
1.1827356
1.1828858
1.183047
1.1832191
1.1834019
1.1835949
1.1837972
1.1840072
1.1842226
1.1844405
1.1846565
1.1848651
1.1850591
1.1852294
1.1853647
1.1854512
1.1817984
1.1818641
1.181936
1.1820146
1.1821004
1.182194
1.182296
1.1824071
1.1825277
1.1826586
1.1828002
1.1829531
1.1831175
1.1832938
1.1834819
1.1836816
1.1838922
1.1841126
1.184341
1.1845749
1.1848107
1.1850439
1.1852682
1.1854761
1.1856581
1.1858027
1.1858961
1.1819032
1.181976
1.1820556
1.1821427
1.1822378
1.1823415
1.1824546
1.1825776
1.1827113
1.1828562
1.1830128
1.1831817
1.1833632
1.1835574
1.1837642
1.1839831
1.184213
1.1844526
1.1846994
1.1849504
1.1852013
1.1854466
1.1856792
1.1858907
1.1860708
1.1862072
1.1862862
1.1819698
1.1820511
1.1821401
1.1822374
1.1823436
1.1824595
1.1825857
1.1827229
1.1828718
1.183033
1.1832069
1.183394
1.1835943
1.1838077
1.1840339
1.1842717
1.1845196
1.1847753
1.1850357
1.1852965
1.1855522
1.185796
1.1860197
1.1862134
1.1863662
1.1864658
1.1864995
1.1633185
1.1633697
1.1634242
1.1634821
1.1635439
1.1636097
1.16368
1.1637549
1.1638349
1.1639203
1.1640114
1.1641085
1.1642118
1.1643214
1.1644374
1.1645598
1.1646883
1.1648223
1.1649609
1.1651027
1.1652459
1.1653876
1.1655241
1.1656507
1.1657609
1.1658466
1.1658976
1.1633423
1.1633954
1.1634519
1.1635121
1.1635764
1.163645
1.1637182
1.1637965
1.1638802
1.1639696
1.164065
1.1641668
1.1642753
1.1643905
1.1645127
1.1646417
1.1647773
1.164919
1.1650657
1.1652163
1.1653686
1.16552
1.1656668
1.1658039
1.1659251
1.1660223
1.1660852
1.1633819
1.1634387
1.1634992
1.1635639
1.163633
1.163707
1.1637861
1.1638708
1.1639616
1.1640587
1.1641625
1.1642735
1.1643919
1.1645179
1.1646517
1.1647932
1.1649421
1.165098
1.1652598
1.1654262
1.1655951
1.1657637
1.165928
1.1660831
1.1662225
1.1663381
1.1664197
1.1634254
1.1634875
1.1635539
1.1636249
1.1637011
1.1637827
1.1638703
1.1639642
1.164065
1.164173
1.1642887
1.1644125
1.1645447
1.1646856
1.1648352
1.1649936
1.1651603
1.1653349
1.1655161
1.1657024
1.1658915
1.1660802
1.1662644
1.1664386
1.1665961
1.1667286
1.166826
1.1634601
1.163529
1.1636028
1.1636821
1.1637671
1.1638585
1.1639567
1.1640621
1.1641753
1.1642968
1.1644269
1.1645662
1.1647149
1.1648731
1.1650411
1.1652185
1.1654048
1.1655992
1.1658003
1.166006
1.1662135
1.166419
1.1666177
1.1668035
1.1669692
1.167106
1.1672041
1.1634788
1.1635559
1.1636386
1.1637276
1.1638232
1.163926
1.1640364
1.164155
1.1642824
1.1644188
1.1645649
1.1647208
1.1648868
1.165063
1.1652491
1.1654446
1.1656487
1.1658598
1.166076
1.1662944
1.1665113
1.166722
1.1669207
1.1671003
1.1672531
1.1673704
1.1674432
1.1558911
1.1559408
1.155992
1.156045
1.1561
1.156157
1.1562162
1.1562778
1.156342
1.1564089
1.1564788
1.1565518
1.1566279
1.1567074
1.1567902
1.1568763
1.1569656
1.1570577
1.1571523
1.1572484
1.157345
1.1574404
1.1575327
1.1576187
1.1576949
1.1577562
1.1577966
1.1558718
1.1559232
1.1559763
1.1560315
1.1560887
1.1561483
1.1562103
1.156275
1.1563425
1.1564131
1.156487
1.1565643
1.1566452
1.1567298
1.1568181
1.1569103
1.157006
1.1571051
1.1572071
1.1573111
1.1574162
1.1575206
1.1576224
1.1577185
1.1578052
1.1578777
1.1579298
1.1558351
1.1558899
1.1559469
1.1560062
1.1560681
1.1561327
1.1562002
1.1562709
1.1563451
1.1564228
1.1565045
1.1565903
1.1566803
1.1567748
1.1568738
1.1569773
1.1570853
1.1571975
1.1573134
1.1574322
1.1575528
1.1576736
1.1577924
1.1579064
1.1580118
1.1581038
1.1581766
1.1557869
1.1558469
1.1559095
1.155975
1.1560437
1.1561156
1.1561912
1.1562707
1.1563543
1.1564424
1.1565352
1.1566329
1.1567358
1.156844
1.1569577
1.1570769
1.1572014
1.1573309
1.157465
1.1576028
1.157743
1.157884
1.1580235
1.1581586
1.1582856
1.1583997
1.1584958
1.1557361
1.1558028
1.1558728
1.1559463
1.1560236
1.156105
1.1561907
1.1562812
1.1563766
1.1564773
1.1565836
1.1566957
1.1568138
1.1569381
1.1570686
1.1572053
1.157348
1.1574961
1.1576491
1.157806
1.1579651
1.1581248
1.1582824
1.1584348
1.1585783
1.1587085
1.1588209
1.1556977
1.1557725
1.1558512
1.1559342
1.1560216
1.1561137
1.156211
1.1563136
1.156422
1.1565363
1.1566567
1.1567836
1.156917
1.1570569
1.1572033
1.157356
1.1575145
1.1576781
1.1578458
1.1580163
1.1581876
1.1583574
1.1585229
1.1586804
1.1588262
1.1589561
1.1590663
1.1530272
1.153076
1.1531254
1.1531754
1.153226
1.1532774
1.1533296
1.1533826
1.1534365
1.1534914
1.1535474
1.1536045
1.1536628
1.1537223
1.1537831
1.153845
1.153908
1.153972
1.1540367
1.1541017
1.1541664
1.1542299
1.1542911
1.1543483
1.1543996
1.1544423
1.1544729
1.1529759
1.1530264
1.1530775
1.1531295
1.1531824
1.1532361
1.1532909
1.1533467
1.1534037
1.153462
1.1535216
1.1535826
1.1536451
1.1537092
1.1537748
1.153842
1.1539107
1.1539807
1.1540519
1.1541237
1.1541955
1.1542667
1.1543359
1.1544017
1.1544619
1.1545139
1.1545543
1.1528823
1.1529361
1.1529909
1.1530469
1.1531041
1.1531626
1.1532226
1.1532841
1.1533472
1.1534121
1.1534788
1.1535475
1.1536183
1.1536912
1.1537664
1.1538437
1.1539232
1.1540047
1.1540879
1.1541725
1.1542579
1.1543432
1.1544273
1.1545086
1.1545853
1.1546546
1.1547134
1.1527654
1.1528242
1.1528846
1.1529466
1.1530103
1.1530759
1.1531435
1.1532133
1.1532853
1.1533598
1.1534368
1.1535166
1.1535991
1.1536845
1.1537728
1.1538641
1.1539582
1.1540551
1.1541544
1.1542557
1.1543584
1.1544617
1.1545644
1.1546652
1.1547622
1.1548531
1.1549355
1.1526499
1.1527155
1.1527831
1.1528529
1.1529251
1.1529999
1.1530772
1.1531575
1.1532407
1.153327
1.1534165
1.1535095
1.1536059
1.1537058
1.1538091
1.153916
1.1540261
1.1541394
1.1542554
1.1543736
1.1544935
1.154614
1.1547342
1.1548527
1.154968
1.1550783
1.1551823
1.1525683
1.1526419
1.1527181
1.1527972
1.1528792
1.1529642
1.1530525
1.1531441
1.1532392
1.1533378
1.1534401
1.1535461
1.1536558
1.1537691
1.153886
1.1540064
1.1541299
1.1542563
1.1543851
1.1545156
1.154647
1.1547785
1.1549088
1.1550367
1.1551607
1.1552796
1.1553924
1.1519815
1.15203
1.1520784
1.1521268
1.1521752
1.1522237
1.1522721
1.1523205
1.152369
1.1524175
1.152466
1.1525147
1.1525633
1.1526121
1.1526609
1.1527097
1.1527585
1.1528071
1.1528555
1.1529033
1.1529503
1.152996
1.1530397
1.1530806
1.1531175
1.153149
1.1531731
1.1519122
1.1519622
1.1520124
1.1520628
1.1521133
1.1521639
1.1522148
1.1522659
1.1523173
1.1523689
1.1524208
1.152473
1.1525256
1.1525784
1.1526317
1.1526852
1.152739
1.1527929
1.1528469
1.1529007
1.1529539
1.1530061
1.1530567
1.1531047
1.153149
1.1531882
1.1532203
1.1517863
1.1518396
1.1518934
1.1519476
1.1520023
1.1520575
1.1521134
1.1521698
1.1522269
1.1522848
1.1523433
1.1524027
1.1524629
1.1525239
1.1525857
1.1526484
1.1527119
1.152776
1.1528407
1.1529057
1.1529706
1.1530351
1.1530984
1.1531598
1.1532182
1.1532722
1.15332
1.15163
1.1516883
1.1517475
1.1518076
1.1518687
1.1519308
1.1519941
1.1520585
1.1521241
1.152191
1.1522593
1.1523289
1.1524
1.1524725
1.1525464
1.1526218
1.1526984
1.1527763
1.1528552
1.1529349
1.1530151
1.1530953
1.1531751
1.1532536
1.1533301
1.1534036
1.1534729
1.1514773
1.1515423
1.1516087
1.1516765
1.1517459
1.151817
1.1518897
1.1519642
1.1520405
1.1521187
1.1521988
1.1522808
1.1523647
1.1524505
1.1525382
1.1526276
1.1527186
1.152811
1.1529047
1.1529994
1.1530947
1.1531902
1.1532857
1.1533806
1.1534745
1.1535671
1.1536586
1.1513705
1.1514435
1.1515185
1.1515954
1.1516744
1.1517555
1.1518387
1.1519241
1.1520116
1.1521013
1.1521931
1.152287
1.1523829
1.1524807
1.1525802
1.1526813
1.1527838
1.1528875
1.152992
1.1530973
1.1532029
1.1533085
1.1534139
1.153519
1.1536235
1.1537276
1.1538321
1.15162
1.1516682
1.1517162
1.151764
1.1518114
1.1518585
1.1519052
1.1519516
1.1519976
1.1520432
1.1520884
1.1521331
1.1521774
1.1522213
1.1522646
1.1523074
1.1523496
1.1523912
1.152432
1.1524719
1.1525107
1.152548
1.1525835
1.1526167
1.1526467
1.1526727
1.1526934
1.1515422
1.1515921
1.1516418
1.1516914
1.1517409
1.1517902
1.1518393
1.1518883
1.151937
1.1519856
1.152034
1.1520822
1.1521301
1.1521779
1.1522254
1.1522726
1.1523195
1.152366
1.152412
1.1524573
1.1525017
1.1525449
1.1525866
1.152626
1.1526626
1.1526953
1.1527229
1.1514012
1.1514543
1.1515076
1.151561
1.1516146
1.1516683
1.1517223
1.1517764
1.1518308
1.1518853
1.1519401
1.1519951
1.1520504
1.1521058
1.1521614
1.1522173
1.1522732
1.1523291
1.152385
1.1524406
1.1524957
1.1525501
1.1526032
1.1526547
1.1527038
1.1527498
1.1527914
1.1512264
1.1512845
1.1513431
1.1514023
1.1514622
1.1515227
1.1515839
1.1516458
1.1517084
1.1517718
1.1518359
1.1519008
1.1519665
1.1520329
1.1521
1.1521677
1.152236
1.1523047
1.1523737
1.1524429
1.152512
1.1525807
1.1526488
1.1527158
1.1527815
1.1528453
1.1529068
1.1510559
1.1511206
1.1511865
1.1512534
1.1513215
1.1513908
1.1514613
1.1515331
1.1516061
1.1516804
1.151756
1.1518328
1.1519108
1.1519898
1.1520699
1.1521508
1.1522324
1.1523147
1.1523973
1.1524802
1.1525631
1.1526458
1.1527283
1.1528105
1.1528925
1.1529746
1.1530576
1.150937
1.1510098
1.1510842
1.1511601
1.1512377
1.1513169
1.1513977
1.1514801
1.151564
1.1516494
1.1517362
1.1518243
1.1519135
1.1520037
1.1520946
1.1521863
1.1522783
1.1523706
1.152463
1.1525554
1.1526476
1.1527396
1.1528315
1.1529237
1.1530165
1.1531109
1.1532082
1.1514978
1.151546
1.1515938
1.1516413
1.1516883
1.1517349
1.1517809
1.1518265
1.1518715
1.1519159
1.1519598
1.1520029
1.1520455
1.1520873
1.1521285
1.1521689
1.1522084
1.1522471
1.1522849
1.1523215
1.1523569
1.1523909
1.152423
1.1524529
1.15248
1.1525037
1.1525229
1.1514166
1.1514664
1.151516
1.1515653
1.1516143
1.151663
1.1517114
1.1517595
1.1518073
1.1518546
1.1519016
1.1519481
1.1519942
1.1520399
1.152085
1.1521297
1.1521738
1.1522172
1.1522599
1.1523017
1.1523425
1.152382
1.1524199
1.1524558
1.152489
1.1525189
1.1525445
1.1512693
1.1513223
1.1513754
1.1514285
1.1514816
1.1515348
1.151588
1.1516412
1.1516944
1.1517476
1.1518008
1.1518541
1.1519073
1.1519604
1.1520135
1.1520665
1.1521193
1.1521718
1.152224
1.1522757
1.1523267
1.1523767
1.1524256
1.1524728
1.1525178
1.1525601
1.1525988
1.1510867
1.1511447
1.1512031
1.151262
1.1513213
1.1513812
1.1514415
1.1515024
1.1515638
1.1516257
1.1516881
1.1517511
1.1518145
1.1518783
1.1519425
1.1520071
1.1520718
1.1521367
1.1522015
1.1522662
1.1523305
1.1523942
1.1524572
1.1525192
1.1525799
1.1526392
1.1526969
1.1509087
1.1509733
1.1510389
1.1511054
1.151173
1.1512416
1.1513112
1.1513818
1.1514535
1.1515262
1.1515999
1.1516745
1.1517499
1.1518261
1.1519029
1.1519803
1.1520579
1.1521358
1.1522136
1.1522913
1.1523688
1.1524459
1.1525226
1.152599
1.1526754
1.1527524
1.1528311
1.1507846
1.1508573
1.1509315
1.151007
1.151084
1.1511624
1.1512422
1.1513233
1.1514057
1.1514893
1.151574
1.1516596
1.1517459
1.1518328
1.1519202
1.1520077
1.1520953
1.1521827
1.1522697
1.1523564
1.1524426
1.1525284
1.1526142
1.1527002
1.1527874
1.1528768
1.15297
1.1514548
1.151503
1.1515507
1.1515981
1.151645
1.1516913
1.1517372
1.1517824
1.151827
1.151871
1.1519143
1.151957
1.1519988
1.15204
1.1520803
1.1521198
1.1521583
1.152196
1.1522325
1.152268
1.1523021
1.1523347
1.1523656
1.1523942
1.1524202
1.152443
1.1524616
1.1513723
1.151422
1.1514715
1.1515207
1.1515696
1.1516181
1.1516663
1.151714
1.1517614
1.1518082
1.1518547
1.1519006
1.151946
1.1519909
1.1520352
1.1520789
1.1521219
1.1521642
1.1522056
1.1522461
1.1522855
1.1523236
1.15236
1.1523945
1.1524265
1.1524552
1.15248
1.1512225
1.1512755
1.1513285
1.1513814
1.1514344
1.1514873
1.1515402
1.151593
1.1516458
1.1516986
1.1517512
1.1518038
1.1518562
1.1519085
1.1519606
1.1520125
1.1520641
1.1521153
1.1521661
1.1522163
1.1522657
1.1523141
1.1523612
1.1524067
1.1524501
1.1524909
1.1525284
1.1510367
1.1510947
1.151153
1.1512118
1.1512709
1.1513305
1.1513905
1.151451
1.1515119
1.1515733
1.1516351
1.1516972
1.1517598
1.1518226
1.1518857
1.151949
1.1520124
1.1520758
1.152139
1.1522019
1.1522643
1.1523261
1.152387
1.1524469
1.1525056
1.152563
1.1526191
1.1508556
1.1509202
1.1509857
1.1510521
1.1511195
1.1511878
1.151257
1.1513272
1.1513984
1.1514705
1.1515434
1.1516171
1.1516916
1.1517667
1.1518422
1.1519181
1.1519942
1.1520703
1.1521463
1.1522219
1.1522972
1.152372
1.1524463
1.1525203
1.1525944
1.1526692
1.1527459
1.1507295
1.1508022
1.1508762
1.1509516
1.1510283
1.1511064
1.1511858
1.1512665
1.1513483
1.1514311
1.151515
1.1515996
1.1516848
1.1517705
1.1518563
1.1519423
1.152028
1.1521134
1.1521983
1.1522827
1.1523664
1.1524497
1.1525329
1.1526164
1.152701
1.1527881
1.1528794
1.1514372
1.1514854
1.1515332
1.1515805
1.1516273
1.1516736
1.1517193
1.1517644
1.1518089
1.1518528
1.1518959
1.1519383
1.15198
1.1520208
1.1520609
1.1521
1.1521382
1.1521755
1.1522116
1.1522466
1.1522803
1.1523124
1.1523428
1.152371
1.1523966
1.152419
1.1524374
1.1513542
1.1514039
1.1514534
1.1515025
1.1515513
1.1515998
1.1516479
1.1516955
1.1517427
1.1517894
1.1518357
1.1518814
1.1519265
1.1519711
1.1520151
1.1520584
1.1521011
1.1521429
1.1521839
1.1522239
1.1522628
1.1523004
1.1523363
1.1523702
1.1524017
1.15243
1.1524545
1.1512034
1.1512564
1.1513093
1.1513622
1.1514151
1.151468
1.1515208
1.1515735
1.1516261
1.1516787
1.1517311
1.1517834
1.1518356
1.1518875
1.1519393
1.1519908
1.1520419
1.1520927
1.1521429
1.1521925
1.1522413
1.1522891
1.1523356
1.1523804
1.1524232
1.1524635
1.1525005
1.1510163
1.1510742
1.1511325
1.1511912
1.1512503
1.1513098
1.1513697
1.1514301
1.1514908
1.151552
1.1516135
1.1516754
1.1517376
1.1518001
1.1518628
1.1519256
1.1519885
1.1520513
1.1521139
1.1521761
1.1522378
1.1522988
1.152359
1.1524181
1.152476
1.1525327
1.1525881
1.1508339
1.1508984
1.1509639
1.1510302
1.1510975
1.1511657
1.1512348
1.1513049
1.1513758
1.1514477
1.1515203
1.1515937
1.1516678
1.1517425
1.1518175
1.1518929
1.1519684
1.1520438
1.1521191
1.1521939
1.1522683
1.1523422
1.1524156
1.1524887
1.1525619
1.1526357
1.1527116
1.1507068
1.1507795
1.1508535
1.1509288
1.1510054
1.1510834
1.1511627
1.1512431
1.1513247
1.1514073
1.1514908
1.151575
1.1516598
1.151745
1.1518303
1.1519156
1.1520007
1.1520853
1.1521694
1.1522528
1.1523356
1.1524179
1.1525
1.1525824
1.1526661
1.1527522
1.1528426
1.151428
1.1514762
1.1515239
1.1515712
1.151618
1.1516643
1.15171
1.1517551
1.1517995
1.1518433
1.1518864
1.1519287
1.1519703
1.152011
1.1520509
1.15209
1.1521281
1.1521652
1.1522012
1.152236
1.1522695
1.1523015
1.1523316
1.1523596
1.1523851
1.1524073
1.1524256
1.1513447
1.1513944
1.1514439
1.151493
1.1515418
1.1515902
1.1516383
1.1516859
1.151733
1.1517797
1.1518259
1.1518715
1.1519166
1.151961
1.1520049
1.1520481
1.1520906
1.1521323
1.1521731
1.152213
1.1522517
1.152289
1.1523247
1.1523584
1.1523897
1.1524179
1.1524422
1.1511934
1.1512464
1.1512993
1.1513522
1.1514051
1.1514579
1.1515107
1.1515633
1.1516159
1.1516684
1.1517207
1.151773
1.151825
1.1518769
1.1519285
1.1519798
1.1520308
1.1520814
1.1521315
1.1521808
1.1522294
1.1522769
1.1523232
1.1523678
1.1524103
1.1524504
1.1524872
1.1510056
1.1510636
1.1511219
1.1511805
1.1512396
1.1512991
1.1513589
1.1514192
1.1514799
1.1515409
1.1516024
1.1516642
1.1517263
1.1517886
1.1518511
1.1519138
1.1519765
1.1520391
1.1521014
1.1521634
1.1522248
1.1522855
1.1523453
1.1524041
1.1524618
1.1525182
1.1525733
1.1508225
1.1508871
1.1509525
1.1510188
1.1510861
1.1511542
1.1512233
1.1512933
1.1513641
1.1514359
1.1515084
1.1515817
1.1516556
1.1517301
1.151805
1.1518801
1.1519554
1.1520305
1.1521055
1.15218
1.1522541
1.1523276
1.1524006
1.1524733
1.1525461
1.1526196
1.1526952
1.1506949
1.1507676
1.1508416
1.1509169
1.1509935
1.1510714
1.1511506
1.151231
1.1513125
1.151395
1.1514783
1.1515624
1.151647
1.151732
1.1518171
1.1519021
1.1519869
1.1520712
1.1521549
1.1522379
1.1523203
1.1524022
1.1524838
1.1525658
1.1526491
1.1527348
1.1528248
1.1514217
1.1514699
1.1515176
1.1515649
1.1516117
1.151658
1.1517037
1.1517487
1.1517932
1.1518369
1.15188
1.1519223
1.1519638
1.1520045
1.1520444
1.1520834
1.1521214
1.1521585
1.1521944
1.1522292
1.1522626
1.1522945
1.1523246
1.1523525
1.1523779
1.1524001
1.1524184
1.1513383
1.151388
1.1514375
1.1514866
1.1515354
1.1515838
1.1516318
1.1516794
1.1517265
1.1517732
1.1518193
1.1518649
1.1519099
1.1519544
1.1519982
1.1520413
1.1520838
1.1521254
1.1521662
1.1522059
1.1522445
1.1522818
1.1523174
1.1523511
1.1523823
1.1524104
1.1524346
1.1511867
1.1512397
1.1512926
1.1513455
1.1513984
1.1514511
1.1515039
1.1515565
1.1516091
1.1516615
1.1517139
1.151766
1.151818
1.1518699
1.1519214
1.1519727
1.1520236
1.1520741
1.1521241
1.1521734
1.1522219
1.1522693
1.1523154
1.1523599
1.1524024
1.1524423
1.1524791
1.1509985
1.1510564
1.1511147
1.1511733
1.1512324
1.1512918
1.1513517
1.1514119
1.1514726
1.1515336
1.151595
1.1516567
1.1517188
1.1517811
1.1518435
1.1519061
1.1519687
1.1520312
1.1520934
1.1521553
1.1522166
1.1522772
1.1523369
1.1523955
1.1524531
1.1525093
1.1525644
1.1508148
1.1508794
1.1509448
1.1510111
1.1510784
1.1511465
1.1512155
1.1512855
1.1513563
1.151428
1.1515005
1.1515737
1.1516476
1.151722
1.1517968
1.1518718
1.1519469
1.152022
1.1520968
1.1521711
1.1522451
1.1523184
1.1523913
1.1524638
1.1525364
1.1526098
1.1526852
1.1506869
1.1507596
1.1508336
1.1509089
1.1509855
1.1510634
1.1511425
1.1512229
1.1513043
1.1513868
1.1514701
1.151554
1.1516386
1.1517234
1.1518084
1.1518933
1.1519779
1.152062
1.1521456
1.1522285
1.1523107
1.1523923
1.1524738
1.1525556
1.1526386
1.1527241
1.1528139
1.1514168
1.151465
1.1515127
1.15156
1.1516068
1.151653
1.1516987
1.1517438
1.1517882
1.151832
1.151875
1.1519173
1.1519588
1.1519995
1.1520394
1.1520783
1.1521164
1.1521534
1.1521893
1.152224
1.1522574
1.1522893
1.1523193
1.1523473
1.1523726
1.1523948
1.152413
1.1513332
1.151383
1.1514324
1.1514816
1.1515303
1.1515787
1.1516267
1.1516743
1.1517214
1.1517681
1.1518142
1.1518598
1.1519048
1.1519493
1.1519931
1.1520362
1.1520786
1.1521202
1.1521609
1.1522007
1.1522393
1.1522765
1.1523121
1.1523457
1.1523769
1.1524049
1.1524292
1.1511814
1.1512344
1.1512873
1.1513402
1.1513931
1.1514459
1.1514986
1.1515512
1.1516038
1.1516562
1.1517085
1.1517607
1.1518127
1.1518645
1.151916
1.1519673
1.1520182
1.1520687
1.1521186
1.1521678
1.1522163
1.1522637
1.1523097
1.1523542
1.1523967
1.1524366
1.1524733
1.1509929
1.1510508
1.1511091
1.1511677
1.1512268
1.1512862
1.151346
1.1514063
1.1514669
1.1515279
1.1515893
1.151651
1.151713
1.1517753
1.1518377
1.1519003
1.1519628
1.1520253
1.1520875
1.1521493
1.1522105
1.152271
1.1523307
1.1523893
1.1524468
1.152503
1.1525581
1.1508088
1.1508734
1.1509388
1.1510051
1.1510723
1.1511405
1.1512095
1.1512794
1.1513502
1.1514219
1.1514944
1.1515676
1.1516414
1.1517157
1.1517905
1.1518655
1.1519405
1.1520155
1.1520902
1.1521645
1.1522383
1.1523116
1.1523844
1.1524569
1.1525294
1.1526028
1.1526782
1.1506807
1.1507533
1.1508273
1.1509026
1.1509792
1.1510571
1.1511362
1.1512165
1.151298
1.1513804
1.1514636
1.1515476
1.151632
1.1517168
1.1518018
1.1518866
1.1519711
1.1520552
1.1521386
1.1522214
1.1523035
1.152385
1.1524664
1.1525481
1.152631
1.1527165
1.1528062
1.1514124
1.1514606
1.1515083
1.1515556
1.1516024
1.1516487
1.1516943
1.1517394
1.1517838
1.1518276
1.1518706
1.1519129
1.1519544
1.1519951
1.1520349
1.1520739
1.1521119
1.1521489
1.1521848
1.1522195
1.1522529
1.1522847
1.1523147
1.1523426
1.1523679
1.1523901
1.1524083
1.1513288
1.1513785
1.151428
1.1514771
1.1515259
1.1515743
1.1516223
1.1516698
1.151717
1.1517636
1.1518097
1.1518553
1.1519003
1.1519447
1.1519885
1.1520316
1.152074
1.1521156
1.1521563
1.152196
1.1522346
1.1522718
1.1523073
1.1523409
1.152372
1.1524001
1.1524243
1.1511768
1.1512297
1.1512827
1.1513355
1.1513884
1.1514412
1.1514939
1.1515465
1.1515991
1.1516515
1.1517038
1.151756
1.1518079
1.1518597
1.1519112
1.1519625
1.1520133
1.1520638
1.1521137
1.1521629
1.1522113
1.1522586
1.1523047
1.1523491
1.1523915
1.1524314
1.1524681
1.1509878
1.1510458
1.151104
1.1511627
1.1512217
1.1512812
1.151341
1.1514012
1.1514618
1.1515228
1.1515842
1.1516459
1.1517079
1.1517701
1.1518325
1.151895
1.1519575
1.1520199
1.1520821
1.1521438
1.152205
1.1522655
1.1523251
1.1523837
1.1524411
1.1524973
1.1525523
1.1508034
1.150868
1.1509334
1.1509997
1.1510669
1.151135
1.151204
1.151274
1.1513448
1.1514164
1.1514889
1.151562
1.1516358
1.1517101
1.1517848
1.1518597
1.1519347
1.1520096
1.1520842
1.1521585
1.1522322
1.1523054
1.1523781
1.1524505
1.152523
1.1525963
1.1526716
1.150675
1.1507477
1.1508216
1.1508969
1.1509735
1.1510514
1.1511305
1.1512108
1.1512922
1.1513746
1.1514578
1.1515417
1.1516261
1.1517109
1.1517957
1.1518804
1.1519649
1.1520489
1.1521322
1.1522149
1.1522969
1.1523783
1.1524596
1.1525412
1.152624
1.1527093
1.152799
1.1514091
1.1514573
1.151505
1.1515523
1.1515991
1.1516454
1.151691
1.1517361
1.1517805
1.1518243
1.1518673
1.1519096
1.1519511
1.1519918
1.1520317
1.1520706
1.1521086
1.1521456
1.1521816
1.1522163
1.1522497
1.1522815
1.1523115
1.1523395
1.1523648
1.1523869
1.1524052
1.1513254
1.1513751
1.1514246
1.1514737
1.1515225
1.1515709
1.1516189
1.1516665
1.1517136
1.1517602
1.1518064
1.1518519
1.151897
1.1519414
1.1519852
1.1520283
1.1520707
1.1521123
1.152153
1.1521927
1.1522313
1.1522685
1.1523041
1.1523377
1.1523688
1.1523969
1.1524212
1.1511732
1.1512262
1.1512791
1.151332
1.1513849
1.1514377
1.1514904
1.151543
1.1515956
1.151648
1.1517003
1.1517525
1.1518044
1.1518562
1.1519078
1.151959
1.1520099
1.1520603
1.1521102
1.1521595
1.1522079
1.1522552
1.1523013
1.1523458
1.1523882
1.1524281
1.1524649
1.1509841
1.151042
1.1511003
1.1511589
1.151218
1.1512774
1.1513372
1.1513975
1.1514581
1.1515191
1.1515804
1.1516421
1.1517041
1.1517664
1.1518288
1.1518913
1.1519538
1.1520162
1.1520783
1.1521401
1.1522013
1.1522618
1.1523214
1.15238
1.1524375
1.1524938
1.152549
1.1507993
1.1508639
1.1509293
1.1509956
1.1510628
1.1511309
1.1512
1.1512699
1.1513407
1.1514123
1.1514847
1.1515579
1.1516317
1.151706
1.1517806
1.1518555
1.1519305
1.1520054
1.15208
1.1521543
1.152228
1.1523012
1.1523739
1.1524464
1.1525189
1.1525923
1.1526679
1.1506707
1.1507434
1.1508173
1.1508926
1.1509692
1.1510471
1.1511262
1.1512065
1.1512879
1.1513702
1.1514534
1.1515373
1.1516217
1.1517065
1.1517913
1.151876
1.1519604
1.1520444
1.1521277
1.1522104
1.1522923
1.1523738
1.1524551
1.1525367
1.1526196
1.152705
1.1527948
1.1514062
1.1514544
1.1515022
1.1515495
1.1515963
1.1516425
1.1516882
1.1517333
1.1517777
1.1518215
1.1518645
1.1519068
1.1519483
1.1519891
1.1520289
1.1520679
1.1521059
1.152143
1.1521789
1.1522137
1.1522471
1.152279
1.152309
1.152337
1.1523623
1.1523845
1.1524028
1.1513225
1.1513722
1.1514217
1.1514708
1.1515196
1.151568
1.151616
1.1516636
1.1517107
1.1517574
1.1518035
1.1518491
1.1518942
1.1519386
1.1519824
1.1520256
1.152068
1.1521096
1.1521503
1.1521901
1.1522287
1.1522659
1.1523016
1.1523352
1.1523664
1.1523945
1.1524188
1.1511702
1.1512232
1.1512761
1.151329
1.1513819
1.1514347
1.1514874
1.15154
1.1515926
1.151645
1.1516973
1.1517495
1.1518015
1.1518533
1.1519049
1.1519561
1.152007
1.1520575
1.1521074
1.1521567
1.1522051
1.1522525
1.1522986
1.1523431
1.1523856
1.1524256
1.1524625
1.1509808
1.1510387
1.151097
1.1511557
1.1512147
1.1512742
1.151334
1.1513942
1.1514549
1.1515159
1.1515772
1.1516389
1.1517009
1.1517632
1.1518256
1.1518881
1.1519507
1.1520131
1.1520752
1.152137
1.1521983
1.1522588
1.1523185
1.1523771
1.1524347
1.1524911
1.1525463
1.1507958
1.1508604
1.1509258
1.1509921
1.1510593
1.1511274
1.1511964
1.1512664
1.1513372
1.1514088
1.1514812
1.1515544
1.1516282
1.1517025
1.1517771
1.1518521
1.151927
1.1520019
1.1520766
1.1521508
1.1522246
1.1522978
1.1523706
1.1524431
1.1525157
1.1525892
1.1526648
1.150667
1.1507397
1.1508136
1.1508889
1.1509655
1.1510434
1.1511225
1.1512028
1.1512842
1.1513665
1.1514497
1.1515336
1.151618
1.1517027
1.1517876
1.1518723
1.1519567
1.1520406
1.152124
1.1522066
1.1522886
1.1523701
1.1524514
1.1525331
1.152616
1.1527015
1.1527914
1.1514017
1.1514499
1.1514976
1.1515449
1.1515916
1.1516379
1.1516835
1.1517286
1.151773
1.1518167
1.1518596
1.1519019
1.1519433
1.1519839
1.1520237
1.1520625
1.1521005
1.1521373
1.1521731
1.1522077
1.152241
1.1522726
1.1523026
1.1523303
1.1523555
1.1523776
1.1523958
1.1513178
1.1513675
1.151417
1.1514661
1.1515148
1.1515632
1.1516112
1.1516587
1.1517058
1.1517524
1.1517985
1.151844
1.151889
1.1519333
1.151977
1.15202
1.1520623
1.1521038
1.1521443
1.1521839
1.1522223
1.1522594
1.1522948
1.1523283
1.1523593
1.1523873
1.1524115
1.1511652
1.1512182
1.1512711
1.151324
1.1513768
1.1514296
1.1514822
1.1515348
1.1515873
1.1516397
1.151692
1.1517441
1.151796
1.1518476
1.1518991
1.1519502
1.1520009
1.1520512
1.152101
1.15215
1.1521983
1.1522455
1.1522914
1.1523357
1.152378
1.1524179
1.1524547
1.1509754
1.1510333
1.1510915
1.1511502
1.1512092
1.1512686
1.1513284
1.1513886
1.1514492
1.1515101
1.1515714
1.151633
1.1516949
1.151757
1.1518192
1.1518816
1.1519439
1.1520061
1.1520681
1.1521297
1.1521907
1.1522509
1.1523104
1.1523688
1.1524262
1.1524825
1.1525378
1.1507899
1.1508544
1.1509199
1.1509861
1.1510533
1.1511214
1.1511904
1.1512602
1.1513309
1.1514025
1.1514748
1.1515479
1.1516215
1.1516957
1.1517702
1.1518449
1.1519196
1.1519943
1.1520687
1.1521426
1.1522161
1.1522891
1.1523616
1.1524338
1.1525063
1.1525797
1.1526554
1.1506608
1.1507334
1.1508073
1.1508826
1.1509592
1.151037
1.1511161
1.1511963
1.1512776
1.1513599
1.1514429
1.1515267
1.1516109
1.1516955
1.1517801
1.1518646
1.1519487
1.1520324
1.1521154
1.1521977
1.1522794
1.1523606
1.1524416
1.1525231
1.1526059
1.1526913
1.1527813
1.1514004
1.1514486
1.1514963
1.1515436
1.1515904
1.1516367
1.1516823
1.1517274
1.1517718
1.1518155
1.1518586
1.1519008
1.1519423
1.151983
1.1520229
1.1520618
1.1520998
1.1521368
1.1521727
1.1522074
1.1522407
1.1522725
1.1523026
1.1523305
1.1523558
1.152378
1.1523963
1.1513165
1.1513663
1.1514157
1.1514648
1.1515136
1.151562
1.15161
1.1516576
1.1517047
1.1517513
1.1517974
1.151843
1.151888
1.1519324
1.1519762
1.1520193
1.1520616
1.1521032
1.1521439
1.1521836
1.1522222
1.1522594
1.152295
1.1523286
1.1523598
1.1523879
1.1524123
1.1511639
1.1512168
1.1512698
1.1513226
1.1513755
1.1514283
1.151481
1.1515336
1.1515861
1.1516386
1.1516908
1.151743
1.1517949
1.1518467
1.1518982
1.1519494
1.1520002
1.1520507
1.1521005
1.1521497
1.1521981
1.1522455
1.1522916
1.1523361
1.1523786
1.1524187
1.1524558
1.1509739
1.1510318
1.1510901
1.1511487
1.1512077
1.1512672
1.151327
1.1513872
1.1514478
1.1515087
1.1515701
1.1516317
1.1516937
1.1517558
1.1518182
1.1518806
1.151943
1.1520054
1.1520674
1.1521291
1.1521903
1.1522508
1.1523104
1.1523691
1.1524267
1.1524833
1.152539
1.1507882
1.1508527
1.1509181
1.1509844
1.1510516
1.1511197
1.1511887
1.1512586
1.1513293
1.1514009
1.1514733
1.1515464
1.15162
1.1516942
1.1517688
1.1518436
1.1519184
1.1519932
1.1520677
1.1521418
1.1522154
1.1522885
1.1523612
1.1524337
1.1525065
1.1525802
1.1526563
1.1506589
1.1507315
1.1508055
1.1508807
1.1509573
1.1510351
1.1511142
1.1511945
1.1512758
1.1513581
1.1514412
1.151525
1.1516093
1.1516939
1.1517785
1.1518631
1.1519473
1.1520311
1.1521142
1.1521966
1.1522785
1.1523599
1.1524411
1.1525228
1.1526059
1.1526916
1.152782
1.1513989
1.1514471
1.1514948
1.1515421
1.1515889
1.1516351
1.1516808
1.1517259
1.1517703
1.1518141
1.1518571
1.1518994
1.1519409
1.1519816
1.1520215
1.1520604
1.1520984
1.1521354
1.1521714
1.1522061
1.1522394
1.1522713
1.1523013
1.1523293
1.1523546
1.1523768
1.1523951
1.151315
1.1513647
1.1514142
1.1514633
1.1515121
1.1515605
1.1516085
1.1516561
1.1517032
1.1517498
1.151796
1.1518415
1.1518866
1.151931
1.1519748
1.1520179
1.1520603
1.1521019
1.1521426
1.1521823
1.1522209
1.1522581
1.1522937
1.1523273
1.1523585
1.1523866
1.152411
1.1511623
1.1512153
1.1512682
1.1513211
1.1513739
1.1514267
1.1514794
1.1515321
1.1515846
1.151637
1.1516894
1.1517415
1.1517935
1.1518453
1.1518968
1.151948
1.1519989
1.1520493
1.1520992
1.1521484
1.1521968
1.1522442
1.1522903
1.1523348
1.1523773
1.1524175
1.1524545
1.1509722
1.1510301
1.1510883
1.151147
1.151206
1.1512655
1.1513253
1.1513855
1.1514461
1.1515071
1.1515685
1.1516301
1.1516921
1.1517543
1.1518167
1.1518792
1.1519416
1.152004
1.1520661
1.1521278
1.152189
1.1522495
1.1523092
1.1523679
1.1524256
1.1524822
1.1525378
1.1507862
1.1508508
1.1509162
1.1509825
1.1510497
1.1511178
1.1511868
1.1512567
1.1513275
1.1513991
1.1514715
1.1515446
1.1516183
1.1516925
1.1517671
1.1518419
1.1519168
1.1519916
1.1520662
1.1521403
1.152214
1.1522872
1.15236
1.1524325
1.1525053
1.1525791
1.1526553
1.1506568
1.1507295
1.1508034
1.1508787
1.1509553
1.1510331
1.1511122
1.1511925
1.1512738
1.1513561
1.1514393
1.1515231
1.1516074
1.151692
1.1517767
1.1518613
1.1519456
1.1520294
1.1521126
1.1521951
1.152277
1.1523585
1.1524398
1.1525215
1.1526046
1.1526904
1.1527808
1.1513972
1.1514454
1.1514932
1.1515405
1.1515872
1.1516335
1.1516792
1.1517243
1.1517687
1.1518124
1.1518555
1.1518978
1.1519393
1.15198
1.1520199
1.1520588
1.1520969
1.1521339
1.1521698
1.1522045
1.1522379
1.1522697
1.1522998
1.1523277
1.152353
1.1523752
1.1523936
1.1513133
1.1513631
1.1514125
1.1514617
1.1515104
1.1515588