/*--------------------------------*- C++ -*----------------------------------*\
| =========                 |                                                 |
| \\      /  F ield         | OpenFOAM: The Open Source CFD Toolbox           |
|  \\    /   O peration     | Version:  4.0                                   |
|   \\  /    A nd           | Web:      www.OpenFOAM.org                      |
|    \\/     M anipulation  |                                                 |
\*---------------------------------------------------------------------------*/
FoamFile
{
    version     2.0;
    format      ascii;
    class       volScalarField;
    location    "2000";
    object      rho;
}
// * * * * * * * * * * * * * * * * * * * * * * * * * * * * * * * * * * * * * //

dimensions      [1 -3 0 0 0 0 0];

internalField   nonuniform List<scalar> 
324000
(
0.76550789
0.76574527
0.76598082
0.76621421
0.76644542
0.76667427
0.7669006
0.76712421
0.76734495
0.76756264
0.76777712
0.76798822
0.7681958
0.76839971
0.76860037
0.76879696
0.76898925
0.76917694
0.76935963
0.76953699
0.769708
0.76987135
0.77002711
0.77017186
0.77030314
0.77041808
0.77051246
0.76510751
0.76535215
0.76559562
0.76583798
0.76607895
0.76631839
0.76655618
0.7667922
0.76702633
0.76725844
0.76748843
0.76771615
0.76794152
0.76816432
0.76838504
0.76860283
0.76881746
0.76902861
0.76923708
0.76944173
0.76964043
0.76983273
0.77001497
0.77018707
0.77034645
0.77048881
0.77061001
0.76437869
0.76463928
0.76490032
0.76516159
0.76542299
0.7656844
0.7659457
0.76620669
0.76646907
0.76673156
0.7669935
0.76725585
0.76751762
0.76777998
0.76803778
0.7682973
0.76855662
0.76881375
0.76906962
0.76931508
0.7695619
0.76980341
0.77003821
0.77026397
0.77047858
0.77067916
0.770862
0.76350628
0.76378938
0.76407439
0.76436159
0.76465111
0.76494311
0.76523771
0.76553512
0.76583332
0.76613522
0.76644035
0.76674741
0.76705733
0.76736839
0.76768496
0.76800049
0.76831679
0.76863564
0.76895303
0.76926729
0.76958034
0.76989037
0.77019836
0.77049022
0.77077737
0.77105869
0.77133319
0.76263145
0.76294731
0.76326786
0.76359322
0.76392355
0.76425895
0.76459951
0.76494526
0.76529602
0.76565188
0.76601235
0.76637735
0.76674648
0.7671193
0.76749536
0.76787257
0.76825128
0.76862974
0.76900731
0.76939428
0.76975876
0.7701247
0.77049285
0.77085926
0.77123204
0.77161322
0.77200877
0.76203715
0.76239192
0.7627537
0.76312259
0.76349862
0.76388171
0.76427173
0.76466842
0.76507143
0.76547827
0.76588969
0.76630491
0.76672297
0.76714268
0.7675627
0.76798293
0.76840073
0.76881538
0.76922469
0.76962877
0.77004708
0.77046335
0.7708777
0.7713161
0.7717669
0.77224173
0.77275841
0.76540852
0.76564618
0.76588201
0.76611586
0.76634754
0.76657688
0.76680371
0.76702785
0.76724913
0.76746738
0.76768242
0.76789409
0.76810222
0.76830665
0.76850718
0.76870362
0.76889572
0.76908316
0.76926553
0.76944228
0.76961268
0.76977572
0.76993007
0.77007387
0.77020327
0.77031705
0.7704114
0.76500724
0.76525249
0.76549661
0.76573946
0.76598094
0.76622091
0.76645927
0.76669588
0.76693063
0.7671634
0.76739321
0.76762071
0.76784577
0.76806825
0.76828796
0.7685047
0.7687182
0.76892813
0.76913402
0.76933528
0.76953109
0.76972038
0.76990171
0.77007325
0.77023098
0.77037349
0.77049639
0.76428257
0.76454271
0.76480303
0.76506349
0.76532406
0.7655847
0.76584537
0.76610601
0.76636656
0.76662704
0.76688694
0.76714661
0.76740585
0.76766451
0.7679224
0.76817926
0.76843475
0.76868845
0.7689398
0.76918806
0.76943231
0.76967135
0.76990366
0.77012746
0.77034375
0.77054587
0.77073036
0.76337833
0.76366171
0.76394726
0.76423502
0.76452503
0.76481735
0.76511199
0.76540895
0.76570822
0.76600973
0.7663148
0.76662202
0.76693122
0.76724215
0.76755453
0.76786794
0.76818193
0.76849593
0.76880927
0.7691212
0.76943087
0.76973737
0.77003975
0.77033694
0.77062772
0.77090794
0.77121238
0.76249423
0.76280959
0.7631296
0.76345438
0.76378405
0.76411869
0.76445837
0.76480306
0.76515273
0.76550723
0.76586635
0.76622979
0.76659713
0.76696788
0.76734147
0.76771722
0.76809442
0.7684723
0.76885008
0.76922702
0.7696024
0.76997559
0.77034584
0.77071193
0.77111167
0.77153197
0.7719288
0.7618707
0.76222485
0.76258592
0.76295398
0.76332902
0.76371098
0.76409971
0.76449496
0.76489638
0.7653035
0.76571579
0.76613257
0.76655311
0.7669766
0.76740221
0.76782911
0.7682566
0.76868415
0.76911158
0.76953928
0.76996853
0.77040204
0.77084491
0.77130634
0.77175366
0.77221723
0.77270898
0.76538372
0.76562098
0.76585637
0.76608975
0.76632091
0.76654971
0.76677595
0.76699947
0.76722009
0.76743766
0.76765161
0.76786216
0.76806915
0.76827241
0.76847177
0.76866703
0.76885794
0.7690442
0.76922541
0.76940103
0.7695703
0.76973224
0.76988546
0.77002813
0.77015973
0.77027673
0.77037335
0.76498328
0.76522754
0.76547058
0.76571227
0.76595248
0.76619107
0.76642791
0.76666286
0.76689578
0.76712653
0.76735626
0.76758365
0.7678086
0.76803095
0.76825055
0.76846724
0.76868078
0.76889088
0.76909715
0.76929905
0.76949586
0.7696866
0.76986995
0.77004409
0.77020859
0.77035687
0.77048683
0.76425282
0.76451291
0.76477319
0.76503359
0.76529408
0.76555461
0.76581515
0.76607564
0.76633605
0.76659625
0.7668566
0.7671166
0.76737624
0.76763541
0.76789398
0.76815176
0.76840851
0.76866391
0.76891754
0.76916884
0.76941712
0.76966149
0.76990085
0.77013391
0.77035502
0.77056611
0.77076485
0.7633629
0.7636469
0.76393308
0.76422154
0.76451235
0.76480558
0.7651013
0.76539954
0.76570036
0.76600376
0.7663083
0.76661523
0.76692443
0.7672357
0.7675488
0.7678634
0.76817907
0.76849531
0.76881148
0.7691269
0.76944079
0.76975232
0.77006069
0.77036519
0.77066552
0.77096196
0.77125618
0.7625053
0.76282091
0.76314119
0.76346629
0.76379636
0.76413152
0.76447183
0.76481733
0.76516796
0.76552361
0.7658841
0.76624914
0.76661836
0.76699128
0.76736731
0.76774575
0.76812584
0.76850675
0.76888763
0.76926772
0.76964636
0.7700232
0.77039833
0.77077252
0.77114757
0.77152655
0.77191503
0.76191959
0.76227395
0.76263541
0.7630041
0.76338003
0.76376318
0.76415341
0.76455048
0.76495402
0.76536358
0.76577856
0.76619822
0.76662174
0.76704818
0.76747654
0.76790575
0.7683348
0.76876272
0.76918873
0.76961229
0.77003326
0.770452
0.77086955
0.77128774
0.77170928
0.77213798
0.77257857
0.76535564
0.76559325
0.76582901
0.76606276
0.76629433
0.76652354
0.76675021
0.76697417
0.76719524
0.76741326
0.76762805
0.76783945
0.76804729
0.7682514
0.76845159
0.76864764
0.76883929
0.76902619
0.76920794
0.76938401
0.76955369
0.76971601
0.76986969
0.77001303
0.77014379
0.77025905
0.7703532
0.76495247
0.76519766
0.76544167
0.7656844
0.76592571
0.76616548
0.76640357
0.76663987
0.76687424
0.76710655
0.76733669
0.76756454
0.76778996
0.76801283
0.768233
0.76845031
0.76866455
0.76887317
0.7690778
0.76927784
0.76947252
0.76966076
0.76984118
0.77001195
0.77017066
0.77031426
0.77043676
0.76422857
0.76448899
0.76474961
0.76500992
0.7652703
0.76553071
0.76579111
0.76605143
0.76631163
0.76657164
0.76683139
0.76709077
0.76734968
0.76760797
0.76786545
0.76812191
0.76837718
0.76862965
0.76888008
0.7691276
0.76937132
0.76961008
0.76984245
0.77006653
0.77027985
0.77047908
0.77066377
0.76332564
0.76360894
0.76389438
0.76418197
0.76447184
0.76476401
0.76505848
0.76535528
0.76565439
0.76595576
0.7662593
0.76656487
0.76687228
0.76718123
0.76749138
0.76780225
0.76811323
0.76842751
0.76874101
0.76905303
0.7693628
0.76966949
0.76997223
0.77027009
0.77056215
0.77084742
0.77112461
0.76243671
0.76275154
0.76307092
0.76339556
0.76372502
0.76405938
0.76439869
0.76474292
0.76509201
0.76544579
0.76580405
0.76616646
0.76653263
0.76690207
0.76727422
0.76764845
0.76802414
0.76840062
0.76877706
0.76915286
0.76952762
0.76990125
0.77027418
0.77064756
0.7710236
0.77140601
0.77180053
0.7618104
0.76216443
0.76252532
0.76289312
0.76326782
0.76364934
0.76403751
0.76443207
0.76483265
0.76523877
0.76564984
0.76606519
0.76648403
0.7669055
0.76732871
0.76775274
0.76817675
0.7686
0.76902198
0.76944254
0.76986212
0.77028198
0.77070462
0.77113434
0.77157818
0.77204733
0.77255957
0.76534881
0.76558617
0.76582153
0.76605484
0.76628592
0.7665146
0.76674069
0.76696403
0.76718443
0.76740173
0.76761575
0.76782634
0.76803333
0.76823657
0.7684359
0.76863113
0.76882205
0.76900841
0.76918985
0.76936475
0.76953339
0.76969475
0.76984745
0.76999148
0.77012266
0.77023932
0.77033571
0.76495266
0.76519652
0.76543974
0.76568134
0.76592148
0.76616003
0.76639685
0.7666318
0.76686475
0.76709557
0.76732414
0.76755031
0.76777395
0.76799491
0.768213
0.76842799
0.76863959
0.76884968
0.76905574
0.76925831
0.76945561
0.76964666
0.76983009
0.77000595
0.7701701
0.77031822
0.7704481
0.76421861
0.76447865
0.7647386
0.76499898
0.76525942
0.76551989
0.76578034
0.76604074
0.76630104
0.76656117
0.76682109
0.76708073
0.76733999
0.76759877
0.76785694
0.7681143
0.76837045
0.76862629
0.76888004
0.76913143
0.76937977
0.76962422
0.76986374
0.77009324
0.7703147
0.77052598
0.77072484
0.76332525
0.7636092
0.76389532
0.76418371
0.76447442
0.76476752
0.76506306
0.76536108
0.76566161
0.76596463
0.76627013
0.76657805
0.76688827
0.76720064
0.76751497
0.76783099
0.7681484
0.76846293
0.76877762
0.76909171
0.76940441
0.76971486
0.77002222
0.77032584
0.77062548
0.77092142
0.77121533
0.76247044
0.76278602
0.76310624
0.76343129
0.7637613
0.76409638
0.76443661
0.76478202
0.76513256
0.76548814
0.76584855
0.76621353
0.76658268
0.7669555
0.7673314
0.76770963
0.76808939
0.76846981
0.7688501
0.76922948
0.76960736
0.76998338
0.77035769
0.77073107
0.77110535
0.77148374
0.77187207
0.76188536
0.76223967
0.76260106
0.76296966
0.76334549
0.76372852
0.7641186
0.76451549
0.76491883
0.76532816
0.76574287
0.76616224
0.76658542
0.76701147
0.76743938
0.76786808
0.76829653
0.76872378
0.76914902
0.76957173
0.76999177
0.77040952
0.77082607
0.77124331
0.77166411
0.77209236
0.77253279
0.76533807
0.76557566
0.7658114
0.76604513
0.76627667
0.76650584
0.76673248
0.7669564
0.76717743
0.76739541
0.76761016
0.76782152
0.76802933
0.76823342
0.7684336
0.76862968
0.76882141
0.76900847
0.76919047
0.76936684
0.76953686
0.76969947
0.76985345
0.76999716
0.77012845
0.77024113
0.77033503
0.76493411
0.76517903
0.76542304
0.76566574
0.76590701
0.76614673
0.76638475
0.76662096
0.76685522
0.7670874
0.76731738
0.76754503
0.76777021
0.76799277
0.76821256
0.76842939
0.76864301
0.76885314
0.76905936
0.76926118
0.76945792
0.76964495
0.76982423
0.76999387
0.77015149
0.77029346
0.77041613
0.76421013
0.76447046
0.76473109
0.76499184
0.76525272
0.76551306
0.76577336
0.7660336
0.76629369
0.76655359
0.7668132
0.76707244
0.76733118
0.76758928
0.76784655
0.76810274
0.76835754
0.76861054
0.76886121
0.76910888
0.76935294
0.76959022
0.76982152
0.77004456
0.77025679
0.77045896
0.77064304
0.76330944
0.7635931
0.76387847
0.76416602
0.76445585
0.7647479
0.76504234
0.76533911
0.7656382
0.76593957
0.76624314
0.76654878
0.76685629
0.76716545
0.76747591
0.76778726
0.768099
0.7684105
0.768721
0.76902961
0.76933521
0.76964299
0.76994652
0.77024498
0.77053757
0.77082334
0.77110057
0.76242088
0.7627357
0.76305504
0.76337903
0.76370775
0.76404212
0.76438142
0.76472562
0.76507464
0.76542834
0.76578647
0.76614872
0.76651468
0.76688384
0.76725561
0.76762934
0.76800433
0.76837985
0.76875526
0.76913006
0.76950404
0.7698773
0.7702499
0.77062298
0.77099873
0.77138083
0.771775
0.76179368
0.76214768
0.76250852
0.76287625
0.76325085
0.76363226
0.7640203
0.76441469
0.76481508
0.76522097
0.76563178
0.76604682
0.7664653
0.76688635
0.76730907
0.76773256
0.76815594
0.76857851
0.76899979
0.76941966
0.76983859
0.77025785
0.77067989
0.77110903
0.77155227
0.77202079
0.77253235
0.76534212
0.7655792
0.76581441
0.76604756
0.76627849
0.76650702
0.76673297
0.76695617
0.76717643
0.7673936
0.7676075
0.76781797
0.76802485
0.76822797
0.76842716
0.76862222
0.76881291
0.76899892
0.76917987
0.76935521
0.76952421
0.76968587
0.76983884
0.76998133
0.77011281
0.77022828
0.770325
0.76493773
0.76518209
0.76542552
0.76566762
0.76590827
0.76614734
0.7663847
0.76662021
0.76685375
0.7670852
0.76731444
0.76754134
0.76776578
0.76798762
0.76820672
0.76842291
0.76863595
0.76884556
0.76905134
0.76925275
0.76944908
0.76963934
0.76982221
0.76999585
0.77015984
0.77030915
0.77043868
0.76420858
0.76446861
0.76472891
0.7649893
0.76524977
0.76551027
0.76577077
0.76603122
0.76629156
0.76655175
0.76681173
0.76707143
0.76733076
0.76758962
0.76784786
0.76810532
0.76836173
0.7686168
0.76887008
0.76912103
0.76936896
0.76961299
0.76985204
0.77008482
0.77030575
0.77051673
0.77071542
0.76331866
0.7636026
0.7638883
0.76417623
0.76446647
0.76475907
0.7650541
0.76535158
0.76565152
0.76595393
0.76625876
0.76656592
0.76687529
0.76718669
0.76749986
0.76781446
0.76813008
0.7684462
0.76876222
0.76907744
0.7693911
0.7697024
0.77001056
0.77031489
0.77061512
0.77091159
0.77120599
0.76245868
0.76277424
0.76309443
0.76341945
0.76374941
0.76408444
0.76442461
0.76476994
0.76512039
0.76547586
0.76583615
0.76620099
0.76657
0.76694268
0.76731846
0.76769663
0.76807643
0.76845703
0.76883759
0.76921734
0.76959566
0.76997219
0.77034705
0.77072105
0.771096
0.77147514
0.77186432
0.76187336
0.76222765
0.76258903
0.76295761
0.76333343
0.76371644
0.7641065
0.76450337
0.7649067
0.76531602
0.76573072
0.76615009
0.76657328
0.76699937
0.76742734
0.76785614
0.76828474
0.7687122
0.76913772
0.76956079
0.76998127
0.77039957
0.77081675
0.77123475
0.77165645
0.77208576
0.77252747
0.76534198
0.76557942
0.76581514
0.76604884
0.76628037
0.76650955
0.76673619
0.76696011
0.76718115
0.76739913
0.76761387
0.76782522
0.76803302
0.76823708
0.76843722
0.76863324
0.76882489
0.76901183
0.76919365
0.76936977
0.76953944
0.7697017
0.76985528
0.76999849
0.77012911
0.77024425
0.77033835
0.76493834
0.76518366
0.76542768
0.76567041
0.76591169
0.7661514
0.76638943
0.76662563
0.76685989
0.76709208
0.76732207
0.76754973
0.76777494
0.76799756
0.76821744
0.76843441
0.76864825
0.76885874
0.76906556
0.76926544
0.76945976
0.76964756
0.7698275
0.76999782
0.77015615
0.77029948
0.77042182
0.76421587
0.76447628
0.76473647
0.76499677
0.76525713
0.76551751
0.76577786
0.76603813
0.76629826
0.76655819
0.76681783
0.76707709
0.76733586
0.767594
0.76785131
0.76810757
0.76836247
0.76861563
0.76886677
0.76911365
0.76935682
0.76959511
0.76982709
0.77005088
0.77026402
0.77046321
0.77064801
0.76331354
0.76359687
0.76388227
0.7641699
0.76445977
0.76475191
0.76504637
0.76534315
0.76564225
0.76594362
0.76624717
0.76655277
0.76686023
0.7671693
0.76747962
0.76779076
0.76810215
0.76841306
0.76872257
0.76903446
0.76934423
0.76965111
0.76995409
0.77025223
0.77054459
0.77083022
0.77110789
0.76242376
0.76273857
0.76305844
0.763383
0.76371239
0.76404666
0.76438587
0.76473
0.76507896
0.7654326
0.76579069
0.76615292
0.76651887
0.76688805
0.76725986
0.76763366
0.76800876
0.76838447
0.7687602
0.76913555
0.76951014
0.76988363
0.77025648
0.77062986
0.77100601
0.77138867
0.77178364
0.76179701
0.76215102
0.76251189
0.76287964
0.76325429
0.76363574
0.76402382
0.76441827
0.76481872
0.76522469
0.76563558
0.76605072
0.76646931
0.76689049
0.76731337
0.76773703
0.76816064
0.76858346
0.76900504
0.76942526
0.76984457
0.77026421
0.77068671
0.77111639
0.77156031
0.77202971
0.7725424
0.76533542
0.76557275
0.76580848
0.76604211
0.76627346
0.76650225
0.76672859
0.76695262
0.76717372
0.76739179
0.76760645
0.76781772
0.76802552
0.76822923
0.76842898
0.76862462
0.76881504
0.76900079
0.7691815
0.76935669
0.76952572
0.76968764
0.76984112
0.76998438
0.77011346
0.77022822
0.77032484
0.76493215
0.76517756
0.76542132
0.76566403
0.76590565
0.76614598
0.76638434
0.76662024
0.76685428
0.7670862
0.76731648
0.76754452
0.76776998
0.76799229
0.76820994
0.76842486
0.76863592
0.76884366
0.76904753
0.76924688
0.76944417
0.76963528
0.76981886
0.76999313
0.77015731
0.77030534
0.77043673
0.76423597
0.76449371
0.76475144
0.76500911
0.76526664
0.76552398
0.7657818
0.76603939
0.76629666
0.76655353
0.76680991
0.76706566
0.76732061
0.76757714
0.76783596
0.76809365
0.76835176
0.76860823
0.76886263
0.76911419
0.76936395
0.76960898
0.76984853
0.77008131
0.77030579
0.77052
0.77071791
0.76331352
0.76359745
0.76388357
0.76417191
0.76446255
0.76475548
0.7650509
0.76534865
0.76564884
0.76595146
0.7662565
0.76656391
0.76687362
0.76718554
0.76749943
0.767815
0.7681319
0.76844966
0.76876778
0.76908576
0.76939737
0.7697072
0.77001438
0.77031819
0.77061821
0.77091453
0.77120872
0.76245811
0.76277411
0.76309482
0.76342043
0.76375107
0.76408688
0.76442693
0.76477216
0.76512254
0.76547796
0.76583823
0.76620309
0.76657217
0.76694498
0.76732093
0.76769934
0.76807942
0.76846033
0.76884116
0.76922105
0.76959936
0.76997581
0.77035056
0.77072445
0.77109929
0.77147832
0.77186735
0.761875
0.7622293
0.76259071
0.76295933
0.76333519
0.76371825
0.76410837
0.76450531
0.76490872
0.76531812
0.76573291
0.76615238
0.76657568
0.76700189
0.76742999
0.76785893
0.76828767
0.76871527
0.76914091
0.76956409
0.76998465
0.77040301
0.77082025
0.77123832
0.77166013
0.77208964
0.7725317
0.76534992
0.76558751
0.76582326
0.76605697
0.76628849
0.76651763
0.76674397
0.76696756
0.76718824
0.76740583
0.76762018
0.76783113
0.7680385
0.76824213
0.76844185
0.76863746
0.76882872
0.76901533
0.76919693
0.769373
0.76954283
0.76970538
0.76985815
0.77000065
0.7701305
0.7702448
0.77033998
0.76495146
0.76519641
0.76544018
0.76568266
0.76592373
0.76616236
0.76639785
0.76663134
0.76686386
0.76709568
0.76732526
0.76755248
0.76777718
0.7679992
0.76821835
0.76843437
0.76864696
0.7688557
0.76906001
0.76926211
0.76945857
0.76964845
0.76983173
0.77000545
0.77016261
0.77030454
0.77042704
0.76421276
0.7644717
0.76473183
0.76499088
0.76524974
0.76551004
0.76577229
0.76603503
0.76629596
0.76655703
0.76681776
0.76707812
0.76733803
0.76759738
0.76785605
0.76811388
0.76837069
0.76862629
0.76887574
0.7691235
0.76936708
0.76960582
0.76983842
0.77006349
0.77027591
0.77047578
0.77065841
0.76330322
0.76358862
0.76387516
0.76416523
0.76445727
0.76475149
0.76504848
0.76534761
0.7656495
0.76595102
0.76625492
0.76656105
0.76686921
0.76717918
0.76749068
0.76780339
0.76811692
0.76843126
0.76874419
0.7690519
0.76935776
0.76966073
0.76995953
0.77025264
0.77054685
0.77083378
0.77111211
0.762435
0.76274977
0.76306907
0.76339309
0.76372201
0.76405591
0.76439473
0.76473846
0.76508699
0.76544018
0.76579778
0.76615946
0.76652477
0.76689315
0.76726392
0.76763626
0.76800917
0.76838144
0.76875882
0.76913516
0.76951035
0.76988422
0.77025733
0.77063119
0.7710084
0.77139199
0.77178781
0.76180114
0.76215479
0.76251522
0.76288247
0.76325719
0.7636387
0.76402683
0.76442131
0.76482175
0.76522767
0.76563848
0.76605347
0.76647185
0.76689275
0.76731527
0.76773852
0.7681617
0.76858422
0.76900585
0.76942641
0.76984601
0.77026598
0.7706889
0.77111916
0.7715638
0.77203397
0.7725475
0.76533552
0.76557298
0.7658086
0.76604222
0.76627351
0.76650202
0.76672795
0.76695113
0.76717137
0.76738851
0.76760238
0.7678128
0.76801962
0.76822267
0.76842244
0.76861813
0.76880948
0.7689962
0.76917789
0.769354
0.76952382
0.76968633
0.76984017
0.76998501
0.77011699
0.77023299
0.77032891
0.76493615
0.76517993
0.76542245
0.76566354
0.76590351
0.76614262
0.76638004
0.76661564
0.76684927
0.76708083
0.76731017
0.76753717
0.76776169
0.76798355
0.7682033
0.76842006
0.76863369
0.76884389
0.76905031
0.76925241
0.76944953
0.76964072
0.76982473
0.76999835
0.77016079
0.77030896
0.77043892
0.76419328
0.76445352
0.76471494
0.76497789
0.76524005
0.76550088
0.7657632
0.76602755
0.76629047
0.76655122
0.7668117
0.76707184
0.7673316
0.76759098
0.76784845
0.76810521
0.76836103
0.76861556
0.76886835
0.76911883
0.76936621
0.76960955
0.76984763
0.77007899
0.77030192
0.77051441
0.77071423
0.76330615
0.76359169
0.7638785
0.76416622
0.76445739
0.76475259
0.76504875
0.76534517
0.7656457
0.76595112
0.76625672
0.7665616
0.76686864
0.76718068
0.76749452
0.76780979
0.76812603
0.76844273
0.76875926
0.76907491
0.76938894
0.76970056
0.77000903
0.77031378
0.77061452
0.77091153
0.77120642
0.76247369
0.76278749
0.76310581
0.76342874
0.76375643
0.76408896
0.7644264
0.76476874
0.76511594
0.76546789
0.76582681
0.76619335
0.76656376
0.76693817
0.76731508
0.7676942
0.76807478
0.76845601
0.76883709
0.76921726
0.76959593
0.76997279
0.77034797
0.77072231
0.77109762
0.77147713
0.77186667
0.7618727
0.76222731
0.76258902
0.76295797
0.76333418
0.76371764
0.76410823
0.76450574
0.76490988
0.76532025
0.76573637
0.76615757
0.7665831
0.76700761
0.76743421
0.76786184
0.76828949
0.76871619
0.76914115
0.76956384
0.76998411
0.77040237
0.77081967
0.77123793
0.77166004
0.7720899
0.77253232
0.76535298
0.76559045
0.76582606
0.76605965
0.76629104
0.76652005
0.76674651
0.76697023
0.76719136
0.76740942
0.76762425
0.76783568
0.76804354
0.76824765
0.76844783
0.76864385
0.76883544
0.76902229
0.769204
0.76938004
0.76954971
0.76971204
0.76986577
0.77000918
0.77014006
0.77025357
0.7703479
0.7649498
0.76519513
0.7654393
0.76568219
0.76592368
0.76616365
0.76640195
0.76663848
0.76687278
0.76710503
0.76733509
0.76756286
0.76778822
0.76801102
0.76823114
0.76844843
0.76866067
0.76886935
0.76907402
0.76927412
0.76946885
0.76965718
0.76983773
0.77000869
0.7701678
0.77030998
0.77043319
0.76423135
0.76449142
0.7647516
0.76501187
0.76527216
0.76553243
0.76579263
0.76605271
0.76631261
0.76657227
0.76683162
0.76709058
0.76734908
0.76760699
0.76786413
0.76812044
0.76837451
0.76862708
0.76887743
0.76912487
0.7693685
0.76960719
0.76983946
0.77006341
0.77027648
0.7704795
0.77066453
0.76335388
0.76363503
0.76391818
0.76420335
0.7644906
0.76478001
0.76507161
0.76536545
0.76566156
0.76595997
0.7662607
0.76656154
0.7668665
0.76717609
0.76748666
0.76779773
0.76811216
0.7684264
0.76873986
0.76905186
0.76936166
0.76966848
0.76997148
0.77026984
0.77056275
0.77084928
0.77112776
0.76242956
0.76274536
0.76306581
0.76339062
0.76372025
0.76405484
0.76439447
0.7647392
0.76508902
0.76544387
0.76580389
0.76616919
0.7665373
0.7669055
0.76727665
0.76765013
0.76802529
0.76840127
0.76877738
0.769153
0.76952775
0.76990157
0.77027491
0.77064899
0.77102607
0.77140992
0.77180641
0.76179683
0.76215087
0.76251181
0.76288019
0.76325571
0.7636382
0.76402743
0.76442308
0.76482466
0.76523152
0.76564279
0.76605983
0.76647937
0.76690152
0.76732536
0.76774997
0.76817451
0.76859824
0.76902068
0.76944173
0.76986185
0.77028237
0.77070584
0.77113664
0.7715819
0.77205292
0.7725676
0.76533897
0.76557656
0.76581233
0.7660461
0.7662777
0.76650696
0.76673369
0.76695773
0.76717889
0.76739701
0.76761191
0.76782343
0.76803089
0.76823463
0.76843414
0.76862916
0.76881991
0.76900615
0.76918654
0.76936156
0.76953049
0.76969234
0.76984576
0.76998897
0.77011957
0.77023642
0.77033349
0.7649427
0.76518763
0.76543138
0.76567382
0.76591484
0.76615429
0.76639207
0.76662805
0.76686212
0.76709418
0.76732414
0.7675504
0.76777179
0.76799052
0.76820735
0.76842244
0.76863425
0.7688424
0.76904741
0.76925062
0.76944859
0.76964031
0.76982449
0.76999935
0.77016247
0.77031268
0.77044382
0.76423241
0.76449046
0.76474855
0.76500658
0.76526452
0.76552229
0.76577984
0.76603707
0.76629391
0.76655024
0.76680592
0.7670631
0.76732362
0.76758358
0.76784287
0.76810131
0.76835862
0.7686145
0.76886834
0.7691211
0.76937028
0.7696153
0.76985508
0.77008832
0.77031345
0.77052447
0.77072336
0.76331456
0.76359847
0.76388453
0.76417283
0.76446343
0.76475638
0.76505175
0.76534958
0.76564989
0.76595271
0.76625804
0.76656585
0.76687605
0.76718845
0.76750284
0.76781892
0.76813635
0.76845472
0.76877357
0.76908739
0.76940013
0.76971093
0.77001896
0.77032349
0.77062409
0.77092096
0.77121577
0.76245834
0.76277392
0.76309416
0.76341925
0.76374932
0.76408449
0.76442484
0.76477039
0.76512111
0.76547689
0.76583757
0.76620286
0.76657238
0.76694566
0.7673221
0.767701
0.76808157
0.76846295
0.76884421
0.76922458
0.76960347
0.76998059
0.77035608
0.77073074
0.77110639
0.77148626
0.77187618
0.76187377
0.76222808
0.76258949
0.76295814
0.76333405
0.76371718
0.76410739
0.76450446
0.76490804
0.76531764
0.76573269
0.76615245
0.76657611
0.76700271
0.76743126
0.76786069
0.76828999
0.76871818
0.76914447
0.76956834
0.76998966
0.77040882
0.7708269
0.77124583
0.77166849
0.7720988
0.77254151
0.76536523
0.7656027
0.76583832
0.76607191
0.76630329
0.7665323
0.76675877
0.76698251
0.76720337
0.76742094
0.76763497
0.76784563
0.76805227
0.76825514
0.76845408
0.76864891
0.76884048
0.76902777
0.76920989
0.76938627
0.76955613
0.76971841
0.76987169
0.77001559
0.77014615
0.77026046
0.77035475
0.76496996
0.76521379
0.76545636
0.76569752
0.76593715
0.7661751
0.76641125
0.76664544
0.76687751
0.76710806
0.76733722
0.76756402
0.76778887
0.76801254
0.76823371
0.76845136
0.76866736
0.76887841
0.76908543
0.76928779
0.76948461
0.76967502
0.76985785
0.77003
0.77018582
0.7703266
0.77044808
0.76422507
0.76448512
0.76474521
0.76500525
0.76526661
0.76552835
0.76578985
0.7660534
0.76631549
0.76657536
0.76683692
0.76710079
0.76736447
0.76762579
0.76788628
0.76814688
0.76840201
0.76865577
0.76890781
0.76915776
0.76939898
0.76963581
0.76986686
0.77009072
0.77030249
0.7705023
0.77068575
0.76332633
0.76361207
0.76389986
0.76419012
0.76448174
0.76477589
0.7650732
0.76537101
0.76567325
0.76598071
0.76628878
0.76659646
0.76690367
0.76721248
0.76752261
0.76783363
0.76814509
0.76845651
0.76876728
0.76907714
0.76938288
0.7696864
0.76998587
0.77027981
0.77057507
0.77086336
0.77114338
0.76246136
0.76277681
0.7630969
0.76342185
0.76375148
0.76408573
0.76442472
0.76476847
0.76511693
0.76546999
0.76582733
0.76618886
0.76655364
0.76692189
0.76729266
0.76766521
0.76803872
0.76841231
0.768785
0.76915571
0.76953316
0.7699091
0.77028419
0.7706601
0.77103953
0.77142563
0.77182438
0.76182978
0.76218311
0.76254349
0.76291073
0.76328477
0.76366552
0.76405278
0.76444625
0.76484552
0.76525004
0.76565917
0.76607212
0.76649171
0.76691374
0.76733731
0.76776149
0.76818548
0.76860862
0.76903061
0.76945169
0.7698727
0.77029435
0.77071924
0.77115182
0.77159921
0.77207269
0.7725903
0.76534433
0.76558143
0.76581682
0.76605019
0.76628136
0.76651018
0.76673645
0.76696001
0.76718069
0.76739833
0.76761274
0.76782377
0.76803126
0.76823505
0.76843497
0.76863082
0.76882231
0.76900931
0.76919228
0.76936918
0.76953937
0.76970228
0.76985514
0.7699978
0.77012788
0.77024246
0.77033736
0.76493234
0.76517752
0.76542173
0.76566448
0.76590657
0.76614724
0.76638566
0.76662133
0.76685593
0.76708961
0.76732123
0.76754964
0.76777421
0.76799746
0.76821967
0.76843895
0.76865509
0.76886722
0.76906977
0.76926689
0.76946031
0.76964833
0.76982769
0.76999827
0.77016285
0.77031296
0.77044451
0.76420278
0.76446437
0.76472593
0.76498801
0.7652493
0.76551064
0.76577303
0.76603697
0.76629979
0.76656105
0.76682221
0.76708315
0.76734571
0.76760576
0.76786243
0.768118
0.76836952
0.76861622
0.76886265
0.76911022
0.76935405
0.76959972
0.76984276
0.77007817
0.7703069
0.7705238
0.77072745
0.76332871
0.76361211
0.76389767
0.76418544
0.7644755
0.76476787
0.7650626
0.76535969
0.76565911
0.7659608
0.7662648
0.76657051
0.76687573
0.76717931
0.76748423
0.76778998
0.76810465
0.7684238
0.7687463
0.76906764
0.76938668
0.76970549
0.77002018
0.7703314
0.77063084
0.7709272
0.77122172
0.76246315
0.76277806
0.76309754
0.76342167
0.76375056
0.76408424
0.76442271
0.76476587
0.76511354
0.76546463
0.76582084
0.76618333
0.76655262
0.76692907
0.7673087
0.76769054
0.76807546
0.76846088
0.76884685
0.76923277
0.76961842
0.76999289
0.77036675
0.77074026
0.77111499
0.77149414
0.7718835
0.76187428
0.76222857
0.76258996
0.76295852
0.76333433
0.76371739
0.76410764
0.76450496
0.76490917
0.76532048
0.7657364
0.76615722
0.7665826
0.7670117
0.76744361
0.76787747
0.76830469
0.76873145
0.76915685
0.76958018
0.77000096
0.77041947
0.77083692
0.77125529
0.77167754
0.77210763
0.77255041
0.76536832
0.76560591
0.76584156
0.76607508
0.76630636
0.76653548
0.76676201
0.76698585
0.76720675
0.76742461
0.76763918
0.76785037
0.76805794
0.76826206
0.76846219
0.76865813
0.76884966
0.76903651
0.76921831
0.76939454
0.76956335
0.769725
0.76987812
0.77002094
0.77015119
0.770266
0.7703603
0.76496546
0.76521071
0.76545511
0.7656986
0.76594057
0.76618079
0.76641903
0.76665544
0.76689003
0.76712251
0.76735296
0.76758105
0.76780695
0.76802949
0.76824778
0.76846111
0.76867153
0.76887877
0.7690824
0.76928329
0.76947964
0.76966954
0.76985131
0.77002283
0.77018155
0.77032422
0.77044799
0.76425346
0.7645136
0.7647739
0.76503433
0.76529488
0.76555555
0.76581613
0.76607686
0.76633545
0.76659106
0.76684628
0.76710102
0.76735511
0.76760836
0.76786327
0.76812054
0.76837639
0.76863226
0.76888664
0.76913999
0.76939044
0.76963555
0.7698746
0.77009784
0.77031078
0.77051051
0.77069296
0.76334885
0.76362957
0.76391219
0.76419673
0.76448321
0.76477164
0.76506268
0.76535557
0.76565413
0.76595813
0.7662645
0.76657321
0.76688419
0.76719738
0.76751268
0.76782991
0.76814885
0.76846663
0.76878281
0.76910042
0.76941428
0.76971638
0.77001607
0.77030879
0.77059811
0.77088196
0.77115886
0.76245153
0.76276756
0.76308825
0.76341372
0.76374413
0.76407961
0.76442024
0.76476597
0.76511692
0.76547277
0.76583353
0.76619893
0.766569
0.76694313
0.76732042
0.7676997
0.7680812
0.7684591
0.76883639
0.76920264
0.76956905
0.76993176
0.77029474
0.77067056
0.77104967
0.77143579
0.77183489
0.76185334
0.76220787
0.76256939
0.76293798
0.76331366
0.76369635
0.7640859
0.76448201
0.76488264
0.76528868
0.76569942
0.76611396
0.76653093
0.76694922
0.76736788
0.76778593
0.7682016
0.76861895
0.76903467
0.76944983
0.76986136
0.77028715
0.77071581
0.77115252
0.77160332
0.77207982
0.77260033
0.76534369
0.76558115
0.76581676
0.76605034
0.76628173
0.76651073
0.76673718
0.76696089
0.76718168
0.76739939
0.76761383
0.76782487
0.76803233
0.76823607
0.76843591
0.76863168
0.76882317
0.76901009
0.7691921
0.76936838
0.76953819
0.7697011
0.76985441
0.76999773
0.77012867
0.77024604
0.77034383
0.76494599
0.76519084
0.76543456
0.76567701
0.76591809
0.76615767
0.76639565
0.7666319
0.76686513
0.76709555
0.76732377
0.76754969
0.76777318
0.76799411
0.76821233
0.76842766
0.76863987
0.76884865
0.7690536
0.76925514
0.76945278
0.76964411
0.76982919
0.77000492
0.77016886
0.77031988
0.77045188
0.76422301
0.7644813
0.76473964
0.76499793
0.76525611
0.76551411
0.76577185
0.76602924
0.76628791
0.7665488
0.76680942
0.7670698
0.76732985
0.76758946
0.76784844
0.76810657
0.76836362
0.7686193
0.76887323
0.76912494
0.76937371
0.76961862
0.76985857
0.77009212
0.77031765
0.77052914
0.77072847
0.76331076
0.76359465
0.76388066