/*--------------------------------*- C++ -*----------------------------------*\
| =========                 |                                                 |
| \\      /  F ield         | OpenFOAM: The Open Source CFD Toolbox           |
|  \\    /   O peration     | Version:  4.0                                   |
|   \\  /    A nd           | Web:      www.OpenFOAM.org                      |
|    \\/     M anipulation  |                                                 |
\*---------------------------------------------------------------------------*/
FoamFile
{
    version     2.0;
    format      ascii;
    class       volScalarField;
    location    "2000";
    object      T;
}
// * * * * * * * * * * * * * * * * * * * * * * * * * * * * * * * * * * * * * //

dimensions      [0 0 0 1 0 0 0];

internalField   nonuniform List<scalar> 
162000
(
298.70297
298.68926
298.67427
298.65791
298.64006
298.6206
298.59941
298.57638
298.55137
298.52426
298.49496
298.46335
298.42937
298.39295
298.3541
298.31286
298.26936
298.22382
298.17661
298.12823
298.07944
298.03122
297.98493
297.94231
297.90562
297.87773
297.86224
298.68806
298.67384
298.6583
298.64132
298.6228
298.6026
298.5806
298.55668
298.5307
298.50255
298.4721
298.43924
298.4039
298.36603
298.32561
298.28268
298.23738
298.18994
298.14071
298.09023
298.03925
297.98878
297.94018
297.8952
297.8561
297.82572
297.80759
298.66229
298.64708
298.63046
298.6123
298.59248
298.57086
298.54731
298.52168
298.49385
298.46367
298.43103
298.39579
298.35788
298.31724
298.27386
298.22778
298.17914
298.1282
298.07532
298.02108
297.96626
297.91193
297.85949
297.81074
297.76795
297.73396
297.71221
298.63242
298.61582
298.59765
298.57781
298.55613
298.53249
298.50672
298.47869
298.44823
298.41521
298.37948
298.34092
298.29945
298.25501
298.2076
298.15729
298.10425
298.04877
297.99129
297.93246
297.87315
297.81456
297.75818
297.70596
297.66026
297.62398
297.60054
298.60594
298.58755
298.56743
298.54544
298.52143
298.49523
298.46669
298.43564
298.40191
298.36536
298.32585
298.28326
298.23752
298.18858
298.1365
298.08139
298.0235
297.96323
297.90114
297.83804
297.77499
297.71338
297.65496
297.60188
297.55671
297.52249
297.50268
298.5891
298.56856
298.54609
298.52153
298.49471
298.46546
298.43361
298.39898
298.36142
298.32077
298.27692
298.22977
298.1793
298.12553
298.0686
298.00875
297.94637
297.88205
297.8166
297.75108
297.68686
297.62565
297.56952
297.52092
297.48261
297.45764
297.44918
303.37599
303.36263
303.34844
303.33333
303.31723
303.30007
303.28176
303.26223
303.24137
303.21912
303.1954
303.17012
303.14323
303.11468
303.08447
303.05262
303.01919
302.98434
302.94829
302.91141
302.8742
302.83737
302.80189
302.76901
302.74038
302.71813
302.7049
303.36979
303.35595
303.34121
303.32551
303.30876
303.29089
303.27179
303.25139
303.22959
303.2063
303.18144
303.15492
303.12669
303.09668
303.06488
303.03131
302.99603
302.9592
302.92103
302.88189
302.84229
302.80296
302.76484
302.72922
302.69774
302.67253
302.6562
303.35945
303.34465
303.32887
303.31201
303.29399
303.27472
303.2541
303.23202
303.20839
303.1831
303.15605
303.12715
303.09634
303.06354
303.02872
302.99192
302.95318
302.91265
302.87058
302.82733
302.78345
302.73967
302.697
302.65673
302.62056
302.59058
302.56941
303.34811
303.33193
303.31463
303.29611
303.27626
303.25498
303.23216
303.20769
303.18145
303.15332
303.12319
303.09096
303.05656
303.0199
302.98097
302.93979
302.89643
302.85107
302.80398
302.75558
302.70648
302.65749
302.60969
302.56449
302.52365
302.4893
302.46404
303.33907
303.32112
303.30187
303.28121
303.25904
303.23523
303.20966
303.18219
303.15271
303.12109
303.08721
303.05096
303.01228
302.97111
302.92743
302.88132
302.83289
302.78238
302.73016
302.67675
302.62291
302.56959
302.51805
302.46986
302.42693
302.39148
302.36606
303.3342
303.31411
303.29253
303.26935
303.24444
303.21766
303.18889
303.158
303.12485
303.08932
303.05131
303.01074
302.96755
302.92174
302.87336
302.82255
302.76954
302.7147
302.65858
302.6019
302.54563
302.491
302.4395
302.39295
302.35337
302.323
302.30412
305.32504
305.31193
305.29839
305.28439
305.26989
305.25484
305.2392
305.22294
305.20599
305.18832
305.16988
305.15064
305.13055
305.10959
305.08774
305.06503
305.04149
305.0172
304.99228
304.96695
304.9415
304.91634
304.89205
304.86938
304.84932
304.83317
304.82254
305.33015
305.31658
305.30254
305.28798
305.27286
305.25714
305.24076
305.22368
305.20585
305.18722
305.16772
305.14733
305.12599
305.10368
305.08037
305.05608
305.03083
305.00471
304.97784
304.95042
304.92274
304.89522
304.86842
304.84311
304.82028
304.8012
304.78747
305.33986
305.32537
305.31032
305.29465
305.27831
305.26126
305.24342
305.22475
305.20518
305.18465
305.16311
305.14048
305.11673
305.09181
305.0657
305.03839
305.00992
304.98036
304.94982
304.91852
304.88676
304.85494
304.82365
304.79364
304.7659
304.74168
304.72253
305.35257
305.33672
305.32018
305.30288
305.28476
305.26575
305.24579
305.22481
305.20274
305.1795
305.15502
305.12924
305.1021
305.07355
305.04357
305.01216
304.97934
304.9452
304.90987
304.87359
304.83666
304.79953
304.76281
304.72726
304.69387
304.66384
304.63858
305.36599
305.34836
305.32988
305.31047
305.29005
305.26856
305.24592
305.22204
305.19685
305.17028
305.14224
305.11267
305.08151
305.04874
305.01433
304.9783
304.94071
304.90167
304.86137
304.82008
304.77818
304.73617
304.69471
304.65462
304.61688
304.58265
304.55311
305.37614
305.35637
305.33558
305.31368
305.2906
305.26625
305.24057
305.21348
305.18489
305.15473
305.12295
305.08949
305.05431
305.01742
304.97883
304.93859
304.89684
304.85375
304.80958
304.76471
304.71963
304.67496
304.63146
304.59004
304.55171
304.51757
304.48862
306.08307
306.07012
306.05701
306.04374
306.0303
306.01667
306.00283
305.98876
305.97445
305.95988
305.94503
305.92989
305.91443
305.89866
305.88255
305.86614
305.84942
305.83246
305.81531
305.7981
305.78096
305.76414
305.74794
305.73277
305.71918
305.70788
305.69979
306.0967
306.0833
306.06971
306.05591
306.04189
306.02762
306.01309
305.99828
305.98315
305.96769
305.95188
305.9357
305.91912
305.90213
305.88473
305.86692
305.84871
305.83015
305.81131
305.79228
305.77324
305.75439
305.73605
305.71864
305.70269
305.68892
305.67823
306.12155
306.10727
306.0927
306.07784
306.06266
306.04712
306.03121
306.0149
305.99815
305.98094
305.96324
305.94501
305.92624
305.9069
305.88698
305.86648
305.84541
305.82382
305.80176
305.77935
305.75673
305.73414
305.71186
305.69032
305.67003
305.65167
305.6361
306.1526
306.13697
306.12094
306.10448
306.08756
306.07014
306.0522
306.03369
306.01457
305.99481
305.97437
305.95322
305.93133
305.90869
305.88526
305.86107
305.83612
305.81045
305.78415
305.75731
305.7301
305.70275
305.67554
305.64887
305.6232
305.59913
305.57734
306.18325
306.16584
306.14788
306.12934
306.11017
306.09033
306.06979
306.0485
306.02642
306.00351
305.97975
305.9551
305.92954
305.90305
305.87564
305.84732
305.81812
305.78811
305.75739
305.72607
305.69433
305.66241
305.6306
305.59924
305.56874
305.53954
305.51205
306.20495
306.18539
306.16514
306.14414
306.12237
306.09979
306.07636
306.05204
306.02681
306.00063
305.9735
305.94539
305.9163
305.88625
305.85525
305.82335
305.79062
305.75714
305.72304
305.68848
305.65367
305.61888
305.58439
305.55056
305.51775
305.4863
305.45648
306.36056
306.34768
306.3348
306.32193
306.30905
306.29618
306.28331
306.27043
306.25755
306.24466
306.23176
306.21884
306.20591
306.19296
306.18
306.16704
306.15408
306.14116
306.12832
306.11562
306.10314
306.09102
306.07941
306.06856
306.05876
306.05041
306.04401
306.379
306.36569
306.35235
306.33896
306.32553
306.31206
306.29853
306.28495
306.2713
306.25758
306.24379
306.22991
306.21595
306.2019
306.18776
306.17354
306.15926
306.14492
306.13059
306.11631
306.10218
306.08832
306.0749
306.06216
306.05038
306.03999
306.03148
306.41249
306.39831
306.38401
306.36959
306.35504
306.34035
306.3255
306.31049
306.29531
306.27994
306.26437
306.2486
306.23261
306.2164
306.19997
306.18332
306.16646
306.14942
306.13225
306.115
306.09775
306.08064
306.06382
306.04752
306.03203
306.0177
306.00501
306.45407
306.43855
306.42281
306.40682
306.39057
306.37405
306.35723
306.3401
306.32265
306.30486
306.28672
306.2682
306.24932
306.23005
306.21041
306.19039
306.17003
306.14934
306.12839
306.10722
306.08593
306.06464
306.04348
306.02264
306.00234
305.98285
305.96444
306.49471
306.47741
306.45975
306.4417
306.42323
306.40434
306.38499
306.36518
306.34488
306.32409
306.3028
306.281
306.25869
306.23589
306.2126
306.18885
306.16468
306.14012
306.11525
306.09012
306.06482
306.03945
306.01413
305.98895
305.96404
305.93947
305.91522
306.52315
306.5037
306.48375
306.46327
306.44225
306.42068
306.39855
306.37584
306.35256
306.32871
306.3043
306.27934
306.25385
306.22787
306.20143
306.17458
306.14735
306.11983
306.09206
306.06412
306.0361
306.00807
305.9801
305.95224
305.92452
305.8969
305.8692
306.4564
306.44355
306.43078
306.41808
306.40547
306.39294
306.38051
306.36817
306.35594
306.34382
306.3318
306.3199
306.30813
306.29647
306.28495
306.27358
306.26235
306.2513
306.24046
306.22986
306.21955
306.20963
306.2002
306.1914
306.18342
306.17652
306.17101
306.47708
306.46381
306.45058
306.43738
306.42422
306.41111
306.39804
306.38502
306.37205
306.35913
306.34627
306.33345
306.3207
306.30801
306.29538
306.28283
306.27037
306.25801
306.24579
306.23375
306.22194
306.21046
306.1994
306.18891
306.17919
306.1705
306.16317
306.51462
306.50048
306.48631
306.47209
306.45783
306.44353
306.42917
306.41477
306.40031
306.3858
306.37123
306.3566
306.34191
306.32717
306.31238
306.29754
306.28267
306.2678
306.25296
306.23818
306.22353
306.20909
306.19497
306.18129
306.16824
306.15605
306.14499
306.56117
306.5457
306.53009
306.51432
306.49839
306.48228
306.466
306.44952
306.43286
306.416
306.39894
306.38167
306.36421
306.34656
306.32872
306.31071
306.29256
306.27429
306.25594
306.23756
306.21921
306.20095
306.18287
306.16506
306.14762
306.13068
306.11434
306.60657
306.58933
306.5718
306.55398
306.53585
306.5174
306.49863
306.47952
306.46008
306.44031
306.4202
306.39977
306.37903
306.35801
306.33672
306.31521
306.2935
306.27164
306.24968
306.22766
306.20564
306.18365
306.16174
306.13991
306.11814
306.09634
306.0743
306.63825
306.61885
306.59904
306.57881
306.55815
306.53707
306.51556
306.49363
306.47129
306.44856
306.42547
306.40204
306.37831
306.35433
306.33014
306.30578
306.2813
306.25677
306.23221
306.20768
306.18319
306.15875
306.13433
306.10986
306.08522
306.06016
306.03433
306.48857
306.47574
306.463
306.45038
306.43787
306.42548
306.41322
306.4011
306.38913
306.37731
306.36566
306.35417
306.34286
306.33173
306.32079
306.31006
306.29954
306.28925
306.27922
306.26947
306.26006
306.25105
306.24251
306.23457
306.22736
306.22107
306.21596
306.51018
306.49692
306.48373
306.47061
306.45756
306.44459
306.43171
306.41892
306.40622
306.39363
306.38114
306.36876
306.35649
306.34435
306.33234
306.32047
306.30875
306.2972
306.28585
306.27474
306.2639
306.2534
306.24333
306.2338
306.22496
306.21701
306.21022
306.54939
306.53527
306.52115
306.50701
306.49287
306.47872
306.46457
306.45041
306.43625
306.42209
306.40793
306.39377
306.37962
306.36548
306.35136
306.33728
306.32324
306.30927
306.2954
306.28166
306.26811
306.2548
306.24183
306.22929
306.21731
306.20608
306.19579
306.59802
306.58258
306.56702
306.55134
306.53554
306.51961
306.50354
306.48734
306.471
306.45452
306.43791
306.42117
306.4043
306.38732
306.37024
306.35308
306.33586
306.31861
306.30137
306.28418
306.26709
306.25015
306.23342
306.21695
306.20082
306.18507
306.16974
306.64545
306.62823
306.61076
306.59303
306.57504
306.55678
306.53825
306.51944
306.50035
306.481
306.46139
306.44154
306.42147
306.4012
306.38077
306.36021
306.33955
306.31886
306.29816
306.2775
306.25691
306.23643
306.21605
306.19574
306.17545
306.155
306.13411
306.6785
306.65913
306.63938
306.61925
306.59875
306.57786
306.55662
306.53501
306.51307
306.49082
306.46829
306.44552
306.42254
306.39941
306.37618
306.3529
306.32962
306.30639
306.28324
306.26021
306.23731
306.21449
306.19172
306.16885
306.14571
306.12197
306.09722
306.49967
306.48684
306.47413
306.46153
306.44905
306.43672
306.42452
306.41249
306.40061
306.38891
306.37739
306.36605
306.35491
306.34398
306.33326
306.32277
306.31251
306.30251
306.29278
306.28336
306.27429
306.26562
306.25743
306.24981
306.24289
306.23685
306.2319
306.52164
306.50839
306.49522
306.48212
306.46912
306.4562
306.44339
306.43068
306.41809
306.40561
306.39326
306.38104
306.36896
306.35703
306.34525
306.33363
306.3222
306.31096
306.29994
306.28917
306.2787
306.26858
306.25889
306.24973
306.24124
306.23359
306.22702
306.56151
306.5474
306.5333
306.51919
306.5051
306.49101
306.47693
306.46287
306.44882
306.43479
306.42078
306.4068
306.39285
306.37894
306.36508
306.35128
306.33756
306.32394
306.31044
306.2971
306.28398
306.27111
306.25859
306.2465
306.23496
306.22411
306.21415
306.61099
306.59555
306.58002
306.56437
306.54862
306.53275
306.51677
306.50067
306.48445
306.46813
306.45169
306.43514
306.41851
306.40178
306.385
306.36816
306.3513
306.33445
306.31765
306.30093
306.28433
306.26792
306.25172
306.23581
306.2202
306.20495
306.19005
306.65924
306.64203
306.62458
306.60689
306.58895
306.57076
306.55232
306.53363
306.51468
306.4955
306.47608
306.45646
306.43665
306.41667
306.39657
306.37639
306.35615
306.33591
306.31571
306.2956
306.27559
306.25571
306.23596
306.21629
306.19662
306.17675
306.15638
306.69285
306.67349
306.65376
306.63368
306.61323
306.59243
306.57128
306.54981
306.52802
306.50596
306.48365
306.46113
306.43845
306.41566
306.39282
306.36996
306.34716
306.32445
306.30188
306.27946
306.2572
306.23506
306.21297
306.19079
306.1683
306.14517
306.12093
306.504
306.49117
306.47846
306.46587
306.45341
306.44109
306.42892
306.41692
306.40508
306.39342
306.38194
306.37066
306.35958
306.34872
306.33808
306.32767
306.31751
306.30761
306.29799
306.28869
306.27974
306.2712
306.26313
306.25564
306.24884
306.24289
306.23799
306.52611
306.51286
306.4997
306.48661
306.47362
306.46073
306.44794
306.43526
306.4227
306.41027
306.39797
306.38581
306.3738
306.36194
306.35024
306.33872
306.32739
306.31626
306.30536
306.29472
306.28438
306.2744
306.26486
306.25584
306.24748
306.23995
306.23346
306.56625
306.55215
306.53805
306.52396
306.50988
306.49581
306.48176
306.46773
306.45372
306.43974
306.42579
306.41187
306.398
306.38417
306.37041
306.35671
306.34311
306.32961
306.31625
306.30307
306.2901
306.2774
306.26505
306.25313
306.24175
306.23106
306.22122
306.61608
306.60065
306.58512
306.56949
306.55376
306.53791
306.52196
306.5059
306.48973
306.47346
306.45708
306.44062
306.42406
306.40744
306.39076
306.37404
306.35732
306.34062
306.32398
306.30744
306.29103
306.27481
306.25883
306.24312
306.22773
306.21267
306.19795
306.66469
306.64748
306.63004
306.61237
306.59445
306.57629
306.55788
306.53923
306.52034
306.50121
306.48187
306.46234
306.44262
306.42276
306.40279
306.38275
306.36267
306.34261
306.3226
306.3027
306.28292
306.26328
306.24377
306.22435
306.20492
306.18529
306.16513
306.69855
306.67919
306.65947
306.6394
306.61898
306.5982
306.5771
306.55567
306.53395
306.51196
306.48973
306.46731
306.44475
306.42209
306.39939
306.3767
306.35408
306.33158
306.30923
306.28705
306.26504
306.24317
306.22136
306.19945
306.17723
306.15436
306.13035
306.50611
306.49328
306.48057
306.46798
306.45553
306.44322
306.43106
306.41906
306.40723
306.39559
306.38413
306.37287
306.36182
306.35098
306.34037
306.32999
306.31986
306.31
306.30043
306.29117
306.28227
306.27377
306.26575
306.2583
306.25154
306.24563
306.24076
306.52828
306.51504
306.50187
306.48879
306.47581
306.46292
306.45014
306.43748
306.42493
306.41252
306.40023
306.3881
306.37611
306.36427
306.35261
306.34112
306.32983
306.31874
306.30788
306.29729
306.28701
306.27708
306.26759
306.25862
306.25032
306.24283
306.23637
306.56856
306.55446
306.54036
306.52627
306.5122
306.49814
306.4841
306.47008
306.45609
306.44213
306.4282
306.41431
306.40046
306.38666
306.37293
306.35928
306.34572
306.33227
306.31896
306.30583
306.29292
306.28029
306.268
306.25615
306.24483
306.2342
306.22442
306.61857
306.60315
306.58762
306.57199
306.55626
306.54043
306.52449
306.50844
306.49229
306.47604
306.45969
306.44325
306.42673
306.41014
306.39351
306.37684
306.36017
306.34353
306.32695
306.31048
306.29415
306.27801
306.26211
306.24648
306.23117
306.21618
306.20153
306.66738
306.65017
306.63273
306.61506
306.59716
306.579
306.56061
306.54198
306.5231
306.50401
306.4847
306.46519
306.44552
306.4257
306.40578
306.3858
306.36579
306.3458
306.32587
306.30605
306.28636
306.26682
306.24741
306.2281
306.20876
306.18923
306.16916
306.70137
306.682
306.66229
306.64223
306.62181
306.60105
306.57996
306.55856
306.53686
306.51489
306.4927
306.47033
306.44781
306.42521
306.40257
306.37995
306.35741
306.33499
306.31274
306.29066
306.26876
306.247
306.2253
306.20351
306.18141
306.15865
306.13474
306.50743
306.49461
306.4819
306.46931
306.45686
306.44455
306.43239
306.4204
306.40858
306.39694
306.38549
306.37423
306.36319
306.35236
306.34176
306.3314
306.32128
306.31144
306.30188
306.29264
306.28375
306.27528
306.26728
306.25985
306.25311
306.24721
306.24235
306.52965
306.5164
306.50324
306.49016
306.47718
306.46429
306.45152
306.43885
306.42632
306.41391
306.40163
306.3895
306.37752
306.3657
306.35405
306.34257
306.33129
306.32022
306.30939
306.29881
306.28855
306.27864
306.26917
306.26023
306.25194
306.24447
306.23803
306.57001
306.5559
306.54181
306.52772
306.51365
306.4996
306.48556
306.47155
306.45756
306.4436
306.42968
306.4158
306.40196
306.38818
306.37447
306.36083
306.34728
306.33385
306.32057
306.30746
306.29458
306.28197
306.26971
306.25789
306.2466
306.23598
306.22622
306.62014
306.60471
306.58919
306.57356
306.55784
306.54201
306.52607
306.51003
306.49389
306.47765
306.46131
306.44488
306.42837
306.4118
306.39518
306.37854
306.36189
306.34528
306.32873
306.31228
306.29598
306.27988
306.26401
306.24842
306.23314
306.21818
306.20355
306.66907
306.65186
306.63443
306.61676
306.59886
306.58071
306.56233
306.5437
306.52484
306.50575
306.48645
306.46697
306.44731
306.42752
306.40762
306.38766
306.36769
306.34773
306.32784
306.30806
306.28842
306.26892
306.24955
306.23028
306.21099
306.19149
306.17145
306.70315
306.68379
306.66408
306.64401
306.6236
306.60285
306.58177
306.56037
306.53869
306.51674
306.49456
306.47221
306.44971
306.42714
306.40453
306.38195
306.35945
306.33707
306.31486
306.29283
306.27098
306.24927
306.22763
306.2059
306.18384
306.16113
306.13727
306.5084
306.49557
306.48286
306.47028
306.45783
306.44552
306.43336
306.42137
306.40955
306.39791
306.38647
306.37522
306.36417
306.35335
306.34275
306.33239
306.32228
306.31244
306.30289
306.29366
306.28478
306.27631
306.26832
306.2609
306.25416
306.24827
306.24342
306.53064
306.5174
306.50423
306.49115
306.47817
306.46529
306.45251
306.43985
306.42732
306.41491
306.40264
306.39051
306.37853
306.36672
306.35507
306.3436
306.33232
306.32126
306.31043
306.29987
306.28961
306.27971
306.27025
306.26132
306.25304
306.24557
306.23914
306.57106
306.55696
306.54286
306.52878
306.51471
306.50065
306.48662
306.47261
306.45862
306.44467
306.43075
306.41687
306.40304
306.38926
306.37555
306.36192
306.34838
306.33496
306.32169
306.30859
306.29572
306.28312
306.27087
306.25906
306.24778
306.23717
306.22741
306.62129
306.60586
306.59034
306.57471
306.55899
306.54316
306.52723
306.51119
306.49505
306.47881
306.46248
306.44605
306.42955
306.41299
306.39638
306.37974
306.36311
306.3465
306.32997
306.31354
306.29725
306.28116
306.26531
306.24973
306.23445
306.21951
306.20487
306.67032
306.65312
306.63568
306.61802
306.60012
306.58197
306.56359
306.54497
306.52611
306.50703
306.48774
306.46826
306.44861
306.42883
306.40895
306.38901
306.36904
306.34911
306.32924
306.30948
306.28985
306.27037
306.25103
306.23177
306.2125
306.19301
306.17297
306.70447
306.68511
306.6654
306.64534
306.62493
306.60418
306.5831
306.56171
306.54003
306.51809
306.49593
306.47358
306.4511
306.42854
306.40595
306.38339
306.36091
306.33855
306.31637
306.29436
306.27254
306.25086
306.22924
306.20753
306.1855
306.16281
306.13897
306.50921
306.49639
306.48368
306.47109
306.45864
306.44633
306.43418
306.42219
306.41037
306.39873
306.38729
306.37604
306.365
306.35418
306.34359
306.33323
306.32313
306.31329
306.30374
306.29451
306.28564
306.27718
306.2692
306.26178
306.25506
306.24917
306.24433
306.53148
306.51824
306.50507
306.49199
306.47901
306.46613
306.45336
306.4407
306.42816
306.41576
306.40349
306.39136
306.37939
306.36758
306.35593
306.34447
306.3332
306.32214
306.31131
306.30076
306.29051
306.28062
306.27117
306.26224
306.25397
306.24651
306.24008
306.57196
306.55785
306.54376
306.52968
306.51561
306.50155
306.48752
306.47351
306.45953
306.44558
306.43166
306.41779
306.40396
306.39019
306.37648
306.36286
306.34933
306.33591
306.32265
306.30956
306.2967
306.28411
306.27187
306.26007
306.24879
306.2382
306.22844
306.62228
306.60685
306.59133
306.5757
306.55998
306.54415
306.52822
306.51219
306.49605
306.47982
306.46349
306.44707
306.43058
306.41402
306.39742
306.38079
306.36417
306.34757
306.33105
306.31463
306.29836
306.28229
306.26645
306.25088
306.23562
306.22069
306.20606
306.67142
306.65421
306.63678
306.61912
306.60122
306.58307
306.56469
306.54607
306.52722
306.50815
306.48887
306.46939
306.44976
306.42999
306.41012
306.39019
306.37024
306.35032
306.33047
306.31073
306.29113
306.27168
306.25235
306.23312
306.21386
306.19439
306.17437
306.70564
306.68628
306.66657
306.64651
306.6261
306.60536
306.58428
306.5629
306.54122
306.51929
306.49714
306.4748
306.45234
306.42979
306.40722
306.38467
306.36221
306.33988
306.31772
306.29574
306.27395
306.2523
306.23071
306.20903
306.18703
306.16437
306.14056
306.50975
306.49692
306.48421
306.47163
306.45918
306.44687
306.43471
306.42272
306.4109
306.39927
306.38782
306.37657
306.36553
306.35471
306.34411
306.33375
306.32364
306.3138
306.30426
306.29502
306.28615
306.27769
306.2697
306.26228
306.25555
306.24966
306.24481
306.53203
306.51879
306.50562
306.49254
306.47956
306.46668
306.4539
306.44125
306.42871
306.4163
306.40403
306.39191
306.37993
306.36812
306.35647
306.345
306.33373
306.32267
306.31184
306.30128
306.29103
306.28114
306.27168
306.26275
306.25447
306.24701
306.24057
306.57255
306.55844
306.54435
306.53026
306.5162
306.50214
306.48811
306.4741
306.46012
306.44616
306.43225
306.41837
306.40454
306.39077
306.37706
306.36343
306.3499
306.33649
306.32322
306.31013
306.29726
306.28467
306.27242
306.26061
306.24933
306.23871
306.22894
306.62293
306.60751
306.59198
306.57636
306.56064
306.54481
306.52888
306.51285
306.49671
306.48047
306.46414
306.44773
306.43123
306.41467
306.39807
306.38145
306.36482
306.34823
306.33171
306.31529
306.29901
306.28293
306.26709
306.25151
306.23623
306.22127
306.20661
306.67216
306.65495
306.63752
306.61986
306.60196
306.58382
306.56543
306.54682
306.52797
306.50889
306.48961
306.47014
306.45051
306.43074
306.41088
306.39095
306.37101
306.35109
306.33124
306.31151
306.2919
306.27245
306.25312
306.23387
306.21459
306.19509
306.17502
306.70643
306.68707
306.66736
306.6473
306.6269
306.60615
306.58508
306.56369
306.54202
306.52009
306.49794
306.47561
306.45315
306.43061
306.40804
306.38551
306.36305
306.34073
306.31857
306.2966
306.27481
306.25315
306.23156
306.20987
306.18785
306.16516
306.1413
306.51016
306.49733
306.48462
306.47204
306.45959
306.44728
306.43512
306.42313
306.41131
306.39967
306.38822
306.37696
306.36592
306.35509
306.34449
306.33413
306.32401
306.31417
306.30461
306.29537
306.28649
306.27802
306.27002
306.2626
306.25586
306.24996
306.24511
306.53246
306.51921
306.50605
306.49297
306.47998
306.4671
306.45433
306.44166
306.42913
306.41672
306.40444
306.39231
306.38033
306.36851
306.35686
306.34539
306.33411
306.32304
306.3122
306.30164
306.29138
306.28148
306.27201
306.26307
306.25478
306.24731
306.24086
306.573
306.5589
306.54481
306.53072
306.51665
306.5026
306.48856
306.47455
306.46057
306.44661
306.43269
306.41881
306.40498
306.3912
306.37748
306.36385
306.35031
306.33689
306.32361
306.31051
306.29764
306.28504
306.27278
306.26096
306.24966
306.23903
306.22924
306.62345
306.60803
306.5925
306.57688
306.56116
306.54533
306.5294
306.51336
306.49722
306.48098
306.46465
306.44823
306.43173
306.41517
306.39856
306.38193
306.3653
306.34871
306.33218
306.31575
306.29947
306.28338
306.26752
306.25193
306.23663
306.22165
306.20696
306.67275
306.65554
306.63811
306.62045
306.60255
306.58441
306.56602
306.54741
306.52855
306.50948
306.4902
306.47073
306.45109
306.43133
306.41146
306.39153
306.37158
306.35166
306.33181
306.31207
306.29247
306.273
306.25366
306.2344
306.2151
306.19558
306.17548
306.70707
306.68771
306.668
306.64794
306.62754
306.60679
306.58572
306.56434
306.54266
306.52074
306.49858
306.47626
306.45379
306.43125
306.40869
306.38615
306.3637
306.34138
306.31922
306.29724
306.27544
306.25379
306.23218
306.21048
306.18845
306.16575
306.14188
306.51103
306.49821
306.4855
306.47292
306.46047
306.44817
306.43602
306.42404
306.41223
306.4006
306.38917
306.37793
306.36691
306.35611
306.34553
306.3352
306.32512
306.31532
306.3058
306.29661
306.28777
306.27935
306.2714
306.26402
306.25732
306.25145
306.24661
306.53337
306.52012
306.50696
306.49389
306.48091
306.46803
306.45526
306.44261
306.43009
306.41769
306.40543
306.39333
306.38137
306.36958
306.35795
306.34651
306.33527
306.32424
306.31345
306.30293
306.29272
306.28287
306.27345
306.26456
306.25631
306.24887
306.24244
306.57399
306.55989
306.5458
306.53172
306.51765
306.50361
306.48958
306.47558
306.46161
306.44767
306.43377
306.41991
306.40611
306.39236
306.37868
306.36508
306.35159
306.33821
306.32498
306.31194
306.29912
306.28657
306.27437
306.26259
306.25134
306.24074
306.23096
306.62456
306.60913
306.59361
306.57799
306.56228
306.54646
306.53054
306.51451
306.49839
306.48217
306.46586
306.44947
306.433
306.41648
306.39991
306.38332
306.36674
306.3502
306.33373
306.31736
306.30114
306.28512
306.26932
306.25378
306.23853
306.22357
306.20889
306.67398
306.65678
306.63935
306.62169
306.6038
306.58567
306.5673
306.54869
306.52986
306.51081
306.49155
306.47211
306.45252
306.43279
306.41297
306.39309
306.37321
306.35336
306.33358
306.31391
306.29438
306.27498
306.25571
306.23651
306.21725
306.19775
306.17764
306.70839
306.68903
306.66933
306.64928
306.62888
306.60814
306.58708
306.56572
306.54407
306.52217
306.50005
306.47775
306.45533
306.43284
306.41033
306.38785
306.36547
306.34322
306.32115
306.29926
306.27755
306.25597
306.23444
306.21279
306.1908
306.1681
306.1442
306.51102
306.49819
306.48548
306.4729
306.46045
306.44814
306.43599
306.424
306.41218
306.40055
306.3891
306.37786
306.36682
306.356
306.34541
306.33506
306.32496
306.31512
306.30558
306.29636
306.28749
306.27903
306.27105
306.26364
306.25691
306.25101
306.24614
306.53336
306.52011
306.50695
306.49387
306.48089
306.46801
306.45524
306.44258
306.43004
306.41764
306.40537
306.39325
306.38128
306.36947
306.35783
306.34636
306.3351
306.32404
306.31322
306.30267
306.29242
306.28253
306.27307
306.26414
306.25585
306.24836
306.24189
306.574
306.5599
306.5458
306.53172
306.51765
306.5036
306.48957
306.47557
306.46159
306.44764
306.43373
306.41985
306.40603
306.39227
306.37857
306.36495
306.35142
306.33802
306.32476
306.31167
306.29881
306.28622
306.27397
306.26214
306.25083
306.24018
306.23033
306.62461
306.60918
306.59366
306.57804
306.56232
306.5465
306.53057
306.51454
306.49841
306.48219
306.46586
306.44946
306.43298
306.41643
306.39985
306.38324
306.36664
306.35006
306.33356
306.31715
306.30089
306.28482
306.26897
306.25337
306.23805
306.22301
306.20823
306.67409
306.65689
306.63946
306.6218
306.6039
306.58577
306.5674
306.54879
306.52995
306.51089
306.49162
306.47217
306.45256
306.43282
306.41299
306.3931
306.37319
306.35331
306.3335
306.31379
306.29422
306.27478
306.25546
306.23619
306.21686
306.19727
306.17705
306.70855
306.68919
306.66948
306.64943
306.62903
306.60829
306.58723
306.56585
306.5442
306.52229
306.50016
306.47786
306.45543
306.43292
306.4104
306.38791
306.3655
306.34323
306.32113
306.2992
306.27745
306.25582
306.23423
306.21252
306.19046
306.16768
306.14368
306.51108
306.49825
306.48554
306.47296
306.46051
306.4482
306.43604
306.42405
306.41223
306.40059
306.38914
306.37789
306.36685
306.35603
306.34543
306.33507
306.32497
306.31513
306.30558
306.29635
306.28748
306.27902
306.27103
306.26361
306.25687
306.25097
306.2461
306.53342
306.52017
306.50701
306.49393
306.48095
306.46806
306.45529
306.44263
306.43009
306.41768
306.40541
306.39328
306.38131
306.36949
306.35784
306.34638
306.33511
306.32405
306.31322
306.30267
306.29242
306.28253
306.27307
306.26413
306.25584
306.24836
306.24188
306.57407
306.55997
306.54588
306.53179
306.51772
306.50367
306.48964
306.47563
306.46164
306.44769
306.43377
306.4199
306.40607
306.3923
306.37859
306.36496
306.35144
306.33803
306.32476
306.31168
306.29881
306.28622
306.27397
306.26214
306.25083
306.24017
306.23032
306.62472
306.60929
306.59377
306.57815
306.56243
306.5466
306.53067
306.51464
306.49851
306.48227
306.46594
306.44953
306.43304
306.41649
306.3999
306.38328
306.36666
306.35008
306.33357
306.31715
306.30089
306.2848
306.26895
306.25334
306.23801
306.22298
306.20819
306.67426
306.65705
306.63962
306.62196
306.60406
306.58592
306.56755
306.54894
306.53009
306.51103
306.49176
306.4723
306.45268
306.43294
306.41309
306.39318
306.37326
306.35337
306.33354
306.31383
306.29424
306.27479
306.25545
306.23617
306.21683
306.19722
306.17699
306.70874
306.68938
306.66968
306.64962
306.62922
306.60848
306.58741
306.56604
306.54438
306.52247
306.50033
306.47802
306.45559
306.43307
306.41054
306.38804
306.36562
306.34333
306.3212
306.29926
306.27748
306.25584
306.23424
306.21252
306.19044
306.16765
306.14364
306.51117
306.49834
306.48563
306.47305
306.4606
306.44829
306.43613
306.42414
306.41232
306.40068
306.38923
306.37798
306.36693
306.35611
306.34551
306.33515
306.32504
306.3152
306.30565
306.29642
306.28754
306.27908
306.27109
306.26367
306.25694
306.25104
306.24617
306.53351
306.52027
306.5071