/*--------------------------------*- C++ -*----------------------------------*\
| =========                 |                                                 |
| \\      /  F ield         | OpenFOAM: The Open Source CFD Toolbox           |
|  \\    /   O peration     | Version:  4.0                                   |
|   \\  /    A nd           | Web:      www.OpenFOAM.org                      |
|    \\/     M anipulation  |                                                 |
\*---------------------------------------------------------------------------*/
FoamFile
{
    version     2.0;
    format      ascii;
    class       volScalarField;
    location    "2000";
    object      T;
}
// * * * * * * * * * * * * * * * * * * * * * * * * * * * * * * * * * * * * * //

dimensions      [0 0 0 1 0 0 0];

internalField   nonuniform List<scalar> 
324000
(
461.0281
460.88518
460.74345
460.60311
460.46416
460.32671
460.19086
460.05672
459.92438
459.79394
459.66549
459.53914
459.41496
459.29305
459.17314
459.05573
458.94094
458.82895
458.72
458.61428
458.51238
458.41509
458.32237
458.23623
458.15813
458.08978
458.03367
461.26935
461.12192
460.97527
460.82939
460.68444
460.54049
460.39763
460.25592
460.11542
459.97623
459.83839
459.70199
459.56709
459.43379
459.30182
459.17167
459.04349
458.91745
458.79307
458.67105
458.55264
458.43809
458.32959
458.22718
458.13237
458.04773
457.97569
461.70917
461.55181
461.3943
461.23675
461.07924
460.92182
460.76458
460.60763
460.44995
460.29232
460.13512
459.97778
459.8209
459.66378
459.50949
459.35427
459.19928
459.0457
458.89297
458.74656
458.59943
458.45555
458.31576
458.18143
458.05381
457.93459
457.82597
462.23673
462.0654
461.89304
461.7195
461.54467
461.36849
461.19087
461.0117
460.83219
460.6506
460.46721
460.2828
460.09683
459.91033
459.72067
459.5318
459.34262
459.15207
458.96256
458.77506
458.58844
458.40377
458.22046
458.04689
457.87625
457.70919
457.5463
462.76697
462.57539
462.38112
462.1841
461.98425
461.7815
461.57582
461.36719
461.15573
460.9414
460.72448
460.50506
460.28336
460.05966
459.83424
459.60835
459.38179
459.1556
458.93016
458.69934
458.48214
458.26429
458.04532
457.8276
457.60631
457.38025
457.1459
463.12788
462.91237
462.6928
462.46914
462.24137
462.00955
461.77378
461.53422
461.2911
461.04594
460.79827
460.54859
460.29748
460.04564
459.7939
459.54231
459.29244
459.04473
458.80047
458.55959
458.31048
458.06286
457.81665
457.55644
457.28917
457.008
456.70243
461.08763
460.94451
460.80257
460.66192
460.52266
460.38488
460.24869
460.1142
459.9815
459.85069
459.72188
459.59516
459.47062
459.34837
459.2285
459.11115
458.99645
458.88458
458.77579
458.67041
458.56885
458.47172
458.37982
458.29422
458.21722
458.14954
458.09343
461.32949
461.18164
461.03458
460.88836
460.74306
460.59876
460.45552
460.31342
460.17252
460.0329
459.89514
459.75883
459.62407
459.49094
459.35954
459.22999
459.10244
458.9771
458.85423
458.7342
458.61747
458.50469
458.3967
458.29459
458.20074
458.11598
458.0429
461.76691
461.60979
461.45268
461.29558
461.13852
460.98152
460.82462
460.66785
460.51122
460.35475
460.19874
460.04297
459.88756
459.7326
459.57821
459.42454
459.27179
459.12021
458.97014
458.822
458.67635
458.5339
458.39554
458.26233
458.13366
458.01349
457.90386
462.31389
462.14233
461.96959
461.79564
461.62047
461.44404
461.26634
461.08737
460.90716
460.72575
460.54233
460.35777
460.17217
459.98568
459.79848
459.61081
459.42294
459.23523
459.04806
458.86188
458.67721
458.49457
458.31453
458.13771
457.96485
457.79838
457.61766
462.84993
462.65858
462.46457
462.26784
462.06831
461.86595
461.66073
461.45265
461.24178
461.02818
460.812
460.59343
460.37272
460.15017
459.92615
459.70104
459.47529
459.24935
459.02369
458.79876
458.57498
458.35272
458.13242
457.9148
457.67743
457.4281
457.19295
463.22874
463.01351
462.79428
462.57103
462.34375
462.11251
461.87742
461.63863
461.39636
461.1509
460.90261
460.65187
460.39915
460.14494
459.88974
459.63405
459.37829
459.12278
458.86762
458.61259
458.35692
458.099
457.83581
457.56191
457.2967
457.02218
456.73134
461.10225
460.95937
460.81768
460.6773
460.53834
460.40088
460.26503
460.1309
459.99859
459.86818
459.74001
459.61395
459.49008
459.36852
459.24935
459.13269
459.01868
458.90751
458.7994
458.69468
458.59379
458.49731
458.40606
458.32112
458.24281
458.17321
458.11574
461.34362
461.19636
461.04993
460.9044
460.75986
460.61638
460.47404
460.33293
460.19312
460.05469
459.91696
459.78071
459.64601
459.51294
459.38159
459.25205
459.12447
458.99902
458.87591
458.75548
458.63815
458.52449
458.41529
458.31163
458.21374
458.12554
458.04827
461.78457
461.62747
461.47036
461.31329
461.15626
460.99932
460.84249
460.68578
460.52924
460.37293
460.21663
460.06064
459.90499
459.74971
459.5949
459.44067
459.28716
459.13455
458.98311
458.83315
458.68509
458.53945
458.39689
458.25817
458.12664
458.00114
457.88305
462.32291
462.15098
461.97785
461.80347
461.62781
461.45081
461.27246
461.09272
460.91158
460.72902
460.54592
460.36153
460.17593
459.98923
459.80159
459.61321
459.42433
459.23528
459.04642
458.85816
458.67098
458.48535
458.30175
458.12059
457.94207
457.76598
457.59135
462.84289
462.65139
462.45723
462.26031
462.06054
461.85787
461.65227
461.44373
461.23228
461.01799
460.801
460.58147
460.35965
460.13582
459.91034
459.68364
459.45617
459.22845
459.00096
458.77417
458.54847
458.32406
458.10089
457.87849
457.6558
457.431
457.20079
463.19869
462.98337
462.76393
462.54032
462.31254
462.08061
461.84464
461.60479
461.36127
461.11439
460.86451
460.61208
460.35762
460.10168
459.84488
459.58786
459.33122
459.07554
458.82128
458.56877
458.31807
458.06897
457.82086
457.57263
457.32268
457.06877
456.80811
461.11885
460.97574
460.83383
460.69321
460.554
460.41628
460.28017
460.14577
460.01317
459.88248
459.7538
459.62722
459.50284
459.38076
459.26109
459.14395
459.0295
458.91794
458.80951
458.70451
458.60337
458.50666
458.41513
458.3298
458.25198
458.18341
458.12741
461.36189
461.21406
461.06702
460.92086
460.77565
460.63145
460.48835
460.34642
460.20573
460.06636
459.92837
459.79185
459.65685
459.52346
459.39177
459.26186
459.13385
459.00927
458.88714
458.76781
458.65175
458.53957
458.43211
458.33044
458.23599
458.15057
458.07772
461.79891
461.64159
461.48427
461.32724
461.17028
461.0134
460.85664
460.70003
460.5436
460.38739
460.23144
460.07582
459.92059
459.76583
459.61166
459.45821
459.30556
459.1547
459.00515
458.85743
458.71208
458.56977
458.43135
458.29795
458.17103
458.05256
457.94279
462.34516
462.17363
462.00093
461.82706
461.65195
461.47558
461.29796
461.11907
460.93893
460.75757
460.57505
460.39145
460.2069
460.02157
459.83567
459.6495
459.4634
459.27548
459.08819
458.90193
458.71716
458.53437
458.35409
458.17684
458.00318
457.83369
457.66911
462.88421
462.69315
462.49949
462.30282
462.10339
461.90116
461.69613
461.48831
461.27775
461.06455
460.84885
460.63086
460.41082
460.18902
459.96582
459.74158
459.5167
459.29156
459.06666
458.84236
458.61891
458.39634
458.17441
457.95242
457.72907
457.50216
457.2683
463.26477
463.04957
462.83042
462.60729
462.38019
462.14918
461.91438
461.67597
461.43417
461.18928
460.94167
460.69175
460.44001
460.18697
459.93316
459.67913
459.42541
459.17241
458.92046
458.66962
458.41964
458.16977
457.91852
457.66334
457.40007
457.12212
456.81903
461.12265
460.97969
460.83801
460.69766
460.55873
460.42133
460.28556
460.15153
460.01933
459.88908
459.76085
459.63476
459.51088
459.38931
459.27015
459.1535
459.03947
458.92823
458.81998
458.71568
458.61515
458.51901
458.42806
458.34231
458.26423
458.19482
458.13749
461.36146
461.21442
461.06787
460.92239
460.77787
460.63441
460.49207
460.35094
460.2111
460.07262
459.93558
459.80005
459.66612
459.53387
459.40341
459.27488
459.14844
459.02298
458.89999
458.77915
458.66151
458.54765
458.43839
458.33369
458.23601
458.14789
458.07066
461.8046
461.64752
461.49059
461.33352
461.17651
461.0196
460.8628
460.70614
460.54965
460.39336
460.2373
460.08152
459.92608
459.77102
459.61644
459.46244
459.30927
459.15639
459.00485
458.85483
458.70672
458.56103
458.41836
458.28174
458.14999
458.02436
457.90618
462.34508
462.17315
462.00004
461.82569
461.65007
461.47314
461.29488
461.11526
460.93427
460.75191
460.56822
460.38322
460.19699
460.00961
459.82122
459.63197
459.44205
459.25399
459.06601
458.87853
458.69203
458.50702
458.32401
458.14336
457.96523
457.78942
457.61496
462.86341
462.67192
462.47777
462.28086
462.08111
461.87848
461.6729
461.46439
461.25298
461.03872
460.82175
460.60224
460.38044
460.15664
459.93123
459.70463
459.47734
459.24988
459.02273
458.79634
458.57107
458.34713
458.12442
457.90248
457.68023
457.45574
457.2256
463.21886
463.00355
462.78413
462.56056
462.33281
462.10095
461.86505
461.62527
461.38186
461.13509
460.88535
460.63308
460.37879
460.12307
459.86651
459.60977
459.35346
459.09816
458.84433
458.5923
458.34214
458.0936
457.84605
457.59836
457.34882
457.09515
456.83455
461.1288
460.9857
460.84379
460.70318
460.56398
460.42627
460.29018
460.15579
460.02321
459.89255
459.76388
459.63732
459.51296
459.39088
459.27121
459.15405
459.03954
458.92788
458.81929
458.71411
458.61277
458.51588
458.42417
458.33861
458.26047
458.19344
458.13758
461.37232
461.22464
461.07761
460.93146
460.78626
460.64209
460.49902
460.35713
460.2165
460.0772
459.93931
459.8029
459.66804
459.53483
459.40335
459.27372
459.14608
459.0206
458.89751
458.77712
458.65982
458.54836
458.44157
458.34057
458.24676
458.1623
458.08935
461.80941
461.65214
461.49481
461.3375
461.18023
461.02339
460.86668
460.71012
460.55374
460.3976
460.24172
460.08618
459.93104
459.77639
459.62234
459.46904
459.31667
459.16548
459.01578
458.86797
458.7224
458.58097
458.44318
458.3104
458.18412
458.06389
457.95448
462.35433
462.18258
462.00992
461.83607
461.66097
461.48467
461.30706
461.12818
460.94804
460.76667
460.58413
460.40048
460.21586
460.0304
459.84431
459.65783
459.47128
459.28502
459.0995
458.91526
458.73297
458.54953
458.36875
458.19114
458.01716
457.84736
457.68274
462.89318
462.70213
462.50848
462.31219
462.11319
461.91096
461.70592
461.49811
461.28758
461.07442
460.85879
460.64089
460.42096
460.19933
459.97634
459.75239
459.52792
459.30333
459.07904
458.85533
458.63233
458.40996
458.18821
457.96639
457.7432
457.51646
457.28279
463.27429
463.05911
462.83998
462.61688
462.38982
462.15888
461.92415
461.68582
461.44413
461.19937
460.9519
460.70216
460.45063
460.19782
459.94429
459.69058
459.43721
459.18461
458.93306
458.68262
458.43302
458.18349
457.93258
457.67773
457.4148
457.13721
456.8345
461.12604
460.98324
460.84166
460.7014
460.56256
460.42524
460.28956
460.15561
460.02349
459.89331
459.76516
459.63913
459.51532
459.39382
459.27474
459.15819
459.0443
458.93326
458.8253
458.72073
458.61999
458.52366
458.43255
458.34772
458.26946
458.20076
458.14323
461.36982
461.22248
461.0758
460.93001
460.78518
460.6414
460.49873
460.35727
460.21706
460.0782
459.94076
459.80479
459.67038
459.53759
459.40653
459.27728
459.14998
459.0248
458.90198
458.78182
458.66477
458.55138
458.44245
458.33907
458.24148
458.15266
458.07563
461.81002
461.65294
461.4958
461.33872
461.18169
461.02475
460.86792
460.71123
460.5547
460.39838
460.24228
460.08647
459.93097
459.77587
459.62123
459.46718
459.31384
459.16142
459.01017
458.8604
458.71253
458.56708
458.42469
458.28612
458.15468
458.02923
457.91115
462.34843
462.17651
462.00365
461.82958
461.65424
461.4776
461.29964
461.12034
460.9397
460.75771
460.57442
460.38987
460.20414
460.01734
459.82964
459.64123
459.45237
459.26336
459.07457
458.88641
458.69933
458.51381
458.33032
458.14924
457.97075
457.79463
457.61987
462.86991
462.67843
462.48428
462.28739
462.08766
461.88505
461.67951
461.47104
461.25967
461.04548
460.82857
460.60914
460.38742
460.1637
459.93834
459.71178
459.48446
459.25688
459.02956
458.80294
458.57741
458.35315
458.13011
457.9078
457.68514
457.46021
457.22956
463.22552
463.01021
462.79079
462.56722
462.33948
462.10762
461.87172
461.63195
461.38853
461.14177
460.89202
460.63975
460.38544
460.12969
459.87309
459.61628
459.35987
459.10444
458.85044
458.59819
458.34775
458.09888
457.85095
457.6028
457.35273
457.09842
456.83707
461.12581
460.98279
460.8409
460.70031
460.56111
460.42341
460.28731
460.15292
460.02035
459.88968
459.76102
459.63447
459.51011
459.38806
459.26841
459.15128
459.03683
458.92524
458.81676
458.71173
458.61059
458.51391
458.42245
458.33719
458.25945
458.19094
458.13498
461.36914
461.22122
461.07418
460.92801
460.78281
460.63864
460.49557
460.35369
460.21306
460.07376
459.93587
459.79944
459.66457
459.53133
459.3998
459.27009
459.14231
459.01662
458.89318
458.77394
458.65808
458.54617
458.43898
458.33758
458.24335
458.15809
458.08533
461.8053
461.64799
461.49092
461.33389
461.17694
461.02007
460.86333
460.70675
460.55036
460.39419
460.23831
460.08275
459.9276
459.77293
459.61885
459.46551
459.31309
459.1618
459.01182
458.86449
458.71945
458.57742
458.43923
458.306
458.17918
458.06073
457.95088
462.35121
462.17966
462.00698
461.83308
461.65796
461.4816
461.30398
461.1251
460.94496
460.7636
460.58107
460.39745
460.21286
460.02745
459.84144
459.6551
459.46876
459.28285
459.09793
458.91174
458.72696
458.54406
458.36362
458.1862
458.01235
457.84263
457.67777
462.8908
462.69974
462.50578
462.30914
462.10975
461.90757
461.70259
461.49483
461.28434
461.07122
460.85561
460.63773
460.41781
460.19617
459.97316
459.74917
459.52463
459.29994
459.07546
458.85142
458.62806
458.40556
458.18367
457.96167
457.73825
457.51118
457.27704
463.27162
463.05644
462.83729
462.61418
462.3871
462.15613
461.92138
461.68302
461.44129
461.19649
460.94898
460.69918
460.44758
460.1947
459.94108
459.68727
459.43377
459.18102
458.92929
458.67865
458.42882
458.17907
457.92789
457.67272
457.4094
457.13129
456.82792
461.12944
460.98649
460.84459
460.70404
460.56494
460.42747
460.29155
460.1571
460.02448
459.89376
459.76515
459.63864
459.51428
459.39243
459.27301
459.15612
459.04239
458.93151
458.82369
458.71921
458.61845
458.52197
458.43056
458.34527
458.26844
458.20016
458.14269
461.37254
461.22458
461.07769
460.93153
460.78612
460.64158
460.49831
460.35661
460.21611
460.07697
459.9389
459.80225
459.66723
459.53416
459.40397
459.27547
459.14936
459.0253
458.90362
458.78469
458.66706
458.55317
458.44381
458.34006
458.24235
458.15429
458.07615
461.79284
461.63715
461.48157
461.32613
461.17089
461.01586
460.86064
460.70568
460.551
460.39667
460.24274
460.08929
459.93642
459.7827
459.62772
459.47352
459.31917
459.1659
459.01398
458.86384
458.71488
458.56884
458.42615
458.28757
458.15402
458.02665
457.90904
462.3509
462.17899
462.00587
461.83154
461.65596
461.47913
461.30093
461.12147
460.94068
460.75856
460.57514
460.39044
460.2045
460.0174
459.82926
459.64027
459.45064
459.26066
459.07061
458.88081
458.69496
458.51032
458.32741
458.14665
457.96828
457.79225
457.61761
462.86962
462.67786
462.48341
462.28616
462.08602
461.88294
461.67748
461.46907
461.25774
461.04358
460.82668
460.60724
460.38548
460.16169
459.93623
459.70952
459.48203
459.25428
459.02679
458.8001
458.57457
458.35036
458.12739
457.90515
457.68256
457.4577
457.22713
463.22388
463.00856
462.78913
462.56554
462.33778
462.10588
461.86995
461.63014
461.38668
461.13986
460.89007
460.63773
460.38337
460.12754
459.87087
459.61398
459.35749
459.10197
458.8479
458.59559
458.3451
458.0962
457.84824
457.60005
457.34991
457.09549
456.83393
461.12039
460.97728
460.83538
460.69478
460.55559
460.41792
460.282
460.14782
460.01546
459.88502
459.75661
459.6303
459.5062
459.3844
459.265
459.14813
459.03391
458.92251
458.81417
458.70917
458.60794
458.51109
458.4201
458.33526
458.25799
458.18998
458.13337
461.36058
461.21289
461.06601
460.92
460.77493
460.63141
460.48987
460.34962
460.21004
460.07097
459.93331
459.79716
459.66259
459.52971
459.39862
459.26948
459.14245
459.0178
458.89586
458.7753
458.65816
458.545
458.43583
458.33241
458.23888
458.15445
458.0816
461.80654
461.65012
461.49308
461.33681
461.18075
461.02393
460.86605
460.70798
460.55111
460.39425
460.23771
460.0815
459.92566
459.77026
459.61538
459.4611
459.30754
459.1548
459.00584
458.85797
458.7127
458.5704
458.43185
458.29786
458.17147
458.05262
457.94407
462.35682
462.18401
462.01064
461.83526
461.65883
461.48122
461.30207
461.12178
460.93996
460.75851
460.57577
460.39184
460.20684
460.02089
459.83418
459.6469
459.45928
459.27134
459.08438
458.90069
458.71825
458.53769
458.35974
458.18532
458.01038
457.83988
457.67463
462.88333
462.6923
462.4987
462.30239
462.10329
461.90134
461.6966
461.48908
461.27885
461.06601
460.85071
460.63316
460.41363
460.19246
459.97008
459.74698
459.52375
459.30111
459.07565
458.85101
458.62729
458.40457
458.18253
457.96025
457.73619
457.50857
457.27394
463.26847
463.05351
462.83463
462.61183
462.3847
462.1537
461.91892
461.68055
461.43883
461.19405
460.94659
460.69689
460.44542
460.19271
459.9393
459.68574
459.4325
459.17993
458.92818
458.67733
458.42733
458.17738
457.92596
457.67045
457.4067
457.12814
456.82427
461.12875
460.98572
460.84388
460.70333
460.56428
460.42697
460.2913
460.15736
460.02525
459.89509
459.76695
459.64095
459.51717
459.39572
459.27629
459.15936
459.04508
458.93362
458.82521
458.72018
458.61895
458.52212
458.43049
458.34426
458.26571
458.19669
458.13964
461.3695
461.2225
461.07637
460.93119
460.78677
460.64296
460.50025
460.35874
460.21848
460.07956
459.94204
459.80601
459.67155
459.53876
459.40731
459.27771
459.15006
459.02453
458.90133
458.78076
458.66323
458.54929
458.43968
458.33631
458.23965
458.1515
458.07422
461.81799
461.66078
461.50296
461.34432
461.18627
461.02913
460.8712
460.71216
460.55409
460.39742
460.24103
460.08494
459.9292
459.77378
459.61961
459.46597
459.313
459.16089
459.00993
458.86044
458.7129
458.56786
458.42605
458.28832
458.15568
458.02934
457.91058
462.35473
462.18183
462.0083
461.83434
461.65844
461.48023
461.30159
461.12293
460.94193
460.75813
460.57437
460.39119
460.20686
460.01967
459.83156
459.64276
459.45351
459.26416
459.07507
458.88664
458.69935
458.51364
458.32996
458.14864
457.96984
457.7934
457.61834
462.85952
462.6691
462.47611
462.28048
462.08214
461.88104
461.67716
461.47049
461.26108
461.049
460.83292
460.61246
460.38989
460.16513
459.9391
459.71196
459.48417
459.25622
459.02859
458.80173
458.57598
458.35153
458.1283
457.90579
457.68292
457.45777
457.2269
463.22464
463.00913
462.78952
462.56573
462.33775
462.10561
461.8694
461.62924
461.38534
461.13794
460.88735
460.63397
460.37828
460.12347
459.8677
459.61159
459.35576
459.10078
458.84713
458.5951
458.34479
458.09595
457.84795
457.59965
457.34934
457.0947
456.83293
461.11791
460.97488
460.83305
460.69254
460.55342
460.41582
460.27984
460.14558
460.01295
459.88224
459.75354
459.62694
459.50255
459.38047
459.2608
459.14368
459.02926
458.91773
458.80932
458.70434
458.6032
458.50648
458.41493
458.32955
458.25166
458.18413
458.12802
461.36094
461.21303
461.0659
460.91964
460.77432
460.63
460.48677
460.3447
460.20405
460.06472
459.92678
459.7903
459.65535
459.522
459.39033
459.26044
459.13363
459.00902
458.88686
458.7675
458.6514
458.53917
458.43163
458.32984
458.23516
458.15058
458.07731
461.79467
461.63757
461.48051
461.32351
461.1666
461.00981
460.85317
460.69671
460.54046
460.38446
460.22876
460.07339
459.9184
459.76388
459.60991
459.45655
459.30462
459.15369
459.00419
458.85652
458.71122
458.56895
458.43059
458.29727
458.1705
458.04977
457.9398
462.3255
462.15528
461.98398
461.81159
461.63806
461.46337
461.28749
461.11039
460.93206
460.75249
460.57166
460.39091
460.20782
460.02211
459.83596
459.64965
459.4615
459.2736
459.08633
458.90009
458.7153
458.53244
458.35199
458.17445
458.00029
457.83005
457.66471
462.88599
462.69434
462.50003
462.30325
462.10371
461.90135
461.69612
461.488
461.27699
461.06315
460.8464
460.62667
460.40547
460.18442
459.96182
459.73803
459.51347
459.28862
459.06393
458.83974
458.61629
458.39361
458.17143
457.94904
457.72507
457.49731
457.26228
463.27045
463.05525
462.83606
462.61256
462.38496
462.15337
461.91792
461.67884
461.43643
461.19109
460.94337
460.69243
460.44026
460.18681
459.93262
459.67825
459.4242
459.17092
458.91869
458.66756
458.41726
458.167
457.91526
457.65944
457.39533
457.11628
456.81176
461.12603
460.98292
460.841
460.70036
460.56112
460.42337
460.28722
460.15276
460.02011
459.88936
459.76061
459.63395
459.5098
459.38793
459.26866
459.15213
459.03821
458.92704
458.81942
458.71504
458.61434
458.51791
458.42653
458.34127
458.26354
458.19402
458.13627
461.36491
461.21723
461.07035
460.92436
460.77932
460.63531
460.49239
460.35065
460.21013
460.07091
459.93303
459.79745
459.66486
459.53395
459.40424
459.27565
459.14909
459.02478
458.90242
458.78119
458.66316
458.5489
458.4392
458.33509
458.23801
458.14866
458.07067
461.79371
461.63783
461.48204
461.32638
461.17089
461.0156
460.86055
460.70579
460.55138
460.39737
460.24386
460.08955
459.93335
459.77758
459.62231
459.46767
459.3138
459.16089
459.0093
458.85845
458.70984
458.5638
458.42098
458.28214
458.1482
458.02272
457.90453
462.34899
462.17709
462.00401
461.82971
461.65416
461.47731
461.29914
461.11963
460.93877
460.75653
460.57294
460.388
460.20177
460.01438
459.82595
459.63665
459.44671
459.25636
459.06588
458.87857
458.69204
458.50683
458.32341
458.14222
457.96352
457.78716
457.61216
462.8682
462.6767
462.48253
462.28559
462.0858
461.88311
461.67746
461.46886
461.25733
461.04294
460.82581
460.60611
460.38408
460.16001
459.93426
459.70725
459.47948
459.25144
459.0237
458.79673
458.57085
458.34625
458.12284
457.90014
457.67707
457.45172
457.22064
463.22335
463.00803
462.78859
462.56498
462.33719
462.10525
461.86926
461.62937
461.38581
461.13888
460.88893
460.63641
460.38184
460.12578
459.86884
459.61165
459.35483
459.09896
458.84451
458.59178
458.34085
458.09148
457.84302
457.59433
457.34369
457.08881
456.82687
461.10988
460.96686
460.82504
460.68453
460.54542
460.40783
460.27185
460.13758
460.00511
459.8747
459.74648
459.62034
459.49669
459.37535
459.25642
459.14002
459.02561
458.91383
458.80517
458.69999
458.59874
458.50206
458.41077
458.3251
458.2474
458.1794
458.12332
461.34815
461.20114
461.05499
460.90978
460.76558
460.62248
460.48055
460.33988
460.20058
460.06227
459.92487
459.78897
459.65433
459.52046
459.38817
459.25805
459.129
459.00297
458.87942
458.75871
458.64136
458.52791
458.41901
458.31652
458.2238
458.14006
458.06782
461.79782
461.64073
461.48373
461.32686
461.16931
461.01163
460.85421
460.69566
460.53809
460.38197
460.22494
460.06663
459.90854
459.75198
459.59601
459.44009
459.28755
459.13592
458.98542
458.83627
458.69241
458.55126
458.41364
458.28039
458.1544
458.03559
457.92656
462.34154
462.16854
461.99442
461.81894
461.64278
461.46522
461.28589
461.1064
460.92439
460.73937
460.55414
460.3693
460.18488
459.99965
459.81378
459.62753
459.44116
459.25497
459.06932
458.88436
458.70201
458.52112
458.34279
458.16789
457.99233
457.82105
457.65481
462.86604
462.67463
462.48055
462.2837
462.08418
461.88203
461.67721
461.4697
461.25952
461.04678
460.83165
460.61421
460.39502
460.17395
459.95158
459.72837
459.50479
459.28139
459.05874
458.83749
458.61243
458.3885
458.16528
457.9418
457.71645
457.48736
457.25101
463.24978
463.03502
462.81619
462.59341
462.36672
462.13619
461.90196
461.66421
461.42321
461.17929
460.93286
460.6844
460.43221
460.17884
459.92482
459.67071
459.41701
459.16408
458.91213
458.66099
458.41017
458.15924
457.90666
457.6498
457.38444
457.10395
456.7977
461.12216
460.97935
460.83766
460.69727
460.55828
460.4208
460.28493
460.15076
460.01839
459.88793
459.75947
459.63311
459.50894
459.38704
459.26753
459.1505
459.03614
458.92452
458.81536
458.70986
458.60841
458.51135
458.4203
458.33538
458.25796
458.18979
458.13334
461.37052
461.22268
461.07553
460.92935
460.78366
460.63891
460.4956
460.35404
460.21321
460.07302
459.93414
459.79727
459.66278
459.52916
459.39624
459.26515
459.13601
459.00933
458.88844
458.77086
458.65553
458.54348
458.43665
458.3351
458.23715
458.14785
458.06963
461.81097
461.65295
461.49505
461.33694
461.17942
461.02198
460.86401
460.70522
460.54721
460.39024
460.23345
460.07689
459.91946
459.76365
459.60997
459.45705
459.30665
459.15922
459.01206
458.8643
458.71888
458.57245
458.42767
458.28754
458.15145
458.02249
457.90147
462.33978
462.16819
461.99543
461.82145
461.64623
461.46974
461.29196
461.1129
460.93258
460.75103
460.56824
460.38456
460.20133
460.01922
459.83646
459.65334
459.46503
459.2742
459.08153
458.88971
458.69942
458.50944
458.32205
458.13689
457.95887
457.78282
457.608
462.86464
462.67355
462.47984
462.28348
462.08441
461.88262
461.67811
461.47095
461.26125
461.04969
460.83524
460.61721
460.39531
460.16932
459.94165
459.71288
459.48249
459.25204
459.02149
458.79121
458.56131
458.33829
458.11586
457.89385
457.67134
457.44642
457.21567
463.2224
463.00708
462.78767
462.56411
462.33638
462.10448
461.86847
461.62843
461.38449
461.13653
460.88606
460.63291
460.3773
460.11975
459.8608
459.60097
459.34541
459.0904
458.83649
458.58409
458.33349
458.08451
457.83644
457.58808
457.3377
457.08294
456.82097
461.10739
460.96429
460.82245
460.68198
460.54294
460.40528
460.26926
460.13494
460.00245
459.87186
459.74332
459.61687
459.49266
459.37057
459.25094
459.13387
459.0195
458.90797
458.79951
458.69442
458.5938
458.4975
458.40631
458.32128
458.24377
458.17547
458.11938
461.35022
461.20236
461.0551
460.90849
460.76288
460.61842
460.47524
460.33324
460.19243
460.05297
459.9148
459.77813
459.64286
459.50968
459.37911
459.25159
459.12587
459.00212
458.88059
458.76076
458.64369
458.53053
458.42227
458.32016
458.22571
458.14084
458.06724
461.78003
461.6229
461.46578
461.30869
461.15163
460.99461
460.83775
460.68091
460.52546
460.3719
460.21868
460.06585
459.91351
459.76178
459.60915
459.45521
459.30222
459.14933
458.99742
458.84623
458.69687
458.55078
458.4084
458.27551
458.14883
458.03007
457.92164
462.32726
462.15731
461.98632
461.81431
461.64125
461.46714
461.29159
461.11506
460.93526
460.75232
460.5681
460.38262
460.19593
460.00807
459.81909
459.62912
459.43828
459.24829
459.05941
458.86983
458.68266
458.50263
458.32418
458.15001
457.978
457.80937
457.64499
462.87137
462.67959
462.48515
462.28798
462.08798
461.8851
461.67928
461.47056
461.2589
461.04446
460.82728
460.60751
460.38515
460.16056
459.9343
459.70707
459.47874
459.25279
459.02742
458.80886
458.59041
458.37437
458.15837
457.93495
457.70979
457.4807
457.24415
463.2348
463.01934
462.79983
462.57624
462.34858
462.11689
461.88129
461.64197
461.40018
461.15537
460.90799
460.6586
460.40802
460.15691
459.90586
459.65544
459.40673
459.15728
458.90907
458.66146
458.41629
458.16289
457.90806
457.64875
457.38137
457.09909
456.79114
461.1219
460.97888
460.83705
460.69654
460.55743
460.41983
460.28385
460.14959
460.01716
459.88666
459.75818
459.63182
459.50766
459.3858
459.26633
459.14935
459.035
458.92342
458.81483
458.7097
458.60848
458.51141
458.4201
458.33478
458.25685
458.18702
458.12886
461.36164
461.21401
461.06716
460.92117
460.77609
460.632
460.48897
460.34705
460.20705
460.06881
459.93198
459.7966
459.66276
459.53053
459.39999
459.27126
459.14446
459.01978
458.89746
458.77722
458.65938
458.54537
458.43512
458.3305
458.23294
458.1431
458.06461
461.79811
461.64208
461.48614
461.33032
461.17468
461.01925
460.86408
460.70923
460.55371
460.39697
460.24048
460.08426
459.92834
459.77278
459.61771
459.46325
459.30954
459.15675
459.00511
458.85489
458.70652
458.56055
458.41763
458.2786
458.14443
458.01868
457.90023
462.35002
462.17812
462.00507
461.83083
461.65536
461.47866
461.30073
461.12041
460.93711
460.75394
460.5706
460.38587
460.20015
460.01262
459.82315
459.63435
459.44634
459.25774
459.06893
458.88042
458.69277
458.50653
458.32221
458.14024
457.96086
457.78395
457.60852
462.86788
462.676
462.48178
462.28475
462.08443
461.88051
461.674
461.46556
461.255
461.04099
460.82336
460.60368
460.382
460.15983
459.93815
459.71521
459.48971
459.25806
459.02752
458.79841
458.57093
458.34515
458.12088
457.89754
457.67399
457.44831
457.21703
463.22746
463.01218
462.79254
462.56866
462.34078
462.10915
461.8731
461.63306
461.38991
461.14322
460.89329
460.64041
460.38489
460.12704
459.86704
459.60483
459.34329
459.08925
458.83673
458.58544
458.33553
458.08683
457.83876
457.59026
457.33964
457.08468
456.82259
461.10232
460.95929
460.81745
460.67691
460.53777
460.40013
460.26408
460.12986
459.99761
459.86727
459.73895
459.61274
459.48871
459.36731
459.24831
459.13182
459.01799
458.9064
458.7978
458.69253
458.591
458.49381
458.40173
458.31589
458.23783
458.16938
458.11303
461.34026
461.19325
461.04708
460.90186
460.75765
460.61455
460.47264
460.33165
460.19153
460.05276
459.91543
459.7796
459.64537
459.51246
459.3813
459.252
459.12469
458.99896
458.87494
458.75345
458.63561
458.52109
458.41183
458.30877
458.2127
458.12544
458.05333
461.78299
461.62586
461.46873
461.31164
461.15459
460.99761
460.84073
460.68396
460.52733
460.37088
460.21463
460.05862
459.90291
459.74758
459.59269
459.43787
459.28436
459.13148
458.9823
458.83312
458.6845
458.53911
458.40151
458.26962
458.14097
458.01319
457.90077
462.32313
462.15166
461.97878
461.80468
461.62932
461.45266
461.27467
461.09533
460.91462
460.73255
460.54912
460.36437
460.17832
459.99089
459.80458
459.61789
459.42993
459.24375
459.05639
458.86706
458.67969
458.49641
458.3156
458.12737
457.96021
457.80431
457.62369
462.8499
462.65838
462.46428
462.26751
462.06798
461.86562
461.6604
461.45234
461.24147
461.02788
460.8117
460.59314
460.37248
460.15007
459.92401
459.69682
459.46891
459.24062
459.0122
458.78871
458.5654
458.34361
458.12234
457.90358
457.68761
457.46547
457.25827
463.20901
462.99354
462.77427
462.55093
462.32353
462.09211
461.8568
461.61778
461.37529
461.12967
460.88131
460.63071
460.37842
460.12508
459.87139
459.61816
459.36621
459.11643
458.86972
458.62695
458.38907
458.14933
457.90427
457.66297
457.39271
457.1132
456.81328
461.11673
460.97385
460.8321
460.69172
460.55265
460.41506
460.27918
460.14492
460.01245
459.88192
459.75337
459.62695
459.50269
459.38077
459.26122
459.14425
459.02992
458.91854
458.81026
458.70553
458.60394
458.50689
458.41488
458.32891
458.25032
458.18181
458.12475
461.36516
461.21744
461.07032