/*--------------------------------*- C++ -*----------------------------------*\
| =========                 |                                                 |
| \\      /  F ield         | OpenFOAM: The Open Source CFD Toolbox           |
|  \\    /   O peration     | Version:  3.0.1                                 |
|   \\  /    A nd           | Web:      www.OpenFOAM.org                      |
|    \\/     M anipulation  |                                                 |
\*---------------------------------------------------------------------------*/
FoamFile
{
    version     2.0;
    format      ascii;
    class       surfaceScalarField;
    location    "3500/fluid";
    object      phi;
}
// * * * * * * * * * * * * * * * * * * * * * * * * * * * * * * * * * * * * * //

dimensions      [1 0 -1 0 0 0 0];

internalField   nonuniform List<scalar> 
9850
(
1.8194567e-11
3.9989046e-10
6.5448764e-11
1.3301455e-09
1.4173731e-10
2.5091704e-09
2.4865697e-10
3.9780111e-09
3.8653654e-10
5.7824836e-09
5.5415851e-10
7.9716662e-09
7.485885e-10
1.0597784e-08
9.6516724e-10
1.3716559e-08
1.197695e-09
1.7388144e-08
1.4388228e-09
2.1679163e-08
1.6806217e-09
2.6665959e-08
1.9152609e-09
3.243933e-08
2.1357156e-09
3.9110786e-08
2.3364007e-09
4.6820337e-08
2.5136572e-09
5.5745521e-08
2.6660246e-09
6.611142e-08
2.7942872e-09
7.8201581e-08
2.9013033e-09
9.2369401e-08
2.9916485e-09
1.0905062e-07
3.0711371e-09
1.2877685e-07
3.1462744e-09
1.5219158e-07
3.2237385e-09
1.8006911e-07
3.30992e-09
2.1333887e-07
3.410584e-09
2.5311525e-07
3.5306438e-09
3.0073584e-07
3.6739927e-09
3.5780885e-07
3.8433146e-09
4.2627028e-07
4.0398254e-09
5.0845543e-07
4.2628217e-09
6.0718199e-07
4.5091251e-09
7.2585263e-07
4.7724323e-09
8.6857795e-07
5.0428005e-09
1.0403232e-06
5.3063573e-09
1.2470878e-06
5.5455279e-09
1.4961194e-06
5.7398404e-09
1.7961769e-06
5.8674611e-09
2.157845e-06
5.9073295e-09
2.5939149e-06
5.8417283e-09
3.1198495e-06
5.6589743e-09
3.7543423e-06
5.3556662e-09
4.5199918e-06
4.9381827e-09
5.4441284e-06
4.422827e-09
6.5597992e-06
3.8343799e-09
7.9069781e-06
3.2009127e-09
9.5340147e-06
2.5582342e-09
1.1499379e-05
1.9389221e-09
1.3873815e-05
1.3713031e-09
1.6742892e-05
8.7124167e-10
2.0210131e-05
4.2670904e-10
2.4400795e-05
2.9466366e-05
1.5458837e-10
2.4530221e-10
6.4997446e-10
8.3475947e-10
1.5463462e-09
1.6127987e-09
2.8979653e-09
2.6263921e-09
4.7491615e-09
3.9312874e-09
7.1281306e-09
5.5926971e-09
1.0040386e-08
7.6855281e-09
1.3462681e-08
1.0294264e-08
1.733835e-08
1.3512475e-08
2.1575207e-08
1.7442306e-08
2.6047179e-08
2.2193987e-08
3.0599841e-08
2.7886669e-08
3.5060783e-08
3.4649843e-08
3.9253608e-08
4.2627512e-08
4.3014603e-08
5.1984527e-08
4.6209448e-08
6.2916575e-08
4.8747473e-08
7.5663556e-08
5.059026e-08
9.0526614e-08
5.1752599e-08
1.0788828e-07
5.2294813e-08
1.2823464e-07
5.2307905e-08
1.5217848e-07
5.1894644e-08
1.8048237e-07
5.1151262e-08
2.1408225e-07
5.0153842e-08
2.5411267e-07
4.895208e-08
3.019376e-07
4.757028e-08
3.5919065e-07
4.6013576e-08
4.2782698e-07
4.4276187e-08
5.1019282e-07
4.234915e-08
6.0910903e-07
4.0226103e-08
7.2797568e-07
3.7907044e-08
8.7089702e-07
3.5400491e-08
1.0428297e-06
3.2724785e-08
1.2497635e-06
2.9908548e-08
1.4989356e-06
2.6990449e-08
1.799095e-06
2.4017905e-08
2.1608175e-06
2.1044655e-08
2.5968882e-06
1.8126895e-08
3.1227673e-06
1.5321907e-08
3.7571473e-06
1.2681711e-08
4.522632e-06
1.0253255e-08
5.4465568e-06
8.0760527e-09
6.5619764e-06
6.1886091e-09
7.9088656e-06
4.5432475e-09
9.5356601e-06
3.1467501e-09
1.1500775e-05
2.0178769e-09
1.3874944e-05
1.1430237e-09
1.6743766e-05
5.4427481e-10
2.021073e-05
1.4885248e-10
2.440119e-05
2.9466514e-05
1.1379617e-11
2.3392265e-10
5.3742503e-11
7.9239661e-10
1.4177751e-10
1.5247637e-09
2.9476469e-10
2.4734049e-09
5.3652087e-10
3.6895314e-09
8.9464471e-10
5.2345733e-09
1.3986757e-09
7.181497e-09
2.0769325e-09
9.6160068e-09
2.9520656e-09
1.2637342e-08
4.0356486e-09
1.6358723e-08
5.3223778e-09
2.0907258e-08
6.7856965e-09
2.6423351e-08
8.3751929e-09
3.3060347e-08
1.0017804e-08
4.09849e-08
1.1622934e-08
5.0379397e-08
1.3091852e-08
6.1447658e-08
1.4329932e-08
7.4425475e-08
1.5260018e-08
8.9596529e-08
1.5833943e-08
1.0731436e-07
1.6039625e-08
1.2802896e-07
1.5901405e-08
1.523167e-07
1.5473201e-08
1.8091057e-07
1.4825949e-08
2.147295e-07
1.4032978e-08
2.5490564e-07
1.315757e-08
3.0281301e-07
1.2246139e-08
3.6010208e-07
1.13279e-08
4.2874522e-07
1.0419293e-08
5.1110143e-07
9.5299927e-09
6.0999833e-07
8.6676549e-09
7.2883802e-07
7.8399813e-09
8.717247e-07
7.0543379e-09
1.0436154e-06
6.3161013e-09
1.2505017e-06
5.6268019e-09
1.4996249e-06
4.9830875e-09
1.7997387e-06
4.3768716e-09
2.1614237e-06
3.7971708e-09
2.5974679e-06
3.2124974e-09
3.123352e-06
2.6063701e-09
3.7577534e-06
1.9669863e-09
4.5232713e-06
1.2923245e-09
5.4472315e-06
5.778803e-10
6.5626909e-06
-1.5649602e-10
7.9096e-06
-7.6763492e-10
9.5362712e-06
-1.2278031e-09
1.1501235e-05
-1.4846529e-09
1.3875201e-05
-1.5288368e-09
1.6743811e-05
-1.2902723e-09
2.0210491e-05
-8.1911632e-10
2.4400719e-05
2.9465695e-05
-2.5431845e-12
2.3646584e-10
-9.7545786e-12
7.9960804e-10
-2.128144e-11
1.5362905e-09
-3.5898896e-11
2.4880225e-09
-5.1036463e-11
3.7046688e-09
-6.2273424e-11
5.2458102e-09
-6.2858481e-11
7.1820821e-09
-4.3420286e-11
9.5965684e-09
7.9387925e-12
1.2585983e-08
1.0471876e-10
1.6261943e-08
2.6053825e-10
2.0751438e-08
4.8649306e-10
2.6197396e-08
7.8778329e-10
3.2759057e-08
1.1604238e-09
4.0612259e-08
1.5888266e-09
4.9950994e-08
2.0455947e-09
6.099089e-08
2.4941871e-09
7.3976883e-08
2.8947306e-09
8.9195985e-08
3.2118908e-09
1.069972e-07
3.4230061e-09
1.2781784e-07
3.5238273e-09
1.5221588e-07
3.5296934e-09
1.8090471e-07
3.4709562e-09
2.1478824e-07
3.3837391e-09
2.5499286e-07
3.2988547e-09
3.0289789e-07
3.2329571e-09
3.6016798e-07
3.18482e-09
4.2879336e-07
3.1375985e-09
5.1114865e-07
3.0650313e-09
6.100709e-07
2.9386194e-09
7.2896444e-07
2.7331936e-09
8.7193013e-07
2.4299804e-09
1.0439186e-06
2.0180473e-09
1.2509137e-06
1.4940501e-09
1.5001489e-06
8.6348765e-10
1.8003693e-06
1.3676855e-10
2.1621504e-06
-6.6400071e-10
2.5982686e-06
-1.4847073e-09
3.1241727e-06
-2.2877721e-09
3.7585565e-06
-3.0330783e-09
4.5240167e-06
-3.6837459e-09
5.4478822e-06
-4.1897269e-09
6.5631969e-06
-4.5410863e-09
7.9099513e-06
-4.7065747e-09
9.5364367e-06
-4.6680494e-09
1.1501197e-05
-4.3692517e-09
1.3874902e-05
-3.8091969e-09
1.6743251e-05
-2.9004009e-09
2.0209582e-05
-1.6781877e-09
2.4399497e-05
2.9464017e-05
-1.1928801e-11
2.4839459e-10
-5.1564149e-11
8.3924338e-10
-1.2625334e-10
1.6109797e-09
-2.4435776e-10
2.6061267e-09
-4.1515525e-10
3.8754662e-09
-6.4855098e-10
5.4792057e-09
-9.5458193e-10
7.4881131e-09
-1.3426519e-09
9.9846385e-09
-1.820585e-09
1.3063916e-08
-2.3932301e-09
1.6834588e-08
-3.0614694e-09
2.1419677e-08
-3.8212391e-09
2.6957165e-08
-4.6630327e-09
3.3600851e-08
-5.5723929e-09
4.1521619e-08
-6.5312329e-09
5.0909835e-08
-7.5199859e-09
6.1979643e-08
-8.5197817e-09
7.4976679e-08
-9.5139852e-09
9.0190189e-08
-1.048824e-08
1.0797146e-07
-1.1428975e-08
1.2875858e-07
-1.2320945e-08
1.5310786e-07
-1.314525e-08
1.8172901e-07
-1.3879326e-08
2.1552231e-07
-1.4499838e-08
2.5561338e-07
-1.4987854e-08
3.0338591e-07
-1.5334265e-08
3.6051439e-07
-1.5542731e-08
4.2900183e-07
-1.562842e-08
5.1123434e-07
-1.5612979e-08
6.1005546e-07
-1.5518193e-08
7.2886966e-07
-1.5361211e-08
8.7177315e-07
-1.5152937e-08
1.0437103e-06
-1.4899329e-08
1.2506601e-06
-1.4603753e-08
1.4998534e-06
-1.4269998e-08
1.8000356e-06
-1.3900114e-08
2.1617806e-06
-1.3503027e-08
2.5978715e-06
-1.3084669e-08
3.1237543e-06
-1.2650168e-08
3.758122e-06
-1.2194634e-08
4.5235611e-06
-1.1715763e-08
5.4474033e-06
-1.1186147e-08
6.5626673e-06
-1.0586926e-08
7.9093521e-06
-9.8715278e-09
9.5357213e-06
-9.0076242e-09
1.1500333e-05
-7.912146e-09
1.3873807e-05
-6.5553931e-09
1.6741894e-05
-4.8196521e-09
2.0207847e-05
-2.6894585e-09
2.4397367e-05
2.9461328e-05
-1.1224374e-11
2.5961892e-10
-4.9010438e-11
8.7702957e-10
-1.2125305e-10
1.6832225e-09
-2.3748995e-10
2.7223637e-09
-4.0906376e-10
4.0470399e-09
-6.4921316e-10
5.7193551e-09
-9.7302695e-10
7.8119271e-09
-1.3971842e-09
1.0408796e-08
-1.9393498e-09
1.3606082e-08
-2.6171643e-09
1.7512402e-08
-3.4466384e-09
2.2249151e-08
-4.4401635e-09
2.795069e-08
-5.6040249e-09
3.4764712e-08
-6.9358521e-09
4.2853446e-08
-8.4224118e-09
5.2396395e-08
-1.0038393e-08
6.3595624e-08
-1.1746623e-08
7.668491e-08
-1.3499974e-08
9.1943541e-08
-1.5244638e-08
1.0971612e-07
-1.6924147e-08
1.3043809e-07
-1.8483392e-08
1.546671e-07
-1.9872188e-08
1.8311781e-07
-2.1048523e-08
2.1669865e-07
-2.1981917e-08
2.5654677e-07
-2.2656982e-08
3.0406098e-07
-2.3076449e-08
3.6093386e-07
-2.3261985e-08
4.2918737e-07
-2.3251297e-08
5.1122366e-07
-2.3091347e-08
6.0989552e-07
-2.2829622e-08
7.2860793e-07
-2.2506476e-08
8.7145e-07
-2.2150686e-08
1.0433546e-06
-2.1779319e-08
1.2502887e-06
-2.1398692e-08
1.4994727e-06
-2.1008438e-08
1.7996453e-06
-2.0600608e-08
2.1613727e-06
-2.0164952e-08
2.5974359e-06
-1.9688203e-08
3.1232776e-06
-1.915373e-08
3.7575875e-06
-1.8535981e-08
4.5229434e-06
-1.7814758e-08
5.4466821e-06
-1.6955689e-08
6.5618082e-06
-1.5932813e-08
7.9083292e-06
-1.4711077e-08
9.5344995e-06
-1.3262397e-08
1.1498884e-05
-1.1507214e-08
1.3872051e-05
-9.4085868e-09
1.6739795e-05
-6.8473002e-09
2.0205285e-05
-3.769669e-09
2.4394289e-05
2.9457558e-05
-1.1849594e-11
2.7146846e-10
-5.1956623e-11
9.1713646e-10
-1.2895773e-10
1.7602237e-09
-2.5340157e-10
2.8468076e-09
-4.3803634e-10
4.2316748e-09
-6.9805826e-10
5.979377e-09
-1.0512754e-09
8.1651444e-09
-1.5181222e-09
1.0875643e-08
-2.1213887e-09
1.4209348e-08
-2.8856292e-09
1.8276643e-08
-3.8359655e-09
2.3199487e-08
-4.9961468e-09
2.9110872e-08
-6.3858288e-09
3.6154394e-08
-8.0170778e-09
4.4484695e-08
-9.8903775e-09
5.4269695e-08
-1.1990727e-08
6.5695973e-08
-1.4284689e-08
7.8978873e-08
-1.6719385e-08
9.4378236e-08
-1.9224205e-08
1.1222094e-07
-2.1715498e-08
1.3292938e-07
-2.4103705e-08
1.5705531e-07
-2.6301834e-08
1.8531594e-07
-2.8233957e-08
2.1863077e-07
-2.984263e-08
2.5815544e-07
-3.1094444e-08
3.0531279e-07
-3.198301e-08
3.6182243e-07
-3.2528495e-08
4.2973286e-07
-3.2772896e-08
5.1146806e-07
-3.277124e-08
6.0989387e-07
-3.2580512e-08
7.2841721e-07
-3.2249777e-08
8.7111927e-07
-3.1814114e-08
1.0429189e-06
-3.1294168e-08
1.2497688e-06
-3.069869e-08
1.4988773e-06
-3.00295e-08
1.7989761e-06
-2.9284084e-08
2.1606273e-06
-2.8458093e-08
2.5966099e-06
-2.7547459e-08
3.122367e-06
-2.6546024e-08
3.7565861e-06
-2.5439435e-08
4.5218368e-06
-2.4212938e-08
5.4454556e-06
-2.2838017e-08
6.5604333e-06
-2.1285053e-08
7.9067763e-06
-1.9502708e-08
9.5327172e-06
-1.7451121e-08
1.1496833e-05
-1.504343e-08
1.3869644e-05
-1.221875e-08
1.673697e-05
-8.8509573e-09
2.0201918e-05
-4.8408234e-09
2.4390279e-05
2.9452717e-05
-1.0753004e-11
2.8222148e-10
-4.730629e-11
9.5368982e-10
-1.1780718e-10
1.8307245e-09
-2.3235969e-10
2.9613601e-09
-4.0338148e-10
4.4026967e-09
-6.4597175e-10
6.2219671e-09
-9.7825247e-10
8.4974252e-09
-1.4216278e-09
1.1319018e-08
-2.0008595e-09
1.478858e-08
-2.7438284e-09
1.9019612e-08
-3.6807966e-09
2.4136456e-08
-4.8429476e-09
3.0273023e-08
-6.2599806e-09
3.7571427e-08
-7.9565945e-09
4.6181309e-08
-9.9478872e-09
5.6260988e-08
-1.2233987e-08
6.7982073e-08
-1.4794689e-08
8.1539576e-08
-1.75853e-08
9.7168848e-08
-2.0535113e-08
1.1517075e-07
-2.3549764e-08
1.3594403e-07
-2.6518002e-08
1.6002355e-07
-2.9322288e-08
1.8812023e-07
-3.1851656e-08
2.2116014e-07
-3.4014584e-08
2.6031837e-07
-3.5749669e-08
3.0704788e-07
-3.7032239e-08
3.6310501e-07
-3.7875525e-08
4.3057614e-07
-3.8325666e-08
5.119182e-07
-3.8450968e-08
6.1001917e-07
-3.8327545e-08
7.282938e-07
-3.8025168e-08
8.708169e-07
-3.7597234e-08
1.042491e-06
-3.707715e-08
1.2492487e-06
-3.6480165e-08
1.4982803e-06
-3.5808104e-08
1.7983041e-06
-3.5054169e-08
2.1598734e-06
-3.420594e-08
2.5957617e-06
-3.3246874e-08
3.1214079e-06
-3.2158765e-08
3.755498e-06
-3.0917504e-08
4.5205955e-06
-2.9498586e-08
5.4440367e-06
-2.7867439e-08
6.5588021e-06
-2.5990754e-08
7.9048996e-06
-2.3813877e-08
9.5305403e-06
-2.1288807e-08
1.1494308e-05
-1.8330351e-08
1.3866685e-05
-1.4859091e-08
1.6733499e-05
-1.0748826e-08
2.0197807e-05
-5.8618832e-09
2.4385392e-05
2.9446855e-05
-1.0307983e-11
2.9252946e-10
-4.5419975e-11
9.8880184e-10
-1.1325316e-10
1.8985578e-09
-2.2366898e-10
3.0717761e-09
-3.8886025e-10
4.567888e-09
-6.2376621e-10
6.4568733e-09
-9.4649769e-10
8.8201566e-09
-1.378722e-09
1.1751242e-08
-1.9459341e-09
1.5355792e-08
-2.6774951e-09
1.9751173e-08
-3.6062645e-09
2.5065225e-08
-4.7675982e-09
3.1434356e-08
-6.1974326e-09
3.9001261e-08
-7.9291951e-09
4.7913071e-08
-9.9893446e-09
5.8321137e-08
-1.2391624e-08
7.0384352e-08
-1.5130502e-08
8.4278454e-08
-1.8174842e-08
1.0021319e-07
-2.146339e-08
1.184593e-07
-2.4903875e-08
1.3938452e-07
-2.8377215e-08
1.6349689e-07
-3.1747273e-08
1.9149028e-07
-3.4875227e-08
2.242881e-07
-3.7636195e-08
2.6307934e-07
-3.9935008e-08
3.0934669e-07
-4.1717944e-08
3.6488794e-07
-4.2977883e-08
4.3183609e-07
-4.3751437e-08
5.1269176e-07
-4.4108107e-08
6.1037585e-07
-4.4133762e-08
7.2831946e-07
-4.3912712e-08
8.7059586e-07
-4.3513478e-08
1.0420917e-06
-4.2981788e-08
1.248717e-06
-4.2341098e-08
1.4976396e-06
-4.1597651e-08
1.7975607e-06
-4.0746561e-08
2.1590223e-06
-3.9776481e-08
2.5947916e-06
-3.867113e-08
3.1203026e-06
-3.7411413e-08
3.7542383e-06
-3.5972146e-08
4.5191563e-06
-3.4325168e-08
5.4423897e-06
-3.2431498e-08
6.5569085e-06
-3.0249567e-08
7.9027177e-06
-2.7719248e-08
9.52801e-06
-2.4777065e-08
1.1491365e-05
-2.1333379e-08
1.3863242e-05
-1.7285432e-08
1.6729451e-05
-1.2502179e-08
2.0193024e-05
-6.8107242e-09
2.4379701e-05
2.9440045e-05
-9.5384875e-12
3.0206797e-10
-4.2095234e-11
1.0213588e-09
-1.0512173e-10
1.9615842e-09
-2.0795726e-10
3.1746118e-09
-3.6223044e-10
4.7221612e-09
-5.8230657e-10
6.6769496e-09
-8.8576992e-10
9.12362e-09
-1.2939048e-09
1.2159377e-08
-1.8321135e-09
1.5894001e-08
-2.5301705e-09
2.044923e-08
-3.4221534e-09
2.5957209e-08
-4.5458331e-09
3.2558036e-08
-5.9412285e-09
4.0396657e-08
-7.6480071e-09
4.961985e-08
-9.7014237e-09
6.0374554e-08
-1.2126668e-08
7.2809597e-08
-1.4931842e-08
8.7083627e-08
-1.8100334e-08
1.0338168e-07
-2.1584069e-08
1.2194304e-07
-2.5299607e-08
1.4310006e-07
-2.912919e-08
1.6732647e-07
-3.2928132e-08
1.9528923e-07
-3.6538596e-08
2.2789856e-07
-3.9807974e-08
2.6634872e-07
-4.2608616e-08
3.1214734e-07
-4.48549e-08
3.6713423e-07
-4.6513762e-08
4.3349495e-07
-4.7605961e-08
5.1378397e-07
-4.819719e-08
6.1096708e-07
-4.8380726e-08
7.28503e-07
-4.8256137e-08
8.7047129e-07
-4.7910161e-08
1.0417458e-06
-4.7404875e-08
1.2482118e-06
-4.6775095e-08
1.4970099e-06
-4.6032676e-08
1.7968183e-06
-4.5173353e-08
2.158163e-06
-4.4182936e-08
2.5938013e-06
-4.3040488e-08
3.1191602e-06
-4.1720648e-08
3.7529184e-06
-4.0192318e-08
4.517628e-06
-3.8420017e-08
5.4406174e-06
-3.6359532e-08
6.554848e-06
-3.3960143e-08
7.9003183e-06
-3.1158004e-08
9.5252079e-06
-2.787616e-08
1.1488084e-05
-2.4021742e-08
1.3859387e-05
-1.947207e-08
1.6724902e-05
-1.4090308e-08
2.0187642e-05
-7.6748401e-09
2.4373285e-05
2.943237e-05
-9.0178231e-12
3.1108576e-10
-3.9832545e-11
1.0521736e-09
-9.9545907e-11
2.0212975e-09
-1.9708373e-10
3.2721496e-09
-3.4359812e-10
4.8686756e-09
-5.52926e-10
6.8862775e-09
-8.420973e-10
9.4127911e-09
-1.2318677e-09
1.2549148e-08
-1.7472277e-09
1.6409361e-08
-2.4178031e-09
2.1119806e-08
-3.2780092e-09
2.6817415e-08
-4.3667555e-09
3.3646782e-08
-5.7264191e-09
4.1756321e-08
-7.4007411e-09
5.1294172e-08
-9.4312776e-09
6.2405091e-08
-1.185213e-08
7.5230449e-08
-1.4682953e-08
8.991445e-08
-1.7920742e-08
1.0661947e-07
-2.1531614e-08
1.2555391e-07
-2.5444504e-08
1.4701295e-07
-2.9549177e-08
1.7143114e-07
-3.3700586e-08
1.9944064e-07
-3.77306e-08
2.3192858e-07
-4.1466193e-08
2.7008432e-07
-4.4751307e-08
3.1543246e-07
-4.7468144e-08
3.6985107e-07
-4.9553117e-08
4.3557993e-07
-5.1003437e-08
5.1523429e-07
-5.187204e-08
6.1183569e-07
-5.2251467e-08
7.2888244e-07
-5.2250768e-08
8.704706e-07
-5.1972083e-08
1.0414671e-06
-5.1493832e-08
1.2477335e-06
-5.0864084e-08
1.4963801e-06
-5.0103157e-08
1.7960574e-06
-4.9210845e-08
2.1572708e-06
-4.8173769e-08
2.5927642e-06
-4.6970168e-08
3.1179566e-06
-4.5572021e-08
3.7515203e-06
-4.394546e-08
4.5160014e-06
-4.2049518e-08
5.4387215e-06
-3.9835875e-08
6.5526344e-06
-3.7244454e-08
7.8977269e-06
-3.4206403e-08
9.5221698e-06
-3.0630878e-08
1.1484508e-05
-2.6418925e-08
1.3855175e-05
-2.1429297e-08
1.6719912e-05
-1.5516071e-08
2.0181729e-05
-8.4537444e-09
2.4366223e-05
2.9423916e-05
-8.4653656e-12
3.195511e-10
-3.742444e-11
1.0811327e-09
-9.3602675e-11
2.0774757e-09
-1.8548008e-10
3.364027e-09
-3.2368961e-10
5.0068851e-09
-5.2148031e-10
7.084068e-09
-7.9524016e-10
9.6865512e-09
-1.1650664e-09
1.2918974e-08
-1.6553356e-09
1.689963e-08
-2.2952133e-09
2.1759684e-08
-3.1189795e-09
2.7641181e-08
-4.1659818e-09
3.4693785e-08
-5.4799553e-09
4.3070294e-08
-7.1073589e-09
5.2921576e-08
-9.0943318e-09
6.4392064e-08
-1.1481898e-08
7.7618015e-08
-1.4299251e-08
9.2731805e-08
-1.7555389e-08
1.0987561e-07
-2.1230017e-08
1.2922853e-07
-2.5265504e-08
1.5104844e-07
-2.9562295e-08
1.7572793e-07
-3.3980253e-08
2.038586e-07
-3.8347707e-08
2.3629604e-07
-4.2478219e-08
2.7421483e-07
-4.6193023e-08
3.1914726e-07
-4.9345157e-08
3.7300321e-07
-5.1840182e-08
4.3807496e-07
-5.3648332e-08
5.1704245e-07
-5.4804464e-08
6.1299183e-07
-5.5394871e-08
7.2947285e-07
-5.5533967e-08
8.706097e-07
-5.5337538e-08
1.0412707e-06
-5.4900716e-08
1.2472967e-06
-5.4286485e-08
1.4957659e-06
-5.3525282e-08
1.7952962e-06
-5.2621987e-08
2.1563675e-06
-5.1563988e-08
2.5917062e-06
-5.0328099e-08
3.1167207e-06
-4.8882735e-08
3.750075e-06
-4.7190575e-08
4.5143093e-06
-4.520485e-08
5.4367358e-06
-4.2873142e-08
6.5503027e-06
-4.0126995e-08
7.8949807e-06
-3.6892738e-08
9.5189356e-06
-3.3067834e-08
1.1480683e-05
-2.8546684e-08
1.3850654e-05
-2.3172642e-08
1.6714538e-05
-1.6789144e-08
2.0175345e-05
-9.1515717e-09
2.4358585e-05
2.9414764e-05
-8.0205903e-12
3.2757159e-10
-3.5478139e-11
1.1085902e-09
-8.8779418e-11
2.1307771e-09
-1.7601816e-10
3.4512659e-09
-3.0736603e-10
5.1382329e-09
-4.955322e-10
7.2722342e-09
-7.5629217e-10
9.9473113e-09
-1.1090738e-09
1.3271756e-08
-1.5775704e-09
1.7368127e-08
-2.190323e-09
2.2372437e-08
-2.981173e-09
2.8432031e-08
-3.9894109e-09
3.5702022e-08
-5.2593823e-09
4.4340266e-08
-6.8392153e-09
5.4501409e-08
-8.7782454e-09
6.6331095e-08
-1.1122734e-08
7.9962503e-08
-1.3909568e-08
9.5518639e-08
-1.7158017e-08
1.1312406e-07
-2.0860228e-08
1.3293075e-07
-2.4971964e-08
1.5516017e-07
-2.9405931e-08
1.801619e-07
-3.403039e-08
2.0848306e-07
-3.8675311e-08
2.4094096e-07
-4.3146937e-08
2.7868646e-07
-4.7249593e-08
3.2324992e-07
-5.0811243e-08
3.7656486e-07
-5.3707799e-08
4.4097152e-07
-5.5880473e-08
5.1921513e-07
-5.7341237e-08
6.144526e-07
-5.8163963e-08
7.3029559e-07
-5.8462633e-08
8.7090838e-07
-5.836274e-08
1.0411708e-06
-5.797463e-08
1.2469086e-06
-5.7376817e-08
1.4951681e-06
-5.6611668e-08
1.794531e-06
-5.5691191e-08
2.155447e-06
-5.4605499e-08
2.5906205e-06
-5.3331587e-08
3.1154468e-06
-5.1835807e-08
3.7485792e-06
-5.0078491e-08
4.512552e-06
-4.8008305e-08
5.4346656e-06
-4.5569136e-08
6.5478635e-06
-4.2685306e-08
7.8920969e-06
-3.927777e-08
9.515528e-06
-3.5233861e-08
1.1476639e-05
-3.0440107e-08
1.384586e-05
-2.4726858e-08
1.6708825e-05
-1.7925544e-08
2.0168544e-05
-9.7758726e-09
2.4350435e-05
2.9404988e-05
-7.6030412e-12
3.3517458e-10
-3.3648831e-11
1.134636e-09
-8.4242543e-11
2.1813708e-09
-1.671105e-10
3.5341339e-09
-2.9198352e-10
5.2631061e-09
-4.7105144e-10
7.4513021e-09
-7.1948985e-10
1.019575e-08
-1.0560569e-09
1.3608323e-08
-1.503733e-09
1.7815803e-08
-2.0903563e-09
2.295906e-08
-2.8491698e-09
2.9190845e-08
-3.8191269e-09
3.6671979e-08
-5.044728e-09
4.5565867e-08
-6.5750766e-09
5.6031757e-08
-8.4617309e-09
6.821775e-08
-1.0754912e-08
8.2255684e-08
-1.3497674e-08
9.8261402e-08
-1.6717952e-08
1.1634434e-07
-2.0418935e-08
1.3663173e-07
-2.4569034e-08
1.5931027e-07
-2.9093614e-08
1.8468648e-07
-3.387123e-08
2.1326067e-07
-3.8737013e-08
2.4580674e-07
-4.3494722e-08
2.8344417e-07
-4.7937066e-08
3.2769227e-07
-5.187159e-08
3.8049939e-07
-5.5147398e-08
4.4424733e-07
-5.7676884e-08
5.2174462e-07
-5.9446667e-08
6.1622239e-07
-6.0513797e-08
7.3136273e-07
-6.0986965e-08
8.7138156e-07
-6.0997528e-08
1.0411814e-06
-6.0669194e-08
1.2465803e-06
-6.0096007e-08
1.494595e-06
-5.9333394e-08
1.7937685e-06
-5.8401839e-08
2.1545155e-06
-5.7295155e-08
2.5895139e-06
-5.599095e-08
3.1141427e-06
-5.4453826e-08
3.7470421e-06
-5.264181e-08
4.51074e-06
-5.049955e-08
5.4325234e-06
-4.796724e-08
6.5453312e-06
-4.4963292e-08
7.889093e-06
-4.140324e-08
9.511968e-06
-3.7166267e-08
1.1472402e-05
-3.2130675e-08
1.3840825e-05
-2.6116284e-08
1.670281e-05
-1.8942154e-08
2.016137e-05
-1.0335175e-08
2.4341828e-05
2.9394653e-05
-7.2425255e-12
3.4241709e-10
-3.2066165e-11
1.1594596e-09
-8.0308579e-11
2.2296132e-09
-1.5936786e-10
3.6131932e-09
-2.7857603e-10
5.3823142e-09
-4.4964487e-10
7.622371e-09
-6.8718978e-10
1.0433295e-08
-1.009328e-09
1.3930461e-08
-1.4383333e-09
1.8244808e-08
-2.0013095e-09
2.3522037e-08
-2.730809e-09
2.9920344e-08
-3.6652576e-09
3.7606427e-08
-4.8489836e-09
4.6749594e-08
-6.3315529e-09
5.7514326e-08
-8.1659978e-09
7.0052195e-08
-1.0405482e-08
8.4495168e-08
-1.309796e-08
1.0095388e-07
-1.627861e-08
1.1952499e-07
-1.9960289e-08
1.4031341e-07
-2.4123058e-08
1.6347304e-07
-2.870473e-08
1.8926816e-07
-3.3595132e-08
2.1815108e-07
-3.8636947e-08
2.5084856e-07
-4.3635154e-08
2.8844238e-07
-4.83754e-08
3.3243251e-07
-5.2649299e-08
3.8477329e-07
-5.6282523e-08
4.4788056e-07
-5.915994e-08
5.2462204e-07
-6.1241532e-08
6.1830399e-07
-6.2564012e-08
7.3268521e-07
-6.3226083e-08
8.7204365e-07
-6.3360651e-08
1.041316e-06
-6.3102001e-08
1.2463217e-06
-6.2558973e-08
1.4940519e-06
-6.1800844e-08
1.7930104e-06
-6.085796e-08
2.1535726e-06
-5.9729265e-08
2.5883852e-06
-5.839403e-08
3.1128075e-06
-5.6816008e-08
3.7454641e-06
-5.4951332e-08
4.5088753e-06
-5.2741521e-08
5.4303136e-06
-5.0123233e-08
6.5427129e-06
-4.7010063e-08
7.8859798e-06
-4.3312017e-08
9.50827e-06
-3.8901574e-08
1.1467992e-05
-3.3648677e-08
1.3835572e-05
-2.7364405e-08
1.6696526e-05
-1.9855481e-08
2.0153861e-05
-1.0838033e-08
2.4332811e-05
2.9383815e-05
-6.9145591e-12
3.4933157e-10
-3.062438e-11
1.1831694e-09
-7.672203e-11
2.2757107e-09
-1.5230285e-10
3.6887741e-09
-2.6632982e-10
5.4963411e-09
-4.300702e-10
7.7861113e-09
-6.5761209e-10
1.0660837e-08
-9.6646258e-10
1.4239312e-08
-1.3782099e-09
1.8656555e-08
-1.919223e-09
2.406305e-08
-2.621322e-09
3.0622443e-08
-3.5223e-09
3.8507405e-08
-4.6661073e-09
4.7893401e-08
-6.1024197e-09
5.8950639e-08
-7.8852006e-09
7.1834976e-08
-1.0069784e-08
8.6679751e-08
-1.2708007e-08
1.035921e-07
-1.5841069e-08
1.2265805e-07
-1.9490213e-08
1.4396255e-07
-2.3646046e-08
1.6762888e-07
-2.8258237e-08
1.9388035e-07
-3.3228166e-08
2.2312101e-07
-3.8407527e-08
2.5602792e-07
-4.3605231e-08
2.9364009e-07
-4.860357e-08
3.3743086e-07
-5.3182349e-08
3.8935208e-07
-5.7147451e-08
4.5184567e-07
-6.0358418e-08
5.2783301e-07
-6.2748673e-08
6.2069425e-07
-6.4332399e-08
7.3426895e-07
-6.5194597e-08
8.7290586e-07
-6.5465663e-08
1.0415871e-06
-6.5287466e-08
1.2461435e-06
-6.4782306e-08
1.4935468e-06
-6.4033581e-08
1.7922616e-06
-6.3082517e-08
2.1526216e-06
-6.193437e-08
2.5872371e-06
-6.057075e-08
3.1114439e-06
-5.89552e-08
3.7438486e-06
-5.7042119e-08
4.5069623e-06
-5.477051e-08
5.428042e-06
-5.2073548e-08
6.540016e-06
-4.8860956e-08
7.8827672e-06
-4.5037354e-08
9.5044464e-06
-4.0469777e-08
1.1463424e-05
-3.5020023e-08
1.3830122e-05
-2.8491938e-08
1.6689998e-05
-2.0680432e-08
2.014605e-05
-1.129234e-08
2.4323423e-05
2.9372523e-05
-6.6223808e-12
3.5595395e-10
-2.9338857e-11
1.2058859e-09
-7.3520401e-11
2.3198923e-09
-1.4598794e-10
3.7612417e-09
-2.5536699e-10
5.6057203e-09
-4.1251588e-10
7.9432601e-09
-6.3103296e-10
1.0879354e-08
-9.2785178e-10
1.453613e-08
-1.3239038e-09
1.9052607e-08
-1.844838e-09
2.4583984e-08
-2.5217281e-09
3.1299334e-08
-3.3916701e-09
3.9377347e-08
-4.4980957e-09
4.8999827e-08
-5.8905386e-09
6.0343082e-08
-7.6234808e-09
7.3567918e-08
-9.7538203e-09
8.881009e-08
-1.233645e-08
1.0617473e-07
-1.5417561e-08
1.2573916e-07
-1.9025639e-08
1.4757063e-07
-2.3160745e-08
1.7176399e-07
-2.7783634e-08
1.9850324e-07
-3.2807135e-08
2.2814451e-07
-3.8092781e-08
2.6131357e-07
-4.3455352e-08
2.9900266e-07
-4.867674e-08
3.4265225e-07
-5.3528533e-08
3.9420387e-07
-5.7800344e-08
4.5611748e-07
-6.1328994e-08
5.3136167e-07
-6.4022209e-08
6.2338747e-07
-6.5870448e-08
7.361172e-07
-6.6942003e-08
8.7397743e-07
-6.7360971e-08
1.042006e-06
-6.7273538e-08
1.2460561e-06
-6.6813663e-08
1.493087e-06
-6.6078677e-08
1.7915267e-06
-6.5121522e-08
2.1516645e-06
-6.39549e-08
2.5860705e-06
-6.2563673e-08
3.1100527e-06
-6.0911904e-08
3.7421968e-06
-5.895259e-08
4.505003e-06
-5.6622735e-08
5.4257122e-06
-5.3852218e-08
6.5372455e-06
-5.0547593e-08
7.8794626e-06
-4.6608258e-08
9.500507e-06
-4.1896754e-08
1.1458713e-05
-3.6267086e-08
1.3824492e-05
-2.9516923e-08
1.6683248e-05
-2.1430059e-08
2.0137963e-05
-1.1705102e-08
2.4313698e-05
2.9360818e-05
-6.3572599e-12
3.6231119e-10
-2.8171015e-11
1.2276997e-09
-7.0609896e-11
2.3623311e-09
-1.4024286e-10
3.8308746e-09
-2.4538498e-10
5.7108623e-09
-3.9651557e-10
8.0943908e-09
-6.0677841e-10
1.1089617e-08
-8.9256684e-10
1.4821919e-08
-1.2741906e-09
1.9434231e-08
-1.7766019e-09
2.5086396e-08
-2.430134e-09
3.1952866e-08
-3.2711567e-09
4.021837e-08
-4.3424944e-09
5.0071164e-08
-5.6933614e-09
6.1693949e-08
-7.3784583e-09
7.5253015e-08
-9.4557777e-09
9.088741e-08
-1.1982605e-08
1.0870156e-07
-1.5009266e-08
1.2876582e-07
-1.8570475e-08
1.5113184e-07
-2.2674716e-08
1.7586823e-07
-2.7292993e-08
2.0312151e-07
-3.2349205e-08
2.3320072e-07
-3.771509e-08
2.6667946e-07
-4.3212613e-08
3.0450019e-07
-4.8625567e-08
3.480652e-07
-5.3720356e-08
3.9929867e-07
-5.8273604e-08
4.6067073e-07
-6.2102191e-08
5.3519026e-07
-6.5089678e-08
6.2637497e-07
-6.720248e-08
7.3823001e-07
-6.849003e-08
8.7526499e-07
-6.9066865e-08
1.0425829e-06
-6.9080263e-08
1.2460695e-06
-6.8673701e-08
1.4926804e-06
-6.795782e-08
1.7908108e-06
-6.6997757e-08
2.1507044e-06
-6.5814689e-08
2.5848875e-06
-6.4397537e-08
3.1086355e-06
-6.2711513e-08
3.7405108e-06
-6.0708525e-08
4.503e-06
-5.8324005e-08
5.4233277e-06
-5.5484696e-08
6.5344062e-06
-5.2094498e-08
7.8760724e-06
-4.8047897e-08
9.4964605e-06
-4.320363e-08
1.1453868e-05
-3.7408402e-08
1.3818697e-05
-3.0454493e-08
1.6676294e-05
-2.2115417e-08
2.0129624e-05
-1.2082334e-08
2.4303665e-05
2.9348735e-05
-6.1172658e-12
3.6842843e-10
-2.7113199e-11
1.2486957e-09
-6.7971274e-11
2.4031891e-09
-1.3502983e-10
3.8979332e-09
-2.3631858e-10
5.8121512e-09
-3.8196771e-10
8.2400398e-09
-5.8469719e-10
1.1292347e-08
-8.6039627e-10
1.5097618e-08
-1.2287856e-09
1.9802621e-08
-1.7141504e-09
2.557176e-08
-2.346098e-09
3.2584813e-08
-3.1602612e-09
4.1032533e-08
-4.1988041e-09
5.1109707e-08
-5.5104964e-09
6.3005641e-08
-7.150031e-09
7.689255e-08
-9.1761285e-09
9.2913509e-08
-1.1647933e-08
1.1117337e-07
-1.4619182e-08
1.3173707e-07
-1.8129943e-08
1.546426e-07
-2.2196182e-08
1.7993447e-07
-2.6798302e-08
2.0772364e-07
-3.1870745e-08
2.3827317e-07
-3.7295527e-08
2.7210424e-07
-4.2902646e-08
3.1010731e-07
-4.8479548e-08
3.5364211e-07
-5.3789971e-08
4.046091e-07
-5.8600489e-08
4.6548126e-07
-6.2710804e-08
5.3930058e-07
-6.5982165e-08
6.2964634e-07
-6.8357286e-08
7.4060514e-07
-6.9865329e-08
8.7677306e-07
-7.0608539e-08
1.0433261e-06
-7.0732171e-08
1.2461931e-06
-7.0386871e-08
1.4923351e-06
-6.9695571e-08
1.7901195e-06
-6.8735865e-08
2.1497448e-06
-6.7538219e-08
2.5836898e-06
-6.6096484e-08
3.1071938e-06
-6.4377712e-08
3.7387921e-06
-6.2333077e-08
4.5009554e-06
-5.9896755e-08
5.4208914e-06
-5.6992601e-08
6.531502e-06
-5.3522232e-08
7.872602e-06
-4.9375563e-08
9.4923138e-06
-4.440796e-08
1.1448901e-05
-3.8459389e-08
1.3812748e-05
-3.1317333e-08
1.6669152e-05
-2.2745807e-08
2.0121052e-05
-1.2429137e-08
2.4293348e-05
2.9336306e-05
-5.8981092e-12
3.7432654e-10
-2.6146739e-11
1.2689443e-09
-6.5559301e-11
2.4426017e-09
-1.3026204e-10
3.9626358e-09
-2.2802092e-10
5.9099103e-09
-3.6864234e-10
8.3806613e-09
-5.6445261e-10
1.1488157e-08
-8.3086888e-10
1.5364035e-08
-1.187057e-09
2.0158809e-08
-1.6566647e-09
2.6041368e-08
-2.2685964e-09
3.3196744e-08
-3.057753e-09
4.182169e-08
-4.0656066e-09
5.2117561e-08
-5.3403975e-09
6.4280433e-08
-6.9366404e-09
7.8488793e-08
-8.9135049e-09
9.4890373e-08
-1.1331556e-08
1.1359142e-07
-1.4247344e-08
1.3465286e-07
-1.7705539e-08
1.581008e-07
-2.1728731e-08
1.8395766e-07
-2.6305905e-08
2.1230081e-07
-3.1381445e-08
2.4334871e-07
-3.6847487e-08
2.7757028e-07
-4.2542585e-08
3.1580241e-07
-4.8259125e-08
3.5935865e-07
-5.3760242e-08
4.1011022e-07
-5.8805027e-08
4.7052605e-07
-6.3178645e-08
5.4367421e-07
-6.6722093e-08
6.331898e-07
-6.9355215e-08
7.4323828e-07
-7.108617e-08
8.7850403e-07
-7.2002709e-08
1.0442427e-06
-7.224524e-08
1.2464357e-06
-7.1969121e-08
1.492059e-06
-7.1308264e-08
1.7894587e-06
-7.0352652e-08
2.1487892e-06
-6.9142701e-08
2.5824799e-06
-6.7678039e-08
3.1057292e-06
-6.5928153e-08
3.7370422e-06
-6.3843892e-08
4.4988712e-06
-6.1358469e-08
5.4184059e-06
-5.8393092e-08
6.5285367e-06
-5.4847333e-08
7.8690563e-06
-5.0606879e-08
9.4880733e-06
-4.5524094e-08
1.1443818e-05
-3.9432773e-08
1.3806657e-05
-3.2115921e-08
1.6661835e-05
-2.3328964e-08
2.0112265e-05
-1.2749776e-08
2.4282769e-05
2.9323556e-05
-5.697578e-12
3.8002413e-10
-2.5261975e-11
1.2885086e-09
-6.3349977e-11
2.4806898e-09
-1.2589199e-10
4.0251778e-09
-2.2041077e-10
6.004429e-09
-3.5641163e-10
8.5166623e-09
-5.4585452e-10
1.16776e-08
-8.0371514e-10
1.5621895e-08
-1.1486355e-09
2.0503729e-08
-1.6036578e-09
2.649639e-08
-2.1970093e-09
3.3790096e-08
-2.9628702e-09
4.2587551e-08
-3.9420078e-09
5.3096698e-08
-5.182077e-09
6.5520501e-08
-6.7372883e-09
8.0044005e-08
-8.6670325e-09
9.6820119e-08
-1.1032951e-08
1.1595733e-07
-1.3893909e-08
1.3751382e-07
-1.7298518e-08
1.6150541e-07
-2.1275243e-08
1.8793439e-07
-2.5820871e-08
2.1684644e-07
-3.08891e-08
2.4841694e-07
-3.6381898e-08
2.8306308e-07
-4.2146635e-08
3.2156715e-07
-4.7981572e-08
3.6519359e-07
-5.3650901e-08
4.1577955e-07
-5.8908453e-08
4.7578361e-07
-6.3527286e-08
5.4829304e-07
-6.7330259e-08