/*--------------------------------*- C++ -*----------------------------------*\
| =========                 |                                                 |
| \\      /  F ield         | OpenFOAM: The Open Source CFD Toolbox           |
|  \\    /   O peration     | Version:  3.0.1                                 |
|   \\  /    A nd           | Web:      www.OpenFOAM.org                      |
|    \\/     M anipulation  |                                                 |
\*---------------------------------------------------------------------------*/
FoamFile
{
    version     2.0;
    format      ascii;
    class       surfaceScalarField;
    location    "9000/fluid";
    object      phi;
}
// * * * * * * * * * * * * * * * * * * * * * * * * * * * * * * * * * * * * * //

dimensions      [1 0 -1 0 0 0 0];

internalField   nonuniform List<scalar> 
7860
(
8.175512e-10
1.0213008e-08
2.2144963e-09
3.0311755e-08
3.4092687e-09
5.2598987e-08
4.0692075e-09
7.6422187e-08
4.2161703e-09
1.0159607e-07
4.0326526e-09
1.2837933e-07
3.7119353e-09
1.5732528e-07
3.3891568e-09
1.8911895e-07
3.1319472e-09
2.2446306e-07
2.9579497e-09
2.6402318e-07
2.8569585e-09
3.0841189e-07
2.8079286e-09
3.5819621e-07
2.7889856e-09
4.1390902e-07
2.7817224e-09
4.7605832e-07
2.7721565e-09
5.4513441e-07
2.7499693e-09
6.2160565e-07
2.7075689e-09
7.0591667e-07
2.6389627e-09
7.9847597e-07
2.5393255e-09
8.9964178e-07
2.404589e-09
1.009703e-06
2.2313714e-09
1.1288588e-06
2.0170033e-09
1.2571859e-06
1.759736e-09
1.3945983e-06
1.4586944e-09
1.5407986e-06
1.1142924e-09
1.695204e-06
7.2816424e-10
1.8568511e-06
3.0322024e-10
2.0242671e-06
-1.5937109e-10
2.1952878e-06
-6.5724046e-10
2.3668822e-06
-1.1751382e-09
2.5348721e-06
-1.6999434e-09
2.6933263e-06
-2.2162575e-09
2.8340393e-06
-2.7037522e-09
2.9457585e-06
-3.1371793e-09
3.0131357e-06
-3.4808943e-09
3.0153665e-06
-3.6880423e-09
2.9243524e-06
-3.6764118e-09
2.7023406e-06
-3.3111893e-09
2.2986366e-06
-2.2308986e-09
1.6452581e-06
6.501467e-07
-5.7189395e-10
1.0784902e-08
-2.1242338e-09
3.1864095e-08
-4.4896142e-09
5.4964367e-08
-7.3711332e-09
7.9303703e-08
-1.03868e-08
1.0461174e-07
-1.316239e-08
1.3115492e-07
-1.5422582e-08
1.5958547e-07
-1.7032677e-08
1.9072904e-07
-1.7986132e-08
2.2541652e-07
-1.8361874e-08
2.6439892e-07
-1.8277545e-08
3.0832756e-07
-1.7854012e-08
3.5777267e-07
-1.7195321e-08
4.1325033e-07
-1.6381788e-08
4.7524479e-07
-1.5471278e-08
5.4422389e-07
-1.4504219e-08
6.206386e-07
-1.3509382e-08
7.0492184e-07
-1.2508421e-08
7.9747502e-07
-1.1519068e-08
8.9865242e-07
-1.055686e-08
1.0087408e-06
-9.6358826e-09
1.1279379e-06
-8.7690511e-09
1.256319e-06
-7.9676917e-09
1.3937969e-06
-7.2414861e-09
1.5400723e-06
-6.5976481e-09
1.6945602e-06
-6.0409201e-09
1.8562943e-06
-5.5736809e-09
2.0237998e-06
-5.2010766e-09
2.1949152e-06
-4.9255162e-09
2.3666066e-06
-4.7271e-09
2.5346737e-06
-4.5895472e-09
2.6931888e-06
-4.493885e-09
2.8339436e-06
-4.4158487e-09
2.9456805e-06
-4.3259693e-09
3.0130458e-06
-4.1859081e-09
3.0152264e-06
-3.9479492e-09
2.9241145e-06
-3.5359553e-09
2.7019284e-06
-2.8269245e-09
2.2979277e-06
-1.5613126e-09
1.6439924e-06
6.4858539e-07
-6.2698134e-10
1.1411885e-08
-2.510831e-09
3.3747944e-08
-5.6368575e-09
5.8090394e-08
-9.7406271e-09
8.3407474e-08
-1.4355414e-08
1.0922653e-07
-1.893229e-08
1.3573179e-07
-2.2983098e-08
1.6363628e-07
-2.6183218e-08
1.9392916e-07
-2.8402213e-08
2.2763551e-07
-2.9672903e-08
2.6566962e-07
-3.013075e-08
3.087854e-07
-2.9952605e-08
3.5759453e-07
-2.9311811e-08
4.1260953e-07
-2.8353593e-08
4.7428658e-07
-2.7187501e-08
5.4305782e-07
-2.5890568e-08
6.1934166e-07
-2.4514983e-08
7.0354624e-07
-2.3096354e-08
7.960564e-07
-2.1660463e-08
8.9721653e-07
-2.022751e-08
1.0073079e-06
-1.8814811e-08
1.1265252e-06
-1.7437761e-08
1.254942e-06
-1.6110286e-08
1.3924695e-06
-1.4844708e-08
1.5388067e-06
-1.365122e-08
1.6933667e-06
-1.2537983e-08
1.8551811e-06
-1.1511158e-08
2.022773e-06
-1.0578588e-08
2.1939826e-06
-9.7445701e-09
2.3657726e-06
-8.9950825e-09
2.5339242e-06
-8.3157879e-09
2.6925095e-06
-7.6893682e-09
2.8333172e-06
-7.0930727e-09
2.9450841e-06
-6.4976947e-09
3.0124504e-06
-5.864849e-09
3.0145936e-06
-5.1451276e-09
2.9233948e-06
-4.2605502e-09
2.7010438e-06
-3.0897205e-09
2.296757e-06
-1.474244e-09
1.6423768e-06
6.4711101e-07
-5.9490516e-10
1.2006789e-08
-2.445993e-09
3.5599035e-08
-5.6671004e-09
6.1311495e-08
-1.0141712e-08
8.7882088e-08
-1.549955e-08
1.1458436e-07
-2.1187172e-08
1.4141942e-07
-2.6608181e-08
1.6905729e-07
-3.1267548e-08
1.9858854e-07
-3.4861576e-08
2.3122953e-07
-3.7293823e-08
2.6810187e-07
-3.8634263e-08
3.1012585e-07
-3.9053145e-08
3.580134e-07
-3.8756961e-08
4.1231335e-07
-3.7942208e-08
4.7347183e-07
-3.6770774e-08
5.4188638e-07
-3.536326e-08
6.1793416e-07
-3.3803612e-08
7.0198658e-07
-3.2148313e-08
7.9440109e-07
-3.0435789e-08
8.9550402e-07
-2.8693937e-08
1.005566e-06
-2.6944721e-08
1.1247759e-06
-2.520692e-08
1.2532042e-06
-2.3497303e-08
1.3907598e-06
-2.1830763e-08
1.5371402e-06
-2.0220137e-08
1.6917561e-06
-1.867631e-08
1.8536372e-06
-1.720818e-08
2.0213049e-06
-1.582538e-08
2.1925998e-06
-1.4533216e-08
2.3644805e-06
-1.3321563e-08
2.5327125e-06
-1.2177433e-08
2.6913654e-06
-1.1084214e-08
2.8322241e-06
-1.001954e-08
2.9440194e-06
-8.9540696e-09
3.0113849e-06
-7.848743e-09
3.0134883e-06
-6.6516472e-09
2.9221977e-06
-5.2832008e-09
2.6996754e-06
-3.6272725e-09
2.295101e-06
-1.6116225e-09
1.6403613e-06
6.4549939e-07
-5.4691751e-10
1.2553707e-08
-2.2844463e-09
3.7336564e-08
-5.3912847e-09
6.4418332e-08
-9.862442e-09
9.2353247e-08
-1.5449983e-08
1.201719e-07
-2.1680313e-08
1.4764975e-07
-2.7955158e-08
1.7533213e-07
-3.3693742e-08
2.0432712e-07
-3.8455523e-08
2.359913e-07
-4.200263e-08
2.7164898e-07
-4.4296892e-08
3.1242012e-07
-4.545119e-08
3.591677e-07
-4.5663161e-08
4.1252532e-07
-4.5154495e-08
4.7296316e-07
-4.4128468e-08
5.4086037e-07
-4.2748784e-08
6.1655445e-07
-4.1135289e-08
7.0037311e-07
-3.9370474e-08
7.9263626e-07
-3.7509324e-08
8.9364289e-07
-3.5589345e-08
1.003646e-06
-3.3637545e-08
1.1228242e-06
-3.1675367e-08
1.251242e-06
-2.9721014e-08
1.3888055e-06
-2.7790254e-08
1.5352094e-06
-2.5896768e-08
1.6898627e-06
-2.4052363e-08
1.8517928e-06
-2.226701e-08
2.0195196e-06
-2.0550592e-08
2.1908834e-06
-1.8908453e-08
2.3628383e-06
-1.7332665e-08
2.5311367e-06
-1.5810815e-08
2.6898435e-06
-1.4326295e-08
2.8307396e-06
-1.2856522e-08
2.9425496e-06
-1.1371288e-08
3.0098997e-06
-9.8300884e-09
3.0119471e-06
-8.1781528e-09
2.9205457e-06
-6.3339618e-09
2.6978312e-06
-4.1914415e-09
2.2929583e-06
-1.7633188e-09
1.6379334e-06
6.4373579e-07
-5.060522e-10
1.3059758e-08
-2.1330303e-09
3.8963544e-08
-5.0893474e-09
6.7374649e-08
-9.4396364e-09
9.6703532e-08
-1.5034528e-08
1.2576679e-07
-2.1494355e-08
1.5410958e-07
-2.8270024e-08
1.821078e-07
-3.476198e-08
2.1081908e-07
-4.0448307e-08
2.4167762e-07
-4.4975678e-08
2.7617636e-07
-4.8191965e-08
3.156364e-07
-5.0125408e-08
3.6110114e-07
-5.093079e-08
4.133307e-07
-5.0826036e-08
4.728584e-07
-5.0037676e-08
5.4007201e-07
-4.8765071e-08
6.1528185e-07
-4.7164366e-08
6.987724e-07
-4.5347801e-08
7.908197e-07
-4.3391664e-08
8.9168676e-07
-4.1346765e-08
1.0016011e-06
-3.9247832e-08
1.1207252e-06
-3.7120209e-08
1.2491144e-06
-3.4984004e-08
1.3866693e-06
-3.2855919e-08
1.5330813e-06
-3.0750065e-08
1.6877569e-06
-2.8678383e-08
1.8497211e-06
-2.6650995e-08
2.0174922e-06
-2.4677167e-08
2.1889095e-06
-2.2761182e-08
2.3609224e-06
-2.08959e-08
2.5292714e-06
-1.9068313e-08
2.688016e-06
-1.7260841e-08
2.828932e-06
-1.5449211e-08
2.940738e-06
-1.360144e-08
3.008052e-06
-1.1674763e-08
3.0100203e-06
-9.6107116e-09
2.9184817e-06
-7.3267023e-09
2.6955471e-06
-4.7303647e-09
2.2903621e-06
-1.9181778e-09
1.6351213e-06
6.4181752e-07
-4.7046025e-10
1.3530219e-08
-1.9962689e-09
4.0489352e-08
-4.8000757e-09
7.0178456e-08
-8.9906606e-09
1.0089412e-07
-1.4491937e-08
1.3126807e-07
-2.1008436e-08
1.6062607e-07
-2.8055935e-08
1.891553e-07
-3.5053756e-08
2.1781691e-07
-4.1443615e-08
2.4806747e-07
-4.679201e-08
2.8152476e-07
-5.0847826e-08
3.1969222e-07
-5.3548551e-08
3.6380186e-07
-5.4985904e-08
4.1476805e-07
-5.5349797e-08
4.732223e-07
-5.4869908e-08
5.3959212e-07
-5.376897e-08
6.1418092e-07
-5.2234844e-08
6.9723826e-07
-5.041031e-08
7.8899517e-07
-4.8395983e-08
8.8967243e-07
-4.6259519e-08
9.9946462e-07
-4.4045976e-08
1.1185117e-06
-4.1786555e-08
1.246855e-06
-3.9504135e-08
1.3843868e-06
-3.7216792e-08
1.5307939e-06
-3.4939145e-08
1.6854792e-06
-3.2683231e-08
1.8474651e-06
-3.045902e-08
2.015268e-06
-2.8274741e-08
2.1867252e-06
-2.6133598e-08
2.3587812e-06
-2.4028266e-08
2.5271661e-06
-2.1944777e-08
2.6859325e-06
-1.9863669e-08
2.826851e-06
-1.7758833e-08
2.9386332e-06
-1.5595751e-08
3.0058888e-06
-1.3328236e-08
3.0077529e-06
-1.0894715e-08
2.9160481e-06
-8.2114869e-09
2.6928639e-06
-5.2047788e-09
2.2873554e-06
-2.0506493e-09
1.6319672e-06
6.3976681e-07
-4.3979661e-10
1.3970015e-08
-1.8755877e-09
4.1925146e-08
-4.5361636e-09
7.2839029e-08
-8.5590821e-09
1.0491704e-07
-1.3922494e-08
1.3663148e-07
-2.0401156e-08
1.6710474e-07
-2.7576019e-08
1.9633016e-07
-3.490287e-08
2.2514376e-07
-4.1816736e-08
2.5498133e-07
-4.7834989e-08
2.8754302e-07
-5.2629317e-08
3.2448654e-07
-5.6053134e-08
3.6722567e-07
-5.8127487e-08
4.1684241e-07
-5.8997958e-08
4.7409278e-07
-5.8879381e-08
5.3947353e-07
-5.8003854e-08
6.133054e-07
-5.6582975e-08
6.9581739e-07
-5.4787817e-08
7.8719999e-07
-5.2744513e-08
8.8762914e-07
-5.0540288e-08
9.9726039e-07
-4.8233285e-08
1.1162047e-06
-4.5862417e-08
1.2444841e-06
-4.3454894e-08
1.3819793e-06
-4.1030716e-08
1.5283697e-06
-3.8605439e-08
1.683054e-06
-3.6191344e-08
1.845051e-06
-3.3798191e-08
2.0128748e-06
-3.1433217e-08
2.1843603e-06
-2.9098513e-08
2.3564465e-06
-2.6786113e-08
2.5248537e-06
-2.4481e-08
2.6836273e-06
-2.2161795e-08
2.8245317e-06
-1.9799875e-08
2.9362713e-06
-1.7358004e-08
3.0034469e-06
-1.4786884e-08
3.0051817e-06
-1.202111e-08
2.9132824e-06
-8.9780597e-09
2.6898208e-06
-5.6047876e-09
2.2839821e-06
-2.1546886e-09
1.6285173e-06
6.3761207e-07
-4.1316295e-10
1.4383179e-08
-1.7690876e-09
4.328107e-08
-4.2982043e-09
7.5368147e-08
-8.1572559e-09
1.0877609e-07
-1.3365022e-08
1.4183925e-07
-1.9753796e-08
1.7349351e-07
-2.6964408e-08
2.0354078e-07
-3.4495692e-08
2.3267505e-07
-4.1793712e-08
2.6227935e-07
-4.8350065e-08
2.9409937e-07
-5.378038e-08
3.2991686e-07
-5.7866578e-08
3.7131187e-07
-6.0560148e-08
4.1953599e-07
-6.1953729e-08
4.7548638e-07
-6.223372e-08
5.3975351e-07
-6.1628174e-08
6.1269987e-07
-6.0362861e-08
6.9455207e-07
-5.8632254e-08
7.8546938e-07
-5.6587353e-08
8.8558424e-07
-5.4336413e-08
9.9500944e-07
-5.1952864e-08
1.1138212e-06
-4.9485529e-08
1.2420168e-06
-4.696718e-08
1.379461e-06
-4.4420934e-08
1.5258235e-06
-4.1863703e-08
1.6804967e-06
-3.9308162e-08
1.8424956e-06
-3.6764107e-08
2.0103307e-06
-3.4238014e-08
2.1818341e-06
-3.1730712e-08
2.3539392e-06
-2.9233857e-08
2.5223568e-06
-2.6730981e-08
2.6811245e-06
-2.4198964e-08
2.8219997e-06
-2.1606898e-08
2.9336793e-06
-1.8914572e-08
3.0007546e-06
-1.6069474e-08
3.0023366e-06
-1.3003263e-08
2.9102162e-06
-9.6353122e-09
2.6864528e-06
-5.9363765e-09
2.2802832e-06
-2.2337037e-09
1.6248145e-06
6.3537842e-07
-3.8987427e-10
1.4773053e-08
-1.6748241e-09
4.4566019e-08
-4.0843112e-09
7.7777635e-08
-7.7879292e-09
1.124797e-07
-1.2835368e-08
1.4688669e-07
-1.9106005e-08
1.7976415e-07
-2.6293839e-08
2.1072861e-07
-3.3941804e-08
2.4032301e-07
-4.1516861e-08
2.698544e-07
-4.8501111e-08
3.0108362e-07
-5.4471934e-08
3.3588769e-07
-5.9153559e-08
3.7599349e-07
-6.2434014e-08
4.2281643e-07
-6.4350511e-08
4.7740288e-07
-6.5052175e-08
5.4045516e-07
-6.4751821e-08
6.1239952e-07
-6.3679478e-08
6.9347973e-07
-6.2046803e-08
7.8383669e-07
-6.0027047e-08
8.835645e-07
-5.7749808e-08
9.9273216e-07
-5.5305344e-08
1.1113767e-06
-5.275423e-08
1.2394657e-06
-5.0136452e-08
1.3768432e-06
-4.7479095e-08
1.5231661e-06
-4.4801063e-08
1.6778187e-06
-4.2116056e-08
1.8398105e-06
-3.9433709e-08
2.0076484e-06
-3.6760096e-08
2.1791605e-06
-3.4095115e-08
2.3512743e-06
-3.1429736e-08
2.5196914e-06
-2.8746451e-08
2.6784412e-06
-2.6020314e-08
2.8192735e-06
-2.3218253e-08
2.9308772e-06
-2.0297271e-08
2.9978336e-06
-1.7201941e-08
2.9992413e-06
-1.3861583e-08
2.9068758e-06
-1.0198992e-08
2.6827902e-06
-6.2105514e-09
2.2762948e-06
-2.2925072e-09
1.6208966e-06
6.3308594e-07
-3.6936342e-10
1.5142417e-08
-1.5910132e-09
4.5787668e-08
-3.891876e-09
8.0078496e-08
-7.4500884e-09
1.1603792e-07
-1.2339152e-08
1.5177576e-07
-1.8477137e-08
1.8590213e-07
-2.5604683e-08
2.1785616e-07
-3.3307201e-08
2.4802554e-07
-4.1077644e-08
2.7762484e-07
-4.8399512e-08
3.0840549e-07
-5.4825825e-08
3.42314e-07
-6.003602e-08
3.8120368e-07
-6.3862878e-08
4.266433e-07
-6.6289857e-08
4.7982986e-07
-6.7424164e-08
5.4158947e-07
-6.7454961e-08
6.1243032e-07
-6.6607589e-08
6.9263234e-07
-6.5103827e-08
7.8233294e-07
-6.3135456e-08
8.8159612e-07
-6.0852242e-08
9.9044896e-07
-5.8362355e-08
1.1088868e-06
-5.5739382e-08
1.2368427e-06
-5.303212e-08
1.3741359e-06
-5.0272693e-08
1.5204067e-06
-4.7482818e-08
1.6750288e-06
-4.4677329e-08
1.8370051e-06
-4.1866371e-08
2.0048374e-06
-3.9055473e-08
2.1763496e-06
-3.6243938e-08
2.3484628e-06
-3.3422059e-08
2.5168695e-06
-3.0571341e-08
2.6755905e-06
-2.7665323e-08
2.8163675e-06
-2.4668905e-08
2.9278807e-06
-2.1536476e-08
2.9947012e-06
-1.8209949e-08
2.9959147e-06
-1.4616955e-08
2.9032828e-06
-1.06853e-08
2.6788586e-06
-6.4386036e-09
2.2720478e-06
-2.3363661e-09
1.6167947e-06
6.3074927e-07
-3.5118058e-10
1.5493599e-08
-1.5161313e-09
4.6952616e-08
-3.7182982e-09
8.2280665e-08
-7.1413735e-09
1.19461e-07
-1.1877352e-08
1.5651174e-07
-1.787633e-08
1.919011e-07
-2.4919634e-08
2.2489946e-07
-3.2632501e-08
2.5573841e-07
-4.0536006e-08
2.8552835e-07
-4.8122203e-08
3.1599169e-07
-5.4930185e-08
3.4912198e-07
-6.0605679e-08
3.8687917e-07
-6.4934938e-08
4.3097257e-07
-6.7851638e-08
4.8274656e-07
-6.9419728e-08
5.4315756e-07
-6.9799086e-08
6.1280969e-07
-6.9202822e-08
6.9203607e-07
-6.7856019e-08
7.8098614e-07
-6.5964208e-08
8.7970432e-07
-6.36955e-08
9.8818024e-07
-6.117566e-08
1.106367e-06
-5.8492692e-08
1.2341597e-06
-5.570534e-08
1.3713485e-06
-5.285192e-08
1.5175533e-06
-4.9957707e-08
1.6721346e-06
-4.7039288e-08
1.8340867e-06
-4.4107425e-08
2.0019055e-06
-4.1167415e-08
2.1734096e-06
-3.8218109e-08
2.3455134e-06
-3.5249157e-08
2.5139006e-06
-3.2241321e-08
2.6725826e-06
-2.9166661e-08
2.8132929e-06
-2.5988206e-08
2.9247022e-06
-2.2658071e-08
2.9913711e-06
-1.9115881e-08
2.9923725e-06
-1.5288131e-08
2.8994552e-06
-1.1109547e-08
2.6746798e-06
-6.6300676e-09
2.2675686e-06
-2.3701352e-09
1.6125346e-06
6.2837923e-07
-3.3495867e-10
1.5828557e-08
-1.4488859e-09
4.8066543e-08
-3.5612168e-09
8.4392995e-08
-6.8590387e-09
1.2275882e-07
-1.1448822e-08
1.6110152e-07
-1.7307322e-08
1.9775961e-07
-2.4251398e-08
2.3184354e-07
-3.1942993e-08
2.6343001e-07
-3.9931864e-08
2.9351721e-07
-4.7723062e-08
3.2378289e-07
-5.4849527e-08
3.5624844e-07
-6.0932318e-08
3.9296197e-07
-6.571943e-08
4.3575968e-07
-6.9099909e-08
4.8612703e-07
-7.109536e-08
5.4515302e-07
-7.1833154e-08
6.1354749e-07
-7.1508353e-08
6.9171126e-07
-7.0343022e-08
7.7982081e-07
-6.8551555e-08
8.7791284e-07
-6.6317463e-08
9.8594615e-07
-6.3783506e-08
1.103833e-06
-6.1052509e-08
1.2314287e-06
-5.8194176e-08
1.3684902e-06
-5.5254434e-08
1.5146135e-06
-5.2262624e-08
1.6691428e-06
-4.9237788e-08
1.8310618e-06
-4.6191477e-08
1.9988592e-06
-4.312919e-08
2.1703474e-06
-4.0049285e-08
2.3424335e-06
-3.6941079e-08
2.5107924e-06
-3.3784408e-08
2.669426e-06
-3.0550291e-08
2.8100587e-06
-2.7199857e-08
2.9213518e-06
-2.368346e-08
2.9878547e-06
-1.9938279e-08
2.9886274e-06
-1.5890997e-08
2.8954079e-06
-1.1483473e-08
2.6702723e-06
-6.7939148e-09
2.2628792e-06
-2.3962118e-09
1.6081369e-06
6.2598291e-07
-3.2039789e-10
1.6148957e-08
-1.3882082e-09
4.9134351e-08
-3.4185459e-09
8.6423335e-08
-6.6003583e-09
1.2594063e-07
-1.1051476e-08
1.6555264e-07
-1.6771003e-08
2.0347913e-07
-2.3606834e-08
2.3867937e-07
-3.1254545e-08
2.7107772e-07
-3.9292077e-08
3.0155474e-07
-4.72403e-08
3.3173112e-07
-5.4631515e-08
3.6363965e-07
-6.1069516e-08
3.9939997e-07
-6.6271289e-08
4.4096145e-07
-7.0086796e-08
4.8994255e-07
-7.249764e-08
5.4756387e-07
-7.3597397e-08
6.1464724e-07
-7.3558904e-08
6.9167278e-07
-7.2595896e-08
7.7885779e-07
-7.0926597e-08
8.7624354e-07
-6.8746678e-08
9.8376625e-07
-6.6214471e-08
1.1013008e-06
-6.3447513e-08
1.2286618e-06
-6.0527606e-08
1.3655703e-06
-5.750877e-08
1.5115947e-06
-5.442569e-08
1.6660597e-06
-5.1300166e-08
1.8279363e-06
-4.8145192e-08
1.9957042e-06
-4.4966405e-08
2.1671687e-06
-4.1762149e-08
2.3392292e-06
-3.8521109e-08
2.5075514e-06
-3.5222742e-08
2.6661276e-06
-3.1836732e-08
2.8066727e-06
-2.8322746e-08
2.9178379e-06
-2.4629299e-08
2.9841612e-06
-2.0692033e-08
2.9846901e-06
-1.6437867e-08
2.8911537e-06
-1.1817212e-08
2.6656517e-06
-6.9362993e-09
2.2579983e-06
-2.4176321e-09
1.6036179e-06
6.2356533e-07
-3.07262e-10
1.6456219e-08
-1.3331969e-09
5.0160285e-08
-3.2884872e-09
8.8378625e-08
-6.362788e-09
1.2901494e-07
-1.0682897e-08
1.6987274e-07
-1.6266716e-08
2.0906295e-07
-2.2989347e-08
2.45402e-07
-3.0577024e-08
2.7866539e-07
-3.8634913e-08
3.0961262e-07
-4.6701225e-08
3.3979744e-07
-5.431172e-08
3.7125015e-07
-6.1058658e-08
4.0614691e-07
-6.6634334e-08
4.4653712e-07
-7.0855025e-08
4.9416325e-07
-7.3665465e-08
5.503743e-07
-7.5125545e-08
6.1610731e-07
-7.5383304e-08
6.9193054e-07
-7.4639649e-08
7.7811413e-07
-7.3112152e-08
8.7471604e-07
-7.1005087e-08
9.8165919e-07
-6.8490308e-08
1.098786e-06
-6.5699748e-08
1.2258712e-06
-6.2727564e-08
1.3625981e-06
-5.9636949e-08
1.5085041e-06
-5.6468619e-08
1.6628914e-06
-5.3247798e-08
1.8247155e-06
-4.9989194e-08
1.9924456e-06
-4.6699163e-08
2.1638786e-06
-4.3375707e-08
2.3359058e-06
-4.0007607e-08
2.5041832e-06
-3.6573434e-08
2.6626934e-06
-3.3042025e-08
2.8031413e-06
-2.9371696e-08
2.9141676e-06
-2.5509174e-08
2.9802987e-06
-2.138877e-08
2.9805697e-06
-1.6938673e-08
2.8867036e-06
-1.2118623e-08
2.6608317e-06
-7.0621186e-09
2.2529418e-06
-2.435531e-09
1.5989913e-06
6.2112991e-07
-2.9534796e-10
1.6751567e-08
-1.2831026e-09
5.114804e-08
-3.1694876e-09
9.026501e-08
-6.1440515e-09
1.3198949e-07
-1.0340614e-08
1.7406931e-07
-1.5793016e-08
2.1451536e-07
-2.2400267e-08
2.5200925e-07
-2.9916489e-08
2.8618161e-07
-3.7972809e-08
3.1766893e-07
-4.612558e-08
3.4795022e-07
-5.3916868e-08
3.7904144e-07
-6.0931943e-08
4.1316198e-07
-6.684373e-08
4.5244892e-07
-7.1439869e-08
4.9875938e-07
-7.4631626e-08
5.5356607e-07
-7.6446394e-08
6.1792209e-07
-7.7005968e-08
6.9249011e-07
-7.6495112e-08
7.7760327e-07
-7.5126663e-08
8.733476e-07
-7.3109922e-08
9.7964244e-07
-7.0627938e-08
1.096304e-06
-6.7826193e-08
1.2230695e-06
-6.4811219e-08
1.3595832e-06
-6.1656169e-08
1.505349e-06
-5.8408384e-08
1.6596436e-06
-5.5097321e-08
1.8214044e-06
-5.1739744e-08
1.989088e-06
-4.834298e-08
2.1604818e-06
-4.4905164e-08
2.332468e-06
-4.1414805e-08
2.5006928e-06
-3.785002e-08
2.6591287e-06
-3.4178875e-08
2.7994701e-06
-3.0358231e-08
2.910347e-06
-2.633348e-08
2.9762739e-06
-2.2037913e-08
2.9762741e-06
-1.7401257e-08
2.882067e-06
-1.2393635e-08
2.655824e-06
-7.1748975e-09
2.247723e-06
-2.451132e-09
1.5942675e-06
6.1867883e-07
-2.8449062e-10
1.7036058e-08
-1.2372973e-09
5.2100847e-08
-3.0602234e-09
9.2087938e-08
-5.9420913e-09
1.3487136e-07
-1.0022262e-08
1.7814948e-07
-1.5348092e-08
2.1984119e-07
-2.1839658e-08
2.5850082e-07
-2.9276475e-08
2.9361843e-07
-3.7314216e-08
3.2570667e-07
-4.5527656e-08
3.5616366e-07
-5.3467176e-08
3.8698096e-07
-6.0714577e-08
4.2040938e-07
-6.6927904e-08
4.5866224e-07
-7.1870532e-08
5.0370202e-07
-7.5423962e-08
5.571195e-07
-7.7584771e-08
6.2008289e-07
-7.8448023e-08
6.9335337e-07
-7.8180037e-08
7.7733527e-07
-7.6985417e-08
8.7215298e-07
-7.5075097e-08
9.7773209e-07
-7.2640751e-08
1.0938697e-06
-6.9840151e-08
1.2202689e-06
-6.6792084e-08
1.3565351e-06
-6.3579899e-08
1.5021368e-06
-6.025846e-08
1.6563222e-06
-5.6861951e-08
1.8180079e-06
-5.3409793e-08
1.9856359e-06
-4.9910435e-08
2.1569824e-06
-4.6362393e-08
2.32892e-06
-4.2754146e-08
2.4970845e-06
-3.906338e-08
2.6554379e-06
-3.5257245e-08
2.7956639e-06
-3.1291714e-08
2.9063814e-06
-2.7110587e-08
2.9720928e-06
-2.2646687e-08
2.9718102e-06
-1.7831846e-08
2.8772522e-06
-1.2646809e-08
2.6506389e-06
-7.2773578e-09
2.2423536e-06
-2.46521e-09
1.5894553e-06
6.1621377e-07
-2.7455538e-10
1.7310613e-08
-1.1952485e-09
5.3021539e-08
-2.9595546e-09
9.3852247e-08
-5.7551286e-09
1.3766693e-07
-9.7256437e-09
1.8211999e-07
-1.4929991e-08
2.2504554e-07
-2.1306871e-08
2.6487769e-07
-2.86589e-08
3.0097047e-07
-3.6664892e-08
3.3371266e-07
-4.4917906e-08
3.6441666e-07
-5.2978043e-08
3.950411e-07
-6.0426425e-08
4.2785775e-07
-6.6909813e-08
4.6514563e-07
-7.217137e-08
5.0896359e-07
-7.6066187e-08
5.610143e-07
-7.8562171e-08
6.2257887e-07
-7.9727966e-08
6.9451918e-07
-7.9709831e-08
7.7731715e-07
-7.870141e-08
8.7114454e-07
-7.6911993e-08
9.7594269e-07
-7.4539543e-08
1.0914973e-06
-7.1752268e-08
1.2174816e-06
-6.8680768e-08
1.3534637e-06
-6.5418944e-08
1.498875e-06
-6.2029638e-08
1.6529329e-06
-5.85523e-08
1.8145306e-06
-5.5009614e-08
1.9820932e-06
-5.1411465e-08
2.1533843e-06
-4.7757034e-08
2.3252655e-06
-4.4034766e-08
2.4933622e-06
-4.0221993e-08
2.6516252e-06
-3.6285241e-08
2.7917272e-06
-3.2179421e-08
2.9022755e-06
-2.7847156e-08
2.9677606e-06
-2.3220895e-08
2.9671839e-06
-1.8235192e-08
2.8722665e-06
-1.2881797e-08
2.6452856e-06
-7.3716306e-09
2.2368434e-06
-2.4780518e-09
1.5845619e-06
6.1373558e-07
-2.6542593e-10
1.7576038e-08
-1.1565051e-09
5.3912617e-08
-2.8665075e-09
9.5562252e-08
-5.5815812e-09
1.4038201e-07
-9.4487425e-09
1.8598715e-07
-1.4536757e-08
2.3013355e-07
-2.0800809e-08
2.7114175e-07
-2.8064602e-08
3.0823426e-07
-3.6028629e-08
3.4167669e-07
-4.4303924e-08
3.7269196e-07
-5.2461263e-08
4.0319845e-07
-6.0083152e-08
4.3547964e-07
-6.6808166e-08
4.7187064e-07
-7.2362669e-08
5.145181e-07
-7.6578552e-08
5.6523017e-07
-7.9397348e-08
6.2539767e-07
-8.0862094e-08
6.9598393e-07
-8.1098111e-08
7.7755319e-07
-8.02859e-08
8.703323e-07
-7.8630378e-08
9.7428719e-07
-7.6333083e-08
1.0892e-06
-7.3571048e-08
1.2147195e-06
-7.0485898e-08
1.3503785e-06
-6.7181963e-08
1.495571e-06
-6.3730546e-08
1.6494815e-06
-6.0177063e-08
1.8109771e-06
-5.6547693e-08
1.9784638e-06
-5.2854336e-08
2.149691e-06
-4.9096917e-08
2.3215081e-06
-4.5264097e-08
2.4895293e-06
-4.1332952e-08
2.6476941e-06
-3.7269348e-08
2.7876636e-06
-3.3027281e-08
2.8980335e-06
-2.8548493e-08
2.9632819e-06
-2.3765266e-08
2.9624006e-06
-1.8615144e-08
2.8671166e-06
-1.3101768e-08
2.6397721e-06
-7.459144e-09
2.2312009e-06
-2.4904085e-09
1.579593e-06
6.1124537e-07
-2.5700622e-10
1.7833044e-08
-1.1206849e-09
5.4776297e-08
-2.7802395e-09
9.7221807e-08
-5.4200742e-09
1.4302184e-07
-9.1897537e-09
1.8975683e-07
-1.4166498e-08
2.351103e-07
-2.0320179e-08
2.7729543e-07
-2.74937e-08
3.1540777e-07
-3.5407897e-08
3.4959088e-07
-4.3691273e-08
3.8097533e-07
-5.1925876e-08
4.1143306e-07
-5.9697258e-08
4.4325101e-07
-6.6638271e-08
4.7881165e-07
-7.246146e-08
5.2034129e-07
-7.6978436e-08
5.6974715e-07
-8.0106727e-08
6.2852596e-07
-8.1864893e-08
6.977421e-07
-8.235707e-08
7.7804536e-07
-8.1748866e-08
8.697241e-07
-8.0238608e-08
9.7277691e-07
-7.8028795e-08
1.0869902e-06
-7.5303538e-08
1.2119943e-06
-7.221443e-08
1.3472894e-06
-6.8875982e-08
1.4922326e-06
-6.5368311e-08
1.6459738e-06
-6.1743226e-08
1.807352e-06
-5.8030945e-08
1.9747516e-06
-5.4245712e-08
2.1459057e-06
-5.0388525e-08
2.3176509e-06
-4.6448207e-08
2.4855891e-06
-4.240191e-08
2.6436478e-06
-3.8214884e-08
2.7834766e-06
-3.3840287e-08
2.8936588e-06
-2.9219018e-08
2.9586606e-06
-2.4283469e-08
2.957465e-06
-1.8975154e-08
2.8618082e-06
-1.3308445e-08
2.6341055e-06
-7.5412267e-09
2.2254338e-06
-2.5017154e-09
1.5745537e-06
6.0874319e-07
-2.4921324e-10
1.8082256e-08
-1.0874634e-09
5.5614548e-08
-2.7000259e-09
9.8834368e-08
-5.2693932e-09
1.4559121e-07
-8.9470329e-09
1.9343448e-07
-1.3817445e-08
2.3998071e-07
-1.9863575e-08
2.8334156e-07
-2.694586e-08
3.2249006e-07
-3.4804198e-08
3.5744921e-07
-4.308398e-08
3.8925512e-07
-5.1378865e-08
4.1972794e-07
-5.9278701e-08
4.5115084e-07
-6.6412655e-08
4.8594561e-07
-7.2482018e-08
5.2641064e-07
-7.7280781e-08
5.7454593e-07
-8.0704724e-08
6.3194989e-07
-8.274931e-08
6.9978669e-07
-8.3497592e-08
7.7879365e-07
-8.3099289e-08
8.6932579e-07
-8.174395e-08
9.7142157e-07
-7.9633019e-08
1.0848792e-06
-7.6955544e-08
1.2093168e-06
-7.3872019e-08
1.3442059e-06
-7.0506801e-08
1.4888674e-06
-6.6948785e-08
1.6424158e-06
-6.3256602e-08
1.8036598e-06
-5.9465092e-08
1.9709601e-06
-5.5591186e-08
2.1420318e-06
-5.1637083e-08
2.3136968e-06
-4.7592252e-08
2.4815442e-06
-4.3433735e-08
2.6394893e-06
-3.9126312e-08
2.7791692e-06
-3.4622358e-08
2.8891549e-06
-2.9862327e-08
2.9539005e-06
-2.4778759e-08
2.9523815e-06
-1.9317344e-08
2.8563468e-06
-1.3504133e-08
2.6282924e-06
-7.6187583e-09
2.2195484e-06
-2.5133094e-09
1.5694482e-06
6.0623008e-07
-2.4197703e-10
1.8324234e-08
-1.0565603e-09
5.642913e-08
-2.6252357e-09
1.0040304e-07
-5.1284775e-09
1.4809445e-07
-8.719125e-09
1.9702513e-07
-1.3487943e-08
2.4474952e-07
-1.9429564e-08
2.8928318e-07
-2.6420475e-08
3.2948097e-07
-3.4218374e-08
3.6524712e-07
-4.2484953e-08
3.975217e-07
-5.0825609e-08
4.280686e-07
-5.8835446e-08
4.5916068e-07
-6.6141654e-08
4.9325181e-07
-7.2436364e-08
5.3270536e-07
-7.7498446e-08
5.79608e-07
-8.1203994e-08
6.3565544e-07
-8.3526886e-08
7.021096e-07
-8.4529628e-08
7.7979638e-07
-8.4345272e-08
8.6914142e-07
-8.3153038e-08
9.7022934e-07
-8.1151172e-08
1.0828774e-06
-7.8532057e-08
1.2066977e-06
-7.5463484e-08
1.3411373e-06
-7.2079124e-08
1.485483e-06
-6.8476762e-08
1.6388134e-06
-6.4722095e-08
1.7999051e-06
-6.0854989e-08
1.967093e-06
-5.6895372e-08
2.1380722e-06
-5.2847157e-08
2.3096486e-06
-4.8700417e-08
2.4773975e-06
-4.4432296e-08
2.6352212e-06
-4.0007247e-08
2.7747441e-06
-3.5376932e-08
2.8845246e-06
-3.0481348e-08
2.9490049e-06
-2.5253787e-08
2.947154e-06
-1.9644066e-08
2.850737e-06
-1.3690232e-08
2.6223385e-06
-7.6922924e-09
2.2135506e-06
-2.5242315e-09
1.5642799e-06
6.0370584e-07
-2.352387e-10
1.8559473e-08
-1.0277305e-09
5.722162e-08
-2.5553234e-09
1.0193064e-07
-4.9963962e-09
1.5053552e-07
-8.5047239e-09
2.0053346e-07
-1.3176476e-08
2.4942127e-07
-1.9016743e-08
2.9512345e-07
-2.5916729e-08
3.3638096e-07
-3.3650795e-08
3.7298118e-07
-4.1896248e-08
4.0576715e-07
-5.0270252e-08
4.364426e-07
-5.8373917e-08
4.6726434e-07
-6.583375e-08
5.0071166e-07
-7.2334711e-08
5.3920632e-07
-7.7642494e-08
5.8491578e-07
-8.161564e-08
6.3962859e-07
-8.4208034e-08
7.0470198e-07
-8.5462172e-08
7.8105053e-07
-8.5494206e-08
8.6917346e-07
-8.4471792e-08
9.6920693e-07
-8.2588258e-08
1.0809938e-06
-8.0037222e-08
1.2041467e-06
-7.6992749e-08
1.3380928e-06
-7.3596944e-08
1.4820872e-06
-6.9956269e-08
1.6351727e-06
-6.614369e-08
1.7960926e-06
-6.2204638e-08
1.9631539e-06
-5.8162244e-08
2.1340298e-06
-5.4022557e-08
2.3055089e-06
-4.9776362e-08
2.4731513e-06
-4.5401084e-08
2.6308459e-06
-4.0860816e-08
2.7702038e-06
-3.6106824e-08
2.8797706e-06
-3.1078666e-08
2.9439768e-06
-2.5710649e-08
2.9417859e-06
-1.9957179e-08
2.8449835e-06
-1.3867653e-08
2.6162491e-06
-7.7625886e-09
2.2074455e-06
-2.5348756e-09
1.559052e-06
6.0117099e-07
-2.2894763e-10
1.8788421e-08
-1.000766e-09
5.7993438e-08
-2.4898181e-09
1.0341969e-07
-4.8723239e-09
1.5291803e-07
-8.3026577e-09
2.0396379e-07
-1.2881643e-08
2.5400025e-07
-1.8623772e-08
3.0086558e-07
-2.543372e-08
3.4319091e-07
-3.3101483e-08
3.8064893e-07
-4.131929e-08
4.1398496e-07
-4.9716007e-08
4.4483932e-07
-5.7899263e-08
4.7544759e-07
-6.5496039e-08
5.0830845e-07
-7.2185639e-08
5.4589591e-07
-7.7722521e-08
5.9045267e-07
-8.1949533e-08
6.4385561e-07
-8.4802003e-08
7.0755445e-07
-8.6303416e-08
7.8255195e-07
-8.6552943e-08
8.6942298e-07
-8.570572e-08
9.6835971e-07
-8.3948568e-08
1.0792367e-06
-8.1474846e-08
1.201673e-06
-7.8463248e-08
1.3350812e-06
-7.5063608e-08
1.4786876e-06
-7.1390654e-08
1.6314998e-06
-6.752495e-08
1.7922269e-06
-6.3517423e-08
1.9591464e-06
-5.9395239e-08
2.1299076e-06
-5.5166438e-08
2.3012801e-06
-5.0823089e-08
2.468808e-06
-4.634283e-08
2.6263656e-06
-4.1689645e-08
2.7655507e-06
-3.681449e-08
2.8748954e-06
-3.165649e-08
2.9388188e-06
-2.6151183e-08
2.9362807e-06
-2.0257945e-08
2.8390902e-06
-1.4037785e-08
2.610029e-06
-7.830083e-09
2.2012377e-06
-2.5451128e-09
1.5537672e-06
5.9862572e-07
-2.2305671e-10
1.9011478e-08
-9.754835e-10
5.8745866e-08
-2.4282934e-09
1.048725e-07
-4.7555415e-09
1.5524528e-07
-8.1118854e-09
2.0732013e-07
-1.2602171e-08
2.5849054e-07
-1.8249356e-08
3.0651277e-07
-2.497051e-08
3.4991207e-07
-3.2570219e-08
3.8824863e-07
-4.0755026e-08
4.2216978e-07
-4.916533e-08
4.5324962e-07
-5.7415646e-08
4.8369791e-07
-6.5134371e-08
5.1602717e-07
-7.1996475e-08
5.5275801e-07
-7.7746852e-08
5.9620305e-07
-8.2214302e-08
6.4832308e-07
-8.53172e-08
7.1065733e-07
-8.706089e-08
7.8429565e-07
-8.7527786e-08
8.6988986e-07
-8.6859846e-08
9.6769178e-07
-8.5236104e-08
1.0776129e-06
-8.2848133e-08
1.199285e-06
-7.9877893e-08
1.332111e-06
-7.6481829e-08
1.4752915e-06
-7.2782752e-08
1.6278007e-06
-6.886858e-08
1.7883127e-06
-6.4796281e-08
1.9550741e-06
-6.0597135e-08
2.1257085e-06
-5.6281645e-08
2.2969646e-06
-5.1843348e-08
2.4643696e-06
-4.7260159e-08
2.6217825e-06
-4.2496186e-08
2.7607867e-06
-3.7501895e-08
2.8699011e-06
-3.2216584e-08
2.9335335e-06
-2.6577023e-08
2.9306412e-06
-2.0547863e-08
2.8330608e-06
-1.4201307e-08
2.6036826e-06
-7.89492e-09
2.1949313e-06
-2.5555083e-09
1.5484277e-06
5.9607027e-07
-2.1752844e-10
1.9229006e-08
-9.5172824e-10
5.9480066e-08
-2.3703906e-09
1.0629116e-07
-4.6454007e-09
1.5752029e-07
-7.9314628e-09
2.1060619e-07
-1.2336906e-08
2.6289599e-07
-1.7892296e-08
3.1206816e-07
-2.452612e-08
3.5654589e-07
-3.2056635e-08
3.9577915e-07
-4.0204075e-08
4.3031722e-07
-4.8620095e-08
4.6166564e-07
-5.6926426e-08
4.9200424e-07
-6.4753598e-08
5.2385435e-07
-7.177342e-08
5.5977784e-07
-7.7722643e-08
6.0215226e-07
-8.2417621e-08
6.5301806e-07
-8.5761106e-08
7.1400081e-07
-8.7741441e-08
7.8627598e-07
-8.8424541e-08
8.7057297e-07
-8.7938873e-08
9.6720611e-07
-8.6454627e-08
1.0761287e-06
-8.416009e-08
1.1969904e-06
-8.123922e-08
1.3291901e-06
-7.7854129e-08
1.4719064e-06
-7.4134948e-08
1.6240815e-06
-7.0177161e-08
1.7843549e-06
-6.6043704e-08