/*--------------------------------*- C++ -*----------------------------------*\
| =========                 |                                                 |
| \\      /  F ield         | OpenFOAM: The Open Source CFD Toolbox           |
|  \\    /   O peration     | Version:  3.0.1                                 |
|   \\  /    A nd           | Web:      www.OpenFOAM.org                      |
|    \\/     M anipulation  |                                                 |
\*---------------------------------------------------------------------------*/
FoamFile
{
    version     2.0;
    format      ascii;
    class       volScalarField;
    location    "9000/fluid";
    object      Qin;
}
// * * * * * * * * * * * * * * * * * * * * * * * * * * * * * * * * * * * * * //

dimensions      [1 0 -3 0 0 0 0];

internalField   uniform 0;

boundaryField
{
    LeftWedge
    {
        type            wedge;
    }
    RightWedge
    {
        type            wedge;
    }
    Inlet
    {
        type            calculated;
        value           uniform 0;
    }
    Outlet
    {
        type            calculated;
        value           nonuniform List<scalar> 
40
(
9.6422995e-30
9.6422995e-30
9.6422995e-30
9.6422995e-30
9.6422995e-30
9.6422995e-30
9.6422995e-30
9.6422995e-30
9.6422995e-30
9.6422995e-30
9.6422995e-30
9.6422995e-30
9.6422995e-30
9.6422995e-30
9.6422995e-30
9.6422995e-30
9.6422995e-30
9.6422995e-30
9.6422995e-30
9.6422995e-30
9.6422995e-30
9.6422995e-30
9.6422995e-30
9.6422995e-30
9.6422995e-30
9.6422995e-30
9.6422995e-30
9.6422995e-30
9.6422995e-30
9.6422995e-30
9.6422995e-30
9.6422995e-30
9.6422995e-30
9.6422995e-30
9.6422995e-30
9.6422995e-30
9.6422995e-30
9.6422995e-30
9.6422995e-30
9.6422994e-30
)
;
    }
    Outterwall
    {
        type            calculated;
        value           nonuniform List<scalar> 
100
(
692.39045
706.15521
720.54518
733.53861
744.79901
754.43562
762.6736
769.74608
775.86007
781.18857
785.87229
790.02426
793.73488
797.07648
800.1071
802.87357
805.41384
807.75894
809.93436
811.96123
813.85716
815.63696
817.31315
818.89641
820.39589
821.81948
823.17403
824.46553
825.69923
826.87977
828.01124
829.0973
830.14122
831.14594
832.1141
833.04807
833.95004
834.82197
835.66565
836.48273
837.27472
838.04299
838.78883
839.51341
840.21781
840.90306
841.57008
842.21974
842.85285
843.47018
844.07243
844.66026
845.2343
845.79511
846.34325
846.87924
847.40355
847.91665
848.41896
848.9109
849.39284
849.86515
850.32818
850.78225
851.22768
851.66476
852.09377
852.51497
852.92863
853.33499
853.73427
854.1267
854.51249
854.89184
855.26494
855.63199
855.99314
856.34859
856.69848
857.04299
857.38226
857.71646
858.04573
858.37025
858.6902
859.00579
859.31731
859.62512
859.9298
860.2322
860.53369
860.83646
861.14411
861.46241
861.80056
862.17206
862.59429
863.0765
863.60704
864.00743
)
;
    }
    fluid_to_solid
    {
        type            calculated;
        value           nonuniform List<scalar> 
100
(
421.91928
421.91842
421.91757
421.91672
421.91588
421.91504
421.91419
421.91335
421.91251
421.91167
421.91083
421.90999
421.90915
421.90831
421.90747
421.90663
421.90579
421.90495
421.90411
421.90327
421.90243
421.90159
421.90075
421.89991
421.89907
421.89823
421.89739
421.89655
421.89571
421.89487
421.89403
421.89319
421.89235
421.89151
421.89067
421.88983
421.88899
421.88815
421.88731
421.88647
421.88564
421.8848
421.88396
421.88312
421.88228
421.88144
421.8806
421.87976
421.87892
421.87809
421.87725
421.87641
421.87557
421.87473
421.8739
421.87306
421.87222
421.87139
421.87055
421.86972
421.86888
421.86805
421.86721
421.86638
421.86555
421.86472
421.86389
421.86306
421.86224
421.86141
421.86059
421.85976
421.85894
421.85813
421.85731
421.8565
421.85569
421.85488
421.85407
421.85327
421.85247
421.85168
421.85088
421.8501
421.84931
421.84854
421.84776
421.84699
421.84623
421.84547
421.84472
421.84398
421.84324
421.84251
421.84179
421.84107
421.84036
421.83967
421.83899
421.83842
)
;
    }
}


// ************************************************************************* //
