/*--------------------------------*- C++ -*----------------------------------*\
| =========                 |                                                 |
| \\      /  F ield         | OpenFOAM: The Open Source CFD Toolbox           |
|  \\    /   O peration     | Version:  3.0.1                                 |
|   \\  /    A nd           | Web:      www.OpenFOAM.org                      |
|    \\/     M anipulation  |                                                 |
\*---------------------------------------------------------------------------*/
FoamFile
{
    version     2.0;
    format      ascii;
    class       volScalarField;
    location    "3500/fluid";
    object      Qin;
}
// * * * * * * * * * * * * * * * * * * * * * * * * * * * * * * * * * * * * * //

dimensions      [1 0 -3 0 0 0 0];

internalField   uniform 0;

boundaryField
{
    Outterwall
    {
        type            calculated;
        value           nonuniform List<scalar> 
100
(
470.73551
543.96756
600.79723
644.24424
677.29458
702.59032
722.16084
737.5379
749.82244
759.81336
768.08148
775.04031
780.98934
786.14854
790.68063
794.70771
798.32233
801.59565
804.583
807.32796
809.86532
812.22309
814.42416
816.48739
818.42849
820.26065
821.99507
823.64132
825.20762
826.70112
828.12804
829.49386
830.8034
832.06092
833.27025
834.43479
835.55761
836.64145
837.68882
838.702
839.68303
840.63381
841.55606
842.45136
843.32118
844.16685
844.98962
845.79063
846.57094
847.33156
848.0734
848.79732
849.50412
850.19455
850.86932
851.52908
852.17445
852.80602
853.42434
854.02991
854.62323
855.20476
855.77493
856.33415
856.88282
857.4213
857.94995
858.46909
858.97906
859.48014
859.97263
860.4568
860.93291
861.40121
861.86195
862.31534
862.76161
863.20096
863.6336
864.05972
864.47951
864.89314
865.30081
865.70268
866.09894
866.4898
866.87547
867.25623
867.63244
868.0046
868.37345
868.74013
869.10648
869.47541
869.85167
870.24297
870.66168
871.12738
871.66308
872.24114
)
;
    }
    symmetryleft
    {
        type            symmetry;
    }
    symmetryrigt
    {
        type            symmetry;
    }
    Outlet
    {
        type            calculated;
        value           nonuniform List<scalar> 
50
(
9.7102546e-30
9.7102546e-30
9.7102546e-30
9.7102546e-30
9.7102546e-30
9.7102546e-30
9.7102546e-30
9.7102546e-30
9.7102546e-30
9.7102546e-30
9.7102546e-30
9.7102546e-30
9.7102546e-30
9.7102546e-30
9.7102546e-30
9.7102546e-30
9.7102546e-30
9.7102546e-30
9.7102546e-30
9.7102546e-30
9.7102546e-30
9.7102546e-30
9.7102546e-30
9.7102546e-30
9.7102546e-30
9.7102546e-30
9.7102546e-30
9.7102546e-30
9.7102546e-30
9.7102546e-30
9.7102546e-30
9.7102546e-30
9.7102546e-30
9.7102546e-30
9.7102546e-30
9.7102546e-30
9.7102546e-30
9.7102546e-30
9.7102546e-30
9.7102546e-30
9.7102546e-30
9.7102546e-30
9.7102546e-30
9.7102546e-30
9.7102546e-30
9.7102546e-30
9.7102546e-30
9.7102546e-30
9.7102546e-30
9.7102546e-30
)
;
    }
    Inlet
    {
        type            calculated;
        value           uniform 0;
    }
    fluid_to_cilcen
    {
        type            calculated;
        value           nonuniform List<scalar> 
100
(
421.51742
421.51658
421.51575
421.51491
421.51407
421.51323
421.51239
421.51155
421.51071
421.50987
421.50903
421.50819
421.50735
421.50651
421.50567
421.50483
421.50399
421.50315
421.50232
421.50148
421.50064
421.4998
421.49896
421.49812
421.49728
421.49644
421.4956
421.49476
421.49392
421.49308
421.49225
421.49141
421.49057
421.48973
421.48889
421.48805
421.48721
421.48637
421.48553
421.48469
421.48386
421.48302
421.48218
421.48134
421.4805
421.47966
421.47882
421.47798
421.47714
421.47631
421.47547
421.47463
421.47379
421.47295
421.47211
421.47127
421.47043
421.46959
421.46876
421.46792
421.46708
421.46624
421.4654
421.46456
421.46372
421.46288
421.46204
421.46121
421.46037
421.45953
421.45869
421.45785
421.45701
421.45617
421.45533
421.45449
421.45366
421.45282
421.45198
421.45114
421.4503
421.44946
421.44862
421.44778
421.44695
421.44611
421.44527
421.44443
421.44359
421.44275
421.44191
421.44107
421.44024
421.4394
421.43856
421.43772
421.43688
421.43604
421.4352
421.43437
)
;
    }
}


// ************************************************************************* //
