/*--------------------------------*- C++ -*----------------------------------*\
| =========                 |                                                 |
| \\      /  F ield         | OpenFOAM: The Open Source CFD Toolbox           |
|  \\    /   O peration     | Version:  3.0.1                                 |
|   \\  /    A nd           | Web:      www.OpenFOAM.org                      |
|    \\/     M anipulation  |                                                 |
\*---------------------------------------------------------------------------*/
FoamFile
{
    version     2.0;
    format      ascii;
    class       volScalarField;
    location    "3500/fluid";
    object      Qr;
}
// * * * * * * * * * * * * * * * * * * * * * * * * * * * * * * * * * * * * * //

dimensions      [1 0 -3 0 0 0 0];

internalField   uniform 0;

boundaryField
{
    Outterwall
    {
        type            calculated;
        value           nonuniform List<scalar> 
100
(
49.218085
122.45097
179.28149
222.72934
255.78052
281.07709
300.64846
316.02636
328.31174
338.3035
346.57245
353.53212
359.48199
364.64203
369.17496
373.20288
376.81834
380.0925
383.08068
385.82649
388.36468
390.72329
392.92521
394.98928
396.93121
398.76422
400.49948
402.14656
403.7137
405.20804
406.6358
408.00246
409.31283
410.5712
411.78137
412.94675
414.0704
415.15508
416.20329
417.21731
418.19918
419.1508
420.07388
420.97003
421.84068
422.68719
423.5108
424.31265
425.0938
425.85526
426.59794
427.32269
428.03033
428.7216
429.39721
430.05781
430.70402
431.33643
431.95559
432.562
433.15616
433.73852
434.30953
434.86959
435.4191
435.95842
436.48791
437.00789
437.51869
438.02062
438.51394
438.99895
439.4759
439.94504
440.40662
440.86085
441.30795
441.74815
442.18162
442.60858
443.02921
443.44368
443.85219
444.2549
444.652
445.0437
445.43021
445.81181
446.18885
446.56185
446.93154
447.29906
447.66624
448.03601
448.41311
448.80525
449.2248
449.69135
450.22788
450.80678
)
;
    }
    symmetryleft
    {
        type            symmetry;
    }
    symmetryrigt
    {
        type            symmetry;
    }
    Outlet
    {
        type            calculated;
        value           nonuniform List<scalar> 
50
(
9.7102546e-30
9.7102546e-30
9.7102546e-30
9.7102546e-30
9.7102546e-30
9.7102546e-30
9.7102546e-30
9.7102546e-30
9.7102546e-30
9.7102546e-30
9.7102546e-30
9.7102546e-30
9.7102546e-30
9.7102546e-30
9.7102546e-30
9.7102546e-30
9.7102546e-30
9.7102546e-30
9.7102546e-30
9.7102546e-30
9.7102546e-30
9.7102546e-30
9.7102546e-30
9.7102546e-30
9.7102546e-30
9.7102546e-30
9.7102546e-30
9.7102546e-30
9.7102546e-30
9.7102546e-30
9.7102546e-30
9.7102546e-30
9.7102546e-30
9.7102546e-30
9.7102546e-30
9.7102546e-30
9.7102546e-30
9.7102546e-30
9.7102546e-30
9.7102546e-30
9.7102546e-30
9.7102546e-30
9.7102546e-30
9.7102546e-30
9.7102546e-30
9.7102546e-30
9.7102546e-30
9.7102546e-30
9.7102546e-30
9.7102546e-30
)
;
    }
    Inlet
    {
        type            calculated;
        value           nonuniform List<scalar> 
50
(
-6.3277868e-30
-6.3277868e-30
-6.3277867e-30
-6.3277865e-30
-6.3277863e-30
-6.3277861e-30
-6.3277858e-30
-6.3277856e-30
-6.3277853e-30
-6.327785e-30
-6.3277848e-30
-6.3277846e-30
-6.3277844e-30
-6.3277843e-30
-6.3277842e-30
-6.3277841e-30
-6.3277841e-30
-6.327784e-30
-6.327784e-30
-6.327784e-30
-6.327784e-30
-6.327784e-30
-6.327784e-30
-6.327784e-30
-6.327784e-30
-6.327784e-30
-6.327784e-30
-6.327784e-30
-6.327784e-30
-6.327784e-30
-6.327784e-30
-6.327784e-30
-6.327784e-30
-6.327784e-30
-6.327784e-30
-6.327784e-30
-6.327784e-30
-6.327784e-30
-6.327784e-30
-6.327784e-30
-6.327784e-30
-6.327784e-30
-6.327784e-30
-6.327784e-30
-6.327784e-30
-6.327784e-30
-6.327784e-30
-6.327784e-30
-6.327784e-30
-6.327784e-30
)
;
    }
    fluid_to_cilcen
    {
        type            calculated;
        value           nonuniform List<scalar> 
100
(
-49.215605
-122.44395
-179.27139
-222.71758
-255.7681
-281.0646
-300.63622
-316.01454
-328.3004
-338.29265
-346.5621
-353.52224
-359.47255
-364.63299
-369.16629
-373.19455
-376.81034
-380.08479
-383.07324
-385.8193
-388.35772
-390.71654
-392.91865
-394.9829
-396.92501
-398.75817
-400.49358
-402.1408
-403.70807
-405.20253
-406.63041
-407.99717
-409.30764
-410.5661
-411.77635
-412.94181
-414.06553
-415.15028
-416.19856
-417.21263
-418.19456
-419.14623
-420.06937
-420.96555
-421.83625
-422.6828
-423.50643
-424.30831
-425.0895
-425.85098
-426.59368
-427.31846
-428.02612
-428.71741
-429.39303
-430.05365
-430.69987
-431.33229
-431.95146
-432.55788
-433.15204
-433.73442
-434.30543
-434.8655
-435.41501
-435.95433
-436.48382
-437.0038
-437.51461
-438.01653
-438.50986
-438.99486
-439.47181
-439.94095
-440.40252
-440.85675
-441.30385
-441.74404
-442.17752
-442.60447
-443.02509
-443.43956
-443.84806
-444.25076
-444.64786
-445.03955
-445.42606
-445.80765
-446.18469
-446.55768
-446.92735
-447.29487
-447.66205
-448.0318
-448.4089
-448.80102
-449.22056
-449.68707
-450.22357
-450.80242
)
;
    }
}


// ************************************************************************* //
