/*--------------------------------*- C++ -*----------------------------------*\
| =========                 |                                                 |
| \\      /  F ield         | OpenFOAM: The Open Source CFD Toolbox           |
|  \\    /   O peration     | Version:  3.0.1                                 |
|   \\  /    A nd           | Web:      www.OpenFOAM.org                      |
|    \\/     M anipulation  |                                                 |
\*---------------------------------------------------------------------------*/
FoamFile
{
    version     2.0;
    format      ascii;
    class       volScalarField;
    location    "9000/fluid";
    object      Qr;
}
// * * * * * * * * * * * * * * * * * * * * * * * * * * * * * * * * * * * * * //

dimensions      [1 0 -3 0 0 0 0];

internalField   uniform 0;

boundaryField
{
    LeftWedge
    {
        type            wedge;
    }
    RightWedge
    {
        type            wedge;
    }
    Inlet
    {
        type            calculated;
        value           uniform -6.3277868e-30;
    }
    Outlet
    {
        type            calculated;
        value           nonuniform List<scalar> 
40
(
9.6422995e-30
9.6422995e-30
9.6422995e-30
9.6422995e-30
9.6422995e-30
9.6422995e-30
9.6422995e-30
9.6422995e-30
9.6422995e-30
9.6422995e-30
9.6422995e-30
9.6422995e-30
9.6422995e-30
9.6422995e-30
9.6422995e-30
9.6422995e-30
9.6422995e-30
9.6422995e-30
9.6422995e-30
9.6422995e-30
9.6422995e-30
9.6422995e-30
9.6422995e-30
9.6422995e-30
9.6422995e-30
9.6422995e-30
9.6422995e-30
9.6422995e-30
9.6422995e-30
9.6422995e-30
9.6422995e-30
9.6422995e-30
9.6422995e-30
9.6422995e-30
9.6422995e-30
9.6422995e-30
9.6422995e-30
9.6422995e-30
9.6422995e-30
9.6422994e-30
)
;
    }
    Outterwall
    {
        type            calculated;
        value           nonuniform List<scalar> 
100
(
270.47118
284.23679
298.62761
311.62189
322.88313
332.52059
340.7594
347.83273
353.94756
359.2769
363.96146
368.11427
371.82573
375.16817
378.19964
380.96694
383.50805
385.85399
388.03025
390.05796
391.95473
393.73537
395.41241
396.99651
398.49682
399.92125
401.27664
402.56899
403.80353
404.9849
406.11721
407.20411
408.24887
409.25443
410.22342
411.15824
412.06105
412.93382
413.77834
414.59626
415.38908
416.1582
416.90487
417.63029
418.33554
419.02162
419.68947
420.33997
420.97393
421.5921
422.19519
422.78385
423.35872
423.92038
424.46936
425.00618
425.53133
426.04527
426.54841
427.04118
427.52396
427.99711
428.46097
428.91587
429.36213
429.80004
430.22988
430.65191
431.0664
431.47358
431.87369
432.26694
432.65355
433.03371
433.40763
433.77549
434.13746
434.49371
434.84441
435.18972
435.52979
435.86479
436.19485
436.52016
436.84089
437.15726
437.46955
437.77813
438.08357
438.38673
438.68897
438.99249
439.30087
439.6199
439.95877
440.33099
440.75393
441.23684
441.76805
442.16902
)
;
    }
    fluid_to_solid
    {
        type            calculated;
        value           nonuniform List<scalar> 
100
(
-270.47071
-284.23641
-298.62726
-311.62155
-322.88281
-332.52027
-340.7591
-347.83243
-353.94727
-359.27662
-363.96119
-368.11401
-371.82547
-375.16792
-378.19939
-380.9667
-383.50782
-385.85376
-388.03003
-390.05774
-391.95452
-393.73516
-395.4122
-396.99631
-398.49663
-399.92106
-401.27645
-402.5688
-403.80334
-404.98472
-406.11703
-407.20393
-408.2487
-409.25426
-410.22326
-411.15808
-412.06089
-412.93366
-413.77818
-414.59611
-415.38893
-416.15805
-416.90473
-417.63015
-418.33539
-419.02148
-419.68934
-420.33984
-420.9738
-421.59197
-422.19506
-422.78373
-423.3586
-423.92025
-424.46923
-425.00606
-425.53121
-426.04515
-426.5483
-427.04107
-427.52385
-427.997
-428.46086
-428.91577
-429.36203
-429.79994
-430.22978
-430.65181
-431.0663
-431.47348
-431.87359
-432.26684
-432.65345
-433.03362
-433.40754
-433.7754
-434.13737
-434.49362
-434.84433
-435.18964
-435.52971
-435.8647
-436.19477
-436.52007
-436.8408
-437.15718
-437.46946
-437.77805
-438.08349
-438.38665
-438.68889
-438.9924
-439.30079
-439.61982
-439.95869
-440.33091
-440.75385
-441.23676
-441.76797
-442.16893
)
;
    }
}


// ************************************************************************* //
