/*--------------------------------*- C++ -*----------------------------------*\
| =========                 |                                                 |
| \\      /  F ield         | OpenFOAM: The Open Source CFD Toolbox           |
|  \\    /   O peration     | Version:  3.0.1                                 |
|   \\  /    A nd           | Web:      www.OpenFOAM.org                      |
|    \\/     M anipulation  |                                                 |
\*---------------------------------------------------------------------------*/
FoamFile
{
    version     2.0;
    format      ascii;
    class       volScalarField;
    location    "9000/fluid";
    object      rho;
}
// * * * * * * * * * * * * * * * * * * * * * * * * * * * * * * * * * * * * * //

dimensions      [1 -3 0 0 0 0 0];

internalField   nonuniform List<scalar> 
4000
(
1.0829589
1.1239377
1.1546449
1.175115
1.1875718
1.1946154
1.1983598
1.2002446
1.2011465
1.2015576
1.2017361
1.2018099
1.2018389
1.2018498
1.2018537
1.2018549
1.2018554
1.2018555
1.2018555
1.2018555
1.2018555
1.2018555
1.2018555
1.2018555
1.2018555
1.2018555
1.2018555
1.2018555
1.2018555
1.2018555
1.2018555
1.2018555
1.2018555
1.2018555
1.2018555
1.2018555
1.2018555
1.2018555
1.2018555
1.2018555
1.0706959
1.1033413
1.1325668
1.156367
1.1739254
1.1857477
1.1930908
1.1973401
1.1996481
1.2008304
1.2014029
1.2016654
1.2017792
1.2018259
1.201844
1.2018507
1.201853
1.2018537
1.2018539
1.201854
1.201854
1.201854
1.201854
1.201854
1.201854
1.201854
1.201854
1.201854
1.201854
1.201854
1.201854
1.201854
1.201854
1.201854
1.201854
1.201854
1.201854
1.201854
1.201854
1.201854
1.063586
1.0932273
1.1205855
1.1443683
1.1635348
1.1777862
1.1875873
1.1938564
1.1976074
1.1997163
1.2008335
1.201392
1.2016555
1.2017728
1.2018221
1.2018416
1.2018488
1.2018513
1.2018522
1.2018524
1.2018525
1.2018525
1.2018525
1.2018525
1.2018525
1.2018525
1.2018525
1.2018525
1.2018525
1.2018525
1.2018525
1.2018525
1.2018525
1.2018525
1.2018525
1.2018525
1.2018525
1.2018525
1.2018525
1.2018525
1.0580179
1.086232
1.1125032
1.1359355
1.1556465
1.1711481
1.182519
1.190312
1.1953182
1.1983424
1.200064
1.2009886
1.2014571
1.201681
1.2017817
1.2018244
1.2018414
1.2018478
1.20185
1.2018507
1.2018509
1.201851
1.201851
1.201851
1.201851
1.201851
1.201851
1.201851
1.201851
1.201851
1.201851
1.201851
1.201851
1.201851
1.201851
1.201851
1.201851
1.201851
1.201851
1.201851
1.053466
1.0807932
1.1063588
1.1294745
1.1493962
1.1656095
1.1780161
1.1869374
1.192975
1.1968281
1.1991504
1.2004729
1.2011844
1.2015456
1.2017184
1.2017962
1.2018291
1.2018422
1.201847
1.2018487
1.2018493
1.2018495
1.2018495
1.2018495
1.2018495
1.2018495
1.2018495
1.2018495
1.2018495
1.2018495
1.2018495
1.2018495
1.2018495
1.2018495
1.2018495
1.2018495
1.2018495
1.2018495
1.2018495
1.2018495
1.0496897
1.0763666
1.1014075
1.1242521
1.1442546
1.1609121
1.1740384
1.1838098
1.1906843
1.195261
1.1981468
1.1998705
1.2008453
1.2013665
1.2016294
1.2017544
1.2018103
1.2018337
1.2018429
1.2018463
1.2018475
1.2018479
1.201848
1.201848
1.201848
1.201848
1.201848
1.201848
1.201848
1.201848
1.201848
1.201848
1.201848
1.201848
1.201848
1.201848
1.201848
1.201848
1.201848
1.201848
1.0465211
1.0726724
1.0972844
1.1198863
1.1399051
1.1568569
1.1705074
1.1809364
1.188495
1.1936958
1.1970956
1.1992069
1.2004516
1.201147
1.2015144
1.2016976
1.2017836
1.2018215
1.2018372
1.2018433
1.2018455
1.2018462
1.2018464
1.2018465
1.2018465
1.2018465
1.2018465
1.2018465
1.2018465
1.2018465
1.2018465
1.2018465
1.2018465
1.2018465
1.2018465
1.2018465
1.2018465
1.2018465
1.2018465
1.2018465
1.0438334
1.0695362
1.0937769
1.1161537
1.1361503
1.1533031
1.1673487
1.1782995
1.1864244
1.192164
1.196027
1.1985038
1.2000155
1.2008923
1.2013745
1.2016251
1.2017481
1.2018048
1.2018293
1.2018393
1.2018431
1.2018444
1.2018448
1.201845
1.201845
1.201845
1.201845
1.201845
1.201845
1.201845
1.201845
1.201845
1.201845
1.201845
1.201845
1.201845
1.201845
1.201845
1.201845
1.201845
1.0415292
1.0668371
1.0907463
1.1129102
1.1328595
1.1501501
1.164501
1.1758745
1.1844748
1.1906821
1.194961
1.1977781
1.1995484
1.2006084
1.2012117
1.2015372
1.2017031
1.2017829
1.2018189
1.2018341
1.2018402
1.2018424
1.2018432
1.2018434
1.2018435
1.2018435
1.2018435
1.2018435
1.2018435
1.2018435
1.2018435
1.2018435
1.2018435
1.2018435
1.2018435
1.2018435
1.2018435
1.2018435
1.2018435
1.2018435
1.0395328
1.0644868
1.0880947
1.1100559
1.1299408
1.1473246
1.1619152
1.1736368
1.1826414
1.1892576
1.1939103
1.1970425
1.1990598
1.2003011
1.201029
1.2014346
1.2016487
1.2017554
1.2018055
1.2018275
1.2018366
1.2018402
1.2018414
1.2018418
1.201842
1.201842
1.201842
1.201842
1.201842
1.201842
1.201842
1.201842
1.201842
1.201842
1.201842
1.201842
1.201842
1.201842
1.201842
1.201842
1.0377857
1.0624191
1.0857504
1.107518
1.1273272
1.1447713
1.1595521
1.1715643
1.1809164
1.1878929
1.1928827
1.1963058
1.1985574
1.1999757
1.2008292
1.2013185
1.2015849
1.2017222
1.2017888
1.2018193
1.2018323
1.2018376
1.2018395
1.2018402
1.2018404
1.2018405
1.2018405
1.2018405
1.2018405
1.2018405
1.2018405
1.2018405
1.2018405
1.2018405
1.2018405
1.2018405
1.2018405
1.2018405
1.2018405
1.2018405
1.0362424
1.0605831
1.0836588
1.1052416
1.1249677
1.1424476
1.1573805
1.1696376
1.1792913
1.1865874
1.1918824
1.1955743
1.1980472
1.1996367
1.2006152
1.2011904
1.2015123
1.201683
1.2017687
1.2018091
1.2018271
1.2018346
1.2018375
1.2018385
1.2018389
1.201839
1.201839
1.201839
1.201839
1.201839
1.201839
1.201839
1.201839
1.201839
1.201839
1.201839
1.201839
1.201839
1.201839
1.201839
1.0348672
1.058939
1.0817777
1.1031843
1.1228226
1.14032
1.1553749
1.1678403
1.1777578
1.1853392
1.1909117
1.1948524
1.1975338
1.1992881
1.2003896
1.2010517
1.2014313
1.2016382
1.201745
1.201797
1.2018208
1.2018311
1.2018352
1.2018367
1.2018373
1.2018375
1.2018375
1.2018375
1.2018375
1.2018375
1.2018375
1.2018375
1.2018375
1.2018375
1.2018375
1.2018375
1.2018375
1.2018375
1.2018375
1.2018375
1.0336318
1.0574557
1.0800737
1.1013125
1.1208605
1.1383612
1.1535144
1.1661581
1.1763079
1.1841457
1.1899714
1.1941428
1.1970207
1.198933
1.2001549
1.2009038
1.2013427
1.2015877
1.2017176
1.2017826
1.2018133
1.201827
1.2018326
1.2018348
1.2018356
1.2018359
1.201836
1.201836
1.201836
1.201836
1.201836
1.201836
1.201836
1.201836
1.201836
1.201836
1.201836
1.201836
1.201836
1.201836
1.0325139
1.0561083
1.0785203
1.0995994
1.1190561
1.1365493
1.1517814
1.1645788
1.1749345
1.1830037
1.1890616
1.1934473
1.1965105
1.198574
1.199913
1.2007481
1.2012472
1.201532
1.2016866
1.2017661
1.2018046
1.2018222
1.2018298
1.2018328
1.201834
1.2018344
1.2018345
1.2018345
1.2018345
1.2018345
1.2018345
1.2018345
1.2018345
1.2018345
1.2018345
1.2018345
1.2018345
1.2018345
1.2018345
1.2018345
1.0314955
1.0548766
1.077096
1.098023
1.1173886
1.1348661
1.1501615
1.1630919
1.173631
1.18191
1.1881816
1.192767
1.196005
1.198213
1.1996657
1.200586
1.2011457
1.2014714
1.2016521
1.2017472
1.2017946
1.2018168
1.2018266
1.2018306
1.2018322
1.2018328
1.201833
1.201833
1.201833
1.201833
1.201833
1.201833
1.201833
1.201833
1.201833
1.201833
1.201833
1.201833
1.201833
1.201833
1.0305623
1.0537446
1.0757832
1.0965655
1.1158409
1.1332964
1.1486422
1.1616882
1.1723916
1.1808617
1.1873304
1.1921025
1.1955055
1.1978518
1.1994145
1.2004185
1.2010388
1.2014063
1.2016142
1.2017261
1.2017831
1.2018105
1.201823
1.2018283
1.2018304
1.2018311
1.2018314
1.2018315
1.2018315
1.2018315
1.2018315
1.2018315
1.2018315
1.2018315
1.2018315
1.2018315
1.2018315
1.2018315
1.2018315
1.2018315
1.0297024
1.0526988
1.0745676
1.0952121
1.1143986
1.1318273
1.1472129
1.16036
1.1712109
1.1798558
1.1865072
1.1914539
1.1950132
1.1974915
1.1991607
1.2002466
1.2009272
1.201337
1.2015731
1.2017027
1.2017702
1.2018035
1.2018189
1.2018257
1.2018284
1.2018295
1.2018299
1.20183
1.20183
1.20183
1.20183
1.20183
1.20183
1.20183
1.20183
1.20183
1.20183
1.20183
1.20183
1.20183
1.0289062
1.0517283
1.073437
1.0939503
1.1130498
1.130448
1.1458647
1.1591002
1.1700843
1.1788895
1.1857105
1.1908212
1.1945285
1.1971332
1.1989053
1.2000713
1.2008116
1.201264
1.2015289
1.2016771
1.2017558
1.2017955
1.2018144
1.2018228
1.2018264
1.2018278
1.2018283
1.2018285
1.2018285
1.2018285
1.2018285
1.2018285
1.2018285
1.2018285
1.2018285
1.2018285
1.2018285
1.2018285
1.2018285
1.2018285
1.0281656
1.0508239
1.0723816
1.0927698
1.1117842
1.1291491
1.1445897
1.1579029
1.1690075
1.1779603
1.1849393
1.1902043
1.194052
1.1967776
1.1986491
1.1998932
1.2006926
1.2011876
1.2014819
1.2016493
1.20174
1.2017867
1.2018094
1.2018197
1.2018242
1.201826
1.2018267
1.2018269
1.201827
1.201827
1.201827
1.201827
1.201827
1.201827
1.201827
1.201827
1.201827
1.201827
1.201827
1.201827
1.0274741
1.049978
1.0713929
1.0916615
1.1105932
1.1279228
1.143381
1.1567626
1.1679767
1.1770658
1.1841923
1.1896026
1.1935838
1.1964254
1.1983928
1.1997132
1.2005707
1.2011082
1.2014323
1.2016196
1.2017228
1.2017769
1.2018038
1.2018163
1.2018219
1.2018242
1.2018251
1.2018254
1.2018255
1.2018255
1.2018255
1.2018255
1.2018255
1.2018255
1.2018255
1.2018255
1.2018255
1.2018255
1.2018255
1.2018255
1.026826
1.0491841
1.0704636
1.0906181
1.1094691
1.1267619
1.1422327
1.1556747
1.1669885
1.1762037
1.1834683
1.1890159
1.1931241
1.1960768
1.198137
1.1995317
1.2004464
1.2010262
1.2013803
1.2015879
1.2017042
1.2017662
1.2017976
1.2018126
1.2018194
1.2018223
1.2018234
1.2018238
1.201824
1.201824
1.201824
1.201824
1.201824
1.201824
1.201824
1.201824
1.201824
1.201824
1.201824
1.201824
1.0262166
1.0484367
1.0695876
1.089633
1.1084056
1.1256606
1.1411396
1.1546349
1.1660399
1.1753721
1.1827662
1.1884437
1.192673
1.1957324
1.1978822
1.1993492
1.20032
1.2009418
1.201326
1.2015543
1.2016842
1.2017546
1.2017909
1.2018086
1.2018168
1.2018203
1.2018217
1.2018223
1.2018225
1.2018225
1.2018225
1.2018225
1.2018225
1.2018225
1.2018225
1.2018225
1.2018225
1.2018225
1.2018225
1.2018225
1.0256419
1.0477311
1.0687596
1.0887006
1.1073971
1.1246135
1.1400971
1.1536396
1.165128
1.174569
1.1820849
1.1878855
1.1922304
1.1953922
1.1976287
1.1991661
1.2001921
1.2008554
1.2012698
1.2015191
1.2016629
1.2017421
1.2017836
1.2018042
1.2018139
1.2018182
1.20182
1.2018207
1.2018209
1.201821
1.201821
1.201821
1.201821
1.201821
1.201821
1.201821
1.201821
1.201821
1.201821
1.201821
1.0250985
1.0470631
1.0679752
1.0878161
1.1064385
1.123616
1.139101
1.1526854
1.1642503
1.1737928
1.1814233
1.1873408
1.1917962
1.1950566
1.1973769
1.1989829
1.2000628
1.2007672
1.2012117
1.2014822
1.2016403
1.2017286
1.2017757
1.2017995
1.2018109
1.201816
1.2018182
1.2018191
1.2018194
1.2018195
1.2018195
1.2018195
1.2018195
1.2018195
1.2018195
1.2018195
1.2018195
1.2018195
1.2018195
1.2018195
1.0245833
1.0464294
1.0672302
1.086975
1.1055257
1.122664
1.1381478
1.1517692
1.1634046
1.1730419
1.1807805
1.186809
1.1913702
1.1947254
1.197127
1.1987997
1.1999326
1.2006775
1.201152
1.2014438
1.2016165
1.2017143
1.2017672
1.2017944
1.2018076
1.2018137
1.2018163
1.2018174
1.2018178
1.201818
1.201818
1.201818
1.201818
1.201818
1.201818
1.201818
1.201818
1.201818
1.201818
1.201818
1.0240938
1.0458268
1.0665213
1.0861739
1.1046548
1.1217539
1.1372341
1.1508884
1.1625888
1.1723147
1.1801555
1.1862898
1.1909523
1.1943989
1.1968791
1.1986168
1.1998016
1.2005865
1.2010909
1.2014041
1.2015915
1.2016991
1.2017581
1.2017889
1.2018042
1.2018113
1.2018144
1.2018158
1.2018163
1.2018165
1.2018165
1.2018165
1.2018165
1.2018165
1.2018165
1.2018165
1.2018165
1.2018165
1.2018165
1.2018165
1.0236277
1.0452526
1.0658454
1.0854092
1.1038224
1.1208825
1.1363572
1.1500406
1.1618009
1.17161
1.1795475
1.1857826
1.1905422
1.1940771
1.1966335
1.1984345
1.1996701
1.2004945
1.2010284
1.2013631
1.2015655
1.201683
1.2017484
1.201783
1.2018005
1.2018088
1.2018125
1.2018141
1.2018147
1.2018149
1.201815
1.201815
1.201815
1.201815
1.201815
1.201815
1.201815
1.201815
1.201815
1.201815
1.023183
1.0447045
1.0651997
1.0846781
1.1030257
1.1200468
1.1355144
1.1492236
1.1610393
1.1709265
1.1789557
1.185287
1.1901399
1.1937599
1.1963902
1.1982529
1.1995382
1.2004015
1.2009647
1.2013209
1.2015384
1.2016662
1.2017381
1.2017768
1.2017965
1.2018061
1.2018104
1.2018123
1.2018131
1.2018134
1.2018135
1.2018135
1.2018135
1.2018135
1.2018135
1.2018135
1.2018135
1.2018135
1.2018135
1.2018135
1.0227581
1.0441804
1.064582
1.0839781
1.1022617
1.1192442
1.1347033
1.1484353
1.1603024
1.170263
1.1783792
1.1848025
1.1897451
1.1934472
1.1961494
1.1980722
1.1994062
1.2003077
1.2009001
1.2012776
1.2015104
1.2016485
1.2017273
1.2017701
1.2017923
1.2018033
1.2018083
1.2018106
1.2018115
1.2018119
1.201812
1.201812
1.201812
1.201812
1.201812
1.201812
1.201812
1.201812
1.201812
1.201812
1.0223512
1.0436785
1.06399
1.0833068
1.1015283
1.1184725
1.1339218
1.147674
1.1595888
1.1696185
1.1778174
1.1843287
1.1893576
1.1931392
1.195911
1.1978925
1.1992742
1.2002133
1.2008345
1.2012334
1.2014814
1.2016301
1.2017158
1.2017631
1.2017879
1.2018003
1.2018061
1.2018088
1.2018099
1.2018103
1.2018105
1.2018105
1.2018105
1.2018105
1.2018105
1.2018105
1.2018105
1.2018105
1.2018105
1.2018105
1.0219612
1.0431971
1.063422
1.0826621
1.1008233
1.1177296
1.133168
1.1469381
1.158897
1.1689919
1.1772695
1.1838652
1.1889771
1.1928356
1.1956751
1.1977139
1.1991424
1.2001185
1.2007681
1.2011883
1.2014516
1.201611
1.2017038
1.2017556
1.2017832
1.2017972
1.2018039
1.2018069
1.2018082
1.2018087
1.2018089
1.201809
1.201809
1.201809
1.201809
1.201809
1.201809
1.201809
1.201809
1.201809
1.0215868
1.0427346
1.0628761
1.0820422
1.1001446
1.1170135
1.1324402
1.1462258
1.1582259
1.1683824
1.176735
1.1834115
1.1886036
1.1925365
1.1954418
1.1975365
1.1990107
1.2000233
1.200701
1.2011423
1.201421
1.2015912
1.2016913
1.2017478
1.2017782
1.2017939
1.2018015
1.201805
1.2018065
1.2018072
1.2018074
1.2018075
1.2018075
1.2018075
1.2018075
1.2018075
1.2018075
1.2018075
1.2018075
1.2018075
1.0212267
1.0422898
1.0623509
1.0814453
1.0994907
1.1163225
1.1317367
1.145536
1.1575744
1.1677891
1.1762132
1.1829673
1.1882366
1.1922418
1.1952111
1.1973603
1.1988794
1.1999278
1.2006334
1.2010957
1.2013897
1.2015708
1.2016783
1.2017396
1.201773
1.2017904
1.201799
1.2018031
1.2018048
1.2018056
1.2018059
1.201806
1.201806
1.201806
1.201806
1.201806
1.201806
1.201806
1.201806
1.201806
1.0208802
1.0418616
1.0618449
1.08087
1.0988597
1.1156551
1.1310561
1.1448674
1.1569414
1.1672113
1.1757036
1.1825322
1.1878762
1.1919513
1.1949829
1.1971854
1.1987485
1.1998322
1.2005652
1.2010483
1.2013577
1.2015497
1.2016647
1.201731
1.2017676
1.2017868
1.2017965
1.2018011
1.2018031
1.201804
1.2018043
1.2018045
1.2018045
1.2018045
1.2018045
1.2018045
1.2018045
1.2018045
1.2018045
1.2018045
1.0205462
1.0414487
1.061357
1.0803149
1.0982505
1.1150098
1.1303971
1.1442187
1.156326
1.1666481
1.1752057
1.182106
1.187522
1.191665
1.1947573
1.1970118
1.1986181
1.1997364
1.2004966
1.2010004
1.2013251
1.2015281
1.2016507
1.2017221
1.2017618
1.201783
1.2017938
1.201799
1.2018014
1.2018024
1.2018028
1.201803
1.201803
1.201803
1.201803
1.201803
1.201803
1.201803
1.201803
1.201803
1.020224
1.0410502
1.0608859
1.0797787
1.0976615
1.1143853
1.1297584
1.1435889
1.1557273
1.1660989
1.1747189
1.1816882
1.1871739
1.1913828
1.1945343
1.1968397
1.1984882
1.1996407
1.2004277
1.2009519
1.2012919
1.2015059
1.2016363
1.2017127
1.2017559
1.2017791
1.201791
1.2017969
1.2017996
1.2018008
1.2018012
1.2018014
1.2018015
1.2018015
1.2018015
1.2018015
1.2018015
1.2018015
1.2018015
1.2018015
1.0199127
1.0406652
1.0604306
1.0792603
1.0970916
1.1137804
1.1291389
1.1429769
1.1551444
1.165563
1.1742428
1.1812785
1.1868317
1.1911046
1.1943137
1.1966689
1.198359
1.199545
1.2003584
1.200903
1.2012582
1.2014832
1.2016213
1.2017031
1.2017496
1.201775
1.2017882
1.2017947
1.2017977
1.2017991
1.2017997
1.2017999
1.2018
1.2018
1.2018
1.2018
1.2018
1.2018
1.2018
1.2018
1.0196119
1.040293
1.0599903
1.0787587
1.0965397
1.1131941
1.1285375
1.142382
1.1545765
1.1650399
1.173777
1.1808767
1.1864952
1.1908303
1.1940957
1.1964995
1.1982303
1.1994494
1.2002889
1.2008537
1.201224
1.2014601
1.201606
1.2016931
1.2017431
1.2017707
1.2017852
1.2017924
1.2017959
1.2017975
1.2017981
1.2017984
1.2017985
1.2017985
1.2017985
1.2017985
1.2017985
1.2017985
1.2017985
1.2017985
1.0193207
1.0399327
1.059564
1.0782727
1.0960048
1.1126253
1.1279534
1.1418031
1.1540231
1.164529
1.173321
1.1804824
1.1861642
1.1905598
1.1938801
1.1963316
1.1981023
1.1993539
1.2002193
1.2008039
1.2011893
1.2014364
1.2015902
1.2016828
1.2017364
1.2017662
1.2017821
1.2017901
1.201794
1.2017958
1.2017965
1.2017969
1.201797
1.201797
1.201797
1.201797
1.201797
1.201797
1.201797
1.201797
1.0190388
1.0395837
1.0591509
1.0778017
1.095486
1.112073
1.1273856
1.1412396
1.1534833
1.1640297
1.1728744
1.1800955
1.1858386
1.1902931
1.1936669
1.1961651
1.1979751
1.1992587
1.2001495
1.2007539
1.2011542
1.2014124
1.2015741
1.2016721
1.2017294
1.2017616
1.2017789
1.2017877
1.2017921
1.2017941
1.2017949
1.2017953
1.2017955
1.2017955
1.2017955
1.2017955
1.2017955
1.2017955
1.2017955
1.2017955
1.0187655
1.0392453
1.0587503
1.0773448
1.0949824
1.1115364
1.1268333
1.1406907
1.1529566
1.1635416
1.1724369
1.1797156
1.1855181
1.19003
1.1934562
1.1960001
1.1978486
1.1991637
1.2000796
1.2007036
1.2011187
1.201388
1.2015576
1.2016612
1.2017222
1.2017568
1.2017755
1.2017853
1.2017901
1.2017923
1.2017933
1.2017938
1.2017939
1.201794
1.201794
1.201794
1.201794
1.201794
1.201794
1.201794
1.0185004
1.038917
1.0583615
1.0769011
1.0944931
1.1110147
1.1262957
1.1401556
1.1524424
1.1630642
1.1720082
1.1793424
1.1852028
1.1897705
1.1932478
1.1958364
1.1977228
1.1990689
1.2000097
1.200653
1.2010829
1.2013631
1.2015408
1.2016499
1.2017147
1.2017518
1.2017721
1.2017827
1.2017881
1.2017906
1.2017917
1.2017922
1.2017924
1.2017925
1.2017925
1.2017925
1.2017925
1.2017925
1.2017925
1.2017925
1.018243
1.0385982
1.0579839
1.0764701
1.0940175
1.1105072
1.1257721
1.1396338
1.1519401
1.162597
1.1715878
1.1789759
1.1848923
1.1895145
1.1930417
1.1956743
1.1975978
1.1989745
1.1999397
1.2006022
1.2010468
1.201338
1.2015236
1.2016384
1.2017071
1.2017466
1.2017685
1.2017801
1.201786
1.2017888
1.2017901
1.2017907
1.2017909
1.201791
1.201791
1.201791
1.201791
1.201791
1.201791
1.201791
1.017993
1.0382884
1.057617
1.0760511
1.0935549
1.1100131
1.1252619
1.1391247
1.1514493
1.1621397
1.1711756
1.1786157
1.1845866
1.1892618
1.1928379
1.1955135
1.1974736
1.1988804
1.1998698
1.2005513
1.2010104
1.2013125
1.2015061
1.2016266
1.2016992
1.2017413
1.2017649
1.2017775
1.2017839
1.201787
1.2017885
1.2017891
1.2017894
1.2017895
1.2017895
1.2017895
1.2017895
1.2017895
1.2017895
1.2017895
1.0177499
1.0379873
1.0572601
1.0756434
1.0931046
1.1095319
1.1247644
1.1386276
1.1509694
1.1616919
1.1707711
1.1782616
1.1842855
1.1890125
1.1926364
1.1953542
1.1973501
1.1987866
1.1997999
1.2005002
1.2009738
1.2012867
1.2014883
1.2016145
1.201691
1.2017358
1.2017611
1.2017747
1.2017817
1.2017852
1.2017868
1.2017875
1.2017878
1.201788
1.201788
1.201788
1.201788
1.201788
1.201788
1.201788
1.0175135
1.0376942
1.0569128
1.0752466
1.0926661
1.1090628
1.1242791
1.1381421
1.1505
1.1612531
1.1703742
1.1779135
1.1839889
1.1887663
1.192437
1.1951962
1.1972275
1.1986932
1.1997301
1.2004489
1.2009369
1.2012607
1.2014703
1.2016022
1.2016827
1.2017302
1.2017572
1.2017719
1.2017795
1.2017833
1.2017851
1.201786
1.2017863
1.2017865
1.2017865
1.2017865
1.2017865
1.2017865
1.2017865
1.2017865
1.0172833
1.037409
1.0565747
1.0748601
1.0922388
1.1086055
1.1238054
1.1376677
1.1500407
1.1608231
1.1699845
1.1775711
1.1836966
1.1885234
1.1922398
1.1950397
1.1971057
1.1986002
1.1996604
1.2003976
1.2008998
1.2012344
1.2014519
1.2015896
1.2016742
1.2017244
1.2017531
1.2017689
1.2017773
1.2017814
1.2017834
1.2017844
1.2017848
1.2017849
1.201785
1.201785
1.201785
1.201785
1.201785
1.201785
1.0170592
1.0371311
1.0562453
1.0744835
1.0918221
1.1081593
1.1233429
1.137204
1.1495911
1.1604015
1.1696018
1.1772343
1.1834086
1.1882835
1.1920448
1.1948845
1.1969847
1.1985077
1.1995908
1.2003463
1.2008626
1.2012079
1.2014334
1.2015768
1.2016655
1.2017184
1.201749
1.2017659
1.2017749
1.2017795
1.2017817
1.2017828
1.2017832
1.2017834
1.2017835
1.2017835
1.2017835
1.2017835
1.2017835
1.2017835
1.0168408
1.0368603
1.0559241
1.0741162
1.0914157
1.1077237
1.122891
1.1367504
1.1491507
1.159988
1.1692259
1.1769029
1.1831247
1.1880466
1.1918518
1.1947307
1.1968645
1.1984155
1.1995214
1.2002948
1.2008252
1.2011811
1.2014146
1.2015638
1.2016565
1.2017123
1.2017447
1.2017629
1.2017726
1.2017776
1.20178
1.2017812
1.2017817
1.2017819
1.201782
1.201782
1.201782
1.201782
1.201782
1.201782
1.0166278
1.0365962
1.0556109
1.0737579
1.091019
1.1072983
1.1224493
1.1363065
1.1487193
1.1595823
1.1688565
1.1765767
1.1828448
1.1878126
1.1916609
1.1945782
1.1967452
1.1983237
1.1994521
1.2002434
1.2007876
1.2011542
1.2013956
1.2015506
1.2016474
1.2017061
1.2017404
1.2017597
1.2017702
1.2017756
1.2017783
1.2017795
1.2017801
1.2017804
1.2017805
1.2017805
1.2017805
1.2017805
1.2017805
1.2017805
1.01642
1.0363385
1.0553053
1.0734082
1.0906317
1.1068827
1.1220174
1.1358721
1.1482965
1.1591842
1.1684934
1.1762556
1.1825687
1.1875815
1.1914719
1.194427
1.1966266
1.1982324
1.1993829
1.2001919
1.2007499
1.201127
1.2013763
1.2015372
1.2016381
1.2016997
1.2017359
1.2017565
1.2017677
1.2017736
1.2017765
1.2017779
1.2017786
1.2017788
1.201779
1.201779
1.201779
1.201779
1.201779
1.201779
1.0162173
1.0360869
1.0550069
1.0730666
1.0902533
1.1064764
1.1215949
1.1354467
1.147882
1.1587933
1.1681364
1.1759393
1.1822965
1.1873532
1.191285
1.1942772
1.1965089
1.1981416
1.199314
1.2001405
1.2007121
1.2010997
1.2013569
1.2015235
1.2016287
1.2016931
1.2017313
1.2017532
1.2017652
1.2017715
1.2017747
1.2017763
1.201777
1.2017773
1.2017774
1.2017775
1.2017775
1.2017775
1.2017775
1.2017775
1.0160192
1.0358413
1.0547154
1.072733
1.0898834
1.1060792
1.1211814
1.1350299
1.1474755
1.1584095
1.1677854
1.1756279
1.1820279
1.1871276
1.1910999
1.1941287
1.1963919
1.1980511
1.1992452
1.200089
1.2006742
1.2010723
1.2013373
1.2015097
1.2016191
1.2016864
1.2017266
1.2017498
1.2017626
1.2017694
1.2017729
1.2017746
1.2017754
1.2017758
1.2017759
1.201776
1.201776
1.201776
1.201776
1.201776
1.0158258
1.0356013
1.0544306
1.0724068
1.0895218
1.1056905
1.1207765
1.1346216
1.1470767
1.1580324
1.16744
1.175321
1.1817629
1.1869046
1.1909168
1.1939814
1.1962758
1.1979612
1.1991767
1.2000376
1.2006363
1.2010447
1.2013175
1.2014958
1.2016093
1.2016796
1.2017218
1.2017463
1.20176
1.2017673
1.2017711
1.201773
1.2017738
1.2017742
1.2017744
1.2017745
1.2017745
1.2017745
1.2017745
1.2017745
1.0156367
1.0353667
1.0541521
1.0720879
1.0891681
1.1053101
1.1203801
1.1342212
1.1466853
1.157662
1.1671003
1.1750187
1.1815014
1.1866843
1.1907355
1.1938354
1.1961605
1.1978717
1.1991084
1.1999863
1.2005983
1.2010169
1.2012976
1.2014816
1.2015994
1.2016727
1.2017169
1.2017427
1.2017573
1.2017652
1.2017692
1.2017713
1.2017723
1.2017727
1.2017729
1.201773
1.201773
1.201773
1.201773
1.201773
1.0154519
1.0351373
1.0538798
1.071776
1.088822
1.1049377
1.1199916
1.1338287
1.1463011
1.1572978
1.1667659
1.1747207
1.1812433
1.1864665
1.190556
1.1936906
1.1960459
1.1977826
1.1990403
1.199935
1.2005602
1.2009891
1.2012775
1.2014673
1.2015893
1.2016656
1.2017119
1.2017391
1.2017545
1.201763
1.2017674
1.2017696
1.2017707
1.2017712
1.2017714
1.2017715
1.2017715
1.2017715
1.2017715
1.2017715
1.0152711
1.0349128
1.0536134
1.0714707
1.0884831
1.1045729
1.1196109
1.1334436
1.1459239
1.1569398
1.1664367
1.174427
1.1809885
1.1862512
1.1903783
1.1935471
1.1959322
1.1976941
1.1989724
1.1998837
1.2005221
1.2009611
1.2012573
1.2014529
1.2015791
1.2016584
1.2017068
1.2017354
1.2017517
1.2017607
1.2017655
1.2017679
1.2017691
1.2017696
1.2017698
1.20177
1.20177
1.20177
1.20177
1.20177
1.0150941
1.0346932
1.0533526
1.0711718
1.0881512
1.1042155
1.1192376
1.1330657
1.1455533
1.1565878
1.1661125
1.1741374
1.180737
1.1860383
1.1902024
1.1934048
1.1958192
1.197606
1.1989048
1.1998326
1.200484
1.2009331
1.201237
1.2014383
1.2015687
1.201651
1.2017016
1.2017316
1.2017489
1.2017584
1.2017635
1.2017662
1.2017674
1.201768
1.2017683
1.2017684
1.2017685
1.2017685
1.2017685
1.2017685
1.0149209
1.0344781
1.0530972
1.0708791
1.0878261
1.1038652
1.1188715
1.1326948
1.1451892
1.1562416
1.1657933
1.1738518
1.1804885
1.1858278
1.1900281
1.1932636
1.1957071
1.1975183
1.1988374
1.1997815
1.2004458
1.200905
1.2012165
1.2014236
1.2015582
1.2016436
1.2016963
1.2017278
1.201746
1.2017561
1.2017616
1.2017644
1.2017658
1.2017665
1.2017668
1.2017669
1.201767
1.201767
1.201767
1.201767
1.0147513
1.0342675
1.052847
1.0705923
1.0875075
1.1035218
1.1185123
1.1323306
1.1448314
1.1559009
1.1654789
1.1735701
1.1802432
1.1856196
1.1898556
1.1931236
1.1955956
1.1974311
1.1987702
1.1997306
1.2004076
1.2008768
1.2011959
1.2014088
1.2015476
1.201636
1.2016909
1.2017238
1.201743
1.2017538
1.2017596
1.2017627
1.2017642
1.2017649
1.2017653
1.2017654
1.2017655
1.2017655
1.2017655
1.2017655
1.0145851
1.0340611
1.0526019
1.0703113
1.0871952
1.1031849
1.1181598
1.1319729
1.1444796
1.1555656
1.1651691
1.1732922
1.1800008
1.1854136
1.1896847
1.1929848
1.195485
1.1973444
1.1987033
1.1996797
1.2003695
1.2008485
1.2011752
1.2013938
1.2015369
1.2016284
1.2016854
1.2017198
1.20174
1.2017514
1.2017576
1.2017609
1.2017625
1.2017633
1.2017637
1.2017639
1.201764
1.201764
1.201764
1.201764
1.0144222
1.0338589
1.0523617
1.0700357
1.0868889
1.1028545
1.1178138
1.1316216
1.1441337
1.1552356
1.1648638
1.173018
1.1797614
1.1852099
1.1895154
1.1928471
1.1953751
1.1972582
1.1986367
1.1996289
1.2003313
1.2008202
1.2011545
1.2013787
1.201526
1.2016206
1.2016798
1.2017157
1.2017369
1.201749
1.2017556
1.2017591
1.2017609
1.2017618
1.2017622
1.2017624
1.2017625
1.2017625
1.2017625
1.2017625
1.0142626
1.0336606
1.0521261
1.0697655
1.0865884
1.1025302
1.1174741
1.1312763
1.1437935
1.1549107
1.1645628
1.1727474
1.1795248
1.1850084
1.1893477
1.1927105
1.1952659
1.1971724
1.1985703
1.1995783
1.2002932
1.2007918
1.2011336
1.2013635
1.2015151
1.2016127
1.2016741
1.2017116
1.2017338
1.2017465
1.2017535
1.2017573
1.2017592
1.2017602
1.2017606
1.2017609
1.2017609
1.201761
1.201761
1.201761
1.014106
1.0334661
1.0518951
1.0695005
1.0862936
1.1022118
1.1171404
1.1309369
1.1434589
1.1545907
1.1642662
1.1724803
1.179291
1.1848089
1.1891816
1.192575
1.1951575
1.1970871
1.1985042
1.1995278
1.2002551
1.2007634
1.2011127
1.2013483
1.201504
1.2016048
1.2016683
1.2017074
1.2017306
1.201744
1.2017515
1.2017555
1.2017576
1.2017586
1.2017591
1.2017593
1.2017594
1.2017595
1.2017595
1.2017595
1.0139524
1.0332753
1.0516684
1.0692403
1.0860042
1.1018992
1.1168125
1.1306032
1.1431296
1.1542756
1.1639736
1.1722167
1.17906
1.1846116
1.1890169
1.1924406
1.1950498
1.1970023
1.1984384
1.1994774
1.200217
1.200735
1.2010917
1.2013329
1.2014929
1.2015967
1.2016625
1.2017031
1.2017274
1.2017415
1.2017494
1.2017536
1.2017559
1.201757
1.2017575
1.2017578
1.2017579
1.201758
1.201758
1.201758
1.0138017
1.0330881
1.0514459
1.068985
1.08572
1.1015921
1.1164903
1.1302751
1.1428054
1.1539651
1.1636851
1.1719564
1.1788315
1.1844163
1.1888538
1.1923072
1.1949428
1.1969179
1.1983728
1.1994271
1.2001789
1.2007065
1.2010706
1.2013174
1.2014816
1.2015886
1.2016566
1.2016987
1.2017241
1.2017389
1.2017472
1.2017518
1.2017542
1.2017554
1.201756
1.2017563
1.2017564
1.2017565
1.2017565
1.2017565
1.0136538
1.0329043
1.0512275
1.0687343
1.0854409
1.1012904
1.1161736
1.1299524
1.1424863
1.1536592
1.1634005
1.1716993
1.1786057
1.1842229
1.1886922
1.1921749
1.1948365
1.1968339
1.1983075
1.199377
1.2001409
1.200678
1.2010494
1.2013019
1.2014703
1.2015803
1.2016506
1.2016943
1.2017207
1.2017362
1.2017451
1.2017499
1.2017525
1.2017538
1.2017544
1.2017547
1.2017549
1.201755
1.201755
1.201755
1.0135086
1.0327239
1.051013
1.0684881
1.0851668
1.100994
1.1158622
1.1296348
1.1421722
1.1533577
1.1631198
1.1714454
1.1783824
1.1840316
1.188532
1.1920436
1.1947309
1.1967505
1.1982425
1.199327
1.2001029
1.2006494
1.2010282
1.2012863
1.2014589
1.201572
1.2016445
1.2016898
1.2017173
1.2017336
1.2017429
1.201748
1.2017507
1.2017521
1.2017529
1.2017532
1.2017534
1.2017534
1.2017535
1.2017535
1.013366
1.0325466
1.0508023
1.0682462
1.0848974
1.1007026
1.1155559
1.1293223
1.1418627
1.1530605
1.1628428
1.1711947
1.1781616
1.1838421
1.1883732
1.1919133
1.1946261
1.1966674
1.1981777
1.1992771
1.200065
1.2006209
1.201007
1.2012706
1.2014473
1.2015636
1.2016383
1.2016852
1.2017139
1.2017309
1.2017406
1.2017461
1.201749
1.2017505
1.2017513
1.2017517
1.2017518
1.2017519
1.201752
1.201752
1.0132259
1.0323725
1.0505953
1.0680085
1.0846327
1.100416
1.1152546
1.1290147
1.1415579
1.1527674
1.1625694
1.1709469
1.1779432
1.1836545
1.1882158
1.1917841
1.1945219
1.1965848
1.1981132
1.1992274
1.2000271
1.2005924
1.2009856
1.2012548
1.2014358
1.2015551
1.2016321
1.2016806
1.2017104
1.2017281
1.2017384
1.2017441
1.2017472
1.2017489
1.2017497
1.2017501
1.2017503
1.2017504
1.2017504
1.2017505
1.0130883
1.0322014
1.0503919
1.0677749
1.0843724
1.1001342
1.1149582
1.1287118
1.1412576
1.1524784
1.1622995
1.1707021
1.1777272
1.1834688
1.1880598
1.1916558
1.1944184
1.1965027
1.198049
1.1991778
1.1999893
1.2005638
1.2009643
1.201239
1.2014241
1.2015465
1.2016258
1.2016759
1.2017068
1.2017253
1.2017361
1.2017422
1.2017455
1.2017472
1.2017481
1.2017486
1.2017488
1.2017489
1.2017489
1.2017489
1.012953
1.0320333
1.0501919
1.0675452
1.0841164
1.099857
1.1146665
1.1284136
1.1409617
1.1521934
1.1620331
1.1704602
1.1775135
1.1832848
1.1879051
1.1915285
1.1943155
1.196421
1.197985
1.1991284
1.1999515
1.2005353
1.2009429
1.2012231
1.2014124
1.2015379
1.2016194
1.2016712
1.2017032
1.2017225
1.2017338
1.2017402
1.2017437
1.2017456
1.2017465
1.201747
1.2017473
1.2017474
1.2017474
1.2017474
1.01282
1.0318679
1.0499953
1.0673193
1.0838646
1.0995843
1.1143793
1.1281199
1.14067
1.1519123
1.16177
1.1702211
1.1773021
1.1831026
1.1877518
1.1914021
1.1942133
1.1963397
1.1979213
1.1990791
1.1999138
1.2005067
1.2009215
1.2012071
1.2014006
1.2015292
1.201613
1.2016664
1.2016996
1.2017197
1.2017315
1.2017382
1.2017419
1.2017439
1.201745
1.2017455
1.2017457
1.2017459
1.2017459
1.2017459
1.0126892
1.0317053
1.049802
1.0670972
1.0836169
1.0993159
1.1140966
1.1278305
1.1403824
1.1516349
1.1615103
1.1699848
1.1770929