/*--------------------------------*- C++ -*----------------------------------*\
| =========                 |                                                 |
| \\      /  F ield         | OpenFOAM: The Open Source CFD Toolbox           |
|  \\    /   O peration     | Version:  3.0.1                                 |
|   \\  /    A nd           | Web:      www.OpenFOAM.org                      |
|    \\/     M anipulation  |                                                 |
\*---------------------------------------------------------------------------*/
FoamFile
{
    version     2.0;
    format      ascii;
    class       volScalarField;
    location    "3500/fluid";
    object      rho;
}
// * * * * * * * * * * * * * * * * * * * * * * * * * * * * * * * * * * * * * //

dimensions      [1 -3 0 0 0 0 0];

internalField   nonuniform List<scalar> 
5000
(
1.16878
1.1710834
1.1735156
1.1760497
1.1786512
1.1812785
1.1838846
1.1864197
1.1888343
1.1910822
1.1931249
1.1949336
1.1964918
1.1977957
1.1988536
1.1996845
1.2003148
1.2007755
1.2010992
1.2013171
1.2014573
1.201543
1.2015927
1.2016199
1.2016339
1.2016406
1.2016436
1.2016448
1.2016453
1.2016454
1.2016455
1.2016455
1.2016455
1.2016455
1.2016455
1.2016455
1.2016455
1.2016455
1.2016455
1.2016455
1.2016455
1.2016455
1.2016455
1.2016455
1.2016455
1.2016455
1.2016455
1.2016455
1.2016455
1.2016455
1.1268041
1.1309177
1.1353049
1.13994
1.1447857
1.1497925
1.1548995
1.1600357
1.1651225
1.1700773
1.1748178
1.1792668
1.1833561
1.1870315
1.1902554
1.1930092
1.1952937
1.1971291
1.198552
1.1996126
1.2003692
1.2008834
1.2012148
1.2014161
1.2015308
1.2015917
1.2016217
1.2016353
1.2016409
1.201643
1.2016437
1.2016439
1.201644
1.201644
1.201644
1.201644
1.201644
1.201644
1.201644
1.201644
1.201644
1.201644
1.201644
1.201644
1.201644
1.201644
1.201644
1.201644
1.201644
1.201644
1.0985718
1.103095
1.107956
1.1131547
1.1186822
1.1245182
1.1306286
1.1369628
1.143453
1.1500134
1.1565421
1.1629255
1.169044
1.1747804
1.1800291
1.1847048
1.1887503
1.1921405
1.1948841
1.1970211
1.1986171
1.1997551
1.2005261
1.2010198
1.2013169
1.2014839
1.201571
1.2016129
1.2016313
1.2016387
1.2016413
1.2016422
1.2016424
1.2016425
1.2016425
1.2016425
1.2016425
1.2016425
1.2016425
1.2016425
1.2016425
1.2016425
1.2016425
1.2016425
1.2016425
1.2016425
1.2016425
1.2016425
1.2016425
1.2016425
1.0791466
1.0838187
1.0888504
1.0942503
1.1000213
1.1061582
1.1126452
1.1194531
1.1265364
1.1338309
1.141251
1.1486906
1.1560252
1.1631169
1.1698232
1.1760081
1.1815547
1.1863772
1.1904295
1.1937097
1.1962586
1.1981523
1.1994918
1.2003892
1.2009558
1.2012907
1.2014749
1.2015685
1.201612
1.2016305
1.2016376
1.20164
1.2016407
1.2016409
1.201641
1.201641
1.201641
1.201641
1.201641
1.201641
1.201641
1.201641
1.201641
1.201641
1.201641
1.201641
1.201641
1.201641
1.201641
1.201641
1.065436
1.0701592
1.0752511
1.080725
1.0865897
1.0928478
1.0994936
1.1065101
1.1138663
1.1215138
1.1293839
1.1373858
1.1454056
1.1533089
1.1609454
1.168159
1.1747995
1.1807374
1.1858778
1.1901712
1.1936187
1.19627
1.1982147
1.199569
1.2004599
1.2010101
1.2013271
1.2014964
1.2015794
1.2016166
1.2016316
1.2016371
1.2016388
1.2016393
1.2016395
1.2016395
1.2016395
1.2016395
1.2016395
1.2016395
1.2016395
1.2016395
1.2016395
1.2016395
1.2016395
1.2016395
1.2016395
1.2016395
1.2016395
1.2016395
1.0554835
1.0601919
1.0652704
1.0707348
1.0765974
1.0828659
1.089541
1.0966141
1.1040646
1.1118566
1.1199356
1.1282253
1.1366259
1.1450134
1.1532424
1.1611527
1.1685794
1.175367
1.1813852
1.1865437
1.1908026
1.1941768
1.1967318
1.1985726
1.1998283
1.2006348
1.2011193
1.2013898
1.2015289
1.2015944
1.2016222
1.2016329
1.2016365
1.2016376
1.2016379
1.201638
1.201638
1.201638
1.201638
1.201638
1.201638
1.201638
1.201638
1.201638
1.201638
1.201638
1.201638
1.201638
1.201638
1.201638
1.0480777
1.0527438
1.0577781
1.0631978
1.0690176
1.0752481
1.0818945
1.0889541
1.0964136
1.1042463
1.1124085
1.1208363
1.1294423
1.1381143
1.146716
1.1550908
1.16307
1.1704853
1.1771839
1.1830453
1.1879955
1.1920153
1.1951418
1.1974608
1.1990932
1.2001781
1.2008544
1.2012472
1.2014581
1.2015619
1.2016083
1.2016269
1.2016336
1.2016357
1.2016363
1.2016365
1.2016365
1.2016365
1.2016365
1.2016365
1.2016365
1.2016365
1.2016365
1.2016365
1.2016365
1.2016365
1.2016365
1.2016365
1.2016365
1.2016365
1.0424233
1.0470308
1.0520023
1.0573561
1.0631082
1.0692714
1.075854
1.0828574
1.0902741
1.0980845
1.1062538
1.1147283
1.123432
1.1322641
1.1410985
1.1497856
1.1581587
1.1660438
1.1732749
1.1797097
1.1852468
1.1898369
1.1934887
1.1962653
1.1982739
1.1996489
1.2005346
1.2010675
1.2013648
1.2015173
1.2015885
1.2016185
1.2016298
1.2016336
1.2016347
1.2016349
1.201635
1.201635
1.201635
1.201635
1.201635
1.201635
1.201635
1.201635
1.201635
1.201635
1.201635
1.201635
1.201635
1.201635
1.0380048
1.0425493
1.0474532
1.0527349
1.0584116
1.0644974
1.0710028
1.0779323
1.0852825
1.0930394
1.1011751
1.1096444
1.1183808
1.1272942
1.1362683
1.1451621
1.1538134
1.1620482
1.1696928
1.1765904
1.1826185
1.1877026
1.1918254
1.1950272
1.1973982
1.1990638
1.2001676
1.200853
1.2012488
1.2014595
1.201562
1.201607
1.2016248
1.201631
1.2016329
1.2016334
1.2016335
1.2016335
1.2016335
1.2016335
1.2016335
1.2016335
1.2016335
1.2016335
1.2016335
1.2016335
1.2016335
1.2016335
1.2016335
1.2016335
1.034472
1.0389529
1.043788
1.0489961
1.0545948
1.0605994
1.0670216
1.0738685
1.0811399
1.088826
1.0969046
1.1053375
1.1140665
1.1230106
1.1320631
1.1410917
1.1499405
1.1584377
1.1664064
1.1736804
1.180121
1.185633
1.1901764
1.1937693
1.1964841
1.1984348
1.1997602
1.2006065
1.2011104
1.2013879
1.2015279
1.2015919
1.2016182
1.2016278
1.2016309
1.2016318
1.201632
1.201632
1.201632
1.201632
1.201632
1.201632
1.201632
1.201632
1.201632
1.201632
1.201632
1.201632
1.201632
1.201632
1.0315882
1.036008
1.0407769
1.045914
1.051437
1.0573618
1.0637015
1.0704647
1.0776536
1.085262
1.0932722
1.1016515
1.110349
1.1192917
1.1283816
1.1374946
1.146482
1.1551759
1.1633991
1.1709793
1.1777661
1.1836476
1.1885639
1.1925132
1.1955498
1.1977749
1.1993204
1.2003318
1.2009509
1.2013024
1.2014857
1.2015727
1.2016099
1.201624
1.2016287
1.2016301
1.2016304
1.2016305
1.2016305
1.2016305
1.2016305
1.2016305
1.2016305
1.2016305
1.2016305
1.2016305
1.2016305
1.2016305
1.2016305
1.2016305
1.0291879
1.03355
1.0382563
1.0433259
1.0487767
1.0546252
1.060885
1.0675661
1.0746728
1.0822014
1.0901379
1.0984546
1.1071064
1.1160272
1.1251269
1.1342895
1.1433731
1.152215
1.1606393
1.1684705
1.1755495
1.181751
1.1869982
1.1912711
1.1946072
1.197094
1.1988551
1.200033
1.200772
1.2012032
1.2014352
1.201549
1.2015994
1.2016193
1.2016262
1.2016283
1.2016289
1.201629
1.201629
1.201629
1.201629
1.201629
1.201629
1.201629
1.201629
1.201629
1.201629
1.201629
1.201629
1.201629
1.0271551
1.0314633
1.0361113
1.0411178
1.046501
1.0522776
1.0584619
1.0650647
1.0720918
1.0795418
1.0874037
1.0956537
1.1042518
1.1131381
1.1222293
1.1314168
1.1405658
1.1495187
1.1581025
1.1661401
1.1734666
1.1799459
1.1854868
1.190053
1.1936663
1.1964008
1.1983707
1.1997142
1.2005757
1.2010912
1.2013762
1.2015204
1.2015865
1.2016135
1.2016233
1.2016264
1.2016273
1.2016275
1.2016275
1.2016275
1.2016275
1.2016275
1.2016275
1.2016275
1.2016275
1.2016275
1.2016275
1.2016275
1.2016275
1.2016275
1.025406
1.0296643
1.0342581
1.039206
1.0445263
1.0502357
1.0563491
1.0628779
1.0698291
1.0772033
1.0849917
1.0931739
1.1017144
1.1105584
1.1196291
1.1288243
1.1380159
1.147052
1.1557627
1.1639713
1.1715085
1.1782299
1.1840321
1.1888644
1.192734
1.1957019
1.1978727
1.199379
1.2003642
1.200967
1.2013089
1.2014869
1.201571
1.2016066
1.20162
1.2016244
1.2016256
1.2016259
1.201626
1.201626
1.201626
1.201626
1.201626
1.201626
1.201626
1.201626
1.201626
1.201626
1.201626
1.201626
1.02388
1.0280922
1.0326358
1.0375295
1.0427914
1.0484383
1.0544855
1.0609449
1.0678246
1.0751264
1.0828437
1.0909591
1.0994405
1.108238
1.1172801
1.1264708
1.1356883
1.1447861
1.1535983
1.1619491
1.1696666
1.1765998
1.1826351
1.187709
1.1918152
1.1950025
1.1973656
1.1990309
1.2001396
1.2008319
1.2012337
1.2014484
1.2015527
1.2015984
1.2016161
1.2016222
1.2016239
1.2016244
1.2016245
1.2016245
1.2016245
1.2016245
1.2016245
1.2016245
1.2016245
1.2016245
1.2016245
1.2016245
1.2016245
1.2016245
1.0225323
1.0267017
1.0311989
1.0360424
1.0412501
1.046839
1.0528245
1.0592191
1.0660315
1.0732647
1.0809141
1.0889644
1.0973868
1.1061356
1.1151441
1.1243219
1.1335528
1.142696
1.1515894
1.160059
1.1679317
1.175051
1.1812949
1.1865886
1.1909135
1.1943067
1.1968532
1.1986729
1.1999039
1.2006868
1.2011509
1.2014048
1.2015316
1.2015887
1.2016116
1.2016197
1.2016222
1.2016228
1.201623
1.201623
1.201623
1.201623
1.201623
1.201623
1.201623
1.201623
1.201623
1.201623
1.201623
1.201623
1.0213291
1.025459
1.0299131
1.03471
1.0398674
1.0454025
1.0513305
1.0576646
1.0644139
1.0715825
1.0791672
1.0871548
1.0955195
1.1042188
1.1131905
1.1223493
1.1315846
1.1407603
1.1497188
1.1582883
1.166295
1.1735787
1.1800098
1.1855039
1.1900311
1.1936174
1.1963385
1.1983076
1.1996589
1.2005328
1.2010609
1.2013563
1.2015075
1.2015775
1.2016064
1.201617
1.2016203
1.2016213
1.2016215
1.2016215
1.2016215
1.2016215
1.2016215
1.2016215
1.2016215
1.2016215
1.2016215
1.2016215
1.2016215
1.2016215
1.0202449
1.0243379
1.0287522
1.0335058
1.0386165
1.0441014
1.049976
1.0562535
1.0629436
1.0700514
1.0775748
1.0855024
1.0938108
1.1024608
1.1113941
1.1205299
1.1297624
1.1389609
1.1479716
1.1566253
1.1647484
1.1721777
1.1787775
1.1844548
1.1891693
1.1929369
1.1958241
1.1979371
1.1994064
1.2003711
1.2009644
1.201303
1.2014804
1.2015647
1.2016005
1.201614
1.2016184
1.2016196
1.2016199
1.20162
1.20162
1.20162
1.20162
1.20162
1.20162
1.20162
1.20162
1.20162
1.20162
1.20162
1.0192597
1.0233186
1.0276957
1.032409
1.0374763
1.0429144
1.048739
1.0549636
1.0615984
1.0686488
1.0761141
1.0839845
1.0922386
1.10084
1.1097341
1.118844
1.1280688
1.1372822
1.1463346
1.1550597
1.1632843
1.1708431
1.1775955
1.1834406
1.188329
1.1922667
1.1953117
1.1975634
1.1991479
1.2002027
1.2008619
1.2012452
1.2014503
1.2015501
1.2015937
1.2016106
1.2016163
1.201618
1.2016184
1.2016185
1.2016185
1.2016185
1.2016185
1.2016185
1.2016185
1.2016185
1.2016185
1.2016185
1.2016185
1.2016185
1.0183581
1.0223851
1.0267276
1.0314033
1.03643
1.0418245
1.0476024
1.0537774
1.0603601
1.0673566
1.074767
1.0825828
1.0907847
1.0993387
1.1081933
1.1172755
1.1264887
1.1357109
1.1447966
1.1535823
1.1618958
1.1695704
1.1764611
1.1824604
1.1875103
1.191608
1.194803
1.1971879
1.1988846
1.2000284
1.2007539
1.2011831
1.2014173
1.2015339
1.2015861
1.2016069
1.2016141
1.2016163
1.2016169
1.201617
1.201617
1.201617
1.201617
1.201617
1.201617
1.201617
1.201617
1.201617
1.201617
1.201617
1.0175278
1.021525
1.025835
1.0304757
1.0354643
1.0408179
1.0465521
1.0526806
1.0592143
1.0661599
1.0735183
1.0812823
1.089434
1.0979419
1.1067573
1.1158108
1.1250095
1.1342356
1.1433477
1.1521849
1.1605765
1.168355
1.1753716
1.1815129
1.1867133
1.1909615
1.194299
1.196812
1.1986177
1.1998493
1.2006411
1.2011169
1.2013814
1.2015159
1.2015775
1.2016027
1.2016118
1.2016146
1.2016153
1.2016155
1.2016155
1.2016155
1.2016155
1.2016155
1.2016155
1.2016155
1.2016155
1.2016155
1.2016155
1.2016155
1.0167589
1.0207282
1.0250078
1.0296155
1.0345685
1.0398838
1.0455768
1.0516616
1.0581492
1.0650467
1.0723558
1.0800704
1.0881741
1.0966374
1.1054141
1.1144381
1.1236202
1.1328465
1.1419791
1.1508604
1.159321
1.1671928
1.1743243
1.1805968
1.1859377
1.1903277
1.1938008
1.1964368
1.1983483
1.199666
1.2005238
1.2010469
1.2013428
1.2014961
1.201568
1.2015981
1.2016092
1.2016128
1.2016137
1.201614
1.201614
1.201614
1.201614
1.201614
1.201614
1.201614
1.201614
1.201614
1.201614
1.201614
1.0160434
1.0199864
1.0242375
1.0288142
1.0337337
1.0390128
1.0446672
1.0507107
1.0571548
1.0640069
1.0712693
1.0789368
1.0869945
1.0954146
1.1041535
1.1131477
1.1223117
1.131535
1.1406835
1.1496024
1.158124
1.1660802
1.1733169
1.1797108
1.1851829
1.1897067
1.1933088
1.196063
1.1980771
1.1994793
1.2004027
1.2009735
1.2013014
1.2014746
1.2015575
1.2015931
1.2016065
1.2016109
1.2016122
1.2016125
1.2016125
1.2016125
1.2016125
1.2016125
1.2016125
1.2016125
1.2016125
1.2016125
1.2016125
1.2016125
1.0153748
1.019293
1.0235172
1.0280646
1.0329526
1.0381976
1.0438154
1.04982
1.0562229
1.063032
1.07025
1.0778727
1.0858863
1.0942648
1.1029666
1.1119311
1.1210757
1.1302937
1.1394541
1.1484052
1.1569811
1.1650136
1.1723468
1.1788534
1.1844485
1.1890986
1.1928237
1.1956913
1.1978049
1.1992898
1.2002781
1.2008968
1.2012576
1.2014513
1.201546
1.2015875
1.2016035
1.201609
1.2016105
1.2016109
1.201611
1.201611
1.201611
1.201611
1.201611
1.201611
1.201611
1.201611
1.201611
1.201611
1.0147475
1.0186423
1.0228411
1.0273609
1.032219
1.0374318
1.0430151
1.0489828
1.0553467
1.062115
1.0692908
1.0768707
1.084842
1.0931804
1.1018461
1.110781
1.1199055
1.1291161
1.1382852
1.1472638
1.1558879
1.1639898
1.1714119
1.1780233
1.1837338
1.1885035
1.1923458
1.1953224
1.1975324
1.1990981
1.2001506
1.2008172
1.2012113
1.2014264
1.2015334
1.2015814
1.2016004
1.2016069
1.2016089
1.2016094
1.2016095
1.2016095
1.2016095
1.2016095
1.2016095
1.2016095
1.2016095
1.2016095
1.2016095
1.2016095
1.014157
1.0180297
1.0222043
1.026698
1.0315278
1.0367102
1.0422607
1.0481935
1.0545203
1.0612497
1.0683854
1.0759244
1.0838553
1.0921549
1.1007854
1.1096911
1.118795
1.1279967
1.1371717
1.1461737
1.1548409
1.1630059
1.1705101
1.1772192
1.183038
1.187921
1.1918752
1.1949566
1.1972599
1.1989046
1.2000205
1.2007349
1.2011627
1.2013998
1.2015199
1.2015747
1.2015969
1.2016048
1.2016072
1.2016079
1.201608
1.201608
1.201608
1.201608
1.201608
1.201608
1.201608
1.201608
1.201608
1.201608
1.0135994
1.017451
1.0216028
1.0260717
1.0308747
1.0360281
1.0415475
1.0474471
1.0537387
1.0604311
1.0675284
1.0750284
1.0829205
1.0911827
1.099779
1.1086558
1.1177388
1.1269303
1.1361089
1.145131
1.1538367
1.1620593
1.1696393
1.1764396
1.1823606
1.1873511
1.1914121
1.1945944
1.1969881
1.1987099
1.1998881
1.2006502
1.201112
1.2013716
1.2015053
1.2015675
1.2015932
1.2016026
1.2016055
1.2016063
1.2016065
1.2016065
1.2016065
1.2016065
1.2016065
1.2016065
1.2016065
1.2016065
1.2016065
1.2016065
1.0130714
1.016903
1.0210331
1.0254784
1.0302558
1.0353817
1.0408715
1.0467395
1.0529976
1.0596547
1.0667154
1.0741781
1.0820328
1.090259
1.0988221
1.1076705
1.1167323
1.1259126
1.1350928
1.1441319
1.1528721
1.1611476
1.1687979
1.1756835
1.1817009
1.1867934
1.1909566
1.1942359
1.1967173
1.1985143
1.1997539
1.2005632
1.2010593
1.2013419
1.2014896
1.2015597
1.2015892
1.2016002
1.2016038
1.2016048
1.201605
1.201605
1.201605
1.201605
1.201605
1.201605
1.201605
1.201605
1.201605
1.201605
1.0125702
1.0163828
1.0204921
1.0249149
1.029668
1.0347676
1.0402293
1.0460671
1.0522932
1.0589167
1.0659423
1.0733692
1.081188
1.0893794
1.0979103
1.1067308
1.1157713
1.1249396
1.1341198
1.1431734
1.1519446
1.1602684
1.167984
1.1749497
1.181058
1.1862476
1.1905086
1.1938814
1.1964477
1.1983181
1.199618
1.2004743
1.2010047
1.2013106
1.201473
1.2015513
1.201585
1.2015978
1.201602
1.2016032
1.2016035
1.2016035
1.2016035
1.2016035
1.2016035
1.2016035
1.2016035
1.2016035
1.2016035
1.2016035
1.0120932
1.0158876
1.0199772
1.0243786
1.0291085
1.0341831
1.0396178
1.0454268
1.0516223
1.0582136
1.0652057
1.0725981
1.0803825
1.0885403
1.0970398
1.105833
1.1148523
1.124008
1.1331867
1.1422525
1.1510515
1.1594197
1.1671961
1.1742369
1.1804314
1.1857134
1.1900682
1.193531
1.1961796
1.1981216
1.1994808
1.2003836
1.2009484
1.201278
1.2014554
1.2015423
1.2015804
1.2015952
1.2016002
1.2016016
1.201602
1.201602
1.201602
1.201602
1.201602
1.201602
1.201602
1.201602
1.201602
1.201602
1.0116385
1.0154155
1.0194862
1.0238671
1.0285748
1.0336254
1.0390344
1.0448159
1.0509821
1.0575425
1.0645024
1.0718618
1.079613
1.0877384
1.0962074
1.1049739
1.1139721
1.1231146
1.1322906
1.1413666
1.1501906
1.1585998
1.1664328
1.1735443
1.1798203
1.1851905
1.1896352
1.1931849
1.1959132
1.1979251
1.1993426
1.2002914
1.2008905
1.201244
1.2014368
1.2015327
1.2015755
1.2015924
1.2015983
1.2016
1.2016004
1.2016005
1.2016005
1.2016005
1.2016005
1.2016005
1.2016005
1.2016005
1.2016005
1.2016005
1.0112041
1.0149644
1.019017
1.0233783
1.0280648
1.0330925
1.0384768
1.0442318
1.05037
1.0569008
1.0638298
1.0711575
1.0788767
1.0869706
1.0954101
1.1041504
1.1131276
1.1222566
1.1314289
1.1405133
1.1493598
1.1578067
1.1656927
1.1728708
1.1792242
1.1846786
1.1892095
1.192843
1.1956488
1.1977289
1.1992034
1.2001977
1.2008311
1.2012088
1.2014173
1.2015225
1.2015703
1.2015896
1.2015963
1.2015984
1.2015989
1.201599
1.201599
1.201599
1.201599
1.201599
1.201599
1.201599
1.201599
1.201599
1.0107883
1.0145327
1.018568
1.0229104
1.0275765
1.0325822
1.0379429
1.0436726
1.0497838
1.0562862
1.0631855
1.0704826
1.0781709
1.0862345
1.0946453
1.1033599
1.1123163
1.1214315
1.1305992
1.1396906
1.1485573
1.1570391
1.1649745
1.1722155
1.1786425
1.1841772
1.1887911
1.1925055
1.1953865
1.197533
1.1990636
1.2001028
1.2007703
1.2011723
1.2013968
1.2015117
1.2015648
1.2015865
1.2015943
1.2015967
1.2015974
1.2015975
1.2015975
1.2015975
1.2015975
1.2015975
1.2015975
1.2015975
1.2015975
1.2015975
1.0103897
1.0141189
1.0181374
1.0224619
1.0271084
1.032093
1.0374309
1.0431363
1.0492216
1.0556966
1.0625674
1.069835
1.0774935
1.0855277
1.0939106
1.1026001
1.111536
1.1206371
1.1297995
1.1388964
1.1477814
1.1562954
1.1642772
1.1715775
1.1780744
1.1836861
1.1883797
1.1921723
1.1951262
1.1973376
1.1989232
1.2000069
1.2007083
1.2011347
1.2013755
1.2015003
1.2015589
1.2015833
1.2015923
1.2015951
1.2015958
1.201596
1.201596
1.201596
1.201596
1.201596
1.201596
1.201596
1.201596
1.201596
1.0100071
1.0137215
1.0177241
1.0220311
1.0266588
1.0316231
1.0369392
1.0426212
1.0486816
1.0551303
1.0619735
1.0692127
1.0768424
1.0848482
1.0932039
1.1018688
1.1107844
1.1198713
1.1290277
1.1381289
1.1470304
1.1555743
1.1635995
1.1709561
1.1775196
1.183205
1.1879752
1.1918435
1.1948683
1.197143
1.1987825
1.19991
1.2006451
1.2010959
1.2013533
1.2014884
1.2015527
1.2015799
1.2015901
1.2015934
1.2015943
1.2015945
1.2015945
1.2015945
1.2015945
1.2015945
1.2015945
1.2015945
1.2015945
1.2015945
1.0096392
1.0133394
1.0173266
1.0216169
1.0262266
1.0311713
1.0364663
1.0421258
1.0481622
1.0545855
1.0614022
1.0686139
1.0762157
1.0841939
1.0925232
1.1011642
1.1100597
1.1191324
1.1282822
1.1373866
1.1463029
1.1548745
1.1629406
1.1703504
1.1769774
1.1827334
1.1875775
1.191519
1.1946127
1.1969492
1.1986416
1.1998123
1.2005809
1.2010562
1.2013303
1.2014759
1.2015461
1.2015764
1.2015879
1.2015917
1.2015927
1.201593
1.201593
1.201593
1.201593
1.201593
1.201593
1.201593
1.201593
1.201593
1.0092851
1.0129716
1.016944
1.0212182
1.0258103
1.0307362
1.036011
1.0416488
1.047662
1.0540608
1.0608518
1.068037
1.0756119
1.0835633
1.091867
1.1004845
1.1093602
1.1184185
1.1275613
1.136668
1.1455977
1.1541949
1.1622995
1.1697597
1.1764473
1.1822711
1.1871864
1.1911987
1.1943594
1.1967563
1.1985007
1.1997139
1.2005157
1.2010155
1.2013064
1.2014628
1.2015392
1.2015727
1.2015856
1.2015899
1.2015912
1.2015915
1.2015915
1.2015915
1.2015915
1.2015915
1.2015915
1.2015915
1.2015915
1.2015915
1.0089437
1.0126171
1.0165751
1.0208338
1.0254091
1.0303168
1.0355721
1.0411888
1.0471797
1.0535549
1.0603211
1.0674807
1.0750294
1.0829548
1.0912335
1.099828
1.1086843
1.1177282
1.1268635
1.1359717
1.1449134
1.1535344
1.1616752
1.1691834
1.1759289
1.1818177
1.1868018
1.1908827
1.1941086
1.1965644
1.1983597
1.1996149
1.2004497
1.2009739
1.2012819
1.2014491
1.2015319
1.2015688
1.2015832
1.2015882
1.2015896
1.20159
1.20159
1.20159
1.20159
1.20159
1.20159
1.20159
1.20159
1.20159
1.0086144
1.012275
1.0162192
1.0204628
1.0250219
1.0299121
1.0351484
1.0407449
1.0467142
1.0530665
1.0598087
1.0669434
1.0744669
1.082367
1.0906213
1.0991935
1.1080306
1.1170601
1.1261876
1.1352964
1.1442489
1.1528922
1.1610671
1.1686208
1.1754217
1.181373
1.1864234
1.1905709
1.1938602
1.1963736
1.1982188
1.1995154
1.2003828
1.2009315
1.2012565
1.2014349
1.2015243
1.2015647
1.2015808
1.2015864
1.201588
1.2015884
1.2015885
1.2015885
1.2015886
1.2015886
1.2015886
1.2015886
1.2015886
1.2015886
1.0082962
1.0119445
1.0158753
1.0201044
1.0246478
1.029521
1.0347391
1.040316
1.0462644
1.0525945
1.0593136
1.0664242
1.073923
1.0817987
1.0900293
1.0985795
1.1073977
1.1164128
1.1255323
1.134641
1.1436032
1.1522671
1.1604743
1.1680714
1.1749253
1.1809367
1.1860512
1.1902632
1.1936142
1.1961839
1.1980782
1.1994155
1.2003153
1.2008882
1.2012305
1.2014202
1.2015164
1.2015604
1.2015782
1.2015845
1.2015864
1.2015869
1.201587
1.201587
1.2015871
1.2015871
1.2015871
1.2015871
1.2015871
1.2015871
1.0079885
1.0116249
1.0155427
1.0197578
1.024286
1.0291428
1.0343432
1.0399012
1.0458293
1.0521381
1.0588346
1.0659219
1.0733969
1.0812487
1.0894561
1.0979849
1.1067844
1.1157853
1.1248964
1.1340045
1.1429753
1.1516585
1.1598961
1.1675345
1.1744391
1.1805085
1.185685
1.1899596
1.1933707
1.1959955
1.1979378
1.1993153
1.2002471
1.2008443
1.2012038
1.2014049
1.2015081
1.2015559
1.2015756
1.2015826
1.2015848
1.2015854
1.2015855
1.2015855
1.2015856
1.2015856
1.2015856
1.2015856
1.2015856
1.2015856
1.0076906
1.0113155
1.0152208
1.0194224
1.0239358
1.0287767
1.0339599
1.0394996
1.0454081
1.0516961
1.0583708
1.0654354
1.0728872
1.0807159
1.0889008
1.0974085
1.1061898
1.1151764
1.1242789
1.1333858
1.1423644
1.1510656
1.1593319
1.1670096
1.173963
1.1800882
1.1853245
1.18966
1.1931297
1.1958082
1.1977978
1.1992149
1.2001783
1.2007997
1.2011765
1.2013892
1.2014995
1.2015512
1.2015728
1.2015807
1.2015832
1.2015839
1.201584
1.2015841
1.2015841
1.2015841
1.2015841
1.2015841
1.2015841
1.2015841
1.0074021
1.0110158
1.014909
1.0190973
1.0235965
1.028422
1.0335886
1.0391105
1.045
1.0512678
1.0579214
1.064964
1.0723933
1.0801993
1.0883622
1.0968494
1.1056126
1.1145851
1.1236789
1.1327841
1.1417696
1.1504875
1.158781
1.1664963
1.1734964
1.1796754
1.1849697
1.1893643
1.1928911
1.1956223
1.1976581
1.1991142
1.2001091
1.2007544
1.2011486
1.201373
1.2014905
1.2015463
1.20157
1.2015788
1.2015816
1.2015823
1.2015825
1.2015826
1.2015826
1.2015826
1.2015826
1.2015826
1.2015826
1.2015826
1.0071223
1.0107252
1.0146066
1.0187821
1.0232675
1.028078
1.0332286
1.0387331
1.0446042
1.0508525
1.0574855
1.0645067
1.0719141
1.0796981
1.0878395
1.0963066
1.1050521
1.1140105
1.1230954
1.1321985
1.1411901
1.1499236
1.1582429
1.1659941
1.173039
1.1792699
1.1846204
1.1890724
1.192655
1.1954376
1.197519
1.1990135
1.2000393
1.2007085
1.2011201
1.2013563
1.2014812
1.2015413
1.201567
1.2015768
1.2015799
1.2015808
1.201581
1.2015811
1.2015811
1.2015811
1.2015811
1.2015811
1.2015811
1.2015811
1.0068508
1.0104431
1.0143131
1.0184762
1.0229482
1.0277442
1.0328791
1.0383669
1.0442201
1.0504494
1.0570624
1.0640628
1.0714488
1.0792114
1.0873319
1.0957792
1.1045073
1.1134517
1.1225277
1.1316282
1.1406252
1.1493732
1.157717
1.1655025
1.1725905
1.1788715
1.1842765
1.1887843
1.1924212
1.1952543
1.1973803
1.1989127
1.1999692
1.2006621
1.201091
1.2013391
1.2014716
1.201536
1.201564
1.2015747
1.2015783
1.2015793
1.2015795
1.2015796
1.2015796
1.2015796
1.2015796
1.2015796
1.2015796
1.2015796
1.0065871
1.0101692
1.0140281
1.0181792
1.0226381
1.02742
1.0325397
1.0380112
1.043847
1.0500578
1.0566514
1.0636316
1.0709968
1.0787385
1.0868385
1.0952665
1.1039774
1.1129081
1.1219749
1.1310724
1.1400742
1.1488359
1.1572028
1.1650211
1.1721506
1.1784799
1.1839377
1.1884999
1.1921899
1.1950723
1.1972422
1.1988119
1.1998987
1.2006152
1.2010614
1.2013215
1.2014617
1.2015305
1.2015608
1.2015726
1.2015766
1.2015777
1.201578
1.2015781
1.2015781
1.2015781
1.2015781
1.2015781
1.2015781
1.2015781
1.0063308
1.009903
1.0137511
1.0178905
1.0223366
1.0271049
1.0322098
1.0376655
1.0434844
1.0496772
1.0562519
1.0632124
1.0705574
1.0782787
1.0863586
1.0947678
1.1034618
1.1123787
1.1214363
1.1305306
1.1395365
1.1483109
1.1566999
1.1645495
1.171719
1.1780951
1.1836041
1.1882192
1.191961
1.1948917
1.1971046
1.1987111
1.199828
1.2005678
1.2010314
1.2013035
1.2014514
1.2015248
1.2015576
1.2015705
1.2015749
1.2015762
1.2015765
1.2015766
1.2015766
1.2015766
1.2015766
1.2015766
1.2015766
1.2015766
1.0060816
1.0096441
1.0134817
1.0176097
1.0220435
1.0267984
1.031889
1.0373292
1.0431317
1.0493071
1.0558633
1.0628046
1.0701299
1.0778313
1.0858916
1.0942822
1.1029596
1.1118629
1.1209113
1.1300021
1.1390115
1.1477978
1.1562077
1.1640874
1.1712953
1.1777166
1.1832753
1.1879419
1.1917343
1.1947125
1.1969677
1.1986103
1.1997569
1.20052
1.2010008
1.2012851
1.2014409
1.201519
1.2015542
1.2015683
1.2015732
1.2015746
1.201575
1.201575
1.2015751
1.2015751
1.2015751
1.2015751
1.2015751
1.2015751
1.0058391
1.0093922
1.0132195
1.0173364
1.0217582
1.0265001
1.0315768
1.037002
1.0427884
1.0489468
1.055485
1.0624076
1.0697137
1.0773956
1.0854369
1.0938093
1.1024703
1.1113602
1.1203992
1.1294862
1.1384987
1.147296
1.1557259
1.1636344
1.1708793
1.1773444
1.1829514
1.1876682
1.1915101
1.1945346
1.1968314
1.1985097
1.1996857
1.2004718
1.2009699
1.2012662
1.20143
1.2015129
1.2015507
1.201566
1.2015714
1.201573
1.2015735
1.2015735
1.2015736
1.2015736
1.2015736
1.2015736
1.2015736
1.2015736
1.0056028
1.0091468
1.0129641
1.0170702
1.0214804
1.0262097
1.0312727
1.0366833
1.0424541
1.0485959
1.0551167
1.062021
1.0693083
1.0769712
1.0849937
1.0933483
1.1019933
1.1108698
1.1198995
1.1289824
1.1379975
1.1468052
1.155254
1.1631901
1.1704707
1.1769782
1.1826321
1.1873978
1.1912881
1.194358
1.1966958
1.1984093
1.1996142
1.2004232
1.2009385
1.201247
1.2014189
1.2015066
1.2015471
1.2015637
1.2015697
1.2015715
1.2015719
1.201572
1.2015721
1.2015721
1.2015721
1.2015721
1.2015721
1.2015721
1.0053727
1.0089077
1.0127154
1.0168109
1.0212097
1.0259266
1.0309764
1.0363728
1.0421284
1.0482539
1.0547577
1.0616442
1.0689131
1.0765575
1.0845617
1.0928988
1.1015279
1.1103913
1.1194116
1.1284903
1.1375075
1.1463249
1.1547916
1.1627543
1.1700694
1.1766179
1.1823174
1.1871308
1.1910683
1.1941829
1.1965608
1.198309
1.1995426
1.2003743
1.2009067
1.2012275
1.2014074
1.2015002
1.2015434
1.2015614
1.2015679
1.2015699
1.2015704
1.2015705
1.2015706
1.2015706
1.2015706
1.2015706
1.2015706
1.2015706
1.0051483
1.0086746
1.0124728
1.0165581
1.0209457
1.0256507
1.0306875
1.03607
1.0418108
1.0479206
1.0544077
1.0612768
1.0685278
1.0761541
1.0841403
1.0924603
1.1010738
1.1099241
1.118935
1.1280092
1.1370282
1.1458546
1.1543385
1.1623266
1.169675
1.1762632
1.1820071
1.1868671
1.1908508
1.1940091
1.1964265
1.1982089
1.1994709
1.2003251
1.2008745
1.2012075
1.2013957
1.2014935
1.2015396
1.201559
1.2015661
1.2015683
1.2015689
1.201569
1.2015691
1.2015691
1.2015691
1.2015691
1.2015691
1.2015691
1.0049294
1.0084472
1.0122362
1.0163115
1.0206883
1.0253815
1.0304057
1.0357747
1.0415009
1.0475953
1.0540662
1.0609183
1.0681519
1.0757604
1.083729
1.0920321
1.1006303
1.1094677
1.1184693
1.1275388
1.1365591
1.145394
1.1538942
1.1619067
1.1692872
1.1759141
1.1817011
1.1866065
1.1906355
1.1938367
1.196293
1.1981091
1.1993991
1.2002756
1.200842
1.2011873
1.2013837
1.2014867
1.2015357
1.2015565
1.2015642
1.2015667
1.2015674
1.2015675
1.2015676
1.2015676
1.2015676
1.2015676
1.2015676
1.2015676
1.0047158
1.0082253
1.0120052
1.0160708
1.020437
1.0251188
1.0301307
1.0354864
1.0411985
1.0472779
1.0537329
1.0605684
1.0677848
1.075376
1.0833274
1.091614
1.1001971
1.1090218
1.1180139
1.1270786
1.1360999
1.1449427
1.1534585
1.1614945
1.168906
1.1755703
1.1813994
1.1863491
1.1904223
1.1936656
1.1961601
1.1980095
1.1993272
1.2002259
1.2008092
1.2011667
1.2013714
1.2014797
1.2015316
1.201554
1.2015624
1.2015651
1.2015659
1.201566
1.2015661
1.2015661
1.2015661
1.2015661
1.2015661
1.2015661
1.0045071
1.0080085
1.0117797
1.0158357
1.0201916
1.0248622
1.0298621
1.0352049
1.0409032
1.0469679
1.0534074
1.0602267
1.0674264
1.0750005
1.0829351
1.0912055
1.0997737
1.1085857
1.1175685
1.1266282
1.1356502
1.1445003
1.1530309
1.1610896
1.1685311
1.1752318
1.1811017
1.1860947
1.1902113
1.1934959
1.196028
1.1979101
1.1992552
1.2001759
1.2007761
1.2011458
1.2013589
1.2014724
1.2015275
1.2015514
1.2015605
1.2015635
1.2015643
1.2015645
1.2015646
1.2015646
1.2015646
1.2015646
1.2015646
1.2015646
1.0043033
1.0077968
1.0115594
1.015606
1.0199518
1.0246116
1.0295997
1.0349299
1.0406147
1.046665
1.0530894
1.0598929
1.0670761
1.0746336
1.0825516
1.0908061
1.0993597
1.1081592
1.1171326
1.1261873
1.1352096
1.1440666
1.1526113
1.1606917
1.1681623
1.1748982
1.180808
1.1858432
1.1900023
1.1933276
1.1958967
1.1978111
1.1991833
1.2001257
1.2007426
1.2011246
1.2013462
1.201465
1.2015232
1.2015487
1.2015586
1.2015619
1.2015628
1.201563
1.2015631
1.2015631
1.2015631
1.2015631
1.2015631
1.2015631
1.0041041
1.0075898
1.011344
1.0153816
1.0197175
1.0243666
1.0293432
1.0346611
1.0403327
1.046369
1.0527785
1.0595665
1.0667337
1.0742749
1.0821767
1.0904155
1.0989547
1.1077418
1.1167059
1.1257554
1.1347778
1.1436411
1.1521994
1.1603007
1.1677994
1.1745696
1.1805182
1.1855947
1.1897954
1.1931605
1.195766
1.1977124
1.1991113
1.2000754
1.2007089
1.2011031
1.2013331
1.2014575
1.2015188
1.201546
1.2015566
1.2015602
1.2015613
1.2015615
1.2015616
1.2015616
1.2015616
1.2015616
1.2015616
1.2015616
1.0039093
1.0073875
1.0111334
1.0151621
1.0194884
1.024127
1.0290925
1.0343982
1.040057
1.0460795
1.0524745
1.0592473
1.0663988
1.073924
1.0818099
1.0900333
1.0985583
1.1073332
1.116288
1.1253322
1.1343544
1.1432237
1.1517949
1.1599164
1.1674423
1.1742457
1.1802322
1.1853491
1.1895906
1.1929948
1.1956362
1.1976139
1.1990394
1.2000249
1.200675
1.2010814
1.2013199
1.2014497
1.2015143
1.2015432
1.2015547
1.2015586
1.2015597
1.20156
1.2015601
1.2015601
1.2015601
1.2015601
1.2015601
1.2015601
1.0037187
1.0071895
1.0109274
1.0149474
1.0192642
1.0238927
1.0288471
1.0341411
1.0397872
1.0457963
1.0521771
1.0589351
1.0660712
1.0735807
1.081451
1.0896593
1.0981703
1.1069331
1.1158786
1.1249174
1.1339392
1.142814
1.1513975
1.1595384
1.1670907
1.1739265
1.1799498
1.1851063
1.1893877
1.1928304
1.195507
1.1975159
1.1989675
1.1999742
1.2006408
1.2010594
1.2013064
1.2014418
1.2015097
1.2015404
1.2015527
1.2015569
1.2015582
1.2015585
1.2015586
1.2015586
1.2015586
1.2015586
1.2015586
1.2015586
1.0035322
1.0069957
1.0107258
1.0147372
1.0190448
1.0236633
1.028607
1.0338894
1.0395232
1.0455192
1.0518861
1.0586294
1.0657505
1.0732446