/*--------------------------------*- C++ -*----------------------------------*\
| =========                 |                                                 |
| \\      /  F ield         | OpenFOAM: The Open Source CFD Toolbox           |
|  \\    /   O peration     | Version:  3.0.1                                 |
|   \\  /    A nd           | Web:      www.OpenFOAM.org                      |
|    \\/     M anipulation  |                                                 |
\*---------------------------------------------------------------------------*/
FoamFile
{
    version     2.0;
    format      ascii;
    class       volScalarField;
    location    "9000/fluid";
    object      T;
}
// * * * * * * * * * * * * * * * * * * * * * * * * * * * * * * * * * * * * * //

dimensions      [0 0 0 1 0 0 0];

internalField   nonuniform List<scalar> 
4000
(
325.94479
314.06082
305.70854
300.38319
297.23238
295.47986
294.55662
294.09406
293.87322
293.77268
293.72904
293.711
293.70391
293.70126
293.70031
293.7
293.6999
293.69987
293.69986
293.69986
293.69986
293.69985
293.69985
293.69986
293.69986
293.69986
293.69986
293.69986
293.69986
293.69986
293.69986
293.69986
293.69986
293.69986
293.69986
293.69986
293.69986
293.69986
293.69986
293.69987
329.67734
319.92293
311.66743
305.25273
300.68705
297.68911
295.85692
294.80694
294.23976
293.95008
293.80999
293.74582
293.718
293.70658
293.70215
293.70053
293.69997
293.69979
293.69973
293.69971
293.69971
293.69971
293.69971
293.69971
293.69971
293.69971
293.69971
293.69971
293.69971
293.69971
293.69971
293.69971
293.69971
293.69971
293.69971
293.69971
293.69971
293.69971
293.69972
293.69972
331.88059
322.88212
314.99922
308.45276
303.37172
299.70089
297.22747
295.66668
294.74063
294.22253
293.9488
293.81215
293.74772
293.71904
293.707
293.70225
293.70047
293.69985
293.69965
293.69959
293.69957
293.69956
293.69956
293.69956
293.69956
293.69956
293.69956
293.69956
293.69956
293.69956
293.69956
293.69956
293.69956
293.69956
293.69956
293.69956
293.69957
293.69957
293.69957
293.69957
333.62664
324.96093
317.28714
310.74206
305.44198
301.39908
298.50086
296.54659
295.30458
294.55934
294.13677
293.91032
293.79571
293.74098
293.71635
293.70592
293.70177
293.70022
293.69967
293.69949
293.69944
293.69942
293.69942
293.69942
293.69942
293.69942
293.69942
293.69942
293.69942
293.69942
293.69942
293.69942
293.69942
293.69942
293.69942
293.69942
293.69942
293.69942
293.69942
293.69943
335.06761
326.59563
319.04869
312.51908
307.10241
302.83069
299.64135
297.38917
295.8841
294.93151
294.36035
294.03606
293.8619
293.77357
293.73133
293.71231
293.70426
293.70107
293.69988
293.69946
293.69933
293.69929
293.69927
293.69927
293.69927
293.69927
293.69927
293.69927
293.69927
293.69927
293.69927
293.69927
293.69927
293.69927
293.69927
293.69927
293.69927
293.69928
293.69928
293.69928
336.27245
327.9382
320.48238
313.97025
308.4818
304.05551
300.65602
298.17436
296.45281
295.31769
294.60641
294.18317
293.94437
293.81685
293.75256
293.722
293.70835
293.70262
293.70037
293.69954
293.69925
293.69916
293.69913
293.69913
293.69912
293.69912
293.69912
293.69912
293.69912
293.69912
293.69912
293.69912
293.69912
293.69913
293.69913
293.69913
293.69913
293.69913
293.69913
293.69913
337.29001
329.067
321.68608
315.1937
309.65833
305.12079
301.56247
298.89933
296.9984
295.7044
294.8646
294.34545
294.04026
293.87003
293.78016
293.73538
293.71436
293.7051
293.70126
293.69978
293.69924
293.69906
293.699
293.69898
293.69898
293.69898
293.69898
293.69898
293.69898
293.69898
293.69898
293.69898
293.69898
293.69898
293.69898
293.69898
293.69898
293.69898
293.69898
293.69899
338.15786
330.03136
322.71707
316.2472
310.68114
306.06047
302.37792
299.5677
297.51621
296.08382
295.12753
294.51761
294.14659
293.93183
293.81388
293.75258
293.72253
293.70867
293.70267
293.70024
293.69932
293.69899
293.69888
293.69884
293.69884
293.69883
293.69883
293.69883
293.69883
293.69883
293.69883
293.69883
293.69883
293.69883
293.69883
293.69883
293.69884
293.69884
293.69884
293.69884
338.90541
330.86577
323.61318
317.16833
311.5831
306.89896
303.11684
300.18498
298.00538
296.4518
295.39029
294.69553
294.26062
294.00082
293.85316
293.77356
293.733
293.71351
293.70471
293.70099
293.69951
293.69896
293.69877
293.69871
293.69869
293.69869
293.69869
293.69869
293.69869
293.69869
293.69869
293.69869
293.69869
293.69869
293.69869
293.69869
293.69869
293.69869
293.69869
293.69869
339.55567
331.5957
324.40122
317.98332
312.38737
307.65422
303.7909
300.7568
298.46685
296.80638
295.64972
294.87613
294.38001
294.07558
293.89736
293.79814
293.74579
293.71971
293.70748
293.70208
293.69986
293.699
293.69869
293.69859
293.69855
293.69854
293.69854
293.69854
293.69854
293.69854
293.69854
293.69854
293.69854
293.69854
293.69854
293.69854
293.69854
293.69854
293.69855
293.69855
340.1267
332.24047
325.10108
318.71143
313.11107
308.33987
304.40946
301.28832
298.90231
297.14686
295.90391
295.0572
294.5029
294.15482
293.94575
293.82601
293.76087
293.72733
293.71103
293.70359
293.7004
293.69912
293.69864
293.69847
293.69842
293.6984
293.69839
293.69839
293.69839
293.69839
293.69839
293.69839
293.69839
293.69839
293.69839
293.6984
293.6984
293.6984
293.6984
293.6984
340.63266
332.81505
325.728
319.36728
313.76726
308.96647
304.98009
301.78408
299.31368
297.47326
296.15172
295.2372
294.6278
294.23742
293.99763
293.85684
293.77813
293.73638
293.71544
293.70555
293.70117
293.69934
293.69863
293.69837
293.69829
293.69826
293.69825
293.69825
293.69825
293.69825
293.69825
293.69825
293.69825
293.69825
293.69825
293.69825
293.69825
293.69825
293.69825
293.69825
341.08474
333.33118
326.29385
319.9623
314.36614
309.54242
305.50897
302.24801
299.70288
297.78597
296.39259
295.41507
294.7536
294.32244
294.05236
293.89027
293.79742
293.74683
293.72073
293.70802
293.70219
293.69969
293.69868
293.6983
293.69816
293.69812
293.69811
293.6981
293.6981
293.6981
293.6981
293.6981
293.6981
293.6981
293.6981
293.6981
293.6981
293.69811
293.69811
293.69811
341.49181
333.79817
326.80805
320.50555
314.91589
310.0745
306.00121
302.68348
300.07175
298.08561
296.62627
295.59011
294.87943
294.4091
294.10936
293.92595
293.81857
293.75865
293.72691
293.71101
293.7035
293.70017
293.69879
293.69825
293.69805
293.69798
293.69796
293.69796
293.69796
293.69795
293.69795
293.69796
293.69796
293.69796
293.69796
293.69796
293.69796
293.69796
293.69796
293.69796
341.86095
334.22347
327.27819
321.00434
315.42312
310.56828
306.46108
303.09343
300.42199
298.37285
296.85272
295.76184
295.00467
294.49678
294.16814
293.96354
293.8414
293.77175
293.73397
293.71455
293.70512
293.70082
293.69897
293.69823
293.69795
293.69785
293.69782
293.69781
293.69781
293.69781
293.69781
293.69781
293.69781
293.69781
293.69781
293.69781
293.69781
293.69781
293.69781
293.69781
342.19785
334.61311
327.7104
321.46462
315.89328
311.02836
306.89218
303.48038
300.75513
298.64842
297.07207
295.93001
295.12884
294.58498
294.22826
294.00273
293.86573
293.78606
293.74189
293.71864
293.70707
293.70164
293.69924
293.69825
293.69787
293.69773
293.69768
293.69767
293.69766
293.69766
293.69766
293.69766
293.69766
293.69766
293.69766
293.69767
293.69767
293.69767
293.69767
293.69767
342.50713
334.97201
328.10973
321.89133
316.33089
311.45863
307.29756
303.84653
301.07257
298.91302
297.2845
296.09446
295.25162
294.67331
294.28936
294.04325
293.89137
293.80148
293.75064
293.7233
293.70936
293.70265
293.69961
293.69832
293.69781
293.69761
293.69755
293.69753
293.69752
293.69752
293.69752
293.69752
293.69752
293.69752
293.69752
293.69752
293.69752
293.69752
293.69752
293.69752
342.79256
335.30419
328.48035
322.28855
316.73973
311.86235
307.67986
304.1938
301.37555
299.16734
297.49026
296.25512
295.37275
294.76144
294.35114
294.08484
293.91816
293.81791
293.76018
293.7285
293.712
293.70387
293.70009
293.69844
293.69777
293.69751
293.69742
293.69738
293.69737
293.69737
293.69737
293.69737
293.69737
293.69737
293.69737
293.69737
293.69737
293.69738
293.69738
293.69738
343.05724
335.61302
328.82572
322.65972
317.12301
312.24232
308.04134
304.52388
301.6652
299.41203
297.68962
296.412
295.49208
294.84915
294.41334
294.12729
293.94594
293.83526
293.77047
293.73425
293.71499
293.70529
293.70068
293.69862
293.69775
293.69741
293.69729
293.69724
293.69723
293.69723
293.69722
293.69722
293.69722
293.69723
293.69723
293.69723
293.69723
293.69723
293.69723
293.69723
343.30373
335.90127
329.14877
323.00774
317.48345
312.60095
308.38395
304.83825
301.94255
299.6477
297.88285
296.56514
295.60949
294.93624
294.47576
294.17041
293.97456
293.85343
293.78144
293.74051
293.71834
293.70694
293.7014
293.69886
293.69777
293.69733
293.69717
293.69711
293.69709
293.69708
293.69708
293.69708
293.69708
293.69708
293.69708
293.69708
293.69708
293.69708
293.69708
293.69708
343.53419
336.17129
329.45196
323.33508
317.82338
312.94029
308.70941
305.13821
302.20849
299.8749
298.07024
296.71461
295.72492
295.02256
294.53822
294.21405
294.00391
293.87234
293.79306
293.74728
293.72204
293.70881
293.70225
293.69918
293.69783
293.69727
293.69705
293.69697
293.69694
293.69694
293.69693
293.69693
293.69693
293.69693
293.69693
293.69693
293.69694
293.69694
293.69694
293.69694
343.75041
336.42508
329.73739
323.64385
318.14483
313.26214
309.01921
305.42492
302.46386
300.09416
298.25206
296.8605
295.83833
295.10801
294.60058
294.25806
294.03385
293.8919
293.80527
293.75452
293.72608
293.71091
293.70324
293.69957
293.69792
293.69722
293.69694
293.69684
293.6968
293.69679
293.69679
293.69679
293.69679
293.69679
293.69679
293.69679
293.69679
293.69679
293.69679
293.69679
343.95393
336.66433
330.00687
323.93588
318.44953
313.56809
309.31468
305.69943
302.70941
300.30596
298.42858
297.00291
295.94971
295.19251
294.66273
294.30232
294.06428
293.91203
293.81803
293.7622
293.73046
293.71324
293.70437
293.70004
293.69805
293.69719
293.69684
293.69671
293.69666
293.69665
293.69664
293.69664
293.69664
293.69664
293.69664
293.69664
293.69664
293.69664
293.69664
293.69665
344.14606
336.89048
330.26194
324.21275
318.739
313.85949
309.59699
305.96265
302.94579
300.51075
298.60007
297.14197
296.05907
295.27599
294.72458
294.34673
294.09512
293.93267
293.83127
293.77031
293.73516
293.71579
293.70564
293.7006
293.69823
293.69719
293.69676
293.69659
293.69652
293.6965
293.6965
293.69649
293.69649
293.69649
293.6965
293.6965
293.6965
293.6965
293.6965
293.6965
344.3279
337.1048
330.50395
324.47582
319.01457
314.13757
309.86718
306.2154
303.17364
300.70895
298.76675
297.27777
296.16643
295.35842
294.78605
294.39121
294.12628
293.95374
293.84496
293.77881
293.74017
293.71856
293.70706
293.70124
293.69846
293.69721
293.69668
293.69647
293.69639
293.69636
293.69635
293.69635
293.69635
293.69635
293.69635
293.69635
293.69635
293.69635
293.69635
293.69635
344.50044
337.30837
330.73407
324.72631
319.27742
314.4034
310.12616
306.45844
303.39349
300.90093
298.92888
297.41044
296.27181
295.43976
294.84708
294.43568
294.1577
293.97518
293.85905
293.78768
293.74547
293.72156
293.70863
293.70198
293.69875
293.69726
293.69662
293.69636
293.69625
293.69622
293.69621
293.6962
293.6962
293.6962
293.6962
293.6962
293.69621
293.69621
293.69621
293.69621
344.66451
337.50214
330.95334
324.96527
319.52858
314.65794
310.37476
306.69244
303.60587
301.08704
299.08666
297.54009
296.37526
295.52
294.90762
294.48008
294.1893
293.99695
293.8735
293.79688
293.75106
293.72476
293.71034
293.70281
293.69908
293.69734
293.69657
293.69625
293.69612
293.69608
293.69606
293.69606
293.69606
293.69606
293.69606
293.69606
293.69606
293.69606
293.69606
293.69606
344.82085
337.68695
331.16264
325.19364
319.76897
314.90203
310.61374
306.91799
303.81122
301.26762
299.2403
297.66683
296.47681
295.59914
294.96764
294.52436
294.22103
294.01899
293.88828
293.8064
293.75691
293.72817
293.7122
293.70373
293.69947
293.69745
293.69654
293.69615
293.696
293.69594
293.69592
293.69591
293.69591
293.69591
293.69591
293.69591
293.69591
293.69591
293.69591
293.69591
344.9701
337.86352
331.36279
325.41224
319.9994
315.13644
310.84375
307.13566
304.00998
301.44296
299.39
297.79078
296.57651
295.67718
295.02711
294.56848
294.25286
294.04125
293.90334
293.81621
293.76302
293.73178
293.7142
293.70475
293.69992
293.69759
293.69652
293.69606
293.69587
293.6958
293.69578
293.69577
293.69576
293.69576
293.69577
293.69577
293.69577
293.69577
293.69577
293.69577
345.11284
338.0325
331.55449
325.62182
320.22061
315.36185
311.0654
307.34593
304.20252
301.61334
299.53595
297.91203
296.67441
295.75411
295.086
294.6124
294.28472
294.06371
293.91866
293.82627
293.76936
293.73558
293.71634
293.70587
293.70044
293.69777
293.69652
293.69598
293.69575
293.69567
293.69563
293.69562
293.69562
293.69562
293.69562
293.69562
293.69562
293.69562
293.69562
293.69562
345.24956
338.19449
331.73837
325.82304
320.43326
315.57889
311.27923
307.54927
304.38922
301.77902
299.67831
298.0307
296.77056
295.82996
295.1443
294.65608
294.3166
294.08631
293.93419
293.83658
293.77593
293.73957
293.71862
293.70708
293.70101
293.69798
293.69655
293.69591
293.69564
293.69553
293.69549
293.69548
293.69547
293.69547
293.69547
293.69547
293.69547
293.69548
293.69548
293.69548
345.38072
338.34998
331.915
326.01649
320.63793
315.7881
311.48575
307.74609
304.57038
301.94024
299.81724
298.14687
296.865
295.90472
295.20201
294.69951
294.34845
294.10904
293.94993
293.84711
293.7827
293.74373
293.72104
293.70838
293.70164
293.69823
293.69659
293.69585
293.69553
293.6954
293.69535
293.69533
293.69533
293.69533
293.69533
293.69533
293.69533
293.69533
293.69533
293.69533
345.50672
338.49944
332.08488
326.2027
320.83516
315.99
311.6854
307.93677
304.74631
302.09722
299.95291
298.26065
296.95779
295.97843
295.2591
294.74266
294.38025
294.13187
293.96584
293.85784
293.78966
293.74805
293.72359
293.70978
293.70234
293.69852
293.69666
293.6958
293.69543
293.69527
293.69521
293.69519
293.69518
293.69518
293.69518
293.69518
293.69518
293.69518
293.69518
293.69518
345.62792
338.6433
332.24849
326.38216
321.02544
316.18503
311.8786
308.12166
304.9173
302.25017
300.08545
298.37212
297.04897
296.05109
295.31558
294.78552
294.41198
294.15476
293.98189
293.86874
293.79681
293.75254
293.72626
293.71128
293.7031
293.69885
293.69675
293.69576
293.69533
293.69515
293.69507
293.69505
293.69504
293.69504
293.69504
293.69504
293.69504
293.69504
293.69504
293.69504
345.74464
338.78191
332.40622
326.55531
321.20919
316.37363
312.06572
308.30108
305.08359
302.39928
300.21499
298.48138
297.13859
296.12272
295.37146
294.82807
294.44362
294.17769
293.99807
293.87981
293.80412
293.75717
293.72906
293.71286
293.70392
293.69922
293.69686
293.69574
293.69524
293.69502
293.69494
293.6949
293.69489
293.69489
293.69489
293.69489
293.69489
293.69489
293.69489
293.69489
345.85719
338.91563
332.55846
326.72254
321.38683
316.55618
312.24712
308.47533
305.24543
302.54473
300.34167
298.58849
297.22669
296.19335
295.42672
294.8703
294.47514
294.20065
294.01435
293.89102
293.81158
293.76195
293.73197
293.71454
293.70481
293.69963
293.697
293.69573
293.69515
293.6949
293.6948
293.69476
293.69475
293.69474
293.69474
293.69474
293.69474
293.69474
293.69475
293.69475
345.96582
339.04476
332.70555
326.88421
321.55872
316.73302
312.4231
308.64468
305.40304
302.68669
300.4656
298.69354
297.31333
296.26299
295.48137
294.9122
294.50654
294.22362
294.03073
293.90237
293.81919
293.76686
293.735
293.7163
293.70576
293.70008
293.69716
293.69574
293.69508
293.69479
293.69467
293.69462
293.6946
293.6946
293.6946
293.6946
293.6946
293.6946
293.6946
293.6946
346.07079
339.16959
332.8478
327.04065
321.72519
316.90447
312.59397
308.80938
305.55661
302.82532
300.5869
298.79661
297.39854
296.33167
295.53542
294.95377
294.53779
294.24658
294.04718
293.91383
293.82693
293.77189
293.73813
293.71815
293.70677
293.70058
293.69735
293.69576
293.69501
293.69468
293.69454
293.69448
293.69446
293.69445
293.69445
293.69445
293.69445
293.69445
293.69445
293.69445
346.1723
339.29036
332.98549
327.19217
321.88655
317.07084
312.75999
308.96967
305.70636
302.96076
300.70567
298.89776
297.48237
296.39941
295.58887
294.99501
294.5689
294.26952
294.06369
293.9254
293.83479
293.77704
293.74137
293.72008
293.70785
293.70111
293.69757
293.6958
293.69495
293.69457
293.69441
293.69434
293.69432
293.69431
293.69431
293.69431
293.69431
293.69431
293.69431
293.69431
346.27057
339.40732
333.11889
327.33905
322.04308
317.23239
312.92141
309.12577
305.85244
303.09316
300.82201
298.99706
297.56486
296.46622
295.64173
295.0359
294.59985
294.29242
294.08024
293.93705
293.84276
293.78231
293.74471
293.72209
293.70898
293.70169
293.69782
293.69585
293.6949
293.69447
293.69428
293.6942
293.69417
293.69416
293.69416
293.69416
293.69416
293.69416
293.69416
293.69416
346.36577
339.52068
333.24823
327.48153
322.19504
317.38938
313.07847
309.27787
305.99503
303.22263
300.93602
299.09458
297.64604
296.53214
295.694
295.07645
294.63063
294.31528
294.09683
293.94879
293.85083
293.78768
293.74814
293.72418
293.71017
293.70231
293.69809
293.69592
293.69486
293.69437
293.69416
293.69407
293.69403
293.69402
293.69401
293.69401
293.69401
293.69401
293.69402
293.69402
346.45808
339.63064
333.37374
327.61986
322.34267
317.54205
313.23138
309.42617
306.13428
303.3493
301.04778
299.19038
297.72597
296.59717
295.74571
295.11666
294.66124
294.33809
294.11344
293.9606
293.85899
293.79314
293.75166
293.72634
293.71143
293.70298
293.69839
293.69601
293.69483
293.69428
293.69404
293.69393
293.69389
293.69387
293.69387
293.69387
293.69387
293.69387
293.69387
293.69387
346.54766
339.73737
333.49561
327.75426
322.4862
317.6906
313.38035
309.57084
306.27034
303.47329
301.15739
299.28451
297.80467
296.66135
295.79684
295.15652
294.69167
294.36083
294.13007
293.97247
293.86724
293.79869
293.75526
293.72858
293.71273
293.70368
293.69872
293.69612
293.69482
293.6942
293.69392
293.6938
293.69375
293.69373
293.69372
293.69372
293.69372
293.69372
293.69372
293.69372
346.63465
339.84106
333.61405
327.88492
322.62583
317.83523
313.52554
309.71204
306.40335
303.59471
301.26491
299.37703
297.88218
296.72469
295.84742
295.19604
294.72191
294.3835
294.1467
293.98439
293.87556
293.80433
293.75895
293.73088
293.7141
293.70443
293.69907
293.69624
293.69481
293.69412
293.6938
293.69367
293.69361
293.69359
293.69358
293.69358
293.69358
293.69358
293.69358
293.69358
346.71918
339.94185
333.72922
328.01203
322.76175
317.97615
313.66715
309.84992
306.53342
303.71365
301.37043
299.468
297.95854
296.78721
295.89745
295.23522
294.75197
294.40609
294.16333
293.99635
293.88395
293.81005
293.76271
293.73326
293.71552
293.70521
293.69946
293.69638
293.69481
293.69405
293.69369
293.69354
293.69347
293.69344
293.69343
293.69343
293.69343
293.69343
293.69343
293.69343
346.80138
340.03989
333.84128
328.13576
322.89414
318.11351
313.80534
309.98464
306.6607
303.83021
301.47401
299.55747
298.03377
296.84893
295.94693
295.27406
294.78184
294.42861
294.17995
294.00835
293.89241
293.81584
293.76655
293.7357
293.71699
293.70604
293.69987
293.69655
293.69483
293.69398
293.69358
293.69341
293.69333
293.6933
293.69329
293.69329
293.69328
293.69328
293.69329
293.69329
346.88136
340.13532
333.95039
328.25629
323.02317
318.24749
313.94024
310.11632
306.78527
303.94448
301.57574
299.64548
298.10791
296.90987
295.99589
295.31257
294.81152
294.45103
294.19655
294.02038
293.90092
293.8217
293.77045
293.73819
293.71851
293.70691
293.70032
293.69673
293.69485
293.69392
293.69348
293.69328
293.69319
293.69316
293.69315
293.69314
293.69314
293.69314
293.69314
293.69314
346.95923
340.22826
334.05669
328.37375
323.14898
318.37822
314.07202
310.2451
306.90727
304.05654
301.67566
299.73208
298.181
296.97005
296.04433
295.35074
294.841
294.47336
294.21313
294.03244
293.90948
293.82762
293.77442
293.74075
293.72009
293.70781
293.70079
293.69693
293.69489
293.69387
293.69338
293.69316
293.69306
293.69302
293.693
293.693
293.69299
293.69299
293.69299
293.69299
347.03509
340.31882
334.1603
328.48828
323.27173
318.50587
314.20079
310.37108
307.02677
304.16648
301.77384
299.81731
298.25305
297.02948
296.09226
295.38858
294.87029
294.4956
294.22969
294.04451
293.91808
293.8336
293.77844
293.74337
293.72171
293.70876
293.70129
293.69715
293.69495
293.69383
293.69328
293.69303
293.69292
293.69288
293.69286
293.69285
293.69285
293.69285
293.69285
293.69285
347.10903
340.40712
334.26134
328.60003
323.39155
318.63055
314.32669
310.49439
307.14388
304.27438
301.87034
299.90122
298.3241
297.08819
296.13968
295.42609
294.89938
294.51773
294.24621
294.05659
293.92673
293.83963
293.78253
293.74604
293.72337
293.70974
293.70181
293.69739
293.69501
293.69379
293.69319
293.69291
293.69279
293.69273
293.69271
293.6927
293.6927
293.6927
293.6927
293.6927
347.18114
340.49325
334.35994
328.70911
323.50856
318.7524
314.44983
310.61512
307.25869
304.38029
301.96521
299.98384
298.39418
297.14619
296.18661
295.46329
294.92828
294.53977
294.2627
294.06869
293.93541
293.84571
293.78667
293.74876
293.72509
293.71075
293.70237
293.69764
293.69509
293.69376
293.69311
293.6928
293.69266
293.69259
293.69257
293.69256
293.69256
293.69256
293.69256
293.69256
347.2515
340.57732
334.4562
328.81563
323.62289
318.87153
314.57033
310.73338
307.37128
304.4843
302.05851
300.06522
298.46331
297.2035
296.23306
295.50016
294.95699
294.5617
294.27914
294.08078
293.94412
293.85183
293.79086
293.75153
293.72684
293.71181
293.70295
293.69792
293.69518
293.69374
293.69303
293.69268
293.69252
293.69246
293.69243
293.69242
293.69241
293.69241
293.69241
293.69241
347.32019
340.65941
334.55021
328.91971
323.73465
318.98805
314.68828
310.84926
307.48174
304.58647
302.15029
300.14539
298.53152
297.26013
296.27904
295.53671
294.9855
294.58353
294.29555
294.09288
293.95286
293.858
293.79509
293.75435
293.72864
293.7129
293.70356
293.69822
293.69528
293.69373
293.69295
293.69257
293.69239
293.69232
293.69228
293.69227
293.69227
293.69226
293.69226
293.69226
347.38727
340.7396
334.64208
329.02144
323.84394
319.10207
314.80379
310.96285
307.59013
304.68686
302.2406
300.22438
298.59883
297.3161
296.32455
295.57296
295.01381
294.60524
294.3119
294.10497
293.96162
293.86421
293.79937
293.75721
293.73048
293.71402
293.70419
293.69854
293.6954
293.69373
293.69288
293.69246
293.69227
293.69218
293.69214
293.69213
293.69212
293.69212
293.69212
293.69212
347.45281
340.81797
334.73189
329.12092
323.95086
319.21368
314.91695
311.07423
307.69654
304.78553
302.32947
300.30223
298.66527
297.37143
296.3696
295.6089
295.04194
294.62685
294.32821
294.11706
293.9704
293.87045
293.8037
293.76011
293.73236
293.71517
293.70486
293.69887
293.69553
293.69374
293.69281
293.69236
293.69214
293.69204
293.692
293.69198
293.69198
293.69197
293.69197
293.69197
347.51688
340.8946
334.81972
329.21825
324.0555
319.32298
315.02785
311.18349
307.80102
304.88254
302.41696
300.37898
298.73085
297.42613
296.41421
295.64454
295.06987
294.64835
294.34447
294.12913
293.9792
293.87672
293.80806
293.76306
293.73427
293.71636
293.70554
293.69923
293.69568
293.69375
293.69275
293.69225
293.69202
293.69191
293.69186
293.69184
293.69183
293.69183
293.69183
293.69183
347.57954
340.96956
334.90565
329.3135
324.15796
319.43005
315.13656
311.29069
307.90365
304.97793
302.50311
300.45465
298.7956
297.48021
296.45838
295.67987
295.09761
294.66974
294.36068
294.14119
293.98801
293.88302
293.81246
293.76604
293.73622
293.71758
293.70626
293.6996
293.69583
293.69378
293.6927
293.69216
293.69189
293.69177
293.69172
293.6917
293.69169
293.69168
293.69168
293.69168
347.64084
341.04291
334.98976
329.40675
324.25831
319.53498
315.24318
311.39591
308.00448
305.07177
302.58795
300.52927
298.85954
297.53368
296.50211
295.71492
295.12516
294.69102
294.37682
294.15324
293.99682
293.88934
293.81689
293.76906
293.73821
293.71883
293.70699
293.7
293.69601
293.69381
293.69265
293.69206
293.69177
293.69164
293.69158
293.69155
293.69154
293.69154
293.69154
293.69154
347.70083
341.11472
335.07212
329.49809
324.35663
319.63784
315.34776
311.49921
308.10358
305.16409
302.67153
300.60288
298.92269
297.58657
296.54543
295.74967
295.15252
294.71218
294.39292
294.16526
294.00565
293.89569
293.82135
293.77211
293.74023
293.7201
293.70775
293.70041
293.69619
293.69385
293.69261
293.69197
293.69166
293.69151
293.69144
293.69141
293.6914
293.69139
293.69139
293.69139
347.75957
341.18504
335.15278
329.58758
324.453
319.73872
315.4504
311.60067
308.201
305.25495
302.75388
300.67549
298.98507
297.63888
296.58833
295.78414
295.1797
294.73324
294.40895
294.17727
294.01448
293.90206
293.82584
293.7752
293.74228
293.72141
293.70854
293.70084
293.69639
293.6939
293.69257
293.69188
293.69154
293.69138
293.6913
293.69127
293.69125
293.69125
293.69125
293.69124
347.8171
341.25392
335.23183
329.67529
324.54749
319.83767
315.55114
311.70034
308.29679
305.34438
302.83503
300.74713
299.0467
297.69063
296.63082
295.81833
295.2067
294.75418
294.42493
294.18925
294.02332
293.90845
293.83036
293.77831
293.74436
293.72274
293.70935
293.70129
293.6966
293.69397
293.69254
293.6918
293.69143
293.69125
293.69116
293.69113
293.69111
293.6911
293.6911
293.6911
347.87346
341.32143
335.3093
329.76128
324.64016
319.93477
315.65006
311.79829
308.39101
305.43244
302.91503
300.81784
299.1076
297.74183
296.67291
295.85224
295.23351
294.77501
294.44084
294.20121
294.03215
293.91486
293.83491
293.78146
293.74647
293.7241
293.71018
293.70176
293.69683
293.69404
293.69252
293.69172
293.69131
293.69112
293.69103
293.69098
293.69097
293.69096
293.69095
293.69095
347.9287
341.38761
335.38527
329.84562
324.73109
320.03008
315.74721
311.89455
308.4837
305.51915
302.99389
300.88763
299.16778
297.79248
296.71462
295.88588
295.26014
294.79573
294.4567
294.21315
294.04098
293.92128
293.83948
293.78463
293.74861
293.72549
293.71103
293.70224
293.69707
293.69412
293.6925
293.69164
293.69121
293.69099
293.69089
293.69084
293.69082
293.69081
293.69081
293.69081
347.98286
341.4525
335.45977
329.92836
324.82032
320.12366
315.84266
311.9892
308.57491
305.60457
303.07166
300.95653
299.22727
297.84261
296.75594
295.91925
295.28659
294.81634
294.47249
294.22506
294.04982
293.92771
293.84407
293.78783
293.75077
293.7269
293.71191
293.70275
293.69732
293.69421
293.69249
293.69157
293.6911
293.69087
293.69075
293.6907
293.69068
293.69067
293.69067
293.69066
348.03597
341.51616
335.53287
330.00956
324.90791
320.21556
315.93646
312.08228
308.66469
305.68873
303.14836
301.02455
299.28606
297.89223
296.79688
295.95235
295.31286
294.83683
294.48822
294.23694
294.05864
293.93415
293.84868
293.79105
293.75296
293.72834
293.7128
293.70327
293.69758
293.69431
293.69248
293.6915
293.691
293.69074
293.69062
293.69056
293.69054
293.69052
293.69052
293.69052
348.08808
341.57862
335.60461
330.08927
324.99393
320.30585
316.02866
312.17384
308.75307
305.77165
303.22402
301.09173
299.3442
297.94133
296.83745
295.9852
295.33896
294.85722
294.50388
294.24879
294.06746
293.9406
293.85331
293.7943
293.75518
293.7298
293.71372
293.7038
293.69786
293.69442
293.69249
293.69144
293.6909
293.69062
293.69049
293.69042
293.69039
293.69038
293.69038
293.69038
348.13921
341.63992
335.67504
330.16753
325.07842
320.39458
316.11931
312.26392
308.8401
305.85339
303.29866
301.15809
299.40168
297.98995
296.87766
296.01779
295.36489
294.87749
294.51949
294.2606
294.07627
293.94706
293.85796
293.79757
293.75742
293.73128
293.71465
293.70436
293.69816
293.69454
293.6925
293.69138
293.6908
293.6905
293.69035
293.69028
293.69025
293.69024
293.69023
293.69023
348.1894
341.70011
335.7442
330.24441
325.16142
320.48178
316.20846
312.35257
308.92581
305.93396
303.37232
301.22363
299.45852
298.03807
296.91751
296.05012
295.39064
294.89766
294.53502
294.27239
294.08508
293.95353
293.86262
293.80086
293.75968
293.73278
293.71561
293.70492
293.69846
293.69467
293.69251
293.69133
293.6907
293.69038
293.69022
293.69015
293.69011
293.69009
293.69009
293.69009
348.23868
341.75922
335.81213
330.31993
325.243
320.56752
316.29615
312.43984
309.01025
306.01341
303.44502
301.28839
299.51474
298.08572
296.95701
296.08221
295.41623
294.91771
294.5505
294.28415
294.09387
293.96
293.86729
293.80417
293.76196
293.7343
293.71658
293.70551
293.69878
293.69481
293.69254
293.69128
293.69061
293.69027
293.69009
293.69001
293.68997
293.68995
293.68994
293.68994
348.28708
341.81729
335.87887
330.39415
325.32319
320.65183
316.38244
312.52575
309.09345
306.09175
303.51678
301.35237
299.57035
298.13291
296.99617
296.11405
295.44165
294.93766
294.5659
294.29587
294.10265
293.96647
293.87198
293.80749
293.76426
293.73585
293.71758
293.70611
293.69911
293.69495
293.69257
293.69124
293.69052
293.69015
293.68996
293.68987
293.68983
293.68981
293.6898
293.6898
348.33463
341.87434
335.94446
330.4671
325.40204
320.73477
316.46735
312.61035
309.17544
306.16903
303.58763
301.41561
299.62537
298.17964
297.03499
296.14566
295.4669
294.9575
294.58125
294.30756
294.11142
293.97295
293.87668
293.81084
293.76658
293.73741
293.71859
293.70673
293.69945
293.69511
293.6926
293.6912
293.69044
293.69004
293.68984
293.68974
293.68969
293.68967
293.68966
293.68966
348.38135
341.93041
336.00893
330.53883
325.47958
320.81636
316.55094
312.69368
309.25626
306.24526
303.65759
301.47811
299.6798
298.22592
297.07348
296.17702
295.49199
294.97724
294.59653
294.31921
294.12017
293.97943
293.88139
293.8142
293.76892
293.73899
293.71962
293.70736
293.69981
293.69528
293.69265
293.69117
293.69036
293.68993
293.68971
293.6896
293.68955
293.68952
293.68951
293.68951
348.42727
341.98553
336.07232
330.60937
325.55586
320.89666
316.63323
312.77578
309.33593
306.32048
303.72667
301.5399
299.73366
298.27176
297.11164
296.20815
295.51692
294.99687
294.61174
294.33083
294.12892
293.9859
293.88611
293.81757
293.77128
293.74059
293.72066
293.70801
293.70017
293.69546
293.6927
293.69114
293.69028
293.68982
293.68959
293.68947
293.68941
293.68938
293.68937
293.68937
348.47242
342.03973
336.13466
330.67875
325.63092
320.97569
316.71427
312.85667
309.4145
306.3947
303.79491
301.60098
299.78697
298.31717
297.14948
296.23905
295.54169
295.01639
294.62689
294.34241
294.13764
293.99238
293.89084
293.82096
293.77365
293.74221