/*--------------------------------*- C++ -*----------------------------------*\
| =========                 |                                                 |
| \\      /  F ield         | OpenFOAM: The Open Source CFD Toolbox           |
|  \\    /   O peration     | Version:  3.0.1                                 |
|   \\  /    A nd           | Web:      www.OpenFOAM.org                      |
|    \\/     M anipulation  |                                                 |
\*---------------------------------------------------------------------------*/
FoamFile
{
    version     2.0;
    format      ascii;
    class       volScalarField;
    location    "3500/fluid";
    object      T;
}
// * * * * * * * * * * * * * * * * * * * * * * * * * * * * * * * * * * * * * //

dimensions      [0 0 0 1 0 0 0];

internalField   nonuniform List<scalar> 
5000
(
301.95851
301.3646
300.74
300.09196
299.4296
298.76365
298.10597
297.46898
296.86482
296.30453
295.79725
295.34951
294.96488
294.6438
294.38378
294.1799
294.02543
293.91262
293.83341
293.7801
293.74583
293.72487
293.71272
293.70607
293.70266
293.70102
293.70029
293.69999
293.69988
293.69984
293.69983
293.69982
293.69982
293.69982
293.69982
293.69982
293.69982
293.69982
293.69982
293.69982
293.69982
293.69982
293.69982
293.69982
293.69982
293.69982
293.69982
293.69982
293.69982
293.69982
313.20658
312.06733
310.8614
309.5974
308.28692
306.94447
305.58714
304.23413
302.90589
301.62321
300.40611
299.27279
298.23859
297.31515
296.50985
295.82544
295.26003
294.80736
294.45735
294.19703
294.01159
293.88569
293.80462
293.75538
293.72734
293.71245
293.70512
293.70181
293.70044
293.69992
293.69975
293.69969
293.69968
293.69968
293.69967
293.69967
293.69967
293.69967
293.69967
293.69967
293.69967
293.69967
293.69967
293.69967
293.69967
293.69967
293.69967
293.69967
293.69967
293.69967
321.25514
319.93784
318.53417
317.04653
315.47997
313.84269
312.14657
310.40754
308.64568
306.88498
305.15259
303.47758
301.88926
300.41515
299.07893
297.89853
296.88475
296.04048
295.36073
294.83342
294.44084
294.16156
293.97265
293.8518
293.77913
293.73829
293.717
293.70676
293.70226
293.70046
293.69982
293.69961
293.69955
293.69953
293.69953
293.69953
293.69953
293.69953
293.69953
293.69953
293.69953
293.69953
293.69953
293.69953
293.69953
293.69953
293.69953
293.69953
293.69953
293.69953
327.03733
325.62753
324.12279
322.5233
320.83125
319.05129
317.19115
315.26218
313.27991
311.26443
309.24068
307.23784
305.28852
303.42713
301.68766
300.10101
298.69224
297.4781
296.46546
295.65078
295.02084
294.55455
294.22563
294.00566
293.86696
293.78503
293.73999
293.71711
293.70646
293.70194
293.70021
293.69962
293.69944
293.6994
293.69938
293.69938
293.69938
293.69938
293.69938
293.69938
293.69938
293.69938
293.69938
293.69938
293.69938
293.69938
293.69938
293.69938
293.69938
293.69938
331.24524
329.78326
328.22155
326.55912
324.79658
322.93664
320.98468
318.94927
316.84287
314.68236
312.48948
310.29102
308.11844
306.00701
303.99413
302.11691
300.40921
298.89847
297.60285
296.52928
295.67282
295.01753
294.5387
294.20616
293.98784
293.85315
293.7756
293.73422
293.71391
293.70483
293.70116
293.69983
293.6994
293.69927
293.69924
293.69924
293.69924
293.69924
293.69924
293.69924
293.69924
293.69924
293.69924
293.69924
293.69924
293.69924
293.69924
293.69924
293.69924
293.69924
334.36808
332.88311
331.29614
329.60541
327.81054
325.91291
323.91621
321.82698
319.65521
317.41502
315.12525
312.80984
310.49792
308.22347
306.02412
303.93935
302.00772
300.26365
298.73405
297.43531
296.37153
295.53411
294.90316
294.45024
294.14208
293.9445
293.82591
293.75977
293.72575
293.70976
293.70294
293.70033
293.69945
293.69918
293.69911
293.69909
293.69909
293.69909
293.69909
293.69909
293.69909
293.69909
293.69909
293.69909
293.69909
293.69909
293.69909
293.69909
293.69909
293.69909
336.73017
335.23765
333.64215
331.94139
330.13429
328.22133
326.20497
324.09023
321.88527
319.60205
317.25698
314.87147
312.47224
310.09131
307.76527
305.53387
303.43776
301.51543
299.7997
298.31433
297.0713
296.06949
295.29497
294.72312
294.32187
294.05584
293.89023
293.79413
293.74256
293.71719
293.70585
293.70128
293.69965
293.69913
293.69899
293.69895
293.69894
293.69894
293.69894
293.69894
293.69894
293.69894
293.69894
293.69894
293.69894
293.69894
293.69894
293.69894
293.69894
293.69894
338.55608
337.06626
335.47335
333.77473
331.9688
330.05535
328.03593
325.91435
323.69728
321.39489
319.02149
316.5962
314.14341
311.69297
309.27984
306.94309
304.72401
302.66337
300.79802
299.15728
297.75972
296.61103
295.70348
295.01713
294.52262
294.18503
293.96801
293.83757
293.76486
293.72758
293.71017
293.70283
293.70007
293.69915
293.69888
293.69882
293.6988
293.6988
293.6988
293.6988
293.6988
293.6988
293.6988
293.6988
293.6988
293.6988
293.6988
293.6988
293.6988
293.6988
339.99665
338.51458
336.92976
335.23931
333.4413
331.53498
329.52121
327.40289
325.18552
322.87779
320.4923
318.04617
315.56169
313.06659
310.59402
308.18183
305.87106
303.70353
301.71867
299.94986
298.42096
297.14353
296.11563
295.32225
294.7375
294.32807
294.05738
293.88953
293.79271
293.74119
293.71614
293.70512
293.70079
293.69927
293.69881
293.69869
293.69866
293.69865
293.69865
293.69865
293.69865
293.69865
293.69865
293.69865
293.69865
293.69865
293.69865
293.69865
293.69865
293.69865
341.15716
339.68579
338.11228
336.43359
334.64751
332.75291
330.75011
328.64128
326.43096
324.12665
321.73948
319.28486
316.78318
314.2602
311.74721
309.28061
306.90069
304.64955
302.56822
300.69303
299.05199
297.66169
296.5254
295.63293
294.96214
294.48205
294.15672
293.94938
293.82605
293.75819
293.72396
293.7083
293.70187
293.69953
293.69878
293.69857
293.69852
293.69851
293.69851
293.6985
293.6985
293.6985
293.6985
293.6985
293.6985
293.6985
293.6985
293.6985
293.6985
293.6985
342.11027
340.65077
339.08987
337.42441
335.65199
333.77119
331.78189
329.68571
327.48641
325.19051
322.80792
320.35258
317.84321
315.30378
312.7638
310.25811
307.82596
305.50924
303.34982
301.38612
299.6494
298.16045
296.92716
295.94383
295.19214
294.64377
294.26407
294.01612
293.86456
293.77859
293.73376
293.71249
293.70341
293.69996
293.6988
293.69847
293.69838
293.69836
293.69836
293.69836
293.69836
293.69836
293.69836
293.69836
293.69836
293.69836
293.69836
293.69836
293.69836
293.69836
342.90753
341.46031
339.91249
338.26084
336.50279
334.63671
332.66215
330.58026
328.39418
326.10962
323.73545
321.28437
318.77361
316.22553
313.66798
311.13425
308.6624
306.29377
304.07059
302.03269
300.2139
298.63845
297.3183
296.25187
295.42455
294.81084
294.37777
294.08881
293.90783
293.80232
293.7456
293.71778
293.70546
293.7006
293.6989
293.69839
293.69825
293.69822
293.69821
293.69821
293.69821
293.69821
293.69821
293.69821
293.69821
293.69821
293.69821
293.69821
293.69821
293.69821
343.58559
342.1505
340.61562
338.97766
337.23394
335.38267
333.42313
331.35609
329.1842
326.91247
324.5489
322.10513
319.59711
317.04574
314.47732
311.92366
309.42159
307.01168
304.73614
302.63574
300.74626
299.0948
297.69685
296.55458
295.65689
294.98114
294.49624
294.16646
293.95537
293.82922
293.7595
293.72424
293.7081
293.70149
293.69909
293.69833
293.69813
293.69808
293.69807
293.69807
293.69807
293.69807
293.69807
293.69807
293.69807
293.69807
293.69807
293.69807
293.69807
293.69807
344.17106
342.74769
341.22534
339.60066
337.87091
336.03414
334.08944
332.03726
329.87983
327.62161
325.26984
322.83524
320.33263
317.78162
315.20711
312.63949
310.11435
307.67138
305.35252
303.19912
301.24841
299.52989
298.06208
296.85056
295.88749
295.15306
294.61817
294.24816
294.00665
293.85908
293.77544
293.73192
293.71137
293.70266
293.69939
293.69832
293.69801
293.69794
293.69792
293.69792
293.69792
293.69792
293.69792
293.69792
293.69792
293.69792
293.69792
293.69792
293.69792
293.69792
344.68339
343.27121
341.76081
340.14883
338.43246
336.60964
334.67929
332.64163
330.49851
328.25392
325.91448
323.49009
320.99459
318.44644
315.86926
313.29213
310.74938
308.2798
305.9249
303.72626
301.72226
299.94433
298.41365
297.13881
296.11506
295.32528
294.74242
294.33307
294.06116
293.89164
293.79333
293.74083
293.71532
293.70416
293.69983
293.69835
293.69791
293.6978
293.69778
293.69777
293.69777
293.69777
293.69777
293.69777
293.69777
293.69777
293.69777
293.69777
293.69777
293.69777
345.13709
343.7355
342.23643
340.63649
338.93283
337.12331
335.20671
333.18304
331.05385
328.82272
326.49573
324.08207
321.59473
319.05114
316.47374
313.89039
311.33425
308.84315
306.45804
304.22058
302.16993
300.33915
298.75168
297.41886
296.33876
295.49683
294.8681
294.42046
294.11841
293.92664
293.81308
293.75098
293.71997
293.70601
293.70041
293.69844
293.69783
293.69767
293.69764
293.69763
293.69763
293.69763
293.69763
293.69763
293.69763
293.69763
293.69763
293.69763
293.69763
293.69763
345.54308
344.15147
342.66308
341.07452
339.38288
337.58597
335.68245
333.67215
331.55637
329.33834
327.02366
324.62093
322.14235
319.60444
317.02858
314.4415
311.87524
309.36667
306.9561
304.68511
302.59344
300.71543
299.07652
297.69047
296.55798
295.66695
294.99443
294.50971
294.17795
293.96382
293.83456
293.76232
293.72535
293.70824
293.70117
293.69859
293.69777
293.69755
293.69749
293.69748
293.69748
293.69748
293.69748
293.69748
293.69748
293.69748
293.69748
293.69748
293.69748
293.69748
345.90971
344.52751
343.04918
341.47133
339.79104
338.00605
336.11492
334.11734
332.0144
329.80901
327.50637
325.11453
322.64502
320.11352
317.54047
314.95153
312.3777
309.85489
307.42276
305.12266
302.99471
301.07432
299.38864
297.95363
296.77237
295.8351
295.12083
294.60028
294.23937
294.0029
293.85766
293.77484
293.73147
293.71087
293.7021
293.69881
293.69773
293.69743
293.69735
293.69734
293.69734
293.69734
293.69734
293.69734
293.69734
293.69734
293.69734
293.69734
293.69734
293.69734
346.24345
344.8701
343.40125
341.8335
340.16391
338.39017
336.51077
334.52526
332.43456
330.2413
327.95033
325.56921
323.10888
320.58426
318.01492
315.42554
312.84615
310.31172
307.86122
305.5357
303.37553
301.41696
299.68863
298.20845
296.98172
296.00087
295.24682
294.6917
294.3023
294.04365
293.88223
293.78846
293.73831
293.7139
293.70324
293.69912
293.69772
293.69732
293.69721
293.69719
293.69719
293.69719
293.69719
293.69719
293.69719
293.69719
293.69719
293.69719
293.69719
293.69719
346.54939
345.18438
343.72445
342.16621
340.50671
338.74359
336.87529
334.90124
332.82219
330.64055
328.36083
325.99018
323.53899
321.02151
318.45652
315.8678
313.28442
310.74049
308.27429
305.92648
303.73755
301.74445
299.97709
298.45513
297.18593
296.16398
295.37202
294.7836
294.36642
294.08584
293.90815
293.80315
293.74587
293.71737
293.7046
293.69952
293.69775
293.69722
293.69708
293.69705
293.69704
293.69704
293.69704
293.69704
293.69704
293.69704
293.69704
293.69704
293.69704
293.69704
346.83157
345.47441
344.0229
342.47364
340.82366
339.07059
337.21278
335.2496
333.18163
331.01108
328.74218
326.38171
323.93955
321.42934
318.86914
316.2819
313.6958
311.14412
308.66443
306.29698
304.08227
302.05782
300.25463
298.69395
297.38501
296.32423
295.49614
294.87567
294.43145
294.12924
293.93526
293.81882
293.75413
293.72126
293.70618
293.70002
293.69781
293.69713
293.69695
293.69691
293.6969
293.6969
293.6969
293.6969
293.6969
293.6969
293.6969
293.6969
293.6969
293.6969
347.09324
345.7435
344.29994
342.75915
341.11818
339.3746
337.52674
335.57386
333.51643
331.35648
329.09798
326.74735
324.31404
321.81115
319.25604
316.67091
314.08311
311.52511
309.03378
306.64895
304.41106
302.35804
300.52186
298.92519
297.57899
296.48151
295.61895
294.96765
294.49714
294.17366
293.96346
293.83542
293.76307
293.72558
293.70799
293.70063
293.69792
293.69706
293.69682
293.69676
293.69675
293.69675
293.69675
293.69675
293.69675
293.69675
293.69675
293.69675
293.69675
293.69675
347.33704
345.99433
344.55828
343.02551
341.39306
339.65848
337.82005
335.87696
333.82957
331.67973
329.4312
327.09008
324.66543
322.16981
319.61999
317.03745
314.44877
311.88564
309.38426
306.98399
304.72515
302.64601
300.77937
299.14918
297.76797
296.63574
295.7403
295.05932
294.56328
294.21894
293.99261
293.85288
293.77266
293.73033
293.71005
293.70136
293.69808
293.697
293.69669
293.69662
293.69661
293.6966
293.6966
293.6966
293.6966
293.6966
293.6966
293.6966
293.6966
293.6966
347.56516
346.22909
344.80017
343.27501
341.65063
339.92459
338.09512
336.16134
334.1235
331.98333
329.74436
327.41242
324.99619
322.50777
319.96336
317.38378
314.79488
312.22761
309.71751
307.30347
305.02565
302.92257
301.02773
299.36622
297.95209
296.78691
295.86006
295.15051
294.6297
294.26492
294.0226
293.87113
293.78288
293.7355
293.71236
293.70222
293.69829
293.69696
293.69658
293.69648
293.69646
293.69646
293.69646
293.69646
293.69646
293.69646
293.69646
293.69646
293.69646
293.69646
347.77941
346.44965
345.02749
343.50955
341.89285
340.17491
338.35396
336.42904
334.40032
332.26939
330.03959
327.7165
325.30845
322.82713
320.2882
317.71185
315.12326
312.55269
310.03502
307.60867
305.31358
303.18847
301.26745
299.57665
298.13147
296.93501
295.97814
295.24109
294.69624
294.31145
294.05333
293.8901
293.79369
293.74108
293.71491
293.7032
293.69855
293.69695
293.69647
293.69634
293.69632
293.69631
293.69631
293.69631
293.69631
293.69631
293.69631
293.69631
293.69631
293.69631
347.9813
346.65755
345.24182
343.73074
342.12134
340.41112
338.59828
336.68181
334.6618
332.53971
330.31871
328.00415
325.60405
323.12969
320.59625
318.02335
315.43552
312.86234
310.33808
307.90068
305.58986
303.44443
301.49904
299.78077
298.30627
297.08008
296.09448
295.33094
294.76278
294.35842
294.08471
293.90973
293.80505
293.74707
293.71772
293.70431
293.69888
293.69695
293.69636
293.69621
293.69617
293.69617
293.69617
293.69617
293.69617
293.69617
293.69617
293.69617
293.69617
293.69617
348.17212
346.85409
345.44448
343.93995
342.3375
340.63465
338.82954
336.92114
334.90945
332.79583
330.58328
328.27695
325.88455
323.41702
320.88906
318.31975
315.73304
313.15785
310.62786
308.18052
305.8553
303.69108
301.72297
299.97889
298.47666
297.22217
296.20905
295.41999
294.8292
294.40573
294.11663
293.92996
293.81694
293.75345
293.72077
293.70557
293.69927
293.69698
293.69627
293.69607
293.69603
293.69602
293.69602
293.69602
293.69602
293.69602
293.69602
293.69602
293.69602
293.69602
348.35298
347.0404
345.63664
344.13835
342.54254
340.84671
339.04899
337.14831
335.14459
333.03908
330.83466
328.53626
326.15134
323.69047
321.16796
318.60237
316.01706
313.44036
310.90538
308.44908
306.11065
303.92902
301.93967
300.17129
298.64279
297.36132
296.32183
295.50815
294.89542
294.45326
294.14903
293.95074
293.82932
293.76021
293.72408
293.70697
293.69973
293.69704
293.69618
293.69594
293.69589
293.69588
293.69587
293.69587
293.69587
293.69587
293.69587
293.69587
293.69587
293.69587
348.52481
347.21745
345.81927
344.32694
342.73748
341.04838
339.25773
337.36442
335.36834
333.27063
331.07403
328.78327
326.4056
323.95125
321.43413
318.87233
316.28866
313.7109
311.17156
308.70716
306.3566
304.15879
302.14954
300.35825
298.80482
297.49761
296.43281
295.59538
294.96136
294.50096
294.18183
293.97199
293.84216
293.76733
293.72763
293.70851
293.70026
293.69713
293.6961
293.69581
293.69574
293.69573
293.69573
293.69573
293.69573
293.69573
293.69573
293.69573
293.69573
293.69573
348.68844
347.38606
345.99323
344.50661
342.92323
341.24056
339.45669
337.57046
335.58171
333.49148
331.3024
329.01904
326.64839
324.2004
321.6886
319.13065
316.54883
313.97037
311.42725
308.95551
306.59377
304.38089
302.35297
300.54003
298.96292
297.63112
296.542
295.68164
295.02695
294.54873
294.21496
293.99369
293.85543
293.7748
293.73143
293.71019
293.70087
293.69726
293.69604
293.69569
293.6956
293.69558
293.69558
293.69558
293.69558
293.69558
293.69558
293.69558
293.69558
293.69558
348.84457
347.54698
346.15927
344.67812
343.10056
341.42406
339.64669
337.76726
335.78555
333.70253
331.5207
329.24448
326.88064
324.43886
321.93231
319.37823
316.79842
314.21958
311.67317
309.19477
306.82271
304.59578
302.55031
300.71689
299.11723
297.76191
296.64942
295.7669
295.09213
294.59653
294.24837
294.01577
293.86909
293.7826
293.73546
293.71202
293.70155
293.69741
293.69599
293.69557
293.69546
293.69544
293.69544
293.69544
293.69544
293.69544
293.69544
293.69544
293.69544
293.69544
348.99383
347.70083
346.31804
344.84215
343.27018
341.5996
339.82848
337.95558
335.98064
333.90455
331.72972
329.4604
327.10317
324.66744
322.16606
319.61587
317.03821
314.45926
311.90999
309.42556
307.04395
304.80387
302.74187
300.88904
299.26791
297.89006
296.75509
295.85115
295.15688
294.64429
294.282
294.0382
293.88311
293.79071
293.73972
293.714
293.70232
293.69761
293.69595
293.69545
293.69532
293.69529
293.69529
293.69529
293.69529
293.69529
293.69529
293.69529
293.69529
293.69529
349.13677
347.84818
346.47012
344.99927
343.43268
341.76781
340.00268
338.13607
336.16765
334.09825
331.93017
329.66753
327.31671
324.88689
322.3906
319.84429
317.26888
314.69007
312.13834
309.6484
307.25794
305.00556
302.92797
301.05672
299.41511
298.01566
296.85903
295.93437
295.22115
294.69198
294.3158
294.06093
293.89747
293.79912
293.74421
293.71612
293.70316
293.69784
293.69593
293.69534
293.69518
293.69515
293.69514
293.69514
293.69514
293.69514
293.69514
293.69514
293.69514
293.69514
349.27388
347.98953
346.61602
345.15004
343.58862
341.92923
340.16989
338.30933
336.3472
334.28425
332.12269
329.86651
327.52192
325.09786
322.60657
320.06414
317.49107
314.9126
312.35874
309.86379
307.46512
305.2012
303.10888
301.22013
299.55895
298.13878
296.96128
296.01656
295.28491
294.73954
294.34974
294.08393
293.91214
293.80781
293.74891
293.71839
293.70408
293.69811
293.69592
293.69523
293.69505
293.69501
293.695
293.695
293.695
293.695
293.695
293.695
293.695
293.695
349.40559
348.12533
346.7562
345.2949
343.73846
342.08436
340.33059
338.47588
336.51981
334.46309
332.30784
330.05793
327.71939
325.30095
322.81456
320.27599
317.70533
315.12738
312.57172
310.0722
307.66589
305.39113
303.28487
301.37947
299.69958
298.25951
297.06187
296.09772
295.34814
294.78694
294.38377
294.10717
293.92709
293.81677
293.75383
293.7208
293.70509
293.69842
293.69593
293.69513
293.69491
293.69486
293.69485
293.69485
293.69485
293.69485
293.69485
293.69485
293.69485
293.69485
349.53229
348.25597
346.89106
345.43428
343.88266
342.23365
340.48527
338.63619
336.68598
334.63529
332.48614
330.2423
327.90964
325.49668
323.01511
320.48037
317.91218
315.33492
312.77771
310.27402
307.8606
305.57565
303.45618
301.53492
299.83712
298.37791
297.16083
296.17784
295.41083
294.83416
294.41786
294.13061
293.9423
293.82598
293.75895
293.72335
293.70618
293.69877
293.69596
293.69504
293.69478
293.69472
293.69471
293.6947
293.6947
293.6947
293.6947
293.6947
293.6947
293.6947
349.65433
348.38181
347.02099
345.56856
344.02158
342.3775
340.63431
338.79068
336.84614
334.80128
332.65805
330.42009
328.09315
325.68554
323.2087
320.67776
318.11209
315.53564
312.97714
310.46964
308.0496
305.75504
303.62304
301.68666
299.97169
298.49406
297.2582
296.25695
295.47295
294.88117
294.45199
294.15422
293.95775
293.83542
293.76426
293.72604
293.70736
293.69917
293.69601
293.69495
293.69465
293.69458
293.69456
293.69456
293.69456
293.69456
293.69456
293.69456
293.69456
293.69456
349.77201
348.50318
347.14629
345.69808
344.15559
342.51627
340.77811
338.93975
337.00068
334.96147
332.82397
330.59174
328.27036
325.86797
323.39577
320.8686
318.30547
315.72997
313.17038
310.65941
308.23318
305.92956
303.78567
301.83484
300.10341
298.60805
297.35402
296.33504
295.5345
294.92795
294.48611
294.17798
293.97341
293.84509
293.76976
293.72887
293.70862
293.69962
293.69608
293.69487
293.69452
293.69443
293.69442
293.69441
293.69441
293.69441
293.69441
293.69441
293.69441
293.69441
349.88563
348.62035
347.26728
345.82315
344.285
342.65029
340.91698
339.08373
337.14997
335.11623
332.9843
330.75762
328.44165
326.04436
323.57671
321.05327
318.49272
315.91826
313.3578
310.84365
308.41163
306.09946
303.94426
301.97962
300.23239
298.71992
297.44833
296.41213
295.59548
294.97447
294.52022
294.20186
293.98927
293.85496
293.77544
293.73182
293.70996
293.70011
293.69617
293.6948
293.69439
293.69429
293.69427
293.69427
293.69427
293.69427
293.69427
293.69427
293.69427
293.69427
349.99543
348.73361
347.38423
345.94404
344.4101
342.77985
341.05125
339.22294
337.29433
335.26589
333.13936
330.91808
328.60739
326.21508
323.7519
321.23215
318.67419
316.10086
313.5397
311.02265
308.58523
306.26496
304.09899
302.12114
300.35873
298.82977
297.54116
296.48824
295.65587
295.02073
294.55428
294.22585
294.0053
293.86502
293.78129
293.73491
293.71139
293.70064
293.69628
293.69474
293.69427
293.69415
293.69413
293.69412
293.69412
293.69412
293.69412
293.69412
293.69412
293.69412
350.10166
348.84317
347.49738
346.06102
344.53114
342.90522
341.18119
339.35767
337.43406
335.41077
333.28948
331.07346
328.76791
326.38045
323.92166
321.40555
318.8502
316.27809
313.71639
311.19668
308.7542
306.42627
304.25005
302.25954
300.48252
298.93764
297.63255
296.56337
295.71568
295.0667
294.58828
294.24992
294.02149
293.87527
293.78731
293.73812
293.71291
293.70122
293.69642
293.69469
293.69415
293.69401
293.69398
293.69397
293.69397
293.69397
293.69397
293.69397
293.69397
293.69397
350.20453
348.94928
347.60695
346.1743
344.64838
343.02665
341.30705
339.48818
337.56942
335.55113
333.43495
331.22404
328.92349
326.54079
324.0863
321.5738
319.02105
316.45023
313.88814
311.36601
308.91878
306.5836
304.39758
302.39495
300.60387
299.04361
297.72254
296.63755
295.7749
295.11239
294.62221
294.27405
294.03782
293.88568
293.79348
293.74146
293.7145
293.70185
293.69657
293.69464
293.69403
293.69387
293.69384
293.69383
293.69383
293.69383
293.69383
293.69383
293.69383
293.69383
350.30422
349.05212
347.71316
346.28411
344.76203
343.14436
341.42907
339.61472
337.70066
335.68724
333.57602
331.37009
329.07443
326.69638
324.2461
321.73716
319.18703
316.61756
314.0552
311.53086
309.07918
306.73712
304.54176
302.52749
300.72287
299.14773
297.81116
296.71078
295.83354
295.15777
294.65604
294.29824
294.05428
293.89625
293.7998
293.74492
293.71618
293.70253
293.69675
293.69461
293.69392
293.69373
293.69369
293.69368
293.69368
293.69368
293.69368
293.69368
293.69368
293.69368
350.40093
349.15187
347.81619
346.39064
344.87228
343.25857
341.54746
339.7375
337.82802
335.81934
333.71294
331.51186
329.22097
326.84746
324.40133
321.8959
319.34838
316.78031
314.21781
311.69146
309.23559
306.887
304.68271
302.65727
300.8396
299.25007
297.89845
296.78309
295.8916
295.20284
294.68977
294.32245
294.07085
293.90696
293.80626
293.74849
293.71794
293.70326
293.69696
293.69458
293.69381
293.6936
293.69355
293.69354
293.69354
293.69354
293.69354
293.69354
293.69354
293.69354
350.49481
349.24872
347.91622
346.49406
344.97933
343.36947
341.66242
339.85673
337.95171
335.94762
333.84593
331.64958
329.36334
326.99428
324.55221
322.05025
319.50534
316.93872
314.37619
311.848
309.38821
307.0334
304.82058
302.78441
300.95413
299.35068
297.98445
296.8545
295.94908
295.2476
294.72338
294.34669
294.08752
293.91781
293.81285
293.75217
293.71978
293.70404
293.69719
293.69457
293.6937
293.69346
293.6934
293.69339
293.69339
293.69339
293.69339
293.69339
293.69339
293.69339
350.58601
349.34281
348.0134
346.59455
345.08334
343.47722
341.77413
339.97259
338.07191
336.07231
333.9752
331.78346
329.50177
327.13706
324.69898
322.20044
319.65813
317.093
314.53054
312.00067
309.53719
307.17648
304.95549
302.90899
301.06656
299.44961
298.06919
296.92501
296.00599
295.29205
294.75687
294.37093
294.10428
293.92878
293.81957
293.75596
293.72169
293.70486
293.69745
293.69457
293.6936
293.69333
293.69326
293.69325
293.69324
293.69324
293.69324
293.69324
293.69324
293.69324
350.67468
349.43429
348.10788
346.69226
345.18448
343.582
341.88275
340.08526
338.1888
336.19357
334.10094
331.9137
329.63645
327.276
324.84184
322.34667
319.80695
317.24335
314.68104
312.14965
309.6827
307.31638
305.08755
303.03112
301.17694
299.54692
298.15269
296.99466
296.06233
295.33617
294.79022
294.39517
294.12112
293.93987
293.82642
293.75985
293.72368
293.70574
293.69774
293.69458
293.69351
293.69319
293.69312
293.6931
293.6931
293.6931
293.6931
293.6931
293.6931
293.6931
350.76094
349.52328
348.19981
346.78732
345.28288
343.68395
341.98845
340.19491
338.30256
336.31159
334.22331
332.04047
329.76757
327.41129
324.98098
322.48914
319.952
317.38995
314.82788
312.29512
309.8249
307.45322
305.21689
303.15089
301.28536
299.64265
298.23501
297.06345
296.11811
295.37997
294.82343
294.41939
294.13802
293.95106
293.83337
293.76385
293.72575
293.70666
293.69805
293.69461
293.69342
293.69306
293.69297
293.69295
293.69295
293.69295
293.69295
293.69295
293.69295
293.69295
350.84491
349.60992
348.28931
346.87987
345.37869
343.78321
342.09137
340.30167
338.41334
336.42652
334.3425
332.16395
329.8953
327.5431
325.11657
322.62801
320.09344
317.53298
314.97122
312.43721
309.96391
307.58714
305.34361
303.26838
301.39188
299.73686
298.31615
297.1314
296.17334
295.42344
294.85649
294.44359
294.15498
293.96235
293.84044
293.76794
293.72789
293.70763
293.69838
293.69465
293.69333
293.69293
293.69283
293.69281
293.6928
293.6928
293.6928
293.6928
293.6928
293.6928
350.92671
349.69432
348.37649
346.97003
345.47202
343.87992
342.19164
340.40568
338.52127
336.53851
334.45865
332.28429
330.01979
327.67161
325.24878
322.76347
320.23144
317.67259
315.11122
312.57607
310.09988
307.71825
305.4678
303.38369
301.49655
299.82959
298.39617
297.19853
296.22801
295.46659
294.8894
294.46776
294.17199
293.97373
293.84761
293.77213
293.73011
293.70865
293.69875
293.6947
293.69325
293.6928
293.69269
293.69266
293.69266
293.69266
293.69266
293.69266
293.69266
293.69266
351.00643
349.77658
348.46147
347.05791
345.563
343.97418
342.28938
340.50709
338.6265
336.6477
334.5719
332.40164
330.14121
327.79695
325.37777
322.89565
320.36616
317.80893
315.24801
312.71185
310.23293
307.84665
305.58957
303.49687
301.59945
299.92089
298.47508
297.26486
296.28215
295.5094
294.92214
294.49189
294.18903
293.9852
293.85487
293.7764
293.73239
293.70972
293.69914
293.69476
293.69317
293.69268
293.69255
293.69252
293.69251
293.69251
293.69251
293.69251
293.69251
293.69251
351.08418
349.8568
348.54434
347.14362
345.65173
344.06613
342.38472
340.606
338.72914
336.75422
334.68238
332.51614
330.25969
327.91928
325.50368
323.02472
320.49774
317.94215
315.38173
312.84466
310.36317
307.97246
305.709
303.60802
301.70062
300.01079
298.55291
297.3304
296.33575
295.5519
294.95473
294.51597
294.20611
293.99674
293.86223
293.78076
293.73475
293.71083
293.69956
293.69484
293.6931
293.69255
293.69241
293.69237
293.69237
293.69237
293.69237
293.69237
293.69237
293.69237
351.16004
349.93508
348.62521
347.22726
345.73832
344.15585
342.47776
340.70253
338.82932
336.85817
334.79022
332.62791
330.37535
328.03872
325.62665
323.15079
320.62631
318.07238
315.51251
312.97463
310.49071
308.09577
305.82617
303.71719
301.80013
300.09934
298.62969
297.39517
296.38882
295.59407
294.98714
294.54
294.22322
294.00835
293.86967
293.7852
293.73717
293.71199
293.70001
293.69493
293.69304
293.69243
293.69227
293.69223
293.69222
293.69222
293.69222
293.69222
293.69222
293.69222
351.2341
350.0115
348.70416
347.30892
345.82286
344.24345
342.56861
340.79678
338.92714
336.95969
334.89553
332.73707
330.48833
328.1554
325.74679
323.274
320.752
318.19974
315.64047
313.10188
310.61567
308.21668
305.94117
303.82446
301.89803
300.18658
298.70545
297.45919
296.44138
295.63591
295.01939
294.56398
294.24034
294.02002
293.87719
293.78972
293.73965
293.7132
293.70049
293.69504
293.69298
293.69231
293.69213
293.69208
293.69208
293.69207
293.69207
293.69207
293.69207
293.69207
351.30643
350.08614
348.78128
347.38868
345.90544
344.32903
342.65735
340.88886
339.0227
337.05887
334.99843
332.84373
330.59874
328.26944
325.86424
323.39448
320.87494
318.32435
315.76573
313.22649
310.73813
308.33527
306.05408
303.92988
301.99436
300.27253
298.78022
297.52247
296.49342
295.67744
295.05146
294.58789
294.25747
294.03174
293.88478
293.79432
293.7422
293.71445
293.701
293.69516
293.69293
293.69219
293.69199
293.69194
293.69193
293.69193
293.69193
293.69193
293.69193
293.69193
351.37712
350.15908
348.85664
347.46662
345.98614
344.41266
342.74408
340.97885
339.1161
337.15582
335.09901
332.94799
330.70668
328.38095
325.9791
323.51232
320.99522
318.44631
315.88838
313.34859
310.85819
308.45163
306.16496
304.03353
302.08918
300.35725
298.85401
297.58503
296.54497
295.71864
295.08335
294.61173
294.27462
294.04352
293.89245
293.79899
293.74481
293.71575
293.70153
293.69529
293.69288
293.69208
293.69185
293.69179
293.69178
293.69178
293.69178
293.69178
293.69178
293.69178
351.44622
350.23039
348.93031
347.54283
346.06504
344.49443
342.82887
341.06684
339.20743
337.25061
335.19737
333.04997
330.81225
328.49003
326.09147
323.62764
321.11295
318.56574
316.00853
313.46826
310.97594
308.56584
306.27388
304.13545
302.18253
300.44076
298.92685
297.64689
296.59601
295.75952
295.11507
294.63551
294.29176
294.05535
293.90019
293.80373
293.74748
293.71709
293.70209
293.69544
293.69285
293.69197
293.69171
293.69165
293.69164
293.69164
293.69164
293.69164
293.69164
293.69164
351.51381
350.30014
349.00238
347.61737
346.14222
344.57441
342.91182
341.15291
339.29677
337.34335
335.2936
333.14974
330.91556
328.59678
326.20146
323.74053
321.22825
318.68272
316.12627
313.58559
311.09147
308.67796
306.38091
304.2357
302.27445
300.5231
298.99878
297.70805
296.64657
295.8001
295.14662
294.6592
294.3089
294.06721
293.90799
293.80854
293.75021
293.71847
293.70268
293.69561
293.69282
293.69186
293.69157
293.69151
293.69149
293.69149
293.69149
293.69149
293.69149
293.69149
351.57994
350.36839
349.07289
347.6903
346.21774
344.65267
342.993
341.23714
339.38421
337.43411
335.38778
333.2474
331.01668
328.70128
326.30916
323.85109
321.34119
318.79735
316.2417
313.70067
311.20484
308.78808
306.48612
304.33433
302.36498
300.6043
299.0698
297.76853
296.69665
295.84035
295.17798
294.68282
294.32603
294.07912
293.91584
293.81341
293.75299
293.7199
293.7033
293.69579
293.69279
293.69175
293.69144
293.69136
293.69135