/*--------------------------------*- C++ -*----------------------------------*\
| =========                 |                                                 |
| \\      /  F ield         | OpenFOAM: The Open Source CFD Toolbox           |
|  \\    /   O peration     | Version:  3.0.1                                 |
|   \\  /    A nd           | Web:      www.OpenFOAM.org                      |
|    \\/     M anipulation  |                                                 |
\*---------------------------------------------------------------------------*/
FoamFile
{
    version     2.0;
    format      ascii;
    class       volVectorField;
    location    "9000/fluid";
    object      U;
}
// * * * * * * * * * * * * * * * * * * * * * * * * * * * * * * * * * * * * * //

dimensions      [0 1 -1 0 0 0 0];

internalField   nonuniform List<vector> 
4000
(
(0.00010968102 1.0414471e-18 0.049076005)
(0.00023392826 2.6879441e-18 0.11212503)
(0.00041231924 3.585017e-18 0.15343912)
(0.00045710217 3.5987062e-18 0.17945719)
(0.00043327846 3.6422389e-18 0.19518372)
(0.00037340153 3.7388159e-18 0.20424119)
(0.00030795842 3.8709495e-18 0.20909969)
(0.00025089531 3.1352663e-18 0.21135349)
(0.00020677819 2.491088e-18 0.21197907)
(0.00017461593 1.8271666e-18 0.21154512)
(0.00015157936 1.2128605e-18 0.21036731)
(0.00013471974 2.260847e-18 0.20861341)
(0.00012171869 3.3665515e-18 0.20636974)
(0.00011098517 4.4610422e-18 0.2036805)
(0.00010152715 4.0360352e-18 0.20056986)
(9.2763e-05 3.6533546e-18 0.19705354)
(8.4367642e-05 3.3068086e-18 0.19314465)
(7.6165498e-05 1.5384988e-18 0.18885635)
(6.8066909e-05 -2.0235503e-19 0.18420293)
(6.0033467e-05 -1.9244865e-18 0.17920012)
(5.2058e-05 -3.6726685e-18 0.17386485)
(4.4156334e-05 -5.4852132e-18 0.16821476)
(3.6360459e-05 -5.0474474e-18 0.16226749)
(2.8716813e-05 -4.7062943e-18 0.15603978)
(2.1277537e-05 -4.4383994e-18 0.1495463)
(1.4110491e-05 -6.042993e-18 0.14279841)
(7.2735186e-06 -7.6815145e-18 0.13580272)
(8.4600067e-07 -7.7435425e-18 0.12855951)
(-5.2239964e-06 -7.8595399e-18 0.12106468)
(-1.0787447e-05 -8.0538998e-18 0.11330881)
(-1.5706925e-05 -8.3332363e-18 0.10526474)
(-1.9899216e-05 -6.1250343e-18 0.096892339)
(-2.3328532e-05 -6.2370405e-18 0.088137145)
(-2.578742e-05 -6.4675205e-18 0.078928592)
(-2.7381067e-05 -6.6796487e-18 0.069178854)
(-2.7584155e-05 -5.3378524e-18 0.058780724)
(-2.6846381e-05 -5.3458337e-18 0.047606636)
(-2.3574992e-05 -4.3492053e-18 0.035504002)
(-1.9150786e-05 -2.5599565e-18 0.022292646)
(-6.5945957e-06 -8.0925332e-19 0.007743225)
(-2.0956553e-05 7.4481788e-19 0.052230822)
(-0.00020857247 1.9206823e-18 0.11900476)
(-0.00045717486 2.936232e-18 0.1616774)
(-0.00071492905 2.5892396e-18 0.18718061)
(-0.00093112373 3.1748077e-18 0.20136783)
(-0.0010828282 3.4575694e-18 0.2086292)
(-0.001161597 3.6068379e-18 0.21190423)
(-0.0011739097 2.703801e-18 0.21296872)
(-0.0011343157 2.3304469e-18 0.21279798)
(-0.0010599225 1.7237871e-18 0.21187933)
(-0.00096617758 1.1772663e-18 0.21043228)
(-0.00086496144 2.2455983e-18 0.20854387)
(-0.00076427254 3.2303604e-18 0.20624316)
(-0.00066884786 3.9646002e-18 0.20353817)
(-0.0005810774 3.9401125e-18 0.20043206)
(-0.00050185926 3.6287476e-18 0.19692927)
(-0.00043124825 3.3206524e-18 0.19303718)
(-0.00036887616 1.5396369e-18 0.18876618)
(-0.00031419314 -1.4249428e-19 0.18412927)
(-0.00026659232 -1.5529829e-18 0.17914157)
(-0.00022546255 -4.106465e-18 0.17381973)
(-0.00019020969 -5.547014e-18 0.1681813)
(-0.00016026116 -5.0644193e-18 0.16224391)
(-0.00013506283 -4.712039e-18 0.15602432)
(-0.00011408166 -4.4469656e-18 0.1495373)
(-9.6797643e-05 -6.0500059e-18 0.14279434)
(-8.2718236e-05 -7.6784392e-18 0.13580221)
(-7.1383045e-05 -7.7461454e-18 0.12856175)
(-6.2513548e-05 -7.8636989e-18 0.12106894)
(-5.558045e-05 -8.0568869e-18 0.11331341)
(-5.0052429e-05 -8.3335283e-18 0.1052688)
(-4.5553029e-05 -6.1222179e-18 0.096895225)
(-4.1762645e-05 -6.4507045e-18 0.088138327)
(-3.8261171e-05 -6.4840864e-18 0.078927674)
(-3.4919318e-05 -6.6823303e-18 0.069175429)
(-3.1125076e-05 -5.3579047e-18 0.058774434)
(-2.7104171e-05 -5.4769043e-18 0.047596665)
(-2.1422951e-05 -4.4420632e-18 0.035488966)
(-1.5134982e-05 -2.4864954e-18 0.022267914)
(-2.9495449e-06 -8.2700503e-19 0.0077080347)
(-1.9006879e-05 6.1298016e-19 0.055732658)
(-0.0002331441 1.5072166e-18 0.12730887)
(-0.00056125833 2.1939435e-18 0.17251647)
(-0.00093031792 2.5254909e-18 0.19832293)
(-0.001271584 2.7994013e-18 0.21115394)
(-0.0015403245 3.1227689e-18 0.21620952)
(-0.0017126754 3.2680388e-18 0.21714694)
(-0.0017863176 2.9122479e-18 0.21619414)
(-0.0017744163 2.3199504e-18 0.2145083)
(-0.0016982512 1.907951e-18 0.21257207)
(-0.0015804914 1.7772826e-18 0.21050895)
(-0.001440833 2.3501349e-18 0.20828789)
(-0.0012940627 3.1065975e-18 0.20583472)
(-0.001149958 3.6673547e-18 0.2030817)
(-0.0010141734 3.7725669e-18 0.19998277)
(-0.00088943632 3.4525496e-18 0.19651331)
(-0.00077663837 2.8456687e-18 0.19266492)
(-0.00067564882 1.4130923e-18 0.18844004)
(-0.00058584161 -1.9358442e-19 0.1838479)
(-0.00050639518 -1.8278226e-18 0.17890194)
(-0.00043644136 -4.246046e-18 0.17361813)
(-0.0003751312 -5.2541594e-18 0.16801379)
(-0.00032165562 -5.034194e-18 0.16210652)
(-0.00027524968 -4.7546941e-18 0.15591319)
(-0.00023519072 -4.7223969e-18 0.14944874)
(-0.00020078915 -6.0728313e-18 0.14272488)
(-0.00017140215 -7.4904799e-18 0.13574872)
(-0.00014642801 -7.7254864e-18 0.12852166)
(-0.00012543185 -7.8613338e-18 0.12103986)
(-0.00010777392 -8.0343836e-18 0.11329244)
(-9.2810527e-05 -8.0686048e-18 0.10525373)
(-8.0041553e-05 -6.1399613e-18 0.096884267)
(-6.902133e-05 -6.4385785e-18 0.088129954)
(-5.9237814e-05 -6.4864955e-18 0.078920617)
(-5.0421834e-05 -6.546485e-18 0.069168591)
(-4.1921512e-05 -5.464749e-18 0.058766884)
(-3.3747559e-05 -5.344778e-18 0.047587354)
(-2.4622294e-05 -4.310994e-18 0.035476673)
(-1.4965475e-05 -2.4213685e-18 0.022251179)
(-2.4415909e-06 -7.8984775e-19 0.0076950803)
(-1.7002606e-05 3.84176e-19 0.05916858)
(-0.00022311678 9.9694268e-19 0.13559896)
(-0.00055626201 1.5399529e-18 0.18383344)
(-0.00095576932 2.8020541e-18 0.21072433)
(-0.0013556806 2.7922652e-18 0.22291199)
(-0.0017029183 3.0122206e-18 0.22613274)
(-0.0019598341 2.9233389e-18 0.22469973)
(-0.0021099916 3.2258452e-18 0.221398)
(-0.0021563758 2.5804404e-18 0.21772943)
(-0.0021156969 2.4005309e-18 0.21430906)
(-0.0020111833 2.8044879e-18 0.21124314)
(-0.0018664422 2.6153662e-18 0.2084077)
(-0.0017015308 3.0996684e-18 0.20561662)
(-0.0015313149 3.5029073e-18 0.20270337)
(-0.0013655184 3.5600188e-18 0.19954845)
(-0.0012096874 3.1585349e-18 0.19607887)
(-0.0010664267 2.1258678e-18 0.19225742)
(-0.00093651133 1.1236869e-18 0.18807075)
(-0.0008197079 -4.3795632e-19 0.18352007)
(-0.00071530201 -2.4493967e-18 0.17861499)
(-0.00062239349 -4.0523113e-18 0.17336974)
(-0.00054004101 -5.0286422e-18 0.16780088)
(-0.00046732574 -4.9944259e-18 0.16192573)
(-0.00040336954 -4.8488788e-18 0.15576105)
(-0.00034733944 -5.1578323e-18 0.14932184)
(-0.00029844272 -6.1001929e-18 0.14261995)
(-0.00025593877 -7.1590962e-18 0.13566271)
(-0.00021913264 -7.673847e-18 0.12845195)
(-0.00018746616 -7.8482825e-18 0.12098395)
(-0.0001602263 -7.9690291e-18 0.11324741)
(-0.00013669728 -7.6180265e-18 0.10521721)
(-0.00011628071 -6.2922529e-18 0.096854238)
(-9.8440264e-05 -6.2276777e-18 0.088104688)
(-8.259643e-05 -6.4466812e-18 0.078898625)
(-6.8371016e-05 -6.3064891e-18 0.069148556)
(-5.5093001e-05 -5.6374274e-18 0.058747628)
(-4.2586542e-05 -5.1108105e-18 0.04756759)
(-2.9722e-05 -4.097906e-18 0.035454932)
(-1.6573361e-05 -2.5199462e-18 0.022226619)
(-2.5006308e-06 -7.6072793e-19 0.007676396)
(-1.5151583e-05 4.4039666e-19 0.062306826)
(-0.00020658419 1.1264065e-18 0.14333093)
(-0.00052522743 1.7338843e-18 0.19469841)
(-0.00092195916 2.3369467e-18 0.22311156)
(-0.0013397138 2.770282e-18 0.23524935)
(-0.0017268359 3.1398626e-18 0.2371564)
(-0.0020401547 3.1402488e-18 0.23364389)
(-0.0022532462 2.8587963e-18 0.22801912)
(-0.0023584932 2.5456573e-18 0.22219066)
(-0.0023645256 2.4376171e-18 0.21700587)
(-0.0022905223 2.64911e-18 0.21264326)
(-0.0021599171 2.8300122e-18 0.20894209)
(-0.0019952834 3.0276818e-18 0.20562632)
(-0.0018152261 3.3772367e-18 0.20242892)
(-0.0016332265 3.3341557e-18 0.19914362)
(-0.0014579058 2.9161639e-18 0.19563338)
(-0.001294028 2.0274055e-18 0.191819)
(-0.0011436918 8.6208539e-19 0.18766216)
(-0.0010073682 -6.1939727e-19 0.18315048)
(-0.00088465093 -2.3401109e-18 0.17828667)
(-0.00077472606 -3.547721e-18 0.17308169)
(-0.00067663297 -4.7761784e-18 0.1675506)
(-0.00058939028 -4.9437984e-18 0.16171008)
(-0.00051204387 -4.9233883e-18 0.15557667)
(-0.00044368532 -5.2686153e-18 0.14916531)
(-0.00038345195 -6.1343612e-18 0.14248792)
(-0.00033054045 -7.0967927e-18 0.13555206)
(-0.00028419767 -7.6225538e-18 0.12835989)
(-0.00024378253 -7.826601e-18 0.12090778)
(-0.00020854295 -7.9081928e-18 0.11318417)
(-0.0001777242 -7.5583656e-18 0.10516432)
(-0.0001506668 -6.6429003e-18 0.096809528)
(-0.00012677818 -6.2782892e-18 0.088066251)
(-0.00010543847 -6.4119988e-18 0.078864805)
(-8.6191896e-05 -6.2448651e-18 0.06911788)
(-6.8363509e-05 -5.6257614e-18 0.058718759)
(-5.1632879e-05 -5.0554766e-18 0.047539123)
(-3.4995737e-05 -4.0236973e-18 0.035425463)
(-1.8377025e-05 -2.564433e-18 0.022196433)
(-2.5366896e-06 -7.8932385e-19 0.0076563871)
(-1.3855199e-05 4.085317e-19 0.065203905)
(-0.00019217542 1.1011015e-18 0.15054917)
(-0.00049412118 1.8421382e-18 0.20501089)
(-0.00087859267 1.6232485e-18 0.23515717)
(-0.0012967348 2.5690412e-18 0.24763789)
(-0.0017014209 3.1646293e-18 0.24866995)
(-0.002049094 3.3615004e-18 0.24342458)
(-0.0023081879 2.5276561e-18 0.23565126)
(-0.0024632627 2.3780998e-18 0.22765938)
(-0.0025150873 2.2326399e-18 0.22057596)
(-0.0024770399 1.957546e-18 0.21471801)
(-0.0023697673 2.6399303e-18 0.20994609)
(-0.0022159015 2.904058e-18 0.2059309)
(-0.0020360658 3.0924368e-18 0.2023194)
(-0.0018466344 3.0951225e-18 0.19881726)
(-0.001659102 2.7610327e-18 0.19521426)
(-0.0014805676 2.2022751e-18 0.19137834)
(-0.0013147583 7.5498021e-19 0.18723707)
(-0.0011631347 -6.5754599e-19 0.18275808)
(-0.0010258107 -1.9067897e-18 0.1779333)
(-0.00090219676 -3.4260486e-18 0.17276831)
(-0.00079139182 -4.5647815e-18 0.16727564)
(-0.00069239475 -4.8904072e-18 0.16147084)
(-0.00060420029 -4.9501314e-18 0.15536997)
(-0.00052583927 -5.14029e-18 0.14898782)
(-0.00045638761 -6.1612442e-18 0.14233635)
(-0.00039498401 -7.2432572e-18 0.13542328)
(-0.0003408231 -7.6047848e-18 0.12825106)
(-0.00029319123 -7.8085749e-18 0.12081611)
(-0.0002512993 -7.8761844e-18 0.11310669)
(-0.00021435988 -7.7606716e-18 0.10509839)
(-0.00018166389 -6.7605294e-18 0.096752863)
(-0.00015257126 -6.5574525e-18 0.08801685)
(-0.00012643112 -6.4179432e-18 0.07882091)
(-0.00010272632 -6.3232191e-18 0.069077918)
(-8.0780463e-05 -5.49752e-18 0.058681281)
(-6.0165826e-05 -5.0901226e-18 0.047502664)
(-3.9984815e-05 -4.0497656e-18 0.035388784)
(-2.0161357e-05 -2.4319076e-18 0.022160884)
(-2.5845268e-06 -8.1164318e-19 0.0076345214)
(-1.2796511e-05 7.2836643e-19 0.067886441)
(-0.00017945523 1.4169996e-18 0.15729515)
(-0.00046520065 1.8490134e-18 0.21476562)
(-0.0008346824 2.2976422e-18 0.2467464)
(-0.0012456435 2.9927325e-18 0.25982978)
(-0.0016557688 4.0251974e-18 0.26032621)
(-0.00202328 4.02658e-18 0.25366725)
(-0.0023146032 2.9438895e-18 0.2439655)
(-0.0025092859 2.3788509e-18 0.23389771)
(-0.0026017763 2.3000045e-18 0.22488196)
(-0.0025996612 2.3125752e-18 0.21741302)
(-0.0025196349 2.6518872e-18 0.21141906)
(-0.0023827114 2.8507634e-18 0.20655556)
(-0.0022099715 2.9109966e-18 0.20240642)
(-0.0020196037 2.85915e-18 0.19859733)
(-0.0018254518 2.4476041e-18 0.19484269)
(-0.0016368515 1.5963342e-18 0.19095045)
(-0.0014592951 2.6803003e-19 0.18680615)
(-0.0012954448 -8.0203631e-19 0.18235094)
(-0.0011461264 -1.9461853e-18 0.17756157)
(-0.0010111133 -3.2450025e-18 0.17243558)
(-0.00088965225 -4.0512764e-18 0.16698155)
(-0.00078077329 -4.7752423e-18 0.16121321)
(-0.00068344793 -4.9795098e-18 0.15514586)
(-0.00059666226 -5.2859131e-18 0.14879397)
(-0.00051944231 -6.2159707e-18 0.14216947)
(-0.00045087545 -7.3553841e-18 0.13528023)
(-0.00039010758 -7.6197651e-18 0.1281289)
(-0.00033636244 -7.9599715e-18 0.12071198)
(-0.00028881556 -7.8595801e-18 0.11301761)
(-0.000246648 -7.6813799e-18 0.10502167)
(-0.00020910682 -7.0890956e-18 0.096686138)
(-0.00017551 -6.8207956e-18 0.087958045)
(-0.00014517892 -6.4355138e-18 0.078768196)
(-0.00011754231 -6.2433378e-18 0.069029653)
(-9.1920157e-05 -5.4032729e-18 0.05863595)
(-6.7805473e-05 -5.0175668e-18 0.047458793)
(-4.4395735e-05 -3.974455e-18 0.035345397)
(-2.171183e-05 -2.50083e-18 0.022120364)
(-2.5904735e-06 -8.2602051e-19 0.007610877)
(-1.1926306e-05 3.5912553e-19 0.070384505)
(-0.00016837712 8.7606586e-19 0.1636233)
(-0.00043920845 1.238427e-18 0.22400073)
(-0.00079340756 2.6957482e-18 0.25785877)
(-0.0011939751 2.9673377e-18 0.27171943)
(-0.0016029534 3.2892554e-18 0.27193891)
(-0.0019810832 3.1813161e-18 0.26413885)
(-0.0022945181 3.4133061e-18 0.25272879)
(-0.0025198526 2.7466404e-18 0.24071258)
(-0.0026468621 2.7208932e-18 0.22979195)
(-0.0026780968 3.247781e-18 0.22065819)
(-0.0026260858 2.8846191e-18 0.21333924)
(-0.0025093207 2.7987452e-18 0.20750818)
(-0.0023481815 2.7764267e-18 0.20271069)
(-0.0021616498 2.6671951e-18 0.19850621)
(-0.0019652509 2.0683525e-18 0.19453728)
(-0.001770264 9.9016462e-19 0.19054884)
(-0.0015839302 1.4814201e-19 0.18637861)
(-0.0014102356 -9.8434917e-19 0.18193535)
(-0.0012508747 -2.2749911e-18 0.17717604)
(-0.0011061182 -2.7258553e-18 0.17208712)
(-0.00097545314 -3.6321435e-18 0.16667148)
(-0.00085799905 -4.6307033e-18 0.16094009)
(-0.0007527371 -5.0498906e-18 0.15490703)
(-0.00065862598 -5.6829856e-18 0.14858629)
(-0.00057465339 -6.2557923e-18 0.14198968)
(-0.00049986227 -7.066719e-18 0.13512513)
(-0.0004333528 -7.5964919e-18 0.1279955)
(-0.00037429387 -7.8986601e-18 0.12059732)
(-0.00032182667 -7.8054441e-18 0.11291871)
(-0.00027510087 -7.3635729e-18 0.10493575)
(-0.00023332542 -7.2744158e-18 0.096610774)
(-0.00019577806 -6.6222206e-18 0.087891093)
(-0.00016175214 -6.4095288e-18 0.078707763)
(-0.00013063129 -6.0237881e-18 0.068974042)
(-0.00010172683 -5.5185622e-18 0.058583595)
(-7.4473988e-05 -4.732723e-18 0.047408252)
(-4.8162631e-05 -3.7130285e-18 0.035296014)
(-2.2967881e-05 -2.4933407e-18 0.022075527)
(-2.5536001e-06 -7.6492818e-19 0.0075858347)
(-1.1189857e-05 -2.333208e-19 0.072722603)
(-0.0001586743 -1.7756169e-19 0.16958208)
(-0.00041596661 5.5613725e-19 0.23276126)
(-0.00075545505 8.4857671e-19 0.26850651)
(-0.0011443885 1.8381215e-18 0.28326414)
(-0.0015485943 1.9355412e-18 0.28340546)
(-0.0019314715 2.0659475e-18 0.27469191)
(-0.0022598004 2.2837822e-18 0.2617769)
(-0.0025085839 2.5548867e-18 0.24795274)
(-0.0026642815 2.6474881e-18 0.23518903)
(-0.0027253352 2.8577951e-18 0.22437949)
(-0.0027003894 2.8513453e-18 0.21567203)
(-0.002605072 2.6040352e-18 0.20878287)
(-0.0024583248 2.1595554e-18 0.20324254)
(-0.0022790935 2.3043448e-18 0.19856004)
(-0.0020839123 1.8242971e-18 0.19431358)
(-0.0018856026 1.0413853e-18 0.19018577)
(-0.0016930095 3.3799882e-19 0.18596306)
(-0.0015114732 -9.507087e-19 0.18151707)
(-0.0013436665 -1.8098162e-18 0.17678058)
(-0.0011904725 -3.2644359e-18 0.17172573)
(-0.0010517125 -4.1297926e-18 0.16634764)
(-0.00092665705 -4.6285517e-18 0.16065339)
(-0.00081433474 -5.0827807e-18 0.15465523)
(-0.00071370033 -5.6653413e-18 0.14836642)
(-0.0006237132 -6.2707643e-18 0.14179849)
(-0.00054337937 -6.8505914e-18 0.13495943)
(-0.00047175972 -7.5207616e-18 0.1278522)
(-0.00040797413 -7.6736251e-18 0.12047341)
(-0.0003511307 -7.7423784e-18 0.11281114)
(-0.00030034975 -7.3578348e-18 0.10484173)
(-0.00025480456 -6.9485083e-18 0.096527776)
(-0.00021373633 -6.619859e-18 0.087816916)
(-0.00017641127 -6.3866786e-18 0.078640453)
(-0.00014217148 -6.0341744e-18 0.068911846)
(-0.00011031817 -5.6181523e-18 0.058524914)
(-8.0244918e-05 -4.8057067e-18 0.047351702)
(-5.1335745e-05 -3.774036e-18 0.035241305)
(-2.3954187e-05 -2.2977036e-18 0.022026991)
(-2.4896113e-06 -7.3913427e-19 0.0075597182)
(-1.055676e-05 9.5606651e-19 0.074921345)
(-0.00015013118 2.0368819e-18 0.17521396)
(-0.00039518385 2.4864501e-18 0.24109164)
(-0.0007208455 2.1956361e-18 0.27871475)
(-0.0010978531 2.4801908e-18 0.29445218)
(-0.0014952945 3.4291845e-18 0.29467001)
(-0.0018791301 3.9435558e-18 0.28523245)
(-0.0022172134 2.9185081e-18 0.27099447)
(-0.0024838253 2.469899e-18 0.25550233)
(-0.0026631275 2.4098294e-18 0.24097492)
(-0.0027503154 2.0883943e-18 0.22850683)
(-0.0027506213 2.6055577e-18 0.21837754)
(-0.0026768104 2.6326065e-18 0.21036501)
(-0.002545994 2.6349936e-18 0.20400415)
(-0.0023764829 2.2060578e-18 0.19876936)
(-0.002185226 1.6944233e-18 0.19418414)
(-0.0019861512 1.1621122e-18 0.18987221)
(-0.0017894801 -1.6387571e-19 0.18556769)
(-0.0016018568 -1.0738897e-18 0.18110166)
(-0.0014269845 -1.952852e-18 0.17637885)
(-0.0012664514 -3.141863e-18 0.17135387)
(-0.0011204993 -4.148139e-18 0.16601182)
(-0.00098861359 -4.6414088e-18 0.16035452)
(-0.00086991125 -5.079833e-18 0.1543917)
(-0.00076336653 -5.3937214e-18 0.14813547)
(-0.00066792562 -6.3007954e-18 0.14159696)
(-0.0005825655 -7.2559437e-18 0.1347841)
(-0.00050631201 -7.5294168e-18 0.12769993)
(-0.0004382432 -7.8285847e-18 0.12034112)
(-0.0003774363 -7.7359982e-18 0.11269575)
(-0.00032298402 -7.6303765e-18 0.10474036)
(-0.000274027 -6.9683542e-18 0.09643787)
(-0.00022977231 -6.8064272e-18 0.087736196)
(-0.00018945973 -6.3972696e-18 0.078566905)
(-0.0001523951 -6.1606439e-18 0.068843669)
(-0.00011786772 -5.3382467e-18 0.058460484)
(-8.5243067e-05 -4.8678049e-18 0.047289718)
(-5.4003685e-05 -3.8020947e-18 0.035181867)
(-2.4719451e-05 -2.362433e-18 0.021975307)
(-2.4134565e-06 -7.6905598e-19 0.0075327981)
(-1.000451e-05 3.8740604e-19 0.076997922)
(-0.00014256395 9.8113264e-19 0.18055548)
(-0.00037655165 1.342193e-18 0.24903285)
(-0.0006893554 2.6739377e-18 0.28851282)
(-0.0010546175 2.6136006e-18 0.30528738)
(-0.0014442374 2.9619579e-18 0.30570342)
(-0.0018265583 3.1646061e-18 0.29570012)
(-0.0021707109 3.6781952e-18 0.28029996)
(-0.0024508039 2.8747973e-18 0.26327312)
(-0.0026494411 2.7745555e-18 0.24706894)
(-0.0027592898 3.151168e-18 0.2329773)
(-0.0027826784 2.7765581e-18 0.22141501)
(-0.0027296909 2.55658e-18 0.2122348)
(-0.0026154559 2.4190489e-18 0.2049917)
(-0.0024572602 2.0794132e-18 0.19913985)
(-0.0022719915 1.4205674e-18 0.19415845)
(-0.0020742675 5.8168206e-19 0.18961765)
(-0.0018754171 -2.5406766e-19 0.18520017)
(-0.0016832727 -1.2628025e-18 0.1806946)
(-0.0015025712 -2.4112422e-18 0.1759745)
(-0.0013356669 -2.7037086e-18 0.17097392)
(-0.0011832959 -3.6906399e-18 0.16566564)
(-0.001045221 -4.5748598e-18 0.16004471)
(-0.00092069064 -5.1232759e-18 0.15411742)
(-0.0008087256 -5.7253326e-18 0.1478943)
(-0.0007082737 -6.3196134e-18 0.14138586)
(-0.00061829197 -6.9787775e-18 0.13459986)
(-0.0005377773 -7.4993594e-18 0.12753936)
(-0.00046577155 -7.7680804e-18 0.12020108)
(-0.00040132329 -7.6943372e-18 0.11257313)
(-0.00034349862 -7.3393228e-18 0.10463223)
(-0.00029140996 -7.1950395e-18 0.096341603)
(-0.00024423291 -6.6181417e-18 0.087649455)
(-0.00020118126 -6.3691082e-18 0.07848762)
(-0.00016152813 -5.947023e-18 0.068769993)
(-0.00012455149 -5.4587349e-18 0.05839078)
(-8.959957e-05 -4.617111e-18 0.047222789)
(-5.6258715e-05 -3.5191322e-18 0.035118216)
(-2.5314805e-05 -2.3303637e-18 0.021920942)
(-2.3344751e-06 -7.1990578e-19 0.0075052808)
(-9.5179247e-06 1.7309439e-19 0.078966734)
(-0.00013582239 9.1480854e-19 0.18563804)
(-0.00035978771 1.4535077e-18 0.2566217)
(-0.0006606904 2.0579782e-18 0.29793052)
(-0.0010146214 2.1726366e-18 0.31578135)
(-0.001395916 1.8290338e-18 0.31649233)
(-0.0017750995 2.3190688e-18 0.30605622)
(-0.0021226541 2.858198e-18 0.28963536)
(-0.0024128642 2.7094271e-18 0.27119785)
(-0.0026273073 2.6735888e-18 0.25340553)
(-0.0027566975 2.8259276e-18 0.23773604)
(-0.0028009299 2.7725631e-18 0.22474545)
(-0.0027676673 2.5212175e-18 0.21437003)
(-0.0026700572 2.3083565e-18 0.20619712)
(-0.002524137 1.8704334e-18 0.19967315)
(-0.0023463798 1.2375043e-18 0.19424312)
(-0.0021517293 5.4341958e-19 0.18943001)
(-0.0019523409 -6.3461384e-20 0.18486754)
(-0.0017570813 -1.2903651e-18 0.1803012)
(-0.0015716783 -2.2851918e-18 0.17557117)
(-0.0013992818 -2.9224431e-18 0.17058829)
(-0.0012411796 -4.0483331e-18 0.1653107)
(-0.0010974708 -4.5985696e-18 0.15972506)
(-0.00096757867 -5.1544094e-18 0.15383323)
(-0.00085059824 -5.7344597e-18 0.14764361)
(-0.00074549678 -6.3209883e-18 0.14116581)
(-0.00065122155 -6.7723778e-18 0.13440727)
(-0.00056674578 -7.4229983e-18 0.12737102)
(-0.00049108073 -7.5500281e-18 0.12005379)
(-0.0004232487 -7.6418482e-18 0.11244374)
(-0.00036229159 -7.3304794e-18 0.10451778)
(-0.00030729589 -6.9503365e-18 0.096239399)
(-0.00025740749 -6.43133e-18 0.087557103)
(-0.00021181652 -6.3300087e-18 0.078402995)
(-0.00016976681 -5.9317658e-18 0.068691208)
(-0.0001305255 -5.54576e-18 0.058316196)
(-9.3433786e-05 -4.567671e-18 0.04715133)
(-5.8184965e-05 -3.4913062e-18 0.035050792)
(-2.5784209e-05 -2.1834304e-18 0.021864277)
(-2.2591979e-06 -6.7405537e-19 0.0074773133)
(-9.0850567e-06 4.4492388e-19 0.080839895)
(-0.0001297822 1.1659059e-18 0.19048854)
(-0.00034464461 1.9502603e-18 0.26389086)
(-0.00063454986 1.4822222e-18 0.30699642)
(-0.00097767392 1.9865983e-18 0.32594947)
(-0.0013504733 2.0736002e-18 0.32703284)
(-0.001725459 2.6295015e-18 0.31627626)
(-0.0020744678 1.9509274e-18 0.29895912)
(-0.0023721802 2.3658813e-18 0.27922505)
(-0.0025995301 2.3708868e-18 0.25993169)
(-0.0027457283 2.0296867e-18 0.24273601)
(-0.0028086477 2.4337288e-18 0.22833289)
(-0.0027938077 2.3274617e-18 0.21674777)
(-0.0027124648 2.1251761e-18 0.20760967)
(-0.0025793031 1.7440653e-18 0.20036774)
(-0.0024101352 1.1435517e-18 0.19444219)
(-0.0022199323 7.1537394e-19 0.18931555)
(-0.0020214101 -2.1613188e-19 0.184576)
(-0.0018242938 -1.239917e-18 0.17992653)
(-0.0016352252 -1.8665619e-18 0.17517251)
(-0.0014581491 -3.4699648e-18 0.17019941)
(-0.0012949468 -4.4463291e-18 0.16494859)
(-0.0011461005 -4.6938034e-18 0.15939665)
(-0.0010112525 -5.1554334e-18 0.15353993)
(-0.00088960287 -5.5345855e-18 0.14738404)
(-0.0007801554 -6.3245083e-18 0.14093734)
(-0.00068185882 -7.0166554e-18 0.1342068)
(-0.00059366967 -7.4000773e-18 0.12719533)
(-0.00051457334 -7.5484748e-18 0.11989965)
(-0.00044356905 -7.622975e-18 0.11230798)
(-0.00037967549 -7.5535188e-18 0.10439737)
(-0.00032195528 -6.7857273e-18 0.0961316)
(-0.00026952842 -6.6415279e-18 0.08745947)
(-0.00022156206 -6.3316883e-18 0.078313355)
(-0.00017727305 -6.0514261e-18 0.068607636)
(-0.00013591956 -5.371541e-18 0.05823706)
(-9.684489e-05 -4.7138942e-18 0.047075691)
(-5.9852167e-05 -3.6593113e-18 0.034979967)
(-2.6162312e-05 -2.1277994e-18 0.021805624)
(-2.1883682e-06 -6.9826695e-19 0.0074489995)
(-8.6969706e-06 4.2771484e-19 0.082627651)
(-0.00012434143 1.1269974e-18 0.19513015)
(-0.00033091003 1.5333452e-18 0.27086918)
(-0.00061065224 1.705187e-18 0.31573713)
(-0.00094353537 2.0174132e-18 0.33580865)
(-0.0013078738 2.2248638e-18 0.33732678)
(-0.0016779798 2.4662567e-18 0.32634519)
(-0.0020270115 2.2510678e-18 0.30824143)
(-0.0023301817 2.2468524e-18 0.28731516)
(-0.0025680579 2.289607e-18 0.26660454)
(-0.0027286991 2.205727e-18 0.24793718)
(-0.0028083033 2.3033446e-18 0.23214485)
(-0.0028105142 2.1851947e-18 0.21934559)
(-0.0027448298 1.9899394e-18 0.20921707)
(-0.002624559 1.5391468e-18 0.20121977)
(-0.0024646989 9.5962032e-19 0.19475749)
(-0.002280013 3.3039928e-19 0.18927895)
(-0.0020835421 -3.7571042e-19 0.18433091)
(-0.0018856877 -1.3374685e-18 0.17957526)
(-0.0016939053 -2.0997268e-18 0.17478207)
(-0.0015129092 -3.3910959e-18 0.16980973)
(-0.0013451933 -4.374558e-18 0.16458093)
(-0.0011916659 -4.7372799e-18 0.15906056)
(-0.0010522265 -5.1856907e-18 0.15323826)
(-0.0009262096 -5.6222041e-18 0.14711615)
(-0.00081267721 -6.3387773e-18 0.14070092)
(-0.00071059104 -7.0039779e-18 0.13399886)
(-0.00061889768 -7.3809068e-18 0.12701266)
(-0.00053656142 -7.5430336e-18 0.11973901)
(-0.00046256084 -7.5932996e-18 0.11216614)
(-0.00039589428 -7.4720294e-18 0.10427129)
(-0.00033560214 -6.8292383e-18 0.09601849)
(-0.00028077977 -6.6189514e-18 0.08735683)
(-0.00023057293 -6.3285142e-18 0.078218965)
(-0.00018417541 -6.011805e-18 0.068519541)
(-0.00014083802 -5.3642193e-18 0.058153647)
(-9.9912259e-05 -4.6784295e-18 0.046996172)
(-6.1314916e-05 -3.5913471e-18 0.034906054)
(-2.6476456e-05 -2.1159612e-18 0.021745232)
(-2.1259654e-06 -6.770957e-19 0.0074204093)
(-8.3471313e-06 2.4251689e-19 0.08433872)
(-0.00011941634 6.1235699e-19 0.19958284)
(-0.00031840254 8.8268941e-19 0.27758207)
(-0.0005887431 2.2423717e-18 0.32417709)
(-0.00091195642 2.2798541e-18 0.34537607)
(-0.0012679923 2.2352122e-18 0.34737945)
(-0.0016327966 2.187021e-18 0.33625441)
(-0.0019807946 2.8960213e-18 0.3174609)
(-0.0022878141 2.5046663e-18 0.29543762)
(-0.0025342583 2.5728368e-18 0.27338931)
(-0.0027073094 3.0342154e-18 0.25330567)
(-0.0028017786 2.3800135e-18 0.23615245)
(-0.0028196776 2.0340617e-18 0.22214218)
(-0.0027688968 1.752744e-18 0.21100636)
(-0.0026614004 1.3832985e-18 0.20222376)
(-0.0025112806 6.7898303e-19 0.19518906)
(-0.0023329219 -2.0468314e-19 0.18932346)
(-0.002139487 -6.1084509e-19 0.18413669)
(-0.0019418792 -1.5122376e-18 0.17925167)
(-0.0017482548 -2.7572486e-18 0.17440327)
(-0.0015640493 -3.4886212e-18 0.16942171)
(-0.0013923741 -4.3168688e-18 0.16420937)
(-0.0012345916 -4.7859333e-18 0.15871788)
(-0.0010908945 -5.2730094e-18 0.15292898)
(-0.00096078215 -5.9363681e-18 0.14684048)
(-0.00084339441 -6.354556e-18 0.14045697)
(-0.00073771865 -6.79569e-18 0.1337838)
(-0.00064270015 -7.340379e-18 0.12682333)
(-0.0005572873 -7.5239109e-18 0.11957214)
(-0.00048043996 -7.5304982e-18 0.1120185)
(-0.00041113871 -7.1529313e-18 0.1041398)
(-0.00034840293 -6.8046991e-18 0.095900306)
(-0.00029130572 -6.417058e-18 0.087249411)
(-0.00023897314 -6.2843695e-18 0.078120051)
(-0.00019057664 -5.834209e-18 0.068427151)
(-0.0001453626 -5.4312502e-18 0.058066194)
(-0.00010269961 -4.5289148e-18 0.046913028)
(-6.261658e-05 -3.4356933e-18 0.034829315)
(-2.6744306e-05 -2.1313654e-18 0.021683299)
(-2.0706303e-06 -6.470351e-19 0.0073915904)
(-8.0295469e-06 -1.4157694e-19 0.085980559)
(-0.00011493677 -4.4804433e-19 0.20386393)
(-0.00030696824 2.4934954e-19 0.28405198)
(-0.00056859827 4.4540461e-19 0.33233854)
(-0.00088269752 1.6350728e-18 0.35466858)
(-0.0012306624 2.0665129e-18 0.35719813)
(-0.0015899225 2.1028904e-18 0.3459997)
(-0.0019361064 2.1587115e-18 0.32660227)
(-0.0022457031 2.2545132e-18 0.30356875)
(-0.0024990994 2.3756976e-18 0.28025777)
(-0.0026828163 2.5233883e-18 0.25881281)
(-0.0027905166 2.305838e-18 0.2403302)
(-0.0028227959 1.8051877e-18 0.22511772)
(-0.0027860899 1.1338683e-18 0.21296447)
(-0.0026910792 1.066811e-18 0.20337313)
(-0.0025509111 5.0068857e-19 0.1957355)
(-0.0023794698 -2.5791293e-19 0.18945107)
(-0.0021898756 -7.832297e-19 0.1839969)
(-0.0019933726 -1.5507689e-18 0.1789595)
(-0.0017986989 -2.2333025e-18 0.17403932)
(-0.0016119498 -3.8416633e-18 0.16903775)
(-0.0014368406 -4.3745444e-18 0.16383558)
(-0.0012752069 -4.8430717e-18 0.15836972)
(-0.0011275641 -5.3338428e-18 0.15261281)
(-0.00099360406 -5.9291547e-18 0.14655756)
(-0.00087256616 -6.3825001e-18 0.14020589)
(-0.00076347758 -6.8221572e-18 0.13356196)
(-0.00066528982 -7.302676e-18 0.12662762)
(-0.00057694156 -7.4977285e-18 0.11939931)
(-0.00049737666 -7.479586e-18 0.11186529)
(-0.00042555847 -7.1457487e-18 0.1040031)
(-0.00036048919 -6.8073963e-18 0.095777253)
(-0.00030121988 -6.6442487e-18 0.087137412)
(-0.00024685814 -6.2679779e-18 0.078016804)
(-0.00019655718 -5.8312517e-18 0.068330657)
(-0.00014955929 -5.3816394e-18 0.057974903)
(-0.00010525591 -4.6190926e-18 0.046826481)
(-6.3789699e-05 -3.4916939e-18 0.034749975)
(-2.6979052e-05 -2.0724278e-18 0.021619986)
(-2.0206213e-06 -6.7812133e-19 0.0073625752)
(-7.7398832e-06 6.3861124e-19 0.08755959)
(-0.00011084463 1.7220202e-18 0.20798849)
(-0.000296476 2.0224675e-18 0.29029871)
(-0.00055001969 1.618759e-18 0.34024165)
(-0.00085553451 1.8841409e-18 0.36370226)
(-0.0011957029 2.2073887e-18 0.36679123)
(-0.0015493017 2.5460672e-18 0.35557983)
(-0.0018930958 2.3920971e-18 0.33565477)
(-0.0022042581 2.0091003e-18 0.31169013)
(-0.0024632681 2.0064482e-18 0.28718686)
(-0.002656155 1.565666e-18 0.26443433)
(-0.0027756303 1.9747349e-18 0.24465571)
(-0.0028210622 1.7896887e-18 0.22825398)
(-0.0027975764 1.6420842e-18 0.21507861)
(-0.0027146475 1.0110067e-18 0.20466066)
(-0.0025844746 4.6487453e-19 0.19639436)
(-0.0024203595 7.9135978e-20 0.18966266)
(-0.0022352507 -8.1374317e-19 0.18391424)
(-0.0020405916 -1.6390651e-18 0.17870204)
(-0.0018455847 -2.3168214e-18 0.17369321)
(-0.0016569124 -3.1824327e-18 0.16866021)
(-0.001478869 -4.330145e-18 0.16346121)
(-0.00131377 -4.8623052e-18 0.15801718)
(-0.0011624768 -5.3312636e-18 0.15229051)
(-0.0010248998 -5.6847007e-18 0.14626789)
(-0.00090039864 -6.3891444e-18 0.13994806)
(-0.00078805533 -7.0302221e-18 0.13333363)
(-0.00068683642 -7.2979359e-18 0.12642579)
(-0.00059567577 -7.4768886e-18 0.11922074)
(-0.00051350544 -7.4671621e-18 0.11170672)
(-0.00043927362 -7.3713654e-18 0.1038614)
(-0.00037196541 -6.835702e-18 0.095649509)
(-0.00031061273 -6.5934696e-18 0.087021)
(-0.0002543056 -6.2642499e-18 0.077909389)
(-0.0002021803 -5.9620087e-18 0.068230227)
(-0.00015347912 -5.248779e-18 0.057879953)
(-0.00010761997 -4.5546018e-18 0.046736726)
(-6.4858242e-05 -3.4415113e-18 0.034668227)
(-2.7189727e-05 -2.048534e-18 0.021555424)
(-1.9771015e-06 -6.5403456e-19 0.0073333856)
(-7.4745176e-06 3.2014012e-19 0.08908137)
(-0.00010709103 8.2211103e-19 0.21196968)
(-0.00028681371 1.1324137e-18 0.29633981)
(-0.00053283589 2.5117922e-18 0.34790466)
(-0.00083026528 2.2564078e-18 0.37249227)
(-0.001162932 2.1621279e-18 0.37616769)
(-0.0015108401 1.9813278e-18 0.36499564)
(-0.0018518234 2.437821e-18 0.34461098)
(-0.0021637447 2.1972578e-18 0.31978743)
(-0.0024272553 2.2524052e-18 0.29415776)
(-0.0026280275 2.5726551e-18 0.27014969)
(-0.0027579852 2.0225527e-18 0.24910935)
(-0.0028154309 1.6886489e-18 0.23153439)