/*--------------------------------*- C++ -*----------------------------------*\
| =========                 |                                                 |
| \\      /  F ield         | OpenFOAM: The Open Source CFD Toolbox           |
|  \\    /   O peration     | Version:  3.0.1                                 |
|   \\  /    A nd           | Web:      www.OpenFOAM.org                      |
|    \\/     M anipulation  |                                                 |
\*---------------------------------------------------------------------------*/
FoamFile
{
    version     2.0;
    format      ascii;
    class       volVectorField;
    location    "3500/fluid";
    object      U;
}
// * * * * * * * * * * * * * * * * * * * * * * * * * * * * * * * * * * * * * //

dimensions      [0 1 -1 0 0 0 0];

internalField   nonuniform List<vector> 
5000
(
(2.8592245e-06 1.2483132e-07 0.012951235)
(1.2629336e-05 5.5139568e-07 0.037784222)
(2.6469616e-05 1.1556645e-06 0.062532592)
(4.4568432e-05 1.945863e-06 0.086861913)
(6.6576777e-05 2.9067557e-06 0.11041752)
(9.1494298e-05 3.9946681e-06 0.13284146)
(0.0001182481 5.1627541e-06 0.15379277)
(0.0001455404 6.3543488e-06 0.17296963)
(0.00017204289 7.5114631e-06 0.19013094)
(0.00019646002 8.5775324e-06 0.20511475)
(0.00021767157 9.5036451e-06 0.21785056)
(0.00023481689 1.0252222e-05 0.22836367)
(0.00024736475 1.0800075e-05 0.23677021)
(0.00025514332 1.1139697e-05 0.24326351)
(0.00025831945 1.1278377e-05 0.24809342)
(0.00025735352 1.1236208e-05 0.25154159)
(0.00025291687 1.1042506e-05 0.25389618)
(0.00024580731 1.0732103e-05 0.25542924)
(0.00023685523 1.0341252e-05 0.25637958)
(0.00022684928 9.9043877e-06 0.25694239)
(0.00021647436 9.4514117e-06 0.25726597)
(0.00020627854 9.0062562e-06 0.25745444)
(0.00019665857 8.5862392e-06 0.25757473)
(0.00018786775 8.2024215e-06 0.25766554)
(0.00018003254 7.8603393e-06 0.25774639)
(0.00017317573 7.5609613e-06 0.25782525)
(0.00016723473 7.3015686e-06 0.25790415)
(0.0001620779 7.0764221e-06 0.25798264)
(0.00015751422 6.8771657e-06 0.25805961)
(0.00015330224 6.6932728e-06 0.25813403)
(0.00014916069 6.5124472e-06 0.25820512)
(0.00014478423 6.3213706e-06 0.25827231)
(0.00013986514 6.1066027e-06 0.25833516)
(0.0001341218 5.8558461e-06 0.2583933)
(0.00012732936 5.5592861e-06 0.25844647)
(0.00011935056 5.2109265e-06 0.25849443)
(0.00011016012 4.80967e-06 0.25853709)
(9.9858155e-05 4.359879e-06 0.25857442)
(8.8668159e-05 3.8713185e-06 0.2586065)
(7.6920416e-05 3.3584031e-06 0.25863353)
(6.5017229e-05 2.8387012e-06 0.2586558)
(5.3390986e-05 2.3310926e-06 0.2586737)
(4.2451029e-05 1.8534455e-06 0.2586877)
(3.2523562e-05 1.4200041e-06 0.25869838)
(2.3865323e-05 1.0419791e-06 0.25870602)
(1.6636627e-05 7.2636808e-07 0.25871122)
(1.084855e-05 4.7365651e-07 0.25871442)
(6.4040266e-06 2.7960485e-07 0.25871613)
(3.0267249e-06 1.321492e-07 0.25871688)
(7.6931643e-07 3.3589024e-08 0.2587168)
(3.4086254e-05 1.4881854e-06 0.0081606982)
(0.00013115449 5.7261607e-06 0.024424965)
(0.00029261852 1.2775683e-05 0.041396382)
(0.00053276061 2.3260306e-05 0.058994768)
(0.00083672306 3.6531334e-05 0.077099294)
(0.0012035712 5.2547999e-05 0.095542611)
(0.0016192543 7.0696835e-05 0.11410863)
(0.0020696343 9.0360519e-05 0.13253548)
(0.0025346897 0.00011066498 0.15052493)
(0.0029930264 0.00013067612 0.16775828)
(0.0034216367 0.00014938941 0.18391692)
(0.0037987924 0.00016585616 0.19870999)
(0.0041054536 0.00017924519 0.21189655)
(0.0043274462 0.0001889375 0.22330869)
(0.004456633 0.00019457793 0.23286544)
(0.0044917602 0.00019611167 0.24057983)
(0.0044382435 0.0001937752 0.24655494)
(0.0043072455 0.00018805585 0.25097137)
(0.0041139299 0.00017961568 0.25406577)
(0.0038753567 0.00016919953 0.25610446)
(0.0036082938 0.00015753949 0.25735487)
(0.003327442 0.00014527745 0.25806024)
(0.0030443151 0.00013291602 0.25842099)
(0.0027669295 0.00012080524 0.25858611)
(0.0025001559 0.00010915794 0.25865435)
(0.0022464945 9.808294e-05 0.25868289)
(0.0020069401 8.7623875e-05 0.25869954)
(0.0017817184 7.7790666e-05 0.25871468)
(0.0015707751 6.8580791e-05 0.25873025)
(0.0013740322 5.9990957e-05 0.25874533)
(0.0011914756 5.2020445e-05 0.25875867)
(0.0010231581 4.4671639e-05 0.25876954)
(0.00086916111 3.794806e-05 0.2587777)
(0.00072955026 3.1852583e-05 0.25878322)
(0.00060432291 2.638509e-05 0.25878631)
(0.00049335961 2.1540365e-05 0.25878726)
(0.00039637793 1.7306101e-05 0.25878635)
(0.00031289356 1.366112e-05 0.25878394)
(0.00024222621 1.0575746e-05 0.25878016)
(0.00018350935 8.0121263e-06 0.25877536)
(0.00013569942 5.9247145e-06 0.25876969)
(9.7674494e-05 4.2645263e-06 0.2587634)
(6.8277578e-05 2.9810379e-06 0.25875658)
(4.5850329e-05 2.001849e-06 0.25875141)
(2.8915331e-05 1.2624575e-06 0.2587459)
(1.6907602e-05 7.3819242e-07 0.25874018)
(8.6858433e-06 3.7922651e-07 0.2587349)
(3.6639169e-06 1.5996668e-07 0.25872988)
(8.1110979e-07 3.5412254e-08 0.2587264)
(-8.6599109e-08 -3.781216e-09 0.2587232)
(5.6981469e-06 2.4877024e-07 0.0079913629)
(4.4848694e-06 1.9575765e-07 0.023784862)
(3.0991351e-05 1.3529923e-06 0.040119818)
(5.4073271e-05 2.3606857e-06 0.056914738)
(9.7631245e-05 4.2623494e-06 0.074068848)
(0.00015423177 6.7334474e-06 0.091460002)
(0.00023084556 1.0078304e-05 0.10894303)
(0.00032551781 1.4211574e-05 0.12634823)
(0.00043380157 1.8939122e-05 0.14348095)
(0.00058280985 2.5444698e-05 0.16012327)
(0.00070344229 3.0711355e-05 0.17603846)
(0.00085942554 3.752146e-05 0.19098098)
(0.00099099779 4.3265792e-05 0.20470979)
(0.00111839 4.8827637e-05 0.21700809)
(0.0012143161 5.3015697e-05 0.22770393)
(0.0012825544 5.5994934e-05 0.23669142)
(0.0013114138 5.725491e-05 0.24394624)
(0.0013044329 5.6950118e-05 0.24953322)
(0.0012612568 5.506506e-05 0.25360201)
(0.0011896261 5.1937687e-05 0.25637109)
(0.0010960932 4.785408e-05 0.25810144)
(0.00099017161 4.3229599e-05 0.25906487)
(0.00087929615 3.8388828e-05 0.25951289)
(0.00077034164 3.363193e-05 0.25965296)
(0.00066742199 2.9138567e-05 0.25963632)
(0.00057316252 2.5023264e-05 0.25955855)
(0.00048833262 2.1319659e-05 0.25946984)
(0.00041300941 1.8031147e-05 0.25938995)
(0.0003466739 1.5135013e-05 0.25932222)
(0.00028878659 1.260775e-05 0.25926381)
(0.00023870817 1.0421398e-05 0.25921114)
(0.00019583453 8.5496192e-06 0.25916187)
(0.00015947664 6.9623071e-06 0.25911501)
(0.00012890673 5.6276898e-06 0.25907036)
(0.00010333329 4.5112194e-06 0.25902806)
(8.1970774e-05 3.5785838e-06 0.25898834)
(6.4038292e-05 2.7957015e-06 0.25895138)
(4.8793832e-05 2.1301694e-06 0.25891869)
(3.5288959e-05 1.5405814e-06 0.25888875)
(2.3563733e-05 1.0286861e-06 0.25886161)
(1.3148583e-05 5.7398132e-07 0.25883695)
(4.0852842e-06 1.7829455e-07 0.25881503)
(1.8013541e-06 7.8593569e-08 0.25879492)
(-3.3653965e-08 -1.5102721e-09 0.25877715)
(-6.3442658e-06 -2.770252e-07 0.25876185)
(-9.7934133e-06 -4.2760874e-07 0.25874814)
(-1.1418045e-05 -4.9853496e-07 0.25873722)
(-1.0305754e-05 -4.4996604e-07 0.25872742)
(-8.3865446e-06 -3.6616802e-07 0.25872142)
(-3.879329e-06 -1.6937577e-07 0.25871544)
(1.2865244e-05 5.6170118e-07 0.008220663)
(5.6356623e-07 2.4582291e-08 0.024423323)
(-1.8996304e-06 -8.2988728e-08 0.041126472)
(-4.2942801e-06 -1.875767e-07 0.058233086)
(-6.7422775e-06 -2.9451748e-07 0.075625888)
(-9.7802336e-06 -4.2722102e-07 0.093167444)
(-9.8050824e-06 -4.284077e-07 0.11070063)
(-1.3498574e-05 -5.8979068e-07 0.12805041)
(-2.8079518e-06 -1.2323955e-07 0.14502606)
(1.8164333e-05 7.9215914e-07 0.16142646)
(3.3408542e-05 1.4575178e-06 0.1770423)
(6.3308352e-05 2.7627156e-06 0.19166415)
(9.3933375e-05 4.0996027e-06 0.205093)
(0.00013135578 5.7332533e-06 0.2171495)
(0.00016755093 7.3133403e-06 0.22768858)
(0.00020233496 8.8318472e-06 0.23661303)
(0.00022993616 1.0036789e-05 0.24388812)
(0.00024905583 1.087146e-05 0.24955142)
(0.00025705449 1.1220638e-05 0.25371665)
(0.00025479518 1.1121992e-05 0.256567)
(0.00024337358 1.0623362e-05 0.25833827)
(0.00022602226 9.8658784e-06 0.25929254)
(0.00020563566 8.9759025e-06 0.25968766)
(0.00018529717 8.0880487e-06 0.25974879)
(0.00016668469 7.2755817e-06 0.25964874)
(0.00015062165 6.5744218e-06 0.25950106)
(0.00013665203 5.964663e-06 0.25936581)
(0.00012393559 5.4096269e-06 0.25926397)
(0.00011135821 4.8606459e-06 0.25919417)
(9.8160187e-05 4.2845699e-06 0.25914653)
(8.3867828e-05 3.6606977e-06 0.25911105)
(6.8456885e-05 2.9879827e-06 0.2590809)
(5.2140984e-05 2.2757417e-06 0.25905246)
(3.535837e-05 1.5431148e-06 0.25902438)
(1.8638424e-05 8.1321564e-07 0.25899621)
(2.6234984e-06 1.1407976e-07 0.25896836)
(-5.1995315e-06 -2.2740181e-07 0.25894048)
(-1.2403956e-05 -5.4188836e-07 0.25891327)
(-2.4961867e-05 -1.0901131e-06 0.2588869)
(-3.5265937e-05 -1.5399416e-06 0.25886169)
(-4.2184095e-05 -1.8419486e-06 0.25883772)
(-4.7295373e-05 -2.0650748e-06 0.25881529)
(-4.9675269e-05 -2.1689551e-06 0.2587947)
(-4.7451075e-05 -2.0718226e-06 0.25877368)
(-4.5276804e-05 -1.9768736e-06 0.25875567)
(-4.0357654e-05 -1.7620834e-06 0.2587391)
(-3.5079976e-05 -1.5316452e-06 0.25872636)
(-2.686563e-05 -1.1729903e-06 0.25871441)
(-1.9475966e-05 -8.5034523e-07 0.25870764)
(-8.8186017e-06 -3.8502964e-07 0.25870019)
(1.468614e-06 6.4114852e-08 0.0087494921)
(-2.5279619e-06 -1.1039191e-07 0.025965983)
(-1.0777687e-05 -4.7059625e-07 0.043677024)
(-2.5656845e-05 -1.1202508e-06 0.061767376)
(-4.6843739e-05 -2.0453165e-06 0.080098141)
(-7.8316311e-05 -3.4194747e-06 0.098506806)
(-0.00011084839 -4.8399032e-06 0.11680849)
(-0.00017092783 -7.4630857e-06 0.13479886)
(-0.00020845989 -9.1018489e-06 0.15225889)
(-0.00027634957 -1.2066078e-05 0.16896141)
(-0.00034441045 -1.5037807e-05 0.18468071)
(-0.00041589477 -1.8159022e-05 0.19920213)
(-0.00048892822 -2.1347895e-05 0.21233481)
(-0.00056072614 -2.4482837e-05 0.22392328)
(-0.0006285549 -2.7444508e-05 0.23385957)
(-0.00068979855 -3.0118666e-05 0.24209277)
(-0.00074247001 -3.2418551e-05 0.24863655)
(-0.0007851912 -3.4283987e-05 0.25357224)
(-0.00081738076 -3.568957e-05 0.25704698)
(-0.0008389534 -3.6631573e-05 0.25926516)
(-0.00085019996 -3.7122684e-05 0.26047281)
(-0.00085142027 -3.7176e-05 0.26093503)
(-0.00084289884 -3.6803925e-05 0.26090975)
(-0.00082486288 -3.6016383e-05 0.26062184)
(-0.00079776484 -3.4833206e-05 0.2602437)
(-0.00076246235 -3.3291734e-05 0.25988664)
(-0.00072038843 -3.1454596e-05 0.25960478)
(-0.00067346449 -2.9405729e-05 0.25940875)
(-0.00062377674 -2.7236158e-05 0.259284)
(-0.0005733562 -2.5034616e-05 0.25920723)
(-0.00052363836 -2.2863735e-05 0.25915728)
(-0.00047587333 -2.0778132e-05 0.25911965)
(-0.00043029269 -1.8787908e-05 0.25908631)
(-0.00038782077 -1.6933422e-05 0.25905387)
(-0.00034751421 -1.5173479e-05 0.25902123)
(-0.00031130223 -1.3592324e-05 0.25898857)
(-0.00027776858 -1.2128126e-05 0.25895612)
(-0.00024561059 -1.0723997e-05 0.25892302)
(-0.00021738716 -9.491661e-06 0.25889115)
(-0.00019199597 -8.3829852e-06 0.25886064)
(-0.00016926486 -7.3904651e-06 0.25883223)
(-0.00014796732 -6.4605498e-06 0.25880518)
(-0.00012998238 -5.675271e-06 0.25878135)
(-0.00011144057 -4.8656872e-06 0.25875849)
(-9.5574553e-05 -4.1729385e-06 0.25873914)
(-7.8532362e-05 -3.4288388e-06 0.25872075)
(-6.3948359e-05 -2.7920745e-06 0.25870698)
(-4.680127e-05 -2.043404e-06 0.25869348)
(-3.2543188e-05 -1.4208754e-06 0.2586862)
(-1.4740061e-05 -6.435668e-07 0.25867767)
(1.3845029e-06 6.0443324e-08 0.0092307685)
(-2.3703157e-06 -1.0350591e-07 0.027389638)
(-1.0374676e-05 -4.52994e-07 0.046062572)
(-2.4681524e-05 -1.0776555e-06 0.065123469)
(-4.6373166e-05 -2.0247508e-06 0.084419538)
(-7.6501506e-05 -3.3402077e-06 0.10377086)
(-0.00011593493 -5.0619409e-06 0.12297135)
(-0.00016563685 -7.2320165e-06 0.14179138)
(-0.00022603271 -9.8690098e-06 0.15998339)
(-0.00029748812 -1.2988882e-05 0.17728822)
(-0.00037971781 -1.6579187e-05 0.19344735)
(-0.00047184848 -2.0601795e-05 0.20821645)
(-0.00057225293 -2.498567e-05 0.22138096)
(-0.00067847255 -2.9623447e-05 0.23277292)
(-0.00078723268 -3.4372169e-05 0.24228686)
(-0.00089456641 -3.905863e-05 0.24989235)
(-0.00099607799 -4.3490899e-05 0.25564096)
(-0.0010873056 -4.7474161e-05 0.25966587)
(-0.0011641467 -5.0829289e-05 0.26217324)
(-0.0012232417 -5.3409584e-05 0.26342572)
(-0.0012622627 -5.5113398e-05 0.26371959)
(-0.0012800455 -5.5889909e-05 0.2633579)
(-0.0012765944 -5.5739266e-05 0.26262282)
(-0.0012530066 -5.4709377e-05 0.26175102)
(-0.0012113513 -5.2890692e-05 0.26091635)
(-0.0011545685 -5.0411409e-05 0.26022314)
(-0.0010862315 -4.7427628e-05 0.25971159)
(-0.0010103496 -4.4114469e-05 0.25937325)
(-0.00093080564 -4.0641359e-05 0.25917177)
(-0.00085118684 -3.7165015e-05 0.25906259)
(-0.00077403391 -3.3796296e-05 0.25900674)
(-0.00070132949 -3.0621824e-05 0.25897676)
(-0.00063368121 -2.7668113e-05 0.25895674)
(-0.00057169089 -2.4961438e-05 0.25893894)
(-0.00051490212 -2.2481868e-05 0.25892052)
(-0.00046283837 -2.0208606e-05 0.25890047)
(-0.00041582376 -1.8155815e-05 0.25887945)
(-0.00037202911 -1.6243609e-05 0.25885709)
(-0.00033225737 -1.450706e-05 0.25883438)
(-0.00029483631 -1.2873142e-05 0.25881104)
(-0.00026112964 -1.1401411e-05 0.2587885)
(-0.00022810417 -9.9594372e-06 0.25876559)
(-0.00019895833 -8.6868555e-06 0.25874469)
(-0.00016936659 -7.3948138e-06 0.25872372)
(-0.0001436869 -6.2735861e-06 0.25870591)
(-0.00011654865 -5.0886775e-06 0.25868794)
(-9.3592228e-05 -4.0863625e-06 0.25867477)
(-6.7790775e-05 -2.9598307e-06 0.25866103)
(-4.643079e-05 -2.0272243e-06 0.25865394)
(-2.121517e-05 -9.2627691e-07 0.25864494)
(1.2777577e-06 5.5783373e-08 0.0097213365)
(-2.5341504e-06 -1.1065671e-07 0.028846525)
(-1.1075603e-05 -4.8359222e-07 0.048512959)
(-2.6430118e-05 -1.1539921e-06 0.068585486)
(-4.983254e-05 -2.1757765e-06 0.088899575)
(-8.2481054e-05 -3.60126e-06 0.10926046)
(-0.00012555883 -5.4821006e-06 0.12944364)
(-0.0001801822 -7.8670412e-06 0.14919736)
(-0.00024731094 -1.0797985e-05 0.16824753)
(-0.00032764303 -1.4305405e-05 0.18630584)
(-0.00042148381 -1.8402643e-05 0.20308137)
(-0.00052858591 -2.3078894e-05 0.21829595)
(-0.00064797345 -2.8291562e-05 0.23170282)
(-0.00077777487 -3.3958909e-05 0.24310727)
(-0.00091509411 -3.9954514e-05 0.25238726)
(-0.0010559631 -4.610512e-05 0.25951085)
(-0.0011954234 -5.2194237e-05 0.26454688)
(-0.0013277742 -5.7972951e-05 0.26766582)
(-0.0014469918 -6.3178263e-05 0.26912875)
(-0.0015472854 -6.7557327e-05 0.26926472)
(-0.0016237006 -7.0893822e-05 0.26843925)
(-0.0016726646 -7.3031763e-05 0.26701845)
(-0.0016923604 -7.3891773e-05 0.26533421)
(-0.0016828947 -7.3478499e-05 0.26365578)
(-0.0016462156 -7.1877147e-05 0.26217183)
(-0.00158588 -6.9242782e-05 0.26098564)
(-0.0015066017 -6.578132e-05 0.26012354)
(-0.0014137837 -6.1728751e-05 0.25955424)
(-0.0013128301 -5.7320896e-05 0.25921386)
(-0.0012086791 -5.2773479e-05 0.25903011)
(-0.0011052248 -4.8256423e-05 0.25893994)
(-0.0010052267 -4.3890292e-05 0.25889782)
(-0.00091037684 -3.9748946e-05 0.25887625)
(-0.00082125233 -3.585757e-05 0.25886102)
(-0.00073851701 -3.2245156e-05 0.25884642)
(-0.00066130742 -2.8874001e-05 0.25883027)
(-0.00059052588 -2.5783527e-05 0.2588128)
(-0.00052448002 -2.2899807e-05 0.25879378)
(-0.00046465766 -2.0287827e-05 0.25877433)
(-0.00040838999 -1.7831044e-05 0.25875387)
(-0.00035836326 -1.5646758e-05 0.25873416)
(-0.0003102836 -1.3547502e-05 0.25871372)
(-0.00026831839 -1.1715208e-05 0.25869519)
(-0.00022664432 -9.8956337e-06 0.25867597)
(-0.00019093741 -8.3366045e-06 0.25866001)
(-0.00015383562 -6.7166734e-06 0.25864312)
(-0.00012267757 -5.3562646e-06 0.25863117)
(-8.8548247e-05 -3.8661267e-06 0.25861798)
(-6.0159475e-05 -2.6266347e-06 0.25861151)
(-2.7776226e-05 -1.2127396e-06 0.25860256)
(1.1677738e-06 5.0981849e-08 0.010161289)
(-2.3084545e-06 -1.008011e-07 0.030160007)
(-1.0134411e-05 -4.4249603e-07 0.050733148)
(-2.4271129e-05 -1.0597239e-06 0.0717396)
(-4.5939284e-05 -2.0057855e-06 0.093006707)
(-7.6367707e-05 -3.3343331e-06 0.11432894)
(-0.00011682639 -5.100815e-06 0.13546789)
(-0.00016858871 -7.3608315e-06 0.15615424)
(-0.00023286785 -1.0167349e-05 0.17609223)
(-0.00031072658 -1.3566766e-05 0.19496751)
(-0.00040295725 -1.7593688e-05 0.21245891)
(-0.00050992824 -2.2264197e-05 0.22825456)
(-0.00063139841 -2.7567773e-05 0.24207222)
(-0.00076630904 -3.3458168e-05 0.25368284)
(-0.00091257509 -3.9844374e-05 0.26293532)
(-0.0010669134 -4.658304e-05 0.26977915)
(-0.0012247609 -5.3474933e-05 0.27428045)
(-0.001380345 -6.0268013e-05 0.27662708)
(-0.0015269593 -6.6669478e-05 0.27711926)
(-0.0016574655 -7.2367641e-05 0.27614461)
(-0.0017649849 -7.7062175e-05 0.27414019)
(-0.0018436825 -8.0498325e-05 0.2715472)
(-0.001889496 -8.249868e-05 0.26876601)
(-0.0019006632 -8.2986284e-05 0.26611938)
(-0.001877941 -8.1994346e-05 0.26382963)
(-0.0018244736 -7.9659883e-05 0.26201271)
(-0.0017453614 -7.62057e-05 0.26068887)
(-0.0016469398 -7.1908505e-05 0.2598062)
(-0.0015360221 -6.7065627e-05 0.25927135)
(-0.0014189353 -6.1953443e-05 0.25897963)
(-0.0013011192 -5.6809347e-05 0.2588381)
(-0.0011862595 -5.1794358e-05 0.25877754)
(-0.0010771162 -4.7028956e-05 0.25875422)
(-0.00097434517 -4.2541763e-05 0.25874439)
(-0.00087910676 -3.8383459e-05 0.25873756)
(-0.00079012106 -3.4498151e-05 0.25872951)
(-0.00070855062 -3.0936629e-05 0.25871969)
(-0.00063189865 -2.7589835e-05 0.2587076)
(-0.00056233798 -2.4552674e-05 0.25869443)
(-0.00049601746 -2.1656974e-05 0.2586794)
(-0.00043672014 -1.9067923e-05 0.25866449)
(-0.00037893922 -1.6545098e-05 0.25864804)
(-0.00032824625 -1.4331737e-05 0.25863306)
(-0.00027737482 -1.2110594e-05 0.25861658)
(-0.00023367832 -1.0202728e-05 0.25860314)
(-0.00018817225 -8.2158535e-06 0.25858805)
(-0.00014976141 -6.5387786e-06 0.25857771)
(-0.00010816172 -4.7224747e-06 0.25856559)
(-7.3154239e-05 -3.1940015e-06 0.25855996)
(-3.4120613e-05 -1.4897423e-06 0.25855137)
(1.0723648e-06 4.6816569e-08 0.010577652)
(-2.226265e-06 -9.7211471e-08 0.031405466)
(-9.7721792e-06 -4.2667855e-07 0.052842204)
(-2.3434386e-05 -1.0231874e-06 0.074741996)
(-4.4416254e-05 -1.939283e-06 0.096925599)
(-7.3947574e-05 -3.2286593e-06 0.11917867)
(-0.00011332027 -4.9477223e-06 0.1412513)
(-0.00016386028 -7.1543661e-06 0.16285948)
(-0.000226877 -9.9057584e-06 0.18368912)
(-0.00030358977 -1.3255134e-05 0.20340341)
(-0.00039502618 -1.7247368e-05 0.22165448)
(-0.00050188711 -2.1913059e-05 0.23809969)
(-0.00062437473 -2.7261044e-05 0.25242287)
(-0.00076198603 -3.3269339e-05 0.2643598)
(-0.00091328323 -3.9875192e-05 0.27372615)
(-0.0010756663 -4.696508e-05 0.28044448)
(-0.0012451935 -5.4366899e-05 0.28456576)
(-0.0014165126 -6.1846964e-05 0.28627984)
(-0.0015829755 -6.9115023e-05 0.28591003)
(-0.0017369941 -7.5839747e-05 0.28388912)
(-0.0018706594 -8.1675826e-05 0.28071818)
(-0.0019765659 -8.6299948e-05 0.27691378)
(-0.0020487306 -8.9450823e-05 0.27295299)
(-0.0020833974 -9.0964455e-05 0.269226)
(-0.002079604 -9.0799001e-05 0.26600503)
(-0.0020392844 -8.9038606e-05 0.2634339)
(-0.0019670503 -8.588475e-05 0.26153825)
(-0.0018693802 -8.1620398e-05 0.26025238)
(-0.0017539 -7.657833e-05 0.25945557)
(-0.0016279847 -7.1080712e-05 0.2590091)
(-0.0014984679 -6.5425761e-05 0.25878612)
(-0.0013700731 -5.9819824e-05 0.25868879)
(-0.0012467404 -5.443491e-05 0.25865267)
(-0.0011295447 -4.9317929e-05 0.25864118)
(-0.0010203969 -4.4552334e-05 0.25863703)
(-0.00091781758 -4.0073516e-05 0.25863298)
(-0.00082366437 -3.5962623e-05 0.2586274)
(-0.0007347622 -3.2080976e-05 0.25861938)
(-0.00065421109 -2.8563964e-05 0.25861014)
(-0.00057710918 -2.5197538e-05 0.25859876)
(-0.00050836792 -2.2196155e-05 0.25858738)
(-0.00044114403 -1.9261041e-05 0.25857408)
(-0.00038232588 -1.6692924e-05 0.25856212)
(-0.00032313137 -1.4108384e-05 0.25854822)
(-0.00027227867 -1.1888069e-05 0.25853717)
(-0.00021938983 -9.5788526e-06 0.25852403)
(-0.00017446277 -7.6172705e-06 0.25851536)
(-0.00012624707 -5.5121029e-06 0.25850458)
(-8.5140581e-05 -3.7173394e-06 0.25849984)
(-4.0073574e-05 -1.749655e-06 0.25849182)
(9.889881e-07 4.3176563e-08 0.010959958)
(-2.066549e-06 -9.0237201e-08 0.032551967)
(-9.0869154e-06 -3.967576e-07 0.054788313)
(-2.1826947e-05 -9.5300261e-07 0.077519723)
(-4.1442523e-05 -1.8094433e-06 0.10056202)
(-6.9132612e-05 -3.0184278e-06 0.12369403)
(-0.00010617763 -4.6358598e-06 0.14665668)
(-0.00015392031 -6.7203664e-06 0.16915393)
(-0.00021372686 -9.3315953e-06 0.19085631)
(-0.00028692734 -1.2527616e-05 0.21140772)
(-0.00037472994 -1.6361188e-05 0.23043672)
(-0.00047810261 -2.087457e-05 0.24757267)
(-0.00059761623 -2.6092697e-05 0.26246745)
(-0.00073324635 -3.2014479e-05 0.2748221)
(-0.00088413892 -3.8602652e-05 0.2844172)
(-0.0010483563 -4.5772614e-05 0.29114351)
(-0.001222639 -5.3382045e-05 0.29502847)
(-0.001402239 -6.1223648e-05 0.2962523)
(-0.0015809031 -6.9024404e-05 0.29514773)
(-0.0017510799 -7.6454599e-05 0.29217909)
(-0.0019044158 -8.3149507e-05 0.28790066)
(-0.0020325194 -8.8742772e-05 0.28289898)
(-0.0021279435 -9.2909177e-05 0.27772905)
(-0.0021851582 -9.540728e-05 0.27285626)
(-0.0022014119 -9.6117119e-05 0.26861502)
(-0.0021771014 -9.5055717e-05 0.26519095)
(-0.0021158583 -9.2381752e-05 0.26262792)
(-0.0020237866 -8.8361859e-05 0.26085596)
(-0.0019088747 -8.3344618e-05 0.25973228)
(-0.0017792624 -7.7685602e-05 0.25908526)
(-0.0016430254 -7.173725e-05 0.25875194)
(-0.0015059304 -6.5751468e-05 0.25860182)
(-0.0013731412 -5.9953679e-05 0.25854531)
(-0.0012461916 -5.441084e-05 0.25852931)
(-0.0011277838 -4.9240948e-05 0.25852725)
(-0.0010161328 -4.4366057e-05 0.25852747)
(-0.00091373805 -3.9895334e-05 0.2585266)
(-0.00081661759 -3.5654871e-05 0.25852309)
(-0.00072869648 -3.1816081e-05 0.25851806)
(-0.00064399122 -2.8117688e-05 0.25851053)
(-0.00056849165 -2.4821232e-05 0.2585027)
(-0.00049412349 -2.1574192e-05 0.25849257)
(-0.00042899206 -1.8730429e-05 0.25848353)
(-0.00036310674 -1.585376e-05 0.25847219)
(-0.0003062799 -1.3372606e-05 0.25846342)
(-0.00024718972 -1.0792631e-05 0.25845228)
(-0.00019655435 -8.5818169e-06 0.25844521)
(-0.00014259715 -6.2259672e-06 0.25843586)
(-9.5982578e-05 -4.190714e-06 0.258432)
(-4.5535534e-05 -1.98813e-06 0.25842463)
(9.1842705e-07 4.0096081e-08 0.011318872)
(-1.9605638e-06 -8.5608978e-08 0.033629669)
(-8.6229633e-06 -3.7649972e-07 0.056619801)
(-2.0729448e-05 -9.0508289e-07 0.080137307)
(-3.9392732e-05 -1.7199447e-06 0.10399401)
(-6.5776427e-05 -2.8718895e-06 0.1279631)
(-0.00010113403 -4.4156453e-06 0.15177783)
(-0.00014679545 -6.4092792e-06 0.17513205)
(-0.00020413649 -8.9128586e-06 0.19768312)
(-0.00027453026 -1.1986332e-05 0.21905831)
(-0.00035927536 -1.5686406e-05 0.23886546)
(-0.00045949372 -2.0062062e-05 0.25670897)
(-0.00057599143 -2.5148504e-05 0.27221143)
(-0.00070907695 -3.0959179e-05 0.28504112)
(-0.00085833633 -3.7476036e-05 0.29494397)
(-0.0010223744 -4.4638159e-05 0.30177723)
(-0.0011985491 -5.2330183e-05 0.3055402)
(-0.001382743 -6.0372345e-05 0.30639571)
(-0.0015692485 -6.8515455e-05 0.30467539)
(-0.0017508446 -7.6444211e-05 0.30086321)
(-0.0019191551 -8.3792913e-05 0.29555523)
(-0.0020653021 -9.0173964e-05 0.28939956)
(-0.0021808587 -9.5219372e-05 0.28302565)
(-0.0022588856 -9.8626154e-05 0.27697637)
(-0.0022949938 -0.00010020288 0.27165577)
(-0.0022879472 -9.9895244e-05 0.26730216)
(-0.0022400739 -9.7805034e-05 0.26398944)
(-0.0021566442 -9.4162481e-05 0.26165385)
(-0.0020455145 -8.9310391e-05 0.2601379)
(-0.0019151765 -8.3619707e-05 0.2592406)
(-0.0017746733 -7.7485098e-05 0.25876286)
(-0.001630705 -7.1199229e-05 0.25853885)
(-0.001489694 -6.5042478e-05 0.25845006)
(-0.0013537413 -5.9106553e-05 0.25842325)
(-0.0012264985 -5.3550924e-05 0.2584199)
(-0.0011060175 -4.8290506e-05 0.25842234)
(-0.00099554459 -4.346709e-05 0.25842468)
(-0.00089041956 -3.8877141e-05 0.2584245)
(-0.00079539231 -3.4728094e-05 0.25842266)
(-0.00070352724 -3.0717099e-05 0.25841815)
(-0.00062175748 -2.7146881e-05 0.25841313)
(-0.00054096366 -2.3619292e-05 0.25840567)
(-0.00047016809 -2.0528227e-05 0.25839905)
(-0.00039846345 -1.7397479e-05 0.25839001)
(-0.00033635085 -1.4685543e-05 0.2583832)
(-0.00027191772 -1.1872287e-05 0.25837395)
(-0.00021621396 -9.4401803e-06 0.25836831)
(-0.00015725935 -6.866137e-06 0.25836037)
(-0.00010569907 -4.6149478e-06 0.25835733)
(-5.0481055e-05 -2.2040569e-06 0.25835062)
(8.577062e-07 3.7445211e-08 0.011654076)
(-1.8448655e-06 -8.0556753e-08 0.034637567)
(-8.120588e-06 -3.5456438e-07 0.058334872)
(-1.953917e-05 -8.5311258e-07 0.082592003)
(-3.7166151e-05 -1.6227276e-06 0.10721763)
(-6.2124402e-05 -2.7124351e-06 0.13198036)
(-9.5633487e-05 -4.1754816e-06 0.15660709)
(-0.00013900103 -6.0689611e-06 0.18078311)
(-0.00019359891 -8.4527688e-06 0.20415451)
(-0.00026082336 -1.1387864e-05 0.22633404)
(-0.00034203453 -1.4933639e-05 0.24691128)
(-0.00043846794 -1.9144037e-05 0.26546816)
(-0.00055111038 -2.4062148e-05 0.28160046)
(-0.00068053367 -2.971292e-05 0.29494572)
(-0.00082668258 -3.6093963e-05 0.30521631)
(-0.00098862021 -4.3164369e-05 0.31223549)
(-0.0011642503 -5.0832605e-05 0.31597182)
(-0.0013500518 -5.894495e-05 0.31656548)
(-0.0015408955 -6.7277453e-05 0.31433914)
(-0.0017300153 -7.5534693e-05 0.30978649)
(-0.0019092447 -8.3360116e-05 0.30353505)
(-0.0020695449 -9.0359097e-05 0.2962854)
(-0.0022018848 -9.6137276e-05 0.28873572)
(-0.0022982699 -0.0001003456 0.28150516)
(-0.0023529271 -0.0001027322 0.27507124)
(-0.0023630791 -0.00010317548 0.26973267)
(-0.0023296559 -0.00010171619 0.26560345)
(-0.0022568458 -9.8537311e-05 0.26263615)
(-0.0021520342 -9.3961086e-05 0.26066692)
(-0.0020237265 -8.8359064e-05 0.25947065)
(-0.0018816647 -8.2156411e-05 0.25881381)
(-0.001733331 -7.5679959e-05 0.25849399)
(-0.0015863578 -6.9262898e-05 0.25836074)
(-0.0014434531 -6.3023446e-05 0.25831719)
(-0.0013092505 -5.716395e-05 0.25831003)
(-0.0011817166 -5.1595599e-05 0.25831376)
(-0.0010648006 -4.6490876e-05 0.25831893)
(-0.00095324624 -4.1620217e-05 0.25832188)
(-0.00085249257 -3.7221151e-05 0.25832302)
(-0.00075481137 -3.2956221e-05 0.25832133)
(-0.00066786211 -2.9159862e-05 0.25831887)
(-0.00058175693 -2.5400376e-05 0.25831385)
(-0.00050614037 -2.2098821e-05 0.25830938)
(-0.00042954136 -1.875438e-05 0.25830244)
(-0.00036282447 -1.5841415e-05 0.25829735)
(-0.00029382395 -1.2828741e-05 0.25828985)
(-0.0002336401 -1.0201028e-05 0.25828549)
(-0.00017033962 -7.4372379e-06 0.25827887)
(-0.00011436358 -4.9932509e-06 0.25827657)
(-5.4923803e-05 -2.3980322e-06 0.2582705)
(8.0569412e-07 3.5174511e-08 0.011970311)
(-1.7519163e-06 -7.649791e-08 0.035589248)
(-7.7138609e-06 -3.3680533e-07 0.059955593)
(-1.8571133e-05 -8.1084584e-07 0.084913756)
(-3.5346325e-05 -1.5432703e-06 0.11026981)
(-5.9122397e-05 -2.5813618e-06 0.13578854)
(-9.1082127e-05 -3.976761e-06 0.16119143)
(-0.00013250276 -5.7852351e-06 0.18615638)
(-0.00018473719 -8.0658511e-06 0.21031972)
(-0.00024918135 -1.0879554e-05 0.23328147)
(-0.00032722283 -1.4286935e-05 0.254615)
(-0.00042016424 -1.8344865e-05 0.27388206)
(-0.00052911346 -2.3101723e-05 0.29065405)
(-0.00065483285 -2.8590774e-05 0.30453993)
(-0.00079754231 -3.4821641e-05 0.3152202)
(-0.00095667472 -4.1769561e-05 0.32248469)
(-0.0011305978 -4.9363263e-05 0.32627009)
(-0.0013163289 -5.7472521e-05 0.32669063)
(-0.0015093036 -6.5898057e-05 0.32405431)
(-0.0017032677 -7.4366795e-05 0.3188567)
(-0.0018904065 -8.253754e-05 0.31174763)
(-0.0020617505 -9.0018698e-05 0.30347136)
(-0.0022079615 -9.6402494e-05 0.2947879)
(-0.0023203067 -0.00010130765 0.28638938)
(-0.0023919013 -0.00010443375 0.27882755)
(-0.0024185909 -0.00010559909 0.27246648)
(-0.0023999199 -0.0001047839 0.26746803)
(-0.0023388515 -0.00010211769 0.26381015)
(-0.0022420335 -9.789049e-05 0.26133109)
(-0.0021176743 -9.2460876e-05 0.25978787)
(-0.001975919 -8.6271619e-05 0.2589157)
(-0.001824847 -7.9675613e-05 0.25847578)
(-0.0016731964 -7.3054341e-05 0.25828359)
(-0.0015243293 -6.6554573e-05 0.25821565)
(-0.001383887 -6.0422646e-05 0.25820099)
(-0.001249905 -5.4572768e-05 0.25820426)
(-0.0011270123 -4.9207094e-05 0.25821135)
(-0.0010095355 -4.4077862e-05 0.25821683)
(-0.00090346694 -3.9446743e-05 0.25822045)
(-0.00080050944 -3.4951447e-05 0.25822117)
(-0.0007088097 -3.094768e-05 0.25822086)
(-0.00061798751 -2.6982246e-05 0.25821797)
(-0.00053801023 -2.3490297e-05 0.2582153)
(-0.00045712999 -1.9958934e-05 0.25821024)
(-0.00038628832 -1.6865877e-05 0.25820661)
(-0.00031330646 -1.3679373e-05 0.2582007)
(-0.00024912392 -1.0877071e-05 0.25819744)
(-0.00018200977 -7.9467714e-06 0.25819204)
(-0.00012208874 -5.3305413e-06 0.25819039)
(-5.8902624e-05 -2.5717519e-06 0.2581849)
(7.6053347e-07 3.3202937e-08 0.012269088)
(-1.6636732e-06 -7.2644639e-08 0.036489128)
(-7.3288111e-06 -3.1999293e-07 0.061489276)
(-1.7653903e-05 -7.7079774e-07 0.0871127)
(-3.3620187e-05 -1.4679042e-06 0.11316336)
(-5.6271762e-05 -2.4568987e-06 0.13940282)
(-8.6754392e-05 -3.7878055e-06 0.16554793)
(-0.00012631286 -5.5149748e-06 0.19127023)
(-0.00017627652 -7.6964453e-06 0.21619746)
(-0.0002380321 -1.0392761e-05 0.23991839)
(-0.00031298003 -1.3665073e-05 0.26199192)
(-0.0004024677 -1.7572207e-05 0.2819616)
(-0.00050769169 -2.2166415e-05 0.29937649)
(-0.0006295611 -2.7487368e-05 0.31381908)
(-0.00076851508 -3.3554263e-05 0.32493969)
(-0.00092429076 -4.0355619e-05 0.33249573)
(-0.0010956502 -4.7837382e-05 0.33639176)
(-0.0012800859 -5.5890074e-05 0.33671405)
(-0.0014735593 -6.4337378e-05 0.33375179)
(-0.0016703318 -7.2928724e-05 0.32799626)
(-0.0018630067 -8.1341171e-05 0.32011193)
(-0.0020428241 -8.9192275e-05 0.31087863)
(-0.0022003462 -9.6069919e-05 0.30111119)
(-0.0023263547 -0.00010157162 0.29157015)
(-0.0024131046 -0.00010535943 0.28288047)
(-0.0024552642 -0.0001072002 0.27547414)
(-0.0024510861 -0.00010701779 0.26956667)
(-0.0024022804 -0.000104887 0.26516903)
(-0.0023145986 -0.0001010587 0.26212949)
(-0.0021957275 -9.5868719e-05 0.26019388)
(-0.0020559515 -8.9765882e-05 0.25907043)
(-0.0019037622 -8.3121104e-05 0.25848523)
(-0.0017488536 -7.6357592e-05 0.25821858)
(-0.0015952562 -6.9651295e-05 0.25811788)
(-0.0014495832 -6.3290993e-05 0.25809175)
(-0.0013100783 -5.7199983e-05 0.25809292)
(-0.0011819757 -5.1606848e-05 0.25810124)
(-0.0010593601 -4.6253247e-05 0.25810894)
(-0.0009486066 -4.1417585e-05 0.25811478)
(-0.00084106645 -3.6722208e-05 0.25811772)
(-0.00074514356 -3.2534055e-05 0.25811932)
(-0.00065021659 -2.8389404e-05 0.25811837)
(-0.00056633681 -2.4727069e-05 0.25811728)
(-0.00048171706 -2.1032436e-05 0.25811389)