/*--------------------------------*- C++ -*----------------------------------*\
| =========                 |                                                 |
| \\      /  F ield         | OpenFOAM: The Open Source CFD Toolbox           |
|  \\    /   O peration     | Version:  4.0                                   |
|   \\  /    A nd           | Web:      www.OpenFOAM.org                      |
|    \\/     M anipulation  |                                                 |
\*---------------------------------------------------------------------------*/
FoamFile
{
    version     2.0;
    format      ascii;
    class       surfaceScalarField;
    location    "754";
    object      phi;
}
// * * * * * * * * * * * * * * * * * * * * * * * * * * * * * * * * * * * * * //

dimensions      [1 0 -1 0 0 0 0];

internalField   nonuniform List<scalar> 
9850
(
9.0541047e-11
1.7755358e-10
3.706454e-10
5.9961859e-10
8.5915481e-10
1.1530695e-09
1.5666182e-09
1.8663486e-09
2.4912832e-09
2.770824e-09
3.6150768e-09
3.8994665e-09
4.9001514e-09
5.2847121e-09
6.2868888e-09
6.9553862e-09
7.6944151e-09
8.9328089e-09
9.0245921e-09
1.1226521e-08
1.0170057e-08
1.3830503e-08
1.102603e-08
1.6721179e-08
1.1504457e-08
1.9858726e-08
1.1547858e-08
2.3193013e-08
1.1139509e-08
2.6674684e-08
1.0306922e-08
3.0270538e-08
9.1170603e-09
3.3980838e-08
7.6643141e-09
3.7855162e-08
6.0545026e-09
4.2003675e-08
4.3891294e-09
4.6602121e-08
2.7534433e-09
5.1890895e-08
1.2097665e-09
5.8170008e-08
-2.0431142e-10
6.5792247e-08
-1.4741735e-09
7.515668e-08
-2.6069519e-09
8.6705565e-08
-3.6294431e-09
1.0092515e-07
-4.5836774e-09
1.1835256e-07
-5.5224162e-09
1.395924e-07
-6.5031167e-09
1.6534243e-07
-7.5811265e-09
1.9642804e-07
-8.8029904e-09
2.33844e-07
-1.0201784e-08
2.7880113e-07
-1.179513e-08
3.327766e-07
-1.3586161e-08
3.9756868e-07
-1.5567155e-08
4.753584e-07
-1.772539e-08
5.6878204e-07
-2.0050927e-08
6.8101819e-07
-2.2546559e-08
8.158921e-07
-2.5240847e-08
9.7800042e-07
-2.8205867e-08
1.1728567e-06
-3.1569047e-08
1.4070519e-06
-3.5571926e-08
1.6884796e-06
-4.054694e-08
2.0264207e-06
-4.7054319e-08
2.4320354e-06
-5.6315587e-08
2.9182437e-06
-6.8473339e-08
3.4989166e-06
-9.0886106e-08
4.1962754e-06
-1.21922e-07
5.0150376e-06
-2.2941295e-07
6.0922157e-06
6.4304221e-06
-7.3988968e-11
2.5153708e-10
-3.1784901e-10
8.4348551e-10
-7.7322965e-10
1.6084583e-09
-1.4887088e-09
2.5818361e-09
-2.5207201e-09
3.8028431e-09
-3.9346539e-09
5.313407e-09
-5.8059207e-09
7.1559844e-09
-8.2205393e-09
9.3700088e-09
-1.1274368e-08
1.1986641e-08
-1.5069587e-08
1.5021743e-08
-1.9706614e-08
1.8467534e-08
-2.5269821e-08
2.2284393e-08
-3.1806662e-08
2.6395581e-08
-3.9302506e-08
3.0688879e-08
-4.7657061e-08
3.5029271e-08
-5.6671103e-08
3.9284623e-08
-6.6051832e-08
4.3361618e-08
-7.5440248e-08
4.7243634e-08
-8.4455794e-08
5.1019278e-08
-9.2746431e-08
5.4892806e-08
-1.0003035e-07
5.9174843e-08
-1.0611985e-07
6.4259512e-08
-1.109255e-07
7.0597884e-08
-1.1444532e-07
7.8676471e-08
-1.1674526e-07
8.9005463e-08
-1.1793864e-07
1.0211846e-07
-1.1816845e-07
1.1858227e-07
-1.1759226e-07
1.3901613e-07
-1.1636993e-07
1.6412002e-07
-1.1465403e-07
1.9471207e-07
-1.1258415e-07
2.3177403e-07
-1.102864e-07
2.7650331e-07
-1.0787918e-07
3.3036931e-07
-1.054836e-07
3.9517303e-07
-1.0323622e-07
4.7311099e-07
-1.0130122e-07
5.6684699e-07
-9.9880051e-08
6.7959699e-07
-9.9219946e-08
8.1523197e-07
-9.9620785e-08
9.7840125e-07
-1.0145673e-07
1.1746927e-06
-1.0518589e-07
1.410781e-06
-1.1140542e-07
1.6946991e-06
-1.210475e-07
2.0360628e-06
-1.3484049e-07
2.4458284e-06
-1.559736e-07
2.9393767e-06
-1.8375617e-07
3.5266996e-06
-2.2939214e-07
4.2419105e-06
-3.17196e-07
5.1028434e-06
-4.9655515e-07
6.2715718e-06
5.9338695e-06
-3.641408e-11
2.8794495e-10
-1.614e-10
9.6848373e-10
-4.0477415e-10
1.8518469e-09
-8.0414266e-10
2.9812191e-09
-1.4065617e-09
4.4052752e-09
-2.2703473e-09
6.1772034e-09
-3.4669807e-09
8.3526263e-09
-5.0829479e-09
1.0985981e-08
-7.2211767e-09
1.4124873e-08
-1.0001431e-08
1.7801998e-08
-1.3558469e-08
2.202457e-08
-1.8036031e-08
2.6761955e-08
-2.3574035e-08
3.1933589e-08
-3.0286426e-08
3.7401282e-08
-3.8229114e-08
4.2971985e-08
-4.7362207e-08
4.8417761e-08
-5.7517212e-08
5.351669e-08
-6.8384248e-08
5.8110756e-08
-7.9531532e-08
6.2166662e-08
-9.0458085e-08
6.5819462e-08
-1.0066627e-07
6.9383121e-08
-1.0973258e-07
7.3325905e-08
-1.1735792e-07
7.8223278e-08
-1.23389e-07
8.4707574e-08
-1.278138e-07
9.343026e-08
-1.3073939e-07
1.0504401e-07
-1.3236168e-07
1.2020447e-07
-1.3293394e-07
1.3958828e-07
-1.3273775e-07
1.6392372e-07
-1.320578e-07
1.9403201e-07
-1.3116188e-07
2.30878e-07
-1.3028745e-07
2.756288e-07
-1.2963653e-07
3.2971833e-07
-1.2937922e-07
3.9491566e-07
-1.2966497e-07
4.7339669e-07
-1.3063964e-07
5.6782163e-07
-1.3246611e-07
6.814235e-07
-1.3535009e-07
8.1811593e-07
-1.3956627e-07
9.8261744e-07
-1.4549572e-07
1.1806221e-06
-1.5369746e-07
1.4189827e-06
-1.6483225e-07
1.7058339e-06
-1.8024836e-07
2.0514788e-06
-2.0080596e-07
2.4663862e-06
-2.29739e-07
2.9683091e-06
-2.6912831e-07
3.5660898e-06
-3.2697505e-07
4.2997559e-06
-4.5259153e-07
5.2284614e-06
-5.7689075e-07
6.3958697e-06
5.3569801e-06
-2.6178043e-11
3.141158e-10
-1.1652848e-10
1.0588515e-09
-2.9338e-10
2.0287188e-09
-5.8540699e-10
3.2732666e-09
-1.0293348e-09
4.8492216e-09
-1.6719437e-09
6.8198282e-09
-2.5723991e-09
9.2530946e-09
-3.8048159e-09
1.2218407e-08
-5.4608302e-09
1.5780893e-08
-7.651739e-09
1.9992909e-08
-1.0509402e-08
2.4882233e-08
-1.4184597e-08
3.043715e-08
-1.8840841e-08
3.6589833e-08
-2.4641045e-08
4.3201489e-08
-3.1724414e-08
5.0055366e-08
-4.0172722e-08
5.68661e-08
-4.9969733e-08
6.3313753e-08
-6.0964374e-08
6.9105482e-08
-7.2853926e-08
7.4056326e-08
-8.5201475e-08
7.8167142e-08
-9.7490207e-08
8.1671989e-08
-1.0920068e-07
8.5036507e-08
-1.1988717e-07
8.8909862e-08
-1.2923162e-07
9.4052077e-08
-1.3706573e-07
1.0126439e-07
-1.4336419e-07
1.1134243e-07
-1.4821897e-07
1.2505916e-07
-1.518057e-07
1.4317488e-07
-1.5435016e-07
1.6646804e-07
-1.5609959e-07
1.9578129e-07
-1.5730098e-07
2.3207925e-07
-1.5818778e-07
2.7651547e-07
-1.5897585e-07
3.3050628e-07
-1.5986885e-07
3.9580857e-07
-1.6107181e-07
4.7459963e-07
-1.6281021e-07
5.6956003e-07
-1.653499e-07
6.8396322e-07
-1.6901775e-07
8.2178382e-07
-1.7422457e-07
9.8782426e-07
-1.8146932e-07
1.1878668e-06
-1.914531e-07
1.4289664e-06
-2.0490934e-07
1.7192903e-06
-2.231553e-07
2.0697246e-06
-2.475452e-07
2.4907765e-06
-2.7963788e-07
3.0004011e-06
-3.2481386e-07
3.6112667e-06
-3.9064982e-07
4.365591e-06
-5.191533e-07
5.3569655e-06
-5.413783e-07
6.4180948e-06
4.8156021e-06
-1.9935556e-11
3.3404321e-10
-8.8829889e-11
1.1277682e-09
-2.2394584e-10
2.1638612e-09
-4.476172e-10
3.4969644e-09
-7.8866949e-10
5.1902984e-09
-1.2841904e-09
7.3153702e-09
-1.9816987e-09
9.9506201e-09
-2.9417279e-09
1.3178449e-08
-4.2407501e-09
1.7079925e-08
-5.9742062e-09
2.1726371e-08
-8.2591152e-09
2.7167143e-08
-1.1235273e-08
3.3413306e-08
-1.5063426e-08
4.0417982e-08
-1.9918007e-08
4.8056067e-08
-2.5971509e-08
5.6108871e-08
-3.3367938e-08
6.4262546e-08
-4.2185254e-08
7.2131105e-08
-5.2392094e-08
7.9312394e-08
-6.3811343e-08
8.547568e-08
-7.6107625e-08
9.0463565e-08
-8.8812134e-08
9.4376653e-08
-1.0138434e-07
9.7608882e-08
-1.1329409e-07
1.0081976e-07
-1.2409906e-07
1.0485717e-07
-1.334977e-07
1.1066309e-07
-1.4134984e-07
1.1919458e-07
-1.4766921e-07
1.3137847e-07
-1.5259725e-07
1.4810282e-07
-1.5636817e-07
1.702388e-07
-1.5927215e-07
1.9868509e-07
-1.6162167e-07
2.3442856e-07
-1.6372383e-07
2.7861747e-07
-1.6586196e-07
3.3264425e-07
-1.6828803e-07
3.9823454e-07
-1.712276e-07
4.7753915e-07
-1.7489587e-07
5.7322825e-07
-1.7952183e-07
6.8858915e-07
-1.8537565e-07
8.2763763e-07
-1.9281025e-07
9.9525881e-07
-2.0226637e-07
1.1973229e-06
-2.1438004e-07
1.44108e-06
-2.2994744e-07
1.7348579e-06
-2.4992762e-07
2.0897045e-06
-2.7620756e-07
2.5170569e-06
-3.0915305e-07
3.0333459e-06
-3.556784e-07
3.6577926e-06
-4.2687624e-07
4.4367886e-06
-5.3729528e-07
5.4673848e-06
-4.8810498e-07
6.3689046e-06
4.3274978e-06
-1.7806758e-11
3.5184104e-10
-7.9222908e-11
1.1892115e-09
-1.994385e-10
2.2841086e-09
-3.9798156e-10
3.6955398e-09
-6.9993951e-10
5.4922864e-09
-1.1374514e-09
7.7529083e-09
-1.7515563e-09
1.0564746e-08
-2.5944347e-09
1.4021345e-08
-3.7320473e-09
1.8217548e-08
-5.2470559e-09
2.3241386e-08
-7.2417551e-09
2.9161844e-08
-9.840358e-09
3.6011906e-08
-1.3189478e-08
4.3767097e-08
-1.7454897e-08
5.2321481e-08
-2.2811939e-08
6.1465911e-08
-2.9426479e-08
7.0877093e-08
-3.7424639e-08
8.0129295e-08
-4.6852802e-08
8.8740617e-08
-5.7635769e-08
9.6258744e-08
-6.9547606e-08
1.0237554e-07
-8.2211609e-08
1.0704083e-07
-9.5138254e-08
1.1053572e-07
-1.0779469e-07
1.1347638e-07
-1.1968549e-07
1.1674812e-07
-1.3042104e-07
1.2139875e-07
-1.3975817e-07
1.2853175e-07
-1.476101e-07
1.3923038e-07
-1.5403232e-07
1.5452495e-07
-1.5919414e-07
1.7540048e-07
-1.6334447e-07
2.0283526e-07
-1.667779e-07
2.3786181e-07
-1.6980503e-07
2.8164439e-07
-1.7273001e-07
3.3556905e-07
-1.7583832e-07
4.0134273e-07
-1.7939606e-07
4.8109677e-07
-1.8366023e-07
5.7749238e-07
-1.888989e-07
6.9382783e-07
-1.9541185e-07
8.3415063e-07
-2.0356472e-07
1.0034116e-06
-2.1380656e-07
1.2075647e-06
-2.2668663e-07
1.4539599e-06
-2.4303891e-07
1.7512104e-06
-2.6349778e-07
2.110163e-06
-2.8987501e-07
2.5434344e-06
-3.2269312e-07
3.0661636e-06
-3.6859948e-07
3.7036992e-06
-4.4101295e-07
4.5092019e-06
-5.2550712e-07
5.5518791e-06
-4.2451403e-07
6.2679115e-06
3.9029842e-06
-1.563783e-11
3.6746931e-10
-6.9590142e-11
1.243196e-09
-1.7527111e-10
2.3898268e-09
-3.4995021e-10
3.8702564e-09
-6.1584739e-10
5.7582188e-09
-1.0014745e-09
8.1385665e-09
-1.5432978e-09
1.1106596e-08
-2.2877697e-09
1.4765837e-08
-3.2937417e-09
1.9223535e-08
-4.6352078e-09
2.4582861e-08
-6.404198e-09
3.0930838e-08
-8.71338e-09
3.8321086e-08
-1.1697505e-08
4.6751216e-08
-1.5512237e-08
5.6136204e-08
-2.0328108e-08
6.6281776e-08
-2.6316766e-08
7.6865752e-08
-3.3626903e-08
8.7439452e-08
-4.2349435e-08
9.7463197e-08
-5.2476295e-08
1.0638569e-07
-6.3863919e-08
1.1376329e-07
-7.6217193e-08
1.1939427e-07
-8.9107133e-08
1.2342586e-07
-1.0202409e-07
1.2639355e-07
-1.1445299e-07
1.2917723e-07
-1.2594858e-07
1.3289451e-07
-1.3619089e-07
1.3877417e-07
-1.45012e-07
1.4805151e-07
-1.5239584e-07
1.6190875e-07
-1.5845896e-07
1.8146346e-07
-1.6342041e-07
2.0779654e-07
-1.6756783e-07
2.4200901e-07
-1.7122372e-07
2.8530006e-07
-1.7471637e-07
3.390615e-07
-1.7835876e-07
4.0498493e-07
-1.8243889e-07
4.8517676e-07
-1.8722308e-07
5.8227651e-07
-1.9297268e-07
6.995774e-07
-1.9996687e-07
8.4114479e-07
-2.0852962e-07
1.0119743e-06
-2.1907934e-07
1.2181146e-06
-2.3207745e-07
1.4669578e-06
-2.4829315e-07
1.7674264e-06
-2.6828851e-07
2.1301582e-06
-2.9340293e-07
2.568549e-06
-3.2503148e-07
3.0977919e-06
-3.6920327e-07
3.7478711e-06
-4.3724674e-07
4.5772452e-06
-4.937353e-07
5.6083679e-06
-3.5909607e-07
6.1332721e-06
3.5438884e-06
-1.4228624e-11
3.8168792e-10
-6.3294343e-11
1.2922985e-09
-1.5938143e-10
2.4859564e-09
-3.1815434e-10
4.0290726e-09
-5.5975894e-10
5.9998639e-09
-9.1003794e-10
8.488881e-09
-1.4020447e-09
1.1598633e-08
-2.0779045e-09
1.544172e-08
-2.9910426e-09
2.013669e-08
-4.2087688e-09
2.5800598e-08
-5.8150745e-09
3.2537148e-08
-7.9133351e-09
4.0419344e-08
-1.0628245e-08
4.9466119e-08
-1.4105818e-08
5.9613764e-08
-1.8509562e-08
7.0685507e-08
-2.4010317e-08
8.2366501e-08
-3.0767018e-08
9.419616e-08
-3.8896902e-08
1.0559312e-07
-4.8437274e-08
1.1592614e-07
-5.9306836e-08
1.2463298e-07
-7.1280307e-08
1.3136792e-07
-8.3991026e-08
1.361368e-07
-9.6968458e-08
1.3937122e-07
-1.0970369e-07
1.419127e-07
-1.2172418e-07
1.4491521e-07
-1.3265698e-07
1.4970712e-07
-1.4226708e-07
1.576617e-07
-1.504688e-07
1.7011046e-07
-1.5731551e-07
1.8831006e-07
-1.6297592e-07
2.1345678e-07
-1.6770399e-07
2.4673684e-07
-1.7180687e-07
2.8940267e-07
-1.7561479e-07
3.4286917e-07
-1.7945625e-07
4.0882618e-07
-1.836422e-07
4.8936253e-07
-1.8846164e-07
5.8709585e-07
-1.9419005e-07
7.0530578e-07
-2.0110939e-07
8.4806409e-07
-2.0952294e-07
1.0203877e-06
-2.1981204e-07
1.2284037e-06
-2.3238491e-07
1.4795306e-06
-2.4784964e-07
1.7828912e-06
-2.6679039e-07
2.1490988e-06
-2.9009423e-07
2.591853e-06
-3.1986395e-07
3.1275615e-06
-3.6177318e-07
3.7897806e-06
-4.2187937e-07
4.6373512e-06
-4.5235262e-07
5.6388415e-06
-3.0017309e-07
5.9810922e-06
3.2437155e-06
-1.3001726e-11
3.9467894e-10
-5.7830972e-11
1.3371691e-09
-1.4564296e-10
2.573816e-09
-2.9077711e-10
4.1742554e-09
-5.1168507e-10
6.2208175e-09
-8.3205006e-10
8.8092866e-09
-1.2821885e-09
1.2048805e-08
-1.9007749e-09
1.6060334e-08
-2.7369294e-09
2.0972865e-08
-3.8526595e-09
2.6916341e-08
-5.3255689e-09
3.4010063e-08
-7.2515827e-09
4.2345357e-08
-9.7471673e-09
5.1961695e-08
-1.2950059e-08
6.2816642e-08
-1.7016925e-08
7.4752355e-08
-2.2115673e-08
8.7465235e-08
-2.8409792e-08
1.0049028e-07
-3.6032727e-08
1.1321607e-07
-4.5052931e-08
1.249464e-07
-5.5435337e-08
1.3501549e-07
-6.7010763e-08
1.4294351e-07
-7.9467792e-08
1.4859405e-07
-9.2377105e-08
1.522808e-07
-1.0524652e-07
1.5478238e-07
-1.1759207e-07
1.5726101e-07
-1.2900501e-07
1.6112025e-07
-1.3919865e-07
1.6785546e-07
-1.4802942e-07
1.7894126e-07
-1.5549496e-07
1.9577554e-07
-1.6171655e-07
2.1967822e-07
-1.6691271e-07
2.5193277e-07
-1.71369e-07
2.9385867e-07
-1.7540752e-07
3.4690741e-07
-1.7935948e-07
4.1277786e-07
-1.8354429e-07
4.9354712e-07
-1.8825942e-07
5.9181087e-07
-1.9378219e-07
7.1082846e-07
-2.003863e-07
8.5466824e-07
-2.0835547e-07
1.0283569e-06
-2.1802548e-07
1.2380738e-06
-2.2977725e-07
1.4912824e-06
-2.4407155e-07
1.7971857e-06
-2.6149792e-07
2.166525e-06
-2.8276796e-07
2.6131232e-06
-3.1029468e-07
3.1550881e-06
-3.4930327e-07
3.8287895e-06
-3.9969404e-07
4.6877418e-06
-4.0748683e-07
5.6466347e-06
-2.4857577e-07
5.8221807e-06
2.9951399e-06
-1.203809e-11
4.0670617e-10
-5.3532286e-11
1.3787095e-09
-1.348149e-10
2.6551521e-09
-2.6915915e-10
4.3086536e-09
-4.7364365e-10
6.4253526e-09
-7.7019384e-10
9.1058816e-09
-1.1868849e-09
1.2465534e-08
-1.7595554e-09
1.6633035e-08
-2.5337682e-09
2.17471e-08
-3.5671277e-09
2.7949715e-08
-4.931893e-09
3.5374835e-08
-6.7176954e-09
4.4131157e-08
-9.0339249e-09
5.4277915e-08
-1.2010972e-08
6.5793672e-08
-1.5798939e-08
7.8540299e-08
-2.0561803e-08
9.2228073e-08
-2.6464507e-08
1.0639296e-07
-3.3650758e-08
1.2040232e-07
-4.2211264e-08
1.3350694e-07
-5.2146347e-08
1.4495066e-07
-6.333254e-08
1.5412986e-07
-7.5506868e-08
1.607686e-07
-8.8280429e-08
1.6505464e-07
-1.0118344e-07
1.6768569e-07
-1.1373097e-07
1.6980884e-07
-1.2549082e-07
1.7288034e-07
-1.3613605e-07
1.7850086e-07
-1.4547375e-07
1.8827903e-07
-1.5345032e-07
2.037521e-07
-1.6013975e-07
2.2636754e-07
-1.6572134e-07
2.5751415e-07
-1.7045242e-07
2.9858947e-07
-1.7463923e-07
3.5109391e-07
-1.7860874e-07
4.1674706e-07
-1.8268468e-07
4.9762281e-07
-1.871721e-07
5.962981e-07
-1.923524e-07
7.1600865e-07
-1.98493e-07
8.6080882e-07
-2.0586208e-07
1.0357259e-06
-2.1475023e-07
1.246962e-06
-2.2550131e-07
1.5020334e-06
-2.3847283e-07
1.8101573e-06
-2.5419757e-07
2.1822497e-06
-2.7341699e-07
2.6323428e-06
-2.9857483e-07
3.1802458e-06
-3.3404023e-07
3.8642552e-06
-3.7415509e-07
4.7278563e-06
-3.6332948e-07
5.6358096e-06
-2.0473193e-07
5.6635826e-06
2.7904079e-06
-1.1221629e-11
4.1791679e-10
-4.9891451e-11
1.4174309e-09
-1.2565104e-10
2.7309708e-09
-2.5087786e-10
4.4339402e-09
-4.4150019e-10
6.6160313e-09
-7.179722e-10
9.3824038e-09
-1.1064943e-09
1.2854099e-08
-1.6405312e-09
1.7167105e-08
-2.3626619e-09
2.2469256e-08
-3.3267879e-09
2.8913857e-08
-4.6006487e-09
3.6648704e-08
-6.2685103e-09
4.5799018e-08
-8.4336497e-09
5.6443044e-08
-1.1219951e-08
6.8579952e-08
-1.4771403e-08
8.2091721e-08
-1.9247679e-08
9.6704313e-08
-2.4813415e-08
1.1195866e-07
-3.161887e-08
1.2720775e-07
-3.977103e-08
1.4165912e-07
-4.9297833e-08
1.5447754e-07
-6.0113408e-08
1.6494557e-07
-7.1996892e-08
1.726523e-07
-8.4597337e-08
1.7765536e-07
-9.7469636e-08
1.8055831e-07
-1.1013432e-07
1.8247386e-07
-1.2214457e-07
1.8489087e-07
-1.3314256e-07
1.8949905e-07
-1.4289422e-07
1.9803081e-07
-1.5130099e-07
2.1215888e-07
-1.58393e-07
2.3345945e-07
-1.6431082e-07
2.6343177e-07
-1.692809e-07
3.0355926e-07
-1.7358821e-07
3.5540089e-07
-1.775485e-07
4.2070702e-07
-1.8148276e-07
5.0155679e-07
-1.8569802e-07
6.0051314e-07
-1.9047765e-07
7.2078809e-07
-1.9608363e-07
8.6641471e-07
-2.0277137e-07
1.0424137e-06
-2.1079946e-07
1.2549901e-06
-2.2046852e-07
1.5117024e-06
-2.320822e-07
1.8217711e-06
-2.4610334e-07
2.1962707e-06
-2.6337882e-07
2.6496184e-06
-2.8623733e-07
3.2031041e-06
-3.1780991e-07
3.8958281e-06
-3.4802613e-07
4.7580723e-06
-3.2265268e-07
5.6104366e-06
-1.6859578e-07
5.5095252e-06
2.621812e-06
-1.0533398e-11
4.2843882e-10
-4.6820145e-11
1.4537739e-09
-1.1791712e-10
2.8021325e-09
-2.3544343e-10
4.5515316e-09
-4.1435144e-10
6.7950008e-09
-6.7384519e-10
9.6419522e-09
-1.0385299e-09
1.321883e-08
-1.5398461e-09
1.7668459e-08
-2.2178252e-09
2.3147264e-08
-3.1231952e-09
2.9819246e-08
-4.3198062e-09
3.7845326e-08
-5.8872745e-09
4.7366486e-08
-7.9235159e-09
5.8479274e-08
-1.0546597e-08
7.1203007e-08
-1.3894829e-08
8.5439917e-08
-1.8123466e-08
1.009329e-07
-2.3395751e-08
1.172309e-07
-2.9865987e-08
1.3367794e-07
-3.7653257e-08
1.4944638e-07
-4.6807431e-08
1.6363175e-07
-5.7273921e-08
1.7541217e-07
-6.8868638e-08
1.8424721e-07
-8.1275801e-08
1.9006281e-07
-9.4075758e-08
1.9335861e-07
-1.0679865e-07
1.9519711e-07
-1.1898942e-07
1.9708199e-07
-1.3026652e-07
2.0077643e-07
-1.4036157e-07
2.0812604e-07
-1.4913642e-07
2.2093378e-07
-1.5658107e-07
2.4090404e-07
-1.62799e-07
2.6964951e-07
-1.6798526e-07
3.0874525e-07
-1.7240121e-07
3.598165e-07
-1.7634775e-07
4.2465318e-07
-1.8013928e-07
5.05348e-07
-1.8408187e-07
6.0445549e-07
-1.8845951e-07
7.2516554e-07
-1.9353033e-07
8.7148541e-07
-1.9953758e-07
1.0484208e-06
-2.0671685e-07
1.2621693e-06
-2.1532552e-07
1.5203111e-06
-2.2563979e-07
1.8320854e-06
-2.3807602e-07
2.2087069e-06
-2.5357767e-07
2.6651203e-06
-2.7427298e-07
3.2237992e-06
-3.0183954e-07
3.9233949e-06
-3.2300322e-07
4.7792358e-06
-2.8660399e-07
5.5740377e-06
-1.3933901e-07
5.3622598e-06
2.4824729e-06
-9.939919e-12
4.3836737e-10
-4.4172075e-11
1.4880671e-09
-1.1125037e-10
2.8692808e-09
-2.2213974e-10
4.662492e-09
-3.9095242e-10
6.9638807e-09
-6.3581469e-10
9.8868748e-09
-9.7995707e-10
1.3563024e-08
-1.4530731e-09
1.8141617e-08
-2.0929904e-09
2.3787215e-08
-2.9476864e-09
3.0673965e-08
-4.0776298e-09
3.8975282e-08
-5.5583625e-09
4.884722e-08
-7.4830647e-09
6.0403963e-08
-9.964585e-09
7.3684499e-08
-1.3135991e-08
8.8611279e-08
-1.7148158e-08
1.0494501e-07
-2.2162279e-08
1.2224495e-07
-2.8334982e-08
1.3985058e-07
-3.57944e-08
1.5690575e-07
-4.4608016e-08
1.7244538e-07
-5.474755e-08
1.8555179e-07
-6.6061132e-08
1.9556097e-07
-7.8265409e-08
2.0226738e-07
-9.0966136e-08
2.060597e-07
-1.0370575e-07
2.0793712e-07
-1.1602579e-07
2.0940241e-07
-1.2752675e-07
2.1227772e-07
-1.3791164e-07
2.1851119e-07
-1.4700778e-07
2.3003006e-07
-1.5476893e-07
2.4866517e-07
-1.6126372e-07
2.7614416e-07
-1.6665643e-07
3.141377e-07
-1.7118359e-07
3.6434333e-07
-1.7512869e-07
4.2859792e-07
-1.7879651e-07
5.0901543e-07
-1.8248964e-07
6.0814831e-07
-1.8649163e-07
7.2916732e-07
-1.9105876e-07
8.7605243e-07
-1.9642493e-07
1.0537869e-06
-2.0281008e-07
1.2685544e-06
-2.1043761e-07
1.5279385e-06
-2.19568e-07
1.8412159e-06
-2.3060301e-07
2.2197418e-06
-2.4453837e-07
2.6790557e-06
-2.632373e-07
3.2424979e-06
-2.8687505e-07
3.9470329e-06
-3.0003494e-07
4.7923954e-06
-2.5551209e-07
5.5295152e-06
-1.1602215e-07
5.2227695e-06
2.3664507e-06
-9.4233526e-12
4.4777939e-10
-4.1866251e-11
1.5205762e-09
-1.054451e-10
2.9329355e-09
-2.1055489e-10
4.7676794e-09
-3.7057597e-10
7.1239752e-09
-6.0269563e-10
1.011906e-08
-9.2894369e-10
1.3889328e-08
-1.3774875e-09
1.8590208e-08
-1.984229e-09
2.4393992e-08
-2.7947341e-09
3.1484496e-08
-3.8664957e-09
4.0047059e-08
-5.2714573e-09
5.0252185e-08
-7.0985822e-09
6.2231077e-08
-9.4560123e-09
7.6041899e-08
-1.2471976e-08
9.1627194e-08
-1.6293095e-08
1.0876606e-07
-2.1078119e-08
1.2702988e-07
-2.6984788e-08
1.4575715e-07
-3.4148016e-08
1.640689e-07
-4.2649571e-08
1.809469e-07
-5.2483448e-08
1.9538571e-07
-6.3526178e-08
2.0660385e-07
-7.5524214e-08
2.1426567e-07
-8.8108144e-08
2.1864399e-07
-1.0083449e-07
2.2066389e-07
-1.1324498e-07
2.2181335e-07
-1.2492687e-07
2.2396e-07
-1.3555946e-07
2.2914407e-07
-1.4493999e-07
2.3941076e-07
-1.529896e-07
2.5671483e-07
-1.5974486e-07
2.8289932e-07
-1.6534068e-07
3.1973329e-07
-1.6998884e-07
3.6899116e-07
-1.7395415e-07
4.3256285e-07
-1.7752964e-07
5.1259053e-07
-1.8101256e-07
6.1163088e-07
-1.8468493e-07
7.3283947e-07
-1.8880211e-07
8.8016948e-07
-1.9359166e-07
1.0585763e-06
-1.9926259e-07
1.2742253e-06
-2.0601654e-07
1.5346924e-06
-2.1410552e-07
1.8493049e-06
-2.2394237e-07
2.2295785e-06
-2.3652699e-07
2.6916405e-06
-2.5340537e-07
3.2593762e-06
-2.7332735e-07
3.9669551e-06
-2.7956438e-07
4.7986322e-06
-2.2920324e-07
5.4791542e-06
-9.7663644e-08
5.0912295e-06
2.268787e-06
-8.9683478e-12
4.5673684e-10
-3.9835602e-11
1.5515151e-09
-1.0033311e-10
2.9935154e-09
-2.0035534e-10
4.8677856e-09
-3.5263705e-10
7.2763369e-09
-5.7353875e-10
1.0340033e-08
-8.8403277e-10
1.4199884e-08
-1.3109411e-09
1.9017167e-08
-1.8884638e-09
2.4971555e-08
-2.6600325e-09
3.2256095e-08
-3.680503e-09
4.1067547e-08
-5.0186141e-09
5.1590301e-08
-6.7595491e-09
6.3971999e-08
-9.0071813e-09
7.8289499e-08
-1.1885274e-08
9.4505231e-08
-1.5536369e-08
1.1241707e-07
-2.0116536e-08
1.3160994e-07
-2.5783774e-08
1.5142427e-07
-3.2678068e-08
1.7096308e-07
-4.0892841e-08
1.891616e-07
-5.0441095e-08
2.0493397e-07
-6.1224447e-08
2.173873e-07
-7.3016704e-08
2.2605817e-07
-8.5472515e-08
2.3110016e-07
-9.8163608e-08
2.3335544e-07
-1.1063471e-07
2.3428494e-07
-1.2246356e-07
2.357893e-07
-1.3330987e-07
2.3999076e-07
-1.4294481e-07
2.4904595e-07
-1.512604e-07
2.6503051e-07
-1.5826381e-07
2.8990266e-07
-1.6406237e-07
3.2553163e-07
-1.688438e-07
3.7377226e-07
-1.7285385e-07
4.3657252e-07
-1.7637257e-07
5.1610886e-07
-1.7969042e-07
6.1494838e-07
-1.8308723e-07
7.36236e-07
-1.8681793e-07
8.8389998e-07
-1.911068e-07
1.0628651e-06
-1.9615581e-07
1.2792743e-06
-2.0215583e-07
1.5406923e-06
-2.0935586e-07
1.8565049e-06
-2.1819286e-07
2.2384154e-06
-2.2962942e-07
2.7030772e-06
-2.4485088e-07
3.2745975e-06
-2.6133139e-07
3.9834359e-06
-2.6164569e-07
4.7989463e-06
-2.0718009e-07
5.4246888e-06
-8.3320804e-08
4.96737e-06
2.1854663e-06
-8.5644561e-12
4.6529066e-10
-3.8031717e-11
1.5810597e-09
-9.5792758e-11
3.0513647e-09
-1.9129698e-10
4.9633795e-09
-3.3670624e-10
7.4218311e-09
-5.4764458e-10
1.0551048e-08
-8.4414407e-10
1.449645e-08
-1.2518303e-09
1.9424909e-08
-1.8033875e-09
2.5523157e-08
-2.5403469e-09
3.2993088e-08
-3.5152047e-09
4.2042426e-08
-4.7938257e-09
5.2868928e-08
-6.4579817e-09
6.5636142e-08
-8.6076651e-09
8.0439148e-08
-1.1362511e-08
9.7260013e-08
-1.4861165e-08
1.1591563e-07
-1.9256916e-08
1.3600556e-07
-2.4707397e-08
1.5687459e-07
-3.1356351e-08
1.7761188e-07
-3.9306758e-08
1.9711188e-07
-4.8587929e-08
2.1421509e-07
-5.9123708e-08
2.2792316e-07
-7.0713036e-08
2.3764773e-07
-8.3033671e-08
2.4342115e-07
-9.567319e-08
2.4599543e-07
-1.0818141e-07
2.467937e-07
-1.201297e-07
2.4773811e-07
-1.3116169e-07
2.510232e-07
-1.4102592e-07
2.5891048e-07
-1.4958841e-07
2.7359315e-07
-1.5682961e-07
2.971438e-07
-1.628312e-07
3.3153304e-07
-1.6775799e-07
3.7869872e-07
-1.7183681e-07
4.4065098e-07
-1.7533413e-07
5.1960575e-07
-1.7853247e-07
6.1814632e-07
-1.8170872e-07
7.3941191e-07
-1.8511761e-07
8.8730861e-07
-1.889827e-07
1.06673e-06
-1.9350244e-07
1.283794e-06
-1.988658e-07
1.5460556e-06
-2.0532402e-07
1.8629633e-06
-2.1333983e-07
2.2464311e-06
-2.2380643e-07
2.7135439e-06
-2.3751573e-07
3.2883066e-06
-2.5084623e-07
3.9967666e-06
-2.4611906e-07
4.794219e-06
-1.8884374e-07
5.3674137e-06
-7.2172055e-08
4.8506983e-06
2.1132941e-06
-8.2027666e-12
4.7348315e-10
-3.641639e-11
1.6093561e-09
-9.1727005e-11
3.1067698e-09
-1.8318529e-10
5.0549341e-09
-3.2244013e-10
7.5611774e-09
-5.2445789e-10
1.0753148e-08
-8.0842795e-10
1.4780492e-08
-1.1989029e-09
1.9815444e-08
-1.7272072e-09
2.6051511e-08
-2.4331638e-09
3.3699083e-08
-3.3671469e-09
4.2976434e-08
-4.5924243e-09
5.4094215e-08
-6.1876751e-09
6.7231383e-08
-8.2493474e-09
8.2500782e-08
-1.089325e-08
9.9903844e-08
-1.4254335e-08
1.192766e-07
-1.848306e-08
1.4023413e-07
-2.3736251e-08
1.6212759e-07
-3.0160393e-08
1.8403582e-07
-3.7866346e-08
2.0481766e-07
-4.6897462e-08
2.232461e-07
-5.7197376e-08
2.382231e-07
-6.858811e-08
2.4903866e-07
-8.0769439e-08
2.5560285e-07
-9.3345136e-08
2.5857163e-07
-1.0587174e-07
2.5932088e-07
-1.1791675e-07
2.597837e-07
-1.2911071e-07
2.6221767e-07
-1.3918251e-07
2.6898266e-07
-1.4797502e-07
2.8238587e-07
-1.5544436e-07
3.046132e-07
-1.616487e-07
3.377372e-07
-1.6673114e-07
3.8378084e-07
-1.709002e-07
4.4481964e-07
-1.7440842e-07
5.2311353e-07
-1.7752971e-07
6.2126721e-07
-1.8053736e-07
7.4241922e-07
-1.8368587e-07
8.9045688e-07
-1.8719999e-07
1.070244e-06
-1.9127794e-07
1.2878719e-06
-1.9611281e-07
1.5508905e-06
-2.0196293e-07
1.8688135e-06
-2.0931014e-07
2.2537783e-06
-2.1895431e-07
2.7231882e-06
-2.312745e-07
3.3006267e-06
-2.4173546e-07
4.0072277e-06
-2.3271831e-07
4.7852017e-06
-1.735865e-07
5.308282e-06
-6.3516253e-08
4.7406279e-06
2.0497778e-06
-7.8766711e-12
4.813499e-10
-3.495986e-11
1.6365272e-09
-8.8061155e-11
3.1599713e-09
-1.758716e-10
5.1428469e-09
-3.0957771e-10
7.6949813e-09
-5.035515e-10
1.0947211e-08
-7.7622407e-10
1.5053242e-08
-1.1511785e-09
2.0190465e-08
-1.6585129e-09
2.65589e-08
-2.3365057e-09
3.4377119e-08
-3.2336077e-09
4.3873565e-08
-4.4107327e-09
5.5271352e-08
-5.9437387e-09
6.8764379e-08
-7.9258182e-09
8.4482821e-08
-1.0469231e-08
1.0244718e-07
-1.3705427e-08
1.2251267e-07
-1.7782046e-08
1.4431057e-07
-2.2854795e-08
1.6720012e-07
-2.9072095e-08
1.9025287e-07
-3.6551324e-08
2.1229665e-07
-4.5347961e-08
2.3204257e-07
-5.5423317e-08
2.4829842e-07
-6.662061e-08
2.6023611e-07
-7.8660582e-08
2.6764317e-07
-9.1163227e-08
2.710748e-07
-1.0369303e-07
2.7185132e-07
-1.1581571e-07
2.7190703e-07
-1.2715122e-07
2.7355376e-07
-1.3741143e-07
2.7924334e-07
-1.4641856e-07
2.9139329e-07
-1.5410667e-07
3.1230142e-07
-1.6051216e-07
3.4414257e-07
-1.6575792e-07
3.8902634e-07
-1.7003494e-07
4.4909628e-07
-1.7358193e-07
5.2666007e-07
-1.7666369e-07
6.2434854e-07
-1.795493e-07
7.4530442e-07
-1.8249294e-07
8.9340023e-07
-1.8572163e-07
1.0734725e-06
-1.8943637e-07
1.2915866e-06
-1.9383839e-07
1.5552925e-06
-1.9919624e-07
1.8741714e-06
-2.0600007e-07
2.2605821e-06
-2.149377e-07
2.7321259e-06
-2.25969e-07
3.3116579e-06
-2.3381395e-07
4.0150728e-06
-2.2113479e-07
4.7725225e-06
-1.6084319e-07
5.2479905e-06
-5.6777799e-08
4.6365624e-06
1.9929999e-06
-7.5808522e-12
4.8892113e-10
-3.3637368e-11
1.6626775e-09
-8.4733104e-11
3.2111737e-09
-1.6923309e-10
5.2274562e-09
-2.9790456e-10
7.823757e-09
-4.8458104e-10
1.1133983e-08
-7.4700335e-10
1.5315748e-08
-1.1078762e-09
2.0551409e-08
-1.5961827e-09
2.7047266e-08
-2.2487982e-09
3.5029781e-08
-3.1124214e-09
4.4737221e-08
-4.2458162e-09
5.6404762e-08
-5.722259e-09
7.0240813e-08
-7.6319424e-09
8.6392462e-08
-1.0083825e-08
1.0489898e-07
-1.3206046e-08
1.2563475e-07
-1.7143466e-08
1.4824778e-07
-2.2050436e-08
1.7210682e-07
-2.8076695e-08
1.9627882e-07
-3.5344991e-08
2.1956464e-07
-4.3921367e-08
2.4061872e-07
-5.3782959e-08
2.5815991e-07
-6.4792463e-08
2.712457e-07
-7.6690472e-08
2.795415e-07
-8.9113128e-08
2.8349798e-07
-1.0163371e-07
2.8437259e-07
-1.1381787e-07
2.8409192e-07
-1.2527711e-07
2.8501367e-07
-1.3570856e-07
2.8967534e-07
-1.4491594e-07
3.0060102e-07
-1.5281326e-07
3.2019892e-07
-1.5941692e-07
3.5074618e-07
-1.6483099e-07
3.9444018e-07
-1.6922977e-07
4.5349467e-07
-1.7283838e-07
5.3026824e-07
-1.7591232e-07
6.2742199e-07
-1.7871589e-07
7.4810756e-07
-1.8150279e-07
8.9618682e-07
-1.8450313e-07
1.0764726e-06
-1.8792293e-07
1.2950063e-06
-1.9197372e-07
1.5593432e-06
-1.9693568e-07
1.8791334e-06
-2.0329497e-07
2.2669413e-06
-2.116124e-07
2.7404434e-06
-2.2143431e-07
3.3214798e-06
-2.2688558e-07
4.0205242e-06
-2.1106604e-07
4.756703e-06
-1.5012445e-07
5.1870489e-06
-5.1498556e-08
4.5379364e-06
1.9415014e-06
-7.3106278e-12
4.9622278e-10
-3.2430153e-11
1.6878966e-09
-8.1695514e-11
3.2605525e-09
-1.6317537e-10
5.3090516e-09
-2.8725381e-10
7.9479458e-09
-4.6727202e-10
1.1314102e-08
-7.2034221e-10
1.5568908e-08
-1.068367e-09
2.0899512e-08
-1.5393121e-09
2.7518277e-08
-2.1687692e-09
3.5659291e-08
-3.001835e-09
4.5570325e-08
-4.0953037e-09
5.749825e-08
-5.5200748e-09
7.1665577e-08
-7.3635674e-09
8.8235912e-08
-9.7316682e-09
1.0726699e-07
-1.2749377e-08
1.286523e-07
-1.655883e-08
1.5205701e-07
-2.1312873e-08
1.7686056e-07
-2.7162056e-08
2.0212764e-07
-3.4233581e-08
2.266358e-07
-4.2602696e-08
2.4898752e-07
-5.2260694e-08
2.6781773e-07
-6.3088222e-08
2.8207326e-07
-7.4844692e-08
2.9129827e-07
-8.7182105e-08
2.9583592e-07
-9.968325e-08
2.9687445e-07
-1.11915e-07
2.9632449e-07
-1.2348227e-07
2.965817e-07
-1.3406939e-07
3.0026309e-07
-1.4346348e-07
3.0999556e-07
-1.5156031e-07
3.28296e-07
-1.5835786e-07
3.5754372e-07
-1.6394265e-07
4.0002476e-07
-1.6847316e-07
4.5802482e-07
-1.7216148e-07
5.3395607e-07
-1.7525353e-07
6.3051352e-07
-1.7800852e-07
7.5086209e-07
-1.8067951e-07
8.9885741e-07
-1.8349991e-07
1.0792927e-06
-1.8668245e-07
1.2981887e-06
-1.9045005e-07
1.5631107e-06
-1.9509398e-07
1.8837774e-06
-2.0108389e-07
2.2729312e-06
-2.0884207e-07
2.7482016e-06
-2.1751598e-07
3.3301537e-06
-2.2076557e-07
4.023774e-06
-2.0223849e-07
4.7381759e-06
-1.4102097e-07
5.1258315e-06
-4.7318222e-08
4.4442338e-06
1.8941831e-06
-7.0623313e-12
5.0327726e-10
-3.1321891e-11
1.7122618e-09
-7.8908578e-11
3.3082592e-09
-1.5761806e-10
5.387884e-09
-2.7748378e-10
8.0679294e-09
-4.5139777e-10
1.1488124e-08
-6.9589476e-10
1.5813501e-08
-1.0321409e-09
2.1235842e-08
-1.4871676e-09
2.7973376e-08
-2.0953885e-09
3.6267571e-08
-2.9004294e-09
4.6375409e-08
-3.9572677e-09
5.8555111e-08
-5.3346122e-09
7.3042915e-08
-7.1173069e-09
9.0018563e-08
-9.4083643e-09
1.0955794e-07
-1.2329819e-08
1.3157358e-07
-1.6021157e-08
1.5574809e-07
-2.0633595e-08
1.8147265e-07
-2.6318103e-08
2.0781174e-07
-3.3205579e-08
2.3352284e-07
-4.1379291e-08
2.5716084e-07
-5.0843294e-08
2.7728148e-07
-6.1494749e-08
2.9272469e-07
-7.3110863e-08