/*--------------------------------*- C++ -*----------------------------------*\
| =========                 |                                                 |
| \\      /  F ield         | OpenFOAM: The Open Source CFD Toolbox           |
|  \\    /   O peration     | Version:  4.0                                   |
|   \\  /    A nd           | Web:      www.OpenFOAM.org                      |
|    \\/     M anipulation  |                                                 |
\*---------------------------------------------------------------------------*/
FoamFile
{
    version     2.0;
    format      ascii;
    class       volScalarField;
    location    "754";
    object      Qr;
}
// * * * * * * * * * * * * * * * * * * * * * * * * * * * * * * * * * * * * * //

dimensions      [1 0 -3 0 0 0 0];

internalField   uniform 0;

boundaryField
{
    LeftWedge
    {
        type            wedge;
    }
    RightWedge
    {
        type            wedge;
    }
    Inlet
    {
        type            calculated;
        value           nonuniform List<scalar> 
50
(
70.077716
70.077719
70.077725
70.077733
70.077743
70.077754
70.077766
70.077777
70.077787
70.077795
70.0778
70.077802
70.077802
70.077799
70.077794
70.077787
70.077781
70.077774
70.077767
70.077762
70.077757
70.077753
70.07775
70.077748
70.077747
70.077746
70.077745
70.077744
70.077744
70.077743
70.077743
70.077743
70.077743
70.077743
70.077742
70.077742
70.077742
70.077742
70.077742
70.077742
70.077741
70.077741
70.077741
70.077741
70.07774
70.07774
70.07774
70.077739
70.077739
70.077735
)
;
    }
    Outlet
    {
        type            calculated;
        value           nonuniform List<scalar> 
50
(
-2916.4262
-2828.4147
-2735.851
-2638.8062
-2537.3915
-2431.7583
-2322.0977
-2208.6419
-2091.6661
-1971.4937
-1848.5049
-1723.1479
-1595.9538
-1467.5504
-1338.6732
-1210.1691
-1082.992
-958.18799
-836.87384
-720.2101
-609.36822
-505.49034
-409.63797
-322.72818
-245.4611
-178.24887
-121.16049
-73.897909
-35.814165
-5.9749044
16.74893
33.570045
45.678214
54.159855
59.947008
63.796897
66.296014
67.879932
68.860338
69.452971
69.802673
70.00396
70.11685
70.178459
70.211134
70.227948
70.236303
70.24022
70.241777
70.242016
)
;
    }
    Outterwall
    {
        type            calculated;
        value           nonuniform List<scalar> 
100
(
70.078583
70.080261
70.081935
70.083613
70.085292
70.086972
70.088653
70.090335
70.092017
70.093699
70.095381
70.097063
70.098745
70.100426
70.102108
70.103789
70.10547
70.107151
70.108832
70.110513
70.112194
70.113875
70.115556
70.117237
70.118918
70.120599
70.12228
70.123961
70.125642
70.127323
70.129004
70.130684
70.132365
70.134046
70.135727
70.137408
70.139089
70.14077
70.14245
70.144131
70.145812
70.147493
70.149173
70.150854
70.152534
70.154214
70.155895
70.157575
70.159254
70.160934
70.162613
70.164293
70.165971
70.16765
70.169328
70.171005
70.172682
70.174358
70.176034
70.177708
70.179382
70.181055
70.182727
70.184397
70.186066
70.187734
70.1894
70.191064
70.192726
70.194386
70.196044
70.197699
70.199351
70.201
70.202646
70.204289
70.205927
70.207562
70.209192
70.210817
70.212437
70.214052
70.215661
70.217263
70.218859
70.220448
70.222029
70.223603
70.225167
70.226723
70.228269
70.229805
70.23133
70.232843
70.234345
70.235834
70.237308
70.238772
70.240201
70.242015
)
;
    }
    fluid_to_cencil
    {
        type            calculated;
        value           nonuniform List<scalar> 
100
(
-1620.6239
-2090.5361
-2206.5926
-2264.6348
-2306.5702
-2339.3608
-2366.2041
-2388.714
-2408.0263
-2424.8766
-2439.789
-2453.1385
-2465.2036
-2476.1961
-2486.2803
-2495.5863
-2504.2185
-2512.2623
-2519.7881
-2526.8545
-2533.5111
-2539.8
-2545.7573
-2551.414
-2556.7973
-2561.9308
-2566.8352
-2571.5288
-2576.028
-2580.3473
-2584.4995
-2588.4963
-2592.3483
-2596.065
-2599.6548
-2603.1257
-2606.4849
-2609.7387
-2612.8933
-2615.9541
-2618.9262
-2621.8143
-2624.6226
-2627.3553
-2630.016
-2632.6082
-2635.1351
-2637.5997
-2640.0048
-2642.3531
-2644.6469
-2646.8887
-2649.0805
-2651.2245
-2653.3224
-2655.3763
-2657.3876
-2659.3581
-2661.2893
-2663.1827
-2665.0395
-2666.8611
-2668.6487
-2670.4035
-2672.1265
-2673.819
-2675.4817
-2677.1158
-2678.7221
-2680.3015
-2681.8549
-2683.3829
-2684.8864
-2686.3662
-2687.8228
-2689.257
-2690.6695
-2692.0607
-2693.4314
-2694.782
-2696.1132
-2697.4254
-2698.7191
-2699.9949
-2701.2532
-2702.4943
-2703.7189
-2704.9272
-2706.1198
-2707.2969
-2708.4589
-2709.6064
-2710.7394
-2711.8597
-2712.9637
-2714.0788
-2715.1175
-2716.7386
-2716.733
-2732.4498
)
;
    }
}


// ************************************************************************* //
