/*--------------------------------*- C++ -*----------------------------------*\
| =========                 |                                                 |
| \\      /  F ield         | OpenFOAM: The Open Source CFD Toolbox           |
|  \\    /   O peration     | Version:  4.0                                   |
|   \\  /    A nd           | Web:      www.OpenFOAM.org                      |
|    \\/     M anipulation  |                                                 |
\*---------------------------------------------------------------------------*/
FoamFile
{
    version     2.0;
    format      ascii;
    class       volScalarField;
    location    "754";
    object      rho;
}
// * * * * * * * * * * * * * * * * * * * * * * * * * * * * * * * * * * * * * //

dimensions      [1 -3 0 0 0 0 0];

internalField   nonuniform List<scalar> 
5000
(
0.90773736
0.92179984
0.93725012
0.95407797
0.9722175
0.99153329
1.0118086
1.0327386
1.0539324
1.074927
1.0952167
1.1142955
1.1317084
1.1471019
1.1602625
1.1711333
1.1798053
1.1864862
1.1914571
1.195029
1.1975058
1.19916
1.200221
1.2008715
1.2012502
1.2014578
1.2015639
1.2016137
1.2016347
1.2016426
1.201645
1.2016455
1.2016456
1.2016455
1.2016455
1.2016455
1.2016455
1.2016455
1.2016455
1.2016455
1.2016455
1.2016455
1.2016455
1.2016455
1.2016455
1.2016455
1.2016455
1.2016455
1.2016455
1.2016455
0.8671115
0.87662973
0.88711808
0.89869166
0.91147242
0.92558173
0.9411281
0.95818867
0.97678396
0.9968469
1.0181896
1.0404748
1.0632041
1.0857335
1.1073288
1.1272574
1.1448984
1.1598416
1.1719398
1.1813009
1.1882283
1.1931356
1.196465
1.1986275
1.19997
1.200764
1.2012091
1.2014438
1.2015593
1.2016116
1.201633
1.2016408
1.2016433
1.2016439
1.201644
1.201644
1.201644
1.201644
1.201644
1.201644
1.201644
1.201644
1.201644
1.201644
1.201644
1.201644
1.201644
1.201644
1.201644
1.201644
0.85833057
0.86687745
0.87625063
0.88653153
0.89780879
0.91017714
0.9237345
0.93857591
0.95478267
0.97240502
0.99143681
1.0117829
1.0332228
1.0553801
1.0777118
1.0995334
1.1200912
1.1386728
1.1547287
1.1679637
1.1783649
1.1861625
1.1917455
1.1955675
1.1980706
1.1996377
1.2005735
1.2011045
1.201389
1.2015318
1.2015982
1.2016266
1.2016374
1.2016411
1.2016422
1.2016425
1.2016425
1.2016425
1.2016425
1.2016425
1.2016425
1.2016425
1.2016425
1.2016425
1.2016425
1.2016425
1.2016425
1.2016425
1.2016425
1.2016425
0.8540948
0.86217978
0.87103248
0.88072414
0.89133105
0.90293371
0.91561485
0.92945595
0.9445312
0.96089781
0.97858107
0.99755303
1.0177046
1.0388138
1.0605175
1.0823
1.1035136
1.1234443
1.1414157
1.1569067
1.1696408
1.1796153
1.1870631
1.1923704
1.1959838
1.1983355
1.1997979
1.2006649
1.2011531
1.2014126
1.2015419
1.2016016
1.2016268
1.2016365
1.2016398
1.2016407
1.201641
1.201641
1.201641
1.201641
1.201641
1.201641
1.201641
1.201641
1.201641
1.201641
1.201641
1.201641
1.201641
1.201641
0.8510956
0.85885542
0.86734383
0.87662693
0.8867754
0.89786377
0.90996875
0.92316643
0.93752758
0.95311018
0.96994842
0.98803679
1.007309
1.0276121
1.0486793
1.0701097
1.0913657
1.1118052
1.1307522
1.1476007
1.1619206
1.1735284
1.1824971
1.1891059
1.1937554
1.1968819
1.198892
1.2001264
1.2008489
1.2012502
1.2014603
1.2015632
1.2016098
1.2016291
1.2016363
1.2016386
1.2016393
1.2016395
1.2016395
1.2016395
1.2016395
1.2016395
1.2016395
1.2016395
1.2016395
1.2016395
1.2016395
1.2016395
1.2016395
1.2016395
0.84878495
0.85629522
0.86450469
0.87347592
0.88327587
0.89397524
0.90564721
0.91836508
0.93219834
0.94720656
0.96343007
0.98087686
0.99950479
1.0191995
1.0397498
1.0608257
1.0819685
1.1026036
1.1220891
1.1397987
1.1552228
1.1680573
1.178245
1.1859583
1.1915327
1.1953823
1.1979248
1.1995306
1.2004991
1.2010552
1.2013576
1.2015123
1.201586
1.2016185
1.2016314
1.2016361
1.2016375
1.2016379
1.201638
1.201638
1.201638
1.201638
1.201638
1.201638
1.201638
1.201638
1.201638
1.201638
1.201638
1.201638
0.84691533
0.85422426
0.86220895
0.87092918
0.88044899
0.89083615
0.90216111
0.91449504
0.92790654
0.94245639
0.95818958
0.97512394
0.99323454
1.0124339
1.0325493
1.0533005
1.0742859
1.0949862
1.1147966
1.133094
1.1493283
1.1631153
1.1742979
1.182954
1.1893508
1.1938683
1.1969199
1.1988928
1.2001124
1.200832
1.2012354
1.2014492
1.2015553
1.2016043
1.2016249
1.2016328
1.2016355
1.2016363
1.2016365
1.2016365
1.2016365
1.2016365
1.2016365
1.2016365
1.2016365
1.2016365
1.2016365
1.2016365
1.2016365
1.2016365
0.8453624
0.8525045
0.8603031
0.86881575
0.87810409
0.88823346
0.89927203
0.91128913
0.92435241
0.93852326
0.95384996
0.97035751
0.98803379
1.0068115
1.026547
1.0469984
1.067809
1.0885049
1.1085167
1.1272336
1.144085
1.1586323
1.1706415
1.1801097
1.1872389
1.1923693
1.1959018
1.1982306
1.1997005
1.2005873
1.2010972
1.2013753
1.201518
1.2015864
1.2016166
1.2016288
1.2016331
1.2016345
1.2016349
1.201635
1.201635
1.201635
1.201635
1.201635
1.201635
1.201635
1.201635
1.201635
1.201635
1.201635
0.84404068
0.85104107
0.85868173
0.86701832
0.87611046
0.88602145
0.89681748
0.90856622
0.92133435
0.93518351
0.95016421
0.9663068
0.98360889
1.0020189
1.0214161
1.0415891
1.0622181
1.0828681
1.1030025
1.122027
1.1393619
1.1545308
1.1672393
1.1774158
1.1852017
1.1908962
1.1948818
1.1975538
1.1992702
1.2003256
1.2009455
1.2012917
1.2014744
1.2015648
1.2016063
1.2016238
1.2016304
1.2016327
1.2016333
1.2016335
1.2016335
1.2016335
1.2016335
1.2016335
1.2016335
1.2016335
1.2016335
1.2016335
1.2016335
1.2016335
0.84289532
0.84977312
0.85727724
0.86546174
0.87438449
0.884107
0.89469376
0.90621092
0.91872418
0.93229518
0.94697597
0.96280089
0.97977517
0.99785961
1.0169519
1.0368658
1.0573126
1.0778905
1.0980937
1.1173462
1.1350666
1.1507521
1.1640602
1.1748608
1.1832395
1.1894547
1.1938674
1.1968693
1.1988271
1.2000508
1.2007825
1.2011996
1.201425
1.2015397
1.2015941
1.2016179
1.2016273
1.2016306
1.2016317
1.2016319
1.201632
1.201632
1.201632
1.201632
1.201632
1.201632
1.201632
1.201632
1.201632
1.201632
0.8418877
0.84865782
0.85604208
0.86409312
0.87286733
0.88242463
0.89282797
0.90414217
0.91643194
0.92975874
0.94417569
0.95972022
0.97640354
0.9941965
1.0130119
1.0326845
1.0529517
1.0734415
1.0936757
1.1130978
1.1311293
1.1472493
1.1610772
1.1724322
1.1813494
1.1880472
1.192863
1.1961816
1.198375
1.1997656
1.2006101
1.2011001
1.2013704
1.2015112
1.2015799
1.2016109
1.2016236
1.2016284
1.2016299
1.2016304
1.2016305
1.2016305
1.2016305
1.2016305
1.2016305
1.2016305
1.2016305
1.2016305
1.2016305
1.2016305
0.84099041
0.84766477
0.85494251
0.862875
0.8715173
0.88092795
0.89116853
0.90230259
0.91439394
0.92750372
0.9416858
0.95698
0.97340236
0.99093198
1.0094943
1.0289416
1.0490341
1.0694257
1.089664
1.1092117
1.1274967
1.1439858
1.158268
1.170119
1.1795278
1.1866742
1.1918712
1.1954938
1.1979168
1.1994722
1.2004299
1.2009941
1.2013109
1.2014795
1.2015637
1.2016028
1.2016195
1.2016259
1.2016281
1.2016288
1.201629
1.201629
1.201629
1.201629
1.201629
1.201629
1.201629
1.201629
1.201629
1.201629
0.84018323
0.84677156
0.85395363
0.86177971
0.87030366
0.87958278
0.88967739
0.90064992
0.91256328
0.92547822
0.93944914
0.95451772
0.97070397
0.98799384
1.0063234
1.0255601
1.0454838
1.0657716
1.0859944
1.1056341
1.1241267
1.140932
1.155614
1.1679114
1.1777709
1.1853357
1.1908936
1.1948083
1.1974546
1.1991726
1.2002432
1.2008826
1.2012472
1.2014447
1.2015456
1.2015936
1.2016148
1.2016232
1.2016262
1.2016272
1.2016275
1.2016275
1.2016275
1.2016275
1.2016275
1.2016275
1.2016275
1.2016275
1.2016275
1.2016275
0.8394509
0.84596127
0.85305668
0.86078641
0.86920324
0.87836335
0.88832591
0.8991523
0.9109046
0.92364314
0.93742261
0.95228623
0.96825726
0.98532744
1.0034419
1.0224813
1.0422426
1.0624235
1.0826166
1.1023221
1.1209859
1.1380635
1.1530997
1.1658006
1.1760751
1.184031
1.1899313
1.1941266
1.1969902
1.1988681
1.2000511
1.2007662
1.2011796
1.2014072
1.2015256
1.2015834
1.2016095
1.2016202
1.2016242
1.2016255
1.2016259
1.201626
1.201626
1.201626
1.201626
1.201626
1.201626
1.201626
1.201626
1.201626
0.83878164
0.84522083
0.85223716
0.859879
0.86819816
0.87724977
0.88709199
0.89778519
0.90939067
0.92196831
0.93557298
0.95024911
0.9660227
0.98289042
1.0008053
1.0196592
1.0392646
1.0593376
1.0794906
1.0992414
1.1180465
1.1353602
1.1507117
1.1637791
1.1744367
1.1827594
1.1889849
1.1934501
1.1965249
1.19856
1.1998546
1.2006456
1.2011086
1.2013672
1.201504
1.2015721
1.2016036
1.201617
1.2016221
1.2016238
1.2016244
1.2016245
1.2016245
1.2016245
1.2016245
1.2016245
1.2016245
1.2016245
1.2016245
1.2016245
0.83816618
0.84453998
0.85148369
0.85904484
0.86727435
0.87622642
0.88595824
0.89652928
0.90800006
0.92043001
0.93387411
0.94837772
0.96396918
0.98064939
0.99837819
1.0170576
1.0365134
1.0564786
1.0765838
1.0963637
1.1152857
1.1328049
1.1484384
1.16184
1.1728526
1.1815198
1.1880547
1.1927796
1.1960599
1.1982492
1.1996545
1.2005215
1.2010346
1.2013248
1.2014807
1.2015598
1.2015971
1.2016134
1.2016198
1.2016221
1.2016228
1.201623
1.201623
1.201623
1.201623
1.201623
1.201623
1.201623
1.201623
1.201623
0.83759709
0.84391049
0.85078713
0.85827379
0.86642057
0.87528081
0.88491078
0.89536914
0.90671565
0.91900931
0.93230508
0.94664912
0.96207175
0.97857754
0.9961323
1.014647
1.0339595
1.0538178
1.0738697
1.0936656
1.1126843
1.1303833
1.14627
1.1599773
1.1713196
1.1803112
1.1871409
1.1921159
1.195596
1.1979367
1.1994514
1.2003943
1.2009579
1.2012803
1.201456
1.2015464
1.20159
1.2016095
1.2016174
1.2016203
1.2016212
1.2016215
1.2016215
1.2016215
1.2016215
1.2016215
1.2016215
1.2016215
1.2016215
1.2016215
0.83706836
0.84332569
0.85014009
0.85755765
0.8656277
0.87440278
0.88393835
0.89429224
0.90552356
0.91769082
0.93084894
0.94504472
0.96031016
0.97665305
0.99404451
1.0124034
1.0315784
1.0513316
1.071326
1.0911275
1.1102261
1.1280827
1.1441976
1.1581855
1.169835
1.1791325
1.1862434
1.1914593
1.1951338
1.197623
1.199246
1.2002645
1.2008788
1.201234
1.2014298
1.2015322
1.2015824
1.2016053
1.2016148
1.2016184
1.2016196
1.2016199
1.20162
1.20162
1.20162
1.20162
1.20162
1.20162
1.20162
1.20162
0.83657503
0.84278008
0.84953648
0.85688966
0.86488824
0.87358402
0.88303168
0.89328832
0.90441238
0.91646191
0.92949175
0.94354922
0.95866775
0.97485797
0.9920957
1.0103069
1.0293502
1.0490001
1.0689342
1.0887327
1.107897
1.1258923
1.1422136
1.1564598
1.1683959
1.1779825
1.1853619
1.1908104
1.1946739
1.1973087
1.1990387
1.2001324
1.2007976
1.2011859
1.2014024
1.2015171
1.2015742
1.2016007
1.2016121
1.2016164
1.2016179
1.2016184
1.2016185
1.2016185
1.2016185
1.2016185
1.2016185
1.2016185
1.2016185
1.2016185
0.83611298
0.84226911
0.84897124
0.8562642
0.86419595
0.87281759
0.88218309
0.89234884
0.90337264
0.9153121
0.92822194
0.94214989
0.95713065
0.97317733
0.99026997
1.0083409
1.0272578
1.0468066
1.0666784
1.0864671
1.105685
1.1238026
1.1403111
1.1547956
1.167
1.1768602
1.1844964
1.1901691
1.1942166
1.1969943
1.1988299
1.1999985
1.2007147
1.2011363
1.2013738
1.2015011
1.2015655
1.2015959
1.2016092
1.2016144
1.2016163
1.2016168
1.201617
1.201617
1.201617
1.201617
1.201617
1.201617
1.201617
1.201617
0.83567875
0.84178895
0.84844013
0.85567657
0.86354561
0.8720977
0.88138613
0.89146662
0.90239638
0.91423259
0.92702979
0.94083606
0.9556872
0.97159855
0.9885539
1.0064914
1.0252868
1.0447369
1.0645451
1.0843182
1.1035796
1.1218054
1.138484
1.1531891
1.1656449
1.1757643
1.1836464
1.1895358
1.1937624
1.1966802
1.1986201
1.199863
1.2006301
1.2010853
1.2013441
1.2014844
1.2015563
1.2015908
1.2016061
1.2016123
1.2016146
1.2016153
1.2016155
1.2016155
1.2016155
1.2016155
1.2016155
1.2016155
1.2016155
1.2016155
0.83526942
0.84133635
0.84793955
0.85512276
0.86293278
0.87141941
0.88063532
0.89063559
0.90147688
0.91321591
0.92590706
0.93959868
0.95432753
0.97011093
0.98693607
1.0047464
1.0234251
1.0427788
1.0625226
1.0822756
1.1015717
1.1198931
1.1367269
1.1516364
1.1643283
1.1746939
1.1828115
1.1889103
1.1933114
1.1963666
1.1984094
1.1997261
1.200544
1.201033
1.2013134
1.2014669
1.2015465
1.2015853
1.2016029
1.2016101
1.2016128
1.2016137
1.201614
1.201614
1.201614
1.201614
1.201614
1.201614
1.201614
1.201614
0.83488248
0.84090853
0.84746642
0.85459939
0.86235368
0.87077852
0.879926
0.88985059
0.90060839
0.9122557
0.92484673
0.93843003
0.9530432
0.96870534
0.98540673
1.0030956
1.0216621
1.0409218
1.0606008
1.0803299
1.0996533
1.1180594
1.1350349
1.1501344
1.1630483
1.1736479
1.1819915
1.1882928
1.1928639
1.1960537
1.1981981
1.1995881
1.2004568
1.2009796
1.2012818
1.2014487
1.2015363
1.2015796
1.2015995
1.2016078
1.201611
1.2016121
1.2016124
1.2016125
1.2016125
1.2016125
1.2016125
1.2016125
1.2016125
1.2016125
0.83451578
0.84050311
0.84701809
0.85410349
0.86180505
0.87017143
0.87925416
0.88910714
0.89978595
0.91134649
0.92384275
0.93732346
0.95182695
0.96737391
0.98395746
1.0015302
1.0199887
1.0391567
1.0587709
1.078473
1.0978172
1.1162984
1.1334036
1.1486798
1.161803
1.1726252
1.1811858
1.1876831
1.1924198
1.1957419
1.1979864
1.1994491
1.2003684
1.2009251
1.2012493
1.2014299
1.2015257
1.2015736
1.2015959
1.2016055
1.2016092
1.2016105
1.2016109
1.201611
1.201611
1.201611
1.201611
1.201611
1.201611
1.201611
0.83416745
0.84011803
0.84659229
0.85363255
0.86128407
0.869595
0.87861632
0.8884014
0.89900531
0.91048355
0.9228899
0.93627321
0.95067247
0.96610983
0.98258094
1.0000425
1.0183968
1.0374757
1.0570252
1.0766976
1.096057
1.1146048
1.1318289
1.14727
1.1605906
1.171625
1.1803941
1.1870812
1.1919795
1.1954311
1.1977746
1.1993092
1.200279
1.2008698
1.201216
1.2014106
1.2015146
1.2015673
1.2015922
1.201603
1.2016074
1.2016089
1.2016094
1.2016095
1.2016095
1.2016095
1.2016095
1.2016095
1.2016095
1.2016095
0.83383586
0.83975148
0.846187
0.85318434
0.86078829
0.86904651
0.87800946
0.88773001
0.89826273
0.90966274
0.92198361
0.93527427
0.9495743
0.96490714
0.9812708
0.99862565
1.0168796
1.0358716
1.0553568
1.0749975
1.0943672
1.112974
1.1303073
1.1459024
1.1594096
1.1706464
1.179616
1.186487
1.1915428
1.1951217
1.1975626
1.1991687
1.2001887
1.2008135
1.2011821
1.2013906
1.2015032
1.2015607
1.2015883
1.2016005
1.2016055
1.2016073
1.2016078
1.201608
1.201608
1.201608
1.201608
1.201608
1.201608
1.201608
0.83351959
0.83940188
0.84580049
0.85275693
0.86031555
0.86852357
0.87743093
0.88709002
0.89755496
0.90888046
0.92111989
0.93432225
0.94852761
0.96376061
0.98002142
0.99727385
1.0154308
1.0343382
1.0537597
1.073367
1.0927427
1.1114019
1.1288356
1.1445747
1.1582583
1.1696884
1.1788511
1.1859003
1.1911098
1.1948136
1.1973508
1.1990277
1.2000976
1.2007565
1.2011474
1.2013701
1.2014913
1.2015539
1.2015842
1.2015979
1.2016035
1.2016056
1.2016063
1.2016065
1.2016065
1.2016065
1.2016065
1.2016065
1.2016065
1.2016065
0.83321738
0.83906784
0.84543121
0.85234861
0.85986397
0.86802407
0.87687839
0.88647885
0.89687911
0.90813352
0.92029524
0.93341328
0.94752817
0.96266566
0.97882787
0.99598182
1.0140451
1.0328701
1.0522284
1.0718009
1.0911791
1.1098844
1.1274106
1.1432846
1.1571355
1.1687502
1.1780989
1.1853211
1.1906807
1.1945069
1.197139
1.1988861
1.2000059
1.2006988
1.2011121
1.2013492
1.2014791
1.2015468
1.2015801
1.2015952
1.2016015
1.2016039
1.2016047
1.201605
1.201605
1.201605
1.201605
1.201605
1.201605
1.201605
0.83292812
0.83874814
0.8450778
0.85195786
0.85943186
0.86754616
0.87634978
0.8858942
0.89623265
0.90741912
0.91950653
0.93254393
0.94657225
0.9616182
0.97768576
0.99474492
1.0127177
1.0314624
1.0507582
1.0702948
1.0896721
1.1084183
1.1260297
1.1420302
1.1560397
1.1678312
1.1773591
1.1847491
1.1902552
1.1942018
1.1969276
1.1987442
1.1999135
1.2006404
1.2010763
1.2013277
1.2014666
1.2015396
1.2015757
1.2015924
1.2015995
1.2016022
1.2016032
1.2016035
1.2016035
1.2016035
1.2016035
1.2016035
1.2016035
1.2016035
0.83265082
0.83844167
0.84473904
0.85158334
0.85901774
0.86708818
0.87584327
0.88533403
0.89561331
0.90673474
0.91875101
0.93171116
0.94565649
0.96061461
0.9765912
0.993559
1.0114441
1.0301106
1.0493448
1.0688446
1.0882181
1.1070003
1.1246903
1.1408096
1.1549697
1.1669304
1.1766314
1.1841843
1.1898335
1.1938983
1.1967164
1.1986019
1.1998205
1.2005814
1.2010399
1.2013058
1.2014537
1.201532
1.2015712
1.2015895
1.2015974
1.2016005
1.2016016
1.2016019
1.201602
1.201602
1.201602
1.201602
1.201602
1.201602
0.8323846
0.83814747
0.84441385
0.85122385
0.85862027
0.86664865
0.8753572
0.88479654
0.89501909
0.90607816
0.91802621
0.93091226
0.94477793
0.95965166
0.9755407
0.99242036
1.0102207
1.0288109
1.0479842
1.0674465
1.0868138
1.1056276
1.1233902
1.1396212
1.1539244
1.1660474
1.1759153
1.1836266
1.1894156
1.1935963
1.1965056
1.1984594
1.1997271
1.2005219
1.201003
1.2012835
1.2014405
1.2015243
1.2015666
1.2015866
1.2015953
1.2015988
1.2016
1.2016004
1.2016005
1.2016005
1.2016005
1.2016005
1.2016005
1.2016005
0.83212867
0.83786465
0.84410127
0.85087832
0.85823826
0.86622625
0.87489013
0.88428009
0.89444819
0.90544738
0.91732992
0.93014479
0.9439339
0.95872644
0.97453113
0.99132568
1.0090437
1.0275596
1.046673
1.0660972
1.0854561
1.1042975
1.1221273
1.1384634
1.1529026
1.1651813
1.1752105
1.1830756
1.1890014
1.1932961
1.1962953
1.1983168
1.1996332
1.2004618
1.2009656
1.2012609
1.201427
1.2015163
1.2015618
1.2015835
1.2015932
1.201597
1.2015984
1.2015989
1.201599
1.201599
1.2015991
1.2015991
1.2015991
1.2015991
0.83188232
0.83759242
0.84380042
0.85054578
0.85787063
0.8658198
0.87444072
0.88378321
0.89389896
0.90484061
0.91666016
0.92940657
0.943122
0.95783634
0.97355967
0.99027196
1.0079103
1.0263536
1.045408
1.0647936
1.0841421
1.1030077
1.1208995
1.1373346
1.1519035
1.1643315
1.1745166
1.1825315
1.1885908
1.1929975
1.1960855
1.198174
1.1995389
1.2004013
1.2009278
1.2012378
1.2014133
1.2015082
1.2015569
1.2015804
1.201591
1.2015953
1.2015969
1.2015974
1.2015975
1.2015975
1.2015976
1.2015976
1.2015976
1.2015976
0.83164491
0.83733009
0.84351051
0.85022535
0.85751643
0.86542822
0.87400779
0.8833046
0.89336996
0.90425621
0.91601513
0.92869563
0.94234006
0.95697901
0.97262378
0.98925649
1.0068174
1.02519
1.0441862
1.0635331
1.0828695
1.1017559
1.1197052
1.1362336
1.1509261
1.1634976
1.1738334
1.1819939
1.1881839
1.1927006
1.1958763
1.1980312
1.1994443
1.2003403
1.2008896
1.2012144
1.2013992
1.2014998
1.2015519
1.2015772
1.2015887
1.2015935
1.2015952
1.2015958
1.201596
1.201596
1.2015961
1.2015961
1.2015961
1.2015961
0.83141585
0.837077
0.84323083
0.84991626
0.85717478
0.86505054
0.87359026
0.88284304
0.89285986
0.90369273
0.91539322
0.92801017
0.94158614
0.95615231
0.97172116
0.98827681
1.0057625
1.0240662
1.043005
1.062313
1.0816358
1.1005402
1.1185425
1.1351591
1.1499694
1.1626788
1.1731606
1.1814627
1.1877806
1.1924055
1.1956676
1.1978883
1.1993493
1.200279
1.200851
1.2011907
1.2013849
1.2014913
1.2015467
1.2015739
1.2015864
1.2015916
1.2015936
1.2015943
1.2015945
1.2015945
1.2015946
1.2015946
1.2015946
1.2015946
0.83119461
0.83683256
0.84296074
0.84961777
0.85684487
0.86468587
0.87318716
0.88239747
0.89236746
0.90314883
0.91479295
0.92734857
0.94085845
0.95535429
0.97084972
0.98733069
1.0047434
1.0229796
1.0418621
1.061131
1.0804389
1.0993585
1.1174101
1.1341098
1.1490326
1.1618748
1.1724978
1.1809379
1.1873809
1.1921121
1.1954595
1.1977454
1.1992541
1.2002173
1.200812
1.2011667
1.2013704
1.2014826
1.2015415
1.2015706
1.2015841
1.2015898
1.201592
1.2015928
1.201593
1.201593
1.2015931
1.2015931
1.2015931
1.2015931
0.83098072
0.83659625
0.84269964
0.84932924
0.856526
0.86433342
0.87279758
0.88196689
0.89189166
0.90262331
0.91421298
0.92670936
0.94015536
0.9545832
0.97000753
0.98641608
1.0037577
1.0219282
1.0407552
1.059985
1.0792768
1.0982092
1.1163063
1.1330847
1.1481149
1.1610849
1.1718447
1.1804192
1.1869847
1.1918204
1.1952521
1.1976026
1.1991586
1.2001552
1.2007727
1.2011424
1.2013556
1.2014737
1.2015361
1.2015672
1.2015817
1.2015879
1.2015904
1.2015912
1.2015915
1.2015915
1.2015916
1.2015916
1.2015916
1.2015916
0.83077374
0.83636759
0.84244699
0.84905007
0.85621749
0.86399245
0.87242073
0.88155039
0.89143146
0.90211505
0.91365209
0.9260912
0.93947541
0.95383742
0.96919286
0.98553113
1.0028037
1.0209099
1.0396823
1.0588731
1.0781477
1.0970906
1.11523
1.1320827
1.1472157
1.1603087
1.1712012
1.1799066
1.186592
1.1915305
1.1950454
1.1974598
1.1990629
1.2000928
1.200733
1.2011177
1.2013406
1.2014647
1.2015305
1.2015636
1.2015792
1.201586
1.2015887
1.2015897
1.20159
1.20159
1.2015901
1.2015901
1.2015901
1.2015901
0.83057326
0.83614612
0.84220231
0.84877972
0.85591874
0.8636623
0.87205585
0.88114717
0.89098594
0.90162304
0.91310916
0.92549284
0.93881723
0.95311548
0.96840412
0.98467413
1.0018794
1.0199228
1.0386415
1.0577933
1.0770498
1.0960013
1.1141798
1.1311029
1.1463342
1.1595458
1.1705668
1.1793999
1.1862027
1.1912424
1.1948394
1.1973172
1.1989671
1.2000302
1.2006931
1.2010929
1.2013254
1.2014555
1.2015249
1.2015601
1.2015768
1.2015841
1.2015871
1.2015881
1.2015884
1.2015885
1.2015886
1.2015886
1.2015886
1.2015886
0.83037892
0.83593143
0.84196514
0.84851768
0.85562919
0.86334234
0.87170226
0.88075645
0.89055428
0.90114636
0.91258317
0.92491317
0.9381796
0.95241602
0.96763983
0.9838435
1.0009832
1.0189653
1.0376311
1.0567441
1.0759817
1.0949399
1.1131545
1.1301443
1.1454697
1.1587957
1.1699414
1.178899
1.1858168
1.190956
1.1946341
1.1971747
1.1988711
1.1999672
1.2006529
1.2010677
1.20131
1.2014461
1.2015192
1.2015564
1.2015742
1.2015822
1.2015854
1.2015865
1.2015869
1.201587
1.2015871
1.2015871
1.2015871
1.2015871
0.83019038
0.83572316
0.84173506
0.8482635
0.85534835
0.86303201
0.87135934
0.88037754
0.8901357
0.90068414
0.91207317
0.92435113
0.93756135
0.95173779
0.96689865
0.98303781
1.0001137
1.0180357
1.0366496
1.0557239
1.0749419
1.093905
1.1121531
1.1292062
1.1446216
1.1580579
1.1693247
1.1784037
1.1854343
1.1906713
1.1944295
1.1970323
1.1987749
1.199904
1.2006124
1.2010424
1.2012944
1.2014366
1.2015133
1.2015527
1.2015717
1.2015802
1.2015837
1.201585
1.2015854
1.2015855
1.2015856
1.2015856
1.2015856
1.2015856
0.83000732
0.83552096
0.8415117
0.84801674
0.85507572
0.86273078
0.87102651
0.88000981
0.88972949
0.90023562
0.9115783
0.92380576
0.93696145
0.95107965
0.96617933
0.98225571
0.9992693
1.0171326
1.0356954
1.0547312
1.073929
1.0928955
1.1111746
1.1282875
1.1437894
1.1573322
1.1687166
1.177914
1.1850551
1.1903884
1.1942257
1.1968902
1.1986787
1.1998406
1.2005717
1.2010168
1.2012786
1.2014269
1.2015074
1.2015489
1.2015691
1.2015782
1.201582
1.2015834
1.2015839
1.201584
1.2015841
1.2015841
1.2015841
1.2015841
0.82982945
0.8353245
0.8412947
0.84777703
0.85481089
0.86243819
0.87070324
0.87965265
0.88933499
0.89980005
0.91109774
0.9232762
0.93637892
0.95044053
0.96548072
0.98149598
0.99844883
1.0162547
1.0347672
1.0537648
1.0729418
1.0919102
1.110218
1.1273878
1.1429724
1.1566181
1.1681166
1.1774297
1.1846792
1.1901073
1.1940226
1.1967482
1.1985823
1.199777
1.2005307
1.200991
1.2012626
1.2014171
1.2015013
1.201545
1.2015664
1.2015762
1.2015803
1.2015818
1.2015824
1.2015825
1.2015826
1.2015826
1.2015826
1.2015826
0.82965651
0.8351335
0.84108373
0.84754398
0.85455345
0.86215378
0.87038902
0.87930553
0.8889516
0.89937678
0.91063077
0.92276161
0.93581286
0.94981945
0.96480176
0.98075749
0.99765105
1.0154006
1.0338637
1.0528233
1.071979
1.0909481
1.1092824
1.1265061
1.1421702
1.1559153
1.1675248
1.1769507
1.1843064
1.1898278
1.1938204
1.1966065
1.1984859
1.1997132
1.2004895
1.2009649
1.2012465
1.2014072
1.2014952
1.2015411
1.2015637
1.2015741
1.2015786
1.2015802
1.2015808
1.201581
1.2015811
1.2015811
1.2015811
1.2015811
0.82948826
0.83494767
0.84087849
0.84731728
0.85430303
0.86187714
0.87008341
0.87896794
0.88857875
0.89896516
0.91017668
0.92226124
0.93526244
0.94921551
0.96414146
0.98003915
0.99687483
1.0145693
1.0329837
1.0519056
1.0710396
1.0900081
1.1083669
1.1256418
1.1413822
1.1552234
1.1669407
1.176477
1.1839368
1.1895501
1.1936189
1.196465
1.1983895
1.1996492
1.2004481
1.2009387
1.2012302
1.2013971
1.201489
1.2015371
1.201561
1.2015721
1.2015768
1.2015787
1.2015793
1.2015795
1.2015796
1.2015796
1.2015796
1.2015796
0.82932446
0.83476677
0.84067869
0.84709661
0.85405928
0.86160788
0.86978598
0.87863941
0.88821593
0.89856464
0.90973485
0.92177439
0.93472689
0.94862786
0.96349891
0.97934001
0.99611914
1.0137597
1.0321262
1.0510106
1.0701226
1.0890894
1.1074708
1.1247943
1.1406079
1.1545422
1.1663643
1.1760083
1.1835704
1.1892741
1.1934182
1.1963237
1.198293
1.1995851
1.2004065
1.2009123
1.2012137
1.2013869
1.2014826
1.2015331
1.2015582
1.20157
1.2015751
1.2015771
1.2015778
1.201578
1.201578
1.2015781
1.2015781
1.2015781
0.82916489
0.83459055
0.84048408
0.84688167
0.85382188
0.86134566
0.86949633
0.87831949
0.88786265
0.89817467
0.90930468
0.9213004
0.93420549
0.94805571
0.96287326
0.97865913
0.995383
1.0129707
1.0312901
1.0501374
1.069227
1.088191
1.1065933
1.123963
1.139847
1.1538712
1.1657954
1.1755446
1.183207
1.1889998
1.1932183
1.1961827
1.1981965
1.1995208
1.2003647
1.2008857
1.2011971
1.2013766
1.2014762
1.2015289
1.2015554
1.2015679
1.2015733
1.2015755
1.2015762
1.2015765
1.2015765
1.2015766
1.2015766
1.2015766
0.82900936
0.8344188
0.84029441
0.8466722
0.85359053
0.86109013
0.8692141
0.87800778
0.88751846
0.89779476
0.90888562
0.92083866
0.93369757
0.94749833
0.9622637
0.97799567
0.9946655
1.0122014
1.0304745
1.0492849
1.0683519
1.0873122
1.1057336
1.1231473
1.139099
1.1532102
1.1652336
1.1750858
1.1828466
1.1887272
1.1930192
1.196042
1.1980999
1.1994564
1.2003227
1.200859
1.2011803
1.2013662
1.2014697
1.2015248
1.2015526
1.2015657
1.2015715
1.2015738
1.2015747
1.201575
1.201575
1.2015751
1.2015751
1.2015751
0.82885768
0.83425131
0.84010945
0.84646795
0.85336496
0.860841
0.86893894
0.87770391
0.88718294
0.89742443
0.90847715
0.9203886
0.9332025
0.94695504
0.9616695
0.97734883
0.99396582
1.0114509
1.0296784
1.0484523
1.0674965
1.0864522
1.1048912
1.1223466
1.1383634
1.152559
1.164679
1.1746318
1.1824892
1.1884562
1.192821
1.1959016
1.1980034
1.1993918
1.2002806
1.200832
1.2011633
1.2013557
1.2014631
1.2015205
1.2015497
1.2015636
1.2015697
1.2015722
1.2015731
1.2015735
1.2015735
1.2015736
1.2015736
1.2015736
0.82870968
0.83408789
0.839929
0.84626868
0.85314489
0.86059796
0.86867054
0.87740751
0.88685568
0.89706325
0.90807879
0.9199497
0.9327197
0.94642519
0.96108996
0.97671786
0.99328314
1.0107184
1.028901
1.0476387
1.0666598
1.0856102
1.1040653
1.1215605
1.1376399
1.1519171
1.1641313
1.1741825
1.1821348
1.188187
1.1926235
1.1957615
1.1979069
1.1993271
1.2002383
1.2008049
1.2011463
1.201345
1.2014564
1.2015162
1.2015467
1.2015614
1.2015679
1.2015706
1.2015716
1.2015719
1.201572
1.2015721
1.2015721
1.2015721
0.8285652
0.83392835
0.83975284
0.84607416
0.85293009
0.86036076
0.86840859
0.87711825
0.88653634
0.89671081
0.90769009
0.91952145
0.93224863
0.94590821
0.96052444
0.97610206
0.99261673
1.0100032
1.0281415
1.0468434
1.0658413
1.0847856
1.1032555
1.1207884
1.1369281
1.1512845
1.1635903
1.1737378
1.1817833
1.1879193
1.1924269
1.1956216
1.1978105
1.1992624
1.2001958
1.2007777
1.2011291
1.2013342
1.2014496
1.2015118
1.2015437
1.2015592
1.2015661
1.201569
1.2015701
1.2015704
1.2015705
1.2015706
1.2015706
1.2015706
0.82842408
0.83377254
0.8395808
0.8458842
0.85272033
0.86012913
0.86815281
0.87683583
0.88622455
0.89636674
0.90731063
0.9191034
0.93178876
0.94540351
0.95997233
0.97550079
0.9919659
1.0093044
1.0273993
1.0460656
1.0650402
1.0839776
1.102461
1.1200299
1.1362276
1.1506608
1.1630559
1.1732976
1.1814346
1.1876533
1.192231
1.1954821
1.197714
1.1991975
1.2001532
1.2007503
1.2011117
1.2013233
1.2014428
1.2015074
1.2015407
1.2015569
1.2015643
1.2015673
1.2015685
1.2015689
1.201569
1.2015691
1.2015691
1.2015691
0.82828618
0.83362029
0.8394127
0.84569859
0.8525154
0.85990284
0.86790294
0.87655994
0.88592
0.89603067
0.90694002
0.91869509
0.93133964
0.94491058
0.95943306
0.97491342
0.99132999
1.0086215
1.0266735
1.0453046
1.0642557
1.0831858
1.1016814
1.1192845
1.1355382
1.1500457
1.1625279
1.1728619
1.1810887
1.187389
1.192036
1.195343
1.1976176
1.1991325
1.2001105
1.2007227
1.2010943
1.2013124
1.2014358
1.2015029
1.2015377
1.2015546
1.2015624
1.2015657
1.2015669
1.2015674
1.2015675
1.2015676
1.2015676
1.2015676
0.82815137
0.83347145
0.83924837
0.84551717
0.85231508
0.85968166
0.86765873
0.87629033
0.88562238
0.89570227
0.90657787
0.91829613
0.93090079
0.94442893
0.95890609
0.97433938
0.99070839
1.0079537
1.0259635
1.0445598
1.0634874
1.0824094
1.1009162
1.1185518
1.1348594
1.1494391
1.1620062
1.1724304
1.1807456
1.1871262
1.1918418
1.1952041
1.1975213
1.1990675
1.2000676
1.2006951
1.2010767
1.2013013
1.2014288
1.2014984
1.2015346
1.2015523
1.2015605
1.201564
1.2015654
1.2015659
1.201566
1.2015661
1.2015661
1.2015661
0.82801952
0.83332588
0.83908767
0.84533975
0.8521192
0.85946539
0.86741995
0.87602671
0.88533141
0.89538121
0.90622384
0.91790614
0.9304718
0.94395809
0.95839091
0.97377813
0.99010052
1.0073005
1.0252687
1.0438306
1.0627345
1.081648
1.1001648
1.1178315
1.134191
1.1488408
1.1614906
1.1720032
1.1804052
1.186865
1.1916484
1.1950656
1.197425
1.1990024
1.2000246
1.2006672
1.2010589
1.2012901
1.2014217
1.2014938
1.2015314
1.20155
1.2015586
1.2015624
1.2015638
1.2015643
1.2015645
1.2015646
1.2015646
1.2015646
0.8278905
0.83318346
0.83893044
0.84516617
0.85192757
0.85925382
0.86718638
0.87576887
0.88504682
0.89506722
0.90587761
0.91752473
0.93005228
0.94349762
0.95788706
0.97322915
0.98950584
1.0066613
1.0245886
1.0431162
1.0619966
1.0809009
1.0994269
1.117123
1.1335326
1.1482505
1.160981
1.1715802
1.1800675
1.1866054
1.1914559
1.1949274
1.1973288
1.1989372
1.1999815
1.2006393
1.2010411
1.2012788
1.2014146
1.2014891
1.2015282
1.2015477
1.2015567
1.2015607
1.2015622
1.2015628
1.201563
1.2015631
1.2015631
1.2015631
0.82776422
0.83304405
0.83877655
0.84499628
0.85174002
0.85904678
0.86695782
0.87551656
0.88476836
0.89475999
0.90553886
0.91715158
0.92964183
0.94304712
0.95739408
0.97269196
0.98892382
1.0060355
1.0239225
1.0424163
1.061273
1.0801678
1.0987019
1.1164262
1.132884
1.1476679
1.1604773
1.1711613
1.1797324
1.1863474
1.1912641
1.1947896
1.1972327
1.1988719
1.1999383
1.2006112
1.2010232
1.2012674
1.2014073
1.2014844
1.201525
1.2015453
1.2015548
1.201559
1.2015607
1.2015613
1.2015615
1.2015616
1.2015616
1.2015616
0.82764056
0.83290755
0.83862586
0.84482995
0.8515564
0.85884408
0.86673406
0.87526957
0.88449578
0.89445928
0.90520731
0.91678637
0.92924012
0.94260619
0.95691156
0.97216611
0.98835399
1.0054226
1.0232699
1.0417303