/*--------------------------------*- C++ -*----------------------------------*\
| =========                 |                                                 |
| \\      /  F ield         | OpenFOAM: The Open Source CFD Toolbox           |
|  \\    /   O peration     | Version:  4.0                                   |
|   \\  /    A nd           | Web:      www.OpenFOAM.org                      |
|    \\/     M anipulation  |                                                 |
\*---------------------------------------------------------------------------*/
FoamFile
{
    version     2.0;
    format      ascii;
    class       surfaceScalarField;
    location    "754";
    object      snGradRho;
}
// * * * * * * * * * * * * * * * * * * * * * * * * * * * * * * * * * * * * * //

dimensions      [1 -4 0 0 0 0 0];

internalField   nonuniform List<scalar> 
9850
(
142.3428
-2.7083904
142.16231
-3.011341
140.75108
-3.3421359
137.91888
-3.6924205
133.5012
-4.049672
127.38422
-4.3967707
119.53439
-4.7120341
110.02875
-4.969998
99.079219
-5.1432276
87.041691
-5.2053392
74.401052
-5.135144
61.727005
-4.92138
49.604264
-4.5669563
38.551032
-4.0912286
28.946984
-3.5289099
20.991181
-2.9250652
14.700309
-2.3271274
9.9430221
-1.776302
6.4946899
-1.301157
4.0937053
-0.91520945
2.485539
-0.618496
1.4491634
-0.40162775
0.80756816
-0.25040479
0.4274289
-0.1495967
0.2130471
-0.085340794
0.098934815
-0.0462512
0.04221207
-0.023652899
0.016236861
-0.011321736
0.0054728008
-0.0050302426
0.0015374413
-0.0020655214
0.00031962438
-0.0007954885
2.7030234e-05
-0.00031119374
-1.3370122e-05
-0.00015172152
-7.9386361e-06
-0.00010864357
-2.3125958e-06
-0.00010014989
-3.5998078e-07
-9.94473e-05
2.7822252e-08
-9.9721591e-05
5.3555355e-08
-9.9870885e-05
4.228295e-08
-9.9909945e-05
3.73378e-08
-9.9916177e-05
3.5907257e-08
-9.9917002e-05
3.56861e-08
-9.9917998e-05
3.5388786e-08
-9.9919586e-05
3.6077982e-08
-9.9921644e-05
3.8819735e-08
-9.9925244e-05
3.4977429e-08
-9.9927216e-05
3.4451292e-08
-9.9939822e-05
-1.153564e-08
-9.9942018e-05
4.2871399e-07
-9.9881392e-05
-0.0001000964
96.345056
-0.5853953
96.506263
-0.6501517
96.80347
-0.7244965
97.174937
-0.81067534
97.516585
-0.9109087
97.673534
-1.0269728
97.435352
-1.1595736
96.53875
-1.3075175
94.682398
-1.4667522
91.558685
-1.6294583
86.905183
-1.7835163
80.572992
-1.9127972
72.599192
-1.9987525
63.258838
-2.0235561
53.06577
-1.9744711
42.701445
-1.8482644
32.880669
-1.6538144
24.198915
-1.4112552
17.021018
-1.1474022
11.450124
-0.88914412
7.3732574
-0.65755932
4.5473621
-0.46487268
2.6850191
-0.31463178
1.5152768
-0.2039976
0.81463417
-0.12662954
0.41508654
-0.075089452
0.19903389
-0.042369953
0.088971111
-0.022623665
0.036629548
-0.011354208
0.01367039
-0.0053199873
0.0045253837
-0.002320023
0.0012859645
-0.00095289253
0.00029577081
-0.00039056062
4.7470461e-05
-0.0001856664
1.8538748e-06
-0.00012107962
-1.838625e-06
-0.00010403127
-7.0378728e-07
-0.00010045646
-1.2044755e-07
-9.9926595e-05
1.7048643e-08
-9.9895423e-05
3.4299191e-08
-9.9906468e-05
3.2573588e-08
-9.9912794e-05
3.0857328e-08
-9.9916438e-05
2.9696698e-08
-9.9919876e-05
2.7028253e-08
-9.9921498e-05
3.4314462e-08
-9.9926477e-05
8.7906432e-09
-9.9926859e-05
3.0305263e-08
-9.9935219e-05
9.2532259e-08
-9.9913628e-05
9.321191e-08
-9.9893378e-05
-0.0001001792
86.512928
-0.28238473
86.245254
-0.31317807
85.99125
-0.3478765
85.743486
-0.38715979
85.48392
-0.43184897
85.177128
-0.48289498
84.761413
-0.54130988
84.138581
-0.60799735
83.164589
-0.68343176
81.645196
-0.76714759
79.342894
-0.85704953
76.002438
-0.94865612
71.400278
-1.0345442
65.415591
-1.1044197
58.106723
-1.1462812
49.761644
-1.1488958
40.886496
-1.1051751
32.115366
-1.0152351
24.064743
-0.88753672
17.191807
-0.73713891
11.715977
-0.58161202
7.6254408
-0.43648277
4.7454712
-0.31215611
2.8251125
-0.21314113
1.6078339
-0.1391207
0.8728345
-0.086810447
0.45015771
-0.051708367
0.21925425
-0.02930621
0.10004417
-0.015727466
0.042329815
-0.0079449613
0.01639795
-0.0037583935
0.0057252262
-0.0016659076
0.0017661562
-0.00070647153
0.00046880656
-0.00030895688
0.00010295384
-0.00016273838
1.7432391e-05
-0.00011597275
1.8927961e-06
-0.00010329394
1.8413993e-08
-0.00010047641
-2.7680839e-08
-9.998868e-05
1.1013472e-08
-9.9929154e-05
2.038027e-08
-9.9925817e-05
2.0398516e-08
-9.9926049e-05
2.5210864e-08
-9.9927989e-05
1.4511532e-08
-9.9927697e-05
3.3441707e-08
-9.9932032e-05
-8.5742273e-09
-9.9934002e-05
7.107532e-08
-9.9933558e-05
1.2729215e-07
-9.991621e-05
-3.52792e-07
-9.9979901e-05
-0.00010007078
81.837498
-0.19994657
81.456204
-0.22162369
81.062668
-0.2459102
80.646758
-0.27314747
80.191848
-0.30370999
79.67206
-0.33799615
79.048486
-0.37640687
78.264236
-0.41930086
77.238427
-0.46690815
75.86009
-0.51917503
73.984364
-0.57551023
71.435458
-0.63441642
68.022753
-0.69304123
63.576231
-0.74678221
58.002292
-0.78921347
51.349081
-0.81268778
43.855025
-0.80985851
35.946733
-0.77594061
28.166691
-0.71090103
21.047786
-0.620397
14.986861
-0.51468003
10.172598
-0.40579479
6.5895272
-0.30440353
4.0782732
-0.2176365
2.4128863
-0.14855702
1.3639149
-0.096908205
0.73505759
-0.06039748
0.37623444
-0.035897641
0.18183181
-0.020275362
0.082325167
-0.01082853
0.034569717
-0.0054387114
0.013299379
-0.0025605597
0.0046188465
-0.0011374566
0.0014226725
-0.00049443861
0.00038028296
-0.00023298066
8.5781156e-05
-0.00013897113
1.5699976e-05
-0.00010966908
2.1911019e-06
-0.00010193237
2.1337057e-07
-0.00010025072
2.32964e-08
-9.9962055e-05
1.9604735e-08
-9.9927215e-05
1.4496358e-08
-9.9925719e-05
2.6018049e-08
-9.992885e-05
3.6141241e-09
-9.9930339e-05
2.8940121e-08
-9.9934066e-05
-7.6510003e-09
-9.9936873e-05
1.0383246e-07
-9.9930375e-05
1.7963223e-08
-9.9930501e-05
-4.945983e-07
-0.00010000804
-0.00010002766
78.546206
-0.1540436
78.1042
-0.17068005
77.645409
-0.18927594
77.161153
-0.21006682
76.637313
-0.23330241
76.052202
-0.25923562
75.37388
-0.28810278
74.556887
-0.32009047
73.538505
-0.35528209
72.234973
-0.39357499
70.538645
-0.43455664
68.318166
-0.47732882
65.425112
-0.52028022
61.711838
-0.5608395
57.06468
-0.59530466
51.451807
-0.61892812
44.974508
-0.6264835
37.898132
-0.61343883
30.635096
-0.57753521
23.668828
-0.5201338
17.440887
-0.44651651
12.249864
-0.36473913
8.2054772
-0.28346945
5.2477838
-0.2098364
3.2077592
-0.14818443
1.8747024
-0.099973659
1.0466348
-0.064474643
0.55683938
-0.039720002
0.28111014
-0.023321701
0.13381548
-0.013000928
0.05956444
-0.006847341
0.024533895
-0.0033925162
0.0092333463
-0.001582482
0.0031283106
-0.00070787867
0.00093777736
-0.00032358314
0.00024374237
-0.00017249939
5.3613346e-05
-0.00012030476
9.6823335e-06
-0.00010477249
1.382341e-06
-0.00010087847
1.5154845e-07
-0.0001000767
2.4610787e-08
-9.9946308e-05
4.9718781e-09
-9.9930629e-05
2.1901648e-08
-9.9930903e-05
-5.7558066e-09
-9.9932892e-05
2.2527208e-08
-9.9934683e-05
5.8475959e-09
-9.9935726e-05
1.0359338e-07
-9.9928125e-05
-1.1513287e-07
-9.9946737e-05
-5.2522279e-07
-0.00010001238
-9.9993317e-05
76.020253
-0.12464131
75.537611
-0.13806389
75.036931
-0.15304946
74.511172
-0.16978263
73.94875
-0.18845817
73.331737
-0.20927222
72.633585
-0.23240647
71.816391
-0.2580023
70.827788
-0.28612004
69.597842
-0.31667808
68.036686
-0.34936599
66.034286
-0.38352765
63.464625
-0.41801629
60.197468
-0.45103866
56.121111
-0.48003461
51.177482
-0.50168308
45.405056
-0.51216778
38.975357
-0.50782582
32.200661
-0.4861667
25.494022
-0.44697643
19.283964
-0.39296572
13.914886
-0.32946583
9.5768198
-0.2631426
6.2915474
-0.20028656
3.9497207
-0.14545508
2.371336
-0.10093621
1.3614524
-0.066992798
0.7464157
-0.042525492
0.38957285
-0.025779658
0.19260227
-0.014880149
0.089567163
-0.0081427937
0.038822993
-0.0042053477
0.015509775
-0.0020460561
0.0056352877
-0.0009463981
0.0018337328
-0.00043304583
0.00052511262
-0.00021667937
0.00012972844
-0.00013573616
2.7029092e-05
-0.00010935502
4.6291232e-06
-0.0001020137
6.3155158e-07
-0.00010030711
7.7078054e-08
-9.9984278e-05
4.1387288e-09
-9.9936683e-05
1.6401747e-08
-9.9932063e-05
-1.0258829e-08
-9.9933906e-05
2.0144712e-08
-9.9934087e-05
2.1637962e-08
-9.9933266e-05
6.8446285e-08
-9.9929369e-05
-2.2781698e-07
-9.9958037e-05
-4.9547185e-07
-0.00010000315
-9.9951459e-05
73.982269
-0.10352859
73.469315
-0.11465106
72.937544
-0.12705663
72.381256
-0.14089556
71.790905
-0.15632708
71.151546
-0.17351282
70.440863
-0.19260506
69.626762
-0.21372716
68.664614
-0.23694256
67.494405
-0.26220819
66.038398
-0.28930772
64.200401
-0.31776181
61.868445
-0.34671694
58.92341
-0.37482526
55.256428
-0.40014714
50.796798
-0.42013598
45.548365
-0.43179381
39.625201
-0.43208948
33.269536
-0.41866576
26.83311
-0.39069716
20.715108
-0.34955485
15.273692
-0.29886316
10.747451
-0.24376033
7.2198404
-0.1896189
4.6348641
-0.14079863
2.8462066
-0.099931656
1.6726159
-0.067876591
0.94000976
-0.044141584
0.50411761
-0.027463665
0.25696594
-0.016311155
0.12376111
-0.0092140007
0.055869261
-0.0049289231
0.023401267
-0.0024893366
0.0089841749
-0.001191698
0.0031168272
-0.00055452631
0.00096146035
-0.00026984334
0.00025900793
-0.00015599143
5.9732586e-05
-0.00011596258
1.1539977e-05
-0.0001038263
1.8199597e-06
-0.00010071728
2.3634894e-07
-0.00010005881
1.8190773e-08
-9.9946994e-05
1.1307014e-08
-9.9932343e-05
-1.0715222e-08
-9.9932609e-05
2.2021436e-08
-9.9931604e-05
2.9733725e-08
-9.9929796e-05
1.4312457e-08
-9.9931759e-05
-3.0525208e-07
-9.9962226e-05
-4.1481576e-07
-9.9988259e-05
-9.9934291e-05
72.293516
-0.088114635
71.757109
-0.097562183
71.201276
-0.10809153
70.621317
-0.11982885
70.009215
-0.13290833
69.352277
-0.14746723
68.631392
-0.16363682
67.818896
-0.18152734
66.876086
-0.20120395
65.750576
-0.22265044
64.373975
-0.2457168
62.660753
-0.27004785
60.509792
-0.29499346
57.810788
-0.31950856
54.458033
-0.3420659
50.373519
-0.36062548
45.538606
-0.37272801
40.027956
-0.37578664
34.032351
-0.36761366
27.853151
-0.3471085
21.857583
-0.31487481
16.402618
-0.27343498
11.755782
-0.22681574
8.0463641
-0.17959483
5.2638049
-0.13581316
3.294659
-0.098209452
1.9744663
-0.067999611
1.1328187
-0.045118722
0.62132118
-0.028682413
0.32476687
-0.017442294
0.160974
-0.010116276
0.075128284
-0.00557352
0.03271353
-0.002906702
0.013140806
-0.0014364419
0.0048050514
-0.00068354058
0.0015752119
-0.00033027599
0.00045516733
-0.0001807891
0.00011379627
-0.0001247334
2.4129998e-05
-0.0001064539
4.2439164e-06
-0.00010137179
6.1052878e-07
-0.00010019141
6.2759177e-08
-9.9967799e-05
1.057081e-08
-9.9933967e-05
-8.187661e-09
-9.9930726e-05
2.6151979e-08
-9.9928757e-05
2.5656355e-08
-9.9927107e-05
-4.3220029e-08
-9.9934221e-05
-3.4993894e-07
-9.9962537e-05
-3.3060231e-07
-9.9973072e-05
-9.9922272e-05
70.859071
-0.076357218
70.303857
-0.084529849
69.728681
-0.093632154
69.129623
-0.10377215
68.499857
-0.11506514
67.828442
-0.12762992
67.098763
-0.14158171
66.286609
-0.15702026
65.357909
-0.17401085
64.266277
-0.19255525
62.95073
-0.21254968
61.334305
-0.23372675
59.324822
-0.25558136
56.819638
-0.27728568
53.716725
-0.29760976
49.934093
-0.31488129
45.437654
-0.32703769
40.273173
-0.33183405
34.591608
-0.32724845
28.652322
-0.31204776
22.791543
-0.28635001
17.357735
-0.25191575
12.635225
-0.2119393
8.7875847
-0.17033685
5.8425242
-0.13081209
3.7172967
-0.096096625
2.2654544
-0.067623614
1.3228344
-0.045634808
0.73944546
-0.029540295
0.39475419
-0.018324453
0.20042463
-0.010867075
0.096181158
-0.006139329
0.043264579
-0.0032921378
0.018052408
-0.0016745457
0.0068999777
-0.00081621331
0.0023810642
-0.0003962703
0.00072986556
-0.00020970038
0.00019522618
-0.00013571478
4.4710134e-05
-0.00011000864
8.5891158e-06
-0.00010233437
1.3587963e-06
-0.00010040471
1.6567451e-07
-0.00010000462
1.9534045e-08
-9.993753e-05
-3.2384785e-09
-9.9928523e-05
2.9923151e-08
-9.9925779e-05
1.0877959e-08
-9.9925408e-05
-9.6689141e-08
-9.9935666e-05
-3.6802327e-07
-9.9959679e-05
-2.5133312e-07
-9.9958335e-05
-9.991203e-05
69.6182
-0.067174745
69.047564
-0.074353462
68.456492
-0.082344109
67.841675
-0.091240703
67.197234
-0.10114392
66.513614
-0.11215808
65.776186
-0.12438551
64.963492
-0.13791693
64.045169
-0.15281611
62.979655
-0.16909621
61.711976
-0.18668529
60.172216
-0.20537838
58.275715
-0.22477523
55.926615
-0.24420732
53.026865
-0.26266586
49.492712
-0.27875681
45.279347
-0.2907255
40.410755
-0.2966057
35.006191
-0.29453607
29.289446
-0.28323076
23.567613
-0.26248753
18.176757
-0.23351601
13.410029
-0.19886687
9.456736
-0.16190333
6.3767937
-0.12600413
4.115636
-0.093835492
2.5450975
-0.066961297
1.5088987
-0.045848473
0.8573146
-0.030140515
0.46599644
-0.019015312
0.24148178
-0.011492183
0.11865797
-0.006633256
0.05487293
-0.0036437923
0.023651795
-0.0019018545
0.0093903198
-0.00094918967
0.0033868233
-0.00046603115
0.0010924284
-0.00024210049
0.00030973969
-0.00014883499
7.578724e-05
-0.00011456309
1.5692547e-05
-0.00010366507
2.6976358e-06
-0.0001007252
3.6976477e-07
-0.0001000658
4.4439457e-08
-9.9945042e-05
3.6607868e-09
-9.9926711e-05
3.0771382e-08
-9.9922949e-05
-1.0431321e-08
-9.9924308e-05
-1.4203413e-07
-9.993593e-05
-3.6571597e-07
-9.9954952e-05
-1.7907748e-07
-9.9946184e-05
-9.9908879e-05
68.528237
-0.059819264
67.944702
-0.066203059
67.340302
-0.073305157
66.71223
-0.081208466
66.055367
-0.090002005
65.361291
-0.09977847
64.616987
-0.11062965
63.80324
-0.12263854
62.892716
-0.13586668
61.847814
-0.1503345
60.618524
-0.16599264
59.140816
-0.18268156
57.336439
-0.20007871
55.115562
-0.21763511
52.38416
-0.23451032
49.058146
-0.24952587
45.085267
-0.26117193
40.472851
-0.26771423
35.314532
-0.26744355
29.803733
-0.25906954
24.220566
-0.24217676
18.886636
-0.2175662
14.098438
-0.18727932
10.064507
-0.15421213
6.8718675
-0.12143927
4.4916078
-0.091530135
2.8136003
-0.066122788
1.6904942
-0.045852009
0.97423121
-0.030549512
0.5378668
-0.019556341
0.28367814
-0.012013206
0.14225793
-0.007063462
0.067373623
-0.0039623708
0.029866567
-0.0021161528
0.012255542
-0.0010800363
0.0045939862
-0.00053798279
0.0015494714
-0.00027730423
0.00046241118
-0.00016393384
0.00011991899
-0.00012014575
2.6514762e-05
-0.00010541261
4.904204e-06
-0.00010117914
7.3711678e-07
-0.00010016067
9.5130615e-08
-9.9959111e-05
1.3117233e-08
-9.9926141e-05
2.766676e-08
-9.992075e-05
-3.4573041e-08
-9.9923666e-05
-1.7795426e-07
-9.9935442e-05
-3.5066499e-07
-9.9949669e-05
-1.2086514e-07
-9.9936644e-05
-9.9907611e-05
67.55897
-0.053811966
66.964476
-0.059547434
66.348733
-0.065925254
65.709341
-0.073019337
65.041816
-0.080909224
64.338667
-0.089678091
63.588219
-0.099408952
62.773118
-0.1101781
61.868553
-0.12204444
60.840227
-0.13503303
59.642305
-0.14911072
58.215747
-0.16415182
56.487827
-0.17989257
54.37408
-0.19587567
51.784408
-0.21139144
48.635294
-0.22543162
44.869334
-0.23668416
40.480972
-0.24360977
35.542924
-0.24464023
30.222556
-0.2385096
24.775232
-0.2246617
19.507142
-0.20359059
14.714282
-0.1769295
10.619349
-0.1471769
7.3321677
-0.11712662
4.8470583
-0.089234227
3.0713943
-0.065173149
1.8674022
-0.045703873
1.0897603
-0.030811688
0.6099283
-0.019976761
0.32666319
-0.012446368
0.16673912
-0.0074367437
0.080622665
-0.0042489774
0.036625741
-0.0023159719
0.015470023
-0.0012067992
0.0059992493
-0.0006106907
0.0021050375
-0.00031458573
0.00065747458
-0.00018077817
0.00017958115
-0.00012674195
4.2098962e-05
-0.00010761163
8.3123429e-06
-0.00010179115
1.3502676e-06
-0.00010029918
1.8630009e-07
-9.9982623e-05
2.6669464e-08
-9.9927428e-05
2.100343e-08
-9.9919263e-05
-5.9033542e-08
-9.9923189e-05
-2.0482064e-07
-9.9934346e-05
-3.2830684e-07
-9.994432e-05
-7.5560449e-08
-9.9929149e-05
-9.9907201e-05
66.688139
-0.04882192
66.084214
-0.054019511
65.458691
-0.059796741
64.809512
-0.066220109
64.132724
-0.073361315
63.421623
-0.08129561
62.665657
-0.090098608
61.849044
-0.099840735
60.949103
-0.11057818
59.934341
-0.12233886
58.762475
-0.1351015
57.378754
-0.14876609
55.715263
-0.16311428
53.69233
-0.1777604
51.223615
-0.19209825
48.226731
-0.2052561
44.64075
-0.21608389
40.450055
-0.22320741
35.710131
-0.22518702
30.565887
-0.22079774
25.250127
-0.20939252
20.053364
-0.19123293
15.268395
-0.16762204
11.128098
-0.14071851
7.7614304
-0.11305906
5.1836743
-0.086977083
3.3189952
-0.064154091
2.0395667
-0.045444331
1.2036263
-0.030959391
0.68186807
-0.020299134
0.37016825
-0.012805156
0.19190456
-0.0077595079
0.094494521
-0.0045053483
0.043861501
-0.0025006175
0.01900506
-0.0013280332
0.0075954886
-0.00068291477
0.0027607549
-0.00035322199
0.00089819045
-0.00019908048
0.0002570498
-0.00013429553
6.3525189e-05
-0.00011027975
1.3304999e-05
-0.00010258242
2.3132346e-06
-0.00010049163
3.3893167e-07
-0.000100019
4.7193075e-08
-9.9931388e-05
1.2031751e-08
-9.9918582e-05
-8.2208248e-08
-9.9922785e-05
-2.2365425e-07
-9.99329e-05
-3.0226557e-07
-9.9939339e-05
-4.1313101e-08
-9.9923621e-05
-9.9908186e-05
65.898976
-0.044617373
65.286846
-0.049362261
64.652798
-0.054634237
63.995069
-0.060493599
63.310155
-0.067005469
62.592021
-0.074238408
61.831076
-0.08226171
61.012881
-0.091140654
60.116576
-0.10092873
59.113077
-0.11165551
57.963165
-0.12330858
56.61581
-0.13580774
55.007323
-0.14897031
53.062337
-0.16246758
50.698064
-0.17577647
47.833589
-0.18813643
44.405633
-0.19853162
40.39066
-0.20572853
35.829844
-0.20840379
30.848657
-0.20538213
25.659403
-0.19596017
20.537095
-0.18022244
15.769446
-0.15920312
11.596371
-0.13476943
8.1628309
-0.10922397
5.5029695
-0.084775243
3.556937
-0.063093434
2.2070232
-0.045101889
1.3156567
-0.031016538
0.75345996
-0.020540901
0.41398615
-0.013100615
0.21759413
-0.0080375091
0.1088811
-0.0047335004
0.051510932
-0.0026699481
0.022830735
-0.0014427371
0.0093727927
-0.00075363397
0.0035161178
-0.00039253609
0.0011867889
-0.00021852515
0.00035430222
-0.0001427164
9.1860466e-05
-0.00011341695
2.030151e-05
-0.00010356895
3.7509672e-06
-0.00010074783
5.8119469e-07
-0.00010007189
7.938358e-08
-9.993897e-05
2.428263e-09
-9.9918832e-05
-1.0322055e-07
-9.9922476e-05
-2.3581276e-07
-9.9931341e-05
-2.7528567e-07
-9.9934942e-05
-1.7228058e-08
-9.9919614e-05
-9.9909252e-05
65.178548
-0.041030972
64.559212
-0.045390106
63.917668
-0.05023173
63.252401
-0.055610886
62.560298
-0.061587108
61.835899
-0.068223246
61.070442
-0.075583143
60.250649
-0.083727533
59.357238
-0.092707291
58.363213
-0.10255287
57.232026
-0.1132585
55.915909
-0.12475952
54.354915
-0.13690168
52.477556
-0.14940221
50.204382
-0.16180579
47.456155
-0.17344352
44.168094
-0.18341194
40.310394
-0.1905983
35.912257
-0.19378384
31.082256
-0.19184701
26.014095
-0.18405215
20.967731
-0.17034846
16.2245
-0.15154985
12.028853
-0.12927283
8.5390957
-0.10560762
5.8062995
-0.082638652
3.7857448
-0.062011055
2.3698601
-0.044697982
1.4257469
-0.031001788
0.82453891
-0.020716212
0.45795566
-0.013342168
0.24367723
-0.0082760661
0.1236898
-0.0049356776
0.059516723
-0.0028242729
0.026917248
-0.001550303
0.011319395
-0.00082205309
0.0043688499
-0.00043192621
0.0015244952
-0.00023879146
0.00047295096
-0.00015189018
0.00012811279
-0.00011700694
2.9741946e-05
-0.00010476078
5.8071714e-06
-0.00010107657
9.4874935e-07
-0.00010014503
1.3000725e-07
-9.9951197e-05
-5.8997326e-09
-9.9920119e-05
-1.216342e-07
-9.9922266e-05
-2.4261264e-07
-9.9929762e-05
-2.4897459e-07
-9.9931128e-05
-1.0595016e-09
-9.9916704e-05
-9.9910148e-05
64.516689
-0.037939174
63.890975
-0.041966063
63.242785
-0.046437174
62.570823
-0.051403048
61.872312
-0.056918418
61.142296
-0.06304121
60.372736
-0.069830523
59.551363
-0.077343054
58.660279
-0.085627193
57.674316
-0.094713738
56.559273
-0.10460195
55.270267
-0.11523952
53.750685
-0.12649515
51.932553
-0.13812363
49.739547
-0.1497255
47.094216
-0.16070831
43.930904
-0.17026359
40.214818
-0.17738286
35.965082
-0.18094133
31.275514
-0.17987222
26.322945
-0.17342445
21.35287
-0.16144362
16.639387
-0.14456224
12.429504
-0.12418044
8.8925872
-0.10219622
6.0948809
-0.080573079
4.0059241
-0.060921458
2.5281981
-0.044249105
1.5338398
-0.030930012
0.89498504
-0.020836746
0.50195119
-0.013537951
0.27004753
-0.0084800929
0.13884191
-0.0051142537
0.067827549
-0.0029642491
0.031235909
-0.0016504625
0.013422487
-0.00088759796
0.0053152973
-0.00047088496
0.0019116155
-0.00025957301
0.00061421137
-0.00016168807
0.00017319317
-0.00012101954
4.2070595e-05
-0.00010616164
8.640899e-06
-0.00010148509
1.4847397e-06
-0.00010024209
2.0812904e-07
-9.9969212e-05
-1.0805848e-08
-9.992263e-05
-1.3720381e-07
-9.9922204e-05
-2.4519332e-07
-9.9928243e-05
-2.242146e-07
-9.9927883e-05
9.1706206e-09
-9.9914645e-05
-9.9910956e-05
63.905277
-0.035248917
63.273876
-0.03898696
62.619753
-0.043136071
61.941804
-0.047742897
61.237547
-0.052858014
60.502466
-0.058535057
59.729158
-0.064828967
58.906248
-0.071792843
58.017051
-0.07947273
57.038019
-0.087899401
55.937028
-0.097075974
54.671764
-0.10696003
53.188607
-0.11743906
51.422777
-0.12829888
49.300871
-0.13918662
46.747277
-0.14957418
43.695928
-0.15873414
40.108052
-0.16574856
35.994241
-0.16957707
31.435373
-0.16920692
26.592966
-0.16388345
21.698729
-0.15337293
17.018978
-0.1381578
12.801695
-0.11945094
9.2253664
-0.098976515
6.3698084
-0.078581632
4.2179551
-0.059835418
2.6821766
-0.04376818
1.6399116
-0.030813246
0.96471228
-0.020912261
0.54587514
-0.013695029
0.29661874
-0.0086541082
0.15427102
-0.005271648
0.076398123
-0.0030907873
0.035759841
-0.0017432271
0.015668899
-0.00094989858
0.0063508212
-0.00050900865
0.0023476649
-0.0002805928
0.00077889944
-0.00017197671
0.00022788782
-0.00012541417
5.771999e-05
-0.00010776927
1.2422054e-05
-0.00010197876
2.239327e-06
-0.00010036653
3.2522481e-07
-9.9994232e-05
-9.8326622e-09
-9.9926613e-05
-1.4974868e-07
-9.9922354e-05
-2.4451259e-07
-9.9926834e-05
-2.0149126e-07
-9.9925145e-05
1.4926966e-08
-9.9913185e-05
-9.9911477e-05
63.33772
-0.032888817
62.701219
-0.036373665
62.041769
-0.040240613
61.358433
-0.044532913
60.648993
-0.049297504
59.909322
-0.054584264
59.132583
-0.060444458
58.308188
-0.066927961
57.420535
-0.074078622
56.447515
-0.081926939
55.35886
-0.090478989
54.114557
-0.099700382
52.663684
-0.10949412
50.944378
-0.11967191
48.885971
-0.12992014
46.414692
-0.13976538
43.464412
-0.14854982
39.993184
-0.15543463
36.004336
-0.15945537
31.567358
-0.15965151
26.829849
-0.1552731
22.010451
-0.14602585
17.367375
-0.13226758
13.148326
-0.11504856
9.5392427
-0.095935827
6.6320692
-0.07666545
4.4222905
-0.058760853
2.8319451
-0.043265329
1.7439627
-0.030661235
1.0336603
-0.020950896
0.58965199
-0.01381951
0.32332116
-0.0088022101
0.16992156
-0.0054102322
0.08518902
-0.0032049536
0.04046443
-0.0018288219
0.018045643
-0.0010087615
0.0074701618
-0.00054599682
0.0028315185
-0.00030161299
0.00096745538
-0.00018262644
0.00029284193
-0.00013014359
7.7097082e-05
-0.00010957617
1.7326396e-05
-0.00010256095
3.2688461e-06
-0.00010052143
4.9520351e-07
-0.0001000275
-1.0080272e-10
-9.9932366e-05
-1.5905481e-07
-9.9922778e-05
-2.4132282e-07
-9.9925548e-05
-1.8096131e-07
-9.9922832e-05
1.7591519e-08
-9.9912132e-05
-9.9911732e-05
62.808607
-0.030803252
62.167506
-0.034064523
61.503246
-0.037682393
60.81504
-0.04169713
60.100901
-0.046152472
59.357053
-0.051094976
58.577159
-0.056572643
57.75134
-0.062632446
56.864961
-0.069316182
55.897198
-0.076653905
54.819454
-0.084653972
53.593788
-0.093288561
52.171727
-0.10247361
50.49408
-0.11204264
48.492732
-0.12171537
46.095742
-0.13106519
43.237175
-0.13949456
39.872549
-0.14623412
35.998986
-0.15038775
31.675912
-0.15104488
27.038261
-0.14746596
22.292326
-0.13931079
17.688062
-0.12683324
13.471903
-0.11094204
9.8358129
-0.093062152
6.8825557
-0.074824339
4.6193552
-0.05770358
2.9776576
-0.042748531
1.8460102
-0.030481916
1.1017883
-0.020959455
0.63322371
-0.013916646
0.35009873
-0.0089280652
0.18574733
-0.0055322621
0.094166305
-0.0033078895
0.045327545
-0.0019076231
0.02054031
-0.0010641361
0.0086677528
-0.00058164323
0.0033615696
-0.00032243847
0.0011799858
-0.00019351723
0.00036855439
-0.00013515732
0.00010057247
-0.00011157061
2.3530546e-05
-0.00010323302
4.6346916e-06
-0.00010070939
7.3435835e-07
-0.00010007028
2.1806672e-08
-9.9940243e-05
-1.6480877e-07
-9.9923559e-05
-2.3619232e-07
-9.9924401e-05
-1.6259564e-07
-9.9920875e-05
1.8216161e-08
-9.9911365e-05
-9.9911791e-05
62.31344
-0.028948253
61.66817
-0.032010803
60.999547
-0.035407351
60.306915
-0.039175524
59.588499
-0.043356225
58.840833
-0.047993058
58.058033
-0.05313111
57.230854
-0.058814728
56.34553
-0.065083798
55.382401
-0.071967819
54.314374
-0.079476903
53.105386
-0.087588649
51.709195
-0.096229868
50.069068
-0.1052526
48.119281
-0.11440511
45.789684
-0.12330119
43.014731
-0.13139576
39.747926
-0.1379808
35.981064
-0.14222185
31.764644
-0.14325563
27.22206
-0.14035693
22.547961
-0.13315105
17.984019
-0.12180499
13.774608
-0.10710386
10.116492
-0.090344086
7.1220763
-0.073057007
4.8095463
-0.056667635
3.1194686
-0.042223922
1.9460834
-0.030281628
1.16907
-0.020943522
0.67654603
-0.013990871
0.37690648
-0.0090348784
0.20171013
-0.0056398116
0.10330103
-0.0034007371
0.050329584
-0.0019800972
0.023141327
-0.0011160793
0.009937973
-0.00061582252
0.0039358769
-0.00034291677
0.0014163154
-0.00020454253
0.0004553814
-0.00014040462
0.00012847296
-0.00011373779
3.1207368e-05
-0.0001039945
6.4020085e-06
-0.00010093246
1.0612299e-06
-0.00010012376
5.9930665e-08
-9.9950641e-05
-1.6655762e-07
-9.9924793e-05
-2.2953474e-07
-9.9923404e-05
-1.4626949e-07
-9.9919215e-05
1.7550704e-08
-9.9910783e-05
-9.9911673e-05
61.848445
-0.02728864
61.199381
-0.030173516
60.526782
-0.033372237
59.830113
-0.036920081
59.107786
-0.040855421
58.356619
-0.045219225
57.571134
-0.050053959
56.742659
-0.05540159
55.858217
-0.061300223
54.899199
-0.06777873
53.839877
-0.074848575
52.645901
-0.082491855
51.273069
-0.090644597
49.666915
-0.099174695
47.763954
-0.10785501
45.495782
-0.11633442
42.797387
-0.12411382
39.620681
-0.13053958
35.952869
-0.13483298
31.836512
-0.13617532
27.384464
-0.13385836
22.780415
-0.12748187
18.257813
-0.11714
14.05835
-0.10350968
10.382539
-0.087770926
7.3513646
-0.071361482
4.9932345
-0.055655792
3.2575302
-0.041696264
2.0442191
-0.030065482
1.2354905
-0.020907702
0.71958535
-0.014045923
0.40370843
-0.0091254234
0.21777843
-0.0057347438
0.11256867
-0.0034845887
0.055453375
-0.0020467533
0.025838106
-0.0011647218
0.011275334
-0.000648474
0.0045522945
-0.00036293425
0.0016760433
-0.00021561098
0.00055354688
-0.00014583672
0.00016107742
-0.00011606095
4.0522013e-05
-0.00010484334
8.6383063e-06
-0.00010119216
1.496399e-06
-0.00010018908
1.189973e-07
-9.9963988e-05
-1.6367325e-07
-9.9926591e-05
-2.2162413e-07
-9.9922571e-05
-1.3179572e-07
-9.9917798e-05
1.6163128e-08
-9.9910321e-05
-9.9911424e-05
61.410427
-0.02579594
60.757896
-0.028521109
60.08166
-0.031542056
59.381294
-0.034891952
58.655379
-0.038606908
57.90099
-0.04272552
57.113017
-0.047287889
56.283312
-0.052333818
55.39961
-0.057899751
54.444261
-0.064013888
53.392783
-0.070688731
52.21239
-0.077910135
50.860756
-0.085621983
49.285509
-0.093705832
47.425269
-0.10195589
45.213323
-0.1100517
42.585301
-0.11753465
39.491865
-0.12379955
35.916258
-0.12811819
31.893956
-0.12971375
27.528176
-0.1278966
22.992295
-0.12224809
18.511665
-0.11280121
14.324806
-0.10013789
10.63508
-0.085332654
7.5710883
-0.069735315
5.170765
-0.054669814
3.3919906
-0.041169189
2.1404597
-0.029837551
1.3010428
-0.020855764
0.76231642
-0.014084925
0.43047574
-0.0092020766
0.23392625
-0.0058187081
0.12194849
-0.0035604596
0.06068399
-0.0021081099
0.028621088
-0.0012102416
0.012674608
-0.00067958686
0.0052085775
-0.00038241118
0.0019585956
-0.0002266467
0.00066315695
-0.00015140835
0.00019861547
-0.00011852229
5.16288e-05
-0.00010577615
1.1412094e-05
-0.00010148941
2.0622299e-06
-0.00010026729
2.0445372e-07
-9.9980731e-05
-1.5532389e-07
-9.9929082e-05
-2.1261184e-07
-9.9921922e-05
-1.1896073e-07
-9.9916587e-05
1.4441727e-08
-9.9909936e-05
-9.9911091e-05
60.996658
-0.024446866
60.340948
-0.027027778
59.661374
-0.029888188
58.957609
-0.033059374
58.228392
-0.036575407
57.471028
-0.040472741
56.680747
-0.04478934
55.849873
-0.049563023
54.966796
-0.054828688
54.014741
-0.060613843
52.970367
-0.066931773
51.802324
-0.073771498
50.470012
-0.08108364
48.923009
-0.088761599
47.101905
-0.096618216
44.941627
-0.10435998
42.378524
-0.11156414
39.362292
-0.11766881
35.872741
-0.12199169
31.939008
-0.12379516
27.655481
-0.12240924
23.185839
-0.11740244
18.747506
-0.10875629
14.575458
-0.096969189
10.875122
-0.083019874
7.7818557
-0.068175709
5.3424595
-0.053710672
3.5229926
-0.040645409
2.2348508
-0.029601049
1.3657264
-0.020790755
0.80472052
-0.014110456
0.45718534
-0.0092668415
0.25013216
-0.0058931351
0.13142298
-0.0036292681
0.06600852
-0.0021646684
0.031481736
-0.0012528417
0.014130903
-0.0007091858
0.0059024637
-0.00040129556
0.0022632749
-0.00023758834
0.00078421658
-0.00015707867
0.00024126851
-0.00012110383
6.4668939e-05
-0.00010678858
1.4791609e-05
-0.00010182465
2.7825677e-06
-0.00010035931
3.2247858e-07
-0.00010000133
-1.4045122e-07
-9.9932413e-05
-2.0253757e-07
-9.9921484e-05
-1.0754345e-07
-9.9915552e-05
1.2639086e-08
-9.9909597e-05
-9.99107e-05
60.604792
-0.023222211
59.946156
-0.025672243
59.263508
-0.028387036
58.556612
-0.031396159
57.824345
-0.034731834
57.064228
-0.038428579
56.271799
-0.042522406
55.439817
-0.047049322
54.557271
-0.05204278
53.608188
-0.057529587
52.570277
-0.063523618
51.413511
-0.070016559
50.098888
-0.076964858
48.577796
-0.084272235
46.792683
-0.09176789
44.680055
-0.09918211
42.177035
-0.10612402
39.232592
-0.11207063
35.823553
-0.11638145
31.97337
-0.11835556
27.768323
-0.11734306
23.362978
-0.11290414
18.967029
-0.10497697
14.811619
-0.093986286
11.103573
-0.080823821
7.9842225
-0.066679659
5.5086173
-0.052778731
3.6506734
-0.040126914
2.3274396
-0.029358495
1.429545
-0.020715128
0.84678391
-0.014124628
0.48381866
-0.0093213902
0.26637838
-0.0059592462
0.1409774
-0.0036918221
0.071415826
-0.0022168937
0.03441247
-0.0012927317
0.015639704
-0.00073731861
0.0066317326
-0.00041955722
0.0025893005
-0.00024838755
0.00091664656
-0.00016281155
0.00028917235
-0.00012378797
7.9769077e-05
-0.00010787554
1.8843692e-05
-0.00010219781
3.6824192e-06
-0.00010046593
4.7997041e-07
-0.00010002626
-1.177487e-07
-9.9936748e-05
-1.9133497e-07
-9.9921293e-05
-9.7322282e-08
-9.9914673e-05
1.09178e-08
-9.9909288e-05
-9.9910279e-05