/*--------------------------------*- C++ -*----------------------------------*\
| =========                 |                                                 |
| \\      /  F ield         | OpenFOAM: The Open Source CFD Toolbox           |
|  \\    /   O peration     | Version:  4.0                                   |
|   \\  /    A nd           | Web:      www.OpenFOAM.org                      |
|    \\/     M anipulation  |                                                 |
\*---------------------------------------------------------------------------*/
FoamFile
{
    version     2.0;
    format      ascii;
    class       volScalarField;
    location    "754";
    object      T;
}
// * * * * * * * * * * * * * * * * * * * * * * * * * * * * * * * * * * * * * //

dimensions      [0 0 0 1 0 0 0];

internalField   nonuniform List<scalar> 
5000
(
388.79439
382.86316
376.55178
369.91022
363.00848
355.93681
348.8043
341.73525
334.86323
328.32295
322.24051
316.72315
311.84994
307.66508
304.17531
301.35185
299.1368
297.45244
296.21141
295.32604
294.71524
294.30867
294.0485
293.88924
293.79659
293.74581
293.71988
293.70771
293.70256
293.70065
293.70006
293.69992
293.69991
293.69992
293.69992
293.69992
293.69992
293.69992
293.69992
293.69992
293.69992
293.69992
293.69992
293.69992
293.69992
293.69992
293.69992
293.69992
293.69993
293.69992
407.00945
402.59025
397.83044
392.70708
387.2005
381.29813
374.99951
368.32264
361.31078
354.0389
346.61775
339.19377
331.94247
325.05453
318.71525
313.08075
308.25667
304.28515
301.14396
298.75756
297.01579
295.79419
294.9711
294.43891
294.10949
293.91501
293.80612
293.74871
293.72049
293.70771
293.70246
293.70055
293.69995
293.6998
293.69978
293.69978
293.69978
293.69978
293.69978
293.69978
293.69978
293.69978
293.69978
293.69978
293.69978
293.69978
293.69978
293.69978
293.69978
293.69978
411.17255
407.11864
402.76372
398.09296
393.09257
387.75086
382.05996
376.01857
369.63591
362.93721
355.97021
348.81196
341.57393
334.40271
327.47343
320.9743
315.08324
309.94151
305.63192
302.1686
299.50141
297.53256
296.13871
295.19199
294.57526
294.19046
293.96114
293.83119
293.76162
293.7267
293.71046
293.70353
293.70087
293.69997
293.69971
293.69965
293.69963
293.69963
293.69963
293.69963
293.69963
293.69963
293.69963
293.69963
293.69963
293.69963
293.69963
293.69963
293.69963
293.69963
413.21098
409.33615
405.17588
400.71724
395.94867
390.86075
385.44738
379.70745
373.64711
367.28292
360.646
353.78705
346.78171
339.73494
332.78219
326.0846
319.81604
314.14228
309.19616
305.05603
301.73482
299.18343
297.3063
295.98298
295.08874
294.50962
294.15066
293.93826
293.8188
293.75533
293.72372
293.70913
293.70295
293.70059
293.69979
293.69956
293.6995
293.69949
293.69949
293.69949
293.69949
293.69949
293.69949
293.69949
293.69949
293.69949
293.69949
293.69949
293.69949
293.69949
414.66638
410.91984
406.8983
402.58943
397.9821
393.06713
387.8383
382.29372
376.43771
370.28325
363.85516
357.19392
350.35996
343.4377
336.53827
329.79866
323.37532
317.43038
312.11148
307.52921
303.73912
300.73473
298.45379
296.79505
295.63906
294.86679
294.37243
294.06963
293.8927
293.79453
293.74316
293.718
293.70661
293.70189
293.70013
293.69955
293.69939
293.69935
293.69934
293.69934
293.69934
293.69934
293.69934
293.69934
293.69934
293.69934
293.69934
293.69934
293.69934
293.69934
415.79451
412.14771
408.2339
404.04104
399.5582
394.77617
389.6883
384.29175
378.58908
372.59045
366.31628
359.80064
353.09497
346.27188
339.42794
332.68435
326.18337
320.07888
314.52057
309.63373
305.49961
302.14282
299.53032
297.58222
296.19005
295.23619
294.60957
294.21518
293.97783
293.84172
293.76776
293.72993
293.7119
293.70398
293.70081
293.69967
293.69932
293.69922
293.6992
293.69919
293.69919
293.69919
293.69919
293.69919
293.69919
293.69919
293.69919
293.69919
293.69919
293.69919
416.71167
413.14619
409.32016
405.22181
400.84037
396.16657
391.19343
385.91735
380.33949
374.46773
368.31908
361.92271
355.32343
348.58523
341.79435
335.06061
328.51542
322.30498
316.57747
311.46532
307.06587
303.42607
300.5366
298.33746
296.73288
295.61009
294.8564
294.3712
294.07204
293.89583
293.79711
293.74484
293.71889
293.70693
293.70188
293.69996
293.6993
293.69911
293.69906
293.69905
293.69905
293.69905
293.69905
293.69905
293.69905
293.69905
293.69905
293.69905
293.69905
293.69905
417.47644
413.97891
410.22622
406.20682
401.91008
397.32672
392.44953
387.27433
381.80123
376.03637
369.99413
363.69985
357.19313
350.53123
343.79222
337.0768
330.50749
324.22353
318.37039
313.08407
308.47261
304.59955
301.47478
299.05599
297.26022
295.98119
295.10691
294.53335
294.1725
293.95521
293.83041
293.76241
293.7275
293.71079
293.7034
293.70043
293.69936
293.69902
293.69893
293.69891
293.6989
293.6989
293.6989
293.6989
293.6989
293.6989
293.6989
293.6989
293.6989
293.6989
418.12945
414.69006
411.00009
407.04823
402.82394
398.31797
393.52296
388.43428
383.05125
377.37863
371.42871
365.22383
358.79939
352.2072
345.51862
338.82678
332.24652
325.91069
319.96145
314.53635
309.75081
305.68112
302.35298
299.7397
297.77065
296.3468
295.35831
294.69929
294.27752
294.01877
293.86702
293.78234
293.73765
293.71554
293.7054
293.70113
293.69951
293.69897
293.6988
293.69876
293.69876
293.69875
293.69875
293.69875
293.69875
293.69875
293.69875
293.69875
293.69876
293.69876
418.69689
415.30809
411.67272
407.77962
403.61838
399.1798
394.45637
389.44317
384.13885
378.54712
372.67858
366.5531
360.20269
353.67465
347.03475
340.36964
333.78744
327.41511
321.39119
315.85344
310.92241
306.68435
303.17819
300.39104
298.26392
296.70542
295.60874
294.86732
294.38578
294.0856
293.9064
293.80435
293.74921
293.72117
293.70788
293.70207
293.69977
293.69895
293.6987
293.69863
293.69861
293.69861
293.69861
293.69861
293.69861
293.69861
293.69861
293.69861
293.69861
293.69861
419.19728
415.85316
412.26599
408.42477
404.31922
399.94015
395.28
390.33357
385.09901
379.57916
373.78323
367.72908
361.44588
354.97715
348.38389
341.7472
335.16927
328.77157
322.68893
317.05843
312.00415
307.62017
303.95657
301.01274
298.7406
297.05642
295.85714
295.03634
294.49633
294.155
293.94809
293.82817
293.76206
293.72763
293.71084
293.70327
293.70014
293.69898
293.6986
293.69849
293.69847
293.69846
293.69846
293.69846
293.69846
293.69846
293.69846
293.69846
293.69846
293.69846
419.64381
416.33961
412.7955
409.00063
404.94483
400.61894
396.01536
391.12868
385.95665
380.50135
374.77089
368.7814
362.55965
356.14596
349.59725
342.98975
336.42036
330.00554
323.87636
318.16867
313.00884
308.49719
304.69324
301.60728
299.20144
297.39959
296.10282
295.20556
294.60847
294.22643
293.9917
293.85358
293.77608
293.73488
293.71429
293.70473
293.70065
293.69907
293.69853
293.69837
293.69833
293.69832
293.69832
293.69832
293.69832
293.69832
293.69832
293.69832
293.69832
293.69832
420.04624
416.77806
413.2728
409.51974
405.50881
401.23092
396.6784
391.84571
386.73023
381.33345
375.66249
369.73206
363.56687
357.20446
350.6982
344.12005
337.56219
331.13643
324.97018
319.19765
313.94663
309.32239
305.39245
302.17687
299.64724
297.7349
296.34537
295.37443
294.72166
294.29943
294.03692
293.88036
293.79116
293.74286
293.7182
293.70645
293.70129
293.69922
293.69848
293.69825
293.69819
293.69817
293.69817
293.69817
293.69817
293.69817
293.69817
293.69817
293.69817
293.69817
420.41195
417.17653
413.70661
409.99159
406.02148
401.78724
397.2812
392.49768
387.43375
382.09041
376.47395
370.59781
364.48494
358.17047
351.70465
345.15565
338.61137
332.17939
325.98353
320.15613
314.82573
310.1015
306.05783
302.72346
300.0788
298.06244
296.58451
295.54253
294.83549
294.37367
294.08347
293.90834
293.80717
293.75152
293.72256
293.70844
293.70207
293.69944
293.69846
293.69814
293.69805
293.69803
293.69802
293.69802
293.69802
293.69802
293.69802
293.69802
293.69802
293.69802
420.74666
417.54126
414.10371
410.42353
406.49081
402.29657
397.83312
393.09467
388.07807
382.78384
377.21758
371.39164
365.32741
359.0579
352.63061
346.11031
339.58106
333.14648
326.92696
321.05284
315.65287
310.83932
306.69245
303.24877
300.49689
298.38238
296.82007
295.70954
294.94962
294.44883
294.13112
293.93734
293.82403
293.7608
293.72734
293.7107
293.703
293.69973
293.69847
293.69805
293.69792
293.69788
293.69788
293.69788
293.69788
293.69788
293.69788
293.69788
293.69788
293.69788
421.05488
417.87715
414.46943
410.82135
406.92309
402.76571
398.34153
393.64465
388.67173
383.42291
377.90314
372.12384
366.10502
359.87781
353.48725
346.99506
340.4818
334.04743
327.80909
321.89497
316.43369
311.53992
307.29898
303.75436
300.90223
298.69491
297.05194
295.87525
295.06378
294.52467
294.17967
293.96722
293.84163
293.77064
293.73251
293.7132
293.70407
293.70009
293.69852
293.69796
293.69779
293.69774
293.69773
293.69773
293.69773
293.69773
293.69773
293.69773
293.69773
293.69773
421.34022
418.18812
414.80804
411.1897
407.32336
403.20014
398.81234
394.15402
389.22163
384.01498
378.53847
372.80269
366.82643
360.63912
354.2836
347.81885
341.32222
334.89027
328.63703
322.68852
317.17293
312.2068
307.87977
304.2416
301.29551
299.00024
297.28008
296.03947
295.17776
294.601
294.22896
293.99786
293.85989
293.78101
293.73805
293.71594
293.70528
293.70053
293.6986
293.69789
293.69767
293.6976
293.69759
293.69758
293.69758
293.69758
293.69758
293.69758
293.69759
293.69758
421.60562
418.47738
415.12303
411.53236
407.69574
403.6043
399.25038
394.62796
389.73334
384.56604
379.12997
373.43495
367.49869
361.34912
355.02709
348.58905
342.10944
335.68165
329.41674
323.43857
317.87466
312.84296
308.43687
304.71174
301.67736
299.29861
297.50449
296.20207
295.2914
294.67765
294.27885
294.02914
293.87872
293.79183
293.74393
293.71891
293.70664
293.70105
293.69872
293.69784
293.69755
293.69746
293.69744
293.69744
293.69744
293.69744
293.69744
293.69744
293.69744
293.69744
421.85351
418.74757
415.41725
411.85246
408.0436
403.98188
399.65962
395.07077
390.2115
385.08104
379.68288
374.02618
368.12765
362.01387
355.72386
349.3118
342.84941
336.42715
330.15326
324.14944
318.54236
313.45104
308.97208
305.16592
302.04839
299.59027
297.72519
296.36298
295.40456
294.75448
294.32921
294.06097
293.89807
293.80308
293.75013
293.7221
293.70812
293.70164
293.69887
293.6978
293.69744
293.69733
293.6973
293.69729
293.69729
293.69729
293.69729
293.69729
293.69729
293.69729
422.08589
419.00087
415.69311
412.15257
408.36976
404.33591
400.04337
395.48602
390.65993
385.56411
380.20163
374.58105
368.7182
362.63842
356.37907
349.99225
343.54716
337.13152
330.85089
324.82484
319.17906
314.03334
309.48703
305.60515
302.40916
299.87547
297.94223
296.52214
295.51715
294.83139
294.37995
294.09328
293.91787
293.8147
293.75661
293.72548
293.70974
293.70231
293.69907
293.69779
293.69733
293.69719
293.69716
293.69715
293.69715
293.69715
293.69715
293.69715
293.69715
293.69715
422.30448
419.23914
415.9526
412.4349
408.67659
404.66897
400.40439
395.87672
391.08188
386.0187
380.6899
375.10348
369.27446
363.22705
356.9971
350.63478
344.20697
337.79882
331.51333
325.46799
319.78742
314.5919
309.98316
306.03037
302.76021
300.15444
298.15567
296.6795
295.62908
294.90827
294.43098
294.12598
293.93807
293.82667
293.76336
293.72907
293.71149
293.70305
293.69931
293.69779
293.69724
293.69706
293.69701
293.697
293.697
293.697
293.697
293.697
293.697
293.697
422.51069
419.46394
416.19743
412.70128
408.96611
404.98325
400.74507
396.24541
391.4801
386.44778
381.15085
375.5968
369.79994
363.78341
357.58168
351.24314
344.83251
338.43253
332.14378
326.0817
320.36975
315.12852
310.46178
306.44242
303.10202
300.42742
298.36559
296.83505
295.74029
294.98506
294.48223
294.15903
293.95861
293.83894
293.77035
293.73282
293.71335
293.70387
293.69958
293.69781
293.69715
293.69693
293.69687
293.69686
293.69685
293.69685
293.69685
293.69685
293.69685
293.69685
422.70577
419.67662
416.42906
412.95331
409.24003
405.2806
401.06742
396.59427
391.85694
386.85387
381.58717
376.06389
370.29764
364.31062
358.13602
351.82056
345.42697
339.0357
332.74503
326.66841
320.9281
315.64481
310.92405
306.8421
303.43507
300.69466
298.57207
296.9888
295.85073
295.0617
294.53364
294.19236
293.97947
293.85149
293.77758
293.73675
293.71533
293.70476
293.6999
293.69785
293.69707
293.69681
293.69673
293.69671
293.69671
293.69671
293.69671
293.69671
293.69671
293.69671
422.89078
419.87831
416.64875
413.19235
409.49984
405.56265
401.37317
396.9252
392.21442
387.23914
382.00119
376.5072
370.77016
364.8114
358.66289
352.36984
345.99309
339.61097
333.31954
327.2303
321.46431
316.14221
311.37103
307.23011
303.75978
300.95637
298.7752
297.14073
295.96038
295.13814
294.58516
294.22594
294.00061
293.8643
293.785
293.74083
293.71742
293.70572
293.70026
293.69792
293.697
293.69669
293.69659
293.69657
293.69656
293.69656
293.69656
293.69656
293.69656
293.69656
423.06663
420.07004
416.85758
413.41958
409.74683
405.83077
401.66385
397.23982
392.55431
387.60548
382.39493
376.92888
371.21977
365.28809
359.16473
352.89343
346.53331
340.16066
333.86944
327.76929
321.97998
316.62201
311.80368
307.6071
304.07656
301.21276
298.97506
297.29088
296.06921
295.21434
294.63675
294.25973
294.02199
293.87734
293.79262
293.74506
293.71961
293.70675
293.70066
293.698
293.69695
293.69657
293.69645
293.69642
293.69642
293.69641
293.69641
293.69641
293.69641
293.69641
423.23414
420.25267
417.05651
413.63605
409.98211
406.0862
401.94077
397.53956
392.87815
387.95455
382.77014
377.33081
371.64843
365.74276
359.64364
353.39349
347.04975
340.68682
334.39667
328.28708
322.47658
317.08538
312.22287
307.97369
304.38578
301.46405
299.17175
297.43925
296.17719
295.29027
294.68838
294.2937
294.04359
293.89059
293.80042
293.74943
293.7219
293.70784
293.7011
293.69811
293.6969
293.69646
293.69632
293.69628
293.69627
293.69627
293.69627
293.69627
293.69627
293.69627
423.39399
420.42696
417.24637
413.84264
410.20667
406.33
402.20508
397.82567
393.18727
388.28779
383.12839
377.71463
372.05789
366.17722
360.1015
353.87189
347.54429
341.19128
334.90291
328.78521
322.95541
317.53338
312.6294
308.33041
304.6878
301.71043
299.36536
297.58588
296.28433
295.3659
294.74002
294.32781
294.06539
293.90403
293.80838
293.75392
293.72428
293.70899
293.70157
293.69823
293.69686
293.69635
293.69618
293.69614
293.69612
293.69612
293.69612
293.69612
293.69612
293.69612
423.54682
420.5936
417.42789
414.04017
410.42139
406.56311
402.45782
398.09925
393.48287
388.60647
383.47103
378.08179
372.44968
366.59308
360.53997
354.33033
348.01859
341.67564
335.38969
329.26503
323.41765
317.96695
313.024
308.6778
304.98293
301.95208
299.55597
297.73078
296.39061
295.44121
294.79163
294.36205
294.08736
293.91765
293.8165
293.75854
293.72676
293.7102
293.70208
293.69838
293.69683
293.69625
293.69605
293.69599
293.69598
293.69598
293.69598
293.69598
293.69598
293.69598
423.69317
420.75318
417.60173
414.22935
410.62703
406.78637
402.69988
398.36129
393.76601
388.91174
383.79929
378.4336
372.82516
366.99175
360.96051
354.7703
348.47416
342.14137
335.85837
329.7278
323.86436
318.38698
313.40733
309.01631
305.27149
302.18919
299.74367
297.87399
296.49603
295.51618
294.8432
294.39639
294.10949
293.93143
293.82476
293.76326
293.72931
293.71147
293.70263
293.69855
293.69681
293.69615
293.69592
293.69585
293.69583
293.69583
293.69583
293.69583
293.69583
293.69583
423.83353
420.90624
417.76847
414.4108
410.82427
407.00052
402.93206
398.61264
394.03762
389.2046
384.11423
378.77118
373.18555
367.37452
361.36444
355.19313
348.91233
342.58975
336.31017
330.17461
324.29651
318.79425
313.78001
309.34638
305.55377
302.42191
299.92854
298.01554
296.60059
295.59079
294.89471
294.43081
294.13177
293.94536
293.83315
293.7681
293.73195
293.7128
293.70322
293.69874
293.69681
293.69605
293.69579
293.69571
293.69569
293.69568
293.69568
293.69568
293.69568
293.69568
423.96834
421.05325
417.92862
414.58509
411.01373
407.20622
403.1551
398.85409
394.29854
389.48596
384.41682
379.09558
373.53193
367.74252
361.75294
355.60004
349.33429
343.02196
336.74621
330.60648
324.71499
319.1895
314.14259
309.66843
305.83003
302.65042
300.11067
298.15546
296.7043
295.66505
294.94614
294.4653
294.15416
293.95942
293.84166
293.77304
293.73466
293.71418
293.70384
293.69895
293.69681
293.69596
293.69566
293.69557
293.69554
293.69554
293.69554
293.69554
293.69554
293.69554
424.098
421.19464
418.08266
414.75273
411.19596
407.40407
403.36962
399.08634
394.54952
389.75661
384.70794
379.40771
373.86527
368.09677
362.12707
355.99209
349.74114
343.43906
337.16748
331.02433
325.12058
319.57338
314.49561
309.98283
306.10052
302.87485
300.29013
298.29378
296.80715
295.73893
294.99748
294.49984
294.17667
293.97361
293.85029
293.77807
293.73744
293.71561
293.70449
293.69918
293.69683
293.69588
293.69554
293.69543
293.6954
293.69539
293.69539
293.69539
293.69539
293.69539
424.22285
421.3308
418.23099
414.91416
411.37145
407.59461
403.57623
399.31001
394.79125
390.0173
384.98836
379.7084
374.18647
368.43819
362.48778
356.37027
350.13384
343.842
337.5749
331.429
325.51404
319.94652
314.83953
310.28993
306.36549
303.09536
300.467
298.43053
296.90915
295.81243
295.04871
294.53442
294.19928
293.98792
293.85903
293.78319
293.74029
293.71709
293.70518
293.69943
293.69686
293.6958
293.69542
293.69529
293.69525
293.69525
293.69524
293.69524
293.69524
293.69524
424.34321
421.46207
418.37401
415.0698
411.54065
407.77833
403.77543
399.52568
395.02433
390.26867
385.25878
379.99842
374.4963
368.76762
362.83595
356.73546
350.51329
344.23166
337.9693
331.82125
325.89603
320.30948
315.17481
310.59006
306.62514
303.31208
300.64135
298.56574
297.01031
295.88554
295.09982
294.56903
294.22198
294.00234
293.86788
293.7884
293.74321
293.71862
293.70589
293.6997
293.6969
293.69573
293.6953
293.69515
293.69511
293.6951
293.6951
293.6951
293.6951
293.6951
424.45938
421.58876
418.51204
415.22003
411.70397
407.95565
403.96771
399.73386
395.24932
390.51134
385.51985
380.27844
374.79551
369.08582
363.17235
357.08847
350.8803
344.60884
338.35145
332.20177
326.26717
320.66277
315.50186
310.88353
306.8797
303.52514
300.81326
298.69944
297.11064
295.95826
295.15081
294.60365
294.24476
294.01686
293.87681
293.79369
293.74619
293.72019
293.70664
293.69999
293.69694
293.69566
293.69518
293.69501
293.69497
293.69495
293.69495
293.69495
293.69495
293.69495
424.57162
421.71117
418.64541
415.36518
411.86176
408.12699
404.15349
399.93501
395.46673
390.74583
385.77215
380.54907
375.08473
369.39347
363.4977
357.43003
351.2356
344.97425
338.72203
332.57123
326.62804
321.00688
315.82107
311.17061
307.12936
303.73466
300.98278
298.83167
297.21014
296.03058
295.20166
294.63828
294.26761
294.03146
293.88584
293.79906
293.74924
293.72181
293.70742
293.7003
293.697
293.6956
293.69506
293.69488
293.69482
293.69481
293.69481
293.69481
293.69481
293.69481
424.68016
421.82955
418.77439
415.50556
412.01437
408.2927
404.33318
400.12956
395.67701
390.97265
386.0162
380.8109
375.36458
369.69121
363.81266
357.76082
351.57989
345.32858
339.08169
332.9302
326.97917
321.34227
316.13278
311.45158
307.3743
303.94076
301.14999
298.96245
297.30883
296.10251
295.25237
294.6729
294.29053
294.04616
293.89495
293.8045
293.75233
293.72346
293.70823
293.70062
293.69708
293.69555
293.69495
293.69474
293.69468
293.69466
293.69466
293.69466
293.69466
293.69466
424.78522
421.94415
418.89924
415.64145
412.16211
408.45311
404.50713
400.31791
395.88059
391.19224
386.2525
381.06442
375.6356
369.97962
364.11784
358.08144
351.91376
345.67243
339.43101
333.27924
327.32103
321.66934
316.43734
311.7267
307.6147
304.14354
301.31494
299.09182
297.4067
296.17403
295.30293
294.70751
294.3135
294.06093
293.90414
293.81
293.75549
293.72516
293.70906
293.70097
293.69716
293.6955
293.69484
293.69461
293.69454
293.69452
293.69451
293.69451
293.69451
293.69451
424.88701
422.05517
419.02021
415.77312
412.30525
408.60854
404.67568
400.5004
396.07784
391.40503
386.48149
381.31012
375.89829
370.25922
364.41377
358.39247
352.2378
346.00637
339.77055
333.61885
327.6541
321.98848
316.73506
311.99618
307.85072
304.34313
301.4777
299.2198
297.50378
296.24516
295.35333
294.74211
294.33652
294.07577
293.9134
293.81558
293.75869
293.7269
293.70993
293.70133
293.69725
293.69546
293.69474
293.69448
293.6944
293.69437
293.69437
293.69437
293.69437
293.69437
424.98571
422.16282
419.13751
415.90079
412.44406
408.75926
404.83912
400.67737
396.26914
391.61139
386.70358
381.54844
376.15311
370.53049
364.70096
358.69442
352.55254
346.33092
340.1008
333.94951
327.97878
322.30005
317.02623
312.26027
308.08251
304.53961
301.63833
299.34641
297.60007
296.31588
295.40357
294.77668
294.35957
294.09068
293.92273
293.82121
293.76195
293.72868
293.71082
293.70171
293.69735
293.69542
293.69463
293.69435
293.69425
293.69423
293.69422
293.69422
293.69422
293.69422
425.08149
422.26729
419.25135
416.02469
412.57876
408.90553
404.99773
400.84912
396.45479
391.81167
386.91913
381.77977
376.4005
370.79389
364.97989
358.98778
352.85845
346.64656
340.42223
334.27165
328.29547
322.6044
317.31112
312.51916
308.31024
304.73308
301.79688
299.4717
297.69558
296.3862
295.45365
294.81122
294.38267
294.10565
293.93213
293.8269
293.76526
293.73049
293.71173
293.70211
293.69747
293.69539
293.69453
293.69422
293.69411
293.69408
293.69408
293.69407
293.69407
293.69407
425.1745
422.36875
419.3619
416.14502
412.70958
409.04759
405.15178
401.01592
396.6351
392.0062
387.12851
382.00448
376.64084
371.04983
365.25098
359.27299
353.15599
346.95373
340.73527
334.58566
328.60454
322.90183
317.58999
312.77306
308.53404
304.92363
301.95341
299.59568
297.79032
296.45613
295.50356
294.84572
294.40579
294.12068
293.94159
293.83265
293.76861
293.73234
293.71267
293.70252
293.69759
293.69536
293.69444
293.69409
293.69397
293.69394
293.69393
293.69393
293.69393
293.69393
425.26489
422.46735
419.46934
416.26196
412.83672
409.18565
405.3015
401.17804
396.81035
392.19527
387.33202
382.22292
376.87449
371.2987
365.51463
359.55046
353.44558
347.25285
341.04033
334.89194
328.90632
323.19264
317.86309
313.02214
308.75403
305.11136
302.10796
299.71839
297.88431
296.52565
295.5533
294.88018
294.42894
294.13576
293.95111
293.83845
293.772
293.73423
293.71364
293.70295
293.69773
293.69534
293.69434
293.69396
293.69383
293.69379
293.69378
293.69378
293.69378
293.69378
425.35279
422.56323
419.57382
416.37569
412.96037
409.31992
405.44711
401.33571
396.98079
392.37917
387.52997
382.43541
377.1018
371.54084
365.77122
359.82056
353.7276
347.54432
341.33776
335.19084
329.20114
323.4771
318.13063
313.26659
308.97035
305.29634
302.26058
299.83984
297.97754
296.59477
295.60286
294.9146
294.45211
294.15089
293.96068
293.84431
293.77544
293.73614
293.71463
293.7034
293.69787
293.69533
293.69425
293.69384
293.69369
293.69365
293.69364
293.69364
293.69364
293.69364
425.43833
422.65654
419.6755
416.48637
413.0807
409.45058
405.58881
401.48915
397.14667
392.55814
387.72263
382.64223
377.32307
371.77658
366.02108
360.08367
354.00241
347.82847
341.62794
335.48267
329.48929
323.75548
318.39284
313.50657
309.18312
305.47865
302.41133
299.96006
298.07004
296.6635
295.65224
294.94896
294.4753
294.16607
293.97031
293.85021
293.77892
293.73809
293.71564
293.70387
293.69803
293.69532
293.69416
293.69371
293.69356
293.69351
293.69349
293.69349
293.69349
293.69349
425.52161
422.7474
419.7745
416.59414
413.19787
409.57782
405.7268
401.63858
397.30821
392.73244
387.91026
382.84366
377.5386
372.00624
366.26453
360.3401
354.27036
348.10566
341.91117
335.76775
329.77106
324.02802
318.64992
313.74224
309.39245
305.65837
302.56025
300.07908
298.16181
296.73183
295.70144
294.98327
294.4985
294.18129
293.97999
293.85616
293.78243
293.74007
293.71667
293.70434
293.69819
293.69532
293.69408
293.69359
293.69342
293.69336
293.69335
293.69334
293.69334
293.69334
425.60276
422.83592
419.87097
416.69914
413.31204
409.7018
405.86125
401.78417
397.4656
392.90227
388.09309
383.03996
377.74865
372.23009
366.50189
360.59017
354.53174
348.37619
342.18777
336.04638
330.04671
324.29495
318.90205
313.97374
309.59844
305.83558
302.70739
300.19691
298.25286
296.79977
295.75046
295.01753
294.52171
294.19654
293.98971
293.86215
293.78599
293.74207
293.71773
293.70484
293.69837
293.69532
293.694
293.69347
293.69328
293.69322
293.6932
293.6932
293.6932
293.6932
425.68186
422.92222
419.96501
416.8015
413.42334
409.82266
405.99232
401.92611
397.61905
393.06784
388.27135
383.23136
377.95348
372.44841
366.73341
360.83416
354.78686
348.64035
342.45803
336.31881
330.31648
324.55649
319.14943
314.20123
309.80121
306.01034
302.85278
300.3136
298.3432
296.86731
295.7993
295.05172
294.54492
294.21183
293.99948
293.86819
293.78958
293.74411
293.71881
293.70535
293.69855
293.69533
293.69392
293.69335
293.69314
293.69308
293.69306
293.69305
293.69305
293.69305
425.75902
423.00639
420.05673
416.90135
413.5319
409.94055
406.12017
402.06456
397.76873
393.22936
388.44525
383.41808
378.15333
372.66145
366.95937
361.07235
355.03599
348.89842
342.7222
336.5853
330.58061
324.81284
319.39221
314.42482
310.00086
306.18272
302.99647
300.42914
298.43285
296.93448
295.84795
295.08585
294.56814
294.22715
294.00929
293.87427
293.79321
293.74618
293.71991
293.70587
293.69875
293.69535
293.69385
293.69323
293.69301
293.69293
293.69291
293.69291
293.69291
293.6929
425.83431
423.08853
420.14625
416.99879
413.63785
410.0556
406.24495
402.19968
397.91482
393.387
388.61497
383.60034
378.34841
372.86942
367.18
361.30497
355.27938
349.15066
342.98054
336.84609
330.83932
325.0642
319.63056
314.64466
310.19747
306.35278
303.1385
300.54358
298.52181
297.00125
295.89642
295.11991
294.59135
294.2425
294.01913
293.88039
293.79687
293.74827
293.72103
293.70641
293.69896
293.69538
293.69377
293.69312
293.69287
293.69279
293.69277
293.69276
293.69276
293.69276
425.90782
423.16873
420.23365
417.09394
413.74129
410.16794
406.36678
402.33161
398.05746
393.54092
388.78071
383.77832
378.53893
373.07257
367.39554
361.53228
355.51728
349.39731
343.23329
337.10142
331.09282
325.31074
319.86463
314.86087
310.39113
306.52059
303.27891
300.65692
298.61009
297.06764
295.9447
295.15391
294.61456
294.25788
294.02902
293.88654
293.80057
293.75039
293.72218
293.70697
293.69917
293.6954
293.69371
293.693
293.69274
293.69265
293.69262
293.69261
293.69261
293.69261
425.97963
423.24707
420.31903
417.18687
413.84235
410.27768
406.48579
402.4605
398.19681
393.6913
388.94263
383.95222
378.72509
373.27108
367.6062
361.75449
355.74991
349.6386
343.48067
337.35148
331.34129
325.55264
320.09457
315.07355
310.58194
306.68621
303.41773
300.76919
298.6977
297.13366
295.99279
295.18784
294.63777
294.27329
294.03895
293.89274
293.8043
293.75254
293.72334
293.70754
293.6994
293.69544
293.69364
293.69289
293.69261
293.69251
293.69248
293.69247
293.69247
293.69247
426.04981
423.32363
420.40247
417.27771
413.94111
410.38494
406.60211
402.58647
398.333
393.83827
389.10089
384.12219
378.90707
373.46515
367.81219
361.9718
355.9775
349.87473
343.72289
337.59648
331.58493
325.79007
320.32052
315.28282
310.76997
306.84969
303.555
300.88042
298.78465
297.1993
296.04069
295.22169
294.66097
294.28872
294.0489
293.89896
293.80806
293.75471
293.72452
293.70812
293.69963
293.69548
293.69359
293.69278
293.69248
293.69237
293.69233
293.69232
293.69232
293.69232
426.11842
423.39849
420.48405
417.36652
414.03767
410.4898
406.71584
402.70963
398.46616
393.98198
389.25565
384.2884
379.08503
373.65496
368.01368
362.18443
356.20023
350.10592
343.96015
337.83661
331.82392
326.02318
320.54261
315.48878
310.95531
307.01108
303.69076
300.99061
298.87095
297.26457
296.08841
295.25547
294.68415
294.30417
294.05889
293.90523
293.81185
293.75691
293.72572
293.70872
293.69988
293.69553
293.69353
293.69268
293.69234
293.69223
293.69219
293.69218
293.69217
293.69217
426.18553
423.47171
420.56385
417.45338
414.13213
410.59238
406.82709
402.83011
398.59643
394.12256
389.40703
384.45101
379.25914
373.84068
368.21086
362.39255
356.41829
350.33234
344.19263
338.07205
332.05841
326.25212
320.76097
315.69154
311.13802
307.17045
303.82504
301.09979
298.95662
297.32946
296.13594
295.28918
294.70733
294.31963
294.06892
293.91152
293.81567
293.75914
293.72695
293.70933
293.70013
293.69559
293.69348
293.69257
293.69222
293.69209
293.69205
293.69203
293.69203
293.69203
426.2512
423.54336
420.64193
417.53839
414.22456
410.69276
406.93596
402.94801
398.7239
394.26014
389.55519
384.61015
379.42956
374.02248
368.40389
362.59633
356.63187
350.55419
344.42052
338.30297
332.28856
326.47702
320.97571
315.89118
311.31819
307.32783
303.95787
301.20799
299.04165
297.39399
296.18329
295.32281
294.7305
294.33512
294.07897
293.91785
293.81952
293.76138
293.72819
293.70996
293.7004
293.69565
293.69343
293.69247
293.69209
293.69195
293.6919
293.69189
293.69188
293.69188
426.31549
423.6135
420.71838
417.62161
414.31505
410.79102
407.04253
403.06343
398.8487
394.39482
389.70023
384.76596
379.59641
374.2005
368.59295
362.79595
356.84114
350.77163
344.64397
338.52953
332.51453
326.69803
321.18695
316.08782
311.49588
307.48329
304.08928
301.3152
299.12606
297.45816
296.23045
295.35636
294.75365
294.35063
294.08905
293.92421
293.8234
293.76366
293.72944
293.7106
293.70067
293.69571
293.69339
293.69237
293.69196
293.69181
293.69176
293.69174
293.69174
293.69174
426.37844
423.68219
420.79324
417.7031
414.40366
410.88726
407.14691
403.17646
398.97092
394.52673
389.84229
384.91856
379.75985
374.37489
368.77817
362.99156
357.04625
350.98482
344.86316
338.75188
332.73645
326.91526
321.39479
316.28152
311.67115
307.63686
304.2193
301.42146
299.20986
297.52197
296.27742
295.38984
294.77678
294.36614
294.09916
293.9306
293.82731
293.76595
293.73072
293.71125
293.70096
293.69579
293.69335
293.69227
293.69183
293.69167
293.69161
293.6916
293.69159
293.69159
426.44011
423.74948
420.86657
417.78294
414.49047
410.98154
407.24916
403.2872
399.09066
394.65596
389.98147
385.06809
379.92
374.54578
368.9597
363.1833
357.24736
351.19392
345.07822
338.97017
332.95447
327.12885
321.59934
316.47237
311.84408
307.78859
304.34797
301.52678
299.29306
297.58543
296.3242
295.42324
294.79989
294.38168
294.1093
293.93702
293.83124
293.76827
293.73202
293.71192
293.70125
293.69587
293.69331
293.69217
293.69171
293.69153
293.69147