/*--------------------------------*- C++ -*----------------------------------*\
| =========                 |                                                 |
| \\      /  F ield         | OpenFOAM: The Open Source CFD Toolbox           |
|  \\    /   O peration     | Version:  4.0                                   |
|   \\  /    A nd           | Web:      www.OpenFOAM.org                      |
|    \\/     M anipulation  |                                                 |
\*---------------------------------------------------------------------------*/
FoamFile
{
    version     2.0;
    format      ascii;
    class       volVectorField;
    location    "754";
    object      U;
}
// * * * * * * * * * * * * * * * * * * * * * * * * * * * * * * * * * * * * * //

dimensions      [0 1 -1 0 0 0 0];

internalField   nonuniform List<vector> 
5000
(
(1.1434248e-05 9.9618247e-21 0.008370824)
(5.0690373e-05 2.855338e-20 0.024239011)
(0.00014525944 4.6861359e-20 0.039829995)
(0.0002714889 5.9066694e-20 0.054878962)
(0.00043010247 8.2660784e-20 0.069099603)
(0.00061109424 9.3905217e-20 0.082194865)
(0.0008020358 8.5665593e-20 0.09387157)
(0.00098921633 1.092113e-19 0.10385842)
(0.0011581664 1.1173164e-19 0.11192648)
(0.001295184 9.1139646e-20 0.11791048)
(0.0013888074 5.6325919e-20 0.12172851)
(0.001431149 3.8186588e-20 0.1233971)
(0.0014189057 6.0757184e-20 0.1230387)
(0.0013538193 7.3596252e-20 0.1208787)
(0.0012424522 9.4641158e-20 0.11723097)
(0.0010952555 8.7252295e-20 0.11247271)
(0.0009250528 8.8563686e-20 0.1070116)
(0.00074522439 8.792722e-20 0.10125017)
(0.00056797106 5.7914614e-20 0.095552445)
(0.000403014 -7.233247e-20 0.090217418)
(0.00025693744 -1.2805121e-19 0.085462187)
(0.00013315066 -4.1731127e-20 0.081415682)
(3.2054529e-05 -1.0657712e-20 0.078122502)
(-4.7542046e-05 9.1569693e-22 0.075555155)
(-0.00010793223 2.6628008e-21 0.073632285)
(-0.00015276676 -1.3598184e-21 0.072240252)
(-0.00018588692 -2.3701662e-20 0.071254392)
(-0.00021097661 -8.8435586e-20 0.070556845)
(-0.00023124425 -1.963532e-20 0.070048737)
(-0.00024918443 -4.0957955e-22 0.069655772)
(-0.0002664513 3.5597353e-20 0.069327921)
(-0.00028386474 7.8896344e-21 0.069035098)
(-0.00030154261 -4.5999157e-21 0.068761188)
(-0.00031911283 -1.3241978e-21 0.068498416)
(-0.00033595269 -1.8381779e-21 0.068243157)
(-0.00035141716 -1.1367718e-21 0.067993372)
(-0.00036502227 -2.193578e-20 0.067747321)
(-0.00037656111 -6.8938369e-21 0.067502994)
(-0.00038630103 -3.6925378e-21 0.06725792)
(-0.00039478037 5.8480879e-20 0.067008939)
(-0.00040335286 2.5539232e-21 0.066752031)
(-0.00041381072 -8.6817337e-22 0.066482555)
(-0.00042726622 -1.6907996e-21 0.066192306)
(-0.00045136065 8.9886442e-21 0.065876083)
(-0.00047992164 1.6458165e-21 0.065515327)
(-0.00053772204 1.5265716e-22 0.065095183)
(-0.00062169833 3.1176005e-21 0.064613674)
(-0.00070929325 7.5437962e-22 0.063917366)
(-0.001106195 4.1617046e-21 0.063823022)
(-0.00072514042 -1.432545e-21 0.057864862)
(-9.0261618e-06 4.4660574e-21 0.010142459)
(-5.1628976e-05 1.3013195e-20 0.02962746)
(-0.00013566103 2.0760906e-20 0.049082568)
(-0.00026816428 3.4178025e-20 0.068220472)
(-0.00045213339 4.2217168e-20 0.086703742)
(-0.00069004392 7.3128029e-20 0.10414775)
(-0.00098348852 8.7775073e-20 0.12012909)
(-0.0013329105 7.3524124e-20 0.13420144)
(-0.001737384 1.2546198e-19 0.14592061)
(-0.0021942835 1.4730668e-19 0.15487947)
(-0.0026987705 1.4355713e-19 0.16075206)
(-0.0032430905 1.5572226e-19 0.16334293)
(-0.0038157788 6.2022225e-20 0.16263463)
(-0.004401014 -2.1542098e-20 0.15882246)
(-0.0049784765 -1.0037623e-19 0.15232387)
(-0.0055240777 -1.4943007e-19 0.14375227)
(-0.0060117739 -2.2401665e-19 0.13385304)
(-0.0064163617 -2.0446296e-19 0.12341155)
(-0.0067167538 2.444035e-19 0.11315405)
(-0.006898935 5.8144403e-19 0.10366585)
(-0.0069577868 8.681522e-20 0.095344499)
(-0.0068972834 -3.390912e-19 0.088392395)
(-0.0067291853 -2.0164543e-19 0.082841289)
(-0.0064707197 -1.6393005e-19 0.078594946)
(-0.0061419314 -1.8979098e-19 0.075476627)
(-0.005763363 -2.3752635e-19 0.073272165)
(-0.0053543054 -3.4648978e-19 0.071763831)
(-0.0049317052 -2.1433928e-19 0.070753839)
(-0.0045095758 1.0752127e-19 0.070078008)
(-0.0040988155 -3.4911439e-20 0.069611)
(-0.003707342 3.9398146e-20 0.069265)
(-0.0033404726 6.4857079e-20 0.06898391)
(-0.0030014746 -8.235722e-20 0.068735355)
(-0.0026921792 -1.9437539e-20 0.068502579)
(-0.0024135271 1.5909589e-20 0.06827775)
(-0.0021659569 3.1584955e-20 0.068057325)
(-0.001949698 2.1252324e-20 0.06783938)
(-0.0017647195 -1.0528347e-20 0.06762228)
(-0.0016109396 7.7348393e-20 0.06740412)
(-0.0014886363 1.0831204e-19 0.067182784)
(-0.0013960694 -1.6155316e-20 0.06695467)
(-0.0013377753 -1.4219426e-20 0.06671741)
(-0.0013073448 -9.4681598e-22 0.066464832)
(-0.0013132131 1.8890961e-20 0.06618778)
(-0.0013745307 7.8166522e-21 0.065899681)
(-0.0014116737 2.4008676e-21 0.065513973)
(-0.0017096576 -1.4783886e-20 0.065212654)
(-0.0016548327 -4.0703202e-21 0.064766367)
(-0.0024900926 -2.3707684e-20 0.065760828)
(-0.0017579673 -2.0370042e-21 0.054061663)
(-3.7708208e-06 -2.6712716e-20 0.011861548)
(-2.6752943e-05 -8.0332116e-20 0.034802662)
(-7.1674718e-05 -1.3468533e-19 0.057894349)
(-0.00014574288 -1.7411045e-19 0.080834003)
(-0.00025359763 -2.3436721e-19 0.10325909)
(-0.00040024336 -2.8213299e-19 0.1247458)
(-0.00059076976 -3.3041344e-19 0.14481182)
(-0.00083004405 -4.0645133e-19 0.16292549)
(-0.0011223792 -4.4734024e-19 0.17852386)
(-0.001471117 -4.2023014e-19 0.19104245)
(-0.0018780906 -3.8143236e-19 0.19995908)
(-0.0023429302 -4.3698615e-19 0.20485178)
(-0.0028621736 -2.9458633e-19 0.20546755)
(-0.0034281862 -1.3749635e-19 0.2017927)
(-0.0040280225 -4.927973e-20 0.19410872)
(-0.0046425646 4.5276172e-20 0.18301349)
(-0.005246482 1.4495435e-19 0.16938868)
(-0.0058095887 1.5402869e-19 0.1543065)
(-0.0062998638 6.2626763e-19 0.13888886)
(-0.0066877562 1.0729527e-18 0.12415297)
(-0.0069507264 6.7658892e-19 0.11088496)
(-0.0070767007 -1.3599864e-19 0.09957297)
(-0.0070654575 -2.1083102e-19 0.090407034)
(-0.0069277525 -2.7283464e-19 0.08333075)
(-0.0066827286 -2.9674382e-19 0.078118601)
(-0.0063545095 -3.5630607e-19 0.074454711)
(-0.0059688471 -4.6211089e-19 0.071997809)
(-0.0055503793 -2.156783e-19 0.07042663)
(-0.0051207264 1.1153357e-19 0.069466458)
(-0.0046974084 -1.2577897e-19 0.068900441)
(-0.0042934588 -1.216348e-19 0.068569944)
(-0.0039175918 2.2817373e-19 0.068367778)
(-0.0035747685 -5.5559563e-20 0.068227577)
(-0.003267016 1.4289375e-20 0.068112091)
(-0.0029943556 7.5666365e-20 0.068002572)
(-0.0027555932 1.4006501e-19 0.067890568)
(-0.0025491089 3.0959185e-19 0.067772559)
(-0.0023735117 -6.8538703e-21 0.067647008)
(-0.0022268487 -2.002756e-20 0.06751267)
(-0.0021107472 1.9351316e-19 0.067368911)
(-0.0020221 2.1820871e-19 0.067213939)
(-0.0019642817 -3.8320991e-20 0.067044968)
(-0.0019515674 -8.2194026e-20 0.066868021)
(-0.001932889 -2.0094239e-19 0.066651603)
(-0.0020734066 6.2803085e-21 0.066467056)
(-0.0020284201 -1.6375808e-20 0.066143341)
(-0.0024733097 7.7342591e-20 0.066013614)
(-0.0024125842 6.9438276e-21 0.066172506)
(-0.0031457897 1.0516844e-19 0.067253646)
(-0.0020973051 -3.1154123e-21 0.049394082)
(-2.6253811e-06 -7.5653287e-20 0.013230668)
(-1.9447389e-05 -2.3021258e-19 0.038935426)
(-5.2253305e-05 -3.9477626e-19 0.064950911)
(-0.0001067132 -5.8158454e-19 0.090969189)
(-0.00018667878 -7.7702544e-19 0.11661683)
(-0.00029653575 -9.3756468e-19 0.14145128)
(-0.00044108453 -1.0026315e-18 0.1649605)
(-0.00062539581 -9.7273242e-19 0.18656792)
(-0.00085462742 -8.9834917e-19 0.20564512)
(-0.001133738 -8.590285e-19 0.22153543)
(-0.001467057 -7.5893602e-19 0.2335917)
(-0.0018576777 -8.2629901e-19 0.24123075)
(-0.0023066511 -1.0217322e-18 0.24400474)
(-0.0028119716 -1.152119e-18 0.24168492)
(-0.0033674006 -9.3640285e-19 0.23434565)
(-0.0039612702 -8.4275547e-19 0.22242813)
(-0.004575579 -7.6749043e-19 0.20675724)
(-0.0051858791 -7.0772238e-19 0.18848797)
(-0.0057625275 -5.2323706e-19 0.16897502)
(-0.0062736202 7.2289216e-20 0.14958711)
(-0.0066892969 -1.2045083e-20 0.13151361)
(-0.0069863676 -1.463386e-19 0.11561814)
(-0.0071518693 -2.4438958e-19 0.10237505)
(-0.007184504 -3.4181642e-19 0.091891531)
(-0.007093746 -5.4703989e-19 0.08398998)
(-0.0068972064 -7.4763963e-19 0.078314196)
(-0.0066172243 -9.2889558e-19 0.074429229)
(-0.0062775782 -7.0307908e-19 0.071897933)
(-0.0059008825 -1.719062e-19 0.070329849)
(-0.0055068776 -1.6716748e-19 0.069405708)
(-0.0051115685 -1.3996814e-19 0.068883759)
(-0.0047270599 1.238942e-19 0.068594195)
(-0.0043618953 2.4571314e-20 0.068426897)
(-0.0040216859 2.7804267e-20 0.068316532)
(-0.0037099476 1.3898775e-19 0.068228073)
(-0.0034288228 2.4046782e-19 0.068144767)
(-0.0031794402 3.8297003e-19 0.068059467)
(-0.0029635506 -1.2765511e-19 0.067969537)
(-0.0027805284 -2.4091149e-20 0.067873638)
(-0.0026324944 1.0201518e-19 0.067770944)
(-0.0025245717 4.5056282e-19 0.067662645)
(-0.0024348821 3.1403058e-20 0.067539954)
(-0.002437083 5.9708712e-20 0.067424887)
(-0.0023670212 -2.0933446e-19 0.067263549)
(-0.0025531255 1.0860774e-20 0.06715206)
(-0.0024703645 1.1221674e-19 0.066930982)
(-0.0028886789 1.0308068e-19 0.066956723)
(-0.0029223572 2.816283e-20 0.067800838)
(-0.0033301045 1.3990644e-19 0.067920279)
(-0.0019344483 1.2462479e-20 0.044630528)
(-1.9481384e-06 -3.8218723e-20 0.014271198)
(-1.4896338e-05 -1.1828243e-19 0.042089438)
(-4.0059607e-05 -2.0465545e-19 0.070357404)
(-8.1957013e-05 -3.1630792e-19 0.098768313)
(-0.00014369932 -4.4550161e-19 0.1269469)
(-0.00022889338 -5.9404842e-19 0.1544443)
(-0.00034159167 -6.8947821e-19 0.18073562)
(-0.00048623798 -7.3561119e-19 0.20522195)
(-0.00066760142 -6.9772521e-19 0.22723908)
(-0.00089064467 -7.1485835e-19 0.24607613)
(-0.0011602821 -7.174158e-19 0.26100741)
(-0.0014809788 -6.9739523e-19 0.27134096)
(-0.0018561387 -9.7620341e-19 0.27648601)
(-0.0022872377 -1.3493881e-18 0.27603812)
(-0.0027726938 -1.3088039e-18 0.26987454)
(-0.0033065467 -1.1499382e-18 0.25824343)
(-0.0038771535 -1.0155585e-18 0.24182059)
(-0.0044662869 -6.9522132e-19 0.22170328)
(-0.0050491902 -4.8305802e-19 0.19931815)
(-0.0055961346 -1.9083542e-19 0.17624533)
(-0.0060756772 -2.6461853e-19 0.15399469)
(-0.0064591406 -5.9313881e-19 0.13379566)
(-0.0067251536 -5.4616781e-19 0.11646019)
(-0.0068628905 -5.8212367e-19 0.10234817)
(-0.0068731145 -6.7643764e-19 0.091425157)
(-0.0067669837 -7.5521487e-19 0.08337484)
(-0.0065632863 -9.004148e-19 0.077724205)
(-0.0062850425 -8.7403819e-19 0.073951046)
(-0.0059562801 -8.5508858e-19 0.071560143)
(-0.0055994764 -6.8729338e-19 0.070127438)
(-0.005233854 -2.6772054e-19 0.069318259)
(-0.0048745135 -1.7442179e-19 0.068887448)
(-0.0045323048 -5.363276e-20 0.068668454)
(-0.0042141965 1.1489184e-19 0.068556991)
(-0.0039240502 1.8455089e-19 0.06849346)
(-0.0036637852 2.22342e-19 0.068447153)
(-0.0034333484 1.6741121e-19 0.068403855)
(-0.0032335106 -2.2130503e-19 0.068357813)
(-0.0030645735 1.2495123e-19 0.06830707)
(-0.0029207023 1.1378232e-19 0.068249348)
(-0.0028266018 3.6707594e-19 0.068189534)
(-0.002720867 9.8212407e-20 0.068114309)
(-0.0027400727 2.5630675e-19 0.068051583)
(-0.0026461164 3.5517057e-20 0.06795285)
(-0.0028175217 4.2371546e-20 0.067880803)
(-0.002755844 1.4751944e-19 0.067786619)
(-0.0030848558 3.6130355e-20 0.068017153)
(-0.0031672981 3.7286472e-20 0.069310065)
(-0.0033188147 1.5346836e-20 0.067771662)
(-0.0016758273 3.2808255e-21 0.040105544)
(-1.7876924e-06 -1.8204784e-21 0.015162106)
(-1.3315358e-05 -5.2736514e-21 0.044787635)
(-3.5793756e-05 -9.6189375e-21 0.074979267)
(-7.3154739e-05 -1.6449302e-20 0.10543113)
(-0.00012810121 -1.306996e-20 0.13576682)
(-0.00020375065 -5.326223e-20 0.16553338)
(-0.00030359021 -1.3960739e-19 0.19419756)
(-0.00043143627 -2.9090821e-19 0.22114592)
(-0.00059139731 -4.0046801e-19 0.24569099)
(-0.00078779898 -5.0845637e-19 0.26708631)
(-0.0010250409 -6.0355907e-19 0.28455381)
(-0.0013073482 -6.9638012e-19 0.29732725)
(-0.001638367 -7.77519e-19 0.30471471)
(-0.0020205488 -8.6067654e-19 0.30618091)
(-0.0024542769 -1.0101786e-18 0.30144535)
(-0.0029367373 -9.3920993e-19 0.29058372)
(-0.0034606333 -7.7508108e-19 0.2741102)
(-0.0040130056 -5.7897842e-19 0.25300899)
(-0.0045746045 -2.9137204e-20 0.22868403)
(-0.0051203757 6.4999625e-20 0.20281254)
(-0.0056215003 -8.9204297e-20 0.17712116)
(-0.0060489614 -4.552812e-19 0.15313946)
(-0.0063779148 -5.6496158e-19 0.13200137)
(-0.0065916291 -6.0093459e-19 0.11434739)
(-0.0066838177 -6.8270015e-19 0.10033938)
(-0.0066588121 -7.6113259e-19 0.089759773)
(-0.0065298211 -7.6426314e-19 0.082148252)
(-0.0063160491 -7.4033414e-19 0.07693417)
(-0.0060395356 -8.7141578e-19 0.073539701)
(-0.0057223681 -7.041293e-19 0.071446384)
(-0.0053846055 -2.8696137e-19 0.070228762)
(-0.0050429896 -2.1373102e-19 0.069563425)
(-0.0047104302 -1.111959e-19 0.069222033)
(-0.0043960787 1.3210254e-19 0.069055414)
(-0.0041056857 1.3596968e-19 0.068974152)
(-0.0038429534 1.4156406e-19 0.068929696)
(-0.0036092235 3.9668811e-20 0.068898426)
(-0.0034046403 -2.256206e-19 0.068870081)
(-0.0032347077 1.6181552e-19 0.068841687)
(-0.0030824059 3.2991448e-19 0.068809539)
(-0.0029917811 2.8675296e-19 0.068779374)
(-0.0028747677 1.6192384e-19 0.068740055)
(-0.0028881345 3.6266097e-19 0.068708794)
(-0.0027972527 1.3544643e-19 0.068664134)
(-0.0029252265 7.4485033e-20 0.068616587)
(-0.0028897996 4.5580001e-20 0.068643234)
(-0.0031559908 -2.8083225e-21 0.069129389)
(-0.0032121481 2.7399233e-20 0.070538859)
(-0.0031542481 -4.4310895e-20 0.066970054)
(-0.0014009518 2.2862009e-22 0.036121892)
(-1.5729593e-06 2.6107716e-20 0.015935444)
(-1.1727164e-05 7.7895771e-20 0.047131529)
(-3.1540047e-05 1.2985546e-19 0.078997062)
(-6.4507382e-05 1.9869656e-19 0.11122765)
(-0.0001130542 2.7100908e-19 0.14344673)
(-0.00017998747 2.8571069e-19 0.17519888)
(-0.00026846055 2.2179004e-19 0.205945)
(-0.00038194231 9.8136307e-20 0.23506103)
(-0.00052419078 1.539381e-21 0.2618421)
(-0.00069919773 6.1544034e-20 0.28551491)
(-0.00091108095 -4.4817332e-21 0.30526174)
(-0.0011638971 -1.0132731e-19 0.32025976)
(-0.001461335 -1.7696804e-19 0.32973922)
(-0.0018062415 -2.4238019e-19 0.3330624)
(-0.0021999309 -7.8084819e-19 0.32982132)
(-0.0026412499 -5.2942306e-19 0.31994506)
(-0.0031254338 -2.6720709e-19 0.30379757)
(-0.0036429161 -1.9298326e-19 0.28223655)
(-0.0041784231 1.8454406e-19 0.25659893)
(-0.0047108463 4.7885134e-19 0.22858818)
(-0.0052143996 3.8903979e-19 0.20006655)
(-0.0056612894 -1.4811574e-19 0.17279451)
(-0.0060255518 -3.5708454e-19 0.14818849)
(-0.0062871002 -4.5253947e-19 0.12716558)
(-0.0064347905 -4.3952452e-19 0.11010855)
(-0.0064676568 -3.4237137e-19 0.096938234)
(-0.0063941738 -1.5187469e-19 0.087248796)
(-0.0062300461 -2.3005632e-20 0.080456358)
(-0.0059953131 -3.8286075e-19 0.075925509)
(-0.0057114774 -7.0090595e-19 0.073058134)
(-0.0053991308 -3.5967049e-19 0.071344245)
(-0.0050762601 7.0902133e-20 0.070382302)
(-0.0047572931 -4.8113434e-20 0.069878483)
(-0.0044528976 2.0397411e-19 0.069633222)
(-0.0041699266 3.5946329e-19 0.069521534)
(-0.0039126574 9.7715569e-20 0.069472041)
(-0.0036835059 5.3734715e-20 0.069448138)
(-0.0034802279 5.5201256e-20 0.06943284)
(-0.0033129784 -1.1663696e-19 0.069420602)
(-0.0031571445 1.9223406e-19 0.069407326)
(-0.0030634692 1.6515199e-19 0.069396189)
(-0.0029440878 1.1637208e-19 0.069383658)
(-0.0029368801 1.3964651e-19 0.069370907)
(-0.0028522871 5.4384097e-20 0.069361665)
(-0.002939688 6.6067376e-20 0.069341611)
(-0.0029073385 -1.4639293e-19 0.069480751)
(-0.0031320247 1.5163677e-19 0.070213743)
(-0.0031223719 2.9471156e-20 0.071434743)
(-0.0028887354 7.1179847e-20 0.065724048)
(-0.0011384534 -1.5055297e-21 0.032702838)
(-1.4427819e-06 1.3606423e-20 0.016630369)
(-1.0686709e-05 4.1270203e-20 0.049237558)
(-2.8744465e-05 7.1667422e-20 0.082606883)
(-5.8791742e-05 1.2390623e-19 0.11643537)
(-0.00010303931 1.7657695e-19 0.15034659)
(-0.00016404747 2.3057664e-19 0.1838833)
(-0.00024469578 2.656924e-19 0.21650194)
(-0.0003481589 2.7421091e-19 0.24757012)
(-0.00047788869 2.7978643e-19 0.27636921)
(-0.00063757359 4.2815915e-19 0.30210463)
(-0.00083105578 6.2223379e-19 0.32392699)
(-0.0010621831 8.2046661e-19 0.34096811)
(-0.0013345643 1.0506151e-18 0.35239544)
(-0.001651186 8.7739111e-19 0.35748776)
(-0.0020138451 3.9043477e-19 0.35573134)
(-0.0024223614 5.12613e-20 0.3469301)
(-0.002873579 2.6754056e-21 0.33131349)
(-0.0033602502 -5.2846578e-19 0.309615)
(-0.0038700468 -8.7331125e-19 0.28308659)
(-0.0043851037 -6.6985942e-19 0.25341782)
(-0.0048825823 -2.6797821e-19 0.22255056)
(-0.0053366042 -4.0912948e-20 0.19241852)
(-0.0057214714 -1.7665415e-19 0.16467705)
(-0.0060154938 -2.2397823e-19 0.14050013)
(-0.0062043507 -2.8245536e-19 0.12049601)
(-0.0062830126 -2.6930472e-19 0.1047455)
(-0.006255806 -2.6670735e-19 0.092926036)
(-0.0061348681 -4.5720171e-20 0.084468497)
(-0.0059376481 2.6876638e-19 0.078702482)
(-0.0056841694 -4.3565776e-20 0.074965956)
(-0.0053945927 -1.0528715e-20 0.07267364)
(-0.0050873455 1.6141155e-19 0.071349832)
(-0.0047778749 1.0547872e-19 0.070635321)
(-0.0044782159 2.0764273e-19 0.070277778)
(-0.0041966862 3.9161328e-19 0.070113124)
(-0.0039384227 3.6579274e-19 0.070043505)
(-0.0037076134 4.4896074e-19 0.070016262)
(-0.0035008642 5.2978524e-19 0.070005781)
(-0.0033302701 8.7062942e-20 0.070002072)
(-0.0031709498 2.1698668e-19 0.070000937)
(-0.0030678722 1.8927291e-19 0.070001552)
(-0.0029480633 3.0331432e-19 0.070006556)
(-0.0029199924 -4.0947883e-19 0.070006808)
(-0.0028343505 -1.421541e-19 0.070016807)
(-0.0028941887 2.3234664e-20 0.070031875)
(-0.0028517199 -1.5180957e-19 0.070283243)
(-0.0030413552 1.4642989e-19 0.071200401)
(-0.0029582953 3.8803211e-20 0.071987645)
(-0.0025859153 1.0920027e-19 0.064207634)
(-0.00091463286 2.2473974e-20 0.029805728)
(-1.3222663e-06 -3.9873205e-20 0.017261563)
(-9.7818357e-06 -1.1606425e-19 0.051150943)
(-2.6316374e-05 -1.8987168e-19 0.085887328)
(-5.3842576e-05 -2.6456685e-19 0.12116929)
(-9.4399925e-05 -3.4046329e-19 0.15662079)
(-0.00015035444 -3.7302272e-19 0.19178345)
(-0.00022437337 -3.4957269e-19 0.22611023)
(-0.00031940622 -4.279923e-19 0.25896204)
(-0.00043867288 -5.044488e-19 0.28960903)
(-0.00058563322 -6.0799039e-19 0.31723902)
(-0.00076392092 -5.9754953e-19 0.34097635)
(-0.00097722234 -5.61466e-19 0.35991502)
(-0.0012290734 -5.8489675e-19 0.3731698)
(-0.0015225374 -3.8962917e-19 0.37994887)
(-0.0018597221 1.0681491e-19 0.37964809)
(-0.0022410989 -4.4930084e-19 0.37196234)
(-0.0026646165 -8.6461311e-19 0.35700018)
(-0.0031246685 -1.1310323e-18 0.33537715)
(-0.0036110955 -1.5994817e-18 0.3082536)
(-0.0041085537 -1.7142848e-18 0.27728216)
(-0.0045966938 -1.4692214e-18 0.2444468)
(-0.0050515447 -6.8978953e-19 0.21181039)
(-0.0054481822 -3.9001162e-19 0.18122837)
(-0.0057642339 -2.565471e-19 0.15410787)
(-0.0059833055 -1.5149069e-19 0.1312776)
(-0.0060973383 -4.1775152e-19 0.11298911)
(-0.0061072985 -4.8333112e-19 0.099022882)
(-0.0060222208 -5.6771565e-20 0.088846474)
(-0.0058571219 4.0089285e-19 0.081773977)
(-0.0056304546 3.1450856e-19 0.077094228)
(-0.0053616714 4.0895549e-19 0.074156389)
(-0.005069247 2.5139224e-19 0.07241579)
(-0.0047692224 2.0538596e-19 0.071449423)
(-0.0044745269 2.0246535e-19 0.070951186)
(-0.0041946243 1.3851693e-19 0.070715323)
(-0.0039352952 4.0335341e-19 0.070614372)
(-0.0037018291 6.0351496e-19 0.070576591)
(-0.003491149 3.5721592e-19 0.070565654)
(-0.0033143381 3.1504723e-19 0.070565548)
(-0.0031506765 3.8327564e-19 0.07057099)
(-0.0030359434 -4.5406738e-20 0.070578336)
(-0.0029117318 1.4894535e-19 0.070591907)
(-0.0028663 -3.6612401e-19 0.070600535)
(-0.0027721536 -2.17535e-19 0.070620189)
(-0.0028119406 6.38373e-21 0.070675201)
(-0.0027556413 3.0391331e-20 0.071037404)
(-0.0029078656 -3.0935631e-20 0.07205089)
(-0.0027560687 3.4806234e-20 0.072230168)
(-0.0022778487 -3.5976547e-20 0.062563587)
(-0.00072866993 2.0837064e-20 0.027398532)
(-1.2287188e-06 -3.3118963e-20 0.01784271)
(-9.0684371e-06 -9.985985e-20 0.05291276)
(-2.4399871e-05 -1.7036029e-19 0.088908177)
(-4.9929332e-05 -2.4224708e-19 0.12552907)
(-8.7554428e-05 -3.2314584e-19 0.1624)
(-0.00013947852 -4.0708855e-19 0.19906177)
(-0.00020818903 -4.865915e-19 0.23496463)
(-0.00029644243 -5.5017372e-19 0.269464)
(-0.00040725707 -6.0861281e-19 0.30182064)
(-0.00054389048 -6.624242e-19 0.33120756)
(-0.00070978621 -7.0903776e-19 0.3567269)
(-0.00090847399 -7.0354442e-19 0.37744043)
(-0.0011433984 -7.8571808e-19 0.39241786)
(-0.0014176443 -1.0149856e-18 0.40080646)
(-0.0017335182 -1.0896107e-18 0.40192334)
(-0.0020919509 -1.1132544e-18 0.39536697)
(-0.0024917017 -1.2707742e-18 0.38113652)
(-0.0029284032 -1.422439e-18 0.35973654)
(-0.0033935813 -1.5564021e-18 0.33223403)
(-0.0038739271 -1.7306091e-18 0.300231)
(-0.0043512139 -1.6185002e-18 0.2657276)
(-0.0048032665 -1.083234e-18 0.23088237)
(-0.0052061621 -7.308842e-19 0.19771795)
(-0.0055373914 -5.4211781e-19 0.16785104)
(-0.005779223 -2.0756021e-19 0.14232122)
(-0.005921317 1.0345459e-19 0.12155466)
(-0.0059618823 -2.0543837e-19 0.10544788)
(-0.0059072256 -4.284169e-19 0.093521828)
(-0.0057700575 6.6456408e-20 0.085091202)
(-0.0055671741 4.6415671e-19 0.079408887)
(-0.0053170891 3.5514513e-19 0.075767926)
(-0.0050380167 2.3039878e-19 0.073560553)
(-0.0047463107 1.8101893e-19 0.072302761)
(-0.0044555592 1.5254757e-19 0.071635061)
(-0.0041762007 1.5911261e-19 0.071308706)
(-0.0039148678 3.8291872e-19 0.071164402)
(-0.0036774477 5.8058166e-19 0.071108833)
(-0.0034621849 3.5938019e-19 0.071092804)
(-0.003278265 2.6509579e-19 0.071093015)
(-0.0031090922 2.4356888e-19 0.071101267)
(-0.0029838728 -1.2222488e-19 0.071112413)
(-0.0028521963 2.9662418e-20 0.07112899)
(-0.0027928823 -3.0123542e-19 0.071142314)
(-0.0026877382 -1.9748768e-19 0.07116927)
(-0.0027101282 7.7295792e-21 0.071267452)
(-0.0026409361 5.5081033e-20 0.0717316)
(-0.0027509375 -5.1636818e-20 0.072748376)
(-0.0025413644 2.0056244e-20 0.072210706)
(-0.0019870245 -6.4115725e-20 0.060885267)
(-0.00057730208 1.3891002e-20 0.025410094)
(-1.1483519e-06 -6.5534899e-20 0.018382313)
(-8.463224e-06 -1.9746661e-19 0.054548818)
(-2.2774162e-05 -3.3849965e-19 0.091713718)
(-4.6611356e-05 -4.8807101e-19 0.12957867)
(-8.1753268e-05 -6.2340621e-19 0.16776893)
(-0.00013026693 -7.6403251e-19 0.20582483)
(-0.00019448907 -9.1069691e-19 0.24319441)
(-0.000277014 -9.620062e-19 0.27922851)
(-0.00038068978 -1.0061679e-18 0.31317991)
(-0.00050860119 -9.2342754e-19 0.34420895)
(-0.00066402664 -5.694245e-19 0.37139856)
(-0.00085035423 -2.2716621e-19 0.39378265)
(-0.0010709358 1.8801417e-19 0.41039168)
(-0.0013288484 -1.0490047e-19 0.42031959)
(-0.0016265283 -8.5206843e-19 0.42281391)
(-0.0019652395 -1.0614915e-18 0.41738687)
(-0.002344355 -1.1081184e-18 0.40393797)
(-0.0027604707 -5.013973e-19 0.38286757)
(-0.0032064558 -1.8308477e-19 0.35514996)
(-0.0036706689 6.73094e-20 0.3223281)
(-0.0041366946 -7.9479467e-19 0.28639988)
(-0.0045839931 -8.8401691e-19 0.24959358)
(-0.0049897109 -8.3061964e-19 0.21407165)
(-0.0053315111 -8.2677126e-19 0.18163845)
(-0.0055908128 -1.0267559e-18 0.15353303)
(-0.0057555473 -5.9182818e-19 0.13035611)
(-0.0058216683 1.1311537e-19 0.1121287)
(-0.0057931219 -2.2374937e-20 0.09843796)
(-0.0056805177 -2.5296483e-19 0.088612518)
(-0.0054990401 2.2543659e-19 0.081880819)
(-0.0052661757 3.3274977e-19 0.077488513)
(-0.0049996882 2.7459523e-19 0.07477057)
(-0.0047160024 2.8491632e-19 0.073185253)
(-0.004429139 3.7592959e-19 0.072320822)
(-0.0041502276 5.1370093e-19 0.071885039)
(-0.0038867754 4.013559e-19 0.071685225)
(-0.003645035 6.393112e-19 0.071604517)
(-0.0034246122 8.3875042e-19 0.071578811)
(-0.0032335221 4.1107712e-19 0.07157636)
(-0.0030575171 5.6223728e-20 0.07158446)
(-0.0029229078 7.6746776e-20 0.071596769)
(-0.0027823882 -8.308224e-20 0.071613102)
(-0.0027108598 -4.5666837e-19 0.071628251)
(-0.0025957681 -1.9697851e-19 0.0716641)
(-0.0026012398 6.293811e-21 0.071807269)
(-0.0025223905 5.1633485e-20 0.072356143)
(-0.0025873776 -3.7051463e-20 0.073290442)
(-0.0023324341 9.4874322e-21 0.071979417)
(-0.0017274932 -7.5692478e-20 0.059230408)
(-0.00045707607 3.0446985e-21 0.023769038)
(-1.0804883e-06 -3.0583261e-20 0.018887128)
(-7.9519268e-06 -9.2401251e-20 0.056079519)
(-2.1399978e-05 -1.596359e-19 0.0943388)
(-4.3805258e-05 -2.3541263e-19 0.13336816)
(-7.6844365e-05 -2.9090826e-19 0.17279364)
(-0.0001224673 -3.5558511e-19 0.21215529)
(-0.00018288087 -4.1319306e-19 0.25089938)
(-0.0002605389 -4.408792e-19 0.28837286)
(-0.00035814097 -4.4343914e-19 0.32382163)
(-0.00047862001 -4.2293323e-19 0.35639498)
(-0.00062510666 -3.1461668e-19 0.38515912)
(-0.00080085845 -2.8711497e-19 0.40912343)
(-0.0010091334 -3.1003718e-19 0.42728381)
(-0.0012529813 -2.3127539e-19 0.43868692)
(-0.0015349195 -3.7264347e-19 0.44251814)
(-0.0018564574 -4.6196809e-19 0.43821191)
(-0.0022174431 -5.0893339e-19 0.42557641)
(-0.0026152388 -3.7249291e-19 0.4049142)
(-0.0030438086 -1.6500149e-19 0.37710878)
(-0.0034929061 -7.1979505e-20 0.34363885)
(-0.0039476793 -2.3418481e-19 0.30648661)
(-0.0043890726 -4.9866825e-19 0.26792963)
(-0.0047953076 -5.6241384e-19 0.23024718)
(-0.005144408 -4.847952e-19 0.19541145)
(-0.005417282 -4.4570121e-19 0.16484898)
(-0.0056005418 -5.294397e-19 0.13933251)
(-0.0056882785 -3.4741913e-19 0.11901287)
(-0.0056823902 1.6646251e-19 0.10355327)
(-0.0055915792 2.6213923e-19 0.092307346)
(-0.005429492 8.5465912e-20 0.084489144)
(-0.0052125602 2.6914754e-19 0.079304855)
(-0.0049579897 2.8846006e-19 0.076037792)
(-0.0046821126 3.2204361e-19 0.074091953)
(-0.0043992334 4.0633061e-19 0.073004974)
(-0.0041209886 5.5430254e-19 0.072441261)
(-0.0038556621 5.623397e-19 0.072173782)
(-0.0036099302 6.3457933e-19 0.072060603)
(-0.0033843464 8.8190191e-19 0.072020924)
(-0.0031867015 5.4513941e-19 0.072013243)
(-0.0030036365 1.7873218e-19 0.072019209)
(-0.0028605201 7.8848221e-20 0.072030607)
(-0.0027116019 -3.0771486e-19 0.072045148)
(-0.0026284658 -4.6780518e-19 0.072060702)
(-0.0025060019 -2.069168e-19 0.072108631)
(-0.002494305 7.6643119e-21 0.072297016)
(-0.0024086599 3.9672017e-20 0.072907056)
(-0.0024286402 -2.8150088e-20 0.073686716)
(-0.0021386852 -6.7499313e-21 0.071584864)
(-0.0015034922 -6.8088671e-20 0.057635042)
(-0.00036289937 -4.8787677e-21 0.022416027)
(-1.0216949e-06 9.5715691e-22 0.019362226)
(-7.5104748e-06 3.4520481e-21 0.057520208)
(-2.0213486e-05 8.772721e-21 0.096809688)
(-4.1382307e-05 2.1678131e-20 0.13693536)
(-7.2605298e-05 -1.8815038e-21 0.17752411)
(-0.00011573107 -1.6762189e-20 0.21811588)
(-0.00017285363 -2.18167e-20 0.25815549)
(-0.00024630448 -1.3599621e-19 0.29698652)
(-0.00033865317 -2.6905589e-19 0.33384888)
(-0.00045269847 -2.9600139e-19 0.36788215)
(-0.0005914392 -5.2345579e-19 0.39813772)
(-0.00075801309 -7.8444604e-19 0.42360323)
(-0.00095558652 -1.0476913e-18 0.44324374)
(-0.0011871705 -8.7443048e-19 0.45606359)
(-0.0014553309 -2.3449855e-19 0.46119219)
(-0.0017617602 -2.323186e-19 0.45799327)
(-0.0021066791 -9.8608154e-20 0.44619091)
(-0.0024880699 -3.8057956e-19 0.42599584)
(-0.002900802 -3.1363248e-19 0.3982033)
(-0.0033358094 -4.943743e-19 0.36422478)
(-0.0037796011 -6.6020312e-20 0.32601674)
(-0.0042144656 -2.7701105e-19 0.28588982)
(-0.0046196745 -3.3361532e-19 0.2462206)
(-0.0049737288 -2.1170697e-19 0.20913125)
(-0.0052572654 4.462687e-20 0.17622388)
(-0.0054558911 -1.1157645e-20 0.14843924)
(-0.0055621532 -5.1058309e-19 0.12606107)
(-0.0055761665 -3.301197e-20 0.10883625)
(-0.0055049095 4.1213255e-19 0.096152661)
(-0.0053605816 2.9717635e-19 0.08721871)
(-0.0051585648 3.8120278e-19 0.081208294)
(-0.004915444 3.4691173e-19 0.077358338)
(-0.0046473379 3.5408965e-19 0.075022026)
(-0.0043686998 3.8305257e-19 0.073688255)
(-0.0040915469 2.9532134e-19 0.072978637)
(-0.0038247746 5.1139251e-19 0.072631306)
(-0.0035755954 5.7722339e-19 0.072478119)
(-0.0033451708 5.9337181e-19 0.072420144)
(-0.0031415905 3.2655904e-19 0.072404754)
(-0.0029519501 2.9055142e-19 0.072407118)
(-0.0028008991 -1.7543446e-19 0.072416146)
(-0.0026450026 -2.1861224e-19 0.072428441)
(-0.0025506423 -1.0260219e-19 0.07244459)
(-0.0024235798 -2.0506806e-19 0.072508068)
(-0.0023949529 -2.5794501e-21 0.072740206)
(-0.0023041751 2.8339668e-20 0.073384244)
(-0.0022816801 -2.1224236e-20 0.073951823)
(-0.0019648436 -1.26278e-20 0.071068019)
(-0.0013147651 -7.0787639e-20 0.056116332)
(-0.00029010184 -1.3288574e-20 0.021293948)
(-9.7036751e-07 -2.0639014e-20 0.019811621)
(-7.1256305e-06 -6.1013865e-20 0.058883032)
(-1.9178879e-05 -1.0183324e-19 0.099147163)
(-3.9269177e-05 -1.3704607e-19 0.1403102)
(-6.890762e-05 -2.0804194e-19 0.18199989)
(-0.00010985397 -2.7980504e-19 0.22375621)
(-0.00016410305 -3.5241986e-19 0.26502275)
(-0.00023387833 -4.3728026e-19 0.30514022)
(-0.0003216343 -5.3298596e-19 0.34334322)
(-0.00043005033 -6.580649e-19 0.37876269)
(-0.00056200623 -7.6827029e-19 0.41043677)
(-0.0007205296 -8.1452134e-19 0.43733364)
(-0.0009086989 -7.5795429e-19 0.45839061)
(-0.0011294795 -8.5144738e-19 0.47257382)
(-0.0013854634 -7.2979942e-19 0.47896185)
(-0.0016784795 -5.2728299e-19 0.47685376)
(-0.0020090458 -4.8947742e-19 0.46589588)
(-0.0023756526 -5.7893369e-19 0.44621255)
(-0.0027739273 -6.1145738e-19 0.41851372)
(-0.0031958133 -6.2062171e-19 0.38414206)
(-0.0036290126 -3.4426674e-19 0.3450209)
(-0.0040570331 -1.5338084e-19 0.30348075)
(-0.0044601567 -1.4843957e-19 0.26197898)
(-0.0048174299 -4.4070173e-20 0.22277172)
(-0.0051093929 1.0479322e-19 0.18762508)
(-0.00532089 1.9847022e-19 0.15764284)
(-0.0054431849 -1.3188325e-19 0.13324314)
(-0.005474839 -2.0726106e-19 0.1142624)
(-0.0054212722 1.9375514e-19 0.10013053)
(-0.0052933318 3.5868885e-19 0.090057968)
(-0.0051053759 3.7936247e-19 0.083192802)
(-0.0048733393 3.3066683e-19 0.078730452)
(-0.0046130503 2.96582e-19 0.075976643)
(-0.0043389996 2.3994575e-19 0.074373525)
(-0.0040634917 2.4081948e-19 0.073500762)
(-0.0037958813 3.5315589e-19 0.073061536)
(-0.0035439438 4.8498883e-19 0.072860689)
(-0.0033093195 4.6191611e-19 0.072780015)
(-0.003100431 2.6889171e-19 0.072754468)
(-0.0029051156 1.8071498e-19 0.072751983)
(-0.002746607 -2.1788584e-19 0.072757725)
(-0.0025853598 -1.1798933e-19 0.072767925)
(-0.0024803628 -3.7582273e-20 0.072786042)