/*--------------------------------*- C++ -*----------------------------------*\
| =========                 |                                                 |
| \\      /  F ield         | OpenFOAM: The Open Source CFD Toolbox           |
|  \\    /   O peration     | Version:  4.0                                   |
|   \\  /    A nd           | Web:      www.OpenFOAM.org                      |
|    \\/     M anipulation  |                                                 |
\*---------------------------------------------------------------------------*/
FoamFile
{
    version     2.0;
    format      ascii;
    class       surfaceScalarField;
    location    "859";
    object      phi;
}
// * * * * * * * * * * * * * * * * * * * * * * * * * * * * * * * * * * * * * //

dimensions      [1 0 -1 0 0 0 0];

internalField   nonuniform List<scalar> 
9850
(
3.3066627e-12
8.0431778e-11
1.2940763e-11
2.6875882e-10
2.8851095e-11
5.1039366e-10
5.0496742e-11
8.1603719e-10
7.6511883e-11
1.1979031e-09
1.0442936e-10
1.6696758e-09
1.3039286e-10
2.2464435e-09
1.4888524e-10
2.9445565e-09
1.5252075e-10
3.7814135e-09
1.3196611e-10
4.7752014e-09
7.6062056e-11
5.9446418e-09
-2.7768314e-11
7.3088384e-09
-1.9277024e-10
8.8873618e-09
-4.3173691e-10
1.0700757e-08
-7.5555185e-10
1.2771686e-08
-1.1715117e-09
1.5126921e-08
-1.6816529e-09
1.7800379e-08
-2.2813819e-09
2.0837259e-08
-2.9587163e-09
2.4299247e-08
-3.6944728e-09
2.8270516e-08
-4.4635409e-09
3.2864116e-08
-5.2372871e-09
3.8228232e-08
-5.9868269e-09
4.4551839e-08
-6.6867518e-09
5.2069505e-08
-7.318797e-09
6.1065477e-08
-7.8747584e-09
7.1877736e-08
-8.3581389e-09
8.4903212e-08
-8.7840887e-09
1.0060573e-07
-9.1775872e-09
1.1952833e-07
-9.570215e-09
1.4231127e-07
-9.9963789e-09
1.6971635e-07
-1.0490003e-08
2.026576e-07
-1.1082541e-08
2.4223756e-07
-1.1802965e-08
2.8978896e-07
-1.2679543e-08
3.4692206e-07
-1.3743133e-08
4.1557915e-07
-1.5031139e-08
4.9809781e-07
-1.6594008e-08
5.9728696e-07
-1.8502023e-08
7.1651254e-07
-2.0856538e-08
8.5980521e-07
-2.3815334e-08
1.0319692e-06
-2.7574256e-08
1.2386973e-06
-3.2582421e-08
1.4868263e-06
-3.9058771e-08
1.7838823e-06
-4.8705449e-08
2.1402169e-06
-6.0901493e-08
2.5625976e-06
-8.2612626e-08
3.0717409e-06
-1.1440502e-07
3.6617425e-06
-1.9255373e-07
4.4293022e-06
4.5099147e-06
-9.2302537e-12
8.9662044e-11
-4.1166474e-11
3.0069494e-10
-1.0380191e-10
5.7302887e-10
-2.0755822e-10
9.1979363e-10
-3.6580185e-10
1.3561469e-09
-5.9548168e-10
1.8993553e-09
-9.1778278e-10
2.5687438e-09
-1.358711e-09
3.3854846e-09
-1.9494785e-09
4.3721811e-09
-2.7264902e-09
5.5522129e-09
-3.7306878e-09
6.9488393e-09
-5.0059708e-09
8.5841216e-09
-6.5964215e-09
1.0477812e-08
-8.5421541e-09
1.2646489e-08
-1.0873814e-08
1.5103345e-08
-1.3606079e-08
1.7859187e-08
-1.6730909e-08
2.0925206e-08
-2.0211682e-08
2.4318033e-08
-2.3979701e-08
2.8067266e-08
-2.7934404e-08
3.2225217e-08
-3.1948334e-08
3.6878045e-08
-3.587707e-08
4.2156967e-08
-3.9573267e-08
4.8248036e-08
-4.2902975e-08
5.5399213e-08
-4.5761635e-08
6.3924142e-08
-4.8086938e-08
7.4203042e-08
-4.9865999e-08
8.6682265e-08
-5.11353e-08
1.0187504e-07
-5.1973456e-08
1.203665e-07
-5.2488314e-08
1.4282612e-07
-5.2801792e-08
1.7002983e-07
-5.3036627e-08
2.0289244e-07
-5.3308687e-08
2.4250961e-07
-5.3726657e-08
2.9020692e-07
-5.4398747e-08
3.4759416e-07
-5.5444131e-08
4.1662453e-07
-5.7006612e-08
4.9966029e-07
-5.9267797e-08
5.9954817e-07
-6.2470066e-08
7.1971482e-07
-6.6913285e-08
8.6424842e-07
-7.3069658e-08
1.0381256e-06
-8.1390138e-08
1.2470178e-06
-9.3041218e-08
1.4984774e-06
-1.0848989e-07
1.799331e-06
-1.310627e-07
2.1627897e-06
-1.6122071e-07
2.5927556e-06
-2.0812207e-07
3.1186422e-06
-2.9961415e-07
3.7532346e-06
-4.3757314e-07
4.5672612e-06
4.0723416e-06
-1.4399272e-11
1.0406131e-10
-6.3092476e-11
3.4938803e-10
-1.5648686e-10
6.6642346e-10
-3.0732305e-10
1.0706299e-09
-5.3110082e-10
1.5799244e-09
-8.4651654e-10
2.2147712e-09
-1.2759153e-09
2.9981426e-09
-1.8457172e-09
3.9552866e-09
-2.5867692e-09
5.1132333e-09
-3.5345303e-09
6.4999739e-09
-4.7289546e-09
8.143264e-09
-6.2138867e-09
1.0069053e-08
-8.0357025e-09
1.2299628e-08
-1.0240909e-08
1.4851697e-08
-1.2872405e-08
1.7734842e-08
-1.5964184e-08
2.0950966e-08
-1.9534572e-08
2.4495595e-08
-2.3578466e-08
2.8361926e-08
-2.805962e-08
3.2548418e-08
-3.2904629e-08
3.7070224e-08
-3.8000565e-08
4.1973979e-08
-4.3198132e-08
4.7354534e-08
-4.8321487e-08
5.3371389e-08
-5.3184553e-08
6.0262275e-08
-5.7612134e-08
6.8351721e-08
-6.1462721e-08
7.805363e-08
-6.4648961e-08
8.9868498e-08
-6.7151692e-08
1.0437775e-07
-6.9024383e-08
1.2223919e-07
-7.0386686e-08
1.4418843e-07
-7.1408245e-08
1.7105139e-07
-7.2287034e-08
2.0377122e-07
-7.3228277e-08
2.4345087e-07
-7.443034e-08
2.9140898e-07
-7.6081261e-08
3.4924508e-07
-7.8366328e-08
4.189096e-07
-8.1485973e-08
5.0277993e-07
-8.5672823e-08
6.0373503e-07
-9.1234189e-08
7.2527619e-07
-9.8538526e-08
8.7155276e-07
-1.0817621e-07
1.0477633e-06
-1.2076181e-07
1.2596034e-06
-1.3753046e-07
1.5152461e-06
-1.5972511e-07
1.8215256e-06
-1.8946798e-07
2.1925326e-06
-2.3126003e-07
2.6345477e-06
-2.9151732e-07
3.1788995e-06
-4.0877915e-07
3.8704964e-06
-4.7550823e-07
4.6339903e-06
3.5968334e-06
-9.8601259e-12
1.1392144e-10
-4.3598275e-11
3.831262e-10
-1.0905377e-10
7.3187894e-10
-2.1613298e-10
1.177709e-09
-3.772906e-10
1.741082e-09
-6.0809269e-10
2.4455733e-09
-9.2785875e-10
3.3179087e-09
-1.3603676e-09
4.387795e-09
-1.9345878e-09
5.6874533e-09
-2.6853686e-09
7.2507551e-09
-3.6539731e-09
9.1118683e-09
-4.8882738e-09
1.1303354e-08
-6.4423747e-09
1.3853729e-08
-8.3753204e-09
1.6784644e-08
-1.0748527e-08
2.0108049e-08
-1.3621532e-08
2.382397e-08
-1.7045806e-08
2.7919868e-08
-2.1056659e-08
3.2372777e-08
-2.5663738e-08
3.71555e-08
-3.0841364e-08
4.2247851e-08
-3.652055e-08
4.7653165e-08
-4.2585108e-08
5.3419095e-08
-4.8874106e-08
5.9660386e-08
-5.5192062e-08
6.658023e-08
-6.1326932e-08
7.4486593e-08
-6.7074044e-08
8.3800735e-08
-7.2262506e-08
9.5056956e-08
-7.677972e-08
1.0889498e-07
-8.0589258e-08
1.2604872e-07
-8.3738099e-08
1.4733728e-07
-8.6351507e-08
1.736648e-07
-8.8616409e-08
2.0603612e-07
-9.0758105e-08
2.4559256e-07
-9.3017648e-08
2.9366853e-07
-9.5637903e-08
3.5186532e-07
-9.8862225e-08
4.2213392e-07
-1.0294922e-07
5.0686693e-07
-1.0819087e-07
6.0897668e-07
-1.1495326e-07
7.3203856e-07
-1.236874e-07
8.8028692e-07
-1.3499825e-07
1.0590741e-06
-1.4971401e-07
1.2743192e-06
-1.68735e-07
1.534267e-06
-1.9403749e-07
1.8468281e-06
-2.262549e-07
2.22475e-06
-2.7208745e-07
2.6803802e-06
-3.3859806e-07
3.2454101e-06
-4.4364713e-07
3.9755456e-06
-4.2189736e-07
4.6122405e-06
3.174936e-06
-7.843371e-12
1.2176482e-10
-3.4715603e-11
4.099986e-10
-8.692612e-11
7.8408952e-10
-1.7248944e-10
1.2632721e-09
-3.0153882e-10
1.8701316e-09
-4.8683184e-10
2.6308661e-09
-7.4434401e-10
3.575421e-09
-1.093966e-09
4.7374171e-09
-1.5602819e-09
6.1537692e-09
-2.1734043e-09
7.8638779e-09
-2.9698007e-09
9.9082645e-09
-3.9929867e-09
1.232654e-08
-5.2939107e-09
1.5154652e-08
-6.9307353e-09
1.8421468e-08
-8.9676575e-09
2.2144971e-08
-1.14723e-08
2.6328613e-08
-1.4511224e-08
3.0958793e-08
-1.8143214e-08
3.6004763e-08
-2.241032e-08
4.1422607e-08
-2.7327303e-08
4.7164833e-08
-3.2870752e-08
5.3196617e-08
-3.8970179e-08
5.9518521e-08
-4.5503665e-08
6.6193869e-08
-5.2300689e-08
7.3377258e-08
-5.9153709e-08
8.1339614e-08
-6.5838334e-08
9.0485363e-08
-7.2140158e-08
1.0135878e-07
-7.7884333e-08
1.1463915e-07
-8.2963015e-08
1.3112741e-07
-8.7355389e-08
1.5172965e-07
-9.1135627e-08
1.7744504e-07
-9.4466531e-08
2.0936702e-07
-9.7579841e-08
2.4870587e-07
-1.0074888e-07
2.9683757e-07
-1.0426267e-07
3.5537912e-07
-1.0841028e-07
4.2628155e-07
-1.1348233e-07
5.1193897e-07
-1.1978831e-07
6.1528263e-07
-1.2767971e-07
7.3993e-07
-1.3761392e-07
8.902211e-07
-1.500978e-07
1.071558e-06
-1.660212e-07
1.2902426e-06
-1.8600236e-07
1.5542482e-06
-2.1201914e-07
1.8728449e-06
-2.4468552e-07
2.2574164e-06
-2.9034898e-07
2.7260437e-06
-3.578659e-07
3.312927e-06
-4.3608781e-07
4.0537675e-06
-3.588435e-07
4.5349962e-06
2.8160925e-06
-6.9033404e-12
1.2866818e-10
-3.0556852e-11
4.3365199e-10
-7.6510134e-11
8.3004265e-10
-1.5180932e-10
1.3385715e-09
-2.653677e-10
1.9836901e-09
-4.2841131e-10
2.7939095e-09
-6.5501405e-10
3.8020241e-09
-9.6273088e-10
5.0451336e-09
-1.3733198e-09
6.564358e-09
-1.9135512e-09
8.4041087e-09
-2.6160553e-09
1.0610769e-08
-3.520146e-09
1.3230631e-08
-4.6724832e-09
1.6306989e-08
-6.1273714e-09
1.9876357e-08
-7.946403e-09
2.3964003e-08
-1.0197039e-08
2.8579248e-08
-1.2949648e-08
3.3711402e-08
-1.6272552e-08
3.9327667e-08
-2.0224742e-08
4.5374798e-08
-2.4846375e-08
5.1786465e-08
-3.014777e-08
5.8498009e-08
-3.6098519e-08
6.5469272e-08
-4.2619111e-08
7.271446e-08
-4.9577792e-08
8.0335937e-08
-5.6795187e-08
8.8557007e-08
-6.4057892e-08
9.7748072e-08
-7.1140557e-08
1.0844145e-07
-7.7833964e-08
1.2133255e-07
-8.3975084e-08
1.3726853e-07
-8.9474139e-08
1.572287e-07
-9.4333443e-08
1.8230433e-07
-9.8653548e-08
2.1368712e-07
-1.0262466e-07
2.5267699e-07
-1.065051e-07
3.0071802e-07
-1.1059321e-07
3.5946722e-07
-1.1520319e-07
4.3089153e-07
-1.2065224e-07
5.1738799e-07
-1.2727218e-07
6.219026e-07
-1.3541269e-07
7.4807051e-07
-1.455247e-07
9.0033314e-07
-1.580659e-07
1.0840992e-06
-1.7382677e-07
1.3060034e-06
-1.9340408e-07
1.5738255e-06
-2.1823786e-07
1.8976786e-06
-2.4970389e-07
2.2888824e-06
-2.9297495e-07
2.7693148e-06
-3.5483868e-07
3.3747907e-06
-4.0320665e-07
4.1021355e-06
-2.9164067e-07
4.4234302e-06
2.5244518e-06
-6.0583813e-12
1.3472655e-10
-2.6831093e-11
4.5442467e-10
-6.721926e-11
8.7043095e-10
-1.3346307e-10
1.4048155e-09
-2.334758e-10
2.0837029e-09
-3.7725241e-10
2.9376864e-09
-5.773645e-10
4.0021358e-09
-8.4954369e-10
5.3173129e-09
-1.2133679e-09
6.9281822e-09
-1.693032e-09
8.883773e-09
-2.3181881e-09
1.1235925e-08
-3.1247971e-09
1.403724e-08
-4.1558973e-09
1.733809e-08
-5.4621394e-09
2.11826e-08
-7.1018366e-09
2.5603701e-08
-9.1402065e-09
3.0617618e-08
-1.1647368e-08
3.6218563e-08
-1.4694633e-08
4.2374933e-08
-1.8348663e-08
4.9028828e-08
-2.2663302e-08
5.6101105e-08
-2.7669429e-08
6.3504134e-08
-3.336382e-08
7.1163663e-08
-3.9698996e-08
7.9049636e-08
-4.6576557e-08
8.72135e-08
-5.3846785e-08
9.5827239e-08
-6.1316561e-08
1.0521785e-07
-6.8766255e-08
1.1589114e-07
-7.5974411e-08
1.285407e-07
-8.2747231e-08
1.4404135e-07
-8.8948573e-08
1.6343005e-07
-9.4525274e-08
1.8788104e-07
-9.9522698e-08
2.1868454e-07
-1.0408636e-07
2.5724064e-07
-1.084482e-07
3.0507986e-07
-1.1290056e-07
3.6391958e-07
-1.177669e-07
4.3575788e-07
-1.2337701e-07
5.2299812e-07
-1.3006642e-07
6.2859199e-07
-1.3817247e-07
7.5617655e-07
-1.4809528e-07
9.1025596e-07
-1.6026028e-07
1.0962642e-06
-1.7526652e-07
1.3210097e-06
-1.9375301e-07
1.592312e-06
-2.1668712e-07
1.9206127e-06
-2.4597032e-07
2.3181657e-06
-2.8587582e-07
2.8092204e-06
-3.3794509e-07
3.42686e-06
-3.5962675e-07
4.1238172e-06
-2.3204202e-07
4.2958454e-06
2.2924099e-06
-5.5158361e-12
1.4024242e-10
-2.4430637e-11
4.7333947e-10
-6.1209548e-11
9.0720977e-10
-1.215386e-10
1.4651445e-09
-2.1263336e-10
2.1747976e-09
-3.4361493e-10
3.0686683e-09
-5.259676e-10
4.1844888e-09
-7.7408435e-10
5.56543e-09
-1.1059086e-09
7.2600064e-09
-1.5436683e-09
9.3215328e-09
-2.1146908e-09
1.1806947e-08
-2.8522559e-09
1.4774804e-08
-3.7964092e-09
1.8282243e-08
-4.9946241e-09
2.2380814e-08
-6.5020926e-09
2.7111169e-08
-8.3813796e-09
3.2496905e-08
-1.0701052e-08
3.8538235e-08
-1.3532843e-08
4.5206724e-08
-1.6946905e-08
5.2442893e-08
-2.1004863e-08
6.0159063e-08
-2.5750677e-08
6.8249948e-08
-3.1200033e-08
7.6613017e-08
-3.7329636e-08
8.5179239e-08
-4.4068665e-08
9.395253e-08
-5.1294993e-08
1.0305356e-07
-5.8838541e-08
1.127614e-07
-6.6493291e-08
1.235459e-07
-7.4037578e-08
1.3608498e-07
-8.1260728e-08
1.5126451e-07
-8.7992815e-08
1.7016214e-07
-9.4132732e-08
1.9402095e-07
-9.9669959e-08
2.2422175e-07
-1.0469501e-07
2.6226569e-07
-1.0939537e-07
3.0978021e-07
-1.1403636e-07
3.6856056e-07
-1.1893282e-07
4.4065434e-07
-1.244191e-07
5.284844e-07
-1.3083359e-07
6.3500647e-07
-1.3851393e-07
7.6385687e-07
-1.4781882e-07
9.1956088e-07
-1.5915176e-07
1.1075972e-06
-1.729688e-07
1.3348267e-06
-1.8988277e-07
1.609226e-06
-2.1069151e-07
1.9414215e-06
-2.3736392e-07
2.3448381e-06
-2.7328359e-07
2.84514e-06
-3.1435093e-07
3.4679274e-06
-3.1444738e-07
4.1239136e-06
-1.8329532e-07
4.1646933e-06
2.1091145e-06
-5.0126015e-12
1.4525503e-10
-2.2209823e-11
4.9053656e-10
-5.5665617e-11
9.4066545e-10
-1.1057711e-10
1.5200558e-09
-1.935499e-10
2.2577704e-09
-3.1295058e-10
3.1880691e-09
-4.7933433e-10
4.3508729e-09
-7.0596037e-10
5.7920559e-09
-1.0093992e-09
7.5634454e-09
-1.4102403e-09
9.7223736e-09
-1.9338789e-09
1.2330586e-08
-2.611367e-09
1.5452292e-08
-3.4802518e-09
1.9151128e-08
-4.5853111e-09
2.3485873e-08
-5.9790067e-09
2.8504865e-08
-7.7214112e-09
3.423931e-08
-9.8792716e-09
4.0696096e-08
-1.2523787e-08
4.7851239e-08
-1.572667e-08
5.5645776e-08
-1.9554127e-08
6.3986519e-08
-2.4058646e-08
7.2754467e-08
-2.9269013e-08
8.1823383e-08
-3.5179602e-08
9.1089828e-08
-4.1740846e-08
1.0051378e-07
-4.8853302e-08
1.1016602e-07
-5.6367776e-08
1.2027587e-07
-6.4093344e-08
1.3127146e-07
-7.181379e-08
1.4380542e-07
-7.9311188e-08
1.5876192e-07
-8.6394144e-08
1.772451e-07
-9.2926613e-08
2.0055342e-07
-9.8853035e-08
2.3014818e-07
-1.0421483e-07
2.6762748e-07
-1.0915394e-07
3.1471931e-07
-1.1390114e-07
3.7330777e-07
-1.1875112e-07
4.4550433e-07
-1.2403149e-07
5.3376476e-07
-1.3007606e-07
6.4105103e-07
-1.3721643e-07
7.7099721e-07
-1.4577982e-07
9.2812429e-07
-1.5612959e-07
1.117947e-06
-1.686447e-07
1.3473418e-06
-1.8385576e-07
1.6244371e-06
-2.0256509e-07
1.9601308e-06
-2.2656674e-07
2.3688398e-06
-2.5802962e-07
2.8766029e-06
-2.8837621e-07
3.498274e-06
-2.7206989e-07
4.1076073e-06
-1.4429812e-07
4.0369216e-06
1.9648164e-06
-4.6361704e-12
1.4989114e-10
-2.054402e-11
5.0644429e-10
-5.1495871e-11
9.7161729e-10
-1.0230691e-10
1.5708668e-09
-1.7910235e-10
2.3345656e-09
-2.8964615e-10
3.298613e-09
-4.4374519e-10
4.5049718e-09
-6.5373331e-10
6.0020438e-09
-9.3505e-10
7.8447623e-09
-1.3069163e-09
1.009424e-08
-1.7930972e-09
1.2816767e-08
-2.4227364e-09
1.6081932e-08
-3.2312106e-09
1.9959602e-08
-4.2609085e-09
2.4515572e-08
-5.5618022e-09
2.9805758e-08
-7.191572e-09
3.586908e-08
-9.2150039e-09
4.2719526e-08
-1.1702234e-08
5.0338471e-08
-1.4725465e-08
5.8669005e-08
-1.8353685e-08
6.7614739e-08
-2.2645279e-08
7.7046061e-08
-2.763867e-08
8.681677e-08
-3.3341841e-08
9.6792995e-08
-3.9722316e-08
1.0689426e-07
-4.6699809e-08
1.1714351e-07
-5.4143906e-08
1.2771997e-07
-6.1878957e-08
1.3900652e-07
-6.9697009e-08
1.5162347e-07
-7.7378304e-08
1.664432e-07
-8.4717299e-08
1.8458409e-07
-9.1551025e-08
2.0738714e-07
-9.7785718e-08
2.3638288e-07
-1.0341735e-07
2.7325912e-07
-1.0854147e-07
3.1984344e-07
-1.1334883e-07
3.7811513e-07
-1.1810608e-07
4.5026161e-07
-1.2312666e-07
5.3878535e-07
-1.2873885e-07
6.466632e-07
-1.3526839e-07
7.7752676e-07
-1.430283e-07
9.3588418e-07
-1.5234273e-07
1.1272614e-06
-1.6355632e-07
1.3585554e-06
-1.7712977e-07
1.6380106e-06
-1.9388917e-07
1.9768902e-06
-2.1537076e-07
2.3903214e-06
-2.4229509e-07
2.9035273e-06
-2.6305442e-07
3.5190333e-06
-2.3506443e-07
4.0796173e-06
-1.1416095e-07
3.9160181e-06
1.8506555e-06
-4.3024234e-12
1.5419366e-10
-1.9069362e-11
5.2121122e-10
-4.7809645e-11
1.0003575e-09
-9.5006216e-11
1.6180634e-09
-1.6636786e-10
2.4059275e-09
-2.6914059e-10
3.4013856e-09
-4.1248657e-10
4.6483175e-09
-6.0794625e-10
6.1975039e-09
-8.6999226e-10
8.1068081e-09
-1.2166733e-09
1.044092e-08
-1.6703558e-09
1.327045e-08
-2.2585433e-09
1.6670119e-08
-3.0147281e-09
2.0715787e-08
-3.9792076e-09
2.5480051e-08
-5.1997275e-09
3.1026279e-08
-6.7317708e-09
3.7401123e-08
-8.6381883e-09
4.4625944e-08
-1.0987844e-08
5.2688127e-08
-1.3852816e-08
6.1533977e-08
-1.7303776e-08
7.1065697e-08
-2.1403261e-08
8.1145547e-08
-2.6196941e-08
9.1610449e-08
-3.1703454e-08
1.0229951e-07
-3.7904169e-08
1.1309497e-07
-4.4734857e-08
1.239742e-07
-5.2081623e-08
1.3506674e-07
-5.9783222e-08
1.4670812e-07
-6.7641117e-08
1.5948137e-07
-7.5437154e-08
1.7423924e-07
-8.2957354e-08
1.921043e-07
-9.001917e-08
2.1444896e-07
-9.6498525e-08
2.4286224e-07
-1.0235281e-07
2.791134e-07
-1.0763512e-07
3.2512573e-07
-1.1249602e-07
3.8297603e-07
-1.1717034e-07
4.5493592e-07
-1.2195112e-07
5.4356613e-07
-1.2715722e-07
6.5186928e-07
-1.33107e-07
7.8347654e-07
-1.4010564e-07
9.4288281e-07
-1.4844992e-07
1.1356057e-06
-1.5846535e-07
1.3685709e-06
-1.7058213e-07
1.6501273e-06
-1.856106e-07
1.9919187e-06
-2.0478766e-07
2.4094985e-06
-2.273728e-07
2.9261124e-06
-2.3995447e-07
3.5316149e-06
-2.0400729e-07
4.0436702e-06
-9.1337553e-08
3.8033483e-06
1.7593179e-06
-4.029562e-12
1.5822327e-10
-1.786191e-11
5.3504329e-10
-4.4786614e-11
1.0272822e-09
-8.900991e-11
1.6622868e-09
-1.5589195e-10
2.4728095e-09
-2.5224024e-10
3.4977342e-09
-3.8667271e-10
4.7827501e-09
-5.7005525e-10
6.3808864e-09
-8.1602956e-10
8.3527824e-09
-1.1416358e-09
1.0766526e-08
-1.5680277e-09
1.3696841e-08
-2.1212745e-09
1.7223366e-08
-2.8332094e-09
2.1427722e-08
-3.7422611e-09
2.6389103e-08
-4.8941604e-09
3.2178179e-08
-6.3423395e-09
3.8849302e-08
-8.1477732e-09
4.6431377e-08
-1.0377913e-08
5.4918266e-08
-1.3104329e-08
6.4260393e-08
-1.6398623e-08
7.4359991e-08
-2.0326313e-08
8.5073238e-08
-2.4938658e-08
9.6222796e-08
-3.0262875e-08
1.0762372e-07
-3.6291857e-08
1.1912395e-07
-4.2975177e-08
1.3065752e-07
-5.0213666e-08
1.4230522e-07
-5.7859682e-08
1.5435413e-07
-6.5724663e-08
1.6734635e-07
-7.3594275e-08
1.8210885e-07
-8.124999e-08
1.9976001e-07
-8.8494939e-08
2.216939e-07
-9.5180731e-08
2.4954805e-07
-1.0123181e-07
2.8516448e-07
-1.0666292e-07
3.3055684e-07
-1.1158584e-07
3.8789896e-07
-1.1620207e-07
4.5955216e-07
-1.2078112e-07
5.4814515e-07
-1.2562957e-07
6.5671775e-07
-1.3105963e-07
7.8890661e-07
-1.3737217e-07
9.4919536e-07
-1.4485223e-07
1.1430857e-06
-1.5381321e-07
1.3775319e-06
-1.6468418e-07
1.6609983e-06
-1.7821591e-07
2.0054504e-06
-1.9530721e-07
2.4265898e-06
-2.1390072e-07
2.9447059e-06
-2.1968877e-07
3.537403e-06
-1.7855679e-07
4.0025382e-06
-7.4303597e-08
3.6990951e-06
1.6850143e-06
-3.7902659e-12
1.6201354e-10
-1.6802793e-11
5.4805588e-10
-4.2136672e-11
1.0526161e-09
-8.3756225e-11
1.7039067e-09
-1.4671756e-10
2.5357711e-09
-2.3744785e-10
3.5884646e-09
-3.6409001e-10
4.9093921e-09
-5.3692124e-10
6.5537181e-09
-7.6886216e-10
8.584723e-09
-1.0760708e-09
1.1073735e-08
-1.4786414e-09
1.4099412e-08
-2.0013839e-09
1.7746109e-08
-2.6746653e-09
2.2101003e-08
-3.5352525e-09
2.724969e-08
-4.6270609e-09
3.3269986e-08
-6.0016389e-09
4.022388e-08
-7.7181761e-09
4.8147913e-08
-9.8426848e-09
5.7042775e-08
-1.2446003e-08
6.6863711e-08
-1.5600166e-08
7.7514153e-08
-1.937283e-08
8.8845901e-08
-2.3819631e-08
1.0066959e-07
-2.897478e-08
1.1277887e-07
-3.4840864e-08
1.2499003e-07
-4.1379417e-08
1.3719607e-07
-4.8504428e-08
1.4943024e-07
-5.6080962e-08
1.6193066e-07
-6.3930589e-08
1.7519599e-07
-7.1844264e-08
1.9002253e-07
-7.9601884e-08
2.0751763e-07
-8.6996581e-08
2.2908858e-07
-9.3860978e-08
2.5641244e-07
-1.0009212e-07
2.9139563e-07
-1.0567123e-07
3.3613595e-07
-1.1067428e-07
3.9290199e-07
-1.1526967e-07
4.6414758e-07
-1.1970161e-07
5.5257708e-07
-1.2426167e-07
6.6127786e-07
-1.2925595e-07
7.9390092e-07
-1.3498264e-07
9.5492208e-07
-1.4172662e-07
1.1498297e-06
-1.4979582e-07
1.3856011e-06
-1.596295e-07
1.6708321e-06
-1.7188919e-07
2.01771e-06
-1.8710378e-07
2.4418044e-06
-2.0211962e-07
2.9597218e-06
-2.0234902e-07
3.5376324e-06
-1.5801345e-07
3.9582026e-06
-6.1723155e-08
3.6028048e-06
1.6232911e-06
-3.5845421e-12
1.6559805e-10
-1.5892095e-11
5.603634e-10
-3.9856394e-11
1.0765804e-09
-7.9232329e-11
1.7432829e-09
-1.3881225e-10
2.595351e-09
-2.2469167e-10
3.6743437e-09
-3.4459826e-10
5.029299e-09
-5.0829666e-10
6.7174167e-09
-7.2807266e-10
8.8044986e-09
-1.0193095e-09
1.1364972e-08
-1.4011655e-09
1.4481268e-08
-1.8973331e-09
1.8242276e-08
-2.5368707e-09
2.2740541e-08
-3.3550534e-09
2.8067872e-08
-4.3941448e-09
3.4309077e-08
-5.7039613e-09
4.1533697e-08
-7.3420022e-09
4.9785954e-08
-9.3728479e-09
5.9073621e-08
-1.1866457e-08
6.9357321e-08
-1.4894952e-08
8.0542646e-08
-1.8527509e-08
9.247846e-08
-2.2823225e-08
1.0496531e-07
-2.7822104e-08
1.1777775e-07
-3.3534998e-08
1.3070293e-07
-3.9933912e-08
1.4359499e-07
-4.6944703e-08
1.5644103e-07
-5.4444324e-08
1.6943028e-07
-6.2264443e-08
1.830161e-07
-7.0202303e-08
1.9796039e-07
-7.8038346e-08
2.1535368e-07
-8.5559042e-08
2.3660929e-07
-9.2582323e-08
2.6343573e-07
-9.8982667e-08
2.9779595e-07
-1.0471215e-07
3.4186545e-07
-1.0981425e-07
3.9800409e-07
-1.1442579e-07
4.6875912e-07
-1.187651e-07
5.5691634e-07
-1.2310692e-07
6.656197e-07
-1.2775092e-07
7.985449e-07
-1.3299412e-07
9.6016528e-07
-1.3912784e-07
1.1559634e-06
-1.4646129e-07
1.3929345e-06
-1.5544102e-07
1.6798118e-06
-1.6662126e-07
2.0288904e-06
-1.8014166e-07
2.4553248e-06
-1.9198626e-07
2.9715663e-06
-1.8768769e-07
3.5333338e-06
-1.4151326e-07
3.9120282e-06
-5.2467701e-08
3.5137593e-06
1.5708234e-06
-3.4024388e-12
1.690005e-10
-1.5085941e-11
5.7204713e-10
-3.7838538e-11
1.0993331e-09
-7.5229823e-11
1.7806744e-09
-1.3181832e-10
2.6519396e-09
-2.1340635e-10
3.7559316e-09
-3.2735582e-10
5.1432483e-09
-4.8297529e-10
6.8730362e-09
-6.9198776e-10
9.0135113e-09
-9.6909024e-10
1.1642074e-08
-1.3326059e-09
1.4844783e-08
-1.8052301e-09
1.8714901e-08
-2.4148513e-09
2.3350162e-08
-3.1953962e-09
2.8848417e-08
-4.1876282e-09
3.530131e-08
-5.4397721e-09
4.2785841e-08
-7.0077387e-09
5.1353921e-08
-8.9547127e-09
6.1020593e-08
-1.1349695e-08
7.1752303e-08
-1.4264652e-08
8.3457603e-08
-1.7769839e-08
9.5983645e-08
-2.1927099e-08
1.0912257e-07
-2.6781273e-08
1.2263193e-07
-3.2350316e-08
1.3627197e-07
-3.8615464e-08
1.4986014e-07
-4.5513302e-08
1.6333886e-07
-5.2931869e-08
1.7684885e-07
-6.0712742e-08
1.9079698e-07
-6.866009e-08
2.0590774e-07
-7.6556551e-08
2.2325013e-07
-8.4184563e-08
2.4423729e-07
-9.1350858e-08
2.7060204e-07
-9.7911448e-08
3.0435654e-07
-1.037936e-07
3.4774763e-07
-1.0901173e-07
4.0322223e-07
-1.1367306e-07
4.7342046e-07
-1.1797025e-07
5.6121354e-07
-1.2216023e-07
6.698097e-07
-1.2653507e-07
8.0291973e-07
-1.3139175e-07
9.6502198e-07
-1.3703056e-07
1.1616022e-06
-1.4376713e-07
1.3996711e-06
-1.5204484e-07
1.6880895e-06
-1.6230027e-07
2.0391458e-06
-1.7428041e-07
2.4673049e-06
-1.8332026e-07
2.9806062e-06
-1.7532988e-07
3.5253434e-06
-1.2824e-07
3.8649383e-06
-4.564969e-08
3.431169e-06
1.5251737e-06
-3.2412888e-12
1.7224178e-10
-1.4372671e-11
5.8317849e-10
-3.6051944e-11
1.1210124e-09
-7.1684975e-11
1.8163073e-09
-1.2562181e-10
2.7058767e-09
-2.0340407e-10
3.833714e-09
-3.1206735e-10
5.2519117e-09
-4.6051372e-10
7.0214828e-09
-6.5996454e-10
9.2129623e-09
-9.2450103e-10
1.190661e-08
-1.2716973e-09
1.519198e-08
-1.7233537e-09
1.9166557e-08
-2.3062998e-09
2.3933108e-08
-3.0532386e-09
2.9595357e-08
-4.0035676e-09
3.625164e-08
-5.204035e-09
4.3986308e-08
-6.7090666e-09
5.2858953e-08
-8.5804897e-09
6.2892017e-08
-1.0886318e-08
7.4058131e-08
-1.3698188e-08
8.6269474e-08
-1.7087083e-08
9.937254e-08
-2.1117054e-08
1.1315254e-07
-2.5836998e-08
1.2735187e-07
-3.1271031e-08
1.41706e-07
-3.7408569e-08
1.5599767e-07
-4.4195924e-08
1.7012621e-07
-5.1531491e-08
1.8418441e-07
-5.9266466e-08
1.9853196e-07
-6.7212314e-08
2.1385359e-07
-7.5155006e-08
2.3119283e-07
-8.2874991e-08
2.5195728e-07
-9.0170729e-08
2.7789778e-07
-9.6883204e-08
3.1106903e-07
-1.0291856e-07
3.5378299e-07
-1.0826551e-07
4.0856916e-07
-1.1300394e-07
4.7815889e-07
-1.173017e-07
5.6551131e-07
-1.2139737e-07
6.7390536e-07
-1.2557426e-07
8.070966e-07
-1.3012978e-07
9.6957751e-07
-1.3537333e-07
1.1668457e-06
-1.4162914e-07
1.4059269e-06
-1.4932503e-07
1.6957854e-06
-1.587727e-07
2.0485935e-06
-1.6933947e-07
2.4778717e-06
-1.7589049e-07
2.9871573e-06
-1.6487588e-07
3.5143287e-06
-1.1748495e-07
3.8175473e-06
-4.0583248e-08
3.3542672e-06
1.4845904e-06
-3.0966826e-12
1.7533845e-10
-1.3732288e-11
5.9381417e-10
-3.4448521e-11
1.1417286e-09
-6.8502966e-11
1.8503619e-09
-1.200601e-10
2.7574337e-09
-1.9442642e-10
3.9080803e-09
-2.9834425e-10
5.3558292e-09
-4.4034969e-10
7.1634886e-09
-6.3121183e-10
9.4038251e-09
-8.8445703e-10
1.2159855e-08
-1.2169849e-09
1.5524507e-08
-1.6497814e-09
1.9599354e-08
-2.2087165e-09
2.4492043e-08
-2.9253817e-09
3.0312021e-08
-3.8379151e-09
3.7164173e-08
-4.9917038e-09
4.5140097e-08
-6.4397788e-09
5.4307028e-08
-8.2426688e-09
6.4694907e-08
-1.0467378e-08
7.628284e-08
-1.3185101e-08
8.8987197e-08
-1.6467287e-08
1.0265472e-07
-2.0379753e-08
1.1706501e-07
-2.497484e-08
1.3194696e-07
-3.0282006e-08
1.4701318e-07
-3.6297961e-08
1.6201363e-07
-4.2977869e-08
1.7680612e-07
-5.0229763e-08
1.9143631e-07
-5.7914115e-08
2.062163e-07
-6.5849838e-08
2.2178931e-07
-7.3827095e-08
2.3917008e-07
-8.1625922e-08
2.597561e-07
-8.9038752e-08
2.8531062e-07
-9.5894496e-08
3.1792478e-07
-1.0208134e-07
3.5996986e-07
-1.0756544e-07
4.1405325e-07
-1.1240176e-07
4.829952e-07
-1.1673441e-07
5.69844e-07
-1.2078357e-07
6.7795449e-07
-1.2482267e-07
8.1113568e-07
-1.2914924e-07
9.7390408e-07
-1.3408042e-07
1.1717769e-06
-1.3994822e-07
1.4117947e-06
-1.471535e-07
1.7029906e-06
-1.5587752e-07
2.0573175e-06
-1.6513323e-07
2.4871274e-06
-1.6946143e-07
2.9914855e-06
-1.559528e-07
3.5008202e-06
-1.0866606e-07
3.7702606e-06
-3.6759358e-08
3.2823604e-06
1.447831e-06
-2.966234e-12
1.7830464e-10
-1.3154419e-11
6.0400259e-10
-3.3001361e-11
1.1615756e-09
-6.5631669e-11
1.882992e-09
-1.1504014e-10
2.8068424e-09
-1.8632192e-10
3.9793622e-09
-2.8595372e-10
5.4554607e-09
-4.2214021e-10
7.2996755e-09
-6.0524161e-10
9.5869262e-09
-8.4827773e-10
1.2402892e-08
-1.1675361e-09
1.5843765e-08
-1.5832636e-09
2.0015082e-08
-2.1204502e-09
2.5029231e-08
-2.8096681e-09
3.1001239e-08
-3.6878971e-09
3.8042402e-08
-4.7992603e-09
4.625146e-08
-6.1954826e-09
5.5703248e-08
-7.9358453e-09
6.643527e-08
-1.0086347e-08
7.8433342e-08
-1.2717654e-08
9.1618505e-08
-1.590148e-08
1.0583855e-07
-1.9705059e-08
1.2086859e-07
-2.418365e-08
1.3642555e-07
-2.9371414e-08
1.5220094e-07
-3.5271553e-08
1.6791377e-07
-4.1847298e-08
1.8338186e-07
-4.9015668e-08
1.9860468e-07
-5.6645986e-08
2.1384663e-07
-6.4564674e-08
2.2970799e-07
-7.2566658e-08
2.4717206e-07
-8.0432714e-08
2.6762215e-07
-8.79511e-08
2.9282901e-07
-9.4941048e-08
3.2491473e-07
-1.0127558e-07
3.6630439e-07
-1.0690098e-07
4.1967864e-07
-1.1184963e-07
4.8794386e-07
-1.1624337e-07
5.7423774e-07
-1.2028402e-07
6.8199511e-07
-1.2423434e-07
8.15086e-07
-1.2839094e-07
9.7806071e-07
-1.3307662e-07
1.1764626e-06
-1.3862806e-07
1.4173462e-06
-1.4540916e-07
1.7097717e-06
-1.534673e-07
2.0653757e-06
-1.614943e-07
2.4951544e-06
-1.638229e-07
2.9938141e-06
-1.4824394e-07
3.4852412e-06
-1.0132704e-07
3.7233437e-06
-3.3808622e-08
3.2148421e-06
1.4140223e-06
-2.8475684e-12
1.811522e-10
-1.2629312e-11
6.1378433e-10
-3.1685942e-11
1.1806322e-09
-6.3020678e-11
1.9143266e-09
-1.1047536e-10
2.8542971e-09
-1.7895139e-10
4.0478384e-09
-2.746835e-10
5.5511928e-09
-4.0557556e-10
7.4305675e-09
-5.8161254e-10
9.7629629e-09
-8.1535448e-10
1.2636634e-08
-1.1225262e-09
1.6150937e-08
-1.5226984e-09
2.0415254e-08
-2.0400567e-09
2.5546588e-08
-2.7042299e-09
3.1665411e-08
-3.5511295e-09
3.8889302e-08
-4.6237016e-09
4.7324032e-08
-5.9724382e-09
5.7051984e-08
-7.6554368e-09
6.8118268e-08
-9.7376982e-09
8.0515602e-08
-1.2289303e-08
9.4170108e-08
-1.5382068e-08
1.0893132e-07
-1.908436e-08
1.2457088e-07
-2.3453939e-08
1.4079513e-07
-2.8529077e-08
1.5727607e-07
-3.4318813e-08
1.7370351e-07
-4.0793746e-08
1.898568e-07
-4.787924e-08
2.0569017e-07
-5.5453085e-08
2.2142047e-07
-6.3349104e-08
2.3760401e-07
-7.1367343e-08
2.5519029e-07
-7.9290248e-08
2.7554506e-07
-8.6903336e-08
3.004421e-07
-9.4018101e-08
3.320295e-07
-1.0049474e-07
3.7278102e-07
-1.0626215e-07
4.2544606e-07
-1.1133232e-07
4.9301404e-07
-1.1580617e-07
5.787116e-07
-1.1986764e-07
6.8605661e-07
-1.2376812e-07
8.1898651e-07
-1.2780193e-07
9.8209451e-07
-1.3229482e-07
1.1809554e-06
-1.3758339e-07
1.4226348e-06
-1.4398676e-07
1.7161751e-06
-1.5141719e-07
2.0728061e-06
-1.5828247e-07
2.5020197e-06
-1.5880005e-07
2.9943316e-06
-1.4149228e-07
3.4679335e-06
-9.5118221e-08
3.6769697e-06
-3.1467885e-08
3.1511917e-06
1.3825544e-06
-2.7392205e-12
1.8389133e-10
-1.2148999e-11
6.2319432e-10
-3.0482916e-11
1.1989663e-09
-6.0632966e-11
1.9444768e-09
-1.0630085e-10
2.8999651e-09
-1.7221101e-10
4.1137488e-09
-2.6437639e-10
5.6433581e-09
-3.9042398e-10
7.5566151e-09
-5.5999578e-10
9.9325345e-09
-7.8522969e-10
1.2861868e-08
-1.0813335e-09
1.6447042e-08
-1.4672552e-09
2.0801176e-08
-1.9664356e-09
2.6045769e-08
-2.6076352e-09
3.2306611e-08
-3.4257705e-09
3.9707438e-08
-4.4626889e-09
4.8360949e-08
-5.7677217e-09
5.8357019e-08
-7.3978356e-09
6.9748381e-08
-9.4170506e-09
8.2534817e-08
-1.1894824e-08
9.6647879e-08
-1.490295e-08
1.1193944e-07
-1.8510699e-08
1.2817863e-07
-2.2777961e-08
1.4506239e-07
-2.7746647e-08
1.6224476e-07
-3.3431043e-08
1.793879e-07
-3.9808477e-08
1.9623424e-07
-4.681209e-08
2.1269379e-07
-5.4327709e-08
2.2893608e-07
-6.2196401e-08
2.454727e-07
-7.0223561e-08
2.6321745e-07
-7.8193983e-08
2.8351547e-07
-8.5891561e-08
3.0813969e-07
-9.3121661e-08
3.392596e-07
-9.9733604e-08
3.7939297e-07
-1.0564108e-07
4.3135352e-07
-1.1083765e-07
4.982106e-07
-1.1540479e-07
5.8327872e-07
-1.1950912e-07
6.9016097e-07
-1.2339011e-07
8.2286751e-07
-1.27338e-07
9.8604243e-07
-1.3167859e-07
1.185296e-06
-1.3674313e-07
1.4276993e-06
-1.4279975e-07
1.7222317e-06
-1.496265e-07
2.0796328e-06
-1.5538606e-07
2.5077792e-06
-1.5425455e-07
2.9932002e-06
-1.3549703e-07
3.449176e-06
-8.9777645e-08
3.6312503e-06
-2.9553962e-08
3.0909681e-06
1.3530005e-06
-2.6394916e-12
1.8653082e-10
-1.1707944e-11
6.3226267e-10
-2.9378112e-11
1.2166363e-09
-5.8439581e-11
1.9735384e-09
-1.0246548e-10
2.9439907e-09
-1.6601694e-10
4.1773003e-09
-2.5490299e-10
5.732244e-09
-3.7649545e-10
7.6782079e-09
-5.4012048e-10
1.009616e-08
-7.5752635e-10
1.3079273e-08
-1.043444e-09
1.673296e-08
-1.4162438e-09
2.1173976e-08
-1.8986786e-09
2.6528204e-08
-2.5187018e-09
3.2926633e-08
-3.3103021e-09
4.0499038e-08
-4.3142974e-09
4.9364945e-08
-5.5789285e-09
5.962165e-08
-7.1600736e-09
7.1329525e-08
-9.1207979e-09
8.4495542e-08
-1.1529905e-08
9.9056986e-08
-1.445908e-08
1.1486862e-07
-1.7978288e-08
1.3169784e-07
-2.2149256e-08
1.4923336e-07