/*--------------------------------*- C++ -*----------------------------------*\
| =========                 |                                                 |
| \\      /  F ield         | OpenFOAM: The Open Source CFD Toolbox           |
|  \\    /   O peration     | Version:  4.0                                   |
|   \\  /    A nd           | Web:      www.OpenFOAM.org                      |
|    \\/     M anipulation  |                                                 |
\*---------------------------------------------------------------------------*/
FoamFile
{
    version     2.0;
    format      ascii;
    class       volScalarField;
    location    "859";
    object      Qr;
}
// * * * * * * * * * * * * * * * * * * * * * * * * * * * * * * * * * * * * * //

dimensions      [1 0 -3 0 0 0 0];

internalField   uniform 0;

boundaryField
{
    LeftWedge
    {
        type            wedge;
    }
    RightWedge
    {
        type            wedge;
    }
    Inlet
    {
        type            calculated;
        value           nonuniform List<scalar> 
50
(
6.1383341
6.1383344
6.138335
6.1383359
6.1383371
6.1383385
6.1383401
6.1383418
6.1383436
6.1383454
6.1383471
6.1383486
6.1383499
6.1383508
6.1383515
6.1383519
6.138352
6.138352
6.1383517
6.1383513
6.1383509
6.1383505
6.1383501
6.1383497
6.1383494
6.1383492
6.138349
6.1383488
6.1383487
6.1383486
6.1383486
6.1383485
6.1383484
6.1383483
6.1383483
6.1383482
6.1383481
6.138348
6.1383479
6.1383478
6.1383477
6.1383476
6.1383475
6.1383474
6.1383472
6.138347
6.1383468
6.1383464
6.1383462
6.1383438
)
;
    }
    Outlet
    {
        type            calculated;
        value           nonuniform List<scalar> 
50
(
-199.37866
-195.69225
-191.7705
-187.60754
-183.19846
-178.53924
-173.62687
-168.4593
-163.03552
-157.35556
-151.42065
-145.23344
-138.79842
-132.12242
-125.21541
-118.09133
-110.76904
-103.27317
-95.634865
-87.892257
-80.090701
-72.282807
-64.528293
-56.893616
-49.451194
-42.277966
-35.453014
-29.05406
-23.152906
-17.810184
-13.070126
-8.9562322
-5.4687577
-2.5846635
-0.2600942
1.5647925
2.9596359
3.9975341
4.7494067
5.2797531
5.6440721
5.8878413
6.0467204
6.1475586
6.2098111
6.2470552
6.2684076
6.2797543
6.2848024
6.2860725
)
;
    }
    Outterwall
    {
        type            calculated;
        value           nonuniform List<scalar> 
100
(
6.1391941
6.1408693
6.1425433
6.1442217
6.145901
6.1475826
6.1492651
6.1509475
6.1526299
6.1543121
6.1559939
6.1576755
6.1593569
6.1610382
6.1627194
6.1644004
6.1660815
6.1677625
6.1694435
6.1711245
6.1728055
6.1744865
6.1761675
6.1778485
6.1795295
6.1812104
6.1828913
6.1845722
6.1862529
6.1879336
6.1896142
6.1912946
6.1929748
6.1946547
6.1963344
6.1980136
6.1996924
6.2013705
6.203048
6.2047247
6.2064005
6.2080751
6.2097484
6.2114202
6.2130904
6.2147585
6.2164245
6.218088
6.2197487
6.2214063
6.2230605
6.2247108
6.2263569
6.2279983
6.2296347
6.2312655
6.2328903
6.2345085
6.2361196
6.2377231
6.2393183
6.2409046
6.2424814
6.244048
6.2456037
6.2471478
6.2486796
6.2501983
6.2517031
6.2531933
6.2546679
6.2561261
6.257567
6.2589898
6.2603934
6.2617769
6.2631394
6.2644798
6.2657971
6.2670902
6.2683581
6.2695996
6.2708136
6.271999
6.2731545
6.274279
6.2753712
6.2764298
6.2774535
6.2784411
6.279391
6.280302
6.2811725
6.2820011
6.2827861
6.2835259
6.2842186
6.2848619
6.2854549
6.2860741
)
;
    }
    fluid_to_cencil
    {
        type            calculated;
        value           nonuniform List<scalar> 
100
(
-111.59884
-141.55825
-149.44354
-153.48867
-156.34398
-158.55902
-160.36867
-161.88542
-163.18914
-164.32816
-165.33832
-166.24413
-167.06427
-167.81266
-168.50024
-169.1356
-169.72571
-170.27625
-170.79191
-171.27661
-171.73369
-172.16595
-172.57582
-172.9654
-173.33649
-173.6907
-174.0294
-174.35384
-174.66511
-174.96419
-175.25194
-175.52916
-175.79654
-176.05473
-176.30431
-176.5458
-176.77969
-177.00641
-177.22638
-177.43996
-177.64749
-177.84929
-178.04566
-178.23685
-178.42314
-178.60474
-178.78189
-178.95477
-179.12358
-179.28851
-179.44971
-179.60734
-179.76155
-179.91248
-180.06026
-180.205
-180.34684
-180.48587
-180.6222
-180.75593
-180.88716
-181.01596
-181.14242
-181.26663
-181.38866
-181.50857
-181.62645
-181.74235
-181.85634
-181.96847
-182.07881
-182.18741
-182.29432
-182.39959
-182.50326
-182.60539
-182.70601
-182.80518
-182.90292
-182.99928
-183.0943
-183.18801
-183.28044
-183.37164
-183.46162
-183.55043
-183.63808
-183.72462
-183.81006
-183.89445
-183.9778
-184.06017
-184.1416
-184.22231
-184.30229
-184.38428
-184.46376
-184.5926
-184.62347
-185.71987
)
;
    }
}


// ************************************************************************* //
