/*--------------------------------*- C++ -*----------------------------------*\
| =========                 |                                                 |
| \\      /  F ield         | OpenFOAM: The Open Source CFD Toolbox           |
|  \\    /   O peration     | Version:  4.0                                   |
|   \\  /    A nd           | Web:      www.OpenFOAM.org                      |
|    \\/     M anipulation  |                                                 |
\*---------------------------------------------------------------------------*/
FoamFile
{
    version     2.0;
    format      ascii;
    class       volScalarField;
    location    "859";
    object      rho;
}
// * * * * * * * * * * * * * * * * * * * * * * * * * * * * * * * * * * * * * //

dimensions      [1 -3 0 0 0 0 0];

internalField   nonuniform List<scalar> 
5000
(
1.1612511
1.1633068
1.1654926
1.1678002
1.1702165
1.1727233
1.1752973
1.1779098
1.1805271
1.183112
1.185625
1.1880259
1.1902769
1.1923443
1.1942012
1.1958293
1.1972202
1.1983755
1.1993063
1.2000319
1.2005773
1.200971
1.2012427
1.2014206
1.2015302
1.2015929
1.2016255
1.2016404
1.2016459
1.2016472
1.2016469
1.2016463
1.2016459
1.2016457
1.2016456
1.2016455
1.2016455
1.2016455
1.2016455
1.2016455
1.2016455
1.2016455
1.2016455
1.2016455
1.2016455
1.2016455
1.2016455
1.2016455
1.2016455
1.2016455
1.1515325
1.1531511
1.1548854
1.1567414
1.158724
1.1608373
1.163083
1.1654601
1.1679631
1.1705814
1.1732975
1.1760861
1.1789139
1.1817393
1.1845145
1.1871872
1.1897045
1.1920174
1.1940851
1.195879
1.1973856
1.1986072
1.1995607
1.200275
1.2007866
1.2011354
1.2013605
1.2014969
1.201574
1.201614
1.2016328
1.2016406
1.2016433
1.201644
1.2016441
1.2016441
1.201644
1.201644
1.201644
1.201644
1.201644
1.201644
1.201644
1.201644
1.201644
1.201644
1.201644
1.201644
1.201644
1.201644
1.1490393
1.150544
1.1521544
1.1538746
1.1557082
1.1576582
1.1597266
1.1619142
1.1642199
1.1666402
1.169168
1.1717918
1.1744945
1.1772521
1.1800331
1.1827985
1.1855023
1.1880945
1.190524
1.1927434
1.1947139
1.1964095
1.1978199
1.1989506
1.1998219
1.2004651
1.2009182
1.2012214
1.2014128
1.2015261
1.2015884
1.2016197
1.201634
1.2016398
1.2016418
1.2016424
1.2016425
1.2016425
1.2016425
1.2016425
1.2016425
1.2016425
1.2016425
1.2016425
1.2016425
1.2016425
1.2016425
1.2016425
1.2016425
1.2016425
1.1477692
1.1492163
1.1507647
1.1524182
1.15418
1.1560528
1.1580383
1.1601372
1.1623485
1.1646695
1.1670948
1.1696158
1.1722202
1.1748905
1.1776038
1.1803307
1.1830356
1.1856767
1.1882083
1.1905835
1.1927581
1.1946951
1.1963689
1.1977681
1.1988963
1.1997714
1.2004222
1.2008845
1.2011966
1.2013958
1.201515
1.2015814
1.2016154
1.2016312
1.2016377
1.2016401
1.2016408
1.201641
1.201641
1.201641
1.201641
1.201641
1.201641
1.201641
1.201641
1.201641
1.201641
1.201641
1.201641
1.201641
1.1468763
1.1482829
1.1497879
1.1513948
1.1531071
1.1549272
1.1568569
1.1588972
1.1610474
1.1633052
1.1656663
1.1681234
1.1706661
1.1732797
1.1759449
1.1786371
1.1813258
1.1839753
1.1865449
1.1889913
1.1912711
1.1933446
1.1951799
1.1967562
1.1980662
1.1991169
1.1999277
1.2005278
1.2009522
1.2012375
1.2014187
1.2015267
1.2015865
1.2016169
1.2016309
1.2016366
1.2016387
1.2016393
1.2016395
1.2016395
1.2016395
1.2016395
1.2016395
1.2016395
1.2016395
1.2016395
1.2016395
1.2016395
1.2016395
1.2016395
1.1461855
1.1475609
1.1490323
1.1506035
1.1522775
1.1540571
1.1559442
1.1579397
1.1600435
1.1622537
1.1645668
1.1669766
1.1694738
1.1720458
1.1746755
1.177341
1.1800151
1.1826656
1.1852554
1.1877439
1.1900894
1.1922517
1.1941964
1.1958975
1.1973409
1.1985259
1.1994646
1.2001798
1.2007025
1.2010673
1.2013091
1.2014604
1.201549
1.2015971
1.201621
1.2016317
1.201636
1.2016375
1.2016379
1.201638
1.201638
1.201638
1.201638
1.201638
1.201638
1.201638
1.201638
1.201638
1.201638
1.201638
1.1456224
1.1469722
1.1484164
1.1499583
1.1516013
1.1533479
1.1552001
1.1571592
1.1592251
1.1613966
1.1636705
1.1660414
1.1685014
1.1710389
1.1736389
1.1762814
1.1789417
1.1815901
1.184192
1.1867091
1.1891011
1.1913281
1.1933541
1.1951502
1.1966977
1.1979902
1.1990341
1.199847
1.2004558
1.2008926
1.2011916
1.2013858
1.2015045
1.2015723
1.2016079
1.2016251
1.2016325
1.2016353
1.2016362
1.2016365
1.2016365
1.2016365
1.2016365
1.2016365
1.2016365
1.2016365
1.2016365
1.2016365
1.2016365
1.2016365
1.1451511
1.1464797
1.147901
1.1494185
1.1510355
1.1527545
1.1545776
1.1565062
1.1585404
1.1606792
1.16292
1.165258
1.1676862
1.1701941
1.1727679
1.1753895
1.178036
1.1806799
1.1832886
1.1858257
1.1882521
1.1905285
1.192618
1.1944897
1.1961215
1.1975029
1.1986354
1.1995324
1.2002169
1.2007188
1.201071
1.2013062
1.201455
1.2015433
1.2015921
1.2016167
1.2016281
1.2016327
1.2016344
1.2016349
1.201635
1.201635
1.201635
1.201635
1.201635
1.201635
1.201635
1.201635
1.201635
1.201635
1.1447465
1.1460568
1.1474586
1.1489552
1.1505498
1.1522452
1.1540433
1.1559456
1.1579524
1.1600631
1.1622752
1.1645847
1.1669849
1.1694666
1.1720169
1.1746192
1.1772521
1.1798899
1.1825017
1.1850529
1.1875055
1.1898209
1.1919617
1.1938955
1.1955979
1.1970547
1.1982636
1.1992343
1.1999865
1.2005476
1.2009491
1.2012236
1.2014019
1.2015111
1.2015736
1.2016067
1.2016227
1.2016297
1.2016323
1.2016332
1.2016335
1.2016335
1.2016335
1.2016335
1.2016335
1.2016335
1.2016335
1.2016335
1.2016335
1.2016335
1.1443934
1.1456878
1.1470724
1.1485508
1.150126
1.1518006
1.1535769
1.1554563
1.1574393
1.1595252
1.1617122
1.1639964
1.1663719
1.16883
1.171359
1.1739433
1.1765629
1.1791935
1.181806
1.184367
1.1868398
1.1891864
1.1913694
1.1933553
1.1951177
1.1966395
1.1979154
1.1989516
1.1997648
1.20038
1.2008275
1.2011392
1.2013461
1.2014762
1.201553
1.2015952
1.2016164
1.2016261
1.2016301
1.2016315
1.2016319
1.201632
1.201632
1.201632
1.201632
1.201632
1.201632
1.201632
1.201632
1.201632
1.1440804
1.1453607
1.1467303
1.1481925
1.1497504
1.1514068
1.1531637
1.1550227
1.1569845
1.1590485
1.161213
1.1634746
1.1658279
1.1682647
1.1707742
1.1733416
1.1759483
1.1785712
1.1811825
1.1837502
1.1862389
1.1886109
1.1908292
1.1928594
1.1946736
1.1962524
1.1975877
1.1986826
1.1995513
1.2002165
1.2007069
1.2010539
1.2012885
1.2014392
1.2015305
1.2015822
1.2016092
1.2016221
1.2016276
1.2016296
1.2016303
1.2016305
1.2016305
1.2016305
1.2016305
1.2016305
1.2016305
1.2016305
1.2016305
1.2016305
1.1437999
1.1450676
1.1464236
1.1478714
1.1494139
1.1510538
1.1527935
1.1546342
1.1565769
1.1586212
1.1607655
1.1630067
1.1653398
1.1677572
1.1702486
1.1728003
1.1753946
1.1780094
1.1806183
1.1831905
1.1856916
1.1880846
1.1903326
1.192401
1.1942604
1.1958897
1.1972781
1.1984262
1.1993456
1.2000571
1.2005879
1.2009684
1.2012297
1.2014006
1.2015064
1.2015679
1.2016011
1.2016175
1.2016248
1.2016277
1.2016287
1.201629
1.201629
1.201629
1.201629
1.201629
1.201629
1.201629
1.201629
1.201629
1.1435461
1.1448024
1.1461461
1.1475808
1.1491093
1.1507345
1.1524584
1.1542827
1.1562081
1.1582344
1.1603604
1.162583
1.1648976
1.1672972
1.1697719
1.1723089
1.1748911
1.1774978
1.1801035
1.1826784
1.1851892
1.1875997
1.1898732
1.1919747
1.193874
1.1955482
1.1969845
1.1981812
1.1991474
1.1999019
1.2004706
1.200883
1.20117
1.2013607
1.201481
1.2015525
1.2015921
1.2016123
1.2016217
1.2016256
1.201627
1.2016274
1.2016275
1.2016275
1.2016275
1.2016275
1.2016275
1.2016275
1.2016275
1.2016275
1.1433145
1.1445604
1.145893
1.1473157
1.1488316
1.1504432
1.1521528
1.153962
1.1558716
1.1578816
1.1599908
1.1621964
1.164494
1.1668771
1.1693363
1.1718593
1.1744301
1.1770286
1.1796304
1.1822068
1.1847253
1.1871504
1.1894459
1.1915764
1.1935111
1.1952257
1.1967055
1.1979466
1.1989561
1.1997509
1.2003553
1.2007981
1.2011099
1.20132
1.2014546
1.2015362
1.2015824
1.2016067
1.2016183
1.2016233
1.2016252
1.2016258
1.201626
1.201626
1.201626
1.201626
1.201626
1.201626
1.201626
1.201626
1.1431018
1.1443381
1.1456605
1.1470723
1.1485764
1.1501757
1.1518721
1.1536675
1.1555626
1.1575576
1.1596512
1.1618411
1.164123
1.1664907
1.1689354
1.1714453
1.1740051
1.1765955
1.179193
1.1817699
1.1842944
1.186732
1.1890465
1.1912027
1.193169
1.1949201
1.1964396
1.1977217
1.1987714
1.1996039
1.2002421
1.200714
1.2010497
1.2012785
1.2014273
1.201519
1.201572
1.2016005
1.2016146
1.2016209
1.2016234
1.2016242
1.2016245
1.2016245
1.2016245
1.2016245
1.2016245
1.2016245
1.2016245
1.2016245
1.1429053
1.1441328
1.1454457
1.1468474
1.1483408
1.1499285
1.1516129
1.1533954
1.1552772
1.1572582
1.1593375
1.1615128
1.1637801
1.1661335
1.1685646
1.1710621
1.1736113
1.1761937
1.1787867
1.1813632
1.1838925
1.1863406
1.1886717
1.1908508
1.1928455
1.1946298
1.1961857
1.1975056
1.1985929
1.1994608
1.200131
1.2006307
1.2009894
1.2012366
1.2013993
1.201501
1.201561
1.2015939
1.2016106
1.2016183
1.2016215
1.2016226
1.2016229
1.201623
1.201623
1.201623
1.201623
1.201623
1.201623
1.201623
1.1427228
1.1439421
1.1452462
1.1466385
1.1481219
1.149699
1.1513721
1.1531428
1.1550121
1.1569802
1.1590462
1.1612078
1.1634615
1.1658015
1.1682197
1.1707055
1.1732446
1.1758192
1.1784074
1.180983
1.183516
1.185973
1.1883188
1.1905182
1.1925388
1.1943533
1.1959428
1.1972979
1.1984202
1.1993216
1.2000222
1.2005485
1.2009294
1.2011943
1.2013707
1.2014825
1.2015494
1.2015869
1.2016064
1.2016156
1.2016195
1.2016209
1.2016214
1.2016215
1.2016215
1.2016215
1.2016215
1.2016215
1.2016215
1.2016215
1.1425525
1.1437642
1.1450602
1.1464437
1.1479178
1.149485
1.1511476
1.1529072
1.1547649
1.1567209
1.1587744
1.1609233
1.1631641
1.1654915
1.1678977
1.1703722
1.1729016
1.1754686
1.1780519
1.1806261
1.183162
1.1856266
1.1879854
1.1902031
1.1922471
1.1940894
1.1957099
1.1970977
1.198253
1.199186
1.1999156
1.2004673
1.2008696
1.2011519
1.2013417
1.2014635
1.2015374
1.2015795
1.2016018
1.2016127
1.2016174
1.2016192
1.2016198
1.20162
1.20162
1.20162
1.20162
1.20162
1.20162
1.20162
1.142393
1.1435975
1.1448859
1.1462612
1.1477266
1.1492845
1.1509373
1.1526865
1.1545333
1.156478
1.1585198
1.1606567
1.1628856
1.165201
1.1675957
1.1700597
1.1725797
1.1751392
1.1777176
1.1802901
1.182828
1.1852992
1.1876694
1.1899037
1.1919691
1.193837
1.1954862
1.1969047
1.198091
1.1990539
1.1998112
1.2003873
1.2008103
1.2011095
1.2013124
1.201444
1.2015249
1.2015718
1.2015971
1.2016096
1.2016152
1.2016175
1.2016182
1.2016185
1.2016185
1.2016185
1.2016185
1.2016185
1.2016185
1.2016185
1.142243
1.1434409
1.144722
1.1460897
1.1475468
1.1490961
1.1507396
1.1524791
1.1543157
1.1562497
1.1582804
1.1604062
1.1626236
1.1649278
1.1673116
1.1697655
1.1722766
1.1748288
1.1774022
1.1799726
1.182512
1.1849889
1.1873693
1.1896186
1.1917035
1.1935951
1.1952711
1.1967183
1.1979339
1.1989252
1.1997089
1.2003084
1.2007515
1.201067
1.2012829
1.2014242
1.2015121
1.2015637
1.201592
1.2016064
1.201613
1.2016157
1.2016166
1.201617
1.201617
1.201617
1.201617
1.201617
1.201617
1.201617
1.1421016
1.1432931
1.1445675
1.1459279
1.1473774
1.1489184
1.1505532
1.1522835
1.1541105
1.1560344
1.1580548
1.1601698
1.1623765
1.16467
1.1670435
1.1694877
1.1719902
1.1745353
1.1771037
1.1796718
1.1822122
1.184694
1.1870836
1.1893465
1.1914494
1.1933629
1.1950639
1.1965381
1.1977814
1.1987997
1.1996086
1.2002308
1.2006932
1.2010247
1.2012532
1.201404
1.2014989
1.2015553
1.2015868
1.201603
1.2016106
1.2016138
1.201615
1.2016154
1.2016155
1.2016155
1.2016155
1.2016155
1.2016155
1.2016155
1.1419678
1.1431533
1.1444213
1.1457749
1.1472171
1.1487503
1.1503769
1.1520985
1.1539164
1.1558308
1.1578413
1.1599463
1.1621428
1.1644261
1.1667898
1.1692247
1.1717188
1.1742571
1.1768205
1.1793861
1.1819271
1.1844131
1.1868108
1.1890862
1.1912057
1.1931396
1.1948641
1.1963637
1.1976331
1.1986773
1.1995104
1.2001543
1.2006355
1.2009825
1.2012234
1.2013837
1.2014855
1.2015467
1.2015813
1.2015995
1.2016082
1.201612
1.2016134
1.2016139
1.201614
1.201614
1.2016141
1.2016141
1.2016141
1.2016141
1.1418409
1.1430208
1.1442827
1.1456298
1.1470651
1.1485909
1.1502097
1.1519232
1.1537323
1.1556377
1.1576389
1.1597343
1.161921
1.1641947
1.166549
1.168975
1.1714612
1.1739927
1.1765512
1.1791142
1.1816554
1.1841449
1.1865501
1.1888368
1.1909717
1.1929246
1.194671
1.1961947
1.197489
1.1985577
1.1994141
1.2000789
1.2005783
1.2009405
1.2011935
1.2013631
1.2014718
1.2015379
1.2015757
1.2015958
1.2016057
1.20161
1.2016117
1.2016123
1.2016125
1.2016125
1.2016126
1.2016126
1.2016126
1.2016126
1.1417203
1.1428948
1.144151
1.1454919
1.1469206
1.1484395
1.1500508
1.1517564
1.1535574
1.1554542
1.1574465
1.1595327
1.1617102
1.1639747
1.16632
1.1687374
1.1712159
1.1737409
1.1762945
1.1788547
1.1813959
1.1838885
1.1863003
1.1885974
1.1907466
1.1927172
1.1944843
1.1960307
1.1973487
1.198441
1.1993196
1.2000047
1.2005218
1.2008987
1.2011636
1.2013424
1.2014579
1.2015288
1.2015698
1.201592
1.2016031
1.2016081
1.2016101
1.2016108
1.201611
1.201611
1.2016111
1.2016111
1.2016111
1.2016111
1.1416053
1.1427747
1.1440254
1.1453605
1.1467829
1.1482951
1.1498995
1.1515976
1.1533908
1.1552794
1.1572632
1.1593407
1.1615094
1.163765
1.1661016
1.1685109
1.1709819
1.1735006
1.1760493
1.1786067
1.1811475
1.1836427
1.1860605
1.1883673
1.1905297
1.192517
1.1943036
1.1958715
1.1972121
1.1983268
1.199227
1.1999317
1.2004658
1.2008572
1.2011337
1.2013215
1.2014438
1.2015195
1.2015638
1.2015881
1.2016004
1.201606
1.2016084
1.2016092
1.2016095
1.2016095
1.2016096
1.2016096
1.2016096
1.2016096
1.1414956
1.1426601
1.1439055
1.145235
1.1466515
1.1481574
1.149755
1.151446
1.1532317
1.1551125
1.1570882
1.1591574
1.1613176
1.1635648
1.1658931
1.1682945
1.1707583
1.1732707
1.1758147
1.1783692
1.1809094
1.1834069
1.1858301
1.1881457
1.1903205
1.1923234
1.1941284
1.1957168
1.1970789
1.1982152
1.199136
1.1998597
1.2004105
1.2008159
1.2011038
1.2013006
1.2014295
1.2015101
1.2015577
1.2015841
1.2015976
1.201604
1.2016066
1.2016076
1.2016079
1.201608
1.2016081
1.2016081
1.2016081
1.2016081
1.1413906
1.1425504
1.1437909
1.145115
1.1465258
1.1480256
1.1496168
1.151301
1.1530795
1.1549529
1.1569208
1.158982
1.1611342
1.1633732
1.1656936
1.1680874
1.1705442
1.1730506
1.1755898
1.1781414
1.1806809
1.1831802
1.1856083
1.1879321
1.1901184
1.192136
1.1939585
1.1955663
1.196949
1.198106
1.1990468
1.1997888
1.2003558
1.2007749
1.201074
1.2012796
1.2014151
1.2015004
1.2015514
1.2015799
1.2015948
1.2016018
1.2016049
1.201606
1.2016064
1.2016065
1.2016066
1.2016066
1.2016066
1.2016066
1.1412899
1.1424454
1.143681
1.1450001
1.1464053
1.1478993
1.1494843
1.1511621
1.1529338
1.1548
1.1567605
1.158814
1.1609584
1.1631897
1.1655023
1.1678888
1.1703388
1.1728394
1.175374
1.1779225
1.1804611
1.182962
1.1853946
1.1877259
1.189923
1.1919545
1.1937935
1.1954198
1.1968221
1.1979991
1.1989591
1.1997189
1.2003016
1.2007342
1.2010443
1.2012585
1.2014006
1.2014907
1.2015449
1.2015756
1.2015918
1.2015997
1.2016031
1.2016044
1.2016049
1.201605
1.2016051
1.2016051
1.2016051
1.2016051
1.1411934
1.1423445
1.1435756
1.1448897
1.1462897
1.1477782
1.1493573
1.1510288
1.1527939
1.1546532
1.1566066
1.1586528
1.1607897
1.1630135
1.1653188
1.1676981
1.1701416
1.1726364
1.1751664
1.177712
1.1802495
1.1827517
1.1851883
1.1875267
1.1897339
1.1917784
1.193633
1.195277
1.1966983
1.1978944
1.198873
1.19965
1.2002481
1.2006938
1.2010146
1.2012374
1.201386
1.2014808
1.2015384
1.2015713
1.2015888
1.2015975
1.2016013
1.2016028
1.2016034
1.2016035
1.2016036
1.2016036
1.2016036
1.2016036
1.1411006
1.1422476
1.1434742
1.1447837
1.1461786
1.1476618
1.1492352
1.1509007
1.1526595
1.1545122
1.1564587
1.1584979
1.1606276
1.1628441
1.1651423
1.1675147
1.1699519
1.1724411
1.1749666
1.1775091
1.1800454
1.1825487
1.184989
1.1873339
1.1895505
1.1916075
1.193477
1.1951378
1.1965772
1.1977918
1.1987883
1.1995821
1.2001952
1.2006537
1.2009851
1.2012162
1.2013713
1.2014708
1.2015317
1.2015668
1.2015858
1.2015952
1.2015995
1.2016012
1.2016018
1.201602
1.201602
1.2016021
1.2016021
1.2016021
1.1410112
1.1421543
1.1433767
1.1446816
1.1460717
1.1475497
1.1491177
1.1507774
1.1525301
1.1543765
1.1563164
1.1583488
1.1604715
1.1626811
1.1649723
1.1673382
1.1697691
1.1722529
1.174774
1.1773134
1.1798485
1.1823526
1.1847962
1.1871472
1.1893727
1.1914414
1.1933251
1.1950021
1.1964588
1.1976912
1.1987051
1.1995152
1.2001428
1.2006138
1.2009557
1.2011951
1.2013565
1.2014607
1.2015249
1.2015623
1.2015826
1.2015929
1.2015976
1.2015996
1.2016003
1.2016005
1.2016005
1.2016006
1.2016006
1.2016006
1.1409251
1.1420643
1.1432827
1.1445832
1.1459687
1.1474417
1.1490044
1.1506586
1.1524055
1.1542457
1.1561793
1.1582051
1.1603211
1.162524
1.1648086
1.167168
1.1695929
1.1720713
1.1745881
1.1771245
1.1796581
1.1821629
1.1846095
1.1869661
1.1892001
1.1912798
1.193177
1.1948695
1.1963429
1.1975925
1.1986233
1.1994492
1.200091
1.2005743
1.2009264
1.201174
1.2013416
1.2014505
1.201518
1.2015576
1.2015794
1.2015906
1.2015957
1.2015979
1.2015987
1.201599
1.201599
1.2015991
1.2015991
1.2015991
1.140842
1.1419776
1.143192
1.1444883
1.1458693
1.1473375
1.1488951
1.150544
1.1522852
1.1541196
1.156047
1.1580665
1.160176
1.1623723
1.1646505
1.1670037
1.1694228
1.171896
1.1744085
1.1769418
1.179474
1.1819793
1.1844286
1.1867905
1.1890324
1.1911226
1.1930327
1.19474
1.1962295
1.1974957
1.1985428
1.1993841
1.2000398
1.2005351
1.2008972
1.2011528
1.2013267
1.2014402
1.201511
1.2015529
1.2015762
1.2015882
1.2015938
1.2015962
1.2015972
1.2015975
1.2015975
1.2015976
1.2015976
1.2015976
1.1407617
1.1418937
1.1431043
1.1443966
1.1457733
1.1472369
1.1487896
1.1504333
1.1521691
1.1539977
1.1559192
1.1579326
1.1600359
1.1622259
1.1644978
1.1668449
1.1692583
1.1717265
1.1742347
1.176765
1.1792957
1.1818013
1.1842531
1.1866199
1.1888693
1.1909695
1.1928919
1.1946134
1.1961184
1.1974006
1.1984636
1.1993198
1.1999891
1.2004962
1.2008682
1.2011317
1.2013117
1.2014299
1.201504
1.2015481
1.2015728
1.2015857
1.2015919
1.2015946
1.2015956
1.2015959
1.201596
1.2015961
1.2015961
1.2015961
1.140684
1.1418126
1.1430196
1.1443079
1.1456804
1.1471396
1.1486876
1.1503262
1.1520568
1.1538799
1.1557957
1.1578031
1.1599004
1.1620843
1.1643501
1.1666913
1.1690992
1.1715624
1.1740665
1.1765938
1.1791228
1.1816286
1.1840827
1.1864541
1.1887105
1.1908203
1.1927545
1.1944896
1.1960095
1.1973072
1.1983856
1.1992564
1.199939
1.2004577
1.2008393
1.2011106
1.2012968
1.2014194
1.2014968
1.2015432
1.2015694
1.2015832
1.2015899
1.2015929
1.201594
1.2015944
1.2015945
1.2015946
1.2015946
1.2015946
1.1406089
1.1417342
1.1429376
1.1442221
1.1455905
1.1470454
1.1485888
1.1502226
1.1519481
1.1537659
1.1556761
1.1576778
1.1597692
1.1619472
1.1642071
1.1665426
1.1689451
1.1714035
1.1739035
1.1764278
1.1789552
1.181461
1.1839171
1.1862928
1.1885559
1.1906747
1.1926202
1.1943684
1.1959027
1.1972155
1.1983088
1.1991939
1.1998894
1.2004194
1.2008105
1.2010896
1.2012817
1.201409
1.2014896
1.2015383
1.201566
1.2015807
1.2015879
1.2015912
1.2015924
1.2015929
1.201593
1.2015931
1.2015931
1.2015931
1.140536
1.1416581
1.1428581
1.1441389
1.1455034
1.1469541
1.1484931
1.1501222
1.1518428
1.1536554
1.1555603
1.1575564
1.1596421
1.1618143
1.1640686
1.1663985
1.1687958
1.1712494
1.1737454
1.1762667
1.1787924
1.1812981
1.1837561
1.1861358
1.1884052
1.1905327
1.192489
1.1942498
1.195798
1.1971254
1.1982332
1.1991321
1.1998403
1.2003814
1.2007819
1.2010686
1.2012667
1.2013984
1.2014823
1.2015333
1.2015625
1.2015782
1.2015859
1.2015894
1.2015908
1.2015913
1.2015915
1.2015916
1.2015916
1.2015916
1.1404654
1.1415843
1.142781
1.1440583
1.145419
1.1468656
1.1484003
1.1500249
1.1517407
1.1535483
1.1554479
1.1574387
1.1595189
1.1616855
1.1639342
1.1662587
1.1686509
1.1710998
1.1735919
1.1761102
1.1786342
1.1811397
1.1835994
1.1859828
1.1882583
1.190394
1.1923607
1.1941336
1.1956953
1.1970368
1.1981587
1.1990712
1.1997917
1.2003437
1.2007534
1.2010476
1.2012516
1.2013878
1.201475
1.2015282
1.2015589
1.2015755
1.2015839
1.2015877
1.2015892
1.2015898
1.20159
1.2015901
1.2015901
1.2015901
1.1403968
1.1415127
1.1427061
1.14398
1.145337
1.1467797
1.1483103
1.1499305
1.1516416
1.1534444
1.1553389
1.1573244
1.1593993
1.1615605
1.1638038
1.166123
1.1685102
1.1709546
1.1734428
1.1759581
1.1784803
1.1809856
1.1834468
1.1858338
1.1881149
1.1902585
1.1922351
1.1940198
1.1955944
1.1969496
1.1980853
1.1990109
1.1997436
1.2003063
1.2007251
1.2010267
1.2012365
1.2013771
1.2014676
1.2015231
1.2015553
1.2015729
1.2015818
1.2015859
1.2015876
1.2015883
1.2015885
1.2015885
1.2015886
1.2015886
1.1403301
1.1414432
1.1426334
1.1439039
1.1452574
1.1466963
1.1482228
1.1498387
1.1515453
1.1533434
1.155233
1.1572135
1.1592831
1.161439
1.163677
1.1659912
1.1683734
1.1708134
1.1732978
1.1758102
1.1783306
1.1808356
1.1832981
1.1856884
1.1879749
1.1901261
1.1921122
1.1939082
1.1954954
1.1968639
1.198013
1.1989515
1.199696
1.2002692
1.2006969
1.2010058
1.2012214
1.2013664
1.2014601
1.2015179
1.2015516
1.2015702
1.2015797
1.2015841
1.201586
1.2015867
1.201587
1.201587
1.2015871
1.2015871
1.1402653
1.1413755
1.1425628
1.14383
1.14518
1.1466152
1.1481378
1.1497495
1.1514518
1.1532453
1.1551301
1.1571056
1.1591702
1.161321
1.1635539
1.165863
1.1682405
1.1706761
1.1731567
1.1756662
1.1781848
1.1806894
1.1831531
1.1855465
1.1878381
1.1899965
1.1919919
1.1937987
1.1953981
1.1967795
1.1979416
1.1988927
1.1996489
1.2002324
1.2006689
1.200985
1.2012063
1.2013557
1.2014526
1.2015126
1.2015479
1.2015675
1.2015776
1.2015823
1.2015844
1.2015852
1.2015855
1.2015855
1.2015856
1.2015856
1.1402023
1.1413097
1.142494
1.1437581
1.1451047
1.1465363
1.148055
1.1496628
1.1513608
1.1531498
1.15503
1.1570007
1.1590603
1.1612061
1.163434
1.1657383
1.1681111
1.1705424
1.1730194
1.175526
1.1780428
1.1805468
1.1830116
1.1854079
1.1877045
1.1898697
1.1918739
1.1936913
1.1953025
1.1966964
1.1978713
1.1988347
1.1996022
1.2001959
1.200641
1.2009643
1.2011912
1.2013449
1.201445
1.2015073
1.2015442
1.2015647
1.2015754
1.2015805
1.2015828
1.2015836
1.2015839
1.201584
1.2015841
1.2015841
1.1401409
1.1412457
1.1424271
1.143688
1.1450313
1.1464595
1.1479745
1.1495783
1.1512722
1.1530569
1.1549326
1.1568986
1.1589534
1.1610943
1.1633174
1.1656168
1.1679851
1.1704122
1.1728855
1.1753893
1.1779043
1.1804077
1.1828735
1.1852725
1.1875737
1.1897456
1.1917583
1.1935859
1.1952085
1.1966146
1.1978019
1.1987773
1.199556
1.2001596
1.2006133
1.2009436
1.2011761
1.2013341
1.2014374
1.201502
1.2015404
1.2015619
1.2015732
1.2015787
1.2015811
1.2015821
1.2015824
1.2015825
1.2015826
1.2015826
1.1400811
1.1411833
1.1423618
1.1436198
1.1449599
1.1463846
1.1478961
1.1494961
1.1511859
1.1529664
1.1548377
1.1567991
1.1588493
1.1609854
1.1632037
1.1654985
1.1678623
1.1702853
1.1727551
1.175256
1.1777691
1.180272
1.1827386
1.1851402
1.1874458
1.1896241
1.191645
1.1934824
1.1951161
1.196534
1.1977334
1.1987206
1.1995103
1.2001236
1.2005857
1.200923
1.2011611
1.2013233
1.2014297
1.2014966
1.2015365
1.2015591
1.201571
1.2015769
1.2015795
1.2015805
1.2015809
1.201581
1.2015811
1.2015811
1.1400228
1.1411224
1.1422983
1.1435533
1.1448903
1.1463117
1.1478196
1.1494159
1.1511018
1.1528782
1.1547452
1.1567022
1.1587478
1.1608793
1.1630929
1.1653832
1.1677426
1.1701616
1.1726278
1.1751259
1.1776372
1.1801394
1.1826068
1.1850108
1.1873206
1.189505
1.1915338
1.1933807
1.1950252
1.1964547
1.1976658
1.1986645
1.199465
1.2000879
1.2005583
1.2009024
1.201146
1.2013125
1.201422
1.2014911
1.2015326
1.2015562
1.2015688
1.201575
1.2015778
1.2015789
1.2015794
1.2015795
1.2015796
1.2015796
1.139966
1.141063
1.1422362
1.1434885
1.1448224
1.1462406
1.1477451
1.1493377
1.1510198
1.1527922
1.154655
1.1566076
1.1586488
1.1607758
1.1629849
1.1652706
1.1676258
1.1700409
1.1725037
1.174999
1.1775084
1.1800098
1.1824779
1.1848841
1.187198
1.1893882
1.1914247
1.1932807
1.1949357
1.1963765
1.1975991
1.1986091
1.1994201
1.2000525
1.200531
1.2008819
1.2011309
1.2013016
1.2014143
1.2014856
1.2015287
1.2015533
1.2015665
1.2015731
1.2015761
1.2015774
1.2015778
1.201578
1.201578
1.2015781
1.1399104
1.1410051
1.1421757
1.1434252
1.1447562
1.1461712
1.1476723
1.1492614
1.1509398
1.1527082
1.1545669
1.1565154
1.1585522
1.1606748
1.1628794
1.1651608
1.1675118
1.169923
1.1723824
1.174875
1.1773825
1.1798831
1.1823518
1.1847602
1.1870779
1.1892737
1.1913175
1.1931825
1.1948476
1.1962994
1.1975333
1.1985543
1.1993756
1.2000173
1.2005039
1.2008615
1.2011158
1.2012907
1.2014065
1.2014801
1.2015247
1.2015504
1.2015642
1.2015712
1.2015744
1.2015758
1.2015763
1.2015765
1.2015765
1.2015766
1.1398562
1.1409485
1.1421166
1.1433633
1.1446914
1.1461034
1.1476013
1.1491869
1.1508616
1.1526263
1.154481
1.1564253
1.1584579
1.1605761
1.1627765
1.1650536
1.1674005
1.1698079
1.1722639
1.1747537
1.1772594
1.1797592
1.1822284
1.1846388
1.1869602
1.1891614
1.1912123
1.193086
1.1947609
1.1962233
1.1974683
1.1985
1.1993315
1.1999824
1.2004769
1.2008411
1.2011008
1.2012797
1.2013986
1.2014745
1.2015207
1.2015474
1.2015619
1.2015693
1.2015727
1.2015742
1.2015748
1.201575
1.201575
1.2015751
1.1398033
1.1408933
1.1420589
1.143303
1.1446282
1.1460372
1.1475319
1.1491142
1.1507853
1.1525462
1.1543971
1.1563373
1.1583657
1.1604798
1.1626759
1.1649489
1.1672917
1.1696954
1.1721481
1.1746352
1.177139
1.179638
1.1821076
1.1845198
1.1868447
1.1890511
1.1911089
1.192991
1.1946756
1.1961484
1.197404
1.1984464
1.1992878
1.1999478
1.2004501
1.2008208
1.2010857
1.2012688
1.2013908
1.2014689
1.2015166
1.2015444
1.2015596
1.2015674
1.201571
1.2015726
1.2015732
1.2015735
1.2015735
1.2015735
1.1397515
1.1408392
1.1420024
1.1432439
1.1445665
1.1459724
1.147464
1.149043
1.1507107
1.152468
1.154315
1.1562514
1.1582757
1.1603856
1.1625776
1.1648465
1.1671854
1.1695854
1.1720348
1.1745193
1.1770212
1.1795193
1.1819892
1.1844032
1.1867315
1.1889429
1.1910074
1.1928975
1.1945915
1.1960744
1.1973406
1.1983933
1.1992446
1.1999133
1.2004234
1.2008005
1.2010707
1.2012578
1.2013829
1.2014632
1.2015125
1.2015414
1.2015572
1.2015654
1.2015693
1.201571
1.2015717
1.2015719
1.201572
1.201572
1.1397008
1.1407864
1.1419472
1.1431862
1.144506
1.1459092
1.1473977
1.1489735
1.1506378
1.1523915
1.1542348
1.1561673
1.1581877
1.1602935
1.1624814
1.1647463
1.1670814
1.1694778
1.171924
1.1744058
1.1769058
1.1794031
1.1818732
1.1842889
1.1866204
1.1888366
1.1909075
1.1928056
1.1945086
1.1960015
1.1972779
1.1983408
1.1992017
1.1998792
1.2003968
1.2007803
1.2010557
1.2012469
1.2013749
1.2014575
1.2015084
1.2015383
1.2015548
1.2015634
1.2015676
1.2015694
1.2015701
1.2015704
1.2015705
1.2015705
1.1396513
1.1407347
1.1418932
1.1431297
1.1444469
1.1458472
1.1473328
1.1489054
1.1505664
1.1523166
1.1541563
1.1560851
1.1581015
1.1602035
1.1623874
1.1646483
1.1669796
1.1693724
1.1718155
1.1742947
1.1767929
1.1792892
1.1817596
1.1841768
1.1865113
1.1887322
1.1908093
1.192715
1.1944269
1.1959295
1.197216
1.1982888
1.1991591
1.1998452
1.2003704
1.2007602
1.2010407
1.2012359
1.201367
1.2014517
1.2015042
1.2015352
1.2015524
1.2015614
1.2015658
1.2015678
1.2015686
1.2015689
1.201569
1.201569
1.1396028
1.140684
1.1418403
1.1430744
1.144389
1.1457866
1.1472693
1.1488389
1.1504966
1.1522434
1.1540795
1.1560046
1.1580172
1.1601153
1.1622953
1.1645524
1.16688
1.1692693
1.1717093
1.1741859
1.1766822
1.1791775
1.1816481
1.1840668
1.1864042
1.1886296
1.1907127
1.1926259
1.1943464
1.1958584
1.1971547
1.1982374
1.199117
1.1998115
1.2003441
1.2007402
1.2010257
1.2012249
1.201359
1.201446
1.2015
1.201532
1.20155
1.2015594
1.201564
1.2015661
1.201567
1.2015674
1.2015675
1.2015675
1.1395552
1.1406345
1.1417885
1.1430203
1.1443324
1.1457273
1.1472071
1.1487737
1.1504282
1.1521717
1.1540043
1.1559258
1.1579347
1.160029
1.1622052
1.1644585
1.1667824
1.1691683
1.1716052
1.1740793
1.1765737
1.179068
1.1815387
1.1839588
1.186299
1.1885287
1.1906177
1.1925381
1.194267
1.1957882
1.1970942
1.1981864
1.1990752
1.1997781
1.2003179
1.2007202
1.2010107
1.2012138
1.201351
1.2014402
1.2014958
1.2015289
1.2015475
1.2015574
1.2015623
1.2015645
1.2015655
1.2015658
1.201566
1.201566
1.1395087
1.1405859
1.1417378
1.1429672
1.1442769
1.1456692
1.1471462
1.1487098
1.1503612
1.1521015
1.1539307
1.1558486
1.1578539
1.1599445
1.1621169
1.1643665
1.1666869
1.1690694
1.1715032
1.1739748
1.1764673
1.1789607
1.1814314
1.1838527
1.1861956
1.1884295
1.1905241
1.1924516
1.1941887
1.195719
1.1970344
1.198136
1.1990337
1.1997448
1.2002919
1.2007003
1.2009958
1.2012028
1.2013429
1.2014343
1.2014915
1.2015257
1.201545
1.2015553
1.2015605
1.2015629
1.2015639
1.2015643
1.2015644
1.2015645
1.139463
1.1405383
1.1416881
1.1429152
1.1442225
1.1456122
1.1470865
1.1486472
1.1502956
1.1520326
1.1538585
1.1557729
1.1577747
1.1598616
1.1620304
1.1642764
1.1665932
1.1689724
1.1714033
1.1738723
1.176363
1.1788553
1.181326
1.1837486
1.1860941
1.188332
1.1904321
1.1923664
1.1941115
1.1956505
1.1969752
1.198086
1.1989926
1.1997118
1.200266
1.2006804
1.2009809
1.2011918
1.2013348
1.2014284
1.2014872
1.2015224
1.2015425
1.2015533
1.2015587
1.2015612
1.2015623
1.2015628
1.2015629
1.201563
1.1394183
1.1404916
1.1416393
1.1428643
1.1441691
1.1455563
1.147028
1.1485858
1.1502313
1.1519651
1.1537878
1.1556988
1.157697
1.1597804
1.1619456
1.164188
1.1665013
1.1688773
1.1713052
1.1737718
1.1762606
1.1787518
1.1812225
1.1836462
1.1859942
1.188236
1.1903414
1.1922824
1.1940353
1.1955829
1.1969166
1.1980366
1.1989518
1.199679
1.2002403
1.2006606
1.200966
1.2011807
1.2013267
1.2014225
1.2014828
1.2015192
1.20154
1.2015512
1.2015569
1.2015596
1.2015607
1.2015612
1.2015614
1.2015614
1.1393744
1.1404458
1.1415915
1.1428143
1.1441168
1.1455015
1.1469706
1.1485257
1.1501682
1.151899
1.1537184
1.1556261
1.1576209
1.1597007
1.1618624
1.1641013
1.1664112
1.168784
1.171209
1.1736731
1.1761601
1.1786503
1.1811209
1.1835457
1.185896
1.1881415
1.1902521
1.1921996
1.19396
1.1955162
1.1968587
1.1979876
1.1989114
1.1996465
1.2002146
1.2006409
1.2009511
1.2011696
1.2013186
1.2014166
1.2014784
1.2015159
1.2015374
1.2015491
1.2015551
1.2015579
1.2015592
1.2015597
1.2015599
1.2015599
1.1393313
1.1404009
1.1415445
1.1427652
1.1440655
1.1454478
1.1469143
1.1484666
1.1501063
1.1518341
1.1536504
1.1555548
1.1575462
1.1596226
1.1617808
1.1640163
1.1663228
1.1686924
1.1711146
1.1735763
1.1760614
1.1785505
1.181021
1.1834468
1.1857993
1.1880485
1.1901641
1.1921179
1.1938858
1.1954502
1.1968014
1.197939
1.1988713
1.1996141
1.2001891
1.2006212
1.2009362
1.2011586
1.2013105
1.2014106
1.201474
1.2015125
1.2015348
1.201547
1.2015532
1.2015562
1.2015576
1.2015581
1.2015584
1.2015584
1.139289
1.1403568
1.1414985
1.1427171
1.1440151
1.145395